/*--------------------------------*- C++ -*----------------------------------*\
  =========                 |
  \\      /  F ield         | OpenFOAM: The Open Source CFD Toolbox
   \\    /   O peration     | Website:  https://openfoam.org
    \\  /    A nd           | Version:  9
     \\/     M anipulation  |
\*---------------------------------------------------------------------------*/
FoamFile
{
    format      ascii;
    class       surfaceScalarField;
    location    "270";
    object      phi;
}
// * * * * * * * * * * * * * * * * * * * * * * * * * * * * * * * * * * * * * //

dimensions      [0 3 -1 0 0 0 0];

internalField   nonuniform List<scalar> 
24170
(
3.12901e-06
5.94002e-08
3.04663e-06
8.23771e-08
2.97354e-06
7.3089e-08
2.90491e-06
6.86275e-08
2.84059e-06
6.43203e-08
2.78328e-06
5.73101e-08
2.73397e-06
4.93091e-08
2.69204e-06
4.1933e-08
2.65639e-06
3.56488e-08
2.62598e-06
3.04127e-08
2.59982e-06
2.6154e-08
2.57709e-06
2.27312e-08
2.55713e-06
1.99631e-08
2.53936e-06
1.77678e-08
2.52345e-06
1.59088e-08
2.50835e-06
1.50974e-08
2.49478e-06
1.35769e-08
1.78115e-08
2.47697e-06
3.45306e-06
2.35848e-08
3.45701e-06
7.84351e-08
3.45055e-06
7.95479e-08
3.43909e-06
8.00811e-08
3.42432e-06
7.90939e-08
3.40707e-06
7.45561e-08
3.38786e-06
6.85184e-08
3.36735e-06
6.24472e-08
3.34622e-06
5.67812e-08
3.32505e-06
5.15762e-08
3.30434e-06
4.68629e-08
3.28437e-06
4.27074e-08
3.26532e-06
3.90097e-08
3.24725e-06
3.58389e-08
3.23023e-06
3.29271e-08
3.21426e-06
3.10672e-08
3.19964e-06
2.81989e-08
2.93471e-08
3.1881e-06
3.66816e-06
1.7941e-08
3.6792e-06
6.73925e-08
3.68543e-06
7.33179e-08
3.68947e-06
7.60431e-08
3.69107e-06
7.74908e-08
3.69011e-06
7.55155e-08
3.68699e-06
7.16461e-08
3.68216e-06
6.72765e-08
3.67602e-06
6.29174e-08
3.6689e-06
5.86957e-08
3.66108e-06
5.46851e-08
3.6528e-06
5.09827e-08
3.64426e-06
4.75531e-08
3.63562e-06
4.44813e-08
3.62694e-06
4.16083e-08
3.61862e-06
3.93789e-08
3.61006e-06
3.67583e-08
3.57753e-08
3.60364e-06
3.92585e-06
1.74798e-08
3.93592e-06
5.73202e-08
3.94258e-06
6.66636e-08
3.94812e-06
7.04979e-08
3.95254e-06
7.30704e-08
3.9555e-06
7.25596e-08
3.95718e-06
6.99669e-08
3.95782e-06
6.66306e-08
3.95762e-06
6.31154e-08
3.95673e-06
5.95897e-08
3.95528e-06
5.61401e-08
3.95338e-06
5.28747e-08
3.95115e-06
4.97903e-08
3.94867e-06
4.6958e-08
3.94599e-06
4.4291e-08
3.94337e-06
4.19984e-08
3.94049e-06
3.9632e-08
3.78008e-08
3.93847e-06
4.2082e-06
1.64067e-08
4.21599e-06
4.9533e-08
4.22169e-06
6.09622e-08
4.2268e-06
6.53879e-08
4.23155e-06
6.83157e-08
4.23553e-06
6.85798e-08
4.23871e-06
6.67886e-08
4.2412e-06
6.41411e-08
4.24311e-06
6.12085e-08
4.24452e-06
5.81766e-08
4.24552e-06
5.51402e-08
4.24619e-06
5.22049e-08
4.24659e-06
4.93929e-08
4.24679e-06
4.67573e-08
4.24682e-06
4.42556e-08
4.24685e-06
4.19745e-08
4.24676e-06
3.97147e-08
3.75996e-08
4.24697e-06
4.51071e-06
1.47832e-08
4.51689e-06
4.33576e-08
4.52214e-06
5.57099e-08
4.52696e-06
6.05658e-08
4.53168e-06
6.35964e-08
4.53594e-06
6.43224e-08
4.53962e-06
6.31044e-08
4.54279e-06
6.0967e-08
4.54553e-06
5.84704e-08
4.5479e-06
5.58122e-08
4.54994e-06
5.30972e-08
4.55172e-06
5.04235e-08
4.55328e-06
4.78311e-08
4.55468e-06
4.5358e-08
4.55595e-06
4.2987e-08
4.55718e-06
4.0745e-08
4.55836e-06
3.85362e-08
3.63399e-08
4.55962e-06
4.83433e-06
1.31722e-08
4.83963e-06
3.80576e-08
4.84476e-06
5.05814e-08
4.84947e-06
5.58567e-08
4.85411e-06
5.89563e-08
4.85843e-06
5.9996e-08
4.86232e-06
5.92214e-08
4.8658e-06
5.7489e-08
4.86893e-06
5.53398e-08
4.87176e-06
5.29826e-08
4.87432e-06
5.05304e-08
4.87667e-06
4.8075e-08
4.87884e-06
4.56662e-08
4.88086e-06
4.33336e-08
4.88277e-06
4.1073e-08
4.88463e-06
3.88855e-08
4.88645e-06
3.67196e-08
3.4527e-08
4.88826e-06
5.18105e-06
1.17049e-08
5.18576e-06
3.33491e-08
5.19076e-06
4.55756e-08
5.19542e-06
5.12e-08
5.20001e-06
5.43635e-08
5.20438e-06
5.5628e-08
5.20839e-06
5.52147e-08
5.21205e-06
5.38258e-08
5.21542e-06
5.19723e-08
5.21853e-06
4.98739e-08
5.22141e-06
4.76484e-08
5.2241e-06
4.53846e-08
5.22663e-06
4.31368e-08
5.22903e-06
4.09317e-08
5.23133e-06
3.87718e-08
5.23356e-06
3.66508e-08
5.23575e-06
3.45376e-08
3.23937e-08
5.23788e-06
5.55269e-06
1.03487e-08
5.55689e-06
2.91506e-08
5.5617e-06
4.0765e-08
5.56632e-06
4.65863e-08
5.57089e-06
4.97923e-08
5.5753e-06
5.12145e-08
5.57942e-06
5.10998e-08
5.58323e-06
5.00136e-08
5.58678e-06
4.84243e-08
5.59009e-06
4.6559e-08
5.5932e-06
4.45392e-08
5.59613e-06
4.24518e-08
5.59892e-06
4.03528e-08
5.60158e-06
3.82698e-08
5.60414e-06
3.62097e-08
5.60662e-06
3.41673e-08
5.60904e-06
3.21232e-08
3.00575e-08
5.61137e-06
5.95104e-06
9.08484e-09
5.95479e-06
2.54012e-08
5.95937e-06
3.61887e-08
5.96392e-06
4.20263e-08
5.96848e-06
4.5239e-08
5.97293e-06
4.67623e-08
5.97714e-06
4.68875e-08
5.98109e-06
4.60674e-08
5.98479e-06
4.47181e-08
5.98829e-06
4.30681e-08
5.99158e-06
4.12411e-08
5.99471e-06
3.93221e-08
5.9977e-06
3.73675e-08
6.00056e-06
3.54073e-08
6.00332e-06
3.34524e-08
6.00598e-06
3.15021e-08
6.00856e-06
2.95458e-08
2.75806e-08
6.01104e-06
6.37798e-06
7.91298e-09
6.38135e-06
2.20361e-08
6.38568e-06
3.18573e-08
6.39017e-06
3.75365e-08
6.3947e-06
4.07092e-08
6.39918e-06
4.22835e-08
6.40347e-06
4.25903e-08
6.40754e-06
4.19981e-08
6.4114e-06
4.08661e-08
6.41505e-06
3.94164e-08
6.41852e-06
3.7773e-08
6.42182e-06
3.60182e-08
6.42498e-06
3.42085e-08
6.42801e-06
3.23759e-08
6.43093e-06
3.05356e-08
6.43374e-06
2.86921e-08
6.43644e-06
2.68421e-08
2.49954e-08
6.43903e-06
5.74176e-06
6.98621e-09
5.74435e-06
1.94517e-08
5.74782e-06
2.83857e-08
5.75155e-06
3.38054e-08
5.75535e-06
3.69027e-08
5.75915e-06
3.84866e-08
5.76284e-06
3.89025e-08
5.76637e-06
3.84712e-08
5.76973e-06
3.75054e-08
5.77293e-06
3.62142e-08
5.77598e-06
3.47196e-08
5.7789e-06
3.3102e-08
5.78169e-06
3.14168e-08
5.78437e-06
2.96978e-08
5.78694e-06
2.7963e-08
5.78941e-06
2.62213e-08
5.79178e-06
2.44743e-08
2.27405e-08
5.79403e-06
6.99914e-06
6.00198e-09
7.00187e-06
1.67168e-08
7.00564e-06
2.4619e-08
7.00981e-06
2.96352e-08
7.01414e-06
3.25783e-08
7.01849e-06
3.41276e-08
7.02277e-06
3.46237e-08
7.0269e-06
3.43411e-08
7.03086e-06
3.35434e-08
7.03466e-06
3.24206e-08
7.03829e-06
3.10899e-08
7.04176e-06
2.9628e-08
7.04509e-06
2.80887e-08
7.04828e-06
2.65068e-08
7.05134e-06
2.49032e-08
7.05427e-06
2.3291e-08
7.05707e-06
2.16759e-08
2.00826e-08
7.05973e-06
8.53188e-06
4.96797e-09
8.53474e-06
1.3859e-08
8.53877e-06
2.05849e-08
8.54337e-06
2.50331e-08
8.54823e-06
2.77182e-08
8.55319e-06
2.91698e-08
8.55812e-06
2.97004e-08
8.56292e-06
2.95408e-08
8.56755e-06
2.89042e-08
8.57202e-06
2.79551e-08
8.57631e-06
2.68015e-08
8.58042e-06
2.55149e-08
8.58436e-06
2.41459e-08
8.58814e-06
2.27291e-08
8.59176e-06
2.12875e-08
8.59521e-06
1.98373e-08
8.5985e-06
1.83873e-08
1.69657e-08
8.60162e-06
1.04003e-05
3.89343e-09
1.04033e-05
1.08978e-08
1.04075e-05
1.63056e-08
1.04126e-05
2.00084e-08
1.0418e-05
2.23066e-08
1.04236e-05
2.35771e-08
1.04292e-05
2.408e-08
1.04347e-05
2.40026e-08
1.04401e-05
2.35092e-08
1.04453e-05
2.27329e-08
1.04504e-05
2.17671e-08
1.04552e-05
2.06754e-08
1.04599e-05
1.95032e-08
1.04643e-05
1.82832e-08
1.04685e-05
1.70386e-08
1.04726e-05
1.57868e-08
1.04764e-05
1.45386e-08
1.33226e-08
1.04801e-05
1.26779e-05
2.78335e-09
1.2681e-05
7.82816e-09
1.26855e-05
1.17801e-08
1.26909e-05
1.45563e-08
1.26969e-05
1.63172e-08
1.27032e-05
1.7302e-08
1.27096e-05
1.77001e-08
1.27159e-05
1.7651e-08
1.27222e-05
1.72721e-08
1.27283e-05
1.66611e-08
1.27341e-05
1.58909e-08
1.27398e-05
1.50132e-08
1.27452e-05
1.40657e-08
1.27504e-05
1.30765e-08
1.27554e-05
1.20666e-08
1.27601e-05
1.10525e-08
1.27646e-05
1.00448e-08
9.07006e-09
1.27689e-05
1.54543e-05
1.6272e-09
1.54576e-05
4.60425e-09
1.54624e-05
6.95146e-09
1.54683e-05
8.61776e-09
1.5475e-05
9.67757e-09
1.5482e-05
1.0256e-08
1.54892e-05
1.04623e-08
1.54965e-05
1.03806e-08
1.55037e-05
1.00812e-08
1.55107e-05
9.62421e-09
1.55176e-05
9.05643e-09
1.55242e-05
8.41281e-09
1.55305e-05
7.71967e-09
1.55366e-05
6.99745e-09
1.55424e-05
6.26211e-09
1.55479e-05
5.52679e-09
1.55532e-05
4.79971e-09
4.10375e-09
1.55581e-05
1.88389e-05
3.85083e-10
1.88424e-05
1.10212e-09
1.88477e-05
1.64679e-09
1.88543e-05
2.00302e-09
1.88618e-05
2.19131e-09
1.88698e-05
2.23941e-09
1.88781e-05
2.16911e-09
1.88865e-05
2.00025e-09
1.88948e-05
1.75307e-09
1.8903e-05
1.4461e-09
1.89109e-05
1.09485e-09
1.89186e-05
7.12255e-10
1.89261e-05
3.0942e-10
1.89332e-05
-1.04122e-10
1.89399e-05
-5.2025e-10
1.89464e-05
-9.316e-10
1.89525e-05
-1.33383e-09
-1.70969e-09
1.89583e-05
2.29648e-05
-1.04397e-09
2.29688e-05
-2.96702e-09
2.2975e-05
-4.55282e-09
2.29828e-05
-5.76349e-09
2.29916e-05
-6.61876e-09
2.30011e-05
-7.20493e-09
2.30108e-05
-7.60936e-09
2.30207e-05
-7.8866e-09
2.30305e-05
-8.07325e-09
2.30402e-05
-8.20039e-09
2.30496e-05
-8.29164e-09
2.30587e-05
-8.36135e-09
2.30674e-05
-8.41735e-09
2.30757e-05
-8.46385e-09
2.30837e-05
-8.50287e-09
2.30913e-05
-8.5345e-09
2.30985e-05
-8.55938e-09
-8.56702e-09
2.31054e-05
1.68118e-05
-2.16558e-09
1.6815e-05
-6.13539e-09
1.68198e-05
-9.37838e-09
1.68258e-05
-1.17548e-08
1.68325e-05
-1.33226e-08
1.68396e-05
-1.43099e-08
1.68469e-05
-1.4904e-08
1.68542e-05
-1.52087e-08
1.68615e-05
-1.5303e-08
1.68685e-05
-1.52586e-08
1.68754e-05
-1.51284e-08
1.68819e-05
-1.49451e-08
1.68883e-05
-1.47294e-08
1.68943e-05
-1.44952e-08
1.69e-05
-1.4251e-08
1.69055e-05
-1.40017e-08
1.69107e-05
-1.37505e-08
-1.34911e-08
1.69156e-05
1.46356e-05
-3.24281e-09
1.46387e-05
-9.21996e-09
1.46434e-05
-1.40886e-08
1.46492e-05
-1.74927e-08
1.46555e-05
-1.96023e-08
1.4662e-05
-2.0867e-08
1.46687e-05
-2.1557e-08
1.46753e-05
-2.18083e-08
1.46817e-05
-2.17517e-08
1.4688e-05
-2.15039e-08
1.4694e-05
-2.11403e-08
1.46997e-05
-2.07055e-08
1.47052e-05
-2.02298e-08
1.47105e-05
-1.97343e-08
1.47155e-05
-1.92323e-08
1.47202e-05
-1.87314e-08
1.47247e-05
-1.82364e-08
-1.77435e-08
1.47289e-05
1.27411e-05
-4.2516e-09
1.27443e-05
-1.23455e-08
1.27491e-05
-1.89156e-08
1.27547e-05
-2.31337e-08
1.27607e-05
-2.55765e-08
1.27669e-05
-2.70179e-08
1.2773e-05
-2.77206e-08
1.2779e-05
-2.7834e-08
1.27849e-05
-2.75652e-08
1.27904e-05
-2.70793e-08
1.27958e-05
-2.6466e-08
1.28008e-05
-2.57769e-08
1.28057e-05
-2.50489e-08
1.28102e-05
-2.43078e-08
1.28146e-05
-2.3569e-08
1.28187e-05
-2.28408e-08
1.28226e-05
-2.21281e-08
-2.14283e-08
1.28262e-05
1.10918e-05
-5.09444e-09
1.1095e-05
-1.55655e-08
1.11001e-05
-2.40383e-08
1.11057e-05
-2.87535e-08
1.11115e-05
-3.13061e-08
1.11173e-05
-3.28246e-08
1.1123e-05
-3.34408e-08
1.11285e-05
-3.33366e-08
1.11337e-05
-3.28145e-08
1.11387e-05
-3.2072e-08
1.11435e-05
-3.12006e-08
1.11479e-05
-3.02571e-08
1.11522e-05
-2.92846e-08
1.11562e-05
-2.83117e-08
1.116e-05
-2.73536e-08
1.11635e-05
-2.64185e-08
1.11669e-05
-2.55105e-08
-2.46272e-08
1.11701e-05
9.65582e-06
-5.70068e-09
9.65924e-06
-1.89877e-08
9.66458e-06
-2.93805e-08
9.67008e-06
-3.42459e-08
9.67563e-06
-3.68585e-08
9.68118e-06
-3.83769e-08
9.68651e-06
-3.87656e-08
9.69152e-06
-3.83555e-08
9.69626e-06
-3.75497e-08
9.70073e-06
-3.65421e-08
9.70494e-06
-3.54118e-08
9.7089e-06
-3.42181e-08
9.71263e-06
-3.30087e-08
9.71613e-06
-3.18131e-08
9.71942e-06
-3.06463e-08
9.72252e-06
-2.95156e-08
9.72543e-06
-2.84231e-08
-2.7365e-08
9.72817e-06
8.40532e-06
-5.67035e-09
8.40963e-06
-2.33007e-08
8.41487e-06
-3.46124e-08
8.41989e-06
-3.92692e-08
8.42525e-06
-4.22189e-08
8.43065e-06
-4.37783e-08
8.43573e-06
-4.38436e-08
8.44043e-06
-4.30532e-08
8.44479e-06
-4.19098e-08
8.44883e-06
-4.05897e-08
8.45258e-06
-3.91622e-08
8.45606e-06
-3.769e-08
8.45927e-06
-3.62224e-08
8.46224e-06
-3.47874e-08
8.465e-06
-3.34e-08
8.46755e-06
-3.20664e-08
8.46991e-06
-3.07887e-08
-2.95633e-08
8.47211e-06
7.31455e-06
-2.93168e-09
7.32119e-06
-2.99422e-08
7.32674e-06
-4.01607e-08
7.33168e-06
-4.42167e-08
7.33708e-06
-4.76115e-08
7.34239e-06
-4.90931e-08
7.34726e-06
-4.87146e-08
7.35167e-06
-4.74586e-08
7.35564e-06
-4.58798e-08
7.35918e-06
-4.41369e-08
7.36233e-06
-4.23102e-08
7.36511e-06
-4.04724e-08
7.36757e-06
-3.86761e-08
7.36973e-06
-3.69455e-08
7.37162e-06
-3.52959e-08
7.37328e-06
-3.373e-08
7.37474e-06
-3.22482e-08
-3.08411e-08
7.37602e-06
6.36245e-06
4.68504e-09
6.37189e-06
-3.93824e-08
6.37931e-06
-4.75853e-08
6.38595e-06
-5.08541e-08
6.39223e-06
-5.38893e-08
6.39754e-06
-5.44008e-08
6.40183e-06
-5.30034e-08
6.4053e-06
-5.09328e-08
6.40809e-06
-4.86728e-08
6.41027e-06
-4.63147e-08
6.4119e-06
-4.39354e-08
6.41304e-06
-4.16122e-08
6.41375e-06
-3.93958e-08
6.41411e-06
-3.73044e-08
6.41417e-06
-3.5352e-08
6.41397e-06
-3.35344e-08
6.41358e-06
-3.18528e-08
-3.0287e-08
6.41302e-06
5.5412e-06
8.94797e-09
5.55032e-06
-4.85042e-08
5.55834e-06
-5.56015e-08
5.56604e-06
-5.85532e-08
5.5725e-06
-6.03472e-08
5.57682e-06
-5.87214e-08
5.57905e-06
-5.52402e-08
5.57961e-06
-5.14869e-08
5.57885e-06
-4.79137e-08
5.57706e-06
-4.45237e-08
5.57446e-06
-4.13358e-08
5.57124e-06
-3.83926e-08
5.56754e-06
-3.57024e-08
5.5635e-06
-3.32569e-08
5.5592e-06
-3.10532e-08
5.55474e-06
-2.90743e-08
5.55021e-06
-2.73218e-08
-2.57467e-08
5.54567e-06
4.86004e-06
-2.3488e-08
4.86538e-06
-5.38456e-08
4.86524e-06
-5.54547e-08
4.86217e-06
-5.54816e-08
4.85699e-06
-5.51741e-08
4.84949e-06
-5.12175e-08
4.83979e-06
-4.55399e-08
4.82839e-06
-4.0089e-08
4.81581e-06
-3.53351e-08
4.80253e-06
-3.12397e-08
4.78892e-06
-2.77317e-08
4.77528e-06
-2.47487e-08
4.76179e-06
-2.22125e-08
4.74859e-06
-2.0052e-08
4.73575e-06
-1.8221e-08
4.72337e-06
-1.66866e-08
4.71153e-06
-1.54863e-08
-1.51399e-08
4.70092e-06
4.17919e-06
4.12534e-06
4.06989e-06
4.01441e-06
3.95923e-06
3.90801e-06
3.86247e-06
3.82239e-06
3.78705e-06
3.75581e-06
3.72808e-06
3.70333e-06
3.68112e-06
3.66107e-06
3.64284e-06
3.62616e-06
3.61067e-06
3.59553e-06
1.11965e-08
-1.12074e-08
2.43856e-08
-1.32057e-08
3.37044e-08
-9.33225e-09
3.77322e-08
-4.04129e-09
3.64276e-08
1.29382e-09
3.04616e-08
5.95313e-09
2.08251e-08
9.62832e-09
8.45212e-09
1.23602e-08
-5.9195e-09
1.43655e-08
-2.18417e-08
1.59108e-08
-3.90208e-08
1.71754e-08
-5.73038e-08
1.82742e-08
-7.65995e-08
1.92934e-08
-9.68801e-08
2.02753e-08
-1.18119e-07
2.12372e-08
-1.40302e-07
2.21815e-08
-1.63406e-07
2.31026e-08
-1.87396e-07
2.39906e-08
-2.12231e-07
2.48337e-08
-2.3785e-07
2.56207e-08
-2.64196e-07
2.63438e-08
-2.91197e-07
2.70022e-08
-3.18803e-07
2.76026e-08
-3.46935e-07
2.81315e-08
-3.75554e-07
2.86159e-08
-4.04736e-07
2.91813e-08
-4.34542e-07
2.98029e-08
-4.64934e-07
3.0392e-08
-4.95967e-07
3.10302e-08
-5.2795e-07
3.19826e-08
-5.60851e-07
3.28972e-08
-5.94343e-07
3.34887e-08
-6.28408e-07
3.40613e-08
-6.6314e-07
3.4728e-08
-6.98511e-07
3.53658e-08
-7.34804e-07
3.62895e-08
-7.74672e-07
3.98628e-08
-8.22949e-07
4.82727e-08
-8.67906e-07
4.4951e-08
-9.0538e-07
3.74687e-08
-9.46381e-07
4.09951e-08
-9.85271e-07
3.88854e-08
-1.02513e-06
3.98533e-08
-1.068e-06
4.28696e-08
-1.1113e-06
4.32906e-08
-1.15494e-06
4.36388e-08
-1.19878e-06
4.38342e-08
-1.24269e-06
4.39119e-08
-1.28658e-06
4.3887e-08
-1.33038e-06
4.37907e-08
-1.37402e-06
4.36403e-08
-1.41748e-06
4.34518e-08
-1.46072e-06
4.3234e-08
-1.50372e-06
4.29934e-08
-1.54646e-06
4.27331e-08
-1.58892e-06
4.24547e-08
-1.63108e-06
4.21586e-08
-1.67293e-06
4.18441e-08
-1.71445e-06
4.15101e-08
-1.75561e-06
4.11549e-08
-1.79639e-06
4.07769e-08
-1.83677e-06
4.03739e-08
-1.87672e-06
3.99444e-08
-1.91621e-06
3.94859e-08
-1.95521e-06
3.89968e-08
-1.99369e-06
3.84749e-08
-2.03161e-06
3.79189e-08
-2.06894e-06
3.73268e-08
-2.10564e-06
3.66977e-08
-2.14168e-06
3.60297e-08
-2.177e-06
3.53225e-08
-2.21158e-06
3.45744e-08
-2.24537e-06
3.37851e-08
-2.27833e-06
3.29536e-08
-2.31041e-06
3.20798e-08
-2.34158e-06
3.11629e-08
-2.37178e-06
3.02035e-08
-2.40099e-06
2.92011e-08
-2.42915e-06
2.81564e-08
-2.45622e-06
2.70688e-08
-2.48216e-06
2.59393e-08
-2.50694e-06
2.47676e-08
-2.53049e-06
2.35547e-08
-2.5528e-06
2.23e-08
-2.5738e-06
2.10046e-08
-2.59347e-06
1.96678e-08
-2.61176e-06
1.82906e-08
-2.62863e-06
1.68717e-08
-2.64403e-06
1.54097e-08
-2.65793e-06
1.39015e-08
-2.67026e-06
1.23415e-08
-2.68098e-06
1.07246e-08
-2.69002e-06
9.04438e-09
-2.69731e-06
7.29145e-09
-2.70276e-06
5.44966e-09
-2.70626e-06
3.50473e-09
-2.70774e-06
1.48122e-09
-2.70723e-06
-5.04103e-10
-2.70493e-06
-2.29977e-09
-2.70099e-06
-3.94483e-09
-2.69543e-06
-5.5595e-09
-2.68827e-06
-7.16883e-09
-2.67949e-06
-8.78317e-09
-2.66909e-06
-1.04044e-08
-2.65707e-06
-1.20308e-08
-2.64342e-06
-1.36619e-08
-2.62813e-06
-1.52946e-08
-2.61121e-06
-1.69283e-08
-2.59266e-06
-1.85601e-08
-2.57247e-06
-2.01894e-08
-2.55066e-06
-2.18131e-08
-2.52723e-06
-2.34306e-08
-2.50219e-06
-2.50386e-08
-2.47555e-06
-2.66362e-08
-2.44732e-06
-2.82203e-08
-2.41753e-06
-2.97897e-08
-2.38618e-06
-3.13413e-08
-2.35329e-06
-3.28738e-08
-2.3189e-06
-3.4384e-08
-2.28302e-06
-3.58702e-08
-2.24568e-06
-3.73293e-08
-2.2069e-06
-3.87592e-08
-2.16674e-06
-4.0157e-08
-2.1252e-06
-4.15204e-08
-2.08234e-06
-4.28472e-08
-2.03818e-06
-4.41354e-08
-1.99278e-06
-4.5384e-08
-1.94617e-06
-4.65909e-08
-1.8984e-06
-4.7755e-08
-1.8495e-06
-4.88752e-08
-1.79953e-06
-4.99476e-08
-1.74855e-06
-5.0962e-08
-1.69661e-06
-5.19241e-08
-1.64376e-06
-5.28369e-08
-1.59006e-06
-5.36969e-08
-1.53556e-06
-5.44981e-08
-1.48031e-06
-5.52427e-08
-1.42439e-06
-5.59291e-08
-1.36785e-06
-5.65592e-08
-1.31075e-06
-5.71306e-08
-1.25313e-06
-5.76434e-08
-1.19507e-06
-5.80964e-08
-1.13661e-06
-5.84899e-08
-1.07782e-06
-5.88251e-08
-1.01875e-06
-5.91029e-08
-9.59459e-07
-5.93251e-08
-8.99999e-07
-5.94925e-08
-8.40425e-07
-5.96069e-08
-7.80787e-07
-5.96694e-08
-7.21137e-07
-5.96823e-08
-6.6152e-07
-5.96468e-08
-6.01984e-07
-5.95652e-08
-5.42573e-07
-5.94393e-08
-4.83328e-07
-5.92715e-08
-4.2429e-07
-5.90634e-08
-3.65497e-07
-5.88177e-08
-3.06984e-07
-5.85344e-08
-2.48787e-07
-5.82166e-08
-1.90942e-07
-5.78626e-08
-1.33481e-07
-5.74767e-08
-7.64321e-08
-5.70612e-08
-1.98854e-08
-5.65564e-08
3.61451e-08
-5.60367e-08
9.16668e-08
-5.5525e-08
1.46608e-07
-5.49408e-08
2.00963e-07
-5.43525e-08
2.54774e-07
-5.38055e-08
3.08076e-07
-5.3293e-08
3.60891e-07
-5.28042e-08
4.13235e-07
-5.23297e-08
4.65104e-07
-5.18533e-08
5.16476e-07
-5.13532e-08
5.67284e-07
-5.07871e-08
6.17391e-07
-5.00829e-08
6.66514e-07
-4.90977e-08
7.14079e-07
-4.75359e-08
7.58828e-07
-4.47194e-08
7.97675e-07
-3.88158e-08
8.22959e-07
-2.52553e-08
1.86342e-08
8.04346e-07
8.8798e-09
-2.00963e-08
1.16562e-08
-1.59937e-08
9.77665e-09
-7.46027e-09
4.71339e-09
1.015e-09
-2.88498e-09
8.88679e-09
-1.28346e-08
1.58967e-08
-2.50951e-08
2.18845e-08
-3.95709e-08
2.68303e-08
-5.60618e-08
3.08531e-08
-7.43083e-08
3.4152e-08
-9.40725e-08
3.69371e-08
-1.15187e-07
3.93843e-08
-1.37519e-07
4.16232e-08
-1.60984e-07
4.37376e-08
-1.85523e-07
4.57759e-08
-2.11104e-07
4.77611e-08
-2.37703e-07
4.97008e-08
-2.65305e-07
5.15924e-08
-2.93901e-07
5.34289e-08
-3.23482e-07
5.52029e-08
-3.5405e-07
5.69101e-08
-3.85601e-07
5.85527e-08
-4.18142e-07
6.0142e-08
-4.51709e-07
6.16978e-08
-4.86351e-07
6.32552e-08
-5.22039e-07
6.48683e-08
-5.58804e-07
6.65658e-08
-5.96762e-07
6.83495e-08
-6.35986e-07
7.0252e-08
-6.76297e-07
7.22926e-08
-7.17745e-07
7.4343e-08
-7.60521e-07
7.6263e-08
-8.04569e-07
7.81057e-08
-8.49808e-07
7.99652e-08
-8.96386e-07
8.19403e-08
-9.44293e-07
8.41929e-08
-9.91345e-07
8.6911e-08
-1.03233e-06
8.92574e-08
-1.07554e-06
8.81491e-08
-1.12371e-06
8.5639e-08
-1.16783e-06
8.51114e-08
-1.21313e-06
8.41813e-08
-1.25742e-06
8.41417e-08
-1.29919e-06
8.46425e-08
-1.3405e-06
8.4596e-08
-1.38122e-06
8.43543e-08
-1.42142e-06
8.40271e-08
-1.46114e-06
8.36356e-08
-1.50045e-06
8.31899e-08
-1.53936e-06
8.26984e-08
-1.57789e-06
8.21681e-08
-1.61604e-06
8.16047e-08
-1.65382e-06
8.10118e-08
-1.69123e-06
8.03916e-08
-1.72824e-06
7.9744e-08
-1.76486e-06
7.9068e-08
-1.80106e-06
7.83615e-08
-1.83685e-06
7.76217e-08
-1.87218e-06
7.68453e-08
-1.90706e-06
7.60287e-08
-1.94146e-06
7.51684e-08
-1.97535e-06
7.42606e-08
-2.00871e-06
7.33017e-08
-2.04151e-06
7.22883e-08
-2.07374e-06
7.1217e-08
-2.10535e-06
7.00847e-08
-2.13632e-06
6.88887e-08
-2.16662e-06
6.76263e-08
-2.19622e-06
6.62954e-08
-2.22509e-06
6.4894e-08
-2.25319e-06
6.34203e-08
-2.28049e-06
6.18729e-08
-2.30696e-06
6.02508e-08
-2.33256e-06
5.85529e-08
-2.35726e-06
5.67787e-08
-2.38103e-06
5.49278e-08
-2.40383e-06
5.30003e-08
-2.42563e-06
5.09964e-08
-2.44639e-06
4.89163e-08
-2.46608e-06
4.67604e-08
-2.48468e-06
4.45296e-08
-2.50213e-06
4.22243e-08
-2.51843e-06
3.98455e-08
-2.53352e-06
3.73938e-08
-2.54739e-06
3.48703e-08
-2.56e-06
3.2276e-08
-2.57132e-06
2.96119e-08
-2.58132e-06
2.68785e-08
-2.58999e-06
2.40765e-08
-2.59729e-06
2.1205e-08
-2.6032e-06
1.82638e-08
-2.60773e-06
1.52539e-08
-2.61086e-06
1.21775e-08
-2.61261e-06
9.03875e-09
-2.613e-06
5.84725e-09
-2.61213e-06
2.6298e-09
-2.61008e-06
-5.6823e-10
-2.60686e-06
-3.71992e-09
-2.60231e-06
-6.85365e-09
-2.59625e-06
-1.00013e-08
-2.58865e-06
-1.31657e-08
-2.57947e-06
-1.63466e-08
-2.56872e-06
-1.95448e-08
-2.55637e-06
-2.27582e-08
-2.54242e-06
-2.59837e-08
-2.52687e-06
-2.92176e-08
-2.50972e-06
-3.24562e-08
-2.49096e-06
-3.56959e-08
-2.47059e-06
-3.89329e-08
-2.44861e-06
-4.21638e-08
-2.42504e-06
-4.53844e-08
-2.39988e-06
-4.85914e-08
-2.37314e-06
-5.17804e-08
-2.34483e-06
-5.49477e-08
-2.31495e-06
-5.80887e-08
-2.28354e-06
-6.11997e-08
-2.2506e-06
-6.42759e-08
-2.21616e-06
-6.73131e-08
-2.18023e-06
-7.03064e-08
-2.14284e-06
-7.32515e-08
-2.10402e-06
-7.6143e-08
-2.06379e-06
-7.89762e-08
-2.0222e-06
-8.17456e-08
-1.97926e-06
-8.44464e-08
-1.93503e-06
-8.70738e-08
-1.88953e-06
-8.9624e-08
-1.84281e-06
-9.20933e-08
-1.79491e-06
-9.44792e-08
-1.74587e-06
-9.67795e-08
-1.69574e-06
-9.89917e-08
-1.64457e-06
-1.01106e-07
-1.59241e-06
-1.03109e-07
-1.53932e-06
-1.05007e-07
-1.48535e-06
-1.06804e-07
-1.43054e-06
-1.08493e-07
-1.37497e-06
-1.10067e-07
-1.31869e-06
-1.11525e-07
-1.26176e-06
-1.12869e-07
-1.20423e-06
-1.14096e-07
-1.14617e-06
-1.15208e-07
-1.08763e-06
-1.16202e-07
-1.02866e-06
-1.17077e-07
-9.69338e-07
-1.17834e-07
-9.09705e-07
-1.18476e-07
-8.49822e-07
-1.19003e-07
-7.89746e-07
-1.19419e-07
-7.2953e-07
-1.19726e-07
-6.69228e-07
-1.19927e-07
-6.0889e-07
-1.20024e-07
-5.48568e-07
-1.20022e-07
-4.88307e-07
-1.19923e-07
-4.28156e-07
-1.19732e-07
-3.68158e-07
-1.19452e-07
-3.08356e-07
-1.19088e-07
-2.48787e-07
-1.18645e-07
-1.89491e-07
-1.18126e-07
-1.30502e-07
-1.17534e-07
-7.18525e-08
-1.16876e-07
-1.3573e-08
-1.16151e-07
4.43112e-08
-1.15368e-07
1.01777e-07
-1.14533e-07
1.58845e-07
-1.13627e-07
2.15474e-07
-1.12669e-07
2.71597e-07
-1.11648e-07
3.27235e-07
-1.10578e-07
3.82413e-07
-1.09527e-07
4.37143e-07
-1.08531e-07
4.91443e-07
-1.07586e-07
5.45328e-07
-1.06682e-07
5.98808e-07
-1.05799e-07
6.51877e-07
-1.04911e-07
7.04507e-07
-1.03969e-07
7.56627e-07
-1.02893e-07
8.08101e-07
-1.01538e-07
8.58654e-07
-9.96328e-08
9.07788e-07
-9.66474e-08
9.54479e-07
-9.13886e-08
9.97139e-07
-8.14516e-08
1.03243e-06
-6.05242e-08
-9.82984e-09
1.06091e-06
3.06279e-11
-2.01334e-08
-6.13916e-09
-9.83146e-09
-1.49209e-08
1.31693e-09
-2.53717e-08
1.14618e-08
-3.71689e-08
2.0681e-08
-5.02705e-08
2.89947e-08
-6.47605e-08
3.63721e-08
-8.07435e-08
4.281e-08
-9.82669e-08
4.83743e-08
-1.17311e-07
5.31926e-08
-1.37798e-07
5.74228e-08
-1.59637e-07
6.12202e-08
-1.82731e-07
6.47164e-08
-2.07006e-07
6.80107e-08
-2.32403e-07
7.11719e-08
-2.58886e-07
7.4243e-08
-2.86434e-07
7.72481e-08
-3.1504e-07
8.01984e-08
-3.44709e-07
8.3097e-08
-3.75449e-07
8.59432e-08
-4.07277e-07
8.8736e-08
-4.40201e-07
9.14766e-08
-4.7423e-07
9.41695e-08
-5.09357e-07
9.68229e-08
-5.45551e-07
9.94473e-08
-5.82737e-07
1.02053e-07
-6.20818e-07
1.04644e-07
-6.59683e-07
1.07213e-07
-6.99185e-07
1.09752e-07
-7.39144e-07
1.12251e-07
-7.79461e-07
1.14658e-07
-8.20114e-07
1.16915e-07
-8.6103e-07
1.19019e-07
-9.02047e-07
1.2098e-07
-9.42899e-07
1.2279e-07
-9.83109e-07
1.244e-07
-1.0219e-06
1.257e-07
-1.05895e-06
1.26302e-07
-1.09647e-06
1.25665e-07
-1.13514e-06
1.24309e-07
-1.17322e-06
1.23187e-07
-1.21126e-06
1.22224e-07
-1.24876e-06
1.21632e-07
-1.28528e-06
1.21166e-07
-1.32127e-06
1.2058e-07
-1.35684e-06
1.19928e-07
-1.39205e-06
1.19237e-07
-1.42694e-06
1.18517e-07
-1.46152e-06
1.17769e-07
-1.49582e-06
1.16995e-07
-1.52984e-06
1.16192e-07
-1.5636e-06
1.1536e-07
-1.59709e-06
1.14497e-07
-1.6303e-06
1.13601e-07
-1.66322e-06
1.12668e-07
-1.69585e-06
1.11695e-07
-1.72817e-06
1.10677e-07
-1.76016e-06
1.09609e-07
-1.7918e-06
1.08486e-07
-1.82308e-06
1.07302e-07
-1.85397e-06
1.06053e-07
-1.88444e-06
1.04733e-07
-1.91448e-06
1.03337e-07
-1.94405e-06
1.0186e-07
-1.97314e-06
1.00298e-07
-2.0017e-06
9.86463e-08
-2.02971e-06
9.69013e-08
-2.05715e-06
9.50596e-08
-2.08397e-06
9.31179e-08
-2.11016e-06
9.10737e-08
-2.13566e-06
8.89245e-08
-2.16046e-06
8.66685e-08
-2.18451e-06
8.43041e-08
-2.20779e-06
8.183e-08
-2.23026e-06
7.92455e-08
-2.25188e-06
7.65501e-08
-2.27263e-06
7.37439e-08
-2.29246e-06
7.0827e-08
-2.31135e-06
6.78001e-08
-2.32925e-06
6.46637e-08
-2.34614e-06
6.14191e-08
-2.36199e-06
5.80674e-08
-2.37675e-06
5.46101e-08
-2.39041e-06
5.10488e-08
-2.40292e-06
4.73856e-08
-2.41427e-06
4.36224e-08
-2.42442e-06
3.97618e-08
-2.43335e-06
3.58063e-08
-2.44103e-06
3.17585e-08
-2.44744e-06
2.76215e-08
-2.45257e-06
2.33984e-08
-2.45641e-06
1.90948e-08
-2.45895e-06
1.47182e-08
-2.46019e-06
1.02781e-08
-2.46013e-06
5.789e-09
-2.45877e-06
1.27091e-09
-2.45609e-06
-3.25707e-09
-2.45201e-06
-7.79686e-09
-2.44649e-06
-1.23718e-08
-2.4395e-06
-1.69941e-08
-2.43101e-06
-2.16577e-08
-2.42101e-06
-2.63566e-08
-2.40947e-06
-3.10858e-08
-2.39639e-06
-3.58396e-08
-2.38177e-06
-4.06126e-08
-2.36559e-06
-4.53988e-08
-2.34786e-06
-5.01927e-08
-2.32857e-06
-5.49885e-08
-2.30773e-06
-5.9781e-08
-2.28533e-06
-6.45641e-08
-2.26138e-06
-6.93328e-08
-2.23589e-06
-7.40807e-08
-2.20887e-06
-7.88024e-08
-2.18032e-06
-8.34916e-08
-2.15027e-06
-8.81423e-08
-2.11872e-06
-9.27481e-08
-2.08568e-06
-9.73026e-08
-2.05119e-06
-1.01799e-07
-2.01527e-06
-1.06231e-07
-1.97792e-06
-1.10591e-07
-1.93919e-06
-1.14871e-07
-1.89909e-06
-1.19066e-07
-1.85767e-06
-1.23165e-07
-1.81495e-06
-1.27163e-07
-1.77096e-06
-1.31052e-07
-1.72575e-06
-1.34825e-07
-1.67936e-06
-1.38477e-07
-1.63183e-06
-1.42004e-07
-1.5832e-06
-1.45403e-07
-1.53351e-06
-1.48668e-07
-1.48282e-06
-1.51789e-07
-1.43117e-06
-1.54749e-07
-1.37862e-06
-1.57551e-07
-1.32522e-06
-1.60198e-07
-1.27103e-06
-1.62685e-07
-1.21609e-06
-1.65e-07
-1.16048e-06
-1.67144e-07
-1.10423e-06
-1.69115e-07
-1.04743e-06
-1.70912e-07
-9.90107e-07
-1.72536e-07
-9.32333e-07
-1.73985e-07
-8.74161e-07
-1.75258e-07
-8.15647e-07
-1.76357e-07
-7.56848e-07
-1.77283e-07
-6.97818e-07
-1.78041e-07
-6.38612e-07
-1.78632e-07
-5.79284e-07
-1.79061e-07
-5.19884e-07
-1.79333e-07
-4.60462e-07
-1.79451e-07
-4.01068e-07
-1.79421e-07
-3.41747e-07
-1.79249e-07
-2.82544e-07
-1.78938e-07
-2.23503e-07
-1.78498e-07
-1.64662e-07
-1.77933e-07
-1.0606e-07
-1.7725e-07
-4.77307e-08
-1.76458e-07
1.02956e-08
-1.75563e-07
6.79878e-08
-1.7457e-07
1.2532e-07
-1.73484e-07
1.8227e-07
-1.72318e-07
2.3882e-07
-1.71084e-07
2.94977e-07
-1.69785e-07
3.5074e-07
-1.68432e-07
4.06105e-07
-1.67013e-07
4.61079e-07
-1.65551e-07
5.15661e-07
-1.64108e-07
5.69852e-07
-1.62721e-07
6.23662e-07
-1.61394e-07
6.77099e-07
-1.60118e-07
7.3017e-07
-1.58868e-07
7.82867e-07
-1.57606e-07
8.35163e-07
-1.56262e-07
8.86991e-07
-1.54719e-07
9.38225e-07
-1.5277e-07
9.88635e-07
-1.5004e-07
1.03782e-06
-1.45831e-07
1.08515e-06
-1.38714e-07
1.12976e-06
-1.26059e-07
1.17119e-06
-1.01948e-07
-5.26972e-08
1.21406e-06
-7.99015e-09
-1.21484e-08
-2.009e-08
2.26306e-09
-3.34827e-08
1.47065e-08
-4.76629e-08
2.56391e-08
-6.25441e-08
3.55601e-08
-7.81806e-08
4.46288e-08
-9.46922e-08
5.28819e-08
-1.12218e-07
6.03336e-08
-1.3087e-07
6.7025e-08
-1.50716e-07
7.30361e-08
-1.7177e-07
7.84756e-08
-1.94014e-07
8.3462e-08
-2.17405e-07
8.81069e-08
-2.419e-07
9.25043e-08
-2.67456e-07
9.67269e-08
-2.9404e-07
1.00826e-07
-3.21629e-07
1.04836e-07
-3.50206e-07
1.08775e-07
-3.7976e-07
1.1265e-07
-4.1028e-07
1.16463e-07
-4.41751e-07
1.20206e-07
-4.74144e-07
1.23868e-07
-5.07412e-07
1.27436e-07
-5.41484e-07
1.30893e-07
-5.76258e-07
1.34219e-07
-6.11603e-07
1.37397e-07
-6.47371e-07
1.4041e-07
-6.83407e-07
1.43248e-07
-7.19557e-07
1.459e-07
-7.5567e-07
1.48363e-07
-7.91636e-07
1.50624e-07
-8.27384e-07
1.52662e-07
-8.6283e-07
1.54464e-07
-8.97868e-07
1.56017e-07
-9.32372e-07
1.57292e-07
-9.66212e-07
1.58238e-07
-9.99294e-07
1.58779e-07
-1.03181e-06
1.58813e-07
-1.06441e-06
1.58269e-07
-1.09741e-06
1.57308e-07
-1.13046e-06
1.56232e-07
-1.16341e-06
1.5517e-07
-1.19601e-06
1.54236e-07
-1.22823e-06
1.53383e-07
-1.26018e-06
1.52524e-07
-1.2919e-06
1.51648e-07
-1.32342e-06
1.50752e-07
-1.35474e-06
1.49838e-07
-1.38588e-06
1.48904e-07
-1.41683e-06
1.47945e-07
-1.4476e-06
1.46959e-07
-1.47818e-06
1.45941e-07
-1.50857e-06
1.44886e-07
-1.53876e-06
1.43787e-07
-1.56873e-06
1.42641e-07
-1.59848e-06
1.41439e-07
-1.62798e-06
1.40176e-07
-1.65721e-06
1.38845e-07
-1.68617e-06
1.37438e-07
-1.71482e-06
1.3595e-07
-1.74314e-06
1.34373e-07
-1.77111e-06
1.327e-07
-1.7987e-06
1.30926e-07
-1.82589e-06
1.29045e-07
-1.85264e-06
1.27049e-07
-1.87893e-06
1.24936e-07
-1.90473e-06
1.22699e-07
-1.93001e-06
1.20334e-07
-1.95473e-06
1.17837e-07
-1.97886e-06
1.15206e-07
-2.00238e-06
1.12437e-07
-2.02524e-06
1.09527e-07
-2.04741e-06
1.06476e-07
-2.06886e-06
1.0328e-07
-2.08955e-06
9.99402e-08
-2.10946e-06
9.64552e-08
-2.12854e-06
9.28251e-08
-2.14677e-06
8.90502e-08
-2.1641e-06
8.51313e-08
-2.18051e-06
8.10696e-08
-2.19595e-06
7.68667e-08
-2.21041e-06
7.25244e-08
-2.22385e-06
6.80448e-08
-2.23623e-06
6.34306e-08
-2.24753e-06
5.86846e-08
-2.25772e-06
5.38104e-08
-2.26677e-06
4.88115e-08
-2.27465e-06
4.36922e-08
-2.28135e-06
3.84571e-08
-2.28684e-06
3.3111e-08
-2.2911e-06
2.76601e-08
-2.29412e-06
2.21114e-08
-2.29587e-06
1.64741e-08
-2.29635e-06
1.07585e-08
-2.29554e-06
4.97659e-09
-2.29341e-06
-8.58897e-10
-2.28993e-06
-6.74041e-09
-2.28506e-06
-1.26721e-08
-2.27876e-06
-1.86648e-08
-2.27104e-06
-2.47216e-08
-2.26186e-06
-3.08359e-08
-2.25123e-06
-3.69998e-08
-2.23911e-06
-4.32055e-08
-2.22551e-06
-4.94449e-08
-2.21042e-06
-5.57105e-08
-2.19383e-06
-6.19941e-08
-2.17573e-06
-6.82886e-08
-2.15614e-06
-7.45859e-08
-2.13504e-06
-8.08793e-08
-2.11245e-06
-8.71608e-08
-2.08836e-06
-9.34233e-08
-2.06278e-06
-9.96587e-08
-2.03572e-06
-1.0586e-07
-2.00719e-06
-1.12018e-07
-1.97721e-06
-1.18126e-07
-1.94578e-06
-1.24175e-07
-1.91292e-06
-1.30156e-07