/*--------------------------------*- C++ -*----------------------------------*\
  =========                 |
  \\      /  F ield         | OpenFOAM: The Open Source CFD Toolbox
   \\    /   O peration     | Website:  https://openfoam.org
    \\  /    A nd           | Version:  9
     \\/     M anipulation  |
\*---------------------------------------------------------------------------*/
FoamFile
{
    format      ascii;
    class       volScalarField::Internal;
    location    "270";
    object      tmp<kEpsilon:G>;
}
// * * * * * * * * * * * * * * * * * * * * * * * * * * * * * * * * * * * * * //

dimensions      [0 2 -3 0 0 0 0];

value           nonuniform List<scalar> 
12225
(
0
0
0
0
0
0
0
0
0
0
0
0
0
0
0
0
0
0
947.051
499.286
262.413
277.605
379.767
495.304
604.988
715.113
802.514
888.386
950.064
1008.65
1048.56
1085.01
1112.78
1131.03
1167.29
1138.65
86.0798
123.086
55.4887
17.2191
5.18214
4.39685
8.80005
16.6826
26.6117
38.3726
50.8924
64.0668
77.5161
90.3913
104.009
115.371
129.654
136.015
5.16977
1.72781
0.642868
0.702326
0.465709
0.185434
0.0270056
0.189085
0.790454
1.87985
3.44241
5.41583
7.82318
10.4002
13.4465
16.3013
19.7492
22.606
0.228946
0.132283
0.14814
0.31432
0.426439
0.406536
0.289215
0.153215
0.0567707
0.0250137
0.074406
0.212271
0.447258
0.762407
1.18267
1.64318
2.20491
2.76616
0.177964
0.188004
0.265668
0.320704
0.323026
0.317751
0.289886
0.238809
0.18209
0.126939
0.0800027
0.0454186
0.0277799
0.0290476
0.0508865
0.0914292
0.148148
0.219214
0.127144
0.210258
0.230876
0.212957
0.212322
0.230686
0.23864
0.227516
0.20816
0.184494
0.159072
0.132574
0.108195
0.0870478
0.0707467
0.060417
0.0554383
0.0552354
0.0976188
0.147926
0.159408
0.157072
0.167575
0.188134
0.200632
0.200492
0.195172
0.187456
0.178014
0.166599
0.154997
0.143779
0.134372
0.127333
0.123896
0.12162
0.0741399
0.104087
0.121859
0.130319
0.141949
0.157894
0.169241
0.172874
0.173099
0.172208
0.170371
0.167511
0.16436
0.161565
0.159933
0.159833
0.162301
0.164972
0.0561415
0.077263
0.0970886
0.10873
0.119438
0.132488
0.14309
0.148552
0.151252
0.153189
0.154702
0.155719
0.156784
0.158282
0.160841
0.164398
0.16993
0.17491
0.0423837
0.0582885
0.0769994
0.0897288
0.100275
0.111792
0.121691
0.127889
0.131704
0.134778
0.137608
0.140215
0.142967
0.146143
0.150146
0.154802
0.160714
0.165889
0.0324491
0.0451046
0.0621047
0.0752687
0.0857983
0.0962748
0.105441
0.111787
0.116052
0.119521
0.122743
0.125809
0.128976
0.132452
0.136483
0.140872
0.145999
0.150289
0.0245615
0.0347425
0.0499536
0.06317
0.0737118
0.0834779
0.0920492
0.0983874
0.102873
0.106479
0.109743
0.112812
0.11587
0.119071
0.122557
0.126155
0.130101
0.133238
0.0175831
0.0257259
0.0389699
0.0516607
0.0620833
0.0712981
0.0793254
0.085555
0.0901467
0.0937745
0.0969194
0.0997706
0.102464
0.105107
0.10778
0.110344
0.112969
0.114861
0.0116617
0.0182444
0.0296275
0.0414238
0.0515023
0.0602116
0.0677232
0.0737357
0.0782979
0.0818438
0.0847687
0.087275
0.0894763
0.0914498
0.0932496
0.0947841
0.096202
0.0969999
0.00689655
0.0123018
0.0220388
0.0327666
0.0423169
0.0505339
0.0575556
0.0632566
0.0676504
0.0710092
0.0736395
0.0757358
0.0774084
0.0787264
0.0797428
0.0804179
0.0808881
0.0808838
0.00337213
0.0079281
0.0163388
0.0260195
0.0349448
0.0426624
0.0492078
0.0545283
0.0586347
0.0617079
0.0639852
0.0656475
0.066811
0.0675529
0.0679375
0.0679725
0.0677729
0.0672531
0.00119971
0.0052062
0.0126924
0.0215212
0.0298192
0.0370054
0.0430442
0.0479089
0.0516153
0.0543035
0.0561728
0.0573953
0.0580943
0.0583602
0.0582685
0.0578636
0.0572272
0.0564111
0.00067182
0.00446621
0.0115912
0.0200168
0.0278864
0.0346034
0.0401482
0.044515
0.0477254
0.0499198
0.0513027
0.0520542
0.0523062
0.0521597
0.0516978
0.0509909
0.0500778
0.0491228
0.00204451
0.00608141
0.0136599
0.0223537
0.0301004
0.0364854
0.0416552
0.0456009
0.0483176
0.0499828
0.0508552
0.0511404
0.0509752
0.0504642
0.0496929
0.0487406
0.0476178
0.0465298
0.00472903
0.00942503
0.0181248
0.027452
0.0350704
0.0410633
0.0458777
0.0494397
0.0516843
0.0528579
0.0532875
0.0531863
0.0526785
0.0518726
0.05086
0.0497256
0.0484598
0.0472783
0.00871903
0.0148681
0.0252473
0.0351396
0.0426074
0.0483223
0.0527672
0.0557101
0.0572012
0.0577286
0.0576905
0.0572363
0.056433
0.0553832
0.0541773
0.0528984
0.0515139
0.0502502
0.0139876
0.0239056
0.0361555
0.0443278
0.0507218
0.0570096
0.0621017
0.0646998
0.0652169
0.0648138
0.0640637
0.0630335
0.0617306
0.0602661
0.0587127
0.0571434
0.0554902
0.0539536
0.0214584
0.0421707
0.0592459
0.0604267
0.0596693
0.0636814
0.0695829
0.0733794
0.0746025
0.0745758
0.0738087
0.0723018
0.0701346
0.0675827
0.0647822
0.0618894
0.0588348
0.0559425
0.043231
0.0754137
0.093655
0.104815
0.0972548
0.0902375
0.0876658
0.0863757
0.0848677
0.0830632
0.0801649
0.0757263
0.0699159
0.0633717
0.0565079
0.0498043
0.0434233
0.0378225
0.0801389
0.213502
0.0681331
0.0789428
0.167606
0.214971
0.214282
0.189441
0.158301
0.127705
0.0986014
0.0722713
0.0503811
0.0346417
0.0261303
0.0256124
0.0332012
0.0487948
0.667439
0.126908
0.315854
0.505748
0.373418
0.295791
0.229661
0.141736
0.060586
0.0116378
0.0105521
0.0681094
0.189041
0.374746
0.620232
0.92356
1.2709
1.66013
32.2297
70.9007
43.2276
18.2595
7.06552
2.67042
1.11316
1.00742
1.81605
3.28472
5.25731
7.6346
10.2746
13.1576
16.1291
19.2251
22.2419
25.2875
455.622
257.638
100.998
70.5663
91.6427
128.081
167.976
206.024
241.173
273.928
303.057
329.739
353.059
374.474
393.015
410.499
425.89
440.961
0
0
0
0
0
0
0
0
0
0
0
0
0
0
0
0
0
0
0
0
0
0
0
0
0
0
0
0
0
0
0
0
0
0
0
0
0
0
0
0
0
0
0
0
0
0
0
0
8.14709
8.808
9.44596
10.0501
10.6314
11.1753
11.6979
12.0363
0
0
0
14.5917
16.1949
17.3803
18.9783
20.521
22.218
23.9683
25.8215
27.7521
29.7734
31.8792
34.0736
36.3555
38.7266
41.1872
43.738
46.3796
49.1121
51.9361
54.8509
57.8567
60.9524
64.1375
67.4102
70.7696
74.2129
77.7385
81.3431
85.0241
88.7772
92.5994
96.4853
100.431
104.431
108.479
112.57
116.698
120.854
125.032
129.225
133.424
137.621
141.808
145.975
150.112
154.21
158.258
162.245
166.16
169.99
173.721
177.338
180.826
184.168
187.35
190.359
193.193
195.856
198.351
200.677
202.826
204.793
206.569
208.148
209.524
210.688
211.637
212.364
212.864
213.132
213.166
212.961
212.514
211.825
210.89
209.71
208.284
206.613
204.698
202.541
200.145
197.513
194.65
191.561
188.251
184.726
180.996
177.072
172.946
168.626
164.13
159.487
154.703
149.762
144.693
139.505
134.21
128.821
123.348
117.805
112.203
106.553
100.869
95.1621
89.4437
83.7249
78.0166
72.3293
66.673
61.0571
55.4909
49.9829
44.5413
39.1739
33.8882
28.6918
23.593
18.6027
13.7392
9.04873
4.73649
2.6913
5.79283
9.98956
14.3003
18.6066
22.8818
27.1184
31.3144
35.469
39.5809
43.6466
47.657
51.5968
55.4145
59.0767
62.1745
65.0603
62.2779
0
0.00266466
0.00707957
0.0216593
0.0577797
0.118043
0.201977
0.305794
0.424814
0.554704
0.692937
0.838925
0.993125
1.15636
1.32953
1.51352
1.70929
1.91808
2.14161
2.38214
2.64238
2.92501
3.23289
3.57047
3.93514
4.30817
4.67821
5.05186
5.40641
5.69747
5.94836
6.18719
6.349
6.38711
6.29787
6.02053
5.25792
4.18714
3.8225
4.65722
4.92649
5.50812
5.46195
5.17248
5.02614
4.91851
4.79387
4.66211
4.52288
4.37848
4.23011
4.07921
3.92689
3.77419
3.622
3.47109
3.3222
3.17606
3.03339
2.89493
2.76147
2.63383
2.51292
2.39969
2.29516
2.20037
2.11645
2.04456
1.9859
1.9417
1.91322
1.90172
1.90846
1.9347
1.98166
2.05053
2.14244
2.25847
2.39962
2.56681
2.76087
2.9825
3.23226
3.5106
3.81777
4.15381
4.51847
4.91116
5.33093
5.77624
6.2449
6.73338
7.23634
7.74654
8.25615
8.75835
9.24475
9.70171
10.1308
10.5645
10.9998
11.4453
11.9021
12.3708
12.8511
13.3424
13.844
14.355
14.8746
15.4018
15.9356
16.4749
17.0186
17.5657
18.1148
18.6648
19.2143
19.7621
20.3069
20.8473
21.382
21.9097
22.429
22.9387
23.4371
23.9229
24.3946
24.851
25.2914
25.7161
26.1205
26.5011
26.8613
27.2057
27.527
27.8253
28.1003
28.352
28.5804
28.7858
28.968
29.127
29.263
29.3764
29.4678
29.5379
29.5875
29.6172
29.628
29.6208
29.5965
29.556
29.5006
29.4311
29.3488
29.255
29.1515
29.0401
28.9226
28.8
28.6757
28.5663
28.4782
28.3853
28.2857
28.1987
28.1356
28.0968
28.0803
28.0843
28.1076
28.1494
28.2085
28.2874
28.3862
28.555
28.7856
29.7847
31.3238
39.887
0
0.034494
0.109776
0.172062
0.23918
0.32158
0.429029
0.564544
0.724648
0.902692
1.09228
1.28912
1.49117
1.69814
1.91063
2.12962
2.35615
2.59124
2.83589
3.09099
3.3572
3.63451
3.92168
4.21529
4.50881
4.79187
5.05557
5.2912
5.48642
5.63261
5.72735
5.78363
5.80167
5.77292
5.6937
5.55267
5.33537
5.10569
4.97814
4.97764
4.95778
5.008
5.03194
5.01439
5.03961
5.13815
5.27318
5.43756
5.62751
5.84101
6.07612
6.33136
6.60537
6.89711
7.20565
7.53021
7.87012
8.22475
8.59356
8.97603
9.37166
9.77999
10.2006
10.633
11.0769
11.5319
11.9977
12.474
12.9604
13.4567
13.9627
14.4781
15.0027
15.5364
16.0791
16.6305
17.1907
17.7594
18.3365
18.9219
19.5154
20.1169
20.726
21.3425
21.9661
22.5961
23.232
23.8727
24.5173
25.1649
25.8151
26.468
27.1245
27.7874
28.4631
29.1626
29.9023
30.7045
31.5711
32.454
33.352
34.2596
35.1747
36.0961
37.0224
37.9516
38.882
39.8116
40.7382
41.6597
42.5741
43.479
44.3721
45.2513
46.1141
46.9581
47.781
48.5804
49.3538
50.099
50.8137
51.4956
52.1425
52.752
53.3217
53.8493
54.3326
54.77
55.1603
55.5039
55.7962
56.0294
56.2109
56.3455
56.4259
56.452
56.4236
56.3415
56.2071
56.0218
55.7867
55.5028
55.1716
54.7948
54.3747
53.9135
53.4139
52.8784
52.3098
51.7107
51.0843
50.4332
49.7608
49.0702
48.3653
47.6489
46.9241
46.1948
45.4678
44.7464
44.0329
43.3251
42.6271
41.9524
41.3059
40.6857
40.095
39.5354
39.0062
38.506
38.0338
37.5892
37.1729
36.792
36.4602
36.2551
36.2577
37.2189
39.5162
46.1484
0
0.147269
0.314787
0.435344
0.528936
0.617257
0.720911
0.850248
1.00741
1.18918
1.38982
1.60351
1.82572
2.05363
2.28584
2.52183
2.7616
3.00529
3.25296
3.50423
3.75806
4.01227
4.26322
4.50538
4.73133
4.93276
5.1031
5.23893
5.33761
5.39704
5.42489
5.43351
5.42768
5.40945
5.37889
5.33353
5.26678
5.22655
5.37132
5.69524
6.04103
6.40841
6.73908
7.03176
7.33801
7.67563
8.03927
8.42681
8.83715
9.26973
9.72388
10.1989
10.6939
11.2081
11.7407
12.291
12.8585
13.4424
14.0424
14.658
15.2889
15.9347
16.5951
17.2701
17.9594
18.6631
19.3809
20.1131
20.8596
21.6206
22.3962
23.1866
23.992
24.8127
25.649
26.5011
27.3694
28.2539
29.1551
30.073
31.0079
31.9598
32.9288
33.9149
34.918
35.9379
36.9745
38.0273
39.0961
40.181
41.283
42.4036
43.5458
44.714
45.9155
47.1558
48.4333
49.7403
51.0678
52.4094
53.7647
55.1293
56.4995
57.8725
59.2451
60.6145
61.9775
63.3308
64.6713
65.9958
67.3009
68.5835
69.8401
71.0674
72.262
73.4207
74.5399
75.6165
76.6472
77.6287
78.5582
79.4325
80.2487
81.0037
81.6943
82.3174
82.87
83.35
83.7571
84.0924
84.346
84.5135
84.6039
84.619
84.5539
84.408
84.1815
83.8754
83.4923
83.0345
82.5042
81.9034
81.2344
80.5002
79.7043
78.8503
77.9423
76.9843
75.9805
74.9353
73.8533
72.7393
71.5985
70.4348
69.253
68.0581
66.8553
65.6494
64.4474
63.2564
62.083
60.9272
59.7838
58.6507
57.5376
56.4501
55.396
54.3822
53.4113
52.4842
51.6018
50.7668
49.9852
49.2751
48.6708
48.2916
48.2866
49.4608
52.2076
57.5959
0
0.307181
0.570049
0.763347
0.891104
0.987025
1.08384
1.19763
1.33517
1.49742
1.68146
1.88244
2.09531
2.31581
2.54072
2.76777
2.99531
3.22202
3.44666
3.6678
3.88364
4.0919
4.28987
4.47468
4.64368
4.79487
4.9276
5.04265
5.142
5.22866
5.30763
5.3856
5.46792
5.55776
5.65614
5.76547
5.89484
6.07336
6.35102
6.73441
7.17647
7.65336
8.13039
8.59997
9.082
9.58822
10.1203
10.6781
11.2614
11.8698
12.5033
13.1614
13.8439
14.5503
15.2802
16.0333
16.8093
17.608
18.4292
19.2727
20.1385
21.0265
21.937
22.8701
23.826
24.8051
25.8078
26.8344
27.8854
28.9613
30.0627
31.1901
32.3441
33.5252
34.7339
35.9709
37.2365
38.5311
39.8551
41.2087
42.5922
44.0055
45.4488
46.9219
48.4246
49.9568
51.5182
53.1082
54.7267
56.3736
58.0497
59.756
61.4938
63.2653
65.0722
66.9138
68.7828
70.6684
72.5644
74.4701
76.3843
78.303
80.2218
82.1361
84.0416
85.9336
87.8076
89.659
91.4832
93.2758
95.0321
96.7478
98.4183
100.039
101.606
103.114
104.56
105.94
107.248
108.482
109.637
110.711
111.7
112.6
113.407
114.118
114.73
115.239
115.649
115.954
116.149
116.229
116.206
116.076
115.839
115.494
115.041
114.483
113.821
113.061
112.205
111.256
110.218
109.095
107.892
106.613
105.264
103.851
102.379
100.856
99.286
97.6756
96.0307
94.3575
92.662
90.9517
89.2347
87.5184
85.809
84.1126
82.4354
80.7818
79.1521
77.5421
75.9533
74.3906
72.8651
71.3876
69.965
68.602
67.3035
66.0777
64.9396
63.9216
63.0827
62.5779
62.601
63.9397
66.826
71.1317
0
0.47443
0.816243
1.08625
1.25591
1.36586
1.45923
1.55681
1.66918
1.80102
1.95251
2.12087
2.30192
2.49126
2.68491
2.87952
3.07235
3.26118
3.44419
3.6199
3.78719
3.94537
4.09431
4.23466
4.36783
4.49587
4.62132
4.74691
4.8753
5.00903
5.15093
5.30435
5.47258
5.65835
5.86448
6.09606
6.36182
6.67594
7.05569
7.5067
8.01717
8.57302
9.15752
9.7615
10.3874
11.0399
11.7212
12.4324
13.174
13.9462
14.7491
15.5829
16.4475
17.343
18.2696
19.2272
20.216
21.236
22.2877
23.3712
24.487
25.6357
26.8179
28.0343
29.2856
30.5728
31.8966
33.2581
34.6582
36.0978
37.578
39.0997
40.6638
42.2711
43.9225
45.6187
47.3602
49.1476
50.9812
52.861
54.7873
56.7599
58.7784
60.8425
62.9515
65.1048
67.3014
69.5405
71.8209
74.1417
76.5021
78.9016
81.3393
83.8137
86.3224
88.8603
91.4186
93.9879
96.5626
99.1406
101.719
104.294
106.859
109.408
111.936
114.436
116.902
119.328
121.707
124.034
126.302
128.507
130.641
132.7
134.678
136.57
138.371
140.075
141.678
143.176
144.564
145.839
146.997
148.034
148.947
149.73
150.381
150.896
151.281
151.524
151.627
151.583
151.409
151.095
150.643
150.054
149.328
148.469
147.481
146.369
145.136
143.787
142.327
140.761
139.096
137.338
135.495
133.573
131.579
129.521
127.406
125.241
123.035
120.797
118.534
116.257
113.973
111.69
109.416
107.157
104.921
102.712
100.534
98.3869
96.2702
94.1866
92.1474
90.1653
88.251
86.4134
84.6628
83.0143
81.4932
80.1464
79.0543
78.3945
78.3737
79.7086
82.402
85.7365
0
0.626733
1.01696
1.35147
1.56214
1.68959
1.78323
1.867
1.95434
2.05291
2.16569
2.29216
2.42975
2.57495
2.72413
2.87397
3.02171
3.16519
3.30295
3.43424
3.55911
3.67847
3.79413
3.90879
4.02576
4.14868
4.28111
4.42625
4.5868
4.7648
4.96193
5.17984
5.42048
5.68617
5.97994
6.30617
6.67099
7.08208
7.54729
8.07088
8.65103
9.28216
9.95603
10.666
11.4098
12.188
13.0016
13.8517
14.7388
15.6636
16.6267
17.6285
18.6695
19.7502
20.8712
22.0332
23.2368
24.4829
25.7723
27.1062
28.4854
29.9115
31.3855
32.909
34.4834
36.1103
37.7912
39.5277
41.3214
43.1738
45.0864
47.0604
49.0974
51.1983
53.3642
55.5959
57.8941
60.2592
62.6913
65.1904
67.7561
70.3879
73.0848
75.8458
78.6694
81.5541
84.4979
87.4986
90.5539
93.661
96.8174
100.02
103.266
106.55
109.867
113.209
116.567
119.931
123.295
126.654
130.003
133.336
136.646
139.925
143.165
146.358
149.497
152.573
155.578
158.505
161.346
164.094
166.742
169.284
171.711
174.019
176.202
178.252
180.166
181.939
183.566
185.042
186.365
187.53
188.533
189.37
190.038
190.536
190.864
191.012
190.985
190.78
190.41
189.868
189.154
188.271
187.221
186.009
184.639
183.119
181.452
179.645
177.705
175.638
173.452
171.154
168.753
166.258
163.677
161.019
158.295
155.514
152.688
149.824
146.935
144.028
141.113
138.201
135.298
132.414
129.554
126.724
123.932
121.18
118.469
115.803
113.192
110.649
108.189
105.825
103.572
101.454
99.5044
97.784
96.3872
95.4998
95.3148
96.4589
98.6871
101.098
0
0.749409
1.15039
1.5266
1.76839
1.91117
2.00613
2.07844
2.14326
2.21032
2.28485
2.36847
2.46049
2.55891
2.66126
2.76507
2.86831
2.96956
3.06816
3.16425
3.2588
3.35364
3.45143
3.5555
3.66961
3.79757
3.94299
4.10902
4.29826
4.51264
4.75366
5.0226
5.32094
5.65052
6.01384
6.41421
6.85581
7.3434
7.88165
8.47391
9.12118
9.82204
10.5732
11.3709
12.2131
13.0991
14.0292
15.0041
16.0246
17.0916
18.206
19.3688
20.5811
21.8441
23.159
24.5272
25.9501
27.4294
28.9669
30.5643
32.2238
33.9474
35.7374
37.596
39.5257
41.5287
43.6075
45.7644
48.0016
50.3213
52.7254
55.2158
57.7942
60.4619
63.2202
66.0697
69.0111
72.0445
75.1698
78.3863
81.6932
85.0889
88.5719
92.1398
95.7901
99.5197
103.325
107.203
111.149
115.158
119.225
123.344
127.511
131.716
135.953
140.21
144.479
148.747
153.007
157.25
161.47
165.658
169.805
173.902
177.938
181.903
185.788
189.582
193.276
196.861
200.327
203.665
206.867
209.926
212.832
215.58
218.162
220.571
222.803
224.851
226.713
228.382
229.855
231.129
232.199
233.064
233.717
234.163
234.391
234.403
234.201
233.786
233.17
232.345
231.313
230.078
228.645
227.019
225.208
223.217
221.052
218.723
216.235
213.598
210.821
207.914
204.885
201.748
198.512
195.19
191.794
188.333
184.821
181.267
177.684
174.082
170.471
166.862
163.265
159.688
156.138
152.623
149.151
145.728
142.359
139.047
135.803
132.642
129.579
126.634
123.826
121.185
118.756
116.606
114.838
113.634
113.157
113.943
115.516
117.031
0
0.839431
1.21101
1.60074
1.85788
2.00909
2.10323
2.16504
2.21026
2.24985
2.29063
2.336
2.38707
2.44348
2.50426
2.56824
2.63452
2.7027
2.77279
2.84551
2.92226
3.00514
3.09685
3.20048
3.3196
3.45771
3.61817
3.80398
4.01769
4.26134
4.53661
4.84493
5.18776
5.5668
5.98413
6.44233
6.94449
7.49398
8.09419
8.74803
9.45697
10.2218
11.0419
11.9163
12.844
13.8249
14.8593
15.9482
17.0926
18.2939
19.5535
20.8732
22.2549
23.7005
25.2122
26.7924
28.4435
30.1681
31.9691
33.8494
35.8122
37.8607
39.9982
42.228
44.5535
46.9781
49.5051
52.1375
54.8783
57.7304
60.6961
63.7778
66.9773
70.2962
73.7355
77.2959
80.9776
84.7804
88.7032
92.7448
96.9032
101.176
105.56
110.051
114.646
119.339
124.126
128.999
133.954
138.981
144.075
149.226
154.425
159.663
164.928
170.209
175.492
180.767
186.021
191.243
196.425
201.554
206.619
211.609
216.512
221.314
226.004
230.571
235.002
239.287
243.414
247.374
251.156
254.751
258.15
261.345
264.328
267.094
269.634
271.946
274.022
275.86
277.456
278.805
279.907
280.756
281.352
281.693
281.772
281.592
281.158
280.475
279.551
278.379
276.965
275.311
273.426
271.316
268.989
266.453
263.717
260.789
257.679
254.397
250.956
247.367
243.643
239.796
235.839
231.786
227.648
223.44
219.175
214.864
210.52
206.157
201.784
197.414
193.056
188.721
184.418
180.154
175.94
171.785
167.696
163.678
159.743
155.907
152.187
148.606
145.191
141.976
139.011
136.371
134.159
132.546
131.654
131.943
132.738
133.408
0
0.899239
1.20462
1.58054
1.83485
1.9849
2.07363
2.12429
2.15231
2.16905
2.18229
2.19678
2.21514
2.23866
2.26766
2.30212
2.34205
2.38754
2.43957
2.49923
2.56817
2.64845
2.74246
2.85296
2.98274
3.13477
3.31201
3.51718
3.75277
4.02097
4.3237
4.66271
5.0397
5.45646
5.91501
6.41766
6.96701
7.56594
8.2174
8.92416
9.68868
10.5125
11.3965
12.3412
13.3474
14.4159
15.5479
16.7451
18.0093
19.3425
20.7472
22.2261
23.7821
25.4184
27.1383
28.9453
30.8431
32.8356
34.9269
37.1213
39.4233
41.8373
44.368
47.0198
49.7973
52.7048
55.7466
58.9264
62.2481
65.7148
69.3294
73.0944
77.0117
81.0827
85.3081
89.6881
94.2223
98.9093
103.747
108.734
113.865
119.138
124.546
130.085
135.748
141.528
147.417
153.407
159.488
165.651
171.884
178.177
184.516
190.89
197.285
203.686
210.079
216.448
222.779
229.059
235.275
241.413
247.459
253.399
259.217
264.901
270.435
275.807
281.001
286.006
290.809
295.398
299.762
303.891
307.774
311.402
314.768
317.865
320.686
323.225
325.478
327.441
329.112
330.486
331.563
332.34
332.816
332.987
332.85
332.411
331.674
330.648
329.339
327.742
325.864
323.71
321.29
318.614
315.689
312.527
309.138
305.533
301.725
297.726
293.549
289.207
284.716
280.089
275.34
270.486
265.539
260.516
255.43
250.297
245.128
239.939
234.741
229.547
224.368
219.215
214.098
209.027
204.014
199.07
194.204
189.425
184.746
180.182
175.754
171.489
167.415
163.574
160.02
156.829
154.101
151.989
150.576
150.259
150.199
150.061
0
0.934586
1.14445
1.4829
1.71813
1.85666
1.93413
1.97163
1.9837
1.98173
1.97407
1.96617
1.96155
1.96219
1.96981
1.98547
2.01007
2.04455
2.08987
2.14721
2.21803
2.30402
2.40709
2.5294
2.67328
2.84118
3.03562
3.25917
3.51425
3.80321
4.12824
4.49145
4.89491
5.34076
5.83123
6.36875
6.95595
7.59564
8.29077
9.0443
9.85904
10.7376
11.6823
12.6952
13.779
14.9355
16.1666
17.4752
18.8643
20.3372
21.8978
23.5501
25.2987
27.1479
29.1024
31.1673
33.3476
35.6489
38.0767
40.6368
43.3353
46.178
49.1709
52.3196
55.6298
59.1068
62.7555
66.5805
70.5859
74.7752
79.1513
83.7165
88.4723
93.4196
98.5584
103.888
109.406
115.111
120.998
127.064
133.303
139.709
146.274
152.991
159.85
166.842
173.956
181.181
188.503
195.91
203.388
210.921
218.496
226.097
233.705
241.306
248.879
256.408
263.877
271.268
278.565
285.752
292.811
299.727
306.482
313.061
319.446
325.623
331.576
337.29
342.751
347.946
352.864
357.492
361.82
365.839
369.539
372.914
375.958
378.664
381.029
383.05
384.723
386.047
387.021
387.645
387.914
387.83
387.39
386.603
385.472
384.011
382.227
380.11
377.674
374.927
371.882
368.551
364.943
361.072
356.949
352.588
348.003
343.208
338.218
333.049
327.717
322.238
316.627
310.903
305.08
299.176
293.207
287.188
281.134
275.059
268.978
262.903
256.846
250.821
244.838
238.908
233.046
227.263
221.572
215.984
210.511
205.174
199.994
194.998
190.222
185.708
181.513
177.714
174.403
171.713
169.69
168.688
167.732
166.829
0
0.953027
1.04719
1.33096
1.53394
1.65141
1.71163
1.73347
1.73039
1.71329
1.69013
1.66723
1.64866
1.63746
1.63555
1.64437
1.66509
1.69875
1.74634
1.80902
1.88797
1.98454
2.10022
2.23673
2.39598
2.58007
2.79126
3.03193
3.30452
3.6115
3.95537
4.33858
4.76372
5.23339
5.75029
6.31727
6.93734
7.61375
8.34994
9.14951
10.0159
10.9528
11.9639
13.0535
14.2245
15.4806
16.8259
18.2639
19.7995
21.4379
23.1848
25.0462
27.0281
29.1367
31.3783
33.7594
36.2871
38.9684
41.8107
44.8216
48.0084
51.3784
54.9388
58.6964
62.6576
66.8284
71.214
75.8194
80.6483
85.7042
90.9893
96.5053
102.253
108.231
114.438
120.873
127.531
134.407
141.496
148.791
156.283
163.965
171.825
179.853
188.036
196.362
204.815
213.382
222.047
230.792
239.6
248.453
257.335
266.224
275.103
283.949
292.742
301.463
310.092
318.608
326.994
335.228
343.293
351.169
358.838
366.282
373.482
380.421
387.083
393.452
399.512
405.249
410.651
415.704
420.399
424.725
428.673
432.237
435.411
438.189
440.567
442.545
444.118
445.288
446.054
446.414
446.37
445.918
445.07
443.824
442.19
440.19
437.823
435.082
431.988
428.551
424.785
420.704
416.321
411.65
406.705
401.501
396.056
390.384
384.504
378.432
372.186
365.784
359.244
352.584
345.821
338.975
332.063
325.101
318.106
311.093
304.077
297.071
290.09
283.145
276.251
269.42
262.666
256.004
249.448
243.01
236.707
230.558
224.587
218.825
213.307
208.08
203.2
198.743
194.791
191.458
188.757
187.014
185.147
183.518
0
0.961611
0.929637
1.14855
1.3103
1.39964
1.43789
1.44134
1.42284
1.39295
1.35998
1.32964
1.30608
1.29222
1.29012
1.30131
1.32688
1.36771
1.42461
1.4984
1.58997
1.70037
1.8308
1.98268
2.15768
2.35773
2.585
2.84187
3.13091
3.45483
3.81651
4.21881
4.665
5.15833
5.70221
6.30024
6.95605
7.67389
8.45827
9.31391
10.2459
11.2592
12.3584
13.5482
14.8344
16.2227
17.7194
19.3307
21.0634
22.9249
24.9229
27.0655
29.3606
31.8161
34.4401
37.2411
40.228
43.4099
46.7957
50.3945
54.215
58.2656
62.5541
67.0878
71.8733
76.9165
82.2223
87.795
93.6375
99.7519
106.139
112.799
119.729
126.928
134.392
142.115
150.091
158.312
166.77
175.453
184.351
193.452
202.741
212.205
221.826
231.589
241.476
251.469
261.547
271.691
281.88
292.093
302.31
312.507
322.662
332.751
342.752
352.641
362.396
371.997
381.419
390.643
399.646
408.409
416.91
425.131
433.051
440.653
447.919
454.832
461.376
467.536
473.299
478.653
483.586
488.089
492.153
495.773
498.941
501.655
503.911
505.707
507.044
507.923
508.341
508.306
507.81
506.868
505.48
503.648
501.389
498.731
495.66
492.179
488.314
484.077
479.485
474.552
469.294
463.727
457.868
451.734
445.343
438.714
431.866
424.817
417.587
410.195
402.661
395.005
387.245
379.402
371.495
363.541
355.559
347.563
339.569
331.593
323.648
315.749
307.909
300.143
292.467
284.896
277.445
270.13
262.967
255.979
249.19
242.632
236.344
230.372
224.772
219.616
214.977
210.95
207.524
205.006
202.233
199.917
0
0.966555
0.806652
0.957677
1.07396
1.13013
1.14244
1.1259
1.09248
1.05236
1.01336
0.981147
0.959589
0.951111
0.957238
0.978904
1.01673
1.07119
1.14275
1.23195
1.33945
1.46612
1.61302
1.7815
1.97321
2.19015
2.43464
2.70925
3.01687
3.3606
3.74381
4.17017
4.64372
5.1687
5.74972
6.39176
7.10066
7.88179
8.74075
9.68352
10.7162
11.8455
13.0789
14.424
15.8892
17.4828
19.2137
21.0905
23.1231
25.321
27.6942
30.2527
33.0062
35.9646
39.1378
42.5365
46.1714
50.053
54.1917
58.5971
63.2786
68.2444
73.5022
79.0584
84.9186
91.0873
97.5678
104.362
111.471
118.893
126.627
134.67
143.017
151.661
160.595
169.811
179.298
189.044
199.036
209.262
219.704
230.347
241.175
252.167
263.305
274.568
285.935
297.384
308.891
320.436
331.993
343.539
355.05
366.5
377.865
389.119
400.235
411.191
421.962
432.523
442.852
452.926
462.721
472.216
481.39
490.223
498.694
506.784
514.476
521.752
528.597
534.996
540.934
546.402
551.386
555.879
559.874
563.364
566.345
568.813
570.768
572.208
573.136
573.551
573.46
572.855
571.759
570.169
568.087
565.523
562.501
559.052
555.137
550.789
546.031
540.877
535.346
529.453
523.218
516.658
509.792
502.64
495.222
487.558
479.668
471.574
463.296
454.855
446.271
437.566
428.761
419.877
410.933
401.949
392.943
383.932
374.931
365.957
357.023
348.146
339.339
330.619
322.002
313.505
305.143
296.934
288.896
281.053
273.43
266.06
258.982
252.244
245.9
240.016
234.657
229.903
225.723
222.417
218.754
215.795
0
0.973927
0.691042
0.776397
0.846353
0.867727
0.852536
0.814941
0.767144
0.719281
0.678725
0.65033
0.636996
0.640252
0.660745
0.698599
0.75376
0.826185
0.915989
1.0235
1.14929
1.29422
1.45946
1.64658
1.85745
2.09453
2.36058
2.65875
2.9927
3.36663
3.78538
4.25434
4.77861
5.3639
6.01631
6.7426
7.54991
8.44642
9.44031
10.5403
11.7549
13.0944
14.5691
16.1903
17.9694
19.918
22.0479
24.3711
26.9
29.6464
32.6223
35.8389
39.3076
43.0397
47.0472
51.3422
55.9363
60.8405
66.0644
71.617
77.5058
83.7371
90.316
97.2462
104.53
112.168
120.161
128.504
137.197
146.232
155.603
165.303
175.322
185.65
196.273
207.178
218.352
229.776
241.435
253.311
265.383
277.632
290.037
302.577
315.228
327.968
340.772
353.616
366.476
379.325
392.136
404.884
417.542
430.085
442.484
454.713
466.747
478.559
490.124
501.419
512.418
523.097
533.435
543.409
552.998
562.183
570.941
579.255
587.106
594.482
601.365
607.739
613.593
618.917
623.7
627.934
631.614
634.735
637.294
639.286
640.719
641.582
641.888
641.642
640.819
639.473
637.585
635.163
632.213
628.756
624.822
620.419
615.515
610.165
604.385
598.193
591.607
584.647
577.332
569.684
561.723
553.47
544.947
536.177
527.181
517.982
508.602
499.062
489.385
479.593
469.707
459.749
449.741
439.703
429.653
419.609
409.586
399.601
389.669
379.805
370.026
360.347
350.786
341.36
332.086
322.982
314.068
305.367
296.908
288.722
280.85
273.338
266.238
259.612
253.515
248.017
243.07
238.978
234.453
230.902
0
0.986539
0.586945
0.612093
0.636725
0.621778
0.578155
0.520416
0.461066
0.40982
0.373131
0.354613
0.355819
0.376989
0.417635
0.476982
0.554271
0.649037
0.761268
0.891358
1.04011
1.2088
1.39926
1.61392
1.85605
2.12905
2.43686
2.78392
3.1754
3.61743
4.11691
4.68161
5.31977
6.04005
6.85174
7.76491
8.79059
9.94007
11.2269
12.6642
14.2662
16.0465
18.0198
20.2012
22.6057
25.248
28.1426
31.3043
34.747
38.4838
42.5272
46.8879
51.5763
56.6053
61.9868
67.7316
73.8488
80.346
87.2285
94.5001
102.163
110.218
118.664
127.498
136.715
146.311
156.278
166.607
177.287
188.309
199.658
211.32
223.282
235.525
248.034
260.789
273.772
286.963
300.34
313.881
327.565
341.369
355.27
369.243
383.265
397.309
411.351
425.366
439.325
453.203
466.973
480.609
494.084
507.372
520.447
533.283
545.853
558.133
570.098
581.723
592.985
603.862
614.331
624.373
633.967
643.094
651.734
659.868
667.48
674.559
681.091
687.06
692.454
697.267
701.49
705.116
708.14
710.56
712.378
713.583
714.193
714.195
713.603
712.406
710.645
708.299
705.385
701.909
697.884
693.338
688.314
682.761
676.703
670.19
663.237
655.864
648.088
639.934
631.421
622.573
613.412
603.962
594.245
584.286
574.108
563.735
553.189
542.494
531.673
520.746
509.738
498.671
487.567
476.447
465.329
454.232
443.171
432.161
421.219
410.361
399.604
388.964
378.458
368.105
357.922
347.926
338.139
328.584
319.291
310.291
301.624
293.336
285.476
278.1
271.258
265.008
259.295
254.428
249.072
245.003
0
0.995654
0.500314
0.477436
0.463417
0.417471
0.351155
0.279851
0.216248
0.169201
0.143636
0.141422
0.162494
0.205808
0.269958
0.353592
0.4558
0.576462
0.716082
0.87587
1.05754
1.26345
1.49695
1.76252
2.06537
2.41182
2.80857
3.26297
3.7838
4.38142
5.06764
5.85502
6.75718
7.7883
8.96325
10.2988
11.8132
13.5263
15.457
17.6238
20.0448
22.7379
25.7216
29.0144
32.6335
36.5938
40.9086
45.5914
50.6544
56.1083
61.9626
68.2203
74.8918
81.9855
89.5068
97.4577
105.838
114.645
123.874
133.518
143.57
154.021
164.86
176.074
187.651
199.576
211.834
224.409
237.285
250.443
263.865
277.533
291.426
305.526
319.811
334.26
348.854
363.569
378.383
393.274
408.22
423.197
438.183
453.153
468.085
482.952
497.73
512.393
526.916
541.277
555.45
569.412
583.138
596.602
609.781
622.652
635.191
647.373
659.177
670.579
681.556
692.089
702.158
711.746
720.836
729.409
737.448
744.935
751.859
758.215
763.985
769.155
773.712
777.652
780.966
783.654
785.704
787.12
787.911
788.055
787.592
786.456
784.735
782.379
779.417
775.861
771.72
767.006
761.745
755.976
749.705
742.872
735.556
727.786
719.579
710.953
701.93
692.532
682.784
672.709
662.33
651.672
640.759
629.617
618.269
606.741
595.056
583.236
571.305
559.284
547.196
535.065
522.914
510.762
498.629
486.532
474.486
462.507
450.61
438.812
427.131
415.581
404.181
392.949
381.902
371.061
360.445
350.079
339.991
330.215
320.789
311.756
303.164
295.065
287.501
280.524
274.073
268.472
262.321
257.847
0
0.99606
0.436178
0.384952
0.345432
0.279374
0.20096
0.126652
0.0685533
0.0338306
0.0253481
0.0431252
0.0859013
0.152142
0.240407
0.349626
0.479643
0.631711
0.808509
1.01358
1.25107
1.52617
1.84601
2.22017
2.65998
3.17781
3.78611
4.49935
5.33447
6.31197
7.45477
8.78798
10.3358
12.1204
14.1645
16.4937
19.1348
22.1139
25.4553
29.1801
33.3064
37.8487
42.8214
48.2382
54.1098
60.4454
67.2508
74.53
82.2832
90.5025
99.1758
108.306
117.898
127.94
138.421
149.327
160.64
172.344
184.421
196.853
209.62
222.704
236.086
249.747
263.666
277.824
292.202
306.78
321.54
336.461
351.526