/*--------------------------------*- C++ -*----------------------------------*\
  =========                 |
  \\      /  F ield         | OpenFOAM: The Open Source CFD Toolbox
   \\    /   O peration     | Website:  https://openfoam.org
    \\  /    A nd           | Version:  9
     \\/     M anipulation  |
\*---------------------------------------------------------------------------*/
FoamFile
{
    format      ascii;
    class       volScalarField;
    location    "9.11";
    object      k;
}
// * * * * * * * * * * * * * * * * * * * * * * * * * * * * * * * * * * * * * //

dimensions      [0 2 -2 0 0 0 0];

internalField   nonuniform List<scalar> 
2268
(
8.94616e-05
0.000232012
0.000343196
0.00043046
0.000502176
0.000562185
0.000612592
0.000654801
0.000690119
0.000719916
0.000745532
0.000768257
0.000788176
0.000803087
0.000807465
0.000792346
0.000751665
0.000697387
0.000622045
0.000539573
0.00045608
0.000322859
0.000151015
0.000197502
0.000538379
0.00076749
0.000949632
0.00110019
0.00122647
0.00133275
0.0014221
0.00149721
0.00156061
0.00161478
0.00166129
0.00169975
0.00172621
0.00173222
0.00170585
0.00163898
0.00153638
0.00139499
0.00123289
0.00105674
0.00076671
0.000341799
0.00028373
0.000720105
0.00100168
0.00122549
0.00141111
0.00156703
0.0016984
0.00180904
0.00190234
0.00198127
0.00204858
0.00210572
0.00215197
0.00218295
0.00219006
0.00216221
0.00209233
0.00198371
0.00183551
0.00165463
0.00143237
0.00107641
0.00048593
0.000357531
0.000866824
0.00118338
0.00143351
0.00164115
0.00181569
0.00196279
0.00208683
0.00219163
0.00228051
0.00235619
0.00242014
0.00247139
0.00250553
0.00251453
0.00248857
0.00242154
0.00231608
0.00217296
0.00199135
0.00175146
0.00136325
0.000631296
0.000422134
0.00099717
0.00134269
0.0016131
0.00183718
0.00202537
0.00218386
0.00231751
0.00243059
0.00252668
0.00260847
0.00267748
0.00273263
0.00276969
0.00278139
0.00275925
0.00269795
0.00259969
0.00246675
0.0022939
0.00205404
0.00165375
0.000791017
0.000480601
0.00111753
0.0014897
0.00177773
0.00201542
0.00221448
0.00238175
0.00252268
0.002642
0.00274358
0.00283013
0.00290317
0.00296166
0.0030017
0.00301682
0.00299986
0.00294638
0.00285788
0.00273812
0.00258019
0.00235469
0.00196479
0.000990088
0.000535174
0.00123116
0.00162925
0.00193381
0.00218355
0.00239168
0.00256592
0.00271241
0.00283647
0.00294227
0.00303265
0.00310897
0.0031705
0.00321363
0.00323277
0.00322199
0.00317801
0.00310142
0.00299671
0.00285798
0.00265991
0.00230997
0.00129161
0.000587444
0.00134024
0.00176443
0.00208524
0.00234607
0.00256193
0.00274162
0.00289223
0.00301977
0.00312876
0.00322217
0.00330128
0.00336565
0.00341204
0.00343569
0.00343181
0.00339842
0.00333575
0.00324748
0.00313049
0.00296838
0.00269207
0.00186075
0.000221701
0.000474752
0.000659462
0.000736731
0.000772608
0.00078995
0.000786529
0.000774365
0.000744801
0.000704472
0.000644128
0.000559811
0.000510009
0.000506521
0.00046894
0.000399479
0.000299713
0.000200089
0.000105695
0.00042922
0.00101289
0.00137175
0.00154566
0.00162982
0.0016685
0.00167246
0.00164734
0.00159105
0.00151475
0.0013958
0.00124022
0.00114855
0.00111889
0.00103007
0.000883013
0.000676864
0.00045005
0.00021725
0.000530327
0.00130604
0.00173511
0.00194994
0.00205738
0.00210608
0.00211286
0.00208277
0.00201696
0.00192471
0.00179691
0.00164107
0.00152685
0.00145253
0.00133348
0.00115544
0.000910397
0.000627565
0.00030973
0.000595869
0.00154018
0.00201053
0.00224752
0.00236583
0.00241837
0.0024253
0.00239186
0.00232083
0.00222197
0.00209305
0.00194328
0.00181567
0.00170828
0.00156606
0.0013713
0.00110789
0.000797089
0.000395733
0.000682109
0.00175872
0.00226156
0.00250577
0.0026257
0.0026775
0.00268266
0.00264658
0.00257264
0.00247126
0.00234409
0.00219962
0.00206249
0.00193103
0.00176966
0.00156302
0.00129096
0.000963338
0.000477306
0.000816694
0.0020048
0.00251187
0.00274718
0.00286091
0.00290829
0.00291026
0.00287202
0.00279681
0.00269511
0.00257075
0.00242981
0.00228501
0.00213553
0.00195847
0.00174113
0.00146271
0.00112349
0.000557513
0.00106399
0.00230562
0.00276993
0.00298049
0.00308172
0.00312195
0.00311974
0.00307973
0.00300454
0.00290394
0.00278262
0.00264359
0.00249222
0.00232847
0.00213843
0.0019108
0.00162333
0.00127089
0.000643987
0.00165792
0.002667
0.00303442
0.00320849
0.00329299
0.00332428
0.0033173
0.0032758
0.00320173
0.00310337
0.00298486
0.00284642
0.00268928
0.00251359
0.00231197
0.00207311
0.00177475
0.00140483
0.000725141
0.000663684
0.00150655
0.00197288
0.00231922
0.00259618
0.00282213
0.00300808
0.00316294
0.00329406
0.00340665
0.00350375
0.00358646
0.00365453
0.00370561
0.00373633
0.00374389
0.00372836
0.00369085
0.00363058
0.00354848
0.00343818
0.00326835
0.00291948
0.000764532
0.00173078
0.00225865
0.002641
0.00293588
0.0031693
0.00335687
0.00351128
0.00364267
0.00375726
0.00385811
0.00394605
0.00402029
0.00407942
0.0041217
0.00414628
0.00415405
0.004147
0.00412307
0.00407999
0.00401945
0.00394046
0.00382605
0.000894469
0.00197457
0.00256946
0.00298906
0.00328773
0.0035155
0.00369455
0.00384144
0.00396923
0.00408457
0.00419032
0.00428638
0.00437086
0.00444133
0.00449751
0.00454048
0.00457107
0.00458906
0.0045894
0.0045734
0.00454626
0.00451895
0.00449872
0.00109159
0.00222846
0.0029155
0.00338376
0.00363814
0.00384669
0.00401094
0.00414513
0.00426809
0.00438555
0.00450055
0.00461159
0.00471329
0.00480021
0.00487354
0.00493782
0.00499201
0.00503039
0.00503839
0.00503625
0.00502807
0.00502727
0.00505802
0.00126914
0.00250907
0.00322951
0.00363779
0.00384373
0.00407705
0.0042721
0.00440532
0.00452595
0.00465176
0.00477892
0.004906
0.0050231
0.00511725
0.00518942
0.00524583
0.00529069
0.00533564
0.00538976
0.00542752
0.00543123
0.00545773
0.00555445
0.00163832
0.00263729
0.00323493
0.00364535
0.0039291
0.00421559
0.00442953
0.00458967
0.00472466
0.00486081
0.00499989
0.00514014
0.00527275
0.00537674
0.00544191
0.00549824
0.00556969
0.00563063
0.00568999
0.00577137
0.00580249
0.00580831
0.00587105
0.002065
0.00272957
0.00325555
0.00367469
0.00399259
0.00428151
0.00451433
0.00469866
0.00486538
0.00502575
0.0051819
0.00533307
0.00546902
0.00557704
0.0056551
0.00572453
0.00579914
0.00586515
0.00591519
0.00598256
0.00604443
0.0060796
0.00613574
0.00222533
0.0027924
0.00328125
0.00369386
0.0040394
0.00433459
0.00458382
0.00479701
0.00498931
0.00516968
0.00534162
0.00550408
0.00564584
0.00576023
0.00585188
0.00593003
0.00600342
0.00607235
0.00613235
0.00619738
0.00626143
0.00630658
0.00634344
0.00230696
0.0028429
0.00331871
0.00372917
0.00408478
0.00439277
0.00465976
0.00489386
0.00510591
0.00530341
0.00549061
0.00566626
0.00581946
0.00594255
0.00604273
0.00612877
0.00620574
0.00627618
0.00634059
0.00640534
0.00646845
0.00651901
0.00655545
0.00235596
0.00288437
0.00335867
0.00377161
0.00413423
0.00445368
0.00473611
0.00498828
0.00521781
0.00543072
0.00563119
0.00581797
0.00598214
0.00611738
0.00623008
0.00632802
0.00641373
0.00648941
0.00655814
0.00662382
0.00668624
0.00674004
0.00678132
0.00238296
0.00291738
0.00339738
0.00381637
0.00418697
0.00451732
0.00481346
0.00508142
0.00532676
0.00555397
0.00576609
0.00596255
0.00613774
0.0062874
0.00641551
0.00652793
0.00662602
0.00671094
0.00678633
0.00685591
0.00692055
0.00697803
0.00702485
0.00239712
0.00294475
0.00343521
0.00386291
0.00424266
0.00458386
0.00489274
0.00517487
0.00543472
0.00567533
0.00589873
0.00610513
0.00629199
0.00645688
0.00660141
0.00672916
0.00684129
0.00693838
0.00702383
0.00710134
0.00717216
0.00723533
0.00728809
0.00240402
0.00296936
0.00347377
0.00391208
0.00430183
0.00465395
0.00497504
0.00527026
0.00554347
0.00579674
0.00603177
0.00624934
0.00644868
0.00662894
0.00679018
0.00693384
0.00706111
0.00717249
0.00727098
0.0073599
0.00744046
0.00751211
0.00757237
0.00240472
0.0029931
0.00351451
0.00396478
0.00436522
0.00472841
0.00506147
0.00536915
0.00565491
0.00592056
0.0061679
0.00639801
0.00661097
0.00680654
0.00698457
0.00714513
0.00728886
0.00741648
0.00753053
0.00763368
0.00772688
0.00780965
0.00787976
0.00240874
0.003019
0.00355832
0.00402166
0.00443353
0.0048081
0.00515309
0.00547299
0.00577109
0.00604947
0.00631003
0.00655395
0.00678171
0.00699333
0.00718851
0.007367
0.00752888
0.00767473
0.00780672
0.0079267
0.00803529
0.00813195
0.00821459
0.00240815
0.00304681
0.00360612
0.00408344
0.00450744
0.00489377
0.00525083
0.00558317
0.00589403
0.00618598
0.00646094
0.00672008
0.00696399
0.0071928
0.0074063
0.00760405
0.00778585
0.00795224
0.00810462
0.00824412
0.00837102
0.00848454
0.00858274
0.00240639
0.00307758
0.00365835
0.00415065
0.00458752
0.00498612
0.00535563
0.005701
0.00602561
0.00633235
0.00662311
0.00689907
0.00716083
0.00740856
0.00764207
0.00786096
0.00806495
0.00825428
0.00842964
0.00859154
0.00873981
0.00887339
0.00899042
0.00239958
0.00311142
0.00371527
0.00422374
0.00467428
0.00508584
0.0054685
0.00582786
0.00616754
0.00649053
0.00679875
0.00709338
0.00737504
0.0076439
0.00789977
0.00814228
0.00837106
0.00858603
0.00878726
0.00897465
0.00914758
0.0093047
0.00944406
0.00240684
0.003149
0.00377762
0.0043031
0.00476818
0.00519363
0.0055905
0.0059651
0.00632135
0.0066623
0.0069899
0.00730537
0.00760933
0.00790195
0.00818303
0.00845214
0.0087088
0.00895255
0.00918296
0.00939935
0.00960061
0.0097851
0.00995061
0.00240519
0.0031903
0.00384543
0.00438903
0.00486966
0.00531015
0.00572258
0.00611394
0.00648847
0.00684932
0.00719853
0.00753734
0.00786639
0.00818583
0.00849542
0.00879464
0.00908279
0.00935907
0.00962253
0.00987198
0.0101058
0.0103219
0.0105179
0.00240378
0.00323575
0.00391878
0.0044817
0.0049791
0.00543601
0.00586556
0.00627542
0.00667021
0.00705321
0.00742657
0.0077916
0.00814895
0.00849875
0.00884068
0.00917407
0.00949797
0.00981119
0.0101123
0.0103995
0.0106707
0.0109234
0.0111546
0.00240019
0.00328421
0.0039976
0.00458127
0.00509685
0.00557173
0.00602017
0.00645049
0.0068678
0.00727552
0.00767595
0.00807049
0.00845983
0.00884406
0.00922276
0.00959506
0.00995971
0.0103151
0.0106593
0.0109898
0.0113041
0.0115989
0.0118709
0.00240168
0.00333795
0.00408208
0.00468785
0.00522315
0.00571773
0.00618702
0.00664001
0.00708237
0.00751773
0.00794857
0.0083764
0.00880196
0.00922532
0.00964592
0.0100627
0.0104739
0.0108776
0.0112712
0.0116516
0.0120155
0.0123589
0.0126781
0.00240057
0.00339476
0.00417199
0.00480149
0.00535814
0.00587428
0.00636657
0.00684473
0.00731493
0.00778124
0.00824627
0.00871171
0.00917836
0.00964626
0.0101147
0.0105823
0.0110471
0.0115063
0.0119568
0.0123946
0.0128157
0.0132153
0.0135888
0.00240063
0.00345362
0.00426732
0.00492209
0.00550181
0.00604152
0.00655915
0.00706521
0.00756643
0.00806729
0.0085708
0.00907875
0.00959206
0.0101107
0.0106339
0.0111599
0.0116862
0.0122094
0.0127254
0.0132297
0.0137168
0.0141813
0.0146174
0.00240852
0.00351759
0.00436779
0.00504935
0.00565394
0.00621934
0.00676484
0.0073018
0.00783756
0.00837708
0.00892375
0.0094797
0.010046
0.0106226
0.0112084
0.0118014
0.0123985
0.0129956
0.0135875
0.0141685
0.014732
0.0152714
0.0157796
0.00240582
0.00358479
0.00447284
0.00518271
0.00581405
0.0064074
0.00698348
0.00755457
0.0081287
0.00871141
0.00930657
0.00991665
0.0105429
0.0111855
0.011843
0.0125131
0.0131918
0.0138742
0.0145539
0.0152237
0.0158758
0.0165016
0.017093
0.00241016
0.00365394
0.00458163
0.00532138
0.00598137
0.00660503
0.00721455
0.00782321
0.00843983
0.00907064
0.00972008
0.0103911
0.0110853
0.0118028
0.0125423
0.0133007
0.0140735
0.0148545
0.015636
0.016409
0.0171636
0.0178896
0.0185768
0.00240268
0.0037248
0.00469325
0.00546427
0.00615482
0.00681121
0.00745713
0.00810695
0.00877041
0.00945454
0.0101645
0.0109038
0.0116746
0.0124771
0.01331
0.0141698
0.015051
0.015946
0.0168455
0.0177384
0.0186123
0.0194546
0.0202526
0.00240541
0.00379669
0.00480635
0.00560998
0.00633295
0.00702447
0.00770981
0.00840448
0.00911925
0.0098621
0.0106391
0.0114546
0.0123112
0.0132098
0.0141488
0.0151244
0.0161303
0.0171574
0.0181941
0.0192267
0.02024
0.0212178
0.0221444
0.00240591
0.00386884
0.00491942
0.00575665
0.00651382
0.00724287
0.00797062
0.00871381
0.00948432
0.0102913
0.0111419
0.0120416
0.0129939
0.0140001
0.0150592
0.0161669
0.0173161
0.018496
0.0196928
0.0208893
0.0220661
0.023203
0.0242797
0.00240852
0.00394087
0.00503007
0.00590178
0.00669493
0.00746391
0.008237
0.00903218
0.00986265
0.0107389
0.0116696
0.0126614
0.0137192
0.0148453
0.0160392
0.0172969
0.0186105
0.0199678
0.0213519
0.0227418
0.0241127
0.0254379
0.0266912
0.0024087
0.00400506
0.00513478
0.00604217
0.00687329
0.00768461
0.00850577
0.00935606
0.0102502
0.0112003
0.0122167
0.0133081
0.0144809
0.0157391
0.0170833
0.0185103
0.0200123
0.0215757
0.0231809
0.0248014
0.0264051
0.0279563
0.0294196
0.00240748
0.00406154
0.00522938
0.006174
0.00704544
0.00790158
0.00877322
0.00968109
0.0106416
0.011669
0.0127759
0.013973
0.0152694
0.0166711
0.0181812
0.0197983
0.0215158
0.0233199
0.0251883
0.0270881
0.0289762
0.0308028
0.0325185
0.00241438
0.00410283
0.00530795
0.00629269
0.00720771
0.00811126
0.00903526
0.0100021
0.0110305
0.0121371
0.0133371
0.0146444
0.0160709
0.0176264
0.0193172
0.021146
0.0231098
0.0251968
0.0273831
0.0296277
0.0318709
0.0340401
0.0360628
0.0024131
0.00412033
0.00536385
0.0063938
0.00735678
0.0083103
0.00928757
0.0103133
0.011409
0.0125943
0.0138879
0.015307
0.0168676
0.0185841
0.0204688
0.0225312
0.024776
0.0271982
0.029775
0.0324556
0.0351547
0.0377604
0.0401603
0.00240458
0.00410447
0.00539078
0.00647418
0.00749053
0.00849597
0.00952579
0.0106082
0.0117681
0.013029
0.0144132
0.0159421
0.0176367
0.0195176
0.0216059
0.0239225
0.0264866
0.0293082
0.0323726
0.0356189
0.0389219
0.0420997
0.044967
0.00241035
0.00404482
0.00538375
0.0065332
0.00760898
0.00866652
0.00974555
0.0108793
0.0120975
0.0134275
0.0148957
0.016528
0.0183512
0.0203941
0.0226895
0.0252766
0.028199
0.0314954
0.0351738
0.0391697
0.0433003
0.0472572
0.0507053
0.00241019
0.00392991
0.00534107
0.00657384
0.00771425
0.0088207
0.00994194
0.0111187
0.0123859
0.0137751
0.0153165
0.0170408
0.0189809
0.021175
0.0236717
0.0265349
0.029846
0.0336934
0.0381365
0.043134
0.0484407
0.0535231
0.0576862
0.00358892
0.00389013
0.00526673
0.0065998
0.00780808
0.00895566
0.0101081
0.0113163
0.0126206
0.0140562
0.0156564
0.0174559
0.0194936
0.021818
0.0244951
0.0276194
0.0313227
0.0357696
0.0411197
0.0474313
0.0544659
0.0613527
0.0663439
0.0172151
0.00531682
0.00518308
0.00660595
0.00788617
0.00906319
0.0102336
0.0114605
0.0127887
0.0142556
0.0158968
0.0177499
0.0198585
0.02228
0.0250967
0.0284337
0.0324776
0.0374885
0.0437872
0.0516877
0.0612792
0.0716246
0.0772906
0.0839829
0.0136559
0.00529482
0.00659454
0.00793542
0.00912705
0.0103036
0.011538
0.0128774
0.01436
0.0160223
0.0179032
0.0200494
0.0225232
0.0254174
0.028877
0.0331281
0.0385102
0.0455143
0.0548635
0.0677561
0.0865991
0.0913125
0.00203742
0.00176609
0.00177323
0.00202157
0.00369506
0.00363477
0.0036204
0.00365127
0.00448165
0.00446814
0.00445314
0.00443699
0.00509091
0.00509787
0.00508364
0.00504119
0.00566842
0.00567702
0.00559818
0.00551088
0.00595111
0.00600549
0.00594714
0.0058621
0.00620031
0.00621064
0.00617514
0.00611707
0.00637298
0.00637568
0.00635812
0.00632847
0.00657307
0.00657595
0.00656906
0.00655503
0.00679932
0.00680476
0.0068042
0.00679843
0.00704704
0.00705581
0.00705936
0.00705814
0.00731566
0.00732836
0.00733583
0.0073383
0.00760579
0.00762275
0.00763459
0.0076412
0.00792005
0.00794156
0.00795812
0.00796948
0.00826349
0.00829051
0.0083126
0.00832951
0.0086424
0.00867618
0.00870494
0.00872841
0.00906314
0.00910508
0.00914182
0.00917308
0.00953233
0.00958399
0.00963017
0.00967061
0.0100572
0.0101203
0.0101775
0.0102287
0.0106458
0.0107222
0.0107924
0.0108562
0.0113073
0.0113993
0.0114845
0.0115629
0.0120523
0.0121621
0.0122648
0.01236
0.0128925
0.013023
0.0131457
0.0132603
0.0138413
0.0139956
0.0141413
0.0142781
0.0149137
0.0150952
0.0152673
0.0154294
0.0161261
0.0163388
0.016541
0.0167321
0.0174971
0.0177455
0.0179821
0.0182061
0.019047
0.0193364
0.0196122
0.0198736
0.0207988
0.021135
0.0214556
0.0217595
0.0227781
0.0231681
0.0235398
0.023892
0.0250147
0.0254666
0.0258966
0.0263037
0.027544
0.0280672
0.0285641
0.0290334
0.0304099
0.0310157
0.031589
0.0321284
0.0336699
0.0343709
0.0350311
0.0356489
0.0374026
0.0382126
0.0389697
0.039673
0.0417181
0.0426498
0.0435117
0.0443036
0.0467704
0.0478321
0.048799
0.0496739
0.0527699
0.053957
0.0550138
0.0559494
0.0599924
0.0612718
0.0623736
0.0633199
0.0687811
0.0700613
0.0711118
0.0719766
0.0795247
0.0806012
0.0814241
0.0820637
0.0925228
0.0930177
0.0933543
0.0935954
0.00283693
0.00322538
0.00343479
0.00355029
0.00360771
0.00362502
0.00361099
0.00356827
0.00349847
0.00340542
0.00329043
0.00315126
0.00298604
0.00279424
0.00257416
0.00231464
0.00199729
0.00159051
0.000808301
0.00374643
0.00385947
0.00394017
0.00398958
0.00401171
0.00401018
0.00398703
0.00394306
0.00387839
0.0037922
0.00367964
0.00353621
0.0033598
0.00314833
0.00290115
0.00260797
0.00225172
0.00178209
0.000868548
0.00441103
0.00440341
0.00440512
0.00440472
0.00439702
0.0043787
0.00434653
0.00429954
0.00423759
0.0041573
0.00404595
0.00389674
0.00370988
0.00348094
0.00320783
0.00288263
0.00248593
0.0019563
0.000940889
0.0049538
0.0048872
0.00483771
0.00479884
0.0047658
0.00473247
0.00468965
0.00463633
0.00457379
0.00449776
0.00438571
0.00422945
0.00403855
0.00379475
0.00349653
0.00314175
0.00270798
0.00213184
0.00118746
0.00538155
0.00528341
0.00521913
0.00516585
0.00511684
0.00507284
0.00501842
0.00495492
0.00488389
0.00479608
0.00467486
0.00452838
0.00434947
0.00406526
0.00374205
0.00335989
0.00289254
0.0022555
0.00112117
0.00573973
0.00561788
0.00553969
0.00547804
0.00542918
0.00537944
0.00531176
0.00523427
0.00515126
0.00505687
0.00493085
0.004788
0.00460675
0.00431754
0.00399542
0.00359811
0.00310513
0.0024415
0.00140714
0.00602206
0.00591777
0.00584234
0.00577076
0.00570706
0.00564299
0.00555927
0.0054648
0.00536693
0.00526431
0.00515443
0.00505145
0.00487285
0.00451919
0.0041588
0.00376087
0.00328482
0.00268396
0.00193532
0.00627212
0.00619082
0.00611677
0.00604129
0.00596726
0.00588852
0.00579341
0.00568535
0.00557038
0.00545029
0.00532375
0.00518426
0.00496457
0.00462089
0.00423994
0.00382878
0.0033562
0.00276228
0.00194615
0.00652401
0.00646124
0.00638839
0.00631012
0.00623012
0.00613973
0.00603195
0.00590812
0.00577398
0.0056288
0.00546672
0.00526989
0.00500587
0.00467407
0.00429067
0.00386015
0.00336872
0.00275816
0.00194763
0.00678128
0.00673313
0.00666396
0.00658538
0.00650088
0.00639991
0.00627756
0.00613678
0.00598168
0.00581026
0.00561235
0.00536744
0.00505951
0.00471012
0.0043159
0.00386598
0.00334943
0.00271718
0.00195051
0.00704855
0.00701053
0.00694782
0.00687076
0.00678144
0.00667087
0.00653575
0.00637952
0.00620365
0.00600516
0.0057744
0.00549316
0.00514933
0.00476322
0.00433887
0.00386301
0.00332363
0.002682
0.00194569
0.00733425
0.00730282
0.00724644
0.00717063
0.00707644
0.00695861
0.00681429
0.00664486
0.00645012
0.00622685
0.00596714
0.00565727
0.00528558
0.0048619
0.00439794
0.0038879
0.00332312
0.00266809
0.00194552
0.00764344
0.00761902
0.00756814
0.00749389
0.00739682
0.00727391
0.00712252
0.00694205
0.00673131
0.00648714
0.00620344
0.00587065
0.0054782
0.00502503
0.00452172
0.00397429
0.00337765
0.00269312
0.00194591
0.00797942
0.00796437
0.00792062
0.00784993
0.00775262
0.00762672
0.00746987
0.00728053
0.00705688
0.00679594
0.00649302
0.00614151
0.00573323
0.00526102
0.00472747
0.00414505
0.00351014
0.0027689
0.00194279
0.00834856
0.00834516
0.00831096
0.00824652
0.00815175
0.0080252
0.00786488
0.00766892
0.00743529
0.00716125
0.00684308
0.00647594
0.00605385
0.00556915
0.00501795
0.00440718
0.00372494
0.00289704
0.00191277
0.00875818
0.00876868
0.00874637
0.00869077
0.00860129
0.00847665
0.00831512
0.00811483
0.00787376
0.00758945
0.00725887
0.00687827
0.00644302
0.00594689
0.00538342
0.00474818
0.00401559
0.00309272
0.00192181
0.00921548
0.00924232
0.00923427
0.00919002
0.00910846
0.00898825
0.00882777
0.00862523
0.00837869
0.00808595
0.00774448
0.00735121
0.00690231
0.00639238
0.00581349
0.00515165
0.00436829
0.00334856
0.00194901
0.00972786
0.0097738
0.00978258
0.00975223
0.00968112
0.00956771
0.00941033
0.0092072
0.00895647
0.0086561
0.00830384
0.007897
0.00743206
0.00690368
0.00630254
0.00560915
0.0047745
0.00365469
0.00195203
0.0103034
0.0103716
0.0104001
0.0103862
0.010328
0.0102236
0.0100711
0.00986857
0.00961425
0.00930609
0.00894192
0.00851911
0.00803408
0.00748109
0.0068495
0.00611671
0.0052277
0.00401849
0.00195748
0.0109511
0.0110452
0.0110965
0.011102
0.0110592
0.0109657
0.0108195
0.0106184
0.0103605
0.0100436
0.00966544
0.00922316
0.00871283
0.00812808
0.00745702
0.00667474
0.0057219
0.00442097
0.00206388
0.0116814
0.0118054
0.0118831
0.0119109
0.0118859
0.0118053
0.0116666
0.0114674
0.0112055
0.0108783
0.0104834
0.0100173
0.00947578
0.00885153
0.00813145
0.00728854
0.00625912
0.00484959
0.00225858
0.0125057
0.0126642
0.0127721
0.0128255
0.0128209
0.012755
0.012625
0.012428
0.0121613
0.011822
0.0114069
0.0109124
0.0103333
0.0096614
0.00888254
0.00796761
0.00684903
0.00531844
0.00247383
0.0134373
0.0136352
0.0137777
0.0138602
0.0138787
0.0138295
0.0137092
0.0135145
0.013242
0.0128884
0.0124499
0.0119218
0.0112984
0.0105703
0.00972246
0.00872385
0.00750163
0.00583075
0.0027172
0.0144909
0.0147339
0.0149155
0.0150309
0.0150753
0.0150448
0.0149353
0.0147431
0.014464
0.014094
0.0136283
0.0130615
0.0123868
0.0115942
0.0106669
0.00957128
0.00822906
0.00639554
0.00297964
0.0156831
0.0159771
0.016203
0.0163552
0.0164288
0.0164191
0.0163217
0.0161321
0.0158457
0.0154571
0.0149609
0.0143505
0.0136178
0.0127514
0.0117326
0.0105253
0.00904449
0.00702324
0.00326196
0.0170323
0.0173841
0.0176596
0.017853
0.0179589
0.0179723
0.0178885
0.0177021
0.0174077
0.0169991
0.0164695
0.0158107
0.0150129
0.0140629
0.0129398
0.0116042
0.00996332
0.0077243
0.00356222
0.018559
0.0189758
0.0193068
0.0195458
0.0196875
0.0197266
0.019658
0.0194758
0.0191736
0.018744
0.0181784
0.0174668
0.0165972
0.0155539
0.014313
0.0128308
0.0110056
0.00851448
0.00388755
0.0202862
0.0207758
0.0211684
0.0214579
0.0216388
0.0217063
0.0216549
0.0214782
0.021169
0.0207182
0.0201152
0.0193476
0.0184002
0.0172542
0.0158817
0.0142338
0.012198
0.00941843
0.0042625
0.0222396
0.0228104
0.023271
0.0236157
0.0238395
0.0239381
0.0239062
0.0237371
0.0234224
0.0229514
0.0223111
0.0214856
0.0204561
0.0191991
0.0176816
0.0158481
0.0135741
0.0104669
0.00471359
0.0244481
0.0251093
0.0256445
0.0260489
0.026319
0.0264515
0.0264416
0.0262826
0.0259651
0.0254765
0.0248008
0.023918
0.0228043
0.02143
0.0197553
0.0177159
0.0151732
0.0116931
0.00525736
0.0269455
0.0277066
0.0283226
0.0287908
0.02911
0.0292786
0.0292932
0.0291474
0.0288311
0.0283295
0.027623
0.0266868
0.0254902
0.0239955
0.0221531
0.0198872
0.0170413
0.0131319
0.00589853
0.0297714
0.0306417
0.0313439
0.0318788
0.0322486
0.0324549
0.0324963
0.0323674
0.0320575
0.0315496
0.0308203
0.0298385
0.0285653
0.0269519
0.0249354
0.0224232
0.0192348
0.0148267
0.00664836
0.0329737
0.0339616
0.0347534
0.0353554
0.0357754
0.0360194
0.0360893
0.0359811
0.035684
0.0351792
0.0344388
0.0334249
0.032088
0.0303651
0.0281745
0.0253997
0.0218267
0.0168365
0.00753277
0.0366117
0.0377225
0.0386032
0.0392691
0.0397357
0.0400153
0.0401138
0.0400299
0.0397532
0.0392632
0.0385279
0.0375016
0.0361229
0.0343105
0.0319573
0.0289124
0.0249131
0.0192427
0.0085883
0.0407606
0.0419926
0.0429549
0.0436755
0.0441805
0.04449
0.0446155
0.0445586
0.0443103
0.043849
0.0431393
0.0421279
0.0407402
0.0388735
0.0363875
0.0330819
0.0286224
0.0221586
0.00986372
0.0455152
0.0468546
0.04788
0.0486376
0.0491666
0.0494963
0.049644
0.0496154
0.0494031
0.0489859
0.0483258
0.0473638
0.0460126
0.0441467
0.0415848
0.0380596
0.033129
0.025747
0.0114248
0.0509929
0.0524054
0.05346
0.0542259
0.0547573
0.0550923
0.0552544
0.0552529
0.0550829
0.0547247
0.0541403
0.0532677
0.052011
0.0502238
0.0476814
0.0440311
0.0386725
0.0302575
0.0133955
0.0573317
0.0587539
0.0597842
0.0605177
0.061022
0.0613428
0.0615078
0.0615292
0.0614051
0.0611184
0.0606343
0.0598929
0.058797
0.0571887
0.0548075
0.0512083
0.0455768
0.0360845
0.0159976
0.06468
0.0660122
0.0669448
0.0675944
0.0680368
0.0683205
0.068474
0.068511
0.068432
0.0682242
0.0678589
0.0672849
0.0664147
0.0650971
0.0630619
0.059797
0.0542496
0.0438583
0.0195964
0.0731748
0.0742829
0.0750307
0.0755406
0.0758852
0.0761079
0.0762343
0.0762766
0.0762369
0.0761074
0.0758682
0.0754825
0.0748849
0.073956
0.0724634
0.0699122
0.0651114
0.0545898
0.0249027
0.0829091
0.083644
0.0841232
0.0844445
0.0846607
0.0848022
0.0848861
0.0849213
0.0849098
0.0848483
0.0847267
0.0845256
0.0842098
0.0837127
0.0828951
0.0814214
0.0783072
0.069689
0.0334179
0.0938957
0.0941421
0.0942989
0.0944031
0.0944735
0.0945204
0.0945496
0.0945642
0.0945652
0.0945522
0.0945231
0.0944737
0.094397
0.09428
0.0940963
0.0937726
0.0930034
0.0896726
0.0469971
)
;

boundaryField
{
    leftWall
    {
        type            kqRWallFunction;
        value           nonuniform List<scalar> 
50
(
8.94616e-05
0.000197502
0.00028373
0.000357531
0.000422134
0.000480601
0.000535174
0.000587444
0.000663684
0.000764532
0.000894469
0.00109159
0.00126914
0.00163832
0.002065
0.00222533
0.00230696
0.00235596
0.00238296
0.00239712
0.00240402
0.00240472
0.00240874
0.00240815
0.00240639
0.00239958
0.00240684
0.00240519
0.00240378
0.00240019
0.00240168
0.00240057
0.00240063
0.00240852
0.00240582
0.00241016
0.00240268
0.00240541
0.00240591
0.00240852
0.0024087
0.00240748
0.00241438
0.0024131
0.00240458
0.00241035
0.00241019
0.00358892
0.0172151
0.0839829
)
;
    }
    rightWall
    {
        type            kqRWallFunction;
        value           nonuniform List<scalar> 
50
(
0.000105695
0.00021725
0.00030973
0.000395733
0.000477306
0.000557513
0.000643987
0.000725141
0.000808301
0.000868548
0.000940889
0.00118746
0.00112117
0.00140714
0.00193532
0.00194615
0.00194763
0.00195051
0.00194569
0.00194552
0.00194591
0.00194279
0.00191277
0.00192181
0.00194901
0.00195203
0.00195748
0.00206388
0.00225858
0.00247383
0.0027172
0.00297964
0.00326196
0.00356222
0.00388755
0.0042625
0.00471359
0.00525736
0.00589853
0.00664836
0.00753277
0.0085883
0.00986372
0.0114248
0.0133955
0.0159976
0.0195964
0.0249027
0.0334179
0.0469971
)
;
    }
    lowerWall
    {
        type            kqRWallFunction;
        value           nonuniform List<scalar> 
62
(
8.94616e-05
0.000232012
0.000343196
0.00043046
0.000502176
0.000562185
0.000612592
0.000654801
0.000690119
0.000719916
0.000745532
0.000768257
0.000788176
0.000803087
0.000807465
0.000792346
0.000751665
0.000697387
0.000622045
0.000539573
0.00045608
0.000322859
0.000151015
0.000151015
0.000341799
0.00048593
0.000631296
0.000791017
0.000990088
0.00129161
0.00186075
0.00203742
0.00176609
0.00177323
0.00202157
0.000221701
0.00042922
0.000530327
0.000595869
0.000682109
0.000816694
0.00106399
0.00165792
0.000221701
0.000474752
0.000659462
0.000736731
0.000772608
0.00078995
0.000786529
0.000774365
0.000744801
0.000704472
0.000644128
0.000559811
0.000510009
0.000506521
0.00046894
0.000399479
0.000299713
0.000200089
0.000105695
)
;
    }
    atmosphere
    {
        type            inletOutlet;
        inletValue      uniform 0.1;
        value           nonuniform List<scalar> 
46
(
0.1
0.0136559
0.00529482
0.00659454
0.00793542
0.00912705
0.0103036
0.011538
0.0128774
0.01436
0.0160223
0.0179032
0.0200494
0.0225232
0.0254174
0.028877
0.0331281
0.0385102
0.0455143
0.0548635
0.0677561
0.1
0.1
0.1
0.1
0.1
0.1
0.1
0.1
0.1
0.1
0.1
0.1
0.1
0.1
0.1
0.1
0.1
0.1
0.1
0.1
0.1
0.1
0.1
0.1
0.0469971
)
;
    }
    defaultFaces
    {
        type            empty;
    }
}


// ************************************************************************* //
