/*--------------------------------*- C++ -*----------------------------------*\
  =========                 |
  \\      /  F ield         | OpenFOAM: The Open Source CFD Toolbox
   \\    /   O peration     | Website:  https://openfoam.org
    \\  /    A nd           | Version:  9
     \\/     M anipulation  |
\*---------------------------------------------------------------------------*/
FoamFile
{
    format      ascii;
    class       volScalarField;
    location    "0.45";
    object      p_rgh;
}
// * * * * * * * * * * * * * * * * * * * * * * * * * * * * * * * * * * * * * //

dimensions      [1 -1 -2 0 0 0 0];

internalField   nonuniform List<scalar> 
2268
(
706.986
705.712
712.131
722.794
734.839
746.734
758.285
769.648
781.051
792.681
804.689
817.246
830.605
845.181
861.704
881.18
904.603
932.335
963.574
994.074
1017.12
1016.41
1042.39
706.76
704.347
709.292
718.637
729.633
740.922
752.195
763.501
774.996
786.844
799.204
812.274
826.337
841.835
859.424
880.154
905.142
935.062
969.169
1002.12
1026.67
1013.77
1041.63
705.592
703.355
707.603
715.26
724.827
735.139
745.826
756.838
768.262
780.233
792.917
806.534
821.393
837.951
856.853
879.04
905.546
936.829
971.978
1005.42
1030.59
1020.9
1045.04
704.488
702.741
706.621
712.955
721.204
730.485
740.453
751.023
762.239
774.217
787.122
801.183
816.714
834.152
854.09
877.317
904.673
936.348
971.258
1004.16
1029.79
1030.69
1055.01
703.764
703.047
706.179
711.4
718.504
726.802
736.019
746.079
757.009
768.911
781.948
796.342
812.393
830.486
851.138
874.992
902.673
934.15
968.271
1000.42
1026.36
1035.23
1067.9
703.401
703.676
705.939
710.153
716.247
723.614
732.073
741.593
752.198
763.983
777.098
791.757
808.223
826.811
847.942
872.137
899.837
930.842
963.971
995.203
1020.96
1037.66
1077.34
703.344
704.297
705.638
708.901
714.073
720.537
728.235
737.203
747.476
759.136
772.321
787.218
804.05
823.034
844.487
868.832
896.369
926.764
958.791
988.794
1013.4
1035.94
1078.36
703.639
704.787
705.009
707.21
711.459
717.048
724.012
732.458
742.441
754.029
767.338
782.524
799.745
819.086
840.756
865.113
892.363
922.075
952.904
981.236
1003.32
1024.57
1063.89
405.934
405.831
405.628
405.313
404.903
404.452
404.058
403.807
403.724
403.782
403.958
404.28
404.769
405.407
406.125
406.808
407.355
407.657
407.659
405.97
405.868
405.668
405.344
404.912
404.437
404.025
403.765
403.684
403.744
403.916
404.217
404.679
405.296
406.011
406.702
407.265
407.603
407.644
405.998
405.893
405.684
405.339
404.885
404.395
403.983
403.726
403.649
403.711
403.865
404.139
404.571
405.165
405.884
406.595
407.179
407.555
407.628
406.018
405.9
405.675
405.307
404.832
404.332
403.923
403.673
403.603
403.668
403.805
404.053
404.461
405.035
405.768
406.508
407.11
407.513
407.613
406.025
405.898
405.66
405.266
404.769
404.256
403.852
403.611
403.553
403.624
403.742
403.965
404.349
404.901
405.65
406.425
407.042
407.466
407.6
406.028
405.899
405.652
405.23
404.71
404.181
403.787
403.557
403.509
403.584
403.68
403.875
404.24
404.757
405.519
406.34
406.974
407.413
407.592
406.028
405.918
405.666
405.209
404.665
404.122
403.745
403.522
403.478
403.554
403.618
403.789
404.146
404.624
405.399
406.272
406.915
407.349
407.591
406.076
405.972
405.711
405.222
404.662
404.097
403.72
403.497
403.459
403.544
403.572
403.772
404.15
404.619
405.453
406.292
406.88
407.268
407.594
704.701
703.937
701.607
702.404
705.576
710.171
716.265
724.076
733.728
745.301
758.901
774.661
792.616
812.541
834.43
858.646
885.296
913.931
942.996
968.587
985.912
990.844
976.876
613.769
547.007
502.148
513.311
536.152
561.494
588.038
617.038
648.452
681.213
714.4
747.091
777.461
802.465
824.561
848.431
874.467
902.105
931.168
957.233
976.827
988.781
1003.8
57.6778
34.9722
21.8947
27.8119
39.0218
53.2113
70.9062
94.2244
125.096
165.211
217.54
287.689
383.645
510.133
637.822
757.532
861.883
893.416
923.342
949.837
972.825
995.069
1022.05
1.79591
1.97912
2.004
1.97078
1.96651
1.97779
1.99141
2.00568
2.02328
2.04566
2.07216
2.10199
2.13626
2.23315
36.7347
110.268
244.543
504.106
854.251
959.974
975.17
995.628
1021.98
1.89542
1.90819
1.94164
1.9593
1.98018
2.00242
2.02299
2.04165
2.05907
2.07585
2.09258
2.11045
2.13279
2.16287
2.16505
2.12637
2.02109
10.1413
89.4009
274.127
525.983
783.956
1051.38
1.88654
1.89825
1.91678
1.93366
1.94934
1.96582
1.98317
2.00101
2.0194
2.03859
2.05893
2.08089
2.10523
2.13155
2.15798
2.18559
2.21055
2.19354
2.04401
1.80735
5.77834
51.9067
225.122
1.88562
1.89032
1.90059
1.91279
1.92581
1.94028
1.95626
1.97347
1.9919
2.01169
2.03298
2.05588
2.08028
2.1052
2.12798
2.14909
2.17309
2.22123
2.28796
2.31098
2.23683
1.98266
1.81973
1.86695
1.87156
1.87969
1.89043
1.90268
1.91658
1.93211
1.94915
1.96768
1.98774
2.00935
2.03248
2.05685
2.08164
2.10511
2.12732
2.1495
2.1732
2.1924
2.21784
2.29541
2.42559
2.48036
1.84655
1.84999
1.85658
1.86602
1.87748
1.89085
1.90607
1.92306
1.94176
1.96216
1.98422
2.00784
2.03279
2.05855
2.0844
2.11024
2.13632
2.1626
2.1874
2.21254
2.24604
2.28448
2.31683
1.82241
1.82542
1.8309
1.83933
1.85011
1.86305
1.87805
1.89503
1.91393
1.9347
1.95729
1.98157
2.00738
2.03441
2.06234
2.09108
2.1208
2.15171
2.18346
2.21653
2.25389
2.29795
2.34793
1.79566
1.79814
1.80284
1.81054
1.82082
1.83347
1.84834
1.86537
1.88447
1.9056
1.9287
1.95367
1.9804
2.00869
2.0384
2.06948
2.10206
2.13641
2.17271
2.21172
2.2552
2.30426
2.359
1.76657
1.76859
1.77273
1.77989
1.78981
1.80225
1.81706
1.83414
1.85343
1.87489
1.89846
1.92409
1.95168
1.98114
2.01241
2.04549
2.08049
2.11766
2.15736
2.20037
2.2479
2.30054
2.35868
1.73528
1.73694
1.7407
1.74749
1.75715
1.76944
1.78419
1.80132
1.82078
1.84252
1.86651
1.89271
1.92107
1.95156
1.98415
2.0189
2.05593
2.09546
2.1379
2.18392
2.23442
2.28987
2.35077
1.70183
1.70328
1.70681
1.71337
1.72284
1.73499
1.74969
1.76685
1.78643
1.8084
1.83273
1.8594
1.8884
1.91972
1.95339
1.98948
2.02812
2.06955
2.11413
2.16247
2.2153
2.27297
2.33599
1.6662
1.66758
1.67103
1.67746
1.68678
1.69881
1.71345
1.7306
1.75025
1.77237
1.79694
1.82397
1.85346
1.88543
1.91992
1.95703
1.99689
2.03974
2.08593
2.13599
2.19056
2.24993
2.31452
1.62838
1.6298
1.63328
1.63966
1.64886
1.66078
1.67532
1.69243
1.71208
1.73426
1.75898
1.78624
1.81605
1.84846
1.88352
1.92134
1.96206
2.0059
2.05321
2.10448
2.16027
2.22082
2.28651
1.58833
1.58988
1.59347
1.59985
1.60896
1.62076
1.63519
1.6522
1.67178
1.69394
1.71867
1.74601
1.77597
1.8086
1.84398
1.88221
1.92344
1.96789
2.01588
2.06789
2.12443
2.18571
2.25203
1.54605
1.54778
1.55152
1.55792
1.56696
1.57863
1.59291
1.60978
1.62922
1.65124
1.67587
1.70313
1.73305
1.7657
1.80114
1.83949
1.8809
1.92559
1.97388
2.0262
2.08306
2.14461
2.21112
1.50153
1.50346
1.50735
1.5138
1.52276
1.53429
1.54839
1.56505
1.58427
1.60607
1.63046
1.65749
1.68719
1.71963
1.75488
1.79307
1.83435
1.87894
1.92714
1.9794
2.03616
2.09757
2.16383
1.45479
1.45691
1.46095
1.46742
1.47629
1.48765
1.50153
1.51794
1.53687
1.55834
1.58238
1.60902
1.63832
1.67034
1.70517
1.74293
1.78378
1.82794
1.87573
1.92754
1.98382
2.04469
2.11028
1.40584
1.40816
1.4123
1.41877
1.42753
1.43869
1.45231
1.4684
1.48696
1.50801
1.53158
1.5577
1.58644
1.61785
1.65203
1.68911
1.72926
1.7727
1.81974
1.87079
1.92624
1.98619
2.0507
1.3547
1.35727
1.36144
1.36786
1.37647
1.38741
1.40072
1.41642
1.43453
1.45507
1.47806
1.50354
1.53156
1.56218
1.59552
1.6317
1.67091
1.71337
1.75939
1.80937
1.86369
1.92238
1.98544
1.30132
1.30436
1.30842
1.31472
1.32315
1.33382
1.34677
1.36203
1.37962
1.39956
1.42187
1.44658
1.47374
1.50343
1.53575
1.57084
1.60889
1.65014
1.69491
1.74357
1.79647
1.85361
1.91488
1.24615
1.24908
1.25325
1.25941
1.26761
1.27796
1.2905
1.30526
1.32226
1.34151
1.36305
1.38688
1.41307
1.44168
1.47283
1.50667
1.54338
1.58323
1.62654
1.67366
1.7249
1.7802
1.83939
1.18901
1.19179
1.19597
1.20196
1.20991
1.2199
1.23198
1.24618
1.26252
1.28102
1.30168
1.32454
1.34964
1.37706
1.40691
1.43934
1.47456
1.51284
1.5545
1.59987
1.64924
1.70247
1.75931
1.12995
1.13256
1.13668
1.14247
1.15012
1.15972
1.17129
1.18488
1.2005
1.21816
1.23788
1.25967
1.28359
1.3097
1.33813
1.36903
1.40262
1.43918
1.47902
1.52246
1.56975
1.62069
1.67496
1.06902
1.07147
1.07546
1.08101
1.08833
1.09748
1.10852
1.12144
1.13628
1.15305
1.17175
1.1924
1.21505
1.23977
1.26667
1.29593
1.32777
1.36247
1.40034
1.44168
1.48669
1.53514
1.58663
1.00631
1.0086
1.01241
1.01767
1.02462
1.0333
1.04375
1.05597
1.06998
1.0858
1.10342
1.12287
1.14419
1.16743
1.19272
1.22025
1.25023
1.28294
1.3187
1.35778
1.40034
1.4461
1.49463
0.941907
0.94404
0.947622
0.952548
0.959085
0.967261
0.977085
0.988567
1.00172
1.01654
1.03304
1.05124
1.07115
1.09286
1.11647
1.14218
1.1702
1.20082
1.23434
1.27102
1.31096
1.35387
1.39927
0.875926
0.877866
0.881192
0.885738
0.891837
0.899476
0.908647
0.919354
0.931604
0.9454
0.960744
0.97764
0.996115
1.01623
1.03811
1.06193
1.08792
1.11636
1.14753
1.18166
1.21883
1.25874
1.30087
0.808472
0.810178
0.813224
0.81735
0.822984
0.830058
0.838547
0.848451
0.859775
0.872516
0.886671
0.902238
0.919237
0.937729
0.95783
0.979714
1.00361
1.02978
1.05851
1.08998
1.12426
1.16102
1.19977
0.739655
0.741079
0.74383
0.747494
0.752641
0.759125
0.766907
0.775985
0.78636
0.798026
0.81097
0.825185
0.840687
0.85753
0.875824
0.895735
0.917486
0.941336
0.967536
0.996264
1.02754
1.06103
1.0963
0.669591
0.670655
0.673128
0.676281
0.680925
0.686797
0.693851
0.702086
0.711497
0.72207
0.733789
0.746639
0.760631
0.775813
0.792284
0.810202
0.829779
0.851259
0.874875
0.900779
0.928955
0.959095
0.990795
0.598412
0.599008
0.601245
0.603822
0.607958
0.613197
0.619507
0.626884
0.635317
0.644788
0.655273
0.666753
0.679232
0.69275
0.707397
0.723316
0.740703
0.759787
0.780781
0.803807
0.828821
0.855523
0.883576
0.526323
0.526203
0.528385
0.530204
0.533855
0.538446
0.543998
0.550508
0.557957
0.566321
0.575569
0.585679
0.596649
0.608511
0.621343
0.635272
0.650474
0.667157
0.685512
0.705635
0.727453
0.750671
0.775006
0.453652
0.452068
0.4548
0.455438
0.458737
0.462672
0.46746
0.473099
0.479562
0.486817
0.494831
0.503576
0.513047
0.523271
0.534309
0.546271
0.55931
0.573611
0.589339
0.606566
0.625191
0.644922
0.665504
0.380594
0.376561
0.379711
0.379962
0.382703
0.385961
0.38999
0.394764
0.400244
0.406394
0.413177
0.420568
0.42856
0.437168
0.446441
0.45647
0.467387
0.479351
0.492494
0.506863
0.522339
0.538631
0.555494
0.307125
0.299634
0.303623
0.303424
0.305593
0.308295
0.311597
0.315516
0.320019
0.325068
0.330629
0.33668
0.343211
0.350228
0.357768
0.365908
0.37476
0.384449
0.395074
0.406652
0.419057
0.432009
0.445266
0.233653
0.221381
0.226747
0.226128
0.227754
0.229918
0.232525
0.235606
0.239143
0.243101
0.247453
0.25218
0.257271
0.262726
0.268576
0.274882
0.281735
0.289224
0.297415
0.306299
0.315743
0.325478
0.335214
0.161114
0.141155
0.14953
0.149269
0.15043
0.152079
0.15404
0.156322
0.158919
0.161812
0.164983
0.16842
0.172114
0.176065
0.180297
0.184855
0.189807
0.195201
0.201073
0.207392
0.214022
0.220698
0.227001
0.0935772
0.0523785
0.0687227
0.071855
0.0732392
0.0745269
0.0759171
0.0774388
0.079115
0.0809558
0.0829603
0.0851276
0.0874572
0.0899518
0.0926263
0.0955103
0.0986494
0.102043
0.105698
0.10956
0.113488
0.117253
0.12068
0.0368307
-0.0521528
-0.0237845
-0.0159907
-0.0139341
-0.0128821
-0.0121112
-0.0114546
-0.0108279
-0.0101878
-0.00951254
-0.00878785
-0.00800443
-0.00715406
-0.00622398
-0.00519962
-0.00407669
-0.00287064
-0.00161659
-0.000364455
0.000708729
0.00142184
0.0016335
902.484
920.817
931.164
742.134
1007.98
1012.4
1009.07
999.491
1037.08
1042.55
1045.56
1049.6
1038.91
1050.1
1061.05
1071.37
1057.12
1064
1073.4
1084.8
428.047
559.472
634.273
745.855
1.79977
3.81212
8.65292
25.2186
2.48088
2.44643
2.38602
2.32477
2.35639
2.41074
2.4926
2.58508
2.39094
2.42185
2.45809
2.50132
2.40587
2.44004
2.47804
2.51623
2.40779
2.44332
2.48231
2.52225
2.40165
2.43811
2.47775
2.51827
2.38821
2.42535
2.46547
2.50629
2.36775
2.40536
2.44578
2.4868
2.34041
2.37831
2.41887
2.45996
2.30631
2.34433
2.38486
2.42586
2.26549
2.30346
2.3438
2.38452
2.21797
2.25571
2.29567
2.33591
2.16385
2.20115
2.24054
2.2801
2.10337
2.14
2.17858
2.21722
2.03686
2.07258
2.1101
2.1476
1.96475
1.99933
2.03554
2.07165
1.88744
1.92067
1.95534
1.98985
1.80532
1.83702
1.86999
1.90272
1.71874
1.7488
1.77993
1.81077
1.62804
1.65637
1.68559
1.71446
1.53356
1.56009
1.58734
1.61423
1.43562
1.4603
1.48556
1.51045
1.33456
1.35735
1.3806
1.40347
1.23072
1.25157
1.27278
1.29362
1.12445
1.14332
1.16244
1.18123
1.01608
1.03293
1.04995
1.06663
0.905909
0.9207
0.935567
0.950098
0.794287
0.806985
0.819668
0.832024
0.681663
0.692248
0.702732
0.712905
0.568533
0.577021
0.585332
0.593342
0.455323
0.461802
0.468018
0.473907
0.342291
0.346823
0.351082
0.355068
0.230919
0.233487
0.236026
0.238602
0.123103
0.124416
0.125518
0.126525
0.0018289
0.00184261
0.00188904
0.0020385
405.802
405.872
405.627
405.286
404.76
404.118
403.552
403.355
403.441
403.637
403.85
405.235
405.678
406.009
406.687
406.625
406.908
407.173
407.632
716.634
550.11
432.531
404.535
404.119
403.207
447.706
618.718
770.733
801.775
801.522
770.203
680.597
559.54
455.657
410.21
407.231
407.171
407.781
1060.5
1051.29
962.739
766.687
722.181
785.274
943.686
1066.51
1091.91
1101.52
1115.2
1130.23
1146.15
1160.03
1028.13
619.856
414.759
407.69
408.229
1086.82
1107.12
1123.13
1136.44
1139.79
1142.19
1135.61
1132.11
1138.56
1154.06
1176.35
1202.05
1227.7
1253.68
1279.81
1259.28
798.497
421.574
411.647
1105.27
1120.83
1130.17
1137.79
1144.51
1150.56
1155.52
1161.64
1173.59
1195.61
1228.27
1269.54
1308.01
1334.3
1368.22
1398.08
1343.01
698.56
420.993
958.714
1004.23
1003.64
1019.97
1046.28
1049.74
1035
975.549
871.323
841.661
904.369
1104.38
1356.27
1431.21
1462.81
1488.05
1512.92
1118.15
460.551
99.365
141.763
151.424
170.924
191.453
187.867
165.889
121.222
71.5329
62.3262
81.2939
152.852
385.689
1037.34
1525.98
1575.95
1588.16
1298.04
470.626
2.23184
2.23282
2.20285
2.26931
2.45301
2.78941
3.30358
3.80646
4.12705
4.40137
5.05291
6.35103
9.69311
189.991
1025.1
1640.23
1655.86
1255.16
385.675
2.71202
2.83525
2.94681
3.05487
3.16001
3.27133
3.41193
3.60644
3.85236
4.15234
4.57982
5.24578
5.83669
11.4626
516.5
1593.69
1732.05
1015.13
289.305
2.58341
2.6743
2.76932
2.88707
3.03202
3.19835
3.39092
3.61893
3.88915
4.21043
4.605
5.06956
5.19149
6.46041
296.323
1557.94
1719.63
719.312
230.056
2.5804
2.67333
2.77773
2.8999
3.0435
3.21119
3.40609
3.6311
3.88649
4.16797
4.46795
4.76302
4.85878
4.79958
154.491
1516.97
1635.78
476.115
208.37
2.58894
2.68735
2.79855
2.92561
3.0702
3.23413
3.41866
3.62309
3.84241
4.06483
4.26714
4.42173
4.59008
4.14414
85.8328
1390.77
1635.74
365.987
199.389
2.5861
2.68678
2.80037
2.92884
3.07264
3.23213
3.40638
3.59194
3.78133
3.96149
4.11169
4.21903
4.3381
3.96208
37.0028
1157.4
1737.57
408.669
193.066
2.57434
2.6755
2.78923
2.91674
3.05778
3.21173
3.37641
3.54704
3.71558
3.87053
3.9975
4.08914
4.16704
3.97532
12.2571
964.352
1821.25
613.054
185.346
2.55498
2.656
2.76883
2.89425
3.03158
3.17978
3.33615
3.49564
3.65071
3.7921
3.91084
4.00372
4.07807
4.03591
4.72393
811.7
1903.83
907.399
176.524
2.52813
2.62857
2.73993
2.86276
2.9963
3.13943
3.28951
3.44185
3.58987
3.72614
3.84405
3.93949
4.01309
4.05064
4.04658
714.281
1994.51
1066.19
170.393
2.49374
2.59322
2.70279
2.82296
2.95312
3.0924
3.23863
3.38789
3.53482
3.67316
3.79618
3.89428
3.9573
4.02616
3.59608
765.866
1704.44
1006.97
183.832
2.4518
2.54993
2.65752
2.77517
2.9026
3.03946
3.18438
3.33453
3.48599
3.63389
3.77249
3.88938
3.96128
4.02384
3.37117
776.868
1272.17
508.238
192.971
2.40226
2.49867
2.60413
2.71943
2.84478
2.9806
3.1265
3.28102
3.44193
3.60695
3.77369
3.9343
4.05402
4.09746
4.02759
604.578
1310.03
644.876
196.358
2.34517
2.43949
2.54261
2.65567
2.77945
2.91523
3.06374
3.22497
3.39857
3.58498
3.78798
4.00573
4.20903
4.23098
4.92528
640.969
1339.34
1031.75
223.408
2.28068
2.37254
2.47313
2.58393
2.70638
2.84261
2.99438
3.16289
3.34941
3.5566
3.80243
4.07425
4.3575
4.45195
5.13378
506.349
1352.94
1349.77
396.967
2.20909
2.29817
2.39598
2.50442
2.62552
2.76212
2.91673
3.09127
3.28788
3.5108
3.78152
4.10138
4.49588
4.88004
5.30303
6.23463
897.429
1349.69
417.981
2.13084
2.21681
2.31163
2.41755
2.53707
2.67351
2.82976
3.00764
3.20881
3.43746
3.70545
4.03959
4.50579
5.8302
6.402
7.53197
65.0826
968.624
944.528
2.04644
2.12903
2.22065
2.32382
2.44139
2.57685
2.73528
2.91106
3.11273
3.34331
3.58983
3.87475
4.27442
5.45021
6.41862
8.74854
15.3555
68.5002
560.787
1.95646
2.03544
2.12362
2.22376
2.33889
2.47242
2.63688
2.8025
2.99295
3.23598
3.44934
3.91281
3.9036
4.16582
5.90306
11.6529
18.7844
22.2806
154.019
1.86148
1.93663
2.0211
2.11779
2.22982
2.36034
2.51964
2.69086
2.86729
3.07024
3.22198
3.51672
3.47448
32.7014
151.222
129.938
39.7886
29.1448
36.1136
1.76202
1.83312
1.91355
2.00621
2.1142
2.24024
2.38638
2.55395
2.73541
2.89521
3.03339
3.00467
3.40204
76.3676
554.177
499.296
87.7803
30.4857
38.477
1.65856
1.72538
1.80134
1.88921
1.99188
2.1115
2.2488
2.51843
2.60104
2.76583
2.87999
2.85644
3.03559
105.357
610.363
604.061
231.74
34.1502
98.8454
1.55149
1.61381
1.68481
1.76703
1.86299
1.9741
2.10055
2.40394
3.00846
2.68641
2.78633
2.87665
2.89726
70.6375
651.998
635.608
133.155
42.914
157.031
1.44116
1.49874
1.5643
1.64002
1.72793
1.82901
1.94279
2.41888
3.08381
3.27308
2.80179
2.96066
2.86108
167.429
723.139
524.116
49.3206
44.0808
158.343
1.3279
1.38049
1.4401
1.50856
1.58755
1.67774
1.77816
2.34331
2.88956
3.0487
2.71648
3.13275
12.9065
609.789
746.389
596.654
51.0097
40.8514
157.599
1.21202
1.25933
1.31246
1.37281
1.44175
1.51953
1.60337
1.88649
2.64071
2.71161
2.17221
2.74866
476.795
766.56
764.952
769.938
117.211
31.4646
155.846
1.09383
1.13561
1.18175
1.23313
1.29057
1.35328
1.4154
1.45829
2.3501
2.1282
1.57681
0.999894
648.749
790.131
789.964
785.39
101.203
15.1787
148.906
0.973703
1.00979
1.04866
1.09052
1.13553
1.18185
1.22147
1.23592
1.6481
1.6379
1.10527
-0.0452822
324.234
818.54
820.017
443.057
32.3021
4.44542
68.3548
0.852052
0.882395
0.914042
0.946504
0.979298
1.0101
1.03046
1.01865
0.927939
0.789657
0.657421
-0.0677227
26.2177
181.073
164.729
30.7013
16.2316
3.37892
6.7678
0.729392
0.754001
0.778714
0.802404
0.823949
0.840604
0.843664
0.811625
0.705342
0.492479
0.216929
-0.0948609
-0.617221
-1.33014
-2.40081
-2.63476
0.409856
-0.0939925
2.29857
0.6063
0.625174
0.643305
0.659118
0.670885
0.675545
0.665441
0.619796
0.504957
0.282412
-0.0702209
-0.550805
-1.22459
-1.85627
-2.38877
-2.88332
-3.21956
-3.44547
3.77066
0.483355
0.496546
0.508418
0.517214
0.520717
0.514805
0.497495
0.442623
0.326743
0.111667
-0.231687
-0.714873
-1.28626
-1.80645
-2.2442
-2.6643
-2.8428
1.86286
3.23045
0.361506
0.369561
0.375699
0.378308
0.375315
0.363253
0.335796
0.277997
0.165559
-0.0382193
-0.35966
-0.803255
-1.32917
-1.85222
-2.33876
-2.80171
-3.18262
4.75688
-1.43552
0.243032
0.247129
0.248658
0.246335
0.238341
0.221732
0.190102
0.129263
0.0296727
-0.160671
-0.456199
-0.867734
-1.36882
-1.90581
-2.46181
-3.09683
-1.9447
5.16135
-1.52835
0.12804
0.129031
0.12737
0.12186
0.110923
0.0923132
0.0618174
0.0110121
-0.0728935
-0.215885
-0.439109
-0.760677
-1.19355
-1.64201
-2.19649
-2.72386
3.887
5.48211
-1.21801
0.00219662
0.00147952
-0.00193426
-0.00883093
-0.0207714
-0.03944
-0.0664404
-0.102373
-0.14586
-0.196354
-0.256862
-0.341802
-0.474202
-0.717817
-1.00754
-0.723355
3.261
2.07831
-1.24844
)
;

boundaryField
{
    leftWall
    {
        type            fixedFluxPressure;
        gradient        uniform 0;
        value           nonuniform List<scalar> 
50
(
706.986
706.76
705.592
704.488
703.764
703.401
703.344
703.639
704.701
613.769
57.6778
1.79591
1.89542
1.88654
1.88562
1.86695
1.84655
1.82241
1.79566
1.76657
1.73528
1.70183
1.6662
1.62838
1.58833
1.54605
1.50153
1.45479
1.40584
1.3547
1.30132
1.24615
1.18901
1.12995
1.06902
1.00631
0.941907
0.875926
0.808472
0.739655
0.669591
0.598412
0.526323
0.453652
0.380594
0.307125
0.233653
0.161114
0.0935772
0.0368307
)
;
    }
    rightWall
    {
        type            fixedFluxPressure;
        gradient        uniform 0;
        value           nonuniform List<scalar> 
50
(
407.659
407.644
407.628
407.613
407.6
407.592
407.591
407.594
407.632
407.781
408.229
411.647
420.993
460.551
470.626
385.675
289.305
230.056
208.37
199.389
193.066
185.346
176.524
170.393
183.832
192.971
196.358
223.408
396.967
417.981
944.528
560.787
154.019
36.1136
38.477
98.8454
157.031
158.343
157.599
155.846
148.906
68.3548
6.7678
2.29857
3.77066
3.23045
-1.43552
-1.52835
-1.21801
-1.24844
)
;
    }
    lowerWall
    {
        type            fixedFluxPressure;
        gradient        uniform 0;
        value           nonuniform List<scalar> 
62
(
706.986
705.712
712.131
722.794
734.839
746.734
758.285
769.648
781.051
792.681
804.689
817.246
830.605
845.181
861.704
881.18
904.603
932.335
963.574
994.074
1017.12
1016.41
1042.39
1042.39
1041.63
1045.04
1055.01
1067.9
1077.34
1078.36
1063.89
902.484
920.817
931.164
742.134
405.934
405.97
405.998
406.018
406.025
406.028
406.028
406.076
405.934
405.831
405.628
405.313
404.903
404.452
404.058
403.807
403.724
403.782
403.958
404.28
404.769
405.407
406.125
406.808
407.355
407.657
407.659
)
;
    }
    atmosphere
    {
        type            totalPressure;
        rho             rho;
        psi             none;
        gamma           1;
        p0              uniform 0;
        value           nonuniform List<scalar> 
46
(
-0.0234799
-0.074285
-0.0693897
-0.0674083
-0.0662526
-0.065636
-0.0653405
-0.0652399
-0.0652587
-0.0653519
-0.0654891
-0.0656473
-0.0658076
-0.065954
-0.0660745
-0.0661627
-0.0662212
-0.0662679
-0.0663456
-0.0665385
-0.0669993
-0.0679982
-0.07001
-0.072553
-0.0738392
-0.0743517
-0.0741087
-0.0732382
-0.0746746
-0.0786546
-0.0854681
-0.0961355
-0.111957
-0.133095
-0.156159
-0.172982
-0.1728
-0.140455
-0.071013
-0.00210215
0
0
0
0
0
0
)
;
    }
    defaultFaces
    {
        type            empty;
    }
}


// ************************************************************************* //
