# vtk DataFile Version 2.0
track0
ASCII
DATASET POLYDATA
POINTS 12040 float
-0.0205 0.001 1e-05
-0.02052 0.000999985 1e-05
-0.02054 0.000999974 1e-05
-0.02056 0.000999965 1e-05
-0.02058 0.000999959 1e-05
-0.0206 0.000999956 1e-05
-0.0205 0.00367778 1e-05
-0.02052 0.00367778 1e-05
-0.02054 0.00367777 1e-05
-0.02056 0.00367777 1e-05
-0.02058 0.00367777 1e-05
-0.0206 0.00367777 1e-05
-0.0205 0.00635556 1e-05
-0.02052 0.00635555 1e-05
-0.02054 0.00635555 1e-05
-0.02056 0.00635555 1e-05
-0.02058 0.00635555 1e-05
-0.0206 0.00635555 1e-05
-0.0205 0.00903333 1e-05
-0.02052 0.00903333 1e-05
-0.02054 0.00903333 1e-05
-0.02056 0.00903333 1e-05
-0.02058 0.00903333 1e-05
-0.0206 0.00903333 1e-05
-0.0205 0.0117111 1e-05
-0.02052 0.0117111 1e-05
-0.02054 0.0117111 1e-05
-0.02056 0.0117111 1e-05
-0.02058 0.0117111 1e-05
-0.0206 0.0117111 1e-05
-0.0205 0.0143889 1e-05
-0.02052 0.0143889 1e-05
-0.02054 0.0143889 1e-05
-0.02056 0.0143889 1e-05
-0.02058 0.0143889 1e-05
-0.0206 0.0143889 1e-05
-0.0205 0.0170667 1e-05
-0.02052 0.0170667 1e-05
-0.02054 0.0170667 1e-05
-0.02056 0.0170667 1e-05
-0.02058 0.0170667 1e-05
-0.0206 0.0170667 1e-05
-0.0205 0.0197444 1e-05
-0.02052 0.0197444 1e-05
-0.02054 0.0197444 1e-05
-0.02056 0.0197444 1e-05
-0.02058 0.0197444 1e-05
-0.0206 0.0197444 1e-05
-0.0205 0.0224222 1e-05
-0.02052 0.0224222 1e-05
-0.02054 0.0224222 1e-05
-0.02056 0.0224222 1e-05
-0.02058 0.0224222 1e-05
-0.0206 0.0224222 1e-05
-0.0205 0.0251 1e-05
-0.02052 0.0250998 1e-05
-0.02054 0.0250997 1e-05
-0.02056 0.0250995 1e-05
-0.02058 0.0250995 1e-05
-0.0206 0.0250994 1e-05
-0.0205 0.001 1e-05
-0.0202034 0.00100022 1e-05
-0.0199069 0.00100067 1e-05
-0.0196103 0.00100133 1e-05
-0.0193137 0.00100219 1e-05
-0.0190172 0.00100326 1e-05
-0.0187132 0.00100467 1e-05
-0.0184093 0.00100589 1e-05
-0.0181054 0.00100711 1e-05
-0.0178015 0.00100832 1e-05
-0.0174976 0.00100954 1e-05
-0.0172058 0.00101083 1e-05
-0.016914 0.00101193 1e-05
-0.0166222 0.00101303 1e-05
-0.0163305 0.00101413 1e-05
-0.0160387 0.00101523 1e-05
-0.0157586 0.00101636 1e-05
-0.0154784 0.00101744 1e-05
-0.0151983 0.00101856 1e-05
-0.0149182 0.00101971 1e-05
-0.0146381 0.0010209 1e-05
-0.0143744 0.00102209 1e-05
-0.0141108 0.00102327 1e-05
-0.0138471 0.00102449 1e-05
-0.0135835 0.00102574 1e-05
-0.0133608 0.00102682 1e-05
-0.0133473 0.00102688 1e-05
-0.0133339 0.00102695 1e-05
-0.0133204 0.00102702 1e-05
-0.0133069 0.00102708 1e-05
-0.0132934 0.00102715 1e-05
-0.0130353 0.00102844 1e-05
-0.0127771 0.00102974 1e-05
-0.0125189 0.00103106 1e-05
-0.0122607 0.00103239 1e-05
-0.0120025 0.00103374 1e-05
-0.0117547 0.00103505 1e-05
-0.0115068 0.00103637 1e-05
-0.0112589 0.00103769 1e-05
-0.0110111 0.00103901 1e-05
-0.0107632 0.00104034 1e-05
-0.0105252 0.00104161 1e-05
-0.0102873 0.00104289 1e-05
-0.0100493 0.00104417 1e-05
-0.00981133 0.00104545 1e-05
-0.00957337 0.00104672 1e-05
-0.00934491 0.00104794 1e-05
-0.00911645 0.00104917 1e-05
-0.00888799 0.00105038 1e-05
-0.00865954 0.0010516 1e-05
-0.00843108 0.00105281 1e-05
-0.00821175 0.00105397 1e-05
-0.00799242 0.00105512 1e-05
-0.00777309 0.00105628 1e-05
-0.00755376 0.00105742 1e-05
-0.00733443 0.00105857 1e-05
-0.00712387 0.00105966 1e-05
-0.0069133 0.00106075 1e-05
-0.00670273 0.00106183 1e-05
-0.00649216 0.00106291 1e-05
-0.0062816 0.00106399 1e-05
-0.00607944 0.00106501 1e-05
-0.00587729 0.00106604 1e-05
-0.00567514 0.00106706 1e-05
-0.00547298 0.00106807 1e-05
-0.00527083 0.00106908 1e-05
-0.00507675 0.00107004 1e-05
-0.00488267 0.00107101 1e-05
-0.0046886 0.00107197 1e-05
-0.00449452 0.00107292 1e-05
-0.00430044 0.00107387 1e-05
-0.00411412 0.00107477 1e-05
-0.0039278 0.00107568 1e-05
-0.00374147 0.00107658 1e-05
-0.00355515 0.00107748 1e-05
-0.00336883 0.00107837 1e-05
-0.00318995 0.00107922 1e-05
-0.00301107 0.00108007 1e-05
-0.00283219 0.00108092 1e-05
-0.00265331 0.00108177 1e-05
-0.00247443 0.00108261 1e-05
-0.0023027 0.00108341 1e-05
-0.00213097 0.00108422 1e-05
-0.00195924 0.00108502 1e-05
-0.0017875 0.00108582 1e-05
-0.00161577 0.00108662 1e-05
-0.0014509 0.00108737 1e-05
-0.00128603 0.00108813 1e-05
-0.00112116 0.00108889 1e-05
-0.000956289 0.00108965 1e-05
-0.000791418 0.00109041 1e-05
-0.000633135 0.00109114 1e-05
-0.000474851 0.00109187 1e-05
-0.000316567 0.00109259 1e-05
-0.000158284 0.00109332 1e-05
0 0.00109404 1e-05
0.000105677 0.00109451 1e-05
0.000211355 0.00109499 1e-05
0.000317032 0.00109546 1e-05
0.00042271 0.00109593 1e-05
0.000528387 0.0010964 1e-05
0.000634886 0.00109686 1e-05
0.000741385 0.00109733 1e-05
0.000847885 0.00109779 1e-05
0.000954384 0.00109824 1e-05
0.00106088 0.0010987 1e-05
0.00116821 0.00109915 1e-05
0.00127554 0.00109959 1e-05
0.00138286 0.00110004 1e-05
0.00149019 0.00110047 1e-05
0.00159752 0.0011009 1e-05
0.00170568 0.00110133 1e-05
0.00181384 0.00110175 1e-05
0.001922 0.00110216 1e-05
0.00203016 0.00110257 1e-05
0.00213833 0.00110296 1e-05
0.00224733 0.00110335 1e-05
0.00235633 0.00110374 1e-05
0.00246533 0.00110411 1e-05
0.00257434 0.00110448 1e-05
0.00268334 0.00110484 1e-05
0.00279319 0.00110518 1e-05
0.00290304 0.00110553 1e-05
0.00301289 0.00110587 1e-05
0.00312274 0.0011062 1e-05
0.00323259 0.00110652 1e-05
0.00334329 0.00110683 1e-05
0.003454 0.00110714 1e-05
0.0035647 0.00110744 1e-05
0.0036754 0.00110773 1e-05
0.00378611 0.00110802 1e-05
0.00389767 0.0011083 1e-05
0.00400924 0.00110857 1e-05
0.0041208 0.00110884 1e-05
0.00423237 0.00110909 1e-05
0.00434393 0.00110934 1e-05
0.00445636 0.00110958 1e-05
0.00456879 0.00110982 1e-05
0.00468123 0.00111005 1e-05
0.00479366 0.00111027 1e-05
0.00490609 0.00111049 1e-05
0.0050194 0.00111069 1e-05
0.0051327 0.00111089 1e-05
0.00524601 0.00111108 1e-05
0.00535932 0.00111127 1e-05
0.00547262 0.00111144 1e-05
0.00558681 0.00111161 1e-05
0.005701 0.00111177 1e-05
0.00581518 0.00111193 1e-05
0.00592937 0.00111208 1e-05
0.00604356 0.00111222 1e-05
0.00615863 0.00111235 1e-05
0.00627371 0.00111248 1e-05
0.00638878 0.0011126 1e-05
0.00650386 0.00111271 1e-05
0.00661893 0.00111281 1e-05
0.0067349 0.00111291 1e-05
0.00685087 0.001113 1e-05
0.00696684 0.00111308 1e-05
0.00708281 0.00111315 1e-05
0.00719878 0.00111322 1e-05
0.00727072 0.00111326 1e-05
0.00734267 0.00111329 1e-05
0.00741462 0.00111332 1e-05
0.00748656 0.00111335 1e-05
0.00755611 0.00111338 1e-05
0.00760151 0.00111339 1e-05
0.00764692 0.0011134 1e-05
0.00769232 0.00111342 1e-05
0.00773773 0.00111343 1e-05
0.00778313 0.00111344 1e-05
0.00790091 0.00111346 1e-05
0.00801869 0.00111347 1e-05
0.00813647 0.00111348 1e-05
0.00825425 0.00111348 1e-05
0.00837203 0.00111347 1e-05
0.00849073 0.00111345 1e-05
0.00860942 0.00111342 1e-05
0.00872812 0.00111339 1e-05
0.00884682 0.00111335 1e-05
0.00896551 0.0011133 1e-05
0.00908513 0.00111324 1e-05
0.00920475 0.00111318 1e-05
0.00932437 0.0011131 1e-05
0.00944398 0.00111302 1e-05
0.0095636 0.00111294 1e-05
0.00968415 0.00111283 1e-05
0.0098047 0.00111272 1e-05
0.00992525 0.00111261 1e-05
0.0100458 0.00111249 1e-05
0.0101663 0.00111236 1e-05
0.0102878 0.00111221 1e-05
0.0104093 0.00111206 1e-05
0.0105308 0.00111191 1e-05
0.0106523 0.00111174 1e-05
0.0107738 0.00111157 1e-05
0.0108962 0.00111138 1e-05
0.0110186 0.00111119 1e-05
0.0111411 0.00111099 1e-05
0.0112635 0.00111078 1e-05
0.0113859 0.00111057 1e-05
0.0115093 0.00111033 1e-05
0.0116327 0.00111009 1e-05
0.0117561 0.00110985 1e-05
0.0118795 0.0011096 1e-05
0.0120028 0.00110934 1e-05
0.0121272 0.00110906 1e-05
0.0122515 0.00110878 1e-05
0.0123759 0.00110849 1e-05
0.0125002 0.00110819 1e-05
0.0126245 0.00110789 1e-05
0.0127498 0.00110756 1e-05
0.0128752 0.00110723 1e-05
0.0130005 0.0011069 1e-05
0.0131258 0.00110655 1e-05
0.0132511 0.0011062 1e-05
0.0133774 0.00110583 1e-05
0.0135036 0.00110545 1e-05
0.0136299 0.00110507 1e-05
0.0137562 0.00110468 1e-05
0.0138825 0.00110428 1e-05
0.0140098 0.00110386 1e-05
0.014137 0.00110344 1e-05
0.0142643 0.00110301 1e-05
0.0143915 0.00110257 1e-05
0.0145188 0.00110213 1e-05
0.0146471 0.00110166 1e-05
0.0147753 0.00110119 1e-05
0.0149036 0.00110071 1e-05
0.0150318 0.00110022 1e-05
0.0151601 0.00109972 1e-05
0.0152893 0.0010992 1e-05
0.0154186 0.00109868 1e-05
0.0155478 0.00109815 1e-05
0.0156771 0.00109762 1e-05
0.0158063 0.00109707 1e-05
0.0159366 0.00109651 1e-05
0.0160668 0.00109594 1e-05
0.0161971 0.00109536 1e-05
0.0163274 0.00109477 1e-05
0.0164576 0.00109417 1e-05
0.0165889 0.00109356 1e-05
0.0167201 0.00109294 1e-05
0.0168514 0.00109231 1e-05
0.0169827 0.00109167 1e-05
0.0171139 0.00109102 1e-05
0.0172462 0.00109036 1e-05
0.0173785 0.00108969 1e-05
0.0175108 0.00108901 1e-05
0.0176431 0.00108832 1e-05
0.0177754 0.00108762 1e-05
0.0179087 0.00108692 1e-05
0.018042 0.00108619 1e-05
0.0181753 0.00108546 1e-05
0.0183087 0.00108472 1e-05
0.018442 0.00108397 1e-05
0.0185763 0.00108322 1e-05
0.0187107 0.00108245 1e-05
0.018845 0.00108166 1e-05
0.0189794 0.00108086 1e-05
0.0191137 0.00108007 1e-05
0.0192491 0.00107927 1e-05
0.0193845 0.00107845 1e-05
0.0195199 0.00107761 1e-05
0.0196553 0.00107676 1e-05
0.0197907 0.00107591 1e-05
0.0199272 0.00107506 1e-05
0.0200636 0.00107419 1e-05
0.0202001 0.0010733 1e-05
0.0203365 0.0010724 1e-05
0.020473 0.0010715 1e-05
0.0206105 0.00107061 1e-05
0.020748 0.00106969 1e-05
0.0208855 0.00106874 1e-05
0.021023 0.00106779 1e-05
0.0211606 0.00106684 1e-05
0.0212991 0.0010659 1e-05
0.0214377 0.00106493 1e-05
0.0215763 0.00106393 1e-05
0.0217149 0.00106293 1e-05
0.0218535 0.00106193 1e-05
0.0219931 0.00106094 1e-05
0.0221328 0.00105992 1e-05
0.0222724 0.00105887 1e-05
0.0224121 0.00105782 1e-05
0.0225517 0.00105677 1e-05
0.0226925 0.00105573 1e-05
0.0228332 0.00105466 1e-05
0.022974 0.00105356 1e-05
0.0231147 0.00105245 1e-05
0.0232555 0.00105136 1e-05
0.0233973 0.00105026 1e-05
0.0235391 0.00104914 1e-05
0.023681 0.00104799 1e-05
0.0238228 0.00104683 1e-05
0.0239647 0.00104568 1e-05
0.0241076 0.00104454 1e-05
0.0242505 0.00104336 1e-05
0.0243935 0.00104216 1e-05
0.0245364 0.00104095 1e-05
0.0246794 0.00103975 1e-05
0.0248234 0.00103855 1e-05
0.0249675 0.00103733 1e-05
0.0251115 0.00103607 1e-05
0.0252556 0.00103481 1e-05
[...]
POINT_DATA 12040
 FIELD attributes 3
age 1 12040 float
0 -2e-05 -4e-05 -6e-05 -8e-05 -0.0001
0 -2e-05 -4e-05 -6e-05 -8e-05 -0.0001
0 -2e-05 -4e-05 -6e-05 -8e-05 -0.0001
0 -2e-05 -4e-05 -6e-05 -8e-05 -0.0001
0 -2e-05 -4e-05 -6e-05 -8e-05 -0.0001
0 -2e-05 -4e-05 -6e-05 -8e-05 -0.0001
0 -2e-05 -4e-05 -6e-05 -8e-05 -0.0001
0 -2e-05 -4e-05 -6e-05 -8e-05 -0.0001
0 -2e-05 -4e-05 -6e-05 -8e-05 -0.0001
0 -2.00009e-05 -4.00018e-05 -6.00027e-05 -8.00036e-05 -0.000100002
0 0.000296567 0.000593135 0.000889702 0.00118627 0.00148284 0.00178676 0.00209069 0.00239461 0.00269853 0.00300245 0.00329423 0.00358601 0.00387779 0.00416957 0.00446135 0.00474147 0.00502159 0.00530171 0.00558183 0.00586196 0.00612561 0.00638927 0.00665293 0.00691658 0.00713925 0.00715272 0.00716619 0.00717967 0.00719314 0.00720661 0.0074648 0.00772298 0.00798117 0.00823935 0.00849754 0.00874541 0.00899328 0.00924116 0.00948903 0.0097369 0.00997487 0.0102128 0.0104508 0.0106888 0.0109267 0.0111552 0.0113837 0.0116121 0.0118406 0.012069 0.0122884 0.0125077 0.012727 0.0129464 0.0131657 0.0133763 0.0135868 0.0137974 0.014008 0.0142186 0.0144207 0.0146229 0.014825 0.0150272 0.0152293 0.0154234 0.0156175 0.0158116 0.0160057 0.0161997 0.0163861 0.0165724 0.0167587 0.016945 0.0171314 0.0173102 0.0174891 0.017668 0.0178469 0.0180258 0.0181975 0.0183692 0.018541 0.0187127 0.0188844 0.0190493 0.0192142 0.0193791 0.0195439 0.0197088 0.0198671 0.0200254 0.0201837 0.0203419 0.0205002 0.0206059 0.0207116 0.0208173 0.0209229 0.0210286 0.0211351 0.0212416 0.0213481 0.0214546 0.0215611 0.0216684 0.0217758 0.0218831 0.0219904 0.0220978 0.0222059 0.0223141 0.0224222 0.0225304 0.0226386 0.0227476 0.0228566 0.0229656 0.0230746 0.0231836 0.0232934 0.0234033 0.0235131 0.023623 0.0237328 0.0238435 0.0239542 0.0240649 0.0241757 0.0242864 0.0243979 0.0245095 0.0246211 0.0247326 0.0248442 0.0249566 0.025069 0.0251815 0.0252939 0.0254063 0.0255196 0.025633 0.0257463 0.0258596 0.0259729 0.0260871 0.0262012 0.0263154 0.0264296 0.0265438 0.0266589 0.026774 0.026889 0.0270041 0.0271192 0.0272352 0.0273511 0.0274671 0.0275831 0.027699 0.027771 0.0278429 0.0279149 0.0279868 0.0280564 0.0281018 0.0281472 0.0281926 0.028238 0.0282834 0.0284012 0.0285189 0.0286367 0.0287545 0.0288723 0.028991 0.0291097 0.0292284 0.0293471 0.0294658 0.0295854 0.029705 0.0298246 0.0299442 0.0300639 0.0301844 0.030305 0.0304255 0.0305461 0.0306666 0.0307881 0.0309096 0.0310311 0.0311525 0.031274 0.0313965 0.0315189 0.0316413 0.0317637 0.0318862 0.0320096 0.0321329 0.0322563 0.0323797 0.0325031 0.0326274 0.0327518 0.0328761 0.0330005 0.0331248 0.0332501 0.0333754 0.0335007 0.033626 0.0337513 0.0338776 0.0340039 0.0341302 0.0342565 0.0343828 0.03451 0.0346373 0.0347645 0.0348918 0.0350191 0.0351473 0.0352756 0.0354038 0.0355321 0.0356603 0.0357896 0.0359189 0.0360481 0.0361774 0.0363066 0.0364369 0.0365671 0.0366974 0.0368276 0.0369579 0.0370892 0.0372204 0.0373517 0.037483 0.0376142 0.0377465 0.0378788 0.0380111 0.0381434 0.0382757 0.038409 0.0385423 0.0386756 0.038809 0.0389423 0.0390766 0.039211 0.0393454 0.0394797 0.0396141 0.0397495 0.0398849 0.0400203 0.0401557 0.0402911 0.0404275 0.040564 0.0407004 0.0408369 0.0409733 0.0411109 0.0412484 0.0413859 0.0415234 0.0416609 0.0417995 0.0419381 0.0420767 0.0422153 0.0423538 0.0424935 0.0426332 0.0427728 0.0429125 0.0430521 0.0431929 0.0433336 0.0434744 0.0436151 0.0437559 0.0438977 0.0440396 0.0441814 0.0443233 0.0444651 0.0446081 0.044751 0.0448939 0.0450369 0.0451798 0.0453239 0.045468 0.045612 0.0457561 0.0459001 0.0460453 0.0461905 0.0463357 0.0464808 0.046626 0.0467723 0.0469186 0.0470649 0.0472112 0.0473576 0.047505 0.0476524 0.0477999 0.0479473 0.0480948 0.0482434 0.048392 0.0485406 0.0486891 0.0488377 0.0489875 0.0491372 0.049287 0.0494367 0.0495865 0.0497374 0.0498883 0.0500392 0.0501901 0.050341 0.0504931 0.0506452 0.0507973 0.0509494 0.0511015 0.0512547 0.051408 0.0515613 0.0517145 0.0518678 0.0520223 0.0521767 0.0523312 0.0524857 0.0526401 0.0527958 0.0529515 0.0531071 0.0532628 0.0534184 0.0535753 0.0537322 0.0538891 0.0540459 0.0542028 0.0543609 0.054519 0.0546771 0.0548352 0.0549933 0.0550821 0.0551709 0.0552597 0.0553485 0.0554353 0.0555062 0.0555772 0.0556481 0.055719 0.0557899 0.0559505 0.056111 0.0562716 0.0564322 0.0565927 0.0567545 0.0569163 0.0570782 0.05724 0.0574018 0.0575649 0.0577279 0.057891 0.0580541 0.0582171 0.0583815 0.0585458 0.0587102 0.0588745 0.0590388 0.0592045 0.0593701 0.0595357 0.0597013 0.0598669 0.0600339 0.0602008 0.0603677 0.0605346 0.0607015 0.0608697 0.0610379 0.0612061 0.0613743 0.0615425 0.061712 0.0618816 0.0620511 0.0622206 0.0623901 0.0625609 0.0627318 0.0629026 0.0630734 0.0632443 0.0634164 0.0635886 0.0637608 0.0639329 0.0641051 0.0642786 0.0644521 0.0646256 0.0647991 0.0649726 0.0651475 0.0653224 0.0654972 0.0656721 0.0658469 0.0660231 0.0661994 0.0663756 0.0665518 0.066728 0.0669056 0.0670832 0.0672608 0.0674384 0.067616 0.067795 0.0679739 0.0681529 0.0683319 0.0685109 0.0686912 0.0688716 0.069052 0.0692323 0.0694127 0.0695945 0.0697762 0.069958 0.0701398 0.0703216 0.0705048 0.0706879 0.0708711 0.0710543 0.0712375 0.0714221 0.0716068 0.0717914 0.071976 0.0721606 0.0723467 0.0725327 0.0727188 0.0729048 0.0730909 0.0732784 0.0734659 0.0736534 0.0738409 0.0740284 0.0742174 0.0744064 0.0745954 0.0747843 0.0749733 0.0751468 0.0753203 0.0754938 0.0756672 0.0758305 0.0758495 0.0758685 0.0758875 0.0759065 0.0759255 0.0761175 0.0763094 0.0765013 0.0766932 0.0768852 0.0770786 0.077272 0.0774655 0.0776589 0.0778523 0.0780473 0.0782422 0.0784371 0.0786321 0.078827 0.0790235 0.0792199 0.0794164 0.0796129 0.0798093 0.0800073 0.0802053 0.0804033 0.0806013 0.0807993 0.0809989 0.0811984 0.0813979 0.0815975 0.081797 0.0819981 0.0821992 0.0824003 0.0826014 0.0828026 0.0830052 0.0832079 0.0834106 0.0836132 0.0838159 0.0840202 0.0842245 0.0844287 0.084633 0.0848372 0.0850431 0.085249 0.0854548 0.0856607 0.0858666 0.086074 0.0862815 0.086489 0.0866964 0.0869039 0.087113 0.0873221 0.0875312 0.0877403 0.0879494 0.0881601 0.0883709 0.0885816 0.0887923 0.0890031 0.0892155 0.0894279 0.0896403 0.0898526 0.0900651 0.0901479 0.0902307 0.0903135 0.0903964 0.0904769 0.0906086 0.0907403 0.090872 0.0910037 0.0911353 0.0913511 0.0915668 0.0917825 0.0919983 0.092214 0.0924315 0.0926489 0.0928663 0.0930837 0.0933012 0.0935203 0.0937395 0.0939586 0.0941777 0.0943969 0.0946178 0.0948386 0.0950595 0.0952803 0.0955012 0.0957238 0.0959464 0.096169 0.0963916 0.0966142 0.0968386 0.0970629 0.0972873 0.0975116 0.097736 0.0979622 0.0981883 0.0984144 0.0986405 0.0988667 0.0990946 0.0993225 0.0995504 0.0997783 0.100006 0.100236 0.100466 0.100695 0.100925 0.101155 0.101164 0.101174 0.101183 0.101193 0.101202 0.101424 0.101646 0.101868 0.10209 0.102312 0.102546 0.102779 0.103012 0.103246 0.103479 0.103714 0.10395 0.104185 0.10442 0.104655 0.104892 0.105129 0.105366 0.105603 0.105841 0.106079 0.106318 0.106557 0.106796 0.107035 0.107276 0.107517 0.107758 0.107999 0.108239 0.108482 0.108725 0.108968 0.10921 0.109453 0.109654 0.109855 0.110056 0.110257 0.110448 0.110493 0.110539 0.110585 0.110631 0.110677 0.110923 0.11117 0.111416 0.111663 0.11191 0.112158 0.112407 0.112656 0.112904 0.113153 0.113403 0.113654 0.113904 0.114155 0.114406 0.114658 0.114911 0.115163 0.115416 0.115669 0.115923 0.116178 0.116432 0.116687 0.116942 0.117198 0.117455 0.117712 0.117968 0.118225 0.118326 0.118428 0.118529 0.118631 0.11873 0.118888 0.119045 0.119203 0.119361 0.119518 0.119779 0.12004 0.120301 0.120561 0.120822 0.121085 0.121348 0.121611 0.121874 0.122137 0.122402 0.122666 0.122931 0.123196 0.123462 0.123729 0.123996 0.124263 0.12453 0.124797 0.125066 0.125336 0.125605 0.125874 0.126143 0.126182 0.126221 0.12626 0.126299 0.126338 0.126571 0.126803 0.127036 0.127268 0.127501 0.127774 0.128048 0.128322 0.128595 0.128869 0.129145 0.129421 0.129696 0.129972 0.130248 0.130526 0.130804 0.131082 0.131361 0.131639 0.131919 0.132199 0.13248 0.13276 0.133041 0.133122 0.133203 0.133284 0.133365 0.133445 0.133647 0.133849 0.13405 0.134252 0.134454 0.134739 0.135024 0.135308 0.135593 0.135878 0.136166 0.136453 0.13674 0.137027 0.137315 0.137604 0.137894 0.138184 0.138473 0.138763 0.139046 0.13933 0.139614 0.139897 0.140167 0.140178 0.140189 0.140201 0.140212 0.140223 0.140517 0.140811 0.141106 0.1414 0.141695 0.141991 0.142288 0.142585 0.142882 0.143179 0.143478 0.143777 0.144076 0.144375 0.144675 0.144976 0.145278 0.14558 0.145881 0.146183 0.146264 0.146344 0.146425 0.146505 0.146585 0.146808 0.147032 0.147256 0.14748 0.147704 0.148011 0.148317 0.148624 0.148931 0.149237 0.149547 0.149856 0.150165 0.150474 0.150783 0.151095 0.151407 0.151719 0.15203 0.152342 0.152426 0.15251 0.152593 0.152677 0.15276 0.152991 0.153221 0.153452 0.153683 0.153914 0.154231 0.154548 0.154864 0.155181 0.155499 0.155818 0.156137 0.156457 0.156776 0.157096 0.157418 0.15774 0.158063 0.158385 0.158707 0.158715 0.158723 0.158731 0.158739 0.158748 0.159064 0.159381 0.159698 0.160014 0.160331 0.160659 0.160986 0.161314 0.161641 0.161969 0.162299 0.162629 0.162959 0.163289 0.16362 0.163816 0.164012 0.164209 0.164405 0.164597 0.164735 0.164872 0.16501 0.165147 0.165284 0.16562 0.165955 0.166291 0.166627 0.166962 0.167301 0.167639 0.167977 0.168316 0.168654 0.168995 0.169336 0.169677 0.170018 0.17036 0.17036 0.17036 0.17036 0.17036 0.170361 0.170704 0.171048 0.171392 0.171735 0.172079 0.172426 0.172772 0.173119 0.173465 0.173812 0.174161 0.174511 0.17486 0.175209 0.175559 0.175666 0.175773 0.17588 0.175987 0.176093 0.176339 0.176584 0.176829 0.177074 0.17732 0.177675 0.178029 0.178384 0.178739 0.179094 0.179452 0.17981 0.180167 0.180525 0.180883 0.181026 0.181169 0.181312 0.181455 0.181598 0.181816 0.182033 0.18225 0.182467 0.182685 0.183048 0.183411 0.183774 0.184137 0.184501 0.184866 0.185232 0.185598 0.185964 0.18633 0.186483 0.186636 0.186789 0.186942 0.187096 0.187312 0.187527 0.187743 0.187958 0.188173 0.188545 0.188916 0.189288 0.189659 0.19003 0.190404 0.190778 0.191153 0.191527 0.1919 0.192061 0.192222 0.192383 0.192543 0.192706 0.192922 0.193138 0.193353 0.193569 0.193784 0.194164 0.194543 0.194923 0.195303 0.195682 0.196064 0.196446 0.196829 0.197211 0.197593 0.197787 0.197982 0.198177 0.198371 0.198571 0.19876 0.198949 0.199139 0.199328 0.199517 0.199905 0.200292 0.20068 0.201068 0.201455 0.201845 0.202235 0.202626 0.203016 0.203406 0.203698 0.20399 0.204282 0.204574 0.20488 0.204978 0.205076 0.205174 0.205273 0.205371 0.205767 0.206163 0.206558 0.206954 0.20735 0.207748 0.208147 0.208545 0.208944 0.209342 0.209743 0.210145 0.210546 0.210947 0.211348 0.211462 0.211576 0.21169 0.211804 0.211921 0.21221 0.2125 0.212789 0.213079 0.213368 0.213775 0.214182 0.214589 0.214996 0.215402 0.215812 0.216222 0.216631 0.217041 0.21745 0.217863 0.218276 0.218688 0.219101 0.219513 0.219664 0.219815 0.219967 0.220118 0.220278 0.22054 0.220803 0.221065 0.221327 0.22159 0.222008 0.222426 0.222845 0.223263 0.223681 0.224102 0.224523 0.224944 0.225366 0.225786 0.22621 0.226634 0.227058 0.227483 0.227906 0.228316 0.228727 0.229137 0.229547 0.229957 0.229979 0.230002 0.230024 0.230046 0.230069 0.230472 0.230876 0.231279 0.231683 0.232086 0.232528 0.232971 0.233413 0.233855 0.234297 0.234756 0.235216 0.235675 0.236134 0.236593 0.236848 0.237103 0.237358 0.237613 0.237896 0.238112 0.238329 0.238545 0.238761 0.238978 0.239473 0.239969 0.240464 0.24096 0.241455 0.24197 0.242484 0.242999 0.243514 0.244028 0.244563 0.245098 0.245633 0.246167 0.246702 0.247068 0.247434 0.2478 0.248166 0.24859 0.248768 0.248946 0.249124 0.249302 0.24948 0.250058 0.250635 0.251212 0.251789 0.252367 0.252967 0.253567 0.254166 0.254766 0.255366 0.25599 0.256613 0.257236 0.25786 0.258483 0.259131 0.259779 0.260427 0.261074 0.261723 0.262367 0.263011 0.263656 0.2643 0.265089 0.265096 0.265103 0.26511 0.265117 0.265125 0.265817 0.266509 0.267202 0.267894 0.268587 0.269314 0.27004 0.270767 0.271494 0.272222 0.272977 0.273733 0.274488 0.275243 0.275999 0.276784 0.277569 0.278354 0.279139 0.279925 0.28074 0.281556 0.282372 0.283188 0.284004 0.284852 0.285699 0.286547 0.287395 0.288243 0.289124 0.290005 0.290885 0.291766 0.292648 0.293563 0.294478 0.295394 0.296309 0.297224 0.29753 0.297836 0.298142 0.298447 0.298794 0.299431 0.300069 0.300706 0.301343 0.30198 0.302969 0.303957 0.304945 0.305933 0.306922 0.307948 0.308975 0.310001 0.311027 0.312053