/*--------------------------------*- C++ -*----------------------------------*\
  =========                 |
  \\      /  F ield         | OpenFOAM: The Open Source CFD Toolbox
   \\    /   O peration     | Website:  https://openfoam.org
    \\  /    A nd           | Version:  9
     \\/     M anipulation  |
\*---------------------------------------------------------------------------*/
FoamFile
{
    format      ascii;
    class       volScalarField;
    location    "8.8";
    object      alpha.water;
}
// * * * * * * * * * * * * * * * * * * * * * * * * * * * * * * * * * * * * * //

dimensions      [0 0 0 0 0 0 0];

internalField   nonuniform List<scalar> 
2268
(
1
0.999999
0.999999
0.999998
0.999999
0.999999
0.999999
0.999998
0.999997
0.999998
0.999999
0.999999
0.999999
0.999999
0.999999
0.999999
1
1
0.999043
0.998052
0.999049
0.999995
0.999894
0.999998
0.999998
0.999997
0.999997
0.999999
0.999999
0.999997
0.999997
0.999997
0.999998
0.999999
0.999999
0.999999
0.999999
0.999999
0.999998
0.999998
1
0.998597
0.998052
0.999611
0.999995
0.999992
0.999997
0.999996
0.999997
0.999998
0.999999
0.999999
0.999999
0.999999
0.999999
0.999999
0.999999
0.999999
1
1
0.999998
0.999986
0.999999
1
0.998873
0.998052
0.999812
0.999995
0.999995
0.999998
0.999998
0.999999
0.999999
0.999999
1
0.999999
0.999999
0.999999
0.999999
1
1
1
1
1
0.999924
0.9999
0.999961
0.999674
0.998066
0.99986
0.999995
0.999896
1
1
0.999999
1
0.999999
1
0.999999
0.999999
1
1
1
1
1
1
1
0.999801
0.999339
0.999901
0.999984
0.999766
0.9999
0.99864
0.999795
1
1
1
1
1
1
1
1
1
1
1
1
1
1
1
0.9997
0.997807
0.999984
0.999984
0.999984
0.999984
0.996616
0.99979
1
1
1
1
1
1
1
1
1
1
1
1
1
1
1
1
0.995713
0.989142
0.997792
0.999984
0.992687
0.99383
0.999817
1
1
1
1
1
1
1
1
0.999999
0.999999
0.999999
0.999999
1
0.999999
0.999999
1
0.9954
0.986572
0.987677
0.992782
0.98863
0.996385
0.999874
0.999781
0.999773
0.999464
0.999443
0.999661
0.999395
0.995861
0.995331
0.995401
0.994569
0.992254
0.992254
0.994707
0.998686
0.998686
0.998686
0.998686
0.998686
0.998685
0.999781
0.999726
0.999998
0.999984
0.999995
0.999995
0.999995
0.999958
0.999958
0.999947
0.99708
0.992254
0.992254
0.99865
0.998686
0.998686
0.998528
0.996996
0.996978
0.994385
0.997945
0.999998
0.999996
0.999995
0.999991
0.999964
0.999962
0.999918
0.999954
0.999782
0.993461
0.99226
0.996204
0.998686
0.998686
0.996847
0.995383
0.995385
0.992305
0.99678
0.999998
0.999998
0.999997
0.999953
0.999802
0.999778
0.999517
0.999414
0.999823
0.999165
0.996956
0.997735
0.99811
0.998684
0.997317
0.995765
0.998436
0.992305
0.998259
0.999998
0.999997
0.999994
0.999852
0.99981
0.999837
0.999381
0.999316
0.999357
0.999687
0.999687
0.99942
0.996973
0.997797
0.99786
0.998436
0.998436
0.993794
0.999502
0.999997
0.999993
0.999978
0.999987
0.999975
0.999898
0.999412
0.999686
0.999687
0.999687
0.999687
0.999687
0.996729
0.990142
0.990271
0.998436
0.998436
0.999722
0.999996
0.999998
0.999993
0.999995
0.999997
0.999996
0.999749
0.997521
0.998563
0.999687
0.999687
0.999687
0.999258
0.993299
0.994846
0.990003
0.996863
0.998436
1
1
0.999999
0.999998
0.999998
0.999998
0.999998
0.999816
0.992117
0.988395
0.995051
0.999687
0.999429
0.992636
0.99017
0.997022
0.990003
0.995462
0.998436
1
1
1
1
1
1
1
1
0.999999
0.999999
0.999999
1
1
1
1
1
1
0.996987
0.990501
0.988873
0.996626
1
1
0.986767
0.987264
0.98759
0.988013
0.988902
0.99003
0.990339
0.989351
0.98786
0.986011
0.983828
0.981657
0.980512
0.979982
0.980497
0.982433
0.985169
0.987767
0.988828
0.987647
0.984706
0.980018
0.975975
0.347837
0.348756
0.349447
0.349355
0.347992
0.346135
0.344453
0.343413
0.342626
0.341974
0.341406
0.340552
0.338995
0.336717
0.333948
0.33121
0.329842
0.331209
0.333221
0.333195
0.331745
0.332115
0.334951
0.000503593
0.000503412
0.000503323
0.000503412
0.000503323
0.000503735
0.000504798
0.00050607
0.000507064
0.000507698
0.000508076
0.000508171
0.000526352
0.00063583
0.000833533
0.00111087
0.00138202
0.000966117
0.000516351
0.000532518
0.000604463
0.000602985
0.000505106
0.000747651
0.000748945
0.000695564
0.000564634
0.00112393
0.00166719
0.00196689
0.00202982
0.00205636
0.00208354
0.00209173
0.00209246
0.0019083
0.00181638
0.00179062
0.00170206
0.00144032
0.000980809
0.000490024
0.000531965
0.000603286
0.000584673
0.000455199
0.000285293
0.000194552
0.000222584
0.000264112
0.000158383
5.53365e-08
5.53364e-08
5.53365e-08
5.53363e-08
5.53366e-08
5.53374e-08
2.00039e-07
4.95079e-06
1.43167e-05
1.473e-05
1.89472e-05
4.75747e-05
0.000183196
0.000268978
0.000240262
0.000238184
0.000302621
0.000296632
4.06899e-06
3.0879e-07
1.48978e-06
5.98149e-08
5.92933e-08
5.88081e-08
5.53365e-08
5.53363e-08
5.53366e-08
5.53374e-08
5.55387e-08
7.84601e-06
5.41166e-05
5.59261e-05
5.59308e-05
3.15287e-05
2.61718e-06
1.93939e-06
2.10407e-06
1.25818e-06
1.51551e-05
3.45902e-05
7.07565e-05
2.33564e-09
2.35245e-09
9.54644e-09
2.78512e-07
1.01942e-06
1.27329e-06
3.66751e-07
1.67399e-07
6.85215e-07
6.93148e-07
2.89125e-07
8.30228e-06
3.4124e-05
3.66401e-05
1.83224e-05
1.33431e-05
6.07063e-06
1.44371e-06
1.08181e-07
5.5092e-09
5.55677e-09
5.94325e-09
5.83463e-07
2.33517e-09
2.33517e-09
2.33528e-09
9.73956e-08
1.17007e-06
1.79686e-06
1.7547e-06
7.71553e-07
2.23081e-06
2.62121e-06
1.97304e-06
1.0475e-07
1.27803e-09
1.27617e-09
7.81822e-07
7.40172e-06
7.30355e-06
9.27618e-07
5.50124e-09
5.50447e-09
5.5092e-09
5.56949e-09
5.68688e-09
2.33517e-09
2.33517e-09
2.33517e-09
5.20926e-09
6.05462e-07
1.79686e-06
1.66346e-06
5.76575e-07
2.62185e-06
2.62232e-06
1.59923e-06
3.98018e-10
6.60134e-09
3.4212e-08
4.34024e-08
4.66068e-07
1.14016e-06
1.33285e-07
5.5058e-09
7.20075e-09
8.91365e-09
5.70037e-09
3.10975e-08
2.51011e-09
2.33517e-09
2.33517e-09
2.67905e-09
7.92179e-08
7.58668e-07
3.75932e-07
2.00981e-07
2.25972e-06
2.62121e-06
4.02719e-07
3.94509e-10
3.98018e-10
4.61427e-07
1.17207e-06
7.96375e-07
1.03537e-08
1.02403e-08
1.73661e-08
2.23203e-08
1.88258e-08
1.38819e-08
2.45544e-06
5.78183e-09
6.44319e-08
7.733e-08
2.75862e-09
4.97416e-10
5.50331e-10
8.33489e-10
9.17742e-08
2.04221e-06
1.79855e-06
3.91824e-10
3.91827e-10
3.94873e-10
6.85206e-07
5.44217e-06
5.68111e-06
2.42734e-06
1.02458e-08
1.02275e-08
2.13274e-08
2.11859e-08
1.03622e-08
8.95517e-08
9.60981e-09
1.03018e-07
1.03003e-07
1.20363e-08
4.97416e-10
4.97416e-10
8.19958e-08
1.25144e-06
1.68538e-06
2.52813e-07
3.91827e-10
3.9018e-10
3.51805e-10
5.58892e-07
5.20235e-06
5.68111e-06
5.68111e-06
2.32293e-06
5.42904e-09
6.0762e-09
8.08611e-09
5.58642e-09
5.43329e-09
7.63795e-09
1.03014e-07
1.03018e-07
1.36713e-08
4.97416e-10
1.63854e-08
8.67794e-07
1.53194e-06
1.24232e-06
3.86457e-10
5.27234e-10
6.52197e-10
3.42221e-10
2.7911e-09
5.43265e-07
4.65342e-06
5.67511e-06
2.52491e-06
5.42911e-09
5.79113e-09
7.48251e-09
1.03908e-08
8.52787e-09
3.28567e-09
3.28103e-08
7.62496e-08
7.42529e-09
5.07356e-10
4.24235e-08
1.46238e-06
1.53194e-06
6.72893e-07
3.86412e-10
6.49786e-10
7.07737e-10
3.42119e-10
6.55731e-11
1.50756e-08
2.7109e-07
6.52068e-07
4.01064e-07
5.42904e-09
5.9706e-09
1.27982e-08
1.15887e-08
1.11858e-08
5.22394e-10
3.48979e-10
4.69482e-09
1.19893e-09
5.3063e-10
2.67569e-08
7.73837e-07
1.09391e-06
1.15378e-08
3.86349e-10
7.59696e-10
6.96251e-10
2.00258e-10
6.55542e-11
6.43222e-11
7.26983e-11
6.60155e-11
3.82212e-10
5.53433e-09
1.31531e-08
1.40053e-08
1.00089e-08
9.55334e-10
3.48979e-10
3.48979e-10
3.48979e-10
3.88274e-10
1.72111e-09
1.81497e-08
7.81399e-09
3.41551e-08
3.85043e-11
3.86394e-10
6.64056e-10
4.19646e-10
9.14786e-11
5.69336e-11
6.28668e-11
6.03263e-11
5.99767e-11
1.07418e-10
1.20936e-09
3.45475e-09
3.88909e-09
1.80292e-09
7.71574e-10
3.491e-10
2.431e-08
8.97909e-10
3.98932e-10
3.37234e-09
1.06368e-08
6.04543e-11
1.22534e-11
3.84832e-11
2.41061e-10
3.03864e-10
1.18638e-10
2.84272e-11
4.18684e-11
5.8441e-11
6.11155e-11
5.99788e-11
5.50007e-11
5.1177e-11
3.51013e-11
2.25722e-11
8.04189e-11
1.41503e-10
2.35329e-07
2.3655e-07
2.43597e-09
4.77962e-10
3.18749e-09
3.28764e-09
2.98097e-11
1.21282e-11
1.86026e-11
6.03585e-11
4.91656e-11
1.05633e-11
3.72429e-12
1.81532e-11
3.41795e-11
3.93849e-11
3.82644e-11
2.74159e-11
1.4311e-11
7.05238e-12
3.52569e-12
2.03805e-12
1.45662e-12
2.75959e-07
2.34317e-07
1.27185e-09
4.74685e-10
2.00038e-09
2.82577e-10
1.62648e-11
1.19178e-11
4.42494e-12
3.55681e-12
1.50306e-12
1.32967e-13
9.8135e-14
2.29261e-12
7.47124e-12
9.48066e-12
8.47104e-12
4.95217e-12
2.3025e-12
1.22653e-12
6.79866e-13
2.89678e-13
2.2058e-13
2.75959e-07
5.39463e-08
1.4455e-10
3.71826e-10
6.31967e-10
1.43529e-11
1.06704e-11
8.5798e-12
2.6324e-13
9.68981e-16
-2.07033e-13
-5.49781e-13
-4.92068e-13
1.00809e-14
2.68746e-13
4.12139e-13
3.12022e-13
1.33734e-13
5.2644e-14
2.4444e-14
9.52372e-15
6.22738e-16
2.32425e-16
2.75899e-07
5.61329e-11
5.61329e-11
1.78775e-10
9.04276e-11
4.33246e-12
4.93576e-12
2.93682e-12
-2.6477e-13
-6.7435e-13
-8.78973e-13
-9.69729e-13
-8.4709e-13
-5.38619e-13
-2.85465e-13
-1.5975e-13
-1.27778e-13
-1.23134e-13
-1.07736e-13
-8.56599e-14
-6.19439e-14
-4.13548e-14
-2.55137e-14
2.76465e-07
5.8076e-08
7.55859e-11
5.11738e-11
2.76208e-11
4.04411e-12
8.55347e-13
1.98663e-13
-5.52856e-13
-9.33093e-13
-1.05289e-12
-1.03394e-12
-8.81897e-13
-6.53562e-13
-4.48832e-13
-3.12323e-13
-2.30591e-13
-1.73373e-13
-1.26576e-13
-8.87087e-14
-5.94454e-14
-3.79111e-14
-2.28906e-14
2.76482e-07
2.69815e-07
4.23234e-10
2.91854e-11
2.79249e-11
4.1994e-12
1.61978e-13
-1.26215e-32
-5.2437e-13
-8.12825e-13
-8.90189e-13
-8.43883e-13
-7.12135e-13
-5.45489e-13
-3.93697e-13
-2.77922e-13
-1.95778e-13
-1.35201e-13
-9.01e-14
-5.79875e-14
-3.64586e-14
-2.23859e-14
-1.32661e-14
2.76482e-07
2.76482e-07
7.83172e-10
3.24032e-11
3.42834e-11
5.07044e-12
3.99622e-13
1.61731e-13
-1.95231e-13
-4.19427e-13
-5.21193e-13
-5.27608e-13
-4.63968e-13
-3.65981e-13
-2.68378e-13
-1.88121e-13
-1.27942e-13
-8.34007e-14
-5.18432e-14
-3.09019e-14
-1.80201e-14
-1.04561e-14
-6.03454e-15
2.76482e-07
2.37392e-07
1.11076e-10
5.64271e-11
5.38301e-11
7.86346e-12
1.81122e-12
1.44303e-12
8.13404e-13
2.78507e-13
-4.77508e-14
-1.73496e-13
-2.19588e-13
-2.0085e-13
-1.53781e-13
-1.07401e-13
-7.14928e-14
-4.46808e-14
-2.62102e-14
-1.45196e-14
-7.76487e-15
-4.14841e-15
-2.26454e-15
2.50104e-07
3.60911e-08
1.04139e-10
1.26921e-10
9.1049e-11
1.42797e-11
6.02508e-12
5.55361e-12
4.39548e-12
2.80786e-12
1.35224e-12
3.82538e-13
-1.39583e-14
-8.01159e-14
-7.57364e-14
-5.3853e-14
-3.56268e-14
-2.15997e-14
-1.20659e-14
-6.25489e-15
-3.06752e-15
-1.49011e-15
-7.4113e-16
2.99515e-08
7.95499e-11
1.08591e-10
2.03272e-10
1.2839e-10
2.55372e-11
1.47179e-11
1.40196e-11
1.17557e-11
8.27941e-12
4.58174e-12
1.78271e-12
3.7837e-13
-7.93706e-15
-3.12366e-14
-2.41891e-14
-1.61923e-14
-9.62524e-15
-5.1549e-15
-2.51419e-15
-1.13864e-15
-5.08114e-16
-2.33202e-16
7.95325e-11
7.94495e-11
1.68464e-10
2.14644e-10
1.35446e-10
4.05249e-11
2.82873e-11
2.68533e-11
2.26159e-11
1.66198e-11
9.58811e-12
3.84366e-12
8.41652e-13
4.2348e-14
-8.78845e-15
-9.80459e-15
-6.81552e-15
-4.00313e-15
-2.06379e-15
-9.50851e-16
-4.0309e-16
-1.71187e-16
-7.60077e-17
7.94495e-11
7.94491e-11
1.79651e-10
2.05501e-10
1.27008e-10
5.22654e-11
4.32882e-11
4.18277e-11
3.53121e-11
2.63098e-11
1.54862e-11
5.97858e-12
1.08874e-12
5.38245e-14
-3.70407e-16
-3.60726e-15
-2.69156e-15
-1.56985e-15
-7.80109e-16
-3.41221e-16
-1.36808e-16
-5.50358e-17
-2.3535e-17
7.9899e-11
7.14926e-11
1.43008e-10
1.35459e-10
9.07881e-11
5.34067e-11
5.18984e-11
5.24147e-11
4.62414e-11
3.49787e-11
2.05674e-11
7.35052e-12
1.11786e-12
4.75621e-14
3.09588e-17
-1.26083e-15
-1.012e-15
-5.86342e-16
-2.80379e-16
-1.16268e-16
-4.38548e-17
-1.66684e-17
-6.85791e-18
1.20862e-10
5.26936e-11
6.26003e-11
5.13466e-11
5.51822e-11
5.17676e-11
5.25042e-11
5.41926e-11
5.1162e-11
3.97935e-11
2.29516e-11
7.62464e-12
1.02808e-12
2.96263e-14
5.17262e-17
-4.31218e-16
-3.67966e-16
-2.10445e-16
-9.6254e-17
-3.75781e-17
-1.31792e-17
-4.68695e-18
-1.82212e-18
3.35562e-10
5.1295e-11
5.12832e-11
5.12837e-11
5.12801e-11
5.12801e-11
5.17301e-11
5.41931e-11
5.1674e-11
4.06117e-11
2.3102e-11
7.3423e-12
7.77137e-13
1.2835e-14
2.12146e-17
-1.48497e-16
-1.31207e-16
-7.31455e-17
-3.16579e-17
-1.14747e-17
-3.66645e-18
-1.19673e-18
-4.31866e-19
3.98059e-10
4.78143e-09
5.1295e-11
1.80354e-07
5.12837e-11
5.12801e-11
6.02222e-11
5.38721e-11
5.12163e-11
4.02112e-11
2.22269e-11
6.1676e-12
4.5416e-13
4.11427e-15
3.08062e-18
-5.24655e-17
-4.63338e-17
-2.47271e-17
-9.96785e-18
-3.28661e-18
-9.33851e-19
-2.7389e-19
-8.97719e-20
3.97954e-10
4.85001e-08
5.51692e-07
8.24683e-07
4.20013e-07
2.65679e-08
5.00179e-11
4.98152e-11
4.92708e-11
3.81498e-11
1.92515e-11
4.1804e-12
1.95185e-13
9.35514e-16
2.55823e-19
-1.91575e-17
-1.62846e-17
-8.1332e-18
-2.99271e-18
-8.75785e-19
-2.14815e-19
-5.49783e-20
-1.59951e-20
3.97971e-10
8.21066e-08
8.24683e-07
8.24683e-07
8.24683e-07
8.9043e-08
4.48815e-11
4.48518e-11
4.55997e-11
3.34284e-11
1.42593e-11
2.17139e-12
5.71494e-14
1.28986e-16
9.51532e-21
-7.28193e-18
-5.70211e-18
-2.59811e-18
-8.52941e-19
-2.15638e-19
-4.41164e-20
-9.49248e-21
-2.38165e-21
3.97998e-10
2.50645e-08
6.96702e-07
8.24683e-07
6.34857e-07
4.25042e-08
4.69051e-11
4.40553e-11
4.06816e-11
2.61369e-11
8.60852e-12
8.05699e-13
1.00918e-14
8.81324e-18
-3.65698e-19
-2.89725e-18
-1.98588e-18
-8.05093e-19
-2.30383e-19
-4.89529e-20
-8.05118e-21
-1.38793e-21
-2.88557e-22
1.25559e-09
2.31498e-09
8.85333e-08
4.33328e-07
7.76972e-08
3.56712e-09
5.32256e-11
4.50346e-11
3.39715e-11
1.73983e-11
3.9031e-12
1.87754e-13
9.07587e-16
2.77377e-19
-6.11361e-19
-1.17815e-18
-6.86213e-19
-2.42502e-19
-5.91909e-20
-1.02967e-20
-1.31057e-21
-1.70074e-22
-2.76339e-23
1.8768e-09
1.55823e-09
8.27125e-10
6.58782e-10
1.39988e-10
8.98742e-11
7.59151e-11
4.61084e-11
2.52075e-11
9.04576e-12
1.14094e-12
2.23284e-14
3.40648e-17
2.47793e-21
-4.11728e-19
-4.78271e-19
-2.35513e-19
-7.15075e-20
-1.46288e-20
-2.03862e-21
-1.9436e-22
-1.76289e-23
-2.04007e-24
6.35704e-10
1.2284e-09
7.88298e-10
2.90234e-10
1.64197e-10
1.34836e-10
9.07395e-11
4.22508e-11
1.54222e-11
3.16094e-12
1.69219e-13
1.03264e-15
4.40736e-19
-2.42056e-20
-2.27275e-19
-1.93349e-19
-8.07163e-20
-2.08981e-20
-3.54587e-21
-3.90321e-22
-2.72205e-23
-1.59554e-24
-1.13655e-25
-9.10006e-27
5.6877e-10
8.08284e-10
5.98719e-10
3.69622e-10
2.1212e-10
9.21934e-11
3.20008e-11
6.88629e-12
5.89744e-13
9.391e-15
1.43377e-17
1.35287e-21
-5.24403e-20
-1.16796e-19
-7.80639e-20
-2.78375e-20
-6.15328e-21
-8.66138e-22
-7.51097e-23
-3.76564e-24
-1.31649e-25
-4.64831e-27
-1.61317e-27
7.33954e-11
5.34915e-10
5.8396e-10
4.32033e-10
2.20638e-10
7.62565e-11
1.46653e-11
1.2863e-12
3.17487e-14
1.13134e-16
4.202e-20
-3.58822e-21
-4.37147e-20
-5.7512e-20
-3.156e-20
-9.74193e-21
-1.86124e-21
-2.21328e-22
-1.55286e-23
-5.83106e-25
-1.05664e-26
-1.15321e-28
1
1
1
1
0.97717
0.977379
0.978346
0.979501
0.335718
0.335687
0.335674
0.336371
0.000349344
0.000423776
0.000519515
0.000517359
0.000225341
0.000349309
0.000518935
0.00051823
8.77544e-05
0.000117147
0.00034345
0.000468434
8.7721e-05
5.55773e-05
5.99048e-05
2.05584e-05
5.84669e-06
6.93898e-07
7.64789e-08
4.84245e-08
2.18124e-07
4.12081e-06
7.06453e-06
6.65909e-06
1.26479e-05
2.10831e-05
2.10832e-05
2.10831e-05
2.10831e-05
2.10832e-05
2.10832e-05
2.10832e-05
5.06853e-07
1.08363e-05
2.10833e-05
2.10832e-05
5.43141e-09
1.37985e-08
4.48931e-09
1.23671e-07
1.462e-08
9.81878e-09
3.03075e-09
2.24686e-09
3.43716e-08
3.5444e-08
3.58213e-08
5.36751e-08
1.45182e-09
1.68261e-09
8.58934e-09
1.22635e-07
2.10482e-10
1.64448e-12
2.05092e-12
5.5595e-09
3.36666e-11
1.6429e-12
1.87941e-13
8.63993e-14
4.42762e-13
3.41332e-13
2.50821e-13
8.63823e-14
2.10893e-13
1.8795e-13
1.2243e-13
6.92255e-14
1.46264e-15
1.48569e-15
-9.93827e-17
-6.54828e-16
-1.46017e-14
-1.15757e-14
-9.18931e-15
-7.28392e-15
-1.31605e-14
-1.03756e-14
-8.25166e-15
-6.59292e-15
-7.45726e-15
-5.65418e-15
-4.35872e-15
-3.41256e-15
-3.39811e-15
-2.48542e-15
-1.81808e-15
-1.34298e-15
-1.31954e-15
-9.51502e-16
-6.76196e-16
-4.6628e-16
-4.61572e-16
-3.23687e-16
-2.27955e-16
-1.54464e-16
-1.52656e-16
-1.03415e-16
-7.02083e-17
-4.69828e-17
-4.90648e-17
-3.21503e-17
-2.09739e-17
-1.3547e-17
-1.47759e-17
-9.38464e-18
-5.91484e-18
-3.67913e-18
-4.16103e-18
-2.54213e-18
-1.5385e-18
-9.17259e-19
-1.05739e-18
-6.15929e-19
-3.55048e-19
-2.01463e-19
-2.37156e-19
-1.30424e-19
-7.0883e-20
-3.78795e-20
-4.60005e-20
-2.35796e-20
-1.19264e-20
-5.92268e-21
-7.52209e-21
-3.53738e-21
-1.63853e-21
-7.43702e-22
-1.00606e-21
-4.25223e-22
-1.76671e-22
-7.17441e-23
-1.06186e-22
-3.92004e-23
-1.41987e-23
-5.01191e-24
-8.45239e-24
-2.61101e-24
-7.907e-25
-2.32692e-25
-4.77975e-25
-1.14862e-25
-2.71542e-26
-6.23508e-27
-1.74457e-26
-2.83149e-27
-4.59512e-28
-7.30587e-29
-3.40539e-28
-2.704e-29
-2.23544e-30
-1.87861e-31
-1.8283e-30
-2.7599e-32
-4.1836e-34
-6.75454e-36
1
1
1
1
0.999295
0.996731
0.996358
0.997466
0.995397
0.983246
0.983245
0.983477
0.983388
0.983474
0.997017
0.997022
0.995286
0.995213
0.997682
0.982458
0.979984
0.977083
0.974655
0.97336
0.973237
0.972659
0.974075
0.982481
0.987787
0.987788
0.987665
0.987332
0.987096
0.987567
0.986177
0.985302
0.98237
0.980134
0.339111
0.340023
0.341871
0.34473
0.348351
0.352637
0.356506
0.358797
0.359982
0.364757
0.367879
0.369378
0.370998
0.370771
0.366537
0.36555
0.366323
0.365072
0.36487
0.000421669
0.000735131
0.000906961
0.000897424
0.000807432
0.000537388
0.000361009
0.000278552
0.000263771
0.00026308
0.000262192
0.000261651
0.000261152
0.000261651
0.000262233
0.000263121
0.000263884
0.000264716
0.000265484
0.000352141
0.000716819
0.000898749
0.000881773
0.00088189
0.0009007
0.000906107
0.000908912
0.000908985
0.000907104
0.000829455
0.000607649
0.000260684
0.000566179
0.000653787
0.000653783
0.000653819
0.000653783
0.000569924
0.000351566
0.000257216
0.000220474
0.000230066
0.000185787
0.000146749
0.000125001
0.000112975
8.892e-05
1.89463e-05
1.67875e-05
1.6788e-05
0.000109135
0.000129165
0.000152572
0.000184855
0.00019517
0.000194861
0.000235498
1.70762e-05
1.52836e-05
1.20502e-08
3.77027e-08
2.35433e-07
1.37819e-06
2.22528e-06
1.87556e-06
1.87541e-06
4.14303e-06
1.68233e-05
1.882e-05
2.44057e-05
8.89404e-06
5.15271e-07
5.15228e-07
5.15229e-07
5.15229e-07
5.15229e-07
2.90756e-08
1.13841e-08
1.18506e-08
2.28849e-08
9.96662e-06
3.44597e-05
3.65604e-05
2.32187e-05
1.85482e-05
4.9345e-05
4.99233e-05
4.99234e-05
4.99233e-05
1.69678e-05
5.15298e-07
5.15229e-07
5.15229e-07
5.15229e-07
5.15229e-07
2.3661e-06
1.13841e-08
1.13841e-08
1.61e-06
3.4656e-05
3.95415e-05
3.95417e-05
3.94563e-05
3.80582e-05
2.63633e-05
3.91741e-05
4.97976e-05
4.99234e-05
7.26546e-06
5.15237e-07
5.15229e-07
5.15229e-07
5.15229e-07
5.15229e-07
2.04031e-05
2.45273e-06
1.16342e-08
1.18419e-06
1.52453e-05
1.93522e-05
1.0887e-06
5.3907e-10
2.74998e-10
2.74776e-10
2.74998e-10
7.11645e-06
1.45333e-05
8.72247e-06
1.00158e-06
5.15229e-07
5.15229e-07
5.17226e-07
5.18872e-07
2.10831e-05
2.10391e-05
5.6899e-06
2.14023e-09
2.14025e-09
2.14023e-09
1.29332e-08
5.25106e-07
4.92336e-07
2.65998e-10
1.24192e-08
7.01595e-07
7.99472e-06
9.85521e-06
1.74292e-06
5.15229e-07
5.15229e-07
5.18884e-07
5.18884e-07
2.10831e-05
2.03953e-05
6.55395e-06
2.14143e-09
2.14023e-09
2.62029e-08
5.31012e-07
6.57737e-07
5.11604e-07
2.57141e-10
3.0092e-08
1.68283e-06
8.45644e-06
9.8556e-06
7.22088e-07
5.15229e-07
5.15229e-07
5.1523e-07
5.15232e-07
1.30344e-06
1.71019e-06
6.46497e-09
2.14173e-09
3.13802e-09
2.311e-08
2.76559e-08
3.90918e-08
2.5709e-10
2.57061e-10
2.57141e-10
7.30887e-08
6.40434e-06
9.85333e-06
7.46653e-06
6.27449e-07
5.15229e-07
5.1523e-07
5.15234e-07
2.24686e-09
2.25365e-09
2.26286e-09
2.34506e-09
3.36822e-09
1.99491e-09
2.57048e-10
2.57076e-10
2.57051e-10
2.91688e-10
2.91724e-10
3.12343e-08
3.71681e-06
7.98846e-06
7.98513e-06
4.15216e-06
5.15234e-07
8.18932e-07
6.97392e-07
8.13992e-08
9.71069e-08
3.54419e-08
9.46161e-10
9.45652e-10
7.29415e-10
4.36582e-10
2.57049e-10
3.7416e-10
6.77114e-10
6.60437e-10
2.82204e-10
5.57711e-11
5.73147e-11
6.88038e-07
2.01462e-06
8.19324e-06
1.05499e-05
9.0026e-06
2.43402e-07
2.43402e-07
2.41897e-07
5.27146e-08
3.13343e-09
4.73837e-10
1.45812e-09
3.77019e-09
3.23618e-09
5.80925e-10
4.83021e-10
1.63474e-10
5.57674e-11
5.57711e-11
6.37443e-11
4.99539e-06
1.11217e-05
1.11221e-05
1.11194e-05
1.19324e-07
2.43402e-07
2.43395e-07
2.43389e-07
7.37396e-08
4.73837e-10
1.52522e-08
4.91802e-08
3.93517e-08
3.96685e-09
4.22282e-11
4.67525e-11
5.57688e-11
6.43512e-11
6.66121e-11
1.77194e-06
7.15115e-06
5.9958e-06
1.15894e-06
3.91226e-15
5.12782e-08
2.09402e-07
2.42428e-07
8.32767e-08
4.80202e-10
2.85195e-08
6.40278e-08
6.40286e-08
4.06804e-08
4.21727e-11
4.2154e-11
6.75243e-11
2.93939e-10
2.42832e-09
1.10635e-12
1.10638e-12
1.1064e-12
1.10748e-12
3.8907e-15
5.4511e-35
-1.02645e-37
6.31378e-09
3.32446e-09
1.95675e-09
2.30409e-08
6.40274e-08
6.40201e-08
5.07269e-08
1.58582e-09
3.03866e-11
4.72455e-11
7.61978e-11
2.22354e-10
1.10634e-12
1.10635e-12
1.52122e-12
1.11784e-12
2.64602e-14
-1.44168e-16
-1.28423e-16
0
9.11062e-20
1.14584e-16
6.96572e-10
9.87912e-09
2.29233e-08
5.19953e-09
2.47373e-10
3.03896e-11
4.5685e-11
1.15019e-11
1.11602e-12
1.1065e-12
1.11468e-12
7.34406e-11
5.9637e-12
-1.041e-15
-9.48407e-16
-5.41817e-16
1.11422e-16
9.90394e-16
1.07383e-15
1.07612e-15
1.08546e-15
1.11206e-15
1.17168e-15
1.26794e-15
1.19917e-11
3.97489e-11
3.50438e-12
1.00791e-12
1.02005e-12
5.77978e-13
5.3137e-10
2.76419e-07
-5.7769e-15
-3.04046e-15
-1.41419e-15
0
2.85779e-15
1.57886e-14
3.27585e-14
7.06515e-14
1.28155e-13
1.69554e-13
2.3349e-13
5.65209e-13
9.58691e-13
4.08057e-13
2.02142e-13
5.69421e-13
5.91399e-13
5.85546e-13
2.03367e-06
-5.25978e-15
-3.00058e-15
-1.67935e-15
-8.91516e-16
-3.868e-16
0
1.2876e-15
2.49835e-14
9.44743e-14
1.2702e-13
1.4073e-13
2.7863e-13
3.40183e-13
1.09066e-13
4.93546e-14
4.42956e-13
1.94781e-12
1.04342e-12
2.11552e-06
-2.68999e-15
-1.56179e-15
-9.00892e-16
-5.15642e-16
-2.90096e-16
-1.56529e-16
-7.11405e-17
-6.91096e-19
4.05242e-16
2.98314e-15
5.41445e-15
9.95663e-15
3.04708e-14
1.35579e-14
1.76299e-14
4.12826e-13
2.06425e-12
1.04312e-12
2.11552e-06
-1.00688e-15
-5.70701e-16
-3.23498e-16
-1.83409e-16
-1.04039e-16
-5.95931e-17
-3.36289e-17
-1.70691e-17
-3.36567e-18
6.33502e-18
4.29563e-17
1.39685e-16
4.47244e-16
1.67491e-15
1.07732e-14
4.0557e-13
2.06287e-12
1.04741e-12
2.11537e-06
-3.07931e-16
-1.67728e-16
-9.11717e-17
-4.99799e-17
-2.78802e-17
-1.56922e-17
-8.68492e-18
-4.37523e-18
-1.57847e-18
8.01421e-19
1.18462e-17
5.52147e-17
2.71007e-16
1.34102e-15
1.01637e-14
3.81544e-13
2.06205e-12
1.05721e-12
1.283e-06
-8.30467e-17
-4.25309e-17
-2.22503e-17
-1.1867e-17
-6.37336e-18
-3.31924e-18
-1.51996e-18
1.92593e-37
4.0083e-19
4.38037e-18
1.41145e-17
5.35681e-17
2.58526e-16
1.2987e-15
1.05368e-14
3.75289e-13
2.18428e-12
1.16303e-12
1.16303e-12
-2.1852e-17
-1.01931e-17
-4.88842e-18
-2.39875e-18
-1.13079e-18
-2.83869e-19
2.49407e-19
2.65741e-18
1.60741e-17
5.06899e-17
1.03702e-16
1.71459e-16
4.34246e-16
2.25296e-15
2.89471e-14
4.12719e-13
2.61144e-12
1.18014e-12
1.17195e-12
-5.69128e-18
-2.369e-18
-1.00633e-18
-4.26922e-19
-3.80352e-20
6.95096e-19
6.93087e-18
3.64115e-17
1.37474e-16
3.95636e-16
8.76723e-16
2.12632e-15
7.87347e-15
4.25877e-14
2.28136e-13
9.73217e-13
3.34276e-12
1.1805e-12
7.01292e-07
-1.43486e-18
-5.43231e-19
-2.04941e-19
-6.19506e-20
2.81688e-19
5.65488e-18
4.29486e-17
2.08946e-16
8.09977e-16
2.80694e-15
1.12283e-14
6.02826e-14
2.70746e-13
9.61354e-13
1.98815e-12
3.83607e-12
5.26374e-12
1.18276e-12
2.24422e-06
-3.338e-19
-1.16575e-19
-3.92826e-20
7.93397e-21
1.03589e-18
1.76979e-17
1.85765e-16
1.07826e-15
5.69435e-15
3.21312e-14
2.22249e-13
1.24184e-12
4.2669e-12
9.77275e-12
1.18202e-11
1.29891e-11
1.15706e-11
1.18398e-12
2.24426e-06
-6.80187e-20
-2.1921e-20
-6.23032e-21
4.1026e-20
1.74191e-18
4.02179e-17
6.02675e-16
5.35586e-15
4.40612e-14
3.23461e-13
2.09052e-12
9.10188e-12
2.40124e-11
3.98456e-11
4.02752e-11
3.29414e-11
2.89645e-11
1.18543e-12
2.23543e-06
-1.17103e-20
-3.4419e-21
-4.98995e-22
4.51745e-20
2.33381e-18
6.58148e-17
1.34864e-15
2.00469e-14
2.09175e-13
1.51501e-12
7.87035e-12
2.7604e-11
5.9897e-11
7.91766e-11
8.18779e-11
6.41134e-11
6.37796e-11
1.19031e-12
2.18142e-06
-1.6483e-21
-4.33136e-22
1.52625e-22
4.39126e-20
2.55857e-18
8.14106e-17
2.09895e-15
4.70922e-14
5.19385e-13
3.45254e-12
1.49607e-11
4.53584e-11
8.67324e-11
9.97111e-11
1.08674e-10
1.21825e-10
1.42465e-10
1.2112e-12
2.18149e-06
-1.82602e-22
-4.14756e-23
1.46459e-22
2.81692e-20
2.4873e-18
8.49346e-17
2.45232e-15
7.12223e-14
7.75265e-13
4.78759e-12
1.85284e-11
5.17168e-11
9.39227e-11
1.01519e-10
1.10287e-10
4.50845e-10
5.85969e-10
1.23758e-12
2.17614e-06
-1.51631e-23
-2.70367e-24
5.59532e-23
1.22227e-20
1.53409e-18
6.71203e-17
2.44391e-15
7.98433e-14
8.55341e-13
5.0985e-12
1.87282e-11
4.70524e-11
8.39287e-11
7.06042e-11
5.15554e-11
2.20204e-09
2.7725e-09
1.36994e-12
6.16605e-07
-8.83297e-25
-6.51209e-26
1.97455e-23
4.50095e-21
5.91344e-19
2.79346e-17
1.46638e-15
7.24987e-14
7.3918e-13
3.92604e-12
1.19179e-11
2.16074e-11
4.21623e-11
2.45855e-11
2.14251e-13
4.63584e-09
5.49864e-09
2.01256e-12
1.47521e-07
-3.27297e-26
1.5458e-26
4.61183e-24
1.31937e-21
1.80963e-19
7.82492e-18
4.38075e-16
3.23037e-14
3.02165e-13
1.39587e-12
3.57881e-12
5.52513e-12
1.03413e-11
3.85616e-12
2.12276e-13
5.15551e-09
5.67028e-09
3.48215e-12
5.96795e-07
-6.54731e-28
2.27157e-27
6.55508e-25
2.54233e-22
4.02678e-20
1.66881e-18
8.33326e-17
7.20993e-15
6.31629e-14
2.67358e-13
6.1124e-13
9.18548e-13
1.54172e-12
2.09966e-13
2.10133e-13
1.91113e-09
4.41782e-09
2.30674e-09
7.45765e-07
-5.08185e-30
1.74888e-28
4.9451e-26
2.8144e-23
5.14987e-21
2.30061e-19
1.0316e-17
9.29854e-16
7.64139e-15
2.98272e-14
6.22169e-14
9.13882e-14
1.38102e-13
3.46104e-15
2.81043e-11
1.34442e-10
6.47852e-10
6.14297e-23
7.45716e-07
-6.89229e-33
1.03054e-32
8.68982e-28
1.47947e-24
2.7904e-22
1.38748e-20
6.48296e-19
5.60783e-17
4.30646e-16
1.54824e-15
3.00667e-15
4.33477e-15
5.6996e-15
7.97211e-16
2.17188e-12
1.11551e-19
6.14297e-23
5.33073e-24
7.18107e-07
-5.09193e-38
-4.17969e-40
1.07224e-35
1.68591e-30
3.44089e-27
9.37031e-25
1.89636e-22
1.62205e-20
8.80616e-20
2.79577e-19
5.06892e-19
6.63554e-19
2.74608e-19
8.18364e-21
9.38899e-16
4.64114e-17
3.26527e-20
7.52316e-40
6.50234e-07
)
;

boundaryField
{
    leftWall
    {
        type            zeroGradient;
    }
    rightWall
    {
        type            zeroGradient;
    }
    lowerWall
    {
        type            zeroGradient;
    }
    atmosphere
    {
        type            inletOutlet;
        inletValue      uniform 0;
        value           nonuniform List<scalar> 
46
(
0
7.33954e-11
5.34915e-10
5.8396e-10
4.32033e-10
2.20638e-10
7.62565e-11
1.46653e-11
1.2863e-12
3.17487e-14
1.13134e-16
4.202e-20
-3.58822e-21
-4.37147e-20
-5.7512e-20
-3.156e-20
-9.74193e-21
-1.86124e-21
-2.21328e-22
-1.55286e-23
-5.83106e-25
-1.05664e-26
0
0
0
0
0
0
0
0
0
0
0
0
0
0
0
0
0
0
0
0
0
0
0
6.50234e-07
)
;
    }
    defaultFaces
    {
        type            empty;
    }
}


// ************************************************************************* //
