/*--------------------------------*- C++ -*----------------------------------*\
  =========                 |
  \\      /  F ield         | OpenFOAM: The Open Source CFD Toolbox
   \\    /   O peration     | Website:  https://openfoam.org
    \\  /    A nd           | Version:  9
     \\/     M anipulation  |
\*---------------------------------------------------------------------------*/
FoamFile
{
    format      ascii;
    class       volScalarField;
    location    "4.1";
    object      p;
}
// * * * * * * * * * * * * * * * * * * * * * * * * * * * * * * * * * * * * * //

dimensions      [1 -1 -2 0 0 0 0];

internalField   nonuniform List<scalar> 
2268
(
760.602
760.036
759.025
757.503
755.594
753.313
750.71
747.842
744.768
741.548
738.244
734.913
731.606
728.36
725.188
722.082
719.077
715.791
713.539
712.12
711.243
710.581
709.816
701.864
701.304
700.311
698.806
696.893
694.606
691.992
689.108
686.014
682.771
679.435
676.062
672.705
669.402
666.174
663.036
660.048
657.297
655.286
653.412
652.278
651.557
650.914
643.239
642.658
641.676
640.182
638.264
635.963
633.328
630.418
627.292
624.011
620.631
617.209
613.799
610.448
607.191
604.083
601.349
599.189
597.243
594.952
593.296
592.415
591.805
584.73
584.128
583.137
581.642
579.708
577.382
574.714
571.763
568.592
565.261
561.827
558.349
554.888
551.501
548.241
545.198
542.701
540.979
538.978
536.718
534.555
533.231
532.556
526.334
525.71
524.697
523.186
521.226
518.862
516.147
513.143
509.912
506.52
503.021
499.48
495.968
492.549
489.288
486.291
483.855
482.31
480.518
478.174
475.6
474.002
473.22
468.052
467.404
466.361
464.823
462.822
460.408
457.633
454.561
451.258
447.792
444.216
440.602
437.03
433.573
430.3
427.312
424.831
423.152
421.434
419.06
416.428
414.769
413.808
409.885
409.209
408.133
406.555
404.503
402.023
399.176
396.022
392.633
389.081
385.413
381.714
378.072
374.567
371.261
368.253
365.695
363.756
361.851
359.583
357.228
355.608
354.227
351.832
351.128
350.015
348.389
346.271
343.714
340.779
337.529
334.04
330.389
326.617
322.816
319.094
315.534
312.173
309.12
306.475
304.33
302.307
300.123
298.041
296.575
294.333
714.916
715.793
716.901
718.196
719.771
721.648
723.8
726.172
728.674
731.046
732.807
734.469
736.026
738.856
742.916
744.765
744.324
742.566
743.278
656.549
657.016
658.012
659.365
661.016
662.987
665.228
667.599
669.938
672.234
674.193
676.422
679.485
681.953
684.161
685.326
685.093
685.236
686.631
597.838
598.13
598.955
600.309
602.013
604.065
606.395
608.816
611.226
613.663
616.177
619.314
622.729
624.633
625.428
626.374
626.489
627.575
629.437
538.74
539.108
539.884
541.225
542.964
545.074
547.461
550.012
552.648
555.295
558.744
562.461
565.616
566.773
567.131
568.011
568.493
569.641
572.205
479.47
479.928
480.717
482.082
483.849
486.018
488.467
491.229
494.066
496.943
500.927
505.394
508.404
508.757
509.104
510.028
510.736
511.267
514.852
420.083
420.587
421.413
422.857
424.659
426.897
429.397
432.286
435.337
438.453
442.567
447.329
450.264
450.567
451.212
452.296
453.108
453.428
457.236
360.571
361.079
361.987
363.531
365.408
367.699
370.24
373.201
376.442
379.789
383.921
388.452
391.396
392.327
393.412
394.779
395.794
397.245
399.641
301.03
301.328
302.424
304.135
306.071
308.42
310.963
313.978
317.421
321.168
325.472
329.683
332.711
334.195
335.707
337.446
338.943
341.48
342.357
261.276
260.517
259.347
257.635
255.398
252.696
249.601
246.173
242.5
238.671
234.698
230.701
226.833
223.183
219.692
216.528
213.736
211.348
209.179
207.124
205.411
204.322
203.353
138.585
137.877
136.724
134.9
132.432
129.448
126.041
122.25
118.196
114.071
110.011
106.132
102.42
98.9123
95.8733
93.0913
90.5333
88.2987
86.3868
84.7937
83.5404
82.6403
81.8621
41.3091
40.6758
39.827
38.5115
36.8791
35.0017
32.941
30.7977
28.5769
26.3482
24.308
22.4624
20.6642
19.0083
17.5732
16.3525
15.3175
14.4209
13.6631
13.0596
12.6078
12.2728
11.966
1.21078
1.0912
0.962994
0.812508
0.744299
0.640611
0.518278
0.560838
0.684629
0.684459
0.658267
0.601338
0.520358
0.456242
0.359738
0.169184
0.0585147
-0.00620301
-0.0589252
-0.0708922
-0.122368
-0.198939
-0.363708
-0.433933
-0.441776
-0.450222
-0.457233
-0.386007
-0.319897
-0.269241
-0.19972
-0.119895
-0.0871973
-0.0894477
-0.101868
-0.130702
-0.173789
-0.231692
-0.276885
-0.31977
-0.353606
-0.391005
-0.466554
-0.522418
-0.584833
-0.640441
-0.82227
-0.823912
-0.828546
-0.850876
-0.839746
-0.820721
-0.810454
-0.812843
-0.848258
-0.871456
-0.888611
-0.897459
-0.908117
-0.922132
-0.934123
-0.875064
-0.872186
-0.861933
-0.865918
-0.924188
-0.946138
-0.952679
-0.907434
-1.18024
-1.17643
-1.1745
-1.1768
-1.18664
-1.19268
-1.20315
-1.22364
-1.24908
-1.26748
-1.27783
-1.27971
-1.27563
-1.26807
-1.2604
-1.25672
-1.2501
-1.23482
-1.21145
-1.17683
-1.16091
-1.15429
-1.12501
-1.42684
-1.42563
-1.42113
-1.41108
-1.41495
-1.41531
-1.41488
-1.41787
-1.41649
-1.41195
-1.40804
-1.40553
-1.40161
-1.3967
-1.39192
-1.38852
-1.38023
-1.37142
-1.3589
-1.34416
-1.33423
-1.3312
-1.31858
-1.56487
-1.56432
-1.56296
-1.55977
-1.55897
-1.55781
-1.55498
-1.55026
-1.54433
-1.53896
-1.53479
-1.53147
-1.52791
-1.524
-1.52035
-1.51735
-1.51373
-1.51271
-1.51187
-1.5062
-1.49984
-1.49944
-1.50126
-1.68582
-1.68501
-1.6838
-1.68174
-1.6807
-1.67935
-1.67688
-1.67334
-1.66873
-1.66443
-1.66075
-1.65758
-1.65452
-1.65135
-1.64832
-1.6459
-1.64386
-1.64347
-1.64486
-1.64682
-1.64536
-1.64388
-1.64419
-1.80762
-1.80683
-1.80581
-1.80444
-1.80323
-1.80174
-1.79956
-1.79665
-1.79314
-1.78968
-1.78654
-1.78367
-1.7809
-1.77819
-1.7757
-1.77366
-1.7721
-1.77155
-1.77191
-1.77237
-1.77243
-1.77062
-1.76956
-1.93003
-1.92939
-1.92854
-1.92746
-1.92627
-1.9248
-1.92287
-1.92046
-1.9177
-1.9149
-1.91219
-1.90959
-1.90708
-1.90473
-1.90263
-1.90088
-1.89955
-1.89884
-1.89865
-1.89851
-1.89805
-1.89702
-1.89609
-2.05275
-2.05237
-2.0517
-2.05081
-2.04971
-2.04834
-2.04664
-2.04461
-2.04235
-2.04
-2.03762
-2.0353
-2.0331
-2.03106
-2.02924
-2.02772
-2.02653
-2.02576
-2.02535
-2.02507
-2.02453
-2.02374
-2.02297
-2.17574
-2.1756
-2.17516
-2.17442
-2.17343
-2.1722
-2.17069
-2.16894
-2.16701
-2.16498
-2.16292
-2.1609
-2.15898
-2.1572
-2.15561
-2.15426
-2.15317
-2.1524
-2.15191
-2.15162
-2.15116
-2.15051
-2.14982
-2.29895
-2.29905
-2.2988
-2.29822
-2.29736
-2.29626
-2.29493
-2.29341
-2.29174
-2.28998
-2.28819
-2.28643
-2.28475
-2.28319
-2.28178
-2.28057
-2.27957
-2.2788
-2.27824
-2.27785
-2.27748
-2.27695
-2.27631
-2.42237
-2.42266
-2.4226
-2.42216
-2.42143
-2.42047
-2.41931
-2.41798
-2.41653
-2.415
-2.41344
-2.4119
-2.41043
-2.40905
-2.4078
-2.4067
-2.40578
-2.40502
-2.40443
-2.40396
-2.40352
-2.40306
-2.40257
-2.54602
-2.54645
-2.54653
-2.54622
-2.54562
-2.5448
-2.54379
-2.54263
-2.54136
-2.54003
-2.53867
-2.53732
-2.53602
-2.5348
-2.53368
-2.53269
-2.53183
-2.53111
-2.53052
-2.53002
-2.52958
-2.52916
-2.52876
-2.66989
-2.67041
-2.67059
-2.6704
-2.66991
-2.66921
-2.66834
-2.66733
-2.66623
-2.66507
-2.66388
-2.66269
-2.66155
-2.66046
-2.65946
-2.65856
-2.65777
-2.65709
-2.65651
-2.65602
-2.65559
-2.65521
-2.65488
-2.79397
-2.79454
-2.79479
-2.79468
-2.79429
-2.7937
-2.79295
-2.79208
-2.79112
-2.7901
-2.78906
-2.78802
-2.78701
-2.78604
-2.78515
-2.78433
-2.78361
-2.78297
-2.78242
-2.78195
-2.78154
-2.7812
-2.78091
-2.91824
-2.91882
-2.91912
-2.91907
-2.91876
-2.91826
-2.91761
-2.91686
-2.91602
-2.91514
-2.91422
-2.91331
-2.91241
-2.91155
-2.91075
-2.91002
-2.90935
-2.90877
-2.90825
-2.90781
-2.90743
-2.90711
-2.90686
-3.04267
-3.04324
-3.04354
-3.04353
-3.04329
-3.04287
-3.04232
-3.04166
-3.04094
-3.04016
-3.03936
-3.03855
-3.03776
-3.037
-3.03628
-3.03562
-3.03502
-3.03448
-3.034
-3.03359
-3.03324
-3.03296
-3.03273
-3.16725
-3.16778
-3.16806
-3.16808
-3.16788
-3.16753
-3.16705
-3.16649
-3.16586
-3.16518
-3.16448
-3.16377
-3.16307
-3.16239
-3.16175
-3.16115
-3.16061
-3.16012
-3.15968
-3.15931
-3.15899
-3.15873
-3.15853
-3.29194
-3.29241
-3.29267
-3.29269
-3.29252
-3.29222
-3.29181
-3.29133
-3.29078
-3.29019
-3.28957
-3.28895
-3.28833
-3.28773
-3.28716
-3.28663
-3.28613
-3.28569
-3.2853
-3.28495
-3.28467
-3.28443
-3.28426
-3.41673
-3.41713
-3.41734
-3.41735
-3.41721
-3.41695
-3.4166
-3.41617
-3.4157
-3.41518
-3.41465
-3.4141
-3.41356
-3.41303
-3.41252
-3.41204
-3.4116
-3.4112
-3.41085
-3.41054
-3.41028
-3.41007
-3.40992
-3.54159
-3.54191
-3.54206
-3.54205
-3.54193
-3.5417
-3.5414
-3.54103
-3.54062
-3.54017
-3.5397
-3.53922
-3.53875
-3.53828
-3.53783
-3.53741
-3.53702
-3.53666
-3.53634
-3.53607
-3.53584
-3.53566
-3.53552
-3.66651
-3.66673
-3.66681
-3.66679
-3.66667
-3.66647
-3.66621
-3.66589
-3.66554
-3.66515
-3.66474
-3.66432
-3.66391
-3.6635
-3.6631
-3.66273
-3.66238
-3.66207
-3.66179
-3.66155
-3.66135
-3.66119
-3.66107
-3.79146
-3.7916
-3.7916
-3.79154
-3.79144
-3.79126
-3.79104
-3.79076
-3.79045
-3.79012
-3.78977
-3.7894
-3.78904
-3.78868
-3.78834
-3.78801
-3.78771
-3.78744
-3.78719
-3.78698
-3.78681
-3.78667
-3.78657
-3.91643
-3.91648
-3.91643
-3.91634
-3.91623
-3.91608
-3.91588
-3.91564
-3.91537
-3.91508
-3.91478
-3.91447
-3.91416
-3.91385
-3.91355
-3.91327
-3.913
-3.91277
-3.91255
-3.91237
-3.91222
-3.91211
-3.91203
-4.0414
-4.04138
-4.04128
-4.04118
-4.04106
-4.04091
-4.04073
-4.04053
-4.0403
-4.04005
-4.03979
-4.03952
-4.03926
-4.03899
-4.03873
-4.03849
-4.03827
-4.03806
-4.03788
-4.03773
-4.03761
-4.03751
-4.03745
-4.16638
-4.16628
-4.16615
-4.16604
-4.16591
-4.16577
-4.1656
-4.16542
-4.16523
-4.16502
-4.1648
-4.16457
-4.16434
-4.16412
-4.1639
-4.16369
-4.1635
-4.16333
-4.16318
-4.16306
-4.16295
-4.16288
-4.16283
-4.29136
-4.29118
-4.29102
-4.2909
-4.29077
-4.29063
-4.29049
-4.29033
-4.29017
-4.28999
-4.28981
-4.28962
-4.28943
-4.28924
-4.28905
-4.28888
-4.28872
-4.28858
-4.28846
-4.28835
-4.28828
-4.28822
-4.28819
-4.41634
-4.41609
-4.41589
-4.41575
-4.41563
-4.41551
-4.41539
-4.41526
-4.41512
-4.41497
-4.41482
-4.41467
-4.41451
-4.41435
-4.4142
-4.41405
-4.41392
-4.41381
-4.41371
-4.41363
-4.41357
-4.41354
-4.41352
-4.54133
-4.54101
-4.54078
-4.54063
-4.54052
-4.54041
-4.54031
-4.5402
-4.54009
-4.53997
-4.53985
-4.53972
-4.53959
-4.53946
-4.53933
-4.53921
-4.53911
-4.53902
-4.53894
-4.53889
-4.53885
-4.53883
-4.53883
-4.66631
-4.66596
-4.6657
-4.66555
-4.66544
-4.66535
-4.66526
-4.66517
-4.66508
-4.66499
-4.66489
-4.66478
-4.66467
-4.66457
-4.66446
-4.66437
-4.66428
-4.66421
-4.66416
-4.66413
-4.66411
-4.66411
-4.66412
-4.79129
-4.79092
-4.79065
-4.7905
-4.7904
-4.79032
-4.79025
-4.79017
-4.7901
-4.79002
-4.78994
-4.78986
-4.78977
-4.78968
-4.78959
-4.78951
-4.78945
-4.7894
-4.78937
-4.78936
-4.78936
-4.78938
-4.7894
-4.91625
-4.91587
-4.91563
-4.91549
-4.9154
-4.91533
-4.91527
-4.91521
-4.91515
-4.91509
-4.91502
-4.91495
-4.91487
-4.9148
-4.91472
-4.91465
-4.9146
-4.91457
-4.91456
-4.91458
-4.9146
-4.91464
-4.91468
-5.04119
-5.04083
-5.04062
-5.04052
-5.04044
-5.04038
-5.04033
-5.04028
-5.04023
-5.04018
-5.04012
-5.04006
-5.03999
-5.03992
-5.03985
-5.03979
-5.03974
-5.03972
-5.03974
-5.03979
-5.03984
-5.03989
-5.03994
-5.16609
-5.16578
-5.16564
-5.16558
-5.16553
-5.16548
-5.16543
-5.16539
-5.16535
-5.16531
-5.16525
-5.1652
-5.16513
-5.16506
-5.16498
-5.16492
-5.16487
-5.16486
-5.1649
-5.16499
-5.16507
-5.16515
-5.16521
-5.29093
-5.29072
-5.29068
-5.29068
-5.29066
-5.29062
-5.29058
-5.29055
-5.29051
-5.29047
-5.29042
-5.29036
-5.29028
-5.29021
-5.29013
-5.29005
-5.28999
-5.28997
-5.29005
-5.29019
-5.29032
-5.29042
-5.29049
-5.4158
-5.41573
-5.4158
-5.41584
-5.41584
-5.41581
-5.41578
-5.41574
-5.4157
-5.41565
-5.41559
-5.41552
-5.41544
-5.41536
-5.41526
-5.41517
-5.41508
-5.41503
-5.41515
-5.41542
-5.4156
-5.41571
-5.41578
-5.54035
-5.54074
-5.54098
-5.54108
-5.54109
-5.54106
-5.54101
-5.54095
-5.54088
-5.5408
-5.54072
-5.54062
-5.54051
-5.54039
-5.54027
-5.54013
-5.53998
-5.53985
-5.54004
-5.54063
-5.54092
-5.54103
-5.54109
-5.66556
-5.66694
-5.66658
-5.66651
-5.66645
-5.66637
-5.66629
-5.6662
-5.6661
-5.66599
-5.66588
-5.66576
-5.66564
-5.66549
-5.66533
-5.66511
-5.66471
-5.66401
-5.66437
-5.66576
-5.66621
-5.66634
-5.66639
204.044
204.058
204.308
204.849
81.9228
82.0198
82.1808
82.6028
11.9236
11.9627
12.0423
12.2347
-0.275533
-0.242417
-0.254745
-0.299241
-0.599298
-0.575092
-0.599127
-0.612198
-0.920009
-0.88414
-0.917112
-0.916545
-1.15187
-1.16278
-1.16519
-1.16418
-1.33777
-1.35033
-1.35316
-1.35389
-1.50496
-1.5058
-1.50428
-1.50279
-1.64196
-1.63932
-1.63723
-1.63609
-1.7682
-1.7672
-1.76617
-1.76547
-1.8952
-1.89461
-1.89406
-1.89362
-2.02227
-2.02184
-2.02147
-2.02118
-2.14921
-2.14885
-2.14857
-2.14835
-2.27582
-2.27556
-2.27536
-2.27521
-2.40223
-2.40205
-2.40191
-2.40181
-2.52851
-2.52838
-2.52828
-2.52821
-2.65468
-2.65458
-2.65451
-2.65446
-2.78075
-2.78067
-2.78062
-2.78058
-2.90673
-2.90666
-2.90662
-2.9066
-3.03262
-3.03256
-3.03253
-3.03251
-3.15843
-3.15838
-3.15836
-3.15834
-3.28417
-3.28413
-3.28411
-3.2841
-3.40984
-3.40981
-3.40979
-3.40978
-3.53546
-3.53543
-3.53542
-3.53541
-3.66102
-3.661
-3.66098
-3.66098
-3.78653
-3.78651
-3.7865
-3.7865
-3.912
-3.91198
-3.91198
-3.91198
-4.03743
-4.03742
-4.03742
-4.03742
-4.16282
-4.16282
-4.16282
-4.16282
-4.28818
-4.28818
-4.28819
-4.2882
-4.41352
-4.41353
-4.41353
-4.41355
-4.53884
-4.53885
-4.53886
-4.53887
-4.66414
-4.66415
-4.66417
-4.66418
-4.78943
-4.78944
-4.78946
-4.78948
-4.91471
-4.91472
-4.91474
-4.91476
-5.03998
-5.04
-5.04002
-5.04004
-5.16525
-5.16528
-5.1653
-5.16532
-5.29053
-5.29056
-5.29058
-5.2906
-5.41582
-5.41584
-5.41586
-5.41587
-5.54112
-5.54113
-5.54114
-5.54115
-5.66641
-5.66642
-5.66643
-5.66643
206.057
207.457
209.131
211.354
214.064
217.054
220.157
223.299
226.551
230.157
234.119
238.101
241.294
243.48
245.567
247.943
250.356
252.908
253.637
83.8995
85.7875
88.0095
90.6553
93.7648
97.1728
100.842
104.394
107.647
110.715
113.725
116.888
119.947
122.726
125.368
127.878
130.373
132.958
133.44
12.8091
13.9018
15.118
16.3974
17.8221
19.4601
21.381
23.3879
25.1713
26.5702
27.737
29.0618
30.6225
32.4064
34.2221
35.5333
36.4356
37.5816
37.4903
-0.38632
-0.457492
-0.473087
-0.490924
-0.445315
-0.361772
-0.372
-0.395704
-0.407803
-0.391739
-0.324426
-0.172707
-0.0301894
0.172958
0.417112
0.519458
0.405002
0.00701529
-0.254749
-0.624602
-0.635219
-0.641821
-0.648744
-0.631239
-0.601011
-0.59105
-0.592318
-0.59479
-0.598276
-0.601808
-0.609108
-0.614689
-0.624704
-0.656279
-0.725249
-0.71842
-0.712449
-0.700878
-0.898161
-0.8908
-0.894591
-0.899609
-0.910302
-0.93174
-0.937941
-0.940231
-0.938311
-0.93465
-0.930929
-0.932572
-0.930285
-0.931203
-0.949955
-0.986531
-0.971794
-0.972047
-0.954728
-1.17184
-1.1673
-1.17053
-1.17105
-1.19403
-1.21789
-1.22639
-1.22952
-1.22966
-1.22847
-1.2271
-1.22661
-1.22671
-1.22598
-1.22379
-1.21649
-1.22158
-1.22388
-1.21954
-1.36659
-1.37191
-1.37528
-1.37748
-1.38236
-1.38267
-1.38415
-1.38691
-1.38938
-1.39138
-1.3939
-1.39671
-1.40149
-1.40748
-1.41184
-1.40052
-1.41032
-1.41034
-1.41
-1.5049
-1.51063
-1.5119
-1.51398
-1.5118
-1.5113
-1.51246
-1.51426
-1.51565
-1.51663
-1.51891
-1.5226
-1.52729
-1.53304
-1.54016
-1.53754
-1.54229
-1.54368
-1.54328
-1.63566
-1.63812
-1.63905
-1.63978
-1.63913
-1.63897
-1.64009
-1.64156
-1.64236
-1.64411
-1.64756
-1.65171
-1.65568
-1.6585
-1.66123
-1.6612
-1.66448
-1.66573
-1.66596
-1.76481
-1.76577
-1.76638
-1.76673
-1.76652
-1.76692
-1.7682
-1.7697
-1.77102
-1.7742
-1.77845
-1.78163
-1.78296
-1.78288
-1.78419
-1.78508
-1.78695
-1.78823
-1.78906
-1.89307
-1.89345
-1.89391
-1.89434
-1.89472
-1.89568
-1.89703
-1.89905
-1.90189
-1.9054
-1.90815
-1.90863
-1.90809
-1.9086
-1.9098
-1.91093
-1.9122
-1.91303
-1.91389
-2.02077
-2.02099
-2.0215
-2.02237
-2.02334
-2.02447
-2.02596
-2.02813
-2.03156
-2.03414
-2.03502
-2.0352
-2.0353
-2.03647
-2.03813
-2.03921
-2.03977
-2.04011
-2.04049
-2.14807
-2.14824
-2.1488
-2.1499
-2.15129
-2.15251
-2.15373
-2.15534
-2.15781
-2.15971
-2.16068
-2.16189
-2.16342
-2.16459
-2.16542
-2.16561
-2.1656
-2.16593
-2.16645
-2.27502
-2.27519
-2.27571
-2.27667
-2.27799
-2.27914
-2.28008
-2.28142
-2.28325
-2.28484
-2.28611
-2.28761
-2.28961
-2.2907
-2.29057
-2.29036
-2.29046
-2.29084
-2.29113
-2.40169
-2.40186
-2.40231
-2.40307
-2.40406
-2.40506
-2.40606
-2.40727
-2.40873
-2.41012
-2.41139
-2.41278
-2.41421
-2.41506
-2.41528
-2.41541
-2.41571
-2.41626
-2.41629
-2.52814
-2.5283
-2.52869
-2.52932
-2.53012
-2.531
-2.53193
-2.53301
-2.53424
-2.53546
-2.53663
-2.53782
-2.53898
-2.5398
-2.54028
-2.54069
-2.54122
-2.54209
-2.54208
-2.65442
-2.65457
-2.65492
-2.65545
-2.65613
-2.6569
-2.65774
-2.65869
-2.65975
-2.66082
-2.66188
-2.66294
-2.66395
-2.66477
-2.66541
-2.66602
-2.6667
-2.66777
-2.66766
-2.78057
-2.7807
-2.781
-2.78146
-2.78205
-2.78273
-2.78349
-2.78434
-2.78525
-2.7862
-2.78716
-2.78811
-2.78902
-2.78984
-2.79057
-2.79129
-2.79203
-2.7931
-2.79302
-2.90659
-2.90672
-2.90698
-2.90738
-2.90789
-2.9085
-2.90918
-2.90993
-2.91074
-2.91159
-2.91245
-2.91331
-2.91414
-2.91493
-2.91569
-2.91646
-2.91729
-2.91811
-2.91824
-3.03251
-3.03263
-3.03286
-3.03321
-3.03366
-3.03419
-3.0348
-3.03547
-3.0362
-3.03696
-3.03773
-3.03851
-3.03927
-3.04001
-3.04073
-3.04149
-3.04228
-3.04292
-3.04318
-3.15835
-3.15845
-3.15866
-3.15897
-3.15937
-3.15984
-3.16038
-3.16098
-3.16163
-3.16231
-3.163
-3.1637
-3.16438
-3.16505
-3.16569
-3.16634
-3.16699
-3.16738
-3.16745
-3.28411
-3.2842
-3.28439
-3.28466
-3.28502
-3.28544
-3.28592
-3.28646
-3.28704
-3.28764
-3.28826
-3.28888
-3.28948
-3.29005
-3.29059
-3.29109
-3.29151
-3.29165
-3.29143
-3.4098
-3.40989
-3.41006
-3.4103
-3.41062
-3.411
-3.41143
-3.41191
-3.41242
-3.41296
-3.4135
-3.41404
-3.41456
-3.41504
-3.41546
-3.41579
-3.41598
-3.41594
-3.41563
-3.53542
-3.53551
-3.53567
-3.53589
-3.53617
-3.53651
-3.5369
-3.53733
-3.53778
-3.53826
-3.53874
-3.53921
-3.53965
-3.54003
-3.54033
-3.54051
-3.54049
-3.54029
-3.53992
-3.661
-3.66108
-3.66122
-3.66142
-3.66168
-3.66199
-3.66234
-3.66272
-3.66313
-3.66355
-3.66398
-3.66439
-3.66475
-3.66506
-3.66526
-3.6653
-3.66511
-3.66476
-3.66422
-3.78652
-3.7866
-3.78674
-3.78692
-3.78715
-3.78743
-3.78774
-3.78809
-3.78846
-3.78884
-3.78921
-3.78957
-3.78989
-3.79014
-3.79027
-3.79024
-3.78995
-3.78955
-3.78888
-3.912
-3.91208
-3.91221
-3.91238
-3.91259
-3.91284
-3.91313
-3.91344
-3.91377
-3.91412
-3.91446
-3.91478
-3.91506
-3.91527
-3.91538
-3.91534
-3.91509
-3.91477
-3.91418
-4.03745
-4.03752
-4.03764
-4.0378
-4.03799
-4.03822
-4.03849
-4.03877
-4.03908
-4.03939
-4.0397
-4.03999
-4.04025
-4.04045
-4.04057
-4.04056
-4.04039
-4.04014
-4.03969
-4.16285
-4.16293
-4.16304
-4.16319
-4.16337
-4.16358
-4.16382
-4.16408
-4.16436
-4.16465
-4.16494
-4.16522
-4.16547
-4.16567
-4.1658
-4.16584
-4.16574
-4.16552
-4.16509
-4.28823
-4.2883
-4.28841
-4.28855
-4.28872
-4.28891
-4.28914
-4.28938
-4.28964
-4.28991
-4.29018
-4.29045
-4.2907
-4.29091
-4.29107
-4.29114
-4.29111
-4.2909
-4.29042
-4.41358
-4.41366
-4.41376
-4.41389
-4.41404
-4.41423
-4.41443
-4.41466
-4.4149
-4.41515
-4.41541
-4.41568
-4.41593
-4.41615
-4.41633
-4.41646
-4.41648
-4.41628
-4.41574
-4.53891
-4.53898
-4.53908
-4.5392
-4.53935
-4.53952
-4.53971
-4.53991
-4.54014
-4.54038
-4.54064
-4.54089
-4.54115
-4.54139
-4.5416
-4.54176
-4.54183
-4.54165
-4.54118
-4.66422
-4.6643
-4.66439
-4.6645
-4.66464
-4.66479
-4.66496
-4.66516
-4.66537
-4.6656
-4.66584
-4.6661
-4.66636
-4.66661
-4.66684
-4.66702
-4.66708
-4.66686
-4.66639
-4.78952
-4.78959
-4.78968
-4.78978
-4.7899
-4.79004
-4.7902
-4.79038
-4.79058
-4.79079
-4.79103
-4.79128
-4.79155
-4.79181
-4.79205
-4.79224
-4.79225
-4.79189
-4.79115
-4.91481
-4.91487
-4.91496
-4.91505
-4.91516
-4.91528
-4.91543
-4.91559
-4.91577
-4.91597
-4.9162
-4.91645
-4.91672
-4.917
-4.91727
-4.91747
-4.91746
-4.91701
-4.9161
-5.04008
-5.04015
-5.04022
-5.04031
-5.0404
-5.04051
-5.04064
-5.04078
-5.04094
-5.04113
-5.04134
-5.04158
-5.04186
-5.04218
-5.0425
-5.04277
-5.04283
-5.04238
-5.04143
-5.16536
-5.16542
-5.16548
-5.16555
-5.16563
-5.16573
-5.16583
-5.16595
-5.16609
-5.16626
-5.16646
-5.16669
-5.16698
-5.16732
-5.16772
-5.16814
-5.16839
-5.16799
-5.16706
-5.29063
-5.29068
-5.29073
-5.29079
-5.29085
-5.29093
-5.29101
-5.29111
-5.29123
-5.29137
-5.29154
-5.29176
-5.29204
-5.29241
-5.2929
-5.29354
-5.29413
-5.29388
-5.29298
-5.4159
-5.41594
-5.41598
-5.41602
-5.41607
-5.41612
-5.41619
-5.41626
-5.41635
-5.41646
-5.41659
-5.41677
-5.41701
-5.41737
-5.41793
-5.41885
-5.42006
-5.4201
-5.41956
-5.54117
-5.54119
-5.54121
-5.54124
-5.54127
-5.54131
-5.54135
-5.5414
-5.54145
-5.54152
-5.5416
-5.54172
-5.54189
-5.54216
-5.54265
-5.54375
-5.54584
-5.5467
-5.54731
-5.66644
-5.66645
-5.66646
-5.66647
-5.66649
-5.6665
-5.66652
-5.66654
-5.66656
-5.66658
-5.66661
-5.66665
-5.66672
-5.66685
-5.66713
-5.66793
-5.67037
-5.67412
-5.67693
)
;

boundaryField
{
    leftWall
    {
        type            calculated;
        value           nonuniform List<scalar> 
50
(
760.602
701.864
643.239
584.73
526.334
468.052
409.885
351.832
261.276
138.585
41.3091
1.21078
-0.433933
-0.82227
-1.18024
-1.42684
-1.56487
-1.68582
-1.80762
-1.93003
-2.05275
-2.17574
-2.29895
-2.42237
-2.54602
-2.66989
-2.79397
-2.91824
-3.04267
-3.16725
-3.29194
-3.41673
-3.54159
-3.66651
-3.79146
-3.91643
-4.0414
-4.16638
-4.29136
-4.41634
-4.54133
-4.66631
-4.79129
-4.91625
-5.04119
-5.16609
-5.29093
-5.4158
-5.54035
-5.66556
)
;
    }
    rightWall
    {
        type            calculated;
        value           nonuniform List<scalar> 
50
(
743.278
686.631
629.437
572.205
514.852
457.236
399.641
342.357
253.637
133.44
37.4903
-0.254749
-0.700878
-0.954728
-1.21954
-1.41
-1.54328
-1.66596
-1.78906
-1.91389
-2.04049
-2.16645
-2.29113
-2.41629
-2.54208
-2.66766
-2.79302
-2.91824
-3.04318
-3.16745
-3.29143
-3.41563
-3.53992
-3.66422
-3.78888
-3.91418
-4.03969
-4.16509
-4.29042
-4.41574
-4.54118
-4.66639
-4.79115
-4.9161
-5.04143
-5.16706
-5.29298
-5.41956
-5.54731
-5.67693
)
;
    }
    lowerWall
    {
        type            calculated;
        value           nonuniform List<scalar> 
62
(
790.031
789.466
788.454
786.932
785.023
782.742
780.139
777.271
774.197
770.978
767.673
764.342
761.035
757.789
754.618
751.511
748.506
745.175
742.874
741.456
740.565
739.873
739.109
709.816
650.914
591.805
532.556
473.22
413.808
354.227
294.333
266.62
266.629
266.887
267.437
714.916
656.549
597.838
538.74
479.47
420.083
360.571
301.03
744.044
744.927
746.05
747.345
748.927
750.804
752.956
755.354
758.048
760.431
762.144
763.799
764.416
767.125
771.666
774.035
773.527
770.83
771.54
)
;
    }
    atmosphere
    {
        type            calculated;
        value           nonuniform List<scalar> 
46
(
-5.72916
-5.72904
-5.72904
-5.72904
-5.72904
-5.72904
-5.72904
-5.72904
-5.72904
-5.72904
-5.72904
-5.72904
-5.72904
-5.72904
-5.72904
-5.72904
-5.72904
-5.72904
-5.72904
-5.72904
-5.72904
-5.72905
-5.72906
-5.72906
-5.72906
-5.72907
-5.72907
-5.72908
-5.72908
-5.72909
-5.7291
-5.7291
-5.72911
-5.72911
-5.72912
-5.72912
-5.72913
-5.72913
-5.72914
-5.72914
-5.72914
-5.72914
-5.72913
-5.72911
-5.72904
-5.74471
)
;
    }
    defaultFaces
    {
        type            empty;
    }
}


// ************************************************************************* //
