/*--------------------------------*- C++ -*----------------------------------*\
  =========                 |
  \\      /  F ield         | OpenFOAM: The Open Source CFD Toolbox
   \\    /   O peration     | Website:  https://openfoam.org
    \\  /    A nd           | Version:  9
     \\/     M anipulation  |
\*---------------------------------------------------------------------------*/
FoamFile
{
    format      ascii;
    class       volScalarField;
    location    "23.05";
    object      p;
}
// * * * * * * * * * * * * * * * * * * * * * * * * * * * * * * * * * * * * * //

dimensions      [0 2 -2 0 0 0 0];

internalField   nonuniform List<scalar> 
918
(
23.4698
23.5781
0.957121
22.8872
1.01318
23.0946
3.27709
13.7865
19.243
2.93419
2.62351
14.4089
20.6375
16.879
12.9955
0.924522
14.0528
2.25105
18.4606
1.39871
12.9944
20.4484
21.5372
19.2847
14.1218
14.3742
18.5999
1.14828
0.108945
0.257167
0.977783
0.409446
0.14785
21.6315
22.3081
22.2464
15.4955
10.4053
3.60152
3.80574
2.98749
2.81098
13.829
13.9289
5.86936
13.7654
13.7612
16.6445
19.111
19.2546
19.5478
19.3369
19.7232
5.97745
2.78609
2.60688
2.87538
2.94913
2.98146
2.69597
2.67747
2.48143
2.33548
13.8883
14.482
14.5372
14.2684
14.216
22.4542
21.6972
22.0319
21.1383
21.2837
20.2137
19.8281
17.2547
17.6071
16.4809
16.1001
12.7859
12.747
13.2154
13.4652
0.145631
1.07489
1.22261
14.0598
14.0962
14.0964
14.1109
8.28958
2.19277
2.19601
17.901
17.4775
20.4824
20.7496
20.1966
20.0111
1.53099
1.52629
1.15269
1.18228
0.951218
13.3355
13.4896
19.2361
18.403
14.1553
14.0553
14.1303
11.5006
13.9107
13.984
15.3238
15.7793
14.9686
15.405
18.1699
17.7519
19.0364
19.4737
0.394106
0.155313
0.687147
0.317948
0.516426
15.3638
15.1584
15.6114
15.6622
15.8935
10.41
10.3404
10.3843
10.3043
4.15264
4.46714
2.26019
2.5751
2.42612
9.87046
13.9451
13.9918
4.81382
5.5178
5.18139
6.35171
6.72597
16.0101
16.4467
16.1855
17.7318
16.9367
17.2849
19.814
19.3032
19.6037
6.37303
6.60785
5.61162
5.25256
2.24222
2.49024
2.43296
2.98027
2.95803
3.21661
3.34581
2.69716
2.55406
2.89141
2.77493
2.82684
2.16528
2.03554
13.6124
13.3985
14.1514
14.3299
15.0971
14.9488
14.6554
14.8241
19.0232
19.4266
19.4601
19.076
11.5474
10.1574
13.7197
13.9951
0.302142
0.26501
0.138102
0.380825
0.400218
0.141822
2.01444
1.82601
1.40485
1.68039
14.0573
14.017
8.53018
8.74969
8.12626
7.8698
16.3151
16.4654
17.0995
16.6993
1.96243
1.67645
1.80613
13.6524
13.525
13.6318
10.9357
10.3692
11.9783
12.248
13.9922
14.036
14.032
15.6834
16.0019
19.8245
20.0952
19.922
20.3078
21.3706
21.0219
20.6371
14.5397
14.9481
14.7865
16.1287
15.7624
15.9819
15.1897
15.4944
15.3523
10.3719
10.4181
10.1233
10.201
10.2491
10.1963
9.80794
9.68109
14.0783
14.0334
14.0574
7.25383
7.75179
4.87166
4.54248
12.5443
13.2175
12.893
18.6529
17.9753
18.7082
18.3374
17.8874
18.2109
10.4288
10.3903
10.4237
14.9194
14.2573
14.6092
2.43907
2.07488
2.23769
8.94569
9.03868
6.97655
7.59393
7.25665
16.3035
16.6438
17.324
16.4358
16.9034
17.4107
17.1888
9.94356
10.076
9.99301
9.66497
9.55866
9.73603
8.33685
8.95005
3.61256
4.27045
3.96565
9.20656
9.43603
9.28338
18.6307
19.1656
0.767018
1.15539
19.5956
19.3193
0.14032
0.242318
14.2558
12.5534
7.26424
17.1979
16.6305
18.9704
3.1926
6.10482
2.80695
3.3807
2.68637
14.616
14.2501
13.3412
0.453864
1.25701
1.70821
2.90075
18.4112
17.736
18.8521
19.1722
19.2266
0.688115
0.913842
0.584248
1.24202
1.03101
1.27544
15.5516
15.6497
4.32712
18.8591
19.1634
19.1811
17.6579
18.6105
17.668
0.935879
0.642873
0.708028
10.0815
12.1223
14.216
13.7686
13.9656
13.9877
13.7387
14.8719
14.5414
14.5063
14.9911
13.9676
13.8226
7.73557
6.38498
8.07018
7.71047
17.0993
16.6872
16.4941
16.2397
18.0855
17.6116
18.462
17.8504
18.3122
18.5991
2.94176
3.13185
3.01284
2.52233
6.14501
6.61056
5.48982
5.63679
4.26058
2.42612
2.52501
2.75134
2.58245
2.93085
2.67877
2.94286
2.57874
2.32381
2.32078
2.93002
2.73768
2.60346
14.5944
14.5329
14.3337
14.3718
14.3543
14.47
13.5357
13.9404
13.5681
12.3993
12.9804
12.5077
0.826382
0.662528
0.525422
1.32456
1.35174
1.11062
0.834949
1.17416
1.20174
0.81435
1.54434
1.44491
3.15884
2.64825
8.84626
7.97468
6.90151
16.8011
17.603
16.7726
18.0134
18.4303
18.5357
18.1561
17.6479
15.7303
15.7254
15.3856
15.339
4.77288
3.73541
4.96937
4.53851
10.4803
14.066
11.8433
10.8046
11.1008
13.4247
13.9313
13.5835
13.7206
13.2955
12.8237
13.5157
13.0494
13.1507
12.9297
15.7201
16.1952
15.8017
15.2223
15.2422
10.6009
12.0166
5.46767
5.64143
7.24483
6.53919
13.5118
13.9339
13.9186
13.5575
13.7454
13.7461
13.6069
13.781
13.8611
13.7556
11.825
10.1447
9.04617
9.03977
14.0776
12.3468
12.9312
12.4142
16.121
16.6375
16.2522
15.6466
16.1317
15.6035
15.6307
15.8439
17.2021
16.9517
16.7215
17.1083
3.05312
3.00159
3.64584
3.13525
3.03735
2.82227
3.48386
4.75802
4.41562
6.71983
7.26949
4.57944
3.37278
3.79225
4.80669
5.54172
5.51274
3.96965
4.50259
4.93006
4.44118
5.22729
4.73136
2.71727
3.02297
2.86112
2.835
3.38199
3.88078
3.37603
2.47937
2.5903
2.25485
2.11761
3.53431
2.99257
3.02914
3.67716
1.10689
1.32915
1.4415
2.41316
1.91217
1.97841
15.1831
14.8271
14.9608
14.2399
14.3074
14.2486
13.873
15.2405
14.9625
15.062
13.7104
13.7972
13.6105
13.9058
14.3217
14.621
15.4529
15.174
14.413
14.564
14.215
14.1432
13.4652
12.9022
12.8417
1.11286
0.823808
0.983946
0.911391
0.607319
0.799481
2.18325
1.57256
1.96962
1.72733
1.96018
1.4034
1.30216
4.25349
5.06166
3.96662
3.36788
3.06717
8.90403
9.01572
8.16459
7.86084
8.2025
8.43269
8.38269
7.13931
7.56768
7.38044
9.91965
9.58481
17.5873
17.5314
17.2026
17.0437
17.2702
5.76218
7.6654
6.80003
7.91657
10.2091
10.5052
9.31224
8.70703
9.45926
9.53654
14.0477
14.1239
13.5647
14.0506
14.079
11.8356
12.8829
13.4977
13.3121
13.832
13.913
12.9741
13.5628
13.4779
12.7605
12.8135
12.1284
12.4669
11.995
11.7941
14.0566
13.9513
14.2211
13.7719
14.1512
13.7155
14.0307
14.0287
14.3093
13.4113
12.8327
12.8511
13.2773
12.9774
13.3234
13.4874
9.30905
9.94988
10.3894
10.9252
10.6328
10.4145
10.2817
10.5834
10.5604
10.8315
10.7509
10.6016
11.5616
13.4182
13.7032
13.8048
13.6012
13.6474
13.34
13.6131
13.5422
13.9205
14.0086
14.0582
13.1389
13.2952
13.4903
13.3739
11.6759
10.0969
9.94951
9.50944
7.5776
8.04744
11.0256
9.90283
8.91844
8.99023
12.1692
10.8066
11.6199
12.043
10.6946
10.3067
12.9719
13.7601
13.9799
13.704
12.0607
12.1865
12.6363
13.0797
13.2691
13.725
15.8609
16.4365
16.5144
16.2385
16.1005
16.2003
15.9504
16.0535
16.5276
16.6541
16.4854
2.8781
2.99148
2.9217
2.84721
3.08425
2.85937
3.95375
3.94391
3.15439
3.33506
3.35503
3.46103
2.92882
2.97211
4.82578
5.06176
5.33352
4.83216
6.17494
6.81982
7.40187
7.08508
5.78935
5.87008
6.18648
3.50549
3.53335
3.2513
3.70811
3.76084
2.60972
2.23736
2.0424
2.56127
2.66414
2.049
1.76758
1.81651
2.33026
2.04976
1.80423
14.9756
14.7339
14.7553
14.5351
14.5897
14.9845
15.2054
15.0154
15.1538
15.2048
14.804
14.6928
14.864
1.81799
1.49299
1.62239
1.57995
1.64251
1.54888
1.73629
7.60786
6.41553
6.80292
5.97907
4.12166
4.64222
9.54229
9.96418
10.0025
9.71464
9.5041
9.86971
9.72061
9.71366
8.26495
9.33566
8.87013
9.2664
9.28711
9.35533
9.06857
9.08134
10.5853
10.6187
9.4835
10.1236
9.33193
7.93273
8.09979
9.11332
10.087
10.4072
10.2519
9.98128
9.7527
10.117
10.1717
10.232
10.2214
8.75252
8.71187
8.31155
13.9694
13.876
14.0226
14.0277
14.1547
13.9793
13.8164
14.0936
14.1479
13.9321
11.0795
11.1386
11.3843
12.1314
12.1834
12.0933
11.338
13.1026
12.758
13.3962
13.3428
13.4149
13.0048
12.8282
13.0988
10.0814
11.4541
10.9868
11.2504
10.0639
9.30767
13.2242
13.2783
13.3439
13.6169
13.5747
14.1583
15.8308
15.7007
15.748
15.791
15.4027
15.44
4.17461
3.82787
4.54846
4.50489
4.06328
3.76345
2.28673
1.96854
1.78091
1.65532
1.88888
1.94947
8.1623
8.19063
6.33378
7.35634
5.8772
4.93611
4.79208
5.95532
7.13668
7.19628
8.5158
9.19387
8.7523
8.57815
7.92119
8.25168
10.1197
10.2138
10.1144
10.4332
9.96594
11.7144
11.2966
11.6455
13.2598
12.9691
12.3709
12.2576
12.2225
12.8157
11.9481
11.1796
11.8923
12.5481
12.5063
11.12
10.875
11.3016
11.2853
10.1993
10.7198
10.4818
10.8341
10.5491
)
;

boundaryField
{
    wall-4
    {
        type            zeroGradient;
    }
    velocity-inlet-5
    {
        type            zeroGradient;
    }
    velocity-inlet-6
    {
        type            zeroGradient;
    }
    pressure-outlet-7
    {
        type            fixedValue;
        value           uniform 0;
    }
    wall-8
    {
        type            zeroGradient;
    }
    frontAndBackPlanes
    {
        type            empty;
    }
}


// ************************************************************************* //
