/*--------------------------------*- C++ -*----------------------------------*\
  =========                 |
  \\      /  F ield         | OpenFOAM: The Open Source CFD Toolbox
   \\    /   O peration     | Website:  https://openfoam.org
    \\  /    A nd           | Version:  9
     \\/     M anipulation  |
\*---------------------------------------------------------------------------*/
FoamFile
{
    format      ascii;
    class       surfaceScalarField;
    location    "2.16";
    object      alphaPhi0.water;
}
// * * * * * * * * * * * * * * * * * * * * * * * * * * * * * * * * * * * * * //

dimensions      [0 3 -1 0 0 0 0];

internalField   nonuniform List<scalar> 
4432
(
-5.47653e-07
5.47653e-07
-5.13025e-07
-3.46235e-08
-3.15089e-07
-1.97942e-07
-1.0734e-07
-2.07746e-07
5.53515e-08
-1.62692e-07
1.73399e-07
-1.18046e-07
2.58565e-07
-8.51656e-08
3.23671e-07
-6.51055e-08
3.76032e-07
-5.23604e-08
4.15842e-07
-3.98086e-08
4.37045e-07
-2.12002e-08
4.31012e-07
6.03518e-09
3.86273e-07
4.47406e-08
2.97814e-07
8.8462e-08
1.61224e-07
1.3659e-07
-3.27923e-08
1.94013e-07
-2.98777e-07
2.65985e-07
-8.18164e-07
5.27163e-07
-2.03732e-06
1.2186e-06
-3.31774e-06
1.25031e-06
-3.71793e-06
4.03348e-07
-2.84466e-06
-8.84116e-07
-2.85566e-06
-2.86836e-07
8.34482e-07
-1.98386e-07
-1.23066e-07
-5.26916e-08
-3.43642e-07
8.6646e-08
-3.4708e-07
2.01326e-07
-2.77372e-07
2.88762e-07
-2.05481e-07
3.56137e-07
-1.5254e-07
4.09535e-07
-1.18501e-07
4.51117e-07
-9.39393e-08
4.78521e-07
-6.72087e-08
4.85945e-07
-2.86201e-08
4.65958e-07
2.60246e-08
4.15035e-07
9.5666e-08
3.3039e-07
1.73106e-07
2.08406e-07
2.58568e-07
3.60666e-08
3.66345e-07
-2.2521e-07
5.27261e-07
-6.09239e-07
9.24427e-07
-1.15449e-06
1.76332e-06
-1.78306e-06
1.85363e-06
-2.13248e-06
7.42633e-07
-1.9018e-06
-1.12485e-06
-4.77348e-06
-6.75558e-08
9.02032e-07
1.27971e-08
-2.03411e-07
1.22659e-07
-4.53507e-07
2.2421e-07
-4.48628e-07
3.0933e-07
-3.62492e-07
3.77436e-07
-2.73586e-07
4.32143e-07
-2.07246e-07
4.7582e-07
-1.62176e-07
5.07926e-07
-1.26042e-07
5.24861e-07
-8.4142e-08
5.21112e-07
-2.48699e-08
4.91559e-07
5.5578e-08
4.34703e-07
1.52523e-07
3.51174e-07
2.56634e-07
2.39722e-07
3.70018e-07
8.8882e-08
5.17185e-07
-1.2951e-07
7.45683e-07
-3.9077e-07
1.19701e-06
-6.02779e-07
1.97477e-06
-8.44111e-07
2.09444e-06
-1.05521e-06
9.40003e-07
-1.02295e-06
-1.1571e-06
-5.79642e-06
9.73053e-08
8.04722e-07
1.774e-07
-2.83499e-07
2.6523e-07
-5.41339e-07
3.42381e-07
-5.25776e-07
4.06888e-07
-4.26998e-07
4.6012e-07
-3.26816e-07
5.04173e-07
-2.51296e-07
5.39042e-07
-1.97043e-07
5.62356e-07
-1.49355e-07
5.6973e-07
-9.15155e-08
5.55979e-07
-1.11201e-08
5.17551e-07
9.40046e-08
4.54853e-07
2.1522e-07
3.71646e-07
3.3984e-07
2.69891e-07
4.71771e-07
1.42412e-07
6.44663e-07
-2.44457e-08
9.12543e-07
-1.94884e-07
1.36831e-06
-2.23818e-07
2.04702e-06
-2.19276e-07
2.08884e-06
-2.66008e-07
9.85928e-07
-2.52694e-07
-1.17041e-06
-6.04898e-06
2.08427e-07
5.96292e-07
3.09186e-07
-3.84252e-07
3.87539e-07
-6.19693e-07
4.49369e-07
-5.87604e-07
4.99188e-07
-4.76816e-07
5.40705e-07
-3.6833e-07
5.75566e-07
-2.86156e-07
6.02229e-07
-2.23704e-07
6.17072e-07
-1.64197e-07
6.15207e-07
-8.96531e-08
5.91741e-07
1.23421e-08
5.44284e-07
1.41458e-07
4.75049e-07
2.8445e-07
3.90869e-07
4.24016e-07
2.97473e-07
5.65162e-07
1.92525e-07
7.49605e-07
7.16064e-08
1.03346e-06
-2.51022e-08
1.46503e-06
2.59705e-08
2.00066e-06
1.7054e-07
1.98019e-06
2.69123e-07
8.95847e-07
2.88034e-07
-1.18923e-06
-5.76076e-06
2.86302e-07
3.09987e-07
4.14615e-07
-5.12559e-07
4.92792e-07
-6.9787e-07
5.46236e-07
-6.41046e-07
5.86131e-07
-5.16708e-07
6.18747e-07
-4.00944e-07
6.45845e-07
-3.13251e-07
6.64841e-07
-2.42699e-07
6.71341e-07
-1.70698e-07
6.6021e-07
-7.85266e-08
6.26829e-07
4.57189e-08
5.6972e-07
1.98563e-07
4.92577e-07
3.6159e-07
4.05177e-07
5.11413e-07
3.1698e-07
6.53356e-07
2.29323e-07
8.37259e-07
1.41424e-07
1.12135e-06
8.72526e-08
1.51919e-06
1.64955e-07
1.92296e-06
3.49646e-07
1.79759e-06
5.11851e-07
7.34028e-07
5.72562e-07
-1.25007e-06
-5.18802e-06
3.42317e-07
-3.23311e-08
4.97895e-07
-6.68134e-07
5.81249e-07
-7.81222e-07
6.31637e-07
-6.91432e-07
6.65794e-07
-5.50864e-07
6.92226e-07
-4.27373e-07
7.12976e-07
-3.33998e-07
7.24731e-07
-2.54453e-07
7.22792e-07
-1.68761e-07
7.02147e-07
-5.7884e-08
6.58399e-07
8.94644e-08
5.90803e-07
2.66159e-07
5.03947e-07
4.48449e-07
4.10133e-07
6.0523e-07
3.22021e-07
7.41474e-07
2.42838e-07
9.16446e-07
1.70865e-07
1.19333e-06
1.28514e-07
1.56155e-06
1.80318e-07
1.87116e-06
3.0661e-07
1.6713e-06
4.30833e-07
6.09805e-07
5.4487e-07
-1.36411e-06
-4.64363e-06
3.82792e-07
-4.15124e-07
5.60533e-07
-8.45873e-07
6.51186e-07
-8.71874e-07
7.02761e-07
-7.43006e-07
7.35206e-07
-5.83307e-07
7.58219e-07
-4.50384e-07
7.74001e-07
-3.49778e-07
7.7871e-07
-2.59162e-07
7.6791e-07
-1.57963e-07
7.37535e-07
-2.75136e-08
6.83045e-07
1.43952e-07
6.04353e-07
3.44849e-07
5.05994e-07
5.46808e-07
4.01958e-07
7.09265e-07
3.07313e-07
8.36118e-07
2.25502e-07
9.98252e-07
1.49668e-07
1.26916e-06
8.47931e-08
1.62642e-06
5.96609e-08
1.89628e-06
4.06698e-08
1.69028e-06
-3.997e-08
6.90445e-07
-1.09407e-07
-1.29467e-06
-4.7532e-06
-2.56492e-06
2.59283e-06
-2.38322e-06
-1.84135e-07
-5.07008e-07
-1.89538e-06
1.46751e-06
-1.99097e-06
3.14621e-06
-1.6994e-06
4.54979e-06
-1.43643e-06
4.80291e-06
-3.23117e-07
2.06206e-06
2.6675e-06
-2.06148e-06
4.1219e-06
-4.91945e-06
2.84788e-06
-5.96632e-06
1.02638e-06
-6.02447e-06
5.78781e-08
-6.09168e-06
3.06442e-07
-6.37496e-06
2.83756e-07
-5.2635e-06
-1.11097e-06
-3.27211e-06
-1.99088e-06
-1.78173e-06
-1.48986e-06
-1.00611e-06
-7.75395e-07
-1.02925e-06
-1.92937e-06
4.52615e-06
-1.3642e-06
-7.68963e-07
-3.58046e-07
-2.90181e-06
7.14388e-07
-3.06367e-06
1.57149e-06
-2.55677e-06
1.99291e-06
-1.85814e-06
1.71823e-06
-1.31291e-07
-1.60864e-07
4.22342e-06
-3.30778e-06
7.01177e-06
-5.43311e-06
4.9587e-06
-6.39012e-06
1.96365e-06
-6.72577e-06
4.20803e-07
-6.61994e-06
4.45449e-07
-6.1618e-06
-1.73972e-07
-4.79102e-06
-2.48129e-06
-2.80972e-06
-3.9728e-06
-1.20809e-06
-3.16083e-06
-3.9084e-07
-1.62623e-06
-1.41988e-06
-1.23536e-06
5.76554e-06
-8.69226e-07
-1.14262e-06
-4.57665e-07
-3.31327e-06
-6.72343e-09
-3.51486e-06
2.3662e-07
-2.80029e-06
4.26484e-08
-1.66433e-06
-5.64165e-07
4.94232e-07
-1.71182e-06
5.47941e-06
-3.81548e-06
8.09517e-06
-5.46175e-06
6.60351e-06
-6.38473e-06
2.88556e-06
-6.91245e-06
9.58079e-07
-6.74462e-06
5.23917e-07
-6.11842e-06
-7.99798e-07
-4.71481e-06
-3.88451e-06
-2.79355e-06
-6.08175e-06
-1.11587e-06
-4.83749e-06
-7.22677e-08
-2.66921e-06
-1.49194e-06
-6.91751e-07
6.48662e-06
-7.22632e-07
-1.11619e-06
-7.77442e-07
-3.25914e-06
-7.9829e-07
-3.49426e-06
-1.00291e-06
-2.59595e-06
-1.61556e-06
-1.05179e-06
-2.50318e-06
1.39592e-06
-3.00325e-06
6.1834e-06
-3.85648e-06
8.9435e-06
-5.34286e-06
6.73902e-06
-6.24853e-06
3.7906e-06
-6.87516e-06
1.58476e-06
-6.85036e-06
6.79459e-07
-6.15256e-06
-1.43155e-06
-4.89708e-06
-5.3437e-06
-3.00878e-06
-7.90387e-06
-1.35582e-06
-6.29354e-06
-1.8648e-07
-3.56299e-06
-1.509e-06
-4.20042e-07
6.91047e-06
-8.8777e-07
-6.47889e-07
-1.32177e-06
-2.82996e-06
-1.69421e-06
-3.1221e-06
-2.24148e-06
-2.04896e-06
-3.16337e-06
-1.30154e-07
-4.02729e-06
2.38813e-06
-4.02841e-06
6.63781e-06
-4.07991e-06
8.99031e-06
-4.6658e-06
7.32055e-06
-5.94251e-06
4.36916e-06
-6.64073e-06
2.28305e-06
-6.89078e-06
9.49222e-07
-6.41221e-06
-2.0018e-06
-5.25698e-06
-6.61567e-06
-3.44868e-06
-9.49297e-06
-1.65319e-06
-7.25243e-06
-5.52176e-07
-4.66362e-06
-2.06078e-06
-4.77991e-07
7.36523e-06
-1.40113e-06
2.69973e-07
-2.09971e-06
-2.13162e-06
-2.70148e-06
-2.52079e-06
-3.47387e-06
-1.27685e-06
-4.59376e-06
9.89532e-07
-5.41398e-06
3.43433e-06
-4.97333e-06
6.98279e-06
-4.52973e-06
8.54204e-06
-4.70739e-06
7.49351e-06
-5.59756e-06
5.00139e-06
-6.31183e-06
2.99737e-06
-6.6772e-06
1.31466e-06
-6.34821e-06
-2.33072e-06
-5.48371e-06
-7.4801e-06
-4.10154e-06
-1.09591e-05
-2.24609e-06
-9.93138e-06
-8.82452e-07
-6.02668e-06
-2.94282e-06
-1.02897e-06
8.38452e-06
-2.31216e-06
1.55202e-06
-3.11461e-06
-1.32944e-06
-3.82079e-06
-1.81488e-06
-4.69336e-06
-4.04702e-07
-5.88077e-06
2.17521e-06
-6.81392e-06
4.44023e-06
-5.9597e-06
6.84036e-06
-5.00146e-06
8.27173e-06
-4.87824e-06
7.43502e-06
-5.26009e-06
5.39056e-06
-5.84957e-06
3.58691e-06
-6.22044e-06
1.68558e-06
-6.05185e-06
-2.50495e-06
-5.48232e-06
-8.05217e-06
-4.62486e-06
-1.18195e-05
-3.05682e-06
-1.15034e-05
-1.41103e-06
-8.3245e-06
-4.80219e-06
-2.63006e-06
1.10049e-05
-3.65707e-06
2.57901e-06
-4.35306e-06
-6.3497e-07
-5.05954e-06
-1.10863e-06
-5.89152e-06
4.2706e-07
-6.99589e-06
3.27936e-06
-7.7986e-06
5.24271e-06
-7.26598e-06
6.30775e-06
-5.96924e-06
7.10678e-06
-5.04047e-06
6.57374e-06
-4.9871e-06
5.3369e-06
-5.25888e-06
3.85874e-06
-5.43113e-06
1.79325e-06
-5.36697e-06
-2.57823e-06
-5.07972e-06
-8.38022e-06
-4.58846e-06
-1.23147e-05
-3.64363e-06
-1.24538e-05
-1.92029e-06
-1.00556e-05
-6.73228e-06
8.69731e-07
-1.28485e-06
1.31427e-06
-1.29041e-06
1.5433e-06
-1.10089e-06
1.67079e-06
-8.70487e-07
1.74827e-06
-6.60768e-07
1.79576e-06
-4.97865e-07
1.81751e-06
-3.71514e-07
1.80344e-06
-2.45082e-07
1.74807e-06
-1.02591e-07
1.65085e-06
6.97029e-08
1.5011e-06
2.93706e-07
1.29865e-06
5.47306e-07
1.04798e-06
7.97474e-07
7.7931e-07
9.77936e-07
5.31257e-07
1.08417e-06
3.11067e-07
1.21844e-06
7.77818e-08
1.50244e-06
-2.26078e-07
1.93028e-06
-6.63659e-07
2.33387e-06
-1.44733e-06
2.47395e-06
-2.96133e-06
2.20444e-06
-5.9512e-06
1.69519e-06
1.73412e-06
-1.24385e-05
6.39939e-07
-1.06795e-06
1.01816e-06
-9.33339e-07
1.29034e-06
-7.73176e-07
1.49123e-06
-6.02095e-07
1.6268e-06
-4.43714e-07
1.68713e-06
-3.06513e-07
1.68201e-06
-1.97915e-07
1.61513e-06
-9.25628e-08
1.51584e-06
2.16481e-09
1.36641e-06
1.20512e-07
1.19992e-06
2.4509e-07
1.02002e-06
3.82046e-07
7.97546e-07
5.41043e-07
5.03193e-07
6.88891e-07
1.35742e-07
8.07706e-07
-2.6692e-07
9.28781e-07
-6.92678e-07
1.13915e-06
-1.22789e-06
1.51453e-06
-2.13604e-06
2.09171e-06
-3.86169e-06
2.84486e-06
-7.02237e-06
3.77153e-06
-1.1892e-05
4.90612e-06
7.33564e-06
-1.74936e-05
-4.11065e-08
-5.49231e-11
3.62404e-08
-1.05452e-09
1.39603e-07
-1.41501e-08
2.32003e-07
-2.31777e-08
2.92291e-07
-1.85787e-08
3.0096e-07
-1.09142e-09
2.75407e-07
-6.29748e-12
2.28261e-07
0
1.76307e-07
3.89948e-09
1.24214e-07
7.57589e-09
8.41958e-08
1.43171e-08
7.30761e-08
2.25004e-08
6.4685e-08
6.9959e-09
1.32159e-08
2.51062e-08
-1.32961e-07
4.41532e-08
-3.58128e-07
6.60081e-08
-5.4329e-07
8.01653e-08
-6.69327e-07
1.04299e-07
-9.00728e-07
1.20998e-07
-1.48175e-06
1.25492e-07
-2.82639e-06
1.20545e-07
-6.43522e-06
0
1.33775e-06
-1.2717e-05
-8.3424e-11
0
-9.98617e-11
-1.06529e-09
-6.52998e-11
-1.42779e-08
5.7556e-12
-2.36213e-08
5.67755e-11
-1.85628e-08
4.04092e-11
-1.07789e-09
2.19002e-11
9.18577e-12
-1.42348e-11
0
-9.91294e-11
0
-2.96061e-10
0
-6.66099e-10
0
-7.20254e-10
-2.13017e-10
-3.98746e-10
-7.41007e-09
-2.8488e-10
0
-2.14608e-09
0
-9.74441e-09
9.2136e-09
-1.55882e-08
0
-1.61482e-08
0
-1.49885e-08
0
-1.87227e-08
0
-3.71072e-08
0
-1.32131e-07
0
1.66016e-08
-8.53422e-07
0
4.37684e-09
-3.304e-08
-9.98936e-09
-1.02212e-07
-2.86652e-08
-9.96174e-08
-2.45184e-08
-8.06486e-08
-2.48454e-08
-2.0454e-09
-5.32368e-09
-3.28926e-09
1.2502e-09
-2.8323e-08
7.62335e-09
-6.07256e-08
2.16017e-08
-4.56712e-08
4.21263e-09
-7.80574e-08
1.38778e-09
-2.57765e-07
-2.4641e-08
-2.30134e-07
-3.03794e-08
-2.40501e-07
1.5295e-08
-3.25317e-08
8.68219e-08
-8.12852e-08
2.13809e-08
-2.47971e-07
1.42096e-08
-6.12831e-07
-1.399e-07
-4.22721e-07
-1.60065e-07
-3.31796e-07
-5.9142e-08
-1.51747e-07
8.45856e-08
-2.05014e-08
6.18614e-08
9.23137e-09
-1.38177e-08
-7.36986e-08
3.76624e-08
-8.94204e-08
7.089e-09
-1.11935e-07
-4.73825e-09
-1.27438e-07
-7.37728e-09
-1.29616e-07
-2.1017e-08
-1.23415e-07
-9.88076e-09
-4.4921e-08
1.28636e-08
-1.00118e-08
2.26461e-08
-2.79594e-07
1.94922e-08
-3.05223e-07
3.42144e-08
-3.14885e-07
1.5445e-08
-3.22433e-07
-1.24214e-08
-3.23754e-07
-2.41339e-08
-3.21409e-07
1.76112e-08
0
3.73606e-08
-2.87586e-07
9.54647e-08
-7.40326e-07
2.75856e-08
-7.67995e-07
-8.2671e-08
-6.86534e-07
-2.09285e-07
-6.13168e-07
-1.02947e-07
-9.62444e-08
4.16645e-08
-9.27665e-09
6.84303e-09
6.84618e-09
-7.17718e-09
-6.77873e-09
8.14469e-08
-2.5311e-08
9.09684e-09
-2.93237e-08
2.49803e-10
-7.24923e-08
0
-1.34546e-07
-4.22438e-09
-1.40941e-07
-4.83646e-10
-1.36625e-07
1.24345e-08
-1.33041e-07
2.31893e-08
-5.75526e-08
6.18338e-09
-2.85361e-08
1.28422e-09
-3.37238e-08
1.86585e-10
-1.68711e-07
2.20175e-13
-2.61219e-07
-1.55755e-09
-1.6897e-07
3.81785e-09
-1.168e-07
0
-7.95135e-08
1.18333e-10
-1.12151e-07
0
-5.30621e-07
-2.75037e-09
-8.13492e-07
-4.17683e-08
-5.62533e-08
-2.30294e-08
-1.33369e-08
0
-1.03648e-08
3.61075e-09
5.63504e-09
-9.41084e-09
8.78376e-09
6.36817e-08
-3.82821e-10
0
-2.31754e-10
9.93178e-11
-9.05298e-11
0
-4.32552e-09
0
-2.15308e-08
0
-3.17166e-08
0
-2.06788e-08
0
-1.48856e-09
5.06143e-11
-2.05855e-10
8.58921e-13
-2.05157e-11
7.22848e-13
-2.05168e-11
7.98692e-14
-1.5884e-09
0
-1.55164e-09
0
-2.14027e-09
0
-7.59206e-10
0
-1.63155e-10
1.04657e-11
-2.99738e-09
2.93857e-13
-4.53336e-08
-1.71809e-11
-4.95626e-07
5.63837e-10
-4.32988e-07
2.16526e-08
-1.44756e-08
3.81549e-08
3.014e-09
-1.10362e-08
9.33773e-09
3.61683e-08
-1.02608e-10
4.73734e-10
-6.9695e-12
3.72788e-12
-7.23038e-12
2.02003e-13
-1.80286e-11
1.97292e-12
-4.67706e-11
0
-6.86365e-11
0
-5.15373e-11
6.0067e-12
-1.61955e-12
5.69018e-13
-8.54546e-13
3.82399e-14
-1.33029e-13
4.69141e-15
-9.17427e-14
7.35821e-15
-1.70721e-11
1.65998e-13
-6.78957e-11
0
-8.00681e-11
1.95847e-13
-6.38481e-11
5.10738e-13
-3.34513e-11
8.28667e-12
-3.95731e-11
5.66889e-11
-3.84479e-10
1.33284e-10
-1.39137e-07
1.86136e-09
-4.87302e-07
3.8805e-09
-4.25989e-07
6.88138e-09
2.08389e-08
-4.09747e-07
-4.75176e-10
0
-3.83707e-12
2.44328e-12
-2.16307e-13
1.54403e-13
-1.16621e-13
2.32296e-14
-9.25573e-12
1.83875e-12
-2.57112e-11
5.60436e-12
-6.22217e-12
1.23391e-12
-4.88687e-13
3.15055e-13
-4.80187e-14
1.26863e-13
-5.77752e-14
8.44722e-15
-5.76464e-14
1.40037e-14
-9.64068e-14
1.78428e-14
-3.75404e-13
8.22427e-16
-4.04082e-13
0
-2.36095e-13
1.32986e-14
-7.30883e-13
1.37809e-14
-3.48758e-11
1.72096e-11
0
1.62709e-10
-1.03146e-10
2.13206e-10
-3.98918e-09
0
-4.34348e-08
0
-9.22492e-08
-1.31432e-09
-2.37002e-16
-8.82782e-08
-2.52262e-12
4.71338e-14
-1.11036e-13
7.66034e-14
-3.15686e-14
1.24675e-13
-5.25818e-14
7.07769e-14
-7.51715e-12
7.64731e-13
-1.22938e-11
5.86081e-12
-2.13436e-11
5.77038e-12
-1.60264e-13
5.14171e-12
-3.55477e-14
2.49393e-15
-8.06467e-14
1.18569e-14
-9.54701e-14
3.19812e-14
-8.21524e-14
3.41379e-14
-5.00624e-14
1.37676e-14
-3.52485e-14
2.35079e-15
-3.98636e-14
2.35764e-14
-3.85463e-13
3.48386e-13
-4.90227e-12
1.49301e-11
-8.45361e-11
1.0938e-11
-6.71519e-10
5.44468e-11
-9.60676e-10
4.43618e-12
-2.82097e-10
0
-2.10181e-15
-2.20464e-11
-3.95749e-16
-2.32417e-15
-1.02634e-13
2.12044e-13
-2.20841e-14
2.33682e-13
-2.69159e-14
1.78205e-13
0
9.02675e-14
-7.88341e-13
1.82225e-14
-1.10675e-11
1.10572e-12
-1.70209e-11
7.41717e-12
-1.34507e-14
3.97398e-12
-1.16988e-14
1.29362e-15
-2.95609e-14
2.58296e-15
-3.72095e-14
6.27339e-15
-3.08378e-14
7.11553e-15
-8.92821e-15
3.04716e-15
0
2.21407e-15
0
2.67475e-14
-6.78455e-12
1.47279e-12
-2.23246e-12
0
-1.13995e-12
0
-6.82649e-11
0
-1.89994e-10
0
-2.53237e-10
0
-6.99523e-15
-4.89783e-12
-2.20597e-15
-5.56612e-15
-1.93559e-14
2.15351e-13
-4.06698e-13
7.58894e-13
-1.22918e-14
2.80697e-11
-1.55228e-14
1.27598e-13
0
3.44597e-14
-3.24009e-12
0
-3.97124e-12
7.25788e-15
-3.7282e-15
5.70688e-15
-3.32129e-15
1.32182e-15
-1.65901e-15
1.23566e-15
-2.01617e-15
6.42069e-17
-1.30092e-15
6.08332e-17
-1.127e-15
6.1253e-17
-6.414e-15
1.24926e-15
-3.43333e-13
4.97822e-14
-4.15346e-14
1.43791e-15
-1.44637e-14
9.40276e-16
-3.30629e-13
2.48661e-14
-6.80807e-12
0
-6.0369e-12
0
-2.45163e-12
0
-6.1793e-14
-2.35825e-17
-7.9957e-17
-1.16029e-15
7.72527e-16
2.10821e-13
-1.06399e-12
7.7565e-13
-1.36596e-12
4.26087e-11
-5.05753e-14
9.34974e-12
-1.84493e-14
8.43923e-15
-1.93909e-14
0
-1.52832e-14
9.06524e-16
-1.03184e-14
0
-6.92254e-15
8.57122e-15
-6.58678e-17
4.63573e-15
-1.27536e-17
1.10924e-17
-1.16997e-17
1.44382e-17
-1.47179e-16
2.68364e-17
-6.59026e-15
2.57518e-16
-1.80698e-15
2.41276e-16
-5.17296e-16
1.18703e-17
-1.01024e-15
1.38284e-16
-2.38278e-13
2.68569e-14
-4.5797e-13
0
-2.23804e-13
4.44435e-16
-3.40295e-17
5.15065e-16
-3.25161e-17
-1.56127e-16
-3.25331e-16
-2.74083e-17
1.45589e-14
1.96209e-13
1.8285e-14
7.6575e-13
-9.2965e-14
4.58784e-11
-7.63951e-15
3.14108e-11
-1.85087e-15
7.4934e-15
-4.8509e-16
2.25278e-15
-3.53309e-16
8.23543e-16
-2.09891e-15
1.18011e-15
-2.40146e-15
2.00336e-15
3.49161e-19
2.54889e-15
4.70798e-18
-4.53563e-19
5.6645e-18
-5.40127e-18
-1.57938e-17
-5.98828e-18
-3.07242e-17
1.60196e-17
-7.58929e-18
5.00889e-17
-1.15831e-17
1.57787e-17
-1.28957e-15
6.31487e-17
-7.95451e-15
5.69082e-16
-5.02407e-16
3.44015e-17
-2.20711e-17
4.27503e-19
5.81258e-17
-2.4458e-17
9.44309e-17
-6.57982e-16
-7.23496e-16
1.2728e-16
1.30264e-14
1.83905e-13
7.53227e-14
1.44501e-12
2.48087e-12
4.66365e-11
2.00647e-13
2.05735e-11
-3.22611e-16
1.00072e-13
-8.28899e-17
1.88594e-15
-1.07333e-16
9.48448e-16
-1.6907e-16
7.14539e-16
-2.33038e-16
5.1851e-16
-7.06905e-18
2.88992e-16
5.13461e-18
5.00681e-18
1.03262e-17
-1.04374e-17
1.1043e-17
-1.89044e-17
8.31047e-18
-1.9232e-17
6.18758e-18
-1.45854e-17
-1.36703e-18
-1.17077e-17
-2.5173e-17
3.0792e-18
8.11027e-19
9.46494e-17
4.261e-18
3.09513e-17
8.24642e-18
2.4963e-18
2.33326e-16
1.07121e-18
8.88936e-16
1.94373e-18
1.4126e-18
2.81105e-16
1.19978e-14
1.73384e-13
1.90772e-13
1.66734e-12
4.27949e-12
4.55992e-11
0
4.28804e-12
0
5.03902e-14
6.23702e-17
1.94321e-15
1.9048e-17
1.11603e-15
-1.40364e-17
7.92934e-16
-2.42879e-17
5.35157e-16
-5.40168e-18
2.33873e-16
1.06329e-18
3.35691e-17
3.67985e-18
-7.18336e-18
4.35443e-18
-2.23202e-17
3.03046e-18
-2.78581e-17
2.93215e-19
-2.72322e-17
-3.16827e-18
-2.28141e-17
-6.22637e-18
-1.57892e-17
-3.58323e-18
-4.0542e-18
-4.837e-18
-2.15673e-18
-6.75969e-18
-7.53029e-20
-5.29676e-18
3.25032e-18
-3.38116e-18
4.14116e-18
3.42908e-18
-1.48219e-18
1.74279e-14
1.63386e-13
7.18648e-13
2.04967e-12
1.75306e-12
0
0
0
0
1.80372e-14
2.05888e-16
2.32453e-15
1.55916e-16
1.32849e-15
1.12169e-16
9.78641e-16
6.46984e-17
6.49265e-16
2.15954e-17
3.1418e-16
7.31626e-18
7.16305e-17
6.93493e-22
1.32205e-19
-4.25836e-18
-1.90842e-17
-8.78462e-18
-2.76568e-17
-1.36886e-17
-2.89443e-17
-1.84039e-17
-2.52082e-17
-2.17774e-17
-1.8286e-17
-2.26327e-17
-1.02293e-17
-2.15035e-17
-3.28676e-18
-1.81858e-17
1.93587e-18
-1.30794e-17
4.9856e-18
-8.28608e-18
5.70393e-18
4.80245e-18
-4.52887e-18
2.48113e-14
1.51576e-13
1.37568e-13
4.39586e-13
1.7474e-14
0
1.04868e-15
1.56327e-15
1.10442e-15
3.39902e-15
3.56003e-16
2.33051e-15
2.85334e-16
1.37106e-15
2.3439e-16
1.0088e-15
1.60235e-16
6.76017e-16
7.39763e-17
3.55344e-16
1.12793e-17
1.03477e-16
1.91376e-18
6.25271e-18
-7.43191e-18
-1.33091e-17
-1.6316e-17
-2.26289e-17
-2.41334e-17
-2.48177e-17
-3.02583e-17
-2.17904e-17
-3.36379e-17
-1.54291e-17
-3.37093e-17
-7.94099e-18
-3.07408e-17
-1.25482e-18
-2.54039e-17
2.97657e-18
-1.89466e-17
5.09466e-18
-1.2676e-17
5.50447e-18
4.73799e-18
-7.49262e-18
7.84384e-15
1.31074e-13
6.27347e-15
0
7.37469e-16
1.99599e-15
4.25497e-16
1.78677e-15
5.00935e-16
1.73723e-15
4.66762e-16
1.62597e-15
3.90943e-16
1.33284e-15
3.27878e-16
9.98161e-16
2.32953e-16
6.64564e-16
1.17505e-16
3.5363e-16
2.44342e-17
1.07515e-16
5.9529e-18
9.4207e-18
-6.62317e-18
-7.6342e-18
-1.75997e-17
-1.58957e-17
-2.66532e-17
-1.80785e-17
-3.2976e-17
-1.57387e-17
-3.58546e-17
-1.06776e-17
-3.51792e-17
-4.7948e-18
-3.1494e-17
2.5138e-19
-2.57464e-17
2.72434e-18
-1.9394e-17
3.93435e-18
-1.34235e-17
4.07831e-18
3.5329e-18
-8.46751e-18
5.52526e-15
7.16709e-14
3.16922e-16
7.08476e-15
3.09426e-16
1.84896e-15
3.79712e-16
1.70791e-15
4.47421e-16
1.58059e-15
4.84091e-16
1.41277e-15
4.62211e-16
1.20625e-15
3.86752e-16
9.13783e-16
2.71025e-16
5.8839e-16
1.39194e-16
3.04345e-16
3.24508e-17
9.99597e-17
9.05275e-18
9.54064e-18
-3.97824e-18
-3.45313e-18
-1.42792e-17
-9.69837e-18
-2.23774e-17
-1.13797e-17
-2.75788e-17
-9.76106e-18
-2.95405e-17
-6.29492e-18
-2.85134e-17
-2.38177e-18
-2.51003e-17
5.50047e-19
-2.04589e-17
1.83252e-18
-1.54617e-17
2.40767e-18
-1.08642e-17
2.40972e-18
2.0648e-18
-7.11126e-18
2.39673e-15
1.85267e-14
2.75448e-16
5.93436e-15
3.04917e-16
1.71774e-15
3.84374e-16
1.59612e-15
4.53354e-16
1.46317e-15
4.90782e-16
1.28196e-15
4.76118e-16
1.05536e-15
3.93119e-16
7.67994e-16
2.61623e-16
4.62443e-16
1.26992e-16
2.16642e-16
3.053e-17
6.65456e-17
9.08639e-18
6.77732e-18
-1.75742e-18
-1.24255e-18
-9.53105e-18
-5.25185e-18
-1.5334e-17
-6.28574e-18
-1.87818e-17
-5.28394e-18
-1.97862e-17
-3.22761e-18
-1.87342e-17
-9.98616e-19
-1.62581e-17
4.0279e-19
-1.31714e-17
9.64672e-19
-9.9324e-18
1.19119e-18
-6.99424e-18
1.15604e-18
9.70982e-19
-4.63069e-18
5.24555e-16
2.59847e-15
2.79703e-16
2.5518e-15
2.98474e-16
1.55536e-15
3.81954e-16
1.44261e-15
4.49232e-16
1.29461e-15
4.71193e-16
1.09743e-15
4.35224e-16
8.41866e-16
3.34823e-16
5.55206e-16
1.99644e-16
2.92682e-16
8.32653e-17
1.13874e-16
1.68588e-17
2.69134e-17
5.02539e-18
1.98503e-18
-1.1277e-18
-6.80568e-19
-5.65649e-18
-2.65025e-18
-8.97349e-18
-3.10801e-18
-1.07726e-17
-2.52769e-18
-1.10603e-17
-1.45409e-18
-1.01824e-17
-3.58318e-19
-8.66527e-18
2.01978e-19
-6.94577e-18
4.07054e-19
-5.20369e-18
4.78789e-19
-3.64567e-18
4.51783e-19
3.71017e-19
-2.40574e-18
1.04872e-16
8.9728e-16
2.17321e-16
1.24408e-15
2.82441e-16
1.32238e-15
3.63212e-16
1.2223e-15
4.0754e-16
1.05208e-15
3.97863e-16
8.18571e-16
3.28543e-16
5.50762e-16
2.15884e-16
3.01169e-16
1.03412e-16
1.22733e-16
3.1396e-17
3.32096e-17
3.88507e-18
4.37638e-18
1.03403e-18
1.32703e-19
-1.04299e-18
-5.54283e-19
-3.10314e-18
-1.27655e-18
-4.6302e-18
-1.40074e-18
-5.33951e-18
-1.08255e-18
-5.26247e-18
-5.80651e-19
-4.64072e-18
-1.11069e-19
-3.82427e-18
7.79569e-20
-3.00387e-18
1.39039e-19
-2.22199e-18
1.55875e-19
-1.54164e-18
1.42712e-19
1.14415e-19
-1.00742e-18
6.18472e-17
6.74933e-16
1.66577e-16
9.23621e-16
2.55043e-16
1.05212e-15
3.15779e-16
9.31857e-16
3.21531e-16
7.31397e-16
2.71469e-16
4.86286e-16
1.82188e-16
2.5983e-16
8.92293e-17
1.01927e-16
2.83115e-17
2.59909e-17
4.69214e-18
3.63726e-18
2.14632e-19
1.63237e-19
5.23695e-20
3.14275e-20
-7.11086e-19
-3.40405e-19
-1.5527e-18
-5.74221e-19
-2.12807e-18
-5.76432e-19
-2.31215e-18
-4.16061e-19
-2.15062e-18
-2.05545e-19
-1.7854e-18
-2.96618e-20
-1.40079e-18
2.38941e-20
-1.06242e-18
3.82569e-20
-7.67621e-19
4.05782e-20
-5.23832e-19
3.57308e-20
2.77487e-20
-3.37546e-19
5.24948e-17
5.33425e-16
1.38817e-16
7.17333e-16
2.07986e-16
7.24284e-16
2.29879e-16
5.83502e-16
1.98009e-16
3.83951e-16
1.31253e-16
1.96769e-16
6.22015e-17
7.21552e-17
1.85727e-17
1.65619e-17
3.0003e-18
2.05207e-18
1.94788e-19
1.08548e-19
6.39692e-20
4.32603e-20
-9.25042e-20
-5.09183e-20
-3.98066e-19
-1.74742e-19
-6.95346e-19
-2.35498e-19
-8.64e-19
-2.13629e-19
-8.69171e-19
-1.41706e-19
-7.49326e-19
-6.35128e-20
-5.74451e-19
-6.59296e-21
-4.2111e-19
5.798e-21
-3.03265e-19
8.30066e-21
-2.1102e-19
8.23327e-21
-1.39961e-19
6.89899e-21
5.14326e-21
-8.80757e-20
4.01299e-17
3.40593e-16
9.73031e-17
4.45959e-16
1.33898e-16
3.6846e-16
1.19795e-16
2.43212e-16
7.83791e-17
1.18596e-16
3.5534e-17
4.02546e-17
9.93604e-18
8.45867e-18
1.48437e-18
9.59149e-19
1.00312e-19
5.2735e-20
4.19644e-20
9.48688e-22
-2.48052e-21
-1.5598e-21
-7.70139e-20
-3.94535e-20
-1.84568e-19
-7.54136e-20
-2.72355e-19
-8.57649e-20
-3.04473e-19
-6.97862e-20
-2.7896e-19
-4.18576e-20
-2.18585e-19
-1.66946e-20
-1.51273e-19
-1.11919e-21
-1.01332e-19
1.09641e-21
-6.79603e-20
1.38041e-21
-4.48432e-20
1.25979e-21
-2.85497e-20
9.91868e-22
7.02434e-22
-1.7366e-20
2.04315e-17
1.16862e-16
4.95019e-17
1.51008e-16
5.06634e-17
1.01021e-16
3.36057e-17
4.67616e-17
1.45361e-17
1.44093e-17
3.87139e-18
2.78214e-18
5.69894e-19
3.09324e-19
4.26584e-20
1.91583e-20
1.39325e-21
5.60772e-22
7.37655e-22
5.28662e-22
-1.1227e-20
-6.64982e-21
-3.94514e-20
-1.90571e-20
-7.17083e-20
-2.76297e-20
-9.1526e-20
-2.71446e-20
-9.12661e-20
-1.96332e-20
-7.48867e-20
-1.04611e-20
-5.22092e-20
-3.62344e-21
-3.17713e-20
-1.14538e-22
-1.89462e-20
1.58333e-22
-1.15618e-20
1.7047e-22
-7.10583e-21
1.39986e-22
-4.28358e-21
1.01934e-22
6.77599e-23
-2.49053e-21
4.62788e-18
1.21113e-17
1.17314e-17
1.66857e-17
8.65896e-18
9.05149e-18
3.61151e-18
2.70894e-18
9.16505e-19
4.89093e-19
1.40406e-19
5.60009e-20
1.27939e-20
4.2862e-21
6.24135e-22
2.04761e-22
3.51357e-22
2.87397e-22
-1.1639e-21
-7.9399e-22
-6.69026e-21
-3.77864e-21
-1.55492e-20
-7.16835e-21
-2.33082e-20
-8.56838e-21
-2.59142e-20
-7.31864e-21
-2.2807e-20
-4.65082e-21
-1.64695e-20
-2.15857e-21
-9.98598e-21
-6.30199e-22
-5.18711e-21
3.14704e-25
-2.67087e-21
1.71482e-23
-1.44049e-21
1.51793e-23
-8.06292e-22
1.08696e-23
-4.52902e-22
7.16702e-24
4.40758e-24
-2.48624e-22
3.14774e-19
2.56118e-19
8.93291e-19
4.14945e-19
4.84374e-19
1.96248e-19
1.25923e-19
4.37751e-20
2.07659e-20
5.9431e-21
2.42158e-21
6.02515e-22
1.8079e-22
4.58845e-23
1.17469e-22
1.67209e-24
-5.90771e-23
-4.6446e-23
-8.61078e-22
-5.65952e-22
-2.70853e-21
-1.47605e-21
-4.93411e-21
-2.19563e-21
-6.28311e-21
-2.22728e-21
-6.07749e-21
-1.65024e-21
-4.66482e-21
-9.08868e-22
-2.91237e-21
-3.59694e-22
-1.50029e-21
-8.54248e-23
-6.44374e-22
3.33297e-25
-2.76908e-22
1.38169e-24
-1.27181e-22
9.57003e-25
-6.2889e-23
5.71275e-25
-3.22365e-23
3.30658e-25
1.84508e-25
-1.64682e-23
6.41486e-21
1.94159e-21
2.10904e-20
3.67395e-21
9.97035e-21
1.79758e-21
2.13064e-21
4.25061e-22
3.12297e-22
6.26514e-23
3.34898e-23
6.55735e-24
1.97392e-24
4.19373e-25
1.39912e-24
1.2739e-24
-7.52811e-23
-5.75945e-23
-3.61211e-22
-2.31503e-22
-8.4207e-22
-4.47935e-22
-1.27138e-21
-5.52099e-22
-1.38932e-21
-4.797e-22
-1.16282e-21
-3.06214e-22
-7.6868e-22
-1.43994e-22
-4.07761e-22
-4.75138e-23
-1.74506e-22
-8.80334e-24
-6.03186e-23
5.11094e-26
-2.08596e-23
8.45338e-26
-7.7937e-24
4.33013e-26
-3.25978e-24
2.01498e-26
-1.47919e-24
9.72162e-27
4.77402e-27
-6.89802e-25
8.08475e-23
1.72694e-23
2.91817e-22
3.49377e-23
1.41394e-22
1.80718e-23
3.00804e-23
4.51924e-24
4.02145e-24
6.42629e-25
3.30202e-25
5.75409e-26
2.80128e-25
2.9819e-25
-3.74519e-24
-3.35122e-24
-3.38357e-23
-2.55091e-23
-1.10189e-22
-6.97102e-23
-2.07509e-22
-1.09016e-22
-2.65451e-22
-1.13737e-22
-2.49301e-22
-8.46816e-23
-1.79189e-22
-4.61432e-23
-1.0073e-22
-1.82378e-23
-4.46587e-23
-4.90143e-24
-1.55628e-23
-6.73142e-25
-4.30067e-24
4.6773e-27
-1.16361e-24
4.01689e-27
-3.35474e-25
1.46807e-27
-1.1118e-25
4.92929e-28
-4.24404e-26
1.8235e-28
7.46402e-29
-1.75277e-26
9.44587e-25
1.55084e-25
3.64977e-24
3.3614e-25
1.72959e-24
1.73381e-25
3.14684e-25
3.98886e-26
3.34422e-26
4.34826e-25
3.36462e-26
4.25035e-26
-2.66957e-25
-2.82042e-25
-2.09662e-24
-1.86854e-24
-1.02634e-23
-7.72578e-24
-2.5965e-23
-1.64242e-23
-4.08829e-23
-2.14768e-23
-4.46845e-23
-1.91139e-23
-3.59664e-23
-1.21474e-23
-2.20055e-23
-5.58993e-24
-1.03861e-23
-1.82671e-24
-3.78849e-24
-3.89983e-25
-1.05652e-24
-3.69931e-26
-2.33564e-25
2.91529e-28
-4.91956e-26
1.48524e-28
-1.05834e-26
3.89572e-29
-2.57628e-27
9.05769e-30
-7.61492e-28
2.31873e-30
7.15306e-31
-2.63836e-28
8.17281e-27
1.12412e-25
3.33554e-26
2.42603e-25
1.52752e-26
1.23939e-25
1.53115e-26
2.93388e-26
-5.13844e-26
-7.87832e-26
-1.1542e-25
-1.46148e-25
-1.91471e-25
-2.03673e-25
-6.74471e-25
-6.07283e-25
-2.3318e-24
-1.77761e-24
-4.82483e-24
-3.09471e-24
-6.45045e-24
-3.43549e-24
-6.03508e-24
-2.61173e-24
-4.14114e-24
-1.40791e-24
-2.13551e-24
-5.40695e-25
-8.35046e-25
-1.43535e-25
-2.4666e-25
-2.36655e-26
-5.41449e-26
-1.37544e-27
-9.56614e-27
1.27769e-29
-1.58245e-27
4.201e-30
-2.55629e-28
8.1419e-31
-4.39021e-29
1.34395e-31
-9.07136e-30
2.2614e-32
4.23777e-33
-2.38385e-30
-2.82102e-27
-1.94204e-26
-5.92713e-27
-2.19615e-26
-1.66194e-26
-4.19806e-26
-3.22415e-26
-6.20784e-26
-4.95428e-26
-7.68727e-26
-5.78398e-26
-7.45356e-26
-6.5436e-26
-7.11594e-26
-1.53917e-25
-1.42184e-25
-4.11242e-25
-3.22482e-25
-7.13461e-25
-4.71412e-25
-8.15417e-25
-4.47354e-25
-6.51901e-25
-2.89963e-25
-3.78622e-25
-1.31567e-25
-1.62723e-25
-4.16257e-26
-5.19446e-26
-8.80479e-27
-1.22076e-26
-1.08395e-27
-2.06906e-27
-2.91722e-29
-2.91181e-28
3.93405e-31
-3.81662e-29
8.77546e-32
-4.75889e-30
1.28306e-32
-5.9116e-31
1.58009e-33
-8.10849e-32
1.83089e-34
-4.50031e-35
-1.30202e-32
-2.01826e-27
-1.3661e-26
-6.12264e-27
-2.26615e-26
-1.05508e-26
-2.69561e-26
-1.4481e-26
-2.84528e-26
-1.64826e-26
-2.62824e-26
-1.56951e-26
-2.09064e-26
-1.47012e-26
-1.66066e-26
-2.64636e-26
-2.54973e-26
-5.72943e-26
-4.70104e-26
-8.4498e-26
-5.85441e-26
-8.27458e-26
-4.76352e-26
-5.62958e-26
-2.6236e-26
-2.7432e-26
-9.93586e-27
-9.69869e-27
-2.55472e-27
-2.48455e-27
-4.21651e-28
-4.54761e-28
-3.72039e-29
-5.80046e-29
-4.68555e-32
-6.43941e-30
8.50344e-33
-6.67747e-31
1.32655e-33
-6.53906e-32
1.47007e-34
-6.16675e-33
1.38203e-35
-5.87612e-34
1.15165e-36
-1.99866e-35
4.97351e-34
-5.07078e-28
-3.42786e-27
-1.74356e-27
-6.53643e-27
-2.79945e-27
-7.3284e-27
-3.42084e-27
-6.94978e-27
-3.43244e-27
-5.70311e-27
-2.90089e-27
-4.05358e-27
-2.39138e-27
-2.8505e-27
-3.53359e-27
-3.61104e-27
-6.38988e-27
-5.5854e-27
-8.07803e-27
-5.98374e-27
-6.77609e-27
-4.1807e-27
-3.90103e-27
-1.94953e-27
-1.57856e-27
-6.11306e-28
-4.52315e-28
-1.26086e-28
-9.11318e-29
-1.59053e-29
-1.26549e-29
-9.61102e-31
-1.17767e-30
3.18662e-34
-1.02071e-31
1.35801e-34
-8.31395e-33
1.47016e-35
-6.3909e-34
1.19833e-36
-4.66868e-35
8.39867e-38
-3.22012e-36
2.86739e-39
-2.33732e-36
5.30123e-35
-7.8451e-29
-5.29756e-28
-3.03294e-28
-1.15438e-27
-4.77226e-28
-1.28608e-27
-5.49536e-28
-1.16294e-27
-5.11198e-28
-8.93775e-28
-3.97031e-28
-5.88915e-28
-2.9664e-28
-3.78212e-28
-3.75294e-28
-4.13037e-28
-5.78952e-28
-5.48454e-28
-6.3078e-28
-5.09388e-28
-4.52537e-28
-3.0606e-28
-2.19047e-28
-1.20551e-28
-7.27961e-29
-3.11192e-29
-1.66312e-29
-5.10018e-30
-2.57626e-30
-4.8448e-31
-2.63214e-31
-1.93916e-32
-1.84314e-32
8.32478e-36
-1.20938e-33
1.53408e-36
-7.45844e-35
1.13024e-37
-4.33489e-36
6.53127e-39
-2.38338e-37
3.2756e-40
-6.75202e-39
-2.40435e-40
-9.4526e-38
4.51538e-36
-8.71588e-30
-5.67308e-29
-3.78164e-29
-1.43068e-28
-5.94416e-29
-1.63153e-28
-6.61184e-29
-1.45298e-28