/*--------------------------------*- C++ -*----------------------------------*\
  =========                 |
  \\      /  F ield         | OpenFOAM: The Open Source CFD Toolbox
   \\    /   O peration     | Website:  https://openfoam.org
    \\  /    A nd           | Version:  9
     \\/     M anipulation  |
\*---------------------------------------------------------------------------*/
FoamFile
{
    format      ascii;
    class       volScalarField;
    location    "2.16";
    object      epsilon;
}
// * * * * * * * * * * * * * * * * * * * * * * * * * * * * * * * * * * * * * //

dimensions      [0 2 -3 0 0 0 0];

internalField   nonuniform List<scalar> 
2268
(
0.00579287
0.032986
0.0657437
0.0990728
0.131635
0.163091
0.193186
0.221971
0.249504
0.275715
0.300347
0.322991
0.343287
0.360684
0.374286
0.382655
0.383426
0.371582
0.342044
0.300481
0.237732
0.144239
0.0380433
0.0112257
0.0208393
0.0340111
0.0479793
0.0620242
0.0758295
0.0892736
0.102316
0.114959
0.127175
0.13887
0.149874
0.160002
0.169009
0.176551
0.182072
0.184633
0.182873
0.175171
0.159215
0.132306
0.0960996
0.0674628
0.0192306
0.0220617
0.0312945
0.0414908
0.0519196
0.0622923
0.072501
0.082515
0.0923346
0.101942
0.111269
0.120198
0.128583
0.136256
0.143
0.14845
0.151987
0.152703
0.14946
0.140848
0.126116
0.108253
0.11635
0.0281123
0.0254555
0.0328705
0.0415872
0.0506274
0.0596843
0.0686624
0.077549
0.0863532
0.0950611
0.103614
0.111914
0.119845
0.127289
0.134096
0.139987
0.14447
0.146828
0.146256
0.142203
0.135319
0.130373
0.17184
0.0380301
0.0299775
0.0361913
0.044137
0.0524916
0.060908
0.0693041
0.0776884
0.0860816
0.094471
0.102799
0.110977
0.118918
0.126549
0.133777
0.14038
0.145915
0.149776
0.151458
0.151179
0.151031
0.158883
0.239488
0.0488833
0.035439
0.0406946
0.0481601
0.0561227
0.0641874
0.0722895
0.0804621
0.0887364
0.0970964
0.105479
0.1138
0.121999
0.13006
0.137951
0.145485
0.15222
0.157595
0.161377
0.164525
0.170858
0.193495
0.324778
0.0608477
0.0418671
0.0462467
0.0533455
0.061037
0.0688795
0.0768319
0.0849548
0.0932866
0.101799
0.110415
0.119051
0.127678
0.13635
0.14511
0.153795
0.161899
0.168824
0.174556
0.180763
0.193256
0.233867
0.457493
0.0743895
0.0494003
0.0528626
0.0595977
0.0670381
0.0746999
0.0825742
0.0907515
0.0992678
0.108069
0.117054
0.126132
0.135316
0.144754
0.154592
0.164669
0.174324
0.182809
0.190253
0.198909
0.216278
0.275202
0.758688
0.0418972
0.130483
0.22363
0.269289
0.28247
0.275089
0.242223
0.190597
0.140634
0.126307
0.12616
0.121868
0.1117
0.104102
0.105491
0.0998606
0.075744
0.0425722
0.01415
0.0529402
0.0878109
0.124108
0.142605
0.147363
0.143441
0.131339
0.1149
0.0931475
0.0784232
0.0698447
0.063189
0.0574411
0.0532367
0.0513159
0.0484207
0.0400828
0.0279488
0.0190723
0.0765143
0.0915028
0.115441
0.126544
0.127692
0.122577
0.1123
0.0994448
0.0840503
0.0711696
0.0622105
0.0555635
0.0504588
0.0471326
0.0455353
0.0434296
0.0380333
0.0302597
0.0283843
0.0969308
0.10299
0.119876
0.125881
0.123796
0.116826
0.106232
0.0939972
0.0811043
0.0698474
0.061323
0.0548803
0.0501099
0.0472771
0.0460011
0.0443298
0.0403032
0.0346608
0.0373419
0.119189
0.119057
0.129133
0.130182
0.124773
0.115738
0.104262
0.0920649
0.0805319
0.0704306
0.0624316
0.0562773
0.0517558
0.0491817
0.0480622
0.0466573
0.0436339
0.0395856
0.0455958
0.151958
0.13945
0.140859
0.136564
0.127709
0.116545
0.104055
0.0918491
0.0812527
0.0719597
0.0643818
0.0585204
0.0542028
0.0517167
0.0505634
0.0492593
0.047004
0.0444322
0.052834
0.217211
0.163891
0.153663
0.143693
0.131394
0.118143
0.104725
0.0926098
0.0827459
0.0740624
0.0667996
0.0611828
0.0570317
0.0545166
0.0531822
0.0518251
0.0500042
0.0487082
0.0586857
0.39204
0.189723
0.166121
0.150726
0.13521
0.12004
0.105899
0.0939814
0.0846797
0.0765156
0.0695531
0.0641397
0.0601114
0.0574918
0.0558894
0.0543574
0.0526179
0.0521064
0.0628657
0.0987008
0.063037
0.0648939
0.070962
0.0779452
0.0853097
0.0931168
0.101507
0.110488
0.119931
0.129672
0.139603
0.149821
0.160682
0.172557
0.18526
0.197649
0.208504
0.218042
0.229107
0.249278
0.297925
0.432823
0.141533
0.0884301
0.087023
0.0912963
0.0969947
0.10358
0.111284
0.120308
0.130442
0.141276
0.152478
0.163877
0.175781
0.189148
0.205046
0.223121
0.240203
0.253393
0.26304
0.272724
0.289089
0.319777
0.365412
0.202862
0.124295
0.116261
0.116685
0.119807
0.124933
0.132575
0.143002
0.155159
0.167993
0.181053
0.193975
0.207447
0.223752
0.245828
0.273094
0.296061
0.308943
0.31407
0.317261
0.326668
0.346028
0.362695
0.322357
0.178341
0.153078
0.14618
0.145046
0.147937
0.156033
0.169993
0.185552
0.200834
0.216011
0.22992
0.244067
0.263118
0.295029
0.340784
0.368822
0.374169
0.368377
0.358656
0.358696
0.37878
0.387027
0.625208
0.230857
0.176016
0.162789
0.159644
0.162001
0.170912
0.186432
0.201323
0.21602
0.233275
0.249961
0.265232
0.287216
0.326544
0.381751
0.411095
0.41365
0.403385
0.387922
0.37712
0.385138
0.404512
0.621165
0.24045
0.183511
0.166071
0.15983
0.160875
0.167611
0.178967
0.192473
0.207151
0.223633
0.241377
0.26034
0.285061
0.318555
0.353337
0.377152
0.387496
0.386998
0.381687
0.379018
0.388784
0.399926
0.551809
0.249022
0.198289
0.174028
0.16113
0.15898
0.163462
0.172294
0.183792
0.198685
0.215255
0.23265
0.25233
0.276548
0.303921
0.329787
0.353276
0.365954
0.369907
0.369701
0.37048
0.382162
0.390378
0.480158
0.262031
0.205638
0.1765
0.162158
0.156772
0.158464
0.165076
0.174901
0.188069
0.203853
0.222253
0.242969
0.265157
0.287076
0.307845
0.330137
0.353191
0.365718
0.35938
0.355196
0.365823
0.381394
0.432248
0.246759
0.190262
0.165546
0.155572
0.151227
0.152154
0.157286
0.165536
0.17655
0.190292
0.207144
0.226534
0.245918
0.263492
0.279585
0.29755
0.319651
0.335745
0.33316
0.329512
0.335042
0.339411
0.413783
0.2139
0.168841
0.151219
0.144234
0.142316
0.144076
0.148655
0.155581
0.164724
0.176225
0.190317
0.206462
0.222785
0.237339
0.250217
0.264038
0.280004
0.29304
0.296561
0.295634
0.296657
0.293794
0.39146
0.188543
0.150911
0.137457
0.1326
0.132073
0.134372
0.138718
0.144769
0.152495
0.162055
0.173574
0.186609
0.199874
0.211924
0.222558
0.233228
0.244672
0.254219
0.257983
0.257514
0.255116
0.249406
0.348886
0.167591
0.135653
0.124819
0.121313
0.12149
0.123946
0.127999
0.13335
0.139953
0.1479
0.157224
0.167586
0.178145
0.187934
0.196632
0.204821
0.212822
0.219254
0.221858
0.220536
0.216817
0.210574
0.298526
0.148713
0.122124
0.113233
0.110563
0.111021
0.113376
0.117033
0.121721
0.127358
0.133957
0.141479
0.149665
0.157964
0.16574
0.172663
0.178855
0.184367
0.188476
0.189945
0.188358
0.18449
0.178943
0.251034
0.131802
0.109904
0.102553
0.100427
0.100939
0.103048
0.106248
0.110287
0.115058
0.120513
0.126575
0.133033
0.139518
0.1456
0.150989
0.155615
0.159406
0.161972
0.162678
0.161219
0.157966
0.153543
0.213084
0.117085
0.0988867
0.0927468
0.0909942
0.091455
0.0932605
0.0959842
0.0994019
0.103392
0.107876
0.112755
0.117858
0.122924
0.127655
0.131812
0.135269
0.137921
0.139552
0.139854
0.138663
0.136231
0.132964
0.182481
0.103658
0.0888687
0.0838433
0.0823749
0.0827426
0.084236
0.0865003
0.089341
0.0926367
0.0962961
0.100218
0.104262
0.108236
0.111927
0.11515
0.117775
0.119706
0.12082
0.120969
0.120094
0.118447
0.116179
0.15844
0.0919011
0.0799017
0.0758518
0.0746469
0.07492
0.0761161
0.077957
0.080279
0.0829658
0.0859293
0.0890761
0.0922902
0.095429
0.0983373
0.100877
0.10293
0.104419
0.105278
0.105449
0.10494
0.103912
0.102434
0.139796
0.0819661
0.0720598
0.0687996
0.0678237
0.068023
0.0689633
0.0704282
0.072288
0.0744478
0.0768279
0.0793462
0.0819088
0.0844072
0.0867266
0.0887617
0.0904265
0.0916608
0.0924232
0.0926869
0.0925289
0.0919919
0.091118
0.125094
0.0736837
0.0652934
0.0626407
0.0618534
0.061997
0.0627259
0.0638742
0.0653425
0.0670566
0.0689508
0.0709578
0.0730035
0.0750062
0.0768816
0.0785518
0.0799535
0.081042
0.081791
0.0821937
0.0823097
0.0821487
0.0817304
0.112994
0.0667189
0.05945
0.0572595
0.0566256
0.0567312
0.0572938
0.0581859
0.0593339
0.0606826
0.0621815
0.0637785
0.0654172
0.067037
0.0685764
0.0699786
0.0711968
0.0721976
0.0729618
0.073496
0.0738241
0.0739461
0.0738676
0.102483
0.0607148
0.0543324
0.0525034
0.0519981
0.0520849
0.0525255
0.053221
0.0541186
0.0551793
0.0563669
0.0576433
0.0589669
0.0602936
0.0615791
0.0627818
0.0638672
0.0648093
0.0655917
0.066229
0.0667149
0.0670448
0.0672163
0.0928834
0.0553651
0.0497469
0.0482176
0.0478274
0.0479156
0.0482768
0.048833
0.049547
0.0503932
0.0513473
0.0523827
0.05347
0.0545779
0.0556741
0.0567288
0.0577159
0.0586153
0.0594144
0.0601183
0.0607138
0.0611913
0.0615425
0.0837997
0.0504406
0.045533
0.044271
0.0439923
0.0441031
0.0444249
0.0448953
0.0454883
0.0461882
0.0469797
0.0478455
0.0487654
0.049717
0.0506776
0.051625
0.0525395
0.0534053
0.0542119
0.0549563
0.0556236
0.0562009
0.0566772
0.0750719
0.0457971
0.0415802
0.0405723
0.040409
0.0405646
0.0408844
0.0413177
0.0418466
0.0424618
0.0431545
0.0439137
0.0447257
0.0455748
0.0464445
0.0473184
0.0481813
0.0490205
0.0498269
0.0505928
0.051303
0.0519438
0.0525028
0.0667445
0.041376
0.0378353
0.0370783
0.0370396
0.0372625
0.0376144
0.0380542
0.0385689
0.0391532
0.039802
0.0405083
0.0412626
0.042054
0.0428701
0.0436985
0.0445275
0.0453467
0.0461482
0.0469223
0.0476545
0.0483314
0.0489406
0.0590288
0.0372027
0.0343055
0.0337964
0.0338929
0.0342042
0.0346187
0.035102
0.0356442
0.0362416
0.0368911
0.0375876
0.0383245
0.0390935
0.0398854
0.0406908
0.0415002
0.0423055
0.0431
0.0438733
0.0446126
0.0453055
0.0459403
0.0522434
0.033377
0.0310531
0.0307802
0.0310191
0.0314365
0.0319378
0.0324936
0.0330949
0.0337384
0.0344213
0.0351396
0.0358882
0.0366608
0.0374501
0.0382488
0.0390498
0.0398462
0.0406327
0.0413997
0.0421358
0.0428301
0.0434722
0.0467258
0.0300488
0.028182
0.0281178
0.0284984
0.0290323
0.0296362
0.030283
0.0309635
0.0316738
0.0324106
0.0331707
0.0339496
0.0347422
0.035543
0.0363462
0.037146
0.0379374
0.0387159
0.039473
0.0401989
0.0408844
0.0415205
0.0427329
0.0273786
0.0258142
0.0259139
0.0264241
0.0270744
0.0277856
0.0285302
0.0292978
0.0300833
0.0308832
0.0316942
0.0325126
0.0333342
0.0341544
0.0349687
0.0357724
0.0365614
0.0373325
0.0380778
0.0387893
0.0394592
0.0400802
0.0403765
0.0254966
0.0240629
0.0242683
0.0248838
0.0256385
0.0264495
0.0272868
0.0281377
0.0289964
0.0298588
0.0307219
0.0315823
0.0324363
0.03328
0.0341094
0.0349206
0.0357101
0.0364753
0.037209
0.0379042
0.0385548
0.0391548
0.039631
0.024479
0.0230125
0.0232589
0.0239448
0.0247799
0.0256721
0.0265862
0.0275075
0.0284292
0.0293472
0.0302583
0.0311594
0.0320469
0.0329171
0.0337657
0.034589
0.0353835
0.0361461
0.0368703
0.0375501
0.0381803
0.0387565
0.0403984
0.0243497
0.0227102
0.0229324
0.0236459
0.0245278
0.0254726
0.0264396
0.0274118
0.0283814
0.0293445
0.0302978
0.031238
0.0321611
0.0330626
0.0339375
0.0347808
0.0355884
0.0363555
0.0370758
0.0377439
0.0383558
0.0389082
0.0425747
0.0251014
0.0231714
0.0233051
0.0239968
0.0248837
0.0258455
0.0268355
0.0278348
0.0288352
0.0298325
0.0308233
0.0318039
0.0327691
0.0337126
0.034627
0.035505
0.0363401
0.0371246
0.0378514
0.0385155
0.039114
0.0396454
0.0460772
0.026714
0.0243879
0.0243659
0.0249795
0.0258226
0.0267597
0.0277391
0.02874
0.029754
0.0307766
0.0318045
0.0328327
0.0338543
0.03486
0.0358383
0.036777
0.0376646
0.0384881
0.0392386
0.0399114
0.0405051
0.0410207
0.050823
0.0291569
0.0263297
0.026077
0.0265478
0.0272914
0.0281579
0.0290907
0.0300677
0.0310799
0.0321231
0.0331936
0.0342854
0.0353895
0.0364923
0.0375757
0.0386187
0.0396005
0.0404985
0.0412999
0.0420001
0.042601
0.0431083
0.056674
0.0323697
0.0289341
0.0283659
0.0286213
0.0292046
0.0299523
0.0308027
0.0317319
0.0327307
0.033795
0.0349213
0.0361037
0.0373313
0.0385859
0.0398406
0.0410598
0.0422042
0.0432333
0.0441262
0.0448798
0.0455031
0.0460103
0.0633718
0.0362289
0.0320854
0.0311131
0.0310772
0.0314392
0.0320215
0.0327569
0.0336186
0.0345968
0.0356881
0.0368909
0.0382016
0.0396105
0.0410972
0.0426251
0.0441376
0.045557
0.0468065
0.0478495
0.0486891
0.0493506
0.0498647
0.0704901
0.0405175
0.035595
0.034139
0.0337437
0.0338316
0.0342106
0.0348058
0.0355866
0.0365417
0.0376698
0.0389738
0.0404576
0.0421201
0.0439473
0.0458997
0.0478937
0.0497823
0.051393
0.0526643
0.0536236
0.0543329
0.054854
0.0774301
0.0449119
0.0391907
0.0372002
0.0364007
0.036182
0.0363363
0.0367788
0.0374731
0.0384066
0.039581
0.0410082
0.0427071
0.044699
0.0469988
0.0495922
0.0523806
0.0550915
0.0572783
0.0588631
0.0599571
0.0607035
0.0612165
0.0834716
0.0489962
0.042523
0.0399962
0.0387894
0.0382654
0.0381991
0.0384937
0.0391058
0.0400209
0.0412454
0.0428039
0.0447394
0.047116
0.0500196
0.0535367
0.0576457
0.0619028
0.0649591
0.0668894
0.068067
0.0687938
0.0692575
0.0879067
0.052294
0.0451816
0.0421881
0.0406317
0.0398501
0.0396004
0.0397734
0.0403183
0.041219
0.0424864
0.0441589
0.0463092
0.049062
0.0526293
0.0573488
0.0636148
0.0711943
0.0753254
0.0773879
0.0784428
0.0790187
0.0793585
0.0900511
0.0541928
0.0467052
0.0434245
0.0416559
0.0407206
0.0403629
0.0404648
0.0409703
0.041862
0.0431537
0.0448931
0.0471751
0.0501775
0.0542502
0.0601214
0.0693768
0.0856771
0.0898558
0.0911508
0.0916407
0.0918659
0.0919878
0.799873
0.608867
0.603631
0.72784
0.395053
0.381084
0.362037
0.338373
0.358892
0.348479
0.332511
0.312721
0.370049
0.355836
0.338674
0.319247
0.39589
0.379906
0.359207
0.334895
0.398662
0.385395
0.363414
0.339691
0.381673
0.372445
0.35835
0.337335
0.373667
0.359559
0.338898
0.314805
0.329816
0.318187
0.301153
0.2827
0.283521
0.274011
0.261835
0.248467
0.240138
0.232555
0.223736
0.214452
0.203134
0.197644
0.191619
0.185305
0.17339
0.169478
0.165288
0.160909
0.149475
0.146669
0.143699
0.140605
0.130048
0.128042
0.125928
0.123727
0.114148
0.112735
0.111242
0.109679
0.101072
0.100108
0.099078
0.0979866
0.0902595
0.089635
0.088953
0.0882166
0.081249
0.0808802
0.0804614
0.0799935
0.0736675
0.0734913
0.0732712
0.0730073
0.0672245
0.0671926
0.0671223
0.0670129
0.0617028
0.0617775
0.0618189
0.0618258
0.0569457
0.0570976
0.0572206
0.0573135
0.0528452
0.0530509
0.0532317
0.0533862
0.0493302
0.0495711
0.0497904
0.049987
0.0463566
0.0466179
0.0468606
0.0470832
0.0438992
0.0441696
0.0444234
0.0446595
0.0419464
0.0422172
0.0424728
0.0427123
0.0404963
0.040761
0.0410115
0.0412467
0.0395553
0.0398094
0.0400496
0.0402751
0.0391381
0.0393788
0.0396054
0.0398174
0.0392694
0.0394953
0.0397066
0.0399029
0.0399867
0.0401979
0.0403934
0.0405732
0.0413443
0.0415416
0.041722
0.0418855
0.0434174
0.0436026
0.0437693
0.0439177
0.0463086
0.0464837
0.0466383
0.0467732
0.0501546
0.0503207
0.0504645
0.0505873
0.0551342
0.0552908
0.0554235
0.0555345
0.0614788
0.0616217
0.0617405
0.0618379
0.069483
0.069603
0.0697011
0.0697805
0.0795167
0.0795995
0.0796665
0.0797204
0.0920425
0.0920708
0.0920935
0.0921117
0.288653
0.211754
0.18256
0.160613
0.140781
0.123124
0.108285
0.0967681
0.0880977
0.0806955
0.0743268
0.0692424
0.0653126
0.0623462
0.0600946
0.0580343
0.0558792
0.0554994
0.0660751
0.275243
0.228523
0.196568
0.169582
0.146242
0.127148
0.112308
0.101239
0.0931284
0.0868035
0.0816449
0.0773723
0.073627
0.0699792
0.0667696
0.0639196
0.0605915
0.0587898
0.0702258
0.280234
0.239873
0.205274
0.175469
0.150931
0.131688
0.117031
0.106231
0.0985787
0.0931923
0.0892919
0.0860636
0.082886
0.0791513
0.0751221
0.0712647
0.0673646
0.0651589
0.0854837
0.289117
0.247875
0.21147
0.180891
0.156198
0.137091
0.122687
0.11206
0.104572
0.0998775
0.0974642
0.0957559
0.0935196
0.0901585
0.0857146
0.0804356
0.0766819
0.0791514
0.123666
0.298536
0.255025
0.218244
0.187138
0.162164
0.143271
0.129045
0.118257
0.110912
0.107494
0.107473
0.107661
0.105908
0.101766
0.0962007
0.0893843
0.0866889
0.0893894
0.180536
0.305545
0.261526
0.224791
0.193813
0.168904
0.14933
0.133671
0.121954
0.11524
0.113394
0.11301
0.11133
0.107136
0.101012
0.0955352
0.0906976
0.0889836
0.101129
0.249933
0.302466
0.25909
0.225385
0.197963
0.174063
0.153092
0.136159
0.123585
0.11646
0.113127
0.108764
0.103848
0.0983104
0.0930195
0.0890485
0.0868674
0.0878059
0.101259
0.227916
0.28177
0.244229
0.215439
0.193047
0.172135
0.151929
0.135532
0.123449
0.115529
0.109749
0.103569
0.0976517
0.0918455
0.0873017
0.0835058
0.0813671
0.0833645
0.0981912
0.184141
0.255949
0.224582
0.199986
0.180355
0.162327
0.145857
0.132846
0.122668
0.114215
0.106592
0.0993468
0.0926319
0.085974
0.0805661
0.0767298
0.0749965
0.0765734
0.0906039
0.157631
0.228072
0.20303
0.1826
0.165463
0.150091
0.136899
0.126782
0.118585
0.110577
0.102143
0.0937643
0.0861121
0.0791928
0.0735591
0.0700943
0.0687797
0.0706576
0.0822811
0.136715
0.200013
0.181186
0.164581
0.150005
0.137272
0.126456
0.117548
0.109819
0.102348
0.0944738
0.0865384
0.0793332
0.0729838
0.0677814
0.0641891
0.0624013
0.0636899
0.0735588
0.116284
0.175099
0.16108
0.148026
0.136251
0.125792
0.116527
0.108345
0.100939
0.0939258
0.0870218
0.0802377
0.0738958
0.068095
0.0629827
0.0588334
0.055997
0.0558164
0.0630582
0.0932922
0.153614
0.143275
0.133301
0.124004
0.115464
0.107589
0.100296
0.0935063
0.08714
0.0810859
0.0752487
0.0696165
0.0641737
0.059014
0.0543331
0.0504541
0.0485261
0.0520872
0.0698765
0.135341
0.127744
0.120217
0.112967
0.106069
0.0994845
0.0931913
0.0872146
0.0815876
0.0762753
0.0711532
0.0660684
0.0609427
0.0558303
0.0508776
0.0462996
0.0428471
0.0427286
0.0499813
0.119928
0.11436
0.108709
0.103092
0.0975672
0.0921392
0.0868302
0.0817013
0.0768108
0.0721464
0.0675931
0.0629819
0.0582157
0.0533142
0.0483763
0.0435724
0.0395162
0.0381729
0.0431783
0.106958
0.102918
0.0986992
0.0943632
0.0899669
0.0855369
0.0811161
0.0767706
0.0725526
0.068454
0.0643845
0.0602087
0.0558396
0.0512802
0.0466118
0.0420399
0.0382975
0.0377114
0.0468294
0.0960646
0.0931541
0.0900235
0.0867095
0.0832419
0.0796505
0.0759925
0.0723283
0.0686968
0.0650925
0.0614507
0.057678
0.053714
0.0495712
0.0453515
0.0413427
0.0384595
0.0394332
0.0549382
0.086896
0.0848308
0.0825296
0.0800111
0.0772948
0.0744108
0.0714041
0.0683192
0.0651914
0.0620206
0.0587639
0.0553652
0.0517967
0.0480987
0.044419
0.0411377
0.0393169
0.0421399
0.0653022
0.0791295
0.0777061
0.076044
0.0741513
0.0720407
0.0697361
0.0672727
0.0646872
0.0620035
0.0592177
0.056315
0.0532688
0.0500832
0.0468328
0.0437167
0.0411947
0.0404232
0.0450603
0.0762887
0.0724916
0.0715603
0.0703965
0.0690013
0.0673816
0.0655544
0.0635455
0.0613828
0.0590861
0.0566593
0.054095
0.0513866
0.0485748
0.045765
0.0431984
0.0413931
0.0415681
0.0476445
0.0866767
0.0667632
0.0662113
0.0654387
0.0644419
0.0632229
0.0617922
0.0601677
0.0583699
0.0564156
0.0543139
0.05207
0.0496998
0.0472579
0.0448757
0.0428261
0.0416705
0.0427055
0.050125
0.0957752
0.061778
0.0615182
0.0610533
0.0603764
0.0594856
0.0583861
0.0570895
0.0556105
0.053964
0.0521628
0.0502227
0.0481749
0.0460904
0.044117
0.0425443
0.0419514
0.0436786
0.052192
0.101657
0.0574167
0.0573795
0.0571549
0.0567338
0.0561112
0.0552883
0.0542719
0.0530728
0.051704
0.0501814
0.0485281
0.0467861
0.0450377
0.0434391
0.0422828
0.0421435
0.0443659
0.0535686
0.105291
0.0535991
0.0537281
0.053688
0.0534684
0.0530626
0.0524689
0.0516905
0.0507353
0.0496154
0.0483481
0.0469615
0.0455042
0.0440639
0.0427985
0.0419942
0.0422108
0.0447837
0.0544588
0.108496
0.0502759
0.0505244
0.0506216
0.0505568
0.0503224
0.0499149
0.0493352
0.0485893
0.0476882
0.0466504
0.045506
0.044307
0.0431424
0.0421667
0.0416559
0.0421531
0.0449855
0.0550117
0.11099
0.0474208
0.0477499
0.0479441
0.0479932
0.0478895
0.0476285
0.04721
0.0466386
0.0459245
0.0450865
0.0441557
0.0431843
0.04226
0.0415315
0.0412632
0.0419827
0.0450082
0.0552659
0.11253
0.0450234
0.045401
0.045658
0.0457852
0.0457754
0.045624
0.0453303
0.0448981
0.0443373
0.0436664
0.0429163
0.0421384
0.041417
0.0408941
0.0408226
0.0417155
0.0448783
0.0552576
0.113272
0.0430849
0.0434845
0.0437754
0.0439497
0.0440008
0.0439247
0.0437208
0.0433926
0.0429499
0.0424106
0.0418052
0.0411832
0.0406252
0.0402662
0.0403484
0.0413704
0.0446205
0.0550329
0.113431
0.0416143
0.0420149
0.0423158
0.0425104
0.0425934
0.0425615
0.0424142
0.0421554
0.0417947
0.0413498
0.0408503
0.040344
0.0399077
0.0396701
0.0398634
0.0409719
0.0442643
0.0546444
0.113206
0.0406273
0.0410126
0.0413044
0.0414974
0.0415873
0.0415718
0.0414507
0.0412283
0.0409141
0.0405256
0.0400916
0.0396585
0.0393002
0.0391398
0.0394013
0.0405554
0.0438485
0.0541427
0.112697
0.0401472
0.0405052
0.0407731
0.0409469
0.0410233
0.0410005
0.0408788
0.0406625
0.040361
0.0399917
0.0395827
0.0391793
0.0388533
0.0387243
0.0390102
0.0401699
0.0434255
0.0535811
0.111961
0.040206
0.0405286
0.0407622
0.0409039
0.040951
0.0409019
0.0407573
0.0405212
0.0402025
0.039818
0.0393952
0.0389784
0.0386382
0.0384926
0.038756
0.0398797
0.0430616
0.0530236
0.110802
0.0408475
0.0411303
0.0413234
0.0414245
0.0414316
0.0413429
0.041159
0.040883
0.0405231
0.0400948
0.0396244
0.0391547
0.0387553
0.0385434
0.0387322
0.039769
0.0428322
0.052532
0.108934
0.0421312
0.0423729
0.0425231
0.04258
0.0425417
0.0424064
0.0421738
0.041846
0.0414296
0.0409382
0.0403958
0.039843
0.0393468
0.0390224
0.0390814
0.0399687
0.0428524
0.0522805
0.10789
0.0441364
0.0443387
0.0444471
0.0444607
0.0443776
0.0441956
0.0439134
0.0435317
0.0430553
0.0424951
0.0418721
0.0412228
0.04061
0.0401437
0.0400309
0.0407131
0.0433648
0.0526337
0.109755
0.0469674
0.047134
0.0472052
0.0471809
0.0470594
0.046838
0.0465146
0.0460887
0.0455629
0.0449458
0.0442547
0.0435219
0.0428041
0.0422039
0.0419204
0.0423925
0.0448208
0.0541136
0.115136
0.0507596
0.0508958
0.050937
0.0508842
0.050736
0.0504898
0.050143
0.0496941
0.0491449
0.0485019
0.0477805
0.0470092
0.0462406
0.0455714
0.0451965
0.0455646
0.0479439
0.0576502
0.125355
0.0556866
0.0557976
0.0558177
0.0557489
0.0555904
0.0553399
0.0549952
0.0545551
0.0540212
0.0534005
0.0527082
0.0519736
0.0512501
0.0506388
0.0503471
0.0508653
0.053607
0.0646547
0.143631
0.0619688
0.062059
0.0620671
0.0619961
0.0618461
0.0616156
0.0613035
0.0609096
0.0604374
0.0598955
0.0593023
0.0586922
0.0581287
0.057735
0.0577679
0.0588341
0.0627307
0.0770795
0.177718
0.0698859
0.0699565
0.0699602
0.0699003
0.0697775
0.0695915
0.0693424
0.0690322
0.0686659
0.0682549
0.0678212
0.0674056
0.0670863
0.067022
0.0675632
0.0695694
0.0755762
0.0961518
0.230789
0.0797917
0.0798397
0.0798428
0.0798038
0.0797237
0.0796031
0.0794432
0.0792469
0.0790199
0.0787738
0.0785299
0.0783278
0.0782465
0.078458
0.0793784
0.0821449
0.0904613
0.120958
0.30695
0.0921357
0.0921516
0.0921521
0.0921382
0.0921106
0.0920698
0.0920169
0.0919535
0.091883
0.0918113
0.091749
0.091716
0.0917534
0.0919569
0.0925867
0.0945005
0.101488
0.144846
0.395186
)
;

boundaryField
{
    leftWall
    {
        type            epsilonWallFunction;
        value           nonuniform List<scalar> 
50
(
0.00579287
0.0112257
0.0192306
0.0281123
0.0380301
0.0488833
0.0608477
0.0743895
0.0987008
0.141533
0.202862
0.322357
0.625208
0.621165
0.551809
0.480158
0.432248
0.413783
0.39146
0.348886
0.298526
0.251034
0.213084
0.182481
0.15844
0.139796
0.125094
0.112994
0.102483
0.0928834
0.0837997
0.0750719
0.0667445
0.0590288
0.0522434
0.0467258
0.0427329
0.0403765
0.039631
0.0403984
0.0425747
0.0460772
0.050823
0.056674
0.0633718
0.0704901
0.0774301
0.0834716
0.0879067
0.0900511
)
;
    }
    rightWall
    {
        type            epsilonWallFunction;
        value           nonuniform List<scalar> 
50
(
0.01415
0.0190723
0.0283843
0.0373419
0.0455958
0.052834
0.0586857
0.0628657
0.0660751
0.0702258
0.0854837
0.123666
0.180536
0.249933
0.227916
0.184141
0.157631
0.136715
0.116284
0.0932922
0.0698765
0.0499813
0.0431783
0.0468294
0.0549382
0.0653022
0.0762887
0.0866767
0.0957752
0.101657
0.105291
0.108496
0.11099
0.11253
0.113272
0.113431
0.113206
0.112697
0.111961
0.110802
0.108934
0.10789
0.109755
0.115136
0.125355
0.143631
0.177718
0.230789
0.30695
0.395186
)
;
    }
    lowerWall
    {
        type            epsilonWallFunction;
        value           nonuniform List<scalar> 
62
(
0.00579287
0.032986
0.0657437
0.0990728
0.131635
0.163091
0.193186
0.221971
0.249504
0.275715
0.300347
0.322991
0.343287
0.360684
0.374286
0.382655
0.383426
0.371582
0.342044
0.300481
0.237732
0.144239
0.0380433
0.0380433
0.0674628
0.11635
0.17184
0.239488
0.324778
0.457493
0.758688
0.799873
0.608867
0.603631
0.72784
0.0418972
0.0529402
0.0765143
0.0969308
0.119189
0.151958
0.217211
0.39204
0.0418972
0.130483
0.22363
0.269289
0.28247
0.275089
0.242223
0.190597
0.140634
0.126307
0.12616
0.121868
0.1117
0.104102
0.105491
0.0998606
0.075744
0.0425722
0.01415
)
;
    }
    atmosphere
    {
        type            inletOutlet;
        inletValue      uniform 0.1;
        value           nonuniform List<scalar> 
46
(
0.0900511
0.0541928
0.0467052
0.0434245
0.0416559
0.0407206
0.0403629
0.0404648
0.0409703
0.041862
0.0431537
0.0448931
0.0471751
0.0501775
0.0542502
0.0601214
0.0693768
0.1
0.1
0.1
0.1
0.1
0.1
0.1
0.1
0.1
0.1
0.1
0.1
0.1
0.1
0.1
0.1
0.1
0.1
0.1
0.1
0.1
0.1
0.1
0.1
0.1
0.1
0.1
0.144846
0.395186
)
;
    }
    defaultFaces
    {
        type            empty;
    }
}


// ************************************************************************* //
