/*--------------------------------*- C++ -*----------------------------------*\
  =========                 |
  \\      /  F ield         | OpenFOAM: The Open Source CFD Toolbox
   \\    /   O peration     | Website:  https://openfoam.org
    \\  /    A nd           | Version:  9
     \\/     M anipulation  |
\*---------------------------------------------------------------------------*/
FoamFile
{
    format      ascii;
    class       volScalarField;
    location    "400";
    object      nut;
}
// * * * * * * * * * * * * * * * * * * * * * * * * * * * * * * * * * * * * * //

dimensions      [0 2 -1 0 0 0 0];

internalField   nonuniform List<scalar> 
10720
(
0.19558
0.197221
0.196464
0.191203
0.18315
0.173197
0.1637
0.154248
0.144602
0.134895
0.124985
0.114904
0.104758
0.0945335
0.0843153
0.0741728
0.064138
0.054172
0.0440583
0.0330602
0.020475
0.0175853
0.0254318
0.0338263
0.0420515
0.0505991
0.0597065
0.0692861
0.0791003
0.088941
0.0986946
0.10837
0.118072
0.127937
0.138332
0.149456
0.162831
0.177495
0.212374
0.188237
0.175898
0.153701
0.116289
0.0548486
0.024547
0.0378485
0.0444206
0.0420633
0.0380398
0.0375807
0.0357599
0.0330586
0.0303375
0.0279931
0.0267661
0.0267792
0.0273964
0.0282661
0.0290574
0.0297089
0.0302561
0.0307261
0.0313741
0.0325411
0.0340923
0.0354032
0.0360461
0.035998
0.0354715
0.0352382
0.035198
0.0353681
0.0386574
0.035428
0.0580199
0.0696423
0.104348
0.0770923
0.130869
0.113697
0.0985836
0.0912071
0.0880847
0.0876955
0.0871196
0.0864106
0.0855349
0.0844428
0.083172
0.0817242
0.0801079
0.0783662
0.0765131
0.0745615
0.0725302
0.0704288
0.0683131
0.0662148
0.0642108
0.0617113
0.0581792
0.0550474
0.0525031
0.0504647
0.0488814
0.0478334
0.0474576
0.0478609
0.0490298
0.0509164
0.0534661
0.0566117
0.0603567
0.0646119
0.0699082
0.0742662
0.0910061
0.150674
0.170748
0.18941
0.199939
0.189379
0.161393
0.153727
0.158867
0.140543
0.13973
0.142975
0.147543
0.144381
0.141118
0.138384
0.138002
0.140871
0.146198
0.151503
0.155058
0.157707
0.159596
0.160578
0.160915
0.161035
0.161315
0.16241
0.164588
0.167171
0.169673
0.171111
0.170866
0.173203
0.184154
0.171876
0.194081
0.204551
0.185769
0.308155
0.110684
0.111009
0.112783
0.114087
0.114409
0.115146
0.115365
0.115285
0.114949
0.114333
0.113535
0.112553
0.11138
0.110047
0.108562
0.106915
0.105119
0.103158
0.101049
0.0987717
0.0963506
0.0936822
0.0905641
0.0874622
0.0845602
0.0818039
0.0790823
0.0764053
0.0737963
0.071282
0.0689035
0.0666854
0.0646911
0.0629754
0.0617291
0.0611212
0.0608047
0.0633262
0.0575403
0.113984
0.122413
0.13922
0.166211
0.195815
0.212637
0.22375
0.248379
0.267146
0.236146
0.224878
0.233176
0.226611
0.219905
0.21636
0.216981
0.221971
0.230092
0.239183
0.247945
0.25629
0.264075
0.271195
0.277842
0.284202
0.290611
0.297763
0.305653
0.313765
0.321452
0.32806
0.334578
0.345802
0.364199
0.355089
0.401283
0.425384
0.402311
0.646649
0.1218
0.123452
0.124831
0.125774
0.126397
0.126815
0.126993
0.126988
0.12683
0.126509
0.126067
0.125503
0.124822
0.12403
0.123127
0.122102
0.120953
0.119663
0.118228
0.116628
0.114867
0.112924
0.110638
0.108202
0.105783
0.103387
0.100948
0.0984736
0.0959845
0.0934997
0.0910539
0.0886648
0.0863868
0.0842842
0.0824161
0.0810178
0.0797201
0.081538
0.0761009
0.119492
0.117511
0.118421
0.128361
0.153877
0.191811
0.231954
0.283563
0.343168
0.345899
0.295223
0.289892
0.288125
0.285219
0.285217
0.289984
0.299838
0.313187
0.327934
0.342876
0.357608
0.371875
0.385489
0.39846
0.410769
0.422961
0.436262
0.451277
0.46768
0.484559
0.501334
0.51892
0.540944
0.5671
0.57867
0.644029
0.673715
0.668656
1.04676
0.129809
0.130781
0.131596
0.13208
0.13235
0.132581
0.132665
0.132646
0.132533
0.132324
0.132039
0.13168
0.131252
0.130764
0.130207
0.129576
0.128862
0.128055
0.127145
0.126116
0.12496
0.123692
0.122198
0.120531
0.118798
0.117019
0.115157
0.113217
0.111214
0.109161
0.10709
0.105019
0.102998
0.101094
0.0993669
0.0980377
0.0968534
0.0982106
0.0950458
0.128221
0.126163
0.122952
0.120477
0.126554
0.152117
0.199457
0.269697
0.365112
0.425288
0.396425
0.347451
0.348778
0.353829
0.360369
0.371418
0.387435
0.406652
0.427327
0.44849
0.469657
0.49053
0.510825
0.530371
0.549019
0.567616
0.588202
0.612415
0.640396
0.670732
0.702345
0.734378
0.768805
0.805425
0.837616
0.918339
0.964038
0.986185
1.4996
0.13454
0.134873
0.135152
0.135391
0.135593
0.135701
0.135726
0.135695
0.13561
0.135465
0.135269
0.135021
0.134722
0.134377
0.133988
0.133559
0.133082
0.132553
0.131961
0.131293
0.130541
0.129728
0.128772
0.127676
0.126502
0.125267
0.123949
0.122548
0.121071
0.119527
0.117937
0.116315
0.114702
0.113155
0.111729
0.110612
0.109647
0.110627
0.108775
0.133941
0.13287
0.130819
0.126973
0.123036
0.128668
0.159405
0.227068
0.34096
0.457431
0.485976
0.450613
0.427186
0.437165
0.454782
0.474654
0.497029
0.521977
0.548651
0.576357
0.604776
0.633709
0.662829
0.691684
0.719662
0.747687
0.77849
0.814181
0.85457
0.897777
0.942212
0.986302
1.03181
1.07964
1.12886
1.22462
1.29767
1.35412
2.00084
0.137521
0.137747
0.137923
0.137956
0.137916
0.137818
0.137674
0.13756
0.137454
0.137322
0.13717
0.136987
0.136772
0.136522
0.136237
0.135916
0.135564
0.135185
0.13477
0.134313
0.133809
0.133277
0.132652
0.131922
0.131127
0.130278
0.129363
0.128379
0.127328
0.126214
0.12505
0.123847
0.122632
0.121451
0.12035
0.119474
0.118737
0.119432
0.118314
0.137196
0.136735
0.13571
0.13355
0.129222
0.124853
0.133495
0.179677
0.288169
0.44146
0.541974
0.549552
0.543746
0.55077
0.578084
0.606785
0.63737
0.670188
0.704804
0.740799
0.777849
0.815729
0.853951
0.89189
0.92852
0.964896
1.00441
1.04996
1.1016
1.15687
1.21346
1.26916
1.32567
1.38527
1.45099
1.56336
1.67075
1.77258
2.54964
0.139239
0.139361
0.139443
0.13945
0.139412
0.139322
0.139173
0.138984
0.13877
0.138569
0.138403
0.138232
0.138056
0.137867
0.137656
0.137419
0.137154
0.136857
0.136536
0.136193
0.13584
0.135485
0.135061
0.134562
0.134012
0.133423
0.132783
0.13209
0.131345
0.130548
0.129708
0.128832
0.127939
0.127063
0.126241
0.125579
0.125039
0.125527
0.124815
0.139064
0.138832
0.138401
0.137409
0.135069
0.129943
0.126002
0.144752
0.22738
0.389137
0.552091
0.62583
0.648239
0.677856
0.714108
0.752413
0.794793
0.838273
0.883277
0.929568
0.976571
1.02436
1.07246
1.12022
1.16601
1.21097
1.25921
1.31465
1.37771
1.44523
1.51414
1.58157
1.64924
1.72103
1.80352
1.93444
2.08238
2.24242
3.14778
0.140315
0.140374
0.140404
0.14039
0.140355
0.140286
0.140177
0.140036
0.139855
0.139633
0.139391
0.139162
0.138969
0.138783
0.138603
0.138417
0.138215
0.137983
0.137719
0.137436
0.137168
0.136925
0.136627
0.136277
0.135891
0.135475
0.135021
0.134527
0.133993
0.133419
0.13281
0.132172
0.131519
0.130874
0.130267
0.129774
0.129387
0.129729
0.129253
0.140221
0.140084
0.139862
0.139458
0.138378
0.135432
0.129081
0.128386
0.175683
0.318307
0.51835
0.667119
0.733063
0.784406
0.843644
0.904866
0.963092
1.01889
1.07731
1.13614
1.19578
1.25592
1.31578
1.37447
1.43028
1.48436
1.54176
1.60754
1.68236
1.7626
1.84412
1.92341
2.00231
2.08657
2.18633
2.33802
2.53248
2.76468
3.79803
0.140941
0.140956
0.140959
0.140937
0.140902
0.140845
0.140767
0.140674
0.140559
0.140414
0.140238
0.140023
0.139779
0.139546
0.13934
0.139146
0.138959
0.138757
0.138539
0.138303
0.138078
0.137899
0.137685
0.137435
0.13716
0.136862
0.136535
0.136178
0.135791
0.135373
0.134927
0.134458
0.133977
0.133501
0.133052
0.132686
0.132411
0.132652
0.132323
0.140911
0.140851
0.140727
0.140538
0.140108
0.138811
0.134611
0.126551
0.141935
0.246768
0.452076
0.664217
0.79479
0.872395
0.952456
1.03865
1.12493
1.20763
1.28496
1.35755
1.43179
1.50613
1.58004
1.65171
1.71952
1.78457
1.8525
1.92919
2.01604
2.10938
2.20372
2.29491
2.38497
2.48185
2.59944
2.77442
3.02118
3.34011
4.50168
0.141316
0.141309
0.141297
0.141264
0.141226
0.141173
0.141111
0.141044
0.140967
0.140878
0.140775
0.140649
0.14049
0.140287
0.140045
0.139805
0.139569
0.139337
0.139124
0.138925
0.138732
0.138587
0.138428
0.138245
0.138045
0.137828
0.13759
0.137329
0.137044
0.136735
0.136405
0.136057
0.1357
0.135345
0.135012
0.13474
0.134544
0.134716
0.13448
0.141319
0.141308
0.141257
0.141155
0.140995
0.140491
0.13868
0.13141
0.127071
0.188014
0.36922
0.619185
0.823618
0.943769
1.04429
1.15297
1.26604
1.37865
1.48756
1.59007
1.68456
1.77411
1.86352
1.95031
2.03191
2.10963
2.1897
2.27896
2.3795
2.48637
2.59349
2.69645
2.79741
2.90689
3.04289
3.24389
3.54859
3.96856
5.2583
0.141541
0.14152
0.141496
0.141456
0.141413
0.141363
0.141309
0.141255
0.141197
0.141135
0.141071
0.141001
0.140919
0.140813
0.140666
0.140452
0.14017
0.139866
0.139592
0.139371
0.139219
0.139093
0.138968
0.138829
0.13868
0.13852
0.138343
0.138149
0.137937
0.137706
0.137459
0.137199
0.13693
0.136664
0.136415
0.136211
0.13607
0.136196
0.136018
0.141563
0.141579
0.141578
0.141535
0.141474
0.141282
0.140745
0.136931
0.125914
0.148814
0.286055
0.541555
0.81131
0.995231
1.12192
1.25138
1.38909
1.53021
1.67115
1.80892
1.93971
2.05927
2.16681
2.26977
2.3671
2.45913
2.55282
2.65603
2.77152
2.8935
3.01419
3.12842
3.23986
3.36173
3.51665
3.74657
4.11465
4.64869
6.05938
0.141675
0.141644
0.141609
0.141563
0.141519
0.141472
0.141423
0.141375
0.141325
0.141275
0.141227
0.14118
0.141133
0.141083
0.141018
0.140909
0.140715
0.140401
0.140045
0.139718
0.139589
0.139481
0.139378
0.139268
0.139151
0.139028
0.138893
0.138746
0.138586
0.138412
0.138225
0.138028
0.137824
0.137622
0.137434
0.13728
0.137177
0.137272
0.13713
0.141709
0.141739
0.141766
0.141772
0.141758
0.141692
0.141557
0.140513
0.131152
0.129237
0.215429
0.44536
0.757103
1.01698
1.186
1.33666
1.49734
1.66546
1.8373
2.01008
2.18009
2.34148
2.48645
2.61132
2.72532
2.8334
2.94216
3.06055
3.19198
3.33015
3.46558
3.59137
3.71255
3.84638
4.02063
4.2824
4.71894
5.37776
6.87542
0.141749
0.141708
0.141666
0.141618
0.141575
0.141529
0.141483
0.141438
0.141393
0.141349
0.141308
0.14127
0.141237
0.141206
0.141173
0.141121
0.141026
0.140839
0.140502
0.140055
0.139895
0.139796
0.139706
0.139611
0.139513
0.139412
0.139306
0.139191
0.139067
0.138934
0.13879
0.138639
0.138483
0.138329
0.138185
0.138067
0.137989
0.138064
0.137946
0.14179
0.141829
0.141871
0.141911
0.141932
0.141939
0.141862
0.142052
0.137129
0.125018
0.165001
0.346331
0.667486
0.999513
1.23266
1.41031
1.59325
1.78721
1.98899
2.19595
2.40497
2.61058
2.80329
2.97051
3.10797
3.23317
3.35844
3.49311
3.64133
3.79645
3.94736
4.08564
4.21574
4.36081
4.55465
4.85114
5.3606
6.1519
7.68488
0.14178
0.141735
0.141691
0.141644
0.141601
0.141555
0.141508
0.141464
0.141422
0.141382
0.141347
0.141315
0.141286
0.141261
0.141238
0.141207
0.141156
0.141062
0.140868
0.140441
0.140211
0.140088
0.139991
0.139899
0.139808
0.139718
0.139626
0.139532
0.139432
0.139327
0.139214
0.139097
0.138975
0.138856
0.138745
0.138654
0.138592
0.138651
0.138551
0.141828
0.141874
0.141925
0.141984
0.142033
0.14209
0.142037
0.142399
0.141151
0.129129
0.136121
0.258281
0.554505
0.938401
1.2518
1.47219
1.67848
1.89759
2.12868
2.3693
2.61683
2.86671
3.10996
3.33095
3.51252
3.65988
3.80272
3.95463
4.12024
4.29284
4.45966
4.61082
4.74971
4.90495
5.11839
5.45223
6.03815
6.96598
8.48179
0.141788
0.141742
0.141698
0.141651
0.141606
0.141558
0.141512
0.141469
0.141429
0.141393
0.141361
0.141332
0.141305
0.141283
0.141265
0.141242
0.141208
0.141153
0.141056
0.140825
0.140564
0.140401
0.140272
0.140163
0.140066
0.139977
0.13989
0.139805
0.139719
0.13963
0.139539
0.139444
0.139348
0.139254
0.139166
0.139095
0.139044
0.139089
0.139008
0.141837
0.141888
0.141947
0.142017
0.142086
0.142171
0.142183
0.142348
0.142908
0.13547
0.125569
0.191007
0.433783
0.836104
1.23228
1.51802
1.75372
1.99813
2.25819
2.53226
2.81811
3.11209
3.40645
3.68541
3.92555
4.1138
4.27646
4.44627
4.62964
4.81997
5.00288
5.16701
5.31486
5.47869
5.7114
6.08477
6.74949
7.81338
9.26614
0.141786
0.14174
0.141693
0.141643
0.141596
0.141548
0.141502
0.141461
0.141424
0.14139
0.141358
0.141329
0.141304
0.141286
0.141273
0.141257
0.141232
0.141193
0.141142
0.141076
0.140898
0.14074
0.140578
0.140433
0.140315
0.140214
0.140124
0.140039
0.139957
0.139877
0.139796
0.139716
0.139636
0.139559
0.139488
0.13943
0.139386
0.139421
0.139361
0.141834
0.141885
0.141948
0.142025
0.142109
0.142207
0.142293
0.142301
0.143203
0.140467
0.126798
0.148356
0.321266
0.70241
1.16534
1.53742
1.81804
2.08964
2.37877
2.68633
3.01062
3.34878
3.69443
4.03286
4.33837
4.58635
4.78137
4.96957
5.17067
5.37859
5.57751
5.75446
5.91104
6.08189
6.33302
6.74738
7.49176
8.68566
10.0387
0.141779
0.141729
0.141678
0.141625
0.141577
0.141529
0.141484
0.141445
0.141409
0.141374
0.141341
0.141312
0.141291
0.141279
0.141273
0.141263
0.141244
0.141215
0.14118
0.141157
0.141114
0.141022
0.140878
0.140725
0.14058
0.140453
0.140347
0.140254
0.14017
0.14009
0.140013
0.139938
0.139867
0.1398
0.139739
0.139691
0.139651
0.139682
0.139638
0.141826
0.141875
0.141937
0.142015
0.142108
0.142214
0.142349
0.142343
0.142935
0.143068
0.132891
0.128273
0.230073
0.553156
1.04897
1.51703
1.8664
2.17196
2.49112
2.83249
3.19557
3.57824
3.97547
4.37401
4.74789
5.06665
5.3156
5.52641
5.74477
5.96968
6.18415
6.37349
6.53814
6.71442
6.98236
7.43808
8.26115
9.57209
10.7995
0.141763
0.14171
0.141656
0.141602
0.141553
0.141506
0.141462
0.141422
0.141384
0.141346
0.141313
0.141287
0.141273
0.14127
0.14127
0.141265
0.141251
0.141227
0.141199
0.141177
0.141172
0.141146
0.141083
0.14098
0.140845
0.14071
0.140584
0.140472
0.140375
0.140289
0.140209
0.140135
0.140065
0.140001
0.139945
0.139902
0.139868
0.139894
0.139869
0.141811
0.141859
0.14192
0.141997
0.142092
0.142204
0.142358
0.142424
0.142655
0.143768
0.138906
0.124847
0.167705
0.407454
0.889715
1.44361
1.88767
2.24304
2.5951
2.9711
3.37354
3.80129
4.25061
4.7097
5.15324
5.54839
5.86879
6.11872
6.35385
6.59446
6.82355
7.0245
7.19628
7.37616
7.65826
8.15422
9.05296
10.4592
11.5472
0.141738
0.141683
0.14163
0.141576
0.141528
0.141481
0.141436
0.141393
0.141351
0.141313
0.141282
0.141263
0.141257
0.141261
0.141266
0.141264
0.141252
0.141231
0.141208
0.141188
0.141178
0.141167
0.141147
0.141109
0.141044
0.140945
0.140826
0.140708
0.140594
0.140491
0.140401
0.14032
0.140248
0.140183
0.140128
0.140086
0.140054
0.140073
0.140102
0.141787
0.141836
0.141896
0.141974
0.142069
0.142184
0.142338
0.14248
0.14254
0.143523
0.14264
0.129949
0.134323
0.28363
0.703807
1.30949
1.86558
2.29642
2.68929
3.10179
3.54447
4.01804
4.52008
5.04026
5.55403
6.02807
6.43024
6.7432
7.00026
7.25458
7.49669
7.70804
7.88571
8.06714
8.35928
8.8924
9.8617
11.3327
12.2795
0.141707
0.141654
0.141602
0.141549
0.1415
0.141452
0.141405
0.141359
0.141317
0.14128
0.141254
0.141239
0.141238
0.141247
0.141256
0.141255
0.141244
0.141226
0.141208
0.141193
0.14118
0.141168
0.141155
0.141139
0.141115
0.141075
0.141015
0.140927
0.140817
0.140709
0.140606
0.140512
0.14043
0.14036
0.140301
0.140257
0.140225
0.140251
0.140372
0.141757
0.141805
0.141865
0.141943
0.142038
0.142158
0.142307
0.142491
0.142549
0.143087
0.144033
0.136834
0.124025
0.194496
0.514893
1.11747
1.78158
2.31908
2.77003
3.22307
3.70753
4.22787
4.78342
5.36529
5.94962
6.50334
6.99233
7.38666
7.68633
7.95227
8.20489
8.42482
8.60677
8.78761
9.08379
9.64845
10.6814
12.1806
12.9935
0.141676
0.141624
0.14157
0.141517
0.141468
0.141419
0.141371
0.141326
0.141285
0.141251
0.141225
0.141211
0.141214
0.141228
0.141239
0.141238
0.141229
0.141214
0.141201
0.14119
0.141179
0.141167
0.141154
0.141141
0.141127
0.14111
0.141087
0.141051
0.140994
0.140915
0.140817
0.140721
0.140634
0.140556
0.140492
0.140445
0.140427
0.14048
0.140631
0.141724
0.141771
0.141829
0.141907
0.142002
0.142124
0.142271
0.142465
0.142592
0.142803
0.144006
0.141794
0.127193
0.143446
0.348701
0.884259
1.62159
2.29073
2.8286
3.33178
3.86082
4.42934
5.03941
5.68364
6.33873
6.97206
7.54957
8.03555
8.40619
8.6906
8.95009
9.17587
9.35989
9.5373
9.83004
10.4176
11.5056
12.9937
13.6866
0.141645
0.141591
0.141536
0.141482
0.141434
0.141386
0.141339
0.141296
0.141256
0.14122
0.141193
0.141184
0.141195
0.141215
0.141227
0.141226
0.141216
0.141202
0.141192
0.141183
0.141172
0.141161
0.14115
0.141138
0.141126
0.141113
0.1411
0.141085
0.141064
0.14103
0.14098
0.140915
0.140842
0.14077
0.140711
0.14067
0.14068
0.14074
0.140848
0.141693
0.141739
0.141796
0.141871
0.141964
0.142085
0.142234
0.14242
0.142609
0.142708
0.143508
0.144016
0.13466
0.124323
0.225594
0.639745
1.38424
2.18666
2.84877
3.42202
4.00108
4.62002
5.28591
5.99333
6.71943
7.43193
8.09773
8.67959
9.14078
9.47209
9.73502
9.96271
10.1457
10.3157
10.5965
11.1946
12.3267
13.7672
14.3562
0.141614
0.141557
0.141502
0.141449
0.141401
0.141354
0.141309
0.141267
0.141226
0.14119
0.14117
0.141177
0.141203
0.14123
0.141241
0.141239
0.141224
0.141204
0.14119
0.141178
0.141166
0.141154
0.141143
0.141133
0.141122
0.14111
0.141099
0.141088
0.141077
0.141063
0.141043
0.141016
0.140982
0.140943
0.140908
0.140882
0.140888
0.140917
0.14098
0.141664
0.14171
0.141766
0.141839
0.14193
0.142047
0.142195
0.142371
0.142586
0.142711
0.143088
0.144319
0.140771
0.125037
0.153315
0.420306
1.08778
1.9856
2.80461
3.48171
4.12286
4.79617
5.51979
6.29153
7.08901
7.88014
8.63317
9.31138
9.87278
10.2844
10.5636
10.7876
10.9653
11.123
11.382
11.9745
13.1341
14.499
15
0.141585
0.141526
0.141471
0.141419
0.141371
0.141324
0.141278
0.141236
0.141196
0.141171
0.141176
0.141211
0.141256
0.141283
0.14129
0.141285
0.141261
0.14123
0.141206
0.141186
0.141168
0.141153
0.141139
0.141127
0.141116
0.141105
0.141095
0.141085
0.141075
0.141065
0.141055
0.141043
0.141029
0.141013
0.140998
0.140987
0.14099
0.141001
0.141042
0.141637
0.141686
0.141742
0.141814
0.141902
0.142015
0.142158
0.142326
0.142538
0.142722
0.142887
0.143843
0.143799
0.132973
0.12473
0.256677
0.771774
1.68249
2.66363
3.48972
4.21735
4.95238
5.73689
6.57451
7.44403
8.31336
9.15222
9.92547
10.5899
11.1013
11.4376
11.6539
11.8203
11.9597
12.1864
12.7532
13.9144
15.1891
15.6164
0.141562
0.141503
0.141446
0.141391
0.14134
0.141292
0.141245
0.141203
0.141174
0.141176
0.141218
0.141283
0.141334
0.141353
0.141354
0.141348
0.141316
0.141276
0.141241
0.14121
0.141184
0.141162
0.141143
0.141127
0.141114
0.141102
0.14109
0.14108
0.14107
0.141061
0.141052
0.141044
0.141036
0.141029
0.141023
0.141019
0.141024
0.141029
0.141063
0.141616
0.141668
0.141724
0.141795
0.141879
0.141987
0.142126
0.142287
0.142483
0.142704
0.142838
0.143338
0.144439
0.140061
0.123435
0.161467
0.487729
1.30007
2.39678
3.41242
4.26794
5.08051
5.93141
6.83757
7.78016
8.72763
9.65102
10.5172
11.284
11.9029
12.3314
12.5665
12.7134
12.8273
13.011
13.5284
14.6576
15.8393
16.205
0.14155
0.141489
0.141427
0.141365
0.14131
0.141259
0.14121
0.141174
0.141168
0.141206
0.141281
0.141357
0.141396
0.1414
0.141398
0.141395
0.141365
0.141325
0.141285
0.141247
0.141213
0.141184
0.141158
0.141137
0.141119
0.141103
0.141089
0.141076
0.141065
0.141055
0.141047
0.141039
0.141033
0.141027
0.141024
0.141023
0.141029
0.141033
0.141064
0.141606
0.141661
0.141718
0.141786
0.141866
0.141968
0.142099
0.142254
0.142435
0.142659
0.142833
0.143057
0.144026
0.143655
0.132069
0.124634
0.279812
0.893621
1.99708
3.20735
4.24639
5.168
6.09553
7.0745
8.09215
9.1182
10.1253
11.0824
11.949
12.6765
13.2134
13.5219
13.6485
13.7277
13.8586
14.3002
15.361
16.4527
16.7663
0.141555
0.141487
0.141416
0.141347
0.141286
0.141229
0.141181
0.141157
0.141177
0.141244
0.141332
0.141395
0.141412
0.141406
0.141406
0.141406
0.141387
0.141357
0.141321
0.141283
0.141247
0.141213
0.141182
0.141155
0.141132
0.141111
0.141093
0.141077
0.141063
0.141051
0.141041
0.141033
0.141027
0.141022
0.141019
0.141018
0.141024
0.141026
0.141055
0.141614
0.141671
0.141729
0.141795
0.14187
0.141962
0.142082
0.142228
0.142396
0.142604
0.142814
0.142961
0.143493
0.144468
0.139889
0.122673
0.164156
0.536372
1.49934
2.83789
4.10833
5.19205
6.21801
7.27761
8.37369
9.47956
10.5701
11.6167
12.5806
13.4144
14.0643
14.477
14.6309
14.6637
14.7298
15.0716
16.0274
17.034
17.3022
0.141579
0.141503
0.141423
0.141345
0.141276
0.141212
0.141163
0.141153
0.141192
0.141269
0.141348
0.14139
0.141392
0.141386
0.141391
0.141391
0.141383
0.141365
0.141339
0.141308
0.141274
0.141241
0.141209
0.141179
0.141151
0.141126
0.141104
0.141083
0.141066
0.141051
0.141038
0.141028
0.14102
0.141015
0.141011
0.14101
0.141015
0.141015
0.141042
0.141645
0.141705
0.141765
0.141829
0.141896
0.141977
0.142081
0.142212
0.142367
0.142556
0.142773
0.142935
0.143178
0.144074
0.143674
0.132245
0.123289
0.287093
0.984286
2.30143
3.79924
5.11431
6.28179
7.43655
8.61707
9.80529
10.98
12.1151
13.1742
14.1116
14.8735
15.4017
15.6448
15.6389
15.6271
15.8479
16.6639
17.5888
17.8158
0.141627
0.141545
0.141458
0.141368
0.141287
0.141211
0.141161
0.141157
0.141201
0.141272
0.141335
0.141364
0.14137
0.141373
0.141379
0.141375
0.141368
0.141356
0.141338
0.141315
0.141289
0.14126
0.14123
0.141201
0.141173
0.141146
0.14112
0.141096
0.141075
0.141056
0.14104
0.141027
0.141017
0.141009
0.141004
0.141001
0.141004
0.141002
0.141028
0.141701
0.141767
0.141831
0.141892
0.141951
0.142018
0.142104
0.142215
0.142352
0.142519
0.142722
0.142911
0.143058
0.143542
0.144427
0.140324
0.12294
0.159448
0.553207
1.65685
3.27833
4.87614
6.25532
7.53676
8.81249
10.0876
11.3483
12.5722
13.7254
14.7638
15.6352
16.2801
16.6349
16.6591
16.5538
16.6365
17.2799
18.1242
18.3113
0.141703
0.141617
0.141522
0.141418
0.14132
0.141232
0.141174
0.141165
0.1412
0.141257
0.141309
0.141344
0.141366
0.14138
0.141384
0.141373
0.141359
0.141346
0.14133
0.141312
0.141291
0.141268
0.141243
0.141217
0.141191
0.141164
0.141138
0.141112
0.141088
0.141067
0.141048
0.141031
0.141018
0.141008
0.141
0.140995
0.140996
0.140991
0.141016
0.141784
0.141855
0.141923
0.141986
0.142038
0.142089
0.142153
0.142241
0.142355
0.1425
0.142678
0.14287
0.143019
0.143235
0.143998
0.143813
0.133566
0.121178
0.275046
1.02385
2.55997
4.4113
6.08687
7.5553
8.94691
10.3172
11.6676
12.9818
14.2288
15.367
16.3452
17.1045
17.5783
17.6979
17.5131
17.4474
17.8878
18.648
18.794
0.141801
0.141712
0.141607
0.141488
0.141375
0.141272
0.141201
0.141176
0.141193
0.141235
0.141287
0.141337
0.141377
0.141398
0.141397
0.141381
0.141362
0.141342
0.141323
0.141304
0.141286
0.141266
0.141246
0.141224
0.141202
0.141178
0.141153
0.141128
0.141104
0.141081
0.141059
0.141041
0.141024
0.141011
0.141001
0.140993
0.140991
0.140984
0.141007
0.141884
0.14196
0.142031
0.142097
0.142148
0.142188
0.142231
0.142293
0.142381
0.1425
0.14265
0.142826
0.142989
0.143118
0.1435
0.144301
0.141235
0.124568
0.148894
0.532544
1.74579
3.68485
5.70161
7.44909
9.00173
10.4821
11.9289
13.3365
14.6787
15.9163
17.0001
17.8715
18.4635
18.6947
18.511
18.2924
18.5035
19.1684
19.2701
0.141905
0.141814
0.1417
0.14157
0.141446
0.14133
0.14124
0.141194
0.141189
0.141219
0.141272
0.141334
0.141385
0.141409
0.141405
0.14139
0.141368
0.141344
0.141321
0.1413
0.14128
0.141261
0.141243
0.141225
0.141206
0.141185
0.141164
0.141141
0.141118
0.141095
0.141073
0.141052
0.141034
0.141019
0.141006
0.140995
0.140991
0.140981
0.141001
0.141989
0.142064
0.142137
0.142206
0.142262
0.142301
0.142331
0.14237
0.142431
0.142524
0.142646
0.142793
0.142952
0.143076
0.143237
0.143827
0.143974
0.135766
0.11976
0.247265
1.00374
2.74871
5.02788
7.15056
8.94591
10.5661
12.1211
13.6279
15.0682
16.4065
17.5957
18.5782
19.2863
19.6373
19.5453
19.177
19.159
19.6942
19.7465
0.142001
0.141908
0.141791
0.141657
0.141526
0.141398
0.141291
0.141223
0.141195
0.14121
0.14126
0.141327
0.141384
0.141408
0.141404
0.141392
0.141372
0.141347
0.141322
0.141299
0.141277
0.141257
0.141239
0.141221
0.141205
0.141187
0.141168
0.141148
0.141127
0.141106
0.141085
0.141064
0.141046
0.141028
0.141014
0.141001
0.140994
0.140981
0.140998
0.142081
0.142153
0.142225
0.142294
0.142356
0.142406
0.142438
0.142463
0.142502
0.142569
0.142665
0.142783
0.14292
0.143046
0.143142
0.143401
0.144091
0.142274
0.127508
0.136793
0.480331
1.76362
4.05381
6.57138
8.7225
10.545
12.2295
13.8456
15.3893
16.8314
18.1275
19.2215
20.0452
20.5168
20.5345
20.0994
19.8762
20.2336
20.2306
0.142076
0.141986
0.141873
0.141742
0.141608
0.141472
0.141349
0.141258
0.141208
0.141205
0.141247
0.141314
0.141375
0.141402
0.141399
0.141388
0.14137
0.141347
0.141322
0.141298
0.141275
0.141254
0.141235
0.141217
0.141201
0.141185
0.141168
0.141151
0.141132
0.141113
0.141093
0.141074
0.141056
0.141038
0.141023
0.141009
0.141
0.140985
0.140999
0.142151
0.142217
0.142285
0.142352
0.142418
0.142483
0.142532
0.14256
0.142587
0.142632
0.142704
0.142797
0.142906
0.14302
0.143109
0.143208
0.143608
0.144018
0.13822
0.120347
0.212236
0.940213
2.88716
5.64536
8.24683
10.3759
12.2335
13.976
15.6322
17.1833
18.5897
19.7975
20.7383
21.3307
21.4672
21.0652
20.6427
20.7932
20.7298
0.142128
0.142046
0.141942
0.141818
0.141686
0.141544
0.141407
0.141296
0.141223
0.141201
0.141231
0.141298
0.141366
0.141397
0.141393
0.141381
0.141363
0.141342
0.141319
0.141295
0.141273
0.141251
0.141231
0.141213
0.141197
0.141181
0.141165
0.141149
0.141133
0.141116
0.141098
0.14108
0.141063
0.141047
0.141032
0.141017
0.141007
0.140991
0.141003
0.142195
0.142253
0.142314
0.142378
0.142446
0.142522
0.142595
0.142644
0.142673
0.142706
0.142758
0.14283
0.142915
0.143007
0.14309
0.143147
0.143287
0.14382
0.143057
0.131262
0.126803
0.415866
1.74975
4.40026
7.42253
9.98498
12.1007
14.0009
15.7844
17.453
18.9754
20.3012
21.363
22.0789
22.3449
22.0615
21.4594
21.3794
21.2514
0.142157
0.142088
0.141997
0.141883
0.141754
0.141609
0.141461
0.141332
0.141238
0.141196
0.141215
0.141281
0.141356
0.141391
0.141387
0.141374
0.141356
0.141334
0.141312
0.14129
0.141268
0.141247
0.141228
0.14121
0.141193
0.141177
0.141162
0.141147
0.141131
0.141116
0.1411
0.141084
0.141068
0.141053
0.141039
0.141024
0.141015
0.140998
0.141009
0.142213
0.142261
0.142313
0.142372
0.142439
0.142521
0.142615
0.142695
0.142745
0.14278
0.142821
0.142877
0.142944
0.143015
0.143082
0.143132
0.143172
0.1434
0.143884
0.140375
0.122747
0.179922
0.873503
3.00686
6.20223
9.2712
11.7703
13.8929
15.8292
17.6289
19.276
20.7263
21.9152
22.7598
23.1602
23.0028
22.328
21.9989
21.8024
0.142162
0.142108
0.142033
0.141932
0.141811
0.141668
0.141513
0.14137
0.141256
0.141195
0.1412
0.141263
0.141344
0.141383
0.14138
0.141367
0.141347
0.141326
0.141304
0.141282
0.141261
0.141241
0.141223
0.141206
0.141189
0.141174
0.141159
0.141144
0.141129
0.141114
0.141099
0.141085
0.141071
0.141057
0.141044
0.14103
0.141021
0.141005
0.141016
0.142204
0.14224
0.142282
0.142334
0.142399
0.142483
0.142591
0.142701
0.142786
0.14284
0.142883
0.142929
0.142984
0.14304
0.143091
0.143131
0.14315
0.143197
0.143543
0.143454
0.134987
0.120174
0.363593
1.73701
4.6657
8.13914
11.1501
13.6063
15.7427
17.6956
19.4803
21.0645
22.3886
23.3701
23.9115
23.8935
23.2553
22.6569
22.3887
0.142142
0.142105
0.142047
0.141963
0.141855
0.141719
0.141564
0.141411
0.14128
0.141198
0.141187
0.141243
0.141329
0.141371
0.14137
0.141357
0.141338
0.141316
0.141294
0.141272
0.141252
0.141233
0.141216
0.1412
0.141184
0.141169
0.141155
0.14114
0.141126
0.141112
0.141098
0.141085
0.141071
0.141058
0.141046
0.141034
0.141026
0.141011
0.141022
0.142168
0.142191
0.142221
0.142263
0.142325
0.142411
0.142527
0.14266
0.142781
0.14287
0.14293
0.142978
0.143027
0.143074
0.143114
0.143143
0.143156
0.143151
0.143246
0.143638
0.142002
0.125393
0.15825
0.824505
3.05128
6.57587
10.1265
13.0582
15.4876
17.6315
19.574
21.3053
22.7751
23.9046
24.5966
24.7371
24.2444
23.4026
23.0145
0.142096
0.142077
0.142039
0.141977
0.141887
0.141765
0.141614
0.141454
0.141308
0.141206
0.141176
0.141222
0.141311
0.141358
0.141358
0.141345
0.141326
0.141304
0.141282
0.141261
0.141241
0.141223
0.141207
0.141192
0.141178
0.141164
0.14115
0.141136
0.141123
0.141109
0.141096
0.141083
0.141071
0.141059
0.141048
0.141036
0.141029
0.141014
0.141026
0.142105
0.142113
0.14213
0.142162
0.142218
0.142305
0.142427
0.142574
0.142726
0.142855
0.142947
0.143012
0.143064
0.143109
0.143144
0.143166
0.143173
0.143159
0.14315
0.143314
0.143614
0.137731
0.116826
0.331511
1.67417
4.73222
8.61831
12.1375
14.9958
17.4041
19.5369
21.4346
23.0644
24.3551
25.2101
25.5203
25.1844
24.2749
23.6901
0.142023
0.142022
0.142008
0.141971
0.141904
0.1418
0.141658
0.141496
0.141338
0.141216
0.141167
0.141203
0.141294
0.141344
0.141345
0.141332
0.141312
0.141291
0.141269
0.141249
0.14123
0.141212
0.141197
0.141183
0.14117
0.141157
0.141144
0.141132
0.141119
0.141106
0.141093
0.141081
0.141069
0.141058
0.141047
0.141037
0.14103
0.141015
0.141026
0.142015
0.142009
0.142011
0.142033
0.142082
0.142167
0.142292
0.14245
0.142623
0.142789
0.142921
0.143015
0.143083
0.143135
0.143172
0.143192
0.143196
0.143182
0.14315
0.143158
0.143414
0.143039
0.126949
0.149315
0.754428
2.92516
6.67292
10.7258
14.1633
16.96
19.3402
21.4336
23.2425
24.7102
25.7441
26.2369
26.0806
25.2558
24.4159
0.141925
0.141944
0.141955
0.141946
0.141904
0.141821
0.141693
0.141534
0.141368
0.14123
0.141162
0.141186
0.141278
0.14133
0.141332
0.141318
0.141299
0.141277
0.141256
0.141235
0.141217
0.1412
0.141186
0.141172
0.14116
0.141149
0.141137
0.141125
0.141114
0.141102
0.14109
0.141078
0.141067
0.141056
0.141046
0.141036
0.141029
0.141015
0.141025
0.141901
0.141879
0.141869
0.141879
0.14192
0.142
0.142127
0.14229
0.142477
0.142672
0.142843
0.142974
0.143069
0.143137
0.143185
0.143211
0.143218
0.143205
0.143174
0.143139
0.14316
0.143738
0.13882
0.118178
0.296859
1.50126
4.53798
8.78098
12.8602
16.2018
18.9382
21.2755
23.2912
24.9554
26.1868
26.8785
26.9237
26.276
25.2166
0.141805
0.141845
0.141881
0.141901
0.141884
0.141825
0.141717
0.141568
0.1414
0.141248
0.141161
0.141171
0.141263
0.141317
0.141319
0.141305
0.141285
0.141263
0.141241
0.141222
0.141204
0.141188
0.141174
0.141161
0.14115
0.141139
0.141129
0.141118
0.141107
0.141096
0.141085
0.141075
0.141064
0.141054
0.141044
0.141034
0.141027
0.141014
0.141023
0.141765
0.141729
0.141706
0.141706
0.141738
0.141813
0.141937
0.142102
0.142296
0.142509
0.142712
0.142879
0.143008
0.143103
0.14317
0.14321
0.143227
0.143221
0.143196
0.143158
0.143109
0.143345
0.143258
0.129048
0.143686
0.634538
2.61133
6.44539
10.9833
15.0046
18.2495
20.9202
23.185
25.0722
26.5221
27.4325
27.6954
27.242
26.1966
0.141668
0.141727
0.141788
0.141834
0.141845
0.141814
0.141731
0.141599
0.141434
0.14127
0.141161
0.141154
0.141245
0.1413
0.141304