/*--------------------------------*- C++ -*----------------------------------*\
  =========                 |
  \\      /  F ield         | OpenFOAM: The Open Source CFD Toolbox
   \\    /   O peration     | Website:  https://openfoam.org
    \\  /    A nd           | Version:  9
     \\/     M anipulation  |
\*---------------------------------------------------------------------------*/
FoamFile
{
    format      ascii;
    class       volVectorField;
    location    "400";
    object      U;
}
// * * * * * * * * * * * * * * * * * * * * * * * * * * * * * * * * * * * * * //

dimensions      [0 1 -1 0 0 0 0];

internalField   nonuniform List<vector> 
10720
(
(-14.8048 -42.477 5.25717e-17)
(-17.6988 -46.8432 -4.75434e-17)
(-20.743 -49.9357 0)
(-23.4859 -50.7242 -5.28696e-16)
(-26.067 -50.0748 5.81365e-16)
(-28.2758 -47.7848 2.83927e-16)
(-30.0309 -44.4022 3.25014e-16)
(-31.1573 -40.4175 0)
(-31.536 -36.051 0)
(-31.187 -31.5711 0)
(-30.1986 -27.1869 7.98752e-17)
(-28.6384 -23.0011 0)
(-26.6122 -19.1074 -1.39053e-15)
(-24.1986 -15.5518 0)
(-21.4731 -12.3599 0)
(-18.509 -9.54935 0)
(-15.3695 -7.12279 8.86604e-15)
(-12.1064 -5.07967 1.68164e-14)
(-8.77827 -3.41208 -2.07018e-14)
(-5.42959 -2.11377 0)
(-2.13795 -1.16885 -4.7024e-14)
(0.963707 -0.505741 1.15783e-13)
(3.98224 0.0377893 -3.82543e-14)
(6.94685 0.344069 7.90691e-16)
(9.73602 0.42977 0)
(12.3484 0.355147 -7.17158e-15)
(14.8312 0.147415 -9.41874e-17)
(17.2041 -0.177901 2.4131e-15)
(19.4752 -0.607009 7.99385e-15)
(21.6568 -1.12582 2.62728e-14)
(23.7674 -1.72077 -1.07357e-14)
(25.8373 -2.37936 -1.79061e-14)
(27.9066 -3.09814 -1.39702e-14)
(30.012 -3.87226 -4.30178e-14)
(32.2537 -4.71663 1.5056e-14)
(34.6855 -5.64661 8.95781e-17)
(37.669 -6.76296 7.28308e-18)
(41.2898 -8.18301 1.7204e-14)
(47.8721 -10.0734 -4.87855e-14)
(-11.8602 -36.4846 2.42121e-17)
(-8.8146 -29.0211 5.0478e-17)
(-5.3982 -19.6708 -1.23374e-16)
(-1.80552 -8.82175 3.66732e-16)
(0.601721 0.876568 1.7117e-15)
(-1.79924 4.2764 -2.10134e-15)
(-3.6295 4.6843 -5.92697e-15)
(-3.709 4.41152 -1.91852e-15)
(-3.18559 3.51002 0)
(-2.06162 2.43878 0)
(-0.885554 1.4793 -7.42328e-15)
(-0.0657043 0.83058 -6.12228e-15)
(0.41071 0.478219 1.47338e-14)
(0.745766 0.19524 -1.33404e-14)
(0.882845 0.0456993 -2.71164e-14)
(0.89081 -0.0156754 -2.06368e-14)
(1.00012 -0.133474 -3.37598e-14)
(1.14854 -0.298952 -2.80845e-14)
(1.1174 -0.362705 0)
(0.740794 -0.2737 0)
(0.217809 -0.143987 3.18559e-14)
(-0.390246 -0.0110476 1.67048e-15)
(-1.06501 0.108452 -2.40783e-14)
(-1.75566 0.186776 2.01308e-14)
(-2.37033 0.214723 2.70749e-18)
(-2.84681 0.206503 0)
(-3.13421 0.173853 -8.48303e-15)
(-3.19983 0.128 0)
(-3.06544 0.0785583 0)
(-2.69622 0.0303201 -8.52598e-15)
(-2.08653 0.00167724 0)
(-1.14127 0.0174407 3.99931e-14)
(0.345803 0.167439 7.97075e-14)
(2.60761 0.518385 3.11539e-13)
(3.81119 0.460156 -1.20955e-13)
(8.49092 1.34421 2.71234e-16)
(10.7772 1.62534 0)
(19.415 2.92087 -1.22624e-13)
(8.84982 4.3163 -9.42782e-14)
(-9.10531 -55.9162 1.14771e-17)
(-9.38592 -55.4682 -1.98838e-17)
(-10.2602 -54.3898 0)
(-12.009 -52.8915 0)
(-14.5234 -51.0185 -1.58469e-16)
(-17.4423 -48.7568 -2.84286e-16)
(-20.1016 -45.8247 0)
(-22.2852 -42.3335 0)
(-23.8386 -38.4089 7.24018e-18)
(-24.6662 -34.2447 0)
(-24.7876 -30.0056 -8.05949e-16)
(-24.2468 -25.834 0)
(-23.1153 -21.8403 -7.77401e-16)
(-21.4741 -18.104 8.55746e-16)
(-19.404 -14.6799 -2.51473e-15)
(-16.9829 -11.6072 6.38364e-15)
(-14.2862 -8.90577 -7.96749e-15)
(-11.3803 -6.59431 -1.00682e-14)
(-8.3341 -4.6732 -1.27828e-14)
(-5.20907 -3.14686 -1.05044e-15)
(-2.08073 -2.00946 2.43526e-14)
(0.960977 -1.19118 -2.78701e-14)
(3.94935 -0.572686 1.35386e-15)
(6.86983 -0.269031 0)
(9.63775 -0.210258 0)
(12.258 -0.30666 0)
(14.7726 -0.536097 -5.70909e-16)
(17.1975 -0.886066 1.16188e-16)
(19.5375 -1.3397 -6.54369e-15)
(21.8032 -1.87901 2.30901e-17)
(24.009 -2.48815 -2.29892e-17)
(26.1834 -3.15416 6.34225e-17)
(28.3639 -3.87748 -1.16389e-14)
(30.5839 -4.65492 1.76498e-14)
(32.9421 -5.50671 8.21438e-17)
(35.4814 -6.45822 1.4855e-14)
(38.5982 -7.63789 0)
(42.1693 -9.10959 -6.82957e-15)
(49.1726 -11.9267 -3.66947e-14)
(-9.16804 -55.5981 -1.55825e-17)
(-9.12304 -54.133 3.18781e-17)
(-8.37666 -50.2745 2.94986e-16)
(-6.36682 -42.2849 -3.83027e-16)
(-3.40107 -29.7356 0)
(-1.43823 -14.2915 1.00238e-15)
(-1.31263 -1.32828 1.12493e-15)
(-2.79205 3.1477 9.31762e-15)
(-3.18441 4.21766 -2.75028e-15)
(-2.74827 3.93465 2.58239e-15)
(-2.1156 3.03586 -4.29014e-15)
(-1.67338 2.15414 1.70244e-15)
(-1.47557 1.55175 0)
(-1.38225 1.10383 2.37999e-15)
(-1.38249 0.796144 2.7216e-17)
(-1.48605 0.575061 6.54075e-15)
(-1.66191 0.388803 0)
(-1.92207 0.272985 0)
(-2.28186 0.253661 7.51089e-16)
(-2.73473 0.294332 -6.70836e-16)
(-3.23158 0.346776 9.28822e-15)
(-3.75519 0.392701 1.14958e-15)
(-4.29379 0.42485 -5.31245e-16)
(-4.81348 0.42395 -8.1523e-15)
(-5.25774 0.384911 8.07482e-15)
(-5.58841 0.321578 7.33936e-15)
(-5.77705 0.245392 0)
(-5.81202 0.167967 0)
(-5.6692 0.0924305 0)
(-5.29951 0.0169316 -3.1133e-19)
(-4.67229 -0.0407427 0)
(-3.6742 -0.0561036 0)
(-2.14592 0.0726697 -4.79498e-14)
(-0.0794176 0.356369 -4.49344e-14)
(1.44537 0.34464 4.83022e-14)
(6.44377 1.39318 -3.17345e-14)
(8.17148 1.52867 6.48702e-14)
(17.6222 3.00784 6.45252e-14)
(8.87294 2.57243 4.39707e-14)
(-10.8606 -50.8946 4.60436e-18)
(-11.8805 -49.9026 1.02047e-16)
(-13.3879 -48.9591 -8.51756e-17)
(-15.0714 -48.0394 -6.44631e-17)
(-16.7334 -46.7462 -1.37891e-16)
(-18.4269 -44.9042 3.41392e-16)
(-19.9959 -42.5513 -2.05784e-16)
(-21.3176 -39.7393 -1.09301e-17)
(-22.2781 -36.5429 -1.0628e-16)
(-22.7913 -33.0772 1.0341e-16)
(-22.8003 -29.4643 -5.2165e-16)
(-22.2998 -25.8169 9.54911e-16)
(-21.3086 -22.2389 7.87175e-16)
(-19.8652 -18.8144 0)
(-18.0217 -15.61 2.19035e-15)
(-15.8357 -12.6749 -5.45595e-15)
(-13.3672 -10.0453 0)
(-10.6773 -7.74646 1.63457e-14)
(-7.82625 -5.792 9.98622e-15)
(-4.87529 -4.18906 -1.55185e-15)
(-1.89167 -2.93788 1.93363e-15)
(1.04821 -2.00888 1.07374e-15)
(3.95386 -1.32299 1.42553e-14)
(6.80462 -0.933804 -6.29726e-15)
(9.52469 -0.779593 0)
(12.1145 -0.785235 -4.48482e-15)
(14.6098 -0.930954 4.80343e-16)
(17.0259 -1.206 0)
(19.3681 -1.59379 -5.65799e-15)
(21.647 -2.07756 -9.78193e-15)
(23.8772 -2.6437 1.64133e-14)
(26.0874 -3.27941 1.33181e-14)
(28.315 -3.98776 1.55808e-16)
(30.5929 -4.76499 1.68384e-14)
(33.0193 -5.6322 1.22421e-14)
(35.6278 -6.61605 -1.4424e-14)
(38.8319 -7.84409 0)
(42.3762 -9.43895 -6.27486e-15)
(49.3133 -12.4283 7.12455e-14)
(-10.2438 -52.2379 1.4968e-17)
(-9.97373 -53.8109 3.62105e-17)
(-9.72336 -55.3317 -1.27134e-16)
(-8.82582 -54.9986 0)
(-6.70166 -49.9008 -1.33626e-16)
(-3.7418 -37.6147 0)
(-1.54188 -20.1578 -1.32912e-15)
(-1.71422 -4.76051 -1.46168e-15)
(-2.73229 2.25363 -2.46659e-15)
(-2.83394 4.32918 0)
(-2.77584 4.14599 3.87811e-15)
(-2.79202 3.22191 1.0765e-15)
(-2.95725 2.45033 -5.99141e-15)
(-3.1833 1.84266 0)
(-3.45531 1.38963 3.7629e-15)
(-3.74949 1.06571 1.13928e-15)
(-4.04249 0.843496 -5.2266e-15)
(-4.34394 0.717225 -2.89269e-15)
(-4.67741 0.664375 -9.00419e-16)
(-5.05318 0.647972 4.06804e-16)
(-5.46276 0.640418 -5.84186e-15)
(-5.899 0.628752 0)
(-6.3506 0.606879 0)
(-6.78962 0.560149 2.18425e-18)
(-7.17179 0.485099 0)
(-7.46137 0.392399 -9.85599e-15)
(-7.62687 0.29334 1.44355e-16)
(-7.64636 0.20096 1.10986e-15)
(-7.48842 0.116294 0)
(-7.10229 0.0349337 1.96418e-15)
(-6.45045 -0.0230778 -3.72354e-15)
(-5.43508 -0.0403497 0)
(-3.93275 0.0779144 1.32201e-14)
(-1.98079 0.341648 0)
(-0.1918 0.386515 0)
(4.71012 1.48925 -2.47697e-17)
(6.03331 1.52753 -1.03994e-16)
(15.8747 2.87053 -4.02831e-14)
(8.68755 3.23599 -5.15903e-14)
(-7.93703 -48.7316 1.19935e-17)
(-8.80454 -48.2266 1.94557e-17)
(-9.96958 -47.5688 -3.65789e-17)
(-11.5009 -46.6308 7.55567e-19)
(-13.2164 -45.3309 0)
(-14.947 -43.6392 0)
(-16.5751 -41.526 3.28178e-17)
(-17.9733 -39.0202 -3.39588e-18)
(-19.0541 -36.1705 0)
(-19.7433 -33.0553 5.51741e-16)
(-19.985 -29.768 6.57692e-16)
(-19.7623 -26.4 1.03883e-15)
(-19.076 -23.0432 -1.25748e-15)
(-17.9471 -19.7798 -1.65816e-15)
(-16.4116 -16.6803 0)
(-14.5174 -13.8009 -3.61753e-15)
(-12.3163 -11.1861 -1.39947e-15)
(-9.86611 -8.86883 -1.38816e-14)
(-7.22468 -6.87063 -1.04765e-15)
(-4.45308 -5.20416 1.2248e-15)
(-1.61644 -3.87209 -1.35721e-14)
(1.20891 -2.85362 2.46274e-15)
(4.01818 -2.08012 -1.26654e-14)
(6.79134 -1.59273 -5.07804e-15)
(9.45894 -1.3501 2.68781e-16)
(12.0145 -1.28577 3.53823e-15)
(14.4858 -1.3728 -2.49471e-17)
(16.8855 -1.59758 2.28486e-17)
(19.2175 -1.94271 4.90668e-15)
(21.4909 -2.39061 1.26218e-16)
(23.7197 -2.92756 -7.47957e-15)
(25.9311 -3.53937 1.23416e-14)
(28.162 -4.22983 9.39547e-15)
(30.4451 -4.99483 1.79306e-16)
(32.8778 -5.85642 -1.08185e-14)
(35.4903 -6.84409 0)
(38.6943 -8.08819 -4.25528e-15)
(42.1969 -9.75466 5.65389e-15)
(48.8981 -12.7546 -3.12325e-14)
(-7.36738 -49.3215 1.13292e-17)
(-7.03967 -50.2136 -4.62276e-17)
(-7.07974 -51.8834 -1.37985e-16)
(-7.32299 -54.3441 0)
(-7.01276 -55.7868 1.10785e-16)
(-5.25608 -51.9162 0)
(-2.57622 -39.0518 6.76284e-16)
(-1.26102 -20.115 3.77207e-17)
(-1.93365 -4.42511 -1.27103e-15)
(-2.6322 2.56046 -2.00012e-15)
(-3.00696 4.26665 -8.05241e-18)
(-3.4511 3.70332 -3.44004e-15)
(-3.95729 2.90123 2.8125e-15)
(-4.43863 2.2432 -9.61669e-16)
(-4.86726 1.73747 -3.55752e-15)
(-5.22673 1.37494 -4.13177e-15)
(-5.53956 1.12658 3.86226e-15)
(-5.84527 0.971751 9.68472e-18)
(-6.17354 0.883142 0)
(-6.53475 0.830992 -5.02191e-15)
(-6.92522 0.792575 -2.96762e-16)
(-7.33841 0.753821 4.67864e-15)
(-7.7627 0.705719 0)
(-8.17275 0.636285 2.42545e-18)
(-8.52993 0.544478 0)
(-8.8014 0.439432 3.61329e-15)
(-8.95643 0.332287 0)
(-8.97205 0.23697 -8.271e-16)
(-8.81298 0.153388 3.55242e-17)
(-8.42684 0.076837 -2.15736e-17)
(-7.77268 0.0292359 2.52982e-15)
(-6.76415 0.023242 7.49023e-17)
(-5.29569 0.143812 0)
(-3.40104 0.404487 -8.20741e-15)
(-1.44607 0.511744 -1.25962e-16)
(3.24593 1.59861 1.33031e-14)
(4.38447 1.6349 -5.49684e-14)
(14.4026 2.83479 -1.02955e-16)
(8.61114 3.96568 0)
(-8.10672 -47.2523 1.1981e-17)
(-9.02137 -46.6249 9.40341e-18)
(-10.0702 -45.8056 -4.13475e-17)
(-11.2046 -44.7945 1.60542e-16)
(-12.394 -43.5321 -3.06534e-17)
(-13.6519 -41.9558 4.24591e-17)
(-14.8834 -40.0591 -1.83453e-17)
(-15.9817 -37.8489 0)
(-16.8709 -35.3428 -7.07883e-16)
(-17.4745 -32.5914 -2.73317e-16)
(-17.7291 -29.6592 0)
(-17.6019 -26.6143 -9.70342e-16)
(-17.0747 -23.5338 6.77737e-16)
(-16.1485 -20.4912 -2.32161e-15)
(-14.8415 -17.5541 0)
(-13.1844 -14.7824 4.39153e-15)
(-11.2171 -12.2264 -5.18853e-15)
(-8.98798 -9.9258 1.35392e-17)
(-6.54889 -7.9097 0)
(-3.95708 -6.19627 -9.43788e-15)
(-1.27261 -4.79553 1.1256e-14)
(1.42909 -3.69795 6.68878e-16)
(4.13546 -2.84624 9.81442e-15)
(6.82484 -2.2727 8.08524e-15)
(9.43349 -1.94917 0)
(11.9497 -1.81538 0)
(14.3931 -1.84064 7.19687e-16)
(16.7731 -2.01005 7.62359e-17)
(19.0923 -2.30651 -4.4395e-15)
(21.3582 -2.71224 1.12824e-16)
(23.5833 -3.21372 -1.05216e-16)
(25.7933 -3.79665 -1.0733e-14)
(28.024 -4.4651 0)
(30.3071 -5.21562 -2.72933e-14)
(32.7383 -6.07066 8.77995e-17)
(35.3449 -7.06404 0)
(38.5338 -8.32438 -1.12905e-16)
(41.9861 -10.0597 0)
(48.4458 -13.1008 2.58326e-14)
(-7.28702 -47.7912 -1.24567e-17)
(-6.51638 -48.3287 7.63976e-17)
(-5.8577 -49.1382 -6.5135e-17)
(-5.58723 -50.8224 -9.12281e-17)
(-5.72662 -53.7748 2.96014e-16)
(-5.28043 -55.8951 3.48921e-16)
(-3.30966 -51.1486 -4.3431e-16)
(-1.22282 -36.1084 6.8146e-16)
(-0.984143 -16.4893 6.0557e-16)
(-2.05967 -2.29393 1.28457e-15)
(-2.86333 2.95792 -3.42827e-15)
(-3.57158 3.46894 3.16584e-15)
(-4.32152 2.8303 1.63241e-15)
(-4.97439 2.24021 -1.56466e-15)
(-5.50333 1.77722 3.61369e-15)
(-5.93212 1.43895 -6.44789e-16)
(-6.30859 1.20001 0)
(-6.67319 1.0416 2.92068e-15)
(-7.04879 0.94184 -1.08648e-15)
(-7.4436 0.877317 4.55914e-15)
(-7.85617 0.828827 0)
(-8.28115 0.782331 -3.54443e-15)
(-8.7083 0.727361 -3.11495e-15)
(-9.11559 0.652991 2.95346e-15)
(-9.4699 0.55995 0)
(-9.74111 0.456824 2.8662e-15)
(-9.89985 0.35425 0)
(-9.92302 0.266978 0)
(-9.77461 0.19396 0)
(-9.40103 0.130562 -1.08018e-15)
(-8.75932 0.099564 0)
(-7.77123 0.111875 0)
(-6.34041 0.244181 6.74566e-15)
(-4.4846 0.514088 6.21726e-15)
(-2.44597 0.683811 0)
(1.99205 1.72264 1.01586e-14)
(3.10871 1.8282 -4.39234e-17)
(13.0982 2.882 0)
(8.556 4.6461 1.41625e-14)
(-6.86834 -46.1902 -1.07263e-17)
(-7.58708 -45.4576 7.84362e-18)
(-8.48055 -44.5695 0)
(-9.54608 -43.5212 -2.99081e-17)
(-10.6514 -42.2732 7.58535e-17)
(-11.7879 -40.7748 -4.0814e-17)
(-12.8887 -39.013 -1.41414e-18)
(-13.8733 -36.9946 5.77563e-16)
(-14.6874 -34.7247 -1.03498e-16)
(-15.2677 -32.2372 -1.05618e-15)
(-15.5575 -29.5769 3.73246e-16)
(-15.5217 -26.7933 -1.04228e-15)
(-15.1345 -23.9485 -5.96211e-16)
(-14.3849 -21.106 -7.51831e-16)
(-13.2793 -18.3264 0)
(-11.8361 -15.6682 1.04417e-15)
(-10.0844 -13.1839 2.35578e-15)
(-8.06449 -10.916 1.0802e-14)
(-5.82037 -8.89905 -3.9328e-15)
(-3.40502 -7.1568 5.50326e-15)
(-0.873838 -5.70292 1.06251e-15)
(1.70013 -4.53766 0)
(4.29912 -3.61567 -7.88649e-15)
(6.89967 -2.96349 -4.71583e-16)
(9.44324 -2.56252 2.03484e-16)
(11.9144 -2.36011 2.64399e-15)
(14.3256 -2.32418 -5.62379e-16)
(16.6824 -2.43885 -1.13163e-15)
(18.9857 -2.68724 3.95303e-15)
(21.2414 -3.05161 2.05017e-16)
(23.4609 -3.51835 -6.21221e-15)
(25.6676 -4.07326 -9.6522e-15)
(27.8963 -4.72023 0)
(30.1777 -5.45686 -1.25354e-16)
(32.6055 -6.30558 9.05317e-15)
(35.2039 -7.30472 0)
(38.3729 -8.58099 7.2126e-15)
(41.7726 -10.383 0)
(47.9873 -13.4585 -2.30489e-14)
(-6.27744 -46.8452 1.3777e-17)
(-5.70849 -47.4582 -2.01353e-17)
(-5.0876 -48.0856 0)
(-4.49733 -48.9053 0)
(-4.28477 -50.6571 -1.23502e-16)
(-4.33897 -54.0992 -5.39818e-16)
(-3.39465 -55.5892 0)
(-1.35569 -47.9276 4.09645e-16)
(-0.217344 -30.243 6.73139e-16)
(-1.03702 -11.1697 -1.40026e-15)
(-2.44147 -0.205039 4.30348e-17)
(-3.31716 2.4965 -1.487e-15)
(-4.19405 2.34806 9.96214e-18)
(-4.9716 1.91452 -3.93567e-15)
(-5.5951 1.55494 -3.59834e-15)
(-6.121 1.28509 3.33743e-15)
(-6.59301 1.08921 -5.20158e-16)
(-7.04149 0.955551 9.63057e-16)
(-7.48469 0.869553 -4.45031e-16)
(-7.93172 0.813649 -2.91693e-15)
(-8.38389 0.772232 -3.86143e-16)
(-8.83779 0.732686 3.68845e-16)
(-9.28478 0.685108 2.39754e-15)
(-9.70608 0.619862 0)
(-10.0733 0.538156 -1.55354e-16)
(-10.3585 0.447928 -4.53154e-15)
(-10.5333 0.35963 3.53117e-17)
(-10.5749 0.288798 -3.19321e-17)
(-10.4486 0.234132 0)
(-10.0992 0.190846 8.67597e-16)
(-9.48291 0.181984 0)
(-8.52697 0.217957 0)
(-7.13988 0.368769 -5.25845e-15)
(-5.32378 0.656082 -5.00142e-15)
(-3.26804 0.884101 0)
(0.933786 1.87071 -8.12254e-15)
(2.11775 2.086 3.31068e-14)
(11.9004 2.99326 -1.18482e-16)
(8.46773 5.26977 -1.13506e-14)
(-6.1188 -45.1667 5.64077e-19)
(-6.79201 -44.3749 1.97386e-18)
(-7.57707 -43.4339 2.13817e-17)
(-8.45577 -42.3631 -2.07069e-17)
(-9.36578 -41.1335 -6.31992e-17)
(-10.3127 -39.6973 0)
(-11.2399 -38.0477 4.44333e-16)
(-12.0794 -36.1892 1.41802e-16)
(-12.7873 -34.1174 2.6654e-16)
(-13.3089 -31.8555 6.59286e-16)
(-13.5929 -29.4338 0)
(-13.6035 -26.8867 2.0153e-15)
(-13.3106 -24.2632 1.80556e-15)
(-12.6954 -21.6155 4.91966e-15)
(-11.7545 -18.9968 0)
(-10.4953 -16.4621 3.73875e-15)
(-8.93646 -14.0626 4.2818e-15)
(-7.10891 -11.843 -4.92153e-15)
(-5.04992 -9.84135 5.63942e-15)
(-2.80635 -8.0852 -6.44131e-15)
(-0.427507 -6.59213 -9.36931e-16)
(2.01637 -5.37011 8.83103e-15)
(4.50464 -4.38652 0)
(7.01231 -3.66382 6.9654e-15)
(9.48539 -3.19058 -3.736e-16)
(11.9062 -2.92171 -2.62847e-15)
(14.2805 -2.82553 0)
(16.6102 -2.88573 6.37732e-17)
(18.8943 -3.08564 -1.67346e-16)
(21.1373 -3.40779 -6.17228e-15)
(23.3488 -3.83873 5.37382e-15)
(25.5505 -4.36464 8.90261e-15)
(27.7757 -4.98906 -7.26305e-15)
(30.054 -5.71076 -3.39749e-17)
(32.4768 -6.55265 -8.26812e-15)
(35.0655 -7.55734 -1.006e-14)
(38.2104 -8.84946 -3.35788e-15)
(41.5558 -10.7146 -6.35135e-17)
(47.5188 -13.8219 4.93161e-17)
(-5.53184 -45.8951 -2.1236e-18)
(-4.97374 -46.6045 -2.64953e-17)
(-4.39333 -47.3618 -5.39758e-17)
(-3.76522 -48.1216 8.05871e-17)
(-3.2292 -48.9807 3.3376e-16)
(-3.13878 -51.2291 -7.06014e-17)
(-2.88361 -54.9763 -2.40868e-16)
(-1.41113 -54.065 -8.18204e-16)
(0.231573 -42.1469 -5.09524e-16)
(0.117661 -22.506 7.81533e-16)
(-1.59549 -6.02965 2.74503e-17)
(-2.89623 0.577345 1.38151e-15)
(-3.80757 1.53137 0)
(-4.66938 1.37053 2.72084e-17)
(-5.38296 1.14683 2.04806e-15)
(-6.00406 0.967135 -9.44206e-16)
(-6.56872 0.834307 8.64681e-16)
(-7.09865 0.74465 0)
(-7.60964 0.690315 -1.50459e-15)
(-8.11195 0.658931 2.81524e-15)
(-8.60909 0.638411 0)
(-9.09935 0.618165 -2.44518e-15)
(-9.57576 0.589394 0)
(-10.0222 0.544174 1.3667e-16)
(-10.4137 0.483813 -1.26056e-16)
(-10.7237 0.415344 1.88939e-15)
(-10.9246 0.349282 2.77176e-17)
(-10.994 0.301676 2.66398e-17)
(-10.8994 0.271956 -1.25284e-17)
(-10.5841 0.254935 7.32227e-16)
(-10.0039 0.273523 1.31799e-15)
(-9.08974 0.337836 -2.33864e-15)
(-7.75316 0.5124 -6.78624e-17)
(-5.98334 0.822449 -6.82008e-18)
(-3.9506 1.10566 0)
(0.0408196 2.04483 -1.14964e-16)
(1.33021 2.39224 -1.33735e-14)
(10.77 3.15463 1.84934e-17)
(8.32062 5.83323 -9.84527e-15)
(-5.1147 -44.2775 -2.05285e-19)
(-5.71559 -43.4502 1.42074e-17)
(-6.42369 -42.482 0)
(-7.21957 -41.3987 -9.90358e-19)
(-8.02454 -40.187 -1.15671e-16)
(-8.85537 -38.8002 0)
(-9.66529 -37.2365 3.06348e-16)
(-10.3995 -35.5011 -1.25416e-15)
(-11.025 -33.5854 1.85472e-15)
(-11.4961 -31.5057 -6.42189e-16)
(-11.7678 -29.2828 -7.96481e-16)
(-11.8077 -26.9395 -3.00204e-15)
(-11.5846 -24.5135 -2.33685e-15)
(-11.0759 -22.0466 -2.64316e-15)
(-10.2715 -19.5842 -7.89632e-16)
(-9.17043 -17.1754 -2.63636e-15)
(-7.78311 -14.8689 -3.95388e-15)
(-6.13202 -12.7092 -4.46423e-15)
(-4.24695 -10.7361 3.7781e-15)
(-2.16845 -8.97955 1.3011e-14)
(0.0602317 -7.46084 0)
(2.3734 -6.19305 -4.88671e-17)
(4.74887 -5.15657 -6.37101e-15)
(7.16058 -4.37134 -6.21523e-15)
(9.55843 -3.83133 3.34982e-16)
(11.9235 -3.49877 2.3691e-15)
(14.2563 -3.34379 -1.61682e-17)
(16.5549 -3.34998 1.07208e-15)
(18.8165 -3.50124 -1.07217e-16)
(21.0439 -3.78075 1.1399e-14)
(23.2451 -4.17518 1.51273e-17)
(25.4398 -4.67153 1.388e-16)
(27.6597 -5.2727 6.85063e-15)
(29.9334 -5.97905 -2.98301e-17)
(32.3495 -6.81352 7.74017e-15)
(34.9265 -7.82362 1.87243e-14)
(38.0432 -9.13074 -3.31309e-15)
(41.3325 -11.0536 3.06008e-15)
(47.04 -14.187 -1.75098e-14)
(-4.59541 -45.0456 4.37056e-18)
(-4.09595 -45.7972 2.87159e-17)
(-3.57858 -46.6288 1.73535e-17)
(-3.03921 -47.5349 7.63129e-17)
(-2.45176 -48.3202 -1.63847e-16)
(-2.08286 -49.4268 3.16518e-17)
(-2.02813 -52.5725 6.79879e-16)
(-1.22007 -55.4795 3.26185e-16)
(0.438285 -50.2451 1.42752e-17)
(1.09313 -33.9105 0)
(-0.367874 -14.5057 9.95901e-16)
(-2.27985 -2.77887 -1.88223e-15)
(-3.30878 0.312092 2.14495e-15)
(-4.22395 0.652172 9.78431e-16)
(-5.01476 0.601499 -8.76836e-16)
(-5.71196 0.522977 -7.93974e-16)
(-6.351 0.463868 -2.98378e-15)
(-6.94891 0.431019 6.88591e-16)
(-7.51943 0.421399 1.29588e-15)
(-8.07299 0.426547 0)
(-8.61435 0.437663 2.24142e-15)
(-9.14309 0.446509 1.8321e-15)
(-9.65355 0.445888 -6.46324e-18)
(-10.1316 0.429564 2.26944e-16)
(-10.5549 0.398896 1.10779e-16)
(-10.8973 0.360019 -1.76591e-15)
(-11.1315 0.323099 5.02189e-17)
(-11.2356 0.304662 -4.15718e-16)
(-11.18 0.305463 -9.51026e-17)
(-10.9061 0.320279 -6.0548e-16)
(-10.3699 0.371142 1.02627e-18)
(-9.50505 0.468257 4.17568e-15)
(-8.22529 0.671075 3.64767e-15)
(-6.50876 1.00781 3.45061e-15)
(-4.52178 1.34456 1.01553e-16)
(-0.719971 2.24427 -4.4431e-17)
(0.681762 2.73284 1.15651e-14)
(9.68204 3.35609 1.07019e-14)
(8.09414 6.32779 8.45685e-15)
(-4.20906 -43.4797 -7.16661e-18)
(-4.75607 -42.6283 -6.38577e-18)
(-5.38854 -41.642 -1.20622e-16)
(-6.08813 -40.5526 5.27278e-16)
(-6.79052 -39.3594 -3.21336e-16)
(-7.51383 -38.0155 4.13742e-16)
(-8.21861 -36.5236 -9.15279e-16)
(-8.85785 -34.8907 0)
(-9.40639 -33.1048 -6.05136e-16)
(-9.82551 -31.1785 -7.13095e-17)
(-10.0762 -29.1258 8.00892e-16)
(-10.1294 -26.9607 2.94848e-15)
(-9.95505 -24.7121 1.14841e-15)
(-9.52863 -22.4128 0)
(-8.83586 -20.1001 0)
(-7.86979 -17.8172 0)
(-6.63372 -15.6089 0)
(-5.14265 -13.5178 4.12686e-15)
(-3.41916 -11.5837 -4.65091e-15)
(-1.49753 -9.8387 -5.26018e-15)
(0.584114 -8.30692 5.19247e-15)
(2.7672 -7.00433 -4.62689e-15)
(5.02943 -5.9235 4.61883e-15)
(7.3429 -5.08404 3.28979e-16)
(9.66133 -4.4832 1.46716e-16)
(11.9658 -4.09045 -2.29696e-15)
(14.2524 -3.87833 -4.83431e-16)
(16.5159 -3.83138 0)
(18.7515 -3.93408 0)
(20.9602 -4.17069 -4.66952e-18)
(23.1486 -4.52803 0)
(25.3341 -4.99415 -7.80223e-15)
(27.547 -5.57133 6.58225e-15)
(29.8142 -6.26164 9.81579e-15)
(32.2217 -7.0881 -1.43575e-14)
(34.7851 -8.10313 -8.83791e-15)
(37.8694 -9.42497 3.07855e-15)
(41.1001 -11.4012 -5.67323e-15)
(46.5499 -14.5558 1.6321e-14)
(-3.72646 -44.2753 0)
(-3.25618 -45.0548 -3.38881e-18)
(-2.76095 -45.9188 -5.44065e-17)
(-2.26925 -46.8953 1.53418e-16)
(-1.74993 -47.8618 -1.5766e-16)
(-1.23266 -48.6567 1.72394e-16)
(-1.07914 -50.4846 9.13012e-18)
(-0.751003 -54.2268 -1.9278e-16)
(0.571934 -54.2675 -2.81835e-16)
(1.75637 -43.4439 0)
(0.953865 -24.3963 -3.18869e-16)
(-1.28819 -8.21638 1.8949e-15)
(-2.73727 -1.61065 -4.72602e-15)
(-3.69205 -0.277962 -8.63344e-16)
(-4.55868 -0.0638426 1.57197e-15)
(-5.31794 -0.0223994 1.42989e-15)
(-6.01315 0.00119204 1.31452e-15)
(-6.66327 0.0335723 0)
(-7.28201 0.0772081 0)
(-7.87954 0.127499 0)
(-8.4611 0.178562 -1.95882e-15)
(-9.02713 0.224216 0)
(-9.573 0.2592 1.48647e-15)
(-10.0861 0.278961 1.97171e-16)
(-10.5455 0.284908 1.51657e-15)
(-10.9253 0.282248 1.4454e-15)
(-11.1982 0.280492 0)
(-11.342 0.296475 3.22675e-16)
(-11.3305 0.332645 9.21949e-17)
(-11.1035 0.384314 -1.64787e-17)
(-10.6174 0.471768 -1.95548e-15)
(-9.80791 0.605928 2.62253e-18)
(-8.59059 0.841068 -3.22118e-15)
(-6.93389 1.20793 2.96833e-15)
(-5.0055 1.59769 0)
(-1.37666 2.46696 8.59503e-17)
(0.122672 3.0956 -3.74042e-17)
(8.62087 3.58944 -9.2452e-15)
(7.77114 6.74694 5.12544e-17)
(-3.27607 -42.7667 7.48722e-18)
(-3.77524 -41.9003 0)
(-4.34935 -40.9046 2.83537e-16)
(-4.97752 -39.8145 -2.79498e-16)
(-5.60043 -38.6398 1.67114e-16)
(-6.23824 -37.3332 -3.92474e-16)
(-6.85726 -35.9021 4.62815e-16)
(-7.41723 -34.3543 5.80967e-16)
(-7.89933 -32.6769 0)
(-8.27043 -30.8801 7.79538e-16)
(-8.49746 -28.9728 9.06947e-16)
(-8.55467 -26.9632 -9.25671e-16)
(-8.41415 -24.8729 -3.19192e-15)
(-8.05164 -22.727 -1.25373e-15)
(-7.45017 -20.5556 4.0253e-15)
(-6.59861 -18.3962 3.03374e-15)
(-5.4951 -16.2881 -2.51844e-15)
(-4.14796 -14.2716 -1.89336e-15)
(-2.57336 -12.3852 1.04437e-15)
(-0.79966 -10.6619 -1.2012e-15)
(1.13891 -9.12854 -3.367e-15)
(3.19406 -7.80169 -6.75657e-16)
(5.3443 -6.68523 6.26097e-16)
(7.55791 -5.7997 4.08308e-15)
(9.79325 -5.14443 0)
(12.0326 -4.69532 1.95833e-15)
(14.2685 -4.42837 8.86954e-16)
(16.4928 -4.32944 7.94021e-16)
(18.6989 -4.38403 2.82265e-15)
(20.8859 -4.57758 -1.00741e-14)
(23.0588 -4.89745 -4.02188e-15)
(25.2328 -5.33268 -1.21802e-16)
(27.4366 -5.88523 6.8644e-18)
(29.6957 -6.55883 0)
(32.0925 -7.37677 6.76391e-15)
(34.64 -8.39592 0)
(37.6879 -9.73138 0)
(40.8577 -11.754 2.63524e-15)
(46.0496 -14.9234 -6.95349e-17)
(-2.83521 -43.5821 -2.08253e-17)
(-2.40334 -44.3813 3.14524e-17)
(-1.9403 -45.2683 -1.79652e-17)
(-1.47352 -46.2617 -3.01079e-17)
(-1.02486 -47.3273 1.44871e-16)
(-0.504573 -48.269 -1.45472e-16)
(-0.182891 -49.3082 -4.25662e-17)
(-0.0694233 -52.2225 1.65202e-16)
(0.783485 -55.1049 1.74216e-16)
(2.14772 -50.0694 2.64041e-16)
(2.11331 -34.1849 8.69968e-16)
(0.0279926 -15.6525 0)
(-2.0311 -4.66627 1.40344e-15)
(-3.10764 -1.53672 1.82454e-17)
(-4.04112 -0.862471 0)
(-4.85801 -0.657284 1.28109e-15)
(-5.59819 -0.537896 5.77798e-16)
(-6.28925 -0.432678 5.35021e-16)
(-6.94602 -0.329438 -1.99373e-15)
(-7.57925 -0.228195 -1.85206e-15)
(-8.19523 -0.131723 2.18593e-16)
(-8.79533 -0.0435213 -1.60393e-15)
(-9.37564 0.0329031 -3.78858e-16)
(-9.92477 0.0945448 1.7381e-16)
(-10.4227 0.142805 -1.253e-15)
(-10.843 0.181989 -7.83446e-17)
(-11.1581 0.220807 0)
(-11.3453 0.275808 0)
(-11.3816 0.351708 1.65346e-17)
(-11.2059 0.444653 -4.47271e-17)
(-10.7745 0.572794 1.75851e-15)
(-10.0255 0.74783 2.58128e-18)
(-8.87561 1.01924 -2.95484e-15)
(-7.28471 1.41952 -2.62689e-15)
(-5.42303 1.8626 -8.02667e-17)
(-1.95341 2.71019 -7.45686e-18)
(-0.383799 3.47135 -1.76692e-14)
(7.57663 3.8478 8.13588e-15)
(7.34482 7.08971 -4.6256e-17)
(-2.37344 -42.1265 6.40252e-18)
(-2.83019 -41.2511 0)
(-3.34918 -40.249 -1.31912e-16)
(-3.91274 -39.1621 0)
(-4.46635 -38.0058 4.18518e-16)
(-5.03048 -36.7331 -4.08066e-16)
(-5.57568 -35.3545 -5.18889e-16)
(-6.06721 -33.8797 -5.51366e-16)
(-6.49 -32.2951 0)
(-6.8165 -30.6092 7.15278e-16)
(-7.01845 -28.8278 -8.36054e-16)
(-7.07345 -26.9544 1.82615e-15)
(-6.95571 -25.0054 9.8268e-16)
(-6.64219 -22.9994 1.11029e-15)
(-6.11494 -20.9605 -2.56842e-15)
(-5.36034 -18.9199 -2.86082e-15)
(-4.37219 -16.9123 3.1813e-15)
(-3.15378 -14.9741 3.5036e-15)
(-1.71543 -13.1422 0)
(-0.0802199 -11.4491 -1.10152e-15)
(1.72198 -9.92338 2.3947e-15)
(3.65249 -8.58293 -6.00364e-16)
(5.69118 -7.44016 -5.00093e-18)
(7.80393 -6.51626 -9.2592e-15)
(9.95351 -5.81305 4.89421e-16)
(12.1237 -5.31191 -2.3882e-16)
(14.3047 -4.99308 -8.13785e-16)
(16.4859 -4.8436 -8.23387e-16)
(18.6589 -4.8509 -2.37551e-15)
(20.821 -5.00137 4.59927e-15)
(22.9755 -5.2836 3.62847e-15)
(25.1357 -5.68737 1.37942e-14)
(27.3283 -6.2147 -1.13341e-14)
(29.577 -6.8709 1.50572e-16)
(31.961 -7.67967 -6.46558e-15)
(34.4905 -8.7021 1.64755e-16)
(37.4977 -10.0502 -7.85757e-17)
(40.6038 -12.1138 -7.74425e-17)
(45.539 -15.292 1.27927e-14)
(-1.96595 -42.9545 2.31274e-17)
(-1.56419 -43.7667 -5.12797e-18)
(-1.13076 -44.6716 6.16651e-18)
(-0.683622 -45.6793 0)
(-0.272185 -46.7554 -7.14608e-17)
(0.185062 -47.8759 0)
(0.613768 -48.7693 0)
(0.723581 -50.5817 0)
(1.15529 -54.111 -3.97658e-16)
(2.39314 -53.6672 2.55638e-16)
(2.98891 -42.5924 -3.51051e-16)
(1.45679 -24.2627 0)
(-1.02707 -9.38468 0)
(-2.4871 -3.34061 1.39156e-15)
(-3.47263 -1.84034 0)
(-4.35098 -1.38455 -1.18963e-15)
(-5.13072 -1.14679 -7.4099e-18)
(-5.85517 -0.959459 0)
(-6.54341 -0.789963 1.35659e-15)
(-7.20664 -0.632632 2.08631e-15)
(-7.85185 -0.486567 1.5457e-15)
(-8.48167 -0.352104 1.44221e-15)
(-9.09385 -0.230203 -2.68601e-15)
(-9.67824 -0.122225 0)
(-10.2152 -0.0269961 -1.11694e-15)
(-10.6777 0.0588541 -1.20638e-15)
(-11.0376 0.1431 -5.41626e-16)
(-11.2709 0.241304 0)
(-11.3572 0.360923 5.84931e-17)
(-11.236 0.499084 4.26235e-16)
(-10.8634 0.671807 -1.55494e-15)
(-10.1792 0.891238 2.54198e-18)
(-9.10113 1.20278 2.52681e-15)
(-7.58173 1.63963 -2.25594e-15)
(-5.79266 2.13676 3.83305e-18)
(-2.47457 2.97054 -6.21645e-17)
(-0.86182 3.85315 1.58679e-14)
(6.54373 4.12446 -7.09037e-15)
(6.82129 7.3591 -1.24806e-14)
(-1.48388 -41.5487 9.57601e-18)
(-1.90353 -40.6698 -3.08348e-17)
(-2.375 -39.6637 0)
(-2.88363 -38.5831 -3.71758e-16)
(-3.3781 -37.4446 0)
(-3.87932 -36.203 0)
(-4.36127 -34.871 -4.58087e-17)
(-4.7935 -33.4597 -6.21241e-16)
(-5.16415 -31.9552 -1.29237e-15)
(-5.44998 -30.3654 -2.85562e-15)
(-5.6268 -28.6937 -1.60895e-15)
(-5.67543 -26.9402 -1.78748e-15)
(-5.57267 -25.1174 0)
(-5.29699 -23.2387 -3.32491e-15)
(-4.83004 -21.3228 1.17695e-15)
(-4.15711 -19.3956 0)
(-3.26911 -17.4869 -2.95013e-15)
(-2.16537 -15.6292 -3.29339e-15)
(-0.8511 -13.8567 0)
(0.655828 -12.2005 -4.00951e-15)
(2.32952 -10.6906 4.31962e-15)
(4.13966 -9.34631 0)
(6.06809 -8.18588 5.04958e-16)
(8.07965 -7.23137 -2.08898e-16)
(10.1414 -6.48687 -2.25599e-16)
(12.2388 -5.93876 -3.28103e-15)
(14.3611 -5.5712 2.2206e-18)
(16.4954 -5.37323 8.22144e-17)
(18.6316 -5.33431 6.82904e-17)
(20.7656 -5.44208 -1.38852e-16)
(22.8989 -5.68655 -3.71784e-15)
(25.0427 -6.05849 -1.24854e-14)
(27.2217 -6.56005 -1.7699e-16)
(29.458 -7.19817 8.23666e-15)
(31.8268 -7.99703 5.81868e-15)
(34.3356 -9.02173 7.56537e-15)
(37.2981 -10.381 2.88734e-15)
(40.338 -12.4784 6.36222e-17)
(45.0192 -15.6583 -1.18668e-14)
(-1.1073 -42.385 -3.56789e-17)
(-0.734616 -43.2064 -7.53488e-17)
(-0.330139 -44.123 1.06913e-16)
(0.0921206 -45.1481 0)
(0.485647 -46.2158 -5.02803e-17)
(0.880219 -47.4064 0)
(1.32647 -48.4529 1.25162e-16)
(1.53383 -49.5972 -5.39534e-16)
(1.69828 -52.5159 4.6657e-16)
(2.62436 -54.7887 0)
(3.5886 -48.8324 -5.5341e-16)
(2.78767 -32.9933 -7.9907e-16)
(0.278376 -15.7676 0)
(-1.76533 -6.03934 2.20702e-15)
(-2.86768 -3.08948 -6.15146e-16)
(-3.80691 -2.22249 5.4728e-16)
(-4.62769 -1.82459 -4.98967e-16)
(-5.38039 -1.54268 -9.11299e-16)
(-6.09483 -1.3005 -9.29209e-18)
(-6.78415 -1.08175 -1.14875e-15)
(-7.45558 -0.881637 -3.61438e-16)
(-8.11222 -0.697542 3.2159e-16)
(-8.75337 -0.527332 1.21284e-15)
(-9.37088 -0.370015 -1.13421e-15)
(-9.94604 -0.224197 9.39236e-16)
(-10.4511 -0.0876536 1.151e-15)
(-10.8571 0.0462448 4.88569e-16)
(-11.1387 0.191712 7.37106e-18)
(-11.2761 0.358643 -5.95707e-17)
(-11.212 0.545667 -3.86436e-16)
(-10.9012 0.766488 -1.06213e-18)
(-10.2854 1.03376 2.49734e-18)
(-9.28337 1.38905 -2.38109e-15)
(-7.84103 1.8657 2.18682e-15)
(-6.1297 2.41781 -6.57654e-17)
(-2.96102 3.24481 3.76519e-15)
(-1.32821 4.23564 -7.23506e-15)
(5.51962 4.41497 0)
(6.21441 7.56013 1.16162e-14)
(-0.615675 -41.0249 1.44148e-17)
(-1.00132 -40.145 0)
(-1.43004 -39.1383 0)
(-1.89034 -38.0656 7.41367e-16)
(-2.33325 -36.9452 3.65109e-17)
(-2.77975 -35.7324 0)
(-3.20653 -34.4422 0)
(-3.58683 -33.0871 2.23456e-15)
(-3.91141 -31.6529 -3.4107e-17)
(-4.16043 -30.1472 -2.83591e-17)
(-4.313 -28.5718 3.88232e-15)
(-4.35281 -26.9247 8.77742e-16)
(-4.25908 -25.2148 -1.89383e-15)
(-4.01215 -23.4517 2.87966e-18)
(-3.59434 -21.6496 0)
(-2.99024 -19.8297 0)
(-2.18886 -18.017 8.31787e-15)
(-1.18653 -16.2404 1.55094e-15)
(0.0155466 -14.5306 -1.6593e-15)
(1.40387 -12.9173 3.75686e-15)
(2.95708 -11.4299 -7.90063e-15)
(4.65182 -10.0905 -3.83865e-15)
(6.47215 -8.92074 3.6464e-15)
(8.38314 -7.94329 3.92535e-15)
(10.3558 -7.16406 -6.12151e-16)
(12.3778 -6.57424 3.1974e-15)
(14.4379 -6.16147 3.45174e-16)
(16.5215 -5.91753 -7.59533e-17)
(18.6175 -5.83362 7.22586e-17)
(20.72 -5.89952 -2.38897e-16)
(22.8291 -6.1063 2.85176e-17)
(24.9538 -6.44612 6.11844e-15)
(27.1167 -6.92143 1.42551e-16)
(29.3382 -7.54086 -1.22435e-16)
(31.6894 -8.32907 0)
(34.175 -9.35482 -6.95908e-15)
(37.0888 -10.7239 -2.70094e-15)
(40.0596 -12.848 0)
(44.4905 -16.0229 0)
(-0.266932 -41.8658 0)
(0.0800755 -42.6931 8.65106e-17)
(0.458977 -43.6172 -2.02286e-16)