/*--------------------------------*- C++ -*----------------------------------*\
  =========                 |
  \\      /  F ield         | OpenFOAM: The Open Source CFD Toolbox
   \\    /   O peration     | Website:  https://openfoam.org
    \\  /    A nd           | Version:  9
     \\/     M anipulation  |
\*---------------------------------------------------------------------------*/
FoamFile
{
    format      ascii;
    class       surfaceScalarField;
    location    "2.2";
    object      phi;
}
// * * * * * * * * * * * * * * * * * * * * * * * * * * * * * * * * * * * * * //

dimensions      [0 3 -1 0 0 0 0];

internalField   nonuniform List<scalar> 
17280
(
6.32513e-10
-6.43287e-10
-3.7545e-12
9.75484e-10
-3.39979e-10
-2.99352e-12
4.34633e-10
5.38442e-10
2.40571e-12
-1.10228e-09
1.53039e-09
6.52106e-12
-3.56858e-09
2.45638e-09
9.9165e-12
-6.82281e-09
3.24137e-09
1.28615e-11
-1.06981e-08
3.86006e-09
1.5239e-11
-1.50256e-08
4.31052e-09
1.70009e-11
-1.96445e-08
4.60072e-09
1.81579e-11
-2.44057e-08
4.74245e-09
1.87418e-11
-2.91729e-08
4.7484e-09
1.87935e-11
-3.38221e-08
4.63087e-09
1.83563e-11
-3.82409e-08
4.40126e-09
1.74724e-11
-4.23271e-08
4.07001e-09
1.61819e-11
-4.59884e-08
3.64679e-09
1.45228e-11
-4.91418e-08
3.14092e-09
1.25326e-11
-5.17139e-08
2.56184e-09
1.02493e-11
-5.36412e-08
1.91957e-09
7.71343e-12
-5.48714e-08
1.22522e-09
4.96998e-12
-5.53648e-08
4.91329e-10
2.06956e-12
-5.50961e-08
-2.67781e-10
-9.30391e-13
-5.40562e-08
-1.03588e-09
-3.96515e-12
-5.22545e-08
-1.79482e-09
-6.96272e-12
-4.97199e-08
-2.52473e-09
-9.8444e-12
-4.6503e-08
-3.20438e-09
-1.2526e-11
-4.26763e-08
-3.81172e-09
-1.49199e-11
-3.83348e-08
-4.32456e-09
-1.69386e-11
-3.35949e-08
-4.72143e-09
-1.84979e-11
-2.85929e-08
-4.98248e-09
-1.95212e-11
-2.34825e-08
-5.09049e-09
-1.99424e-11
-1.8431e-08
-5.0318e-09
-1.971e-11
-1.36149e-08
-4.7973e-09
-1.87922e-11
-9.21423e-09
-4.38345e-09
-1.71825e-11
-5.40578e-09
-3.79356e-09
-1.49055e-11
-2.35365e-09
-3.04012e-09
-1.20234e-11
-1.95291e-10
-2.14968e-09
-8.68407e-12
9.83921e-10
-1.17404e-09
-5.16177e-12
1.19678e-09
-2.11801e-10
-1.04613e-12
6.52365e-10
5.40813e-10
3.60313e-12
6.52334e-10
2.47216e-14
3.51666e-10
-9.96052e-10
1.09709e-12
-4.94156e-10
5.06386e-10
-5.45534e-13
-3.32599e-09
3.37259e-09
-2.31844e-12
-8.36543e-09
6.57513e-09
-5.30868e-12
-1.55237e-08
9.62335e-09
-8.6768e-12
-2.45365e-08
1.22659e-08
-1.17675e-11
-3.50524e-08
1.43903e-08
-1.42993e-11
-4.66871e-08
1.59614e-08
-1.61976e-11
-5.9053e-08
1.69842e-08
-1.74624e-11
-7.17764e-08
1.74839e-08
-1.81245e-11
-8.45046e-08
1.74948e-08
-1.823e-11
-9.69103e-08
1.70545e-08
-1.78289e-11
-1.08692e-07
1.62003e-08
-1.69698e-11
-1.19576e-07
1.4969e-08
-1.56976e-11
-1.29311e-07
1.33962e-08
-1.40543e-11
-1.37676e-07
1.15176e-08
-1.20804e-11
-1.44474e-07
9.3698e-09
-9.81673e-12
-1.49539e-07
6.99213e-09
-7.30601e-12
-1.52737e-07
4.4277e-09
-4.59413e-12
-1.53969e-07
1.72466e-09
-1.73217e-12
-1.53175e-07
-1.06298e-09
1.22186e-12
-1.5034e-07
-3.87492e-09
4.2025e-12
-1.45497e-07
-6.64475e-09
7.13701e-12
-1.38731e-07
-9.30065e-09
9.94721e-12
-1.30181e-07
-1.17667e-08
1.25508e-11
-1.20043e-07
-1.3965e-08
1.48629e-11
-1.08566e-07
-1.58179e-08
1.67976e-11
-9.60549e-08
-1.7251e-08
1.82714e-11
-8.286e-08
-1.81966e-08
1.92072e-11
-6.93729e-08
-1.85971e-08
1.95391e-11
-5.60153e-08
-1.84087e-08
1.92161e-11
-4.32254e-08
-1.76054e-08
1.82058e-11
-3.14423e-08
-1.61831e-08
1.64998e-11
-2.10846e-08
-1.41654e-08
1.41255e-11
-1.2524e-08
-1.16118e-08
1.11613e-11
-6.04874e-09
-8.63275e-09
7.74292e-12
-1.8093e-09
-5.41765e-09
4.15248e-12
2.60487e-10
-2.28294e-09
1.342e-12
5.53799e-10
2.47162e-10
3.44526e-13
1.20955e-09
-3.40916e-12
-5.07731e-10
-4.85402e-10
-2.92204e-12
-3.34944e-09
3.34626e-09
1.83525e-12
-9.13471e-09
9.15796e-09
-9.56811e-14
-1.80199e-08
1.54606e-08
-2.14659e-13
-2.98502e-08
2.14537e-08
-5.39144e-14
-4.42666e-08
2.66825e-08
-2.14534e-13
-6.07925e-08
3.09166e-08
-4.06371e-13
-7.88946e-08
3.40641e-08
-5.663e-13
-9.80223e-08
3.61126e-08
-6.95803e-13
-1.17633e-07
3.70951e-08
-7.86443e-13
-1.37205e-07
3.70683e-08
-8.3488e-13
-1.5625e-07
3.61004e-08
-8.43275e-13
-1.74313e-07
3.42638e-08
-8.155e-13
-1.90976e-07
3.16323e-08
-7.55699e-13
-2.05859e-07
2.82803e-08
-6.68082e-13
-2.18625e-07
2.42838e-08
-5.57185e-13
-2.28977e-07
1.97222e-08
-4.27915e-13
-2.36665e-07
1.46806e-08
-2.85099e-13
-2.4149e-07
9.25256e-09
-1.33043e-13
-2.43307e-07
3.5415e-09
2.42957e-14
-2.42032e-07
-2.33737e-09
1.82672e-13
-2.37651e-07
-8.25677e-09
3.37124e-13
-2.30218e-07
-1.40777e-08
4.82367e-13
-2.19869e-07
-1.9651e-08
6.13486e-13
-2.06816e-07
-2.48203e-08
7.26314e-13
-1.91356e-07
-2.94258e-08
8.17159e-13
-1.73865e-07
-3.33095e-08
8.82335e-13
-1.54796e-07
-3.63213e-08
9.18107e-13
-1.34668e-07
-3.83256e-08
9.21219e-13
-1.14057e-07
-3.92087e-08
8.89562e-13
-9.35802e-08
-3.88866e-08
8.22496e-13
-7.38728e-08
-3.73135e-08
7.21208e-13
-5.55658e-08
-3.44907e-08
5.90654e-13
-3.92534e-08
-3.04782e-08
4.40229e-13
-2.54553e-08
-2.54102e-08
2.74408e-13
-1.45689e-08
-1.95193e-08
1.25536e-13
-6.80833e-09
-1.31784e-08
1.5903e-13
-2.12904e-09
-6.96241e-09
1.69326e-13
-1.43213e-10
-1.73804e-09
-6.22043e-13
1.06534e-09
1.00664e-12
-1.51725e-09
1.03874e-09
-6.90077e-12
-6.67905e-09
8.5028e-09
5.25696e-12
-1.57395e-08
1.82182e-08
2.2744e-13
-2.86675e-08
2.83885e-08
4.92327e-14
-4.51781e-08
3.79633e-08
9.52979e-13
-6.48015e-08
4.63046e-08
1.21388e-12
-8.69502e-08
5.3064e-08
1.35288e-12
-1.10973e-07
5.80849e-08
1.4639e-12
-1.36192e-07
6.13305e-08
1.51911e-12
-1.61935e-07
6.2837e-08
1.52897e-12
-1.87551e-07
6.26827e-08
1.50522e-12
-2.12421e-07
6.09689e-08
1.45336e-12
-2.35967e-07
5.78083e-08
1.37655e-12
-2.57656e-07
5.33198e-08
1.27698e-12
-2.77003e-07
4.76261e-08
1.15636e-12
-2.93575e-07
4.08547e-08
1.01581e-12
-3.06994e-07
3.31404e-08
8.55828e-13
-3.16942e-07
2.46284e-08
6.76747e-13
-3.23168e-07
1.54776e-08
4.79599e-13
-3.2549e-07
5.86331e-09
2.66657e-13
-3.23807e-07
-4.0205e-09
4.13089e-14
-3.18103e-07
-1.39609e-08
-1.92602e-13
-3.08453e-07
-2.37266e-08
-4.30662e-13
-2.95032e-07
-3.30712e-08
-6.67623e-13
-2.78115e-07
-4.17371e-08
-8.96976e-13
-2.58076e-07
-4.94629e-08
-1.111e-12
-2.35394e-07
-5.59907e-08
-1.30128e-12
-2.10637e-07
-6.10767e-08
-1.45938e-12
-1.84459e-07
-6.45021e-08
-1.57714e-12
-1.57581e-07
-6.60852e-08
-1.64693e-12
-1.30772e-07
-6.56942e-08
-1.66191e-12
-1.04822e-07
-6.32612e-08
-1.61604e-12
-8.05147e-08
-5.87968e-08
-1.50197e-12
-5.85839e-08
-5.24077e-08
-1.31634e-12
-3.96746e-08
-4.43183e-08
-1.08686e-12
-2.42907e-08
-3.49024e-08
-7.64386e-13
-1.27391e-08
-2.473e-08
1.73015e-15
-5.06945e-09
-1.46321e-08
4.71132e-14
-1.02153e-09
-5.7827e-09
-3.27232e-12
3.89868e-11
4.81822e-12
-2.52707e-09
3.57635e-09
-1.05399e-11
-1.00922e-08
1.60588e-08
9.18684e-12
-2.25375e-08
3.06633e-08
2.18126e-13
-3.95754e-08
4.54272e-08
-7.94956e-13
-6.0742e-08
5.91298e-08
1.2047e-13
-8.5431e-08
7.09934e-08
1.32339e-13
-1.12939e-07
8.05722e-08
5.92696e-14
-1.42507e-07
8.76527e-08
4.09024e-14
-1.73352e-07
9.21754e-08
1.7919e-14
-2.04695e-07
9.418e-08
-6.56716e-15
-2.35779e-07
9.37672e-08
-2.35453e-14
-2.65884e-07
9.10739e-08
-3.10257e-14
-2.94333e-07
8.62573e-08
-2.92435e-14
-3.205e-07
7.9487e-08
-1.9303e-14
-3.43816e-07
7.09414e-08
-2.56568e-15
-3.6377e-07
6.08084e-08
1.95336e-14
-3.79917e-07
4.92882e-08
4.50653e-14
-3.91886e-07
3.65969e-08
7.13735e-14
-3.99379e-07
2.29711e-08
9.55719e-14
-4.02187e-07
8.67098e-09
1.15361e-13
-4.00191e-07
-6.01676e-09
1.29369e-13
-3.93373e-07
-2.07787e-08
1.36757e-13
-3.81824e-07
-3.52761e-08
1.36745e-13
-3.65746e-07
-4.91489e-08
1.28562e-13
-3.45461e-07
-6.20227e-08
1.11937e-13
-3.21407e-07
-7.35174e-08
8.76063e-14
-2.94137e-07
-8.326e-08
5.73601e-14
-2.64316e-07
-9.08981e-08
2.3678e-14
-2.32702e-07
-9.61165e-08
-1.06508e-14
-2.00132e-07
-9.86543e-08
-4.26532e-14
-1.67502e-07
-9.83242e-08
-6.93445e-14
-1.35732e-07
-9.50317e-08
-8.73598e-14
-1.05732e-07
-8.8796e-08
-8.95148e-14
-7.83668e-08
-7.97732e-08
-7.46325e-14
-5.44023e-08
-6.82828e-08
-9.14527e-14
-3.44626e-08
-5.4842e-08
-4.02793e-14
-1.89807e-08
-4.02126e-08
7.05656e-13
-8.15403e-09
-2.54589e-08
2.76098e-14
-1.91935e-09
-1.20107e-08
-6.71463e-12
-1.88839e-09
8.01856e-12
-3.48425e-09
7.07473e-09
-1.41346e-11
-1.34127e-08
2.59742e-08
1.30988e-11
-2.92233e-08
4.64733e-08
5.02655e-13
-5.03447e-08
6.65497e-08
-1.06031e-12
-7.61035e-08
8.48884e-08
1.31481e-13
-1.05734e-07
1.00624e-07
1.29369e-13
-1.38408e-07
1.13246e-07
3.5035e-14
-1.73256e-07
1.22501e-07
2.91686e-14
-2.09398e-07
1.28318e-07
2.12737e-14
-2.45965e-07
1.30747e-07
9.24305e-15
-2.82112e-07
1.29914e-07
2.10883e-15
-3.17034e-07
1.25996e-07
1.63397e-15
-3.49976e-07
1.19199e-07
7.77491e-15
-3.80237e-07
1.09748e-07
1.94946e-14
-4.07179e-07
9.78832e-08
3.52904e-14
-4.3023e-07
8.3859e-08
5.39053e-14
-4.4889e-07
6.79486e-08
7.41605e-14
-4.62741e-07
5.04476e-08
9.42969e-14
-4.71449e-07
3.16792e-08
1.11845e-13
-4.74777e-07
1.19983e-08
1.24326e-13
-4.72588e-07
-8.20531e-09
1.30089e-13
-4.6486e-07
-2.85065e-08
1.285e-13
-4.5169e-07
-4.84469e-08
1.19456e-13
-4.33298e-07
-6.75406e-08
1.02939e-13
-4.10039e-07
-8.52824e-08
7.91327e-14
-3.82395e-07
-1.01161e-07
4.89334e-14
-3.50981e-07
-1.14674e-07
1.42835e-14
-3.16533e-07
-1.25346e-07
-2.19895e-14
-2.79896e-07
-1.32753e-07
-5.65936e-14
-2.42007e-07
-1.36544e-07
-8.60875e-14
-2.03866e-07
-1.36464e-07
-1.07305e-13
-1.66513e-07
-1.32385e-07
-1.17018e-13
-1.3098e-07
-1.24329e-07
-1.07539e-13
-9.82574e-08
-1.12495e-07
-8.18683e-14
-6.92457e-08
-9.72945e-08
-1.16393e-13
-4.47085e-08
-7.93792e-08
-7.2977e-14
-2.52341e-08
-5.96878e-08
9.3344e-13
-1.12031e-08
-3.94896e-08
-2.08308e-13
-2.77974e-09
-2.04239e-08
-1.01584e-11
-4.67946e-09
1.13287e-11
-4.3771e-09
1.14694e-08
-1.75915e-11
-1.65771e-08
3.81573e-08
1.67958e-11
-3.56661e-08
6.55615e-08
8.10394e-13
-6.07873e-08
9.16722e-08
-1.25035e-12
-9.10433e-08
1.15144e-07
2.18536e-13
-1.25495e-07
1.35075e-07
2.1125e-13
-1.63175e-07
1.50926e-07
1.01642e-13
-2.03104e-07
1.6243e-07
1.10701e-13
-2.44307e-07
1.69521e-07
1.18801e-13
-2.85831e-07
1.7227e-07
1.19018e-13
-3.26754e-07
1.70837e-07
1.20072e-13
-3.66202e-07
1.65444e-07
1.23205e-13
-4.03354e-07
1.56352e-07
1.28719e-13
-4.37451e-07
1.43844e-07
1.36079e-13
-4.67796e-07
1.28229e-07
1.43808e-13
-4.93769e-07
1.09831e-07
1.50502e-13
-5.14824e-07
8.90037e-08
1.5533e-13
-5.30503e-07
6.61263e-08
1.57526e-13
-5.40439e-07
4.1615e-08
1.55688e-13
-5.44367e-07
1.59263e-08
1.47862e-13
-5.42133e-07
-1.04396e-08
1.32376e-13
-5.33701e-07
-3.69379e-08
1.08594e-13
-5.19167e-07
-6.29817e-08
7.6927e-14
-4.98758e-07
-8.79491e-08
3.83602e-14
-4.72847e-07
-1.11194e-07
-5.86425e-15
-4.41948e-07
-1.3206e-07
-5.4056e-14
-4.06719e-07
-1.49903e-07
-1.03703e-13
-3.67952e-07
-1.64113e-07
-1.51407e-13
-3.26565e-07
-1.7414e-07
-1.9322e-13
-2.83579e-07
-1.79529e-07
-2.25128e-13
-2.40097e-07
-1.79946e-07
-2.43792e-13
-1.97268e-07
-1.75214e-07
-2.46153e-13
-1.56252e-07
-1.65345e-07
-2.2381e-13
-1.18174e-07
-1.50573e-07
-1.83225e-13
-8.40816e-08
-1.31386e-07
-2.27209e-13
-5.4901e-08
-1.0856e-07
-1.79912e-13
-3.14005e-08
-8.31894e-08
1.09562e-12
-1.41644e-08
-5.67252e-08
-4.6987e-13
-3.59132e-09
-3.09835e-08
-1.34714e-11
-8.2853e-09
1.45297e-11
-5.21032e-09
1.67006e-08
-2.08692e-11
-1.95763e-08
5.2503e-08
2.02549e-11
-4.18293e-08
8.78134e-08
1.09275e-12
-7.08371e-08
1.20681e-07
-1.45245e-12
-1.05476e-07
1.49783e-07
2.52838e-13
-1.44624e-07
1.74224e-07
2.15384e-13
-1.87171e-07
1.93472e-07
6.8905e-14
-2.32021e-07
2.0728e-07
7.39766e-14
-2.78105e-07
2.15605e-07
8.43824e-14
-3.24388e-07
2.18553e-07
8.89416e-14
-3.69883e-07
2.16332e-07
9.56018e-14
-4.13655e-07
2.09216e-07
1.04216e-13
-4.54828e-07
1.97524e-07
1.14753e-13
-4.92592e-07
1.81608e-07
1.27059e-13
-5.26208e-07
1.61844e-07
1.39767e-13
-5.55011e-07
1.38635e-07
1.50971e-13
-5.7842e-07
1.12412e-07
1.59273e-13
-5.95939e-07
8.36452e-08
1.63964e-13
-6.07171e-07
5.28466e-08
1.64309e-13
-6.11822e-07
2.05777e-08
1.58941e-13
-6.09716e-07
-1.25463e-08
1.4613e-13
-6.00798e-07
-4.58559e-08
1.24653e-13
-5.8515e-07
-7.86295e-08
9.43861e-14
-5.62998e-07
-1.10101e-07
5.62271e-14
-5.34717e-07
-1.39474e-07
1.16779e-14
-5.00839e-07
-1.65938e-07
-3.73349e-14
-4.6205e-07
-1.88692e-07
-8.82588e-14
-4.19188e-07
-2.06975e-07
-1.37719e-13
-3.73229e-07
-2.20099e-07
-1.81686e-13
-3.25274e-07
-2.27484e-07
-2.16058e-13
-2.76521e-07
-2.28699e-07
-2.37784e-13
-2.28235e-07
-2.235e-07
-2.44431e-13
-1.81706e-07
-2.11873e-07
-2.27041e-13
-1.3821e-07
-1.94069e-07
-1.94726e-13
-9.89611e-08
-1.70635e-07
-2.74164e-13
-6.50673e-08
-1.42453e-07
-2.50175e-13
-3.74977e-08
-1.1076e-07
1.26193e-12
-1.70536e-08
-7.71686e-08
-7.25996e-13
-4.36489e-09
-4.36556e-08
-1.6659e-11
-1.26678e-08
1.7625e-11
-5.99329e-09
2.27179e-08
-2.39781e-11
-2.24239e-08
6.89101e-08
2.34979e-11
-4.77208e-08
1.13109e-07
1.36071e-12
-8.04911e-08
1.53453e-07
-1.63513e-12
-1.19388e-07
1.8868e-07
2.92823e-13
-1.63108e-07
2.17943e-07
2.24497e-13
-2.1039e-07
2.40755e-07
3.99125e-14
-2.60022e-07
2.56912e-07
3.75142e-14
-3.10839e-07
2.66422e-07
4.66056e-14
-3.6173e-07
2.69444e-07
5.26563e-14
-4.11645e-07
2.66247e-07
6.31915e-14
-4.59596e-07
2.57166e-07
7.6422e-14
-5.0466e-07
2.42589e-07
9.14126e-14
-5.45989e-07
2.22937e-07
1.08203e-13
-5.82804e-07
1.9866e-07
1.25959e-13
-6.14408e-07
1.70238e-07
1.42755e-13
-6.40184e-07
1.38188e-07
1.56523e-13
-6.59607e-07
1.03068e-07
1.65947e-13
-6.72247e-07
6.54865e-08
1.70373e-13
-6.77782e-07
2.61119e-08
1.69023e-13
-6.76004e-07
-1.43245e-08
1.60556e-13
-6.66834e-07
-5.50259e-08
1.43503e-13
-6.50331e-07
-9.5132e-08
1.17063e-13
-6.26705e-07
-1.33728e-07
8.15585e-14
-5.96321e-07
-1.69858e-07
3.82917e-14
-5.59714e-07
-2.02545e-07
-1.07824e-14
-5.17584e-07
-2.30821e-07
-6.31115e-14
-4.70802e-07
-2.53757e-07
-1.15375e-13
-4.20396e-07
-2.70506e-07
-1.63469e-13
-3.67537e-07
-2.80342e-07
-2.0306e-13
-3.13521e-07
-2.82714e-07
-2.31087e-13
-2.59731e-07
-2.7729e-07
-2.45553e-13
-2.076e-07
-2.64004e-07
-2.37005e-13
-1.5857e-07
-2.43098e-07
-2.17154e-13
-1.14041e-07
-2.15165e-07
-3.3554e-13
-7.53234e-08
-1.8117e-07
-3.36712e-13
-4.36068e-08
-1.42478e-07
1.40977e-12
-1.99197e-08
-1.00855e-07
-9.82441e-13
-5.11977e-09
-5.84358e-08
-1.97669e-11
-1.78083e-08
2.06846e-11
-6.73564e-09
2.94805e-08
-2.69412e-11
-2.51404e-08
8.72884e-08
2.65569e-11
-5.33662e-08
1.41333e-07
1.61171e-12
-8.97747e-08
1.89864e-07
-1.80395e-12
-1.32804e-07
2.31708e-07
3.38008e-13
-1.80966e-07
2.66105e-07
2.41329e-13
-2.32855e-07
2.92643e-07
2.04733e-14
-2.87138e-07
3.11194e-07
9.99278e-15
-3.42556e-07
3.2184e-07
1.61621e-14
-3.97925e-07
3.24814e-07
2.17565e-14
-4.52136e-07
3.20457e-07
3.45446e-14
-5.04154e-07
3.09184e-07
5.14039e-14
-5.53018e-07
2.91454e-07
7.01005e-14
-5.97846e-07
2.67764e-07
9.02996e-14
-6.3783e-07
2.38644e-07
1.11699e-13
-6.72243e-07
2.04651e-07
1.32971e-13
-7.00441e-07
1.66386e-07
1.51911e-13
-7.21867e-07
1.24494e-07
1.66463e-13
-7.36062e-07
7.96813e-08
1.75402e-13
-7.4267e-07
3.27192e-08
1.78044e-13
-7.41449e-07
-1.55458e-08
1.73508e-13
-7.32285e-07
-6.41898e-08
1.60518e-13
-7.15204e-07
-1.12213e-07
1.37888e-13
-6.90385e-07
-1.58547e-07
1.05261e-13
-6.58172e-07
-2.02071e-07
6.33876e-14
-6.19085e-07
-2.41632e-07
1.39583e-14
-5.73827e-07
-2.7608e-07
-4.0608e-14
-5.23286e-07
-3.04298e-07
-9.71355e-14
-4.68533e-07
-3.25259e-07
-1.51559e-13
-4.10807e-07
-3.38067e-07
-1.99259e-13
-3.51499e-07
-3.42022e-07
-2.36749e-13
-2.92117e-07
-3.36672e-07
-2.61761e-13
-2.34249e-07
-3.21871e-07
-2.63782e-13
-1.7952e-07
-2.97827e-07
-2.57069e-13
-1.29535e-07
-2.65149e-07
-4.14292e-13
-8.58334e-08
-2.24871e-07
-4.38906e-13
-4.98407e-08
-1.78473e-07
1.54864e-12
-2.28265e-08
-1.27868e-07
-1.23842e-12
-5.87804e-09
-7.53614e-08
-2.28713e-11
-2.37101e-08
2.37856e-11
-7.44557e-09
3.69558e-08
-2.97823e-11
-2.77462e-08
1.0756e-07
2.94661e-11
-5.87953e-08
1.7238e-07
1.84521e-12
-9.87219e-08
2.29792e-07
-1.96654e-12
-1.45756e-07
2.78742e-07
3.81604e-13
-1.98231e-07
3.1858e-07
2.58189e-13
-2.54595e-07
3.49007e-07
2.3784e-15
-3.13397e-07
3.69996e-07
-1.6551e-14
-3.73286e-07
3.81729e-07
-1.43823e-14
-4.33008e-07
3.84536e-07
-1.08994e-14
-4.91399e-07
3.78849e-07
2.40359e-15
-5.47383e-07
3.65168e-07
2.17764e-14
-5.99969e-07
3.4404e-07
4.38131e-14
-6.48247e-07
3.16042e-07
6.72275e-14
-6.91386e-07
2.81783e-07
9.16916e-14
-7.28637e-07
2.41902e-07
1.16612e-13
-7.5933e-07
1.97079e-07
1.40343e-13
-7.82883e-07
1.48047e-07
1.60566e-13
-7.98803e-07
9.56015e-08
1.75283e-13
-8.06699e-07
4.0615e-08
1.83276e-13
-8.06289e-07
-1.59558e-08
1.83683e-13
-7.97416e-07
-7.30629e-08
1.7547e-13
-7.80061e-07
-1.29568e-07
1.57369e-13
-7.54359e-07
-1.84249e-07
1.28498e-13
-7.20615e-07
-2.35815e-07
8.89134e-14
-6.79321e-07
-2.82927e-07
3.9775e-14
-6.31164e-07
-3.24236e-07
-1.68175e-14
-5.77039e-07
-3.58423e-07
-7.79515e-14
-5.18047e-07
-3.84251e-07
-1.3979e-13
-4.55489e-07
-4.00626e-07
-1.97667e-13
-3.90847e-07
-4.06663e-07
-2.47621e-13
-3.25763e-07
-4.01757e-07
-2.86479e-13
-2.61991e-07
-3.85643e-07
-3.0158e-13
-2.01355e-07
-3.58463e-07
-3.08987e-13
-1.4569e-07
-3.20814e-07
-5.05178e-13
-9.67848e-08
-2.73776e-07
-5.51311e-13
-5.63268e-08
-2.18932e-07
1.69013e-12
-2.58438e-08
-1.58349e-07
-1.49662e-12
-6.66224e-09
-9.45169e-08
-2.60619e-11
-3.03993e-08
2.70088e-11
-8.12953e-09
4.51178e-08
-3.25228e-11
-3.02588e-08
1.29657e-07
3.22556e-11
-6.40353e-08
2.06155e-07
2.06392e-12
-1.07365e-07
2.73124e-07
-2.12549e-12
-1.58277e-07
3.29653e-07
4.22546e-13
-2.14932e-07
3.75235e-07
2.73822e-13
-2.75631e-07
4.09706e-07
-1.58488e-14
-3.3881e-07
4.33175e-07
-4.33466e-14
-4.0303e-07
4.45949e-07
-4.56334e-14
-4.66968e-07
4.48474e-07
-4.52933e-14
-5.29413e-07
4.41294e-07
-3.31032e-14
-5.89255e-07
4.2501e-07
-1.27874e-14
-6.45477e-07
4.00262e-07
1.1746e-14
-6.97151e-07
3.67715e-07
3.82041e-14
-7.43429e-07
3.28061e-07
6.55518e-14
-7.83546e-07
2.82018e-07
9.34468e-14
-8.16813e-07
2.30346e-07
1.2106e-13
-8.42622e-07
1.73856e-07
1.4652e-13
-8.6045e-07
1.13429e-07
1.67475e-13
-8.69867e-07
5.00316e-08
1.81949e-13
-8.70545e-07
-1.52773e-08
1.88563e-13
-8.62276e-07
-8.13322e-08
1.86171e-13
-8.44984e-07
-1.46861e-07
1.73438e-13
-8.18745e-07
-2.10488e-07
1.49112e-13
-7.83812e-07
-2.70749e-07
1.12573e-13
-7.40626e-07
-3.26112e-07
6.42864e-14
-6.89845e-07
-3.75017e-07
5.87497e-15
-6.32351e-07
-4.15917e-07
-6.0043e-14
-5.6926e-07
-4.47341e-07
-1.29886e-13
-5.01925e-07
-4.6796e-07
-1.99143e-13
-4.31921e-07
-4.76667e-07
-2.6368e-13
-3.61021e-07
-4.72656e-07
-3.19356e-13
-2.91159e-07
-4.55505e-07
-3.50478e-13
-2.24375e-07
-4.25247e-07
-3.7376e-13
-1.62757e-07
-3.8243e-07
-6.09947e-13
-1.08373e-07
-3.2816e-07
-6.7522e-13
-6.31973e-08
-2.6411e-07
1.84068e-12
-2.90423e-08
-1.92502e-07
-1.76328e-12
-7.49444e-09
-1.16035e-07
-2.94307e-11
-3.79242e-08
3.04374e-11
-8.79226e-09
5.39453e-08
-3.51801e-11
-3.26918e-08
1.53521e-07
3.49493e-11
-6.91081e-08
2.42569e-07
2.27114e-12
-1.15731e-07
3.1975e-07
-2.28167e-12
-1.70393e-07
3.84315e-07
4.60976e-13
-2.31085e-07
4.35926e-07
2.88066e-13
-2.95968e-07
4.74589e-07
-3.48457e-14
-3.63365e-07
5.00573e-07
-7.13506e-14
-4.31752e-07
5.14336e-07
-7.84976e-14
-4.99746e-07
5.16468e-07
-8.18639e-14
-5.66093e-07
5.07641e-07
-7.20093e-14
-6.29656e-07
4.88572e-07
-5.25041e-14
-6.89402e-07
4.60007e-07
-2.69995e-14
-7.44391e-07
4.22704e-07
1.78934e-15
-7.93769e-07
3.7744e-07
3.19027e-14
-8.36761e-07
3.2501e-07
6.25341e-14
-8.72664e-07
2.66249e-07
9.32914e-14
-9.0085e-07
2.02042e-07
1.23084e-13
-9.20767e-07
1.33346e-07
1.49859e-13
-9.31944e-07
6.12086e-08
1.71224e-13
-9.34005e-07
-1.32168e-08
1.85089e-13
-9.2668e-07
-8.86577e-08
1.8979e-13
-9.09825e-07
-1.63716e-07
1.83646e-13
-8.83445e-07
-2.36868e-07
1.65e-13
-8.47718e-07
-3.06476e-07
1.32543e-13
-8.0302e-07
-3.7081e-07
8.58951e-14
-7.49953e-07
-4.28084e-07
2.59817e-14
-6.89367e-07
-4.76503e-07
-4.49489e-14
-6.22378e-07
-5.1433e-07
-1.23442e-13
-5.50375e-07
-5.39963e-07
-2.05028e-13
-4.75015e-07
-5.52027e-07
-2.85553e-13
-3.98205e-07
-5.49466e-07
-3.60204e-13
-3.22064e-07
-5.31646e-07
-4.1005e-13
-2.48869e-07
-4.98441e-07
-4.51767e-13
-1.80987e-07
-4.50312e-07
-7.3103e-13
-1.20792e-07
-3.88354e-07
-8.14238e-13
-7.05836e-08
-3.1432e-07
2.00352e-12
-3.2492e-08
-2.30592e-07
-2.04701e-12
-8.39599e-09
-1.40098e-07
-3.30678e-11
-4.63544e-08
3.41562e-11
-9.4372e-09
6.34203e-08
-3.77685e-11
-3.50556e-08
1.79102e-07
3.75659e-11
-7.40305e-08
2.81541e-07
2.47038e-12
-1.23839e-07
3.69561e-07
-2.43498e-12
-1.8212e-07
4.42595e-07
4.97518e-13
-2.46697e-07
5.00503e-07
3.01087e-13
-3.15592e-07
5.43484e-07
-5.50022e-14
-3.87021e-07
5.72002e-07
-1.0158e-13
-4.59379e-07
5.86694e-07
-1.14526e-13
-5.31229e-07
5.88318e-07
-1.22176e-13
-6.01283e-07
5.77694e-07
-1.15427e-13
-6.68384e-07
5.55674e-07
-9.81828e-14
-7.31493e-07
5.23116e-07
-7.35642e-14
-7.89671e-07
4.80883e-07
-4.3902e-14
-8.42066e-07
4.29834e-07
-1.16197e-14
-8.87901e-07
3.70845e-07
2.1678e-14
-9.26469e-07
3.04816e-07
5.53618e-14
-9.57126e-07
2.32699e-07
8.88521e-14
-9.79295e-07
1.55515e-07
1.20743e-13
-9.92467e-07
7.43803e-08
1.48773e-13
-9.96212e-07
-9.4723e-09
1.70395e-13
-9.90193e-07
-9.46767e-08
1.83336e-13
-9.74188e-07
-1.79721e-07
1.85244e-13
-9.48114e-07
-2.62942e-07
1.73875e-13
-9.12057e-07
-3.42534e-07
1.47132e-13
-8.66302e-07
-4.16565e-07
1.03594e-13
-8.11375e-07
-4.83012e-07
4.31465e-14
-7.48066e-07
-5.39811e-07
-3.26537e-14
-6.77466e-07
-5.8493e-07
-1.2052e-13
-6.0098e-07
-6.1645e-07
-2.15752e-13
-5.20333e-07
-6.32673e-07
-3.13886e-13
-4.37562e-07
-6.32237e-07
-4.0943e-13
-3.54975e-07
-6.14232e-07
-4.80247e-13
-2.75102e-07
-5.78313e-07
-5.43106e-13
-2.00613e-07
-5.24799e-07
-8.70404e-13
-1.34228e-07
-4.54738e-07
-9.72396e-13
-7.86132e-08
-3.69937e-07
2.18001e-12
-3.62611e-08
-2.72942e-07
-2.35843e-12
-9.38759e-09
-1.66935e-07
-3.70618e-11
-5.57802e-08
3.82506e-11
-1.00669e-08
7.35275e-08
-4.03205e-11
-3.73586e-08
2.06354e-07
4.01176e-11
-7.8816e-08
3.22996e-07
2.66558e-12
-1.31703e-07
4.22451e-07
-2.58421e-12
-1.93466e-07
5.04357e-07
5.33494e-13
-2.61759e-07
5.68795e-07
3.13542e-13
-3.3447e-07
6.16195e-07
-7.61878e-14
-4.09709e-07
6.47241e-07
-1.34471e-13
-4.85798e-07
6.62784e-07
-1.54936e-13
-5.61252e-07
6.63772e-07
-1.68e-13
-6.34756e-07
6.51199e-07
-1.65018e-13
-7.05149e-07
6.26066e-07
-1.5094e-13
-7.71395e-07
5.89362e-07
-1.28784e-13
-8.32567e-07
5.42055e-07
-1.00097e-13
-8.87827e-07
4.85094e-07
-6.69851e-14
-9.3641e-07
4.19428e-07
-3.15282e-14
-9.77614e-07
3.4602e-07
5.03362e-15
-1.01079e-06
2.65875e-07
4.20636e-14
-1.03534e-06
1.80065e-07
7.86392e-14
-1.05072e-06
8.97598e-08
1.12941e-13
-1.05645e-06
-3.74662e-09
1.4236e-13
-1.05211e-06
-9.90124e-08
1.64286e-13
-1.0374e-06
-1.94429e-07
1.75538e-13
-1.01214e-06
-2.88208e-07
1.73159e-13
-9.76286e-07
-3.78384e-07
1.54145e-13
-9.30024e-07
-4.62827e-07
1.1586e-13
-8.73767e-07
-5.39269e-07
5.67778e-14
-8.08217e-07
-6.05361e-07
-2.27908e-14
-7.34408e-07
-6.58739e-07
-1.20194e-13
-6.53733e-07
-6.97124e-07
-2.30561e-13
-5.67965e-07
-7.18441e-07
-3.48732e-13
-4.79254e-07
-7.20948e-07
-4.67987e-13
-3.90099e-07
-7.03386e-07
-5.6249e-13
-3.03296e-07
-6.65116e-07
-6.49384e-13
-2.21847e-07
-6.06247e-07
-1.03087e-12
-1.48857e-07
-5.27727e-07
-1.15399e-12
-8.74087e-08
-4.31388e-07
2.37094e-12
-4.04157e-08
-3.19932e-07
-2.70912e-12
-1.04895e-08
-1.9682e-07
-4.15004e-11
-6.63125e-08
4.2805e-11
-1.06839e-08
8.4254e-08
-4.25206e-11
-3.96087e-08
2.35236e-07
4.26116e-11
-8.34779e-08
3.66862e-07
2.8631e-12
-1.39338e-07
4.78314e-07
-2.72627e-12
-2.04436e-07
5.69455e-07
5.71305e-13
-2.76259e-07
6.40618e-07
3.26567e-13
-3.52558e-07
6.92494e-07
-9.80297e-14
-4.31342e-07
7.26025e-07
-1.70074e-13
-5.10864e-07
7.42306e-07
-2.00431e-13
-5.896e-07
7.42508e-07
-2.20862e-13
-6.66222e-07
7.27822e-07
-2.22723e-13
-7.39575e-07
6.99419e-07
-2.12387e-13
-8.08641e-07
6.58429e-07
-1.93583e-13
-8.72521e-07
6.05935e-07
-1.67396e-13
-9.30406e-07
5.42979e-07
-1.35147e-13
-9.81556e-07
4.70579e-07
-9.87011e-14
-1.02529e-06
3.89753e-07
-5.97106e-14
-1.06096e-06
3.01546e-07
-1.92014e-14
-1.08796e-06
2.07067e-07
2.1982e-14
-1.10572e-06
1.0752e-07
6.24318e-14
-1.1137e-06
4.23686e-09
9.98389e-14
-1.11143e-06
-1.01286e-07
1.31014e-13
-1.09849e-06
-2.07366e-07
1.5259e-13
-1.07459e-06
-3.12111e-07
1.60759e-13
-1.03957e-06
-4.13411e-07
1.51508e-13
-9.93448e-07
-5.08945e-07
1.20903e-13
-9.36515e-07
-5.96202e-07
6.57543e-14
-8.69345e-07
-6.72531e-07
-1.54174e-14
-7.92875e-07
-7.35209e-07
-1.21367e-13
-7.08448e-07
-7.8155e-07
-2.47698e-13
-6.17853e-07
-8.09036e-07
-3.88681e-13
-5.23331e-07
-8.15469e-07
-5.3583e-13
-4.27566e-07
-7.99151e-07
-6.5847e-13
-3.33624e-07
-7.59057e-07
-7.73754e-13
-2.44869e-07
-6.95001e-07
-1.21718e-12
-1.64837e-07
-6.07758e-07
-1.36465e-12
-9.70856e-08
-4.99141e-07
2.57653e-12
-4.50201e-08
-3.71994e-07
-3.11108e-12
-1.17216e-08
-2.30071e-07
-4.64718e-11
-7.8082e-08
4.79028e-11
-1.12909e-08
9.55901e-08
-4.52453e-11
-4.18161e-08
2.65716e-07
4.51236e-11
-8.80333e-08
4.13076e-07
3.07493e-12
-1.46761e-07
5.37045e-07
-2.85534e-12
-2.15042e-07
6.37735e-07
6.14879e-13
-2.90185e-07
7.15761e-07
3.41829e-13
-3.69806e-07
7.72115e-07
-1.20203e-13
-4.51814e-07
8.08033e-07
-2.08538e-13
-5.34401e-07
8.24893e-07
-2.51476e-13
-6.16014e-07
8.24122e-07
-2.81843e-13
-6.95327e-07
8.07135e-07
-2.90309e-13
-7.71202e-07
7.75295e-07
-2.84438e-13
-8.4266e-07
7.29888e-07
-2.69273e-13
-9.08847e-07
6.72121e-07
-2.46258e-13
-9.68999e-07
6.03131e-07
-2.16137e-13
-1.02242e-06
5.24003e-07
-1.80099e-13
-1.06847e-06
4.35799e-07
-1.39657e-13
-1.10652e-06
3.39593e-07
-9.60955e-14
-1.13596e-06
2.36512e-07
-5.04059e-14
-1.15621e-06
1.27769e-07
-3.81529e-15
-1.16669e-06
1.47135e-08
4.16422e-14
-1.16684e-06
-1.01134e-07
8.26106e-14
-1.15616e-06
-2.18045e-07
1.15479e-13
-1.13422e-06
-3.34049e-07
1.35681e-13
-1.10071e-06
-4.46918e-07
1.38177e-13
-1.0555e-06
-5.54157e-07
1.1769e-13
-9.98688e-07
-6.53017e-07
6.92597e-14
-9.30681e-07
-7.40538e-07
-1.07408e-14
-8.52274e-07
-8.13615e-07
-1.23199e-13
-7.64714e-07
-8.6911e-07
-2.65173e-13
-6.69758e-07
-9.03992e-07
-4.31204e-13
-5.69706e-07
-9.1552e-07
-6.11165e-13
-4.67403e-07
-9.01453e-07
-7.68474e-13
-3.66193e-07
-8.60267e-07
-9.19323e-13
-2.69823e-07
-7.9137e-07
-1.43562e-12
-1.82308e-07
-6.95271e-07
-1.61232e-12
-1.07753e-07
-5.73699e-07
2.79516e-12
-5.01368e-08
-4.29607e-07
-3.57765e-12
-1.31042e-08
-2.67052e-07
-5.20653e-11
-9.12398e-08
5.36285e-11
-1.18927e-08
1.0753e-07
-4.7655e-11
-4.39964e-08
2.97772e-07
4.76244e-11
-9.2509e-08
4.61585e-07
3.30384e-12
-1.54005e-07
5.98544e-07
-2.96992e-12
-2.25306e-07
7.09034e-07
6.67411e-13
-3.03536e-07
7.93991e-07
3.61098e-13
-3.86168e-07
8.54747e-07
-1.42658e-13
-4.71015e-07
8.92881e-07
-2.50597e-13
-5.56215e-07
9.10094e-07
-3.08888e-13
-6.402e-07
9.08107e-07
-3.51815e-13
-7.21657e-07
8.88593e-07
-3.69031e-13
-7.99491e-07
8.53129e-07
-3.68716e-13
-8.72777e-07
8.03175e-07
-3.57271e-13
-9.40728e-07
7.40072e-07
-3.37229e-13
-1.00265e-06
6.65053e-07
-3.09488e-13
-1.05791e-06
5.79267e-07
-2.74681e-13
-1.10593e-06
4.83811e-07
-2.33791e-13
-1.14611e-06
3.79775e-07
-1.87958e-13
-1.17787e-06
2.68279e-07
-1.38212e-13
-1.20063e-06
1.50527e-07
-8.56911e-14
-1.21377e-06
2.78525e-08
-3.22369e-14
-1.21668e-06
-9.82307e-08
1.91109e-14
-1.20874e-06
-2.25982e-07
6.42949e-14
-1.1894e-06
-3.53389e-07
9.81274e-14
-1.15818e-06
-4.78138e-07
1.1453e-13
-1.11475e-06
-5.97586e-07
1.06779e-13
-1.059e-06
-7.08768e-07
6.80064e-14
-9.9112e-07
-8.08415e-07
-7.80931e-15
-9.11709e-07
-8.93026e-07
-1.24219e-13
-8.21853e-07
-9.58966e-07
-2.80675e-13
-7.23219e-07
-1.00263e-06
-4.7318e-13
-6.18116e-07
-1.02062e-06
-6.90861e-13
-5.09515e-07
-1.01005e-06
-8.90863e-13
-4.01027e-07
-9.68755e-07
-1.08765e-12
-2.96802e-07
-8.95592e-07
-1.69246e-12
-2.01386e-07
-7.90685e-07
-1.9068e-12
-1.1951e-07
-6.55579e-07
3.02237e-12
-5.58272e-08
-4.93285e-07
-4.12536e-12
-1.46575e-08
-3.08163e-07
-5.83744e-11
-1.05957e-07
6.007e-11
-1.24963e-08
1.20077e-07
-5.011e-11
-4.61739e-08
3.31399e-07
5.01647e-11
-9.69478e-08
5.12356e-07
3.56007e-12
-1.61123e-07
6.62722e-07
-3.06597e-12
-2.35276e-07
7.83186e-07
7.33799e-13
-3.16332e-07
8.75047e-07
3.86823e-13
-4.01614e-07
9.40028e-07
-1.65529e-13
-4.88839e-07
9.80107e-07
-2.97831e-13
-5.76101e-07
9.97356e-07
-3.74483e-13
-6.6183e-07
9.93836e-07
-4.32121e-13
-7.4475e-07
9.71513e-07
-4.59821e-13
-8.23826e-07
9.32205e-07
-4.661e-13
-8.98216e-07
8.77566e-07
-4.58369e-13
-9.67222e-07
8.09079e-07
-4.40518e-13
-1.03025e-06
7.28078e-07
-4.14328e-13
-1.08675e-06
6.3577e-07
-3.80446e-13
-1.13622e-06
5.33281e-07
-3.39379e-13
-1.17814e-06
4.21696e-07
-2.9185e-13
-1.21197e-06
3.02112e-07
-2.38654e-13
-1.23714e-06
1.75694e-07
-1.80697e-13
-1.25302e-06
4.37286e-08
-1.19477e-13
-1.25893e-06
-9.23136e-08
-5.76638e-14
-1.25419e-06
-2.30721e-07
6.15775e-16
-1.2381e-06
-3.69483e-07
4.96832e-14
-1.20999e-06
-5.06242e-07
8.24242e-14
-1.16933e-06
-6.3825e-07
9.0512e-14
-1.11575e-06
-7.62352e-07
6.48931e-14
-1.04917e-06
-8.74995e-07
-3.22946e-15
-9.69922e-07
-9.72271e-07
-1.2063e-13
-8.78869e-07
-1.05002e-06
-2.90006e-13
-7.77509e-07
-1.10399e-06
-5.10044e-13
-6.68087e-07
-1.13004e-06
-7.70395e-13
-5.53651e-07
-1.12449e-06
-1.02227e-12
-4.38047e-07
-1.08436e-06
-1.27837e-12
-3.25843e-07
-1.00779e-06
-1.99286e-12
-2.22161e-07
-8.94365e-07
-2.25861e-12
-1.32448e-07
-7.45295e-07
3.25122e-12
-6.21514e-08
-5.63577e-07
-4.77534e-12
-1.64028e-08
-3.53846e-07
-6.54999e-11
-1.22428e-07
6.732e-11
-1.31132e-08
1.33243e-07
-5.26406e-11
-4.83866e-08
3.6662e-07
5.28114e-11
-1.01417e-07
5.65383e-07
3.86013e-12
-1.68201e-07
7.2951e-07
-3.13788e-12
-2.45038e-07
8.60023e-07
8.20259e-13
-3.28631e-07
9.58639e-07
4.21786e-13
-4.16141e-07
1.02754e-06
-1.89382e-13
-5.05194e-07
1.06916e-06
-3.52874e-13
-5.93848e-07
1.08601e-06
-4.51539e-13
-6.80553e-07
1.08054e-06
-5.2535e-13
-7.64091e-07
1.05505e-06
-5.63994e-13
-8.43517e-07
1.01163e-06
-5.76849e-13
-9.18099e-07
9.52148e-07
-5.7219e-13
-9.87259e-07
8.7824e-07
-5.55158e-13
-1.05052e-06
7.91341e-07
-5.28786e-13
-1.10747e-06
6.92717e-07
-4.9433e-13
-1.15769e-06
5.83508e-07
-4.52189e-13
-1.20078e-06
4.64781e-07
-4.0268e-13
-1.23625e-06
3.37586e-07
-3.46203e-13
-1.26358e-06
2.0302e-07
-2.83254e-13
-1.28214e-06
6.22907e-08
-2.14788e-13
-1.29124e-06
-8.32163e-08
-1.42874e-13
-1.29009e-06
-2.31864e-07
-7.12663e-14
-1.27788e-06
-3.81696e-07
-5.75949e-15
-1.25376e-06
-5.30363e-07
4.57103e-14
-1.21694e-06