/*--------------------------------*- C++ -*----------------------------------*\
  =========                 |
  \\      /  F ield         | OpenFOAM: The Open Source CFD Toolbox
   \\    /   O peration     | Website:  https://openfoam.org
    \\  /    A nd           | Version:  9
     \\/     M anipulation  |
\*---------------------------------------------------------------------------*/
FoamFile
{
    format      ascii;
    class       volVectorField;
    location    "32";
    object      U;
}
// * * * * * * * * * * * * * * * * * * * * * * * * * * * * * * * * * * * * * //

dimensions      [0 1 -1 0 0 0 0];

internalField   nonuniform List<vector> 
918
(
(2.47629 -0.138943 0)
(0.108704 0.722546 0)
(0.171762 1.0537 0)
(2.31834 0.153728 0)
(-0.0597306 1.27096 -1.22314e-19)
(-0.0924034 0.643931 -5.31381e-18)
(0.530049 0.849673 -2.9535e-19)
(0.274315 0.15287 -2.98841e-20)
(3.00615 -0.0195607 0)
(-0.00826281 0.476981 0)
(-0.0172214 0.589581 0)
(0.605211 0.0067663 0)
(0.0107054 0.439105 0)
(-0.00288244 0.421689 0)
(0.0134376 0.340816 -1.30512e-18)
(-0.00469145 0.768834 -9.20603e-20)
(0.312398 0.0742686 2.1521e-18)
(0.079747 0.642539 -2.22945e-19)
(1.52884 0.128628 0)
(-0.0267075 0.685398 0)
(0.194585 0.157718 -1.26553e-18)
(3.08302 -0.397373 0)
(2.92445 -0.50598 0)
(1.86116 -0.1811 0)
(0.511382 0.0400857 0)
(-0.0253686 0.52155 0)
(-0.00135313 0.494038 1.86238e-18)
(-0.0224265 1.40036 0)
(0.0748236 2.88364 0)
(0.168237 1.73641 0)
(-0.0383297 3.16559 0)
(0.0272798 1.64039 9.40482e-20)
(0.0233309 0.686687 0)
(-0.147425 0.775094 -2.03085e-22)
(-0.193914 1.0291 4.42123e-18)
(-0.0415772 1.04471 0)
(0.744578 -0.00600499 0)
(0.161002 0.246305 6.65529e-19)
(0.993549 1.51313 6.52818e-19)
(0.649972 0.784413 -5.15987e-19)
(0.798644 1.57529 6.19958e-20)
(0.416836 0.851461 -3.20092e-19)
(0.552307 0.306556 2.93906e-20)
(0.296961 0.153642 0)
(0.963018 0.566583 0)
(0.532587 0.303939 1.32012e-19)
(0.257968 0.162785 -1.35464e-19)
(0.871596 -0.0554787 0)
(3.02784 -0.00170479 0)
(3.00685 0.0178656 0)
(3.20086 -0.417733 0)
(3.04288 -0.0742117 0)
(3.03116 -0.0388406 0)
(0.0186062 0.903053 -1.14627e-18)
(-0.0542597 0.974366 0)
(0.00283789 0.455116 0)
(-0.0291529 0.981457 0)
(-0.0114037 0.481355 0)
(-0.00134501 0.869906 0)
(-0.0521088 1.1111 0)
(-0.0125554 0.541884 0)
(-0.0253596 1.16247 0)
(-0.00592134 0.62185 0)
(0.790479 0.0116244 0)
(1.16942 -0.00156174 0)
(0.618248 0.0123698 0)
(1.12578 0.0175987 0)
(0.569759 0.00867941 0)
(0.225406 0.921982 1.95976e-18)
(0.0985379 1.2081 0)
(0.176302 1.06604 0)
(0.0331901 0.755774 2.19928e-23)
(0.0372233 0.498055 -2.93098e-18)
(0.0194616 0.747943 0)
(0.00595421 0.422033 0)
(-0.000695311 0.734548 4.51733e-24)
(0.000702482 0.414825 0)
(-0.0169204 0.74318 0)
(-0.0129373 0.42798 0)
(0.0494352 0.649976 0)
(0.0484383 0.458222 0)
(0.00800541 0.62195 1.23397e-18)
(0.000744823 0.344904 0)
(-0.0678619 4.69199 0)
(0.00895384 1.45831 9.13968e-20)
(-0.0104593 0.785503 -1.17661e-19)
(0.636085 0.152146 -7.50932e-19)
(0.321614 0.0656845 -7.28693e-19)
(0.64479 0.169722 -2.25461e-18)
(0.317531 0.0955708 -1.45153e-18)
(0.0785316 0.618403 0)
(0.178543 1.31383 1.84872e-19)
(0.179707 0.730258 -2.94967e-19)
(2.06031 0.260946 0)
(1.10704 0.11845 0)
(3.03313 0.103887 0)
(3.10392 0.446059 0)
(2.83919 0.377459 -1.01277e-17)
(2.5781 0.361309 7.77116e-18)
(-0.0706467 1.263 0)
(-0.0113327 0.623204 0)
(-0.0138565 1.90014 0)
(-0.0506974 1.34642 0)
(-0.0479993 0.678956 0)
(0.440311 0.295628 4.00663e-19)
(0.225464 0.163359 0)
(2.2961 -0.266393 0)
(1.32372 -0.119273 0)
(1.07632 0.0126688 0)
(1.01198 0.0187649 0)
(0.540923 0.0108511 0)
(1.01986 0.0563994 0)
(0.821215 0.0703257 0)
(0.343622 0.0286956 3.36293e-18)
(-0.00543501 0.451601 1.77345e-18)
(-0.0270313 0.784627 0)
(-0.0473176 0.847507 0)
(-0.0152739 0.460435 0)
(0.000132484 0.839725 1.81593e-18)
(7.30053e-05 0.48753 0)
(-0.0054789 0.845554 -5.5902e-18)
(-0.00488634 0.496761 1.88629e-18)
(0.0545833 3.56565 0)
(0.0432186 4.02484 0)
(-0.0162416 1.41096 -2.05185e-21)
(-0.013059 1.36352 0)
(-0.00978958 0.741593 0)
(1.41018 0.0348844 0)
(0.760549 0.0154387 0)
(0.709514 0.0142643 0)
(1.41618 -0.0328482 0)
(0.773515 -0.00873972 0)
(0.322059 0.480353 -8.35596e-19)
(0.156807 0.232721 0)
(0.324962 0.50917 9.3646e-20)
(0.163362 0.268434 0)
(1.24078 1.38686 1.66449e-19)
(0.778679 0.740845 -3.92433e-19)
(0.411584 1.4221 0)
(0.60717 1.534 0)
(0.303538 0.814777 0)
(0.145331 0.353382 -4.42835e-19)
(0.607305 0.280719 0)
(0.313511 0.134639 3.98816e-19)
(1.42731 1.30672 0)
(1.58667 1.16853 0)
(0.874902 0.663911 4.61726e-19)
(1.7339 0.953093 0)
(1.06859 0.438774 2.32219e-20)
(1.47298 0.0081385 0)
(1.501 -0.0292391 0)
(0.801896 -0.00441619 0)
(1.95042 -0.199779 0)
(1.65082 -0.14818 0)
(1.05215 -0.0889696 0)
(3.06126 0.164853 0)
(3.03105 0.0687875 0)
(3.01022 0.0531594 0)
(0.0357176 1.60568 6.08211e-19)
(0.0178727 0.827038 0)
(0.0179526 1.69636 1.07977e-18)
(0.00303609 0.938926 -9.70743e-19)
(0.0646812 1.15232 1.87793e-19)
(0.0477071 0.989188 0)
(0.0401852 0.528696 0)
(-0.0286705 1.00549 0)
(-0.00698594 0.517508 0)
(0.0181385 1.61577 -4.43305e-21)
(-0.0180682 0.865665 0)
(-0.0539493 1.58434 -2.25793e-19)
(-0.016134 0.820861 4.37303e-19)
(-0.00178223 1.02976 0)
(0.0102731 1.04396 0)
(5.42007e-05 0.531564 0)
(0.0106714 1.17092 0)
(0.000912151 0.612348 0)
(1.46831 -0.00370353 0)
(0.789218 0.00805981 0)
(1.44055 0.0331661 0)
(0.761792 -0.00055754 0)
(0.675382 0.00534457 0)
(1.26195 0.0166821 0)
(1.20239 0.0473083 0)
(0.659691 0.015556 0)
(-0.00580052 1.42077 -1.70204e-20)
(0.000184319 1.37708 0)
(0.00482012 0.732923 0)
(0.00172892 0.417221 0)
(0.284439 0.82876 0)
(0.253618 0.399736 -2.87127e-19)
(-0.00223224 0.635409 0)
(-0.00889706 0.367611 0)
(0.0115985 4.33753 0)
(-0.048729 4.66424 0)
(-0.0181597 4.56586 0)
(-0.072008 3.36814 2.04219e-20)
(-0.0579088 4.60327 0)
(-0.0517735 4.18055 0)
(0.00484416 0.819227 1.08099e-20)
(0.0142228 1.56265 1.65393e-19)
(-0.0358633 1.50317 1.20885e-19)
(-0.00744487 0.826042 0)
(0.664428 0.105709 1.15327e-18)
(0.325685 0.0441634 -1.13023e-18)
(0.149669 1.13338 0)
(0.100945 0.573409 -2.69233e-19)
(0.118127 1.23322 -8.74287e-19)
(0.0518545 0.687133 8.69787e-19)
(0.809201 0.0240635 0)
(1.55677 0.0476796 0)
(1.7097 0.127652 0)
(0.919845 0.0445228 0)
(0.00793396 1.18207 0)
(0.0258414 1.19011 0)
(0.00450446 0.62779 0)
(0.482108 0.315079 1.20359e-18)
(0.436844 0.30908 -1.38666e-18)
(0.234766 0.164174 0)
(1.9355 0.153002 1.15237e-19)
(1.13642 0.0932515 0)
(1.72436 0.118444 0)
(0.883729 0.0226951 0)
(0.678173 0.0857387 0)
(0.699714 0.0460598 -5.40746e-18)
(0.346728 0.0325964 1.99899e-18)
(0.00914738 0.807284 1.69363e-18)
(0.00222281 0.46251 4.08166e-20)
(-0.0108777 1.40842 -3.57997e-20)
(0.00613617 1.38675 1.36584e-18)
(-0.0149832 0.848955 6.29424e-20)
(-0.0119261 0.524486 -2.52901e-22)
(-0.107514 1.00068 -1.16486e-18)
(-0.0529602 1.3532 8.33976e-19)
(-0.0175323 1.35275 -1.35773e-18)
(1.42273 -0.0170846 0)
(1.44236 0.0203185 0)
(0.769872 -0.000177595 0)
(1.45218 0.0253834 0)
(1.36319 0.0462298 0)
(0.761541 0.020307 0)
(1.30062 -0.00215358 0)
(1.31867 -0.00584868 0)
(0.695054 -0.000986428 0)
(0.304855 0.473403 -9.15203e-19)
(0.161357 0.242679 0)
(0.157155 0.30843 1.36935e-19)
(0.30959 0.585893 1.12213e-18)
(0.307404 0.548578 -6.64312e-19)
(0.15682 0.281899 1.29816e-18)
(0.278481 0.717695 2.1815e-18)
(0.148261 0.380851 3.93621e-19)
(0.636089 0.213093 1.53744e-18)
(0.625992 0.253603 3.99313e-19)
(0.31662 0.115046 7.49259e-19)
(1.9213 0.714631 -5.99664e-19)
(1.16769 0.336105 -7.01886e-19)
(-0.0351135 1.70335 4.64119e-19)
(-0.0114047 0.924927 0)
(1.6039 0.023953 0)
(1.52191 0.0653726 0)
(0.852933 0.0268587 0)
(-0.00355883 1.38473 0)
(0.00507422 0.729574 2.49506e-18)
(0.00465033 0.731252 0)
(0.00207079 0.415097 -2.4421e-18)
(-0.0102751 1.38627 5.9564e-19)
(-0.00947265 1.4225 0)
(0.336547 0.488137 2.57952e-19)
(0.360036 0.5464 -8.62982e-19)
(0.171834 0.257816 7.81128e-19)
(-0.0256693 0.767468 -1.66257e-18)
(-0.0261518 0.689734 0)
(-0.0154343 0.412938 0)
(0.0302117 1.54824 -1.27088e-20)
(0.0314124 1.5809 -3.64891e-19)
(0.0178994 0.822704 -1.55908e-20)
(0.213345 1.04401 8.89967e-19)
(0.119643 0.508996 -5.92226e-19)
(0.0118713 1.48479 7.30547e-19)
(0.0558186 1.35075 -8.15368e-19)
(0.0268102 0.760352 3.53048e-20)
(0.0075136 1.36614 -3.80745e-18)
(-0.000214815 1.39326 4.40925e-18)
(0.00377339 0.829776 1.73287e-18)
(-0.0138288 0.805094 -1.72533e-18)
(-0.00430906 0.481399 -1.7385e-18)
(-0.0106511 1.41685 -4.49966e-18)
(-0.0152178 1.40032 4.58884e-18)
(0.286354 0.674772 0)
(0.299764 0.634611 -2.28762e-18)
(0.151933 0.33171 9.90311e-19)
(0.281199 0.795927 1.18497e-18)
(0.138797 0.427492 -1.8284e-18)
(2.05699 0.322584 4.15828e-19)
(2.05156 0.547729 0)
(1.21865 0.220983 -4.01781e-19)
(-0.0738576 1.63538 -4.80148e-21)
(-0.0141216 1.69073 0)
(-0.015715 0.921973 0)
(0.227063 0.944422 -3.22762e-19)
(0.248208 0.866436 -7.06843e-19)
(0.128793 0.46324 1.32467e-18)
(3.16442 -0.442872 0)
(3.34728 -0.414685 1.81281e-18)
(0.0622429 3.4839 0)
(0.048789 2.80776 0)
(3.15925 0.249915 1.4192e-20)
(3.12355 0.506296 3.71213e-18)
(0.0232911 3.43293 -2.74072e-20)
(0.00922641 2.66463 0)
(-0.0416464 1.19604 1.55494e-18)
(0.190063 1.31638 0)
(3.47261 1.6251 -3.24739e-19)
(3.17427 0.272573 -2.96098e-20)
(3.14838 -0.118696 0)
(3.10047 -0.000403995 3.73117e-22)
(0.04393 2.59016 0)
(0.157515 3.30086 0)
(-0.054889 2.53407 0)
(-0.0229807 3.48874 3.15766e-19)
(-0.0248277 3.56976 1.99244e-19)
(2.63343 0.0488316 -1.36492e-20)
(3.04751 0.0311529 0)
(3.15792 0.0868407 0)
(-0.0509977 4.61737 0)
(-0.0457172 3.08378 0)
(-0.0718036 2.93549 0)
(0.652546 3.10588 2.65656e-19)
(3.33884 -0.422458 0)
(3.0114 -0.34581 0)
(3.1699 -0.0530368 2.27721e-18)
(3.2927 -0.3287 -2.74201e-18)
(3.1038 -0.125776 0)
(-0.0568019 4.51553 0)
(0.0166993 3.93498 0)
(0.00860191 4.26571 0)
(-0.0265484 3.09598 0)
(-0.0129263 2.85128 0)
(-0.0304789 2.42422 0)
(2.97423 -0.0031694 0)
(2.85043 0.0486287 -1.805e-20)
(2.24689 3.04936 -3.21524e-19)
(3.15695 0.0444553 -2.27827e-18)
(3.19037 0.278179 2.76936e-18)
(3.0828 0.117338 0)
(3.3954 0.328926 2.0873e-18)
(3.35695 0.484366 -2.70656e-18)
(3.07111 0.418429 0)
(-0.0548087 3.3472 0)
(0.0056862 3.27727 8.51994e-20)
(-0.0303115 2.57612 -6.03669e-20)
(3.7079 0.555318 2.26545e-18)
(3.47098 0.208499 0)
(-0.151983 1.27126 -2.16585e-18)
(-0.0624324 0.88216 -1.35029e-19)
(-0.0848371 1.33672 2.98549e-18)
(-0.0352358 1.27045 -8.99584e-19)
(-0.000495169 1.08841 0)
(-0.0266646 1.23955 6.94831e-19)
(-0.115054 1.38786 2.14647e-18)
(-0.0590497 1.34056 -1.31409e-18)
(-0.0767369 1.32063 0)
(1.28929 0.597217 0)
(1.17726 0.682382 0)
(3.55664 2.02949 9.5351e-19)
(3.04987 1.93598 -1.19057e-18)
(3.83773 1.70661 0)
(3.38426 1.15686 0)
(3.34934 0.280496 -3.91683e-18)
(2.89884 0.17312 4.83978e-18)
(3.35145 -0.155478 0)
(2.85479 -0.0761356 0)
(3.43642 0.0430264 0)
(3.5938 0.145057 0)
(3.28683 0.119875 0)
(3.55033 0.298581 0)
(3.40841 0.293059 0)
(3.32755 0.218074 0)
(0.0973292 2.79168 0)
(0.0343582 2.08023 0)
(0.12661 3.05249 0)
(0.0927553 2.2063 0)
(0.214822 3.59395 0)
(0.14013 2.67402 -5.58566e-19)
(0.0533636 3.61029 0)
(0.0113388 3.01388 4.05612e-19)
(-0.0243844 3.20299 -5.17021e-19)
(-0.0589389 2.7987 0)
(-0.0228147 2.2013 0)
(-0.0718428 2.90639 0)
(-0.055496 2.04933 0)
(-0.106606 4.74942 -2.45549e-19)
(-0.0790169 3.94079 2.7727e-19)
(-0.0742391 3.8016 3.09081e-19)
(-0.0526508 3.01586 0)
(-0.104341 3.80315 -4.58675e-19)
(-0.0370464 3.21449 -2.95063e-19)
(-0.0807034 4.78179 1.92552e-19)
(-0.0932531 4.46509 -3.50464e-19)
(-0.0684808 4.33481 -3.78938e-19)
(3.03133 0.0883882 3.35859e-18)
(2.28959 0.0321828 -4.22977e-18)
(2.89131 0.132847 -3.32752e-18)
(2.20957 0.0734898 4.15626e-18)
(3.36858 0.0277284 0)
(2.64306 -0.00265042 0)
(3.45416 0.0913592 0)
(3.32025 0.0192917 0)
(2.70666 0.00922857 0)
(3.68031 0.239649 0)
(3.43884 0.0960064 0)
(2.86369 0.0565201 0)
(-0.0212181 4.3358 -1.20288e-20)
(-0.0539852 4.65348 0)
(-0.0593242 4.54943 0)
(-0.0746795 3.5047 8.77253e-20)
(-0.0373285 2.7781 -3.46555e-21)
(-0.0791987 4.67004 1.13466e-19)
(-0.0933046 4.4584 -1.14664e-19)
(-0.0770914 3.9561 0)
(-0.0552558 3.87623 0)
(-0.0187811 3.99297 0)
(-0.0707195 3.25637 0)
(-0.0425407 2.30118 0)
(0.948796 3.66232 -6.08675e-19)
(0.921311 2.85373 -1.76299e-19)
(0.430161 2.05251 -2.28163e-19)
(0.252147 2.29879 6.96877e-19)
(1.02343 4.1998 2.63798e-19)
(3.43308 -0.167421 0)
(3.32213 -0.256546 0)
(2.88327 -0.189515 0)
(3.47032 -0.0643456 0)
(3.34581 -0.147864 0)
(3.44893 -0.261022 0)
(3.5195 -0.283601 0)
(3.57949 -0.281129 0)
(3.22413 0.0933884 3.61889e-18)
(2.55519 0.0645187 -4.57603e-18)
(3.09649 0.106579 -3.56234e-18)
(2.50909 0.0566755 4.43255e-18)
(2.23998 3.41723 0)
(1.7398 2.94871 -4.45511e-19)
(2.56697 3.3491 -4.03141e-19)
(2.36968 2.52976 5.35816e-19)
(0.774435 1.21293 2.72205e-18)
(1.44675 0.216477 1.34313e-18)
(3.72257 0.30426 0)
(3.89315 0.572836 -1.84594e-18)
(3.29901 0.243964 -8.23377e-20)
(3.72079 0.440156 0)
(0.236582 1.31233 1.79596e-18)
(-0.0166622 1.20198 -2.87616e-18)
(0.058795 0.769958 1.61442e-18)
(0.275922 0.464894 -7.47791e-19)
(0.18723 1.38374 8.70936e-19)
(0.0506361 1.23716 0)
(0.0577294 1.08616 -1.13221e-18)
(0.191693 1.44296 -4.09186e-18)
(0.328973 1.55695 0)
(0.00867321 1.2902 1.19579e-19)
(-0.00971747 1.45729 -1.34015e-18)
(-0.0410145 1.30282 1.94829e-18)
(-0.0574434 1.41766 0)
(-0.0204758 1.38228 0)
(0.681043 1.04983 0)
(2.45667 2.4551 -1.06614e-18)
(2.64418 2.17389 3.95187e-19)
(2.79263 2.88273 0)
(3.21305 3.06779 -3.94536e-19)
(3.16604 2.4119 2.84643e-20)
(0.803636 0.589302 -1.82226e-18)
(1.55579 0.691428 -1.62182e-20)
(1.23284 0.450981 8.721e-19)
(1.27493 0.843573 5.95015e-20)
(0.938728 0.633776 -2.36933e-18)
(1.46413 0.714107 0)
(1.9897 1.09966 1.45584e-18)
(2.03185 1.01561 0)
(1.41168 0.790631 0)
(1.06187 0.549635 0)
(3.37539 2.18023 1.00844e-18)
(3.94758 0.760949 -1.86327e-18)
(3.84793 1.21614 0)
(3.53388 0.757824 0)
(1.39131 0.36475 1.33242e-18)
(3.25792 1.84223 -8.51456e-19)
(2.83423 1.65438 1.54676e-18)
(3.75522 1.3771 -1.83579e-18)
(3.09793 0.114761 2.4639e-18)
(3.16856 0.180818 -2.57886e-18)
(2.66183 0.0916429 0)
(3.30731 -0.0394953 0)
(3.20141 -0.0842558 -2.36644e-18)
(2.63244 -0.0321094 2.3456e-18)
(3.95629 0.0932075 0)
(3.75968 0.145655 0)
(3.69369 0.155374 0)
(3.5883 0.204749 0)
(3.83261 0.0590326 0)
(3.72611 0.0522537 0)
(-0.0400992 2.51377 0)
(-0.0377194 2.01272 0)
(0.357083 3.98994 -4.1133e-19)
(0.662939 3.33516 -1.59977e-19)
(0.25972 3.02923 -3.57932e-19)
(0.343884 2.54934 5.73325e-19)
(0.458361 4.0159 0)
(0.469963 4.67195 -5.09869e-19)
(0.383185 4.73036 0)
(0.911035 4.3751 -3.7948e-19)
(0.673038 3.81389 9.68762e-19)
(0.5973 4.65363 4.46931e-19)
(0.740876 4.20219 -1.87496e-19)
(0.602747 4.32756 1.50855e-19)
(0.916511 4.65777 -6.63733e-19)
(0.749911 4.66205 0)
(0.858577 4.58986 5.04514e-19)
(0.00716523 4.57168 -1.81143e-19)
(-0.018478 3.64602 0)
(0.101634 4.28663 5.49622e-19)
(-0.0027068 4.3894 0)
(-0.00356612 3.45773 -4.51033e-19)
(-0.0152209 2.91115 0)
(-0.0998509 4.30923 -2.89129e-19)
(-0.105455 4.68184 0)
(-0.0528577 3.80699 0)
(-0.0396839 3.72921 3.25192e-19)
(-0.0468066 3.88702 1.03858e-20)
(-0.0345368 3.70819 6.25897e-19)
(-0.0410211 2.94842 4.06864e-21)
(-0.113401 4.71032 1.80195e-19)
(-0.102269 4.74201 1.03222e-19)
(-0.016565 2.62383 0)
(0.00135746 2.13596 0)
(-0.0412618 4.78942 4.86252e-19)
(-0.0480691 4.30981 4.2392e-19)
(-0.0826658 4.5856 -5.54169e-19)
(0.0166249 4.75852 0)
(-0.0774113 4.535 -3.0898e-19)
(-0.116815 4.16832 1.27685e-19)
(-0.0840321 4.24892 -4.12867e-20)
(-0.0695541 4.72924 -2.18908e-19)
(-0.0848077 4.26997 -6.85613e-20)
(-0.0832418 4.21482 3.06664e-19)
(2.87142 0.0610249 -2.36352e-18)
(2.85887 0.0497079 2.27299e-18)
(2.3386 0.0345585 0)
(3.51009 0.192039 3.04649e-18)
(2.70367 0.126547 -3.30473e-18)
(2.25448 0.0644876 3.60954e-18)
(3.68247 0.335345 -4.01636e-19)
(3.20989 -0.0485197 0)
(3.17213 -0.0135467 2.23699e-18)
(2.69091 -0.012374 -2.21935e-18)
(3.87877 0.122254 -1.25237e-19)
(3.77177 0.101865 1.07832e-18)
(4.15977 0.173504 0)
(4.22847 0.181163 -3.75129e-19)
(4.01369 0.145245 0)
(3.69489 0.155413 0)
(4.0323 0.0950918 0)
(3.71179 0.0873365 0)
(4.18472 0.113896 7.85494e-19)
(4.1372 0.0791459 -1.7479e-18)
(4.14067 0.113898 -8.48002e-19)
(4.1864 0.11654 -9.2448e-19)
(4.2157 0.22903 1.77405e-18)
(3.85475 0.188641 0)
(4.06128 0.301937 0)
(-0.0712487 4.58035 -1.35716e-19)
(-0.0315336 4.64459 -1.16769e-20)
(-0.0645179 4.66104 0)
(-0.0540815 4.19665 1.38096e-19)
(-0.0523503 4.22439 2.25308e-20)
(-0.0572418 4.09243 -2.18363e-20)
(-0.0798036 3.52678 2.61166e-19)
(-0.142765 4.00675 -1.4515e-20)
(-0.101577 4.13412 7.47581e-20)
(-0.0737122 3.40277 -1.32269e-19)
(-0.0245269 2.92525 1.58405e-19)
(-0.0744215 4.42869 5.20778e-21)
(-0.0873513 4.64251 1.72221e-19)
(1.24339 4.36002 3.47401e-19)
(1.15956 4.52886 7.26047e-19)
(1.73679 3.46666 4.30799e-19)
(1.3088 3.56104 1.69477e-19)
(1.28654 2.88991 0)
(0.548353 2.31837 2.74864e-19)
(0.463461 1.74126 3.30658e-19)
(0.344974 2.56685 1.50904e-20)
(0.491952 3.17263 -1.16121e-18)
(0.631432 3.13165 8.76439e-19)
(0.432623 2.40402 0)
(0.293487 1.97158 -5.57217e-19)
(0.259717 3.07704 1.39459e-18)
(0.273237 2.71892 -3.13812e-20)
(0.15784 2.27568 -1.74786e-18)
(0.591332 1.4109 1.46326e-18)
(0.576267 1.61663 0)
(3.58364 -0.0751494 8.64331e-20)
(3.61861 -0.254101 -7.25965e-20)
(3.72135 -0.217712 -1.26655e-18)
(3.75927 -0.126019 1.28242e-18)
(3.67616 -0.0488553 0)
(2.44632 3.8716 0)
(2.61784 3.9147 0)
(2.88947 3.62559 0)
(2.73615 3.6427 0)
(0.854113 1.3943 -3.33962e-21)
(0.611443 1.03899 0)
(1.70883 3.38399 1.50206e-20)
(1.42072 3.46298 0)
(1.32634 2.95017 -1.28366e-18)
(1.40684 2.89288 8.24372e-19)
(1.79126 0.310396 0)
(1.43044 0.262016 3.52059e-19)
(2.41164 0.358827 2.19175e-18)
(1.78606 0.284835 -7.85414e-19)
(1.42631 0.112198 -2.49495e-18)
(4.26631 0.790102 -2.56544e-18)
(3.85196 0.99521 -3.67209e-20)
(3.2969 0.844636 2.0678e-18)
(3.87578 0.745471 1.81325e-18)
(3.12306 0.465688 -3.04499e-18)
(2.91022 0.452161 3.74983e-19)
(3.19249 0.682315 -8.18706e-19)
(2.97608 0.683404 0)
(3.75866 0.563994 1.53763e-18)
(4.09566 0.629406 0)
(4.09118 0.776481 0)
(4.04578 0.415927 8.23661e-19)
(4.29665 0.642593 -3.02467e-20)
(4.24946 0.715916 -4.52873e-19)
(4.17659 0.643299 0)
(3.61567 0.130419 1.71816e-18)
(4.19 0.183605 2.14418e-18)
(4.09068 0.151664 -1.6794e-18)
(4.13651 0.240883 -1.44284e-18)
(3.74573 0.23822 -2.15635e-18)
(3.30288 0.375969 0)
(3.40343 0.302413 0)
(2.55811 0.190651 -1.26604e-18)
(2.10846 0.119115 4.76761e-19)
(4.03722 0.352632 1.94032e-18)
(4.28774 0.432857 -2.34646e-18)
(4.28488 0.489487 2.06887e-18)
(4.15713 0.493543 0)
(4.25664 0.337314 0)
(4.26651 0.322401 -9.81929e-19)
(4.2143 0.31617 -1.5965e-18)
(2.22666 3.48715 6.20466e-19)
(1.93742 3.23076 -6.83342e-19)
(1.44561 2.35534 -1.03186e-18)
(1.18631 1.9962 2.66836e-19)
(0.883718 1.37808 -2.62859e-18)
(0.793627 1.21538 9.22098e-19)
(0.600741 0.903896 -1.97173e-21)
(1.11449 1.78465 -1.13782e-18)
(1.1418 1.88174 1.69854e-18)
(0.974313 1.70006 5.06058e-19)
(0.785911 1.28859 -5.12673e-19)
(0.635388 1.07437 0)
(2.44553 2.60675 -1.15433e-19)
(0.705146 1.14419 8.5721e-19)
(0.927721 0.88969 1.15616e-18)
(0.755249 0.813595 1.33771e-18)
(1.08307 0.746506 1.34112e-18)
(1.46687 1.04429 -2.27023e-18)
(1.38291 1.07119 1.83938e-18)
(1.00178 0.765495 -6.76736e-19)
(0.817015 0.567997 1.49461e-18)
(1.61549 0.49075 -7.781e-19)
(1.55895 0.508324 0)
(1.23953 0.407332 4.60584e-21)
(2.50916 1.51587 7.75546e-19)
(2.07977 1.27013 -2.80854e-18)
(1.68661 1.18438 9.08715e-21)
(1.66067 1.09232 0)
(2.86202 2.59508 8.73783e-19)
(3.44675 2.75289 1.03745e-18)
(3.25577 2.93078 -1.19593e-18)
(3.5542 2.76344 -4.28374e-19)
(3.48429 2.60373 -1.34888e-19)
(3.51245 2.79518 1.38781e-19)
(3.67422 2.26705 -1.67939e-18)
(3.70518 2.4921 4.00732e-19)
(3.78367 2.43588 0)
(3.78446 2.19163 -5.79695e-19)
(4.04896 1.07333 5.8055e-19)
(4.27597 0.993182 1.00214e-18)
(4.30041 0.966891 1.01165e-18)
(4.05502 1.32936 -1.1496e-18)
(4.10287 1.34979 0)
(4.15252 1.23374 0)
(3.32767 1.23573 -1.56064e-20)
(2.41771 0.666489 0)
(2.72183 0.744042 9.30638e-19)
(3.23825 0.885951 -2.64565e-20)
(3.77287 1.53468 5.10736e-18)
(3.56978 1.7619 1.3111e-18)
(3.48092 1.54048 -1.34064e-18)
(3.03732 1.36977 1.4374e-18)
(2.76062 1.36965 8.23749e-19)
(2.30653 1.15588 -7.97784e-19)
(3.67221 -0.0855428 1.9846e-18)
(3.8947 -0.0289323 0)
(3.85894 -0.0665487 1.34205e-18)
(3.74291 -0.0594084 -2.98771e-18)
(3.98056 0.0373777 1.46195e-18)
(3.90444 0.113427 -3.08291e-18)
(3.73986 0.128036 0)
(3.55625 0.173471 -6.2854e-19)
(3.81197 0.122981 1.60526e-18)
(3.69195 0.191384 -8.22549e-19)
(3.6003 0.171079 5.90709e-19)
(-0.080119 2.59215 0)
(-0.0466745 3.39934 0)
(-0.0318579 2.46309 0)
(-0.0215451 1.97164 0)
(0.0463922 3.9419 6.70698e-19)
(0.14024 3.72334 -1.72952e-19)
(0.317378 4.64476 -2.29748e-19)
(0.253131 4.46206 2.42647e-19)
(-0.0246209 4.29473 -4.97582e-19)
(0.0123913 4.32679 3.73643e-19)
(0.0959711 3.87065 2.22694e-20)
(0.0100363 3.55808 -4.67118e-19)
(-0.0122196 3.30981 -6.22699e-20)
(-0.0389697 3.67206 -5.67429e-20)
(0.153392 4.47455 -5.86994e-19)
(0.178574 4.28797 0)
(0.275879 4.63483 2.96423e-19)
(0.26909 4.70952 2.52993e-19)
(0.59599 4.44426 -2.26028e-19)
(0.40814 3.78004 0)
(0.457284 3.62785 -1.11484e-18)
(0.559958 3.99672 7.89958e-19)
(0.480199 4.56176 -6.14818e-19)
(0.370595 4.43213 3.30779e-19)
(0.299541 4.15369 0)
(-0.0340742 4.76185 -5.53269e-19)
(-0.0738848 4.52649 -6.41483e-19)
(-0.0750039 4.73964 0)
(-0.0283179 4.35938 -6.24814e-21)
(-0.018367 4.6411 2.74275e-19)
(-0.117894 3.88261 4.47122e-20)
(-0.0548186 3.48721 -6.53875e-19)
(-0.0949031 3.92535 1.74205e-19)
(-0.134703 4.51832 2.32405e-19)
(-0.0753545 4.32871 0)
(-0.0591311 3.8873 0)
(-0.0818115 2.89898 2.00889e-19)
(-0.0471057 3.63259 -6.26857e-20)
(-0.0722678 3.62008 0)
(-0.0879068 2.68802 1.5817e-19)
(-0.0461851 2.19448 -3.06464e-19)
(3.76103 0.0323489 0)
(3.7319 0.00775102 -2.03276e-19)
(4.1795 0.0679713 -1.43994e-18)
(4.08911 0.0463215 0)
(3.87634 0.0178323 0)
(4.14973 0.0370663 -1.25249e-20)
(4.1003 0.0349598 2.37892e-18)
(4.0001 0.0802223 2.84567e-18)
(3.75586 0.118678 0)
(3.55802 0.110063 0)
(4.01332 0.093974 1.41748e-18)
(3.70324 0.11615 0)
(3.4721 0.128886 0)
(-0.0805875 4.69979 0)
(-0.106087 4.66825 1.06701e-20)
(-0.0765025 4.71991 6.2978e-20)
(-0.0602917 3.83293 0)
(-0.111693 4.53618 1.11262e-19)
(-0.0673999 4.24123 -6.33791e-20)
(-0.0535623 3.93023 0)
(1.41016 4.18555 0)
(1.20938 4.58047 -1.29807e-18)
(1.22469 4.48826 0)
(1.57398 4.4872 1.48446e-18)
(1.5933 4.12132 0)
(1.50167 4.37163 -6.06562e-19)
(1.01135 2.24243 -3.39465e-20)
(0.70908 1.64526 -1.74458e-18)
(0.590615 1.22739 2.12855e-18)
(0.708644 1.83479 3.96791e-19)
(0.974918 2.42392 0)
(1.03629 2.37901 0)
(0.718294 1.68717 0)
(0.532272 1.32999 -1.39515e-18)
(1.20863 3.77463 -9.83438e-19)
(1.12868 2.98866 -2.35491e-19)
(1.32679 3.40471 1.92591e-19)
(0.599191 2.04066 0)
(0.620138 1.94243 0)
(0.462176 1.57097 -3.92697e-19)
(0.957552 2.7202 0)
(2.68714 3.57099 0)
(2.38117 3.00848 -1.45456e-18)
(2.54581 3.02687 -8.58747e-20)
(2.41966 3.40427 0)
(2.28555 3.14928 2.2211e-18)
(3.278 3.08681 -3.897e-19)
(3.13406 3.32504 0)
(3.11646 3.15141 6.30445e-19)
(2.87043 3.41269 0)
(2.88193 3.20076 0)
(1.20913 2.00611 -9.30404e-19)
(1.41391 2.40311 -6.99515e-19)
(1.75341 2.98155 1.20598e-18)
(1.69559 2.95954 -3.6224e-19)
(1.0623 1.82205 0)
(1.20672 2.20827 4.71101e-19)
(0.718357 1.28857 -7.15188e-19)
(0.581571 1.04337 -5.60589e-22)
(1.93713 3.69551 0)
(2.19897 3.74286 -5.42604e-19)
(2.33819 3.98623 0)
(2.28408 0.529021 0)
(1.61735 0.341911 0)
(1.20902 0.276588 0)
(2.20913 0.554269 -1.46522e-18)
(1.63528 0.402198 8.17228e-19)
(2.14561 0.129124 -9.85148e-19)
(2.6266 0.297533 0)
(2.46566 0.301649 4.1348e-19)
(1.76987 0.13572 1.63296e-18)
(1.53026 0.0812685 -1.03702e-18)
(0.745505 1.55584 8.58022e-19)
(0.959726 1.8203 0)
(0.537625 1.43997 1.56083e-18)
(0.523817 1.61478 -1.42519e-18)
(0.757133 1.81442 -9.88319e-19)
(2.07329 2.46256 1.33767e-18)
(2.09663 2.71195 0)
(1.58339 1.67804 -2.7634e-19)
(2.0096 1.98937 1.74503e-18)
(1.35979 1.29254 -4.23569e-19)
(1.58859 1.31339 4.50675e-19)
(2.10952 1.51319 1.02315e-18)
(2.44266 1.67094 0)
(2.27595 1.85605 0)
(2.00985 1.60598 0)
(3.95681 2.0799 3.84494e-19)
(3.7598 1.88979 -1.26353e-18)
(3.81721 2.02811 1.04675e-18)
(3.90106 1.7715 -1.0083e-18)
(4.15789 1.67392 0)
(4.11697 1.84112 -2.9783e-19)
(2.84044 1.16333 -1.89726e-18)
(2.97081 1.16344 -2.41296e-18)
(2.33195 1.04356 1.4564e-18)
(2.13824 0.934435 -1.4198e-18)
(2.46348 0.846178 -1.17809e-18)
(2.17855 0.776949 1.44881e-18)
(4.00845 0.0334774 -1.52887e-18)
(4.05276 0.0406917 3.13017e-18)
(3.76797 -0.0658793 1.90088e-18)
(3.79119 -0.07377 -2.28674e-18)
(3.95955 0.0105763 0)
(4.05604 0.0228809 -3.72976e-18)
(0.0967129 4.76155 1.06552e-19)
(0.0675372 4.73212 0)
(0.189573 4.73153 9.5355e-19)
(0.211143 4.74926 -8.67507e-19)
(0.231042 4.71897 4.2846e-19)
(0.122047 4.65901 0)
(-0.100597 4.77128 0)
(-0.106405 4.40424 -6.18493e-20)
(-0.105311 4.33333 5.54372e-20)
(-0.114043 4.48236 7.18089e-21)
(-0.104727 4.7215 -1.01163e-19)
(-0.081835 4.70913 5.50898e-20)
(1.87537 4.00958 -1.64324e-18)
(1.81634 4.01608 1.74017e-18)
(1.68401 4.40657 -8.54242e-19)
(1.69274 4.27731 7.6124e-20)
(2.2527 4.08659 0)
(1.85458 4.22015 -6.3549e-19)
(1.98182 3.95998 6.16332e-19)
(1.8239 4.38107 8.34436e-19)
(2.07663 4.21938 0)
(2.22808 4.10036 0)
(1.13819 3.63066 1.495e-18)
(0.826502 2.81111 2.02322e-18)
(0.954217 2.98948 -1.38953e-18)
(0.746431 2.97113 -2.31887e-19)
(0.902295 3.73021 4.66291e-19)
(0.721993 3.36271 -1.13397e-18)
(0.745646 1.46554 -1.21471e-18)
(0.746122 1.31676 0)
(0.602472 1.11435 -1.33514e-18)
(1.11077 2.06374 0)
(1.08773 2.15068 0)
(1.35841 2.19068 -1.09053e-18)
(1.06433 2.01404 -1.03594e-18)
(1.0167 2.03493 1.09862e-18)
(1.03097 1.51908 0)
(1.41018 1.76164 -6.01193e-19)
(1.62708 2.11883 -8.55398e-19)
(1.41062 2.08244 0)
(0.867687 1.81831 7.12414e-19)
(0.779603 1.67939 0)
(2.90588 2.28881 -1.84704e-18)
(3.31878 2.47055 2.60925e-18)
(3.27748 2.19306 -2.59334e-18)
(2.61015 2.02077 -2.31174e-19)
(2.72475 1.94025 -9.74135e-19)
(1.2617 2.18957 7.96118e-19)
(1.31583 2.24438 -1.35983e-18)
(1.45386 2.32934 1.79268e-18)
(1.79005 2.55933 -1.16516e-18)
(1.88863 2.93204 -1.56713e-18)
(1.5629 2.48841 -1.18795e-19)
(1.63263 2.62793 1.37118e-18)
(1.80973 2.6928 9.66113e-20)
(2.01761 2.99851 6.49963e-19)
)
;

boundaryField
{
    wall-4
    {
        type            noSlip;
    }
    velocity-inlet-5
    {
        type            fixedValue;
        value           uniform (3 0 0);
    }
    velocity-inlet-6
    {
        type            fixedValue;
        value           uniform (0 1 0);
    }
    pressure-outlet-7
    {
        type            zeroGradient;
    }
    wall-8
    {
        type            noSlip;
    }
    frontAndBackPlanes
    {
        type            empty;
    }
}


// ************************************************************************* //
