/*--------------------------------*- C++ -*----------------------------------*\
  =========                 |
  \\      /  F ield         | OpenFOAM: The Open Source CFD Toolbox
   \\    /   O peration     | Website:  https://openfoam.org
    \\  /    A nd           | Version:  9
     \\/     M anipulation  |
\*---------------------------------------------------------------------------*/
FoamFile
{
    format      ascii;
    class       volScalarField;
    location    "17";
    object      p;
}
// * * * * * * * * * * * * * * * * * * * * * * * * * * * * * * * * * * * * * //

dimensions      [0 2 -2 0 0 0 0];

internalField   nonuniform List<scalar> 
918
(
23.4609
23.5915
0.970806
22.8782
1.00402
23.1079
3.29567
13.7886
19.2341
2.9393
2.6314
14.4001
20.6509
16.8923
13.0102
0.924031
14.0478
2.26522
18.4517
1.40295
13.0051
20.4396
21.5283
19.2759
14.1137
14.3865
18.6132
1.16497
0.111419
0.265686
0.973915
0.408766
0.150833
21.6448
22.3215
22.2598
15.4868
10.4183
3.61644
3.81955
3.00627
2.83057
13.8303
13.9294
5.87472
13.7689
13.7655
16.6357
19.1021
19.2457
19.539
19.328
19.7143
5.97442
2.79402
2.61452
2.88174
2.95361
2.97434
2.70464
2.68483
2.4909
2.345
13.8799
14.4732
14.5283
14.2596
14.2073
22.4675
21.7106
22.0453
21.1517
21.2971
20.227
19.8414
17.2679
17.6204
16.4942
16.1133
12.8006
12.7616
13.2301
13.4793
0.147504
1.07176
1.21968
14.0544
14.0904
14.092
14.107
8.30277
2.20878
2.212
17.8921
17.4685
20.4735
20.7407
20.1877
20.0022
1.5378
1.53394
1.16183
1.18869
0.957076
13.3444
13.4975
19.2273
18.3942
14.1468
14.0471
14.1218
11.4931
13.9028
13.9764
15.3371
15.7925
14.9815
15.4182
18.1832
17.7652
19.0498
19.487
0.399182
0.157234
0.687626
0.319201
0.516782
15.3552
15.1498
15.6025
15.6535
15.8847
10.4222
10.3508
10.3982
10.3183
4.16428
4.47791
2.27744
2.59517
2.44467
9.88857
13.9449
13.9906
4.82273
5.52418
5.18985
6.35388
6.72723
16.0014
16.438
16.1767
17.723
16.9279
17.2761
19.8051
19.2943
19.5948
6.37152
6.60984
5.6082
5.24958
2.25569
2.49929
2.44246
2.98537
2.96322
3.20829
3.33991
2.69053
2.54778
2.89737
2.78198
2.83286
2.17524
2.04473
13.604
13.3901
14.1429
14.3214
15.0881
14.9398
14.6465
14.8152
19.0365
19.44
19.4735
19.0893
11.5595
10.1635
13.7338
14.009
0.302759
0.266938
0.137239
0.379935
0.399935
0.141949
2.00988
1.82124
1.40137
1.67651
14.0512
14.0105
8.54429
8.76511
8.13848
7.88055
16.3061
16.4564
17.0905
16.6903
1.97129
1.68477
1.81438
13.6576
13.5319
13.6379
10.9285
10.3629
11.9704
12.24
13.9855
14.0286
14.0249
15.6967
16.0151
19.8379
20.1085
19.9354
20.3212
21.384
21.0353
20.6505
14.5311
14.9395
14.7779
16.1198
15.7534
15.9729
15.1807
15.4855
15.3433
10.3816
10.4271
10.1399
10.2173
10.2638
10.2115
9.8261
9.69914
14.0749
14.0315
14.0546
7.25327
7.7505
4.86795
4.5385
12.5361
13.2092
12.8849
18.6662
17.9886
18.7216
18.3507
17.9007
18.2242
10.4373
10.3974
10.4313
14.9327
14.2709
14.6226
2.43155
2.06887
2.23211
8.96196
9.05477
6.98055
7.60178
7.26315
16.3167
16.6571
17.3373
16.449
16.9167
17.4239
17.202
9.96174
10.0936
10.0107
9.6838
9.57708
9.73052
8.33386
8.94616
3.60633
4.26467
3.95996
9.22313
9.45368
9.30048
18.6219
19.1567
0.773325
1.1685
19.5867
19.3104
0.142378
0.241109
14.2691
12.5656
7.26497
17.189
16.6218
18.9615
3.193
6.10495
2.8103
3.37851
2.68505
14.607
14.2418
13.3332
0.458297
1.25608
1.71194
2.91085
18.4023
17.7271
18.8432
19.1633
19.2177
0.690681
0.920713
0.58567
1.25007
1.0366
1.27984
15.5429
15.6407
4.34104
18.8502
19.1545
19.1722
17.6489
18.6016
17.6591
0.935133
0.641472
0.709379
10.0756
12.1153
14.2292
13.7817
13.9789
14.0012
13.7522
14.8852
14.5549
14.5197
15.0043
13.9666
13.8252
7.73231
6.38649
8.06815
7.70799
17.0903
16.6782
16.4853
16.231
18.0767
17.6027
18.4531
17.8415
18.3033
18.5902
2.94318
3.13324
3.01554
2.52771
6.14434
6.61484
5.48844
5.63546
4.25765
2.43464
2.53145
2.75423
2.58774
2.93044
2.67884
2.94122
2.5754
2.3226
2.31841
2.928
2.73748
2.60158
14.5853
14.5238
14.3247
14.3628
14.346
14.4615
13.5276
13.932
13.5597
12.392
12.9722
12.4995
0.825741
0.657107
0.52711
1.32474
1.35134
1.11485
0.840651
1.18102
1.20395
0.823548
1.54506
1.45249
3.16535
2.65937
8.86168
7.98765
6.89794
16.7924
17.5941
16.7638
18.0045
18.4214
18.5269
18.1473
17.6391
15.7213
15.7165
15.3766
15.33
4.77723
3.74666
4.9751
4.54542
10.492
14.0591
11.836
10.7981
11.0935
13.4155
13.945
13.596
13.7348
13.3077
12.8364
13.5298
13.0628
13.1636
12.9416
15.7334
16.2085
15.815
15.2355
15.2555
10.6093
12.016
5.47197
5.64338
7.23986
6.53667
13.5202
13.9319
13.9158
13.5603
13.7501
13.7455
13.6066
13.7796
13.8627
13.7561
11.8171
10.1382
9.04126
9.03512
14.0727
12.3409
12.9264
12.4047
16.1121
16.6286
16.2432
15.638
16.123
15.5948
15.6219
15.8349
17.1932
16.9428
16.7126
17.0995
3.05676
3.00454
3.6448
3.13909
3.04027
2.82841
3.48513
4.75488
4.4135
6.72016
7.26623
4.57617
3.37627
3.7909
4.80125
5.53773
5.514
3.96932
4.50046
4.92553
4.43925
5.22603
4.72929
2.72094
3.02301
2.86264
2.83816
3.3808
3.87724
3.37321
2.48102
2.5935
2.26307
2.12629
3.53228
2.99441
3.0306
3.67629
1.10328
1.32709
1.44177
2.41427
1.91054
1.97504
15.1741
14.8181
14.9518
14.2309
14.2986
14.2398
13.864
15.2319
14.954
15.0534
13.7021
13.7888
13.6021
13.8973
14.3126
14.6119
15.444
15.165
14.4041
14.5553
14.2064
14.1346
13.4571
12.8936
12.8333
1.11127
0.819825
0.984612
0.917061
0.611644
0.805445
2.1809
1.57056
1.96912
1.72483
1.95732
1.41119
1.30252
4.25105
5.05176
3.96771
3.37241
3.0821
8.91816
9.031
8.17591
7.86815
8.21109
8.44526
8.39529
7.14427
7.5769
7.38785
9.93712
9.603
17.5785
17.5226
17.1938
17.0349
17.2613
5.76104
7.65679
6.79626
7.91536
10.2196
10.519
9.31477
8.71268
9.46973
9.54322
14.0411
14.1175
13.5573
14.0432
14.0715
11.8268
12.8747
13.4888
13.3027
13.8238
13.9052
12.9673
13.5553
13.4686
12.7503
12.8044
12.1204
12.4583
11.9859
11.7857
14.0475
13.9424
14.2121
13.7628
14.142
13.707
14.0218
14.0203
14.3009
13.4024
12.8241
12.8433
13.2689
12.9682
13.3146
13.478
9.30661
9.95205
10.3976
10.9343
10.6439
10.4229
10.2901
10.5919
10.5706
10.8396
10.7594
10.6084
11.5601
13.4298
13.7134
13.8175
13.6065
13.6525
13.3456
13.6209
13.5484
13.9159
14.0054
14.0543
13.1363
13.2954
13.4937
13.3756
11.6713
10.0837
9.94059
9.50118
7.57043
8.04283
11.0155
9.8963
8.91299
8.98336
12.1612
10.7986
11.6112
12.0337
10.6857
10.2987
12.9644
13.7542
13.9736
13.6959
12.0519
12.1782
12.6282
13.0735
13.2641
13.7223
15.8521
16.4277
16.5056
16.2297
16.0917
16.1914
15.9415
16.0446
16.5187
16.6452
16.4765
2.88273
2.99478
2.92561
2.85147
3.08518
2.86179
3.95039
3.94019
3.15558
3.3357
3.35504
3.46328
2.93101
2.97393
4.82106
5.05599
5.32927
4.82994
6.17056
6.82304
7.40588
7.0861
5.78507
5.86687
6.18457
3.50429
3.53106
3.24983
3.70402
3.75883
2.61405
2.24301
2.04598
2.56465
2.66657
2.05374
1.77469
1.82455
2.33408
2.05881
1.81205
14.9669
14.7253
14.7466
14.5265
14.5811
14.9758
15.1966
15.0065
15.1448
15.1958
14.7951
14.6838
14.855
1.8201
1.48778
1.62647
1.58472
1.63812
1.54945
1.73636
7.60952
6.4101
6.79544
5.97724
4.12139
4.63997
9.55664
9.98041
10.0187
9.73178
9.5196
9.8848
9.73721
9.73069
8.26858
9.34616
8.87614
9.28243
9.30331
9.37232
9.08105
9.07586
10.583
10.6147
9.4796
10.1229
9.32583
7.92692
8.09401
9.10704
10.0809
10.4188
10.261
9.98545
9.75767
10.1291
10.183
10.2453
10.2354
8.75287
8.7081
8.30292
13.9629
13.87
14.0168
14.0215
14.1493
13.971
13.8081
14.0857
14.1402
13.924
11.0874
11.1479
11.3931
12.1436
12.1956
12.0958
11.3409
13.1093
12.7616
13.404
13.3483
13.4163
13.0035
12.8288
13.1019
10.073
11.4447
10.9762
11.2416
10.0563
9.30164
13.2185
13.2717
13.3396
13.6135
13.5691
14.1542
15.822
15.6919
15.7393
15.7823
15.394
15.4312
4.17246
3.82647
4.54309
4.5018
4.06138
3.7633
2.28927
1.97212
1.78667
1.6597
1.88978
1.94873
8.1589
8.19085
6.32819
7.35498
5.87926
4.94022
4.79441
5.95319
7.13543
7.19827
8.52078
9.20622
8.76274
8.5894
7.92686
8.25997
10.1358
10.2283
10.1296
10.4484
9.98099
11.7234
11.3061
11.6553
13.2716
12.9777
12.3792
12.2665
12.2326
12.8275
11.9414
11.1698
11.8845
12.5454
12.5027
11.1282
10.8833
11.3093
11.2903
10.2036
10.7271
10.489
10.8396
10.5514
)
;

boundaryField
{
    wall-4
    {
        type            zeroGradient;
    }
    velocity-inlet-5
    {
        type            zeroGradient;
    }
    velocity-inlet-6
    {
        type            zeroGradient;
    }
    pressure-outlet-7
    {
        type            fixedValue;
        value           uniform 0;
    }
    wall-8
    {
        type            zeroGradient;
    }
    frontAndBackPlanes
    {
        type            empty;
    }
}


// ************************************************************************* //
