/*--------------------------------*- C++ -*----------------------------------*\
  =========                 |
  \\      /  F ield         | OpenFOAM: The Open Source CFD Toolbox
   \\    /   O peration     | Website:  https://openfoam.org
    \\  /    A nd           | Version:  9
     \\/     M anipulation  |
\*---------------------------------------------------------------------------*/
FoamFile
{
    format      ascii;
    class       volVectorField;
    location    "17";
    object      U;
}
// * * * * * * * * * * * * * * * * * * * * * * * * * * * * * * * * * * * * * //

dimensions      [0 1 -1 0 0 0 0];

internalField   nonuniform List<vector> 
918
(
(2.47629 -0.138943 0)
(0.108704 0.722546 0)
(0.172978 1.0767 0)
(2.31834 0.153728 0)
(-0.0592901 1.25133 -1.20935e-19)
(-0.0924034 0.643931 -5.3175e-18)
(0.525615 0.842963 -2.97463e-19)
(0.274948 0.153156 -2.98915e-20)
(3.00615 -0.019562 0)
(-0.00849986 0.476279 0)
(-0.0177538 0.592442 0)
(0.605453 0.00673787 0)
(0.0107054 0.439105 0)
(-0.00288447 0.421692 0)
(0.0136274 0.34137 -1.30686e-18)
(-0.0052832 0.760237 -9.18294e-20)
(0.312801 0.0743432 2.15152e-18)
(0.0788884 0.638869 -2.24759e-19)
(1.52885 0.128626 0)
(-0.0277199 0.694234 0)
(0.195217 0.15809 -1.26681e-18)
(3.08302 -0.397375 0)
(2.92445 -0.505982 0)
(1.86116 -0.181101 0)
(0.511773 0.0400938 0)
(-0.0253631 0.52157 0)
(-0.00135319 0.494038 1.86391e-18)
(-0.023916 1.42377 0)
(0.0726015 2.92411 0)
(0.168696 1.76639 0)
(-0.0412689 3.12634 0)
(0.0260598 1.61666 9.29835e-20)
(0.0224057 0.677515 0)
(-0.147425 0.775094 -2.03233e-22)
(-0.193914 1.0291 4.42429e-18)
(-0.0415772 1.04471 0)
(0.744511 -0.00601371 0)
(0.162077 0.247855 6.66509e-19)
(0.985549 1.5019 6.55972e-19)
(0.644788 0.778196 -5.18279e-19)
(0.792722 1.56299 6.2515e-20)
(0.413458 0.844704 -3.22895e-19)
(0.553767 0.307337 2.93979e-20)
(0.297568 0.153908 0)
(0.958604 0.563599 0)
(0.534298 0.304782 1.32067e-19)
(0.258721 0.163187 -1.3552e-19)
(0.871575 -0.0554826 0)
(3.02784 -0.00170734 0)
(3.00685 0.0178643 0)
(3.20086 -0.417736 0)
(3.04288 -0.0742145 0)
(3.03116 -0.0388424 0)
(0.0182747 0.90897 -1.14648e-18)
(-0.0541255 0.971597 0)
(0.00262257 0.453695 0)
(-0.0289793 0.979651 0)
(-0.0116457 0.481159 0)
(-0.00190945 0.868862 0)
(-0.0525914 1.11553 0)
(-0.0128716 0.54365 0)
(-0.0261384 1.16956 0)
(-0.00646588 0.62612 0)
(0.790215 0.0115853 0)
(1.16984 -0.00159748 0)
(0.618434 0.0123549 0)
(1.12631 0.0175908 0)
(0.570036 0.00866005 0)
(0.225406 0.921982 1.96118e-18)
(0.0985379 1.2081 0)
(0.176302 1.06604 0)
(0.0331901 0.755774 2.20093e-23)
(0.0372233 0.498055 -2.9331e-18)
(0.0194616 0.747943 0)
(0.0059542 0.422033 0)
(-0.000697274 0.73455 4.52146e-24)
(0.000701985 0.414825 0)
(-0.0169281 0.743188 0)
(-0.0129439 0.427991 0)
(0.0499452 0.651486 0)
(0.0488889 0.459607 0)
(0.00825878 0.622665 1.23561e-18)
(0.000871696 0.345076 0)
(-0.0772185 4.67789 0)
(0.00803267 1.44362 9.11675e-20)
(-0.0106155 0.778331 -1.17326e-19)
(0.637016 0.152357 -7.50712e-19)
(0.321988 0.065734 -7.28445e-19)
(0.645853 0.169997 -2.25404e-18)
(0.317985 0.0956994 -1.45128e-18)
(0.0792674 0.624084 0)
(0.1767 1.30546 1.86636e-19)
(0.178118 0.725194 -2.9779e-19)
(2.06033 0.260939 0)
(1.10705 0.118446 0)
(3.03313 0.103886 0)
(3.10392 0.446057 0)
(2.83919 0.377456 -1.01236e-17)
(2.57811 0.361308 7.76803e-18)
(-0.0715615 1.27855 0)
(-0.0116218 0.630891 0)
(-0.0161481 1.93098 0)
(-0.0522269 1.3662 0)
(-0.0491665 0.689091 0)
(0.441706 0.296724 4.01034e-19)
(0.226089 0.163844 0)
(2.29609 -0.266398 0)
(1.32371 -0.119276 0)
(1.07695 0.0126237 0)
(1.01275 0.018738 0)
(0.541255 0.0108101 0)
(1.01885 0.0562441 0)
(0.821897 0.0703922 0)
(0.343879 0.0287134 3.36133e-18)
(-0.00544507 0.451568 1.77532e-18)
(-0.0270528 0.784659 0)
(-0.0473902 0.847607 0)
(-0.0152892 0.460483 0)
(0.000132173 0.839725 1.81749e-18)
(7.26231e-05 0.48753 0)
(-0.00547894 0.845554 -5.59485e-18)
(-0.00488634 0.496761 1.88784e-18)
(0.0494875 3.60521 0)
(0.0366762 4.05756 0)
(-0.0165805 1.39434 -2.05495e-21)
(-0.0140636 1.34612 0)
(-0.00998833 0.732621 0)
(1.41003 0.0348603 0)
(0.76045 0.01542 0)
(0.70958 0.0142575 0)
(1.41608 -0.0328628 0)
(0.773466 -0.0087496 0)
(0.324247 0.483431 -8.36838e-19)
(0.157754 0.234054 0)
(0.327299 0.512725 9.37945e-20)
(0.164528 0.270274 0)
(1.23231 1.37601 1.67133e-19)
(0.773631 0.735396 -3.93664e-19)
(0.408835 1.41179 0)
(0.602238 1.52243 0)
(0.301083 0.809022 0)
(0.146656 0.356475 -4.4387e-19)
(0.608731 0.281309 0)
(0.31403 0.134817 3.9881e-19)
(1.41914 1.29756 0)
(1.5792 1.16172 0)
(0.870279 0.659747 4.62734e-19)
(1.72713 0.948577 0)
(1.06476 0.436853 2.3132e-20)
(1.4729 0.00812309 0)
(1.50095 -0.0292487 0)
(0.801863 -0.00442281 0)
(1.95041 -0.199785 0)
(1.65079 -0.148187 0)
(1.05214 -0.0889732 0)
(3.06126 0.164851 0)
(3.03105 0.0687847 0)
(3.01022 0.0531576 0)
(0.034711 1.61702 6.08394e-19)
(0.017511 0.833927 0)
(0.0173857 1.70659 1.07983e-18)
(0.00262333 0.944015 -9.70727e-19)
(0.0641515 1.14615 1.89314e-19)
(0.0474776 0.984991 0)
(0.0396526 0.52663 0)
(-0.0290759 1.00508 0)
(-0.00730776 0.517749 0)
(0.0169395 1.61528 -4.42373e-21)
(-0.0187587 0.866845 0)
(-0.0542769 1.58127 -2.25142e-19)
(-0.0165262 0.818825 4.35938e-19)
(-0.00236222 1.03101 0)
(0.00976451 1.04677 0)
(-0.000336142 0.532592 0)
(0.00968583 1.18055 0)
(0.000364282 0.618095 0)
(1.46773 -0.00380066 0)
(0.788865 0.00800985 0)
(1.44014 0.0331178 0)
(0.761603 -0.000577434 0)
(0.675501 0.00532881 0)
(1.26221 0.0166546 0)
(1.20272 0.0472928 0)
(0.659845 0.0155386 0)
(-0.00580059 1.42077 -1.70345e-20)
(0.000184299 1.37708 0)
(0.00482011 0.732923 0)
(0.0017289 0.417221 0)
(0.286103 0.832063 0)
(0.254985 0.401599 -2.87369e-19)
(-0.00207134 0.635577 0)
(-0.0088497 0.367599 0)
(0.00279715 4.35871 0)
(-0.0575162 4.65976 0)
(-0.0281502 4.57559 0)
(-0.0759798 3.33246 2.05517e-20)
(-0.0681109 4.58068 0)
(-0.0595161 4.14802 0)
(0.00417694 0.813716 1.07148e-20)
(0.0134831 1.55125 1.64895e-19)
(-0.0359052 1.49024 1.20546e-19)
(-0.00789668 0.819412 0)
(0.665267 0.105831 1.15283e-18)
(0.326017 0.0441816 -1.1298e-18)
(0.150973 1.14402 0)
(0.101942 0.578642 -2.69919e-19)
(0.119536 1.2448 -8.76306e-19)
(0.052389 0.693634 8.71802e-19)
(0.809236 0.0240558 0)
(1.55682 0.0476669 0)
(1.70973 0.127645 0)
(0.919866 0.0445182 0)
(0.00710073 1.19389 0)
(0.0250535 1.20379 0)
(0.00400696 0.634568 0)
(0.48382 0.316162 1.20419e-18)
(0.438401 0.310248 -1.38754e-18)
(0.235491 0.164668 0)
(1.93315 0.152423 1.1517e-19)
(1.13483 0.0929195 0)
(1.72277 0.118219 0)
(0.883019 0.0225905 0)
(0.678898 0.0857877 0)
(0.700348 0.0460985 -5.40493e-18)
(0.347007 0.0326057 1.9981e-18)
(0.00912705 0.807252 1.69531e-18)
(0.00221646 0.462498 4.08154e-20)
(-0.0108777 1.40842 -3.5828e-20)
(0.00613616 1.38675 1.36689e-18)
(-0.0149832 0.848955 6.29923e-20)
(-0.0119261 0.524486 -2.53097e-22)
(-0.107514 1.00068 -1.16572e-18)
(-0.0529602 1.3532 8.34595e-19)
(-0.0175323 1.35275 -1.35878e-18)
(1.42243 -0.0171166 0)
(1.44213 0.0202802 0)
(0.769728 -0.000201862 0)
(1.45225 0.0253711 0)
(1.3633 0.0462202 0)
(0.761589 0.0202991 0)
(1.30081 -0.00217322 0)
(1.31882 -0.00587017 0)
(0.695146 -0.00100154 0)
(0.306707 0.476269 -9.16211e-19)
(0.162288 0.244031 0)
(0.158398 0.310706 1.37222e-19)
(0.312012 0.590366 1.12427e-18)
(0.309702 0.552624 -6.65554e-19)
(0.157969 0.283899 1.3005e-18)
(0.280974 0.724237 2.18659e-18)
(0.149611 0.3842 3.94603e-19)
(0.637212 0.213514 1.53721e-18)
(0.627221 0.254113 3.99259e-19)
(0.317071 0.115193 7.49195e-19)
(1.91542 0.711484 -5.99849e-19)
(1.1646 0.33479 -7.01912e-19)
(-0.0360488 1.7117 4.64082e-19)
(-0.012097 0.929177 0)
(1.60275 0.0237297 0)
(1.52113 0.0652559 0)
(0.852446 0.0267662 0)
(-0.00355896 1.38473 0)
(0.00507378 0.729574 2.49723e-18)
(0.00465027 0.731252 0)
(0.00207068 0.415097 -2.44422e-18)
(-0.010276 1.38627 5.96171e-19)
(-0.00947312 1.4225 0)
(0.338504 0.490891 2.58206e-19)
(0.361992 0.549264 -8.63788e-19)
(0.172786 0.259176 7.81821e-19)
(-0.0256878 0.767399 -1.66432e-18)
(-0.0261321 0.689685 0)
(-0.0154322 0.412884 0)
(0.0293488 1.54238 -1.27375e-20)
(0.0304365 1.5719 -3.63606e-19)
(0.0173036 0.818845 -1.5525e-20)
(0.215413 1.05363 8.92224e-19)
(0.120707 0.513526 -5.93732e-19)
(0.011577 1.4972 7.31693e-19)
(0.0559743 1.36312 -8.16849e-19)
(0.0267947 0.767105 3.55513e-20)
(0.00750091 1.36614 -3.81109e-18)
(-0.000225247 1.39326 4.41346e-18)
(0.00377177 0.829775 1.73446e-18)
(-0.0138359 0.805087 -1.72701e-18)
(-0.00431074 0.481397 -1.7401e-18)
(-0.0106536 1.41685 -4.50375e-18)
(-0.0152214 1.40032 4.59303e-18)
(0.289006 0.680665 0)
(0.302357 0.639759 -2.2925e-18)
(0.153263 0.334398 9.92474e-19)
(0.283983 0.803298 1.18799e-18)
(0.140153 0.431473 -1.83301e-18)
(2.05356 0.321467 4.15635e-19)
(2.04688 0.545668 0)
(1.21629 0.220265 -4.01663e-19)
(-0.0746087 1.63812 -4.79516e-21)
(-0.0154068 1.69628 0)
(-0.0163553 0.924552 0)
(0.228985 0.953179 -3.2354e-19)
(0.250495 0.874684 -7.08611e-19)
(0.129939 0.467561 1.32797e-18)
(3.16442 -0.442878 0)
(3.34728 -0.414692 1.81205e-18)
(0.056991 3.51705 0)
(0.0455241 2.84438 0)
(3.15926 0.249909 1.4191e-20)
(3.12355 0.506289 3.71058e-18)
(0.019374 3.39917 -2.75825e-20)
(0.00809483 2.63409 0)
(-0.0415292 1.19608 1.5567e-18)
(0.191707 1.31917 0)
(3.46455 1.61901 -3.24779e-19)
(3.1743 0.272555 -2.96103e-20)
(3.14833 -0.118725 0)
(3.10047 -0.000412455 3.72308e-22)
(0.041542 2.57806 0)
(0.156018 3.32167 0)
(-0.0583166 2.53934 0)
(-0.0279017 3.49062 3.15618e-19)
(-0.0299723 3.56184 1.99151e-19)
(2.63418 0.0486586 -1.3643e-20)
(3.04694 0.0309525 0)
(3.15686 0.0864946 0)
(-0.0603801 4.61481 0)
(-0.0491019 3.05845 0)
(-0.0756821 2.96127 0)
(0.646599 3.08402 2.66734e-19)
(3.33884 -0.42247 0)
(3.01138 -0.345818 0)
(3.1699 -0.0530473 2.27623e-18)
(3.2927 -0.328708 -2.74086e-18)
(3.1038 -0.125782 0)
(-0.0670406 4.52286 0)
(0.00853654 3.96295 0)
(-0.000356275 4.28435 0)
(-0.0312164 3.12378 0)
(-0.016729 2.88408 0)
(-0.0338407 2.458 0)
(2.97404 -0.00323718 0)
(2.85061 0.0485688 -1.80489e-20)
(2.23424 3.03061 -3.23129e-19)
(3.15695 0.0444451 -2.2773e-18)
(3.19037 0.278171 2.7682e-18)
(3.0828 0.117332 0)
(3.39541 0.328902 2.08632e-18)
(3.35696 0.484356 -2.7054e-18)
(3.07112 0.418422 0)
(-0.0575117 3.31975 0)
(0.00366597 3.24477 8.53498e-20)
(-0.0316551 2.54746 -6.04251e-20)
(3.70441 0.553577 2.26446e-18)
(3.46908 0.207712 0)
(-0.151651 1.27134 -2.16826e-18)
(-0.0620195 0.882149 -1.35185e-19)
(-0.0840898 1.33712 2.98884e-18)
(-0.0348038 1.2707 -9.0059e-19)
(-7.15081e-05 1.08878 0)
(-0.0266869 1.2395 6.95588e-19)
(-0.114938 1.38788 2.14885e-18)
(-0.0589579 1.34056 -1.31552e-18)
(-0.0767972 1.32063 0)
(1.29318 0.59858 0)
(1.18197 0.684499 0)
(3.54984 2.02221 9.53651e-19)
(3.03948 1.92748 -1.19082e-18)
(3.83315 1.70105 0)
(3.37665 1.15293 0)
(3.34937 0.280466 -3.91496e-18)
(2.89889 0.173099 4.83743e-18)
(3.3514 -0.155518 0)
(2.8547 -0.0761636 0)
(3.43642 0.0429933 0)
(3.59381 0.145022 0)
(3.28683 0.119857 0)
(3.55034 0.298552 0)
(3.40842 0.293042 0)
(3.32755 0.218055 0)
(0.0942372 2.78083 0)
(0.0332471 2.07256 0)
(0.12232 3.03781 0)
(0.0908245 2.19315 0)
(0.212465 3.61481 0)
(0.139974 2.69477 -5.59308e-19)
(0.0501865 3.62994 0)
(0.00974348 3.03456 4.05725e-19)
(-0.0277482 3.21465 -5.16721e-19)
(-0.0632594 2.80748 0)
(-0.025557 2.21212 0)
(-0.0768174 2.91082 0)
(-0.0570392 2.05272 0)
(-0.117772 4.74727 -2.45359e-19)
(-0.0862429 3.93471 2.77183e-19)
(-0.0798387 3.80179 3.08812e-19)
(-0.0549046 3.01436 0)
(-0.110251 3.79412 -4.58288e-19)
(-0.0406035 3.20238 -2.94699e-19)
(-0.0922917 4.77883 1.92379e-19)
(-0.103633 4.45881 -3.50351e-19)
(-0.0775018 4.33198 -3.7862e-19)
(3.03204 0.0881389 3.35666e-18)
(2.29013 0.0321116 -4.22735e-18)
(2.89218 0.132605 -3.32559e-18)
(2.21055 0.0733825 4.15386e-18)
(3.36816 0.0274688 0)
(2.64263 -0.0027248 0)
(3.45337 0.0909146 0)
(3.31966 0.0190198 0)
(2.70583 0.00906936 0)
(3.67902 0.238726 0)
(3.43781 0.0954647 0)
(2.86206 0.0561902 0)
(-0.029459 4.30487 -1.20725e-20)
(-0.0639588 4.64369 0)
(-0.0695717 4.52669 0)
(-0.0794492 3.48007 8.76959e-20)
(-0.0391275 2.75705 -3.46079e-21)
(-0.089707 4.6658 1.14025e-19)
(-0.102428 4.46493 -1.15225e-19)
(-0.0848417 3.9742 0)
(-0.0628454 3.8991 0)
(-0.0282904 4.01522 0)
(-0.0758796 3.28137 0)
(-0.0445482 2.32353 0)
(0.94095 3.63806 -6.10111e-19)
(0.913238 2.83111 -1.76972e-19)
(0.434359 2.07105 -2.28739e-19)
(0.254241 2.31928 6.98437e-19)
(1.02471 4.21303 2.63765e-19)
(3.43305 -0.167457 0)
(3.32212 -0.256566 0)
(2.88324 -0.189527 0)
(3.47032 -0.064377 0)
(3.34581 -0.147881 0)
(3.44893 -0.261041 0)
(3.51949 -0.28362 0)
(3.57948 -0.281157 0)
(3.2243 0.0933058 3.61698e-18)
(2.55534 0.064483 -4.57364e-18)
(3.09671 0.106484 -3.56043e-18)
(2.50938 0.0566164 4.43015e-18)
(2.22973 3.39895 0)
(1.72714 2.92769 -4.46669e-19)
(2.55935 3.33453 -4.04008e-19)
(2.35536 2.51339 5.36878e-19)
(0.780267 1.22118 2.72564e-18)
(1.4485 0.216558 1.34253e-18)
(3.72081 0.30315 0)
(3.89092 0.571066 -1.84517e-18)
(3.29622 0.243128 -8.22913e-20)
(3.7225 0.439102 0)
(0.23985 1.3138 1.79813e-18)
(-0.0151341 1.20259 -2.87946e-18)
(0.0603299 0.770386 1.61637e-18)
(0.277974 0.465899 -7.48659e-19)
(0.189064 1.38624 8.71973e-19)
(0.0516347 1.23819 0)
(0.0584586 1.08758 -1.13356e-18)
(0.194179 1.44476 -4.09672e-18)
(0.332414 1.55976 0)
(0.00864261 1.29018 1.197e-19)
(-0.00974522 1.45729 -1.34147e-18)
(-0.0410468 1.30284 1.95022e-18)
(-0.0575006 1.41766 0)
(-0.0205239 1.38225 0)
(0.685334 1.05585 0)
(2.46818 2.46044 -1.06645e-18)
(2.63161 2.16127 3.95407e-19)
(2.78336 2.86979 0)
(3.2087 3.05601 -3.94313e-19)
(3.15762 2.40169 2.83589e-20)
(0.807678 0.59218 -1.82383e-18)
(1.56039 0.692791 -1.62521e-20)
(1.23594 0.451906 8.72028e-19)
(1.28049 0.84642 5.95266e-20)
(0.942822 0.636184 -2.37053e-18)
(1.469 0.715906 0)
(1.99727 1.10198 1.45599e-18)
(2.03892 1.01778 0)
(1.41721 0.792859 0)
(1.06543 0.55116 0)
(3.38148 2.17804 1.00759e-18)
(3.94464 0.75847 -1.86226e-18)
(3.84385 1.21245 0)
(3.52843 0.755323 0)
(1.39398 0.365242 1.33209e-18)
(3.26527 1.84218 -8.51258e-19)
(2.84306 1.65558 1.54622e-18)
(3.75883 1.37529 -1.83453e-18)
(3.09804 0.114696 2.46263e-18)
(3.16862 0.180778 -2.57759e-18)
(2.66193 0.0916191 0)
(3.30716 -0.0395845 0)
(3.20132 -0.0843075 -2.36526e-18)
(2.63229 -0.0321371 2.34442e-18)
(3.95635 0.093035 0)
(3.75981 0.145528 0)
(3.6937 0.155328 0)
(3.58832 0.204704 0)
(3.83262 0.0589608 0)
(3.7261 0.0521992 0)
(-0.0428448 2.50695 0)
(-0.0394705 2.00912 0)
(0.350047 3.97247 -4.10805e-19)
(0.655872 3.31197 -1.6038e-19)
(0.254907 3.01044 -3.5872e-19)
(0.339829 2.53095 5.74648e-19)
(0.451303 3.99757 0)
(0.463921 4.66657 -5.09478e-19)
(0.378117 4.72394 0)
(0.911175 4.38508 -3.79421e-19)
(0.675813 3.83599 9.69367e-19)
(0.592157 4.64476 4.46491e-19)
(0.734116 4.18373 -1.87581e-19)
(0.595216 4.30997 1.50903e-19)
(0.911115 4.64677 -6.63265e-19)
(0.74336 4.65908 0)
(0.855265 4.5854 5.04367e-19)
(-0.0014941 4.57635 -1.81062e-19)
(-0.0233314 3.65894 0)
(0.0947076 4.29681 5.4906e-19)
(-0.00957083 4.39871 0)
(-0.00732774 3.47517 -4.51168e-19)
(-0.0176099 2.92728 0)
(-0.109975 4.30566 -2.89344e-19)
(-0.116687 4.67724 0)
(-0.0601204 3.80251 0)
(-0.0476276 3.72836 3.25385e-19)
(-0.053586 3.8904 1.03539e-20)
(-0.040121 3.7173 6.25469e-19)
(-0.043738 2.95545 4.06323e-21)
(-0.12495 4.7063 1.8017e-19)
(-0.114432 4.73882 1.03163e-19)
(-0.0202406 2.63728 0)
(-0.000956443 2.15004 0)
(-0.0516823 4.78552 4.8582e-19)
(-0.0576511 4.30296 4.23637e-19)
(-0.0930933 4.58001 -5.53765e-19)
(0.00707258 4.75266 0)
(-0.0868102 4.51971 -3.08732e-19)
(-0.124733 4.14674 1.27375e-19)
(-0.0915259 4.23379 -4.12747e-20)
(-0.0816161 4.72398 -2.18863e-19)
(-0.0939051 4.25835 -6.84782e-20)
(-0.0915634 4.20581 3.06263e-19)
(2.87178 0.0609172 -2.36224e-18)
(2.85939 0.0495536 2.2717e-18)
(2.33898 0.0344899 0)
(3.51121 0.19152 3.04468e-18)
(2.70491 0.126331 -3.30285e-18)
(2.25569 0.0643317 3.60751e-18)
(3.68383 0.334609 -4.01393e-19)
(3.2097 -0.0486222 0)
(3.17183 -0.0137008 2.23583e-18)
(2.69062 -0.0124394 -2.2182e-18)
(3.87811 0.121684 -1.25167e-19)
(3.7713 0.101451 1.07773e-18)
(4.15935 0.172735 0)
(4.22824 0.180383 -3.74914e-19)
(4.01404 0.144724 0)
(3.69545 0.155034 0)
(4.03235 0.094875 0)
(3.71196 0.0871532 0)
(4.18472 0.113381 7.85041e-19)
(4.13729 0.0787448 -1.74694e-18)
(4.14042 0.113407 -8.47534e-19)
(4.18622 0.116023 -9.23959e-19)
(4.2153 0.228133 1.77303e-18)
(3.85406 0.188044 0)
(4.06037 0.300749 0)
(-0.0817813 4.56386 -1.36067e-19)
(-0.0387161 4.63069 -1.17074e-20)
(-0.0742557 4.65128 0)
(-0.0621325 4.17483 1.3851e-19)
(-0.0600346 4.19871 2.25738e-20)
(-0.0633819 4.06293 -2.1918e-20)
(-0.084287 3.5128 2.60817e-19)
(-0.150041 3.98922 -1.44978e-20)
(-0.109956 4.12085 7.46878e-20)
(-0.077969 3.38378 -1.32127e-19)
(-0.0268147 2.90836 1.5823e-19)
(-0.0840707 4.43925 5.19533e-21)
(-0.0985194 4.64141 1.71759e-19)
(1.23755 4.34131 3.47776e-19)
(1.15444 4.51756 7.24892e-19)
(1.72598 3.44546 4.31909e-19)
(1.29885 3.53594 1.70122e-19)
(1.27564 2.86736 0)
(0.553305 2.33876 2.75421e-19)
(0.467383 1.75699 3.31453e-19)
(0.347334 2.58929 1.52922e-20)
(0.495115 3.19896 -1.16172e-18)
(0.636972 3.15635 8.77814e-19)
(0.436458 2.42504 0)
(0.296319 1.98978 -5.58417e-19)
(0.259594 3.0993 1.39662e-18)
(0.273953 2.74072 -3.17273e-20)
(0.158331 2.29546 -1.75088e-18)
(0.596979 1.42314 1.46633e-18)
(0.581893 1.63134 0)
(3.58364 -0.0751847 8.63936e-20)
(3.6186 -0.254132 -7.25633e-20)
(3.72133 -0.217757 -1.26595e-18)
(3.75926 -0.126071 1.28182e-18)
(3.67616 -0.0489069 0)
(2.44131 3.8604 0)
(2.61833 3.90597 0)
(2.88836 3.61505 0)
(2.73786 3.63651 0)
(0.860729 1.40392 -3.33738e-21)
(0.616197 1.04643 0)
(1.72189 3.40186 1.50292e-20)
(1.4295 3.48029 0)
(1.33762 2.9713 -1.28558e-18)
(1.41849 2.91105 8.25523e-19)
(1.79356 0.310592 0)
(1.4324 0.262237 3.51928e-19)
(2.41404 0.358799 2.19066e-18)
(1.78811 0.284846 -7.8508e-19)
(1.42779 0.112201 -2.49376e-18)
(4.26596 0.787913 -2.56369e-18)
(3.8552 0.993541 -3.66655e-20)
(3.30131 0.843756 2.06659e-18)
(3.87846 0.744108 1.81216e-18)
(3.12581 0.465247 -3.0433e-18)
(2.91309 0.451876 3.74785e-19)
(3.19619 0.682024 -8.18246e-19)
(2.97948 0.682829 0)
(3.76107 0.562948 1.53671e-18)
(4.09727 0.627899 0)
(4.09294 0.77461 0)
(4.04447 0.414667 8.23185e-19)
(4.29628 0.640819 -3.02908e-20)
(4.24782 0.713612 -4.52582e-19)
(4.17492 0.641069 0)
(3.61641 0.129977 1.71714e-18)
(4.19013 0.182822 2.14286e-18)
(4.09104 0.151084 -1.6784e-18)
(4.13706 0.240024 -1.44195e-18)
(3.7466 0.23757 -2.15508e-18)
(3.30509 0.375565 0)
(3.40491 0.301829 0)
(2.55973 0.190469 -1.26534e-18)
(2.11011 0.119025 4.76505e-19)
(4.03793 0.351769 1.93907e-18)
(4.28729 0.431432 -2.34514e-18)
(4.28534 0.488002 2.06766e-18)
(4.15795 0.492022 0)
(4.25631 0.335996 0)
(4.26606 0.321699 -9.80916e-19)
(4.21442 0.315179 -1.59547e-18)
(2.2378 3.49531 6.20289e-19)
(1.95047 3.24384 -6.83664e-19)
(1.45698 2.369 -1.03294e-18)
(1.19524 2.00716 2.67103e-19)
(0.890466 1.38722 -2.63204e-18)
(0.799017 1.22268 9.2305e-19)
(0.604799 0.909576 -1.90364e-21)
(1.12274 1.79507 -1.13905e-18)
(1.15069 1.89343 1.70041e-18)
(0.981087 1.70886 5.06545e-19)
(0.790946 1.29556 -5.13169e-19)
(0.639068 1.07982 0)
(2.45776 2.61265 -1.15414e-19)
(0.711231 1.1475 8.58147e-19)
(0.933461 0.894112 1.15706e-18)
(0.760301 0.817008 1.33914e-18)
(1.08817 0.749561 1.34181e-18)
(1.47435 1.04856 -2.27137e-18)
(1.3904 1.07593 1.84039e-18)
(1.00697 0.769141 -6.77251e-19)
(0.820733 0.570437 1.49556e-18)
(1.61886 0.491515 -7.77865e-19)
(1.56273 0.509323 0)
(1.24218 0.408077 4.64719e-21)
(2.51842 1.51846 7.75587e-19)
(2.08834 1.27327 -2.80877e-18)
(1.69482 1.18862 9.24247e-21)
(1.66817 1.09571 0)
(2.87212 2.59699 8.73395e-19)
(3.44896 2.74759 1.03632e-18)
(3.25878 2.92753 -1.19464e-18)
(3.55356 2.75732 -4.27902e-19)
(3.48009 2.59383 -1.34794e-19)
(3.50981 2.78601 1.38651e-19)
(3.67864 2.26251 -1.67807e-18)
(3.70485 2.48735 4.00664e-19)
(3.78137 2.42867 0)
(3.78144 2.18463 -5.79276e-19)
(4.05053 1.07141 5.80139e-19)
(4.275 0.990466 1.00153e-18)
(4.30001 0.964167 1.01098e-18)
(4.05653 1.32664 -1.14885e-18)
(4.10152 1.34579 0)
(4.15071 1.22987 0)
(3.3333 1.23515 -1.54991e-20)
(2.42249 0.666948 0)
(2.7266 0.74415 9.30288e-19)
(3.24287 0.885157 -2.63668e-20)
(3.77676 1.53269 5.1038e-18)
(3.57495 1.76017 1.31019e-18)
(3.48661 1.53956 -1.33997e-18)
(3.04448 1.37003 1.43671e-18)
(2.76845 1.37066 8.23579e-19)
(2.31402 1.15773 -7.97623e-19)
(3.67214 -0.0856268 1.98363e-18)
(3.89469 -0.0290215 0)
(3.85893 -0.0666329 1.3414e-18)
(3.74288 -0.0594888 -2.98625e-18)
(3.98056 0.0372564 1.46122e-18)
(3.90447 0.113311 -3.08137e-18)
(3.73991 0.127912 0)
(3.55632 0.173399 -6.28225e-19)
(3.81199 0.122908 1.60447e-18)
(3.69198 0.191319 -8.22146e-19)
(3.60034 0.171016 5.90413e-19)
(-0.0833766 2.59299 0)
(-0.0523907 3.39593 0)
(-0.0345527 2.4605 0)
(-0.0232702 1.97164 0)
(0.039672 3.9298 6.70564e-19)
(0.134601 3.70941 -1.73155e-19)
(0.31025 4.63494 -2.29518e-19)
(0.245414 4.44617 2.42267e-19)
(-0.0334396 4.28624 -4.97383e-19)
(0.00365241 4.31793 3.73509e-19)
(0.0888938 3.85869 2.23824e-20)
(0.00416735 3.54733 -4.67065e-19)
(-0.0171981 3.30306 -6.22752e-20)
(-0.0457088 3.66517 -5.6727e-20)
(0.146981 4.48361 -5.86388e-19)
(0.173298 4.301 0)
(0.269392 4.64006 2.9617e-19)
(0.261304 4.70795 2.52922e-19)
(0.592281 4.45195 -2.25828e-19)
(0.408518 3.80371 0)
(0.45789 3.65006 -1.11581e-18)
(0.561955 4.01898 7.90612e-19)
(0.476186 4.56764 -6.14523e-19)
(0.365901 4.44382 3.30608e-19)
(0.297026 4.17411 0)
(-0.0447358 4.76025 -5.5273e-19)
(-0.0831977 4.52882 -6.41076e-19)
(-0.0854897 4.7386 0)
(-0.0364321 4.36545 -6.23248e-21)
(-0.0274199 4.6447 2.74017e-19)
(-0.126209 3.88477 4.47691e-20)
(-0.0611315 3.49546 -6.54777e-19)
(-0.103523 3.93201 1.74689e-19)
(-0.146665 4.51662 2.32446e-19)
(-0.085605 4.32619 0)
(-0.0684498 3.89599 0)
(-0.0859623 2.92075 2.01632e-19)
(-0.0537932 3.6498 -6.29115e-20)
(-0.079193 3.63486 0)
(-0.0909225 2.70562 1.58786e-19)
(-0.0481287 2.21226 -3.07634e-19)
(3.76085 0.0321377 0)
(3.7317 0.00753256 -2.03169e-19)
(4.17944 0.0675997 -1.43917e-18)
(4.08892 0.0459538 0)
(3.87602 0.0174928 0)
(4.14971 0.0367928 -1.25095e-20)
(4.10028 0.0347209 2.37768e-18)
(4.0002 0.07994 2.84412e-18)
(3.75607 0.118445 0)
(3.5583 0.10985 0)
(4.01349 0.0935922 1.4167e-18)
(3.70357 0.115851 0)
(3.4725 0.128661 0)
(-0.0914915 4.69025 0)
(-0.116059 4.66042 1.0718e-20)
(-0.0878496 4.71042 6.30658e-20)
(-0.0683085 3.84836 0)
(-0.121539 4.53755 1.11207e-19)
(-0.0772594 4.25445 -6.35178e-20)
(-0.0623587 3.95085 0)
(1.41531 4.19776 0)
(1.20591 4.57435 -1.29681e-18)
(1.22306 4.48908 0)
(1.57135 4.47848 1.48386e-18)
(1.58655 4.10016 0)
(1.49541 4.35691 -6.06408e-19)
(1.02034 2.2596 -3.40129e-20)
(0.716032 1.65907 -1.74825e-18)
(0.596075 1.23751 2.13286e-18)
(0.715298 1.85123 3.97678e-19)
(0.983504 2.44409 0)
(1.04571 2.39842 0)
(0.724812 1.70193 0)
(0.537198 1.34205 -1.39833e-18)
(1.21672 3.79264 -9.84215e-19)
(1.13719 3.0105 -2.35789e-19)
(1.33599 3.42441 1.92838e-19)
(0.604068 2.05891 0)
(0.625716 1.95974 0)
(0.466396 1.58554 -3.93658e-19)
(0.965095 2.7416 0)
(2.69186 3.56926 0)
(2.39288 3.01525 -1.45454e-18)
(2.55635 3.03124 -8.5852e-20)
(2.42981 3.40957 0)
(2.29832 3.15817 2.22114e-18)
(3.28143 3.08203 -3.89489e-19)
(3.1322 3.31551 0)
(3.11471 3.14149 6.30073e-19)
(2.87318 3.40929 0)
(2.8879 3.20009 0)
(1.21901 2.02023 -9.31648e-19)
(1.42519 2.41846 -7.00157e-19)
(1.76593 2.99686 1.20667e-18)
(1.70825 2.9761 -3.62609e-19)
(1.07104 1.83529 0)
(1.21628 2.22386 4.7162e-19)
(0.724135 1.29803 -7.16365e-19)
(0.586192 1.05129 -6.18016e-22)
(1.94762 3.70797 0)
(2.20782 3.74878 -5.42453e-19)
(2.34365 3.98466 0)
(2.28738 0.529002 0)
(1.6198 0.34217 0)
(1.21106 0.276894 0)
(2.21283 0.554452 -1.46467e-18)
(1.63828 0.402615 8.16991e-19)
(2.14735 0.129035 -9.84617e-19)
(2.62875 0.297341 0)
(2.46786 0.301533 4.13275e-19)
(1.77161 0.135695 1.63215e-18)
(1.53164 0.0812695 -1.03649e-18)
(0.750155 1.56272 8.58826e-19)
(0.966434 1.82867 0)
(0.540897 1.44571 1.56249e-18)
(0.527908 1.61957 -1.42665e-18)
(0.763118 1.82035 -9.89514e-19)
(2.08638 2.47085 1.33845e-18)
(2.11022 2.72142 0)
(1.59442 1.68559 -2.76538e-19)
(2.02171 1.99668 1.74552e-18)
(1.36863 1.29865 -4.23813e-19)
(1.59785 1.31907 4.51005e-19)
(2.11958 1.51748 1.02347e-18)
(2.45308 1.67446 0)
(2.28723 1.86131 0)
(2.02038 1.61148 0)
(3.95681 2.07421 3.8432e-19)
(3.7636 1.88684 -1.26264e-18)
(3.8208 2.02418 1.04572e-18)
(3.90357 1.76774 -1.00758e-18)
(4.15689 1.66949 0)
(4.11522 1.83577 -2.97643e-19)
(2.84737 1.16383 -1.89666e-18)
(2.97707 1.1635 -2.41185e-18)
(2.33861 1.04475 1.45596e-18)
(2.14421 0.935721 -1.41963e-18)
(2.46902 0.846722 -1.17778e-18)
(2.18391 0.777983 1.4484e-18)
(4.00844 0.0333434 -1.52809e-18)
(4.05275 0.0405283 3.12855e-18)
(3.7679 -0.0659986 1.89992e-18)
(3.7911 -0.073897 -2.28559e-18)
(3.95945 0.0103698 0)
(4.05598 0.022667 -3.72781e-18)
(0.0874093 4.75838 1.06616e-19)
(0.0583551 4.72628 0)
(0.181691 4.72929 9.5225e-19)
(0.203124 4.7456 -8.6632e-19)
(0.222869 4.70961 4.28e-19)
(0.113811 4.64932 0)
(-0.112632 4.76615 0)
(-0.117616 4.40547 -6.19827e-20)
(-0.11648 4.33939 5.55605e-20)
(-0.125204 4.48424 7.37137e-21)
(-0.116079 4.71381 -1.01278e-19)
(-0.0933139 4.70206 5.50243e-20)
(1.88233 4.01552 -1.64264e-18)
(1.82194 4.024 1.73994e-18)
(1.6824 4.40022 -8.53679e-19)
(1.69779 4.28306 7.61322e-20)
(2.25258 4.07168 0)
(1.84963 4.20299 -6.36162e-19)
(1.97687 3.94125 6.16985e-19)
(1.82016 4.36831 8.3388e-19)
(2.07458 4.21364 0)
(2.22753 4.0935 0)
(1.14596 3.65036 1.49618e-18)
(0.833526 2.83354 2.02688e-18)
(0.961545 3.01178 -1.39197e-18)
(0.753059 2.9949 -2.32366e-19)
(0.908397 3.75315 4.66902e-19)
(0.727694 3.38755 -1.1356e-18)
(0.752423 1.47726 -1.21711e-18)
(0.752173 1.32699 0)
(0.607462 1.12307 -1.33769e-18)
(1.11988 2.07911 0)
(1.09721 2.16638 0)
(1.36913 2.1992 -1.09158e-18)
(1.0721 2.02277 -1.03697e-18)
(1.02442 2.04277 1.09976e-18)
(1.03998 1.52496 0)
(1.42106 1.76925 -6.01702e-19)
(1.63896 2.12792 -8.55751e-19)
(1.42167 2.09061 0)
(0.874985 1.82394 7.13259e-19)
(0.786621 1.68399 0)
(2.91677 2.29128 -1.8459e-18)
(3.32543 2.46934 2.60722e-18)
(3.2854 2.19223 -2.59143e-18)
(2.62122 2.02461 -2.31106e-19)
(2.73514 1.94273 -9.73791e-19)
(1.27124 2.19959 7.96918e-19)
(1.32587 2.25569 -1.36108e-18)
(1.46518 2.33936 1.79409e-18)
(1.80284 2.56975 -1.16604e-18)
(1.90194 2.94501 -1.56785e-18)
(1.57474 2.50057 -1.18837e-19)
(1.64507 2.64158 1.37238e-18)
(1.823 2.70462 9.66887e-20)
(2.03092 3.00995 6.5044e-19)
)
;

boundaryField
{
    wall-4
    {
        type            noSlip;
    }
    velocity-inlet-5
    {
        type            fixedValue;
        value           uniform (3 0 0);
    }
    velocity-inlet-6
    {
        type            fixedValue;
        value           uniform (0 1 0);
    }
    pressure-outlet-7
    {
        type            zeroGradient;
    }
    wall-8
    {
        type            noSlip;
    }
    frontAndBackPlanes
    {
        type            empty;
    }
}


// ************************************************************************* //
