# vtk DataFile Version 2.0
track0
ASCII
DATASET POLYDATA
POINTS 12075 float
-0.0205 0.001 1e-05
-0.02052 0.000999985 1e-05
-0.02054 0.000999974 1e-05
-0.02056 0.000999965 1e-05
-0.02058 0.000999959 1e-05
-0.0206 0.000999956 1e-05
-0.0205 0.00367778 1e-05
-0.02052 0.00367778 1e-05
-0.02054 0.00367777 1e-05
-0.02056 0.00367777 1e-05
-0.02058 0.00367777 1e-05
-0.0206 0.00367777 1e-05
-0.0205 0.00635556 1e-05
-0.02052 0.00635555 1e-05
-0.02054 0.00635555 1e-05
-0.02056 0.00635555 1e-05
-0.02058 0.00635555 1e-05
-0.0206 0.00635555 1e-05
-0.0205 0.00903333 1e-05
-0.02052 0.00903333 1e-05
-0.02054 0.00903333 1e-05
-0.02056 0.00903333 1e-05
-0.02058 0.00903333 1e-05
-0.0206 0.00903333 1e-05
-0.0205 0.0117111 1e-05
-0.02052 0.0117111 1e-05
-0.02054 0.0117111 1e-05
-0.02056 0.0117111 1e-05
-0.02058 0.0117111 1e-05
-0.0206 0.0117111 1e-05
-0.0205 0.0143889 1e-05
-0.02052 0.0143889 1e-05
-0.02054 0.0143889 1e-05
-0.02056 0.0143889 1e-05
-0.02058 0.0143889 1e-05
-0.0206 0.0143889 1e-05
-0.0205 0.0170667 1e-05
-0.02052 0.0170667 1e-05
-0.02054 0.0170667 1e-05
-0.02056 0.0170667 1e-05
-0.02058 0.0170667 1e-05
-0.0206 0.0170667 1e-05
-0.0205 0.0197444 1e-05
-0.02052 0.0197444 1e-05
-0.02054 0.0197444 1e-05
-0.02056 0.0197444 1e-05
-0.02058 0.0197444 1e-05
-0.0206 0.0197444 1e-05
-0.0205 0.0224222 1e-05
-0.02052 0.0224222 1e-05
-0.02054 0.0224222 1e-05
-0.02056 0.0224222 1e-05
-0.02058 0.0224222 1e-05
-0.0206 0.0224222 1e-05
-0.0205 0.0251 1e-05
-0.02052 0.0250998 1e-05
-0.02054 0.0250997 1e-05
-0.02056 0.0250995 1e-05
-0.02058 0.0250995 1e-05
-0.0206 0.0250994 1e-05
-0.0205 0.001 1e-05
-0.0202034 0.00100022 1e-05
-0.0199069 0.00100067 1e-05
-0.0196103 0.00100133 1e-05
-0.0193137 0.00100219 1e-05
-0.0190172 0.00100327 1e-05
-0.0187132 0.00100467 1e-05
-0.0184093 0.00100589 1e-05
-0.0181054 0.00100711 1e-05
-0.0178015 0.00100833 1e-05
-0.0174976 0.00100955 1e-05
-0.0172058 0.00101084 1e-05
-0.016914 0.00101195 1e-05
-0.0166222 0.00101305 1e-05
-0.0163305 0.00101415 1e-05
-0.0160387 0.00101525 1e-05
-0.0157586 0.00101639 1e-05
-0.0154784 0.00101747 1e-05
-0.0151983 0.00101859 1e-05
-0.0149182 0.00101974 1e-05
-0.0146381 0.00102094 1e-05
-0.0143768 0.00102211 1e-05
-0.0141155 0.00102329 1e-05
-0.0138542 0.0010245 1e-05
-0.0135929 0.00102574 1e-05
-0.0133723 0.00102682 1e-05
-0.0133565 0.0010269 1e-05
-0.0133408 0.00102697 1e-05
-0.013325 0.00102705 1e-05
-0.0133092 0.00102713 1e-05
-0.0132934 0.00102721 1e-05
-0.0130353 0.0010285 1e-05
-0.0127771 0.00102981 1e-05
-0.0125189 0.00103114 1e-05
-0.0122607 0.00103248 1e-05
-0.0120025 0.00103383 1e-05
-0.0117547 0.00103515 1e-05
-0.0115068 0.00103647 1e-05
-0.0112589 0.0010378 1e-05
-0.0110111 0.00103913 1e-05
-0.0107632 0.00104047 1e-05
-0.0105252 0.00104175 1e-05
-0.0102873 0.00104304 1e-05
-0.0100493 0.00104433 1e-05
-0.00981133 0.00104562 1e-05
-0.00957337 0.00104691 1e-05
-0.00934491 0.00104814 1e-05
-0.00911645 0.00104937 1e-05
-0.00888799 0.00105061 1e-05
-0.00865954 0.00105184 1e-05
-0.00843108 0.00105307 1e-05
-0.00821175 0.00105424 1e-05
-0.00799242 0.00105541 1e-05
-0.00777309 0.00105658 1e-05
-0.00755376 0.00105775 1e-05
-0.00733443 0.00105891 1e-05
-0.00712387 0.00106002 1e-05
-0.0069133 0.00106113 1e-05
-0.00670273 0.00106224 1e-05
-0.00649216 0.00106335 1e-05
-0.0062816 0.00106445 1e-05
-0.00607944 0.0010655 1e-05
-0.00587729 0.00106656 1e-05
-0.00567514 0.00106761 1e-05
-0.00547298 0.00106866 1e-05
-0.00527083 0.00106971 1e-05
-0.00507675 0.00107071 1e-05
-0.00488267 0.00107171 1e-05
-0.0046886 0.00107271 1e-05
-0.00449452 0.00107371 1e-05
-0.00430044 0.00107471 1e-05
-0.00411412 0.00107567 1e-05
-0.0039278 0.00107663 1e-05
-0.00374147 0.0010776 1e-05
-0.00355515 0.00107856 1e-05
-0.00336883 0.00107953 1e-05
-0.00318995 0.00108045 1e-05
-0.00301107 0.00108139 1e-05
-0.00283219 0.00108233 1e-05
-0.00265331 0.00108327 1e-05
-0.00247443 0.00108422 1e-05
-0.0023027 0.00108514 1e-05
-0.00213097 0.00108607 1e-05
-0.00195924 0.00108702 1e-05
-0.00178751 0.00108797 1e-05
-0.00161577 0.00108894 1e-05
-0.0014509 0.00108987 1e-05
-0.00128603 0.00109083 1e-05
-0.00112116 0.00109181 1e-05
-0.00095629 0.00109281 1e-05
-0.000791418 0.00109385 1e-05
-0.000633135 0.00109486 1e-05
-0.000474851 0.00109591 1e-05
-0.000316568 0.00109699 1e-05
-0.000158285 0.00109811 1e-05
0 0.00109925 1e-05
0.000105677 0.00110003 1e-05
0.000211355 0.00110083 1e-05
0.000317032 0.00110163 1e-05
0.000422709 0.00110244 1e-05
0.000528387 0.00110326 1e-05
0.000634886 0.00110408 1e-05
0.000741385 0.0011049 1e-05
0.000847885 0.00110571 1e-05
0.000954384 0.00110651 1e-05
0.00106088 0.0011073 1e-05
0.00116821 0.00110808 1e-05
0.00127554 0.00110886 1e-05
0.00138286 0.00110962 1e-05
0.00149019 0.00111036 1e-05
0.00159752 0.00111108 1e-05
0.00170568 0.00111179 1e-05
0.00181384 0.00111249 1e-05
0.001922 0.00111318 1e-05
0.00203016 0.00111384 1e-05
0.00213833 0.00111449 1e-05
0.00224733 0.00111512 1e-05
0.00235633 0.00111574 1e-05
0.00246533 0.00111635 1e-05
0.00257434 0.00111694 1e-05
0.00268334 0.00111751 1e-05
0.00279319 0.00111807 1e-05
0.00290304 0.00111862 1e-05
0.00301289 0.00111916 1e-05
0.00312274 0.00111967 1e-05
0.00323259 0.00112018 1e-05
0.00334329 0.00112066 1e-05
0.003454 0.00112114 1e-05
0.0035647 0.00112161 1e-05
0.0036754 0.00112206 1e-05
0.00378611 0.00112249 1e-05
0.00389767 0.00112291 1e-05
0.00400924 0.00112332 1e-05
0.0041208 0.00112372 1e-05
0.00423237 0.0011241 1e-05
0.00434393 0.00112447 1e-05
0.00445636 0.00112482 1e-05
0.00456879 0.00112516 1e-05
0.00468123 0.00112549 1e-05
0.00479366 0.00112581 1e-05
0.00490609 0.00112611 1e-05
0.0050194 0.00112639 1e-05
0.0051327 0.00112667 1e-05
0.00524601 0.00112694 1e-05
0.00535932 0.00112719 1e-05
0.00547262 0.00112742 1e-05
0.00558681 0.00112764 1e-05
0.005701 0.00112786 1e-05
0.00581518 0.00112806 1e-05
0.00592937 0.00112825 1e-05
0.00604356 0.00112842 1e-05
0.00615863 0.00112858 1e-05
0.00627371 0.00112874 1e-05
0.00638878 0.00112888 1e-05
0.00650386 0.00112901 1e-05
0.00661893 0.00112912 1e-05
0.0067349 0.00112922 1e-05
0.00685087 0.00112932 1e-05
0.00696684 0.0011294 1e-05
0.00708281 0.00112948 1e-05
0.00719878 0.00112954 1e-05
0.00731565 0.00112958 1e-05
0.00743252 0.00112962 1e-05
0.00754939 0.00112965 1e-05
0.00766626 0.00112967 1e-05
0.00778313 0.00112967 1e-05
0.00790091 0.00112966 1e-05
0.00801869 0.00112964 1e-05
0.00813647 0.00112962 1e-05
0.00825425 0.00112958 1e-05
0.00837203 0.00112953 1e-05
0.00848563 0.00112947 1e-05
0.00859922 0.0011294 1e-05
0.00871282 0.00112933 1e-05
0.00882641 0.00112924 1e-05
0.00893294 0.00112915 1e-05
0.00893945 0.00112914 1e-05
0.00894597 0.00112914 1e-05
0.00895248 0.00112913 1e-05
0.008959 0.00112912 1e-05
0.00896551 0.00112912 1e-05
0.00908513 0.001129 1e-05
0.00920475 0.00112888 1e-05
0.00932437 0.00112874 1e-05
0.00944398 0.0011286 1e-05
0.0095636 0.00112844 1e-05
0.00968415 0.00112827 1e-05
0.0098047 0.00112809 1e-05
0.00992525 0.0011279 1e-05
0.0100458 0.0011277 1e-05
0.0101663 0.00112749 1e-05
0.0102878 0.00112726 1e-05
0.0104093 0.00112702 1e-05
0.0105308 0.00112678 1e-05
0.0106523 0.00112652 1e-05
0.0107738 0.00112626 1e-05
0.0108962 0.00112597 1e-05
0.0110186 0.00112568 1e-05
0.0111411 0.00112538 1e-05
0.0112635 0.00112507 1e-05
0.0113859 0.00112475 1e-05
0.0115093 0.0011244 1e-05
0.0116327 0.00112406 1e-05
0.0117561 0.0011237 1e-05
0.0118795 0.00112333 1e-05
0.0120028 0.00112295 1e-05
0.0121272 0.00112256 1e-05
0.0122515 0.00112215 1e-05
0.0123759 0.00112174 1e-05
0.0125002 0.00112131 1e-05
0.0126245 0.00112087 1e-05
0.0127498 0.00112042 1e-05
0.0128752 0.00111996 1e-05
0.0130005 0.00111948 1e-05
0.0131258 0.001119 1e-05
0.0132511 0.0011185 1e-05
0.0133774 0.00111799 1e-05
0.0135036 0.00111747 1e-05
0.0136299 0.00111694 1e-05
0.0137562 0.00111639 1e-05
0.0138825 0.00111584 1e-05
0.0140098 0.00111527 1e-05
0.014137 0.00111469 1e-05
0.0142643 0.00111409 1e-05
0.0143915 0.00111349 1e-05
0.0145188 0.00111287 1e-05
0.0146471 0.00111224 1e-05
0.0147753 0.0011116 1e-05
0.0149036 0.00111094 1e-05
0.0150318 0.00111027 1e-05
0.0151601 0.00110959 1e-05
0.0152893 0.0011089 1e-05
0.0154186 0.0011082 1e-05
0.0155478 0.00110747 1e-05
0.0156771 0.00110674 1e-05
0.0158063 0.00110599 1e-05
0.0159366 0.00110524 1e-05
0.0160668 0.00110447 1e-05
0.0161971 0.00110368 1e-05
0.0163273 0.00110288 1e-05
0.0164576 0.00110207 1e-05
0.0165889 0.00110125 1e-05
0.0167201 0.00110041 1e-05
0.0168514 0.00109955 1e-05
0.0169827 0.00109868 1e-05
0.0171139 0.0010978 1e-05
0.0172462 0.00109692 1e-05
0.0173785 0.00109601 1e-05
0.0175108 0.00109508 1e-05
0.0176431 0.00109414 1e-05
0.0177754 0.00109319 1e-05
0.0179087 0.00109224 1e-05
0.018042 0.00109126 1e-05
0.0181753 0.00109025 1e-05
0.0183087 0.00108923 1e-05
0.018442 0.00108821 1e-05
0.0185763 0.00108719 1e-05
0.0187107 0.00108613 1e-05
0.018845 0.00108505 1e-05
0.0189794 0.00108395 1e-05
0.0191137 0.00108285 1e-05
0.0192491 0.00108175 1e-05
0.0193845 0.00108062 1e-05
0.0195199 0.00107945 1e-05
0.0196553 0.00107826 1e-05
0.0197907 0.00107708 1e-05
0.0199272 0.00107591 1e-05
0.0200636 0.00107469 1e-05
0.0202001 0.00107344 1e-05
0.0203365 0.00107217 1e-05
0.020473 0.00107091 1e-05
0.0206105 0.00106965 1e-05
0.020748 0.00106835 1e-05
0.0208855 0.00106701 1e-05
0.021023 0.00106566 1e-05
0.0211606 0.00106431 1e-05
0.0212991 0.00106297 1e-05
0.0214377 0.00106158 1e-05
0.0215763 0.00106015 1e-05
0.0217149 0.00105871 1e-05
0.0218535 0.00105727 1e-05
0.0219931 0.00105583 1e-05
0.0221328 0.00105435 1e-05
0.0222724 0.00105283 1e-05
0.0224121 0.0010513 1e-05
0.0225517 0.00104976 1e-05
0.0226925 0.00104823 1e-05
0.0228332 0.00104665 1e-05
0.022974 0.00104503 1e-05
0.0231147 0.0010434 1e-05
0.0232555 0.00104177 1e-05
0.0233973 0.00104013 1e-05
0.0235391 0.00103846 1e-05
0.023681 0.00103674 1e-05
0.0238228 0.001035 1e-05
0.0239647 0.00103327 1e-05
0.0241076 0.00103153 1e-05
0.0242505 0.00102975 1e-05
0.0243935 0.00102792 1e-05
0.0245364 0.00102608 1e-05
0.0246794 0.00102424 1e-05
0.0248234 0.00102239 1e-05
0.0249675 0.0010205 1e-05
0.0251115 0.00101857 1e-05
0.0252556 0.00101662 1e-05
[...]
POINT_DATA 12075
 FIELD attributes 3
age 1 12075 float
0 -2e-05 -4e-05 -6e-05 -8e-05 -0.0001
0 -2e-05 -4e-05 -6e-05 -8e-05 -0.0001
0 -2e-05 -4e-05 -6e-05 -8e-05 -0.0001
0 -2e-05 -4e-05 -6e-05 -8e-05 -0.0001
0 -2e-05 -4e-05 -6e-05 -8e-05 -0.0001
0 -2e-05 -4e-05 -6e-05 -8e-05 -0.0001
0 -2e-05 -4e-05 -6e-05 -8e-05 -0.0001
0 -2e-05 -4e-05 -6e-05 -8e-05 -0.0001
0 -2e-05 -4e-05 -6e-05 -8e-05 -0.0001
0 -2.00009e-05 -4.00018e-05 -6.00027e-05 -8.00036e-05 -0.000100002
0 0.000296567 0.000593135 0.000889702 0.00118627 0.00148284 0.00178676 0.00209069 0.00239461 0.00269853 0.00300245 0.00329423 0.00358601 0.00387779 0.00416957 0.00446135 0.00474147 0.00502159 0.00530171 0.00558183 0.00586196 0.00612326 0.00638456 0.00664586 0.00690716 0.00712773 0.00714351 0.00715928 0.00717506 0.00719083 0.00720661 0.0074648 0.00772298 0.00798117 0.00823935 0.00849754 0.00874541 0.00899328 0.00924116 0.00948903 0.0097369 0.00997487 0.0102128 0.0104508 0.0106888 0.0109267 0.0111552 0.0113837 0.0116121 0.0118406 0.012069 0.0122884 0.0125077 0.012727 0.0129464 0.0131657 0.0133763 0.0135868 0.0137974 0.014008 0.0142186 0.0144207 0.0146229 0.014825 0.0150272 0.0152293 0.0154234 0.0156175 0.0158116 0.0160057 0.0161997 0.0163861 0.0165724 0.0167587 0.016945 0.0171314 0.0173102 0.0174891 0.017668 0.0178469 0.0180258 0.0181975 0.0183692 0.018541 0.0187127 0.0188844 0.0190493 0.0192142 0.0193791 0.0195439 0.0197088 0.0198671 0.0200254 0.0201837 0.020342 0.0205003 0.0206059 0.0207116 0.0208173 0.020923 0.0210287 0.0211352 0.0212417 0.0213482 0.0214547 0.0215612 0.0216685 0.0217758 0.0218832 0.0219905 0.0220978 0.022206 0.0223141 0.0224223 0.0225305 0.0226386 0.0227476 0.0228566 0.0229656 0.0230746 0.0231837 0.0232935 0.0234034 0.0235132 0.0236231 0.0237329 0.0238436 0.0239543 0.024065 0.0241757 0.0242864 0.024398 0.0245096 0.0246211 0.0247327 0.0248443 0.0249567 0.0250691 0.0251816 0.025294 0.0254064 0.0255197 0.025633 0.0257463 0.0258596 0.025973 0.0260871 0.0262013 0.0263155 0.0264297 0.0265439 0.026659 0.026774 0.0268891 0.0270042 0.0271193 0.0272352 0.0273512 0.0274672 0.0275831 0.0276991 0.027816 0.0279329 0.0280497 0.0281666 0.0282835 0.0284012 0.028519 0.0286368 0.0287546 0.0288724 0.028986 0.0290996 0.0292132 0.0293267 0.0294333 0.0294398 0.0294463 0.0294528 0.0294593 0.0294658 0.0295855 0.0297051 0.0298247 0.0299443 0.0300639 0.0301845 0.030305 0.0304256 0.0305461 0.0306667 0.0307882 0.0309097 0.0310311 0.0311526 0.0312741 0.0313965 0.031519 0.0316414 0.0317638 0.0318863 0.0320096 0.032133 0.0322564 0.0323798 0.0325032 0.0326275 0.0327519 0.0328762 0.0330005 0.0331249 0.0332502 0.0333755 0.0335008 0.0336261 0.0337514 0.0338777 0.034004 0.0341303 0.0342566 0.0343828 0.0345101 0.0346374 0.0347646 0.0348919 0.0350192 0.0351474 0.0352757 0.0354039 0.0355322 0.0356604 0.0357897 0.035919 0.0360482 0.0361775 0.0363067 0.036437 0.0365672 0.0366975 0.0368277 0.036958 0.0370893 0.0372205 0.0373518 0.0374831 0.0376144 0.0377466 0.0378789 0.0380112 0.0381435 0.0382758 0.0384091 0.0385425 0.0386758 0.0388091 0.0389424 0.0390768 0.0392111 0.0393455 0.0394798 0.0396142 0.0397496 0.039885 0.0400204 0.0401558 0.0402912 0.0404277 0.0405641 0.0407006 0.040837 0.0409735 0.041111 0.0412485 0.0413861 0.0415236 0.0416611 0.0417997 0.0419383 0.0420769 0.0422154 0.042354 0.0424937 0.0426334 0.042773 0.0429127 0.0430524 0.0431931 0.0433339 0.0434746 0.0436154 0.0437561 0.043898 0.0440398 0.0441817 0.0443235 0.0444654 0.0446083 0.0447513 0.0448942 0.0450372 0.0451801 0.0453242 0.0454683 0.0456123 0.0457564 0.0459005 0.0460457 0.0461908 0.046336 0.0464812 0.0466264 0.0467727 0.046919 0.0470654 0.0472117 0.047358 0.0475054 0.0476529 0.0478004 0.0479478 0.0480953 0.0482439 0.0483925 0.0485411 0.0486897 0.0488383 0.0489881 0.0491378 0.0492876 0.0494373 0.0495871 0.049738 0.049889 0.0500399 0.0501908 0.0503417 0.0504938 0.0506459 0.050798 0.0509501 0.0511023 0.0512555 0.0514088 0.0515621 0.0517154 0.0518687 0.0519525 0.0520363 0.0521201 0.0522039 0.0522848 0.0523561 0.0524273 0.0524986 0.0525698 0.0526411 0.0527968 0.0529525 0.0531082 0.0532639 0.0534196 0.0535764 0.0537333 0.0538902 0.0540471 0.0542041 0.0543622 0.0545203 0.0546784 0.0548365 0.0549947 0.055154 0.0553134 0.0554727 0.0556321 0.0557914 0.055952 0.0561126 0.0562732 0.0564338 0.0565944 0.0567563 0.0569181 0.05708 0.0572418 0.0574037 0.0575668 0.0577299 0.057893 0.0580561 0.0582192 0.0583836 0.058548 0.0587124 0.0588768 0.0590412 0.0592068 0.0593725 0.0595381 0.0597038 0.0598695 0.0600364 0.0602034 0.0603704 0.0605373 0.0607043 0.0608725 0.0610408 0.061209 0.0613773 0.0615456 0.0617151 0.0618847 0.0620543 0.0622238 0.0623934 0.0625643 0.0627352 0.0629061 0.063077 0.0632479 0.0634201 0.0635923 0.0637646 0.0639368 0.064109 0.0642826 0.0644561 0.0646297 0.0648033 0.0649768 0.0651518 0.0653267 0.0655016 0.0656765 0.0658514 0.0660277 0.066204 0.0663803 0.0665566 0.0667329 0.0667801 0.0668274 0.0668746 0.0669219 0.0669689 0.0670993 0.0672298 0.0673602 0.0674907 0.0676211 0.0678002 0.0679792 0.0681582 0.0683373 0.0685163 0.0686967 0.0688772 0.0690576 0.069238 0.0694185 0.0696003 0.0697821 0.0699639 0.0701458 0.0703276 0.0705109 0.0706941 0.0708773 0.0710606 0.0712438 0.0714285 0.0716132 0.0717978 0.0719825 0.0721672 0.0723533 0.0725394 0.0727255 0.0729116 0.0730977 0.0732852 0.0734728 0.0736603 0.0738479 0.0740354 0.0742244 0.0744134 0.0746024 0.0747914 0.0749804 0.0751709 0.0753613 0.0755518 0.0757422 0.0759327 0.0761246 0.0763166 0.0765085 0.0767005 0.0768924 0.0770858 0.0772792 0.0774727 0.0776661 0.0778595 0.0780544 0.0782494 0.0784443 0.0786392 0.0788341 0.0790306 0.079227 0.0794234 0.0796198 0.0798163 0.0800142 0.0802122 0.0804101 0.0806081 0.080806 0.0810055 0.081205 0.0814045 0.081604 0.0818034 0.0820045 0.0822055 0.0824065 0.0826076 0.0828086 0.0830112 0.0832138 0.0834164 0.083619 0.0838215 0.0838859 0.0839503 0.0840146 0.084079 0.084145 0.0842845 0.0844239 0.0845634 0.0847029 0.0848423 0.0850481 0.0852538 0.0854596 0.0856653 0.085871 0.0860784 0.0862857 0.0864931 0.0867004 0.0869077 0.0871167 0.0873256 0.0875346 0.0877435 0.0879525 0.0881631 0.0883736 0.0885842 0.0887948 0.0890054 0.0892176 0.0894298 0.089642 0.0898542 0.0900664 0.0902803 0.0904942 0.090708 0.0909219 0.0911358 0.0913513 0.0915668 0.0917824 0.0919979 0.0922135 0.0924307 0.0926479 0.0928651 0.0930823 0.0932996 0.0935185 0.0937374 0.0939563 0.0941752 0.0943942 0.0946148 0.0948354 0.0950561 0.0952767 0.0954974 0.0957197 0.0959421 0.0961644 0.0963868 0.0966092 0.0968333 0.0970575 0.0972816 0.0975057 0.0977299 0.0979558 0.0981816 0.0984075 0.0986334 0.0988594 0.0990871 0.0993148 0.0995424 0.0997701 0.0999979 0.100227 0.100457 0.100686 0.100916 0.101146 0.101377 0.101608 0.10184 0.102071 0.102302 0.102536 0.102769 0.103002 0.103235 0.103439 0.103445 0.103451 0.103457 0.103463 0.103469 0.103704 0.103939 0.104174 0.104409 0.104645 0.104882 0.105119 0.105356 0.105593 0.10583 0.106069 0.106308 0.106547 0.106787 0.107026 0.107267 0.107508 0.107749 0.10799 0.108232 0.108475 0.108718 0.108961 0.109204 0.109448 0.109693 0.109938 0.110184 0.110429 0.110675 0.110724 0.110774 0.110824 0.110874 0.110921 0.11112 0.111318 0.111516 0.111714 0.111913 0.112162 0.112412 0.112662 0.112911 0.113162 0.113414 0.113666 0.113918 0.11417 0.114423 0.114677 0.114932 0.115186 0.11544 0.115696 0.115758 0.115819 0.115881 0.115943 0.116003 0.116198 0.116394 0.116589 0.116785 0.116981 0.117241 0.1175 0.117759 0.118019 0.118279 0.118542 0.118804 0.119066 0.119328 0.119591 0.11969 0.119789 0.119889 0.119988 0.120081 0.120248 0.120415 0.120582 0.120749 0.120917 0.121185 0.121452 0.12172 0.121988 0.122257 0.122528 0.122799 0.123069 0.12334 0.12361 0.123611 0.123611 0.123612 0.123612 0.123612 0.123886 0.12416 0.124434 0.124708 0.124983 0.12526 0.125537 0.125814 0.126091 0.126371 0.126456 0.126542 0.126628 0.126714 0.126797 0.126992 0.127187 0.127383 0.127578 0.127775 0.128059 0.128343 0.128627 0.12891 0.129197 0.12931 0.129423 0.129536 0.129648 0.129757 0.129933 0.130109 0.130284 0.13046 0.130637 0.130928 0.131219 0.13151 0.131802 0.132096 0.132191 0.132286 0.132382 0.132477 0.13257 0.13277 0.132971 0.133171 0.133372 0.133574 0.133873 0.134171 0.13447 0.134769 0.135071 0.135115 0.13516 0.135204 0.135248 0.135292 0.135551 0.135809 0.136068 0.136327 0.136588 0.136868 0.137147 0.137427 0.137706 0.13797 0.138 0.138031 0.138062 0.138093 0.138124 0.138435 0.138745 0.139056 0.139366 0.139679 0.139873 0.140067 0.140261 0.140454 0.140643 0.140765 0.140887 0.141008 0.14113 0.141253 0.14157 0.141888 0.142206 0.142523 0.142843 0.142945 0.143048 0.14315 0.143253 0.143355 0.143573 0.143792 0.144011 0.14423 0.144449 0.144748 0.145047 0.145346 0.145645 0.145941 0.145967 0.145992 0.146017 0.146043 0.146068 0.146394 0.146721 0.147047 0.147373 0.147699 0.147865 0.14803 0.148196 0.148361 0.148528 0.148691 0.148853 0.149015 0.149177 0.149339 0.149669 0.149999 0.150329 0.150659 0.150987 0.151023 0.151059 0.151094 0.15113 0.151167 0.151462 0.151757 0.152052 0.152347 0.152639 0.152892 0.153145 0.153397 0.15365 0.153917 0.153992 0.154068 0.154144 0.154219 0.154295 0.154627 0.15496 0.155292 0.155625 0.155953 0.156133 0.156313 0.156493 0.156673 0.156863 0.157013 0.157163 0.157313 0.157463 0.157612 0.157945 0.158278 0.158611 0.158944 0.159272 0.159442 0.159611 0.15978 0.15995 0.160131 0.160292 0.160452 0.160613 0.160774 0.160933 0.161267 0.1616 0.161934 0.162267 0.162597 0.162857 0.163116 0.163376 0.163636 0.163931 0.163997 0.164064 0.16413 0.164196 0.164263 0.164597 0.164932 0.165267 0.165601 0.165933 0.166268 0.166604 0.166939 0.167275 0.167608 0.167813 0.168018 0.168224 0.168429 0.16866 0.168786 0.168911 0.169037 0.169163 0.169289 0.169627 0.169965 0.170303 0.170641 0.170977 0.171317 0.171656 0.171996 0.172336 0.172674 0.173015 0.173357 0.173698 0.17404 0.17438 0.174538 0.174695 0.174853 0.175011 0.175184 0.175366 0.175549 0.175731 0.175914 0.176096 0.176441 0.176787 0.177132 0.177478 0.177822 0.17817 0.178518 0.178865 0.179213 0.17956 0.17991 0.18026 0.18061 0.18096 0.18131 0.181662 0.182015 0.182367 0.18272 0.183071 0.183426 0.183781 0.184136 0.184491 0.184846 0.185051 0.185256 0.185461 0.185666 0.185895 0.186043 0.18619 0.186338 0.186485 0.186633 0.186993 0.187353 0.187713 0.188073 0.188433 0.188796 0.189158 0.189521 0.189884 0.190246 0.190612 0.190977 0.191343 0.191708 0.192074 0.192442 0.19281 0.193178 0.193546 0.193914 0.194285 0.194656 0.195027 0.195398 0.195769 0.196143 0.196517 0.196891 0.197264 0.197638 0.198015 0.198391 0.198768 0.199145 0.199521 0.199901 0.20028 0.20066 0.201039 0.201419 0.201801 0.202184 0.202566 0.202949 0.203331 0.203716 0.204102 0.204487 0.204872 0.205258 0.205646 0.206035 0.206423 0.206811 0.2072 0.207591 0.207982 0.208374 0.208765 0.209156 0.209551 0.209945 0.210339 0.210734 0.211128 0.211369 0.211609 0.21185 0.21209 0.212362 0.212513 0.212663 0.212814 0.212965 0.213115 0.213516 0.213916 0.214317 0.214717 0.215118 0.215521 0.215925 0.216328 0.216732 0.217135 0.217542 0.217949 0.218356 0.218762 0.219169 0.219579 0.219989 0.220399 0.220808 0.221218 0.221631 0.222044 0.222457 0.22287 0.223283 0.2237 0.224116 0.224532 0.224948 0.225364 0.225784 0.226203 0.226623 0.227042 0.227462 0.227884 0.228307 0.22873 0.229153 0.229576 0.229985 0.230394 0.230804 0.231213 0.231623 0.232049 0.232475 0.2329 0.233326 0.233752 0.234194 0.234637 0.235079 0.235522 0.235964 0.236424 0.236884 0.237344 0.237803 0.238263 0.238741 0.239219 0.239697 0.240175 0.240653 0.241149 0.241646 0.242142 0.242639 0.243136 0.243652 0.244167 0.244683 0.245199 0.245716 0.246252 0.246788 0.247324 0.24786 0.248396 0.248953 0.24951 0.250068 0.250625 0.251182 0.251761 0.252339 0.252918 0.253497 0.254076 0.254678 0.255279 0.25588 0.256482 0.257083 0.257708 0.258333 0.258958 0.259583 0.260208 0.260857 0.261507 0.262156 0.262805 0.263455 0.263948 0.264442 0.264935 0.265429 0.265996 0.266162 0.266329 0.266495 0.266661 0.266828 0.267529 0.26823 0.268931 0.269631 0.270332 0.271061 0.271789 0.272517 0.273246 0.273974 0.274731 0.275487 0.276244 0.277001 0.277757 0.278544 0.27933 0.280116 0.280902 0.281688 0.282505 0.283322 0.284139 0.284956 0.285773 0.286621 0.28747 0.288319 0.289167 0.290016 0.290898 0.29178 0.292662 0.293543 0.294425 0.295341 0.296258 0.297174 0.29809 0.299006 0.299958 0.30091 0.301862 0.302813 0.303765 0.304754 0.305743 0.306732 0.307721 0.30871 0.309738 0.310765 0.311792 0.312819 0.313845