/*--------------------------------*- C++ -*----------------------------------*\
  =========                 |
  \\      /  F ield         | OpenFOAM: The Open Source CFD Toolbox
   \\    /   O peration     | Website:  https://openfoam.org
    \\  /    A nd           | Version:  9
     \\/     M anipulation  |
\*---------------------------------------------------------------------------*/
FoamFile
{
    format      ascii;
    class       volVectorField;
    location    "0.7";
    object      U;
}
// * * * * * * * * * * * * * * * * * * * * * * * * * * * * * * * * * * * * * //

dimensions      [0 1 -1 0 0 0 0];

internalField   nonuniform List<vector> 
400
(
(0.000229436 -0.000230429 0)
(7.68347e-05 0.000111024 0)
(-0.0011888 0.000497468 0)
(-0.00327046 0.000751162 0)
(-0.00582093 0.000879997 0)
(-0.00854908 0.000913702 0)
(-0.0112113 0.000870711 0)
(-0.0135891 0.000755582 0)
(-0.0154692 0.000565142 0)
(-0.0166417 0.000298408 0)
(-0.0169204 -3.38124e-05 0)
(-0.016182 -0.000402997 0)
(-0.0144139 -0.000758034 0)
(-0.0117566 -0.0010331 0)
(-0.00852261 -0.0011605 0)
(-0.00517354 -0.00109057 0)
(-0.00224534 -0.000813445 0)
(-0.000224999 -0.000376996 0)
(0.000598209 9.38023e-05 0)
(0.000345735 0.000328815 0)
(-0.000116235 -9.21298e-05 0)
(-0.00169866 0.00163315 0)
(-0.00563477 0.00334138 0)
(-0.0111966 0.00449502 0)
(-0.0176808 0.00507863 0)
(-0.0244694 0.00516774 0)
(-0.030989 0.0048211 0)
(-0.036703 0.00406402 0)
(-0.0411037 0.0029072 0)
(-0.0437257 0.0013816 0)
(-0.0441928 -0.000426905 0)
(-0.0422883 -0.00235506 0)
(-0.0380394 -0.00415866 0)
(-0.0317865 -0.00554018 0)
(-0.0242057 -0.00620653 0)
(-0.0162596 -0.00595306 0)
(-0.0090514 -0.00475463 0)
(-0.00358337 -0.00283538 0)
(-0.000486365 -0.000716329 0)
(0.000210671 0.000630794 0)
(-0.000592837 0.00126763 0)
(-0.00386255 0.00569892 0)
(-0.0105589 0.00960478 0)
(-0.0193528 0.0122148 0)
(-0.0292309 0.0134854 0)
(-0.0393666 0.0135339 0)
(-0.0489738 0.0124678 0)
(-0.0573076 0.0103528 0)
(-0.0636711 0.00724816 0)
(-0.0674394 0.00327182 0)
(-0.0681184 -0.00133422 0)
(-0.0654282 -0.00616286 0)
(-0.0594003 -0.0106435 0)
(-0.0504634 -0.0140982 0)
(-0.0394845 -0.0158648 0)
(-0.027729 -0.0154783 0)
(-0.0166941 -0.0128738 0)
(-0.0078052 -0.0085412 0)
(-0.00211266 -0.00358751 0)
(-8.35354e-05 0.000142367 0)
(-0.00103802 0.00382415 0)
(-0.00595501 0.0121714 0)
(-0.0153518 0.0188577 0)
(-0.027205 0.0231638 0)
(-0.0401795 0.0251276 0)
(-0.053292 0.0249503 0)
(-0.0656224 0.0228061 0)
(-0.0763014 0.0188149 0)
(-0.0845165 0.0131018 0)
(-0.0895335 0.00589532 0)
(-0.0907511 -0.00237781 0)
(-0.0877865 -0.0110316 0)
(-0.0805843 -0.0191134 0)
(-0.0695325 -0.0254847 0)
(-0.0555537 -0.0290033 0)
(-0.0401195 -0.028816 0)
(-0.0251074 -0.0247114 0)
(-0.0124574 -0.0174085 0)
(-0.00382837 -0.00865146 0)
(-0.000351991 -0.00121136 0)
(-0.00143364 0.00747894 0)
(-0.00787304 0.0208982 0)
(-0.0198005 0.0308729 0)
(-0.0345044 0.0370221 0)
(-0.0503399 0.0396239 0)
(-0.066206 0.0390412 0)
(-0.0811081 0.0355472 0)
(-0.0941169 0.0293262 0)
(-0.104357 0.0205659 0)
(-0.111006 0.00959113 0)
(-0.113335 -0.00300796 0)
(-0.110787 -0.0162832 0)
(-0.103097 -0.0288925 0)
(-0.090462 -0.0391747 0)
(-0.0737163 -0.0453711 0)
(-0.0544544 -0.0460355 0)
(-0.0349665 -0.0405888 0)
(-0.0178806 -0.029835 0)
(-0.00574087 -0.0161681 0)
(-0.000607973 -0.00345094 0)
(-0.00177727 0.0121203 0)
(-0.00956926 0.031695 0)
(-0.023772 0.0454497 0)
(-0.0410543 0.0535927 0)
(-0.0595012 0.056808 0)
(-0.077936 0.0557142 0)
(-0.0953431 0.0507255 0)
(-0.110789 0.0420948 0)
(-0.123376 0.030048 0)
(-0.132209 0.0149552 0)
(-0.136404 -0.00249859 0)
(-0.135148 -0.0211657 0)
(-0.127836 -0.0393488 0)
(-0.114306 -0.0548144 0)
(-0.0951201 -0.065016 0)
(-0.0718617 -0.0676121 0)
(-0.0472244 -0.0612854 0)
(-0.0247129 -0.0466365 0)
(-0.00813921 -0.0266855 0)
(-0.000914711 -0.00670819 0)
(-0.00206145 0.0176135 0)
(-0.0109914 0.0443014 0)
(-0.0271301 0.0622902 0)
(-0.0466294 0.0725925 0)
(-0.0673622 0.0764561 0)
(-0.0881218 0.0748528 0)
(-0.107924 0.0683829 0)
(-0.125885 0.0573669 0)
(-0.141128 0.0420251 0)
(-0.152709 0.0226904 0)
(-0.159573 3.09936e-05 0)
(-0.160602 -0.0247242 0)
(-0.154745 -0.0496042 0)
(-0.141304 -0.0717932 0)
(-0.120344 -0.0877865 0)
(-0.0931991 -0.0939703 0)
(-0.0628212 -0.0877367 0)
(-0.0337003 -0.0689526 0)
(-0.0113928 -0.0410981 0)
(-0.00135433 -0.0112982 0)
(-0.00227349 0.0237931 0)
(-0.0120754 0.0583819 0)
(-0.0297181 0.0809942 0)
(-0.0509551 0.0936235 0)
(-0.0735099 0.0982237 0)
(-0.0961912 0.0962172 0)
(-0.118097 0.0884364 0)
(-0.138443 0.075266 0)
(-0.156433 0.0568666 0)
(-0.171115 0.0334318 0)
(-0.181301 0.00546975 0)
(-0.185571 -0.0258793 0)
(-0.182386 -0.0585093 0)
(-0.170378 -0.0890953 0)
(-0.148871 -0.113077 0)
(-0.118586 -0.125186 0)
(-0.0823631 -0.120801 0)
(-0.0455499 -0.0981598 0)
(-0.0159211 -0.0606741 0)
(-0.00202872 -0.0177507 0)
(-0.00240041 0.030457 0)
(-0.0127596 0.0735234 0)
(-0.0313798 0.101049 0)
(-0.0537333 0.116139 0)
(-0.0774503 0.121579 0)
(-0.101393 0.119337 0)
(-0.124786 0.110528 0)
(-0.147001 0.0956018 0)
(-0.167381 0.0746086 0)
(-0.185053 0.0475016 0)
(-0.198792 0.0144766 0)
(-0.206969 -0.0236046 0)
(-0.20762 -0.0647115 0)
(-0.198691 -0.105212 0)
(-0.17855 -0.139556 0)
(-0.146864 -0.160573 0)
(-0.105714 -0.160839 0)
(-0.0607475 -0.135613 0)
(-0.0221828 -0.0870078 0)
(-0.00307503 -0.0268377 0)
(-0.00243909 0.0373732 0)
(-0.0130167 0.0892462 0)
(-0.0320155 0.121825 0)
(-0.0547175 0.13941 0)
(-0.0787018 0.145733 0)
(-0.102915 0.143402 0)
(-0.126744 0.133873 0)
(-0.14977 0.117675 0)
(-0.17155 0.0947212 0)
(-0.191402 0.0646514 0)
(-0.208225 0.0272264 0)
(-0.220372 -0.0171584 0)
(-0.225675 -0.0668202 0)
(-0.221528 -0.118164 0)
(-0.205273 -0.164969 0)
(-0.175108 -0.198228 0)
(-0.131495 -0.207097 0)
(-0.0792696 -0.182151 0)
(-0.0306502 -0.121858 0)
(-0.00469214 -0.0396116 0)
(-0.00241202 0.044313 0)
(-0.0129063 0.105048 0)
(-0.0316714 0.142598 0)
(-0.0538334 0.162513 0)
(-0.0769476 0.169592 0)
(-0.100076 0.167186 0)
(-0.122812 0.157156 0)
(-0.144991 0.140147 0)
(-0.166463 0.115945 0)
(-0.186867 0.0838616 0)
(-0.205424 0.0431711 0)
(-0.220744 -0.00634328 0)
(-0.230801 -0.0637097 0)
(-0.232764 -0.125737 0)
(-0.22312 -0.186166 0)
(-0.198402 -0.234716 0)
(-0.156598 -0.257033 0)
(-0.10014 -0.237331 0)
(-0.0417043 -0.166795 0)
(-0.00716746 -0.0574478 0)
(-0.00239223 0.05112 0)
(-0.012649 0.120499 0)
(-0.0306587 0.162608 0)
(-0.0513297 0.184356 0)
(-0.0722227 0.191769 0)
(-0.0925804 0.18905 0)
(-0.112259 0.178536 0)
(-0.131408 0.161036 0)
(-0.150237 0.136261 0)
(-0.168808 0.103243 0)
(-0.186861 0.0607871 0)
(-0.203638 0.00800395 0)
(-0.217563 -0.0549963 0)
(-0.226017 -0.125996 0)
(-0.225204 -0.199544 0)
(-0.210185 -0.265182 0)
(-0.175971 -0.305846 0)
(-0.1209 -0.298489 0)
(-0.0553696 -0.222529 0)
(-0.0108792 -0.0820527 0)
(-0.0025461 0.0578376 0)
(-0.0127345 0.135388 0)
(-0.0296956 0.181159 0)
(-0.0479271 0.203731 0)
(-0.0650734 0.210626 0)
(-0.0807083 0.207016 0)
(-0.0950677 0.195761 0)
(-0.108683 0.177882 0)
(-0.122181 0.153083 0)
(-0.136124 0.120215 0)
(-0.150882 0.0777185 0)
(-0.166461 0.024108 0)
(-0.182167 -0.0413817 0)
(-0.196205 -0.117984 0)
(-0.205142 -0.201922 0)
(-0.203321 -0.284091 0)
(-0.182996 -0.346611 0)
(-0.137268 -0.359941 0)
(-0.0708293 -0.28782 0)
(-0.0162201 -0.115325 0)
(-0.00321421 0.0649331 0)
(-0.0140865 0.14994 0)
(-0.0300563 0.197706 0)
(-0.0448976 0.219347 0)
(-0.056573 0.224325 0)
(-0.0653065 0.218877 0)
(-0.0719133 0.206367 0)
(-0.0774047 0.188022 0)
(-0.0828564 0.163589 0)
(-0.0893332 0.131858 0)
(-0.0978335 0.0910759 0)
(-0.109176 0.039346 0)
(-0.123729 -0.0249223 0)
(-0.140956 -0.102427 0)
(-0.158626 -0.191708 0)
(-0.171589 -0.286628 0)
(-0.1705 -0.37134 0)
(-0.143243 -0.412893 0)
(-0.0857508 -0.358129 0)
(-0.0233426 -0.15887 0)
(-0.005061 0.073698 0)
(-0.0183047 0.165051 0)
(-0.0336444 0.211848 0)
(-0.0438798 0.229747 0)
(-0.0479219 0.23079 0)
(-0.0472279 0.222248 0)
(-0.0434836 0.207821 0)
(-0.0382932 0.18884 0)
(-0.0331857 0.165064 0)
(-0.0296586 0.135303 0)
(-0.0292317 0.0977762 0)
(-0.0334205 0.0504151 0)
(-0.0435959 -0.00887881 0)
(-0.0606166 -0.0819783 0)
(-0.0840959 -0.169798 0)
(-0.110802 -0.270297 0)
(-0.131874 -0.372858 0)
(-0.131591 -0.446536 0)
(-0.0955743 -0.424727 0)
(-0.0315635 -0.213165 0)
(-0.00928809 0.0870068 0)
(-0.0278524 0.182446 0)
(-0.0425431 0.223035 0)
(-0.0457049 0.232965 0)
(-0.0387586 0.227465 0)
(-0.0253075 0.21445 0)
(-0.00821593 0.197536 0)
(0.0102498 0.177868 0)
(0.0281626 0.155125 0)
(0.043734 0.128125 0)
(0.0551072 0.0951694 0)
(0.0603034 0.0542576 0)
(0.057199 0.00318707 0)
(0.0437493 -0.0604989 0)
(0.0183735 -0.139447 0)
(-0.0186414 -0.235761 0)
(-0.0614843 -0.346578 0)
(-0.0941828 -0.449905 0)
(-0.0930414 -0.475082 0)
(-0.0382835 -0.277054 0)
(-0.0176485 0.110867 0)
(-0.045243 0.203917 0)
(-0.0559427 0.22893 0)
(-0.0455371 0.225051 0)
(-0.0214429 0.210238 0)
(0.00962167 0.191804 0)
(0.043601 0.172441 0)
(0.0777971 0.15263 0)
(0.11014 0.131752 0)
(0.138795 0.108571 0)
(0.161862 0.0815384 0)
(0.177204 0.0488997 0)
(0.182279 0.00870464 0)
(0.174313 -0.0414083 0)
(0.150216 -0.104672 0)
(0.107288 -0.186048 0)
(0.046272 -0.290971 0)
(-0.0216001 -0.41299 0)
(-0.0681367 -0.493173 0)
(-0.0374425 -0.346005 0)
(-0.0306309 0.156524 0)
(-0.0666449 0.22589 0)
(-0.0562673 0.218001 0)
(-0.0165178 0.194677 0)
(0.0345566 0.170362 0)
(0.0885139 0.148122 0)
(0.141592 0.128424 0)
(0.19166 0.110623 0)
(0.237229 0.0936005 0)
(0.276971 0.0760754 0)
(0.309372 0.0567295 0)
(0.332531 0.0342163 0)
(0.3439 0.00709141 0)
(0.340549 -0.0263344 0)
(0.318564 -0.0687208 0)
(0.273164 -0.125476 0)
(0.199973 -0.207584 0)
(0.0996252 -0.327597 0)
(-0.00570382 -0.456631 0)
(-0.015485 -0.398625 0)
(-0.0281675 0.226649 0)
(-0.0418847 0.223932 0)
(0.0379007 0.166383 0)
(0.127769 0.128497 0)
(0.209329 0.10253 0)
(0.281966 0.0830307 0)
(0.346486 0.0680057 0)
(0.40323 0.055985 0)
(0.452328 0.0456242 0)
(0.493616 0.0357955 0)
(0.526441 0.0255657 0)
(0.549555 0.014128 0)
(0.560957 0.00073129 0)
(0.558242 -0.0152954 0)
(0.537542 -0.0355756 0)
(0.493434 -0.0633616 0)
(0.417726 -0.10816 0)
(0.297462 -0.19433 0)
(0.132877 -0.333224 0)
(0.0673592 -0.369463 0)
(0.261508 0.137366 0)
(0.324157 0.118136 0)
(0.455547 0.0774332 0)
(0.56084 0.0520711 0)
(0.633758 0.0366331 0)
(0.687775 0.0264523 0)
(0.730438 0.0195127 0)
(0.764818 0.0146408 0)
(0.792435 0.0109806 0)
(0.814071 0.00791963 0)
(0.829876 0.00502553 0)
(0.839474 0.00198794 0)
(0.842047 -0.00142283 0)
(0.836229 -0.00526164 0)
(0.819832 -0.0100733 0)
(0.789604 -0.0166839 0)
(0.738228 -0.0275994 0)
(0.648002 -0.0519181 0)
(0.474611 -0.111419 0)
(0.341548 -0.155778 0)
)
;

boundaryField
{
    movingWall
    {
        type            fixedValue;
        value           uniform (1 0 0);
    }
    fixedWalls
    {
        type            noSlip;
    }
    frontAndBack
    {
        type            empty;
    }
}


// ************************************************************************* //
