/*--------------------------------*- C++ -*----------------------------------*\
  =========                 |
  \\      /  F ield         | OpenFOAM: The Open Source CFD Toolbox
   \\    /   O peration     | Website:  https://openfoam.org
    \\  /    A nd           | Version:  9
     \\/     M anipulation  |
\*---------------------------------------------------------------------------*/
FoamFile
{
    format      ascii;
    class       volScalarField;
    location    "9.63";
    object      epsilon;
}
// * * * * * * * * * * * * * * * * * * * * * * * * * * * * * * * * * * * * * //

dimensions      [0 2 -3 0 0 0 0];

internalField   nonuniform List<scalar> 
2268
(
7.24518e-05
0.000411615
0.000741971
0.00104708
0.00132512
0.00157523
0.00179695
0.00198994
0.00215569
0.00229876
0.00242506
0.00253998
0.00264334
0.00272253
0.00274747
0.00267442
0.00250956
0.00226731
0.00193493
0.00155904
0.00119063
0.000681528
0.000198048
0.000152981
0.000268381
0.000400409
0.000525603
0.000640161
0.000743191
0.000834643
0.000914919
0.000985016
0.00104648
0.00110095
0.00114944
0.00119094
0.00122105
0.00123117
0.00121103
0.00116602
0.00109157
0.000987141
0.000850079
0.000682213
0.000473746
0.000332803
0.000264613
0.000283195
0.000366808
0.000452332
0.000532079
0.000604184
0.000668328
0.000724838
0.000774474
0.000818228
0.000856984
0.000891026
0.00091942
0.000939483
0.00094679
0.000937073
0.000912781
0.000870918
0.000809732
0.000730262
0.000637
0.000535875
0.000568267
0.000375441
0.000318703
0.000375138
0.000441157
0.000504651
0.000562644
0.000614458
0.000660263
0.000700658
0.000736407
0.000768116
0.000795866
0.000818871
0.00083524
0.000842216
0.000837708
0.000823089
0.000796757
0.000757705
0.000710755
0.000665729
0.000640706
0.00084617
0.000482741
0.000361086
0.000397383
0.000450274
0.000503264
0.000552302
0.000596371
0.000635501
0.00067017
0.000701022
0.000728525
0.000752702
0.00077292
0.000787775
0.000795389
0.000794639
0.000786602
0.000770911
0.000748221
0.000726343
0.000721666
0.000771815
0.00119362
0.000587671
0.000407124
0.000426768
0.000469439
0.000514407
0.00055664
0.000594856
0.000628989
0.000659436
0.000686757
0.000711342
0.000733204
0.000751847
0.000766213
0.000774949
0.00077739
0.000774568
0.000767351
0.000758323
0.000757838
0.000790468
0.000927311
0.00166421
0.000692543
0.000456155
0.000461054
0.000495058
0.000533231
0.00056964
0.00060284
0.000632744
0.000659695
0.000684183
0.000706535
0.00072676
0.000744485
0.000758911
0.00076903
0.000774379
0.000776002
0.000775893
0.000778443
0.000796108
0.000862579
0.00110304
0.00242139
0.000803025
0.000508503
0.000499473
0.000525691
0.00055767
0.000588634
0.00061712
0.000643115
0.000666924
0.000688959
0.000709468
0.000728446
0.00074562
0.000760397
0.000772009
0.000780082
0.000785677
0.000791616
0.000803542
0.000835303
0.000926911
0.0012669
0.00420143
0.000373102
0.00121036
0.002015
0.00236984
0.00250584
0.00255938
0.00253424
0.00245362
0.00232702
0.00219442
0.00193233
0.00154532
0.00138076
0.00137755
0.00123459
0.000926763
0.00057886
0.000313021
0.000105046
0.00044191
0.000694323
0.000951051
0.00108319
0.00114528
0.00117393
0.00117272
0.00114693
0.00110002
0.00103972
0.000950313
0.000841648
0.000743582
0.000669811
0.00058924
0.000469622
0.000331395
0.000216354
0.000169971
0.000630246
0.000651163
0.000787648
0.000859996
0.000895841
0.000912344
0.000911253
0.000894103
0.000862761
0.000818833
0.000757957
0.000690059
0.000619076
0.000555818
0.000491831
0.000411217
0.000320424
0.000252968
0.000280066
0.000774674
0.000691018
0.000759393
0.000793981
0.000811012
0.000817997
0.000814151
0.000798902
0.000773259
0.000736923
0.000688049
0.000635664
0.000579953
0.000524879
0.000469719
0.000407204
0.000340385
0.000303599
0.0003984
0.000908815
0.000774126
0.00077896
0.000779824
0.000780074
0.000778448
0.000771082
0.000755694
0.000732513
0.000700732
0.000659373
0.000615735
0.000569323
0.0005204
0.00047136
0.00042024
0.000369605
0.000355817
0.000525146
0.00115822
0.000898685
0.000821675
0.000788879
0.00077358
0.000764025
0.000753012
0.000736755
0.000714776
0.000686178
0.000650336
0.000612503
0.000571886
0.000527978
0.000484224
0.000441612
0.000403033
0.000407462
0.000662342
0.00169413
0.00105411
0.000872838
0.000808542
0.000779643
0.000763085
0.000748679
0.000731421
0.000710228
0.000684181
0.00065266
0.00061899
0.000582234
0.000542408
0.000503553
0.000468102
0.000439245
0.000460194
0.00081495
0.00317192
0.0011964
0.000918359
0.000831527
0.000792219
0.000769917
0.000752639
0.000734574
0.000714215
0.000690512
0.000662482
0.000631951
0.000598067
0.000561526
0.000526818
0.000496962
0.000477181
0.000514271
0.00097338
0.000965659
0.000590096
0.000563024
0.000578954
0.000602149
0.000624926
0.000646219
0.000666368
0.000685634
0.00070424
0.000722274
0.000739673
0.000756294
0.000771795
0.000785691
0.000797752
0.000809031
0.00082307
0.000846223
0.000892248
0.00099508
0.00125509
0.00204144
0.00121601
0.00071584
0.000667163
0.000670975
0.000681914
0.000691653
0.000701469
0.00071293
0.000725937
0.000740075
0.000755047
0.000770518
0.000786341
0.000802409
0.000818527
0.000834657
0.000851641
0.000872493
0.000902466
0.000950808
0.00103684
0.00119868
0.00150371
0.00164713
0.000853894
0.000790771
0.000785863
0.000783411
0.000775189
0.000770102
0.000771761
0.000778004
0.000787204
0.00079881
0.000811952
0.000826257
0.000842015
0.000859115
0.000877698
0.000898696
0.000923943
0.000956449
0.00100041
0.00106544
0.00116541
0.00130578
0.000713399
0.000899489
0.000927514
0.000919497
0.000903269
0.000869118
0.000846334
0.000839601
0.000839454
0.000843174
0.000851339
0.000861785
0.000873642
0.000888394
0.00090571
0.000925717
0.00094972
0.000977708
0.00101222
0.00105026
0.00109727
0.00116365
0.00125573
0.00291087
0.00120206
0.00105191
0.000965201
0.000934784
0.000900433
0.000877901
0.00087617
0.00088148
0.00088878
0.000901002
0.000913976
0.000925083
0.000938679
0.00095564
0.000975412
0.000998757
0.00102524
0.00106781
0.0011074
0.00113408
0.00117548
0.00124952
0.00105562
0.00113188
0.00102167
0.000959366
0.000953162
0.000916263
0.000885413
0.00087999
0.000885983
0.000899052
0.000919458
0.000941894
0.000962488
0.000982259
0.000999199
0.00101702
0.00104297
0.00106489
0.00109613
0.00113521
0.00116192
0.00118491
0.00123089
0.00146253
0.0010753
0.000977947
0.000940997
0.000929233
0.000902849
0.000884896
0.000883588
0.000891812
0.000906138
0.000926361
0.000949348
0.000971992
0.000992921
0.00101119
0.00103054
0.00105386
0.00107549
0.00110105
0.00113278
0.00116087
0.00118531
0.00122686
0.0015568
0.00106935
0.000950057
0.000914693
0.000898047
0.000887079
0.000882922
0.000887905
0.000899521
0.000915798
0.000935973
0.000958666
0.000981204
0.00100272
0.00102306
0.00104339
0.00106455
0.001086
0.00110914
0.00113472
0.00115964
0.00118373
0.00121385
0.0016027
0.00106961
0.000934766
0.000894334
0.000881351
0.00087892
0.000883336
0.000893967
0.000909413
0.000928446
0.00095031
0.000974385
0.000998214
0.00102085
0.00104282
0.00106436
0.00108495
0.00110488
0.00112545
0.00114688
0.00116838
0.00118974
0.00121139
0.00163234
0.00107751
0.000932064
0.000886823
0.000875078
0.000877176
0.000886893
0.000902032
0.000921252
0.000943434
0.000967695
0.000993529
0.00101911
0.00104365
0.00106773
0.00109095
0.00111208
0.00113138
0.00115037
0.00116951
0.00118865
0.0012075
0.00122476
0.00165571
0.00108756
0.000935179
0.000886932
0.000875694
0.000880424
0.000893602
0.000912296
0.000934939
0.000960167
0.000986852
0.00101453
0.00104201
0.00106874
0.00109512
0.00112042
0.00114319
0.00116348
0.00118276
0.00120177
0.00122046
0.0012383
0.00125397
0.00167679
0.00109963
0.000942636
0.000892372
0.000881266
0.000887672
0.000903324
0.000924889
0.000950486
0.000978389
0.00100743
0.00103723
0.001067
0.00109631
0.00112517
0.00115289
0.00117817
0.00120083
0.00122217
0.00124297
0.00126316
0.00128208
0.00129869
0.00169648
0.00111265
0.000952828
0.000901438
0.000890536
0.00089825
0.000915961
0.000939978
0.00096811
0.000998441
0.00102996
0.0010623
0.00109489
0.00112733
0.00115922
0.00118992
0.00121852
0.00124471
0.00126948
0.00129355
0.0013168
0.00133863
0.00135816
0.0017149
0.00112637
0.000965119
0.000913333
0.000902886
0.000911881
0.000931513
0.000957802
0.000988303
0.00102115
0.00105549
0.00109089
0.00112688
0.00116301
0.00119867
0.00123325
0.00126608
0.00129689
0.0013263
0.00135486
0.00138245
0.00140855
0.0014324
0.00173206
0.00114107
0.000979532
0.000927891
0.000918139
0.000928507
0.000950089
0.000978625
0.00101159
0.00104732
0.001085
0.00112411
0.00116415
0.00120464
0.00124497
0.00128448
0.0013226
0.00135913
0.00139438
0.00142867
0.00146186
0.00149348
0.00152281
0.00174782
0.00115756
0.0009966
0.000945344
0.000936395
0.000948216
0.000971856
0.00100283
0.00103864
0.0010778
0.00111948
0.00116306
0.00120797
0.0012537
0.00129965
0.00134519
0.0013898
0.00143325
0.00147562
0.001517
0.00155717
0.00159566
0.0016317
0.00176081
0.00117797
0.00101746
0.000966172
0.000957898
0.000971203
0.000997053
0.00103085
0.00107008
0.00111337
0.00115981
0.0012087
0.00125945
0.0013115
0.00136424
0.00141709
0.00146954
0.00152128
0.00157221
0.0016222
0.00167091
0.00171776
0.00176196
0.00176596
0.00120669
0.00104356
0.000990832
0.000982887
0.00099773
0.00102605
0.00106317
0.00110654
0.00115473
0.0012068
0.00126201
0.00131972
0.00137935
0.00144028
0.00150194
0.0015638
0.00162547
0.00168665
0.00174699
0.001806
0.001863
0.00191706
0.00176527
0.00125071
0.00107485
0.00101917
0.00101146
0.00102808
0.00105932
0.00110037
0.00114865
0.00120264
0.00126135
0.00132403
0.00139002
0.0014587
0.00152946
0.0016017
0.00167484
0.00174836
0.00182177
0.00189454
0.00196598
0.00203522
0.00210124
0.00176402
0.00129889
0.00110954
0.00105103
0.00104376
0.00106259
0.00109733
0.00114305
0.00119709
0.00125789
0.00132443
0.00139593
0.00147173
0.0015512
0.00163371
0.0017186
0.00180521
0.0018929
0.00198097
0.00206866
0.00215506
0.00223911
0.0023196
0.00176307
0.00135247
0.00114766
0.00108648
0.00108002
0.0011016
0.00114056
0.00119179
0.00125259
0.00132137
0.0013971
0.00147901
0.00156643
0.00165873
0.00175524
0.00185524
0.00195798
0.00206263
0.00216827
0.00227391
0.00237836
0.00248032
0.00257834
0.00176493
0.00140241
0.00118935
0.0011257
0.0011205
0.00114548
0.00118946
0.00124719
0.00131591
0.00139403
0.00148055
0.00157472
0.00167589
0.00178342
0.00189662
0.00201468
0.00213672
0.00226171
0.00238849
0.00251576
0.00264203
0.00276567
0.00288495
0.00176697
0.00145671
0.00123478
0.0011689
0.00116548
0.00119458
0.0012445
0.00130984
0.00138781
0.00147687
0.00157604
0.00168465
0.00180208
0.00192771
0.00206079
0.00220046
0.00234565
0.00249511
0.00264738
0.00280079
0.00295349
0.00310343
0.00324848
0.00746095
0.00154234
0.00128429
0.00121623
0.00121519
0.00124924
0.00130614
0.00138035
0.0014691
0.00157092
0.00168493
0.00181054
0.0019472
0.00209432
0.00225114
0.00241669
0.00258972
0.0027687
0.00295181
0.00313692
0.00332169
0.00350356
0.00367988
0.00176519
0.00159446
0.00133756
0.00126783
0.00126983
0.00130974
0.00137478
0.0014593
0.00156059
0.00167727
0.00180864
0.00195423
0.00211363
0.00228631
0.0024715
0.00266813
0.00287474
0.00308945
0.00330998
0.00353364
0.00375744
0.00397815
0.00419248
0.00176347
0.00167158
0.00139466
0.00132374
0.00132956
0.00137634
0.0014508
0.00154723
0.00166302
0.00179699
0.00194863
0.0021177
0.00230398
0.00250706
0.00272621
0.00296025
0.00320747
0.00346558
0.00373169
0.00400239
0.00427384
0.00454192
0.00480246
0.00176407
0.00174633
0.00145546
0.00138394
0.00139441
0.00144917
0.00153448
0.0016446
0.00177711
0.00193109
0.00210635
0.00230297
0.002521
0.00276026
0.00302011
0.00329928
0.00359578
0.00390679
0.00422865
0.00455697
0.00488678
0.00521278
0.00552962
0.00176417
0.00182926
0.00151971
0.0014483
0.00146435
0.00152829
0.00162598
0.00175174
0.00190342
0.00208047
0.00228316
0.00251202
0.00276755
0.00304988
0.00335856
0.00369231
0.00404878
0.00442449
0.00481479
0.00521397
0.00561555
0.00601259
0.00639817
0.0017694
0.0018962
0.0015869
0.00151655
0.00153921
0.00161364
0.00172535
0.00186884
0.00204236
0.00224588
0.00248028
0.00274677
0.00304646
0.00338003
0.00374736
0.00414719
0.00457683
0.00503195
0.0055066
0.00599329
0.00648347
0.00696798
0.00743779
0.00176766
0.00198461
0.0016571
0.00158835
0.00161869
0.00170498
0.00183246
0.00199591
0.00219409
0.00242774
0.00269861
0.00300883
0.0033604
0.00375482
0.00419254
0.00467246
0.00519151
0.00574435
0.00632329
0.00691849
0.00751852
0.00811117
0.00868443
0.0017649
0.00208082
0.00172954
0.00166316
0.00170234
0.00180191
0.00194695
0.00213263
0.00235846
0.00262616
0.00293865
0.00329932
0.00371153
0.00417798
0.00470001
0.00527688
0.00590522
0.00657847
0.00728673
0.00801699
0.0087539
0.00948095
0.0101819
0.00746664
0.00217384
0.00180231
0.0017402
0.0017896
0.00190395
0.00206829
0.00227841
0.00253484
0.00284059
0.00320015
0.00361864
0.00410127
0.00465244
0.0052749
0.00596873
0.00673039
0.00755197
0.00842085
0.00931986
0.0102283
0.0111234
0.0119831
0.00176781
0.00223813
0.00187489
0.00181885
0.00188004
0.00201059
0.0021958
0.00243233
0.00272205
0.0030697
0.00348179
0.00396578
0.00452933
0.0051793
0.00592053
0.00675452
0.007678
0.00868184
0.00975028
0.0108609
0.0119858
0.0130934
0.0141524
0.00176666
0.0023149
0.00194582
0.00189884
0.00197365
0.00212165
0.00232881
0.00259315
0.0029183
0.00331118
0.00378089
0.00433789
0.0049931
0.00575672
0.00663669
0.00763687
0.0087552
0.00998191
0.0112982
0.0126754
0.0140759
0.0154553
0.0167683
0.00747164
0.00238644
0.00201517
0.00198141
0.00207158
0.00223756
0.00246684
0.00275936
0.00312103
0.00356145
0.00409292
0.0047296
0.00548659
0.0063785
0.00741767
0.00861188
0.0099619
0.011459
0.0130824
0.0147971
0.0165528
0.0182862
0.0199287
0.00176603
0.002427
0.00208725
0.00207134
0.00217736
0.00236004
0.00260973
0.00292906
0.00332672
0.00381542
0.00441113
0.00513239
0.00599938
0.00703241
0.00824987
0.00966567
0.0112863
0.0131075
0.01511
0.017254
0.0194744
0.0216791
0.0237597
0.00176796
0.00246097
0.00217615
0.0021807
0.00229876
0.00249272
0.00275774
0.00309986
0.0035307
0.00406617
0.00472614
0.00553397
0.00651573
0.00769871
0.00910934
0.0107707
0.0126995
0.0149022
0.0173686
0.0200608
0.0228992
0.0257494
0.0284315
0.00176679
0.00254853
0.00232574
0.00233816
0.00245087
0.00264155
0.00291119
0.00326841
0.0037268
0.00430481
0.00502584
0.00591816
0.00701419
0.00834928
0.00995997
0.0118822
0.0141492
0.0167884
0.0198128
0.0232035
0.0268765
0.0306417
0.034187
0.00746798
0.00300716
0.00268225
0.00260777
0.00265867
0.00281352
0.00306885
0.00342938
0.00390696
0.00452045
0.00529572
0.00626537
0.00746815
0.00894802
0.0107533
0.0129364
0.0155547
0.0186702
0.0223432
0.0266084
0.0314171
0.0365305
0.0413984
0.0137654
0.00549948
0.00368315
0.00311278
0.00295228
0.00301058
0.00322446
0.00357397
0.0040608
0.00470056
0.00551967
0.00655398
0.00784776
0.00945325
0.0114309
0.0138521
0.0168042
0.0203987
0.0247746
0.0300824
0.0364113
0.0435819
0.0506971
0.143286
0.0217821
0.00673792
0.00404013
0.00333742
0.00321465
0.00336101
0.00368824
0.00417575
0.00483183
0.00568157
0.00676257
0.00812321
0.00982235
0.011931
0.0145379
0.0177613
0.0217687
0.0268035
0.0332097
0.0414173
0.0517382
0.0633432
1.53654
0.121656
0.0151332
0.00537587
0.00370421
0.00336557
0.00344711
0.00375375
0.00423848
0.00490192
0.00576734
0.0068729
0.00826913
0.0100186
0.0121986
0.0149087
0.0182878
0.0225448
0.0280126
0.0352433
0.0451983
0.0596845
0.0824558
0.00543098
0.00424001
0.00420449
0.00517585
0.00188672
0.0019171
0.00190218
0.001844
0.00139974
0.00142286
0.00141368
0.00137521
0.00129662
0.00129769
0.00128414
0.00126105
0.00128646
0.00128732
0.00126024
0.00123486
0.00126335
0.00126826
0.00124363
0.00122563
0.00124486
0.00124123
0.00122502
0.00120783
0.00122512
0.00122215
0.00121291
0.001203
0.00121983
0.00122062
0.00121813
0.00121402
0.00123246
0.00123531
0.0012365
0.00123622
0.00126217
0.00126624
0.00126917
0.00127096
0.00130842
0.00131367
0.00131791
0.00132117
0.00137034
0.00137724
0.00138313
0.00138802
0.00144781
0.00145681
0.00146477
0.00147169
0.00154223
0.00155378
0.00156427
0.00157366
0.00165597
0.0016706
0.00168413
0.00169647
0.00179207
0.00181039
0.00182754
0.00184343
0.00195423
0.00197699
0.00199849
0.00201863
0.00214693
0.00217506
0.00220181
0.00222707
0.00237561
0.00241023
0.00244332
0.00247476
0.00264685
0.00268932
0.00273009
0.002769
0.00296859
0.00302057
0.00307062
0.00311857
0.00335044
0.00341394
0.00347522
0.00353403
0.00380404
0.00388147
0.00395628
0.0040282
0.00434351
0.00443777
0.0045289
0.00461659
0.00498607
0.00510062
0.00521141
0.00531806
0.00575266
0.00589175
0.00602622
0.00615564
0.00666902
0.00683776
0.00700073
0.00715742
0.00776664
0.0079712
0.00816846
0.00835779
0.00908391
0.00933187
0.00957041
0.00979877
0.0106676
0.0109683
0.0112566
0.0115316
0.0125749
0.0129399
0.0132883
0.0136192
0.0148757
0.0153196
0.015741
0.0161389
0.0176563
0.018198
0.0187087
0.0191871
0.021026
0.0216901
0.0223105
0.0228857
0.0251273
0.0259462
0.0267018
0.027393
0.0301542
0.0311703
0.0320917
0.0329189
0.036384
0.0376504
0.0387696
0.0397476
0.0442333
0.0458076
0.0471447
0.0482668
0.0543669
0.0562764
0.0577965
0.0589959
0.0679114
0.0700103
0.0715066
0.072579
0.0867842
0.0882729
0.089123
0.0896364
0.00190692
0.0011938
0.000963604
0.000865918
0.000816633
0.000787752
0.000767114
0.000748403
0.000729737
0.000709763
0.000686336
0.000659687
0.000629477
0.000596916
0.000566255
0.000542148
0.000534606
0.00058879
0.00113308
0.00144229
0.00114051
0.000986001
0.000901962
0.000852973
0.000822229
0.000800921
0.000783804
0.000768544
0.000753535
0.000735297
0.000712147
0.000684544
0.000654218
0.000624418
0.000602642
0.000602161
0.00066981
0.00124656
0.00126169
0.00110697
0.00100173
0.000934826
0.000891834
0.000863766
0.00084473
0.000830869
0.000819979
0.000810505
0.000797363
0.00077669
0.000748769
0.000718219
0.000687786
0.000665727
0.000666545
0.000738726
0.00141924
0.00121173
0.00110105
0.00102268
0.000970316
0.000934423
0.000910879
0.000895486
0.000885568
0.000879732
0.000877858
0.000872229
0.000854066
0.000822413
0.000790283
0.000758694
0.000733499
0.000728893
0.000743461
0.000584571
0.00118607
0.00110386
0.00104542
0.00100284
0.000973501
0.000954099
0.000940645
0.000931278
0.000924865
0.000922418
0.000918618
0.000912613
0.000896571
0.000859176
0.000832238
0.000805409
0.000810567
0.00092734
0.00208728
0.00118442
0.00111681
0.00106931
0.00103579
0.00101243
0.000994493
0.00097847
0.000965785
0.00095753
0.000952986
0.000949744
0.000950503
0.000940389
0.000909231
0.000889428
0.000866652
0.000869455
0.00096269
0.000785043
0.00118112
0.0011334
0.0010957
0.00106706
0.00104784
0.001031
0.00101425
0.00100126
0.000993442
0.000988793
0.000988056
0.000997605
0.000993749
0.000944015
0.00091207
0.000896224
0.000902497
0.000953462
0.00111251
0.00118674
0.00115218
0.00112282
0.00110054
0.00108362
0.00106699
0.00105083
0.00103856
0.00103073
0.00102557
0.00102184
0.00101933
0.00100211
0.00096058
0.000926709
0.000910144
0.000920865
0.0010158
0.00115841
0.00120483
0.00118091
0.00115811
0.0011403
0.00112412
0.00110717
0.00109147
0.00107935
0.0010707
0.00106391
0.0010555
0.00104041
0.00101214
0.000973917
0.000942053
0.000923363
0.000932753
0.00103722
0.00115874
0.0012331
0.00121918
0.00120273
0.00118838
0.00117309
0.00115575
0.00113912
0.00112518
0.00111369
0.00110325
0.00108973
0.00106581
0.00102934
0.000990403
0.000959018
0.000938778
0.000942969
0.00103225
0.00115629
0.00127183
0.001266
0.00125594
0.00124464
0.00123041
0.00121313
0.00119543
0.00117881
0.00116312
0.00114743
0.0011285
0.00109949
0.00105919
0.00101788
0.000984252
0.000962601
0.000963229
0.00103081
0.00115749
0.00132484
0.00132427
0.00131918
0.00131045
0.00129763
0.00128128
0.00126306
0.00124401
0.00122417
0.00120311
0.00117892
0.00114705
0.00110548
0.00106167
0.00102468
0.00100165
0.00100246
0.00106445
0.00115714
0.00139438
0.0013978
0.00139625
0.00138994
0.001379
0.00136393
0.00134561
0.00132469
0.0013014
0.00127569
0.00124684
0.00121257
0.00117073
0.00112538
0.0010853
0.00106169
0.00106534
0.00112666
0.00115826
0.00148132
0.00148895
0.0014909
0.00148737
0.00147862
0.00146498
0.00144684
0.00142462
0.00139863
0.0013691
0.00133603
0.00129882
0.00125649
0.00121083
0.00116903
0.0011457
0.00115371
0.0012353
0.00487846
0.00158727
0.00160001
0.00160623
0.00160619
0.00160013
0.00158814
0.0015705
0.00154749
0.00151945
0.00148675
0.00144984
0.00140906
0.00136479
0.00131867
0.00127668
0.00125371
0.00126839
0.00138467
0.00112607
0.00171487
0.00173377
0.00174541
0.00174979
0.00174701
0.00173719
0.00172051
0.0016972
0.00166761
0.00163224
0.00159178
0.00154715
0.00149964
0.00145175
0.00140939
0.00138571
0.00140351
0.00153682
0.0011485
0.00186757
0.00189388
0.00191208
0.00192192
0.00192335
0.00191644
0.00190131
0.00187818
0.00184743
0.00180967
0.00176582
0.00171718
0.00166573
0.00161484
0.00157104
0.00154749
0.00157305
0.00175203
0.00115947
0.00204967
0.00208487
0.00211097
0.00212749
0.00213421
0.00213107
0.00211816
0.00209567
0.00206404
0.00202398
0.0019766
0.00192357
0.00186741
0.0018123
0.00176575
0.00174259
0.00177831
0.00201198
0.00490001
0.00226641
0.00231231
0.00234792
0.00237254
0.00238575
0.00238736
0.00237738
0.00235598
0.00232364
0.00228116
0.00222983
0.00217163
0.0021096
0.00204871
0.0019977
0.00197397
0.00202055
0.00230168
0.00490128
0.00252413
0.00258291
0.00262995
0.00266434
0.00268544
0.00269291
0.00268664
0.00266677
0.00263379
0.00258857
0.00253257
0.00246806
0.00239857
0.00232988
0.00227217
0.00224602
0.002304
0.0026492
0.00496867
0.00283048
0.00290475
0.00296554
0.00301167
0.00304229
0.00305687
0.00305517
0.00303729
0.00300366
0.00295524
0.0028936
0.00282129
0.00274235
0.00266341
0.00259621
0.00256457
0.00262924
0.00302274
0.00571961
0.00319465
0.00328757
0.00336485
0.00342505
0.00346708
0.00349022
0.00349409
0.00347867
0.00344438
0.00339216
0.00332371
0.00324186
0.00315112
0.00305913
0.00297939
0.0029394
0.00300931
0.00345809
0.00663056
0.00362773
0.00374304
0.00384008
0.00391709
0.00397274
0.00400612
0.00401668
0.00400431
0.00396932
0.00391266
0.00383609
0.00374272
0.00363763
0.00352941
0.0034336
0.00338203
0.00345625
0.00397008
0.00768138
0.00414309
0.00428526
0.00440588
0.00450288
0.00457471
0.00462027
0.00463886
0.00463023
0.0045946
0.00453286
0.00444687
0.00433989
0.0042175
0.00408941
0.00397336
0.00390603
0.00398146
0.00456148
0.00884347
0.00475696
0.00493121
0.00507985
0.00520053
0.00529148
0.00535145
0.00537962
0.00537562
0.00533957
0.00527228
0.00517555
0.00505276
0.00490995
0.00475793
0.00461682
0.00452851
0.00460038
0.00524438
0.0101132
0.00548898
0.00570145
0.00588324
0.00603177
0.00614515
0.00622206
0.00626163
0.00626341
0.00622741
0.00615429
0.00604571
0.00590504
0.00573869
0.00555848
0.00538703
0.00527187
0.00533484
0.00604147
0.011523
0.0063631
0.00662087
0.00684164
0.00702269
0.00716216
0.00725882
0.00731188
0.00732092
0.0072858
0.00720698
0.00708586
0.00692567
0.00673296
0.00652049
0.00631347
0.00616574
0.00621602
0.00699313
0.0131942
0.00740848
0.0077197
0.00798596
0.0082046
0.0083741
0.00849359
0.00856255
0.00858066
0.00854773
0.00846395
0.00833036
0.00814982
0.00792878
0.00768077
0.00743366
0.00724868
0.00728542
0.0081538
0.0152809
0.00866074
0.00903463
0.00935346
0.00961513
0.00981882
0.00996437
0.0100518
0.0100812
0.0100524
0.00996529
0.00982044
0.0096201
0.0093703
0.009085
0.00879484
0.00856963
0.00859517
0.00958681
0.0179325
0.0101632
0.0106102
0.0109893
0.0112996
0.0115416
0.0117163
0.011825
0.0118683
0.0118462
0.0117586
0.0116053
0.0113878
0.0111112
0.0107896
0.010456
0.0101901
0.0102092
0.0113604
0.0212421
0.011969
0.0125005
0.012948
0.0133123
0.0135963
0.0138032
0.0139357
0.0139958
0.013984
0.0139
0.0137434
0.0135142
0.0132166
0.0128638
0.012491
0.0121878
0.0122084
0.0135582
0.0253087
0.0141428
0.0147718
0.0152956
0.0157188
0.0160477
0.0162888
0.0164475
0.0165273
0.0165301
0.0164557
0.0163033
0.016072
0.0157643
0.0153922
0.0149918
0.0146626
0.0147005
0.0163006
0.0303462
0.0167646
0.0175046
0.0181122
0.0185977
0.0189729
0.0192492
0.0194354
0.0195379
0.0195601
0.0195028
0.0193653
0.0191461
0.0188465
0.0184766
0.0180728
0.0177436
0.0178303
0.0197573
0.0366644
0.0199333
0.0207984
0.0214955
0.0220442
0.0224647
0.0227749
0.0229888
0.023116
0.0231627
0.0231313
0.0230223
0.0228348
0.02257
0.0222376
0.0218738
0.0215957
0.0217938
0.0241675
0.0446989
0.0237736
0.0247764
0.0255651
0.0261738
0.0266348
0.0269748
0.027214
0.0273666
0.027442
0.0274457
0.0273808
0.0272495
0.0270559
0.0268129
0.0265606
0.0264265
0.0268549
0.0298717
0.05504
0.0284448
0.0295928
0.0304679
0.0311268
0.0316181
0.0319796
0.0322388
0.032415
0.0325215
0.0325682
0.0325628
0.0325142
0.0324356
0.0323517
0.0323182
0.0324861
0.0333675
0.0373795
0.0686467
0.0341533
0.0354412
0.0363853
0.0370747
0.0375789
0.0379484
0.0382181
0.0384123
0.0385489
0.0386423
0.0387077
0.038765
0.0388454
0.0390011
0.0393301
0.0400471
0.0417872
0.0474835
0.0873202
0.0411676
0.0425644
0.0435394
0.0442259
0.0447172
0.0450753
0.0453415
0.0455438
0.0457036
0.0458405
0.0459781
0.0461517
0.0464198
0.0468844
0.0477322
0.0493344
0.052618
0.061368
0.11421
0.0498331
0.0512602
0.0521993
0.0528339
0.0532775
0.0535997
0.0538439
0.0540393
0.0542087
0.0543752
0.0545703
0.0548448
0.0552899
0.0560763
0.0575367
0.0603578
0.0661641
0.0806061
0.155143
0.0605763
0.0618825
0.0626854
0.063205
0.0635606
0.0638191
0.0640197
0.0641884
0.0643462
0.0645163
0.0647329
0.0650559
0.0655999
0.066598
0.0685512
0.0726151
0.0817937
0.10635
0.222643
0.0738764
0.0748285
0.0753725
0.0757109
0.0759395
0.0761074
0.0762418
0.0763608
0.0764793
0.0766154
0.0767974
0.0770776
0.077562
0.0784839
0.0804011
0.0848024
0.0963464
0.134509
0.346365
0.090176
0.0905176
0.0906992
0.0908091
0.0908835
0.0909398
0.0909871
0.0910318
0.0910795
0.0911374
0.0912174
0.0913423
0.0915598
0.0919807
0.0928988
0.0952459
0.10281
0.138994
0.578609
)
;

boundaryField
{
    leftWall
    {
        type            epsilonWallFunction;
        value           nonuniform List<scalar> 
50
(
7.24518e-05
0.000152981
0.000264613
0.000375441
0.000482741
0.000587671
0.000692543
0.000803025
0.000965659
0.00121601
0.00164713
0.000713399
0.00291087
0.00105562
0.00146253
0.0015568
0.0016027
0.00163234
0.00165571
0.00167679
0.00169648
0.0017149
0.00173206
0.00174782
0.00176081
0.00176596
0.00176527
0.00176402
0.00176307
0.00176493
0.00176697
0.00746095
0.00176519
0.00176347
0.00176407
0.00176417
0.0017694
0.00176766
0.0017649
0.00746664
0.00176781
0.00176666
0.00747164
0.00176603
0.00176796
0.00176679
0.00746798
0.0137654
0.143286
1.53654
)
;
    }
    rightWall
    {
        type            epsilonWallFunction;
        value           nonuniform List<scalar> 
50
(
0.000105046
0.000169971
0.000280066
0.0003984
0.000525146
0.000662342
0.00081495
0.00097338
0.00113308
0.00124656
0.00141924
0.000584571
0.00208728
0.000785043
0.00111251
0.00115841
0.00115874
0.00115629
0.00115749
0.00115714
0.00115826
0.00487846
0.00112607
0.0011485
0.00115947
0.00490001
0.00490128
0.00496867
0.00571961
0.00663056
0.00768138
0.00884347
0.0101132
0.011523
0.0131942
0.0152809
0.0179325
0.0212421
0.0253087
0.0303462
0.0366644
0.0446989
0.05504
0.0686467
0.0873202
0.11421
0.155143
0.222643
0.346365
0.578609
)
;
    }
    lowerWall
    {
        type            epsilonWallFunction;
        value           nonuniform List<scalar> 
62
(
7.24518e-05
0.000411615
0.000741971
0.00104708
0.00132512
0.00157523
0.00179695
0.00198994
0.00215569
0.00229876
0.00242506
0.00253998
0.00264334
0.00272253
0.00274747
0.00267442
0.00250956
0.00226731
0.00193493
0.00155904
0.00119063
0.000681528
0.000198048
0.000198048
0.000332803
0.000568267
0.00084617
0.00119362
0.00166421
0.00242139
0.00420143
0.00543098
0.00424001
0.00420449
0.00517585
0.000373102
0.00044191
0.000630246
0.000774674
0.000908815
0.00115822
0.00169413
0.00317192
0.000373102
0.00121036
0.002015
0.00236984
0.00250584
0.00255938
0.00253424
0.00245362
0.00232702
0.00219442
0.00193233
0.00154532
0.00138076
0.00137755
0.00123459
0.000926763
0.00057886
0.000313021
0.000105046
)
;
    }
    atmosphere
    {
        type            inletOutlet;
        inletValue      uniform 0.1;
        value           nonuniform List<scalar> 
46
(
0.1
0.121656
0.0151332
0.00537587
0.00370421
0.00336557
0.00344711
0.00375375
0.00423848
0.00490192
0.00576734
0.0068729
0.00826913
0.0100186
0.0121986
0.0149087
0.0182878
0.0225448
0.0280126
0.0352433
0.0451983
0.0596845
0.1
0.1
0.1
0.1
0.1
0.1
0.1
0.1
0.1
0.1
0.1
0.1
0.1
0.1
0.1
0.1
0.1
0.1
0.1
0.1
0.1
0.1
0.1
0.578609
)
;
    }
    defaultFaces
    {
        type            empty;
    }
}


// ************************************************************************* //
