/*--------------------------------*- C++ -*----------------------------------*\
  =========                 |
  \\      /  F ield         | OpenFOAM: The Open Source CFD Toolbox
   \\    /   O peration     | Website:  https://openfoam.org
    \\  /    A nd           | Version:  9
     \\/     M anipulation  |
\*---------------------------------------------------------------------------*/
FoamFile
{
    format      ascii;
    class       volScalarField;
    location    "9.63";
    object      k;
}
// * * * * * * * * * * * * * * * * * * * * * * * * * * * * * * * * * * * * * //

dimensions      [0 2 -2 0 0 0 0];

internalField   nonuniform List<scalar> 
2268
(
8.15274e-05
0.000211676
0.000313536
0.000394476
0.000461538
0.000517926
0.00056545
0.000605242
0.000638393
0.000666326
0.000690501
0.000712131
0.000731307
0.000745829
0.000750378
0.000737036
0.000706458
0.000660269
0.000594079
0.000514405
0.000429758
0.00029624
0.000129922
0.000180337
0.000490539
0.000699699
0.000866685
0.00100503
0.0011211
0.00121876
0.00130077
0.00136963
0.00142799
0.00147816
0.00152157
0.00155763
0.00158257
0.00158897
0.00156759
0.00151259
0.00142859
0.00130761
0.00116243
0.000996857
0.000718492
0.000302719
0.00025986
0.000657044
0.000914458
0.00111955
0.00128977
0.00143274
0.00155316
0.00165451
0.00173987
0.00181234
0.00187446
0.00192757
0.00197085
0.00200029
0.00200856
0.00198729
0.00193083
0.00184173
0.0017133
0.00155018
0.00134451
0.00100982
0.00043249
0.000328117
0.00079216
0.0010822
0.00131146
0.0015016
0.00166124
0.00179575
0.0019091
0.00200475
0.00208607
0.00215567
0.00221484
0.00226272
0.00229546
0.00230627
0.00228761
0.00223454
0.0021482
0.00202299
0.00185769
0.00163648
0.00127371
0.000563972
0.000387983
0.000912619
0.00122999
0.00147787
0.00168261
0.00185416
0.00199858
0.00212034
0.00222327
0.0023109
0.00238591
0.0024496
0.00250119
0.00253716
0.00255135
0.00253688
0.00248931
0.00240941
0.00229275
0.00213426
0.00191237
0.00153524
0.00070934
0.000442347
0.00102455
0.00136721
0.00163109
0.00184753
0.00202809
0.00217976
0.00230765
0.00241594
0.00250833
0.00258756
0.00265496
0.00270994
0.00274938
0.00276772
0.00275857
0.00271785
0.00264669
0.00254213
0.0023969
0.00218609
0.00181143
0.000885189
0.000493529
0.00113157
0.00149869
0.00177721
0.00200348
0.00219095
0.00234787
0.00248017
0.0025924
0.00268847
0.00277114
0.00284176
0.00289999
0.00294317
0.00296632
0.00296329
0.00293047
0.00286957
0.00277945
0.00265221
0.00246353
0.00211865
0.00113646
0.000544725
0.00123634
0.00162748
0.00191995
0.00215473
0.00234737
0.00250779
0.00264303
0.0027581
0.00285701
0.00294251
0.00301598
0.00307737
0.00312447
0.00315274
0.00315654
0.0031326
0.00308308
0.00300841
0.00290217
0.00274512
0.00246756
0.00164119
0.000198244
0.00043438
0.000610169
0.000679861
0.000705626
0.000715653
0.000710968
0.000695798
0.000671669
0.000645939
0.000593413
0.000511234
0.000474357
0.000473652
0.000440262
0.000363591
0.000265666
0.000176354
0.00010679
0.00039241
0.000922621
0.00125874
0.00142277
0.00149817
0.00152953
0.0015297
0.00150429
0.00145723
0.00139614
0.00129681
0.00114328
0.00105906
0.00103545
0.00095036
0.000803783
0.00060738
0.000404522
0.000207578
0.000497243
0.00119077
0.00159011
0.00179265
0.00188959
0.00193028
0.00193262
0.00190342
0.00184793
0.00177153
0.00166021
0.00151388
0.00140723
0.00133923
0.00122453
0.00105157
0.000821878
0.000571039
0.00028956
0.000570627
0.00140488
0.00184542
0.0020657
0.0021716
0.00221559
0.00221783
0.00218559
0.00212459
0.00204043
0.0019261
0.00178982
0.00167231
0.00157128
0.00143423
0.00124655
0.00100245
0.000727387
0.000366237
0.000634685
0.00161303
0.0020814
0.00230445
0.00241013
0.00245273
0.00245275
0.00241734
0.0023523
0.00226395
0.00215005
0.00202061
0.00189631
0.00177221
0.001618
0.00142058
0.00116921
0.000878106
0.000440271
0.000745904
0.00184225
0.00231759
0.00252925
0.00262723
0.00266467
0.00266071
0.00262191
0.00255382
0.00246343
0.00235116
0.00222535
0.00209507
0.00195498
0.0017884
0.00158431
0.00132765
0.00102183
0.000513923
0.000960905
0.00212156
0.00256075
0.00274738
0.00283195
0.00286143
0.00285223
0.00281002
0.0027398
0.00264877
0.00253832
0.00241376
0.00227756
0.00212584
0.00195036
0.00174146
0.00147871
0.00115617
0.000590089
0.00145957
0.00245485
0.00280863
0.00296047
0.00302816
0.00304782
0.00303275
0.00298723
0.002916
0.00282548
0.00271652
0.0025916
0.00244975
0.00228872
0.00210563
0.00189043
0.00162062
0.0012802
0.000664249
0.000615988
0.00139129
0.00182209
0.00213701
0.00238418
0.00258287
0.00274663
0.00288491
0.00300346
0.00310632
0.00319602
0.00327388
0.00334029
0.00339359
0.00343007
0.0034453
0.00343656
0.00340624
0.00335613
0.00328399
0.00318164
0.00302687
0.00273158
0.00071841
0.00160932
0.00209797
0.00244461
0.0027048
0.00290364
0.00306407
0.0032009
0.00332038
0.0034257
0.00351888
0.0036008
0.00367194
0.00373171
0.00377807
0.00380807
0.00381962
0.00381434
0.00379471
0.00376111
0.00371401
0.00365104
0.00355391
0.000879994
0.00184707
0.00240151
0.00278439
0.00305388
0.00324005
0.00338743
0.00351837
0.00363566
0.00374037
0.0038347
0.00391852
0.00399186
0.00405607
0.00411023
0.00415292
0.00418359
0.00420263
0.00421084
0.00420676
0.00419486
0.00418348
0.00417439
0.00127525
0.0021043
0.00274352
0.00315971
0.00343431
0.00358702
0.00371251
0.00383924
0.00395356
0.00405475
0.00414911
0.00423352
0.00430666
0.00437384
0.00443463
0.00448841
0.00453658
0.00457623
0.00461027
0.00462625
0.00463168
0.00464906
0.00470397
0.00128645
0.0024198
0.00305154
0.00336873
0.00362913
0.00379116
0.00392534
0.00407257
0.00420894
0.00432705
0.00443941
0.00453765
0.00461477
0.00468425
0.00475023
0.00481072
0.00486629
0.00491334
0.0049844
0.00503152
0.00502938
0.00504765
0.00513675
0.00170878
0.00250803
0.00305396
0.00342081
0.00375229
0.00392742
0.00405357
0.00420099
0.00434765
0.00448887
0.00463059
0.00476128
0.00487064
0.00496327
0.00503539
0.00509715
0.00516666
0.00521057
0.00526534
0.00533347
0.00536235
0.00537265
0.00543575
0.00199107
0.00259869
0.0030798
0.00346654
0.00378029
0.00398121
0.00414537
0.00431118
0.00447155
0.00462404
0.0047731
0.00491299
0.00503563
0.00513874
0.00522086
0.00529267
0.00536276
0.00541671
0.0054713
0.00553763
0.00559129
0.00563082
0.00571183
0.00211917
0.00265848
0.00310436
0.00348192
0.00378076
0.00401853
0.0042215
0.00440999
0.00458654
0.00475185
0.00490834
0.00505494
0.00518495
0.00529705
0.00539192
0.00547358
0.00554596
0.0056098
0.00567083
0.00573455
0.00579462
0.00585049
0.00592135
0.00218152
0.00268926
0.00312072
0.00349117
0.00380133
0.00406408
0.00429439
0.00450415
0.00469795
0.00487799
0.00504631
0.00520382
0.00534466
0.00546719
0.00557402
0.00566692
0.00574603
0.00581482
0.00587903
0.0059418
0.00600287
0.00606217
0.00612122
0.00222179
0.00271815
0.00314648
0.00351638
0.00383684
0.00411751
0.00436817
0.00459671
0.00480766
0.00500329
0.005185
0.00535399
0.00550649
0.00564135
0.00576142
0.00586666
0.00595514
0.00603005
0.00609777
0.00616171
0.00622309
0.00628171
0.00633396
0.00225354
0.00274675
0.00317741
0.00355187
0.00388261
0.00417769
0.00444457
0.00468957
0.00491665
0.00512729
0.00532205
0.00550229
0.00566631
0.00581379
0.00594701
0.00606497
0.00616501
0.00624933
0.0063241
0.00639317
0.00645769
0.00651676
0.00656648
0.00228223
0.00277847
0.00321473
0.00359599
0.00393635
0.00424384
0.00452455
0.00478411
0.00502577
0.00524998
0.00545713
0.00564888
0.0058249
0.00598533
0.00613137
0.00626205
0.00637502
0.00647152
0.00655697
0.00663511
0.00670666
0.00677025
0.00682269
0.00230906
0.00281215
0.00325651
0.00364625
0.00399636
0.00431527
0.00460872
0.00488153
0.00513625
0.00537285
0.00559221
0.00579608
0.00598491
0.00615902
0.00631848
0.00646241
0.0065895
0.00670034
0.00679926
0.00688945
0.00697133
0.00704355
0.00710343
0.00233417
0.00284683
0.00330136
0.00370106
0.00406159
0.00439188
0.00469759
0.00498298
0.00524993
0.00549867
0.00573068
0.00594756
0.00615007
0.00633858
0.00651254
0.00667122
0.0068139
0.00694108
0.00705578
0.00716043
0.00725533
0.0073393
0.0074101
0.00235759
0.00288205
0.00334872
0.00375987
0.00413171
0.00447378
0.00479178
0.00508938
0.00536844
0.00562987
0.00587542
0.00610649
0.00632383
0.00652774
0.00671777
0.00689312
0.00705327
0.00719872
0.00733139
0.00745294
0.00756353
0.00766207
0.00774654
0.00237911
0.00291769
0.00339872
0.00382288
0.00420699
0.00456135
0.00489191
0.00520202
0.00549381
0.00576903
0.0060294
0.00627611
0.00650981
0.00673071
0.00693848
0.00713244
0.00731216
0.00747796
0.00763094
0.00777203
0.00790111
0.00801708
0.008118
0.00239686
0.00295333
0.00345182
0.00389068
0.00428803
0.00465521
0.00499872
0.0053221
0.00562788
0.00591829
0.00619497
0.00645899
0.00671089
0.00695081
0.00717846
0.00739332
0.00759498
0.00778351
0.00795937
0.00812281
0.00827338
0.00840982
0.00853014
0.00240405
0.00298804
0.00350859
0.00396391
0.00437543
0.0047561
0.00511323
0.00545099
0.00577228
0.00607946
0.00637416
0.00665738
0.00692961
0.00719093
0.00744107
0.00767955
0.00790593
0.00811998
0.00832163
0.00851055
0.00868587
0.0088461
0.00898911
0.00240335
0.0030243
0.00357014
0.0040431
0.00446975
0.00486484
0.00523668
0.00559015
0.00592853
0.00625424
0.00656889
0.00687349
0.00716848
0.00745393
0.00772954
0.00799479
0.00824913
0.008492
0.00872282
0.00894077
0.00914454
0.00933229
0.00950171
0.0024024
0.00306383
0.00363678
0.00412868
0.00457154
0.00498224
0.00537017
0.00574091
0.00609811
0.00644428
0.00678109
0.00710955
0.00743011
0.00774279
0.00804725
0.00834288
0.0086289
0.00890444
0.00916843
0.00941953
0.00965598
0.00987555
0.0100756
0.00240143
0.00310732
0.00370895
0.00422102
0.00468135
0.00510905
0.00551465
0.00590442
0.00628238
0.00665121
0.00701269
0.00736786
0.00771717
0.00806063
0.00839779
0.00872792
0.00904997
0.00936268
0.00966451
0.00995357
0.0102276
0.0104839
0.0107196
0.00240419
0.00315433
0.00378679
0.00432042
0.0047996
0.00524587
0.00567091
0.00608168
0.00648261
0.00687662
0.00726562
0.00765073
0.00803245
0.00841072
0.00878503
0.0091544
0.00951752
0.00987268
0.0102178
0.0105505
0.0108678
0.0111666
0.0114433
0.00240719
0.00320511
0.00387037
0.00442705
0.00492664
0.00539319
0.00583962
0.00627358
0.00669997
0.00712199
0.00754176
0.00796051
0.0083788
0.00879653
0.00921307
0.00962722
0.0100373
0.0104411
0.010836
0.0112188
0.0115861
0.0119339
0.012258
0.00239904
0.00325969
0.00395972
0.00454101
0.00506264
0.00555133
0.00602125
0.00648082
0.00693544
0.00738868
0.00784289
0.00829949
0.00875911
0.00922166
0.00968633
0.0101517
0.0106156
0.0110752
0.0115274
0.0119681
0.012393
0.0127974
0.0131763
0.0024054
0.0033188
0.00405482
0.00466223
0.00520762
0.00572041
0.00621609
0.00670392
0.00718984
0.00767787
0.00817067
0.0086699
0.00917631
0.00968979
0.0102094
0.0107334
0.0112592
0.0117833
0.0123015
0.0128091
0.0133006
0.0137704
0.0142124
0.00240345
0.00338149
0.00415531
0.00479044
0.00536136
0.00590031
0.00642419
0.00694313
0.00746374
0.00799051
0.00852655
0.0090738
0.0096332
0.0102047
0.0107872
0.0113785
0.0119756
0.0125741
0.0131688
0.0137539
0.0143225
0.0148678
0.0153826
0.00240459
0.00344726
0.00426074
0.00492514
0.00552338
0.00609064
0.00664529
0.00719842
0.00775737
0.00832725
0.00891168
0.00951299
0.0101324
0.01077
0.0114244
0.0120933
0.0127727
0.0134573
0.0141408
0.0148157
0.0154738
0.0161064
0.016705
0.0024035
0.00351618
0.00437032
0.00506553
0.00569291
0.00629067
0.00687878
0.00746934
0.00807057
0.00868829
0.00932676
0.00998887
0.0106762
0.011389
0.012126
0.0128841
0.0136587
0.0144433
0.01523
0.0160094
0.0167713
0.0175052
0.0182005
0.00241199
0.00358619
0.00448314
0.00521053
0.0058688
0.00649929
0.00712359
0.00775498
0.00840265
0.00907326
0.00977191
0.0105022
0.0112663
0.0120647
0.0128961
0.013757
0.0146418
0.0155427
0.0164496
0.0173509
0.0182339
0.0190854
0.0198924
0.00241001
0.00365866
0.0045979
0.00535856
0.00604948
0.00671499
0.00737832
0.00805401
0.00875232
0.00948108
0.0102464
0.0110529
0.0119034
0.012799
0.0137383
0.0147176
0.0157301
0.0167661
0.0178134
0.0188574
0.019882
0.0208704
0.0218068
0.00240481
0.00373129
0.0047127
0.00550768
0.00623292
0.00693569
0.00764088
0.00836436
0.00911768
0.00990998
0.0107487
0.0116397
0.0125869
0.0135922
0.0146546
0.0157698
0.01693
0.0181235
0.0193351
0.0205465
0.0217373
0.0228863
0.0239731
0.00240314
0.00380057
0.0048252
0.00565543
0.00641659
0.0071588
0.00790859
0.00868323
0.00949574
0.0103568
0.0112757
0.0122597
0.0133144
0.0144428
0.0156446
0.0169152
0.0182459
0.0196227
0.021027
0.0224357
0.0238229
0.0251612
0.0264244
0.00240929
0.00386753
0.00493254
0.00579866
0.00659741
0.00738125
0.00817821
0.00900705
0.00988249
0.0108172
0.0118224
0.0129077
0.0140807
0.0153459
0.0167043
0.0181516
0.0196783
0.0212681
0.0228986
0.0245412
0.0261624
0.0277264
0.0291985
0.002408
0.00392622
0.00503023
0.00593343
0.00677185
0.0075996
0.00844604
0.00933153
0.0102728
0.011285
0.0123818
0.0135757
0.0148769
0.0162923
0.0178246
0.019471
0.0212215
0.0230584
0.0249552
0.0268767
0.0287798
0.0306167
0.0323399
0.00240506
0.00396933
0.00511255
0.00605517
0.00693622
0.00781029
0.008708
0.00965164
0.0106605
0.0117524
0.0129445
0.0142525
0.0156899
0.0172672
0.01899
0.0208575
0.0228614
0.0249834
0.0271941
0.029451
0.0316987
0.0338717
0.0359022
0.00240735
0.00399247
0.00517261
0.00615935
0.00708717
0.00801
0.00895989
0.00996168
0.0110378
0.0122096
0.0134981
0.0149229
0.0165019
0.0182496
0.0201762
0.0222852
0.0245719
0.0270206
0.0296011
0.0322648
0.0349409
0.037538
0.0399544
0.00241196
0.00398049
0.00520343
0.00624253
0.00722252
0.00819605
0.00919745
0.0102552
0.0113959
0.012645
0.0140276
0.0155681
0.0172891
0.0192109
0.0213495
0.0237155
0.0263116
0.0291294
0.032144
0.0353044
0.0385238
0.0416726
0.0445903
0.00240767
0.0039249
0.00519942
0.00630378
0.00734213
0.00836664
0.00941632
0.0105252
0.0117246
0.0130447
0.0145153
0.0161654
0.0180233
0.0201154
0.0224659
0.0250954
0.0280193
0.0312446
0.0347619
0.0385299
0.0424513
0.0463457
0.0499459
0.00240113
0.00381412
0.00515924
0.00634605
0.00744801
0.00852042
0.00961157
0.0107632
0.0120124
0.0133939
0.0149417
0.0166897
0.0186717
0.0209211
0.0234716
0.0263569
0.0296112
0.0332675
0.0373495
0.041851
0.0466906
0.0516377
0.0562362
0.00362357
0.0037727
0.00508569
0.00637264
0.00754168
0.00865447
0.00977641
0.0109595
0.0122466
0.0136765
0.0152867
0.0171149
0.0192001
0.0215827
0.0243062
0.0274192
0.0309798
0.0350579
0.0397344
0.0450826
0.0511102
0.0576086
0.0638432
0.017269
0.00522178
0.00500178
0.00637819
0.0076188
0.00876072
0.00990046
0.0111024
0.0124142
0.0138771
0.0155309
0.0174163
0.019576
0.022056
0.0249084
0.0281959
0.0320005
0.0364345
0.0416548
0.0478717
0.0553279
0.0641415
0.073575
0.0839809
0.0136102
0.00511389
0.0063656
0.0076669
0.00882349
0.00996942
0.0111792
0.0125027
0.0139821
0.0156583
0.0175735
0.0197724
0.0223042
0.0252259
0.0286091
0.0325518
0.0371977
0.0427689
0.0496247
0.0583835
0.0702086
0.0875476
0.00195453
0.00165692
0.00164754
0.00189246
0.00342788
0.00336596
0.00335
0.00337933
0.00415045
0.00412996
0.00411253
0.00410187
0.00471189
0.00468841
0.00465957
0.00463514
0.00518485
0.00517852
0.00512019
0.00507249
0.00549792
0.00550954
0.0054552
0.00541635
0.00575072
0.00574285
0.00570554
0.00566471
0.00594914
0.00594205
0.00591911
0.00589381
0.00614467
0.00614716
0.00614023
0.006128
0.00635654
0.00636435
0.00636634
0.00636301
0.00659037
0.00660105
0.00660706
0.00660829
0.00685001
0.00686325
0.00687201
0.00687631
0.00713643
0.0071534
0.0071658
0.0071736
0.00745077
0.00747264
0.00748979
0.00750217
0.0077968
0.0078247
0.00784778
0.00786585
0.00817977
0.0082149
0.00824504
0.00826995
0.00860551
0.00864914
0.00868756
0.00872053
0.00908038
0.00913397
0.00918208
0.00922446
0.00961155
0.00967675
0.00973615
0.00978951
0.010207
0.0102857
0.0103583
0.0104244
0.010876
0.0109703
0.0110581
0.011139
0.0116287
0.0117411
0.0118465
0.0119445
0.0124768
0.0126101
0.0127358
0.0128533
0.0134335
0.0135908
0.0137397
0.0138797
0.0145137
0.0146986
0.0148741
0.0150397
0.0157346
0.0159509
0.0161567
0.0163514
0.017115
0.0173673
0.0176077
0.0178355
0.018677
0.0189703
0.01925
0.0195153
0.020445
0.0207851
0.0211095
0.0214171
0.0224468
0.0228405
0.0232156
0.023571
0.0247139
0.0251688
0.0256016
0.026011
0.0272819
0.0278074
0.0283058
0.0287761
0.0301924
0.0307994
0.0313731
0.0319121
0.0334946
0.0341967
0.0348568
0.0354735
0.0372494
0.0380633
0.038823
0.0395272
0.0415354
0.0424821
0.0433567
0.0441586
0.0464603
0.0475654
0.0485713
0.0494788
0.0521792
0.0534722
0.0546229
0.0556368
0.0589299
0.0604375
0.0617317
0.0628318
0.0671022
0.0688189
0.070207
0.0713223
0.0773775
0.0791565
0.0804525
0.0814045
0.0909408
0.0921368
0.0928402
0.09328
0.00259009
0.00298738
0.00318659
0.00328299
0.00332285
0.00332635
0.00330209
0.00325233
0.00318127
0.0030932
0.002986
0.00285889
0.00270889
0.00253461
0.00233632
0.00210618
0.0018235
0.00144612
0.000734993
0.00346499
0.00357618
0.00364965
0.0036863
0.00369391
0.00367907
0.00364558
0.003594
0.00352595
0.0034429
0.00333786
0.00320449
0.00304153
0.0028485
0.00262274
0.00236168
0.00204674
0.00161474
0.000783232
0.00409051
0.00407577
0.00407102
0.00406449
0.00404809
0.00402072
0.00398174
0.00393039
0.00386662
0.00378988
0.0036867
0.00354583
0.00336517
0.00315094
0.00289747
0.00260198
0.00224562
0.00175632
0.000854355
0.00460675
0.00451092
0.00445806
0.00442419
0.0043909
0.0043551
0.00431264
0.00426177
0.00420262
0.00413629
0.00404132
0.00389376
0.00368854
0.00345314
0.0031754
0.00284561
0.00244915
0.00191402
0.00115589
0.00499118
0.00487767
0.00480647
0.00475222
0.00470722
0.00466353
0.00461309
0.00455361
0.00448431
0.00440758
0.00430714
0.00417777
0.00399735
0.00373457
0.00345056
0.00309472
0.00267196
0.00210961
0.00110527
0.00532674
0.00520506
0.00512263
0.00506029
0.00500786
0.00495131
0.00488084
0.00480134
0.00471604
0.00462278
0.00451272
0.00439004
0.00421515
0.00395895
0.00368161
0.00332305
0.00288671
0.00231158
0.00150488
0.00560027
0.00549717
0.00541396
0.00534269
0.00528327
0.0052148
0.00512924
0.00503642
0.00494033
0.00483481
0.00471936
0.00460711
0.00443567
0.0041237
0.00381005
0.00346403
0.00304907
0.00251668
0.00187045
0.005851
0.00576191
0.00568168
0.00561146
0.00554425
0.0054633
0.00536688
0.00526425
0.00515662
0.00503766
0.00490165
0.00474549
0.00452655
0.00421798
0.00388588
0.00352801
0.00310953
0.00258973
0.00194839
0.00609962
0.00602635
0.00595039
0.00588004
0.00580319
0.00570966
0.00560355
0.00549081
0.00536994
0.00523467
0.00507316
0.00486968
0.00460535
0.00428466
0.00393799
0.00355832
0.00312015
0.00259073
0.00194901
0.0063479
0.00629385
0.00622591
0.00615539
0.00607099
0.00596648
0.00584831
0.00572099
0.00558219
0.0054257
0.0052375
0.00499568
0.00469225
0.00434912
0.00398244
0.00357918
0.00311683
0.00257135
0.00194462
0.00660181
0.0065648
0.00650785
0.00643812
0.00634847
0.00623602
0.00610679
0.00596365
0.00580413
0.00562296
0.00540798
0.00513805
0.00480693
0.00443674
0.00404118
0.00361138
0.00312672
0.00256312
0.00194644
0.00687575
0.00684965
0.00680158
0.00673308
0.00664089
0.00652448
0.00638713
0.00623006
0.00605121
0.00584626
0.00560629
0.00531521
0.00496403
0.00456726
0.00413898
0.00367813
0.00316692
0.00257804
0.00194591
0.00717874
0.00716077
0.00711878
0.00705239
0.00696032
0.00684229
0.00669919
0.00653105
0.00633609
0.00611088
0.00584925
0.0055403
0.00517368
0.0047541
0.00429383
0.00379998
0.00325592
0.00262651
0.0019479
0.00751459
0.00750553
0.00746996
0.0074075
0.00731747
0.0071992
0.0070522
0.00687575
0.00666812
0.00642648
0.00614637
0.00582072
0.00544089
0.0050041
0.00451657
0.0039897
0.00340318
0.00270962
0.00193979
0.00788735
0.00788948
0.00786262
0.00780646
0.00772039
0.0076032
0.00745403
0.00727166
0.0070543
0.00679948
0.00650373
0.00616212
0.00576842
0.00531747
0.00480916
0.0042486
0.00361092
0.00283245
0.00191147
0.00830238
0.00831821
0.00830294
0.00825563
0.00817539
0.00806111
0.00791159
0.00772534
0.00750055
0.00723497
0.00692572
0.00656901
0.00616015
0.00569412
0.00516663
0.00457078
0.00387611
0.00300514
0.0019382
0.0087659
0.00879814
0.00879703
0.0087611
0.00868909
0.00857975
0.00843168
0.00824326
0.00801266
0.0077378
0.00741615
0.00704457
0.0066191
0.00613472
0.00558418
0.00495212
0.00419938
0.00322703
0.00195008
0.00928504
0.00933661
0.0093524
0.00933041
0.009269
0.00916663
0.00902167
0.00883241
0.00859699
0.00831338
0.00797924
0.00759172
0.00714705
0.0066398
0.00606055
0.00538934
0.00457915
0.00350397
0.00194776
0.00986783
0.00994199
0.00997763
0.00997226
0.00992379
0.00983031
0.00968996
0.00950083
0.00926097
0.0089683
0.00862049
0.00821471
0.00774707
0.00721156
0.00659727
0.00588141
0.00501096
0.00383494
0.00194957
0.0105234
0.0106238
0.0106825
0.0106965
0.0106634
0.0105807
0.0104462
0.0102579
0.0100135
0.00971074
0.00934723
0.00891991
0.0084246
0.00785472
0.00719827
0.00643075
0.00549526
0.00422399
0.00196977
0.0112618
0.0113926
0.0114779
0.0115144
0.011499
0.0114289
0.0113015
0.0111144
0.0108649
0.0105507
0.0101688
0.00971598
0.00918758
0.00857648
0.00786986
0.0070418
0.00603207
0.00465916
0.00216357
0.0120948
0.0122604
0.0123763
0.0124385
0.0124434
0.0123878
0.0122686
0.0120828
0.0118277
0.0115
0.0110967
0.0106139
0.0100464
0.00938652
0.00862067
0.00772144
0.00662479
0.0051343
0.00238764
0.0130353
0.0132407
0.0133914
0.0134828
0.0135108
0.0134716
0.0133617
0.0131776
0.0129158
0.0125728
0.0121446
0.0116271
0.0110143
0.0102977
0.00946267
0.00847984
0.0072804
0.0056498
0.00263368
0.0140978
0.0143487
0.0145389
0.0146633
0.0147173
0.0146966
0.014597
0.0144147
0.0141454
0.013785
0.0133289
0.0127718
0.0121071
0.011325
0.0104097
0.00932956
0.00800988
0.00621554
0.002893
0.0152991
0.0156014
0.0158361
0.0159975
0.0160806
0.0160805
0.0159927
0.0158125
0.0155352
0.0151557
0.0146683
0.0140667
0.013343
0.0124862
0.0114786
0.0102857
0.00882596
0.00684064
0.00316364
0.0166576
0.0170181
0.0173026
0.0175053
0.0176206
0.0176435
0.0175688
0.0173915
0.0171058
0.0167056
0.0161841
0.0155332
0.0147436
0.0138024
0.0126895
0.0113671
0.00974522
0.00753833
0.00345119
0.0181947
0.0186203
0.0189603
0.0192086
0.0193595
0.0194077
0.019348
0.0191744
0.0188804
0.0184587
0.0179006
0.0171963
0.0163342
0.0152989
0.0140674
0.0125975
0.01079
0.00832958
0.00377735
0.0199342
0.0204324
0.0208338
0.021132
0.0213218
0.0213979
0.0213549
0.0211864
0.0208849
0.0204414
0.0198454
0.0190846
0.0181442
0.0170057
0.0156422
0.0140062
0.0119883
0.00924078
0.00416589
0.0219031
0.022482
0.0229504
0.0233029
0.0235347
0.0236412
0.023617
0.0234554
0.0231479
0.0226837
0.0220499
0.0212308
0.0202078
0.0189581
0.0174495
0.0156282
0.013373
0.0103005
0.00463494
0.0241322
0.0247998
0.0253411
0.0257517
0.0260283
0.0261673
0.0261641
0.0260118
0.0257008
0.0252185
0.0245488
0.023672
0.0225646
0.0211974
0.0195316
0.0175046
0.0149816
0.0115374
0.00518901
0.0266562
0.027421
0.0280404
0.0285123
0.0288357
0.0290091
0.029029
0.0288887
0.028578
0.0280819
0.0273809
0.0264503
0.0252597
0.0237719
0.0219384
0.0196849
0.0168585
0.0129841
0.00583179
0.0295151
0.0303855
0.0310874
0.0316225
0.0319936
0.0322023
0.032247
0.0321222
0.0318166
0.0313135
0.030589
0.0296124
0.0283448
0.0267379
0.0247299
0.0222296
0.0190599
0.0146846
0.00658201
0.0327556
0.0337392
0.0345263
0.0351246
0.0355423
0.0357858
0.0358567
0.0357508
0.0354568
0.0349556
0.0342193
0.0332099
0.0318781
0.0301612
0.0279784
0.0252146
0.0216588
0.016699
0.00746655
0.0364328
0.0375358
0.0384079
0.039066
0.0395267
0.0398026
0.0398997
0.0398161
0.039541
0.0390535
0.0383214
0.037299
0.0359246
0.0341175
0.0317711
0.0287357
0.0247515
0.0191086
0.00852097
0.0406138
0.0418387
0.0427906
0.0435005
0.0439966
0.0442996
0.0444212
0.0443627
0.0441145
0.0436547
0.0429472
0.0419388
0.0405547
0.0386924
0.0362119
0.0329141
0.0284669
0.0220261
0.00978912
0.0453815
0.0467234
0.047742
0.0484889
0.0490074
0.0493285
0.0494706
0.0494387
0.0492253
0.0488085
0.0481498
0.0471899
0.0458415
0.043979
0.0414214
0.0379021
0.0329807
0.0256166
0.0113424
0.0508407
0.0522808
0.0533403
0.0540998
0.0546212
0.0549471
0.0551025
0.0550967
0.0549246
0.0545659
0.0539822
0.0531111
0.0518566
0.0500719
0.0475327
0.0438866
0.0385347
0.0301337
0.0133159
0.0571229
0.0586173
0.0596736
0.0604094
0.0609072
0.0612199
0.0613781
0.0613949
0.0612682
0.0609806
0.0604967
0.0597563
0.0586619
0.0570557
0.0546769
0.0510807
0.0454539
0.0359727
0.0159257
0.0643889
0.0658535
0.0668382
0.0675014
0.0679422
0.0682199
0.0683676
0.0684004
0.0683189
0.06811
0.0677447
0.0671714
0.0663024
0.0649865
0.0629533
0.0596907
0.0541469
0.0437639
0.0195338
0.0728211
0.0741136
0.0749328
0.0754646
0.0758118
0.0760311
0.0761533
0.0761923
0.0761506
0.0760202
0.0757809
0.0753959
0.0747994
0.0738719
0.072381
0.069832
0.0650341
0.0545185
0.0248526
0.0825879
0.083505
0.0840505
0.0843924
0.0846125
0.0847526
0.0848341
0.0848672
0.0848545
0.0847925
0.0846709
0.0844703
0.0841554
0.0836595
0.0828434
0.0813717
0.07826
0.0696449
0.0333674
0.0937611
0.0940889
0.0942725
0.0943849
0.0944569
0.0945034
0.0945318
0.0945457
0.0945463
0.0945332
0.0945042
0.094455
0.0943787
0.0942623
0.0940794
0.0937569
0.0929895
0.0896608
0.0469777
)
;

boundaryField
{
    leftWall
    {
        type            kqRWallFunction;
        value           nonuniform List<scalar> 
50
(
8.15274e-05
0.000180337
0.00025986
0.000328117
0.000387983
0.000442347
0.000493529
0.000544725
0.000615988
0.00071841
0.000879994
0.00127525
0.00128645
0.00170878
0.00199107
0.00211917
0.00218152
0.00222179
0.00225354
0.00228223
0.00230906
0.00233417
0.00235759
0.00237911
0.00239686
0.00240405
0.00240335
0.0024024
0.00240143
0.00240419
0.00240719
0.00239904
0.0024054
0.00240345
0.00240459
0.0024035
0.00241199
0.00241001
0.00240481
0.00240314
0.00240929
0.002408
0.00240506
0.00240735
0.00241196
0.00240767
0.00240113
0.00362357
0.017269
0.0839809
)
;
    }
    rightWall
    {
        type            kqRWallFunction;
        value           nonuniform List<scalar> 
50
(
0.00010679
0.000207578
0.00028956
0.000366237
0.000440271
0.000513923
0.000590089
0.000664249
0.000734993
0.000783232
0.000854355
0.00115589
0.00110527
0.00150488
0.00187045
0.00194839
0.00194901
0.00194462
0.00194644
0.00194591
0.0019479
0.00193979
0.00191147
0.0019382
0.00195008
0.00194776
0.00194957
0.00196977
0.00216357
0.00238764
0.00263368
0.002893
0.00316364
0.00345119
0.00377735
0.00416589
0.00463494
0.00518901
0.00583179
0.00658201
0.00746655
0.00852097
0.00978912
0.0113424
0.0133159
0.0159257
0.0195338
0.0248526
0.0333674
0.0469777
)
;
    }
    lowerWall
    {
        type            kqRWallFunction;
        value           nonuniform List<scalar> 
62
(
8.15274e-05
0.000211676
0.000313536
0.000394476
0.000461538
0.000517926
0.00056545
0.000605242
0.000638393
0.000666326
0.000690501
0.000712131
0.000731307
0.000745829
0.000750378
0.000737036
0.000706458
0.000660269
0.000594079
0.000514405
0.000429758
0.00029624
0.000129922
0.000129922
0.000302719
0.00043249
0.000563972
0.00070934
0.000885189
0.00113646
0.00164119
0.00195453
0.00165692
0.00164754
0.00189246
0.000198244
0.00039241
0.000497243
0.000570627
0.000634685
0.000745904
0.000960905
0.00145957
0.000198244
0.00043438
0.000610169
0.000679861
0.000705626
0.000715653
0.000710968
0.000695798
0.000671669
0.000645939
0.000593413
0.000511234
0.000474357
0.000473652
0.000440262
0.000363591
0.000265666
0.000176354
0.00010679
)
;
    }
    atmosphere
    {
        type            inletOutlet;
        inletValue      uniform 0.1;
        value           nonuniform List<scalar> 
46
(
0.1
0.0136102
0.00511389
0.0063656
0.0076669
0.00882349
0.00996942
0.0111792
0.0125027
0.0139821
0.0156583
0.0175735
0.0197724
0.0223042
0.0252259
0.0286091
0.0325518
0.0371977
0.0427689
0.0496247
0.0583835
0.0702086
0.1
0.1
0.1
0.1
0.1
0.1
0.1
0.1
0.1
0.1
0.1
0.1
0.1
0.1
0.1
0.1
0.1
0.1
0.1
0.1
0.1
0.1
0.1
0.0469777
)
;
    }
    defaultFaces
    {
        type            empty;
    }
}


// ************************************************************************* //
