/*--------------------------------*- C++ -*----------------------------------*\
  =========                 |
  \\      /  F ield         | OpenFOAM: The Open Source CFD Toolbox
   \\    /   O peration     | Website:  https://openfoam.org
    \\  /    A nd           | Version:  9
     \\/     M anipulation  |
\*---------------------------------------------------------------------------*/
FoamFile
{
    format      ascii;
    class       volScalarField;
    location    "5.25";
    object      alpha.water;
}
// * * * * * * * * * * * * * * * * * * * * * * * * * * * * * * * * * * * * * //

dimensions      [0 0 0 0 0 0 0];

internalField   nonuniform List<scalar> 
2268
(
1
0.999999
0.999999
0.999999
1
0.999999
1
0.999999
0.999999
0.999999
1
1
1
1
1
1
1
0.999967
0.999912
0.996915
0.996239
0.99668
0.99668
0.999999
0.999998
0.999998
0.999998
1
1
0.999999
0.999999
0.999999
1
1
1
1
1
1
1
0.999969
0.999969
0.999969
0.999874
0.999674
0.999986
0.999831
0.999998
0.999997
0.999998
0.999999
1
0.999999
0.999999
0.999999
0.999999
1
1
1
1
1
1
1
0.999839
0.998928
0.99517
0.999986
0.999986
0.999986
0.999986
1
0.999998
0.999999
0.999999
1
0.999999
0.999999
0.999999
0.999999
1
1
1
1
1
1
1
1
0.983704
0.979936
0.98235
0.992132
0.999861
0.999974
1
0.999999
1
1
1
1
1
0.999999
1
1
1
1
1
1
1
1
1
0.984394
0.979936
0.979936
0.983262
0.999647
0.999959
1
1
1
1
1
1
1
1
1
1
1
1
1
1
1
1
1
0.997177
0.979936
0.979936
0.989581
0.99991
0.99998
1
1
1
1
1
1
1
1
1
1
1
1
1
1
1
1
1
0.999995
0.990781
0.986106
0.997784
0.999997
1
1
1
1
1
1
1
1
1
1
1
1
1
1
1
1
0.999999
0.999999
0.999999
1
0.999759
0.99999
0.999998
1
0.990305
0.992232
0.994664
0.993892
0.991868
0.9907
0.9907
0.9907
0.99109
0.997161
0.998863
0.998855
0.99095
0.977819
0.995707
0.998579
0.998585
0.997964
0.993679
0.990305
0.999914
0.999964
0.999964
0.999964
0.999619
0.998348
0.99841
0.99939
0.998999
0.998865
0.998852
0.992317
0.977824
0.998585
0.998585
0.998585
0.998585
0.993678
0.99469
0.999384
0.999958
0.999964
0.999941
0.999921
0.99992
0.99992
0.999759
0.998771
0.998863
0.99886
0.962761
0.982438
0.998585
0.998585
0.998585
0.998577
0.993657
0.999874
0.999931
0.999885
0.999949
0.999964
0.999964
0.999851
0.998602
0.998347
0.99618
0.973988
0.964139
0.960184
0.975081
0.998502
0.998585
0.998585
0.998582
0.993658
0.999892
0.999972
0.999958
0.999957
0.999964
0.999962
0.998894
0.998273
0.998326
0.992402
0.960194
0.960184
0.960184
0.981678
0.998459
0.998585
0.989237
0.997673
0.997641
0.999981
0.999991
0.999991
0.999978
0.999952
0.999953
0.999411
0.998999
0.99978
0.997933
0.970916
0.960184
0.960184
0.998099
0.998544
0.997851
0.974616
0.996484
0.998485
0.999991
0.999992
0.999991
0.999967
0.999857
0.999857
0.999931
0.999977
0.999973
0.999009
0.989645
0.972298
0.986356
0.998538
0.998544
0.997558
0.974611
0.99669
0.998485
0.999994
0.999993
0.999992
0.999992
0.999991
0.999991
0.999991
0.999921
0.997949
0.996946
0.997617
0.998311
0.998544
0.998544
0.998544
0.998345
0.974611
0.977676
0.998485
1
1
1
1
1
1
1
0.999999
0.999999
0.999999
0.999999
0.999999
0.999999
1
1
1
1
1
1
1
1
1
1
0.917173
0.916491
0.918852
0.922023
0.927168
0.933518
0.940408
0.947607
0.955485
0.962959
0.969422
0.9752
0.980631
0.986339
0.992128
0.998679
1
1
1
1
1
0.999975
0.999935
0.195503
0.198775
0.20221
0.207918
0.213926
0.221647
0.231392
0.242997
0.256345
0.271933
0.289966
0.309916
0.331247
0.353287
0.375555
0.398033
0.424408
0.451047
0.476046
0.4922
0.502093
0.510339
0.520604
0.000730425
0.000730017
0.00072512
0.000716008
0.000710624
0.000711461
0.000710612
0.000711284
0.000714358
0.000720575
0.000730041
0.000741615
0.000756535
0.000782544
0.000896585
0.00120273
0.00177782
0.00289264
0.00327766
0.00431205
0.00557854
0.00662954
0.00733259
0.00168409
0.00168415
0.00148487
0.000846281
0.00216639
0.00366399
0.00427421
0.0046534
0.0051967
0.00519669
0.00519684
0.00519638
0.00519534
0.00519378
0.00519258
0.00519154
0.00519026
0.00363784
0.00108261
0.00189824
0.00245513
0.00223236
0.000884742
0.00108769
0.00119003
0.0012655
0.00129138
0.00128959
0.000443308
4.08047e-05
0.000205978
0.000361191
0.000542694
0.000780153
0.00100107
0.00117743
0.00121793
0.00120965
0.00104247
0.00120665
0.00155621
0.0010588
0.00125122
0.00119931
0.000754794
0.000682033
0.000155043
4.78374e-05
4.20569e-05
0.000209553
7.23762e-10
6.64826e-05
6.32819e-06
3.49217e-07
1.24006e-08
8.22321e-09
8.23064e-09
8.23064e-09
8.96437e-09
1.03017e-08
1.08945e-08
1.09055e-08
1.5592e-07
0.000167411
0.000323158
0.000126695
9.53795e-05
0.000211038
0.000683761
8.15526e-10
7.81341e-10
7.35841e-10
7.23762e-10
7.20849e-10
2.90023e-07
9.58487e-06
4.52802e-06
8.17386e-09
8.16876e-09
6.51915e-08
1.35551e-06
2.2151e-06
7.08684e-07
1.09055e-08
1.12126e-08
8.04409e-05
0.000169143
0.00012204
6.11149e-05
6.42153e-05
0.000334369
0.000497653
1.07524e-09
2.88903e-08
6.49569e-08
1.35462e-08
6.9331e-10
3.0299e-08
1.14507e-06
3.16224e-07
1.19649e-08
8.17119e-09
1.02948e-06
3.79957e-06
3.7996e-06
1.398e-06
1.11836e-08
1.45717e-07
3.3907e-05
7.04155e-05
6.64015e-05
6.0952e-05
0.000142933
0.000162275
8.56176e-05
2.36782e-09
1.24618e-07
1.44553e-07
4.91028e-08
5.55396e-10
5.57582e-10
6.11336e-10
2.65622e-09
2.72214e-09
1.02741e-07
1.54706e-06
3.7996e-06
3.0892e-06
6.26157e-09
1.42659e-08
9.91084e-08
8.61212e-08
1.18222e-07
3.59599e-06
1.85309e-05
2.18229e-05
1.9889e-08
1.98774e-08
2.6514e-09
1.05306e-07
1.44553e-07
3.88861e-08
5.55406e-10
5.55396e-10
5.55473e-10
4.86902e-08
1.31101e-06
2.13035e-06
1.99058e-06
2.07749e-07
6.76671e-08
6.26e-09
1.00974e-08
1.35565e-08
3.22352e-09
3.81593e-08
3.19865e-07
1.15453e-06
3.58995e-07
1.98774e-08
1.9869e-08
1.33897e-09
1.33897e-09
2.65452e-08
7.04402e-09
5.55396e-10
5.55406e-10
1.09183e-08
1.28672e-06
2.13061e-06
2.13061e-06
8.54011e-07
1.8288e-09
2.00781e-09
2.01732e-09
1.48571e-09
7.88091e-11
1.20556e-10
1.15362e-06
5.84005e-06
6.5595e-06
4.7139e-06
8.72422e-07
1.9869e-08
1.37226e-09
3.13033e-09
8.4621e-11
1.15724e-10
1.20278e-09
1.22202e-09
1.00049e-08
1.01024e-06
1.80242e-06
6.13037e-07
5.83214e-10
1.82768e-09
2.52489e-09
1.57257e-09
6.72271e-11
6.78509e-11
7.90405e-11
2.59158e-06
6.5595e-06
6.5595e-06
6.5595e-06
3.42695e-06
1.9869e-08
7.02152e-08
1.32427e-07
8.39364e-10
8.90876e-11
1.01886e-09
6.30741e-09
5.83265e-08
1.14275e-07
4.08127e-08
8.42251e-10
5.81736e-10
1.88528e-09
2.15494e-09
5.15354e-10
6.7202e-11
6.58959e-11
5.64821e-10
2.96122e-07
2.44787e-06
5.53638e-06
4.15974e-06
1.51527e-07
1.9869e-08
1.58849e-07
2.00716e-07
1.35983e-08
8.74706e-11
2.16429e-09
6.21133e-09
8.41786e-09
2.64687e-10
1.01198e-10
5.85899e-11
2.51279e-10
5.54548e-10
3.78235e-10
8.80814e-11
6.63972e-11
6.5869e-11
9.36304e-11
3.40695e-10
2.5954e-08
1.73555e-07
1.22369e-07
1.60351e-08
4.73348e-08
2.07634e-07
2.00736e-07
1.04202e-08
8.69112e-11
1.24876e-09
1.69015e-09
4.5957e-10
9.72806e-11
4.93167e-11
1.56546e-11
1.99855e-11
2.43267e-11
8.24679e-12
1.7305e-11
4.02634e-11
5.71556e-11
6.92603e-11
6.92727e-11
7.77163e-11
7.50435e-11
8.87877e-11
5.41425e-09
2.67794e-08
2.27499e-07
1.86687e-07
3.1503e-11
8.68986e-11
4.35664e-10
2.49337e-10
6.53526e-11
3.44173e-11
1.35001e-11
1.59321e-12
1.6334e-13
6.2203e-14
1.927e-14
1.06708e-12
1.08449e-11
3.70023e-11
6.82168e-11
8.28839e-11
8.38649e-11
7.22954e-11
4.73502e-11
8.36853e-11
4.37142e-10
2.76601e-07
1.90752e-07
3.14745e-11
4.16287e-11
1.06945e-10
5.16049e-11
9.28679e-12
3.2722e-12
4.91858e-13
-2.39095e-13
-1.05703e-12
-1.14815e-12
-9.41467e-13
-3.75184e-13
4.57022e-13
6.93777e-12
2.58344e-11
4.19888e-11
4.68769e-11
4.38133e-11
3.61756e-11
1.96735e-11
7.81596e-12
2.76612e-07
2.24841e-07
3.14636e-11
3.1452e-11
3.17736e-11
1.46295e-11
7.46125e-13
0
-8.51112e-13
-1.42685e-12
-1.82011e-12
-1.84771e-12
-1.63989e-12
-1.25839e-12
-7.25817e-13
4.88984e-14
1.00314e-12
3.0923e-12
5.47958e-12
7.07583e-12
7.90015e-12
6.1265e-12
3.27014e-12
2.76612e-07
2.74498e-07
3.14506e-11
3.1442e-11
3.14509e-11
1.18328e-11
0
-6.06455e-13
-1.25215e-12
-1.66279e-12
-1.85316e-12
-1.83556e-12
-1.67172e-12
-1.41983e-12
-1.11967e-12
-7.89465e-13
-4.68907e-13
-1.11037e-13
2.88188e-14
8.01393e-14
1.38352e-13
2.65008e-13
3.72286e-13
2.76612e-07
2.75379e-07
3.14636e-11
3.31143e-11
5.71364e-11
1.23452e-11
1.30088e-13
-4.5673e-13
-9.14571e-13
-1.2144e-12
-1.34437e-12
-1.34992e-12
-1.26074e-12
-1.10852e-12
-9.24565e-13
-7.3546e-13
-5.59394e-13
-4.03528e-13
-2.77289e-13
-1.8759e-13
-1.17754e-13
-5.50807e-14
-5.97802e-15
2.01691e-07
1.68419e-07
3.14753e-11
8.21713e-11
1.27717e-10
1.83124e-11
1.65761e-12
3.62351e-13
-1.64736e-13
-4.66173e-13
-6.40766e-13
-7.22725e-13
-7.26809e-13
-6.75102e-13
-5.88298e-13
-4.86997e-13
-3.86697e-13
-2.96626e-13
-2.21697e-13
-1.62544e-13
-1.16033e-13
-7.84389e-14
-4.8238e-14
7.63776e-09
8.88253e-09
1.19024e-10
2.30996e-10
1.86581e-10
3.12506e-11
7.10523e-12
4.53731e-12
2.45256e-12
8.47441e-13
3.86346e-14
-1.86871e-13
-2.88624e-13
-3.19052e-13
-3.04789e-13
-2.67051e-13
-2.19926e-13
-1.72328e-13
-1.30627e-13
-9.7093e-14
-7.12193e-14
-5.10811e-14
-3.47003e-14
7.12391e-11
7.31606e-11
2.32233e-10
2.87232e-10
2.073e-10
4.38176e-11
1.82092e-11
1.42674e-11
9.74764e-12
5.1544e-12
2.04132e-12
4.79073e-13
-1.13819e-14
-1.0121e-13
-1.27559e-13
-1.24285e-13
-1.08599e-13
-8.71945e-14
-6.63448e-14
-4.89377e-14
-3.56038e-14
-2.57185e-14
-1.80739e-14
7.11801e-11
7.31465e-11
2.3737e-10
2.87232e-10
1.88098e-10
5.19127e-11
3.27412e-11
2.781e-11
2.09083e-11
1.28725e-11
6.0363e-12
2.01741e-12
3.97187e-13
2.10945e-15
-4.20795e-14
-4.99102e-14
-4.79363e-14
-3.97211e-14
-3.02419e-14
-2.18864e-14
-1.5445e-14
-1.08638e-14
-7.65736e-15
7.11788e-11
6.54714e-11
1.77944e-10
2.19717e-10
1.2636e-10
5.49994e-11
4.63077e-11
4.14999e-11
3.24855e-11
2.22436e-11
1.15804e-11
4.18222e-12
8.8458e-13
7.3974e-14
-1.12843e-14
-1.816e-14
-1.95609e-14
-1.67367e-14
-1.27111e-14
-8.98194e-15
-6.07932e-15
-4.04947e-15
-2.7529e-15
9.16508e-11
5.14807e-11
6.02914e-11
7.18172e-11
6.26993e-11
5.44996e-11
5.34633e-11
5.2261e-11
4.23736e-11
3.05879e-11
1.67843e-11
5.98639e-12
1.1191e-12
7.84604e-14
-2.75407e-15
-6.40767e-15
-7.56986e-15
-6.64556e-15
-5.03957e-15
-3.47536e-15
-2.24565e-15
-1.39753e-15
-8.79227e-16
2.51587e-10
5.13888e-11
5.136e-11
5.13175e-11
5.13003e-11
5.29255e-11
5.40787e-11
5.5683e-11
4.93381e-11
3.59803e-11
2.001e-11
6.70376e-12
1.06716e-12
5.2133e-14
-7.15919e-16
-2.32253e-15
-2.85962e-15
-2.53195e-15
-1.89141e-15
-1.26412e-15
-7.80286e-16
-4.55962e-16
-2.63771e-16
1.03306e-09
4.48839e-09
3.15891e-08
5.94864e-09
5.13015e-11
5.12997e-11
5.28822e-11
5.57125e-11
5.13721e-11
3.77811e-11
2.07225e-11
6.46932e-12
7.85027e-13
2.06848e-14
-1.8208e-16
-8.41372e-16
-1.05106e-15
-9.21111e-16
-6.71567e-16
-4.34457e-16
-2.58074e-16
-1.45346e-16
-7.87189e-17
2.38393e-09
1.43029e-07
7.81991e-07
7.29659e-07
6.90656e-08
5.12912e-11
5.12882e-11
5.56642e-11
5.05834e-11
3.72575e-11
1.95524e-11
5.15628e-12
4.08823e-13
5.15459e-15
-3.48402e-17
-3.15967e-16
-3.8341e-16
-3.23996e-16
-2.27689e-16
-1.41403e-16
-8.09853e-17
-4.35256e-17
-2.20828e-17
2.67894e-09
2.75888e-07
8.34693e-07
8.34727e-07
2.83913e-07
5.12886e-11
5.12878e-11
5.42858e-11
4.78813e-11
3.39946e-11
1.58849e-11
3.18293e-12
1.50013e-13
8.11474e-16
-4.80089e-18
-1.2499e-16
-1.37908e-16
-1.09987e-16
-7.35652e-17
-4.3672e-17
-2.39695e-17
-1.22566e-17
-5.90904e-18
2.6793e-09
2.06307e-07
8.34722e-07
8.34694e-07
2.65108e-07
1.02194e-10
5.11855e-11
5.11874e-11
4.29213e-11
2.79007e-11
1.07544e-11
1.46263e-12
3.66292e-14
8.32707e-17
-1.66647e-17
-4.91389e-17
-4.82924e-17
-3.58635e-17
-2.25631e-17
-1.27469e-17
-6.61263e-18
-3.17616e-18
-1.43128e-18
2.68056e-09
4.85683e-08
6.63474e-07
5.35837e-07
7.9391e-08
1.39427e-10
5.22415e-11
4.68649e-11
3.57514e-11
2.00879e-11
5.74203e-12
4.59648e-13
5.37594e-15
4.98763e-18
-1.16287e-17
-1.86393e-17
-1.62784e-17
-1.11166e-17
-6.48969e-18
-3.43562e-18
-1.65761e-18
-7.37921e-19
-3.06903e-19
3.14049e-09
2.84855e-09
3.67197e-08
1.02868e-08
2.61342e-10
1.12504e-10
5.68588e-11
4.05503e-11
2.65791e-11
1.17666e-11
2.1311e-12
8.21642e-14
3.67454e-16
9.84817e-20
-5.6205e-18
-6.75241e-18
-5.19435e-18
-3.21402e-18
-1.71757e-18
-8.38025e-19
-3.70818e-19
-1.50832e-19
-5.70531e-20
3.31353e-09
2.21295e-09
6.95909e-10
2.45261e-10
1.19041e-10
8.40916e-11
5.05153e-11
3.0545e-11
1.60824e-11
4.84678e-12
4.51324e-13
6.69827e-15
9.06384e-18
-2.88511e-19
-2.47697e-18
-2.32935e-18
-1.54957e-18
-8.53214e-19
-4.11353e-19
-1.81564e-19
-7.25487e-20
-2.65335e-20
-8.97422e-21
3.07906e-09
2.48615e-09
1.16006e-09
5.23674e-10
2.24643e-10
8.62011e-11
3.77712e-11
1.80281e-11
6.71406e-12
1.11878e-12
4.2245e-14
2.00067e-16
7.18472e-20
-6.27822e-19
-1.02126e-18
-7.67768e-19
-4.31786e-19
-2.06118e-19
-8.75218e-20
-3.42953e-20
-1.21495e-20
-3.91944e-21
-1.1612e-21
1.52096e-09
1.73621e-09
1.15891e-09
6.10671e-10
2.51306e-10
8.05933e-11
2.37447e-11
7.28562e-12
1.51745e-12
1.0813e-13
1.34203e-15
1.8399e-18
8.29752e-23
-3.71983e-19
-3.97454e-19
-2.44378e-19
-1.13521e-19
-4.53683e-20
-1.63911e-20
-5.55659e-21
-1.70403e-21
-4.73065e-22
-1.19542e-22
1.92279e-10
4.26691e-10
5.5008e-10
3.92729e-10
1.8226e-10
5.27234e-11
1.01997e-11
1.60265e-12
1.39479e-13
3.33274e-15
1.26768e-17
4.40388e-21
-8.84938e-20
-1.82633e-19
-1.48464e-19
-7.59601e-20
-2.86136e-20
-9.21057e-21
-2.69995e-21
-7.63232e-22
-1.95836e-22
-4.51799e-23
-9.37925e-24
2.49309e-12
1.86804e-11
7.03418e-11
8.55721e-11
5.2922e-11
1.57081e-11
2.12117e-12
1.46306e-13
4.19015e-15
3.06487e-17
4.04192e-20
-7.54333e-21
-6.43792e-20
-8.07404e-20
-5.37218e-20
-2.33272e-20
-7.2352e-21
-1.82136e-21
-4.06095e-22
-8.94346e-23
-1.81045e-23
-3.27585e-24
-5.26013e-25
1.10486e-15
8.67008e-14
1.50644e-12
3.93524e-12
3.52661e-12
1.29918e-12
1.43573e-13
4.52997e-15
4.28579e-17
1.28373e-19
4.94872e-23
-1.52561e-20
-3.48874e-20
-3.34408e-20
-1.89695e-20
-7.13058e-21
-1.86719e-21
-3.66115e-22
-5.90058e-23
-9.12209e-24
-1.31408e-24
-1.67642e-25
-1.86465e-26
-2.18462e-26
4.76175e-17
4.53654e-15
2.7924e-14
3.79345e-14
1.91423e-14
2.20573e-15
4.59151e-17
2.37475e-19
2.32765e-22
-2.0718e-21
-1.09745e-20
-1.66235e-20
-1.32353e-20
-6.58232e-21
-2.18411e-21
-4.94046e-22
-7.69612e-23
-8.74777e-24
-8.36203e-25
-7.10524e-26
-5.10124e-27
-3.07993e-28
-6.03984e-26
7.4237e-21
2.4459e-18
3.77589e-17
1.16855e-16
4.52252e-17
5.90806e-18
1.39814e-19
6.35502e-22
-4.26184e-24
-2.36936e-21
-6.18239e-21
-7.32579e-21
-5.06818e-21
-2.26369e-21
-6.788e-22
-1.36997e-22
-1.80693e-23
-1.50643e-24
-7.67701e-26
-2.40852e-27
-4.72649e-29
-6.84575e-31
1
1
1
1
0.999984
0.99999
0.999989
0.999977
0.528889
0.53088
0.530976
0.52883
0.00730199
0.00754575
0.00759116
0.00762859
0.00100348
0.00171647
0.00160024
0.00142806
0.00155212
0.00171633
0.00106983
0.000562048
0.000607857
0.000366173
0.000341358
0.000893399
0.000285282
0.000137819
8.20195e-05
0.000233884
3.51135e-05
1.0215e-05
2.55722e-06
2.04553e-07
4.55276e-08
2.22465e-07
3.56861e-07
2.8186e-07
1.23345e-07
1.69805e-07
6.57378e-08
3.62384e-08
1.9869e-08
3.96533e-08
4.19801e-08
2.17589e-08
1.98689e-08
1.9869e-08
2.39815e-08
3.07918e-08
1.9869e-08
2.34544e-08
2.70005e-08
2.65178e-08
4.65654e-08
7.18961e-09
2.44255e-09
3.28242e-09
1.69104e-08
1.73866e-09
1.73805e-09
1.03679e-08
7.9724e-10
1.74809e-09
2.85658e-09
3.87017e-09
2.22697e-11
1.78166e-10
2.77256e-10
7.85782e-11
2.3526e-12
2.36814e-12
2.23061e-12
1.29719e-12
4.22023e-13
4.22609e-13
4.43234e-13
4.49774e-13
4.50003e-15
7.61479e-15
1.42185e-14
2.17366e-14
-2.66135e-14
-2.07329e-14
-1.60331e-14
-1.22125e-14
-2.15058e-14
-1.74295e-14
-1.43667e-14
-1.20569e-14
-1.16427e-14
-9.30714e-15
-7.51691e-15
-6.23486e-15
-5.09316e-15
-3.99788e-15
-3.09746e-15
-2.42213e-15
-1.88466e-15
-1.46313e-15
-1.1083e-15
-8.11217e-16
-6.14225e-16
-4.65381e-16
-3.4882e-16
-2.48924e-16
-1.87093e-16
-1.35913e-16
-9.77856e-17
-6.83851e-17
-5.48648e-17
-3.81046e-17
-2.60741e-17
-1.75912e-17
-1.50953e-17
-1.00756e-17
-6.5968e-18
-4.24867e-18
-3.87462e-18
-2.47548e-18
-1.54657e-18
-9.46706e-19
-8.92443e-19
-5.42116e-19
-3.21469e-19
-1.86358e-19
-1.80327e-19
-1.03111e-19
-5.74617e-20
-3.12493e-20
-3.12137e-20
-1.65869e-20
-8.57305e-21
-4.3154e-21
-4.50333e-21
-2.18893e-21
-1.03212e-21
-4.72776e-22
-5.24217e-22
-2.28401e-22
-9.62064e-23
-3.92437e-23
-4.73015e-23
-1.79812e-23
-6.5804e-24
-2.32321e-24
-3.13325e-24
-1.00016e-24
-3.05865e-25
-8.98541e-26
-1.39758e-25
-3.53036e-26
-8.50576e-27
-1.96122e-27
-3.53859e-27
-6.37885e-28
-1.09591e-28
-1.80124e-29
-3.29706e-29
-3.39896e-30
-3.38295e-31
-3.26012e-32
-1.78478e-32
-4.72668e-34
-1.30531e-35
-3.79936e-37
1
1
1
0.999997
0.997168
0.991257
0.990085
0.992654
0.995846
0.998043
0.998527
0.998528
0.99853
0.998544
0.998544
0.99449
0.977418
0.965487
0.986547
0.99992
0.999894
0.998566
0.993527
0.989531
0.983226
0.971967
0.959911
0.952935
0.95807
0.967479
0.968484
0.957009
0.934063
0.919057
0.921207
0.937985
0.947046
0.949495
0.522833
0.510371
0.496959
0.484936
0.471495
0.458572
0.447491
0.432669
0.412878
0.387571
0.363284
0.343385
0.327064
0.313361
0.300936
0.291487
0.287174
0.28079
0.269511
0.00689195
0.00623356
0.00544615
0.00456483
0.00416335
0.00340571
0.00233313
0.0013002
0.000830838
0.000830826
0.000830831
0.000830826
0.000831723
0.000859776
0.000961251
0.000882102
0.000831625
0.000828742
0.000828516
0.000561324
0.00055422
0.000549447
0.000530613
0.00121427
0.00243211
0.00131643
0.0012494
0.00125011
0.00110134
0.00102928
0.00112173
0.00116895
0.00125145
0.00134995
0.00135038
0.00135038
0.000871126
0.000828167
0.000561584
0.000923497
0.000886888
0.000530613
0.000992163
0.00148546
0.00173808
0.00173814
0.00171278
0.00171265
0.00171044
0.00167502
0.00141838
0.00127741
0.0013495
0.00129319
0.00103661
0.00100941
0.000827977
0.000955856
0.000955826
0.000953931
0.000953165
0.000884371
0.000358714
0.000240175
0.000252245
0.000187991
0.000136222
0.000104644
5.45483e-05
0.000189575
0.000252599
0.000204518
0.000168543
0.000139543
0.000269268
0.000335674
0.000379855
0.000223804
0.000167857
0.000309297
0.000108149
1.27014e-06
1.39228e-07
1.30751e-07
1.30734e-07
1.42025e-07
2.04911e-07
4.29572e-07
4.30563e-07
4.31948e-07
4.31854e-07
1.31212e-06
8.24222e-07
7.64254e-07
7.59764e-07
1.4149e-08
1.4149e-08
1.4149e-08
1.41495e-08
1.41527e-08
2.95495e-08
1.20104e-07
1.64894e-07
1.51355e-05
4.26794e-05
4.54824e-05
4.5637e-05
1.66135e-05
1.9339e-06
5.4783e-07
5.48056e-07
5.4903e-07
7.10983e-07
7.59976e-07
1.4149e-08
1.4149e-08
1.41495e-08
1.41527e-08
1.41757e-08
1.43057e-08
1.54018e-08
1.12511e-05
6.57255e-05
6.57362e-05
6.56835e-05
6.13331e-05
7.91259e-06
4.2423e-06
1.22041e-06
7.29946e-07
7.34315e-07
8.29718e-07
7.58109e-07
1.4149e-08
1.41509e-08
8.34414e-07
3.93284e-06
2.79898e-06
3.54221e-07
1.49499e-06
4.645e-05
6.57362e-05
4.92167e-05
1.3972e-05
1.39592e-05
4.0284e-05
3.97246e-05
2.66869e-05
1.88298e-05
6.69167e-06
8.89506e-07
7.58134e-07
1.41515e-08
1.52892e-08
8.99099e-06
2.16626e-05
1.98276e-05
3.80749e-06
8.8281e-06
5.37979e-05
4.52472e-05
5.84415e-07
1.45933e-05
4.28732e-05
4.28772e-05
4.28669e-05
4.28347e-05
4.28078e-05
3.30576e-05
8.90122e-07
1.00394e-06
3.36099e-08
1.06141e-06
1.85115e-05
2.16626e-05
2.16626e-05
2.16625e-05
1.56896e-05
5.29042e-06
3.98377e-09
5.52674e-07
2.8121e-05
4.2876e-05
3.35127e-05
9.46511e-06
3.6481e-06
6.90252e-06
6.86622e-06
1.67961e-05
1.69375e-05
2.6776e-08
9.58888e-08
7.21452e-06
2.16626e-05
2.11442e-05
4.32288e-06
4.23868e-07
3.51206e-10
3.6344e-09
3.0295e-07
2.70213e-06
3.34377e-06
1.65869e-10
1.6568e-10
1.65928e-10
2.15331e-10
5.77597e-06
1.69375e-05
1.69376e-05
2.87073e-08
1.24479e-07
3.40549e-07
1.29938e-06
1.41397e-06
1.63424e-07
1.93123e-10
3.42195e-10
5.45487e-08
1.5706e-07
1.66132e-10
1.65876e-10
1.6568e-10
1.65555e-10
1.6568e-10
2.41498e-10
7.60661e-06
1.69375e-05
1.69375e-05
5.40795e-08
9.29106e-08
5.45561e-08
2.98534e-08
1.0347e-08
3.83396e-10
1.931e-10
8.0662e-10
7.50997e-09
9.88574e-09
3.77848e-09
4.38535e-10
3.57218e-10
1.65555e-10
1.65555e-10
1.90011e-09
6.20537e-07
2.26299e-06
4.38505e-06
6.17604e-09
9.89309e-09
1.88209e-07
2.99498e-07
1.94592e-07
2.99024e-10
2.54839e-10
1.87627e-10
2.88426e-10
5.52624e-10
1.73766e-09
1.65645e-09
7.22573e-10
1.68364e-10
1.84279e-10
1.43155e-10
4.81582e-12
4.81582e-12
4.81582e-12
1.028e-12
1.26618e-09
1.63467e-07
2.99528e-07
2.99528e-07
2.95428e-07
8.93587e-08
1.87627e-10
2.27795e-10
2.54193e-09
6.53235e-09
8.43764e-10
4.25403e-10
1.97729e-10
2.25769e-10
1.93333e-10
2.86883e-11
4.81582e-12
4.81582e-12
1.02407e-12
1.0554e-12
4.93469e-09
8.54193e-08
2.64877e-07
2.95268e-07
2.24592e-07
5.17395e-10
8.18523e-09
5.58737e-08
7.84426e-08
3.66607e-08
5.62345e-09
1.48111e-10
2.20759e-10
1.94377e-10
4.37436e-11
5.12065e-12
4.81728e-12
4.28976e-13
1.78139e-13
4.36655e-15
3.81805e-10
1.18303e-08
2.92736e-08
2.21204e-08
1.26816e-08
6.02574e-08
8.04154e-08
8.04154e-08
8.04154e-08
1.30358e-08
1.47955e-10
1.47945e-10
8.66963e-11
2.28221e-11
5.1316e-12
5.26243e-12
2.52305e-14
1.55459e-14
4.36062e-15
-8.23927e-20
0
2.91663e-21
2.32385e-18
8.47315e-16
2.22934e-09
2.4701e-08
4.08718e-08
2.03282e-08
2.05868e-09
1.77554e-10
5.65308e-11
2.30529e-11
5.12058e-11
8.53386e-11
8.55552e-11
-9.2868e-15
-4.08221e-15
-1.95177e-15
-2.04203e-17
0
6.30485e-15
8.21505e-14
1.74454e-13
1.74569e-13
1.74853e-13
1.75383e-13
1.7591e-13
1.76819e-13
8.58325e-12
1.08031e-11
6.06661e-12
2.1318e-10
1.97661e-07
1.87307e-06
-1.02174e-14
-6.35573e-15
-3.8285e-15
-2.16163e-15
-1.02185e-15
-1.6115e-16
8.25699e-16
3.42577e-14
3.46447e-13
8.28071e-13
5.48862e-13
1.32561e-12
3.07237e-12
2.53769e-12
1.65402e-12
2.36945e-12
1.1074e-10
1.25375e-06
1.33514e-05
-5.31473e-15
-3.49639e-15
-2.25459e-15
-1.41789e-15
-8.6124e-16
-4.86873e-16
-2.20664e-16
9.47213e-18
4.94799e-15
6.94294e-14
2.40146e-13
6.77401e-13
1.33891e-12
7.31168e-13
5.27021e-13
1.65994e-12
1.33559e-12
1.80305e-06
1.34887e-05
-1.98086e-15
-1.28568e-15
-8.24898e-16
-5.2182e-16
-3.22012e-16
-1.99117e-16
-1.19635e-16
-6.25048e-17
-2.90523e-18
5.03586e-16
3.52471e-15
1.27539e-14
3.48672e-14
6.35875e-14
1.66074e-13
1.33456e-12
1.33481e-12
8.85951e-07
1.34887e-05
-5.9924e-16
-3.73301e-16
-2.28588e-16
-1.39019e-16
-8.52802e-17
-5.26795e-17
-3.20437e-17
-1.80671e-17
-6.64494e-18
1.37315e-17
1.26618e-16
6.33087e-16
2.97552e-15
1.39263e-14
9.47395e-14
1.47951e-12
1.33519e-12
7.73293e-08
1.34886e-05
-1.53733e-16
-9.00975e-17
-5.39754e-17
-3.25456e-17
-1.95233e-17
-1.15628e-17
-6.6806e-18
-3.4387e-18
-7.96796e-19
5.40727e-18
4.12225e-17
2.51364e-16
1.58538e-15
9.24432e-15
7.59394e-14
2.14401e-12
2.44188e-12
1.63321e-12
1.34833e-05
-3.63993e-17
-1.96047e-17
-1.08955e-17
-6.1385e-18
-3.45495e-18
-1.83848e-18
-9.28964e-19
-1.32038e-19
3.6701e-19
4.97357e-18
3.24924e-17
1.92586e-16
1.24595e-15
7.46018e-15
6.95293e-14
2.46126e-12
6.69825e-12
1.63237e-12
7.53174e-06
-8.09862e-18
-3.86277e-18
-1.90054e-18
-9.46172e-19
-4.4777e-19
0
1.91706e-19
9.6987e-19
4.10734e-18
1.10863e-17
3.67963e-17
1.8261e-16
1.1469e-15
6.84282e-15
7.91617e-14
2.76353e-12
8.38746e-12
1.63418e-12
2.10203e-06
-1.75795e-18
-7.39697e-19
-3.13493e-19
-1.17676e-19
1.9155e-20
6.81541e-19
4.60691e-18
1.87152e-17
5.82224e-17
1.46719e-16
3.14489e-16
6.69051e-16
2.01361e-15
8.65493e-15
1.09184e-13
2.45119e-12
8.36654e-12
1.63797e-12
3.39455e-06
-3.59076e-19
-1.3531e-19
-4.85466e-20
2.86757e-21
6.40132e-19
5.61627e-18
3.17423e-17
1.38559e-16
4.81876e-16
1.32576e-15
3.00838e-15
6.36194e-15
1.55669e-14
4.47577e-14
2.04152e-13
2.40657e-12
7.28229e-12
4.84526e-12
4.41855e-06
-6.49639e-20
-2.21916e-20
-5.35031e-21
9.20387e-20
1.90842e-18
2.14484e-17
1.50544e-16
7.52336e-16
2.90756e-15
8.76924e-15
2.15641e-14
5.11605e-14
1.30146e-13
3.09717e-13
6.77694e-13
2.76224e-12
6.84645e-12
3.45791e-12
2.64367e-06
-9.91747e-21
-3.04441e-21
5.8132e-22
1.50535e-19
4.30213e-18
6.48691e-17
5.72002e-16
3.25654e-15
1.41887e-14
5.02607e-14
1.48098e-13
3.98025e-13
9.33349e-13
1.76722e-12
2.65879e-12
4.53968e-12
7.67967e-12
3.45774e-12
3.45791e-12
-1.2269e-21
-3.2583e-22
1.93779e-21
1.93893e-19
7.68141e-18
1.5461e-16
1.77155e-15
1.19299e-14
6.18311e-14
2.7662e-13
1.09022e-12
3.05823e-12
5.29215e-12
7.27007e-12
8.40018e-12
9.99974e-12
8.92544e-12
3.45791e-12
1.03992e-06
-1.18e-22
-2.33658e-23
1.63677e-21
2.07426e-19
1.07258e-17
2.81493e-16
4.43586e-15
4.0029e-14
2.66517e-13
1.46496e-12
6.82387e-12
1.76699e-11
2.24054e-11
2.40659e-11
2.31709e-11
3.15595e-11
2.75385e-11
3.48629e-12
3.48885e-06
-8.38899e-24
-2.8726e-25
7.87213e-22
1.79745e-19
1.19677e-17
3.83236e-16
8.4616e-15
1.1827e-13
1.00007e-12
5.90627e-12
2.56209e-11
5.71013e-11
6.54588e-11
6.57251e-11
6.60311e-11
1.60656e-10
1.89867e-10
3.50403e-12
3.48891e-06
-4.12261e-25
8.6682e-25
3.47773e-22
8.82653e-20
1.10192e-17
4.15956e-16
1.17734e-14
2.56532e-13
2.47705e-12
1.43405e-11
5.2706e-11
1.02329e-10
1.21462e-10
1.2199e-10
1.64894e-10
5.55619e-10
7.16875e-10
3.58977e-12
3.47819e-06
-1.2686e-26
2.69953e-25
1.25378e-22
3.53995e-20
5.47382e-18
3.19435e-16
1.2729e-14
3.7147e-13
3.76377e-12
2.09061e-11
6.68345e-11
1.22908e-10
1.45082e-10
1.4271e-10
3.16882e-10
1.36001e-09
1.43284e-09
4.0004e-12
2.95993e-06
-2.05479e-28
5.76582e-26
2.60239e-23
1.11293e-20
1.99513e-18
1.14602e-16
8.47623e-15
3.96684e-13
4.07185e-12
2.19539e-11
6.4581e-11
1.09965e-10
1.39735e-10
7.86792e-11
6.29814e-10
6.56217e-09
4.11887e-09
4.99052e-12
2.63788e-06
-1.10733e-30
6.20773e-27
2.73293e-24
1.84294e-21
4.73443e-19
2.89104e-17
2.04071e-15
2.16328e-13
2.29614e-12
1.12746e-11
2.68392e-11
4.23638e-11
6.98233e-11
2.08915e-15
2.23912e-09
1.63455e-08
1.38776e-08
6.48763e-12
2.63667e-06
-1.35364e-33
3.67339e-31
5.1034e-26
1.35963e-22
4.21262e-20
3.28962e-18
2.40217e-16
3.14043e-14
3.36233e-13
1.56609e-12
3.62332e-12
6.03898e-12
8.81417e-12
2.81752e-18
3.80487e-09
1.63455e-08
1.62867e-08
1.3457e-12
2.6353e-06
-4.92423e-39
-4.8192e-41
3.73223e-33
1.30775e-27
5.75187e-24
3.24598e-21
1.29002e-18
2.0746e-16
1.9885e-15
1.06029e-14
2.97721e-14
5.43096e-14
3.47374e-14
0
7.3656e-10
5.14113e-09
3.54545e-09
-1.61444e-27
1.86025e-06
)
;

boundaryField
{
    leftWall
    {
        type            zeroGradient;
    }
    rightWall
    {
        type            zeroGradient;
    }
    lowerWall
    {
        type            zeroGradient;
    }
    atmosphere
    {
        type            inletOutlet;
        inletValue      uniform 0;
        value           nonuniform List<scalar> 
46
(
0
7.4237e-21
2.4459e-18
3.77589e-17
1.16855e-16
4.52252e-17
5.90806e-18
1.39814e-19
6.35502e-22
-4.26184e-24
-2.36936e-21
-6.18239e-21
-7.32579e-21
-5.06818e-21
-2.26369e-21
-6.788e-22
-1.36997e-22
-1.80693e-23
-1.50643e-24
-7.67701e-26
0
0
0
0
0
0
0
0
0
0
0
0
0
0
0
0
0
0
0
0
0
0
0
0
0
1.86025e-06
)
;
    }
    defaultFaces
    {
        type            empty;
    }
}


// ************************************************************************* //
