/*--------------------------------*- C++ -*----------------------------------*\
  =========                 |
  \\      /  F ield         | OpenFOAM: The Open Source CFD Toolbox
   \\    /   O peration     | Website:  https://openfoam.org
    \\  /    A nd           | Version:  9
     \\/     M anipulation  |
\*---------------------------------------------------------------------------*/
FoamFile
{
    format      ascii;
    class       volScalarField;
    location    "0.73";
    object      p_rgh;
}
// * * * * * * * * * * * * * * * * * * * * * * * * * * * * * * * * * * * * * //

dimensions      [1 -1 -2 0 0 0 0];

internalField   nonuniform List<scalar> 
2268
(
620.043
617.303
618.618
623.737
632.125
642.917
655.624
669.888
685.429
702.014
719.436
737.5
756.03
774.862
793.8
812.587
830.899
848.325
863.458
874.991
883.066
886.898
886.469
620.217
616.937
618.128
623.474
632.137
643.14
656.021
670.412
686.019
702.614
719.997
737.98
756.39
775.067
793.837
812.457
830.599
847.831
863.345
874.205
880.088
882.359
883.098
618.312
615.685
617.586
623.292
632.172
643.387
656.472
671.022
686.724
703.354
720.711
738.61
756.879
775.364
793.9
812.254
830.096
846.958
862.179
874.55
880.687
881.006
879.85
615.131
613.581
616.533
622.72
631.882
643.335
656.639
671.37
687.195
703.896
721.271
739.123
757.285
775.612
793.956
812.081
829.659
846.236
861.15
873.304
880.737
881.555
876.903
611.237
610.898
614.941
621.641
631.113
642.821
656.37
671.318
687.302
704.123
721.57
739.432
757.538
775.77
794.007
811.995
829.418
845.897
860.824
873.105
880.913
881.953
874.6
606.782
607.747
612.842
620.052
629.841
641.827
655.662
670.875
687.056
704.044
721.618
739.543
757.64
775.836
794.057
812.007
829.373
845.916
861.139
873.966
882.917
884.959
871.641
601.742
603.973
610.064
617.8
627.927
640.264
654.507
670.096
686.529
703.722
721.467
739.492
757.609
775.814
794.105
812.097
829.475
846.192
861.92
875.775
887.149
890.929
865.21
595.995
598.927
605.571
613.728
624.274
637.28
652.388
668.783
685.664
703.184
721.172
739.327
757.46
775.687
794.095
812.182
829.625
846.585
862.967
878.384
893.372
899.697
863.576
1188.24
924.003
748.905
649.058
603.709
572.52
542.93
518.253
513.905
539.368
615.405
770.424
983.03
1164.84
1258.46
1285.92
1283.54
1253.79
1223.42
1228
905.088
724.216
645.063
611.895
583.515
551.156
519.461
508.098
526.083
589.886
725.725
922.993
1101.83
1203.37
1240.33
1249.81
1238.54
1223.66
1178.48
796.391
622.402
614.59
604.784
584.698
553.928
514.726
497.485
508.567
557.958
675.554
863.02
1041.58
1149.14
1194.77
1215.18
1220.96
1215.29
1074.18
623.796
517.052
481.019
460.575
481.685
503.057
484.637
474.191
480.263
517.876
623.093
814.657
999.978
1108.98
1163.04
1201.62
1212.43
1198.34
1015.3
558.691
497.526
458.513
441.078
396.311
315.391
279.358
320.482
393.199
458.895
571.948
777.334
974.876
1080.5
1124.9
1181.79
1224.84
1192.08
948.335
593.484
541.495
567.369
526.983
365.446
289.537
232.282
191.631
182.835
246.547
444.153
743.937
962.667
1020.24
1015.7
1152.27
1212.46
1183.3
927.442
746.662
736.155
667.666
603.718
548.063
327.094
212.439
192.016
183.989
189.966
272.52
647.554
936.285
963.414
970.254
1024.26
1196.89
1179.26
1006.64
929.473
763.025
623.48
508.196
514.426
505.839
255.261
189.428
182.556
189.571
231.5
570.929
888.595
912.458
946.042
985.917
1128.28
1171.38
494.041
498.967
508.467
527.137
553.53
588.802
628.236
662.999
682.589
701.335
720.23
738.843
757.021
775.261
793.945
812.251
829.769
847.058
864.541
882.638
902.038
915.46
922.166
45.8113
55.1635
66.1678
82.5009
112.37
157.797
220.235
302.678
409.523
516.207
614.284
694.039
746.908
774.152
794.521
813.68
830.1
846.461
864.359
883.022
902.107
918.522
935.132
0.804879
0.794086
0.8644
0.926421
0.964747
0.989804
1.01586
1.52082
11.1524
39.0286
85.6106
148.69
233.271
362.459
542.195
686.61
744.043
771.418
817.566
854.344
874.707
905.503
939.207
0.741695
0.725666
0.716475
0.705433
0.694815
0.687623
0.689982
0.70938
0.737928
0.749319
0.734322
0.685633
0.638223
0.915492
0.559841
0.672473
34.6793
125.816
235.812
299.95
323.246
385.309
454.402
0.713163
0.71086
0.712804
0.711572
0.705871
0.697966
0.690384
0.680719
0.653724
0.629194
0.617682
0.619901
0.631577
0.649637
0.675796
0.709658
0.712145
0.650989
0.692498
0.813864
0.96132
1.13586
2.77592
0.686062
0.687094
0.690813
0.692413
0.690026
0.68472
0.678057
0.669026
0.65302
0.638037
0.629863
0.629897
0.636963
0.649517
0.672395
0.709392
0.749756
0.795047
0.858604
0.94273
1.04525
1.18611
1.52171
0.659628
0.660867
0.662997
0.664016
0.662947
0.660081
0.656113
0.650992
0.643555
0.635959
0.631612
0.632903
0.640436
0.654582
0.677223
0.709362
0.747436
0.794988
0.861967
0.954156
1.07687
1.24294
1.44807
0.634029
0.635492
0.637189
0.638132
0.637855
0.636473
0.634322
0.63156
0.628117
0.625162
0.624748
0.628673
0.637904
0.653168
0.675393
0.704987
0.741328
0.786994
0.847966
0.927027
1.02413
1.1375
1.24483
0.608774
0.61038
0.612088
0.61325
0.613616
0.613287
0.612494
0.611451
0.610417
0.610261
0.612312
0.617828
0.627719
0.642711
0.663499
0.690519
0.723902
0.764914
0.815729
0.876293
0.94357
1.01005
1.05776
0.583955
0.585447
0.587092
0.588399
0.589212
0.589636
0.589855
0.590082
0.590621
0.592091
0.595383
0.60141
0.610946
0.624626
0.642976
0.66631
0.69471
0.728439
0.76759
0.810672
0.853965
0.889846
0.903954
0.559522
0.560789
0.562295
0.563648
0.564725
0.565622
0.566484
0.56749
0.568897
0.571132
0.574797
0.580554
0.589011
0.600667
0.61586
0.634699
0.657016
0.682438
0.710105
0.738023
0.762811
0.778911
0.779984
0.535433
0.536434
0.537754
0.53907
0.540258
0.541389
0.542571
0.543935
0.54566
0.54803
0.551441
0.556356
0.563223
0.572392
0.584033
0.59805
0.61404
0.631247
0.648378
0.663304
0.673001
0.673079
0.660448
0.511654
0.512389
0.513487
0.514685
0.51585
0.51702
0.518266
0.519665
0.52132
0.523391
0.526119
0.529808
0.534763
0.541209
0.549175
0.558404
0.568303
0.5779
0.585723
0.589658
0.586956
0.573795
0.546552
0.488158
0.488656
0.489512
0.490525
0.491553
0.492606
0.49372
0.494922
0.496243
0.497739
0.499523
0.501766
0.504661
0.50833
0.512705
0.517418
0.521747
0.524597
0.524451
0.519289
0.506582
0.483003
0.444854
0.464944
0.465234
0.465853
0.466632
0.467435
0.468252
0.46909
0.469936
0.470756
0.47152
0.472231
0.47295
0.473769
0.474742
0.475746
0.476357
0.475789
0.472892
0.46617
0.453748
0.433361
0.402224
0.357004
0.442028
0.442127
0.442527
0.443047
0.443564
0.44406
0.444523
0.444908
0.445133
0.445097
0.444711
0.443935
0.442777
0.441235
0.439169
0.436157
0.431409
0.423786
0.411852
0.393903
0.367974
0.331824
0.282708
0.419456
0.419325
0.419555
0.419811
0.420007
0.420128
0.420151
0.420014
0.419602
0.418761
0.417324
0.415166
0.412213
0.408418
0.403641
0.397503
0.389275
0.377882
0.361984
0.34005
0.310414
0.271335
0.22069
0.397134
0.396939
0.396983
0.396967
0.396824
0.396541
0.39609
0.395403
0.394347
0.392733
0.390341
0.386967
0.382466
0.376739
0.369651
0.360887
0.349824
0.335501
0.316708
0.292082
0.260217
0.219794
0.169214
0.375128
0.374972
0.374835
0.374556
0.374074
0.373379
0.372445
0.371204
0.369521
0.367191
0.363959
0.359566
0.353796
0.346497
0.337526
0.326633
0.31332
0.296779
0.275958
0.249663
0.216705
0.176082
0.126596
0.35356
0.353397
0.353128
0.352613
0.351811
0.350717
0.349311
0.347532
0.345254
0.342274
0.338325
0.33311
0.326359
0.317862
0.307454
0.294928
0.279904
0.261747
0.239584
0.212399
0.179189
0.139179
0.0914579
0.332446
0.332277
0.331903
0.331182
0.330087
0.328621
0.326772
0.324487
0.321657
0.318096
0.313542
0.307688
0.300225
0.290894
0.279492
0.265828
0.249611
0.230367
0.207415
0.179929
0.147077
0.108254
0.062754
0.311821
0.311653
0.3112
0.310303
0.30895
0.307152
0.3049
0.302155
0.298825
0.294749
0.289689
0.283348
0.275403
0.26556
0.253579
0.239256
0.222354
0.202523
0.179259
0.151929
0.119873
0.0826322
0.039653
0.291724
0.291565
0.291052
0.29001
0.28844
0.286357
0.283755
0.280606
0.276836
0.272311
0.266829
0.260118
0.251868
0.241773
0.229563
0.215014
0.197906
0.177968
0.154838
0.128053
0.0971248
0.0617302
0.0214392
0.272184
0.272044
0.271488
0.270332
0.268587
0.26627
0.263381
0.259893
0.255751
0.250847
0.245015
0.238024
0.229594
0.219431
0.207255
0.192825
0.175921
0.156314
0.133733
0.107851
0.0783286
0.0449672
0.0074449
0.253229
0.253112
0.252526
0.251286
0.249408
0.246914
0.243801
0.240049
0.23561
0.230404
0.224296
0.217099
0.208575
0.198459
0.186487
0.172414
0.156018
0.137088
0.11541
0.0907452
0.0628686
0.0316861
-0.00303137
0.234874
0.234784
0.234179
0.23288
0.230912
0.228295
0.225026
0.221085
0.216435
0.211009
0.204705
0.197374
0.188822
0.178829
0.167156
0.153576
0.137873
0.11985
0.0993223
0.0761093
0.0500615
0.0211592
-0.0107512
0.217127
0.217063
0.216448
0.215115
0.213095
0.210407
0.207048
0.202997
0.198221
0.192667
0.186255
0.178868
0.170356
0.160539
0.14922
0.136199
0.121278
0.104277
0.0850336
0.0634016
0.0392799
0.0126935
-0.0164549
0.199986
0.199946
0.199329
0.197983
0.195945
0.193236
0.189848
0.185761
0.180946
0.175357
0.168931
0.161576
0.153177
0.143594
0.13267
0.120238
0.10613
0.090187
0.072266
0.0522473
0.0300594
0.00575086
-0.0207369
0.183441
0.183423
0.182809
0.181469
0.179446
0.176757
0.173397
0.169343
0.16457
0.159038
0.152692
0.145462
0.137259
0.127975
0.11749
0.105672
0.0923849
0.0774941
0.0608788
0.0424408
0.0221281
-1.61067e-07
-0.0239749
0.167475
0.167474
0.16687
0.165553
0.163571
0.160943
0.157659
0.153701
0.149043
0.143649
0.137475
0.130462
0.12254
0.11363
0.103639
0.0924675
0.080009
0.0661554
0.0508085
0.033889
0.0153598
-0.00471531
-0.0263477
0.152066
0.152076
0.151486
0.150207
0.148291
0.145757
0.142594
0.138785
0.134306
0.129124
0.123203
0.116493
0.10894
0.10048
0.0910461
0.0805633
0.068951
0.0561257
0.0420106
0.0265448
0.00970363
-0.00844859
-0.0279072
0.137185
0.137199
0.136626
0.135398
0.13357
0.131159
0.128156
0.124542
0.120296
0.115392
0.109794
0.103465
0.0963579
0.0884241
0.0796121
0.0698668
0.0591282
0.0473333
0.034425
0.0203594
0.00512289
-0.011221
-0.0286554
0.122799
0.122805
0.122251
0.121088
0.119368
0.117108
0.114295
0.110916
0.106952
0.102378
0.0971662
0.0912828
0.0846903
0.0773492
0.0692198
0.0602612
0.0504287
0.0396759
0.0279624
0.0152592
0.0015627
-0.0130648
-0.0285973
0.108871
0.108851
0.108319
0.107235
0.105643
0.103555
0.100963
0.0978529
0.0942093
0.0900115
0.0852354
0.0798524
0.073831
0.0671388
0.0597446
0.0516174
0.0427238
0.0330299
0.0225085
0.0111435
-0.00105999
-0.0140409
-0.0277672
0.0953567
0.095292
0.0947846
0.0937923
0.0923467
0.0904539
0.0881068
0.0852954
0.082006
0.0782218
0.0739222
0.0690831
0.0636778
0.0576798
0.051064
0.0438061
0.0358805
0.0272626
0.0179353
0.00789265
-0.00285231
-0.0142398
-0.0262336
0.082213
0.0820839
0.0816005
0.0807131
0.0794307
0.077753
0.075675
0.0731881
0.0702815
0.0669414
0.0631508
0.0588894
0.054135
0.0488658
0.0430616
0.0367027
0.0297686
0.0222413
0.0141104
0.00537813
-0.00393605
-0.013773
-0.0240932
0.0693867
0.0691753
0.0687156
0.0679444
0.0668423
0.065401
0.0636148
0.0614763
0.0589769
0.0561057
0.0528491
0.0491906
0.0451125
0.0405972
0.0356281
0.0301892
0.0242635
0.0178369
0.0109036
0.0034706
-0.00443736
-0.0127617
-0.0214592
0.0568364
0.0564823
0.0560664
0.0554255
0.0545256
0.0533447
0.0518735
0.0501053
0.0480336
0.0456506
0.0429464
0.0399085
0.0365236
0.0327781
0.028659
0.024153
0.0192462
0.0139265
0.00819024
0.00204666
-0.00447705
-0.0113239
-0.0184458
0.0444613
0.043956
0.0435476
0.0430917
0.0424382
0.0415492
0.0404166
0.039037
0.0374079
0.0355256
0.0333847
0.0309772
0.0282941
0.0253256
0.0220622
0.0184938
0.0146089
0.0103973
0.00585536
0.000992106
-0.00416641
-0.0095672
-0.0151577
0.0321234
0.0314435
0.0311247
0.0309609
0.0306369
0.0300766
0.0292981
0.0283133
0.0271287
0.0257475
0.0241692
0.0223903
0.0204055
0.0182087
0.0157937
0.0131536
0.0102798
0.00716423
0.00380356
0.00020527
-0.00360777
-0.00758924
-0.0116847
0.0196209
0.0188029
0.0188003
0.0191533
0.0192348
0.0189939
0.0185493
0.0179378
0.0171802
0.0162862
0.015259
0.0140979
0.0128001
0.0113619
0.00977986
0.00804995
0.00616709
0.00412645
0.00192751
-0.000421822
-0.0029013
-0.00547254
-0.0080885
0.00680283
0.00610101
0.00600012
0.00671951
0.0069996
0.00698725
0.00683719
0.00659954
0.00629388
0.0059287
0.00550664
0.005027
0.00448749
0.00388556
0.00321877
0.0024847
0.00168099
0.00080683
-0.000134735
-0.00113468
-0.00217561
-0.00322806
-0.00425327
996.283
1019.28
1029.56
1033.37
963.855
973.092
970.844
963.63
966.65
986.955
991.62
981.397
474.253
692.384
1019.61
1044.71
10.7556
106.645
697.046
997.587
2.24778
5.40616
146.584
600.761
1.5579
2.29968
7.46421
228.057
1.27075
1.47853
2.67691
22.0084
1.06534
1.12353
1.37775
3.26612
0.884251
0.881967
0.907019
1.03506
0.76448
0.762146
0.777922
0.816059
0.638307
0.625834
0.617393
0.623069
0.512932
0.490119
0.464018
0.433596
0.402173
0.371387
0.337377
0.296003
0.308675
0.272371
0.232556
0.188639
0.23197
0.193143
0.150205
0.104926
0.169962
0.131025
0.0878558
0.043018
0.119884
0.0822095
0.0405838
-0.0022337
0.0793701
0.0435875
0.00430988
-0.0357238
0.0467252
0.0131208
-0.0234963
-0.0605166
0.0207737
-0.0105099
-0.0443806
-0.0784163
0.000574213
-0.0283418
-0.059506
-0.0907041
-0.0147176
-0.0413179
-0.0699038
-0.0984595
-0.0258514
-0.0502545
-0.0764435
-0.102573
-0.0335434
-0.0558687
-0.079836
-0.103744
-0.0385489
-0.0588772
-0.0807406
-0.102577
-0.0416199
-0.0600002
-0.0798145
-0.0996575
-0.0433836
-0.0598663
-0.0776595
-0.0955382
-0.0442549
-0.0589183
-0.0747358
-0.0906766
-0.0444372
-0.0573955
-0.0713262
-0.0853895
-0.0439886
-0.0553817
-0.0675586
-0.0798497
-0.0429013
-0.0528776
-0.0634591
-0.0741187
-0.0411565
-0.0498584
-0.0590093
-0.0681945
-0.0387597
-0.0463098
-0.054185
-0.0620534
-0.0357543
-0.0422516
-0.0489818
-0.0556744
-0.032217
-0.0377389
-0.0434272
-0.0490594
-0.028246
-0.0328505
-0.0375749
-0.042236
-0.0239476
-0.0276792
-0.0314979
-0.0352547
-0.0194251
-0.0223202
-0.0252755
-0.0281772
-0.0147607
-0.0168471
-0.0189718
-0.0210571
-0.01002
-0.0113175
-0.0126215
-0.0138892
-0.00495852
-0.00542376
-0.00588288
-0.00632194
1064.5
897.343
647.358
342.335
161.95
199.568
351.644
302.91
182.064
175.999
186.198
228.004
549.596
845.857
864.424
909.618
950.856
1049.68
1152.23
955.835
686.972
193.263
119.096
118.775
118.438
119.632
194.501
164.512
160.552
174.277
285.833
716.866
809.789
837.899
927.527
982.16
1077.88
1132.78
939.065
396.148
117.498
118.486
119.121
118.241
118.096
117.942
140.797
146.004
154.12
327.951
794.422
877.085
865.831
747.701
1060.06
1112.01
1124.13
972.774
348.353
118.476
118.558
118.574
118.368
118.189
117.558
123.672
135.307
139.96
561.933
850.114
902.616
845.387
272.881
649.711
1110.44
1132.36
1034.07
411.389
118.652
118.779
118.822
118.835
118.599
118.558
120.78
127.374
150.131
865.89
908.369
948.865
481.008
241.092
238.575
786.254
1161.35
875.199
659.346
164.136
119.109
119.178
119.207
119.024
118.947
119.211
120.073
218.549
929.243
977.815
724.258
226.007
231.942
229.995
238.253
901.977
641.752
795.933
411.81
118.902
119.373
119.293
119.095
118.795
118.584
115.491
736.574
1003.53
878.127
269.259
223.391
291.984
289.492
227.058
222.695
429.896
829.105
766.31
119.09
119.454
119.347
119.129
118.773
118.925
116.635
1064.55
992.47
308.428
243.631
321.922
438.076
443.001
284.054
201.997
116.063
750.739
872.016
577.808
118.916
119.575
119.366
119.046
118.354
166.067
1114.47
386.754
240.593
271.764
422.851
427.095
446.694
443.672
201.633
2.59635
348.269
903.243
948.734
436.065
118.672
118.483
117.723
112.864
1038.45
1197.57
215.827
230.473
400.781
397.175
356.83
425.01
454.032
408.6
0.831894
15.839
484.91
941.605
974.926
601.606
175.625
164.925
646.764
1318.02
671.048
244.71
260.188
384.026
200.121
20.6573
99.9168
440.009
457.714
0.646648
0.439637
12.183
432.825
947.732
951.393
960.416
969.771
943.84
967.13
143.349
176.183
314.009
183.868
6.27651
10.5886
37.6553
324.738
461.691
0.382296
0.257187
0.0316009
5.25575
218.866
628.674
718.255
661.943
509.155
75.8113
16.6196
86.9847
107.31
2.2915
2.79192
4.1641
55.991
309.803
452.71
0.213436
0.0631776
-0.0701062
-0.108282
1.01403
14.8326
37.4817
24.4114
2.04663
1.49165
11.4201
37.1193
3.50354
3.04882
1.43483
0.382766
20.7569
301.828
348.568
0.105641
-0.0513705
-0.221971
-0.354872
-0.510932
-1.03376
-1.64611
-1.33706
-0.991946
0.717096
18.0158
20.3469
13.7498
6.46217
0.262579
-0.774164
-1.02295
91.9075
334.353
0.0257607
-0.114561
-0.284959
-0.463829
-0.623549
-0.785055
-0.885682
-0.976953
-1.02469
3.47805
6.43416
-1.03457
-0.0540892
-0.470811
-0.698471
-0.874634
-1.09165
-0.778523
383.876
-0.0322483
-0.154243
-0.297917
-0.457358
-0.6199
-0.761076
-0.84767
-0.920583
-0.469787
2.47683
-1.19324
-1.12062
-1.03688
-0.909126
-0.827321
-0.836637
-0.84886
-0.447714
402.234
-0.0725281
-0.1801
-0.301284
-0.431048
-0.564062
-0.688509
-0.788523
-0.853631
-0.325339
-0.564042
-1.13799
-1.11843
-1.08005
-1.00874
-0.936835
-0.863111
-0.681771
1.16044
414.67
-0.100451
-0.196172
-0.301634
-0.412132
-0.522715
-0.627484
-0.721725
-0.796336
-0.637685
-1.01654
-1.09691
-1.11877
-1.10991
-1.08418
-1.04249
-0.980584
-0.812944
5.26892
125.91
-0.119723
-0.205229
-0.298194
-0.395161
-0.492075
-0.585159
-0.675038
-0.757114
-0.868336
-0.972811
-1.04914
-1.09678
-1.11909
-1.12339
-1.11766
-1.14097
-1.15556
2.92402
-0.583224
-0.132445
-0.209036
-0.29135
-0.376972
-0.463054
-0.54746
-0.631887
-0.719273
-0.814538
-0.90908
-0.987462
-1.04561
-1.0822
-1.10399
-1.11911
-1.1771
-1.28228
-1.51179
-0.96814
-0.139975
-0.208724
-0.281815
-0.357504
-0.433822
-0.510091
-0.587088
-0.667212
-0.752181
-0.836602
-0.910483
-0.967616
-1.00542
-1.0276
-1.03565
-1.06815
-1.1136
-1.3418
-0.785751
-0.143379
-0.205177
-0.270204
-0.337134
-0.404565
-0.472311
-0.541144
-0.612368
-0.686234
-0.758793
-0.822775
-0.872104
-0.903294
-0.917073
-0.908714
-0.902631
-0.87778
-1.00314
35.328
-0.143524
-0.199141
-0.257077
-0.316259
-0.375613
-0.435148
-0.49548
-0.557193
-0.619705
-0.679781
-0.731996
-0.771081
-0.793202
-0.797228
-0.782678
-0.7301
-0.682625
-0.73065
135.387
-0.141083
-0.191201
-0.242912
-0.295273
-0.347371
-0.399231
-0.451286
-0.503687
-0.555489
-0.603981
-0.645041
-0.674316
-0.688108
-0.684482
-0.662997
-0.587103
-0.527609
-0.436576
140.432
-0.136601
-0.181811
-0.228064
-0.274485
-0.320199
-0.365151
-0.40961
-0.453531
-0.495938
-0.534624
-0.566437
-0.587856
-0.595547
-0.587424
-0.558747
-0.483307
-0.428232
-0.12856
145.218
-0.130568
-0.171349
-0.212796
-0.254069
-0.294276
-0.333231
-0.371068
-0.407702
-0.442339
-0.473297
-0.498218
-0.514369
-0.518897
-0.509627
-0.476354
-0.401805
-0.340626
0.191269
149.928
-0.123452
-0.160172
-0.197326
-0.234108
-0.269596
-0.303465
-0.335733
-0.366357
-0.394834
-0.420029
-0.440316
-0.453777
-0.458308
-0.451979
-0.422251
-0.348963
-0.289091
2.79365
153.32
-0.115675
-0.148609
-0.181856
-0.214646
-0.246048
-0.275617
-0.30327
-0.329028
-0.352695
-0.373673
-0.391061
-0.403871
-0.411155
-0.412115
-0.39705
-0.34358
-0.331424
6.03752
39.6163
-0.107569
-0.136941
-0.166566
-0.195725
-0.223505
-0.249382
-0.273179
-0.294951
-0.314761
-0.332484
-0.347873
-0.360853
-0.371814
-0.381926
-0.350987
-0.38397
-0.424857
6.14923
-0.466096
-0.0993495
-0.125367
-0.151598
-0.177384
-0.201869
-0.224485
-0.244973
-0.263371
-0.279894
-0.294751
-0.308152
-0.32061
-0.333356
-0.348557
-0.323817
-0.379891
-0.45123
5.08724
-0.176027
-0.091122
-0.113995
-0.137037
-0.159655
-0.181078
-0.200732
-0.21825
-0.233704
-0.247229
-0.259294
-0.27022
-0.28071
-0.291897
-0.305569
-0.276591
-0.319621
-0.379455
-0.347825
-0.077902
-0.0829121
-0.102861
-0.122919
-0.14256
-0.161104
-0.178005
-0.192682
-0.205305
-0.216366
-0.225708
-0.233744
-0.241104
-0.248367
-0.233021
-0.21511
-0.223051
-0.252175
-0.191743
-0.0459354
-0.0747009
-0.09195
-0.109244
-0.126109
-0.141951
-0.156269
-0.168547
-0.178404
-0.187354
-0.193961
-0.199122
-0.203061
-0.205793
-0.194936
-0.200045
-0.144354
-0.0254994
-0.0624896
0.0463902
-0.066455
-0.0812263
-0.095991
-0.110315
-0.123666
-0.135569
-0.145673
-0.153356
-0.158345
-0.162866
-0.166814
-0.167724
-0.165269
-0.16096
-0.151936
-0.0553362
0.505783
0.346141
0.112593
-0.0581488
-0.0706488
-0.0831296
-0.095194
-0.106332
-0.116026
-0.123967
-0.130077
-0.129094
-0.131083
-0.132062
-0.134067
-0.13117
-0.123247
-0.111345
0.387668
0.566818
0.535218
0.157588
-0.049775
-0.0601787
-0.07062
-0.0807547
-0.0900551
-0.0978153
-0.103741
-0.107991
-0.106384
-0.105691
-0.104797
-0.103419
-0.101827
-0.0928515
0.295656
0.577318
0.611254
0.268598
0.169672
-0.0413491
-0.0497828
-0.0583909
-0.0669564
-0.0749238
-0.0810892
-0.0851304
-0.0876651
-0.0885013
-0.0839656
-0.0815695
-0.0818598
-0.0777041
0.178117
0.592948
0.610111
0.495391
0.0615207
0.168116
-0.0329076
-0.0394333
-0.0463047
-0.0535975
-0.0608839
-0.0659338
-0.0681529
-0.0691185
-0.0690786
-0.0675837
-0.0648631
-0.0611592
-0.0565409
0.100759
0.237229
0.107825
-0.0108989
0.0366954
0.322408
-0.0244822
-0.0291157
-0.0342091
-0.0404032
-0.0480603
-0.0533342
-0.0536045
-0.0530812
-0.05202
-0.0498847
-0.0464207
-0.0407597
-0.0336608
-0.0283905
-0.021077
-0.0156168
-0.0112877
0.0168532
0.288706
-0.0159821
-0.0187549
-0.0221581
-0.0279642
-0.0390844
-0.0477329
-0.0449677
-0.0425361
-0.0403639
-0.0370388
-0.0319269
-0.0242385
-0.0147326
-0.00388943
0.00883337
0.00706468
-0.0145974
-0.0100535
0.221015
-0.0070474
-0.00801368
-0.00998789
-0.0172214
-0.0426286
-0.0472632
-0.0375419
-0.0322213
-0.0289368
-0.0248742
-0.0189202
-0.0102764
0.00276413
0.0268198
0.0691184
0.0590293
-0.0191951
-0.0837417
0.0964422
)
;

boundaryField
{
    leftWall
    {
        type            fixedFluxPressure;
        gradient        uniform 0;
        value           nonuniform List<scalar> 
50
(
620.043
620.217
618.312
615.131
611.237
606.782
601.742
595.995
494.041
45.8113
0.804879
0.741695
0.713163
0.686062
0.659628
0.634029
0.608774
0.583955
0.559522
0.535433
0.511654
0.488158
0.464944
0.442028
0.419456
0.397134
0.375128
0.35356
0.332446
0.311821
0.291724
0.272184
0.253229
0.234874
0.217127
0.199986
0.183441
0.167475
0.152066
0.137185
0.122799
0.108871
0.0953567
0.082213
0.0693867
0.0568364
0.0444613
0.0321234
0.0196209
0.00680283
)
;
    }
    rightWall
    {
        type            fixedFluxPressure;
        gradient        uniform 0;
        value           nonuniform List<scalar> 
50
(
1223.42
1223.66
1215.29
1198.34
1192.08
1183.3
1179.26
1171.38
1152.23
1132.78
1124.13
1132.36
1161.35
901.977
222.695
201.997
201.633
408.6
457.714
461.691
452.71
348.568
334.353
383.876
402.234
414.67
125.91
-0.583224
-0.96814
-0.785751
35.328
135.387
140.432
145.218
149.928
153.32
39.6163
-0.466096
-0.176027
-0.077902
-0.0459354
0.0463902
0.112593
0.157588
0.169672
0.168116
0.322408
0.288706
0.221015
0.0964422
)
;
    }
    lowerWall
    {
        type            fixedFluxPressure;
        gradient        uniform 0;
        value           nonuniform List<scalar> 
62
(
620.043
617.303
618.618
623.737
632.125
642.917
655.624
669.888
685.429
702.014
719.436
737.5
756.03
774.862
793.8
812.587
830.899
848.325
863.458
874.991
883.066
886.898
886.469
886.469
883.098
879.85
876.903
874.6
871.641
865.21
863.576
996.283
1019.28
1029.56
1033.37
1188.24
1228
1178.48
1074.18
1015.3
948.335
927.442
1006.64
1188.24
924.003
748.905
649.058
603.709
572.52
542.93
518.253
513.905
539.368
615.405
770.424
983.03
1164.84
1258.46
1285.92
1283.54
1253.79
1223.42
)
;
    }
    atmosphere
    {
        type            totalPressure;
        rho             rho;
        psi             none;
        gamma           1;
        p0              uniform 0;
        value           nonuniform List<scalar> 
46
(
0
0
0
-5.50845e-06
-2.28092e-05
-4.58865e-05
-7.38972e-05
-0.000107561
-0.000148181
-0.00019744
-0.000257373
-0.000330381
-0.000419223
-0.000526944
-0.000656671
-0.000811182
-0.000992144
-0.00119895
-0.0014272
-0.00166708
-0.00190177
-0.00210689
-0.00225258
-0.0022947
-0.00230336
-0.00229292
-0.00225936
-0.00215163
-0.00176289
-0.0011991
-0.000593179
-7.95538e-05
0
0
0
0
0
0
0
0
0
0
0
-0.0011311
-0.00090635
0
)
;
    }
    defaultFaces
    {
        type            empty;
    }
}


// ************************************************************************* //
