/*--------------------------------*- C++ -*----------------------------------*\
  =========                 |
  \\      /  F ield         | OpenFOAM: The Open Source CFD Toolbox
   \\    /   O peration     | Website:  https://openfoam.org
    \\  /    A nd           | Version:  9
     \\/     M anipulation  |
\*---------------------------------------------------------------------------*/
FoamFile
{
    format      ascii;
    class       volVectorField;
    location    "11.4";
    object      U;
}
// * * * * * * * * * * * * * * * * * * * * * * * * * * * * * * * * * * * * * //

dimensions      [0 1 -1 0 0 0 0];

internalField   nonuniform List<vector> 
918
(
(2.47629 -0.138942 0)
(0.108704 0.722546 0)
(0.176555 1.12707 0)
(2.31834 0.153729 0)
(-0.0563086 1.23607 -1.2057e-19)
(-0.0924034 0.643931 -5.33645e-18)
(0.521699 0.839539 -3.05451e-19)
(0.283427 0.157807 -3.00295e-20)
(3.00616 -0.0195716 0)
(-0.00994315 0.488243 0)
(-0.0190472 0.612799 0)
(0.607386 0.00646991 0)
(0.0107054 0.439105 0)
(-0.00289554 0.421713 0)
(0.014587 0.345184 -1.31537e-18)
(-0.0049039 0.745391 -9.20942e-20)
(0.319715 0.0755647 2.15683e-18)
(0.0782017 0.64835 -2.29367e-19)
(1.52891 0.128606 0)
(-0.0291985 0.722237 0)
(0.201197 0.162484 -1.27471e-18)
(3.08302 -0.397389 0)
(2.92444 -0.505998 0)
(1.86114 -0.181112 0)
(0.515506 0.0399392 0)
(-0.0252601 0.521504 0)
(-0.00135354 0.494037 1.87176e-18)
(-0.0228144 1.48232 0)
(0.0815692 3.00611 0)
(0.173944 1.83603 0)
(-0.0347493 3.0709 0)
(0.0282556 1.59215 9.26997e-20)
(0.0227024 0.666768 0)
(-0.147425 0.775094 -2.03995e-22)
(-0.193914 1.0291 4.44006e-18)
(-0.0415772 1.04471 0)
(0.743989 -0.00607871 0)
(0.165986 0.253625 6.69094e-19)
(0.976863 1.49228 6.7068e-19)
(0.638401 0.772383 -5.30583e-19)
(0.787723 1.5585 6.42833e-20)
(0.411614 0.845266 -3.31821e-19)
(0.571041 0.316676 2.95335e-20)
(0.306477 0.158127 0)
(0.944287 0.555884 0)
(0.55153 0.314553 1.32729e-19)
(0.267222 0.168299 -1.36199e-19)
(0.871409 -0.0555125 0)
(3.02784 -0.00172737 0)
(3.00685 0.0178542 0)
(3.20085 -0.417758 0)
(3.04288 -0.0742364 0)
(3.03116 -0.0388569 0)
(0.0168367 0.904014 -1.14292e-18)
(-0.0535951 0.993469 0)
(0.00268011 0.465119 0)
(-0.0309657 1.00628 0)
(-0.0128779 0.496825 0)
(-0.00257553 0.855441 0)
(-0.0530851 1.15227 0)
(-0.0127418 0.5628 0)
(-0.0287326 1.21232 0)
(-0.00789086 0.649755 0)
(0.78821 0.0113089 0)
(1.17329 -0.00190048 0)
(0.619917 0.012227 0)
(1.13072 0.0174609 0)
(0.572322 0.00842744 0)
(0.225406 0.921982 1.96849e-18)
(0.0985379 1.2081 0)
(0.176302 1.06604 0)
(0.0331901 0.755774 2.20944e-23)
(0.0372233 0.498055 -2.94404e-18)
(0.0194616 0.747943 0)
(0.00595418 0.422033 0)
(-0.000708469 0.734564 4.54273e-24)
(0.000699155 0.41483 0)
(-0.0169706 0.743239 0)
(-0.0129804 0.428054 0)
(0.0522595 0.660662 0)
(0.0507369 0.46741 0)
(0.00977518 0.627808 1.24366e-18)
(0.00166256 0.346675 0)
(-0.0630914 4.62724 0)
(0.00824686 1.41473 9.14304e-20)
(-0.00995469 0.762865 -1.17559e-19)
(0.650493 0.154732 -7.5242e-19)
(0.327895 0.0662811 -7.29765e-19)
(0.661335 0.173529 -2.25981e-18)
(0.325974 0.0977767 -1.4557e-18)
(0.079276 0.629137 0)
(0.177599 1.31824 1.91451e-19)
(0.178352 0.732151 -3.055e-19)
(2.06045 0.260883 0)
(1.10715 0.118418 0)
(3.03313 0.103877 0)
(3.10393 0.446048 0)
(2.83923 0.377426 -1.0117e-17)
(2.57811 0.361301 7.76297e-18)
(-0.070872 1.33039 0)
(-0.0109047 0.660036 0)
(-0.0153105 2.01045 0)
(-0.0552494 1.42475 0)
(-0.0505935 0.71817 0)
(0.453717 0.306647 4.03473e-19)
(0.232484 0.169066 0)
(2.29603 -0.266435 0)
(1.32366 -0.119299 0)
(1.08245 0.0121161 0)
(1.01987 0.0182306 0)
(0.544143 0.0103134 0)
(1.01195 0.0554763 0)
(0.828863 0.0707347 0)
(0.346658 0.0287452 3.36254e-18)
(-0.00547948 0.451414 1.78492e-18)
(-0.0271752 0.78483 0)
(-0.047823 0.84816 0)
(-0.0153714 0.460757 0)
(0.000130584 0.839723 1.82551e-18)
(7.06554e-05 0.487527 0)
(-0.0054792 0.845554 -5.61876e-18)
(-0.0048864 0.496761 1.89578e-18)
(0.0570558 3.68954 0)
(0.0475318 4.11684 0)
(-0.0154087 1.3677 -2.0693e-21)
(-0.0134506 1.32277 0)
(-0.00923272 0.71969 0)
(1.40887 0.0346794 0)
(0.759683 0.0152814 0)
(0.710099 0.0142033 0)
(1.41525 -0.0329721 0)
(0.773079 -0.00882528 0)
(0.33214 0.494715 -8.40101e-19)
(0.161357 0.239379 0)
(0.335323 0.525088 9.41722e-20)
(0.168468 0.27676 0)
(1.21914 1.36286 1.70992e-19)
(0.764019 0.7279 -4.01595e-19)
(0.408686 1.41952 0)
(0.600992 1.52396 0)
(0.300682 0.812643 0)
(0.149788 0.364412 -4.45509e-19)
(0.626426 0.289063 0)
(0.322496 0.138251 4.00318e-19)
(1.40089 1.28246 0)
(1.5573 1.14639 0)
(0.858183 0.651591 4.70403e-19)
(1.70263 0.935781 0)
(1.04932 0.43087 2.27077e-20)
(1.47232 0.00800374 0)
(1.50058 -0.0293232 0)
(0.801603 -0.00447399 0)
(1.95027 -0.199831 0)
(1.65055 -0.148242 0)
(1.05204 -0.0890013 0)
(3.06126 0.164833 0)
(3.03105 0.0687627 0)
(3.01022 0.0531436 0)
(0.0319062 1.61023 6.06467e-19)
(0.0160386 0.833627 0)
(0.0153529 1.69318 1.07671e-18)
(0.00158985 0.935313 -9.68391e-19)
(0.0632421 1.16402 1.93217e-19)
(0.0469474 1.00574 0)
(0.0386761 0.53822 0)
(-0.0305605 1.03643 0)
(-0.00807664 0.53505 0)
(0.0160127 1.59133 -4.43301e-21)
(-0.0185386 0.854919 0)
(-0.0535321 1.55519 -2.26011e-19)
(-0.0161142 0.805592 4.37554e-19)
(-0.00337967 1.06515 0)
(0.00989878 1.08236 0)
(-0.000727389 0.551582 0)
(0.00719856 1.22842 0)
(-0.000474885 0.64529 0)
(1.46346 -0.00445478 0)
(0.786295 0.0076649 0)
(1.43702 0.0327519 0)
(0.760172 -0.000723779 0)
(0.676443 0.00520082 0)
(1.2643 0.0164311 0)
(1.20537 0.0471688 0)
(0.661073 0.0153954 0)
(-0.00580109 1.42077 -1.71071e-20)
(0.000184139 1.37708 0)
(0.00482001 0.732923 0)
(0.00172877 0.417221 0)
(0.293526 0.848639 0)
(0.261202 0.410643 -2.88148e-19)
(-0.000918029 0.637309 0)
(-0.0084826 0.367872 0)
(0.0106684 4.3918 0)
(-0.0447772 4.62776 0)
(-0.016744 4.57328 0)
(-0.0680832 3.27128 2.05941e-20)
(-0.0572994 4.51579 0)
(-0.0479493 4.07914 0)
(0.00371527 0.798692 1.09284e-20)
(0.0126656 1.52006 1.6528e-19)
(-0.0347407 1.45962 1.20792e-19)
(-0.00798056 0.803321 0)
(0.676593 0.107025 1.15454e-18)
(0.330657 0.0442355 -1.13154e-18)
(0.151228 1.15393 0)
(0.102426 0.584639 -2.70306e-19)
(0.119343 1.25281 -8.76452e-19)
(0.0518578 0.697825 8.7197e-19)
(0.809508 0.0239943 0)
(1.55721 0.047566 0)
(1.70996 0.127592 0)
(0.920032 0.0444813 0)
(0.00642658 1.24447 0)
(0.0240444 1.25609 0)
(0.00353015 0.662406 0)
(0.500169 0.32687 1.21037e-18)
(0.452498 0.321257 -1.39483e-18)
(0.243213 0.170233 0)
(1.91814 0.149622 1.15194e-19)
(1.12498 0.0913814 0)
(1.71189 0.116984 0)
(0.878055 0.022007 0)
(0.687873 0.0859005 0)
(0.707422 0.0462983 -5.40733e-18)
(0.350349 0.0325097 1.99942e-18)
(0.00903381 0.8071 1.704e-18)
(0.00218783 0.462441 4.0809e-20)
(-0.0108778 1.40842 -3.59741e-20)
(0.00613613 1.38675 1.37234e-18)
(-0.0149832 0.848955 6.32491e-20)
(-0.0119261 0.524486 -2.54108e-22)
(-0.107514 1.00068 -1.17017e-18)
(-0.0529602 1.3532 8.37783e-19)
(-0.0175323 1.35275 -1.36419e-18)
(1.42008 -0.0173489 0)
(1.44041 0.019994 0)
(0.768619 -0.000380321 0)
(1.45285 0.0252741 0)
(1.36412 0.0461441 0)
(0.761965 0.0202359 0)
(1.3024 -0.00233007 0)
(1.31995 -0.00604192 0)
(0.69587 -0.00112309 0)
(0.313741 0.487521 -9.19085e-19)
(0.166039 0.249734 0)
(0.161731 0.317507 1.3778e-19)
(0.318544 0.603842 1.1287e-18)
(0.316965 0.565917 -6.68217e-19)
(0.161489 0.290668 1.30574e-18)
(0.286211 0.739469 2.1944e-18)
(0.15228 0.392062 3.95908e-19)
(0.653764 0.218992 1.54207e-18)
(0.644134 0.261039 4.00518e-19)
(0.325328 0.118049 7.51804e-19)
(1.8894 0.701138 -6.04724e-19)
(1.14916 0.329626 -7.06016e-19)
(-0.0366806 1.69416 4.63116e-19)
(-0.0125784 0.91907 0)
(1.59457 0.0224122 0)
(1.51538 0.064444 0)
(0.848867 0.026174 0)
(-0.00355994 1.38473 0)
(0.00507106 0.729577 2.50838e-18)
(0.00464969 0.731252 0)
(0.00207 0.415098 -2.45513e-18)
(-0.0102808 1.38627 5.98907e-19)
(-0.00947577 1.4225 0)
(0.34641 0.502465 2.58992e-19)
(0.370435 0.562289 -8.66339e-19)
(0.176823 0.265306 7.84042e-19)
(-0.0257174 0.767129 -1.6733e-18)
(-0.0258554 0.689769 0)
(-0.0153622 0.412716 0)
(0.0286391 1.51599 -1.2647e-20)
(0.0294571 1.54199 -3.65068e-19)
(0.016402 0.804877 -1.55189e-20)
(0.216744 1.06516 8.93774e-19)
(0.12152 0.520098 -5.94757e-19)
(0.00974537 1.49687 7.30749e-19)
(0.0540611 1.36783 -8.16185e-19)
(0.0255013 0.769221 3.58746e-20)
(0.0074395 1.36613 -3.82984e-18)
(-0.000280094 1.39327 4.43517e-18)
(0.00376342 0.829766 1.74268e-18)
(-0.0138684 0.805049 -1.73565e-18)
(-0.00431872 0.481382 -1.74835e-18)
(-0.0106667 1.41685 -4.52481e-18)
(-0.0152413 1.40031 4.61456e-18)
(0.295445 0.695482 0)
(0.308975 0.653644 -2.30181e-18)
(0.156658 0.341709 9.96525e-19)
(0.288994 0.818542 1.19176e-18)
(0.142468 0.439644 -1.83882e-18)
(2.03357 0.316197 4.16264e-19)
(2.02259 0.537127 0)
(1.20301 0.217037 -4.02869e-19)
(-0.0734358 1.61558 -4.80614e-21)
(-0.0164359 1.67565 0)
(-0.0168194 0.912196 0)
(0.230603 0.966376 -3.24209e-19)
(0.253744 0.889678 -7.10299e-19)
(0.131317 0.475422 1.33145e-18)
(3.16438 -0.442928 0)
(3.34726 -0.414746 1.81086e-18)
(0.0627628 3.59391 0)
(0.046572 2.94323 0)
(3.15927 0.249855 1.4183e-20)
(3.12357 0.506236 3.70808e-18)
(0.0256515 3.33626 -2.76425e-20)
(0.0106672 2.58264 0)
(-0.0404817 1.19664 1.56569e-18)
(0.199445 1.33571 0)
(3.42272 1.59795 -3.26947e-19)
(3.17452 0.272406 -2.96141e-20)
(3.14795 -0.118948 0)
(3.10047 -0.000478901 3.65977e-22)
(0.037157 2.61328 0)
(0.145167 3.30855 0)
(-0.0638281 2.60349 0)
(-0.03185 3.44292 3.16779e-19)
(-0.0330577 3.5054 2.00015e-19)
(2.64028 0.0471963 -1.35859e-20)
(3.04258 0.0294719 0)
(3.1486 0.0838389 0)
(-0.0536495 4.58691 0)
(-0.04743 2.99491 0)
(-0.0780724 3.04829 0)
(0.639105 3.08851 2.70347e-19)
(3.33879 -0.422563 0)
(3.01125 -0.345887 0)
(3.1699 -0.0531303 2.2747e-18)
(3.29269 -0.328772 -2.73907e-18)
(3.10381 -0.125828 0)
(-0.0622434 4.52099 0)
(0.0107113 4.02413 0)
(0.00451935 4.31663 0)
(-0.0339727 3.21364 0)
(-0.0167748 2.97752 0)
(-0.0384247 2.56408 0)
(2.97263 -0.00376023 0)
(2.85211 0.0480893 -1.8039e-20)
(2.20444 3.00145 -3.30409e-19)
(3.15694 0.0443656 -2.27576e-18)
(3.19038 0.278108 2.76634e-18)
(3.0828 0.117284 0)
(3.39553 0.328713 2.08472e-18)
(3.35702 0.484279 -2.70352e-18)
(3.07124 0.418361 0)
(-0.0530263 3.25254 0)
(0.00843107 3.17939 8.53015e-20)
(-0.0290123 2.49366 -6.04157e-20)
(3.68002 0.543921 2.26766e-18)
(3.45468 0.202343 0)
(-0.149047 1.27164 -2.18079e-18)
(-0.0587875 0.881575 -1.36003e-19)
(-0.0787769 1.33977 3.00633e-18)
(-0.0316159 1.27267 -9.05703e-19)
(0.0028129 1.09182 0)
(-0.0266764 1.23928 6.99479e-19)
(-0.11381 1.38786 2.16122e-18)
(-0.0580149 1.34067 -1.32285e-18)
(-0.077058 1.32054 0)
(1.33022 0.612922 0)
(1.21981 0.704331 0)
(3.50993 1.9987 9.60564e-19)
(2.99723 1.90376 -1.20029e-18)
(3.79887 1.67983 0)
(3.33662 1.13749 0)
(3.3496 0.280234 -3.91187e-18)
(2.89929 0.172928 4.83354e-18)
(3.35101 -0.155831 0)
(2.85402 -0.0763814 0)
(3.43643 0.0427321 0)
(3.59383 0.144747 0)
(3.28683 0.119721 0)
(3.5504 0.298323 0)
(3.40845 0.292905 0)
(3.32757 0.217907 0)
(0.0854224 2.82445 0)
(0.028481 2.11918 0)
(0.113745 3.07167 0)
(0.0899879 2.2253 0)
(0.198536 3.60408 0)
(0.134307 2.69332 -5.58997e-19)
(0.0396989 3.61218 0)
(0.00364548 3.01675 4.05098e-19)
(-0.031904 3.18116 -5.17099e-19)
(-0.0680915 2.88147 0)
(-0.0310883 2.28689 0)
(-0.0833064 2.9779 0)
(-0.0577519 2.1113 0)
(-0.129248 4.71072 -2.46896e-19)
(-0.0905069 3.87766 2.79241e-19)
(-0.083287 3.75072 3.10859e-19)
(-0.0554117 2.96372 0)
(-0.114247 3.73549 -4.60518e-19)
(-0.0431584 3.13978 -2.95811e-19)
(-0.103839 4.73995 1.93302e-19)
(-0.112271 4.40429 -3.52941e-19)
(-0.085265 4.28326 -3.81159e-19)
(3.03776 0.0859985 3.35313e-18)
(2.29449 0.0315505 -4.22304e-18)
(2.89932 0.1304 -3.32218e-18)
(2.21872 0.0723604 4.14977e-18)
(3.36489 0.0255288 0)
(2.63932 -0.00327658 0)
(3.44718 0.0875109 0)
(3.31511 0.017025 0)
(2.69969 0.0079798 0)
(3.66863 0.232367 0)
(3.42962 0.0916087 0)
(2.85009 0.054061 0)
(-0.0213989 4.22709 -1.20411e-20)
(-0.0571329 4.59934 0)
(-0.0607244 4.46078 0)
(-0.0774071 3.41016 8.81831e-20)
(-0.0389621 2.69726 -3.47319e-21)
(-0.0908202 4.63978 1.15803e-19)
(-0.101463 4.47059 -1.17016e-19)
(-0.0874848 4.02232 0)
(-0.0638015 3.9567 0)
(-0.0334173 4.06789 0)
(-0.0788663 3.36837 0)
(-0.0461679 2.41046 0)
(0.925864 3.6372 -6.17537e-19)
(0.905555 2.82947 -1.80188e-19)
(0.435982 2.0934 -2.29141e-19)
(0.252344 2.33406 6.98725e-19)
(1.00225 4.21324 2.64096e-19)
(3.43282 -0.167739 0)
(3.32199 -0.25673 0)
(2.88296 -0.18962 0)
(3.47031 -0.0646252 0)
(3.34581 -0.148015 0)
(3.44892 -0.261184 0)
(3.51947 -0.28377 0)
(3.57942 -0.281373 0)
(3.22561 0.0926437 3.6137e-18)
(2.5565 0.0641984 -4.56955e-18)
(3.09846 0.105721 -3.55712e-18)
(2.51169 0.0561429 4.42595e-18)
(2.1994 3.37056 0)
(1.70547 2.90507 -4.53899e-19)
(2.52674 3.30504 -4.09908e-19)
(2.32147 2.48564 5.44665e-19)
(0.799055 1.25044 2.73634e-18)
(1.46802 0.216136 1.34336e-18)
(3.70648 0.296381 0)
(3.87266 0.560999 -1.84785e-18)
(3.27691 0.238577 -8.23157e-20)
(3.73417 0.429301 0)
(0.259595 1.32335 1.809e-18)
(-0.00468938 1.20704 -2.89686e-18)
(0.0720013 0.773552 1.62705e-18)
(0.292904 0.474353 -7.53386e-19)
(0.198425 1.40137 8.77012e-19)
(0.0578225 1.24518 0)
(0.0626846 1.09683 -1.1401e-18)
(0.208727 1.45601 -4.12154e-18)
(0.349952 1.57661 0)
(0.00850526 1.29008 1.20319e-19)
(-0.00987234 1.45728 -1.34829e-18)
(-0.0412114 1.30292 1.96012e-18)
(-0.0577355 1.41764 0)
(-0.0206927 1.38211 0)
(0.701468 1.08069 0)
(2.49379 2.48404 -1.0691e-18)
(2.59343 2.13438 3.99448e-19)
(2.74438 2.83935 0)
(3.17009 3.02637 -3.96024e-19)
(3.11711 2.37422 2.80048e-20)
(0.83602 0.614154 -1.83394e-18)
(1.60207 0.706763 -1.65175e-20)
(1.26844 0.462964 8.7485e-19)
(1.32204 0.870761 5.98212e-20)
(0.975752 0.657187 -2.38267e-18)
(1.51095 0.734273 0)
(2.04781 1.12334 1.46158e-18)
(2.0877 1.03693 0)
(1.4603 0.814186 0)
(1.099 0.567472 0)
(3.38514 2.17006 1.00752e-18)
(3.9211 0.746298 -1.86421e-18)
(3.81388 1.19641 0)
(3.49554 0.744207 0)
(1.4242 0.370511 1.33565e-18)
(3.2848 1.84394 -8.53118e-19)
(2.87964 1.66558 1.54868e-18)
(3.76643 1.36479 -1.83518e-18)
(3.09885 0.114171 2.46045e-18)
(3.16906 0.180465 -2.57551e-18)
(2.66266 0.0914299 0)
(3.30601 -0.0402739 0)
(3.20058 -0.0847077 -2.36352e-18)
(2.63116 -0.0323497 2.34271e-18)
(3.95676 0.0916618 0)
(3.7608 0.144504 0)
(3.69375 0.154967 0)
(3.58851 0.204352 0)
(3.83266 0.0583904 0)
(3.7261 0.0517678 0)
(-0.0469484 2.55737 0)
(-0.042666 2.05933 0)
(0.33109 3.98495 -4.15214e-19)
(0.644789 3.32517 -1.6259e-19)
(0.24938 3.03754 -3.6369e-19)
(0.335412 2.55215 5.82594e-19)
(0.434063 4.00203 0)
(0.436666 4.64912 -5.12123e-19)
(0.351021 4.70623 0)
(0.886576 4.37911 -3.799e-19)
(0.658392 3.84134 9.70055e-19)
(0.564297 4.62961 4.4894e-19)
(0.712178 4.17403 -1.90297e-19)
(0.571962 4.30463 1.53083e-19)
(0.88234 4.62401 -6.66866e-19)
(0.717088 4.64007 0)
(0.826383 4.56845 5.06961e-19)
(-0.0168665 4.53974 -1.81866e-19)
(-0.0300169 3.62491 0)
(0.0784564 4.26814 5.49745e-19)
(-0.0233743 4.36328 0)
(-0.0142821 3.4514 -4.50482e-19)
(-0.0212342 2.902 0)
(-0.121884 4.32561 -2.92366e-19)
(-0.12849 4.66046 0)
(-0.0715466 3.83981 0)
(-0.0604074 3.78287 3.28819e-19)
(-0.0590412 3.84207 1.04298e-20)
(-0.0445911 3.6775 6.2619e-19)
(-0.044601 2.91757 4.07284e-21)
(-0.135284 4.67434 1.81736e-19)
(-0.12615 4.71217 1.04006e-19)
(-0.0256955 2.71737 0)
(-0.00475928 2.22627 0)
(-0.0666594 4.75763 4.89898e-19)
(-0.073972 4.31967 4.30089e-19)
(-0.106384 4.57684 -5.61164e-19)
(-0.010442 4.73388 0)
(-0.0896046 4.45802 -3.12889e-19)
(-0.12503 4.07326 1.29223e-19)
(-0.0951502 4.17319 -4.16401e-20)
(-0.0922248 4.68999 -2.20747e-19)
(-0.100581 4.20241 -6.89826e-20)
(-0.0972494 4.15413 3.07878e-19)
(2.87469 0.0600475 -2.36001e-18)
(2.86354 0.048297 2.26944e-18)
(2.34211 0.0339337 0)
(3.51998 0.18668 3.04149e-18)
(2.71537 0.124053 -3.29995e-18)
(2.26596 0.0626579 3.60477e-18)
(3.69408 0.32726 -4.01019e-19)
(3.20813 -0.0493972 0)
(3.16955 -0.0148526 2.23426e-18)
(2.68843 -0.0129322 -2.21664e-18)
(3.87278 0.117239 -1.25083e-19)
(3.76753 0.0983539 1.07697e-18)
(4.1559 0.16688 0)
(4.22613 0.17455 -3.74596e-19)
(4.01659 0.140579 0)
(3.69994 0.151805 0)
(4.03277 0.0931361 0)
(3.71329 0.0856828 0)
(4.18452 0.109344 7.84278e-19)
(4.1379 0.0755487 -1.74543e-18)
(4.13826 0.109663 -8.4693e-19)
(4.18452 0.112 -9.23157e-19)
(4.21163 0.221634 1.77175e-18)
(3.84813 0.183439 0)
(4.05235 0.29217 0)
(-0.0843962 4.50196 -1.36653e-19)
(-0.0360896 4.5799 -1.17284e-20)
(-0.0742437 4.60834 0)
(-0.0608713 4.10271 1.39112e-19)
(-0.0548418 4.12817 2.25555e-20)
(-0.0594222 3.98664 -2.18811e-20)
(-0.0861857 3.44839 2.61668e-19)
(-0.151913 3.92304 -1.45397e-20)
(-0.115337 4.05991 7.5061e-20)
(-0.0786854 3.31787 -1.32258e-19)
(-0.0279085 2.84733 1.58422e-19)
(-0.088299 4.45899 5.22456e-21)
(-0.103994 4.62488 1.72291e-19)
(1.20912 4.32203 3.51699e-19)
(1.12424 4.49653 7.2782e-19)
(1.70183 3.42237 4.38866e-19)
(1.28107 3.52336 1.73213e-19)
(1.263 2.85468 0)
(0.55446 2.36436 2.75989e-19)
(0.469812 1.77937 3.32136e-19)
(0.344227 2.60616 1.53413e-20)
(0.48876 3.21799 -1.16242e-18)
(0.630657 3.17844 8.78809e-19)
(0.435535 2.44663 0)
(0.296134 2.00676 -5.58994e-19)
(0.249827 3.10065 1.39592e-18)
(0.267602 2.75122 -3.22321e-20)
(0.154184 2.30337 -1.75026e-18)
(0.609018 1.45278 1.47216e-18)
(0.590399 1.66034 0)
(3.58361 -0.0754632 8.63318e-20)
(3.61854 -0.254373 -7.25114e-20)
(3.72121 -0.218117 -1.26504e-18)
(3.75918 -0.126484 1.2809e-18)
(3.67613 -0.0493149 0)
(2.41138 3.83463 0)
(2.58921 3.88044 0)
(2.85977 3.58592 0)
(2.70939 3.61541 0)
(0.880317 1.43695 -3.65406e-21)
(0.631282 1.07175 0)
(1.7353 3.44087 1.5059e-20)
(1.42805 3.50734 0)
(1.35095 3.016 -1.28937e-18)
(1.4319 2.95027 8.27765e-19)
(1.81809 0.310852 0)
(1.45488 0.2636 3.52453e-19)
(2.43676 0.355927 2.19145e-18)
(1.80953 0.282997 -7.8591e-19)
(1.44331 0.111561 -2.49441e-18)
(4.25649 0.772536 -2.56342e-18)
(3.86908 0.980364 -3.59942e-20)
(3.32833 0.835604 2.06688e-18)
(3.89201 0.732257 1.81195e-18)
(3.14722 0.45913 -3.04284e-18)
(2.93642 0.447036 3.74811e-19)
(3.22423 0.676529 -8.18388e-19)
(3.00668 0.674588 0)
(3.77705 0.552342 1.53597e-18)
(4.10434 0.615667 0)
(4.10006 0.759416 0)
(4.03233 0.40548 8.22939e-19)
(4.28877 0.627376 -3.04817e-20)
(4.2304 0.698895 -4.52147e-19)
(4.15898 0.626881 0)
(3.62237 0.126268 1.71534e-18)
(4.19055 0.176818 2.14055e-18)
(4.0935 0.146315 -1.67665e-18)
(4.14028 0.232995 -1.44041e-18)
(3.75317 0.231722 -2.1528e-18)
(3.32312 0.369686 0)
(3.4165 0.29553 0)
(2.57388 0.187937 -1.26447e-18)
(2.12504 0.117588 4.76319e-19)
(4.04275 0.343426 1.93696e-18)
(4.28171 0.420742 -2.34438e-18)
(4.28604 0.476325 2.06663e-18)
(4.16186 0.479303 0)
(4.25225 0.326102 0)
(4.26185 0.314707 -9.77613e-19)
(4.21425 0.30691 -1.59374e-18)
(2.24337 3.51387 6.20451e-19)
(1.96637 3.27898 -6.84777e-19)
(1.4849 2.41578 -1.03638e-18)
(1.22335 2.05113 2.68042e-19)
(0.911793 1.42049 -2.64241e-18)
(0.817957 1.25144 9.25937e-19)
(0.619159 0.931283 -1.89561e-21)
(1.14889 1.83557 -1.14312e-18)
(1.17698 1.93643 1.70643e-18)
(1.00468 1.74647 5.08263e-19)
(0.809646 1.32531 -5.1492e-19)
(0.654017 1.10435 0)
(2.48315 2.63702 -1.15501e-19)
(0.745562 1.16962 8.63165e-19)
(0.967947 0.923685 1.16328e-18)
(0.791359 0.839912 1.34741e-18)
(1.12475 0.774862 1.34863e-18)
(1.51975 1.08024 -2.28202e-18)
(1.43457 1.10924 1.84918e-18)
(1.04191 0.796125 -6.80967e-19)
(0.848896 0.590846 1.50341e-18)
(1.65384 0.499473 -7.7959e-19)
(1.59967 0.520856 0)
(1.27252 0.416756 4.91209e-21)
(2.56068 1.53837 7.78194e-19)
(2.13837 1.29836 -2.81868e-18)
(1.74276 1.22028 1.00611e-20)
(1.71575 1.12296 0)
(2.88586 2.6044 8.74311e-19)
(3.42802 2.72911 1.03672e-18)
(3.24161 2.91523 -1.19502e-18)
(3.52486 2.73549 -4.28413e-19)
(3.44429 2.56587 -1.35345e-19)
(3.47566 2.75946 1.39166e-19)
(3.66948 2.24459 -1.67836e-18)
(3.67921 2.46974 4.02041e-19)
(3.74981 2.4032 0)
(3.74943 2.16229 -5.80183e-19)
(4.05092 1.05739 5.80479e-19)
(4.25933 0.974387 1.00225e-18)
(4.28813 0.946792 1.01115e-18)
(4.05128 1.30993 -1.14927e-18)
(4.08059 1.32697 0)
(4.12833 1.21128 0)
(3.36227 1.23026 -1.46851e-20)
(2.46109 0.671639 0)
(2.76232 0.744287 9.3161e-19)
(3.27189 0.878212 -2.57578e-20)
(3.78331 1.52089 5.10591e-18)
(3.58372 1.7511 1.31107e-18)
(3.50262 1.53453 -1.34149e-18)
(3.07776 1.37347 1.43832e-18)
(2.8089 1.37981 8.25422e-19)
(2.36284 1.17364 -7.99432e-19)
(3.67159 -0.0862823 1.98222e-18)
(3.89459 -0.0297218 0)
(3.85882 -0.0672956 1.3404e-18)
(3.74266 -0.0601193 -2.98412e-18)
(3.98054 0.0362927 1.46005e-18)
(3.9047 0.112382 -3.0789e-18)
(3.74028 0.126921 0)
(3.55694 0.172822 -6.27707e-19)
(3.81214 0.122329 1.60319e-18)
(3.6922 0.190796 -8.21487e-19)
(3.60065 0.170516 5.89922e-19)
(-0.0870885 2.65497 0)
(-0.0586574 3.44819 0)
(-0.0396759 2.51733 0)
(-0.0261464 2.0262 0)
(0.0255081 3.9521 6.80418e-19)
(0.119972 3.73609 -1.76624e-19)
(0.286496 4.62482 -2.3145e-19)
(0.224378 4.44909 2.44049e-19)
(-0.0467027 4.29941 -5.03217e-19)
(-0.0116778 4.3289 3.77831e-19)
(0.0740279 3.88667 2.17922e-20)
(-0.00575937 3.58524 -4.71757e-19)
(-0.0244709 3.35017 -6.30451e-20)
(-0.0545492 3.70332 -5.74475e-20)
(0.128146 4.45576 -5.87164e-19)
(0.154976 4.27651 0)
(0.246719 4.61711 2.96174e-19)
(0.237843 4.68579 2.5347e-19)
(0.566959 4.43686 -2.26274e-19)
(0.39277 3.80209 0)
(0.44244 3.65235 -1.11563e-18)
(0.54402 4.01976 7.9056e-19)
(0.450888 4.54985 -6.15114e-19)
(0.341939 4.42422 3.31041e-19)
(0.276784 4.1599 0)
(-0.0578278 4.72739 -5.56962e-19)
(-0.0934 4.47851 -6.43489e-19)
(-0.097984 4.69503 0)
(-0.0467222 4.32274 -6.11536e-21)
(-0.0415942 4.60606 2.75832e-19)
(-0.136218 3.92681 4.5338e-20)
(-0.0681477 3.55615 -6.64289e-19)
(-0.115384 3.97805 1.7715e-19)
(-0.163206 4.52757 2.35953e-19)
(-0.0996815 4.34641 0)
(-0.0821625 3.95153 0)
(-0.0904019 3.00937 2.0552e-19)
(-0.0622276 3.72695 -6.41199e-20)
(-0.0878942 3.70698 0)
(-0.0926664 2.78937 1.61982e-19)
(-0.0493786 2.29084 -3.13694e-19)
(3.75935 0.0304972 0)
(3.73002 0.00584642 -2.03024e-19)
(4.17884 0.0647089 -1.43803e-18)
(4.08733 0.0431472 0)
(3.8734 0.0149096 0)
(4.14953 0.0346079 -1.23894e-20)
(4.10013 0.0328325 2.37572e-18)
(4.00103 0.0776824 2.84153e-18)
(3.75778 0.11657 0)
(3.56052 0.108135 0)
(4.01483 0.0904877 1.4155e-18)
(3.70616 0.113422 0)
(3.4757 0.12683 0)
(-0.100285 4.64127 0)
(-0.118998 4.63139 1.06749e-20)
(-0.0952434 4.67175 6.45603e-20)
(-0.0749117 3.91024 0)
(-0.126392 4.53207 1.12084e-19)
(-0.0835855 4.28709 -6.4512e-20)
(-0.0702693 4.02076 0)
(1.39521 4.20151 0)
(1.17624 4.55198 -1.30091e-18)
(1.19524 4.47463 0)
(1.54075 4.45481 1.49007e-18)
(1.55837 4.07699 0)
(1.46616 4.33273 -6.09745e-19)
(1.03662 2.30196 -3.41435e-20)
(0.730462 1.69299 -1.75519e-18)
(0.608889 1.26387 2.1414e-18)
(0.724788 1.88452 3.99059e-19)
(0.99349 2.48404 0)
(1.05906 2.43886 0)
(0.736288 1.73551 0)
(0.546315 1.36898 -1.40328e-18)
(1.20857 3.81257 -9.85545e-19)
(1.14093 3.04748 -2.36231e-19)
(1.33658 3.45483 1.93203e-19)
(0.606649 2.08662 0)
(0.632031 1.99075 0)
(0.47133 1.6112 -3.94761e-19)
(0.969124 2.77681 0)
(2.67506 3.55759 0)
(2.40685 3.03742 -1.45648e-18)
(2.56461 3.04455 -8.59144e-20)
(2.43315 3.42134 0)
(2.31437 3.18421 2.22409e-18)
(3.26151 3.06539 -3.90424e-19)
(3.0997 3.28804 0)
(3.08494 3.11478 6.32153e-19)
(2.85119 3.3955 0)
(2.87274 3.19494 0)
(1.24391 2.06516 -9.35019e-19)
(1.45201 2.46756 -7.02138e-19)
(1.78498 3.03877 1.20953e-18)
(1.72679 3.01977 -3.6372e-19)
(1.09299 1.87633 0)
(1.23584 2.268 4.72959e-19)
(0.740673 1.32829 -7.19309e-19)
(0.599416 1.07635 -5.90075e-22)
(1.9461 3.72833 0)
(2.20165 3.75743 -5.42595e-19)
(2.32302 3.97228 0)
(2.31834 0.527145 0)
(1.64697 0.343921 0)
(1.23576 0.280015 0)
(2.24768 0.555083 -1.46671e-18)
(1.6706 0.406585 8.18746e-19)
(2.16334 0.1274 -9.84207e-19)
(2.64788 0.293797 0)
(2.48774 0.29856 4.13284e-19)
(1.78875 0.134486 1.63225e-18)
(1.54528 0.0807396 -1.03641e-18)
(0.768404 1.59484 8.62129e-19)
(0.990657 1.86633 0)
(0.554983 1.4737 1.5698e-18)
(0.545206 1.64487 -1.43297e-18)
(0.787723 1.85104 -9.95114e-19)
(2.11909 2.50625 1.34213e-18)
(2.14055 2.75684 0)
(1.64015 1.72684 -2.77789e-19)
(2.06526 2.03474 1.7498e-18)
(1.4141 1.33689 -4.25816e-19)
(1.64547 1.35586 4.53054e-19)
(2.16823 1.54711 1.0273e-18)
(2.49939 1.69851 0)
(2.33019 1.8919 0)
(2.06855 1.64592 0)
(3.93415 2.05313 3.85714e-19)
(3.76176 1.8729 -1.2635e-18)
(3.81149 2.00809 1.04647e-18)
(3.89732 1.75124 -1.00816e-18)
(4.13412 1.65055 0)
(4.08804 1.81427 -2.98131e-19)
(2.88766 1.16911 -1.90069e-18)
(3.01272 1.16421 -2.4146e-18)
(2.38532 1.05642 1.45923e-18)
(2.19061 0.947765 -1.42415e-18)
(2.51124 0.851939 -1.18023e-18)
(2.22725 0.787468 1.45135e-18)
(4.00834 0.0322819 -1.52688e-18)
(4.05264 0.0392329 3.12597e-18)
(3.7673 -0.0669295 1.8985e-18)
(3.79043 -0.0748863 -2.28387e-18)
(3.95862 0.00874612 0)
(4.05555 0.0209805 -3.72476e-18)
(0.0686203 4.73286 1.07074e-19)
(0.0397416 4.70696 0)
(0.15931 4.7062 9.56849e-19)
(0.180114 4.72421 -8.70598e-19)
(0.199761 4.69556 4.31534e-19)
(0.0930386 4.64063 0)
(-0.123621 4.73242 0)
(-0.128126 4.41086 -6.26334e-20)
(-0.12654 4.35931 5.61584e-20)
(-0.134272 4.48465 7.60901e-21)
(-0.125607 4.67195 -1.02263e-19)
(-0.104375 4.66117 5.54348e-20)
(1.86796 4.01556 -1.64485e-18)
(1.80441 4.02594 1.74274e-18)
(1.65329 4.37906 -8.56501e-19)
(1.67886 4.27919 7.62634e-20)
(2.22322 4.04014 0)
(1.82023 4.17437 -6.41906e-19)
(1.94769 3.91447 6.22494e-19)
(1.78834 4.34063 8.36629e-19)
(2.04395 4.19263 0)
(2.20081 4.07275 0)
(1.13842 3.67195 1.49827e-18)
(0.834051 2.86489 2.03124e-18)
(0.961305 3.04413 -1.39489e-18)
(0.752334 3.02478 -2.3285e-19)
(0.898777 3.77322 4.67567e-19)
(0.721167 3.41148 -1.13708e-18)
(0.768091 1.5086 -1.22194e-18)
(0.766979 1.35702 0)
(0.619823 1.14798 -1.34295e-18)
(1.13878 2.12108 0)
(1.11667 2.20799 0)
(1.4047 2.23883 -1.0961e-18)
(1.09946 2.06241 -1.04105e-18)
(1.05227 2.0802 1.10463e-18)
(1.08102 1.55863 0)
(1.46683 1.81 -6.04184e-19)
(1.6784 2.17091 -8.57295e-19)
(1.45918 2.12982 0)
(0.905445 1.854 7.17209e-19)
(0.818138 1.7098 0)
(2.93767 2.30324 -1.84705e-18)
(3.32447 2.46485 2.60784e-18)
(3.29427 2.19108 -2.5919e-18)
(2.65619 2.04591 -2.31469e-19)
(2.7685 1.95949 -9.75134e-19)
(1.30169 2.2427 8.00089e-19)
(1.35605 2.30124 -1.36565e-18)
(1.49919 2.38255 1.80002e-18)
(1.83435 2.61059 -1.16974e-18)
(1.92593 2.98583 -1.57082e-18)
(1.60471 2.54623 -1.18889e-19)
(1.67352 2.68834 1.37654e-18)
(1.85325 2.74786 9.6978e-20)
(2.05329 3.04584 6.52003e-19)
)
;

boundaryField
{
    wall-4
    {
        type            noSlip;
    }
    velocity-inlet-5
    {
        type            fixedValue;
        value           uniform (3 0 0);
    }
    velocity-inlet-6
    {
        type            fixedValue;
        value           uniform (0 1 0);
    }
    pressure-outlet-7
    {
        type            zeroGradient;
    }
    wall-8
    {
        type            noSlip;
    }
    frontAndBackPlanes
    {
        type            empty;
    }
}


// ************************************************************************* //
