/*--------------------------------*- C++ -*----------------------------------*\
  =========                 |
  \\      /  F ield         | OpenFOAM: The Open Source CFD Toolbox
   \\    /   O peration     | Website:  https://openfoam.org
    \\  /    A nd           | Version:  9
     \\/     M anipulation  |
\*---------------------------------------------------------------------------*/
FoamFile
{
    format      ascii;
    class       volVectorField;
    location    "5.91";
    object      U;
}
// * * * * * * * * * * * * * * * * * * * * * * * * * * * * * * * * * * * * * //

dimensions      [0 1 -1 0 0 0 0];

internalField   nonuniform List<vector> 
2268
(
(0.000420726 -0.000281524 0)
(0.00188922 -0.00050718 0)
(0.00372615 -0.000540275 0)
(0.00553243 -0.00050065 0)
(0.00719333 -0.000444451 0)
(0.0086704 -0.000388178 0)
(0.00999334 -0.000349256 0)
(0.0112138 -0.000327194 0)
(0.0123696 -0.000312183 0)
(0.0134494 -0.000291903 0)
(0.0144277 -0.000274683 0)
(0.0153489 -0.00029015 0)
(0.016357 -0.000376282 0)
(0.0176831 -0.000554095 0)
(0.0195254 -0.000774843 0)
(0.0216757 -0.000807792 0)
(0.0233598 3.72247e-05 0)
(0.0200424 0.00236778 0)
(0.00937071 0.0038932 0)
(-0.00426298 0.00377318 0)
(-0.0136704 0.00126674 0)
(-0.0126632 -0.00212926 0)
(-0.00468045 -0.00234058 0)
(0.000701732 -0.000805021 0)
(0.00219205 -0.00121549 0)
(0.00389257 -0.00131468 0)
(0.00566075 -0.0012579 0)
(0.00733783 -0.00114666 0)
(0.00887808 -0.00102891 0)
(0.010287 -0.00093804 0)
(0.011589 -0.000875276 0)
(0.0127978 -0.000820269 0)
(0.0138896 -0.000748119 0)
(0.0148282 -0.000677448 0)
(0.0156278 -0.000667806 0)
(0.0163723 -0.000786251 0)
(0.0171875 -0.00105345 0)
(0.0181491 -0.0013481 0)
(0.019064 -0.00121073 0)
(0.0194906 0.000598686 0)
(0.0169599 0.00508507 0)
(0.00932551 0.0080813 0)
(4.10686e-05 0.00769081 0)
(-0.00687934 0.003495 0)
(-0.00864352 -0.00278131 0)
(-0.00526359 -0.00604008 0)
(0.000889634 -0.00151571 0)
(0.0024163 -0.00196519 0)
(0.00405799 -0.00209335 0)
(0.00578959 -0.00203897 0)
(0.00746115 -0.00188899 0)
(0.009021 -0.00171686 0)
(0.0104609 -0.00157278 0)
(0.0117887 -0.00146003 0)
(0.0130037 -0.00134935 0)
(0.014071 -0.00120458 0)
(0.014941 -0.00105149 0)
(0.0156026 -0.000972229 0)
(0.0160971 -0.00105445 0)
(0.0164878 -0.00131546 0)
(0.0167969 -0.00159003 0)
(0.0169025 -0.0013015 0)
(0.0166686 0.0011036 0)
(0.0144326 0.00715845 0)
(0.009127 0.0111345 0)
(0.0031283 0.0105957 0)
(-0.00208082 0.00557562 0)
(-0.00479424 -0.00265776 0)
(-0.0034227 -0.00878633 0)
(0.000977769 -0.00230716 0)
(0.00256339 -0.00274964 0)
(0.00421775 -0.00288563 0)
(0.00594909 -0.00283166 0)
(0.00762755 -0.00264664 0)
(0.00920118 -0.00242264 0)
(0.0106564 -0.00222391 0)
(0.0119916 -0.002055 0)
(0.0131969 -0.00187783 0)
(0.014227 -0.00164353 0)
(0.0150164 -0.00138253 0)
(0.0155313 -0.00119525 0)
(0.0157806 -0.00118484 0)
(0.0157861 -0.00136424 0)
(0.0155373 -0.0015425 0)
(0.0149608 -0.00110362 0)
(0.0142259 0.00161764 0)
(0.0125536 0.00869339 0)
(0.00926786 0.0131931 0)
(0.00542362 0.0127067 0)
(0.00161998 0.00736049 0)
(-0.000905354 -0.00219986 0)
(-0.000702356 -0.0100742 0)
(0.00101282 -0.00312359 0)
(0.00266177 -0.00356346 0)
(0.00437049 -0.00369858 0)
(0.00612958 -0.00364041 0)
(0.00782633 -0.0034189 0)
(0.00941134 -0.00314164 0)
(0.0108719 -0.00288482 0)
(0.0122016 -0.00265305 0)
(0.0133856 -0.00239897 0)
(0.014369 -0.002058 0)
(0.0150701 -0.00166299 0)
(0.015435 -0.00133006 0)
(0.015449 -0.00117498 0)
(0.0151057 -0.00120586 0)
(0.0143684 -0.00121818 0)
(0.0131602 -0.000610669 0)
(0.0117716 0.00217599 0)
(0.0106645 0.00955886 0)
(0.00929312 0.0144 0)
(0.00716063 0.0141231 0)
(0.00501812 0.00856227 0)
(0.00325246 -0.00151791 0)
(0.00206316 -0.00960171 0)
(0.0010287 -0.00396141 0)
(0.00274209 -0.00440484 0)
(0.00451925 -0.00453279 0)
(0.00631846 -0.00446157 0)
(0.00803712 -0.00419698 0)
(0.00962875 -0.00386188 0)
(0.0110849 -0.00354242 0)
(0.012397 -0.00324162 0)
(0.0135482 -0.00290208 0)
(0.0144764 -0.0024395 0)
(0.0150847 -0.0018873 0)
(0.015304 -0.00137646 0)
(0.0151039 -0.00103465 0)
(0.0144623 -0.000864565 0)
(0.013327 -0.000653092 0)
(0.0116185 0.000164672 0)
(0.0095449 0.00290906 0)
(0.00867347 0.00977799 0)
(0.00883125 0.0148229 0)
(0.00842254 0.0147629 0)
(0.00807564 0.00900953 0)
(0.00694483 -0.000487192 0)
(0.00414522 -0.00764683 0)
(0.00104616 -0.00482804 0)
(0.00282249 -0.00527451 0)
(0.00466224 -0.00538886 0)
(0.00649893 -0.00529394 0)
(0.00823463 -0.00497679 0)
(0.00982481 -0.00457716 0)
(0.0112661 -0.00418938 0)
(0.012548 -0.00381317 0)
(0.0136537 -0.0033813 0)
(0.0145172 -0.00278452 0)
(0.0150307 -0.00205593 0)
(0.0151153 -0.00134236 0)
(0.0147335 -0.000785112 0)
(0.0138589 -0.000380044 0)
(0.0124411 8.88481e-05 0)
(0.0104303 0.00113584 0)
(0.00799744 0.00381123 0)
(0.00701771 0.00968126 0)
(0.00799298 0.0145422 0)
(0.00920293 0.0145781 0)
(0.0100454 0.00897982 0)
(0.0088931 0.000894324 0)
(0.00492627 -0.0047332 0)
(0.00108671 -0.00570813 0)
(0.00291003 -0.00617137 0)
(0.00479011 -0.00626811 0)
(0.0066492 -0.00614093 0)
(0.00839051 -0.0057633 0)
(0.00996961 -0.00529302 0)
(0.0113861 -0.0048289 0)
(0.0126256 -0.00436695 0)
(0.013671 -0.00383501 0)
(0.0144575 -0.00309129 0)
(0.0148741 -0.00216974 0)
(0.0148401 -0.00123465 0)
(0.0143179 -0.000445763 0)
(0.0132836 0.000211767 0)
(0.0117006 0.00094448 0)
(0.00956957 0.00219663 0)
(0.00712426 0.00476608 0)
(0.00601015 0.00959362 0)
(0.00717271 0.0138076 0)
(0.00919803 0.0138533 0)
(0.0103266 0.00897724 0)
(0.00878199 0.00259586 0)
(0.0041008 -0.00201966 0)
(-0.0126265 0.00295976 0)
(-0.00850595 -0.0020043 0)
(-0.00244796 -0.00177615 0)
(0.00085286 -0.00098166 0)
(0.00290018 -0.000565727 0)
(0.00404507 -0.000296562 0)
(0.00523204 -0.000528361 0)
(0.00812392 -0.00115325 0)
(0.0135794 -0.0020622 0)
(0.0209144 -0.00148321 0)
(0.0218735 0.00117327 0)
(0.0125618 0.00295229 0)
(-0.00137755 0.0060703 0)
(-0.0315472 0.00452422 0)
(-0.0272959 -0.00505055 0)
(-0.00406992 -0.00604426 0)
(0.00855011 -0.00248523 0)
(0.0122813 -9.77189e-05 0)
(0.0102045 0.00334771 0)
(-0.00680984 0.00625575 0)
(-0.00298745 -0.00302296 0)
(-0.00187012 -0.0024584 0)
(-0.00127377 -0.00138916 0)
(-0.000805007 -0.000862604 0)
(-0.000244328 -0.000714146 0)
(0.00081574 -0.00129791 0)
(0.00322068 -0.00266908 0)
(0.00730777 -0.00411616 0)
(0.0123063 -0.00254997 0)
(0.0123878 0.00327729 0)
(0.00429681 0.00731268 0)
(-0.00640518 0.0124979 0)
(-0.0235114 0.00901845 0)
(-0.0178711 -0.00870439 0)
(-0.00501679 -0.0107737 0)
(0.00237974 -0.00437086 0)
(0.00442131 -0.00140009 0)
(0.00938236 0.00671295 0)
(0.000785215 0.00686288 0)
(-0.000241136 -0.00306873 0)
(-0.00194778 -0.00225659 0)
(-0.00286103 -0.0012809 0)
(-0.00325053 -0.000868485 0)
(-0.0032493 -0.000939673 0)
(-0.00269531 -0.00187876 0)
(-0.00107314 -0.00380988 0)
(0.00169738 -0.00565518 0)
(0.00502207 -0.0033758 0)
(0.00436432 0.00503195 0)
(-0.00226329 0.0107042 0)
(-0.00932651 0.016158 0)
(-0.016396 0.0103768 0)
(-0.0117506 -0.0117746 0)
(-0.0044462 -0.0139911 0)
(-0.00113552 -0.00551646 0)
(-0.00136132 -0.00313404 0)
(0.00550708 0.00874785 0)
(0.00404886 0.00598543 0)
(0.000294447 -0.00186856 0)
(-0.00281604 -0.00142964 0)
(-0.00459611 -0.000841111 0)
(-0.00553804 -0.000661206 0)
(-0.00600815 -0.000941517 0)
(-0.00604033 -0.00216619 0)
(-0.00535038 -0.00451486 0)
(-0.00388323 -0.00666371 0)
(-0.00184691 -0.00384242 0)
(-0.00249537 0.00658418 0)
(-0.00741515 0.0131089 0)
(-0.0116866 0.0178984 0)
(-0.0117819 0.00989418 0)
(-0.00667888 -0.0136434 0)
(-0.00358319 -0.0156262 0)
(-0.00353665 -0.00531257 0)
(-0.00622015 -0.00427666 0)
(0.000563527 0.00867357 0)
(0.00354065 0.00497472 0)
(-0.000901759 -0.000193915 0)
(-0.00443504 -0.000250323 0)
(-0.00660724 -0.000170884 0)
(-0.00788015 -0.00027298 0)
(-0.00874404 -0.00072571 0)
(-0.00935485 -0.00213651 0)
(-0.00960744 -0.00473617 0)
(-0.00957736 -0.00709418 0)
(-0.00896346 -0.0041062 0)
(-0.0089368 0.00762559 0)
(-0.0115076 0.0145214 0)
(-0.0129578 0.018086 0)
(-0.0077333 0.00767662 0)
(-0.00249553 -0.0146251 0)
(-0.00313445 -0.0158912 0)
(-0.00529238 -0.00394675 0)
(-0.00971659 -0.0049187 0)
(-0.00411701 0.00645064 0)
(0.00150691 0.00470258 0)
(-0.00316754 0.00161829 0)
(-0.00660808 0.00102594 0)
(-0.00885859 0.000598767 0)
(-0.0102862 0.000235274 0)
(-0.0114372 -0.000315019 0)
(-0.012546 -0.00179728 0)
(-0.0136498 -0.00445357 0)
(-0.0150647 -0.00685945 0)
(-0.016033 -0.00415653 0)
(-0.0151107 0.00768821 0)
(-0.0144103 0.0147617 0)
(-0.0122821 0.0167015 0)
(-0.00388642 0.00459501 0)
(0.000120704 -0.0147377 0)
(-0.00352812 -0.0151022 0)
(-0.00644125 -0.00202165 0)
(-0.0110802 -0.0050152 0)
(-0.00759144 0.00270169 0)
(-0.00129952 0.00522031 0)
(-0.00612101 0.00340931 0)
(-0.00912684 0.00222915 0)
(-0.0112515 0.00136879 0)
(-0.0127055 0.000800673 0)
(-0.0140142 0.000241197 0)
(-0.0154706 -0.00120148 0)
(-0.0172201 -0.0037418 0)
(-0.0197145 -0.00602755 0)
(-0.0219949 -0.0039174 0)
(-0.0204673 0.006644 0)
(-0.0164781 0.0135821 0)
(-0.0106389 0.0139441 0)
(-0.001415 0.00168759 0)
(0.000572895 -0.0140823 0)
(-0.00466004 -0.0136988 0)
(-0.00702997 -0.000402767 0)
(-0.01038 -0.00446993 0)
(-0.00947094 -0.00169701 0)
(-0.00676715 0.00899983 0)
(-0.00925151 0.00491463 0)
(-0.0117665 0.00324456 0)
(-0.0136625 0.00209395 0)
(-0.0150841 0.00138233 0)
(-0.0164293 0.000868443 0)
(-0.0180196 -0.000446633 0)
(-0.0200934 -0.00274078 0)
(-0.0230787 -0.00482446 0)
(-0.0258735 -0.00347659 0)
(-0.0241584 0.00485293 0)
(-0.0179944 0.0109907 0)
(-0.00949626 0.0102604 0)
(-0.00080242 -0.000527149 0)
(-0.000509057 -0.0128309 0)
(-0.00622552 -0.0120897 0)
(-0.00741172 0.000277182 0)
(-0.00826228 -0.00368333 0)
(-0.00883122 -0.00614638 0)
(0.00111921 -0.00706988 0)
(0.00303798 -0.00763095 0)
(0.00493384 -0.00770971 0)
(0.0067907 -0.00752418 0)
(0.00851878 -0.00704423 0)
(0.0100712 -0.00645591 0)
(0.0114409 -0.00585151 0)
(0.0125989 -0.00522318 0)
(0.0135225 -0.00451219 0)
(0.0141594 -0.00351082 0)
(0.0144177 -0.00226173 0)
(0.0142301 -0.000952224 0)
(0.013564 0.000221429 0)
(0.0123967 0.0012902 0)
(0.0107148 0.00242036 0)
(0.00860122 0.0039135 0)
(0.00641613 0.00622932 0)
(0.00533875 0.00961298 0)
(0.00620771 0.0124879 0)
(0.00796339 0.0125705 0)
(0.00843726 0.0094489 0)
(0.00592399 0.00577411 0)
(0.000490596 0.00380205 0)
(0.00109413 -0.010268 0)
(0.0029055 -0.0105248 0)
(0.0047958 -0.0102964 0)
(0.0065346 -0.00986072 0)
(0.00819796 -0.00908742 0)
(0.00975278 -0.00823188 0)
(0.0111026 -0.0073417 0)
(0.0121501 -0.0063724 0)
(0.0128105 -0.00529192 0)
(0.0130941 -0.00389875 0)
(0.0130842 -0.00224595 0)
(0.0128221 -0.000486887 0)
(0.0122275 0.00117181 0)
(0.0111797 0.00275827 0)
(0.00962669 0.00435992 0)
(0.00765798 0.00608808 0)
(0.00573315 0.00805146 0)
(0.00470068 0.0101609 0)
(0.00491159 0.0118197 0)
(0.00547781 0.0122854 0)
(0.00473328 0.0114564 0)
(0.00158189 0.0104978 0)
(-0.00329217 0.0102132 0)
(0.00274673 -0.0113407 0)
(0.00231026 -0.011615 0)
(0.00370051 -0.0115496 0)
(0.00419396 -0.0111207 0)
(0.0053736 -0.0100911 0)
(0.00725351 -0.00903821 0)
(0.00884168 -0.00804672 0)
(0.00984097 -0.00684164 0)
(0.0102485 -0.00545669 0)
(0.0102463 -0.00383928 0)
(0.0100647 -0.0020772 0)
(0.00991294 -0.000190809 0)
(0.00963801 0.00170221 0)
(0.00891403 0.00360183 0)
(0.00762557 0.00553583 0)
(0.00590813 0.00749419 0)
(0.00451141 0.00920953 0)
(0.00399347 0.0105788 0)
(0.00386532 0.0116723 0)
(0.00363218 0.0125813 0)
(0.0024416 0.0131229 0)
(-0.000693982 0.013435 0)
(-0.00467594 0.0136342 0)
(0.0111144 -0.0119802 0)
(0.00540518 -0.010605 0)
(0.00503608 -0.0107782 0)
(-0.000972604 -0.0103979 0)
(-0.00189549 -0.0105023 0)
(0.00263737 -0.00949182 0)
(0.00547129 -0.00821135 0)
(0.00612303 -0.00655074 0)
(0.0064654 -0.00523646 0)
(0.00721535 -0.00344321 0)
(0.00713597 -0.0016691 0)
(0.00710457 -0.000120245 0)
(0.00718931 0.00190272 0)
(0.00667523 0.00400487 0)
(0.00574639 0.00608073 0)
(0.00492281 0.00802789 0)
(0.00563953 0.0088387 0)
(0.00723754 0.0100439 0)
(0.00514249 0.0114654 0)
(0.00214994 0.0119974 0)
(0.00140155 0.0129528 0)
(-0.000936484 0.0140718 0)
(-0.00404285 0.0139452 0)
(-0.00666357 -0.0242201 0)
(-0.00504701 -0.0133584 0)
(-0.00672459 -0.00202066 0)
(-0.0179624 0.00339803 0)
(-0.0201183 -0.0196738 0)
(-0.0197768 -0.0205325 0)
(-0.0188321 -0.0148973 0)
(-0.0189251 -0.00860169 0)
(-0.0168191 -0.00859785 0)
(-0.0122488 -0.00543089 0)
(-0.00702202 -0.00202568 0)
(-0.0021565 -0.000997088 0)
(0.00190771 0.00227633 0)
(0.00515203 0.00596339 0)
(0.00775798 0.00893975 0)
(0.0100252 0.0102387 0)
(0.0130376 0.00681458 0)
(0.0177801 0.00813067 0)
(0.0161681 0.0235706 0)
(0.00145661 0.0176374 0)
(-0.00566517 0.0197763 0)
(-0.00774382 0.0255856 0)
(-0.00353689 0.0203796 0)
(-0.00540317 -0.00412264 0)
(-0.0130402 -0.00974368 0)
(-0.00471073 -0.00483233 0)
(0.0171386 0.00303535 0)
(0.0219457 -0.00795257 0)
(0.001382 -0.00753347 0)
(-0.0125462 -0.00600748 0)
(-0.016509 -0.00589347 0)
(-0.0172291 -0.0102213 0)
(-0.0174494 -0.0109204 0)
(-0.0141728 -0.0086926 0)
(-0.0103254 -0.00744856 0)
(-0.00767283 -0.00380753 0)
(-0.00648422 -0.000132672 0)
(-0.00750075 0.00350813 0)
(-0.0104804 0.00660904 0)
(-0.015026 0.00346665 0)
(-0.0184562 0.00392002 0)
(-0.0153601 0.0282832 0)
(-0.016375 0.0284593 0)
(-0.0245121 0.0223424 0)
(-0.0232233 0.0155236 0)
(-0.0185451 0.0110521 0)
(0.00249145 -0.0048898 0)
(-0.00250237 -0.0084925 0)
(-0.00559109 -0.0246575 0)
(0.00138159 -0.0217531 0)
(0.00336111 0.000884512 0)
(-0.00258211 0.00710897 0)
(-0.00585644 0.00262573 0)
(-0.00836114 -0.00507071 0)
(-0.010365 -0.00844671 0)
(-0.0125126 -0.0116401 0)
(-0.0143017 -0.0111424 0)
(-0.0163517 -0.00881329 0)
(-0.0192377 -0.00309225 0)
(-0.023201 0.00307755 0)
(-0.0283998 0.00896567 0)
(-0.0317932 0.0120736 0)
(-0.0323314 0.0093612 0)
(-0.0337553 0.00657813 0)
(-0.0329038 0.023537 0)
(-0.0303217 0.0323835 0)
(-0.0271851 0.0221597 0)
(-0.0224268 0.0115864 0)
(-0.0252672 0.0156217 0)
(-0.000289128 -0.00436448 0)
(0.00264671 -0.00482006 0)
(-0.0010573 -0.0168122 0)
(-0.00813602 -0.0165292 0)
(-0.0102827 -0.000253757 0)
(-0.0089309 0.00414687 0)
(-0.00807849 0.00165628 0)
(-0.00908609 -0.002727 0)
(-0.0115585 -0.00553344 0)
(-0.014921 -0.00731727 0)
(-0.018751 -0.00672633 0)
(-0.0229382 -0.0035623 0)
(-0.027471 0.00240475 0)
(-0.0319529 0.00908955 0)
(-0.035638 0.0141654 0)
(-0.0365782 0.0125708 0)
(-0.0357634 0.00818999 0)
(-0.0368153 0.00867532 0)
(-0.0361215 0.0196795 0)
(-0.0287698 0.0260475 0)
(-0.0207919 0.0160459 0)
(-0.0196926 0.0115918 0)
(-0.0234766 0.019996 0)
(0.000175575 -0.00689955 0)
(0.00162469 -0.00600718 0)
(-0.00222663 -0.0107705 0)
(-0.00923617 -0.00897014 0)
(-0.012146 -0.000659547 0)
(-0.0113486 0.00291439 0)
(-0.0108645 0.00173969 0)
(-0.0120434 -0.000747492 0)
(-0.0145745 -0.0024925 0)
(-0.0180415 -0.00325304 0)
(-0.0220609 -0.00229199 0)
(-0.0262066 0.00099436 0)
(-0.0299596 0.00634095 0)
(-0.0325617 0.0120474 0)
(-0.0333924 0.0152716 0)
(-0.0331917 0.0118497 0)
(-0.0337145 0.00800842 0)
(-0.0350628 0.00962783 0)
(-0.0331222 0.0152612 0)
(-0.0262914 0.0167272 0)
(-0.0211782 0.0121403 0)
(-0.0210161 0.0137475 0)
(-0.020098 0.0182625 0)
(-0.000135471 -0.00662872 0)
(-0.000401334 -0.00442759 0)
(-0.00363729 -0.0058188 0)
(-0.0086092 -0.00394941 0)
(-0.0113746 0.00047306 0)
(-0.0119082 0.00279108 0)
(-0.0124516 0.00249606 0)
(-0.0140106 0.00127217 0)
(-0.0164594 0.000413519 0)
(-0.0195433 0.000350764 0)
(-0.0230196 0.00154425 0)
(-0.0264223 0.00454933 0)
(-0.0290354 0.00882041 0)
(-0.030132 0.0128958 0)
(-0.0296217 0.0145546 0)
(-0.0290869 0.0119181 0)
(-0.0299384 0.00917167 0)
(-0.0307338 0.00967314 0)
(-0.0289682 0.0113123 0)
(-0.0250972 0.0112009 0)
(-0.0224859 0.0107153 0)
(-0.0213979 0.0129636 0)
(-0.0191055 0.0147851 0)
(-0.000602695 -0.00586815 0)
(-0.00178558 -0.00274985 0)
(-0.00444091 -0.00212105 0)
(-0.00791442 -0.000368235 0)
(-0.0103589 0.00220289 0)
(-0.0116659 0.00373262 0)
(-0.0128908 0.00385938 0)
(-0.014614 0.0033324 0)
(-0.0168283 0.0030077 0)
(-0.0194236 0.00334278 0)
(-0.0222402 0.00464216 0)
(-0.0248374 0.00714791 0)
(-0.0265606 0.0102347 0)
(-0.0269673 0.0128363 0)
(-0.0263093 0.0136077 0)
(-0.025766 0.0120071 0)
(-0.0260584 0.0100395 0)
(-0.0261844 0.00920041 0)
(-0.025007 0.00895983 0)
(-0.0230445 0.00875325 0)
(-0.02149 0.00951763 0)
(-0.020167 0.0111735 0)
(-0.0181417 0.0121084 0)
(-0.00107883 -0.00431914 0)
(-0.00261565 -0.000892029 0)
(-0.00485258 0.000674368 0)
(-0.00742973 0.0023305 0)
(-0.00953649 0.0040637 0)
(-0.0110891 0.00517009 0)
(-0.0125591 0.00545994 0)
(-0.0142423 0.00524957 0)
(-0.016181 0.00522784 0)
(-0.0183427 0.0057732 0)
(-0.0205619 0.00704063 0)
(-0.0224309 0.00895738 0)
(-0.0235024 0.0110264 0)
(-0.023604 0.0125792 0)
(-0.0230193 0.0128911 0)
(-0.0224765 0.011799 0)
(-0.0223812 0.0101852 0)
(-0.0222361 0.00869125 0)
(-0.0215267 0.00773415 0)
(-0.0204666 0.00751249 0)
(-0.0194187 0.00833189 0)
(-0.0182613 0.00964859 0)
(-0.0166774 0.0102251 0)
(-0.00134957 -0.0023374 0)
(-0.00304201 0.00102675 0)
(-0.00502893 0.0029146 0)
(-0.00709132 0.00446988 0)
(-0.00889765 0.0058087 0)
(-0.0104094 0.0066882 0)
(-0.0118447 0.00702775 0)
(-0.0133877 0.00696962 0)
(-0.0150846 0.00711613 0)
(-0.0168678 0.00772812 0)
(-0.0185376 0.00880235 0)
(-0.0197993 0.0101387 0)
(-0.0204213 0.011436 0)
(-0.0203617 0.0122864 0)
(-0.0198388 0.0122987 0)
(-0.0192792 0.0114064 0)
(-0.0189415 0.00999615 0)
(-0.0187124 0.00833069 0)
(-0.0183794 0.00711891 0)
(-0.0178839 0.00676389 0)
(-0.0172276 0.00740414 0)
(-0.0162681 0.00841644 0)
(-0.0149239 0.00873458 0)
(-0.00144334 -0.000156167 0)
(-0.00321718 0.0029511 0)
(-0.00505953 0.00484977 0)
(-0.00682857 0.00626794 0)
(-0.00840085 0.00736947 0)
(-0.0097722 0.00809738 0)
(-0.0110661 0.0084365 0)
(-0.0124297 0.0084934 0)
(-0.0138812 0.00870603 0)
(-0.015293 0.0092441 0)
(-0.0164859 0.0100182 0)
(-0.0172947 0.0108664 0)
(-0.0176194 0.0116007 0)
(-0.0174636 0.011968 0)
(-0.0169806 0.0117521 0)
(-0.0164231 0.0109199 0)
(-0.0159764 0.00965439 0)
(-0.0157235 0.00812358 0)
(-0.0156049 0.00688995 0)
(-0.015451 0.00638544 0)
(-0.0150837 0.00674981 0)
(-0.0142909 0.00733346 0)
(-0.0130928 0.00739904 0)
(-0.00144056 0.00208045 0)
(-0.00324899 0.00486497 0)
(-0.00501059 0.00661595 0)
(-0.00660762 0.00785126 0)
(-0.00801226 0.00875828 0)
(-0.00924355 0.00935438 0)
(-0.0103885 0.00966397 0)
(-0.0115463 0.00979094 0)
(-0.0127152 0.00998533 0)
(-0.0137735 0.0103559 0)
(-0.0145952 0.0108245 0)
(-0.0150947 0.0112871 0)
(-0.015228 0.0116098 0)
(-0.0150189 0.0116361 0)
(-0.0145774 0.011245 0)
(-0.0140664 0.0104223 0)
(-0.0136264 0.00927586 0)
(-0.0133594 0.00796588 0)
(-0.0132827 0.00683736 0)
(-0.0132544 0.00623608 0)
(-0.0129973 0.00625539 0)
(-0.0123251 0.0063877 0)
(-0.0113085 0.00620516 0)
(-0.00139527 0.00428873 0)
(-0.00321137 0.00676365 0)
(-0.00491886 0.00827897 0)
(-0.00640453 0.00929634 0)
(-0.00768872 0.010012 0)
(-0.00880039 0.0104728 0)
(-0.00980412 0.0107198 0)
(-0.0107577 0.010837 0)
(-0.0116542 0.0109556 0)
(-0.0124171 0.011138 0)
(-0.0129666 0.0113451 0)
(-0.0132538 0.0115045 0)
(-0.013264 0.0115244 0)
(-0.0130285 0.0113087 0)
(-0.0126293 0.0107906 0)
(-0.0121795 0.00996979 0)
(-0.011785 0.00892367 0)
(-0.0115246 0.007789 0)
(-0.0114079 0.00678634 0)
(-0.0113233 0.00612122 0)
(-0.0110667 0.00582218 0)
(-0.010505 0.00560681 0)
(-0.00967604 0.0052033 0)
(-0.00136741 0.00645361 0)
(-0.00315144 0.00863002 0)
(-0.00479861 0.00986424 0)
(-0.00619927 0.0106423 0)
(-0.00738855 0.0111583 0)
(-0.00839545 0.011469 0)
(-0.00926854 0.0116158 0)
(-0.0100448 0.0116574 0)
(-0.0107217 0.0116653 0)
(-0.0112575 0.0116738 0)
(-0.0116076 0.011663 0)
(-0.0117471 0.0115855 0)
(-0.0116767 0.0113815 0)
(-0.0114279 0.0109935 0)
(-0.0110632 0.0103863 0)
(-0.0106629 0.0095686 0)
(-0.0103027 0.00859979 0)
(-0.0100346 0.00758262 0)
(-0.00985775 0.00665697 0)
(-0.00969266 0.00593717 0)
(-0.00940893 0.00542494 0)
(-0.0089208 0.00496796 0)
(-0.00824467 0.00439384 0)
(-0.00135896 0.00858343 0)
(-0.00308188 0.0104361 0)
(-0.00465448 0.0113758 0)
(-0.00597804 0.0119049 0)
(-0.0070836 0.0122121 0)
(-0.00799657 0.0123557 0)
(-0.00875545 0.0123719 0)
(-0.00938795 0.0122997 0)
(-0.00989763 0.0121791 0)
(-0.0102664 0.0120285 0)
(-0.0104736 0.0118365 0)
(-0.0105106 0.0115733 0)
(-0.0103862 0.0112019 0)
(-0.0101295 0.0106889 0)
(-0.00978822 0.0100179 0)
(-0.00941974 0.00920136 0)
(-0.00907623 0.00828447 0)
(-0.00879015 0.00733949 0)
(-0.00855664 0.00645339 0)
(-0.00832349 0.00568964 0)
(-0.00801196 0.00504345 0)
(-0.00757026 0.00442905 0)
(-0.00700634 0.00373974 0)
(-0.00134838 0.0106742 0)
(-0.00299558 0.0121609 0)
(-0.00448581 0.0128108 0)
(-0.00573291 0.0130884 0)
(-0.00675821 0.0131807 0)
(-0.00758477 0.0131451 0)
(-0.00824537 0.0130116 0)
(-0.00876386 0.0128059 0)
(-0.00914914 0.01255 0)
(-0.00939783 0.0122533 0)
(-0.0095046 0.0119086 0)
(-0.00947112 0.0114975 0)
(-0.00931034 0.0109976 0)
(-0.009048 0.0103908 0)
(-0.00872073 0.00967098 0)
(-0.00836958 0.00885106 0)
(-0.00803031 0.00796457 0)
(-0.00772338 0.00706064 0)
(-0.00744419 0.0061929 0)
(-0.00716045 0.00539706 0)
(-0.00682665 0.00466806 0)
(-0.00641345 0.00395653 0)
(-0.00592646 0.00319792 0)
(-0.00132296 0.0127128 0)
(-0.00289349 0.0137974 0)
(-0.00429773 0.0141646 0)
(-0.0054618 0.014191 0)
(-0.00640471 0.014067 0)
(-0.00714881 0.013847 0)
(-0.00772359 0.0135553 0)
(-0.00815113 0.0132081 0)
(-0.00844383 0.0128172 0)
(-0.00860685 0.0123864 0)
(-0.00864393 0.0119106 0)
(-0.00856275 0.0113783 0)
(-0.00837791 0.0107765 0)
(-0.0081117 0.0100958 0)
(-0.00779239 0.00933545 0)
(-0.00744973 0.00850704 0)
(-0.00710867 0.00763487 0)
(-0.00678285 0.0067518 0)
(-0.00646965 0.00589102 0)
(-0.00615044 0.00507303 0)
(-0.00580013 0.00429416 0)
(-0.00540348 0.00352612 0)
(-0.00496579 0.00273086 0)
(-0.00127447 0.0146822 0)
(-0.00277666 0.0153514 0)
(-0.00409299 0.0154282 0)
(-0.00516265 0.0152059 0)
(-0.00601798 0.0148697 0)
(-0.00668113 0.0144676 0)
(-0.00717906 0.0140177 0)
(-0.00753239 0.0135296 0)
(-0.00775516 0.0130085 0)
(-0.0078569 0.0124549 0)
(-0.00784613 0.0118647 0)
(-0.00773349 0.0112305 0)
(-0.00753367 0.0105446 0)
(-0.0072657 0.00980253 0)
(-0.00695167 0.00900592 0)
(-0.0066136 0.00816439 0)
(-0.00626944 0.0072952 0)
(-0.00592916 0.00642019 0)
(-0.00559235 0.0055601 0)
(-0.00524931 0.00472715 0)
(-0.00488721 0.00391924 0)
(-0.00449926 0.00312057 0)
(-0.0040908 0.00230953 0)
(-0.00121698 0.0165674 0)
(-0.00264462 0.016826 0)
(-0.00386314 0.0165885 0)
(-0.00482807 0.0161249 0)
(-0.00559172 0.0155869 0)
(-0.00617541 0.0150112 0)
(-0.00660352 0.0144098 0)
(-0.00689495 0.0137868 0)
(-0.00706386 0.0131435 0)
(-0.00712152 0.0124781 0)
(-0.00707839 0.0117869 0)
(-0.00694605 0.0110647 0)
(-0.00673831 0.0103068 0)
(-0.00647129 0.00951136 0)
(-0.00616243 0.00868066 0)
(-0.00582845 0.00782222 0)
(-0.00548282 0.00694818 0)
(-0.00513351 0.00607303 0)
(-0.00478187 0.00520995 0)
(-0.00442383 0.00436656 0)
(-0.00405378 0.0035421 0)
(-0.00366979 0.00272818 0)
(-0.00327701 0.00191327 0)
(-0.00116777 0.0183609 0)
(-0.00248564 0.0182023 0)
(-0.00358722 0.0176361 0)
(-0.00444581 0.0169439 0)
(-0.00511877 0.0162187 0)
(-0.00562657 0.0154823 0)
(-0.00599149 0.01474 0)
(-0.00623068 0.0139919 0)
(-0.00635758 0.0132361 0)
(-0.00638355 0.0124697 0)
(-0.00631931 0.0116886 0)
(-0.00617608 0.010889 0)
(-0.00596625 0.0100678 0)
(-0.00570334 0.00922418 0)
(-0.00540126 0.00836043 0)
(-0.00507302 0.00748216 0)
(-0.00472914 0.00659781 0)
(-0.00437637 0.00571705 0)
(-0.00401728 0.00484841 0)
(-0.0036512 0.00399691 0)
(-0.00327666 0.00316269 0)
(-0.00289432 0.0023418 0)
(-0.00250894 0.00152869 0)
(-0.0010865 0.0200374 0)
(-0.00226946 0.0194503 0)
(-0.00324933 0.0185715 0)
(-0.00400827 0.0176663 0)
(-0.00459555 0.0167695 0)
(-0.00503267 0.0158866 0)
(-0.00534088 0.0150162 0)
(-0.00553589 0.0141543 0)
(-0.00562995 0.0132969 0)
(-0.0056336 0.0124396 0)
(-0.00555677 0.0115785 0)
(-0.00540959 0.0107099 0)
(-0.00520275 0.00983184 0)
(-0.00494744 0.00894377 0)
(-0.00465482 0.00804753 0)
(-0.00433518 0.00714723 0)
(-0.00399699 0.0062487 0)
(-0.00364617 0.00535842 0)
(-0.00328597 0.00448204 0)
(-0.00291766 0.00362305 0)
(-0.00254203 0.00278212 0)
(-0.00216105 0.00195783 0)
(-0.00177889 0.0011481 0)
(-0.000957868 0.021547 0)
(-0.00200157 0.020555 0)
(-0.00286172 0.0193987 0)
(-0.00352201 0.018297 0)
(-0.00402594 0.017244 0)
(-0.00439635 0.0162298 0)
(-0.00465336 0.015245 0)
(-0.00481093 0.014282 0)
(-0.00487959 0.013334 0)
(-0.00486837 0.0123959 0)
(-0.0047858 0.0114634 0)
(-0.00464047 0.0105331 0)
(-0.00444126 0.00960326 0)
(-0.00419724 0.0086735 0)
(-0.00391736 0.00774518 0)
(-0.00360981 0.0068212 0)
(-0.00328155 0.00590561 0)
(-0.0029378 0.00500281 0)
(-0.00258209 0.00411661 0)
(-0.00221672 0.00324953 0)
(-0.00184361 0.00240251 0)
(-0.00146527 0.00157547 0)
(-0.00108526 0.000768189 0)
(-0.000823554 0.0228588 0)
(-0.00171725 0.021512 0)
(-0.00244705 0.0201127 0)
(-0.00300023 0.0188343 0)
(-0.0034181 0.0176437 0)
(-0.00372339 0.0165156 0)
(-0.00393347 0.0154321 0)
(-0.0040593 0.0143813 0)
(-0.00410888 0.0133543 0)
(-0.0040891 0.0123451 0)
(-0.00400665 0.0113492 0)
(-0.0038683 0.0103634 0)
(-0.0036811 0.0093862 0)
(-0.00345221 0.00841708 0)
(-0.00318868 0.00745703 0)
(-0.00289704 0.00650816 0)
(-0.002583 0.00557329 0)
(-0.00225118 0.00465546 0)
(-0.0019051 0.00375735 0)
(-0.0015475 0.00288081 0)
(-0.00118081 0.00202683 0)
(-0.000807653 0.00119594 0)
(-0.000431024 0.000388775 0)
(-0.000697026 0.0239709 0)
(-0.0014324 0.0223133 0)
(-0.0020183 0.0207008 0)
(-0.00245269 0.0192708 0)
(-0.0027793 0.0179669 0)
(-0.00302012 0.0167464 0)
(-0.0031872 0.0155821 0)
(-0.00328666 0.0144579 0)
(-0.00332294 0.0133637 0)
(-0.0033003 0.0122929 0)
(-0.00322326 0.0112412 0)
(-0.00309668 0.0102057 0)
(-0.00292577 0.00918483 0)
(-0.00271593 0.00817837 0)
(-0.00247256 0.00718699 0)
(-0.00220078 0.00621228 0)
(-0.00190525 0.00525632 0)
(-0.00158999 0.00432132 0)
(-0.00125835 0.00340921 0)
(-0.000913203 0.00252138 0)
(-0.000557132 0.00165874 0)
(-0.00019267 0.000821975 0)
(0.000177686 1.19508e-05 0)
(-0.000581926 0.0248901 0)
(-0.00115387 0.0229495 0)
(-0.00158178 0.0211477 0)
(-0.00188413 0.019596 0)
(-0.00211419 0.0182111 0)
(-0.00229239 0.0169249 0)
(-0.00242137 0.0156999 0)
(-0.00250016 0.0145175 0)
(-0.00252883 0.0133679 0)
(-0.00250873 0.0122447 0)
(-0.00244212 0.0111443 0)
(-0.00233191 0.0100643 0)
(-0.00218154 0.00900331 0)
(-0.00199474 0.00796134 0)
(-0.00177544 0.00693905 0)
(-0.00152753 0.00593777 0)
(-0.00125474 0.00495919 0)
(-0.000960508 0.00400508 0)
(-0.000647938 0.00307691 0)
(-0.000319848 0.00217579 0)
(2.11733e-05 0.00130242 0)
(0.000372749 0.000457373 0)
(0.000732793 -0.000358638 0)
(-0.000481335 0.0256244 0)
(-0.000883907 0.0234115 0)
(-0.00113833 0.0214346 0)
(-0.00129448 0.019798 0)
(-0.00142527 0.0183763 0)
(-0.00154618 0.0170559 0)
(-0.00164386 0.0157913 0)
(-0.00170823 0.014566 0)
(-0.00173495 0.0133723 0)
(-0.0017226 0.0122057 0)
(-0.00167127 0.0110634 0)
(-0.00158197 0.00994363 0)
(-0.00145639 0.0088458 0)
(-0.00129671 0.00777004 0)
(-0.00110547 0.00671723 0)
(-0.000885461 0.00568875 0)
(-0.000639557 0.00468622 0)
(-0.000370658 0.00371122 0)
(-8.15994e-05 0.00276506 0)
(0.000224899 0.00184862 0)
(0.000546303 0.000962385 0)
(0.000880376 0.000106644 0)
(0.00122534 -0.000718309 0)
(-0.000385808 0.0261871 0)
(-0.000607697 0.0236922 0)
(-0.000676442 0.0215432 0)
(-0.0006787 0.0198676 0)
(-0.000715919 0.0184679 0)
(-0.000790041 0.0171476 0)
(-0.000864478 0.0158634 0)
(-0.000920439 0.0146092 0)
(-0.000950459 0.0133823 0)
(-0.000950822 0.0121807 0)
(-0.000919521 0.0110029 0)
(-0.000855656 0.00984819 0)
(-0.000759183 0.00871649 0)
(-0.000630759 0.00760851 0)
(-0.000471631 0.00652556 0)
(-0.000283526 0.00546931 0)
(-6.85587e-05 0.00444158 0)
(0.000170867 0.00344406 0)
(0.000432162 0.00247808 0)
(0.000712684 0.00154442 0)
(0.00100991 0.00064334 0)
(0.00132169 -0.000225298 0)
(0.00164645 -0.00106178 0)
(-0.000211081 0.0265554 0)
(-0.000224791 0.0237837 0)
(-0.000141882 0.021493 0)
(-3.85975e-05 0.0198264 0)
(-6.48522e-06 0.0184943 0)
(-3.93507e-05 0.0172067 0)
(-9.46367e-05 0.0159214 0)
(-0.000146257 0.0146519 0)
(-0.000184124 0.0134027 0)
(-0.000202028 0.0121745 0)
(-0.000195604 0.0109677 0)
(-0.000161857 0.00978241 0)
(-9.89428e-05 0.00861967 0)
(-6.0038e-06 0.00748091 0)
(0.000116961 0.00636808 0)
(0.000269206 0.00528345 0)
(0.000449327 0.0042293 0)
(0.00065536 0.0032077 0)
(0.000884906 0.0022202 0)
(0.00113532 0.00126762 0)
(0.001404 0.000349966 0)
(0.00168875 -0.000533406 0)
(0.00198814 -0.00138353 0)
(0.000113985 0.0265773 0)
(0.000323007 0.0236919 0)
(0.000497328 0.021346 0)
(0.000638011 0.0197293 0)
(0.000701372 0.0184732 0)
(0.000699774 0.0172381 0)
(0.000660765 0.0159685 0)
(0.000609 0.0146982 0)
(0.000557737 0.0134381 0)
(0.00051652 0.0121922 0)
(0.000492542 0.0109625 0)
(0.000491066 0.009751 0)
(0.000515747 0.00855978 0)
(0.000568893 0.00739141 0)
(0.000651663 0.0062488 0)
(0.000764211 0.00513506 0)
(0.000905782 0.00405322 0)
(0.0010748 0.00300598 0)
(0.00126897 0.00199535 0)
(0.00148554 0.00102233 0)
(0.00172166 8.67288e-05 0)
(0.00197496 -0.000812762 0)
(0.00224402 -0.00167813 0)
(0.000538017 0.0261055 0)
(0.0009777 0.0234273 0)
(0.00122503 0.0211502 0)
(0.00137651 0.0196222 0)
(0.00143857 0.0184354 0)
(0.0014442 0.0172514 0)
(0.00140893 0.016012 0)
(0.00134617 0.0147553 0)
(0.00127187 0.0134957 0)
(0.00119915 0.0122401 0)
(0.00113795 0.0109933 0)
(0.00109554 0.0097591 0)
(0.00107712 0.00854141 0)
(0.00108619 0.00734421 0)
(0.00112487 0.00617162 0)
(0.0011941 0.00502784 0)
(0.0012937 0.00391689 0)
(0.00142244 0.00284236 0)
(0.00157808 0.00180701 0)
(0.00175761 0.000812222 0)
(0.00195771 -0.000142341 0)
(0.00217561 -0.00105883 0)
(0.00240986 -0.00194049 0)
(0.000961402 0.0250967 0)
(0.00169046 0.0229544 0)
(0.00203159 0.0209191 0)
(0.0021828 0.019527 0)
(0.0022282 0.018405 0)
(0.00221839 0.0172671 0)
(0.00216119 0.0160692 0)
(0.00206737 0.0148373 0)
(0.00195526 0.0135865 0)
(0.00184027 0.0123271 0)
(0.00173393 0.0110668 0)
(0.00164464 0.00981221 0)
(0.00157842 0.00856916 0)
(0.00153946 0.00734333 0)
(0.00153054 0.00614021 0)
(0.00155318 0.00496518 0)
(0.00160775 0.00382347 0)
(0.00169337 0.00271984 0)
(0.00180784 0.00165809 0)
(0.00194779 0.000640327 0)
(0.00210914 -0.000333828 0)
(0.00228837 -0.00126763 0)
(0.00248391 -0.00216609 0)