/*--------------------------------*- C++ -*----------------------------------*\
  =========                 |
  \\      /  F ield         | OpenFOAM: The Open Source CFD Toolbox
   \\    /   O peration     | Website:  https://openfoam.org
    \\  /    A nd           | Version:  9
     \\/     M anipulation  |
\*---------------------------------------------------------------------------*/
FoamFile
{
    format      ascii;
    class       volScalarField;
    location    "6.34";
    object      epsilon;
}
// * * * * * * * * * * * * * * * * * * * * * * * * * * * * * * * * * * * * * //

dimensions      [0 2 -3 0 0 0 0];

internalField   nonuniform List<scalar> 
2268
(
0.000241575
0.00125729
0.00221635
0.00307916
0.00385349
0.00454952
0.00517703
0.00574274
0.00625115
0.00671554
0.00715191
0.00756011
0.00793508
0.00824524
0.00840827
0.00824978
0.00745795
0.00626032
0.0051446
0.00436343
0.0036055
0.00257163
0.000788824
0.000488985
0.000859817
0.00127655
0.00165975
0.00200271
0.00230735
0.00257702
0.0028152
0.00302553
0.00321451
0.00338935
0.00354818
0.00368784
0.00379608
0.00384526
0.00378643
0.00355938
0.00324883
0.00287841
0.00250422
0.00208173
0.00166435
0.00125908
0.000826058
0.000897478
0.00117422
0.00144681
0.00169532
0.00191705
0.00211312
0.00228592
0.00243839
0.00257471
0.00269906
0.00281076
0.00290713
0.00298016
0.00301366
0.00298277
0.00286716
0.00270331
0.00249126
0.00225809
0.00202342
0.00186875
0.00207538
0.00115686
0.000995854
0.00119355
0.00141099
0.00161507
0.00179915
0.00196269
0.00210727
0.00223534
0.00235008
0.00245431
0.0025478
0.00262814
0.0026891
0.00271976
0.00270607
0.00264065
0.00254166
0.00241033
0.00227179
0.00217209
0.00222561
0.00299743
0.00147466
0.00111419
0.00125401
0.0014347
0.00161046
0.00177115
0.00191486
0.00204256
0.00215633
0.00225879
0.00235209
0.00243619
0.00250887
0.00256512
0.00259734
0.00259774
0.00256526
0.0025105
0.00243716
0.00237459
0.00238945
0.00265185
0.00412765
0.0017825
0.00124158
0.00133438
0.00148715
0.0016419
0.00178543
0.00191474
0.00203032
0.00213403
0.0022281
0.00231434
0.00239279
0.00246151
0.00251648
0.00255252
0.0025659
0.00255929
0.00254143
0.00251617
0.00251771
0.00263713
0.00314825
0.00575484
0.00208502
0.00137429
0.00142668
0.00155663
0.00169428
0.00182378
0.00194134
0.00204713
0.00214283
0.00223043
0.00231155
0.00238632
0.00245309
0.00250873
0.00254995
0.00257578
0.00259116
0.00260521
0.0026216
0.0026758
0.00288331
0.00368375
0.00834761
0.00238703
0.00151139
0.00152757
0.00163791
0.00176062
0.00187767
0.00198476
0.00208192
0.00217067
0.00225286
0.00232995
0.00240219
0.00246826
0.00252583
0.00257304
0.00261074
0.00264514
0.00268563
0.0027362
0.0028284
0.00308816
0.00413243
0.0138666
0.000704054
0.00333644
0.00527494
0.00629095
0.00685345
0.00711899
0.00732776
0.00753767
0.00757271
0.00690269
0.0056551
0.00437445
0.00320444
0.00295835
0.0039748
0.00388482
0.00250254
0.00143045
0.000489916
0.000811586
0.00184539
0.0024899
0.00286927
0.00309923
0.00323265
0.00332212
0.00338306
0.00336522
0.00317076
0.00289844
0.00251174
0.00212298
0.00195877
0.00196955
0.00181994
0.0013552
0.000909557
0.000580117
0.00138297
0.0018123
0.00214053
0.00234171
0.00246886
0.00254823
0.00260072
0.00262816
0.00259812
0.00247426
0.00232515
0.00211226
0.0018747
0.00172932
0.00163104
0.00149129
0.00119221
0.000870246
0.000730484
0.00213946
0.00206256
0.00215261
0.00222733
0.00228423
0.00232391
0.00235089
0.00235942
0.00232203
0.0022193
0.00210439
0.00195287
0.00177469
0.00164523
0.0015375
0.00141104
0.00117398
0.00089771
0.000846828
0.00311573
0.00245594
0.0022879
0.00224307
0.00223903
0.00224445
0.00224972
0.00224356
0.00220053
0.00210667
0.00200406
0.00188118
0.00173626
0.00162251
0.00152308
0.00141044
0.0012056
0.000955766
0.000979582
0.004543
0.00295211
0.0024742
0.00231257
0.00225397
0.00222895
0.00221467
0.00219567
0.00214778
0.00205885
0.00196282
0.00185641
0.00173534
0.00163787
0.00154472
0.00144161
0.00125443
0.00103147
0.00113217
0.00701178
0.00350925
0.00266827
0.00240267
0.00229805
0.00224668
0.00221472
0.00218387
0.00213168
0.00204644
0.00195816
0.00186461
0.00176317
0.00167653
0.0015848
0.00148427
0.00130417
0.00111486
0.00131364
0.0118024
0.00397568
0.00282924
0.00249477
0.00235617
0.00228311
0.00223539
0.00219347
0.00213744
0.00205638
0.00197848
0.00189851
0.00181123
0.00172536
0.00163312
0.00152916
0.0013525
0.00120092
0.0015438
0.00287377
0.00173298
0.00169683
0.00177988
0.00188075
0.00197922
0.00207069
0.00215512
0.00223385
0.00230845
0.0023802
0.00244956
0.00251569
0.00257734
0.00263427
0.00268909
0.00274882
0.00282196
0.00291088
0.00303561
0.003284
0.00394242
0.00606728
0.0035122
0.00203984
0.00195488
0.00200955
0.00207969
0.00215085
0.0022198
0.00228679
0.00235252
0.00241796
0.00248407
0.00255142
0.0026196
0.00268812
0.00275746
0.00283
0.00291031
0.00300215
0.00310445
0.00322579
0.00340564
0.00374505
0.00441638
0.00418587
0.00239146
0.00229279
0.00231745
0.00233512
0.00236338
0.00239885
0.00244231
0.00249177
0.00254666
0.00260677
0.00267214
0.00274203
0.00281625
0.00289536
0.00298021
0.0030717
0.00316818
0.00326514
0.00337196
0.00349743
0.00366993
0.00390562
0.00492211
0.00283282
0.00282769
0.00279502
0.00269497
0.00264775
0.00262122
0.00262762
0.00265254
0.00269242
0.00274268
0.00280286
0.00287127
0.00294744
0.00303343
0.00312753
0.003226
0.00332077
0.00340382
0.00350512
0.00360248
0.00369491
0.00378228
0.00550563
0.00332218
0.00353916
0.00310355
0.00290813
0.0028427
0.00278333
0.00277352
0.00279004
0.00282816
0.00287731
0.00293891
0.003004
0.00307551
0.00316736
0.00327241
0.00337251
0.00344428
0.00351762
0.00361205
0.00366661
0.00371948
0.00375884
0.0065657
0.00352032
0.00326982
0.00307409
0.00299853
0.00304738
0.00292111
0.00286381
0.00286512
0.00290192
0.00296024
0.00303184
0.00310286
0.00318684
0.00328796
0.00338194
0.00345319
0.00349651
0.00353506
0.00360478
0.0036524
0.00369076
0.00370291
0.00689117
0.00351689
0.00328104
0.00308666
0.00301672
0.00301391
0.00293849
0.00291067
0.00291605
0.00295201
0.00301057
0.00308131
0.00315391
0.0032254
0.00329968
0.00337102
0.00342305
0.00346083
0.00350274
0.00355261
0.00358927
0.0036249
0.00361656
0.00748266
0.00331421
0.00303769
0.00290596
0.00288056
0.00288297
0.0028836
0.00290207
0.00293731
0.00298806
0.00305221
0.00312272
0.003188
0.00324161
0.00329319
0.00334936
0.00339677
0.00343543
0.00347184
0.00350827
0.00353716
0.00355435
0.00355139
0.00747428
0.00320109
0.00286647
0.00278076
0.00277527
0.00279829
0.00283332
0.00287874
0.0029329
0.00299523
0.00306358
0.00313248
0.00319317
0.00324191
0.00328657
0.00333456
0.00337942
0.00341523
0.0034457
0.00347254
0.00349284
0.00350358
0.00350485
0.00748211
0.00316142
0.00279668
0.00271455
0.0027162
0.00275099
0.00280062
0.00285773
0.00291989
0.00298631
0.00305474
0.00312056
0.00317857
0.00322851
0.00327616
0.00332491
0.00336734
0.00339985
0.00342669
0.00344842
0.00346171
0.00346613
0.00346464
0.00750077
0.00316455
0.00277822
0.00268834
0.00268946
0.00272737
0.00278149
0.00284255
0.00290716
0.00297394
0.00304073
0.00310408
0.00316177
0.00321489
0.00326639
0.00331594
0.00335744
0.00338941
0.00341497
0.0034337
0.00344311
0.00344403
0.00343971
0.00176673
0.00319967
0.00278662
0.00268574
0.00268177
0.00271761
0.00277139
0.00283287
0.00289766
0.0029637
0.00302895
0.00309119
0.00314974
0.0032054
0.00325896
0.0033088
0.0033509
0.00338418
0.00341008
0.0034282
0.00343724
0.00343816
0.00343341
0.00748154
0.00325534
0.00281051
0.00269715
0.00268554
0.00271665
0.00276774
0.00282795
0.00289199
0.00295719
0.00302162
0.00308386
0.0031436
0.00320097
0.00325571
0.00330617
0.00334993
0.00338581
0.0034138
0.00343362
0.00344477
0.00344819
0.00344556
0.00176686
0.00330514
0.00284397
0.00271713
0.00269674
0.00272201
0.00276942
0.00282757
0.00289053
0.00295517
0.00301958
0.00308263
0.00314383
0.00320284
0.00325902
0.00331103
0.00335728
0.00339664
0.00342828
0.00345177
0.003467
0.00347487
0.0034765
0.00748379
0.0033752
0.00288281
0.00274225
0.00271295
0.00273229
0.00277585
0.00283181
0.00289382
0.00295842
0.00302361
0.00308819
0.00315142
0.00321271
0.00327126
0.00332599
0.00337571
0.00341935
0.00345591
0.00348475
0.00350584
0.00351984
0.00352749
0.00746539
0.00344739
0.00292415
0.0027702
0.00273255
0.00274649
0.00278669
0.00284089
0.00290249
0.00296778
0.00303458
0.00310152
0.00316767
0.00323225
0.00329445
0.00335328
0.00340773
0.00345677
0.00349947
0.00353517
0.00356368
0.00358532
0.00360047
0.00749266
0.00350419
0.00296618
0.0027995
0.00275447
0.00276398
0.00280171
0.002855
0.00291704
0.00298393
0.00305331
0.00312366
0.00319389
0.0032631
0.00333042
0.00339492
0.00345564
0.00351161
0.00356192
0.00360594
0.00364332
0.003674
0.00369803
0.00749886
0.00357527
0.00300814
0.00282927
0.0027781
0.00278441
0.00282083
0.00287432
0.0029379
0.00300751
0.00308068
0.00315572
0.00323143
0.00330682
0.00338096
0.00345291
0.00352172
0.00358643
0.00364613
0.0037001
0.00374788
0.00378908
0.00382343
0.00749114
0.00364443
0.00304906
0.00285899
0.00280316
0.00280766
0.00284408
0.00289907
0.00296548
0.00303917
0.00311753
0.0031988
0.00328166
0.00336504
0.00344793
0.00352937
0.00360836
0.00368391
0.00375505
0.00382093
0.00388092
0.00393439
0.00398076
0.00746801
0.00373088
0.00308776
0.00288841
0.00282965
0.00283381
0.00287166
0.00292957
0.0030003
0.00307962
0.00316484
0.00325412
0.00334607
0.00343952
0.00353341
0.00362669
0.00371829
0.00380712
0.00389211
0.00397227
0.0040467
0.00411459
0.00417508
0.00760018
0.00378377
0.00312254
0.00291772
0.00285775
0.00286306
0.00290383
0.00296624
0.00304296
0.00312968
0.00322367
0.00332304
0.00342632
0.00353228
0.00363977
0.00374763
0.00385467
0.0039597
0.00406146
0.00415876
0.00425043
0.00433544
0.00441261
0.00772953
0.00383122
0.00315585
0.00294743
0.00288776
0.00289573
0.00294102
0.00300964
0.00309417
0.00319031
0.00329527
0.00340712
0.00352436
0.00364567
0.0037698
0.00389548
0.00402137
0.00414607
0.00426814
0.00438609
0.00449848
0.00460395
0.00470103
0.00785238
0.00387598
0.0031884
0.00297788
0.00292001
0.0029322
0.00298371
0.00306038
0.0031548
0.00326261
0.00338105
0.00350817
0.00364242
0.00378242
0.00392682
0.00407419
0.00422301
0.00437164
0.00451832
0.00466128
0.00479868
0.0049288
0.00504978
0.00796585
0.00391806
0.00322039
0.00300938
0.00295484
0.00297291
0.00303245
0.00311923
0.0032258
0.00334785
0.00348265
0.00362825
0.0037831
0.00394576
0.00411476
0.00428849
0.00446521
0.00464294
0.00481958
0.00499291
0.00516065
0.00532059
0.00547041
0.00806494
0.00395718
0.00325202
0.00304221
0.00299263
0.00301834
0.00308789
0.00318699
0.00330825
0.00344743
0.00360187
0.0037697
0.00394938
0.00413941
0.00433822
0.00454401
0.00475469
0.00496794
0.00518113
0.0053915
0.00559618
0.00579235
0.00597708
0.0081518
0.0039938
0.00328361
0.00307671
0.0030338
0.003069
0.00315067
0.00326453
0.00340328
0.00356285
0.00374072
0.00393514
0.00414462
0.00436767
0.00460261
0.00484738
0.00509954
0.00535623
0.00561419
0.00586991
0.00611976
0.00636008
0.00658717
0.00823129
0.0040287
0.00331554
0.00311324
0.00307874
0.00312539
0.00322144
0.0033527
0.00351207
0.00369571
0.00390134
0.00412741
0.00437259
0.00463544
0.00491416
0.00520645
0.00550938
0.0058194
0.00613242
0.00644391
0.00674917
0.00704346
0.00732205
0.0083055
0.00406235
0.00334808
0.00315207
0.00312779
0.00318798
0.00330083
0.00345236
0.00363578
0.0038476
0.00408591
0.00434953
0.00463737
0.00494815
0.00528001
0.00563034
0.00599562
0.0063714
0.00675242
0.00713278
0.00750631
0.00786671
0.00820795
0.00837451
0.00409476
0.00338134
0.0031934
0.00318126
0.00325714
0.00338935
0.00356423
0.00377544
0.00402002
0.00429662
0.00460459
0.00494332
0.00531178
0.00570815
0.00612953
0.00657164
0.00702886
0.0074943
0.00796013
0.00841811
0.00885981
0.0092774
0.00843561
0.00412528
0.00341525
0.00323737
0.00323938
0.00333322
0.00348744
0.0036889
0.00393189
0.00421423
0.00453539
0.00489551
0.00529473
0.00573256
0.00620736
0.00671593
0.00725312
0.00781169
0.00838252
0.00895502
0.00951798
0.01006
0.0105707
0.00847975
0.00415275
0.00344972
0.00328411
0.00330229
0.00341635
0.00359528
0.00382664
0.00410562
0.0044311
0.00480373
0.00522487
0.00569578
0.00621688
0.00678703
0.00740286
0.00805814
0.00874355
0.00944678
0.0101533
0.0108475
0.0115137
0.0121382
0.00850534
0.00417955
0.0034852
0.0033336
0.00337002
0.00350659
0.0037129
0.00397745
0.00429667
0.00467091
0.00510246
0.00559445
0.00614986
0.00677064
0.00745664
0.00820461
0.00900717
0.00985223
0.010723
0.0115992
0.0124587
0.0132794
0.0140431
0.00849639
0.00420289
0.00352072
0.00338573
0.00344275
0.00360408
0.00384021
0.00414096
0.00450445
0.00493301
0.00543121
0.00600467
0.00665897
0.00739847
0.00822492
0.0091358
0.0101227
0.01117
0.0122548
0.0133478
0.0144171
0.0154313
0.0163651
0.00844245
0.0042179
0.00355537
0.00344098
0.00352122
0.00370929
0.00397712
0.00431641
0.00472755
0.00521551
0.00578792
0.00645385
0.00722264
0.00810247
0.0090984
0.0102099
0.0114282
0.0127334
0.014094
0.0154674
0.0168063
0.0180644
0.0192065
0.00833462
0.00422092
0.00358994
0.0035017
0.00360774
0.00382362
0.00412376
0.00450259
0.00496349
0.00551481
0.00616813
0.00693716
0.00783657
0.00888032
0.0100791
0.0114368
0.0129457
0.014582
0.0163022
0.0180438
0.0197338
0.0213021
0.022699
0.00815095
0.00421104
0.00363003
0.00357476
0.00370783
0.00395027
0.00428086
0.0046979
0.00520852
0.00582517
0.00656429
0.00744555
0.0084909
0.00972278
0.0111611
0.0128182
0.0146915
0.0167549
0.01895
0.0211839
0.0233403
0.0253075
0.0270146
0.00784695
0.00419624
0.00369453
0.00367736
0.00383325
0.00409536
0.00444985
0.00490001
0.00545716
0.00613816
0.00696498
0.00796451
0.00916817
0.0106104
0.0123255
0.014341
0.0166676
0.019283
0.0221138
0.0250217
0.0278145
0.0303008
0.0323803
0.00176932
0.0042061
0.00384114
0.0038496
0.00400638
0.00426868
0.00463241
0.00510528
0.00570167
0.00644222
0.00735437
0.00847313
0.00984152
0.01151
0.0135339
0.0159668
0.0188467
0.0221718
0.0258633
0.0297223
0.0334181
0.0365879
0.0390996
0.00751527
0.00464151
0.00425816
0.00418131
0.00426474
0.00448215
0.00482828
0.00530714
0.00593128
0.00672237
0.00771219
0.00894392
0.0104737
0.0123716
0.0147218
0.0176175
0.021148
0.0253672
0.030229
0.0354792
0.0405393
0.0446109
0.0475787
0.0156861
0.0075286
0.00553932
0.00485198
0.00465576
0.00474106
0.00502978
0.00549364
0.00613138
0.00696049
0.00801463
0.00934404
0.011018
0.0131282
0.0157933
0.0191606
0.0234025
0.0286904
0.0351147
0.0424731
0.0498219
0.0550351
0.0583537
0.154209
0.0262235
0.00951065
0.00612778
0.00519171
0.0050211
0.00521298
0.00564473
0.00628353
0.00713661
0.00823661
0.00963869
0.011423
0.013701
0.0166252
0.0204032
0.0253155
0.0317304
0.0400811
0.0506551
0.062552
0.0688865
0.0720853
1.53831
0.128029
0.0197508
0.00794326
0.00571034
0.00523369
0.00533141
0.00573294
0.00636759
0.00723158
0.0083554
0.00979652
0.0116414
0.0140135
0.0170878
0.0211157
0.0264699
0.0337305
0.0438713
0.0586992
0.0819763
0.0876318
0.0894215
0.0166662
0.0133645
0.0128272
0.0145505
0.00531227
0.00539115
0.00534082
0.00519696
0.00407005
0.00410912
0.00408583
0.00400426
0.00381998
0.00382261
0.00379374
0.00373589
0.00376278
0.00375685
0.00372801
0.00367511
0.00371831
0.00372314
0.00369574
0.00365097
0.00362075
0.00360943
0.00358108
0.00354559
0.00353786
0.003518
0.00349365
0.00346557
0.00349388
0.00347694
0.00345293
0.00342628
0.00345515
0.00344306
0.00342494
0.00340275
0.00343049
0.0034211
0.00340755
0.00339028
0.00342486
0.00341708
0.00340645
0.00339303
0.00343896
0.00343295
0.00342476
0.00341445
0.0034732
0.00346951
0.00346393
0.0034565
0.00352862
0.00352782
0.00352519
0.00352078
0.003607
0.00360963
0.00361038
0.00360929
0.00371089
0.00371748
0.00372209
0.00372474
0.00384362
0.00385479
0.00386385
0.00387077
0.00400947
0.00402595
0.00404016
0.00405206
0.00421374
0.00423645
0.00425671
0.00427445
0.00446304
0.00449312
0.00452051
0.00454516
0.00476549
0.00480432
0.00484021
0.00487307
0.00513101
0.00518032
0.00522637
0.00526904
0.00557181
0.00563369
0.00569192
0.00574632
0.00610279
0.0061798
0.00625264
0.0063211
0.00674224
0.00683746
0.00692784
0.00701313
0.00751255
0.00762971
0.00774114
0.00784656
0.00844123
0.00858478
0.00872142
0.00885082
0.00956227
0.00973747
0.00990415
0.010062
0.0109177
0.0111307
0.011333
0.0115242
0.0125596
0.0128176
0.0130619
0.0132921
0.0145535
0.0148645
0.0151577
0.0154328
0.0169813
0.0173545
0.017704
0.01803
0.0199474
0.0203922
0.0208054
0.0211875
0.0235846
0.0241104
0.0245935
0.0250354
0.0280642
0.0286782
0.0292342
0.0297357
0.0336072
0.034311
0.0349365
0.0354906
0.0404999
0.0412825
0.0419612
0.0425488
0.0491083
0.049934
0.0506276
0.0512112
0.0598857
0.0606751
0.0613117
0.0618288
0.0733472
0.0739577
0.0744257
0.0747904
0.0899649
0.0902037
0.0903749
0.0905021
0.00623596
0.00382451
0.00297138
0.00262366
0.0024547
0.0023562
0.00228765
0.00223003
0.00216878
0.00209647
0.00203423
0.0019756
0.0019002
0.00180492
0.0017102
0.00159895
0.00143443
0.00134637
0.00206262
0.00433739
0.00352619
0.00304264
0.00276311
0.00259314
0.00247951
0.0023942
0.00232221
0.00225538
0.00219015
0.00213204
0.00208115
0.0020068
0.00190342
0.00180646
0.00170045
0.00158036
0.00158712
0.00280249
0.00376525
0.00340085
0.00310696
0.00288627
0.00272806
0.00261236
0.00252169
0.00244492
0.00237524
0.00231091
0.00225123
0.00219922
0.00212055
0.00201071
0.00191226
0.00182194
0.0017547
0.0018467
0.00334774
0.00360289
0.00338856
0.00319264
0.00300367
0.00286066
0.00275376
0.00266627
0.00259178
0.00252642
0.002467
0.00240932
0.00235782
0.00226872
0.00213728
0.00202996
0.00195515
0.0019356
0.00211886
0.00390236
0.00356704
0.0034028
0.00325019
0.00310245
0.00299003
0.0028907
0.00279944
0.00272804
0.00266986
0.00260034
0.00251237
0.0024308
0.00236352
0.00226558
0.00214579
0.0020754
0.00209336
0.00235179
0.00454352
0.00357154
0.00347332
0.00335782
0.00320082
0.00308234
0.00298903
0.00290513
0.00283407
0.00277103
0.00269659
0.00258871
0.00249285
0.00241895
0.00231542
0.00221296
0.00216927
0.00221678
0.00252247
0.00490342
0.00348879
0.00342426
0.00335553
0.0032521
0.00316446
0.00309122
0.00301024
0.00293581
0.00285643
0.00276644
0.00265863
0.00254759
0.00244395
0.00234556
0.00226543
0.00224215
0.00231239
0.00266079
0.00500827
0.00341906
0.00335861
0.00329986
0.00323119
0.00316523
0.00310503
0.00304039
0.00296286
0.00287015
0.00277856
0.00268309
0.00258076
0.00247676
0.00238122
0.00229811
0.00226864
0.00235863
0.00278678
0.00505421
0.00338126
0.00331765
0.00325623
0.00319352
0.00313092
0.00307329
0.00301396
0.00292973
0.00283532
0.00274977
0.00266531
0.00258011
0.0025031
0.00242319
0.00232922
0.00227319
0.00233715
0.00275734
0.00520376
0.00336238
0.00330143
0.00324342
0.00318525
0.0031216
0.00305638
0.00298759
0.00289951
0.00280902
0.00272352
0.00263634
0.00255194
0.00249125
0.00243229
0.00234705
0.00227277
0.00229341
0.00263938
0.00510357
0.00335727
0.00330414
0.00325179
0.00319729
0.00313273
0.00306023
0.00298357
0.00289758
0.00280801
0.00271814
0.00262576
0.0025333
0.00245701
0.00239349
0.00232643
0.00226476
0.00225836
0.00249713
0.00490214
0.00336707
0.00332294
0.0032753
0.0032223
0.00315797
0.00308412
0.00300696
0.00292293
0.00283244
0.00273947
0.00264343
0.00254373
0.00244639
0.00235986
0.00228874
0.00224552
0.00224329
0.0024073
0.00489172
0.00339429
0.00335839
0.00331531
0.00326365
0.00320081
0.00312929
0.00305361
0.00297149
0.00288235
0.00278892
0.00269071
0.00258653
0.00247894
0.00237592
0.00228946
0.00224093
0.002246
0.00237236
0.00489698
0.00344137
0.00341264
0.00337502
0.00332674
0.00326701
0.00319853
0.00312464
0.00304458
0.00295752
0.00286475
0.00276592
0.00266028
0.0025501
0.00244193
0.00234775
0.00228842
0.0022897
0.00240201
0.00111867
0.00351062
0.00348849
0.00345688
0.00341371
0.0033586
0.00329388
0.0032223
0.00314407
0.00305869
0.00296672
0.00286816
0.00276303
0.00265385
0.00254686
0.00245346
0.00239243
0.00239119
0.00250659
0.00484536
0.00360444
0.00358907
0.00356372
0.0035265
0.003477
0.00341687
0.00334827
0.00327192
0.00318788
0.00309664
0.00299862
0.0028947
0.00278791
0.00268493
0.00259797
0.00254755
0.00256922
0.0027488
0.00490149
0.00372584
0.00371793
0.00369938
0.00366866
0.00362529
0.0035703
0.00350523
0.00343105
0.00334831
0.00325773
0.00316028
0.00305766
0.00295362
0.00285576
0.0027781
0.00274669
0.0028158
0.00313188
0.00491118
0.0038787
0.00387935
0.00386851
0.00384493
0.00380811
0.00375861
0.00369751
0.00362583
0.00354446
0.00345451
0.00335749
0.00325591
0.00315439
0.00306154
0.00299332
0.00298112
0.00309722
0.00356196
0.00559607
0.00406795
0.0040786
0.00407668
0.00406113
0.00403143
0.00398781
0.00393106
0.00386216
0.00378226
0.00369282
0.00359591
0.00349479
0.00339502
0.00330628
0.00324642
0.0032517
0.00341111
0.00401151
0.00664003
0.00429972
0.00432217
0.00433072
0.00432437
0.00430258
0.00426542
0.00421343
0.00414759
0.00406918
0.00397999
0.00388263
0.00378106
0.00368175
0.0035956
0.00354233
0.00356266
0.00376059
0.00449772
0.00794424
0.00458155
0.00461802
0.00463892
0.00464329
0.00463054
0.00460061
0.00455392
0.0044914
0.00441445
0.00432513
0.0042265
0.00412321
0.00402264
0.00393701
0.00388823
0.00392155
0.00415439
0.00502209
0.00944875
0.0049227
0.00497585
0.00501143
0.0050284
0.00502613
0.00500447
0.00496376
0.00490489
0.00482933
0.00473937
0.00463843
0.00453181
0.00442782
0.00434022
0.00429366
0.00433912
0.00461005
0.00560899
0.011167
0.00533447
0.00540752
0.00546054
0.0054924
0.0055024
0.00549034
0.00545648
0.00540169
0.00532747
0.00523625
0.00513178
0.00501989
0.00490986
0.00481719
0.00477
0.00482714
0.0051413
0.00629503
0.0130595
0.00583067
0.00592743
0.00600115
0.00605061
0.00607506
0.00607421
0.0060483
0.00599815
0.00592527
0.00583214
0.00572273
0.00560334
0.00548405
0.00538225
0.0053294
0.0053909
0.00573591
0.00700844
0.0146732
0.00642806
0.00655306
0.00665131
0.00672152
0.00676292
0.0067752
0.00675858
0.00671381
0.00664236
0.00654668
0.00643084
0.00630147
0.00616942
0.00605331
0.0059872
0.00604161
0.00639702
0.00773744
0.0159561
0.00714711
0.00730557
0.00743274
0.00752729
0.00758851
0.00761612
0.00761035
0.00757191
0.00750217
0.00740351
0.00727991
0.00713804
0.00698914
0.00685276
0.00676494
0.00680034
0.00714915
0.00853226
0.0172247
0.00801269
0.00821062
0.00837162
0.0084945
0.00857869
0.0086241
0.00863102
0.00860016
0.00853273
0.0084309
0.00829837
0.00814159
0.00797186
0.00780929
0.00769171
0.00769822
0.00803161
0.00946544
0.0187921
0.00905505
0.00929918
0.00949943
0.00965491
0.00976546
0.00983134
0.00985304
0.00983129
0.00976717
0.00966245
0.00952037
0.00934688
0.00915295
0.00895903
0.00880483
0.00877523
0.00909111
0.0106036
0.0208488
0.0103111
0.0106088
0.010854
0.0110465
0.0111869
0.0112759
0.0113147
0.011304
0.0112446
0.0111381
0.0109868
0.010796
0.0105758
0.0103469
0.010151
0.0100803
0.0103799
0.012004
0.0234652
0.0118257
0.0121849
0.0124808
0.0127145
0.0128879
0.0130029
0.0130611
0.0130636
0.0130113
0.0129051
0.0127465
0.0125395
0.0122935
0.0120284
0.011788
0.0116734
0.0119589
0.0137228
0.0266449
0.0136539
0.0140824
0.0144344
0.014713
0.0149222
0.0150653
0.0151452
0.0151636
0.0151214
0.0150191
0.0148571
0.0146383
0.0143701
0.0140718
0.0137887
0.0136308
0.0139059
0.0158358
0.0304395
0.0158634
0.0163683
0.0167805
0.0171065
0.017353
0.0175259
0.0176295
0.0176667
0.0176386
0.0175454
0.0173869
0.0171642
0.016883
0.0165611
0.0162442
0.0160514
0.0163282
0.0184652
0.0350774
0.018537
0.0191239
0.0195984
0.0199721
0.0202559
0.0204589
0.0205876
0.0206464
0.0206372
0.0205603
0.0204152
0.0202017
0.0199241
0.0195979
0.019269
0.0190652
0.0193755
0.021806
0.0410893
0.0217772
0.0224481
0.0229835
0.0234022
0.0237208
0.0239524
0.0241065
0.0241893
0.0242043
0.0241525
0.0240339
0.0238485
0.0235999
0.0233029
0.0230036
0.0228389
0.0232483
0.0261162
0.0490217
0.0257101
0.0264614
0.0270511
0.0275079
0.0278554
0.0281117
0.0282896
0.0283978
0.0284418
0.0284247
0.0283482
0.0282149
0.028031
0.027814
0.0276142
0.0275804
0.028211
0.031736
0.0594569
0.0304914
0.0313105
0.0319405
0.0324228
0.0327892
0.0330631
0.0332608
0.0333939
0.0334704
0.0334964
0.033478
0.0334236
0.0333479
0.03328
0.0332857
0.0335388
0.0346128
0.0391609
0.0733319
0.0363114
0.0371727
0.0378197
0.0383084
0.038679
0.0389598
0.0391703
0.0393246
0.0394336
0.0395077
0.0395595
0.0396081
0.0396851
0.0398468
0.0402005
0.0409843
0.0428995
0.0491476
0.0922825
0.0434011
0.0442618
0.0448916
0.0453607
0.0457161
0.0459894
0.0462019
0.0463696
0.0465061
0.0466263
0.0467509
0.0469138
0.0471735
0.0476352
0.0484933
0.0501408
0.0535691
0.0628422
0.119196
0.052036
0.0528336
0.0534015
0.0538191
0.0541361
0.0543839
0.054584
0.0547525
0.0549042
0.0550578
0.0552417
0.0555051
0.0559388
0.0567154
0.0581741
0.0610205
0.06694
0.0818598
0.160086
0.0625376
0.0631925
0.063647
0.0639785
0.0642317
0.0644341
0.0646038
0.0647548
0.0649016
0.0650633
0.0652716
0.0655848
0.0661168
0.0671016
0.0690453
0.0731215
0.0824009
0.107493
0.228748
0.0752738
0.0757019
0.0759938
0.0762067
0.0763719
0.0765076
0.0766259
0.0767366
0.0768504
0.0769827
0.0771599
0.0774333
0.077908
0.0788176
0.0807228
0.0851267
0.0967514
0.135449
0.352435
0.090665
0.0908048
0.0908997
0.0909699
0.091026
0.0910739
0.0911178
0.0911612
0.0912084
0.0912657
0.0913445
0.0914671
0.0916809
0.0920965
0.0930085
0.0953525
0.102935
0.139289
0.580789
)
;

boundaryField
{
    leftWall
    {
        type            epsilonWallFunction;
        value           nonuniform List<scalar> 
50
(
0.000241575
0.000488985
0.000826058
0.00115686
0.00147466
0.0017825
0.00208502
0.00238703
0.00287377
0.0035122
0.00418587
0.00492211
0.00550563
0.0065657
0.00689117
0.00748266
0.00747428
0.00748211
0.00750077
0.00176673
0.00748154
0.00176686
0.00748379
0.00746539
0.00749266
0.00749886
0.00749114
0.00746801
0.00760018
0.00772953
0.00785238
0.00796585
0.00806494
0.0081518
0.00823129
0.0083055
0.00837451
0.00843561
0.00847975
0.00850534
0.00849639
0.00844245
0.00833462
0.00815095
0.00784695
0.00176932
0.00751527
0.0156861
0.154209
1.53831
)
;
    }
    rightWall
    {
        type            epsilonWallFunction;
        value           nonuniform List<scalar> 
50
(
0.000489916
0.000580117
0.000730484
0.000846828
0.000979582
0.00113217
0.00131364
0.0015438
0.00206262
0.00280249
0.00334774
0.00390236
0.00454352
0.00490342
0.00500827
0.00505421
0.00520376
0.00510357
0.00490214
0.00489172
0.00489698
0.00111867
0.00484536
0.00490149
0.00491118
0.00559607
0.00664003
0.00794424
0.00944875
0.011167
0.0130595
0.0146732
0.0159561
0.0172247
0.0187921
0.0208488
0.0234652
0.0266449
0.0304395
0.0350774
0.0410893
0.0490217
0.0594569
0.0733319
0.0922825
0.119196
0.160086
0.228748
0.352435
0.580789
)
;
    }
    lowerWall
    {
        type            epsilonWallFunction;
        value           nonuniform List<scalar> 
62
(
0.000241575
0.00125729
0.00221635
0.00307916
0.00385349
0.00454952
0.00517703
0.00574274
0.00625115
0.00671554
0.00715191
0.00756011
0.00793508
0.00824524
0.00840827
0.00824978
0.00745795
0.00626032
0.0051446
0.00436343
0.0036055
0.00257163
0.000788824
0.000788824
0.00125908
0.00207538
0.00299743
0.00412765
0.00575484
0.00834761
0.0138666
0.0166662
0.0133645
0.0128272
0.0145505
0.000704054
0.000811586
0.00138297
0.00213946
0.00311573
0.004543
0.00701178
0.0118024
0.000704054
0.00333644
0.00527494
0.00629095
0.00685345
0.00711899
0.00732776
0.00753767
0.00757271
0.00690269
0.0056551
0.00437445
0.00320444
0.00295835
0.0039748
0.00388482
0.00250254
0.00143045
0.000489916
)
;
    }
    atmosphere
    {
        type            inletOutlet;
        inletValue      uniform 0.1;
        value           nonuniform List<scalar> 
46
(
0.1
0.128029
0.0197508
0.00794326
0.00571034
0.00523369
0.00533141
0.00573294
0.00636759
0.00723158
0.0083554
0.00979652
0.0116414
0.0140135
0.0170878
0.0211157
0.0264699
0.0337305
0.0438713
0.0586992
0.1
0.1
0.1
0.1
0.1
0.1
0.1
0.1
0.1
0.1
0.1
0.1
0.1
0.1
0.1
0.1
0.1
0.1
0.1
0.1
0.1
0.1
0.1
0.1
0.1
0.580789
)
;
    }
    defaultFaces
    {
        type            empty;
    }
}


// ************************************************************************* //
