/*--------------------------------*- C++ -*----------------------------------*\
  =========                 |
  \\      /  F ield         | OpenFOAM: The Open Source CFD Toolbox
   \\    /   O peration     | Website:  https://openfoam.org
    \\  /    A nd           | Version:  9
     \\/     M anipulation  |
\*---------------------------------------------------------------------------*/
FoamFile
{
    format      ascii;
    class       surfaceScalarField;
    location    "7.66";
    object      phi;
}
// * * * * * * * * * * * * * * * * * * * * * * * * * * * * * * * * * * * * * //

dimensions      [0 3 -1 0 0 0 0];

internalField   nonuniform List<scalar> 
4432
(
-1.70003e-07
1.70003e-07
-3.30535e-07
1.60534e-07
-4.83211e-07
1.52675e-07
-6.22788e-07
1.39577e-07
-7.4488e-07
1.22093e-07
-8.4552e-07
1.00638e-07
-9.21667e-07
7.61478e-08
-9.72083e-07
5.04142e-08
-9.97355e-07
2.52707e-08
-9.95876e-07
-1.48162e-09
-9.62515e-07
-3.33618e-08
-8.84475e-07
-7.80415e-08
-7.45761e-07
-1.38714e-07
-5.37551e-07
-2.08208e-07
-2.78394e-07
-2.59156e-07
-4.37132e-08
-2.34678e-07
1.44693e-08
-5.81808e-08
-2.05461e-07
2.1993e-07
-6.75962e-07
4.70501e-07
-1.26653e-06
5.90566e-07
-1.39481e-06
1.28283e-07
-8.89792e-07
-5.05011e-07
-8.89787e-07
-1.70185e-07
3.40187e-07
-3.30869e-07
3.2122e-07
-4.83971e-07
3.05778e-07
-6.23885e-07
2.7949e-07
-7.46484e-07
2.44693e-07
-8.48703e-07
2.02853e-07
-9.28326e-07
1.5577e-07
-9.84556e-07
1.06642e-07
-1.0174e-06
5.81159e-08
-1.02634e-06
7.45153e-09
-1.00618e-06
-5.35179e-08
-9.48421e-07
-1.35802e-07
-8.42706e-07
-2.44427e-07
-6.85809e-07
-3.65102e-07
-4.93542e-07
-4.51419e-07
-3.21493e-07
-4.06724e-07
-2.75037e-07
-1.04636e-07
-4.18005e-07
3.62899e-07
-6.50067e-07
7.02563e-07
-8.8191e-07
8.22414e-07
-9.73693e-07
2.20073e-07
-7.70351e-07
-7.08343e-07
-1.66014e-06
-1.69508e-07
5.09694e-07
-3.30385e-07
4.82099e-07
-4.82904e-07
4.58298e-07
-6.23143e-07
4.19727e-07
-7.47352e-07
3.68904e-07
-8.52855e-07
3.08353e-07
-9.37679e-07
2.40595e-07
-1.00087e-06
1.69828e-07
-1.04224e-06
9.94881e-08
-1.06098e-06
2.6197e-08
-1.05377e-06
-6.07337e-08
-1.01423e-06
-1.75336e-07
-9.35253e-07
-3.234e-07
-8.14525e-07
-4.85827e-07
-6.62322e-07
-6.03619e-07
-5.16486e-07
-5.52559e-07
-4.58158e-07
-1.62965e-07
-5.32758e-07
4.37499e-07
-6.16443e-07
7.86248e-07
-6.53738e-07
8.59712e-07
-7.13641e-07
2.79978e-07
-6.02235e-07
-8.19743e-07
-2.26237e-06
-1.69398e-07
6.79092e-07
-3.32342e-07
6.45043e-07
-4.86349e-07
6.12308e-07
-6.28593e-07
5.61969e-07
-7.55978e-07
4.96292e-07
-8.66169e-07
4.18544e-07
-9.57169e-07
3.31598e-07
-1.02775e-06
2.40416e-07
-1.07773e-06
1.49463e-07
-1.10669e-06
5.51665e-08
-1.11257e-06
-5.48567e-08
-1.09085e-06
-1.97049e-07
-1.03603e-06
-3.78221e-07
-9.45379e-07
-5.7647e-07
-8.22519e-07
-7.26476e-07
-6.85679e-07
-6.89398e-07
-6.01286e-07
-2.4736e-07
-6.14749e-07
4.50961e-07
-6.05219e-07
7.76715e-07
-5.38779e-07
7.93273e-07
-5.37799e-07
2.78997e-07
-4.30971e-07
-9.26571e-07
-2.69335e-06
-1.69569e-07
8.48663e-07
-3.35822e-07
8.11297e-07
-4.93178e-07
7.69665e-07
-6.39114e-07
7.07904e-07
-7.7124e-07
6.28421e-07
-8.87529e-07
5.34833e-07
-9.85825e-07
4.29897e-07
-1.06456e-06
3.19156e-07
-1.12358e-06
2.08484e-07
-1.16307e-06
9.46616e-08
-1.18214e-06
-3.57785e-08
-1.17781e-06
-2.01376e-07
-1.14556e-06
-4.10469e-07
-1.0821e-06
-6.39934e-07
-9.85409e-07
-8.23162e-07
-8.5586e-07
-8.18947e-07
-7.30503e-07
-3.72719e-07
-6.92965e-07
4.13421e-07
-6.13527e-07
6.97276e-07
-4.86946e-07
6.66692e-07
-4.2171e-07
2.13758e-07
-2.53816e-07
-1.09447e-06
-2.94717e-06
-1.70211e-07
1.01887e-06
-3.41098e-07
9.82183e-07
-5.03181e-07
9.3175e-07
-6.54215e-07
8.58937e-07
-7.92422e-07
7.6663e-07
-9.16026e-07
6.58438e-07
-1.02261e-06
5.3648e-07
-1.11014e-06
4.06686e-07
-1.17846e-06
2.76812e-07
-1.22838e-06
1.44577e-07
-1.26017e-06
-3.98761e-09
-1.27219e-06
-1.89349e-07
-1.26077e-06
-4.21887e-07
-1.2227e-06
-6.78004e-07
-1.1529e-06
-8.92955e-07
-1.04021e-06
-9.3164e-07
-8.76107e-07
-5.36821e-07
-7.6871e-07
3.06025e-07
-6.42329e-07
5.70895e-07
-4.70263e-07
4.94626e-07
-3.30599e-07
7.40917e-08
-5.72323e-08
-1.36784e-06
-3.0044e-06
-1.71651e-07
1.19053e-06
-3.48378e-07
1.15891e-06
-5.16105e-07
1.09948e-06
-6.73219e-07
1.01605e-06
-8.18492e-07
9.11902e-07
-9.50295e-07
7.90239e-07
-1.06589e-06
6.52071e-07
-1.16262e-06
5.03417e-07
-1.24022e-06
3.54401e-07
-1.29994e-06
2.04303e-07
-1.34324e-06
3.93083e-08
-1.36972e-06
-1.6287e-07
-1.37659e-06
-4.15014e-07
-1.36154e-06
-6.93057e-07
-1.31899e-06
-9.35506e-07
-1.23557e-06
-1.01505e-06
-1.06763e-06
-7.04765e-07
-8.63091e-07
1.01496e-07
-6.80444e-07
3.88252e-07
-4.69316e-07
2.83503e-07
-2.06399e-07
-1.88825e-07
1.08152e-07
-1.68239e-06
-2.89625e-06
-1.77104e-07
1.36763e-06
-3.58102e-07
1.33991e-06
-5.30994e-07
1.27237e-06
-6.94797e-07
1.17985e-06
-8.47746e-07
1.06485e-06
-9.88213e-07
9.30703e-07
-1.11322e-06
7.77079e-07
-1.21933e-06
6.09521e-07
-1.30582e-06
4.40893e-07
-1.37423e-06
2.72706e-07
-1.42704e-06
9.21212e-08
-1.46504e-06
-1.24878e-07
-1.48648e-06
-3.9357e-07
-1.49021e-06
-6.89325e-07
-1.47073e-06
-9.54982e-07
-1.41337e-06
-1.07241e-06
-1.27616e-06
-8.41968e-07
-9.94636e-07
-1.80026e-07
-7.36446e-07
1.30067e-07
-4.59099e-07
6.15905e-09
-9.81408e-08
-5.49785e-07
1.14493e-07
-1.89502e-06
-2.78175e-06
-9.55165e-07
9.55165e-07
-7.84748e-08
-8.76688e-07
8.40528e-07
-9.18996e-07
1.47794e-06
-6.37406e-07
1.94518e-06
-4.67236e-07
2.24923e-06
-3.04049e-07
2.49196e-06
-2.42724e-07
2.75357e-06
-2.61613e-07
2.93254e-06
-1.78968e-07
2.73889e-06
1.93651e-07
2.11291e-06
6.25979e-07
1.17884e-06
9.34079e-07
1.07383e-07
1.07145e-06
-5.06932e-07
6.14315e-07
-5.99178e-07
9.22435e-08
-3.49732e-07
-2.49447e-07
-1.7896e-07
-1.70775e-07
1.69627e-07
-3.48588e-07
1.69623e-07
-3.84271e-07
1.33944e-06
3.13817e-07
-1.57477e-06
9.15264e-07
-1.52043e-06
1.36203e-06
-1.08417e-06
1.67464e-06
-7.79836e-07
1.92112e-06
-5.50532e-07
2.13701e-06
-4.58606e-07
2.32279e-06
-4.47398e-07
2.37928e-06
-2.35454e-07
2.16008e-06
4.1286e-07
1.71616e-06
1.0699e-06
1.13464e-06
1.5156e-06
5.09566e-07
1.69653e-06
-4.68246e-08
1.1707e-06
-3.03922e-07
3.49336e-07
-3.30031e-07
-2.23341e-07
-4.00031e-07
-1.00781e-07
-2.29862e-07
-5.18759e-07
-6.02414e-08
1.98093e-07
1.14136e-06
6.21459e-07
-1.99814e-06
9.86344e-07
-1.88532e-06
1.28787e-06
-1.38569e-06
1.51834e-06
-1.0103e-06
1.70482e-06
-7.37016e-07
1.86588e-06
-6.19662e-07
1.99317e-06
-5.74689e-07
1.99729e-06
-2.39573e-07
1.75662e-06
6.53533e-07
1.39469e-06
1.43183e-06
1.03655e-06
1.87374e-06
6.85496e-07
2.04758e-06
2.38748e-07
1.61745e-06
-6.68573e-08
6.54938e-07
-2.35665e-07
-5.45336e-08
-5.21544e-07
1.85094e-07
-5.50449e-07
-4.89855e-07
-6.10691e-07
6.75529e-07
4.65832e-07
8.56429e-07
-2.17903e-06
1.03381e-06
-2.0627e-06
1.22537e-06
-1.57725e-06
1.38954e-06
-1.17448e-06
1.52226e-06
-8.69737e-07
1.63241e-06
-7.29809e-07
1.71686e-06
-6.59145e-07
1.70917e-06
-2.31879e-07
1.49822e-06
8.64485e-07
1.21361e-06
1.71643e-06
9.7457e-07
2.11278e-06
7.53837e-07
2.26832e-06
4.10837e-07
1.96045e-06
1.3669e-07
9.29084e-07
-8.20643e-08
1.64221e-07
-5.02831e-07
6.05859e-07
-6.55824e-07
-3.36862e-07
-1.26651e-06
9.2162e-07
-4.55788e-07
9.77908e-07
-2.23532e-06
1.04245e-06
-2.12725e-06
1.15889e-06
-1.69368e-06
1.27042e-06
-1.28602e-06
1.35525e-06
-9.54565e-07
1.41866e-06
-7.93216e-07
1.46925e-06
-7.09744e-07
1.4688e-06
-2.31424e-07
1.31127e-06
1.02201e-06
1.09742e-06
1.93028e-06
9.43516e-07
2.26669e-06
7.95328e-07
2.4165e-06
5.15103e-07
2.24068e-06
3.39412e-07
1.10477e-06
1.45015e-07
3.5862e-07
-2.99759e-07
1.05063e-06
-5.13877e-07
-1.22743e-07
-1.78039e-06
9.14738e-07
-1.37053e-06
9.81693e-07
-2.30228e-06
1.01043e-06
-2.156e-06
1.08316e-06
-1.76641e-06
1.15593e-06
-1.35878e-06
1.19995e-06
-9.98591e-07
1.21931e-06
-8.12571e-07
1.237e-06
-7.27426e-07
1.25559e-06
-2.50015e-07
1.16438e-06
1.11322e-06
1.01949e-06
2.07518e-06
9.30492e-07
2.35568e-06
8.46096e-07
2.5009e-06
6.21037e-07
2.46574e-06
5.45109e-07
1.1807e-06
4.2298e-07
4.80749e-07
5.95252e-08
1.41409e-06
-2.22684e-07
1.59466e-07
-2.00308e-06
7.77509e-07
-2.14805e-06
9.16237e-07
-2.44101e-06
9.49159e-07
-2.18892e-06
9.98356e-07
-1.81561e-06
1.04407e-06
-1.40449e-06
1.05565e-06
-1.01017e-06
1.03465e-06
-7.9157e-07
1.01271e-06
-7.05481e-07
1.04191e-06
-2.79216e-07
1.05133e-06
1.1038e-06
9.7108e-07
2.15543e-06
9.38137e-07
2.38863e-06
8.91424e-07
2.54761e-06
7.84899e-07
2.57226e-06
7.76691e-07
1.18891e-06
6.72258e-07
5.8518e-07
4.42815e-07
1.64353e-06
1.38063e-07
4.64216e-07
-1.86501e-06
6.92485e-07
-2.84053e-06
8.41842e-07
-2.59036e-06
8.73309e-07
-2.22039e-06
9.05143e-07
-1.84744e-06
9.33073e-07
-1.43242e-06
9.22342e-07
-9.99431e-07
8.69775e-07
-7.38999e-07
8.04884e-07
-6.40587e-07
8.04083e-07
-2.78413e-07
9.42897e-07
9.64993e-07
9.51412e-07
2.14691e-06
9.72632e-07
2.36741e-06
9.5413e-07
2.56611e-06
1.0392e-06
2.48719e-06
1.04069e-06
1.18742e-06
8.70376e-07
7.55492e-07
8.01836e-07
1.71206e-06
4.83394e-07
7.82657e-07
-1.38162e-06
-3.76032e-07
1.74366e-06
-7.80833e-07
1.74471e-06
-1.17518e-06
1.66672e-06
-1.55038e-06
1.55505e-06
-1.90211e-06
1.41658e-06
-2.22983e-06
1.25843e-06
-2.52744e-06
1.0747e-06
-2.78401e-06
8.6609e-07
-2.99552e-06
6.52408e-07
-3.16437e-06
4.4156e-07
-3.29862e-06
2.26377e-07
-3.40435e-06
-1.91456e-08
-3.48139e-06
-3.16526e-07
-3.53167e-06
-6.39049e-07
-3.54103e-06
-9.45619e-07
-3.46414e-06
-1.14931e-06
-3.20173e-06
-1.10438e-06
-2.54393e-06
-8.37828e-07
-1.76504e-06
-6.48823e-07
-9.73282e-07
-7.85607e-07
-2.42377e-07
-1.2807e-06
-2.05921e-07
-1.93148e-06
-2.23786e-06
-7.49818e-07
-3.93937e-07
2.1376e-06
-8.02852e-07
2.15362e-06
-1.22246e-06
2.08633e-06
-1.63501e-06
1.9676e-06
-2.00784e-06
1.78941e-06
-2.35095e-06
1.60154e-06
-2.68758e-06
1.41132e-06
-2.98939e-06
1.1679e-06
-3.23509e-06
8.98109e-07
-3.41943e-06
6.25894e-07
-3.54459e-06
3.51537e-07
-3.62479e-06
6.10595e-08
-3.67755e-06
-2.63765e-07
-3.72584e-06
-5.90755e-07
-3.75843e-06
-9.13029e-07
-3.71141e-06
-1.19632e-06
-3.44601e-06
-1.36978e-06
-2.82852e-06
-1.45532e-06
-1.94106e-06
-1.53628e-06
-1.03148e-06
-1.69519e-06
-3.67447e-07
-1.94473e-06
-1.00144e-07
-2.19878e-06
-2.34904e-06
1.10357e-08
-6.28412e-07
2.76601e-06
-1.0956e-06
2.62079e-06
-1.4937e-06
2.48441e-06
-1.85795e-06
2.33185e-06
-2.24897e-06
2.18043e-06
-2.61646e-06
1.96903e-06
-2.90119e-06
1.69605e-06
-3.17093e-06
1.43764e-06
-3.41751e-06
1.14468e-06
-3.59168e-06
8.00056e-07
-3.66489e-06
4.24748e-07
-3.65321e-06
4.93772e-08
-3.65005e-06
-2.66936e-07
-3.68038e-06
-5.60419e-07
-3.74184e-06
-8.51571e-07
-3.76828e-06
-1.16988e-06
-3.52474e-06
-1.61333e-06
-2.88327e-06
-2.09678e-06
-1.94623e-06
-2.47332e-06
-9.79145e-07
-2.66227e-06
-2.73738e-07
-2.65012e-06
5.70536e-08
-2.52954e-06
-2.52799e-06
2.36055e-07
-1.42591e-06
4.19194e-06
-2.34786e-06
3.54284e-06
-2.26122e-06
2.39792e-06
-1.85544e-06
1.9261e-06
-2.45594e-06
2.78095e-06
-3.42173e-06
2.93485e-06
-2.9924e-06
1.26675e-06
-2.86055e-06
1.30579e-06
-3.09966e-06
1.3838e-06
-3.24879e-06
9.49194e-07
-3.25462e-06
4.30588e-07
-3.07857e-06
-1.26668e-07
-3.12594e-06
-2.19559e-07
-3.17632e-06
-5.10029e-07
-3.24438e-06
-7.83502e-07
-3.17143e-06
-1.24282e-06
-2.86518e-06
-1.91957e-06
-2.27662e-06
-2.68534e-06
-1.73981e-06
-3.01011e-06
-9.40041e-07
-3.46205e-06
-1.93292e-07
-3.39691e-06
2.54784e-07
-2.97769e-06
-2.76167e-06
4.88349e-07
-1.99283e-06
6.18471e-06
-3.71043e-06
5.26021e-06
-3.18499e-06
1.87246e-06
-3.59757e-06
2.33865e-06
-4.94698e-06
4.13034e-06
-6.05176e-06
4.03961e-06
-5.29742e-06
5.12409e-07
-4.29405e-06
3.02428e-07
-3.72842e-06
8.18169e-07
-3.18247e-06
4.03248e-07
-2.68716e-06
-6.47172e-08
-2.11184e-06
-7.01978e-07
-1.20627e-06
-1.12511e-06
-5.36339e-07
-1.17994e-06
2.0402e-07
-1.52384e-06
8.22251e-07
-1.86105e-06
1.06752e-06
-2.16484e-06
1.00771e-06
-2.62553e-06
1.25515e-07
-2.12789e-06
-5.30796e-07
-2.80566e-06
-3.28591e-07
-3.59901e-06
-2.9846e-07
-3.00766e-06
-2.40852e-06
-6.51347e-07
1.27343e-06
4.91148e-06
2.75195e-06
3.78193e-06
2.51258e-06
2.11188e-06
-1.20448e-07
4.97176e-06
-1.08825e-06
5.0982e-06
-5.80452e-07
3.53185e-06
-1.85822e-06
1.79021e-06
-2.40449e-06
8.48707e-07
-2.23891e-06
6.52576e-07
-2.07789e-06
2.42225e-07
-2.0447e-06
-9.79154e-08
-2.2566e-06
-4.90103e-07
-2.37627e-06
-1.00547e-06
-1.83277e-06
-1.72348e-06
-7.34851e-07
-2.6218e-06
-3.35089e-07
-2.26086e-06
-7.87413e-07
-1.71257e-06
-1.33987e-06
-2.07314e-06
-1.5091e-06
-1.95877e-06
-2.213e-06
-2.10195e-06
-2.93971e-06
-2.87245e-06
-3.21061e-06
-2.73685e-06
-2.7768e-06
-2.84199e-06
9.33278e-07
3.97794e-06
1.26136e-06
3.45393e-06
5.02024e-07
2.8711e-06
3.51567e-07
5.12214e-06
5.20968e-07
4.92878e-06
3.64691e-07
3.68812e-06
-1.38356e-07
2.29325e-06
-6.918e-07
1.40216e-06
-9.40883e-07
9.0169e-07
-1.19602e-06
4.97419e-07
-1.5351e-06
2.41249e-07
-1.92905e-06
-9.60416e-08
-2.1027e-06
-8.31688e-07
-1.49155e-06
-2.33449e-06
-9.21751e-07
-3.19144e-06
-5.03843e-07
-2.67858e-06
-4.90181e-07
-1.72599e-06
-1.01772e-06
-1.54535e-06
-1.52977e-06
-1.44649e-06
-2.3313e-06
-1.30028e-06
-3.53182e-06
-1.67187e-06
-3.73302e-06
-2.53578e-06
-2.76182e-06
-3.74816e-06
1.68784e-07
3.80927e-06
6.59796e-08
3.55679e-06
-4.6319e-07
3.40033e-06
-3.38407e-08
4.6929e-06
4.40395e-07
4.45465e-06
6.10779e-07
3.51782e-06
3.88561e-07
2.51552e-06
4.65184e-08
1.74423e-06
-2.4729e-07
1.19552e-06
-4.99863e-07
7.5e-07
-7.24404e-07
4.65792e-07
-9.09753e-07
8.92992e-08
-8.96096e-07
-8.45373e-07
-9.201e-07
-2.31053e-06
-1.19069e-06
-2.92092e-06
-1.29373e-06
-2.57559e-06
-1.17244e-06
-1.84732e-06
-1.3374e-06
-1.38037e-06
-1.75075e-06
-1.03304e-06
-2.22611e-06
-8.24706e-07
-2.72638e-06
-1.17133e-06
-3.45993e-06
-1.80202e-06
-2.13818e-06
-4.08343e-06
-8.6707e-08
3.89617e-06
-2.70625e-07
3.74072e-06
-5.69426e-07
3.69924e-06
-1.34401e-07
4.25798e-06
2.96471e-07
4.02385e-06
4.8929e-07
3.32503e-06
4.37888e-07
2.56693e-06
2.52522e-07
1.92957e-06
6.0342e-08
1.38766e-06
-9.26834e-08
9.0299e-07
-1.75708e-07
5.48775e-07
-1.96117e-07
1.09659e-07
-2.932e-07
-7.48357e-07
-8.08348e-07
-1.79548e-06
-1.42819e-06
-2.30121e-06
-1.81625e-06
-2.1877e-06
-1.87767e-06
-1.7861e-06
-1.98123e-06
-1.27708e-06
-2.21835e-06
-7.96288e-07
-2.44004e-06
-6.03375e-07
-2.8215e-06
-7.902e-07
-3.403e-06
-1.2208e-06
-1.57803e-06
-3.96337e-06
-1.11086e-07
4.00725e-06
-2.64727e-07
3.89434e-06
-3.89329e-07
3.82389e-06
-9.9717e-08
3.96841e-06
2.07449e-07
3.71671e-06
3.50744e-07
3.18175e-06
3.44468e-07
2.5732e-06
2.50123e-07
2.02393e-06
1.44652e-07
1.49317e-06
4.24257e-08
1.00527e-06
-3.26856e-08
6.23957e-07
-1.07273e-07
1.84331e-07
-3.56953e-07
-4.98587e-07
-9.01889e-07
-1.25046e-06
-1.51292e-06
-1.69009e-06
-1.95313e-06
-1.74739e-06
-2.22006e-06
-1.51904e-06
-2.37527e-06
-1.12177e-06
-2.47973e-06
-6.91817e-07
-2.6153e-06
-4.67835e-07
-2.86709e-06
-5.38466e-07
-3.27144e-06
-8.16507e-07
-1.14616e-06
-3.70331e-06
-5.57405e-08
4.0629e-06
-1.41998e-07
3.98063e-06
-1.84554e-07
3.86648e-06
-2.0462e-08
3.80433e-06
1.62778e-07
3.53346e-06
2.53922e-07
3.09059e-06
2.50249e-07
2.57687e-06
2.04568e-07
2.06963e-06
1.29653e-07
1.56813e-06
2.39512e-08
1.11104e-06
-1.03212e-07
7.51213e-07
-2.57036e-07
3.38262e-07
-5.50206e-07
-2.05305e-07
-1.03849e-06
-7.62063e-07
-1.58478e-06
-1.14368e-06
-2.00723e-06
-1.3248e-06
-2.27136e-06
-1.2547e-06
-2.42389e-06
-9.68994e-07
-2.51891e-06
-5.96556e-07
-2.60817e-06
-3.78364e-07
-2.76049e-06
-3.85971e-07
-3.00021e-06
-5.76681e-07
-8.7684e-07
-3.26948e-06
9.09971e-10
4.06198e-06
-2.90991e-08
4.01074e-06
-3.32009e-08
3.87062e-06
5.45851e-08
3.71656e-06
1.5128e-07
3.43676e-06
1.98874e-07
3.04298e-06
1.95489e-07
2.58025e-06
1.65733e-07
2.09938e-06
8.81023e-08
1.64577e-06
-4.86215e-08
1.24779e-06
-2.08948e-07
9.11563e-07
-3.97851e-07
5.27189e-07
-6.88074e-07
8.49304e-08
-1.09958e-06
-3.50574e-07
-1.55457e-06
-6.88751e-07
-1.93324e-06
-9.46193e-07
-2.1969e-06
-9.91091e-07
-2.34398e-06
-8.21914e-07
-2.4126e-06
-5.27929e-07
-2.47281e-06
-3.18147e-07
-2.5439e-06
-3.14881e-07
-2.64646e-06
-4.74169e-07
-7.63067e-07
-2.76032e-06
3.82157e-08
4.02385e-06
4.72356e-08
4.00183e-06
6.30187e-08
3.85489e-06
1.14754e-07
3.66485e-06
1.64864e-07
3.38666e-06
1.8369e-07
3.02416e-06
1.73993e-07
2.58994e-06
1.34529e-07
2.13884e-06
3.91774e-08
1.74111e-06
-1.1438e-07
1.40133e-06
-2.76919e-07
1.07409e-06
-4.70805e-07
7.21064e-07
-7.29613e-07
3.43723e-07
-1.05884e-06
-2.13801e-08
-1.41638e-06
-3.31287e-07
-1.76671e-06
-5.95989e-07
-2.03538e-06
-7.2256e-07
-2.19441e-06
-6.63027e-07
-2.25956e-06
-4.62918e-07
-2.28732e-06
-2.905e-07
-2.29833e-06
-3.03982e-07
-2.31377e-06
-4.58841e-07
-7.39658e-07
-2.33728e-06
5.99188e-08
3.96403e-06
9.4848e-08
3.96696e-06
1.23565e-07
3.8262e-06
1.6146e-07
3.62697e-06
1.90753e-07
3.35738e-06
1.94952e-07
3.01998e-06
1.71224e-07
2.61368e-06
1.07086e-07
2.20298e-06
-4.63669e-09
1.85282e-06
-1.48613e-07
1.54529e-06
-3.03215e-07
1.22868e-06
-4.82151e-07
9.00006e-07
-7.01579e-07
5.63178e-07
-9.62272e-07
2.39354e-07
-1.24345e-06
-5.00726e-08
-1.54475e-06
-2.94679e-07
-1.80787e-06
-4.59449e-07
-1.9895e-06
-4.81417e-07
-2.07764e-06
-3.74784e-07
-2.08254e-06
-2.85604e-07
-2.06309e-06
-3.23404e-07
-2.04311e-06
-4.7878e-07
-7.41413e-07
-2.04127e-06
7.28769e-08
3.89119e-06
1.2318e-07
3.91661e-06
1.59743e-07
3.7896e-06
1.92247e-07
3.59445e-06
2.12462e-07
3.33717e-06
2.09888e-07
3.02256e-06
1.67637e-07
2.65594e-06
8.32958e-08
2.28732e-06
-3.24794e-08
1.96859e-06
-1.57837e-07
1.67064e-06
-2.96944e-07
1.36778e-06
-4.55407e-07
1.05848e-06
-6.40785e-07
7.48607e-07
-8.52548e-07
4.51209e-07
-1.08272e-06
1.8022e-07
-1.32413e-06
-5.31321e-08
-1.56202e-06
-2.2142e-07
-1.74988e-06
-2.93409e-07
-1.84318e-06
-2.81326e-07
-1.85512e-06
-2.73484e-07
-1.83642e-06
-3.41909e-07
-1.81679e-06
-4.98192e-07
-7.36647e-07
-1.82129e-06
8.00403e-08
3.81113e-06
1.36644e-07
3.85992e-06
1.74399e-07
3.75179e-06
2.02531e-07
3.56628e-06
2.16372e-07
3.32332e-06
2.0684e-07
3.03209e-06
1.5742e-07
2.70536e-06
6.85305e-08
2.37621e-06
-3.54037e-08
2.07252e-06
-1.46472e-07
1.78171e-06
-2.69036e-07
1.49035e-06
-4.07531e-07
1.197e-06
-5.65513e-07
9.06636e-07
-7.42452e-07
6.28236e-07
-9.34216e-07
3.72114e-07
-1.13614e-06
1.48955e-07
-1.33288e-06
-2.44959e-08
-1.49351e-06
-1.32582e-07
-1.58582e-06
-1.88798e-07
-1.61573e-06
-2.43348e-07
-1.61501e-06
-3.42376e-07
-1.61248e-06
-5.00466e-07
-7.15724e-07
-1.63312e-06
8.10788e-08
3.72998e-06
1.34767e-07
3.80613e-06
1.69282e-07
3.71722e-06
1.92925e-07
3.54261e-06
2.01499e-07
3.31473e-06
1.8697e-07
3.04662e-06
1.40329e-07
2.752e-06
6.48933e-08
2.45165e-06
-2.43009e-08
2.16172e-06
-1.21642e-07
1.87906e-06
-2.28869e-07
1.59758e-06
-3.49031e-07
1.31717e-06
-4.84003e-07
1.04164e-06
-6.33249e-07
7.77538e-07
-7.93761e-07
5.32711e-07
-9.60309e-07
3.15616e-07
-1.12087e-06
1.36199e-07
-1.25381e-06
5.09413e-10
-1.34067e-06
-1.01779e-07
-1.38348e-06
-2.00366e-07
-1.40215e-06
-3.23531e-07
-1.41901e-06
-4.83438e-07
-6.79563e-07
-1.455e-06
7.27533e-08
3.65716e-06
1.17017e-07
3.76181e-06
1.4892e-07
3.68528e-06
1.69824e-07
3.52169e-06
1.76081e-07
3.30846e-06
1.62171e-07
3.06052e-06
1.23928e-07
2.79025e-06
6.39545e-08
2.51163e-06
-9.42053e-09
2.2351e-06
-9.19154e-08
1.96156e-06
-1.83885e-07
1.68956e-06
-2.86728e-07
1.42002e-06
-4.01239e-07
1.15616e-06
-5.26633e-07
9.02947e-07
-6.60176e-07
6.66281e-07
-7.96785e-07
4.52263e-07
-9.27119e-07
2.66582e-07
-1.03759e-06
1.11037e-07
-1.11726e-06
-2.20509e-08
-1.1674e-06
-1.50166e-07
-1.20041e-06
-2.90473e-07
-1.23228e-06
-4.5152e-07
-6.32986e-07
-1.27882e-06
5.61622e-08
3.60095e-06
9.14094e-08
3.72655e-06
1.21301e-07
3.6554e-06
1.41117e-07
3.50188e-06
1.47852e-07
3.30173e-06
1.38029e-07
3.07034e-06
1.09534e-07
2.81874e-06
6.40203e-08
2.55714e-06
6.05864e-09
2.29306e-06
-6.1533e-08
2.02914e-06
-1.38309e-07
1.76633e-06
-2.24599e-07
1.5063e-06
-3.20403e-07
1.25194e-06
-4.24645e-07
1.00717e-06
-5.34758e-07
7.76368e-07
-6.46316e-07
5.63795e-07
-7.52434e-07
3.72673e-07
-8.44587e-07
2.03161e-07
-9.1657e-07
4.99012e-08
-9.69301e-07
-9.74705e-08
-1.01064e-06
-2.4918e-07
-1.05156e-06
-4.10645e-07
-5.81397e-07
-1.10321e-06
3.77318e-08
3.56321e-06
6.74352e-08
3.69689e-06
9.41096e-08
3.62875e-06
1.13108e-07
3.4829e-06
1.21641e-07
3.29321e-06
1.17146e-07
3.07484e-06
9.81972e-08
2.83769e-06
6.55793e-08
2.58975e-06
2.16776e-08
2.33695e-06
-3.17157e-08
2.08253e-06
-9.3901e-08
1.8285e-06
-1.64601e-07
1.57698e-06
-2.43305e-07
1.33061e-06
-3.28751e-07
1.09257e-06
-4.18602e-07
8.66165e-07
-5.09246e-07
6.54379e-07
-5.9576e-07
4.5912e-07
-6.72771e-07
2.80099e-07
-7.36759e-07
1.13813e-07
-7.88467e-07
-4.58425e-08
-8.32925e-07
-2.04806e-07
-8.77439e-07
-3.66219e-07
-5.29436e-07
-9.29492e-07
1.98845e-08
3.54335e-06
4.73566e-08
3.66947e-06
7.04381e-08
3.60571e-06
8.88351e-08
3.46453e-06
9.98003e-08
3.28226e-06
1.00913e-07
3.07374e-06
9.07686e-08
2.84784e-06
6.94279e-08
2.6111e-06
3.80037e-08
2.36838e-06
-2.4061e-09
2.12293e-06
-5.10822e-08
1.87716e-06
-1.07459e-07
1.63333e-06
-1.70752e-07
1.39387e-06
-2.39643e-07
1.16142e-06
-3.12076e-07
9.38547e-07
-3.852e-07
7.27443e-07
-4.55529e-07
5.29381e-07
-5.19628e-07
3.44126e-07
-5.75452e-07
1.6956e-07
-6.23574e-07
2.20009e-09
-6.672e-07
-1.61261e-07
-7.11056e-07
-3.22443e-07
-4.80601e-07
-7.59974e-07
3.7078e-09
3.53968e-06
2.86577e-08
3.64458e-06
4.98578e-08
3.58455e-06
6.89154e-08
3.4455e-06
8.31507e-08
3.26805e-06
8.99876e-08
3.06692e-06
8.78461e-08
2.85e-06
7.6302e-08
2.62266e-06
5.5759e-08
2.38893e-06
2.68782e-08
2.15182e-06
-9.6891e-09
1.91373e-06
-5.32597e-08
1.6769e-06
-1.02934e-07
1.44353e-06
-1.5743e-07
1.21589e-06
-2.14983e-07
9.9607e-07
-2.73368e-07
7.85789e-07
-3.30094e-07
5.86063e-07
-3.82908e-07
3.9689e-07
-4.30554e-07
2.17153e-07
-4.73416e-07
4.50078e-08
-5.13495e-07
-1.21237e-07
-5.53744e-07
-2.82247e-07
-4.37253e-07
-5.97149e-07
-5.6844e-09
3.5454e-06
1.1295e-08
3.62765e-06
3.21417e-08
3.56373e-06
5.36948e-08
3.42398e-06
7.21969e-08
3.24957e-06
8.48244e-08
3.05432e-06
8.99176e-08
2.84493e-06
8.68203e-08
2.62577e-06
7.55948e-08
2.40017e-06
5.66637e-08
2.17077e-06
3.06141e-08
1.93979e-06
-1.82306e-09
1.70934e-06
-3.97269e-08
1.48144e-06
-8.19028e-08
1.25806e-06
-1.26848e-07
1.04101e-06
-1.72814e-07
8.31742e-07
-2.17986e-07
6.31216e-07
-2.60814e-07
4.39697e-07
-3.00463e-07
2.56778e-07
-3.37128e-07
8.1647e-08
-3.71996e-07
-8.6396e-08
-4.06825e-07
-2.47445e-07
-4.00761e-07
-4.43347e-07
-1.11984e-08
3.55663e-06
-3.09704e-09
3.61959e-06
1.89098e-08
3.54175e-06
4.44606e-08
3.39845e-06
6.78201e-08
3.22623e-06
8.60185e-08
3.03615e-06
9.7462e-08
2.83351e-06
1.01469e-07
2.62179e-06
9.79896e-08
2.40368e-06
8.73626e-08
2.18141e-06
7.01522e-08
1.95702e-06
4.7092e-08
1.73242e-06
1.90934e-08
1.50945e-06
-1.27405e-08
1.28991e-06
-4.71303e-08
1.0754e-06
-8.26795e-08
8.67296e-07
-1.18017e-07
6.66556e-07
-1.52021e-07
4.737e-07
-1.84065e-07
2.88819e-07
-2.14182e-07
1.11761e-07
-2.4301e-07
-5.75733e-08
-2.7151e-07
-2.18949e-07
-3.71692e-07
-3.00587e-07
-1.9091e-08
3.57575e-06
-1.33942e-08
3.61391e-06
1.29531e-08
3.51542e-06
4.31618e-08
3.36826e-06
7.11857e-08
3.19823e-06
9.42453e-08
3.01311e-06
1.10909e-07
2.81686e-06
1.20581e-07
2.61214e-06
1.23237e-07
2.40104e-06
1.19221e-07
2.18545e-06
1.09112e-07
1.96715e-06
9.36547e-08
1.74789e-06
7.37339e-08
1.52939e-06
5.03604e-08
1.3133e-06
2.46442e-08
1.10113e-06
-2.26975e-09
8.94223e-07
-2.93055e-08
6.93605e-07
-5.55975e-08
5.00004e-07
-8.06287e-08
3.13862e-07
-1.04304e-07
1.35448e-07
-1.26892e-07
-3.49738e-08
-1.48841e-07
-1.9699e-07
-3.50002e-07
-1.7052e-07
-2.32145e-08
3.59897e-06
-1.23337e-08
3.60304e-06
1.78911e-08
3.48521e-06
5.15958e-08
3.33457e-06
8.32239e-08
3.16661e-06
1.09975e-07
2.98637e-06
1.30491e-07
2.79636e-06
1.44285e-07
2.59836e-06
1.51419e-07
2.39392e-06
1.523e-07
2.18458e-06
1.4755e-07
1.97192e-06
1.37931e-07
1.75753e-06
1.24308e-07
1.54303e-06
1.07616e-07
1.33e-06
8.88339e-08
1.11993e-06
6.89268e-08
9.14148e-07
4.87734e-08
7.13778e-07
2.90791e-08
5.19719e-07
1.03014e-08
3.32661e-07
-7.37538e-09
1.53147e-07
-2.39858e-08
-1.83396e-08
-3.96532e-08
-1.81297e-07
-3.35207e-07
-5.44219e-08
-1.56173e-08
3.6146e-06
1.85215e-09
3.58557e-06
3.36232e-08
3.45344e-06
6.97445e-08
3.29845e-06
1.03931e-07
3.13243e-06
1.33147e-07
2.95716e-06
1.56095e-07
2.77342e-06
1.7244e-07
2.58202e-06
1.8239e-07
2.38398e-06
1.86465e-07
2.18052e-06
1.85358e-07
1.97304e-06
1.79862e-07
1.76304e-06
1.70829e-07
1.55208e-06
1.59138e-07
1.34171e-06
1.45668e-07
1.13342e-06
1.31255e-07
9.28585e-07
1.16639e-07
7.28419e-07
1.0242e-07
5.33967e-07
8.90112e-08
3.461e-07
7.66491e-08
1.65542e-07
6.54366e-08
-7.09114e-09
5.54394e-08
-1.7126e-07
-3.26525e-07
4.67997e-08
-5.26966e-09
3.61987e-06
1.96215e-08
3.56067e-06
5.66733e-08
3.41638e-06
9.603e-08
3.25909e-06
1.32467e-07
3.09599e-06
1.63215e-07
2.92641e-06
1.87279e-07
2.74936e-06
2.04647e-07
2.56466e-06
2.15788e-07
2.37285e-06
2.21399e-07
2.17492e-06
2.22278e-07
1.97217e-06
2.19265e-07
1.76607e-06
2.13207e-07
1.55816e-06
2.04942e-07
1.35e-06
1.95273e-07
1.14312e-06
1.84937e-07
9.3895e-07
1.74576e-07
7.38813e-07
1.64706e-07
5.43874e-07
1.55702e-07
3.55144e-07
1.47816e-07
1.73473e-07
1.41215e-07
-4.42665e-10
1.36061e-07
-1.66055e-07
-3.22993e-07
1.32586e-07
9.11676e-09
3.61075e-06
4.21872e-08
3.52758e-06
8.53501e-08
3.3732e-06
1.29153e-07
3.21527e-06
1.67994e-07
3.05714e-06
1.99514e-07
2.89488e-06
2.23424e-07
2.72544e-06
2.40314e-07
2.54777e-06
2.51066e-07
2.3621e-06
2.56626e-07
2.16937e-06
2.57923e-07
1.97088e-06
2.55853e-07
1.76815e-06
2.51267e-07
1.56276e-06
2.44968e-07
1.35632e-06
2.37697e-07
1.15042e-06
2.30118e-07
9.46565e-07
2.22791e-07
7.4618e-07
2.16163e-07
5.50547e-07
2.10564e-07
3.60792e-07
2.06227e-07
1.77862e-07
2.03335e-07
2.50618e-09
2.02077e-07
-1.64736e-07
-3.23561e-07
2.0271e-07
2.45939e-08
3.58614e-06
6.67998e-08
3.48534e-06
1.18499e-07
3.32148e-06
1.68519e-07
3.16523e-06
2.10029e-07
3.01561e-06
2.41441e-07
2.86345e-06
2.63812e-07
2.70306e-06
2.78692e-07
2.53288e-06
2.87521e-07
2.35327e-06
2.91535e-07
2.16536e-06
2.91801e-07
1.97063e-06
2.89266e-07
1.77071e-06
2.84779e-07
1.56728e-06
2.79113e-07
1.36202e-06
2.72958e-07
1.15661e-06
2.66913e-07
9.5265e-07
2.61473e-07
7.51665e-07
2.57018e-07
5.55051e-07
2.53825e-07
3.64038e-07
2.52086e-07
1.79658e-07
2.51953e-07
2.69966e-09
2.53596e-07
-1.66315e-07
-3.27151e-07
2.57255e-07
3.72769e-08
3.54884e-06
9.26022e-08
3.42997e-06
1.56213e-07
3.25783e-06
2.14481e-07
3.10693e-06
2.585e-07
2.97156e-06
2.88391e-07
2.83354e-06
3.07558e-07
2.68387e-06
3.18843e-07
2.52158e-06
3.2429e-07
2.34782e-06
3.25401e-07
2.16425e-06
3.23348e-07
1.97269e-06
3.191e-07
1.77497e-06
3.13497e-07
1.5729e-06
3.07275e-07
1.36827e-06
3.01079e-07
1.16284e-06
2.95455e-07
9.58315e-07
2.90838e-07
7.56328e-07
2.87549e-07
5.58389e-07
2.85802e-07
3.65839e-07
2.85724e-07
1.79792e-07
2.87409e-07
1.07387e-09
2.90968e-07
-1.69814e-07
-3.32717e-07
2.96598e-07
5.17135e-08
3.49711e-06
1.22583e-07
3.35905e-06
2.00348e-07
3.18003e-06
2.68743e-07
3.0385e-06
3.13204e-07
2.92707e-06
3.39371e-07
2.80735e-06
3.53403e-07
2.66982e-06
3.59562e-07
2.51541e-06
3.60351e-07
2.34702e-06
3.57419e-07
2.16718e-06
3.5197e-07
1.97815e-06
3.44962e-07
1.782e-06
3.37205e-07
1.58068e-06
3.29398e-07
1.3761e-06
3.22142e-07
1.17013e-06
3.1594e-07
9.64554e-07
3.11178e-07
7.61131e-07
3.08123e-07
5.61489e-07
3.06921e-07
3.67089e-07
3.07623e-07
1.7914e-07
3.10232e-07
-1.48378e-09
3.14775e-07
-1.74306e-07
-3.3927e-07
3.21381e-07
7.79469e-08
3.41913e-06
1.66956e-07
3.26999e-06
2.59365e-07
3.08758e-06
3.30168e-07
2.96766e-06
3.72858e-07
2.88435e-06
3.92273e-07
2.7879e-06
3.99492e-07
2.66258e-06
3.99387e-07
2.5155e-06
3.94597e-07
2.3518e-06
3.8678e-07
2.175e-06
3.77117e-07
1.98782e-06
3.66525e-07
1.7926e-06
3.55773e-07
1.59145e-06
3.45519e-07
1.38638e-06
3.36329e-07
1.17934e-06
3.2867e-07
9.72243e-07
3.22895e-07
7.66939e-07
3.19227e-07
5.65193e-07
3.17749e-07
3.68605e-07
3.18423e-07
1.78505e-07
3.21141e-07
-4.16113e-09
3.25815e-07
-1.7894e-07
-3.45905e-07
3.32491e-07
1.34826e-07
3.28427e-06
2.44956e-07
3.15981e-06
3.38724e-07
2.99377e-06
3.98492e-07
2.90786e-06
4.335e-07
2.84931e-06
4.44217e-07
2.77716e-06
4.4386e-07
2.66292e-06
4.36953e-07
2.52239e-06
4.26063e-07
2.36268e-06
4.12823e-07
2.18823e-06
3.98377e-07
2.00226e-06
3.836e-07
1.80738e-06
3.69211e-07
1.60585e-06
3.55823e-07
1.39978e-06
3.43971e-07
1.19121e-06
3.34097e-07
9.82136e-07
3.26539e-07
7.7452e-07
3.21494e-07
5.70263e-07
3.18999e-07
3.71126e-07
3.18928e-07
1.78604e-07
3.21037e-07
-6.24288e-09
3.25088e-07
-1.82964e-07
-3.51814e-07
3.31024e-07
2.25648e-07
3.0586e-06
3.60852e-07
3.02457e-06
4.38966e-07
2.91562e-06
4.78975e-07
2.86782e-06
4.94239e-07
2.83402e-06
4.94764e-07
2.77661e-06
4.86005e-07
2.67166e-06
4.71707e-07
2.53668e-06
4.54248e-07
2.38013e-06
4.35175e-07
2.2073e-06
4.15559e-07
2.02188e-06
3.96192e-07
1.82674e-06
3.77717e-07
1.62432e-06
3.60687e-07
1.41681e-06
3.45593e-07
1.20631e-06
3.32865e-07
9.94874e-07
3.22842e-07
7.84556e-07
3.1573e-07
5.7739e-07
3.11548e-07
3.75322e-07
3.101e-07
1.80068e-07
3.10988e-07
-7.11578e-09
3.13769e-07
-1.8573e-07
-3.5629e-07
3.18259e-07
3.42244e-07
2.71633e-06
5.04343e-07
2.86243e-06
5.59083e-07
2.86085e-06
5.70019e-07
2.85685e-06
5.60309e-07
2.84371e-06
5.46528e-07
2.79037e-06
5.26897e-07
2.69127e-06
5.03804e-07
2.55975e-06
4.79013e-07
2.40491e-06
4.53698e-07
2.2326e-06
4.28663e-07
2.0469e-06
4.04501e-07
1.8509e-06
3.817e-07
1.64712e-06
3.60708e-07
1.43781e-06
3.41955e-07
1.22507e-06
3.25853e-07
1.01098e-06
3.12764e-07
7.97649e-07
3.02941e-07
5.87218e-07
2.96445e-07
3.81823e-07
2.93053e-07
1.83465e-07
2.92209e-07
-6.26677e-09
2.93181e-07
-1.86699e-07
-3.5872e-07
2.95614e-07
4.72966e-07
2.24334e-06
6.58636e-07
2.67673e-06
6.90303e-07
2.82916e-06
6.676e-07
2.87954e-06
6.33515e-07
2.87777e-06
6.00062e-07
2.82381e-06
5.66304e-07
2.72501e-06
5.32765e-07
2.59328e-06
4.9995e-07
2.43771e-06
4.68204e-07
2.26434e-06
4.37776e-07
2.07732e-06
4.08886e-07
1.87978e-06
3.81776e-07
1.67422e-06
3.5673e-07
1.46285e-06
3.34085e-07
1.24771e-06
3.14222e-07
1.03084e-06
2.97537e-07
8.14331e-07
2.84378e-07
6.00375e-07
2.74928e-07
3.9127e-07
2.69039e-07
1.89352e-07
2.66033e-07
-3.26276e-09
2.64752e-07
-1.8542e-07
-3.5857e-07
2.64598e-07
6.17513e-07
1.62581e-06
8.17058e-07
2.47717e-06
8.2208e-07
2.82413e-06
7.66745e-07
2.93486e-06
7.05243e-07
2.93926e-06
6.49837e-07
2.8792e-06
6.00766e-07
2.77407e-06
5.56547e-07
2.63749e-06
5.16e-07
2.47825e-06
4.78323e-07
2.302e-06
4.43026e-07
2.11261e-06
4.09866e-07
1.91293e-06