/*--------------------------------*- C++ -*----------------------------------*\
  =========                 |
  \\      /  F ield         | OpenFOAM: The Open Source CFD Toolbox
   \\    /   O peration     | Website:  https://openfoam.org
    \\  /    A nd           | Version:  9
     \\/     M anipulation  |
\*---------------------------------------------------------------------------*/
FoamFile
{
    format      ascii;
    class       volVectorField;
    location    "30.55";
    object      U;
}
// * * * * * * * * * * * * * * * * * * * * * * * * * * * * * * * * * * * * * //

dimensions      [0 1 -1 0 0 0 0];

internalField   nonuniform List<vector> 
918
(
(2.47629 -0.138943 0)
(0.108704 0.722546 0)
(0.171744 1.05369 0)
(2.31834 0.153728 0)
(-0.0597676 1.27086 -1.22291e-19)
(-0.0924034 0.643931 -5.31388e-18)
(0.530029 0.849635 -2.95381e-19)
(0.274317 0.15287 -2.98847e-20)
(3.00615 -0.0195607 0)
(-0.00825558 0.476926 0)
(-0.0172119 0.589474 0)
(0.605212 0.00676622 0)
(0.0107054 0.439105 0)
(-0.00288245 0.421689 0)
(0.0134381 0.340817 -1.30514e-18)
(-0.00470311 0.768936 -9.20695e-20)
(0.312399 0.0742688 2.15213e-18)
(0.0797448 0.64248 -2.22979e-19)
(1.52884 0.128628 0)
(-0.026711 0.685302 0)
(0.194586 0.157719 -1.26555e-18)
(3.08302 -0.397373 0)
(2.92445 -0.50598 0)
(1.86116 -0.1811 0)
(0.511383 0.0400858 0)
(-0.0253685 0.52155 0)
(-0.00135313 0.494038 1.86241e-18)
(-0.0224757 1.40025 0)
(0.0746764 2.88358 0)
(0.168185 1.73635 0)
(-0.0384705 3.16565 0)
(0.0272114 1.64036 9.40306e-20)
(0.0233071 0.686722 0)
(-0.147425 0.775094 -2.03088e-22)
(-0.193914 1.0291 4.42128e-18)
(-0.0415772 1.04471 0)
(0.744578 -0.00600501 0)
(0.161005 0.246309 6.65546e-19)
(0.993516 1.51307 6.52873e-19)
(0.649951 0.784384 -5.16029e-19)
(0.798615 1.57521 6.20036e-20)
(0.416817 0.851412 -3.20134e-19)
(0.552311 0.306558 2.93911e-20)
(0.296963 0.153642 0)
(0.963004 0.566574 0)
(0.532591 0.303941 1.32015e-19)
(0.25797 0.162787 -1.35466e-19)
(0.871596 -0.0554787 0)
(3.02784 -0.00170479 0)
(3.00685 0.0178656 0)
(3.20086 -0.417733 0)
(3.04288 -0.0742117 0)
(3.03116 -0.0388406 0)
(0.0186154 0.903166 -1.14632e-18)
(-0.0542552 0.97425 0)
(0.00283796 0.455068 0)
(-0.0291401 0.981318 0)
(-0.0113971 0.481286 0)
(-0.00133877 0.870071 0)
(-0.0520935 1.11089 0)
(-0.0125532 0.541791 0)
(-0.0253459 1.16223 0)
(-0.00591745 0.621724 0)
(0.790478 0.0116243 0)
(1.16942 -0.00156184 0)
(0.618248 0.0123697 0)
(1.12578 0.0175986 0)
(0.569759 0.00867935 0)
(0.225406 0.921982 1.95978e-18)
(0.0985379 1.2081 0)
(0.176302 1.06604 0)
(0.0331901 0.755774 2.19931e-23)
(0.0372233 0.498055 -2.93102e-18)
(0.0194616 0.747943 0)
(0.00595421 0.422033 0)
(-0.000695315 0.734548 4.5174e-24)
(0.000702479 0.414825 0)
(-0.0169204 0.74318 0)
(-0.0129373 0.42798 0)
(0.0494366 0.64998 0)
(0.0484395 0.458226 0)
(0.00800605 0.621952 1.23399e-18)
(0.000745138 0.344904 0)
(-0.068219 4.69208 0)
(0.00893312 1.45852 9.14059e-20)
(-0.0104707 0.785634 -1.17673e-19)
(0.636087 0.152147 -7.50944e-19)
(0.321615 0.0656847 -7.28705e-19)
(0.644793 0.169723 -2.25465e-18)
(0.317533 0.0955712 -1.45156e-18)
(0.078541 0.618448 0)
(0.178531 1.31372 1.84903e-19)
(0.179696 0.730202 -2.95017e-19)
(2.06031 0.260946 0)
(1.10704 0.11845 0)
(3.03313 0.103887 0)
(3.10392 0.446059 0)
(2.83919 0.377459 -1.01278e-17)
(2.5781 0.361309 7.77125e-18)
(-0.0706591 1.26279 0)
(-0.0113405 0.623085 0)
(-0.0139268 1.89997 0)
(-0.0506955 1.34623 0)
(-0.0480078 0.678874 0)
(0.440315 0.295631 4.00671e-19)
(0.225465 0.16336 0)
(2.2961 -0.266393 0)
(1.32372 -0.119273 0)
(1.07632 0.0126687 0)
(1.01199 0.0187648 0)
(0.540923 0.010851 0)
(1.01986 0.0563989 0)
(0.821217 0.0703258 0)
(0.343623 0.0286957 3.36299e-18)
(-0.00543503 0.451601 1.77349e-18)
(-0.0270313 0.784628 0)
(-0.0473177 0.847508 0)
(-0.015274 0.460436 0)
(0.000132483 0.839725 1.81596e-18)
(7.30036e-05 0.48753 0)
(-0.0054789 0.845554 -5.59028e-18)
(-0.00488634 0.496761 1.88632e-18)
(0.0543794 3.56546 0)
(0.0429363 4.02473 0)
(-0.0162629 1.41112 -2.05214e-21)
(-0.0130799 1.3636 0)
(-0.00980521 0.741663 0)
(1.41018 0.0348843 0)
(0.760549 0.0154387 0)
(0.709514 0.0142643 0)
(1.41618 -0.0328482 0)
(0.773515 -0.00873975 0)
(0.322066 0.480362 -8.35618e-19)
(0.15681 0.232725 0)
(0.324969 0.509181 9.36485e-20)
(0.163365 0.26844 0)
(1.24075 1.38682 1.66462e-19)
(0.778661 0.740824 -3.92459e-19)
(0.411565 1.42201 0)
(0.607138 1.53391 0)
(0.303522 0.814725 0)
(0.145336 0.353393 -4.42849e-19)
(0.607309 0.28072 0)
(0.313512 0.13464 3.98823e-19)
(1.42728 1.30668 0)
(1.58665 1.16851 0)
(0.874888 0.663897 4.61751e-19)
(1.73388 0.953079 0)
(1.06858 0.438768 2.32216e-20)
(1.47298 0.00813846 0)
(1.501 -0.0292391 0)
(0.801896 -0.0044162 0)
(1.95042 -0.199779 0)
(1.65082 -0.14818 0)
(1.05215 -0.0889697 0)
(3.06126 0.164853 0)
(3.03105 0.0687875 0)
(3.01022 0.0531594 0)
(0.0357252 1.60587 6.08241e-19)
(0.017878 0.827131 0)
(0.0179705 1.6966 1.07982e-18)
(0.00304512 0.939067 -9.70793e-19)
(0.0646816 1.15221 1.87822e-19)
(0.0477046 0.989077 0)
(0.0401853 0.52864 0)
(-0.0286614 1.00533 0)
(-0.00698182 0.517426 0)
(0.0181368 1.61607 -4.43323e-21)
(-0.0180756 0.865828 0)
(-0.0539496 1.58466 -2.25804e-19)
(-0.0161434 0.821031 4.37325e-19)
(-0.00177837 1.02958 0)
(0.0102711 1.04377 0)
(5.57217e-05 0.531473 0)
(0.0106732 1.17068 0)
(0.000909914 0.612219 0)
(1.46831 -0.00370378 0)
(0.789217 0.00805968 0)
(1.44055 0.033166 0)
(0.761792 -0.000557592 0)
(0.675383 0.00534453 0)
(1.26196 0.0166821 0)
(1.20239 0.0473082 0)
(0.659691 0.015556 0)
(-0.00580052 1.42077 -1.70206e-20)
(0.000184321 1.37708 0)
(0.00482012 0.732923 0)
(0.00172892 0.417221 0)
(0.284444 0.828769 0)
(0.253622 0.399741 -2.87134e-19)
(-0.00223184 0.63541 0)
(-0.00889693 0.367611 0)
(0.0112875 4.3374 0)
(-0.0490851 4.6643 0)
(-0.0185204 4.56585 0)
(-0.0721904 3.36831 2.04323e-20)
(-0.0582215 4.60342 0)
(-0.0520654 4.18069 0)
(0.00484037 0.819374 1.08076e-20)
(0.0142221 1.56294 1.65404e-19)
(-0.035875 1.50343 1.20898e-19)
(-0.00744925 0.826185 0)
(0.664431 0.105709 1.15329e-18)
(0.325686 0.0441635 -1.13024e-18)
(0.149684 1.13346 0)
(0.100955 0.573445 -2.69245e-19)
(0.118148 1.23332 -8.74329e-19)
(0.0518656 0.687193 8.69829e-19)
(0.809202 0.0240635 0)
(1.55677 0.0476795 0)
(1.7097 0.127652 0)
(0.919845 0.0445228 0)
(0.00792417 1.18183 0)
(0.025838 1.18988 0)
(0.00450091 0.627669 0)
(0.482112 0.315082 1.20361e-18)
(0.436848 0.309083 -1.38668e-18)
(0.234768 0.164175 0)
(1.9355 0.153 1.15239e-19)
(1.13642 0.0932506 0)
(1.72436 0.118443 0)
(0.883727 0.0226949 0)
(0.678174 0.0857389 0)
(0.699716 0.0460599 -5.40755e-18)
(0.346729 0.0325964 1.99903e-18)
(0.00914734 0.807284 1.69366e-18)
(0.00222279 0.46251 4.08166e-20)
(-0.0108777 1.40842 -3.58001e-20)
(0.00613616 1.38675 1.36586e-18)
(-0.0149832 0.848955 6.29432e-20)
(-0.0119261 0.524486 -2.52904e-22)
(-0.107514 1.00068 -1.16487e-18)
(-0.0529602 1.3532 8.33986e-19)
(-0.0175323 1.35275 -1.35775e-18)
(1.42273 -0.0170847 0)
(1.44236 0.0203184 0)
(0.769871 -0.000177657 0)
(1.45218 0.0253833 0)
(1.36319 0.0462297 0)
(0.761541 0.020307 0)
(1.30062 -0.00215363 0)
(1.31867 -0.00584874 0)
(0.695055 -0.000986466 0)
(0.304861 0.473412 -9.15226e-19)
(0.16136 0.242683 0)
(0.157159 0.308438 1.36939e-19)
(0.309598 0.585908 1.12217e-18)
(0.307411 0.54859 -6.64331e-19)
(0.156824 0.281905 1.2982e-18)
(0.278491 0.717721 2.18157e-18)
(0.148267 0.380864 3.93634e-19)
(0.636092 0.213094 1.53747e-18)
(0.625995 0.253605 3.9932e-19)
(0.316622 0.115046 7.49272e-19)
(1.92129 0.714622 -5.99686e-19)
(1.16768 0.336101 -7.01908e-19)
(-0.0351076 1.70363 4.64143e-19)
(-0.011403 0.925082 0)
(1.6039 0.0239524 0)
(1.5219 0.0653723 0)
(0.852932 0.0268585 0)
(-0.00355882 1.38473 0)
(0.00507422 0.729574 2.4951e-18)
(0.00465033 0.731252 0)
(0.00207079 0.415097 -2.44214e-18)
(-0.0102751 1.38627 5.95649e-19)
(-0.00947265 1.4225 0)
(0.336553 0.488145 2.57958e-19)
(0.360042 0.546407 -8.63003e-19)
(0.171837 0.25782 7.81147e-19)
(-0.0256693 0.767468 -1.6626e-18)
(-0.0261517 0.689734 0)
(-0.0154343 0.412938 0)
(0.0302007 1.54853 -1.2713e-20)
(0.0314065 1.5812 -3.64905e-19)
(0.0179007 0.82286 -1.55916e-20)
(0.213363 1.04407 8.90003e-19)
(0.119651 0.509022 -5.92251e-19)
(0.0118786 1.48496 7.30583e-19)
(0.0558341 1.35089 -8.15408e-19)
(0.0268184 0.76043 3.53062e-20)
(0.00751357 1.36614 -3.80751e-18)
(-0.000214836 1.39326 4.40932e-18)
(0.00377339 0.829776 1.73289e-18)
(-0.0138288 0.805094 -1.72536e-18)
(-0.00430906 0.481399 -1.73853e-18)
(-0.0106511 1.41685 -4.49973e-18)
(-0.0152178 1.40032 4.58892e-18)
(0.286364 0.674794 0)
(0.299773 0.63463 -2.28769e-18)
(0.151938 0.331719 9.90341e-19)
(0.281212 0.79596 1.18501e-18)
(0.138804 0.427509 -1.82847e-18)
(2.05699 0.322581 4.15838e-19)
(2.05154 0.547723 0)
(1.21865 0.220981 -4.01791e-19)
(-0.0738674 1.63568 -4.80166e-21)
(-0.0141153 1.69103 0)
(-0.0157103 0.922142 0)
(0.227077 0.944471 -3.22774e-19)
(0.248221 0.866476 -7.0687e-19)
(0.1288 0.463261 1.32472e-18)
(3.16442 -0.442872 0)
(3.34728 -0.414685 1.81283e-18)
(0.0620554 3.48364 0)
(0.0486921 2.80746 0)
(3.15925 0.249915 1.4192e-20)
(3.12355 0.506296 3.71217e-18)
(0.023118 3.43312 -2.74211e-20)
(0.00914426 2.66487 0)
(-0.0416461 1.19604 1.55497e-18)
(0.190068 1.31639 0)
(3.47258 1.62509 -3.2475e-19)
(3.17427 0.272573 -2.96098e-20)
(3.14838 -0.118697 0)
(3.10047 -0.000404017 3.73115e-22)
(0.0439479 2.58987 0)
(0.157577 3.3012 0)
(-0.0548613 2.53363 0)
(-0.0229574 3.48927 3.15773e-19)
(-0.0248368 3.5703 1.99252e-19)
(2.63343 0.0488312 -1.36492e-20)
(3.04751 0.0311524 0)
(3.15792 0.0868398 0)
(-0.0513145 4.61742 0)
(-0.0457728 3.08425 0)
(-0.0718546 2.93503 0)
(0.65253 3.10567 2.65686e-19)
(3.33884 -0.422458 0)
(3.0114 -0.34581 0)
(3.1699 -0.0530368 2.27723e-18)
(3.2927 -0.3287 -2.74204e-18)
(3.1038 -0.125776 0)
(-0.0570823 4.51545 0)
(0.0164774 3.9347 0)
(0.00832069 4.26556 0)
(-0.0266248 3.09553 0)
(-0.0130155 2.85093 0)
(-0.0305062 2.42381 0)
(2.97422 -0.00316957 0)
(2.85043 0.0486285 -1.805e-20)
(2.24685 3.04928 -3.21551e-19)
(3.15695 0.0444552 -2.2783e-18)
(3.19037 0.278179 2.76939e-18)
(3.0828 0.117338 0)
(3.3954 0.328926 2.08732e-18)
(3.35695 0.484366 -2.70659e-18)
(3.07111 0.418429 0)
(-0.0549155 3.34766 0)
(0.00553938 3.2776 8.52162e-20)
(-0.0303684 2.57649 -6.03808e-20)
(3.70789 0.555313 2.2655e-18)
(3.47098 0.208497 0)
(-0.151982 1.27126 -2.16589e-18)
(-0.0624314 0.882159 -1.35032e-19)
(-0.0848352 1.33672 2.98555e-18)
(-0.0352347 1.27045 -8.99601e-19)
(-0.0004941 1.08841 0)
(-0.0266646 1.23955 6.94844e-19)
(-0.115053 1.38786 2.14651e-18)
(-0.0590494 1.34056 -1.31411e-18)
(-0.076737 1.32063 0)
(1.2893 0.59722 0)
(1.17728 0.682388 0)
(3.55662 2.02947 9.53543e-19)
(3.04984 1.93596 -1.19062e-18)
(3.83772 1.70659 0)
(3.38424 1.15685 0)
(3.34934 0.280496 -3.91688e-18)
(2.89884 0.17312 4.83984e-18)
(3.35145 -0.155478 0)
(2.85479 -0.0761357 0)
(3.43642 0.0430263 0)
(3.5938 0.145057 0)
(3.28683 0.119875 0)
(3.55033 0.298581 0)
(3.40841 0.293059 0)
(3.32755 0.218074 0)
(0.0973658 2.79135 0)
(0.0343811 2.07993 0)
(0.126639 3.05218 0)
(0.0927486 2.20605 0)
(0.214895 3.59425 0)
(0.140161 2.67429 -5.58589e-19)
(0.0534215 3.61064 0)
(0.0113836 3.01429 4.0563e-19)
(-0.0243579 3.20345 -5.17042e-19)
(-0.0589262 2.7982 0)
(-0.0227916 2.20084 0)
(-0.0718158 2.9059 0)
(-0.0554858 2.04897 0)
(-0.106526 4.7496 -2.45554e-19)
(-0.0790154 3.94132 2.77271e-19)
(-0.0742216 3.80213 3.09088e-19)
(-0.052648 3.01647 0)
(-0.10434 3.80369 -4.58697e-19)
(-0.0370511 3.21512 -2.95076e-19)
(-0.0806363 4.78199 1.92561e-19)
(-0.0932237 4.4655 -3.50465e-19)
(-0.0684369 4.33521 -3.78947e-19)
(3.03134 0.0883876 3.35865e-18)
(2.2896 0.0321826 -4.22983e-18)
(2.89132 0.132846 -3.32757e-18)
(2.20957 0.0734896 4.15633e-18)
(3.36858 0.0277277 0)
(2.64306 -0.00265061 0)
(3.45416 0.0913581 0)
(3.32024 0.019291 0)
(2.70665 0.00922816 0)
(3.6803 0.239646 0)
(3.43883 0.096005 0)
(2.86369 0.0565193 0)
(-0.0214757 4.33603 -1.20301e-20)
(-0.0542674 4.65359 0)
(-0.0596115 4.54962 0)
(-0.074755 3.50521 8.77362e-20)
(-0.0373574 2.77863 -3.46594e-21)
(-0.0793954 4.67007 1.13454e-19)
(-0.0935324 4.45831 -1.14652e-19)
(-0.077248 3.95575 0)
(-0.0554203 3.87591 0)
(-0.01897 3.99267 0)
(-0.0707906 3.25586 0)
(-0.0425457 2.30073 0)
(0.948791 3.6621 -6.0873e-19)
(0.921272 2.85356 -1.76318e-19)
(0.430201 2.05264 -2.28172e-19)
(0.252184 2.29897 6.9691e-19)
(1.02352 4.19991 2.63805e-19)
(3.43308 -0.167422 0)
(3.32213 -0.256546 0)
(2.88327 -0.189515 0)
(3.47032 -0.0643457 0)
(3.34581 -0.147864 0)
(3.44893 -0.261022 0)
(3.5195 -0.283601 0)
(3.57949 -0.281129 0)
(3.22413 0.0933882 3.61894e-18)
(2.55519 0.0645186 -4.57609e-18)
(3.09649 0.106579 -3.56239e-18)
(2.50909 0.0566753 4.43261e-18)
(2.23997 3.41714 0)
(1.73976 2.94859 -4.45547e-19)
(2.56696 3.34904 -4.03165e-19)
(2.36964 2.52969 5.35848e-19)
(0.774454 1.21296 2.72212e-18)
(1.44676 0.216477 1.34316e-18)
(3.72257 0.304257 0)
(3.89315 0.572831 -1.84598e-18)
(3.29901 0.243962 -8.23394e-20)
(3.7208 0.440153 0)
(0.23659 1.31233 1.796e-18)
(-0.0166584 1.20198 -2.87622e-18)
(0.0587988 0.769959 1.61445e-18)
(0.275927 0.464896 -7.47806e-19)
(0.187235 1.38375 8.70954e-19)
(0.0506385 1.23716 0)
(0.0577312 1.08616 -1.13223e-18)
(0.1917 1.44297 -4.09194e-18)
(0.328982 1.55695 0)
(0.00867315 1.2902 1.19581e-19)
(-0.00971752 1.45729 -1.34018e-18)
(-0.0410145 1.30282 1.94833e-18)
(-0.0574435 1.41766 0)
(-0.0204759 1.38228 0)
(0.681056 1.04985 0)
(2.45671 2.45511 -1.06616e-18)
(2.64415 2.17385 3.95205e-19)
(2.79261 2.88268 0)
(3.21304 3.06775 -3.94547e-19)
(3.16602 2.41187 2.84639e-20)
(0.803646 0.589309 -1.82229e-18)
(1.55581 0.691431 -1.62183e-20)
(1.23285 0.450983 8.72115e-19)
(1.27494 0.84358 5.95026e-20)
(0.938738 0.633782 -2.36938e-18)
(1.46415 0.714111 0)
(1.98972 1.09966 1.45587e-18)
(2.03187 1.01562 0)
(1.41169 0.790637 0)
(1.06188 0.549639 0)
(3.37541 2.18023 1.00846e-18)
(3.94758 0.760942 -1.86331e-18)
(3.84792 1.21613 0)
(3.53386 0.757817 0)
(1.39131 0.364751 1.33244e-18)
(3.25794 1.84223 -8.51471e-19)
(2.83425 1.65438 1.54678e-18)
(3.75523 1.3771 -1.83582e-18)
(3.09793 0.114761 2.46393e-18)
(3.16856 0.180818 -2.57889e-18)
(2.66183 0.0916428 0)
(3.30731 -0.0394955 0)
(3.20141 -0.084256 -2.36647e-18)
(2.63244 -0.0321094 2.34563e-18)
(3.9563 0.0932071 0)
(3.75968 0.145655 0)
(3.69369 0.155373 0)
(3.5883 0.204748 0)
(3.83261 0.0590324 0)
(3.72611 0.0522535 0)
(-0.0400734 2.51342 0)
(-0.0376989 2.01241 0)
(0.357136 3.98967 -4.11336e-19)
(0.662932 3.33491 -1.59992e-19)
(0.259722 3.02894 -3.57964e-19)
(0.343872 2.5491 5.73378e-19)
(0.45839 4.01567 0)
(0.470064 4.67191 -5.09887e-19)
(0.383313 4.73031 0)
(0.911137 4.3752 -3.7949e-19)
(0.673145 3.8141 9.68788e-19)
(0.597397 4.65354 4.46945e-19)
(0.740913 4.20201 -1.87505e-19)
(0.602795 4.32736 1.50862e-19)
(0.91658 4.6577 -6.63754e-19)
(0.749965 4.66205 0)
(0.858674 4.58983 5.04531e-19)
(0.00725797 4.57195 -1.81147e-19)
(-0.0184386 3.64647 0)
(0.101712 4.28691 5.49633e-19)
(-0.00262557 4.38973 0)
(-0.00352768 3.45813 -4.51053e-19)
(-0.0151991 2.91159 0)
(-0.0997803 4.30888 -2.89131e-19)
(-0.105376 4.6818 0)
(-0.052775 3.80659 0)
(-0.0396163 3.72869 3.25193e-19)
(-0.0467725 3.88753 1.03861e-20)
(-0.0345174 3.70866 6.25919e-19)
(-0.0410256 2.94894 4.06879e-21)
(-0.113369 4.71043 1.80191e-19)
(-0.102228 4.74206 1.03221e-19)
(-0.0165606 2.62332 0)
(0.00135587 2.13552 0)
(-0.0411591 4.78949 4.86248e-19)
(-0.0479553 4.3095 4.23903e-19)
(-0.0825704 4.58544 -5.5415e-19)
(0.0167353 4.75848 0)
(-0.0775526 4.53525 -3.09016e-19)
(-0.116922 4.16876 1.27708e-19)
(-0.084136 4.24931 -4.12915e-20)
(-0.0695451 4.72935 -2.18903e-19)
(-0.0848365 4.27036 -6.85626e-20)
(-0.0832556 4.2152 3.06681e-19)
(2.87142 0.0610246 -2.36356e-18)
(2.85887 0.0497075 2.27303e-18)
(2.3386 0.0345584 0)
(3.51009 0.192038 3.04654e-18)
(2.70367 0.126546 -3.30478e-18)
(2.25449 0.0644872 3.60959e-18)
(3.68248 0.335343 -4.01643e-19)
(3.20989 -0.0485199 0)
(3.17213 -0.0135471 2.23702e-18)
(2.69091 -0.0123741 -2.21939e-18)
(3.87877 0.122253 -1.25239e-19)
(3.77177 0.101864 1.07834e-18)
(4.15977 0.173502 0)
(4.22847 0.181161 -3.75135e-19)
(4.0137 0.145244 0)
(3.69489 0.155412 0)
(4.0323 0.0950912 0)
(3.71179 0.0873361 0)
(4.18472 0.113895 7.85507e-19)
(4.1372 0.0791449 -1.74792e-18)
(4.14067 0.113897 -8.48015e-19)
(4.1864 0.116539 -9.24495e-19)
(4.2157 0.229028 1.77408e-18)
(3.85475 0.18864 0)
(4.06128 0.301934 0)
(-0.0713992 4.58061 -1.35723e-19)
(-0.0318202 4.64474 -1.16774e-20)
(-0.0647092 4.66116 0)
(-0.0542301 4.19699 1.38102e-19)
(-0.0525544 4.22469 2.25332e-20)
(-0.0574257 4.09279 -2.18391e-20)
(-0.0798322 3.52738 2.61178e-19)
(-0.142826 4.00724 -1.45166e-20)
(-0.101618 4.13458 7.47611e-20)
(-0.0737579 3.40333 -1.32283e-19)
(-0.0245444 2.92583 1.58422e-19)
(-0.0745859 4.42843 5.20606e-21)
(-0.0874972 4.6425 1.72229e-19)
(1.24343 4.35988 3.47426e-19)
(1.15962 4.52878 7.26064e-19)
(1.73677 3.46654 4.30834e-19)
(1.30877 3.56087 1.69495e-19)
(1.2865 2.88977 0)
(0.548402 2.31851 2.74874e-19)
(0.463493 1.74136 3.30671e-19)
(0.345019 2.56704 1.50924e-20)
(0.492019 3.17286 -1.16124e-18)
(0.631522 3.13183 8.7647e-19)
(0.432671 2.40417 0)
(0.293521 1.97172 -5.5724e-19)
(0.259773 3.0773 1.39465e-18)
(0.27328 2.71914 -3.13828e-20)
(0.157871 2.27589 -1.74794e-18)
(0.591356 1.41095 1.4633e-18)
(0.576297 1.61669 0)
(3.58364 -0.0751495 8.64343e-20)
(3.61861 -0.254101 -7.25974e-20)
(3.72135 -0.217712 -1.26656e-18)
(3.75927 -0.126019 1.28244e-18)
(3.67616 -0.0488555 0)
(2.44633 3.87155 0)
(2.61786 3.91467 0)
(2.88948 3.62555 0)
(2.73618 3.64268 0)
(0.854134 1.39433 -3.33956e-21)
(0.611459 1.03902 0)
(1.7089 3.38405 1.5021e-20)
(1.4208 3.46307 0)
(1.3264 2.95026 -1.28369e-18)
(1.4069 2.89296 8.24395e-19)
(1.79127 0.310397 0)
(1.43044 0.262017 3.52065e-19)
(2.41165 0.358827 2.19179e-18)
(1.78606 0.284835 -7.85427e-19)
(1.42631 0.112198 -2.49499e-18)
(4.26631 0.790096 -2.56549e-18)
(3.85197 0.995206 -3.67208e-20)
(3.29691 0.844633 2.06784e-18)
(3.87579 0.745468 1.81328e-18)
(3.12306 0.465687 -3.04504e-18)
(2.91022 0.45216 3.74989e-19)
(3.19249 0.682314 -8.1872e-19)
(2.97609 0.683403 0)
(3.75867 0.563991 1.53766e-18)
(4.09566 0.629402 0)
(4.09118 0.776476 0)
(4.04577 0.415924 8.23676e-19)
(4.29665 0.642589 -3.02469e-20)
(4.24946 0.71591 -4.52881e-19)
(4.17659 0.643293 0)
(3.61567 0.130418 1.71819e-18)
(4.19 0.183603 2.14421e-18)
(4.09069 0.151662 -1.67942e-18)
(4.13651 0.24088 -1.44286e-18)
(3.74573 0.238218 -2.15639e-18)
(3.30289 0.375968 0)
(3.40343 0.302411 0)
(2.55812 0.190651 -1.26606e-18)
(2.10846 0.119115 4.76769e-19)
(4.03722 0.35263 1.94035e-18)
(4.28774 0.432854 -2.3465e-18)
(4.28489 0.489483 2.06891e-18)
(4.15713 0.493539 0)
(4.25664 0.33731 0)
(4.26651 0.322399 -9.81945e-19)
(4.2143 0.316168 -1.59653e-18)
(2.22672 3.48718 6.2048e-19)
(1.93748 3.2308 -6.83358e-19)
(1.44565 2.35538 -1.03188e-18)
(1.18633 1.99623 2.66842e-19)
(0.88374 1.37811 -2.62866e-18)
(0.793643 1.2154 9.2212e-19)
(0.600754 0.903913 -1.97146e-21)
(1.11451 1.78468 -1.13785e-18)
(1.14183 1.88177 1.69858e-18)
(0.974333 1.70009 5.0607e-19)
(0.785926 1.28861 -5.12685e-19)
(0.635399 1.07438 0)
(2.44557 2.60677 -1.15435e-19)
(0.705161 1.14419 8.57227e-19)
(0.927735 0.889701 1.15618e-18)
(0.755262 0.813603 1.33774e-18)
(1.08308 0.746513 1.34115e-18)
(1.46689 1.0443 -2.27027e-18)
(1.38292 1.0712 1.83942e-18)
(1.00179 0.765504 -6.76749e-19)
(0.817024 0.568003 1.49464e-18)
(1.61549 0.490752 -7.78113e-19)
(1.55896 0.508326 0)
(1.23954 0.407334 4.60593e-21)
(2.50918 1.51588 7.7556e-19)
(2.07979 1.27014 -2.80859e-18)
(1.68663 1.18439 9.08753e-21)
(1.66069 1.09233 0)
(2.86206 2.59508 8.73799e-19)
(3.44677 2.75288 1.03747e-18)
(3.25579 2.93077 -1.19596e-18)
(3.55421 2.76342 -4.28384e-19)
(3.48428 2.6037 -1.34892e-19)
(3.51245 2.79515 1.38785e-19)
(3.67424 2.26704 -1.67942e-18)
(3.70518 2.49209 4.00742e-19)
(3.78367 2.43586 0)
(3.78445 2.19161 -5.79708e-19)
(4.04896 1.07333 5.80561e-19)
(4.27596 0.993175 1.00216e-18)
(4.30041 0.966884 1.01167e-18)
(4.05503 1.32935 -1.14962e-18)
(4.10287 1.34977 0)
(4.15252 1.23373 0)
(3.32768 1.23573 -1.56062e-20)
(2.41772 0.66649 0)
(2.72185 0.744043 9.30653e-19)
(3.23826 0.885949 -2.64563e-20)
(3.77288 1.53468 5.10746e-18)
(3.5698 1.7619 1.31113e-18)
(3.48093 1.54047 -1.34066e-18)
(3.03734 1.36977 1.43743e-18)
(2.76064 1.36965 8.23764e-19)
(2.30655 1.15589 -7.97797e-19)
(3.67221 -0.085543 1.98463e-18)
(3.8947 -0.0289326 0)
(3.85894 -0.066549 1.34207e-18)
(3.74291 -0.0594086 -2.98776e-18)
(3.98056 0.0373774 1.46197e-18)
(3.90444 0.113427 -3.08295e-18)
(3.73986 0.128036 0)
(3.55625 0.173471 -6.28548e-19)
(3.81197 0.122981 1.60528e-18)
(3.69195 0.191384 -8.2256e-19)
(3.6003 0.171079 5.90717e-19)
(-0.0800926 2.59172 0)
(-0.0466352 3.39888 0)
(-0.0318243 2.4627 0)
(-0.0215272 1.97131 0)
(0.0464644 3.94158 6.70717e-19)
(0.1403 3.72301 -1.72961e-19)
(0.317478 4.64464 -2.29752e-19)
(0.253215 4.46181 2.42651e-19)
(-0.0245398 4.29446 -4.97584e-19)
(0.0124878 4.32653 3.73646e-19)
(0.0960438 3.8703 2.22684e-20)
(0.0100889 3.55769 -4.67129e-19)
(-0.0121765 3.30939 -6.22706e-20)
(-0.0389123 3.67166 -5.6743e-20)
(0.153489 4.47479 -5.87005e-19)
(0.178663 4.28825 0)
(0.275974 4.63497 2.96429e-19)
(0.269176 4.70956 2.53e-19)
(0.59608 4.44438 -2.26031e-19)
(0.40823 3.78031 0)
(0.45737 3.62809 -1.11488e-18)
(0.56007 3.99695 7.89984e-19)
(0.480309 4.56187 -6.14833e-19)
(0.370698 4.43234 3.30786e-19)
(0.299648 4.15399 0)
(-0.0339939 4.762 -5.53263e-19)
(-0.0738074 4.52692 -6.41498e-19)
(-0.0749155 4.73991 0)
(-0.0282524 4.35977 -6.24875e-21)
(-0.0182733 4.64138 2.74274e-19)
(-0.117847 3.88218 4.47098e-20)
(-0.0548073 3.48672 -6.5384e-19)
(-0.0948636 3.92489 1.74201e-19)
(-0.134617 4.51801 2.32387e-19)
(-0.075272 4.32837 0)
(-0.0590989 3.88678 0)
(-0.0818223 2.89845 2.00867e-19)
(-0.0471122 3.63199 -6.26783e-20)
(-0.0722645 3.61951 0)
(-0.0879182 2.68751 1.58154e-19)
(-0.0461953 2.19405 -3.06432e-19)
(3.76103 0.0323484 0)
(3.7319 0.00775047 -2.03279e-19)
(4.1795 0.0679704 -1.43997e-18)
(4.08911 0.0463206 0)
(3.87634 0.0178314 0)
(4.14973 0.0370656 -1.25249e-20)
(4.1003 0.0349592 2.37896e-18)
(4.0001 0.0802216 2.84571e-18)
(3.75586 0.118677 0)
(3.55802 0.110062 0)
(4.01332 0.093973 1.4175e-18)
(3.70324 0.116149 0)
(3.4721 0.128885 0)
(-0.0806509 4.69998 0)
(-0.106233 4.66837 1.06692e-20)
(-0.0766169 4.72007 6.29864e-20)
(-0.0603345 3.83243 0)
(-0.111799 4.53608 1.11261e-19)
(-0.0675101 4.24089 -6.33736e-20)
(-0.0536464 3.92971 0)
(1.41026 4.18563 0)
(1.20945 4.58044 -1.2981e-18)
(1.22477 4.48827 0)
(1.57404 4.48715 1.48451e-18)
(1.59331 4.12118 0)
(1.5017 4.37154 -6.06584e-19)
(1.01139 2.2425 -3.39475e-20)
(0.70911 1.64531 -1.74463e-18)
(0.590636 1.22743 2.12861e-18)
(0.70868 1.83486 3.96804e-19)
(0.974969 2.42401 0)
(1.03634 2.3791 0)
(0.718326 1.68724 0)
(0.532295 1.33004 -1.3952e-18)
(1.20873 3.77474 -9.83464e-19)
(1.12875 2.98877 -2.35498e-19)
(1.32687 3.40481 1.92597e-19)
(0.599232 2.04076 0)
(0.620174 1.94252 0)
(0.462203 1.57105 -3.92711e-19)
(0.957609 2.72031 0)
(2.68717 3.57098 0)
(2.38122 3.0085 -1.45459e-18)
(2.54586 3.02688 -8.58765e-20)
(2.41971 3.40429 0)
(2.28561 3.14931 2.22114e-18)
(3.27802 3.0868 -3.8971e-19)
(3.13407 3.32501 0)
(3.11646 3.15137 6.30463e-19)
(2.87046 3.41268 0)
(2.88196 3.20076 0)
(1.20917 2.00616 -9.30428e-19)
(1.41395 2.40316 -6.99532e-19)
(1.75347 2.9816 1.206e-18)
(1.69565 2.9596 -3.62249e-19)
(1.06233 1.82209 0)
(1.20676 2.20832 4.71113e-19)
(0.718377 1.28861 -7.15207e-19)
(0.581587 1.0434 -5.60906e-22)
(1.9372 3.69556 0)
(2.19903 3.74289 -5.42616e-19)
(2.33824 3.98623 0)
(2.28409 0.529021 0)
(1.61736 0.341912 0)
(1.20903 0.276589 0)
(2.20914 0.554269 -1.46525e-18)
(1.63529 0.402199 8.17242e-19)
(2.14562 0.129124 -9.85164e-19)
(2.62661 0.297532 0)
(2.46567 0.301649 4.13487e-19)
(1.76988 0.13572 1.63299e-18)
(1.53026 0.0812684 -1.03704e-18)
(0.745518 1.55586 8.58042e-19)
(0.959745 1.82033 0)
(0.537634 1.43999 1.56087e-18)
(0.523828 1.61479 -1.42523e-18)
(0.757149 1.81444 -9.8834e-19)
(2.07333 2.46258 1.3377e-18)
(2.09667 2.71198 0)
(1.58342 1.67806 -2.76345e-19)
(2.00963 1.98939 1.74506e-18)
(1.35981 1.29255 -4.23577e-19)
(1.58861 1.31341 4.50684e-19)
(2.10955 1.5132 1.02317e-18)
(2.44269 1.67095 0)
(2.27598 1.85607 0)
(2.00988 1.606 0)
(3.95681 2.07989 3.84505e-19)
(3.75981 1.88978 -1.26355e-18)
(3.81722 2.0281 1.04677e-18)
(3.90107 1.77149 -1.00832e-18)
(4.15788 1.67391 0)
(4.11696 1.84111 -2.97837e-19)
(2.84046 1.16333 -1.8973e-18)
(2.97082 1.16344 -2.413e-18)
(2.33197 1.04357 1.45642e-18)
(2.13825 0.934439 -1.41983e-18)
(2.46349 0.846179 -1.17811e-18)
(2.17856 0.776951 1.44883e-18)
(4.00845 0.0334771 -1.52889e-18)
(4.05276 0.0406912 3.13021e-18)
(3.76797 -0.0658796 1.9009e-18)
(3.79119 -0.0737703 -2.28678e-18)
(3.95955 0.0105758 0)
(4.05604 0.0228804 -3.72982e-18)
(0.0968133 4.7616 1.06556e-19)
(0.0676402 4.7321 0)
(0.189683 4.73157 9.53555e-19)
(0.211247 4.74927 -8.67511e-19)
(0.231149 4.71888 4.28468e-19)
(0.122157 4.65887 0)
(-0.100604 4.77137 0)
(-0.106422 4.40405 -6.18486e-20)
(-0.105352 4.33304 5.54365e-20)
(-0.11409 4.48222 7.17858e-21)
(-0.104771 4.72166 -1.01161e-19)
(-0.0818507 4.70929 5.50909e-20)
(1.87545 4.00962 -1.64327e-18)
(1.81641 4.01613 1.74021e-18)
(1.68406 4.40654 -8.54266e-19)
(1.69282 4.27734 7.6126e-20)
(2.25272 4.08653 0)
(1.8546 4.22006 -6.35524e-19)
(1.98183 3.95989 6.16365e-19)
(1.82394 4.381 8.3446e-19)
(2.07667 4.21935 0)
(2.22812 4.10033 0)
(1.13828 3.63078 1.49504e-18)
(0.826569 2.81124 2.02328e-18)
(0.954287 2.9896 -1.38958e-18)
(0.746501 2.97128 -2.31895e-19)
(0.902394 3.73037 4.66306e-19)
(0.722081 3.36289 -1.13401e-18)
(0.745672 1.46559 -1.21474e-18)
(0.746144 1.31679 0)
(0.602491 1.11438 -1.33518e-18)
(1.1108 2.0638 0)
(1.08777 2.15074 0)
(1.35844 2.19071 -1.09055e-18)
(1.06436 2.01406 -1.03597e-18)
(1.01672 2.03495 1.09865e-18)
(1.03099 1.51909 0)
(1.4102 1.76166 -6.01205e-19)
(1.62711 2.11886 -8.55416e-19)
(1.41065 2.08246 0)
(0.867707 1.81832 7.1243e-19)
(0.779621 1.6794 0)
(2.90591 2.28882 -1.84707e-18)
(3.3188 2.47055 2.6093e-18)
(3.2775 2.19305 -2.59339e-18)
(2.61018 2.02078 -2.31178e-19)
(2.72478 1.94026 -9.74153e-19)
(1.26173 2.1896 7.96136e-19)
(1.31586 2.24442 -1.35986e-18)
(1.4539 2.32937 1.79272e-18)
(1.7901 2.55936 -1.16519e-18)
(1.88868 2.93208 -1.56717e-18)
(1.56294 2.48844 -1.18798e-19)
(1.63268 2.62797 1.37121e-18)
(1.80978 2.69283 9.66135e-20)
(2.01766 2.99855 6.49978e-19)
)
;

boundaryField
{
    wall-4
    {
        type            noSlip;
    }
    velocity-inlet-5
    {
        type            fixedValue;
        value           uniform (3 0 0);
    }
    velocity-inlet-6
    {
        type            fixedValue;
        value           uniform (0 1 0);
    }
    pressure-outlet-7
    {
        type            zeroGradient;
    }
    wall-8
    {
        type            noSlip;
    }
    frontAndBackPlanes
    {
        type            empty;
    }
}


// ************************************************************************* //
