/*--------------------------------*- C++ -*----------------------------------*\
  =========                 |
  \\      /  F ield         | OpenFOAM: The Open Source CFD Toolbox
   \\    /   O peration     | Website:  https://openfoam.org
    \\  /    A nd           | Version:  9
     \\/     M anipulation  |
\*---------------------------------------------------------------------------*/
FoamFile
{
    format      ascii;
    class       surfaceScalarField;
    location    "14.45";
    object      phi;
}
// * * * * * * * * * * * * * * * * * * * * * * * * * * * * * * * * * * * * * //

dimensions      [0 3 -1 0 0 0 0];

internalField   nonuniform List<scalar> 
1300
(
11.2529
1.87548
-4.32715
11.2529
-4.89115
1.87548
-4.19359
4.19359
-1.19872
1.19872
5.71232
5.54054
-2.38553
2.38553
-2.86169
2.86169
-2.86336
2.86336
-1.06194
1.06194
-1.02828
1.02828
0.6965
-0.6965
-3.35581
3.35581
-1.46299
1.46299
-2.8971
2.8971
6.12817
-6.12817
-3.3289
3.3289
-0.751439
0.751439
-4.26323
15.5161
6.98962
6.98962
-2.3762
2.3762
-1.25449
1.25449
1.41034
-1.41034
9.33127
-9.33127
-5.00411
-6.031
1.86739
-13.767
-3.02377
-3.02377
-2.7054
2.7054
-0.829928
1.04555
3.47598
-3.47598
-0.767923
0.767923
-4.27258
0.078995
-4.27258
3.98553
0.208059
3.98553
-1.33996
0.141239
-1.33996
4.63002
-4.63002
1.08756
0.111163
1.08756
3.92785
-3.92785
-5.71004
11.4224
5.54282
-5.32062
20.8367
-5.93224
11.4728
-3.92319
3.92319
-2.29737
-0.0881627
-2.29737
2.39422
-0.00868519
2.39422
-3.9737
3.9737
-2.64333
-0.218354
-2.64333
2.97221
-0.110518
2.97221
3.6631
-3.6631
-2.91862
0.0552559
-2.91862
2.71215
0.151211
2.71215
0.771042
1.10443
-2.64652
3.69207
-1.10443
0.0424987
1.02614
0.0357986
1.02614
-1.01454
-0.01374
-1.01454
1.0499
-0.0216238
1.0499
0.736022
-0.0395218
0.736022
-0.756387
0.0598867
-0.756387
-8.53237
-8.94336
-3.48512
0.129315
-3.48512
-1.47989
0.0169046
-1.47989
1.50053
-0.0375366
1.50053
-2.5597
2.5597
-3.22846
0.331357
-3.22846
4.8065
1.32167
4.8065
5.04613
6.20673
16.299
-16.299
10.1708
-3.04013
-0.288773
-3.04013
-3.5099
-5.82136
3.5099
-0.181
-0.814632
0.0631932
-0.814632
5.62651
1.36312
5.62651
2.59079
0.121355
-2.59079
0.214597
4.61368
-4.61368
1.4264
0.949802
1.4264
-1.19135
1.19135
1.12357
-0.0736686
-1.12357
-0.130922
1.38601
0.0243342
1.38601
-1.40975
-0.000595434
-1.40975
7.40708
-13.4381
-7.88439
3.16606
0.189749
-3.16606
0.142294
3.56232
-0.086337
3.56232
-3.3105
3.3105
-3.61038
0.134397
-3.61038
-0.691364
-0.0765584
-0.691364
0.854519
-0.086596
0.854519
-4.51824
0.245654
-4.51824
-3.65953
0.431072
3.65953
0.325996
1.27054
-1.27054
-1.44662
0.10666
-1.44662
-4.60562
0.0873794
4.60562
0.0243987
-4.73087
0.100857
-4.73087
-3.71212
0.101736
3.71212
0.215731
4.58919
1.03732
-4.58919
0.661344
-5.3695
11.5762
-5.88336
11.4262
-3.54883
-0.374366
-3.54883
4.10509
-0.1819
4.10509
2.56817
0.328933
-2.56817
0.270801
2.52765
-0.133429
2.52765
-3.93019
-0.0435151
-3.93019
3.77124
0.202468
3.77124
2.57427
-0.0466237
-2.57427
-0.0690628
2.95604
0.0161651
2.95604
3.668
-0.00490252
3.668
-3.5371
-0.126002
-3.5371
3.18046
-3.18046
3.08256
0.0979019
-3.08256
0.163947
-5.07402
5.07343
-0.00799934
-5.06602
1.01814
1.01814
0.778286
-0.0422639
0.778286
-0.861982
0.105595
-0.861982
8.35164
-16.236
8.82019
-17.3526
7.44741
-21.2144
7.9853
-16.9287
3.77592
-3.77592
3.70443
0.0714959
-3.70443
0.219305
-1.46066
-0.0192369
-1.46066
-2.32063
-0.239072
-2.32063
2.89508
-0.335382
2.89508
-3.74251
3.74251
-4.12503
0.38252
4.12503
0.681466
3.02254
-0.0665022
-3.02254
-0.017589
0.934936
0.152621
-0.934936
0.120304
4.84552
-0.231846
4.84552
-4.07636
-0.53732
-4.07636
-1.47863
0.0179775
1.47863
-0.0522391
-1.25888
0.0675277
-1.25888
-5.0745
0.00847752
-5.0387
-1.40127
-1.40127
1.30414
4.9962
-3.58388
0.0467803
3.58388
-0.0215544
3.52764
0.214867
-3.52764
0.217142
-3.26442
0.0839555
3.26442
0.0460817
-0.668413
-0.0229513
-0.668413
-1.05014
1.05014
-0.931294
-0.118842
0.931294
-0.0767753
1.42797
-0.157437
1.42797
1.4795
0.0210255
-1.4795
0.0328812
-4.97674
0.245871
-4.97674
4.10715
-0.00205729
4.10715
-3.94284
-0.133518
3.94284
-0.274838
-0.0037223
5.07715
-1.01442
-0.000123364
1.01442
-5.10148
5.10136
-0.673608
0.00519535
0.673608
0.104678
1.02945
0.161906
-1.02945
0.167466
3.80479
-0.0335582
-3.80479
0.0288702
-2.0361
-0.28453
-2.0361
-3.22094
-0.327889
3.22094
-0.325855
-5.11514
-0.0779866
5.19312
-5.13676
1.33687
0.0491379
-1.33687
5.1505
-1.16161
-0.108924
1.16161
-0.111476
1.6298
-0.20183
1.6298
5.09457
-0.249046
-5.09457
0.117826
-4.11171
0.181517
4.11171
-0.00455744
-1.80264
-0.233459
1.80264
-0.172837
-13.128
14.4911
7.70873
-6.3785
-7.05958
-12.1999
4.44719
7.12904
14.618
-11.602
-9.61247
-11.4597
2.86035
-2.69288
-3.75118
3.71166
23.4614
-23.3605
-18.3996
19.0811
20.7764
-20.5607
5.70871
5.71365
15.8144
-15.9026
-21.0224
20.6481
15.5316
-15.7499
21.9764
-22.0199
-25.625
25.5914
-16.105
16.1603
-20.285
20.159
-21.0402
20.7654
-8.28194
-9.07062
16.277
-16.1477
20.3366
-20.6253
-19.2244
19.5557
10.0474
4.44373
11.0847
-6.2468
11.9555
-5.22598
12.9347
8.38011
-16.6621
7.85592
-14.9155
9.26546
11.0711
-9.08446
-3.1154
-17.9671
17.8807
-17.26
17.3061
23.8907
-23.8117
-6.17276
11.8864
-5.25341
12.3825
-11.4091
-6.99054
10.0874
4.53062
8.83007
7.44695
-9.01982
-2.43984
-24.7397
24.4907
-25.6262
25.0889
0.0977474
2.42733
-2.52508
1.35224
-0.859639
3.28697
2.00071
2.1063
2.4525
-2.29059
0.240386
-2.76547
-2.89639
-5.39035
5.49701
5.21614
-5.10497
16.4173
7.04408
16.4417
-16.6715
-6.68898
-16.4257
11.3643
7.71682
11.7468
12.0607
8.71568
12.1625
10.3593
-10.3315
-0.0277937
-11.4774
21.8367
1.55491
-18.468
-13.9374
8.85784
6.95656
8.84915
-9.84761
-6.05494
-9.57681
-11.1141
-9.90832
-11.442
12.383
8.26503
12.2011
-15.3213
15.3167
9.40646
6.12512
9.29594
-9.03843
-6.7115
-9.10749
27.3713
-6.5787
-20.7926
-13.1082
-12.5168
12.9057
9.07066
14.1959
11.3955
14.2248
8.83064
18.5407
-17.9013
5.38451
-9.95259
-6.15244
-9.78864
9.26863
6.89165
9.41984
-11.7629
-8.52214
-11.7161
-11.9794
-9.06084
11.9843
8.17475
-12.5205
-13.1057
12.654
8.11135
7.79959
-17.4121
9.12907
-18.1997
-10.8144
-5.33335
-10.5951
10.8316
6.59136
-17.423
-5.83042
23.8613
-12.7902
20.7459
-11.0951
-9.53025
-11.1127
-14.652
-4.57236
-14.2209
-8.09768
7.81315
-8.92875
8.59337
26.9522
-16.2038
-10.7484
-12.3781
-8.18257
11.7168
-0.632067
-12.836
12.8082
-0.880444
12.0543
16.498
15.8659
-10.8815
-6.37854
-10.6644
10.2733
7.03284
10.3572
15.938
7.95275
16.1461
-16.6486
-7.16314
-16.4029
4.91166
-4.98822
5.73218
-5.7142
15.5478
9.5411
-15.3159
-9.42375
22.9624
-10.7828
-12.1796
-5.12913
5.24912
-0.119983
-1.84216
-0.489919
0.26152
-1.9373
-1.81389
1.87741
0.228895
5.47801
3.66413
-2.41421
2.48174
2.77891
2.70524
-0.19115
2.53189
-2.5267
19.0433
-11.5278
-7.51556
13.8389
-13.7515
-2.56409
-19.2328
16.6687
2.6902
3.04832
-2.98512
-3.97852
-1.41183
-3.94564
2.99096
2.22517
3.14359
2.12039
3.37662
-8.17969
1.58711
6.59258
-6.0593
-3.51786
-13.3521
-6.32688
19.679
16.6167
7.87398
-16.7345
0.308843
5.3225
-5.36004
-1.56031
-11.7918
8.4358
-9.99611
-15.26
-6.43755
21.6975
-9.58144
-1.08292
9.36657
2.3802
-10.8761
-7.09099
10.7417
1.42078
-12.0638
23.9717
-11.9078
-18.4424
8.51632
13.3204
16.2331
-17.8629
9.31813
8.54472
-4.54244
7.46229
1.38686
7.32886
-19.828
13.7731
11.247
8.30871
-11.5759
1.99912
-17.8289
25.1238
-22.1936
-2.93017
12.8436
12.2802
13.599
13.3532
-7.87863
21.4776
-3.54274
-18.6509
21.3717
-13.0629
15.6898
-28.7527
-29.043
10.3921
-18.0277
22.0497
-4.022
-5.17192
-10.1494
23.1996
-2.0497
-21.1499
10.1514
-13.9718
-11.8384
25.8101
-20.5505
18.5499
-6.33541
-12.2144
-12.6467
-9.37325
12.4651
2.8516
-25.7303
31.1148
-7.18968
7.93441
1.36153
7.95058
10.6428
-15.9074
5.26457
9.90768
-16.2431
6.84055
-22.7479
-12.086
24.0133
-11.9273
-17.4193
-15.687
-1.73228
4.80769
26.3072
-16.2032
11.9858
4.21741
8.46563
1.8916
-8.56353
-1.22511
0.974058
16.1016
-17.0757
10.3939
10.5153
11.7286
4.37309
10.7674
7.11332
-10.7458
-0.97025
-14.7867
5.72585
-6.61194
-14.5617
20.2875
-16.2659
1.70421
-10.3021
-13.9972
24.2993
-16.4546
11.4283
12.5434
18.4611
-19.6154
5.61827
-9.75008
-9.86536
10.6476
-17.2596
7.489
12.7985
15.6004
2.49463
12.7063
11.307
-19.2976
1.09794
18.754
-16.3141
3.88201
10.3428
-15.8678
0.180803
-10.4142
2.62327
-15.4135
-14.7997
16.412
-20.9844
-12.3407
13.4223
2.72376
-13.7483
-0.472634
-5.02505
-3.07263
-5.25851
-3.30962
-5.61913
-11.1882
-1.95495
-9.2333
5.8582
-6.76279
-4.6792
7.08865
1.50472
-5.01344
4.90452
-5.66595
5.46412
-0.2105
13.0187
15.6554
7.47285
-8.47622
15.9491
-15.5325
23.4853
-29.6389
14.1064
15.8988
-23.062
-13.7401
2.7417
2.16997
2.6551
13.5995
-14.5639
0.964418
-13.4232
17.7553
-4.33203
-19.8124
6.38919
-6.21294
5.20784
0.524343
5.1886
1.42386
6.859
-8.28287
-4.29034
-4.34258
-9.1477
-13.8538
23.0015
4.76871
-13.1151
8.34643
-12.0977
16.8665
0.10136
-13.2165
17.0268
-10.1678
17.5512
-11.9964
5.55481
12.7945
22.3642
-9.56966
16.2331
-6.692
7.04442
-16.6141
-6.80935
-11.2969
18.1885
-13.0024
14.7066
-1.11282
15.8194
-13.797
3.01426
-2.06847
8.44679
8.66138
16.8104
-12.4373
11.9833
-18.6753
-4.63077
-16.1807
-3.38215
1.04387
-13.8935
12.8497
12.1703
-11.1264
-3.28097
9.10204
-5.82107
5.76025
-2.88127
-2.87898
-1.87227
-3.11595
1.89522
0.636669
6.39692
0.497906
-3.37918
-2.02879
-1.92411
10.4223
8.62107
-3.88846
3.76847
3.62694
-0.578619
0.968875
2.17471
4.64935
-3.68048
0.690109
3.95924
-2.29501
3.85359
1.46891
-3.87461
-0.0710289
-3.41822
11.854
3.17436
-5.39953
1.71906
2.35895
-13.8867
19.7238
-11.4219
-8.3019
22.0828
3.02756
-14.4495
16.2052
-13.515
8.06104
-14.3879
-6.38843
-19.9035
-12.8594
-10.7327
19.0792
-12.2687
20.1427
3.81918
-20.4516
24.2707
-12.7695
6.33199
-9.49719
10.9661
-4.09691
-5.40028
11.3044
10.3931
-11.0642
-0.72759
0.240178
8.47581
-8.23563
-1.5203
-7.57961
-16.4078
17.8285
-8.25699
17.5751
7.69208
-7.63278
25.2079
6.56622
-14.199
-11.8761
-12.9591
-5.65429
10.5789
-1.82974
-7.27775
-14.0442
7.32438
0.00448025
-19.0143
22.0554
-3.04104
-12.0578
-1.71531
14.5589
-18.1261
1.88296
-11.2855
10.7699
12.1567
12.1612
-20.8978
-0.252147
-12.6327
3.224
-15.8567
15.5042
-6.8602
17.2523
-16.1221
11.4429
-14.6174
14.3221
-1.53459
14.6821
-9.41757
6.11046
-15.4837
-12.6321
14.5523
-8.42718
15.9138
-10.1933
26.1071
-17.3829
14.5743
11.5328
-2.77471
-8.33798
-14.1204
11.3457
0.453903
8.40448
17.8338
-10.7205
16.8636
8.91814
-18.6682
-8.34143
-25.8606
7.19233
-13.3171
-7.35507
14.5474
11.106
12.9976
4.68204
-11.7725
17.7366
-19.4689
-5.80927
-8.99046
14.7308
-3.38507
10.2129
-19.2034
-5.20053
13.1468
-0.204024
-12.9427
3.05705
-15.3977
5.13091
-20.5287
15.8534
-16.3261
1.79865
-8.01159
-3.21479
-3.32627
-2.20339
-3.46257
-7.6737
5.47032
-1.28451
3.62
-12.6271
12.423
-5.12818
10.5985
-4.11926
-1.13925
4.29209
1.17203
11.7705
3.04567
-16.7857
-9.32598
14.7212
-5.39527
1.09628
-10.8478
3.8734
8.05937
14.0234
-24.7281
1.66608
-15.1197
-4.1304
6.30036
4.97164
17.1419
2.57801
6.64689
-0.346527
9.2249
2.30857
2.2318
-11.2734
12.2378
1.57622
15.6826
-1.88643
7.44124
3.30217
3.31907
2.04096
5.73397
2.92741
8.74823
0.465361
-3.87721
2.08673
-4.01084
-1.29245
-4.05311
-0.341445
3.7582
-4.09964
10.5929
-1.97178
5.19758
-1.93088
-4.99766
6.92854
-9.44644
-5.57628
-1.61704
-5.67264
7.3917
6.18138
-5.77466
-3.67178
2.42338
-15.2828
11.9645
-12.6921
-2.29899
21.9717
-9.51507
1.27944
-3.18308
-6.30017
-7.712
7.78303
24.1904
1.01747
12.2826
18.846
11.755
1.03454
12.0646
-16.0866
-10.6833
-16.3387
-0.834552
13.7244
5.66436
20.6428
17.1971
13.8121
-5.39135
-24.8602
20.7652
-8.5274
16.4332
-3.49049
-17.0382
14.5501
8.9352
-17.2738
0.947771
-16.0904
-24.6178
-0.353084
12.7761
-11.4174
10.2782
7.20557
2.02773
-2.46218
-0.864085
2.58102
-0.349227
8.87568
-0.17923
-8.28971
8.46894
-3.57897
2.28652
-0.468871
4.23734
6.45967
4.48789
-3.80183
-7.90147
-8.8726
-5.01411
-17.1745
2.50451
-8.68589
5.75206
-3.46554
2.87309
5.0034
10.201
-1.60959
-9.51681
7.43066
-4.55758
5.6434
)
;

boundaryField
{
    wall-4
    {
        type            calculated;
        value           uniform 0;
    }
    velocity-inlet-5
    {
        type            calculated;
        value           uniform -11.2529;
    }
    velocity-inlet-6
    {
        type            calculated;
        value           uniform -1.87548;
    }
    pressure-outlet-7
    {
        type            calculated;
        value           nonuniform List<scalar> 8(4.32715 4.89115 11.0351 11.8996 17.4757 15.2915 17.1718 15.4327);
    }
    wall-8
    {
        type            calculated;
        value           uniform 0;
    }
    frontAndBackPlanes
    {
        type            empty;
        value           nonuniform List<scalar> 0();
    }
}


// ************************************************************************* //
