/*--------------------------------*- C++ -*----------------------------------*\
  =========                 |
  \\      /  F ield         | OpenFOAM: The Open Source CFD Toolbox
   \\    /   O peration     | Website:  https://openfoam.org
    \\  /    A nd           | Version:  9
     \\/     M anipulation  |
\*---------------------------------------------------------------------------*/
FoamFile
{
    format      ascii;
    class       volScalarField;
    location    "9.78";
    object      p_rgh;
}
// * * * * * * * * * * * * * * * * * * * * * * * * * * * * * * * * * * * * * //

dimensions      [1 -1 -2 0 0 0 0];

internalField   nonuniform List<scalar> 
2268
(
753.612
753.747
754.021
754.433
754.97
755.623
756.379
757.227
758.154
759.135
760.154
761.193
762.233
763.249
764.217
765.121
765.948
766.697
767.35
767.843
768.412
768.774
768.961
753.583
753.718
753.991
754.399
754.939
755.592
756.35
757.199
758.13
759.116
760.138
761.179
762.219
763.234
764.206
765.124
765.976
766.753
767.384
767.921
768.482
768.802
768.982
753.523
753.659
753.933
754.345
754.886
755.542
756.304
757.158
758.095
759.09
760.119
761.166
762.212
763.234
764.215
765.149
766.027
766.829
767.415
767.98
768.567
768.861
769.045
753.431
753.569
753.845
754.261
754.808
755.47
756.24
757.104
758.046
759.058
760.096
761.154
762.214
763.251
764.249
765.195
766.091
766.912
767.596
768.031
768.657
768.957
769.128
753.308
753.446
753.726
754.149
754.706
755.375
756.157
757.034
757.991
759.014
760.07
761.145
762.227
763.284
764.308
765.243
766.116
766.971
767.829
768.201
768.809
769.014
769.237
753.151
753.291
753.576
754.007
754.578
755.255
756.055
756.949
757.924
758.963
760.04
761.138
762.243
763.331
764.389
765.314
766.037
767.071
767.943
768.683
769.009
768.217
769.411
752.962
753.102
753.392
753.833
754.426
755.109
755.933
756.848
757.844
758.905
760.007
761.131
762.264
763.389
764.491
765.569
765.107
765.209
768.094
768.847
767.899
767.702
769.603
752.735
752.88
753.177
753.627
754.202
754.937
755.796
756.732
757.752
758.841
759.97
761.122
762.289
763.457
764.611
765.76
764.195
763.895
765.889
768.438
766.959
767.855
770.165
767.237
766.929
766.763
766.219
765.489
764.569
763.45
762.257
761.086
759.902
758.578
757.354
756.653
756.054
755.41
754.855
754.359
754.061
754
767.289
766.928
766.725
766.183
765.459
764.543
763.534
762.458
761.312
760.157
758.857
757.365
756.414
756.063
755.402
754.857
754.332
753.88
753.897
767.348
766.764
766.756
766.193
765.459
764.545
763.531
762.455
761.321
760.206
759.119
757.312
756.292
755.78
755.406
754.803
754.027
753.724
753.646
767.229
766.567
766.884
766.275
765.51
764.574
763.53
762.436
761.27
760.17
759.198
757.788
756.172
755.886
755.394
754.818
754.187
753.729
754.023
765.916
766.991
767.107
766.418
765.604
764.629
763.595
762.491
761.23
760.149
759.183
758.592
757.524
756.471
755.099
754.71
754.319
754.03
753.928
766.089
767.384
767.394
766.603
765.731
764.751
763.694
762.52
761.283
760.226
759.244
758.491
757.594
756.506
754.731
752.687
752.427
753.821
753.768
766.514
768.258
767.703
766.817
765.887
764.861
763.778
762.394
760.987
760.191
759.19
758.401
757.466
756.399
753.636
752.025
751.413
752.685
753.647
769.415
768.91
767.994
767.044
766.06
764.985
763.888
762.063
758.473
758.351
759.116
758.306
757.336
754.863
753.081
753.979
751.124
752.198
753.521
752.353
752.505
752.816
753.29
753.911
754.678
755.571
756.53
757.59
758.728
759.903
761.104
762.33
763.574
764.822
766.082
767.339
766.092
764.749
765.44
768.496
770.777
770.852
730.991
730.699
731.327
732.915
735.131
737.316
739.6
742.216
744.522
746.736
748.785
750.639
752.995
755.89
759.332
763.539
767.907
769.126
770.127
770.823
771.248
771.479
771.556
234.665
235.975
237.819
239.707
242.21
245.831
250.44
255.848
262.442
270.002
278.206
286.761
294.962
302.624
309.649
316.203
323.721
333.898
341.954
346.892
349.375
350.329
351.423
0.510368
0.453206
0.364883
0.46952
0.550989
0.558319
0.525977
0.506834
0.491031
0.476506
0.474065
0.470896
0.466948
0.461327
0.537719
0.752065
0.903415
0.432486
0.348201
0.323203
0.3287
0.331809
0.313308
0.638458
0.638467
0.35082
0.824125
1.31021
1.34963
1.35168
1.56607
1.67506
1.67638
1.67652
1.66977
1.66022
1.59283
1.57305
1.5699
1.50856
1.07125
0.454647
0.468407
0.567961
0.557847
0.396189
0.249774
0.278181
0.303773
0.222701
0.0127822
0.0110178
0.0154493
0.00740455
0.00554646
0.00466721
0.00427148
0.00437492
0.00400977
0.0140847
0.0190664
0.0163159
0.0157906
0.187777
0.28795
0.264289
0.288043
0.2955
0.153671
0.00908787
0.00853586
0.0196174
0.00778128
0.00837881
0.00794224
0.00722348
0.00570213
0.00475693
0.00411093
0.00728986
0.0470327
0.0536975
0.0527175
0.0514134
0.00931845
-0.00261546
-0.00235039
0.00662016
-0.00300508
0.00323316
0.0463053
0.0668441
0.00801561
0.00758008
0.00774356
0.00751445
0.00836975
0.00807893
0.00639672
0.00594346
0.00563319
0.00411891
0.00465145
0.01576
0.0224619
0.0124932
0.00686125
0.00809555
-0.00253151
-0.00340847
-0.00361846
-0.00374347
-0.00427182
-0.00430092
-0.00211643
0.0071318
0.00685238
0.00674809
0.00688035
0.00887193
0.00846399
0.00733873
0.00709074
0.00760216
0.00671315
0.00201419
0.000411469
-0.000621362
-0.00124422
0.00299466
0.00815075
-0.00240254
-0.00289769
-0.00317318
-0.00336078
-0.00358951
-0.00348006
-0.00189328
0.00633111
0.00613033
0.00596185
0.00582705
0.00778138
0.0077986
0.00691699
0.00646653
0.00735516
0.00633067
0.00145352
0.000533987
-0.00017932
-0.000811139
-0.000987929
-0.000821807
-0.00128391
-0.00252652
-0.0028072
-0.00302321
-0.0032088
-0.00175443
0.026009
0.0056185
0.00546519
0.00528949
0.0050131
0.00550893
0.00639116
0.00435111
0.00509189
0.00721069
0.00425206
0.00125789
0.000545575
0.00108301
0.00294214
0.00119076
-0.00143256
-0.00184071
-0.00222562
-0.00252665
-0.00280098
-0.00306716
-0.00109475
0.0298771
0.00498863
0.00486839
0.00470308
0.00444983
0.00413013
0.00381559
0.00340257
0.00393173
0.00715473
0.0024652
0.00109028
0.000494644
0.0012427
0.00973366
0.00961792
0.00275567
-0.00162286
-0.0020072
-0.00231407
-0.0026146
-0.00295053
-0.00327009
-0.00247887
0.00443197
0.00446655
0.00433817
0.00395553
0.00366535
0.00332912
0.00304632
0.00488356
0.00503583
0.00144
0.000943616
0.000414479
0.000638208
0.00878658
0.0101754
0.00993637
0.00169748
-0.0018615
-0.00215821
-0.00243687
-0.00275841
-0.00315595
-0.00364769
0.00393615
0.00405534
0.00392364
0.00353122
0.00325486
0.0030013
0.00449065
0.00516896
0.00355288
0.00127039
0.000822414
0.000345281
-0.000167572
5.39185e-05
0.00794006
0.0104653
0.00579261
-0.00176519
-0.00199869
-0.00224712
-0.00250957
-0.00280455
-0.00312152
0.00348605
0.00363497
0.00351868
0.0031397
0.00288519
0.00309267
0.00544729
0.00506274
0.00250671
0.00112227
0.000725955
0.000305037
-0.00014045
-0.000583908
-0.000245303
0.000815328
0.000485219
-0.00150628
-0.00182916
-0.00203517
-0.00223872
-0.00246065
-0.00265199
0.00308305
0.00312769
0.00309464
0.00277974
0.00255657
0.00263678
0.00530975
0.00471489
0.00132156
0.000999012
0.000651643
0.000284752
-9.61775e-05
-0.000484151
-0.000850144
-0.00114364
-0.00133184
-0.00144471
-0.00163173
-0.00180251
-0.00197886
-0.00216137
-0.00231118
0.00273299
0.00269234
0.00260993
0.002462
0.00227173
0.00215403
0.00233937
0.00201872
0.00118536
0.000900142
0.000594501
0.000274995
-5.07613e-05
-0.000374578
-0.000678255
-0.000935526
-0.00113672
-0.00130107
-0.00145238
-0.00160408
-0.00175445
-0.00189169
-0.00199241
0.00243841
0.00240017
0.00231906
0.00219373
0.00203069
0.00184605
0.00156819
0.00131999
0.00107647
0.000820041
0.000549809
0.000270839
-9.8995e-06
-0.000285456
-0.000544433
-0.000772601
-0.000964553
-0.00112942
-0.00127997
-0.00141868
-0.00154269
-0.00164596
-0.00171954
0.0021946
0.00221551
0.00207356
0.00195948
0.00181816
0.00163968
0.00142127
0.00120441
0.000983
0.000752591
0.000513385
0.000269326
2.54465e-05
-0.000212491
-0.000436866
-0.000639561
-0.000817023
-0.000972612
-0.00111183
-0.00123569
-0.00134224
-0.00142749
-0.00148542
0.00253431
0.00256617
0.00186233
0.00175285
0.0016252
0.00146495
0.00128528
0.00109601
0.000898872
0.000693863
0.000482724
0.000268663
5.5606e-05
-0.000151772
-0.000348093
-0.000528236
-0.000689524
-0.000832631
-0.000959438
-0.00107008
-0.00116304
-0.00123544
-0.00128332
0.00255033
0.0024181
0.00165622
0.0015646
0.00145237
0.00131417
0.00116182
0.000996816
0.000822881
0.000641835
0.000455894
0.000267898
8.11758e-05
-0.000100525
-0.000273218
-0.000433291
-0.000578504
-0.000708328
-0.000822953
-0.000921921
-0.00100391
-0.00106684
-0.00110803
0.00241926
0.00166924
0.00146323
0.00139483
0.0012988
0.00118219
0.00105078
0.00090708
0.000754457
0.000595258
0.000431804
0.00026669
0.000102778
-5.68711e-05
-0.000209158
-0.000351312
-0.000481357
-0.000598251
-0.000701409
-0.000790054
-0.000863008
-0.000918692
-0.00095528
0.00228626
0.00133348
0.00130557
0.00124715
0.00116457
0.00106519
0.000951496
0.000826498
0.000693029
0.000553431
0.000409962
0.000264985
0.00012098
-1.94991e-05
-0.000153941
-0.000280093
-0.000396186
-0.000500998
-0.000593621
-0.000673146
-0.000738517
-0.000788498
-0.000821789
0.00214052
0.00137543
0.0011734
0.00111805
0.00104695
0.000961245
0.000862962
0.000754442
0.000638018
0.000515858
0.000390078
0.00026282
0.000136256
1.2554e-05
-0.000106189
-0.000218076
-0.000321524
-0.000415294
-0.000498382
-0.00056986
-0.000628783
-0.000674156
-0.000705025
0.00203757
0.00202009
0.00105103
0.00100112
0.00094138
0.000868411
0.000784003
0.000690142
0.000588844
0.000482121
0.000371934
0.000260254
0.000148993
4.00207e-05
-6.48804e-05
-0.000164082
-0.000256174
-0.000339984
-0.000414521
-0.000478902
-0.000532292
-0.000573873
-0.00060293
0.00196565
0.00195716
0.000935262
0.000894111
0.000846308
0.00078571
0.000713723
0.000632932
0.00054499
0.000451858
0.000355342
0.000257334
0.000159508
6.3483e-05
-2.92051e-05
-0.000117148
-0.000199101
-0.000273993
-0.000340906
-0.000399031
-0.000447641
-0.000486057
-0.000513738
0.00189808
0.0017701
0.000825811
0.000798862
0.000762259
0.000712623
0.000651897
0.000582387
0.00050604
0.000424799
0.000340083
0.000254077
0.000168051
8.34161e-05
1.50738e-06
-7.64542e-05
-0.000149381
-0.000216321
-0.000276452
-0.000329058
-0.000373513
-0.000409255
-0.000435873
0.00180034
0.000901374
0.000732223
0.000717957
0.000690289
0.000649482
0.000597984
0.000538014
0.000471651
0.000400876
0.000325764
0.000250478
0.000174827
0.000100211
2.7821e-05
-4.12903e-05
-0.000106185
-0.000166039
-0.000220137
-0.000267861
-0.000308681
-0.000342135
-0.000367907
0.000845491
0.000650181
0.000661776
0.000653115
0.000630744
0.000596095
0.00055165
0.000499351
0.000441132
0.000378685
0.000313252
0.000246717
0.000180008
0.000114182
5.02054e-05
-1.10447e-05
-6.87792e-05
-0.000122305
-0.000171019
-0.000214403
-0.000252016
-0.00028348
-0.00030855
0.000589327
0.000614066
0.000611198
0.000601837
0.000582067
0.000551513
0.000512167
0.000465797
0.000414179
0.000358881
0.000301215
0.000242465
0.000183616
0.000125544
6.9036e-05
1.47977e-05
-3.65229e-05
-8.4368e-05
-0.000128247
-0.000167741
-0.000202493
-0.000232195
-0.000256653
0.000531797
0.00056407
0.000564119
0.000558691
0.000541856
0.000514266
0.000478486
0.000436514
0.00039011
0.000340729
0.000289542
0.000237564
0.000185628
0.000134437
8.46008e-05
3.66681e-05
-8.86642e-06
-5.157e-05
-9.10662e-05
-0.000127033
-0.000159193
-0.000187303
-0.0002112
0.000510333
0.00049958
0.000519635
0.000522592
0.000509147
0.000483302
0.000449507
0.000410501
0.000368088
0.000323548
0.000277851
0.000231776
0.000185966
0.000140936
9.71182e-05
5.49053e-05
1.46489e-05
-2.33446e-05
-5.88124e-05
-9.15303e-05
-0.000121302
-0.000147943
-0.0001713
0.000458735
0.000469982
0.000490091
0.000497026
0.000484599
0.000457924
0.000424067
0.000386596
0.000347117
0.000306571
0.000265621
0.000224785
0.000184489
0.00014505
0.00010673
6.97744e-05
3.43992e-05
7.87772e-07
-3.091e-05
-6.05722e-05
-8.80889e-05
-0.000113335
-0.00013617
0.000416982
0.000443148
0.000469149
0.000484059
0.000468224
0.000436718
0.000400391
0.00036322
0.000325968
0.000288901
0.000252245
0.000216214
0.000180999
0.000146731
0.000113516
8.14671e-05
5.06804e-05
2.12241e-05
-6.86453e-06
-3.35745e-05
-5.88991e-05
-8.27899e-05
-0.000105119
0.000382758
0.00045989
0.000461002
0.0017732
0.000459578
0.000416198
0.000374923
0.000337929
0.000303064
0.000269517
0.000237072
0.000205661
0.000175281
0.000145901
0.000117508
9.01134e-05
6.37149e-05
3.82822e-05
1.37426e-05
-1.00184e-05
-3.31298e-05
-5.56637e-05
-7.75205e-05
0.000359012
0.000491497
0.00308142
0.00447346
0.00368937
0.00079434
0.000341848
0.000307725
0.000276728
0.000247463
0.000219548
0.000192819
0.000167179
0.000142507
0.000118733
9.5807e-05
7.36672e-05
5.22091e-05
3.12593e-05
1.05604e-05
-1.02078e-05
-3.13268e-05
-5.27904e-05
0.000370997
0.000411502
0.00453868
0.00452098
0.00449141
0.0012749
0.000298857
0.00027175
0.000246457
0.000222438
0.000199507
0.000177606
0.000156659
0.000136554
0.000117222
9.86071e-05
8.06307e-05
6.31538e-05
4.59263e-05
2.85391e-05
1.04091e-05
-9.12722e-06
-3.03562e-05
0.000389808
0.000430687
0.00259025
0.00456476
0.00396954
0.000778716
0.000251197
0.000232133
0.000213227
0.000194847
0.000177081
0.000160018
0.00014365
0.000127929
0.000112836
9.83498e-05
8.44242e-05
7.0941e-05
5.76273e-05
4.39568e-05
2.90429e-05
1.15558e-05
-9.69209e-06
0.000468473
0.000463693
0.000396477
0.00195729
0.000726099
0.00025802
0.000204612
0.000191355
0.000178169
0.000165133
0.000152343
0.000139921
0.000127901
0.000116312
0.000105192
9.45837e-05
8.45184e-05
7.4964e-05
6.57249e-05
5.62933e-05
4.55536e-05
3.11277e-05
9.53308e-06
0.000532468
0.000475369
0.000347001
0.000251815
0.000197099
0.000172622
0.000160913
0.000152363
0.000144319
0.000136245
0.000128126
0.000120039
0.000112054
0.000104256
9.67441e-05
8.96329e-05
8.30569e-05
7.71296e-05
7.18676e-05
6.70605e-05
6.15257e-05
5.08735e-05
2.86762e-05
0.000608188
0.000428947
0.000287754
0.000203586
0.000153322
0.000134288
0.000129162
0.000126533
0.000123627
0.000120173
0.000116281
0.000112052
0.000107597
0.000103039
9.85161e-05
9.42124e-05
9.03708e-05
8.72737e-05
8.52214e-05
8.47339e-05
8.55484e-05
7.81581e-05
5.59693e-05
0.000489086
6.30495e-05
0.000125253
0.000110191
9.91712e-05
9.78421e-05
9.9804e-05
0.000100895
0.000100901
0.000100283
9.92231e-05
9.77761e-05
9.5985e-05
9.39157e-05
9.16787e-05
8.94516e-05
8.75037e-05
8.61901e-05
8.59532e-05
8.83027e-05
0.000100008
0.000130711
9.8397e-05
771.351
771.329
771.204
770.967
771.822
771.82
771.694
771.443
352.532
352.337
351.367
349.627
0.318187
0.331335
0.350975
0.356679
0.322579
0.644816
0.71307
0.426469
0.118473
0.31824
0.444045
0.380679
0.0123222
0.00276464
-0.00461033
0.0120503
-0.00129446
-0.00276595
-0.00312596
-0.00292305
0.0241088
0.0302326
0.00318163
-0.000715635
0.0324997
0.0326113
0.0328669
0.0331185
0.0342167
0.0343627
0.0345218
0.0347078
0.0149063
0.0361631
0.0362106
0.0362941
-0.00401393
-0.00419574
-0.00423262
-0.00414571
-0.00330422
-0.00338873
-0.00340208
-0.00334813
-0.00273955
-0.00276603
-0.00262015
-0.00242633
-0.00236428
-0.00236825
-0.00196553
-0.00177249
-0.00202515
-0.00203345
-0.0020253
-0.00186599
-0.00174132
-0.00174558
-0.00173924
-0.00172291
-0.00150136
-0.00150369
-0.00149751
-0.00148327
-0.00129642
-0.0012981
-0.00129264
-0.00128057
-0.00111977
-0.00112154
-0.00111728
-0.0011075
-0.000966469
-0.000968768
-0.000966008
-0.000958635
-0.000832911
-0.000835962
-0.000834844
-0.000829885
-0.000716375
-0.000720277
-0.000720792
-0.000718125
-0.000614692
-0.000619453
-0.000621487
-0.000620892
-0.00052601
-0.000531586
-0.000534965
-0.000536173
-0.000448689
-0.000455004
-0.000459536
-0.000462272
-0.000381249
-0.000388215
-0.000393718
-0.000397733
-0.000322369
-0.000329896
-0.000336209
-0.00034129
-0.000270879
-0.000278882
-0.000285872
-0.000291844
-0.000225757
-0.00023416
-0.000241718
-0.00024844
-0.000186119
-0.000194856
-0.000202892
-0.000210252
-0.000151197
-0.000160216
-0.000168661
-0.000176569
-0.000120327
-0.000129596
-0.000138401
-0.000146787
-9.29311e-05
-0.00010245
-0.000111593
-0.000120408
-6.85126e-05
-7.8331e-05
-8.78246e-05
-9.70405e-05
-4.6658e-05
-5.69121e-05
-6.68227e-05
-7.64277e-05
-2.70853e-05
-3.80481e-05
-4.85078e-05
-5.84813e-05
-9.89123e-06
-2.19882e-05
-3.31247e-05
-4.33386e-05
4.10287e-06
-9.89393e-06
-2.14875e-05
-3.141e-05
1.34669e-05
-5.4457e-06
-1.64701e-05
-2.39239e-05
3.43802e-05
1.07205e-05
-1.35667e-06
-8.52699e-06
770.326
769.403
768.435
767.426
766.213
764.141
762.905
761.989
757.32
753.52
752.503
752.794
751.582
750.921
754.389
753.71
752.95
752.51
752.958
770.851
768.996
765.184
761.372
758.223
755.707
753.259
752.413
754.278
753.282
751.995
749.136
746.693
744.292
741.239
738.759
737.052
732.495
730.69
345.861
339.824
335.54
330.993
325.895
320.323
313.621
305.8
298.022
291.256
283.068
276.071
269.93
263.563
257.473
253.7
251.866
251.536
251.57
0.356998
0.779361
0.81188
0.811573
0.773016
0.519057
0.358979
0.292383
0.284633
0.278643
0.269065
0.257662
0.230866
0.283263
0.334325
0.412499
0.496986
0.562487
0.511092
0.357832
0.820243
0.824999
0.788161
0.804923
0.826135
0.837709
0.839489
0.838124
0.791968
0.675605
0.477411
0.235329
0.476423
0.571203
0.573039
0.573495
0.574002
0.506829
0.189052
0.190459
0.203863
0.18288
0.145434
0.115805
0.0912453
0.0731609
0.0267777
0.024182
0.0265423
0.0300912
0.105104
0.0909231
0.0832658
0.116459
0.131644
0.14137
0.185344
0.0275285
-0.00277363
-0.00194241
0.000131142
0.00346538
0.0125546
0.0151993
0.0151125
0.0169107
0.0307133
0.0457522
0.0616134
0.062521
0.0401992
0.0130483
0.0105326
0.0102123
0.0100751
0.0101929
-0.00189795
-0.0019641
-0.00134071
0.00357644
0.0377322
0.0494051
0.050299
0.0307027
0.0487579
0.0647128
0.0656635
0.0666433
0.067091
0.0522201
0.0116605
0.00926329
0.00921343
0.00923322
0.00938616
-0.00125091
-0.00167303
-0.00151202
0.0216509
0.0501629
0.0505776
0.0344333
0.0419675
0.0350221
0.0170049
0.0296072
0.0437521
0.0416884
0.0139155
0.00788042
0.00822389
0.00838833
0.00848475
0.0086498
0.0191513
-0.00168043
-0.00180876
0.00704932
0.0159404
0.00554601
-0.00076794
0.000248428
0.00086362
0.00177446
0.00242966
0.00318312
0.00624902
0.0123894
0.00697976
0.00746687
0.00771666
0.00783054
0.00792316
0.0350635
0.0219045
-0.00221559
-0.00226819
-0.00225276
-0.00167071
-0.000326367
0.00075011
0.00102929
0.00152748
0.00278902
0.0121083
0.0169191
0.00928698
0.00640347
0.00689306
0.00717126
0.00728568
0.0072589
0.022103
0.00667988
-0.00244891
-0.00214031
-0.0018781
-0.00088292
0.000137061
0.00077692
0.00078212
0.00128939
0.00447005
0.0167546
0.0175519
0.0149713
0.00591397
0.00642171
0.00672057
0.00681046
0.00666618
-0.00382724
-0.0030903
-0.00240645
-0.00199132
-0.00162436
-0.00116866
-0.000633195
-7.66094e-05
0.000504348
0.0010573
0.00154473
0.00886363
0.0178035
0.0186707
0.00795374
0.00599221
0.00633863
0.00639902
0.00614421
-0.00316614
-0.00269394
-0.00220198
-0.00180989
-0.00144584
-0.0010325
-0.000567647
-8.37614e-05
0.000402068
0.000864984
0.00127047
0.00162752
0.00957152
0.0149348
0.00905474
0.00968023
0.0150374
0.0133337
0.00841507
-0.00227328
-0.00211187
-0.00193126
-0.00162093
-0.00128099
-0.000910076
-0.000509928
-9.70446e-05
0.000313895
0.000705631
0.00106018
0.00137214
0.00168647
0.00214737
0.00828951
0.0270664
0.0272752
0.027262
0.0270252
-0.00169292
-0.00145053
-0.00125363
-0.00142515
-0.00113698
-0.000810542
-0.000451262
-8.78081e-05
0.000240649
0.000567094
0.000872975
0.00114912
0.00142232
0.00172228
0.00459705
0.0201742
0.0249526
0.0136771
0.00776839
-0.00148482
-0.00116354
-0.000930952
-0.000758433
-0.00101517
-0.000729072
-0.000334223
2.74059e-05
0.000235071
0.000449846
0.000704567
0.000939715
0.0011556
0.00135043
0.00145067
0.00139031
0.0014364
0.00162881
0.00150127
-0.00167921
-0.00131026
-0.000783844
-0.000743747
-0.000899132
-0.000658824
-0.000270127
1.22476e-05
0.000264893
0.000388985
0.00055527
0.000752875
0.000926448
0.0010705
0.00115634
0.00118288
0.00125646
0.00138128
0.00127977
-0.00144721
-0.00134133
-0.00119645
-0.00101921
-0.000817847
-0.000604212
-0.000312904
-1.9969e-06
0.000199558
0.00028743
0.000424041
0.000589253
0.000730893
0.000845155
0.000923564
0.000973738
0.00105085
0.00118772
0.00147483
-0.00125043
-0.00116483
-0.00104619
-0.00090069
-0.000736021
-0.000560553
-0.000379812
-0.000188757
-2.17031e-06
0.000153481
0.000309961
0.000446777
0.000562326
0.000654153
0.000720645
0.000770857
0.000833362
0.00105023
0.00609601
-0.00108288
-0.00101401
-0.000917465
-0.000798101
-0.000661904
-0.000515315
-0.000363373
-0.000210288
-6.02891e-05
8.1847e-05
0.000210884
0.000323165
0.00041633
0.000488714
0.000540415
0.000577575
0.000612916
0.000768166
0.00701871
-0.000939319
-0.000884499
-0.000806457
-0.00070903
-0.000596976
-0.000475422
-0.00034889
-0.000221446
-9.71062e-05
1.99636e-05
0.000125615
0.000216602
0.00029064
0.000346262
0.000383293
0.000404446
0.000415592
0.000412923
0.00706222
-0.000815606
-0.000772763
-0.000710372
-0.000631539
-0.000540111
-0.00044026
-0.000335954
-0.00023093
-0.000128819
-3.32113e-05
5.24823e-05
0.000125473
0.000183659
0.000225576
0.000250338
0.00025754
0.000248293
0.000236198
0.00714098
-0.00070849
-0.000675939
-0.000626907
-0.000563947
-0.000490217
-0.000409168
-0.00032423
-0.000238715
-0.000155815
-7.85734e-05
-9.77335e-06
4.83102e-05
9.39329e-05
0.00012585
0.000142904
0.000143004
0.000125023
0.00011058
0.00578566
-0.000615414
-0.000591732
-0.000554156
-0.00050481
-0.000446315
-0.000381552
-0.00031345
-0.000244876
-0.000178558
-0.000117011
-6.24228e-05
-1.64741e-05
1.97302e-05
4.56634e-05
6.10732e-05
6.52467e-05
5.91441e-05
6.18997e-05
9.09473e-05
-0.000534325
-0.000518282
-0.000490552
-0.000452912
-0.000407555
-0.000356894
-0.000303409
-0.000249536
-0.000197552
-0.000149475
-0.00010691
-7.0879e-05
-4.16618e-05
-1.86395e-05
-9.69173e-08
1.7284e-05
3.98688e-05
7.59926e-05
0.000151911
-0.000463542
-0.000454066
-0.000434799
-0.000407231
-0.000373203
-0.000334746
-0.000293941
-0.000252845
-0.00021332
-0.000176933
-0.000144776
-0.000117251
-9.38351e-05
-7.27562e-05
-5.02519e-05
-1.87867e-05
3.27113e-05
9.82379e-05
0.000386691
-0.000401656
-0.000397811
-0.000385808
-0.000366899
-0.000342619
-0.000314708
-0.00028491
-0.000254939
-0.000226324
-0.000200265
-0.00017745
-0.000157822
-0.000140289
-0.000122348
-9.91105e-05
-6.11208e-05
3.79433e-06
8.04418e-05
0.00627117
-0.000347466
-0.000348436
-0.000342645
-0.000331147
-0.000315254
-0.000296424
-0.000276154
-0.000255892
-0.000236904
-0.00022013
-0.000206001
-0.000194202
-0.000183403
-0.000170915
-0.00015191
-0.000117788
-5.84783e-05
1.2109e-05
0.00884697
-0.000299933
-0.000305002
-0.000304505
-0.00029932
-0.000290579
-0.000279533
-0.000267483
-0.000255684
-0.000245228
-0.0002369
-0.000231008
-0.000227167
-0.000224048
-0.00021911
-0.000208128
-0.000184237
-0.000139269
-7.8514e-05
0.00901428
-0.000258161
-0.000266698
-0.000270671
-0.000270813
-0.000268113
-0.000263673
-0.000258655
-0.000254191
-0.000251278
-0.000250646
-0.000252594
-0.000256789
-0.000262034
-0.000266041
-0.000265166
-0.000253703
-0.000223109
-0.000166705
0.00909573
-0.000221367
-0.000232812
-0.000240508
-0.000245076
-0.000247395
-0.000248467
-0.00024937
-0.000251177
-0.000254862
-0.000261181
-0.000270515
-0.00028267
-0.000296662
-0.00031052
-0.00032095
-0.000322838
-0.000305834
-0.000249987
0.008874
-0.000188879
-0.000202726
-0.000213456
-0.000221603
-0.000227974
-0.000233517
-0.000239271
-0.000246305
-0.00025563
-0.000268098
-0.000284247
-0.000304105
-0.000326979
-0.000351236
-0.000373777
-0.000389905
-0.000387739
-0.000333641
0.00906094
-0.000160127
-0.000175906
-0.00018901
-0.000199921
-0.000209408
-0.000218405
-0.000227952
-0.000239155
-0.000253109
-0.000270815
-0.00029304
-0.000320114
-0.00035167
-0.00038635
-0.000421137
-0.000450635
-0.000462387
-0.000413977
0.00922899
-0.000134637
-0.00015189
-0.000166715
-0.000179577
-0.000191251
-0.000202689
-0.000214963
-0.000229239
-0.000246727
-0.000268617
-0.00029596
-0.000329457
-0.000369089
-0.000413695
-0.000459842
-0.000495145
-0.000509334
-0.00046034
0.00247271
-0.000112029
-0.000130283
-0.00014614
-0.000160115
-0.000173037
-0.000185899
-0.00019982
-0.000216028
-0.000235856
-0.000260706
-0.000291981
-0.000330882
-0.00037786
-0.000431944
-0.00048891
-0.000523028
-0.000529907
-0.000464078
-0.000266624
-9.20174e-05
-0.000110722
-0.000126842
-0.000141047
-0.000154262
-0.000167536
-0.000182018
-0.000198979
-0.000219851
-0.000246257
-0.000280004
-0.000322948
-0.000376443
-0.000440346
-0.000510659
-0.000554438
-0.000567479
-0.000481767
0.00106674
-7.43935e-05
-9.28286e-05
-0.000108317
-0.000121811
-0.000134371
-0.000147076
-0.00016106
-0.000177579
-0.000198101
-0.000224419
-0.000258751
-0.000303774
-0.000362332
-0.000436511
-0.000525416
-0.000606071
-0.000642655
-0.00055362
0.00299373
-5.8982e-05
-7.61049e-05
-8.9883e-05
-0.000101688
-0.000112692
-0.00012393
-0.000136427
-0.000151324
-0.00017001
-0.000194308
-0.000226719
-0.000270734
-0.000331015
-0.000413288
-0.000523996
-0.000661852
-0.000773759
-0.000693031
0.00293018
-4.54891e-05
-5.96913e-05
-7.04957e-05
-7.9656e-05
-8.8312e-05
-9.73073e-05
-0.000107431
-0.000119566
-0.000134844
-0.000154859
-0.000182025
-0.000220156
-0.000275211
-0.000356644
-0.000482548
-0.000683404
-0.000931078
-0.000902304
0.00266153
-3.27796e-05
-4.19609e-05
-4.87398e-05
-5.46404e-05
-6.04883e-05
-6.67631e-05
-7.38868e-05
-8.23487e-05
-9.28155e-05
-0.000106305
-0.000124527
-0.000150531
-0.0001898
-0.000252868
-0.000367915
-0.000614
-0.00106436
-0.00121976
0.00195789
-1.52634e-05
-2.04738e-05
-2.41645e-05
-2.77552e-05
-3.16312e-05
-3.58974e-05
-4.06066e-05
-4.58246e-05
-5.16733e-05
-5.84078e-05
-6.65974e-05
-7.75896e-05
-9.45749e-05
-0.000125076
-0.000191019
-0.000371725
-0.000872116
-0.00141434
0.00113612
)
;

boundaryField
{
    leftWall
    {
        type            fixedFluxPressure;
        gradient        uniform 0;
        value           nonuniform List<scalar> 
50
(
753.612
753.583
753.523
753.431
753.308
753.151
752.962
752.735
752.353
730.991
234.665
0.510368
0.638458
0.249774
0.00908787
0.00801561
0.0071318
0.00633111
0.0056185
0.00498863
0.00443197
0.00393615
0.00348605
0.00308305
0.00273299
0.00243841
0.0021946
0.00253431
0.00255033
0.00241926
0.00228626
0.00214052
0.00203757
0.00196565
0.00189808
0.00180034
0.000845491
0.000589327
0.000531797
0.000510333
0.000458735
0.000416982
0.000382758
0.000359012
0.000370997
0.000389808
0.000468473
0.000532468
0.000608188
0.000489086
)
;
    }
    rightWall
    {
        type            fixedFluxPressure;
        gradient        uniform 0;
        value           nonuniform List<scalar> 
50
(
754
753.897
753.646
754.023
753.928
753.768
753.647
753.521
752.958
730.69
251.57
0.511092
0.506829
0.185344
0.0101929
0.00938616
0.0086498
0.00792316
0.0072589
0.00666618
0.00614421
0.00841507
0.0270252
0.00776839
0.00150127
0.00127977
0.00147483
0.00609601
0.00701871
0.00706222
0.00714098
0.00578566
9.09473e-05
0.000151911
0.000386691
0.00627117
0.00884697
0.00901428
0.00909573
0.008874
0.00906094
0.00922899
0.00247271
-0.000266624
0.00106674
0.00299373
0.00293018
0.00266153
0.00195789
0.00113612
)
;
    }
    lowerWall
    {
        type            fixedFluxPressure;
        gradient        uniform 0;
        value           nonuniform List<scalar> 
62
(
753.612
753.747
754.021
754.433
754.97
755.623
756.379
757.227
758.154
759.135
760.154
761.193
762.233
763.249
764.217
765.121
765.948
766.697
767.35
767.843
768.412
768.774
768.961
768.961
768.982
769.045
769.128
769.237
769.411
769.603
770.165
771.351
771.329
771.204
770.967
767.237
767.289
767.348
767.229
765.916
766.089
766.514
769.415
767.237
766.929
766.763
766.219
765.489
764.569
763.45
762.257
761.086
759.902
758.578
757.354
756.653
756.054
755.41
754.855
754.359
754.061
754
)
;
    }
    atmosphere
    {
        type            totalPressure;
        rho             rho;
        psi             none;
        gamma           1;
        p0              uniform 0;
        value           nonuniform List<scalar> 
46
(
-4.64241e-05
0
0
0
0
0
0
0
0
0
0
0
0
0
0
0
0
0
0
0
0
0
-2.70541e-07
-8.38335e-07
-1.36759e-06
-2.022e-06
-2.79689e-06
-4.35715e-06
-7.03544e-06
-1.02338e-05
-1.38851e-05
-1.79171e-05
-2.22499e-05
-2.67937e-05
-3.14468e-05
-3.60931e-05
-4.05985e-05
-4.48068e-05
-4.85315e-05
-5.15394e-05
-5.35106e-05
-5.39351e-05
-5.18088e-05
-4.47818e-05
-2.50794e-05
0
)
;
    }
    defaultFaces
    {
        type            empty;
    }
}


// ************************************************************************* //
