/*--------------------------------*- C++ -*----------------------------------*\
  =========                 |
  \\      /  F ield         | OpenFOAM: The Open Source CFD Toolbox
   \\    /   O peration     | Website:  https://openfoam.org
    \\  /    A nd           | Version:  9
     \\/     M anipulation  |
\*---------------------------------------------------------------------------*/
FoamFile
{
    format      ascii;
    class       surfaceScalarField;
    location    "4.44";
    object      alphaPhi0.water;
}
// * * * * * * * * * * * * * * * * * * * * * * * * * * * * * * * * * * * * * //

dimensions      [0 3 -1 0 0 0 0];

internalField   nonuniform List<scalar> 
4432
(
2.74586e-08
-2.74586e-08
1.6231e-07
-1.34847e-07
3.33251e-07
-1.7095e-07
5.03549e-07
-1.70294e-07
6.62812e-07
-1.59268e-07
8.07239e-07
-1.44429e-07
9.3529e-07
-1.28054e-07
1.04686e-06
-1.11571e-07
1.14354e-06
-9.66894e-08
1.22871e-06
-8.51776e-08
1.30642e-06
-7.77116e-08
1.38212e-06
-7.56966e-08
1.46809e-06
-8.59752e-08
1.58573e-06
-1.1764e-07
1.76072e-06
-1.74995e-07
1.99803e-06
-2.37304e-07
2.1287e-06
-1.30677e-07
1.54256e-06
5.84794e-07
2.95659e-07
1.24555e-06
-6.45023e-07
9.37841e-07
-7.74694e-07
1.30939e-07
-3.80793e-07
-3.94748e-07
-3.82054e-07
7.95067e-08
-1.06975e-07
2.11988e-07
-2.6732e-07
3.68499e-07
-3.27473e-07
5.33213e-07
-3.35007e-07
6.94161e-07
-3.20223e-07
8.44743e-07
-2.95018e-07
9.81591e-07
-2.6491e-07
1.10338e-06
-2.33363e-07
1.21065e-06
-2.03973e-07
1.30506e-06
-1.79591e-07
1.38826e-06
-1.60906e-07
1.46177e-06
-1.49212e-07
1.53005e-06
-1.54257e-07
1.6004e-06
-1.87987e-07
1.67885e-06
-2.53447e-07
1.75347e-06
-3.11916e-07
1.73942e-06
-1.17011e-07
1.33857e-06
9.71783e-07
6.59966e-07
1.88677e-06
-4.97802e-09
1.59682e-06
-2.96201e-07
4.22156e-07
-2.84594e-07
-4.06355e-07
-6.67425e-07
1.14994e-07
-2.21978e-07
2.489e-07
-4.01217e-07
3.97626e-07
-4.7621e-07
5.55763e-07
-4.93143e-07
7.13123e-07
-4.77588e-07
8.62748e-07
-4.44647e-07
1.00047e-06
-4.0263e-07
1.12423e-06
-3.57133e-07
1.2338e-06
-3.13534e-07
1.32963e-06
-2.75422e-07
1.41151e-06
-2.42788e-07
1.47782e-06
-2.15522e-07
1.52757e-06
-2.04009e-07
1.55949e-06
-2.19907e-07
1.56825e-06
-2.62205e-07
1.53412e-06
-2.77781e-07
1.41682e-06
-1.05951e-08
1.14954e-06
1.20682e-06
8.52631e-07
2.18351e-06
4.41992e-07
1.99852e-06
1.12964e-07
7.47818e-07
-4.94801e-08
-2.43893e-07
-7.16887e-07
1.34813e-07
-3.568e-07
2.75234e-07
-5.41633e-07
4.22142e-07
-6.23125e-07
5.75645e-07
-6.46646e-07
7.2879e-07
-6.30734e-07
8.75488e-07
-5.91345e-07
1.01149e-06
-5.38631e-07
1.13433e-06
-4.79971e-07
1.24315e-06
-4.22342e-07
1.33757e-06
-3.69844e-07
1.41591e-06
-3.21121e-07
1.4738e-06
-2.73413e-07
1.50625e-06
-2.36455e-07
1.50634e-06
-2.19995e-07
1.46291e-06
-2.18778e-07
1.3555e-06
-1.70374e-07
1.17983e-06
1.57235e-07
1.0588e-06
1.32768e-06
9.5351e-07
2.28865e-06
7.51591e-07
2.20029e-06
4.88901e-07
1.02469e-06
2.13215e-07
3.20029e-08
-5.03687e-07
1.45408e-07
-5.02215e-07
2.93398e-07
-6.89619e-07
4.41064e-07
-7.70796e-07
5.91113e-07
-7.96694e-07
7.39768e-07
-7.79389e-07
8.82425e-07
-7.34001e-07
1.01519e-06
-6.71394e-07
1.13536e-06
-6.00137e-07
1.24164e-06
-5.28615e-07
1.33311e-06
-4.61309e-07
1.40698e-06
-3.94984e-07
1.45661e-06
-3.2304e-07
1.47426e-06
-2.5411e-07
1.44994e-06
-1.95672e-07
1.37146e-06
-1.40299e-07
1.22564e-06
-2.45527e-08
1.03109e-06
3.5178e-07
9.90191e-07
1.37189e-06
1.01037e-06
2.26831e-06
9.79687e-07
2.23083e-06
7.80535e-07
1.25061e-06
4.25592e-07
3.8695e-07
-7.81136e-08
1.51742e-07
-6.53961e-07
3.0537e-07
-8.43244e-07
4.53282e-07
-9.18711e-07
5.99627e-07
-9.4304e-07
7.43167e-07
-9.22927e-07
8.80847e-07
-8.71682e-07
1.00927e-06
-7.99814e-07
1.12556e-06
-7.16422e-07
1.2281e-06
-6.31153e-07
1.31568e-06
-5.48886e-07
1.38484e-06
-4.64143e-07
1.42717e-06
-3.6537e-07
1.43338e-06
-2.60325e-07
1.39244e-06
-1.54734e-07
1.29469e-06
-4.25475e-08
1.13696e-06
1.33177e-07
9.57711e-07
5.31027e-07
9.40629e-07
1.38897e-06
1.04636e-06
2.19172e-06
1.11634e-06
2.2087e-06
9.35319e-07
1.43877e-06
5.49462e-07
7.72805e-07
4.71331e-07
1.56638e-07
-8.10603e-07
3.11918e-07
-9.9852e-07
4.57555e-07
-1.06435e-06
5.98776e-07
-1.08426e-06
7.36171e-07
-1.06032e-06
8.67992e-07
-1.0035e-06
9.91246e-07
-9.23069e-07
1.10283e-06
-8.28009e-07
1.20082e-06
-7.29143e-07
1.28391e-06
-6.31973e-07
1.3484e-06
-5.28638e-07
1.38467e-06
-4.01643e-07
1.38287e-06
-2.58525e-07
1.33233e-06
-1.04193e-07
1.22779e-06
6.19972e-08
1.07586e-06
2.85102e-07
9.25637e-07
6.81249e-07
9.14829e-07
1.39978e-06
1.04916e-06
2.05765e-06
1.1389e-06
2.11896e-06
9.85543e-07
1.59216e-06
6.01334e-07
1.15702e-06
1.07269e-06
1.61135e-07
-9.71741e-07
3.13335e-07
-1.15072e-06
4.52841e-07
-1.20386e-06
5.86718e-07
-1.21814e-06
7.16691e-07
-1.1903e-06
8.41899e-07
-1.12871e-06
9.59508e-07
-1.04068e-06
1.066e-06
-9.34498e-07
1.15896e-06
-8.22106e-07
1.23709e-06
-7.10097e-07
1.2969e-06
-5.88454e-07
1.32813e-06
-4.32868e-07
1.32123e-06
-2.51627e-07
1.2666e-06
-4.95615e-08
1.1636e-06
1.64998e-07
1.02625e-06
4.22453e-07
9.0271e-07
8.04783e-07
8.98413e-07
1.40407e-06
1.01274e-06
1.94332e-06
1.0912e-06
2.04049e-06
9.70522e-07
1.71283e-06
6.3907e-07
1.48847e-06
1.71176e-06
-1.70938e-07
1.70824e-07
5.70723e-07
-7.44248e-07
9.55308e-07
-3.87867e-07
1.00697e-06
-5.23635e-08
8.7945e-07
1.27527e-07
6.55769e-07
2.23687e-07
4.10237e-07
2.45538e-07
3.51622e-07
6.08767e-08
7.56587e-07
-4.04024e-07
1.33933e-06
-5.83292e-07
9.68084e-07
3.65748e-07
-5.76499e-07
1.53941e-06
-2.34373e-06
1.74637e-06
-1.72846e-06
-6.36057e-07
8.92371e-07
-2.64235e-06
3.6058e-06
-2.71834e-06
5.74142e-06
-2.13565e-06
4.96706e-06
7.27157e-07
4.82601e-06
3.04201e-07
-1.33492e-07
5.7877e-07
-1.01974e-06
6.49182e-07
-4.58182e-07
5.8679e-07
9.49722e-09
4.29048e-07
2.86511e-07
2.28529e-07
4.26181e-07
5.46527e-08
4.2194e-07
-1.78916e-09
1.17648e-07
1.2397e-07
-5.29396e-07
2.68085e-07
-7.27998e-07
-1.25717e-07
7.49214e-07
-9.05527e-07
2.28665e-06
-1.20659e-06
2.04875e-06
-3.18935e-07
-1.54496e-06
1.18804e-06
-4.14934e-06
2.92076e-06
-4.45109e-06
4.27939e-06
-3.4943e-06
4.15161e-06
8.54924e-07
8.75821e-06
5.44389e-07
-6.80439e-07
4.94271e-07
-9.68255e-07
3.93591e-07
-3.57405e-07
2.70987e-07
1.32098e-07
1.03348e-07
4.54147e-07
-8.50161e-08
6.14566e-07
-2.44815e-07
5.8176e-07
-3.51993e-07
2.245e-07
-3.94996e-07
-4.86858e-07
-4.28598e-07
-6.87653e-07
-7.13448e-07
1.0367e-06
-8.66718e-07
2.44018e-06
-5.43122e-07
1.72589e-06
2.30572e-07
-2.36297e-06
1.11476e-06
-5.03354e-06
2.2277e-06
-5.56405e-06
2.99377e-06
-4.2604e-06
2.78194e-06
1.00667e-06
1.15229e-05
4.89625e-07
-1.1699e-06
3.10678e-07
-7.89132e-07
1.36146e-07
-1.82862e-07
-1.06485e-08
2.78875e-07
-1.75703e-07
6.19154e-07
-3.53668e-07
7.92496e-07
-5.2044e-07
7.48739e-07
-6.78168e-07
3.81302e-07
-8.3674e-07
-3.28148e-07
-9.58342e-07
-5.32234e-07
-1.00381e-06
1.08242e-06
-7.55609e-07
2.19222e-06
-1.39695e-07
1.11021e-06
3.85143e-07
-2.90323e-06
8.61082e-07
-5.5095e-06
1.5173e-06
-6.22028e-06
1.80969e-06
-4.55281e-06
1.51725e-06
1.27887e-06
1.30396e-05
2.78089e-07
-1.44815e-06
5.42919e-08
-5.65498e-07
-1.35919e-07
7.34037e-09
-2.81716e-07
4.24667e-07
-4.34385e-07
7.71818e-07
-6.00988e-07
9.59096e-07
-7.69517e-07
9.19865e-07
-9.53697e-07
5.64197e-07
-1.18255e-06
-1.02335e-07
-1.38436e-06
-3.16586e-07
-1.18154e-06
9.45185e-07
-6.89358e-07
1.7003e-06
-5.04763e-09
4.33782e-07
2.97431e-07
-3.20575e-06
4.68397e-07
-5.68051e-06
7.6029e-07
-6.51218e-06
6.13022e-07
-4.40551e-06
2.22978e-07
1.66854e-06
1.32623e-05
-7.967e-09
-1.44039e-06
-2.3342e-07
-3.40138e-07
-4.15254e-07
1.89172e-07
-5.44467e-07
5.53889e-07
-6.76868e-07
9.04172e-07
-8.24538e-07
1.10663e-06
-9.84066e-07
1.08105e-06
-1.1691e-06
7.50974e-07
-1.40569e-06
1.33592e-07
-1.59801e-06
-1.22708e-07
-1.31785e-06
6.87587e-07
-6.86341e-07
1.11922e-06
-4.09489e-08
-2.1194e-07
6.78175e-08
-3.31457e-06
-3.1668e-08
-5.58108e-06
-5.43447e-08
-6.48738e-06
-5.28157e-07
-3.89221e-06
-1.19873e-06
2.29149e-06
1.20635e-05
-3.07988e-07
-1.13258e-06
-5.32639e-07
-1.15511e-07
-6.8963e-07
3.4616e-07
-7.96187e-07
6.60624e-07
-9.02899e-07
1.01064e-06
-1.02052e-06
1.22399e-06
-1.15287e-06
1.21322e-06
-1.3157e-06
9.13745e-07
-1.51761e-06
3.361e-07
-1.64023e-06
1.64624e-09
-1.35012e-06
3.95268e-07
-7.18933e-07
4.86815e-07
-2.03106e-07
-7.2781e-07
-2.67862e-07
-3.24988e-06
-5.97349e-07
-5.25164e-06
-9.25283e-07
-6.15455e-06
-1.49744e-06
-3.2679e-06
-2.27548e-06
2.98489e-06
9.78794e-06
-6.27506e-07
-5.05111e-07
-8.04215e-07
6.11875e-08
-9.44346e-07
4.86281e-07
-1.03382e-06
7.50102e-07
-1.11502e-06
1.09184e-06
-1.19184e-06
1.30082e-06
-1.27667e-06
1.29806e-06
-1.39347e-06
1.03054e-06
-1.53265e-06
4.79681e-07
-1.58097e-06
4.92351e-08
-1.29323e-06
1.05063e-07
-7.72622e-07
-3.9638e-08
-4.06023e-07
-1.09447e-06
-6.07553e-07
-3.0484e-06
-1.14645e-06
-4.7128e-06
-1.77277e-06
-5.52831e-06
-2.26128e-06
-2.79247e-06
-2.64315e-06
3.37067e-06
7.31342e-06
3.54671e-07
-1.32643e-06
6.50998e-07
-1.44704e-06
9.13995e-07
-1.46686e-06
1.16657e-06
-1.47072e-06
1.41423e-06
-1.43796e-06
1.65747e-06
-1.37195e-06
1.88953e-06
-1.27273e-06
2.10005e-06
-1.14501e-06
2.28094e-06
-1.00298e-06
2.4281e-06
-8.57247e-07
2.54016e-06
-7.0051e-07
2.58941e-06
-4.82115e-07
2.56534e-06
-2.27555e-07
2.44741e-06
6.83703e-08
2.25005e-06
3.62358e-07
2.01471e-06
6.57792e-07
1.82685e-06
9.92645e-07
1.81708e-06
1.41384e-06
1.96751e-06
1.79289e-06
2.0608e-06
1.94721e-06
1.89605e-06
1.87758e-06
1.61509e-06
1.76944e-06
1.74832e-06
1.57853e-06
2.60223e-07
-1.06764e-06
4.80843e-07
-1.12989e-06
6.7653e-07
-1.13286e-06
8.77709e-07
-1.1538e-06
1.08438e-06
-1.15221e-06
1.3016e-06
-1.13376e-06
1.52327e-06
-1.08779e-06
1.73612e-06
-1.00826e-06
1.92057e-06
-8.99143e-07
2.05956e-06
-7.68869e-07
2.14155e-06
-6.15673e-07
2.16348e-06
-4.0689e-07
2.11049e-06
-1.42858e-07
2.00996e-06
1.68901e-07
1.86352e-06
5.08802e-07
1.69677e-06
8.24539e-07
1.57385e-06
1.11556e-06
1.54284e-06
1.44485e-06
1.57912e-06
1.75661e-06
1.55664e-06
1.96968e-06
1.34957e-06
2.08464e-06
1.02699e-06
2.09202e-06
2.04206e-06
7.33245e-07
3.94947e-08
-1.11515e-08
2.53824e-08
-8.96058e-09
5.25139e-08
-8.81952e-09
8.20585e-08
-8.92323e-09
1.27904e-07
-1.13002e-08
1.87626e-07
-1.26989e-08
2.54848e-07
-1.04199e-08
3.45729e-07
-1.93841e-08
4.39397e-07
-1.96098e-08
5.1222e-07
-1.4525e-08
5.50041e-07
-1.0113e-08
5.74687e-07
-5.21572e-09
5.90263e-07
-2.12847e-08
6.3039e-07
1.72757e-09
6.76832e-07
1.21044e-08
7.03011e-07
3.43308e-08
6.72749e-07
7.32787e-08
6.44063e-07
1.17443e-07
6.43492e-07
1.61346e-07
6.34744e-07
1.99859e-07
5.84821e-07
2.28704e-07
4.76969e-07
2.49074e-07
2.54562e-07
3.5607e-07
9.96296e-10
-8.32311e-09
2.60758e-10
-4.40521e-09
-2.03198e-11
-4.73582e-09
-6.05232e-10
-4.71358e-09
-5.21142e-10
-8.47413e-09
-2.00869e-10
-1.11355e-08
-5.57071e-10
-8.75473e-09
3.09188e-10
-1.89944e-08
1.15314e-09
-1.90851e-08
1.48908e-09
-1.3353e-08
1.57448e-09
-8.58314e-09
1.28685e-09
-3.24311e-09
3.75975e-09
-2.85469e-09
5.31166e-09
-6.42903e-10
8.77065e-09
0
1.33887e-08
0
8.81206e-09
0
6.91077e-09
5.4748e-09
7.92762e-09
4.10059e-09
8.63722e-09
0
1.59039e-08
0
2.20713e-08
0
0
9.20576e-09
-3.02957e-09
-1.43736e-09
-4.27748e-09
-2.52993e-09
-1.68972e-09
-4.44705e-09
-1.5974e-09
-2.78e-09
-9.73266e-10
-5.97359e-09
-7.91117e-11
-8.57459e-09
-2.14743e-09
-7.81384e-09
-1.12656e-08
-1.33588e-08
-1.47536e-08
-1.05622e-08
-1.44891e-08
-8.54511e-09
-8.30909e-09
-9.67844e-09
-2.65316e-10
-6.21448e-09
5.96702e-09
-1.22117e-08
1.52836e-08
-5.48538e-09
2.59079e-08
-6.19633e-09
1.51566e-08
-1.7739e-08
1.11465e-08
6.66722e-10
1.47829e-08
0
1.68575e-08
0
1.4372e-08
0
2.00708e-08
0
1.85644e-08
0
2.37275e-10
2.64838e-09
-1.74552e-09
2.00286e-10
-1.27179e-09
-2.33888e-09
9.7295e-10
-5.79437e-09
4.20922e-09
-6.03467e-09
4.94372e-09
-3.43364e-09
2.8887e-09
-1.22917e-09
3.08904e-09
-2.02751e-09
-7.91834e-10
-3.67077e-10
-3.67527e-09
-2.5459e-10
-4.97512e-09
-3.43354e-13
-4.53472e-09
-1.25533e-14
-1.58488e-09
-1.31915e-13
6.51106e-10
-1.63163e-12
2.66451e-09
-4.94201e-11
2.80331e-09
-3.22702e-09
3.6651e-09
-5.78831e-09
7.2836e-09
7.31775e-10
8.83483e-09
8.55352e-10
9.5533e-09
2.01922e-10
8.05636e-09
1.30823e-09
5.68886e-09
0
3.32421e-09
0
3.16991e-09
2.55421e-10
3.86583e-10
5.56605e-14
5.05466e-10
-9.88773e-14
1.34647e-09
-1.51729e-13
2.36893e-09
-1.58119e-09
1.47551e-09
-6.2096e-10
5.95643e-10
-9.78562e-11
2.57758e-10
-1.79183e-11
2.54977e-10
0
3.48252e-13
1.88411e-14
2.68944e-15
-1.74852e-14
5.63309e-16
-3.01003e-14
-1.12909e-15
-1.49916e-13
-1.92638e-14
-1.63422e-12
-4.68412e-11
-2.62588e-12
-3.91259e-10
-1.34568e-11
-1.88062e-09
-1.29767e-10
-1.43029e-09
-1.63275e-10
-5.70873e-10
-6.52721e-10
9.49395e-11
-9.25915e-10
4.53377e-10
0
-1.3004e-11
6.50693e-10
-6.39776e-10
4.18505e-10
2.08259e-09
3.11681e-10
5.6414e-14
-7.53316e-16
2.3403e-15
-4.22786e-14
3.02421e-15
-1.47364e-13
6.97515e-12
-3.1375e-13
1.69931e-12
-1.54309e-15
4.05077e-11
-5.61734e-16
3.85738e-11
-2.1774e-16
3.60073e-13
0
0
0
2.51305e-14
-4.02702e-16
1.40613e-14
-4.68221e-15
-1.0271e-13
-1.34146e-12
-2.45881e-12
-4.27737e-12
-2.37549e-12
-6.57232e-13
-5.70905e-13
0
-1.30618e-10
9.18073e-15
-6.78054e-10
0
-1.38456e-09
-2.5765e-10
-1.98255e-09
-1.06846e-09
-9.38636e-10
1.31536e-11
-3.47733e-10
1.90065e-10
-1.50348e-10
3.42036e-10
9.06274e-10
2.40163e-09
1.48559e-15
-2.2388e-15
3.95027e-14
-2.55583e-13
4.16969e-14
-6.8726e-13
4.05315e-16
-2.72456e-13
2.28928e-16
-1.36678e-15
3.23714e-16
-6.56579e-16
3.90957e-16
-2.85052e-16
1.13638e-15
1.65258e-17
3.51935e-14
2.65052e-14
9.38026e-15
9.23066e-15
0
-7.04704e-14
-6.35841e-12
-6.80584e-13
-1.01228e-11
-1.17957e-13
-8.43271e-12
1.4293e-12
-9.10756e-13
1.5389e-13
-1.43806e-12
9.9065e-14
0
0
-5.89958e-10
-1.26707e-11
-1.65654e-09
-1.83086e-10
-1.0153e-09
-1.81504e-11
-4.4315e-10
1.39562e-10
-2.29282e-10
2.47014e-10
2.273e-10
2.46937e-10
1.24718e-15
-3.48588e-15
1.38506e-13
-4.49309e-13
7.80532e-14
-5.73448e-13
-1.51677e-16
-1.40253e-13
-3.56579e-16
-1.16192e-15
-3.91822e-16
-6.21411e-16
-4.79212e-16
-1.97721e-16
-3.76247e-16
3.18174e-15
-3.80564e-15
2.79388e-13
-2.09406e-13
1.53071e-13
-2.60373e-13
6.56122e-13
-5.859e-12
2.63327e-13
-1.14416e-11
7.05619e-13
-3.45961e-12
0
-8.5918e-13
9.53542e-14
-1.28196e-12
7.64081e-14
-2.36256e-13
0
-2.57612e-12
-3.6482e-15
-1.29631e-10
-2.94516e-12
-2.63816e-10
-1.3785e-11
-1.35056e-10
0
-6.77771e-11
0
0
-9.98649e-12
1.87382e-15
-5.35955e-15
6.87077e-14
-1.55024e-13
-3.41512e-14
-2.80419e-13
-1.95049e-15
-3.96611e-14
-8.40892e-16
-2.13608e-15
-9.10234e-16
-5.52112e-16
-8.98013e-16
-2.02513e-16
-7.05198e-13
5.44781e-14
-4.12962e-12
8.25718e-13
-5.02909e-12
1.72115e-12
-5.02443e-12
1.36743e-12
-7.80233e-13
6.3758e-13
-6.28421e-14
5.85604e-18
-5.19786e-14
0
-4.21121e-14
0
-1.371e-15
3.30977e-16
-2.28653e-15
5.52591e-18
-7.13413e-14
3.40215e-16
-3.53238e-13
-3.45106e-13
-8.04772e-13
-4.12322e-12
-6.99444e-13
-1.37319e-12
-4.87991e-13
0
0
-8.21354e-14
1.93381e-16
-1.91325e-15
-2.73116e-15
-1.4955e-15
-6.64973e-15
-1.01457e-14
-3.64679e-15
-1.4297e-15
-1.44248e-15
-1.40809e-15
0
-1.03884e-15
0
-1.17959e-16
-5.95729e-12
2.32904e-13
-6.0326e-12
1.52065e-12
-5.40246e-12
1.7205e-12
-6.53466e-13
2.90777e-13
-2.27767e-14
6.19807e-16
-1.61423e-14
5.00495e-15
-2.18544e-15
3.68034e-15
-3.88144e-16
2.83466e-16
-3.33621e-16
9.74977e-17
-3.47702e-16
7.76272e-17
-3.08185e-16
7.07828e-16
-8.83607e-12
-1.04087e-12
-1.96862e-11
-3.3133e-12
-3.43598e-11
-1.99398e-12
-1.44785e-11
7.92976e-13
1.44435e-12
-1.20969e-13
-3.32842e-16
-6.77715e-15
-5.05661e-17
-2.6395e-14
-5.59953e-17
-1.01428e-14
-1.33279e-15
-4.76869e-17
-2.85417e-15
-6.64173e-16
0
-9.51658e-16
-1.17674e-13
3.57242e-15
-1.80119e-12
3.77221e-14
-2.18619e-12
0
-5.56444e-13
0
-2.3831e-14
0
-3.07024e-14
1.06398e-15
-1.45677e-14
8.41405e-15
-3.56844e-16
4.26566e-15
-3.55841e-16
1.13203e-16
-5.27173e-16
9.54779e-17
-3.59702e-16
1.29817e-16
-2.48315e-12
1.69775e-14
-2.72544e-11
-1.95636e-13
-2.91228e-11
-1.40656e-12
-2.93821e-11
-1.69626e-12
-2.90716e-11
5.20851e-13
2.37408e-12
-1.04601e-13
-7.16252e-14
-1.07853e-13
-7.624e-14
-3.00087e-13
-2.11842e-15
-2.33078e-14
-2.0494e-15
-2.17728e-17
-4.78393e-15
-1.68207e-16
-3.26449e-14
1.29793e-15
-5.13427e-14
6.44467e-15
-8.60847e-15
0
-1.81954e-15
0
-4.86378e-16
0
-1.52197e-15
0
-7.99128e-15
1.11952e-15
-4.7067e-15
7.20886e-16
-4.5488e-16
1.60785e-16
-3.8663e-16
1.1208e-16
-2.61376e-16
9.84829e-17
0
4.51314e-17
0
4.63836e-18
-3.88469e-12
0
-2.73968e-11
-3.05244e-13
-2.89511e-11
-1.03569e-13
-1.65074e-11
4.70078e-13
0
-2.44842e-13
-1.87683e-13
-1.32694e-13
-1.20685e-13
-1.69334e-13
-3.08307e-15
-1.4071e-14
-3.02021e-15
1.15256e-18
-6.83032e-15
4.07215e-16
-8.26506e-15
6.30845e-16
-4.64041e-15
2.53889e-16
-1.95693e-15
8.68101e-17
-4.21982e-16
1.56258e-16
-1.15471e-16
4.21661e-17
-2.82408e-16
1.20871e-17
-2.33036e-16
7.57009e-18
-1.49147e-16
2.57174e-19
-2.22351e-16
4.80544e-18
-2.64041e-16
4.8467e-17
-2.38847e-16
4.77719e-17
-2.3134e-16
4.0239e-17
0
2.65718e-17
-4.64094e-14
0
-1.6921e-12
-4.37457e-16
-1.75916e-12
0
-1.64483e-13
0
0
-4.31222e-13
-2.88592e-13
-6.32946e-14
-2.24776e-13
-3.32688e-14
-1.86166e-15
1.23587e-14
-1.80195e-15
2.23107e-17
-2.29918e-15
2.7149e-16
-2.02969e-15
2.95461e-16
-1.05426e-15
1.27687e-16
-5.4162e-16
7.80402e-17
-1.42136e-16
4.12115e-17
-2.56526e-17
9.89134e-18
-4.08584e-18
3.87044e-18
-9.1772e-19
9.31669e-19
-2.2481e-18
3.40621e-19
-2.78969e-17
2.90706e-18
-7.89688e-17
3.68564e-18
-1.79067e-16
1.43301e-17
-2.88519e-16
3.56914e-17
-3.06109e-16
3.1981e-17
-4.0693e-16
1.69229e-17
-4.07138e-16
3.27536e-18
-3.61113e-16
3.65244e-19
-5.37078e-16
0
0
-4.49785e-14
-3.47978e-13
7.31513e-14
-3.48066e-13
1.68104e-13
-8.12289e-16
3.78604e-14
-7.525e-16
4.18484e-17
-6.75876e-16
1.12529e-16
-3.85486e-16
1.10298e-16
-1.50384e-16
2.44521e-17
-4.91044e-17
5.6956e-18
-1.00084e-17
4.80664e-18
-6.0429e-19
1.99348e-18
3.26341e-18
2.34058e-21
3.12593e-18
-1.0913e-18
8.8356e-19
-9.82072e-19
-1.87842e-18
-2.53672e-19
-6.49304e-18
4.72956e-19
-7.47808e-17
1.41295e-18
-2.42374e-16
1.45615e-17
-3.74311e-16
3.18822e-17
-3.86566e-16
2.52843e-17
-3.77856e-16
1.6973e-17
-2.86823e-16
1.53473e-17
-1.47023e-16
1.5457e-17
1.08742e-17
-8.32668e-17
-4.46686e-13
2.96401e-13
-4.53741e-13
3.78684e-13
-2.89314e-16
1.13534e-13
-2.29458e-16
6.08782e-17
-1.70226e-16
6.35426e-17
-5.45498e-17
5.37181e-17
-6.02217e-18
3.36223e-18
-1.10999e-18
1.35981e-18
3.68648e-18
1.0084e-20
6.5142e-18
-1.38949e-18
7.85626e-18
-2.31467e-18
7.33953e-18
-2.60951e-18
5.62972e-18
-2.24323e-18
2.95681e-18
-1.5442e-18
-5.65288e-19
-7.01618e-19
-3.37548e-18
1.10254e-19
-4.13103e-17
2.27331e-18
-1.2218e-16
2.08479e-18
-1.82793e-16
4.44783e-18
-1.89612e-16
5.32585e-18
-1.84677e-16
6.75762e-18
-1.15168e-16
1.06182e-17
7.48498e-18
-4.1426e-17
-2.73258e-13
6.00495e-13
-4.25914e-13
5.62175e-13
-2.44893e-16
1.46863e-13
-1.85111e-16
7.96063e-17
-1.206e-16
7.74061e-17
-1.00978e-17
5.97843e-17
9.36924e-19
2.44915e-18
4.14048e-18
-4.40328e-19
6.83785e-18
-1.77777e-18
8.36751e-18
-2.69996e-18
8.86316e-18
-3.03871e-18
8.35587e-18
-2.94101e-18
7.19633e-18
-2.49837e-18
5.62098e-18
-1.89527e-18
3.72836e-18
-1.26151e-18
1.32087e-18
-6.81795e-19
-9.30745e-19
-1.86213e-19
-2.37869e-18
9.56502e-20
-9.70038e-18
3.89757e-19
-1.96382e-17
8.10549e-19
-2.62508e-17
1.71107e-19
-2.43289e-17
3.74688e-19
7.46214e-19
-1.54934e-17
-4.36248e-13
3.01845e-13
-3.3036e-13
4.86728e-13
-3.28473e-16
1.01007e-13
-2.67949e-16
9.79681e-17
-1.65438e-16
2.09636e-16
-1.09776e-17
8.85798e-17
1.2629e-18
3.17478e-18
3.66942e-18
-6.59003e-19
5.62754e-18
-1.70489e-18
6.64937e-18
-2.34614e-18
6.97547e-18
-2.49021e-18
6.69867e-18
-2.33359e-18
5.99495e-18
-1.97613e-18
5.04459e-18
-1.52653e-18
4.00352e-18
-1.07484e-18
2.97774e-18
-6.8468e-19
2.02045e-18
-3.88567e-19
1.12117e-18
-1.91315e-19
1.28946e-19
-7.5716e-20
-9.72518e-20
-6.79956e-21
-1.50235e-19
5.13135e-21
-4.50048e-19
1.88026e-20
6.42178e-20
-8.45379e-19
-2.1749e-13
0
-1.00822e-13
2.98147e-13
-3.01596e-16
3.22909e-16
-5.27228e-16
1.60325e-16
-2.62948e-16
6.95648e-16
-2.07224e-17
1.49577e-16
-2.81521e-18
1.06489e-17
9.64879e-19
1.80261e-18
2.45177e-18
-4.89907e-19
3.34589e-18
-1.09211e-18
3.86594e-18
-1.30898e-18
4.0075e-18
-1.32092e-18
3.7962e-18
-1.18044e-18
3.33792e-18
-9.43458e-19
2.77046e-18
-6.78268e-19
2.2006e-18
-4.41034e-19
1.68249e-18
-2.60011e-19
1.24182e-18
-1.39025e-19
8.72821e-19
-6.90538e-20
5.82164e-19
-3.47802e-20
3.55962e-19
-2.16543e-20
1.67468e-19
-1.71432e-20
-1.2047e-20
2.52482e-20
-3.7032e-14
2.56263e-16
-3.15414e-15
2.29219e-17
-6.33837e-16
6.2804e-16
-7.54942e-16
8.10427e-16
-4.03456e-16
9.41007e-16
-4.50145e-17
2.40137e-16
-1.94193e-17
3.2674e-17
-1.04337e-17
1.57308e-17
-3.40455e-18
7.60539e-18
3.3688e-19
2.47709e-18
1.17524e-18
-1.40051e-19
1.63775e-18
-4.17223e-19
1.80912e-18
-4.89412e-19
1.74931e-18
-4.4444e-19
1.54106e-18
-3.41085e-19
1.2705e-18
-2.26831e-19
9.97189e-19
-1.31613e-19
7.5659e-19
-6.59803e-20
5.60345e-19
-2.81496e-20
4.04999e-19
-1.05331e-20
2.80692e-19
-4.99521e-21
1.78613e-19
-5.11733e-21
-6.41753e-21
9.82089e-20
-1.02235e-16
4.17663e-16
-2.62154e-16
1.63424e-16
-6.49957e-16
9.65861e-16
-7.11223e-16
1.28446e-15
-3.71363e-16
1.02683e-15
-7.88335e-17
2.60423e-16
-5.1497e-17
7.18174e-17
-3.77412e-17
4.61298e-17
-2.22642e-17
2.86703e-17
-9.46736e-18
1.38115e-17
-2.28938e-18
4.80508e-18
2.09896e-19
1.06854e-18
5.81497e-19
-6.49721e-20
7.129e-19
-1.43659e-19
7.03004e-19
-1.34586e-19
6.15209e-19
-9.48284e-20
4.96018e-19
-5.30884e-20
3.79369e-19
-2.20717e-20
2.80791e-19
-4.26561e-21
2.03821e-19
1.64658e-21
1.4516e-19
2.36872e-21
9.83341e-20
1.71554e-21
6.82017e-22
5.90838e-20
-3.73046e-17
5.17198e-16
-1.78391e-16
2.87638e-16
-5.59763e-16
8.80891e-16
-6.377e-16
1.3372e-15
-2.61787e-16
8.09571e-16
-1.04153e-16
2.22222e-16
-8.43108e-17
1.13776e-16
-6.95891e-17
8.30011e-17
-4.91672e-17
5.57395e-17
-2.6248e-17
3.14615e-17
-9.91835e-18
1.32337e-17
-2.19486e-18
3.91873e-18
3.29511e-20
6.79032e-19
2.13939e-19
-8.38072e-21
2.62394e-19
-3.96494e-20
2.5387e-19
-3.20598e-20
2.12621e-19
-1.66104e-20
1.63681e-19
-3.42794e-21
1.19659e-19
1.79902e-21
8.50043e-20
2.92984e-21
5.96041e-20
2.76349e-21
4.09591e-20
2.1131e-21
1.43116e-21
2.56862e-20
-3.17884e-17
7.12697e-16
-7.39297e-17
3.13001e-16
-2.65747e-16
4.12978e-16
-2.98793e-16
5.01826e-16
-1.43419e-16
3.60258e-16
-1.08261e-16
1.82512e-16
-1.01146e-16
1.43454e-16
-8.86421e-17
1.14723e-16
-6.90827e-17
7.92782e-17
-4.25981e-17
4.87018e-17
-1.87202e-17
2.29069e-17
-5.03508e-18
7.42855e-18
-6.12706e-19
1.39411e-18
4.19968e-20
1.07306e-19
8.11612e-20
-7.80964e-21
9.16406e-20
-8.84272e-21
8.02697e-20
-3.62166e-21
6.19743e-20
7.26248e-22
4.43555e-20
1.91517e-21
3.03121e-20
2.12397e-21
2.03115e-20
1.7983e-21
1.36345e-20
1.32355e-21
9.19465e-22
8.76892e-21
-2.585e-17
2.86158e-15
-4.56244e-17
3.3232e-16
-6.11452e-17
4.28038e-16
-7.79019e-17
4.57492e-16
-8.43677e-17
2.33882e-16
-9.08387e-17
1.77544e-16
-9.57333e-17
1.53831e-16
-9.08921e-17
1.3444e-16
-7.47126e-17
9.7307e-17
-5.05892e-17
6.16685e-17
-2.40545e-17
3.0569e-17
-6.4069e-18
9.87284e-18
-6.81692e-19
1.59784e-18
5.18997e-21
1.07081e-19
2.25902e-20
-1.00325e-21
2.98903e-20
-2.14725e-21
2.71352e-20
-1.71196e-22
2.08508e-20
7.9807e-22
1.45073e-20
1.20346e-21
9.45256e-21
1.17384e-21
5.91318e-21
9.27327e-22
3.69996e-21
6.45362e-22
4.22958e-22
2.38892e-21
-1.99123e-17
1.59498e-14
-3.45847e-17
3.46534e-16
-4.54573e-17
4.38454e-16
-5.43025e-17
4.65878e-16
-6.17204e-17
2.40725e-16
-6.8004e-17
1.82931e-16
-7.71303e-17
1.5838e-16
-7.79592e-17
1.39767e-16
-6.72031e-17
1.08019e-16
-4.70109e-17
6.85504e-17
-2.20191e-17
3.35911e-17
-5.18587e-18
1.01325e-17
-4.15854e-19
1.53911e-18
5.05978e-22
6.26542e-20
6.2082e-21
-1.07816e-22
8.87166e-21
-4.98236e-22
8.19048e-21
1.41736e-22
6.24431e-21
4.82778e-22
4.20236e-21
6.06717e-22
2.58357e-21
5.46803e-22
1.48449e-21
4.08225e-22
8.25059e-22
2.68983e-22
1.63279e-22
5.18473e-22
0
2.78209e-14
-1.55466e-13
1.36913e-12
-3.05607e-13
4.6971e-12
-8.41095e-14
4.11567e-12
-5.02515e-17
1.74976e-13
-5.14921e-17
1.86703e-16
-5.3018e-17
1.58421e-16
-5.25034e-17
1.42741e-16
-4.93296e-17
1.10828e-16
-3.47266e-17
7.00966e-17
-1.55466e-17
3.39155e-17
-2.92887e-18
9.46334e-18
-1.36042e-19
9.40024e-19
1.0366e-22
1.83182e-20
1.69915e-21
-2.69442e-23
2.38541e-21
-1.09008e-22
2.1777e-21
1.05192e-22
1.6053e-21
2.32138e-22
1.02468e-21
2.63863e-22
5.8509e-22
2.24803e-22
3.03384e-22
1.60565e-22
1.43959e-22
1.01514e-22
5.88009e-23
8.13094e-23
0
2.88055e-14
-1.15341e-13
1.81478e-12
-2.26304e-13
4.81864e-12
-2.0728e-13
4.10729e-12
-2.76994e-17
1.16649e-12
-2.85593e-17
1.90054e-16
-2.88795e-17
1.61183e-16
-3.07734e-17
1.44362e-16
-2.80239e-17
1.0919e-16
-1.9533e-17
6.83855e-17
-7.72785e-18
3.02074e-17
-1.0197e-18
6.60343e-18
-2.56692e-20
4.15897e-19
1.60991e-23
3.94419e-21
3.89578e-22
-6.19166e-24
5.26665e-22
-1.78243e-23
4.60439e-22
5.41917e-23
3.19268e-22
9.79543e-23
1.87479e-22
1.03189e-22
9.51147e-23
8.34281e-23
4.1239e-23
5.68901e-23
1.42447e-23
3.44055e-23
1.89988e-23
3.61919e-24
7.27145e-16
2.80781e-14
1.97499e-14
1.12887e-12
4.7938e-14
4.80111e-12
1.96032e-14
4.14628e-12
-5.84852e-18
1.05099e-12
-5.56243e-18
1.9221e-16
-5.31294e-18
1.63342e-16
-7.17294e-18
1.39693e-16
-7.39715e-18
1.01454e-16
-5.24276e-18
5.88646e-17
-1.74973e-18
2.21055e-17
-1.50257e-19
3.4765e-18
-1.8638e-21
1.23086e-19
8.61601e-25
4.73181e-22
5.80333e-23
-8.20848e-25
6.93058e-23
-1.11625e-24
5.26107e-23
2.3678e-23
2.9537e-23
3.74105e-23
1.16453e-23
3.67019e-23
1.56533e-24
2.80589e-23
-4.59176e-24
1.81738e-23
-6.36997e-24
1.04187e-23
5.43466e-24
-5.52971e-24
9.08086e-16
2.71692e-14
4.19963e-14
1.01404e-13
3.1763e-13
4.53605e-12
1.30163e-13
1.78013e-12
0
2.68791e-13
0
6.61097e-16
1.54569e-17
1.61495e-16
1.373e-17
1.30745e-16
8.86778e-18
8.77929e-17
4.27904e-18
4.51172e-17
1.02285e-18
1.31416e-17
6.12544e-20
1.25765e-18
4.63633e-22
2.02801e-20
4.70911e-23
2.6016e-23
-2.09592e-24
-3.86898e-24
-1.44283e-23
2.08156e-25
-1.88307e-23
9.08373e-24
-1.87876e-23
1.29875e-23
-1.59751e-23
1.18552e-23
-1.2022e-23
8.49581e-24
-8.17513e-24
5.16565e-24
-5.09948e-24
2.77687e-24
1.35484e-24
-2.95392e-24
1.44922e-15
2.57191e-14
2.10919e-14
1.06964e-14
1.23691e-13
0
2.97223e-14
0
0
4.07627e-16
2.15796e-17
5.00334e-16
3.21093e-17
1.79023e-16
2.65857e-17
1.16606e-16
1.75696e-17
6.92426e-17
7.46139e-18
2.92203e-17
1.19253e-18
5.5848e-18
3.41254e-20
2.55003e-19
9.72423e-23
1.48936e-21
9.89165e-24
7.53115e-25
-1.02974e-23
-5.73094e-24
-1.87436e-23
-3.13249e-26
-1.89474e-23
3.06415e-24
-1.51591e-23
4.05085e-24
-1.0475e-23
3.43196e-24
-6.49452e-24
2.28585e-24
-3.69044e-24
1.2906e-24
-1.94914e-24
6.42841e-25
2.89772e-25
-9.66884e-25
1.80573e-15
2.39837e-14
1.78283e-15
1.62654e-14
7.91928e-16
2.11967e-16
2.61718e-16
3.47636e-17
8.65555e-17
3.19491e-16
7.59631e-17
2.47346e-16
4.45565e-17
1.60612e-16
3.13415e-17
9.18467e-17
1.76409e-17
4.61292e-17
5.14751e-18
1.37075e-17
3.89317e-19
1.33014e-18
3.78354e-21
2.1574e-20
3.27479e-24
3.71209e-23
4.83916e-25
3.62844e-25
-8.63392e-24
-3.33374e-24
-1.12522e-23
-3.46904e-25
-9.73637e-24
8.89846e-25
-6.86823e-24
1.11589e-24
-4.21299e-24
8.76196e-25
-2.31891e-24
5.37843e-25
-1.16774e-24
2.7881e-25
-5.45496e-25
1.27025e-25
5.21651e-26
-2.38978e-25
1.99964e-15
1.91501e-14
2.50755e-15
1.71781e-14
6.0685e-16
6.00456e-15
2.5195e-16
2.02135e-15
1.07623e-16
6.48007e-16
6.2193e-17
2.19221e-16
4.26203e-17
1.08965e-16
2.61998e-17
5.68787e-17
1.07661e-17
2.15177e-17
1.62625e-18
3.52126e-18
4.23975e-20
1.27105e-19
1.13109e-22
5.90368e-22
1.50652e-23
3.37085e-25
-1.4382e-24
-8.94677e-25
-5.13679e-24
-1.75873e-24
-5.10439e-24
-3.23406e-25
-3.82351e-24
2.16512e-25
-2.3967e-24
2.66778e-25
-1.31369e-24
1.93892e-25
-6.45837e-25
1.08679e-25
-2.89607e-25
5.10819e-26
-1.19986e-25
2.09812e-26
7.7252e-27
-4.64327e-26
1.59401e-15
7.45931e-15
2.73558e-15
1.00662e-14
1.15997e-15
6.5232e-15
4.64985e-16
2.56986e-15
1.4438e-16
7.67009e-16
5.42282e-17
2.00833e-16
2.88032e-17
6.61959e-17
1.35402e-17
2.40937e-17
3.2048e-18
5.22319e-18
1.81567e-19
3.40025e-19
1.28603e-21
3.55452e-21
1.02083e-24
4.98688e-24
2.5124e-25
2.03136e-25
-1.74495e-24
-1.01471e-24
-2.38085e-24
-8.19237e-25
-1.90671e-24
-1.94517e-25
-1.23616e-24
4.21492e-26
-6.84823e-25
5.43927e-26
-3.33194e-25
3.65612e-26
-1.45272e-25
1.85083e-26
-5.75565e-26
7.77141e-27
-2.09586e-26
2.82861e-27
9.16069e-28
-7.08941e-27
4.7614e-16
6.15735e-16
1.23592e-15
1.64298e-15
1.18529e-15
2.33989e-15
4.93666e-16
1.53393e-15
1.35382e-16
5.25972e-16
3.62811e-17
1.18031e-16
1.23472e-17
2.57198e-17
3.4004e-18
5.12618e-18
3.3686e-19
4.62072e-19
5.50277e-21
9.18718e-21
1.05343e-23
2.81361e-23
2.13932e-24
2.08646e-26
-2.83005e-25
-2.22362e-25
-9.96633e-25
-5.84032e-25
-9.43516e-25
-3.5159e-25
-6.14176e-25
-9.19031e-26
-3.37757e-25
5.79458e-27
-1.62883e-25
9.29709e-27
-6.9388e-26
5.78596e-27
-2.64665e-26
2.60835e-27
-9.13078e-27
9.59954e-28
-2.87571e-27
3.02921e-28
8.4211e-29
-8.35334e-28
2.80337e-17
5.03039e-18
1.84764e-16
3.44633e-17
2.92708e-16
1.41193e-16
2.09967e-16
1.64765e-16
6.39152e-17
9.11342e-17
1.27745e-17
2.30218e-17
2.51472e-18
3.70223e-18
3.17516e-19
3.67844e-19
1.02312e-20
1.19436e-20
4.67211e-23
7.58702e-23
4.09986e-26
1.09893e-25
1.65736e-26
1.60315e-26
-3.30531e-25
-2.65382e-25
-4.5586e-25
-2.8346e-25
-3.33204e-25
-1.41119e-25
-1.75919e-25
-3.69657e-26
-7.93381e-26
2.06428e-28
-3.24398e-26
1.30582e-27
-1.18417e-26
7.59467e-28
-3.87193e-27
2.98964e-28
-1.13847e-27
9.38918e-29
-3.02889e-28
2.49191e-29
5.74953e-30
-7.36424e-29
2.34229e-19
4.28904e-21
3.83985e-18
8.18025e-20
1.43016e-17
8.90797e-19
1.63299e-17
2.0198e-18
7.85535e-18
1.90428e-18
1.53608e-18
7.34587e-19
1.8475e-19
1.16108e-19
9.76194e-21
6.88445e-21
1.05639e-22
1.04173e-22
2.00619e-25
3.61674e-25
6.12688e-26
4.20803e-28
-7.08935e-26
-7.07789e-26
-1.88251e-25
-1.60117e-25
-1.81388e-25
-1.24142e-25
-1.07613e-25
-5.35356e-26
-4.61022e-26
-1.33322e-26
-1.6289e-26
-1.0196e-27
-5.44836e-27
1.47562e-28
-1.64962e-27
8.27307e-29
-4.48511e-28
2.74974e-29
-1.08856e-28
7.05049e-30
-2.36222e-29
1.49963e-30
2.72516e-31
-4.62982e-30
5.66736e-22
1.24361e-24
1.62155e-20
8.86696e-23
1.11403e-19
1.16893e-21
1.69154e-19
3.70868e-21
1.5388e-19
4.74518e-21
4.08284e-20
2.97974e-21
3.97669e-21
6.30657e-22
1.12821e-22
3.61525e-23
6.43993e-25
5.10047e-25
7.99484e-28
1.57652e-27
3.44498e-28
4.04521e-28
-5.87037e-26
-6.20188e-26