/*--------------------------------*- C++ -*----------------------------------*\
  =========                 |
  \\      /  F ield         | OpenFOAM: The Open Source CFD Toolbox
   \\    /   O peration     | Website:  https://openfoam.org
    \\  /    A nd           | Version:  9
     \\/     M anipulation  |
\*---------------------------------------------------------------------------*/
FoamFile
{
    format      ascii;
    class       volScalarField;
    location    "4.44";
    object      p;
}
// * * * * * * * * * * * * * * * * * * * * * * * * * * * * * * * * * * * * * //

dimensions      [1 -1 -2 0 0 0 0];

internalField   nonuniform List<scalar> 
2268
(
721.277
721.717
722.422
723.422
724.688
726.201
727.936
729.866
731.959
734.176
736.47
738.791
741.085
743.292
745.345
747.161
748.695
749.871
751.048
752.425
753.832
755.01
755.582
662.321
662.74
663.43
664.424
665.692
667.211
668.957
670.902
673.012
675.246
677.557
679.894
682.2
684.414
686.47
688.295
689.896
691.286
692.788
694.011
695.262
696.335
696.958
603.303
603.712
604.392
605.376
606.644
608.172
609.932
611.897
614.031
616.291
618.631
620.998
623.335
625.579
627.676
629.574
631.348
633.144
634.956
635.893
636.711
637.683
638.327
544.207
544.621
545.299
546.281
547.552
549.09
550.869
552.86
555.025
557.322
559.703
562.115
564.499
566.799
568.971
570.988
572.98
575.435
577.195
578.128
578.587
579.14
579.768
485.038
485.459
486.147
487.133
488.412
489.967
491.77
493.793
495.998
498.342
500.776
503.244
505.692
508.063
510.327
512.474
514.633
517.41
519.351
520.331
520.446
520.695
521.297
425.796
426.227
426.928
427.926
429.22
430.797
432.631
434.693
436.946
439.347
441.847
444.384
446.906
449.358
451.719
453.989
456.256
459.006
461.21
462.2
462.118
462.322
462.898
366.484
366.925
367.642
368.656
369.971
371.575
373.447
375.555
377.866
380.336
382.913
385.531
388.137
390.676
393.134
395.514
397.854
400.429
402.64
403.681
403.728
404.012
404.544
307.106
307.558
308.289
309.32
310.657
312.293
314.207
316.37
318.748
321.3
323.97
326.683
329.383
332.012
334.568
337.047
339.456
341.912
343.969
345.095
345.394
345.712
346.229
743.664
743.182
741.758
739.627
737.068
734.237
731.241
728.147
724.751
721.21
717.228
714.22
710.814
709.983
709.899
708.193
705.194
702.55
702.036
685.513
684.634
683.163
681.083
678.564
675.765
672.774
669.595
665.898
662.349
658.593
656.174
654.027
652.308
650.527
648.444
645.55
643.395
644.204
627.287
626.13
624.52
622.428
619.89
617.096
614.099
610.838
607.239
603.8
600.604
598.868
597.025
594.248
591.347
589.065
586.399
584.271
585.855
568.929
567.705
565.992
563.821
561.234
558.403
555.367
552.138
548.743
545.61
543.557
541.766
539.695
535.655
532.524
530.105
527.626
525.396
527.633
510.635
509.302
507.521
505.26
502.605
499.712
496.67
493.541
490.281
487.443
486.18
484.419
482.064
476.921
473.892
471.441
469.107
466.712
469.784
452.532
450.92
449.095
446.748
443.995
441.022
437.952
434.844
431.708
429.02
427.882
426.264
423.427
418.22
415.336
412.994
410.868
408.569
412.371
394.57
392.648
390.732
388.296
385.414
382.326
379.179
376.048
372.983
370.351
368.926
367.125
364.021
359.544
356.802
354.739
353.402
351.738
355.232
336.929
334.501
332.486
329.934
326.855
323.6
320.329
317.127
314.158
311.679
309.907
307.74
304.677
300.779
298.234
296.592
296.128
295.433
297.636
214.185
214.614
215.351
216.406
217.782
219.477
221.47
223.732
226.236
228.945
231.797
234.685
237.553
240.328
243.04
245.673
248.198
250.565
252.509
253.759
254.342
254.58
254.634
90.6557
91.112
91.7708
92.7455
94.0152
95.5853
97.4316
99.519
101.835
104.367
107.076
109.907
112.789
115.725
118.658
121.566
124.362
126.85
128.866
130.308
131.202
131.731
131.918
15.3042
15.5969
15.8409
16.275
16.8557
17.5768
18.4256
19.4018
20.4552
21.5803
22.7931
24.1493
25.6306
27.2288
28.847
30.405
31.8261
33.1647
34.3436
35.2669
35.8934
36.2476
36.3033
-0.222786
-0.21221
-0.220827
-0.209379
-0.152908
-0.0808842
-0.0104991
0.138156
0.242418
0.307815
0.369416
0.43218
0.539111
0.621255
0.663659
0.615591
0.338147
0.27438
0.320674
0.412228
0.577272
0.567854
0.346451
-0.575713
-0.577467
-0.575608
-0.566775
-0.548286
-0.518971
-0.479286
-0.433595
-0.378793
-0.329168
-0.288201
-0.255087
-0.243316
-0.225519
-0.231327
-0.277648
-0.367448
-0.417821
-0.457653
-0.512991
-0.530197
-0.572229
-0.672372
-0.93156
-0.936781
-0.937113
-0.937191
-0.951716
-0.969367
-0.974626
-1.0053
-1.01164
-0.998917
-0.979626
-0.963254
-0.957159
-0.948922
-0.941317
-0.922961
-0.89287
-0.896258
-0.912563
-0.94149
-0.974638
-0.981705
-0.974405
-1.2162
-1.22048
-1.22084
-1.22313
-1.23092
-1.2412
-1.25166
-1.25699
-1.26464
-1.27366
-1.28165
-1.2875
-1.28914
-1.28962
-1.2842
-1.27449
-1.25458
-1.23837
-1.22759
-1.21957
-1.2211
-1.22187
-1.18454
-1.39182
-1.38972
-1.39003
-1.3914
-1.39094
-1.39008
-1.39149
-1.39314
-1.39604
-1.40072
-1.40541
-1.40924
-1.41185
-1.41374
-1.41504
-1.41708
-1.41403
-1.40636
-1.39616
-1.38774
-1.38303
-1.38269
-1.36758
-1.51801
-1.51708
-1.51734
-1.51824
-1.51863
-1.51904
-1.52
-1.52147
-1.52389
-1.52736
-1.53099
-1.53425
-1.53682
-1.53904
-1.54107
-1.54375
-1.5461
-1.54821
-1.54732
-1.54168
-1.5378
-1.53799
-1.53802
-1.64473
-1.64434
-1.64469
-1.64552
-1.64615
-1.64683
-1.64785
-1.64929
-1.65127
-1.65393
-1.65684
-1.65968
-1.66217
-1.66435
-1.66641
-1.66895
-1.67191
-1.67607
-1.68001
-1.68014
-1.6781
-1.67854
-1.68143
-1.77139
-1.77139
-1.77183
-1.7726
-1.77334
-1.77416
-1.77521
-1.77655
-1.77826
-1.78041
-1.7828
-1.7852
-1.78741
-1.78944
-1.79142
-1.79368
-1.79623
-1.79923
-1.80192
-1.80318
-1.80306
-1.80297
-1.80349
-1.89803
-1.89825
-1.89875
-1.89946
-1.90023
-1.9011
-1.90214
-1.90341
-1.90496
-1.90677
-1.90873
-1.91068
-1.91257
-1.91441
-1.91626
-1.91822
-1.92032
-1.92253
-1.92441
-1.92545
-1.92567
-1.9257
-1.92568
-2.02453
-2.02491
-2.02545
-2.02614
-2.0269
-2.02775
-2.02874
-2.02993
-2.03133
-2.03286
-2.03446
-2.03609
-2.03774
-2.03938
-2.04103
-2.04273
-2.04447
-2.0462
-2.04771
-2.04866
-2.04901
-2.049
-2.04877
-2.15087
-2.15138
-2.15197
-2.15263
-2.15336
-2.15417
-2.1551
-2.15617
-2.15737
-2.15868
-2.16005
-2.16146
-2.1629
-2.16434
-2.16579
-2.16725
-2.1687
-2.17011
-2.1714
-2.1723
-2.17269
-2.17269
-2.17231
-2.2771
-2.27769
-2.27832
-2.27897
-2.27965
-2.28041
-2.28125
-2.2822
-2.28325
-2.28437
-2.28556
-2.28678
-2.28803
-2.28929
-2.29054
-2.29179
-2.29301
-2.29416
-2.29518
-2.29597
-2.29639
-2.29639
-2.29596
-2.40321
-2.40387
-2.40452
-2.40516
-2.4058
-2.40649
-2.40725
-2.40809
-2.40901
-2.40999
-2.41101
-2.41207
-2.41316
-2.41424
-2.41532
-2.41638
-2.4174
-2.41833
-2.41914
-2.41975
-2.42008
-2.42009
-2.4198
-2.52923
-2.52994
-2.5306
-2.53122
-2.53182
-2.53246
-2.53314
-2.53388
-2.53468
-2.53553
-2.53642
-2.53734
-2.53827
-2.53921
-2.54013
-2.54103
-2.54187
-2.54264
-2.54328
-2.54376
-2.54402
-2.54404
-2.54384
-2.65519
-2.65591
-2.65658
-2.65717
-2.65773
-2.65831
-2.65892
-2.65958
-2.66027
-2.66101
-2.66178
-2.66258
-2.66338
-2.66419
-2.66498
-2.66573
-2.66644
-2.66706
-2.66758
-2.66796
-2.66817
-2.6682
-2.66805
-2.78109
-2.78181
-2.78246
-2.78303
-2.78355
-2.78407
-2.78462
-2.7852
-2.78581
-2.78645
-2.78711
-2.7878
-2.78849
-2.78918
-2.78985
-2.79049
-2.79108
-2.79159
-2.79202
-2.79233
-2.7925
-2.79252
-2.79241
-2.90695
-2.90764
-2.90827
-2.9088
-2.90928
-2.90975
-2.91024
-2.91075
-2.91128
-2.91184
-2.91241
-2.913
-2.9136
-2.91418
-2.91475
-2.91529
-2.91578
-2.91621
-2.91656
-2.91681
-2.91696
-2.91698
-2.91689
-3.03275
-3.03341
-3.034
-3.03449
-3.03493
-3.03536
-3.03579
-3.03624
-3.0367
-3.03719
-3.03769
-3.03819
-3.0387
-3.0392
-3.03969
-3.04014
-3.04055
-3.04091
-3.0412
-3.04141
-3.04152
-3.04155
-3.04148
-3.15851
-3.15912
-3.15967
-3.16012
-3.16052
-3.1609
-3.16128
-3.16168
-3.16208
-3.1625
-3.16293
-3.16337
-3.1638
-3.16423
-3.16464
-3.16503
-3.16537
-3.16567
-3.16591
-3.16609
-3.16619
-3.16621
-3.16615
-3.28422
-3.28478
-3.28527
-3.28568
-3.28604
-3.28638
-3.28672
-3.28706
-3.28742
-3.28778
-3.28816
-3.28853
-3.2889
-3.28927
-3.28962
-3.28994
-3.29024
-3.29049
-3.29069
-3.29084
-3.29092
-3.29094
-3.2909
-3.4099
-3.41039
-3.41082
-3.41118
-3.4115
-3.41181
-3.4121
-3.41241
-3.41272
-3.41304
-3.41336
-3.41368
-3.414
-3.41431
-3.41461
-3.41489
-3.41514
-3.41535
-3.41552
-3.41565
-3.41572
-3.41574
-3.41571
-3.53554
-3.53596
-3.53632
-3.53664
-3.53691
-3.53718
-3.53745
-3.53771
-3.53798
-3.53826
-3.53854
-3.53882
-3.53909
-3.53936
-3.53962
-3.53986
-3.54007
-3.54025
-3.5404
-3.5405
-3.54057
-3.54059
-3.54057
-3.66115
-3.66148
-3.66178
-3.66204
-3.66228
-3.66251
-3.66275
-3.66298
-3.66322
-3.66346
-3.6637
-3.66394
-3.66418
-3.66442
-3.66464
-3.66484
-3.66502
-3.66518
-3.66531
-3.6654
-3.66546
-3.66548
-3.66547
-3.78671
-3.78697
-3.78718
-3.78739
-3.7876
-3.78781
-3.78801
-3.78822
-3.78843
-3.78864
-3.78885
-3.78906
-3.78927
-3.78947
-3.78966
-3.78984
-3.79
-3.79013
-3.79024
-3.79033
-3.79038
-3.7904
-3.7904
-3.91224
-3.91242
-3.91256
-3.91271
-3.91289
-3.91307
-3.91325
-3.91343
-3.91361
-3.9138
-3.91398
-3.91417
-3.91435
-3.91453
-3.91469
-3.91485
-3.91499
-3.91511
-3.91521
-3.91528
-3.91533
-3.91536
-3.91536
-4.03773
-4.03784
-4.03792
-4.03803
-4.03817
-4.03832
-4.03847
-4.03862
-4.03878
-4.03894
-4.03911
-4.03927
-4.03943
-4.03959
-4.03973
-4.03987
-4.03999
-4.0401
-4.04019
-4.04026
-4.04031
-4.04033
-4.04034
-4.16317
-4.16322
-4.16325
-4.16333
-4.16343
-4.16354
-4.16367
-4.1638
-4.16394
-4.16408
-4.16423
-4.16437
-4.16451
-4.16465
-4.16478
-4.1649
-4.16501
-4.1651
-4.16519
-4.16525
-4.1653
-4.16533
-4.16534
-4.28857
-4.28855
-4.28855
-4.2886
-4.28867
-4.28875
-4.28885
-4.28896
-4.28908
-4.28921
-4.28934
-4.28947
-4.28959
-4.28972
-4.28983
-4.28994
-4.29004
-4.29012
-4.2902
-4.29026
-4.29031
-4.29034
-4.29036
-4.41394
-4.41384
-4.4138
-4.41383
-4.41387
-4.41393
-4.41401
-4.41411
-4.41422
-4.41434
-4.41445
-4.41457
-4.41468
-4.41479
-4.41489
-4.41499
-4.41507
-4.41515
-4.41523
-4.41529
-4.41534
-4.41537
-4.4154
-4.53926
-4.5391
-4.53901
-4.53901
-4.53904
-4.5391
-4.53917
-4.53926
-4.53936
-4.53946
-4.53956
-4.53967
-4.53977
-4.53986
-4.53995
-4.54004
-4.54012
-4.54019
-4.54026
-4.54032
-4.54037
-4.54041
-4.54044
-4.66454
-4.66433
-4.66421
-4.66418
-4.66421
-4.66426
-4.66433
-4.66441
-4.6645
-4.66459
-4.66468
-4.66477
-4.66486
-4.66495
-4.66503
-4.6651
-4.66517
-4.66524
-4.66531
-4.66537
-4.66542
-4.66547
-4.6655
-4.78978
-4.78954
-4.78939
-4.78936
-4.78938
-4.78942
-4.78949
-4.78956
-4.78964
-4.78973
-4.78981
-4.78989
-4.78997
-4.79004
-4.79011
-4.79017
-4.79024
-4.7903
-4.79036
-4.79042
-4.79048
-4.79053
-4.79057
-4.91498
-4.91472
-4.91457
-4.91454
-4.91456
-4.9146
-4.91466
-4.91473
-4.9148
-4.91487
-4.91494
-4.91501
-4.91508
-4.91514
-4.91519
-4.91525
-4.9153
-4.91536
-4.91541
-4.91548
-4.91554
-4.9156
-4.91565
-5.04013
-5.03987
-5.03974
-5.03973
-5.03975
-5.0398
-5.03985
-5.03991
-5.03997
-5.04003
-5.04009
-5.04015
-5.0402
-5.04024
-5.04029
-5.04033
-5.04037
-5.04041
-5.04047
-5.04054
-5.04062
-5.04069
-5.04075
-5.16521
-5.16499
-5.16493
-5.16494
-5.16497
-5.16501
-5.16506
-5.16511
-5.16516
-5.16521
-5.16526
-5.1653
-5.16533
-5.16536
-5.16539
-5.16541
-5.16544
-5.16547
-5.16552
-5.1656
-5.16569
-5.16578
-5.16585
-5.29022
-5.29009
-5.29014
-5.29019
-5.29023
-5.29026
-5.2903
-5.29034
-5.29038
-5.29042
-5.29045
-5.29047
-5.29049
-5.2905
-5.2905
-5.29051
-5.29051
-5.29053
-5.29056
-5.29065
-5.29078
-5.29089
-5.29097
-5.41526
-5.41528
-5.41543
-5.4155
-5.41553
-5.41555
-5.41558
-5.4156
-5.41562
-5.41563
-5.41564
-5.41564
-5.41564
-5.41563
-5.41562
-5.4156
-5.41558
-5.41557
-5.41556
-5.41568
-5.41589
-5.41603
-5.41612
-5.54019
-5.54053
-5.54077
-5.54085
-5.54087
-5.54086
-5.54086
-5.54084
-5.54083
-5.54081
-5.54078
-5.54075
-5.54072
-5.54069
-5.54065
-5.5406
-5.54055
-5.54049
-5.54036
-5.54055
-5.54099
-5.5412
-5.54129
-5.66562
-5.66672
-5.66643
-5.66636
-5.66629
-5.66623
-5.66617
-5.66612
-5.66606
-5.66601
-5.66596
-5.66591
-5.66585
-5.66579
-5.66572
-5.66564
-5.66552
-5.66528
-5.66492
-5.66515
-5.66605
-5.66635
-5.66644
253.711
253.116
252.168
250.81
131.115
130.362
129.484
128.292
35.8914
35.4504
34.8617
34.1219
0.353607
0.338418
0.241917
0.107347
-0.640381
-0.624515
-0.64291
-0.663544
-0.963492
-0.938835
-0.943824
-0.943594
-1.19273
-1.19829
-1.19577
-1.19576
-1.37667
-1.3858
-1.39306
-1.39229
-1.54628
-1.54954
-1.54864
-1.54476
-1.68156
-1.67995
-1.6774
-1.67465
-1.80273
-1.80178
-1.80034
-1.79876
-1.92498
-1.92428
-1.92339
-1.92237
-2.04809
-2.04754
-2.04691
-2.04619
-2.17167
-2.17122
-2.17073
-2.17019
-2.29546
-2.29511
-2.29472
-2.2943
-2.41943
-2.41916
-2.41886
-2.41852
-2.54356
-2.54335
-2.54311
-2.54285
-2.66784
-2.66767
-2.66748
-2.66727
-2.79224
-2.79211
-2.79195
-2.79178
-2.91676
-2.91665
-2.91652
-2.91638
-3.04137
-3.04128
-3.04118
-3.04106
-3.16606
-3.16599
-3.16591
-3.16581
-3.29083
-3.29077
-3.2907
-3.29062
-3.41565
-3.4156
-3.41554
-3.41548
-3.54052
-3.54048
-3.54043
-3.54038
-3.66543
-3.6654
-3.66536
-3.66531
-3.79037
-3.79035
-3.79031
-3.79028
-3.91534
-3.91532
-3.9153
-3.91527
-4.04033
-4.04032
-4.0403
-4.04028
-4.16534
-4.16533
-4.16532
-4.1653
-4.29036
-4.29036
-4.29035
-4.29034
-4.4154
-4.4154
-4.4154
-4.4154
-4.54046
-4.54046
-4.54046
-4.54046
-4.66552
-4.66553
-4.66554
-4.66554
-4.7906
-4.79061
-4.79062
-4.79063
-4.91568
-4.9157
-4.91571
-4.91572
-5.04078
-5.0408
-5.04082
-5.04083
-5.16589
-5.16591
-5.16593
-5.16595
-5.29102
-5.29104
-5.29106
-5.29107
-5.41616
-5.41618
-5.4162
-5.41621
-5.54132
-5.54134
-5.54135
-5.54136
-5.66647
-5.66648
-5.66649
-5.6665
247.42
244.435
241.685
238.873
235.917
232.766
229.438
226.049
222.829
220.081
217.665
215.094
212.04
208.678
206.417
205.443
205.851
206.485
206.646
125.639
122.35
119.416
116.737
114.268
111.777
109.19
106.377
103.243
99.9685
96.9631
94.1803
91.5677
89.2025
87.3834
86.1541
85.8268
85.9658
84.9221
32.6007
30.6902
29.2507
28.0514
27.0308
26.1028
25.1657
24.1474
22.8053
21.0542
19.3493
17.9053
16.8152
16.0272
15.2513
14.3023
13.5427
13.129
12.431
-0.0967659
-0.225886
-0.32325
-0.40104
-0.388413
-0.31266
-0.368256
-0.41997
-0.435888
-0.426844
-0.417735
-0.410407
-0.399255
-0.384146
-0.377137
-0.439008
-0.512099
-0.533047
-0.530938
-0.689232
-0.688974
-0.691689
-0.696113
-0.665866
-0.6297
-0.624581
-0.629492
-0.634826
-0.64035
-0.64509
-0.649007
-0.653003
-0.657806
-0.670471
-0.698034
-0.714159
-0.720773
-0.719841
-0.93516
-0.925821
-0.925465
-0.923893
-0.930571
-0.95069
-0.960659
-0.963743
-0.965453
-0.965723
-0.96474
-0.964669
-0.964531
-0.965283
-0.967636
-0.966758
-0.967481
-0.973862
-0.971198
-1.18833
-1.18289
-1.18254
-1.17884
-1.2044
-1.22877
-1.23794
-1.24018
-1.23974
-1.23804
-1.23603
-1.23487
-1.23419
-1.23316
-1.2313
-1.21649
-1.21104
-1.21164
-1.2098
-1.39614
-1.39914
-1.3993
-1.39879
-1.40299
-1.40216
-1.39691
-1.39386
-1.38971
-1.38486
-1.38088
-1.37825
-1.37673
-1.37663
-1.3772
-1.37685
-1.37811
-1.37654
-1.37513
-1.54416
-1.54727
-1.54591
-1.54308
-1.53741
-1.53051
-1.52514
-1.52103
-1.51646
-1.51155
-1.50873
-1.50676
-1.50568
-1.50591
-1.50589
-1.50759
-1.50566
-1.50405
-1.50335
-1.67111
-1.67068
-1.6688
-1.66573
-1.66134
-1.65622
-1.65196
-1.64823
-1.64393
-1.64102
-1.63972
-1.63861
-1.63674
-1.6346
-1.63351
-1.63363
-1.63277
-1.63201
-1.63183
-1.7962
-1.7947
-1.79259
-1.78962
-1.78585
-1.78205
-1.77888
-1.77607
-1.77323
-1.77257
-1.77216
-1.76982
-1.76628
-1.7632
-1.76174
-1.76115
-1.76038
-1.76007
-1.76004
-1.9206
-1.91895
-1.91695
-1.91434
-1.91151
-1.90883
-1.90642
-1.90488
-1.90417
-1.90384
-1.90188
-1.8981
-1.89507
-1.893
-1.89188
-1.89102
-1.88987
-1.88899
-1.88873
-2.04489
-2.0434
-2.04179
-2.04002
-2.03811
-2.03614
-2.03435
-2.03334
-2.03338
-2.03213
-2.02919
-2.02681
-2.0248
-2.02363
-2.02252
-2.02116
-2.01975
-2.01856
-2.01787
-2.1692
-2.16796
-2.16676
-2.16578
-2.16454
-2.16299
-2.16135
-2.16002
-2.15933
-2.1578
-2.156
-2.15501
-2.15397
-2.15254
-2.15067
-2.14877
-2.14732
-2.14642
-2.14615
-2.29354
-2.29252
-2.29155
-2.29078
-2.28994
-2.2886
-2.28692
-2.28561
-2.28464
-2.28343
-2.28217
-2.28142
-2.28076
-2.27914
-2.27725
-2.27577
-2.27478
-2.27433
-2.27414
-2.41792
-2.41707
-2.41622
-2.41542
-2.41455
-2.41343
-2.41215
-2.41101
-2.41005
-2.40901
-2.408
-2.40719
-2.40634
-2.40514
-2.40386
-2.40288
-2.40239
-2.40263
-2.4023
-2.54236
-2.54164
-2.5409
-2.54014
-2.53932
-2.53836
-2.53732
-2.53635
-2.53545
-2.53456
-2.53369
-2.53292
-2.53215
-2.53126
-2.53042
-2.52986
-2.52974
-2.53048
-2.53002
-2.66687
-2.66627
-2.66562
-2.66494
-2.6642
-2.66337
-2.66249
-2.66165
-2.66086
-2.66007
-2.65933
-2.65865
-2.658
-2.65735
-2.65682
-2.65655
-2.65664
-2.6574
-2.65727
-2.79146
-2.79095
-2.79038
-2.78978
-2.78913
-2.78842
-2.78768
-2.78695
-2.78625
-2.78557
-2.78493
-2.78435
-2.78382
-2.78334
-2.78299
-2.7829
-2.78312
-2.7836
-2.78376
-2.91611
-2.91568
-2.9152
-2.91467
-2.9141
-2.9135
-2.91287
-2.91224
-2.91163
-2.91104
-2.9105
-2.91
-2.90956
-2.90919
-2.90894
-2.90889
-2.90907
-2.90928
-2.90925
-3.04084
-3.04047
-3.04006
-3.0396
-3.03911
-3.03858
-3.03805
-3.03751
-3.03699
-3.03649
-3.03602
-3.0356
-3.03522
-3.03491
-3.0347
-3.03462
-3.03466
-3.03464
-3.03439
-3.16563
-3.16532
-3.16496
-3.16456
-3.16414
-3.16369
-3.16323
-3.16277
-3.16233
-3.1619
-3.1615
-3.16114
-3.16081
-3.16053
-3.16032
-3.16017
-3.16007
-3.1599
-3.15959
-3.29046
-3.2902
-3.2899
-3.28956
-3.2892
-3.28882
-3.28843
-3.28803
-3.28765
-3.28729
-3.28695
-3.28663
-3.28634
-3.28607
-3.28584
-3.28561
-3.28537
-3.2851
-3.28477
-3.41535
-3.41513
-3.41487
-3.41458
-3.41428
-3.41395
-3.41362
-3.41329
-3.41297
-3.41266
-3.41236
-3.41208
-3.41182
-3.41156
-3.4113
-3.41101
-3.41063
-3.41024
-3.40987
-3.54027
-3.54009
-3.53987
-3.53963
-3.53937
-3.5391
-3.53882
-3.53854
-3.53827
-3.53801
-3.53776
-3.53751
-3.53728
-3.53703
-3.53676
-3.53642
-3.53594
-3.53545
-3.53488
-3.66523
-3.66507
-3.6649
-3.66469
-3.66448
-3.66425
-3.66402
-3.66379
-3.66356
-3.66334
-3.66313
-3.66293
-3.66272
-3.6625
-3.66225
-3.66191
-3.66143
-3.66099
-3.66034
-3.79021
-3.79008
-3.78994
-3.78977
-3.78959
-3.78941
-3.78922
-3.78903
-3.78884
-3.78867
-3.7885
-3.78833
-3.78816
-3.78798
-3.78777
-3.78749
-3.78712
-3.7868
-3.78633
-3.91521
-3.91511
-3.91499
-3.91486
-3.91471
-3.91456
-3.91441
-3.91426
-3.91412
-3.91398
-3.91385
-3.91372
-3.9136
-3.91346
-3.9133
-3.91311
-3.91286
-3.91262
-3.91222
-4.04023
-4.04016
-4.04006
-4.03996
-4.03984
-4.03972
-4.0396
-4.03949
-4.03938
-4.03928
-4.03918
-4.0391
-4.03902
-4.03893
-4.03883
-4.03871
-4.03855
-4.03835
-4.03799
-4.16527
-4.16521
-4.16514
-4.16506
-4.16497
-4.16488
-4.16479
-4.16471
-4.16463
-4.16456
-4.16451
-4.16446
-4.16442
-4.16438
-4.16433
-4.16428
-4.16418
-4.16398
-4.1636
-4.29032
-4.29028
-4.29023
-4.29017
-4.29011
-4.29004
-4.28998
-4.28992
-4.28987
-4.28983
-4.28981
-4.2898
-4.2898
-4.2898
-4.2898
-4.2898
-4.28974
-4.28952
-4.28904
-4.41539
-4.41536
-4.41533
-4.41529
-4.41524
-4.4152
-4.41515
-4.41512
-4.4151
-4.41509
-4.4151
-4.41512
-4.41515
-4.41519
-4.41524
-4.41527
-4.41526
-4.41504
-4.41453
-4.54046
-4.54045
-4.54043
-4.5404
-4.54038
-4.54035
-4.54033
-4.54031
-4.54032
-4.54033
-4.54036
-4.54041
-4.54048
-4.54056
-4.54063
-4.54069
-4.54068
-4.54044
-4.53999
-4.66555
-4.66554
-4.66554
-4.66552
-4.66551
-4.6655
-4.66549
-4.6655
-4.66552
-4.66555
-4.66561
-4.66569
-4.66578
-4.66588
-4.66598
-4.66604
-4.66598
-4.66564
-4.66503
-4.79064
-4.79065
-4.79065
-4.79065
-4.79064
-4.79064
-4.79065
-4.79067
-4.7907
-4.79076
-4.79083
-4.79093
-4.79106
-4.79119
-4.79131
-4.79137
-4.79125
-4.79077
-4.78992
-4.91574
-4.91576
-4.91577
-4.91577
-4.91578
-4.91579
-4.9158
-4.91583
-4.91588
-4.91594
-4.91603
-4.91616
-4.91631
-4.91648
-4.91664
-4.91674
-4.91662
-4.9161
-4.91516
-5.04085
-5.04087
-5.04089
-5.0409
-5.04091
-5.04092
-5.04094
-5.04098
-5.04103
-5.04111
-5.04121
-5.04135
-5.04153
-5.04175
-5.04199
-5.04218
-5.04216
-5.04166
-5.0407
-5.16597
-5.16599
-5.16601
-5.16602
-5.16604
-5.16605
-5.16608
-5.16611
-5.16617
-5.16625
-5.16636
-5.16651
-5.16672
-5.167
-5.16733
-5.16768
-5.16786
-5.16741
-5.16642
-5.2911
-5.29112
-5.29114
-5.29115
-5.29116
-5.29118
-5.2912
-5.29124
-5.29129
-5.29136
-5.29147
-5.29163
-5.29185
-5.29217
-5.29262
-5.29321
-5.29373
-5.29339
-5.29241
-5.41623
-5.41625
-5.41626
-5.41628
-5.41629
-5.4163
-5.41632
-5.41635
-5.41639
-5.41645
-5.41654
-5.41668
-5.41689
-5.41721
-5.41774
-5.41863
-5.41977
-5.41971
-5.419
-5.54137
-5.54138
-5.54139
-5.5414
-5.54141
-5.54142
-5.54143
-5.54145
-5.54147
-5.54151
-5.54157
-5.54166
-5.54181
-5.54206
-5.54254
-5.54363
-5.54568
-5.54643
-5.54675
-5.6665
-5.66651
-5.66652
-5.66652
-5.66653
-5.66653
-5.66654
-5.66655
-5.66656
-5.66658
-5.6666
-5.66663
-5.66669
-5.66681
-5.66709
-5.6679
-5.67031
-5.67368
-5.67628
)
;

boundaryField
{
    leftWall
    {
        type            calculated;
        value           nonuniform List<scalar> 
50
(
721.277
662.321
603.303
544.207
485.038
425.796
366.484
307.106
214.185
90.6557
15.3042
-0.222786
-0.575713
-0.93156
-1.2162
-1.39182
-1.51801
-1.64473
-1.77139
-1.89803
-2.02453
-2.15087
-2.2771
-2.40321
-2.52923
-2.65519
-2.78109
-2.90695
-3.03275
-3.15851
-3.28422
-3.4099
-3.53554
-3.66115
-3.78671
-3.91224
-4.03773
-4.16317
-4.28857
-4.41394
-4.53926
-4.66454
-4.78978
-4.91498
-5.04013
-5.16521
-5.29022
-5.41526
-5.54019
-5.66562
)
;
    }
    rightWall
    {
        type            calculated;
        value           nonuniform List<scalar> 
50
(
702.036
644.204
585.855
527.633
469.784
412.371
355.232
297.636
206.646
84.9221
12.431
-0.530938
-0.719841
-0.971198
-1.2098
-1.37513
-1.50335
-1.63183
-1.76004
-1.88873
-2.01787
-2.14615
-2.27414
-2.4023
-2.53002
-2.65727
-2.78376
-2.90925
-3.03439
-3.15959
-3.28477
-3.40987
-3.53488
-3.66034
-3.78633
-3.91222
-4.03799
-4.1636
-4.28904
-4.41453
-4.53999
-4.66503
-4.78992
-4.91516
-5.0407
-5.16642
-5.29241
-5.419
-5.54675
-5.67628
)
;
    }
    lowerWall
    {
        type            calculated;
        value           nonuniform List<scalar> 
62
(
750.707
751.147
751.851
752.851
754.118
755.63
757.365
759.296
761.389
763.605
765.899
768.22
770.514
772.721
774.774
776.59
778.124
779.29
780.466
781.783
783.145
784.311
784.879
755.582
696.958
638.327
579.768
521.297
462.898
404.544
346.229
316.309
315.713
314.765
313.407
743.664
685.513
627.287
568.929
510.635
452.532
394.57
336.929
772.793
772.33
770.931
768.782
766.223
763.391
760.395
757.337
754.138
750.6
746.58
743.525
739.257
738.425
739
737.54
734.578
731.673
730.62
)
;
    }
    atmosphere
    {
        type            calculated;
        value           nonuniform List<scalar> 
46
(
-5.7292
-5.72904
-5.72904
-5.72904
-5.72904
-5.72904
-5.72904
-5.72904
-5.72904
-5.72904
-5.72904
-5.72904
-5.72904
-5.72904
-5.72904
-5.72904
-5.72904
-5.72904
-5.72904
-5.72904
-5.72904
-5.72905
-5.72905
-5.72905
-5.72906
-5.72906
-5.72906
-5.72907
-5.72907
-5.72908
-5.72909
-5.72909
-5.7291
-5.72911
-5.72911
-5.72912
-5.72913
-5.72914
-5.72914
-5.72915
-5.72915
-5.72915
-5.72913
-5.7291
-5.72904
-5.74403
)
;
    }
    defaultFaces
    {
        type            empty;
    }
}


// ************************************************************************* //
