/*--------------------------------*- C++ -*----------------------------------*\
  =========                 |
  \\      /  F ield         | OpenFOAM: The Open Source CFD Toolbox
   \\    /   O peration     | Website:  https://openfoam.org
    \\  /    A nd           | Version:  9
     \\/     M anipulation  |
\*---------------------------------------------------------------------------*/
FoamFile
{
    format      ascii;
    class       volScalarField;
    location    "1.43";
    object      alpha.water;
}
// * * * * * * * * * * * * * * * * * * * * * * * * * * * * * * * * * * * * * //

dimensions      [0 0 0 0 0 0 0];

internalField   nonuniform List<scalar> 
2268
(
1
1
1
1
1
1
1
1
1
1
1
1
1
1
1
0.991763
0.975906
0.975901
0.975902
0.99026
0.999541
0.989899
0.986148
1
1
1
1
1
1
1
1
1
1
1
1
1
1
1
0.99414
0.976361
0.976425
0.99067
0.999187
0.99986
0.999481
0.986148
1
1
1
1
1
1
1
1
1
1
1
1
1
1
1
0.997556
0.989476
0.991045
0.997792
0.999864
0.999862
0.99986
0.987029
1
1
1
1
1
1
1
1
1
1
1
1
1
1
0.999998
1
1
0.999992
0.999965
0.999912
0.999859
0.99975
0.996155
1
1
1
1
1
1
1
1
1
1
1
1
1
1
1
1
1
1
0.999989
0.99978
0.999726
0.999696
0.999882
1
1
1
1
1
1
1
1
1
1
1
1
1
1
1
1
1
1
0.999737
0.998746
0.998766
0.999688
0.999886
1
1
1
1
1
1
1
1
1
1
1
1
1
1
1
1
1
1
1
0.999262
0.998332
0.999672
0.999887
1
1
1
1
1
1
1
1
1
1
1
1
1
1
1
1
1
1
0.999038
0.993157
0.99739
0.999887
0.99989
0.998097
0.998097
0.996937
0.991876
0.996385
0.997813
0.997813
0.997655
0.993821
0.993855
0.993825
0.990697
0.967075
0.950769
0.953678
0.975759
0.975748
0.973924
0.968165
0.998097
0.98494
0.958831
0.947193
0.962783
0.992468
0.997813
0.997811
0.997466
0.983832
0.992646
0.991031
0.981262
0.950769
0.957424
0.975808
0.974456
0.954112
0.968325
0.987641
0.957535
0.947226
0.946871
0.947417
0.974337
0.997787
0.997809
0.967378
0.595049
0.499773
0.876242
0.981261
0.970174
0.976096
0.975978
0.960372
0.938941
0.968326
0.9815
0.989136
0.988166
0.9813
0.9202
0.952201
0.995215
0.997804
0.539453
0.415237
0.41512
0.702442
0.980693
0.980185
0.980008
0.888574
0.770984
0.956611
0.968326
0.989189
0.989278
0.989348
0.989338
0.787519
0.789084
0.976297
0.970877
0.572034
0.572288
0.415198
0.552389
0.938263
0.980008
0.97999
0.766029
0.766024
0.968199
0.968326
0.980898
0.9752
0.989278
0.989347
0.787471
0.391931
0.525189
0.782724
0.773882
0.773772
0.762804
0.306877
0.377927
0.893715
0.979981
0.894976
0.813375
0.966853
0.968323
0.945544
0.750871
0.733531
0.961902
0.869825
0.360732
0.358775
0.455726
0.773886
0.773666
0.77354
0.236199
0.189973
0.265639
0.832611
0.915754
0.967837
0.968016
0.968274
0.999917
0.725004
0.402758
0.630141
0.854852
0.501931
0.358775
0.40134
0.773653
0.773539
0.773347
0.299696
0.190303
0.189973
0.219873
0.441142
0.834012
0.967837
0.911202
1
1
1
1
1
1
1
1
0.999999
0.999999
1
1
0.999999
0.999998
0.999999
1
1
1
0.981822
0.975308
0.975164
0.993183
0.999896
0.999998
0.999996
0.999994
0.999993
0.999993
0.999993
0.999991
0.999993
0.999995
0.999975
0.99998
0.999995
0.999998
0.999998
0.999999
1
1
1
0.987849
0.975139
0.975184
0.981712
0.999377
0.929142
0.91725
0.915751
0.920617
0.931959
0.945094
0.942509
0.962722
0.971047
0.973754
0.993349
0.999737
0.999891
0.999966
0.999968
0.999971
0.999978
0.999778
0.997962
0.995456
0.997091
0.99989
0.999911
0.226841
0.225713
0.219787
0.226799
0.245837
0.274988
0.322867
0.449306
0.507991
0.438812
0.522833
0.671906
0.786229
0.851958
0.85651
0.85434
0.85099
0.835119
0.799018
0.79404
0.796015
0.758398
0.649214
1.00608e-07
1.00723e-07
1.00916e-07
1.03934e-07
2.63584e-07
6.95223e-06
0.0260635
0.0868183
0.117704
0.0824095
0.0719849
0.0617883
0.075656
0.117561
0.127192
0.125033
0.121304
0.103832
0.0421938
0.00233884
0.00249681
0.0059025
0.0117415
1.00047e-07
1.00608e-07
1.0374e-07
1.11423e-05
0.00135731
0.00887719
0.0144972
1.07446e-07
0.00137803
0.0419756
0.0476209
0.0249895
0.00220569
0.00218683
0.00217165
0.00218683
0.00219913
0.00222835
0.0022597
0.00228061
0.00360561
0.0124123
0.0280174
9.90814e-08
1.02512e-07
3.27414e-07
0.000936685
0.00443106
0.00391928
4.77048e-08
5.03355e-08
5.47449e-08
0.00318542
0.0114206
0.0267498
0.0101106
0.00217165
0.00216142
0.00217731
0.00366501
0.00365032
0.00394054
0.00949303
0.0276556
0.0279551
0.0280399
8.71273e-08
2.8453e-07
0.00028961
0.00142518
0.000525879
1.33134e-08
4.50551e-08
5.19723e-08
5.59267e-08
5.89012e-08
1.56277e-07
0.0143812
0.0109297
0.00258457
0.00216151
0.00449742
0.0127233
0.0127273
0.0127273
0.0127273
0.0080701
0.00547349
0.00994924
5.5979e-08
8.17741e-07
3.73624e-05
1.31639e-05
1.37622e-08
1.32044e-08
2.16288e-07
3.23005e-07
1.52542e-07
1.53312e-07
1.61064e-07
2.09485e-07
0.000462126
0.00199015
0.000892015
0.00376123
0.00507285
0.00585198
0.00407672
0.000641764
6.41402e-08
2.45774e-06
0.000634559
7.61225e-09
7.84914e-09
1.08186e-05
6.34793e-06
1.39851e-07
1.94305e-08
4.58072e-07
4.58072e-07
3.21298e-07
5.91367e-07
2.47573e-06
2.34379e-06
1.36617e-12
0.000187194
1.44344e-12
1.45869e-12
1.46741e-12
1.48174e-12
1.52729e-12
6.04343e-12
6.45825e-10
9.67638e-08
6.53912e-06
1.85243e-09
1.70109e-07
7.65354e-07
1.82033e-10
1.76251e-10
1.83793e-09
1.26558e-07
2.92705e-07
7.43717e-08
9.73833e-07
3.73426e-06
2.42267e-06
1.34575e-12
1.31749e-12
1.42324e-12
1.48761e-12
1.54818e-12
1.57771e-12
2.28422e-12
4.29665e-11
3.27319e-09
1.37761e-07
9.87903e-06
1.83947e-09
8.59128e-08
1.13861e-08
7.6602e-10
1.75588e-10
1.64378e-10
1.67461e-11
1.6636e-11
1.65936e-11
1.6636e-11
1.80994e-11
1.47312e-12
1.45681e-12
1.29377e-12
2.28656e-12
2.72872e-12
3.1575e-12
3.81776e-12
5.05651e-12
6.48408e-11
2.16423e-09
1.34676e-07
7.06528e-06
9.23885e-10
3.85641e-10
2.65665e-10
1.48431e-10
1.21738e-10
1.71093e-10
8.69752e-11
4.59907e-11
3.68337e-11
2.85843e-11
2.1714e-11
6.24491e-12
2.08152e-12
1.26485e-12
1.8797e-12
1.91528e-12
1.69949e-12
1.68567e-12
2.48141e-12
2.26639e-11
5.06997e-10
2.32059e-08
1.14602e-06
1.05495e-10
4.05491e-11
4.66833e-11
5.36262e-11
5.94545e-11
6.50578e-11
7.87116e-11
8.65339e-11
7.60755e-11
4.77589e-11
2.77169e-11
7.87252e-12
8.32249e-13
-6.02049e-13
-9.37816e-13
-8.26756e-13
-4.60929e-13
-6.41132e-30
3.74293e-13
2.90712e-12
3.75289e-11
8.53269e-10
1.89173e-07
3.0894e-11
4.04834e-11
4.68698e-11
5.50114e-11
5.8273e-11
5.65839e-11
5.14284e-11
4.96375e-11
4.84988e-11
4.11383e-11
2.1835e-11
6.10333e-12
-9.36972e-14
-1.59378e-12
-2.21883e-12
-2.08019e-12
-1.47926e-12
-7.1481e-13
0
2.1081e-13
1.71305e-12
3.93237e-11
2.28723e-09
2.91271e-11
4.16524e-11
4.85373e-11
5.45832e-11
5.77238e-11
5.71541e-11
5.24383e-11
4.87974e-11
4.68796e-11
4.05329e-11
2.14e-11
4.97683e-12
-6.81928e-13
-2.55103e-12
-3.42852e-12
-3.37327e-12
-2.68472e-12
-1.74727e-12
-8.25477e-13
2.10166e-16
2.21555e-15
1.08046e-12
4.08787e-11
2.76806e-11
4.07741e-11
4.73241e-11
5.15611e-11
5.49909e-11
5.58945e-11
5.13011e-11
4.27892e-11
3.59859e-11
2.69733e-11
1.18808e-11
1.40991e-12
-1.5958e-12
-3.50723e-12
-4.59843e-12
-4.69743e-12
-4.01561e-12
-2.9494e-12
-1.84579e-12
-8.91562e-13
0
-4.1359e-28
1.19693e-12
2.52172e-11
3.66602e-11
4.23341e-11
4.46725e-11
4.6996e-11
4.82127e-11
4.63249e-11
3.69434e-11
2.50298e-11
1.54411e-11
6.16396e-12
-6.50509e-14
-2.15594e-12
-4.07698e-12
-5.32672e-12
-5.59569e-12
-5.01942e-12
-3.96345e-12
-2.77822e-12
-1.69387e-12
-8.30751e-13
-1.36371e-13
1.30705e-14
2.14189e-11
2.92425e-11
3.34709e-11
3.44054e-11
3.45299e-11
3.40656e-11
3.19838e-11
2.66516e-11
1.64263e-11
7.63779e-12
1.94665e-12
-5.86381e-13
-2.29846e-12
-4.05411e-12
-5.28014e-12
-5.62526e-12
-5.1925e-12
-4.28121e-12
-3.19797e-12
-2.15738e-12
-1.27634e-12
-6.44335e-13
-1.74766e-13
1.59647e-11
2.02217e-11
2.26157e-11
2.23846e-11
2.10066e-11
1.8793e-11
1.56768e-11
1.19905e-11
7.33814e-12
2.98836e-12
3.26234e-13
-7.38917e-13
-2.06598e-12
-3.49002e-12
-4.47091e-12
-4.77215e-12
-4.45387e-12
-3.74116e-12
-2.87694e-12
-2.0417e-12
-1.32262e-12
-7.78006e-13
-4.04973e-13
8.78812e-12
1.11081e-11
1.21093e-11
1.1201e-11
9.50706e-12
7.38841e-12
5.09392e-12
3.0903e-12
1.59341e-12
5.36805e-13
-6.69199e-14
-6.6539e-13
-1.62519e-12
-2.59571e-12
-3.2488e-12
-3.42576e-12
-3.17579e-12
-2.66016e-12
-2.04965e-12
-1.47152e-12
-9.99771e-13
-6.30548e-13
-3.75295e-13
2.50241e-12
3.902e-12
4.28873e-12
3.61635e-12
2.62833e-12
1.67936e-12
9.09695e-13
4.10055e-13
1.39714e-13
8.66898e-15
-1.34193e-13
-5.28906e-13
-1.10609e-12
-1.66695e-12
-2.01723e-12
-2.07193e-12
-1.87676e-12
-1.53948e-12
-1.16433e-12
-8.22907e-13
-5.60735e-13
-3.66424e-13
-2.28498e-13
2.18981e-13
6.19917e-13
7.33947e-13
5.6045e-13
3.33433e-13
1.6548e-13
6.8679e-14
2.17062e-14
2.03461e-15
-2.86958e-14
-1.40844e-13
-3.58604e-13
-6.43717e-13
-9.07431e-13
-1.05323e-12
-1.04163e-12
-9.09642e-13
-7.20204e-13
-5.26609e-13
-3.6019e-13
-2.3621e-13
-1.55463e-13
-9.77133e-14
3.5968e-15
2.98844e-14
4.12555e-14
2.92122e-14
1.4405e-14
5.61587e-15
1.83925e-15
2.5244e-16
-4.47734e-15
-2.99536e-14
-9.47131e-14
-2.00065e-13
-3.20746e-13
-4.15804e-13
-4.52688e-13
-4.26097e-13
-3.55748e-13
-2.69403e-13
-1.88484e-13
-1.23612e-13
-7.6852e-14
-4.90595e-14
-3.11611e-14
8.24136e-18
3.3195e-16
5.84234e-16
4.17079e-16
1.94732e-16
7.16209e-17
1.24219e-17
-3.56891e-16
-4.37661e-15
-1.87727e-14
-4.85097e-14
-9.01292e-14
-1.31041e-13
-1.56447e-13
-1.58428e-13
-1.398e-13
-1.10096e-13
-7.90101e-14
-5.25797e-14
-3.29034e-14
-1.95721e-14
-1.14767e-14
-7.08711e-15
8.75792e-22
3.40015e-19
1.58951e-18
1.40066e-18
7.99787e-19
2.06154e-19
-5.18093e-18
-3.53386e-16
-2.5374e-15
-8.70945e-15
-1.95083e-14
-3.24452e-14
-4.2877e-14
-4.69383e-14
-4.38785e-14
-3.59538e-14
-2.64238e-14
-1.77666e-14
-1.11117e-14
-6.55197e-15
-3.68107e-15
-1.98644e-15
-1.12031e-15
-4.12151e-18
-1.40248e-18
-2.49689e-19
-1.35768e-19
-2.39128e-19
-3.21463e-19
-7.96827e-18
-1.92823e-16
-1.0547e-15
-3.08106e-15
-6.10061e-15
-9.11689e-15
-1.09149e-14
-1.08834e-14
-9.31371e-15
-7.02006e-15
-4.76653e-15
-2.97172e-15
-1.7284e-15
-9.50001e-16
-4.98565e-16
-2.51833e-16
-1.23349e-16
-2.68885e-18
-2.1678e-18
-1.49009e-18
-1.0481e-18
-7.65929e-19
-5.92879e-19
-4.87552e-18
-7.12534e-17
-3.22307e-16
-8.21806e-16
-1.44778e-15
-1.94023e-15
-2.09144e-15
-1.8842e-15
-1.46313e-15
-1.00513e-15
-6.24521e-16
-3.57518e-16
-1.91479e-16
-9.71439e-17
-4.71527e-17
-2.20702e-17
-1.0022e-17
-9.35586e-19
-1.2283e-18
-9.84046e-19
-7.14176e-19
-5.01825e-19
-3.5514e-19
-1.75556e-18
-1.85227e-17
-7.17982e-17
-1.61491e-16
-2.52995e-16
-3.02275e-16
-2.90937e-16
-2.34691e-16
-1.6384e-16
-1.01638e-16
-5.72585e-17
-2.98213e-17
-1.45706e-17
-6.75919e-18
-3.00599e-18
-1.29154e-18
-5.39359e-19
-2.34055e-19
-3.72351e-19
-3.23858e-19
-2.37692e-19
-1.62759e-19
-1.10777e-19
-4.14105e-19
-3.40641e-18
-1.14799e-17
-2.27737e-17
-3.15233e-17
-3.32506e-17
-2.82733e-17
-2.02182e-17
-1.257e-17
-6.97703e-18
-3.53173e-18
-1.65866e-18
-7.32909e-19
-3.08188e-19
-1.24477e-19
-4.8657e-20
-1.85133e-20
-4.46336e-20
-7.84845e-20
-6.74823e-20
-4.88312e-20
-3.2774e-20
-2.15806e-20
-6.64397e-20
-4.42142e-19
-1.29408e-18
-2.24421e-18
-2.70881e-18
-2.48772e-18
-1.84647e-18
-1.15843e-18
-6.35512e-19
-3.12914e-19
-1.41135e-19
-5.92718e-20
-2.34875e-20
-8.87856e-21
-3.23043e-21
-1.13959e-21
-3.89632e-22
-6.64108e-21
-1.22427e-20
-1.01711e-20
-7.05878e-21
-4.52954e-21
-2.83872e-21
-7.39952e-21
-4.02459e-20
-1.0102e-19
-1.50368e-19
-1.55291e-19
-1.22246e-19
-7.82768e-20
-4.26854e-20
-2.04948e-20
-8.88342e-21
-3.54393e-21
-1.32138e-21
-4.66245e-22
-1.57293e-22
-5.11699e-23
-1.61446e-23
-4.13478e-24
-7.8473e-22
-1.45575e-21
-1.14244e-21
-7.45368e-22
-4.48542e-22
-2.62654e-22
-5.79455e-22
-2.55208e-21
-5.36671e-21
-6.68455e-21
-5.78729e-21
-3.85397e-21
-2.10927e-21
-9.92264e-22
-4.14133e-22
-1.56963e-22
-5.50016e-23
-1.80743e-23
-5.63551e-24
-1.68355e-24
-4.8577e-25
-1.31764e-25
5.17105e-25
-7.47726e-23
-1.35014e-22
-9.82853e-23
-5.92175e-23
-3.27937e-23
-1.7582e-23
-3.22675e-23
-1.12383e-22
-1.91892e-22
-1.95116e-22
-1.39647e-22
-7.79993e-23
-3.6248e-23
-1.46177e-23
-5.26758e-24
-1.73318e-24
-5.29399e-25
-1.52122e-25
-4.15745e-26
-1.09073e-26
-2.75999e-27
1.61406e-28
3.61366e-25
-5.8342e-24
-9.97784e-24
-6.63307e-24
-3.63116e-24
-1.81626e-24
-8.7282e-25
-1.29907e-24
-3.46667e-24
-4.67374e-24
-3.81972e-24
-2.24286e-24
-1.04439e-24
-4.09482e-25
-1.40544e-25
-4.338e-26
-1.22815e-26
-3.23835e-27
-8.0514e-28
-1.90717e-28
-4.34263e-29
-9.15733e-30
4.43545e-28
1.52319e-25
-3.79626e-25
-6.01273e-25
-3.60308e-25
-1.76485e-25
-7.8308e-26
-3.30304e-26
-3.89447e-26
-7.75589e-26
-8.10025e-26
-5.28069e-26
-2.52828e-26
-9.74322e-27
-3.19288e-27
-9.22059e-28
-2.40552e-28
-5.77435e-29
-1.29379e-29
-2.73769e-30
-5.52598e-31
-1.07337e-31
3.75027e-32
1.18299e-28
3.6697e-26
-2.10608e-26
-3.03112e-26
-1.62015e-26
-7.00868e-27
-2.71474e-27
-9.86588e-28
-9.10716e-28
-1.33049e-27
-1.06592e-27
-5.49907e-28
-2.12102e-28
-6.65889e-29
-1.79093e-29
-4.26626e-30
-9.21353e-31
-1.83551e-31
-3.41965e-32
-6.0258e-33
-1.01413e-33
-1.64366e-34
4.54024e-32
1.91131e-29
5.18571e-27
-1.02234e-27
-1.31742e-27
-6.22611e-28
-2.35247e-28
-7.84647e-29
-2.41798e-29
-1.75056e-29
-1.87484e-29
-1.1353e-29
-4.54893e-30
-1.3828e-30
-3.45049e-31
-7.41452e-32
-1.41588e-32
-2.4565e-33
-3.93705e-34
-5.90654e-35
-8.38734e-36
-1.13833e-36
-1.40944e-37
1.10707e-32
1.74468e-30
3.80274e-28
-4.44934e-29
-5.07975e-29
-2.10922e-29
-6.90803e-30
-1.9628e-30
-5.05492e-31
-2.93746e-31
-2.30118e-31
-1.03753e-31
-3.13534e-32
-7.23737e-33
-1.37725e-33
-2.26389e-34
-3.31459e-35
-4.41654e-36
-5.44253e-37
-6.28256e-38
-6.86687e-39
-7.174e-40
4.39914e-39
2.54211e-34
6.19516e-32
7.88121e-30
-1.77064e-30
-1.77308e-30
-6.44266e-31
-1.82648e-31
-4.40018e-32
-9.37124e-33
-4.5431e-33
-2.64699e-33
-8.52742e-34
-1.83531e-34
-3.01808e-35
-4.09345e-36
-4.79765e-37
-5.01008e-38
-4.76294e-39
-4.18895e-40
-3.4521e-41
-2.69452e-42
-2.0097e-43
1.86125e-39
2.17122e-36
7.29385e-34
1.62283e-31
-6.44546e-32
-5.60181e-32
-1.82487e-32
-4.49113e-33
-9.20954e-34
-1.59692e-34
-6.94087e-35
-3.02682e-35
-6.40379e-36
-8.77684e-37
-9.07285e-38
-7.67457e-39
-5.57749e-40
-3.59512e-41
-2.1017e-42
-1.1331e-43
-5.70927e-45
-2.71888e-46
-8.38183e-48
4.30353e-40
5.83171e-38
2.03355e-36
1.52876e-35
-2.12387e-33
-1.57191e-33
-5.12558e-34
-1.13661e-34
-1.93186e-35
-2.64475e-36
-1.15396e-36
-3.68551e-37
-4.03389e-38
-2.49967e-39
-1.08516e-40
-3.68232e-42
-1.04125e-43
-2.55582e-45
-5.60031e-47
-1.11813e-48
-2.06668e-50
-3.58296e-52
-5.89318e-54
2.90011e-54
2.12113e-48
9.01619e-46
1.06659e-44
0.99992
0.999919
0.999919
0.999919
0.999912
0.999917
0.999919
0.999919
0.999914
0.999914
0.999353
0.999879
0.52323
0.407987
0.26404
0.138559
0.0109971
0.0102206
0.00992266
0.0097807
0.0280385
0.0280391
0.0221123
0.00171763
0.0280399
0.0280385
0.00529094
0.00127176
0.0280379
0.0154898
0.00127176
0.00127096
0.0148243
0.0156487
0.00433367
0.00127157
0.00736587
0.0154805
0.0156254
0.0102351
0.00262746
0.0139425
0.0153628
0.0150141
0.000154001
0.00400328
0.0106334
0.0140201
4.53482e-05
0.000216538
0.000789523
0.00110243
3.29895e-06
6.53129e-06
5.86203e-06
3.38413e-06
4.51377e-08
1.62199e-07
1.56301e-07
1.43194e-07
4.26586e-10
2.2762e-09
3.43547e-09
5.07431e-09
6.88124e-12
4.61633e-11
6.26925e-11
1.57531e-10
1.34538e-13
7.6039e-13
1.81632e-12
1.0514e-11
2.58494e-29
2.51417e-14
5.19537e-13
2.71892e-12
-1.24913e-13
8.16187e-17
4.11803e-14
2.28128e-12
-2.05526e-13
-1.19239e-13
-3.9977e-14
1.24222e-13
-1.55252e-13
-1.05894e-13
-6.65332e-14
-2.41833e-14
-7.50233e-14
-5.45031e-14
-3.81705e-14
-2.48614e-14
-2.49277e-14
-1.88337e-14
-1.37825e-14
-9.79713e-15
-5.65485e-15
-4.33523e-15
-3.23973e-15
-2.37448e-15
-8.68082e-16
-6.5946e-16
-4.94439e-16
-3.67318e-16
-8.93399e-17
-6.50246e-17
-4.77994e-17
-3.54976e-17
-6.36481e-18
-4.12672e-18
-2.83099e-18
-2.04124e-18
-3.23587e-19
-1.90482e-19
-1.10106e-19
-6.8154e-20
-1.04065e-20
-5.73012e-21
-3.0779e-21
-1.58979e-21
-2.00153e-22
-9.54786e-23
-3.49802e-23
-1.76738e-24
-5.17841e-25
3.76036e-24
1.32798e-23
2.59423e-23
1.91905e-24
4.22468e-24
1.01281e-23
1.98682e-23
1.25417e-24
2.83354e-24
6.85706e-24
1.45322e-23
5.37767e-25
1.20646e-24
3.03322e-24
8.07855e-24
1.31072e-25
2.90411e-25
9.26726e-25
3.73504e-24
1.87758e-26
4.34438e-26
2.59352e-25
1.56696e-24
1.43701e-27
4.08591e-27
6.03632e-26
4.04903e-25
3.61941e-29
2.01663e-28
6.43605e-27
3.63401e-26
1.19806e-30
1.24727e-29
3.75304e-28
1.44145e-27
1.70818e-35
7.09106e-35
3.47066e-33
8.82912e-33
5.81178e-45
8.20978e-46
4.07214e-47
-4.86318e-66
0.999919
0.995243
0.433682
0.358199
0.604491
0.61891
0.452796
0.675407
0.772434
0.772819
0.773055
0.733617
0.526072
0.290953
0.203914
0.203914
0.341567
0.653016
0.550082
0.999911
0.908115
0.332241
0.0948281
0.249134
0.376359
0.285087
0.337733
0.365699
0.38111
0.454821
0.527321
0.556581
0.556601
0.553754
0.551117
0.424879
0.184653
0.33062
0.852112
0.266786
0.0578504
0.0183406
0.168625
0.301565
0.234892
0.0523736
0.0412793
0.0412156
0.0996772
0.206901
0.266648
0.237619
0.240017
0.301796
0.212714
0.0565735
0.0500271
0.0259413
0.0147109
0.0172687
0.00868963
0.0923065
0.141888
0.0961243
0.0494507
0.0542233
0.0664466
0.0948753
0.203
0.235495
0.219044
0.190547
0.206196
0.208385
0.0677264
0.0498054
0.00363455
0.00129475
0.00187689
0.00181106
0.00206507
0.00167908
0.0516407
0.169875
0.169886
0.169886
0.153325
0.0772064
0.0735456
0.0926058
0.0907295
0.0618402
0.0846682
0.0599627
0.0498436
0.00127482
0.00126332
0.00128328
0.00138079
0.00147816
0.00153462
0.0052074
0.0890689
0.140081
0.0683241
0.00273938
0.00224949
0.0022583
0.00261722
0.00782601
0.0332278
0.0686406
0.0683134
0.0654229
0.00127188
0.0012747
0.00126899
0.00128777
0.0050054
0.00202426
0.00604787
0.00608511
0.00324502
0.00325282
0.0031405
0.00457621
0.00257332
0.0013555
0.00567412
0.0441176
0.0614522
0.0631854
0.0527221
0.00127135
0.00127145
0.00134685
0.0152176
0.0214525
0.016661
0.0078485
0.00806316
0.00756184
0.00612013
0.00822515
0.011748
0.011748
0.00519369
0.000533429
3.20898e-05
8.27025e-05
0.0105218
0.0121894
0.00127103
0.00127238
0.00588477
0.0214525
0.0214523
0.0214525
0.0214392
0.0213734
0.0207813
0.0144546
0.0138649
0.00721325
0.00651479
0.00519943
3.20898e-05
3.18982e-05
3.18953e-05
3.18878e-05
3.19185e-05
0.00332501
0.00145094
0.00967392
0.0213336
0.0153422
0.00838587
0.00957044
0.00614794
1.45094e-07
1.45043e-07
1.47149e-07
1.50698e-07
2.25251e-07
0.000392001
4.20605e-05
3.20795e-05
7.06304e-05
0.000146486
3.1342e-05
0.0143573
0.00712449
0.00322253
0.0075214
0.000840729
8.63483e-05
1.44768e-07
1.44812e-07
1.44768e-07
1.45415e-07
1.48779e-07
2.01396e-07
2.52028e-07
0.000148852
0.000380343
0.000164217
0.000259412
0.000242806
3.06395e-05
0.00965309
0.00332447
7.9513e-06
1.16211e-05
1.08414e-05
4.69448e-05
2.77257e-05
1.44768e-07
1.5825e-07
1.20034e-06
1.14474e-06
1.48787e-06
1.16984e-05
0.000253045
0.000380343
0.000380343
0.000205622
5.63934e-10
5.63935e-10
0.000542642
3.02456e-05
9.00569e-07
7.07581e-07
5.16015e-06
6.21081e-06
2.49529e-06
1.93907e-07
1.73951e-07
1.47603e-06
1.99269e-06
1.7241e-06
6.20265e-05
0.00027645
0.000296803
8.41974e-05
5.63937e-10
5.63935e-10
5.63936e-10
2.79577e-06
7.33138e-07
3.60165e-07
3.35072e-07
2.65389e-07
1.28412e-07
1.27732e-07
1.26947e-07
1.26843e-07
1.1375e-07
1.13892e-07
1.34308e-06
9.14269e-05
0.000121596
4.33721e-06
6.18168e-10
6.11947e-10
5.63937e-10
5.63937e-10
1.24698e-07
5.0485e-08
3.36922e-07
3.60165e-07
3.66063e-06
6.619e-06
4.06673e-06
4.63446e-07
1.1375e-07
1.1375e-07
1.1375e-07
1.13318e-06
1.25993e-05
1.27515e-05
1.54812e-09
1.53103e-09
3.98331e-09
5.63965e-10
5.6394e-10
5.08072e-09
1.902e-08
8.83602e-07
4.00579e-06
8.06897e-06
8.07866e-06
8.07876e-06
2.96157e-06
1.1375e-07
1.1375e-07
1.2077e-07
8.38724e-07
1.14047e-07
7.03885e-09
7.02335e-09
1.11604e-08
7.74129e-09
5.66047e-10
5.64093e-10
5.11689e-10
1.84053e-08
1.42164e-06
5.63013e-06
8.07866e-06
8.07874e-06
8.07866e-06
1.79289e-06
1.13772e-07
1.1375e-07
2.47345e-07
1.11169e-06
2.42186e-08
2.14908e-08
7.5623e-09
1.21264e-08
6.84086e-09
7.87205e-10
5.71706e-10
3.164e-10
1.3425e-08
6.58806e-07
9.59574e-07
2.61711e-06
4.43682e-06
2.58062e-06
1.13148e-06
2.89386e-07
1.13774e-07
3.7616e-07
1.11169e-06
2.40143e-07
2.90338e-08
5.92753e-09
9.4648e-09
1.01661e-08
6.75952e-07
2.43134e-08
2.73954e-10
4.51303e-09
3.45327e-10
3.10713e-10
5.39322e-10
5.75697e-09
3.47578e-10
2.22833e-07
3.17619e-07
1.40697e-07
3.14092e-07
2.51403e-07
9.84818e-08
3.10287e-10
3.09884e-10
5.09833e-10
3.20848e-09
1.66291e-06
1.84149e-07
4.2326e-11
1.03649e-10
4.54548e-12
4.38271e-12
6.44682e-12
5.81551e-12
5.76929e-12
1.70305e-12
6.16758e-08
3.24883e-07
3.30207e-07
6.51646e-08
3.12799e-10
3.09884e-10
3.0962e-10
1.4445e-10
1.0324e-08
1.66319e-06
3.70203e-07
6.71695e-13
3.29692e-14
6.09432e-14
6.00543e-14
7.35745e-14
3.47412e-13
7.80139e-13
2.05228e-13
3.64454e-13
2.37292e-07
3.30294e-07
3.29526e-07
4.25226e-08
4.67196e-10
3.3203e-10
1.44074e-10
6.20791e-08
1.66282e-06
7.53061e-07
4.67165e-16
3.45778e-16
7.82215e-15
9.1232e-15
7.96289e-15
4.1745e-14
3.95863e-13
1.98254e-13
2.05228e-13
2.86625e-09
2.77688e-07
2.8079e-07
4.42705e-08
9.75746e-10
2.3e-10
1.43759e-10
1.33901e-07
1.35962e-06
7.26329e-06
-7.97547e-15
-4.19101e-16
1.36131e-18
8.32778e-17
2.39549e-16
8.5059e-15
9.71952e-14
8.47623e-14
7.95224e-11
7.97108e-11
1.4351e-08
1.79024e-08
1.44813e-08
3.98329e-09
2.2378e-10
1.43405e-10
1.9777e-07
2.88303e-07
5.51172e-05
-4.49926e-15
-1.88882e-15
-6.18958e-16
-1.71698e-16
0
2.12593e-15
1.16539e-14
6.57386e-14
7.20732e-11
1.49006e-10
2.17888e-10
3.43632e-10
3.97131e-10
4.10002e-10
1.89783e-10
1.43261e-10
1.16895e-07
1.01667e-08
5.94665e-05
-1.20149e-15
-6.00246e-16
-2.70237e-16
-1.04804e-16
-3.39778e-18
5.43922e-16
4.71859e-15
8.37667e-14
1.82948e-11
4.7443e-11
6.55149e-11
1.23927e-10
1.7281e-10
1.64232e-10
1.45515e-10
1.43252e-10
9.26707e-11
9.26707e-11
5.94628e-05
-1.95858e-16
-1.07057e-16
-5.51659e-17
-2.17085e-17
2.86651e-17
3.68154e-16
3.11377e-15
3.49543e-14
7.96427e-13
3.4281e-12
1.3064e-11
3.98369e-11
6.97842e-11
1.00385e-10
1.31734e-10
1.51114e-10
9.26737e-11
9.26707e-11
5.72519e-05
-1.9747e-17
-1.18178e-17
-6.59437e-18
-3.7271e-19
4.25699e-17
3.68755e-16
2.52763e-15
1.6388e-14
9.7802e-14
5.74366e-13
3.13653e-12
1.19889e-11
2.96039e-11
5.92312e-11
1.16966e-10
1.51114e-10
1.11638e-10
9.16275e-11
5.31928e-05
-1.17622e-18
-7.86598e-19
-2.73896e-19
3.97291e-18
4.6958e-17
3.84983e-16
2.55901e-15
1.45462e-14
7.24875e-14
3.3223e-13
1.42273e-12
5.31686e-12
1.58547e-11
4.16711e-11
1.15981e-10
1.51047e-10
9.03885e-11
9.05066e-11
5.87128e-05
-3.76114e-20
-1.9591e-20
2.545e-19
4.30338e-18
4.75602e-17
4.05078e-16
2.71842e-15
1.51464e-14
7.40212e-14
3.24288e-13
1.29325e-12
4.60121e-12
1.40099e-11
4.01413e-11
1.27243e-10
1.44762e-10
9.02853e-11
2.57251e-09
6.05657e-05
-3.60415e-22
1.17868e-20
2.74166e-19
4.10584e-18
4.59927e-17
4.12669e-16
2.9577e-15
1.70737e-14
8.29823e-14
3.52731e-13
1.37693e-12
4.83024e-12
1.48541e-11
4.4547e-11
1.80335e-10
1.70656e-10
9.00142e-11
1.00801e-05
6.05815e-05
9.96327e-22
9.06068e-20
8.47232e-19
6.31211e-18
5.42282e-17
4.72054e-16
3.64559e-15
2.28039e-14
1.14137e-13
4.76505e-13
1.78057e-12
6.15411e-12
1.95913e-11
8.58699e-11
2.50161e-10
2.30253e-10
8.94868e-11
1.86749e-05
6.05815e-05
8.08221e-21
2.11534e-18
3.67685e-17
1.45306e-16
3.77116e-16
1.2866e-15
6.9485e-15
4.24247e-14
2.356e-13
1.08169e-12
4.17468e-12
1.48147e-11
4.06619e-11
1.41196e-10
2.52761e-10
2.14492e-10
8.91729e-11
1.79716e-05
6.05815e-05
2.72804e-20
1.38678e-17
3.65013e-16
1.99419e-15
5.73673e-15
1.63594e-14
5.31447e-14
1.78961e-13
6.60022e-13
2.71128e-12
1.07121e-11
2.52325e-11
4.22209e-11
1.07025e-10
1.43162e-10
8.91741e-11
8.94308e-11
6.20552e-06
6.05812e-05
4.66581e-20
3.59244e-17
1.23957e-15
1.04247e-14
4.11993e-14
1.43876e-13
4.98855e-13
1.36273e-12
3.12827e-12
7.87054e-12
1.65511e-11
1.7222e-11
1.72526e-11
1.74743e-11
1.79555e-11
7.67472e-10
8.91991e-11
9.14746e-11
4.40987e-05
5.22692e-20
5.1054e-17
2.36189e-15
3.04672e-14
1.62038e-13
6.79306e-13
2.61922e-12
6.99034e-12
1.07955e-11
1.47651e-11
1.4812e-11
1.8169e-10
7.99677e-10
7.35073e-10
3.54324e-09
7.9752e-09
1.33978e-10
1.27364e-10
4.3029e-05
2.06754e-20
4.38988e-17
3.04096e-15
5.45283e-14
4.11215e-13
1.98248e-12
9.08323e-12
2.03013e-11
2.05275e-11
1.4815e-11
2.29742e-10
2.64519e-09
8.71282e-09
6.74939e-09
1.08254e-08
1.08017e-08
1.48499e-10
2.31965e-06
5.93326e-05
5.98457e-21
9.94977e-18
1.85768e-15
6.60008e-14
6.71857e-13
4.09215e-12
1.97021e-11
4.51458e-11
4.19631e-11
1.48581e-11
5.48888e-10
9.07801e-09
1.08423e-08
8.3854e-09
9.40449e-09
9.92442e-09
1.77495e-10
8.7357e-06
6.3745e-05
9.56004e-22
1.79967e-18
4.53767e-16
3.69659e-14
7.08765e-13
5.79855e-12
3.39192e-11
9.23007e-11
9.33601e-11
3.76583e-11
6.31206e-10
7.1707e-09
9.38064e-09
4.85039e-09
3.77291e-09
4.3547e-09
2.18478e-10
7.09332e-06
6.37476e-05
4.35766e-23
1.74105e-19
7.02976e-17
8.58044e-15
2.84143e-13
4.48779e-12
3.39806e-11
1.39492e-10
1.86972e-10
1.5966e-10
4.22649e-10
1.79574e-09
1.98012e-09
3.3336e-10
2.8521e-10
2.47948e-10
2.4576e-10
7.57931e-07
6.37072e-05
9.45167e-25
1.21705e-20
4.9637e-18
1.14217e-15
7.83182e-14
1.58099e-12
2.3695e-11
1.40546e-10
2.71683e-10
2.64769e-10
2.27472e-10
2.10652e-10
2.19555e-10
3.33798e-07
4.0139e-07
4.826e-08
2.47961e-10
2.65124e-05
6.35897e-05
1.47446e-32
1.34444e-25
1.98488e-20
4.03313e-17
8.27611e-15
3.19788e-13
7.35752e-12
1.15904e-10
2.77665e-10
2.89873e-10
2.10654e-10
2.10559e-10
1.54889e-07
5.89762e-07
5.90138e-07
2.62004e-07
5.74877e-10
3.76995e-05
6.34266e-05
5.8911e-43
3.69682e-35
1.85166e-26
6.07668e-21
2.02193e-17
6.47601e-15
7.43202e-13
3.26269e-11
1.46717e-10
2.7074e-10
2.1056e-10
2.10559e-10
1.36036e-08
4.25761e-07
5.90138e-07
2.22373e-07
2.99476e-09
5.96823e-09
4.80249e-05
)
;

boundaryField
{
    leftWall
    {
        type            zeroGradient;
    }
    rightWall
    {
        type            zeroGradient;
    }
    lowerWall
    {
        type            zeroGradient;
    }
    atmosphere
    {
        type            inletOutlet;
        inletValue      uniform 0;
        value           nonuniform List<scalar> 
46
(
0
0
0
0
0
0
0
0
0
0
0
0
0
0
0
0
0
0
0
0
0
0
0
0
0
0
0
0
0
0
0
0
0
7.43202e-13
3.26269e-11
1.46717e-10
2.7074e-10
2.1056e-10
2.10559e-10
1.36036e-08
4.25761e-07
5.90138e-07
2.22373e-07
2.99476e-09
5.96823e-09
4.80249e-05
)
;
    }
    defaultFaces
    {
        type            empty;
    }
}


// ************************************************************************* //
