/*--------------------------------*- C++ -*----------------------------------*\
  =========                 |
  \\      /  F ield         | OpenFOAM: The Open Source CFD Toolbox
   \\    /   O peration     | Website:  https://openfoam.org
    \\  /    A nd           | Version:  9
     \\/     M anipulation  |
\*---------------------------------------------------------------------------*/
FoamFile
{
    format      ascii;
    class       surfaceScalarField;
    location    "3.86";
    object      alphaPhi0.water;
}
// * * * * * * * * * * * * * * * * * * * * * * * * * * * * * * * * * * * * * //

dimensions      [0 3 -1 0 0 0 0];

internalField   nonuniform List<scalar> 
4432
(
-5.06747e-07
5.06747e-07
-8.76848e-07
3.7009e-07
-1.17524e-06
2.98398e-07
-1.43053e-06
2.55282e-07
-1.66117e-06
2.3064e-07
-1.87292e-06
2.11754e-07
-2.06444e-06
1.91513e-07
-2.23346e-06
1.69023e-07
-2.37845e-06
1.44995e-07
-2.49699e-06
1.18537e-07
-2.58276e-06
8.57789e-08
-2.62389e-06
4.1127e-08
-2.60144e-06
-2.24446e-08
-2.49142e-06
-1.10012e-07
-2.26799e-06
-2.23425e-07
-1.91507e-06
-3.52917e-07
-1.52373e-06
-3.91333e-07
-1.57943e-06
6.35839e-08
-2.4442e-06
8.48037e-07
-2.99823e-06
5.55752e-07
-2.58444e-06
-4.10708e-07
-1.38485e-06
-1.20442e-06
-1.38968e-06
-4.5414e-07
9.60892e-07
-8.05776e-07
7.21709e-07
-1.11665e-06
6.0928e-07
-1.39968e-06
5.38301e-07
-1.65972e-06
4.90685e-07
-1.89745e-06
4.49479e-07
-2.11104e-06
4.0511e-07
-2.29837e-06
3.56343e-07
-2.45738e-06
3.04013e-07
-2.58478e-06
2.45938e-07
-2.6747e-06
1.75705e-07
-2.71793e-06
8.43592e-08
-2.70288e-06
-3.74913e-08
-2.61714e-06
-1.95747e-07
-2.45298e-06
-3.8758e-07
-2.22395e-06
-5.81939e-07
-1.99919e-06
-6.15679e-07
-1.96526e-06
6.00479e-08
-2.08931e-06
9.71719e-07
-2.20962e-06
6.30844e-07
-1.93599e-06
-6.84416e-07
-1.22111e-06
-1.91939e-06
-2.61545e-06
-4.11297e-07
1.3722e-06
-7.60711e-07
1.07111e-06
-1.082e-06
9.30575e-07
-1.38325e-06
8.39551e-07
-1.66317e-06
7.70594e-07
-1.91945e-06
7.05765e-07
-2.14946e-06
6.35109e-07
-2.35079e-06
5.57669e-07
-2.52114e-06
4.74367e-07
-2.65717e-06
3.81962e-07
-2.75373e-06
2.72258e-07
-2.80357e-06
1.34199e-07
-2.79879e-06
-4.22792e-08
-2.73407e-06
-2.60466e-07
-2.61373e-06
-5.07917e-07
-2.46189e-06
-7.33785e-07
-2.30336e-06
-7.61201e-07
-2.12348e-06
-8.68437e-08
-1.89409e-06
7.42052e-07
-1.68594e-06
4.22424e-07
-1.42574e-06
-9.72142e-07
-9.1484e-07
-2.43029e-06
-3.53029e-06
-3.8359e-07
1.75579e-06
-7.36718e-07
1.42423e-06
-1.07082e-06
1.26468e-06
-1.38877e-06
1.1575e-06
-1.68645e-06
1.06827e-06
-1.95958e-06
9.78894e-07
-2.20458e-06
8.80106e-07
-2.41875e-06
7.71833e-07
-2.59969e-06
6.55299e-07
-2.74409e-06
5.2636e-07
-2.84747e-06
3.75633e-07
-2.90427e-06
1.90987e-07
-2.90933e-06
-3.72163e-08
-2.86189e-06
-3.07911e-07
-2.77189e-06
-5.97913e-07
-2.66384e-06
-8.41841e-07
-2.54854e-06
-8.71751e-07
-2.25142e-06
-3.43121e-07
-1.8463e-06
3.3666e-07
-1.43516e-06
1.10039e-08
-1.03818e-06
-1.38499e-06
-5.88657e-07
-2.87981e-06
-4.11889e-06
-3.66763e-07
2.12256e-06
-7.27443e-07
1.7849e-06
-1.07634e-06
1.61357e-06
-1.41116e-06
1.49232e-06
-1.72609e-06
1.38319e-06
-2.01548e-06
1.26828e-06
-2.27494e-06
1.13956e-06
-2.50146e-06
9.98357e-07
-2.69266e-06
8.46494e-07
-2.8453e-06
6.79008e-07
-2.95548e-06
4.85817e-07
-3.01895e-06
2.54453e-07
-3.03243e-06
-2.37343e-08
-2.99719e-06
-3.43157e-07
-2.92402e-06
-6.71077e-07
-2.83193e-06
-9.33935e-07
-2.71392e-06
-9.89756e-07
-2.39922e-06
-6.35026e-07
-1.86905e-06
-1.74409e-07
-1.32102e-06
-5.44817e-07
-8.34851e-07
-1.90659e-06
-3.73388e-07
-3.34128e-06
-4.49229e-06
-3.59895e-07
2.48246e-06
-7.31789e-07
2.15679e-06
-1.09648e-06
1.97826e-06
-1.44825e-06
1.84409e-06
-1.78e-06
1.71494e-06
-2.08508e-06
1.57336e-06
-2.35834e-06
1.41282e-06
-2.59658e-06
1.2366e-06
-2.79744e-06
1.04736e-06
-2.95774e-06
8.39312e-07
-3.07402e-06
6.02099e-07
-3.14303e-06
3.2347e-07
-3.1626e-06
-4.16578e-09
-3.13421e-06
-3.71553e-07
-3.06656e-06
-7.3872e-07
-2.9714e-06
-1.0291e-06
-2.82834e-06
-1.13282e-06
-2.52306e-06
-9.39578e-07
-1.97493e-06
-7.19155e-07
-1.36617e-06
-1.16994e-06
-8.39939e-07
-2.43283e-06
-3.27982e-07
-3.85324e-06
-4.82029e-06
-3.63511e-07
2.84597e-06
-7.49202e-07
2.54248e-06
-1.12967e-06
2.35874e-06
-1.49786e-06
2.21227e-06
-1.84565e-06
2.06274e-06
-2.16548e-06
1.89319e-06
-2.45152e-06
1.69885e-06
-2.70039e-06
1.48547e-06
-2.90984e-06
1.25681e-06
-3.07659e-06
1.00607e-06
-3.19751e-06
7.23008e-07
-3.27017e-06
3.96134e-07
-3.29304e-06
1.87002e-08
-3.26682e-06
-3.97781e-07
-3.19704e-06
-8.08507e-07
-3.08929e-06
-1.13685e-06
-2.92047e-06
-1.30164e-06
-2.60311e-06
-1.25693e-06
-2.08997e-06
-1.2323e-06
-1.51387e-06
-1.74605e-06
-1.0181e-06
-2.9286e-06
-4.96701e-07
-4.37463e-06
-5.31715e-06
-3.80384e-07
3.22636e-06
-7.78386e-07
2.94048e-06
-1.17295e-06
2.7533e-06
-1.55662e-06
2.59593e-06
-1.91925e-06
2.42537e-06
-2.2524e-06
2.22634e-06
-2.5496e-06
1.99606e-06
-2.80748e-06
1.74335e-06
-3.02389e-06
1.47322e-06
-3.19526e-06
1.17743e-06
-3.31857e-06
8.46322e-07
-3.39232e-06
4.69881e-07
-3.41553e-06
4.19076e-08
-3.38786e-06
-4.25458e-07
-3.31163e-06
-8.84729e-07
-3.18859e-06
-1.25989e-06
-2.99836e-06
-1.49184e-06
-2.67999e-06
-1.5753e-06
-2.21252e-06
-1.69977e-06
-1.71426e-06
-2.2443e-06
-1.31941e-06
-3.32345e-06
-9.92067e-07
-4.70197e-06
-6.30921e-06
-6.62166e-08
6.62155e-08
1.03555e-06
-1.10199e-06
1.98217e-06
-9.48368e-07
2.54499e-06
-5.63731e-07
2.79686e-06
-2.51316e-07
2.77759e-06
1.98292e-08
2.54438e-06
2.33764e-07
2.33224e-06
2.30842e-07
2.41003e-06
-8.23965e-08
2.81922e-06
-4.22837e-07
2.73014e-06
8.20837e-08
1.29735e-06
1.36323e-06
-1.63037e-07
1.45978e-06
2.86102e-07
-4.49492e-07
2.726e-06
-2.43832e-06
5.44105e-06
-2.79892e-06
6.07301e-06
-7.28662e-07
2.88215e-06
3.19065e-06
2.88193e-06
4.70088e-07
-4.03873e-07
1.2455e-06
-1.8835e-06
1.843e-06
-1.55376e-06
2.21943e-06
-9.44366e-07
2.37477e-06
-4.06474e-07
2.35974e-06
3.35848e-08
2.23393e-06
3.60102e-07
2.0538e-06
4.11702e-07
1.97964e-06
-7.55379e-09
2.0554e-06
-5.15823e-07
1.79701e-06
3.10357e-07
1.12873e-06
1.98939e-06
7.58357e-07
1.8301e-06
1.37587e-06
-1.04632e-06
2.69632e-06
-3.7464e-06
4.13566e-06
-4.23889e-06
4.77859e-06
-1.37206e-06
2.78113e-06
5.14138e-06
5.66283e-06
8.19767e-07
-1.22696e-06
1.32734e-06
-2.39079e-06
1.70715e-06
-1.93356e-06
1.96858e-06
-1.20579e-06
2.07903e-06
-5.17193e-07
2.06918e-06
4.3517e-08
1.97246e-06
4.56898e-07
1.80522e-06
5.7221e-07
1.65972e-06
1.3079e-07
1.55046e-06
-4.14403e-07
1.32111e-06
5.11215e-07
1.16985e-06
2.1406e-06
1.27463e-06
1.72527e-06
1.86306e-06
-1.62366e-06
2.42982e-06
-4.31379e-06
3.17567e-06
-4.985e-06
3.39257e-06
-1.70123e-06
2.17173e-06
6.33052e-06
8.08893e-06
9.25345e-07
-2.15321e-06
1.30382e-06
-2.76911e-06
1.5608e-06
-2.19051e-06
1.75536e-06
-1.40053e-06
1.85082e-06
-6.12932e-07
1.85378e-06
4.05673e-08
1.77178e-06
5.34706e-07
1.62219e-06
7.16709e-07
1.44143e-06
3.10359e-07
1.21673e-06
-1.97785e-07
1.10508e-06
6.15121e-07
1.25122e-06
1.9944e-06
1.61494e-06
1.3615e-06
1.94163e-06
-1.89977e-06
2.09107e-06
-4.46351e-06
2.36675e-06
-5.26096e-06
2.61984e-06
-2.05869e-06
1.61831e-06
7.18349e-06
9.63309e-06
8.84927e-07
-3.03858e-06
1.19791e-06
-3.08184e-06
1.39545e-06
-2.3879e-06
1.56125e-06
-1.56632e-06
1.66037e-06
-7.12045e-07
1.68771e-06
1.32448e-08
1.62916e-06
5.90673e-07
1.51118e-06
8.31965e-07
1.33049e-06
4.89951e-07
1.07936e-06
5.50169e-08
1.02391e-06
6.5853e-07
1.34975e-06
1.70363e-06
1.81014e-06
9.65336e-07
1.85753e-06
-1.92732e-06
1.701e-06
-4.30726e-06
1.64485e-06
-5.20536e-06
1.88869e-06
-2.30296e-06
1.15395e-06
7.72001e-06
1.07065e-05
7.58947e-07
-3.79797e-06
1.03409e-06
-3.35711e-06
1.21134e-06
-2.56517e-06
1.3744e-06
-1.72948e-06
1.49304e-06
-8.30683e-07
1.5595e-06
-5.33243e-08
1.54431e-06
6.06063e-07
1.46546e-06
9.11038e-07
1.31501e-06
6.41574e-07
1.09352e-06
2.77239e-07
1.09487e-06
6.55549e-07
1.47432e-06
1.33793e-06
1.83932e-06
6.05387e-07
1.69057e-06
-1.77936e-06
1.28786e-06
-3.90454e-06
9.67714e-07
-4.88556e-06
1.01838e-06
-2.3542e-06
7.75389e-07
7.95828e-06
1.12426e-05
5.64362e-07
-4.3632e-06
8.3283e-07
-3.6258e-06
1.01008e-06
-2.74253e-06
1.18525e-06
-1.90477e-06
1.3362e-06
-9.82054e-07
1.45826e-06
-1.75569e-07
1.5034e-06
5.61393e-07
1.47526e-06
9.39047e-07
1.37433e-06
7.42377e-07
1.21569e-06
4.32605e-07
1.24609e-06
6.22537e-07
1.563e-06
1.01909e-06
1.78107e-06
3.86881e-07
1.49162e-06
-1.48993e-06
8.79405e-07
-3.29233e-06
2.89914e-07
-4.29608e-06
1.69126e-07
-2.23481e-06
4.4864e-07
7.67606e-06
1.20216e-05
3.93416e-07
-4.75647e-06
6.18537e-07
-3.85078e-06
7.90173e-07
-2.91424e-06
9.85528e-07
-2.10017e-06
1.17519e-06
-1.1717e-06
1.36829e-06
-3.68279e-07
1.49244e-06
4.37278e-07
1.53491e-06
8.96611e-07
1.49142e-06
7.74638e-07
1.3961e-06
5.10531e-07
1.44674e-06
5.6304e-07
1.66833e-06
8.06181e-07
1.73156e-06
3.23195e-07
1.3039e-06
-1.06269e-06
5.03878e-07
-2.49232e-06
-3.46552e-07
-3.44598e-06
-6.71632e-07
-1.87722e-06
2.09558e-07
6.79064e-06
1.2402e-05
-8.17666e-07
4.04402e-06
-1.73823e-06
3.86104e-06
-2.64903e-06
3.66411e-06
-3.51888e-06
3.46578e-06
-4.33414e-06
3.24063e-06
-5.08049e-06
2.97269e-06
-5.74238e-06
2.65795e-06
-6.31326e-06
2.31423e-06
-6.78957e-06
1.94952e-06
-7.16118e-06
1.54905e-06
-7.42139e-06
1.10653e-06
-7.57122e-06
6.19712e-07
-7.61203e-06
8.27179e-08
-7.54066e-06
-4.96828e-07
-7.35034e-06
-1.07506e-06
-7.04075e-06
-1.56947e-06
-6.58546e-06
-1.94713e-06
-5.92547e-06
-2.23529e-06
-5.08287e-06
-2.54236e-06
-4.28907e-06
-3.03809e-06
-3.84353e-06
-3.76898e-06
-4.00766e-06
-4.53781e-06
-4.92524e-06
-5.39157e-06
-8.56073e-07
3.02595e-06
-1.80792e-06
2.98122e-06
-2.69184e-06
2.81216e-06
-3.50535e-06
2.64715e-06
-4.29739e-06
2.52016e-06
-5.04107e-06
2.36085e-06
-5.70932e-06
2.14539e-06
-6.30292e-06
1.90654e-06
-6.81349e-06
1.6466e-06
-7.19742e-06
1.32117e-06
-7.44834e-06
9.38671e-07
-7.58478e-06
5.16958e-07
-7.63353e-06
5.6543e-08
-7.5976e-06
-4.76462e-07
-7.41939e-06
-1.05163e-06
-7.08721e-06
-1.61686e-06
-6.59776e-06
-2.12698e-06
-5.93865e-06
-2.57785e-06
-5.1739e-06
-2.98412e-06
-4.49311e-06
-3.37511e-06
-4.07106e-06
-3.80828e-06
-3.93453e-06
-4.25511e-06
-4.51643e-06
-3.92573e-06
-2.96234e-07
3.59997e-08
-5.04811e-07
8.20266e-09
-7.32681e-07
0
-9.70078e-07
0
-1.17745e-06
2.68531e-08
-1.37912e-06
1.00026e-08
-1.60925e-06
2.26828e-08
-1.82545e-06
1.35866e-08
-2.01451e-06
8.29593e-09
-2.19826e-06
2.6691e-09
-2.36811e-06
0
-2.50279e-06
0
-2.60646e-06
-6.67026e-09
-2.67645e-06
-1.17298e-07
-2.74467e-06
-2.47495e-08
-2.78246e-06
-7.68115e-09
-2.72601e-06
-1.04442e-08
-2.54177e-06
-1.23166e-08
-2.24208e-06
-2.09362e-08
-1.9255e-06
-4.76131e-08
-1.73016e-06
-4.90782e-08
-1.75616e-06
-1.60279e-08
-2.41012e-09
-1.86205e-06
-1.46956e-08
2.72139e-08
-4.10138e-09
3.54611e-12
-5.34986e-09
0
-1.44972e-08
0
-2.19375e-08
0
-1.90069e-08
0
-2.37973e-08
1.51964e-08
-3.11283e-08
8.72629e-09
-2.55879e-08
0
-2.09499e-08
0
-1.83408e-08
0
-1.69068e-08
0
-1.18615e-08
-3.96112e-09
-2.30626e-09
-1.35347e-08
-2.00826e-09
-2.35862e-08
-2.10517e-09
-6.59338e-09
-1.99566e-09
-9.87007e-09
-1.75062e-09
-1.20936e-08
-1.44096e-09
-2.09172e-08
-1.05229e-09
-4.77777e-08
-6.72759e-10
-4.92766e-08
-8.88676e-10
-1.55977e-08
-1.55709e-09
-1.58561e-09
-2.21809e-09
6.46689e-09
3.02364e-10
4.46037e-11
-3.57168e-10
1.02332e-08
-5.92284e-09
5.76733e-09
-1.3454e-08
9.19351e-09
-2.05517e-08
2.11689e-09
-1.76285e-08
0
-2.93503e-08
8.24628e-09
-2.93342e-08
1.91205e-09
-3.00673e-08
4.0211e-09
-2.9214e-08
2.33262e-09
-2.52323e-08
-1.04642e-09
-1.91948e-08
-6.31945e-09
-1.17144e-08
-1.7398e-08
8.27042e-10
-3.25615e-08
1.56781e-09
-1.44972e-08
6.329e-09
-1.97541e-08
1.65847e-08
-2.09266e-08
3.12977e-08
-7.11779e-09
3.88947e-08
-2.17923e-08
3.84645e-08
-1.52285e-08
1.38995e-09
1.67798e-09
2.00894e-09
-2.10951e-09
6.87715e-09
3.58474e-09
1.04124e-09
8.1498e-09
1.53151e-09
1.1914e-08
3.57049e-09
3.84005e-09
1.89138e-09
2.78061e-10
1.79594e-09
2.90079e-09
3.33649e-09
6.24318e-09
7.53428e-09
5.52025e-09
3.72273e-09
2.85042e-10
-1.40387e-09
5.37865e-10
-3.97541e-09
6.41222e-10
-4.1886e-09
-2.10617e-10
-4.13155e-09
-6.74352e-12
-3.89331e-09
-2.63604e-13
-7.04058e-09
-1.6607e-10
1.57166e-09
-1.45236e-09
9.41998e-09
-5.94413e-09
1.37636e-08
-3.57651e-09
1.24359e-08
-2.2223e-08
4.0939e-09
-7.44393e-09
1.56893e-09
-1.60711e-09
-4.96818e-10
1.50564e-09
1.99854e-09
-4.60666e-10
4.81717e-09
1.74009e-09
1.15137e-11
1.82201e-09
3.70507e-10
2.61919e-09
5.56744e-09
5.03144e-09
8.6001e-09
2.36099e-09
6.41104e-09
0
5.49158e-09
0
6.94144e-09
0
2.28674e-09
0
1.82046e-10
0
3.69131e-11
0
1.059e-11
2.61138e-13
1.20683e-13
-1.05825e-13
2.45271e-14
-3.99905e-12
-1.66655e-10
-3.22157e-12
-1.12755e-10
-3.07801e-11
-1.13203e-10
-1.16562e-09
-3.54917e-10
-2.38205e-09
-1.03894e-09
-7.49427e-09
-5.18798e-10
-6.58516e-09
-8.57266e-10
-1.29472e-09
-2.61595e-10
8.71532e-10
4.48203e-10
1.29513e-09
4.15042e-11
0
3.18299e-11
1.31269e-11
1.38738e-10
8.55331e-13
2.15506e-09
3.55792e-12
2.59561e-09
0
2.9401e-09
0
1.56439e-09
4.10079e-13
4.97959e-11
0
1.58498e-12
0
5.45637e-13
6.19677e-13
2.02804e-13
3.43266e-13
4.14991e-13
3.41204e-14
2.18492e-12
1.32663e-12
5.51886e-12
-2.55223e-12
1.22359e-12
-2.64482e-12
-2.05663e-11
-2.37713e-12
0
-9.30619e-11
-8.25079e-10
-6.00498e-10
-2.22409e-09
-4.51335e-09
-1.55799e-09
-5.30709e-09
-3.51499e-10
-2.18178e-09
4.40933e-10
3.15425e-11
-2.29304e-09
3.3601e-09
1.72342e-13
0
1.12407e-12
0
1.99471e-12
0
4.75915e-12
0
3.17235e-12
2.84289e-14
2.78208e-12
1.06967e-14
3.10994e-12
1.91392e-14
6.49834e-13
9.32133e-14
1.04032e-13
1.1846e-13
8.69952e-14
6.20925e-13
7.50869e-14
3.40368e-13
6.34192e-14
3.09571e-14
2.81232e-11
6.33993e-12
2.75771e-11
5.24532e-12
0
-1.27377e-13
4.27882e-12
-4.96282e-14
0
-3.23073e-15
-3.34455e-11
-5.69311e-15
-9.76525e-10
-2.69863e-12
-1.54353e-09
-2.79678e-09
-2.75539e-10
-1.50646e-09
9.96917e-10
-1.35327e-09
-1.41881e-09
1.28573e-09
1.94458e-13
1.38664e-14
7.44571e-13
2.84249e-13
6.07987e-13
3.08107e-13
1.43224e-14
2.41507e-14
1.05593e-14
1.34474e-15
8.64583e-15
4.65327e-15
1.03346e-14
9.52354e-15
2.5035e-14
1.54949e-14
2.54283e-14
5.2301e-14
9.67326e-12
4.58997e-12
1.53304e-11
1.08411e-11
7.36132e-12
5.99747e-12
3.67699e-12
0
4.54458e-12
0
6.30521e-14
0
3.22355e-15
-3.63691e-16
1.07045e-16
-1.41932e-16
7.03462e-17
-5.72256e-15
-2.67908e-12
-1.95633e-14
-1.64517e-10
-1.42471e-11
-1.34297e-10
-3.24925e-11
9.60705e-11
-2.7647e-11
-6.55152e-12
6.16498e-12
6.06438e-15
3.52047e-15
6.25858e-13
5.1991e-13
3.04171e-13
2.829e-13
0
2.03188e-14
6.16489e-15
3.95504e-15
1.60787e-15
1.28309e-15
1.60781e-15
1.59677e-15
2.78732e-12
1.14805e-13
1.00546e-11
7.29807e-12
8.89883e-12
8.7023e-12
1.20115e-11
1.07134e-11
4.10435e-14
5.28846e-13
2.36009e-14
1.06147e-14
3.93761e-14
0
1.82592e-14
0
3.05108e-16
1.00464e-17
2.16965e-16
-5.57584e-17
3.20556e-15
-1.30252e-16
2.89337e-15
-1.17974e-14
1.26867e-15
-1.42468e-11
-2.87519e-14
-3.2552e-11
-3.09948e-14
-2.7918e-11
-6.76911e-12
-3.58235e-14
2.13461e-15
1.82524e-15
8.8996e-15
7.52428e-15
7.62525e-15
0
9.47391e-15
3.55014e-15
1.33919e-15
5.01072e-15
2.02236e-15
4.07244e-15
2.4493e-13
5.63508e-15
5.76388e-13
1.12886e-12
3.85357e-12
6.82209e-12
2.72672e-12
7.25475e-13
3.17345e-13
0
1.57215e-14
0
6.87478e-14
5.96921e-14
2.17845e-14
2.44473e-14
0
6.29369e-17
1.33178e-16
7.67433e-18
1.20629e-16
-4.52338e-17
9.77302e-17
-1.09326e-16
1.30909e-12
-4.10969e-12
1.35477e-13
-2.36426e-11
-4.19984e-12
-3.3576e-11
-8.75724e-12
-3.03878e-11
-2.48593e-11
-3.60824e-12
5.12007e-19
7.11703e-15
9.39509e-17
3.30464e-14
1.0649e-16
2.62181e-14
8.12997e-19
3.00878e-16
-2.28607e-16
1.67045e-15
-2.4035e-16
1.83887e-14
-2.79445e-15
4.6194e-14
7.88504e-15
0
4.62943e-14
0
1.94986e-15
0
7.45526e-16
0
2.63334e-15
3.94517e-21
1.06999e-14
1.65657e-15
2.20902e-15
3.26163e-16
8.59766e-17
7.61261e-17
8.09345e-17
8.93735e-18
1.31907e-16
-9.81752e-17
6.18988e-16
-5.98382e-16
1.93785e-12
-6.53546e-13
-3.43299e-12
-1.8209e-11
-9.64996e-12
-2.73023e-11
-1.43157e-11
-2.56654e-11
-2.07015e-11
-1.84168e-11
-6.39789e-14
9.23142e-14
-8.71127e-14
4.68142e-13
-1.12883e-15
1.90999e-13
-9.25845e-16
1.5699e-16
-2.62506e-15
2.0175e-15
-7.2568e-15
4.77313e-15
-6.54377e-15
4.41917e-15
-4.81675e-15
0
-1.34674e-15
0
-7.8359e-17
4.22501e-16
-2.57918e-17
1.25859e-16
-5.62886e-18
3.68108e-17
1.28602e-17
2.88635e-18
2.29775e-17
1.12399e-17
3.95013e-17
6.70372e-17
6.30404e-17
1.78661e-17
1.10316e-16
-4.49757e-17
2.87307e-15
-8.01661e-17
0
-1.99722e-14
-4.44208e-12
-2.89035e-12
-1.11066e-11
-1.71918e-11
-2.14285e-11
-1.52867e-11
-9.13832e-12
-1.70298e-11
-2.27662e-13
3.10052e-13
-2.51922e-13
7.66732e-13
-1.48302e-15
3.33648e-13
-1.45454e-15
1.77064e-16
-2.83759e-15
1.73395e-15
-3.95141e-15
2.21799e-15
-4.03955e-15
1.83715e-15
-3.05568e-15
1.85079e-15
-9.57363e-16
8.86763e-16
-1.24035e-16
2.78979e-16
-2.58356e-17
5.32657e-17
-9.72319e-18
5.26411e-18
-7.98268e-18
1.4588e-18
-1.64754e-17
1.92559e-18
-2.86842e-17
8.42603e-18
-3.24129e-17
1.88744e-18
-3.57336e-17
-2.64608e-17
-3.0817e-17
-8.83446e-17
-1.9677e-14
-3.26606e-16
-6.45265e-13
-6.80282e-16
-4.65302e-12
-8.23225e-16
-2.77099e-12
-7.79989e-16
-1.3563e-15
-1.41829e-13
-3.24327e-13
5.77681e-13
-2.51304e-13
9.68882e-13
-1.27667e-15
5.05442e-13
-1.2563e-15
2.01298e-16
-1.68448e-15
7.90439e-16
-1.67074e-15
8.83198e-16
-1.09555e-15
4.90288e-16
-5.05807e-16
1.4935e-16
-1.39027e-16
4.05073e-17
-2.09854e-17
7.93048e-18
-1.07524e-18
1.00346e-17
-2.01597e-19
5.50235e-19
-1.83047e-19
1.51489e-19
-5.30267e-19
1.56567e-19
-5.20018e-18
7.67389e-19
-2.9745e-17
2.34715e-20
-7.87272e-17
-8.04076e-18
-1.96062e-16
-6.78379e-17
-1.53966e-16
-1.59321e-16
-1.8417e-16
-3.29018e-16
-2.17483e-16
-4.67508e-16
-2.50008e-16
-4.22805e-16
-2.64387e-16
-1.02457e-15
-3.61746e-13
8.25033e-13
-3.64395e-13
1.2469e-12
-5.48638e-16
7.449e-13
-5.32306e-16
2.28862e-16
-6.09834e-16
3.03318e-16
-4.48136e-16
2.90833e-16
-1.22345e-16
8.71461e-17
-2.62162e-17
6.85744e-18
-2.28369e-18
1.12268e-17
2.1413e-18
2.09842e-19
5.09884e-18
-1.36253e-18
5.10614e-18
-2.86164e-18
3.92895e-18
-2.36007e-18
1.82992e-18
-1.30578e-18
-6.81772e-19
-3.0691e-19
-3.77443e-18
7.11087e-20
-5.43209e-17
-5.8596e-19
-1.98961e-16
-6.57193e-18
-3.26464e-16
-4.91816e-17
-3.61033e-16
-7.11894e-17
-3.91422e-16
-1.60192e-16
-3.40663e-16
-1.58688e-16
-1.02918e-16
-1.84364e-16
-3.98474e-13
7.64196e-13
-4.18716e-13
1.54251e-12
-3.46234e-16
7.37866e-13
-3.35015e-16
2.59924e-16
-2.31209e-16
2.42376e-16
-1.17581e-16
2.23505e-16
-7.80349e-18
2.96118e-17
4.89862e-19
4.38281e-19
5.52383e-18
-3.2822e-19
7.8978e-18
-3.30256e-18
8.91801e-18
-4.13341e-18
8.57956e-18
-3.92343e-18
7.30477e-18
-2.93854e-18
5.4274e-18
-1.66305e-18
3.02149e-18
-5.14626e-19
-6.1047e-20
2.43266e-19
-1.39495e-18
6.6524e-19
-2.80691e-17
5.76048e-19
-9.9276e-17
-8.53137e-19
-1.76808e-16
-3.95091e-18
-2.15027e-16
-1.19961e-17
-2.10975e-16
-1.92908e-17
-1.93421e-17
-1.05738e-16
-3.94944e-13
5.7937e-13
-3.90307e-13
1.81325e-12
-4.39785e-16
5.72154e-13
-4.28536e-16
2.92576e-16
-2.97062e-16
3.72553e-16
-5.81457e-17
3.61421e-16
-3.84094e-18
2.62452e-17
3.32176e-18
3.38916e-19
6.66636e-18
-2.13261e-18
8.38826e-18
-3.68206e-18
9.02311e-18
-3.89859e-18
8.75617e-18
-3.37117e-18
7.83856e-18
-2.40771e-18
6.56713e-18
-1.30773e-18
5.1558e-18
-3.25913e-19
3.63844e-18
3.18178e-19
1.87554e-18
6.74147e-19
-5.96202e-20
8.08132e-19
-1.08779e-18
7.51073e-19
-8.1096e-18
5.37475e-19
-1.9921e-17
2.17165e-19
-2.58177e-17
-2.77651e-19
-3.6013e-19
-2.18545e-17
-2.93192e-13
1.89244e-13
-4.60828e-13
9.12758e-13
-1.04749e-15
3.79251e-14
-1.03635e-15
3.26599e-16
-7.60771e-16
1.50399e-15
-9.5242e-17
8.33853e-16
-7.84874e-18
5.73321e-17
1.08212e-18
4.71352e-18
3.87317e-18
-7.02064e-19
5.38407e-18
-2.09421e-18
6.20693e-18
-2.36368e-18
6.4045e-18
-2.09903e-18
6.06977e-18
-1.50316e-18
5.36913e-18
-7.71443e-19
4.48935e-18
-8.61409e-20
3.59734e-18
2.90383e-19
2.76931e-18
5.11784e-19
2.0085e-18
6.00426e-19
1.26259e-18
5.83752e-19
4.89282e-19
4.99927e-19
-1.17311e-20
3.82271e-19
-1.24196e-19
2.55663e-19
1.44153e-19
-4.30249e-19
-4.49363e-14
3.03084e-16
-8.84876e-15
4.74839e-16
-1.45777e-15
0
-1.43959e-15
2.27618e-15
-1.20056e-15
2.29657e-15
-1.45293e-16
1.03861e-15
-2.74039e-17
1.00969e-16
-1.11591e-17
2.3776e-17
-1.54897e-18
9.16599e-18
1.25047e-18
1.96215e-18
2.3828e-18
-5.47761e-19
3.17851e-18
-7.72153e-19
3.48786e-18
-6.72205e-19
3.35779e-18
-3.4497e-19
2.96723e-18
2.24667e-20
2.4809e-18
2.05591e-19
1.98995e-18
3.3238e-19
1.54893e-18
3.8264e-19
1.17334e-18
3.70098e-19
8.55078e-19
3.20286e-19
5.78907e-19
2.55144e-19
3.47579e-19
1.87839e-19
1.24291e-19
1.62079e-19
-1.89007e-16
8.32007e-16
-1.89636e-16
4.29644e-16
-1.02433e-15
8.05369e-16
-1.29061e-15
2.77151e-15
-7.38419e-16
2.4696e-15
-1.76682e-16
1.08444e-15
-6.70494e-17
1.54508e-16
-4.32364e-17
6.94392e-17
-2.31696e-17
3.91453e-17
-8.77593e-18
1.66159e-17
-1.44104e-18
4.75081e-18
7.36327e-19
7.98816e-19
1.33243e-18
-1.48168e-19
1.58895e-18
-1.03403e-19
1.56293e-18
2.57943e-20
1.38298e-18
1.14621e-19
1.14245e-18
1.85769e-19
9.03264e-19
2.15348e-19
6.9541e-19
2.08154e-19
5.25145e-19
1.79091e-19
3.85712e-19
1.424e-19
2.65695e-19
1.07178e-19
7.57005e-20
1.59513e-19
-4.7354e-17
1.25458e-15
-1.12868e-16
4.93019e-16
-7.16255e-16
7.48486e-16
-9.20144e-16
2.00583e-15
-6.16405e-16
1.80645e-15
-1.68438e-16
5.37211e-16
-1.04993e-16
1.95735e-16
-8.12606e-17
1.24242e-16
-5.74068e-17
7.87419e-17
-3.08085e-17
4.25796e-17
-1.12993e-17
1.6357e-17
-2.15294e-18
4.01033e-18
2.18222e-19
4.59105e-19
5.38511e-19
-1.3249e-20
6.4776e-19
1.026e-20
6.30428e-19
5.08569e-20
5.43283e-19
9.05111e-20
4.35863e-19
1.08312e-19
3.34745e-19
1.05313e-19
2.5086e-19
8.99602e-20
1.85797e-19
7.05654e-20
1.33749e-19
5.25332e-20
3.7839e-20
8.62991e-20
-3.80055e-17
4.15107e-15
-6.702e-17
5.20126e-16
-1.74331e-16
7.98486e-16
-3.26458e-16
9.00504e-16
-2.14663e-16
5.36492e-16
-1.31996e-16
2.93633e-16
-1.15715e-16
2.16785e-16
-9.85989e-17
1.66114e-16
-7.82598e-17
1.10087e-16
-4.9973e-17
6.53737e-17
-2.2993e-17
2.89383e-17
-6.55488e-18
8.40212e-18
-8.25352e-19
1.21736e-18
1.13175e-19
3.11646e-20
2.08745e-19
9.8079e-22
2.37025e-19
1.85168e-20
2.16087e-19
3.98877e-20
1.76118e-19
4.98763e-20
1.34365e-19
4.87826e-20
9.86373e-20
4.11632e-20
7.12516e-20
3.1534e-20
5.12216e-20
2.2791e-20
1.62232e-20
3.46286e-20
-2.85695e-17
3.02783e-14
-4.96089e-17
5.39103e-16
-6.55272e-17
8.12489e-16
-7.81021e-17
9.11012e-16
-8.75303e-17
4.7991e-16
-9.34318e-17
2.7182e-16
-9.70519e-17
2.24169e-16
-9.16915e-17
1.89999e-16
-7.66467e-17
1.32312e-16
-5.4194e-17
8.08587e-17
-2.8371e-17
3.85958e-17
-9.06979e-18
1.19469e-17
-1.32363e-18
1.69767e-18
6.35285e-21
2.53445e-20
5.23329e-20
-1.2451e-21
7.47868e-20
6.53186e-21
7.23641e-20
1.66677e-20
5.96184e-20
2.14979e-20
4.48097e-20
2.09957e-20
3.1827e-20
1.73879e-20
2.19665e-20
1.29054e-20
1.52509e-20
8.91707e-21
6.0406e-21
1.05525e-20
0
5.88415e-14
-1.29361e-13
1.53536e-12
-6.25137e-14
7.05079e-12
-6.21778e-17
2.76279e-12
-5.87071e-17
4.74751e-16
-5.90932e-17
2.70575e-16
-6.65333e-17
2.26216e-16
-6.6296e-17
1.9591e-16
-5.77471e-17
1.45472e-16
-4.28832e-17
8.9662e-17
-2.35409e-17
4.31825e-17
-7.30257e-18
1.27566e-17
-8.72281e-19
1.69438e-18
-2.01736e-20
1.35154e-20
1.13397e-20
-8.95204e-22
1.96541e-20
2.60556e-21
1.97726e-20
6.71397e-21
1.62578e-20
8.72075e-21
1.1904e-20
8.4385e-21
8.07396e-21
6.8276e-21
5.20926e-21
4.88734e-21
3.3333e-21
3.20906e-21
2.01074e-21
2.28996e-21
0
6.03334e-14
-9.76256e-14
2.72303e-12
-2.85325e-13
7.3243e-12
-1.54545e-13
5.92023e-12
-2.39487e-17
7.69981e-13
-2.81937e-17
2.73188e-16
-2.93006e-17
2.25691e-16
-2.9255e-17
1.98199e-16
-2.78369e-17
1.48445e-16
-2.09772e-17
9.15362e-17
-1.11029e-17
4.36479e-17
-2.92711e-18
1.23909e-17
-2.40982e-19
1.18172e-18
-3.86708e-21
3.22063e-21
2.03409e-21
-1.56048e-22
3.59734e-21
1.14317e-21
3.63768e-21
2.66399e-21
2.92946e-21
3.36381e-21
2.04926e-21
3.17031e-21
1.29244e-21
2.48534e-21
7.4879e-22
1.70932e-21
4.06028e-22
1.0659e-21
6.18462e-22
2.4728e-22
1.73858e-14
4.29479e-14
4.86308e-14
2.15825e-12
1.59478e-13
7.30113e-12
1.44747e-13
6.02448e-12
0
1.45754e-12
9.72661e-18
6.0859e-16
7.09635e-18
2.26691e-16
6.67554e-18
1.98422e-16
5.1588e-18
1.45944e-16
3.24182e-18
8.90406e-17
1.48274e-18
3.90035e-17
3.30535e-19
8.76026e-18
2.08378e-20
5.5201e-19
2.0143e-22
8.74e-22
1.32134e-23
-1.0097e-23
-9.28238e-23
4.77681e-22
-1.66449e-22
1.01518e-21
-1.94521e-22
1.22318e-21
-1.91915e-22
1.11121e-21
-1.71897e-22
8.40619e-22
-1.43504e-22
5.56533e-22
-1.1294e-22
3.32724e-22
1.83895e-22
-8.45578e-23
1.70408e-15
4.12421e-14
8.89896e-14
3.62882e-13
5.64352e-13
6.91445e-12
5.96687e-13
6.08267e-12
0
1.12672e-12
4.18555e-17
1.16312e-15
3.96516e-17
2.27281e-16
4.12603e-17
1.90172e-16
3.40626e-17
1.33522e-16
2.25613e-17
7.56336e-17
9.63763e-18
2.84427e-17
1.62018e-18
4.7029e-18
5.73293e-20
1.74918e-19
2.36363e-22
2.09919e-22
1.15693e-23
-4.17213e-24
-4.09014e-22
2.02906e-22
-6.06642e-22
3.74437e-22
-5.84817e-22
4.22218e-22
-4.61592e-22
3.65782e-22
-3.22114e-22
2.6475e-22
-2.0653e-22
1.67382e-22
-1.24692e-22
9.51078e-23
4.95965e-23
-7.21722e-23
2.25828e-15
3.89822e-14
1.82425e-13
3.16843e-14
5.74366e-13
7.32478e-13
2.17813e-13
1.24587e-13
0
1.09676e-14
0
1.06766e-15
6.91603e-17
2.36104e-16
6.71466e-17
1.75433e-16
5.10823e-17
1.12896e-16
3.01387e-17
5.67257e-17
9.62737e-18
1.65655e-17
9.17789e-19
1.67759e-18
1.39395e-20
2.93773e-20
2.51321e-23
1.92581e-23
1.82402e-24
1.91359e-23
-3.24194e-22
8.35876e-23
-4.10504e-22
1.31517e-22
-3.64389e-22
1.37299e-22
-2.68991e-22
1.11864e-22
-1.75224e-22
7.64495e-23
-1.04015e-22
4.56323e-23
-5.74835e-23
2.44239e-23
1.19493e-23
-3.00531e-23
3.26447e-15
3.56717e-14
4.27819e-15
3.06182e-14
1.53901e-14
0
1.03608e-15
0
2.31749e-16
1.83394e-17
1.48943e-16
4.03989e-16
8.95272e-17
2.49739e-16
7.50756e-17
1.50078e-16
5.37173e-17
8.68017e-17
2.51873e-17
3.53646e-17
4.82401e-18
6.59767e-18
1.95364e-19
3.0642e-19
9.82454e-22
1.85395e-21
1.36494e-22
6.06048e-25
-9.73327e-23
8.92445e-24
-1.9521e-22
3.05125e-23
-2.06051e-22
4.29015e-23
-1.66809e-22
4.12585e-23
-1.14223e-22
3.12829e-23
-6.92162e-23
1.99532e-23
-3.81264e-23
1.11153e-23
-1.94476e-23
5.5442e-24
2.52164e-24
-9.31691e-24
3.04503e-15
3.2818e-14
4.47686e-15
2.91457e-14
6.83751e-16
6.2554e-15
2.04047e-16
1.57907e-15
1.27735e-16
4.35665e-16
1.15461e-16
2.49046e-16
9.69906e-17
1.75244e-16
7.226e-17
1.11188e-16
4.20689e-17
5.4931e-17
1.26437e-17
1.50908e-17
1.06058e-18
1.33054e-18
1.34528e-20
2.04102e-20
1.96664e-23
3.59603e-23
4.59724e-24
4.76928e-25
-6.72434e-23
3.17682e-24
-9.47358e-23
9.88506e-24
-8.65316e-23
1.26657e-23
-6.33764e-23
1.12142e-23
-3.98288e-23
7.85135e-24
-2.22329e-23
4.6249e-24
-1.12723e-23
2.37665e-24
-5.27633e-24
1.0915e-24
4.56028e-25
-2.30963e-24
2.39185e-15
1.54117e-14
4.60544e-15
2.11068e-14
1.45784e-15
1.01575e-14
4.38875e-16
2.89467e-15
1.47343e-16
6.56708e-16
9.74906e-17
2.1702e-16
7.74847e-17
1.19788e-16
5.14502e-17
6.4715e-17
2.05717e-17
2.26389e-17
2.89405e-18
3.09912e-18
7.5368e-20
9.06145e-20
2.48859e-22
3.75627e-22
4.81913e-23
2.76026e-25
-1.58862e-23
-2.00292e-24
-3.69135e-23
7.20241e-25
-3.91207e-23
2.75464e-24
-3.11078e-23
3.31282e-24
-2.05031e-23
2.70237e-24
-1.17141e-23
1.73446e-24
-5.95975e-24
9.33781e-25
-2.75154e-24
4.37316e-25
-1.16974e-24
1.82494e-25
6.90665e-26
-4.63431e-25
9.02418e-16
2.32824e-15
2.69909e-15
6.032e-15
1.71554e-15
5.66321e-15
5.44432e-16
2.57329e-15
1.49788e-16
6.30321e-16
7.46247e-17
1.64174e-16
4.674e-17
6.60319e-17
2.20231e-17
2.37678e-17
4.47137e-18
4.22171e-18
2.04593e-19
1.97393e-19
1.3272e-21
1.51644e-21
1.51946e-24
2.13571e-24
6.44946e-25
2.05335e-25
-1.15726e-23
-1.77832e-24
-1.55853e-23
4.26278e-26
-1.37267e-23
6.47032e-25
-9.59135e-24
7.53949e-25
-5.65595e-24
5.66874e-25
-2.909e-24
3.30923e-25
-1.33358e-24
1.60987e-25
-5.53791e-25
6.77995e-26
-2.11079e-25
2.53288e-26
8.54409e-27
-7.46963e-26
9.15865e-17
6.1032e-17
5.77013e-16
3.21854e-16
7.71335e-16
6.38189e-16
3.50748e-16
5.2139e-16
9.95995e-17
2.09056e-16
3.8134e-17
6.19647e-17
1.65932e-17
1.87707e-17
4.17877e-18
3.66743e-18
2.95299e-19
2.37324e-19
3.40095e-21
2.98435e-21
6.72811e-24
7.33299e-24
2.32764e-24
1.15237e-24
-2.85131e-24
-9.761e-25
-5.56507e-24
-1.04595e-24
-5.49868e-24
-1.8545e-25
-4.12097e-24
1.23172e-25
-2.52646e-24
1.46748e-25
-1.32135e-24
1.01839e-25
-6.0483e-25
5.35774e-26
-2.46614e-25
2.32406e-26
-9.08028e-26
8.66508e-27
-3.05527e-26
2.84754e-27
8.39789e-28
-9.49984e-27
2.36228e-18
5.80722e-19
2.90508e-17
3.10655e-18
5.55221e-17
9.79743e-18
5.65774e-17
1.36247e-17
2.49482e-17
1.19227e-17
9.2966e-18
6.0272e-18
2.59066e-18
1.63087e-18
2.61328e-19
1.59882e-19
4.98008e-21
3.40533e-21
1.64794e-23
1.46879e-23
5.24004e-24
2.54963e-26
-1.58223e-25
-8.29052e-26
-1.80435e-24
-6.85532e-25
-2.13463e-24
-4.93493e-25
-1.66441e-24
-1.32275e-25
-1.06042e-24
1.72746e-26
-5.65274e-25
2.40028e-26
-2.58987e-25
1.54569e-26
-1.0403e-25
7.24758e-27
-3.71403e-26
2.75694e-27
-1.19154e-26
8.9242e-28
-3.47207e-27
2.5237e-28
6.35097e-29
-9.29223e-28
5.9171e-20
1.1373e-20
5.33245e-19
4.64344e-20
1.14052e-18
6.37251e-20
1.43717e-18
8.24936e-20
1.44529e-18
1.0919e-19
7.16826e-19
9.57149e-20
1.2917e-19
2.69587e-20
4.78359e-21
1.58314e-21
2.9478e-23
1.68925e-23
6.07921e-26
5.49112e-26
3.23527e-26
2.26687e-26
-4.6525e-25
-2.6543e-25
-7.95259e-25
-3.44039e-25
-7.07361e-25
-2.02743e-25
-4.45089e-25
-5.95501e-26
-2.34991e-25
1.078e-27
-1.06981e-25
3.22983e-27
-4.22089e-26
1.962e-27
-1.46115e-26
8.08354e-28
-4.47704e-27
2.63622e-28
-1.22366e-27
7.21668e-29
-3.01196e-28
1.70499e-29
3.54321e-30
-6.75479e-29
1.48267e-21
1.32999e-22
1.33584e-20
1.12394e-21
1.7677e-20
9.02494e-22
1.78295e-20
6.67551e-22
1.63278e-20
4.6805e-22
1.02469e-20
3.13047e-22
1.44102e-21
8.16583e-23
3.03331e-23
4.62102e-24
1.26266e-25
5.5422e-26
4.44175e-26
3.86925e-26
-8.29509e-26
-6.28286e-26
-2.47385e-25
-1.57163e-25
-2.91046e-25
-1.46343e-25
-2.09044e-25
-7.49777e-26
-1.0741e-25
-2.17838e-26
-4.53702e-26
-1.70521e-27
-1.71558e-26
3.44409e-28
-5.68439e-27
2.07821e-28
-1.65385e-27
7.36068e-29
-4.23024e-28
1.98544e-29
-9.54539e-29
4.41562e-30
-1.91699e-29
8.33446e-31
1.36212e-31
-3.4722e-30
1.10987e-23
1.55445e-25
1.9607e-22
5.11223e-24
2.44182e-22
6.42143e-24
1.73013e-22
4.90071e-24
8.94467e-23
2.16783e-24
3.8674e-23
8.26381e-25
5.47837e-24
1.85689e-25
1.27479e-25
1.23837e-26
3.31038e-26
1.55247e-28
-8.04508e-27
-7.53206e-27
-5.90781e-26
-4.91694e-26
-1.00693e-25