/*--------------------------------*- C++ -*----------------------------------*\
  =========                 |
  \\      /  F ield         | OpenFOAM: The Open Source CFD Toolbox
   \\    /   O peration     | Website:  https://openfoam.org
    \\  /    A nd           | Version:  9
     \\/     M anipulation  |
\*---------------------------------------------------------------------------*/
FoamFile
{
    format      ascii;
    class       volVectorField;
    location    "10.45";
    object      U;
}
// * * * * * * * * * * * * * * * * * * * * * * * * * * * * * * * * * * * * * //

dimensions      [0 1 -1 0 0 0 0];

internalField   nonuniform List<vector> 
918
(
(2.47628 -0.138941 0)
(0.108704 0.722546 0)
(0.177537 1.13883 0)
(2.31834 0.153729 0)
(-0.0555356 1.23991 -1.21102e-19)
(-0.0924034 0.643931 -5.34448e-18)
(0.522247 0.841372 -3.08434e-19)
(0.287016 0.159886 -3.01005e-20)
(3.00616 -0.0195765 0)
(-0.0103819 0.493006 0)
(-0.0194916 0.621268 0)
(0.608478 0.00623032 0)
(0.0107054 0.439105 0)
(-0.00289968 0.421721 0)
(0.0149254 0.34657 -1.31894e-18)
(-0.00429283 0.743763 -9.24223e-20)
(0.324105 0.0765235 2.16177e-18)
(0.0783326 0.653618 -2.31176e-19)
(1.52894 0.128595 0)
(-0.02914 0.7313 0)
(0.20348 0.164211 -1.2781e-18)
(3.08302 -0.397396 0)
(2.92444 -0.506007 0)
(1.86113 -0.181117 0)
(0.518283 0.0397793 0)
(-0.0252228 0.521488 0)
(-0.00135368 0.494037 1.87508e-18)
(-0.0216686 1.49723 0)
(0.0864204 3.02303 0)
(0.175971 1.85296 0)
(-0.0312657 3.06852 0)
(0.0292347 1.59484 9.3109e-20)
(0.0231877 0.667872 0)
(-0.147425 0.775094 -2.04317e-22)
(-0.193914 1.0291 4.44674e-18)
(-0.0415772 1.04471 0)
(0.743739 -0.00610636 0)
(0.167251 0.255507 6.70245e-19)
(0.977319 1.49383 6.76672e-19)
(0.638647 0.773286 -5.35751e-19)
(0.788604 1.56243 6.49426e-20)
(0.41248 0.848537 -3.35137e-19)
(0.5783 0.320742 2.96034e-20)
(0.310455 0.16012 0)
(0.942374 0.554991 0)
(0.558369 0.318642 1.33047e-19)
(0.270635 0.170421 -1.36526e-19)
(0.871326 -0.0555268 0)
(3.02784 -0.00173754 0)
(3.00685 0.017849 0)
(3.20085 -0.417769 0)
(3.04288 -0.0742475 0)
(3.03116 -0.0388642 0)
(0.0165502 0.902138 -1.14354e-18)
(-0.0532181 1.00266 0)
(0.00287146 0.470336 0)
(-0.0319695 1.0168 0)
(-0.0134025 0.502796 0)
(-0.00282007 0.852169 0)
(-0.0531543 1.16736 0)
(-0.0127208 0.570692 0)
(-0.029736 1.22989 0)
(-0.00840438 0.659535 0)
(0.787313 0.0112077 0)
(1.17524 -0.00215072 0)
(0.620734 0.012128 0)
(1.13349 0.0172087 0)
(0.573826 0.00819515 0)
(0.225406 0.921982 1.97159e-18)
(0.0985379 1.2081 0)
(0.176302 1.06604 0)
(0.0331901 0.755774 2.21304e-23)
(0.0372233 0.498055 -2.94867e-18)
(0.0194616 0.747943 0)
(0.00595417 0.422033 0)
(-0.00071266 0.734569 4.55173e-24)
(0.000698091 0.414832 0)
(-0.0169865 0.743257 0)
(-0.012994 0.428077 0)
(0.0530571 0.663962 0)
(0.0513596 0.470186 0)
(0.0103238 0.629684 1.24704e-18)
(0.00195141 0.347259 0)
(-0.0532823 4.6101 0)
(0.00900731 1.41039 9.17563e-20)
(-0.00953081 0.760014 -1.17805e-19)
(0.658746 0.15635 -7.54127e-19)
(0.331966 0.0668266 -7.31349e-19)
(0.67007 0.175776 -2.265e-18)
(0.330641 0.0991501 -1.45905e-18)
(0.0791896 0.629249 0)
(0.178829 1.32674 1.93299e-19)
(0.179226 0.737188 -3.0847e-19)
(2.06052 0.260854 0)
(1.1072 0.118403 0)
(3.03313 0.103872 0)
(3.10394 0.446043 0)
(2.83924 0.377411 -1.01231e-17)
(2.57812 0.361298 7.76768e-18)
(-0.0695582 1.34741 0)
(-0.0100516 0.670739 0)
(-0.0138485 2.03134 0)
(-0.0555384 1.44199 0)
(-0.0505765 0.726504 0)
(0.458274 0.31046 4.04532e-19)
(0.234966 0.171118 0)
(2.296 -0.266454 0)
(1.32363 -0.11931 0)
(1.08622 0.0116545 0)
(1.02484 0.0178385 0)
(0.54627 0.0099658 0)
(1.0096 0.0553563 0)
(0.833935 0.0708252 0)
(0.34892 0.0287463 3.36827e-18)
(-0.00549235 0.451356 1.78898e-18)
(-0.0272207 0.784893 0)
(-0.0479841 0.848367 0)
(-0.0154022 0.460858 0)
(0.000129963 0.839723 1.8289e-18)
(6.99141e-05 0.487526 0)
(-0.00547931 0.845554 -5.62889e-18)
(-0.00488642 0.496761 1.89915e-18)
(0.0629331 3.70741 0)
(0.0553271 4.12548 0)
(-0.0144519 1.36586 -2.0805e-21)
(-0.0125182 1.32316 0)
(-0.00871234 0.719375 0)
(1.40832 0.0346024 0)
(0.75932 0.0152238 0)
(0.710369 0.0141742 0)
(1.41485 -0.0330193 0)
(0.772889 -0.00886027 0)
(0.33468 0.498358 -8.41547e-19)
(0.162541 0.241154 0)
(0.337854 0.529002 9.4335e-20)
(0.169703 0.278833 0)
(1.21843 1.36329 1.72633e-19)
(0.76321 0.727864 -4.05152e-19)
(0.409909 1.42714 0)
(0.602764 1.52985 0)
(0.301706 0.816737 0)
(0.150544 0.366485 -4.46036e-19)
(0.634199 0.292724 0)
(0.326568 0.140081 4.01242e-19)
(1.39873 1.28159 0)
(1.55422 1.14448 0)
(0.856675 0.650863 4.74039e-19)
(1.69872 0.933898 0)
(1.0468 0.430095 2.26284e-20)
(1.47203 0.00794707 0)
(1.5004 -0.0293586 0)
(0.801474 -0.0044981 0)
(1.9502 -0.199853 0)
(1.65043 -0.148268 0)
(1.05199 -0.0890151 0)
(3.06126 0.164824 0)
(3.03105 0.0687515 0)
(3.01022 0.0531364 0)
(0.0312303 1.60709 6.06721e-19)
(0.0157181 0.832754 0)
(0.0150392 1.68901 1.07761e-18)
(0.00144339 0.932896 -9.69537e-19)
(0.0630525 1.17351 1.94751e-19)
(0.0467841 1.01552 0)
(0.0385235 0.543689 0)
(-0.0311618 1.04862 0)
(-0.00845497 0.541668 0)
(0.0154548 1.58523 -4.44526e-21)
(-0.0185623 0.852437 0)
(-0.0532203 1.54826 -2.26644e-19)
(-0.0160166 0.802313 4.38656e-19)
(-0.00398748 1.07859 0)
(0.00966738 1.09683 0)
(-0.0010242 0.559106 0)
(0.006301 1.24785 0)
(-0.000655128 0.656454 0)
(1.46162 -0.00465708 0)
(0.785218 0.00755754 0)
(1.43564 0.0325739 0)
(0.759541 -0.000779152 0)
(0.676934 0.00512842 0)
(1.26541 0.0163052 0)
(1.20682 0.0470636 0)
(0.661717 0.0153041 0)
(-0.00580129 1.42077 -1.71378e-20)
(0.000184073 1.37708 0)
(0.00481998 0.732923 0)
(0.00172872 0.417221 0)
(0.296073 0.854435 0)
(0.263336 0.41379 -2.88575e-19)
(-0.000492432 0.63794 0)
(-0.00834763 0.367971 0)
(0.0187699 4.39307 0)
(-0.0349677 4.61306 0)
(-0.00713476 4.56455 0)
(-0.0632907 3.26456 2.07106e-20)
(-0.0482519 4.49715 0)
(-0.0404976 4.06558 0)
(0.00388784 0.794912 1.09957e-20)
(0.012882 1.51255 1.65435e-19)
(-0.0340751 1.45334 1.21043e-19)
(-0.00769746 0.799697 0)
(0.684095 0.107967 1.157e-18)
(0.334188 0.0444164 -1.13395e-18)
(0.151065 1.1543 0)
(0.10235 0.585077 -2.70403e-19)
(0.119236 1.25271 -8.76715e-19)
(0.0517694 0.697751 8.72233e-19)
(0.809648 0.023962 0)
(1.55741 0.0475132 0)
(1.71008 0.127565 0)
(0.920117 0.044462 0)
(0.00634174 1.26432 0)
(0.0246722 1.27536 0)
(0.00362582 0.673362 0)
(0.506533 0.331103 1.21328e-18)
(0.457906 0.325536 -1.39815e-18)
(0.246255 0.172454 0)
(1.91358 0.149199 1.15424e-19)
(1.12219 0.0911313 0)
(1.7081 0.116684 0)
(0.876268 0.0219162 0)
(0.694288 0.0859839 0)
(0.712643 0.0464016 -5.41674e-18)
(0.353053 0.0324832 2.00309e-18)
(0.00899919 0.807043 1.70768e-18)
(0.0021772 0.46242 4.08066e-20)
(-0.0108778 1.40842 -3.6036e-20)
(0.00613612 1.38675 1.37464e-18)
(-0.0149832 0.848955 6.33578e-20)
(-0.0119261 0.524486 -2.54536e-22)
(-0.107514 1.00068 -1.17206e-18)
(-0.0529602 1.3532 8.39133e-19)
(-0.0175323 1.35275 -1.36648e-18)
(1.41904 -0.0174329 0)
(1.43962 0.0198752 0)
(0.768111 -0.000451152 0)
(1.45316 0.0252233 0)
(1.36455 0.0461035 0)
(0.76216 0.0202023 0)
(1.30323 -0.00241376 0)
(1.32055 -0.00613239 0)
(0.696247 -0.00118876 0)
(0.316049 0.491237 -9.20527e-19)
(0.167293 0.25166 0)
(0.162637 0.3195 1.37984e-19)
(0.320329 0.607805 1.13042e-18)
(0.31916 0.570017 -6.69269e-19)
(0.162536 0.292792 1.30787e-18)
(0.287329 0.743139 2.19688e-18)
(0.152812 0.393952 3.96281e-19)
(0.662412 0.222112 1.54565e-18)
(0.652185 0.264623 4.01396e-19)
(0.329775 0.119786 7.5354e-19)
(1.88445 0.699772 -6.08107e-19)
(1.14591 0.328781 -7.09289e-19)
(-0.0365498 1.68959 4.63754e-19)
(-0.0126222 0.916569 0)
(1.59148 0.0221889 0)
(1.51298 0.0641366 0)
(0.847368 0.0260136 0)
(-0.00356032 1.38473 0)
(0.00507004 0.729578 2.5131e-18)
(0.00464947 0.731252 0)
(0.00206974 0.415098 -2.45976e-18)
(-0.0102826 1.38627 6.00065e-19)
(-0.00947678 1.4225 0)
(0.349049 0.506358 2.59398e-19)
(0.373302 0.56676 -8.67676e-19)
(0.178187 0.267409 7.8523e-19)
(-0.025729 0.767027 -1.6771e-18)
(-0.0257538 0.689796 0)
(-0.0153368 0.412652 0)
(0.0283108 1.50865 -1.27373e-20)
(0.0295592 1.5339 -3.65625e-19)
(0.0162095 0.801186 -1.55725e-20)
(0.21662 1.06616 8.94137e-19)
(0.121472 0.520925 -5.94995e-19)
(0.00942222 1.49518 7.31021e-19)
(0.0538072 1.36719 -8.16465e-19)
(0.02527 0.768838 3.58654e-20)
(0.00741663 1.36612 -3.83778e-18)
(-0.000300535 1.39327 4.44436e-18)
(0.00376026 0.829763 1.74616e-18)
(-0.0138806 0.805034 -1.73931e-18)
(-0.0043217 0.481377 -1.75184e-18)
(-0.0106717 1.41685 -4.53373e-18)
(-0.0152487 1.40031 4.62368e-18)
(0.297044 0.699311 0)
(0.310699 0.657437 -2.30518e-18)
(0.157541 0.343715 9.97961e-19)
(0.289871 0.821795 1.19278e-18)
(0.142846 0.441349 -1.84043e-18)
(2.02825 0.315117 4.17397e-19)
(2.01707 0.535607 0)
(1.19967 0.216422 -4.04237e-19)
(-0.0729629 1.61031 -4.82302e-21)
(-0.0166826 1.67059 0)
(-0.0169177 0.909381 0)
(0.230519 0.968222 -3.24377e-19)
(0.254114 0.892423 -7.1072e-19)
(0.131418 0.476831 1.33236e-18)
(3.16436 -0.442954 0)
(3.34725 -0.414773 1.81204e-18)
(0.0682918 3.61133 0)
(0.0489847 2.97022 0)
(3.15927 0.249828 1.41792e-20)
(3.12358 0.506208 3.7104e-18)
(0.0299657 3.32763 -2.77994e-20)
(0.0127703 2.57831 0)
(-0.0400994 1.19684 1.5695e-18)
(0.202131 1.34165 0)
(3.41228 1.59374 -3.28475e-19)
(3.17463 0.27233 -2.96161e-20)
(3.14776 -0.119059 0)
(3.10046 -0.00051277 3.62769e-22)
(0.0370051 2.6297 0)
(0.143138 3.30056 0)
(-0.0665314 2.62825 0)
(-0.0335354 3.42855 3.17873e-19)
(-0.0341993 3.48691 2.00389e-19)
(2.64359 0.0463307 -1.3549e-20)
(3.0406 0.0288308 0)
(3.14473 0.0827811 0)
(-0.0449507 4.57269 0)
(-0.0445192 2.98099 0)
(-0.0765256 3.07603 0)
(0.638932 3.09884 2.72083e-19)
(3.33877 -0.422609 0)
(3.01119 -0.345922 0)
(3.1699 -0.0531726 2.27619e-18)
(3.29269 -0.328805 -2.74085e-18)
(3.10381 -0.125851 0)
(-0.0539426 4.51333 0)
(0.0162907 4.03643 0)
(0.0118854 4.31902 0)
(-0.0320127 3.24156 0)
(-0.0143663 3.00411 0)
(-0.038102 2.59647 0)
(2.97193 -0.00400176 0)
(2.8529 0.0478368 -1.80329e-20)
(2.19908 2.99785 -3.3335e-19)
(3.15694 0.044325 -2.27724e-18)
(3.19038 0.278076 2.76809e-18)
(3.0828 0.11726 0)
(3.39559 0.328616 2.08616e-18)
(3.35706 0.484239 -2.70527e-18)
(3.0713 0.41833 0)
(-0.0489907 3.23828 0)
(0.0122172 3.16927 8.55474e-20)
(-0.0267015 2.48705 -6.06055e-20)
(3.67091 0.541682 2.27324e-18)
(3.44833 0.200727 0)
(-0.148108 1.27174 -2.18608e-18)
(-0.0576138 0.881364 -1.36347e-19)
(-0.0768403 1.34073 3.01375e-18)
(-0.0304504 1.27338 -9.07871e-19)
(0.00387062 1.09292 0)
(-0.0266742 1.2392 7.01124e-19)
(-0.113405 1.38785 2.16645e-18)
(-0.0576737 1.34071 -1.32596e-18)
(-0.0771564 1.3205 0)
(1.34552 0.619533 0)
(1.23416 0.712361 0)
(3.49896 1.99335 9.653e-19)
(2.98891 1.89957 -1.20658e-18)
(3.78712 1.67476 0)
(3.32716 1.13478 0)
(3.34972 0.280114 -3.91464e-18)
(2.8995 0.172839 4.837e-18)
(3.35081 -0.155982 0)
(2.85368 -0.0764868 0)
(3.43643 0.042599 0)
(3.59384 0.144606 0)
(3.28683 0.119651 0)
(3.55044 0.298206 0)
(3.40847 0.292836 0)
(3.32758 0.217832 0)
(0.0835596 2.84324 0)
(0.0269362 2.13871 0)
(0.112984 3.0884 0)
(0.0906207 2.24237 0)
(0.196117 3.59539 0)
(0.133013 2.68916 -5.59296e-19)
(0.0386049 3.60287 0)
(0.00311526 3.00949 4.05538e-19)
(-0.0326133 3.17156 -5.18497e-19)
(-0.0702713 2.91036 0)
(-0.0333279 2.31691 0)
(-0.0867304 3.00314 0)
(-0.0584053 2.13438 0)
(-0.134402 4.69543 -2.48022e-19)
(-0.0921041 3.85839 2.80276e-19)
(-0.0847995 3.73452 3.12213e-19)
(-0.055885 2.94933 0)
(-0.114945 3.71596 -4.61474e-19)
(-0.0433692 3.12047 -2.96215e-19)
(-0.109072 4.7235 1.9412e-19)
(-0.11571 4.38353 -3.54246e-19)
(-0.0890218 4.26528 -3.82836e-19)
(3.04079 0.0847646 3.35576e-18)
(2.29686 0.0312102 -4.22637e-18)
(2.90318 0.128778 -3.32493e-18)
(2.22365 0.071424 4.15336e-18)
(3.36331 0.0247262 0)
(2.63783 -0.00349939 0)
(3.44405 0.0861171 0)
(3.31291 0.016192 0)
(2.69692 0.00754907 0)
(3.66327 0.230351 0)
(3.4255 0.0903347 0)
(2.84519 0.0535257 0)
(-0.0136976 4.20907 -1.20362e-20)
(-0.0487063 4.58192 0)
(-0.0518931 4.44185 0)
(-0.073547 3.39282 8.83337e-20)
(-0.0377089 2.68295 -3.4791e-21)
(-0.0841177 4.62691 1.16259e-19)
(-0.0946869 4.46646 -1.17477e-19)
(-0.0836416 4.03415 0)
(-0.0592808 3.97068 0)
(-0.0296751 4.07896 0)
(-0.0768637 3.39618 0)
(-0.0452652 2.44183 0)
(0.923764 3.64625 -6.21417e-19)
(0.906268 2.8385 -1.8173e-19)
(0.435395 2.09544 -2.29237e-19)
(0.251799 2.33372 6.98964e-19)
(0.993882 4.20783 2.64472e-19)
(3.43271 -0.167879 0)
(3.32193 -0.256812 0)
(2.88282 -0.189666 0)
(3.47031 -0.0647516 0)
(3.34581 -0.148083 0)
(3.44891 -0.261257 0)
(3.51945 -0.283846 0)
(3.57938 -0.281481 0)
(3.22629 0.0922926 3.61638e-18)
(2.5571 0.0640483 -4.57291e-18)
(3.09938 0.105314 -3.55978e-18)
(2.51291 0.0558901 4.42928e-18)
(2.19209 3.36679 0)
(1.70305 2.90608 -4.57298e-19)
(2.51817 3.29883 -4.12902e-19)
(2.31644 2.48297 5.48661e-19)
(0.804777 1.25972 2.7413e-18)
(1.48048 0.215999 1.34578e-18)
(3.69957 0.294643 0)
(3.86407 0.558524 -1.85236e-18)
(3.26994 0.237688 -8.24822e-20)
(3.73779 0.424794 0)
(0.266708 1.32682 1.81361e-18)
(-0.000882102 1.20868 -2.90422e-18)
(0.0762942 0.774767 1.63152e-18)
(0.298374 0.477569 -7.55353e-19)
(0.201728 1.40683 8.79175e-19)
(0.0600783 1.24771 0)
(0.0642097 1.10018 -1.14291e-18)
(0.213972 1.46008 -4.13207e-18)
(0.356104 1.58267 0)
(0.00845416 1.29005 1.20581e-19)
(-0.00991974 1.45728 -1.35117e-18)
(-0.0412727 1.30295 1.96431e-18)
(-0.0578233 1.41763 0)
(-0.0207562 1.38206 0)
(0.706709 1.08899 0)
(2.49817 2.48979 -1.07062e-18)
(2.58716 2.13109 4.01922e-19)
(2.73526 2.83314 0)
(3.15717 3.01831 -3.97422e-19)
(3.10747 2.36844 2.79578e-20)
(0.846446 0.622378 -1.83835e-18)
(1.61912 0.713544 -1.66478e-20)
(1.28272 0.468668 8.76713e-19)
(1.33749 0.880299 5.99629e-20)
(0.988219 0.665354 -2.38837e-18)
(1.5275 0.742495 0)
(2.06566 1.13235 1.46465e-18)
(2.10513 1.04532 0)
(1.47654 0.823048 0)
(1.11249 0.574545 0)
(3.38062 2.16655 1.00883e-18)
(3.91119 0.743821 -1.86875e-18)
(3.80325 1.19288 0)
(3.48612 0.742304 0)
(1.43969 0.374036 1.3387e-18)
(3.28585 1.84437 -8.54446e-19)
(2.88873 1.66944 1.5509e-18)
(3.76332 1.36224 -1.83792e-18)
(3.09927 0.113894 2.46225e-18)
(3.16929 0.180301 -2.57736e-18)
(2.66304 0.091331 0)
(3.30543 -0.040596 0)
(3.20021 -0.0848968 -2.36545e-18)
(2.63062 -0.0324477 2.34462e-18)
(3.95695 0.090954 0)
(3.76132 0.143957 0)
(3.69378 0.154781 0)
(3.5886 0.204171 0)
(3.83268 0.0580962 0)
(3.72609 0.0515487 0)
(-0.0478161 2.57738 0)
(-0.0436527 2.07919 0)
(0.328124 3.99372 -4.17583e-19)
(0.643645 3.33896 -1.63726e-19)
(0.249597 3.05434 -3.66234e-19)
(0.335362 2.56759 5.86667e-19)
(0.431131 4.00856 0)
(0.431289 4.64223 -5.14066e-19)
(0.345768 4.69922 0)
(0.878576 4.37211 -3.80446e-19)
(0.652418 3.83531 9.70838e-19)
(0.557776 4.62483 4.50705e-19)
(0.707124 4.1761 -1.9173e-19)
(0.567149 4.3073 1.54241e-19)
(0.874458 4.61809 -6.694e-19)
(0.711026 4.6323 0)
(0.818147 4.56221 5.08736e-19)
(-0.0192991 4.52591 -1.82483e-19)
(-0.030975 3.61395 0)
(0.0765044 4.25607 5.51022e-19)
(-0.0251143 4.34969 0)
(-0.0148789 3.44234 -4.50972e-19)
(-0.0214868 2.89441 0)
(-0.127731 4.32926 -2.9413e-19)
(-0.13386 4.65104 0)
(-0.0768509 3.85125 0)
(-0.0667762 3.80081 3.30813e-19)
(-0.06098 3.82676 1.05641e-20)
(-0.0456977 3.66516 6.2799e-19)
(-0.0447816 2.90775 4.08719e-21)
(-0.139231 4.65952 1.82682e-19)
(-0.131014 4.69923 1.04531e-19)
(-0.0273198 2.7489 0)
(-0.00584881 2.25683 0)
(-0.0710199 4.74561 4.92351e-19)
(-0.0801381 4.32255 4.33184e-19)
(-0.111498 4.57224 -5.64915e-19)
(-0.0140291 4.72504 0)
(-0.0843375 4.43683 -3.14549e-19)
(-0.120043 4.05164 1.29953e-19)
(-0.0922868 4.15198 -4.17406e-20)
(-0.0956083 4.67433 -2.21887e-19)
(-0.0999827 4.18235 -6.92289e-20)
(-0.0983073 4.1352 3.08579e-19)
(2.87623 0.059574 -2.36181e-18)
(2.86574 0.0476014 2.27123e-18)
(2.34379 0.0336263 0)
(3.52425 0.183334 3.0442e-18)
(2.72146 0.122124 -3.30307e-18)
(2.27235 0.0612545 3.60855e-18)
(3.69847 0.322587 -4.01448e-19)
(3.20735 -0.0497323 0)
(3.16844 -0.0153276 2.23627e-18)
(2.68742 -0.0131416 -2.21863e-18)
(3.86984 0.115206 -1.25212e-19)
(3.76556 0.0966694 1.07803e-18)
(4.15368 0.164139 0)
(4.22454 0.171728 -3.74964e-19)
(4.01776 0.1384 0)
(3.70233 0.149916 0)
(4.03296 0.0922086 0)
(3.71398 0.0849014 0)
(4.18406 0.107497 7.84502e-19)
(4.13763 0.0737538 -1.74694e-18)
(4.13704 0.107572 -8.47763e-19)
(4.18378 0.11002 -9.23353e-19)
(4.20897 0.218819 1.77366e-18)
(3.84465 0.181427 0)
(4.0474 0.289096 0)
(-0.0785315 4.48086 -1.36992e-19)
(-0.0286011 4.5615 -1.17665e-20)
(-0.0677317 4.59136 0)
(-0.0550583 4.08223 1.39457e-19)
(-0.0481621 4.10978 2.25847e-20)
(-0.0534563 3.9679 -2.19295e-20)
(-0.0853848 3.42819 2.62006e-19)
(-0.14912 3.90224 -1.45523e-20)
(-0.114119 4.03865 7.51723e-20)
(-0.0765611 3.29921 -1.32263e-19)
(-0.0272761 2.8305 1.58445e-19)
(-0.0841083 4.45983 5.24766e-21)
(-0.0987548 4.61434 1.73489e-19)
(1.201 4.32091 3.53894e-19)
(1.11514 4.49166 7.30335e-19)
(1.69708 3.42261 4.42145e-19)
(1.27881 3.5289 1.74696e-19)
(1.263 2.86007 0)
(0.553424 2.36688 2.76178e-19)
(0.46936 1.78229 3.32307e-19)
(0.343227 2.60555 1.52971e-20)
(0.486551 3.21645 -1.16339e-18)
(0.627319 3.17811 8.79256e-19)
(0.434388 2.44764 0)
(0.295541 2.00742 -5.59206e-19)
(0.247657 3.0954 1.39658e-18)
(0.26613 2.74893 -3.22229e-20)
(0.153352 2.30197 -1.75092e-18)
(0.611702 1.46026 1.47428e-18)
(0.59153 1.66633 0)
(3.5836 -0.0756041 8.6393e-20)
(3.6185 -0.254494 -7.25628e-20)
(3.72114 -0.218295 -1.26597e-18)
(3.75914 -0.126693 1.28184e-18)
(3.67611 -0.0495222 0)
(2.40037 3.82759 0)
(2.57667 3.87199 0)
(2.84893 3.57645 0)
(2.69675 3.60768 0)
(0.886007 1.44726 -3.79588e-21)
(0.63585 1.07967 0)
(1.73524 3.44964 1.50793e-20)
(1.42369 3.51153 0)
(1.35158 3.02614 -1.29104e-18)
(1.43247 2.95927 8.28788e-19)
(1.83231 0.311632 0)
(1.46824 0.26486 3.53192e-19)
(2.44994 0.354374 2.19529e-18)
(1.82282 0.281928 -7.87548e-19)
(1.45351 0.111181 -2.49848e-18)
(4.24846 0.767779 -2.56809e-18)
(3.86884 0.976643 -3.57342e-20)
(3.33621 0.833782 2.06982e-18)
(3.89279 0.728291 1.81473e-18)
(3.15692 0.45651 -3.04728e-18)
(2.94741 0.445498 3.7536e-19)
(3.23504 0.675028 -8.19739e-19)
(3.0187 0.671537 0)
(3.78188 0.54747 1.538e-18)
(4.10294 0.611141 0)
(4.09837 0.753974 0)
(4.02529 0.402299 8.24113e-19)
(4.28169 0.622606 -3.04901e-20)
(4.2201 0.694473 -4.52656e-19)
(4.1499 0.622734 0)
(3.62535 0.12383 1.7168e-18)
(4.19 0.173557 2.14245e-18)
(4.09443 0.14357 -1.67808e-18)
(4.14088 0.228917 -1.44171e-18)
(3.75595 0.228032 -2.15471e-18)
(3.33206 0.365966 0)
(3.42204 0.291497 0)
(2.58238 0.185989 -1.26587e-18)
(2.13433 0.116499 4.76952e-19)
(4.04391 0.338585 1.93901e-18)
(4.27674 0.41648 -2.34758e-18)
(4.28255 0.471557 2.06931e-18)
(4.16084 0.473708 0)
(4.24826 0.321982 0)
(4.25859 0.310659 -9.7868e-19)
(4.2128 0.302476 -1.59541e-18)
(2.24053 3.51693 6.21175e-19)
(1.96732 3.28751 -6.85634e-19)
(1.49197 2.42996 -1.03813e-18)
(1.23176 2.06548 2.6851e-19)
(0.918227 1.43113 -2.64719e-18)
(0.823944 1.26089 9.27415e-19)
(0.623727 0.938368 -1.92451e-21)
(1.15674 1.84872 -1.14514e-18)
(1.1846 1.95012 1.70941e-18)
(1.01208 1.75907 5.09129e-19)
(0.815687 1.33532 -5.15802e-19)
(0.659003 1.11275 0)
(2.48722 2.64256 -1.15638e-19)
(0.757701 1.17769 8.65301e-19)
(0.980222 0.934432 1.16604e-18)
(0.802491 0.848288 1.3509e-18)
(1.13822 0.784562 1.35183e-18)
(1.53562 1.09199 -2.28699e-18)
(1.45 1.12138 1.85326e-18)
(1.05462 0.806146 -6.82614e-19)
(0.859407 0.59865 1.50699e-18)
(1.67038 0.504421 -7.81321e-19)
(1.61579 0.527238 0)
(1.28717 0.421751 4.95708e-21)
(2.57259 1.54582 7.79664e-19)
(2.15515 1.30822 -2.82421e-18)
(1.7592 1.23203 1.03516e-20)
(1.73249 1.13344 0)
(2.8852 2.60428 8.7541e-19)
(3.41706 2.72135 1.03858e-18)
(3.23223 2.90935 -1.19712e-18)
(3.51264 2.72712 -4.29401e-19)
(3.43203 2.55855 -1.35864e-19)
(3.46297 2.75142 1.39707e-19)
(3.66012 2.23848 -1.68066e-18)
(3.66733 2.46292 4.03012e-19)
(3.73689 2.39543 0)
(3.7367 2.15616 -5.81621e-19)
(4.04533 1.05339 5.81641e-19)
(4.24899 0.970301 1.00459e-18)
(4.27882 0.941725 1.01313e-18)
(4.04298 1.30493 -1.1513e-18)
(4.06917 1.32243 0)
(4.11672 1.20697 0)
(3.36926 1.22972 -1.45442e-20)
(2.47645 0.675645 0)
(2.77591 0.746318 9.33333e-19)
(3.28049 0.877219 -2.56903e-20)
(3.77948 1.51752 5.11383e-18)
(3.5805 1.74812 1.3131e-18)
(3.50223 1.53345 -1.34345e-18)
(3.08596 1.37585 1.44038e-18)
(2.82055 1.38432 8.26756e-19)
(2.37982 1.18096 -8.00732e-19)
(3.67131 -0.0866019 1.98383e-18)
(3.89453 -0.0300692 0)
(3.85875 -0.0676276 1.34143e-18)
(3.74254 -0.0604309 -2.98651e-18)
(3.98052 0.0357961 1.46116e-18)
(3.9048 0.111896 -3.08123e-18)
(3.74046 0.126402 0)
(3.55726 0.172521 -6.28172e-19)
(3.81221 0.122031 1.60437e-18)
(3.69231 0.190525 -8.22086e-19)
(3.60081 0.170256 5.90356e-19)
(-0.0891428 2.67827 0)
(-0.0616724 3.4663 0)
(-0.0420996 2.53889 0)
(-0.0276687 2.0473 0)
(0.0236703 3.96034 6.85073e-19)
(0.117527 3.74748 -1.78191e-19)
(0.282492 4.62063 -2.32554e-19)
(0.22136 4.45153 2.45153e-19)
(-0.0502324 4.30197 -5.05928e-19)
(-0.0152659 4.33108 3.79841e-19)
(0.0710212 3.89681 2.13279e-20)
(-0.00781908 3.59857 -4.73775e-19)
(-0.0269511 3.36667 -6.33815e-20)
(-0.0576829 3.71549 -5.7776e-20)
(0.125737 4.44305 -5.88542e-19)
(0.15244 4.26416 0)
(0.243447 4.60568 2.96603e-19)
(0.235031 4.67644 2.54046e-19)
(0.560872 4.42755 -2.26723e-19)
(0.388892 3.79392 0)
(0.438332 3.64574 -1.11618e-18)
(0.538689 4.01194 7.90988e-19)
(0.445658 4.53974 -6.161e-19)
(0.337611 4.41249 3.31544e-19)
(0.273027 4.1486 0)
(-0.0616407 4.71399 -5.59651e-19)
(-0.096678 4.46042 -6.45877e-19)
(-0.102302 4.67786 0)
(-0.0491979 4.30765 -6.10465e-21)
(-0.044501 4.59128 2.77049e-19)
(-0.140641 3.94038 4.56867e-20)
(-0.0705451 3.57818 -6.70136e-19)
(-0.118675 3.99302 1.7889e-19)
(-0.169761 4.52727 2.37852e-19)
(-0.106486 4.35028 0)
(-0.0855959 3.97011 0)
(-0.0897836 3.03955 2.07631e-19)
(-0.0626003 3.75297 -6.47514e-20)
(-0.0886676 3.73161 0)
(-0.0917882 2.82074 1.63768e-19)
(-0.0487813 2.32087 -3.17074e-19)
(3.75854 0.0297248 0)
(3.72912 0.005082 -2.03208e-19)
(4.17826 0.0633217 -1.43927e-18)
(4.08622 0.0419433 0)
(3.87202 0.0137638 0)
(4.14936 0.0335111 -1.23332e-20)
(4.09997 0.0318834 2.37765e-18)
(4.00141 0.076524 2.84379e-18)
(3.75864 0.115541 0)
(3.56166 0.107196 0)
(4.01549 0.0887648 1.41676e-18)
(3.70752 0.112046 0)
(3.47738 0.12582 0)
(-0.0986406 4.62163 0)
(-0.114387 4.61861 1.05921e-20)
(-0.0912898 4.65523 6.49737e-20)
(-0.0735206 3.93015 0)
(-0.122971 4.52617 1.12708e-19)
(-0.0804138 4.29429 -6.49828e-20)
(-0.0686722 4.04152 0)
(1.38514 4.19763 0)
(1.16656 4.54447 -1.30449e-18)
(1.18542 4.46767 0)
(1.52971 4.44786 1.49466e-18)
(1.55052 4.07555 0)
(1.45765 4.3281 -6.1202e-19)
(1.0396 2.31285 -3.41938e-20)
(0.733604 1.70165 -1.75771e-18)
(0.612008 1.27089 2.14459e-18)
(0.725874 1.89163 3.9951e-19)
(0.993923 2.49246 0)
(1.06055 2.44788 0)
(0.738294 1.74356 0)
(0.548009 1.37529 -1.40489e-18)
(1.20238 3.81352 -9.86386e-19)
(1.13881 3.05399 -2.36442e-19)
(1.33285 3.45959 1.93376e-19)
(0.605874 2.09067 0)
(0.632339 1.99649 0)
(0.471641 1.61582 -3.95059e-19)
(0.967634 2.78269 0)
(2.66581 3.5515 0)
(2.40737 3.04186 -1.45851e-18)
(2.56289 3.04602 -8.60372e-20)
(2.42986 3.42246 0)
(2.31537 3.18974 2.22715e-18)
(3.25167 3.05791 -3.91369e-19)
(3.08717 3.27913 0)
(3.07332 3.1065 6.34095e-19)
(2.84101 3.38915 0)
(2.86407 3.19071 0)
(1.25036 2.07858 -9.36591e-19)
(1.45864 2.48211 -7.03225e-19)
(1.7876 3.04974 1.21136e-18)
(1.72908 3.03114 -3.64297e-19)
(1.09867 1.88848 0)
(1.24002 2.28036 4.73647e-19)
(0.745382 1.33745 -7.20565e-19)
(0.603181 1.08391 -5.45239e-22)
(1.94071 3.73107 0)
(2.19494 3.75729 -5.43227e-19)
(2.3119 3.96623 0)
(2.3338 0.527524 0)
(1.66213 0.345718 0)
(1.24968 0.28234 0)
(2.26438 0.556993 -1.4694e-18)
(1.6871 0.4097 8.20502e-19)
(2.17341 0.126214 -9.85497e-19)
(2.65878 0.291497 0)
(2.49936 0.296644 4.13908e-19)
(1.79975 0.133706 1.63477e-18)
(1.55441 0.0802746 -1.03793e-18)
(0.774411 1.60589 8.63743e-19)
(0.998361 1.87909 0)
(0.559766 1.48343 1.57312e-18)
(0.551049 1.65376 -1.43589e-18)
(0.795927 1.86176 -9.9756e-19)
(2.12624 2.51606 1.34413e-18)
(2.14674 2.76611 0)
(1.65453 1.74057 -2.78354e-19)
(2.0777 2.04662 1.75227e-18)
(1.42949 1.35034 -4.26733e-19)
(1.66136 1.36879 4.53965e-19)
(2.18331 1.55749 1.02921e-18)
(2.51272 1.70679 0)
(2.34219 1.90146 0)
(2.08349 1.65758 0)
(3.92125 2.04681 3.87212e-19)
(3.75489 1.86824 -1.26546e-18)
(3.80225 2.00286 1.04852e-18)
(3.88922 1.74639 -1.00988e-18)
(4.12166 1.64548 0)
(4.07483 1.80855 -2.98876e-19)
(2.90019 1.17268 -1.90413e-18)
(3.02329 1.16591 -2.4185e-18)
(2.40213 1.06259 1.46193e-18)
(2.20839 0.954106 -1.42719e-18)
(2.52735 0.856038 -1.18239e-18)
(2.24437 0.792973 1.454e-18)
(4.00826 0.0317395 -1.52809e-18)
(4.05256 0.038574 3.12842e-18)
(3.76698 -0.0673812 1.90005e-18)
(3.79008 -0.0753616 -2.28573e-18)
(3.95816 0.00795407 0)
(4.05527 0.0201523 -3.72778e-18)
(0.0657323 4.72233 1.07432e-19)
(0.0366659 4.6986 0)
(0.156644 4.69624 9.60159e-19)
(0.177163 4.71515 -8.7363e-19)
(0.196254 4.68972 4.33556e-19)
(0.0899221 4.6362 0)
(-0.125491 4.71662 0)
(-0.129012 4.40982 -6.30145e-20)
(-0.126102 4.3633 5.65069e-20)
(-0.132743 4.48137 7.68517e-21)
(-0.124749 4.65402 -1.02871e-19)
(-0.105403 4.64348 5.56349e-20)
(1.85882 4.01237 -1.64732e-18)
(1.79455 4.02297 1.74535e-18)
(1.64209 4.37203 -8.58972e-19)
(1.66884 4.27458 7.63761e-20)
(2.21162 4.0323 0)
(1.81075 4.16874 -6.45255e-19)
(1.93841 3.91062 6.25723e-19)
(1.77676 4.3332 8.39041e-19)
(2.03149 4.18494 0)
(2.18924 4.06529 0)
(1.13263 3.67291 1.49957e-18)
(0.83163 2.86885 2.03278e-18)
(0.958327 3.04847 -1.39598e-18)
(0.749898 3.02763 -2.33004e-19)
(0.893603 3.7724 4.67897e-19)
(0.717372 3.41174 -1.13778e-18)
(0.771855 1.51713 -1.22378e-18)
(0.770732 1.3657 0)
(0.622983 1.15506 -1.345e-18)
(1.14287 2.13264 0)
(1.12083 2.21924 0)
(1.41532 2.25182 -1.09825e-18)
(1.10804 2.07576 -1.04304e-18)
(1.06105 2.09292 1.10689e-18)
(1.09478 1.57038 0)
(1.48152 1.82369 -6.05337e-19)
(1.68986 2.18462 -8.58312e-19)
(1.47041 2.1427 0)
(0.915524 1.86449 7.18943e-19)
(0.828744 1.71887 0)
(2.93911 2.30513 -1.84933e-18)
(3.31833 2.46143 2.6112e-18)
(3.29111 2.18952 -2.59504e-18)
(2.6642 2.05187 -2.31785e-19)
(2.7757 1.96446 -9.76454e-19)
(1.31078 2.25686 8.0162e-19)
(1.3648 2.31593 -1.368e-18)
(1.50889 2.3964 1.80312e-18)
(1.8419 2.62266 -1.17171e-18)
(1.93024 2.99695 -1.57299e-18)
(1.61237 2.56026 -1.18998e-19)
(1.68025 2.70219 1.37878e-18)
(1.86016 2.76045 9.7136e-20)
(2.05681 3.05502 6.52954e-19)
)
;

boundaryField
{
    wall-4
    {
        type            noSlip;
    }
    velocity-inlet-5
    {
        type            fixedValue;
        value           uniform (3 0 0);
    }
    velocity-inlet-6
    {
        type            fixedValue;
        value           uniform (0 1 0);
    }
    pressure-outlet-7
    {
        type            zeroGradient;
    }
    wall-8
    {
        type            noSlip;
    }
    frontAndBackPlanes
    {
        type            empty;
    }
}


// ************************************************************************* //
