/*--------------------------------*- C++ -*----------------------------------*\
  =========                 |
  \\      /  F ield         | OpenFOAM: The Open Source CFD Toolbox
   \\    /   O peration     | Website:  https://openfoam.org
    \\  /    A nd           | Version:  9
     \\/     M anipulation  |
\*---------------------------------------------------------------------------*/
FoamFile
{
    format      ascii;
    class       volScalarField;
    location    "8.8";
    object      p;
}
// * * * * * * * * * * * * * * * * * * * * * * * * * * * * * * * * * * * * * //

dimensions      [0 2 -2 0 0 0 0];

internalField   nonuniform List<scalar> 
918
(
23.5276
23.8049
1.01854
22.9431
1.0076
23.3214
3.50806
13.9866
19.3
3.05279
2.75526
14.4728
20.8643
17.1056
13.2287
0.94916
14.2189
2.378
18.5161
1.42025
13.2285
20.5062
21.5951
19.3428
14.2208
14.5855
18.8267
1.24366
0.114816
0.308219
0.964129
0.427081
0.180679
21.8583
22.5349
22.4732
15.5565
10.5301
3.84608
4.05816
3.2163
3.01713
14.0242
14.1229
6.1094
13.97
13.9682
16.7033
19.1679
19.3114
19.6055
19.3941
19.7806
5.98695
2.91554
2.73548
3.02322
3.09163
3.01802
2.83956
2.82224
2.62354
2.47793
13.9588
14.5448
14.5967
14.3394
14.2914
22.681
21.924
22.2587
21.3651
21.5105
20.4404
20.0548
17.4813
17.8338
16.7074
16.3264
13.0137
12.9674
13.4559
13.7002
0.150638
1.10069
1.24677
14.2216
14.2508
14.2679
14.2846
8.34242
2.34805
2.35714
17.9565
17.5328
20.5385
20.8055
20.2525
20.067
1.57955
1.60238
1.1948
1.22006
0.989048
13.5527
13.7047
19.2942
18.4613
14.2379
14.1488
14.2147
11.6048
14.0148
14.0956
15.5517
16.0053
15.1908
15.6305
18.3966
17.9786
19.2632
19.7005
0.427458
0.166167
0.720018
0.352916
0.549066
15.425
15.2209
15.6653
15.7228
15.9537
10.5325
10.4544
10.5105
10.4289
4.40946
4.72336
2.44003
2.77489
2.60776
9.97701
14.1369
14.1775
5.06919
5.76262
5.43171
6.57759
6.94924
16.0698
16.5057
16.2449
17.7902
16.9954
17.3435
19.8702
19.3598
19.6601
6.38094
6.6316
5.62646
5.2756
2.37942
2.61723
2.55822
3.12441
3.10604
3.24842
3.39193
2.73649
2.59074
3.04197
2.92097
2.9755
2.30347
2.16442
13.6854
13.4744
14.2189
14.3971
15.1507
15.0036
14.7128
14.8797
19.2499
19.6534
19.6869
19.3027
11.7206
10.2535
13.9574
14.2295
0.313035
0.266414
0.140249
0.385546
0.399062
0.156105
2.03649
1.84575
1.42788
1.69756
14.2092
14.1631
8.58406
8.80899
8.17507
7.91586
16.3695
16.5202
17.1547
16.7542
2.07069
1.76598
1.90602
13.8609
13.7347
13.8437
11.0507
10.4989
12.0736
12.3404
14.134
14.1588
14.1626
15.9105
16.2288
20.0513
20.322
20.1488
20.5346
21.5974
21.2487
20.8639
14.6054
15.0111
14.8512
16.183
15.8165
16.0358
15.2432
15.5483
15.4054
10.4833
10.529
10.2397
10.3184
10.3707
10.3167
9.90712
9.77753
14.2532
14.2147
14.2356
7.46186
7.94683
4.90024
4.57683
12.6308
13.2943
12.9749
18.8797
18.202
18.935
18.5641
18.1141
18.4376
10.5382
10.493
10.5299
15.1481
14.4897
14.8393
2.46821
2.10331
2.27222
9.00734
9.10267
7.00201
7.63003
7.29365
16.5302
16.8706
17.5507
16.6625
17.1301
17.6374
17.4155
10.0546
10.1927
10.1069
9.75746
9.6466
9.87585
8.51281
9.10974
3.6556
4.30161
4.00311
9.27273
9.51579
9.35926
18.6887
19.2234
0.803788
1.23829
19.6518
19.3752
0.154879
0.265767
14.4832
12.7511
7.47385
17.2529
16.69
19.0273
3.28492
6.1381
2.91814
3.42919
2.72009
14.6701
14.3221
13.4224
0.475781
1.26519
1.74776
3.01986
18.4691
17.7943
18.9092
19.2297
19.2838
0.699582
0.948585
0.590915
1.3171
1.08539
1.31848
15.614
15.7024
4.54499
18.9158
19.2197
19.2377
17.7132
18.6664
17.7238
0.947832
0.653711
0.732095
10.2164
12.2286
14.4451
13.9955
14.1949
14.2172
13.9685
15.1
14.7747
14.7346
15.2169
14.1484
14.0179
7.91194
6.60104
8.26116
7.91112
17.1544
16.742
16.5532
16.2996
18.1423
17.6681
18.5187
17.9065
18.3683
18.6554
3.08461
3.25304
3.12279
2.65264
6.18801
6.65357
5.53579
5.66213
4.30432
2.58917
2.65873
2.85933
2.72487
3.01423
2.73235
2.99739
2.63379
2.35658
2.35324
2.99418
2.80062
2.67695
14.6446
14.5869
14.3904
14.4325
14.4244
14.5371
13.6127
14.0111
13.6409
12.4962
13.0605
12.5944
0.815179
0.661891
0.539814
1.34433
1.37822
1.14392
0.874344
1.22315
1.20794
0.88218
1.57984
1.53674
3.30426
2.8137
8.91142
8.02984
6.96175
16.8604
17.6615
16.8313
18.0704
18.4874
18.5932
18.2139
17.7057
15.7824
15.7783
15.4384
15.3903
4.95925
3.93526
5.16756
4.76939
10.6134
14.2008
11.9455
10.924
11.2136
13.5002
14.1614
13.8046
13.9784
13.5249
13.0323
13.7523
13.2699
13.3749
13.1298
15.947
16.4219
16.0283
15.4487
15.469
10.7197
12.1023
5.70107
5.84672
7.40013
6.72941
13.7267
14.1042
14.0886
13.7514
13.9519
13.9281
13.7712
13.9313
14.0451
13.9425
11.8949
10.2729
9.19989
9.19754
14.2399
12.4381
13.0392
12.4916
16.1743
16.6922
16.3061
15.7083
16.1917
15.6644
15.6864
15.8951
17.2586
17.0074
16.7782
17.1653
3.1945
3.13874
3.76952
3.27733
3.17107
2.94561
3.60584
4.84895
4.51241
6.78078
7.3162
4.6824
3.56024
3.92165
4.92396
5.61467
5.60929
4.0507
4.5496
4.97887
4.50064
5.26018
4.7752
2.82474
3.12094
2.9758
2.95345
3.44533
3.93077
3.44117
2.56182
2.69746
2.39771
2.25861
3.61938
3.13776
3.17342
3.76658
1.15793
1.36208
1.47805
2.47481
1.95775
2.01839
15.2361
14.8794
15.0134
14.3021
14.374
14.3219
13.9418
15.3028
15.0271
15.1254
13.7805
13.8672
13.683
13.975
14.375
14.6734
15.509
15.2275
14.4767
14.6269
14.28
14.2041
13.5402
12.9786
12.9207
1.12524
0.832586
1.0039
0.945166
0.627965
0.819837
2.20481
1.60391
2.01029
1.74015
1.97455
1.47809
1.35076
4.39169
5.18359
4.13672
3.53905
3.24429
8.96833
9.08381
8.21522
7.91606
8.25376
8.48876
8.43789
7.17333
7.60957
7.42254
10.0347
9.6827
17.6448
17.5892
17.2609
17.1017
17.3276
5.93671
7.75075
6.96492
8.05834
10.3277
10.6396
9.38249
8.77905
9.54698
9.60283
14.1811
14.2654
13.6946
14.1672
14.1924
11.939
12.9665
13.5815
13.3746
13.9212
14.012
13.114
13.6763
13.5529
12.8371
12.896
12.2233
12.5473
12.0775
11.8907
14.1161
14.0135
14.2806
13.8358
14.2085
13.8019
14.1
14.115
14.3948
13.4853
12.9099
12.9363
13.3535
13.049
13.3924
13.5495
9.36638
10.0213
10.4988
11.0495
10.7601
10.5277
10.3866
10.7035
10.6884
10.9535
10.8723
10.7088
11.6381
13.6425
13.9192
14.0524
13.804
13.8366
13.5354
13.8257
13.7464
14.0814
14.1785
14.2265
13.2608
13.4595
13.6674
13.5466
11.754
10.1738
10.033
9.61652
7.74101
8.1979
11.1003
10.0174
9.05887
9.12824
12.2852
10.9229
11.7308
12.128
10.7992
10.428
13.0711
13.8892
14.098
13.793
12.1483
12.2702
12.7226
13.1796
13.3782
13.861
15.9209
16.4938
16.5725
16.2975
16.1583
16.2561
16.0047
16.1094
16.5835
16.7094
16.5403
3.01241
3.11921
3.06199
2.98782
3.21812
3.02218
4.08129
4.07425
3.27775
3.45204
3.4686
3.56224
3.07233
3.09945
4.89098
5.12502
5.39772
4.91389
6.24452
6.86457
7.43066
7.13489
5.85662
5.92183
6.23156
3.60159
3.59442
3.33274
3.77816
3.84362
2.71637
2.35592
2.14902
2.68349
2.77783
2.15923
1.86376
1.92676
2.40775
2.17977
1.9221
15.0368
14.7973
14.8176
14.5984
14.653
15.0439
15.2634
15.0702
15.2064
15.2566
14.8613
14.7453
14.9174
1.84899
1.52471
1.67412
1.66827
1.67071
1.60795
1.78133
7.65979
6.48377
6.85864
6.07869
4.28798
4.78021
9.65479
10.0747
10.1166
9.80901
9.59819
9.95831
9.82406
9.81365
8.32809
9.40028
8.93579
9.33689
9.37227
9.43734
9.1436
9.15313
10.6617
10.6913
9.55176
10.2063
9.43501
8.07662
8.23613
9.20414
10.1512
10.5227
10.3657
10.0622
9.83989
10.2395
10.2765
10.3582
10.3457
8.82559
8.76469
8.35427
14.0973
14.0295
14.1757
14.1618
14.305
14.0731
13.9087
14.1932
14.2542
14.0293
11.2085
11.278
11.5316
12.3154
12.3781
12.1816
11.4395
13.2611
12.8863
13.5861
13.5196
13.5534
13.131
12.9492
13.2554
10.1867
11.5475
11.0765
11.3513
10.1846
9.44993
13.3449
13.3878
13.4849
13.7732
13.7025
14.2947
15.8896
15.7583
15.8078
15.8515
15.4625
15.4981
4.25378
3.92203
4.63622
4.59773
4.16296
3.86729
2.33963
2.04227
1.86154
1.73449
1.9352
2.00256
8.2377
8.25173
6.41853
7.42569
6.01985
5.08531
4.95085
6.06818
7.22777
7.30397
8.56383
9.25946
8.82207
8.64924
7.97783
8.30559
10.2366
10.3305
10.2298
10.5541
10.0907
11.8651
11.4419
11.8016
13.4518
13.1389
12.52
12.4058
12.4002
13.0138
12.032
11.2525
11.9631
12.6536
12.6113
11.2536
11.0013
11.4354
11.392
10.2944
10.8352
10.5917
10.9396
10.6296
)
;

boundaryField
{
    wall-4
    {
        type            zeroGradient;
    }
    velocity-inlet-5
    {
        type            zeroGradient;
    }
    velocity-inlet-6
    {
        type            zeroGradient;
    }
    pressure-outlet-7
    {
        type            fixedValue;
        value           uniform 0;
    }
    wall-8
    {
        type            zeroGradient;
    }
    frontAndBackPlanes
    {
        type            empty;
    }
}


// ************************************************************************* //
