/*--------------------------------*- C++ -*----------------------------------*\
  =========                 |
  \\      /  F ield         | OpenFOAM: The Open Source CFD Toolbox
   \\    /   O peration     | Website:  https://openfoam.org
    \\  /    A nd           | Version:  9
     \\/     M anipulation  |
\*---------------------------------------------------------------------------*/
FoamFile
{
    format      ascii;
    class       volVectorField;
    location    "8.01";
    object      U;
}
// * * * * * * * * * * * * * * * * * * * * * * * * * * * * * * * * * * * * * //

dimensions      [0 1 -1 0 0 0 0];

internalField   nonuniform List<vector> 
2268
(
(0.00098421 -0.00046815 0)
(0.00281931 -0.000450199 0)
(0.00445104 -0.000410736 0)
(0.00604089 -0.0003949 0)
(0.00756489 -0.000384896 0)
(0.00902756 -0.000375982 0)
(0.010425 -0.000364271 0)
(0.0117482 -0.000347711 0)
(0.0129627 -0.000317016 0)
(0.0140229 -0.000279114 0)
(0.0149402 -0.000261693 0)
(0.0158134 -0.000289657 0)
(0.0168262 -0.000384316 0)
(0.0181472 -0.000514394 0)
(0.0197456 -0.000580187 0)
(0.0211835 -0.000364922 0)
(0.0211802 0.000409617 0)
(0.0180007 0.00135557 0)
(0.0119571 0.00252096 0)
(0.00224003 0.00310588 0)
(-0.00594132 0.00128773 0)
(-0.00742669 -0.000883696 0)
(-0.00359476 -0.00163445 0)
(0.000936341 -0.0013316 0)
(0.00272862 -0.00127528 0)
(0.00438101 -0.00119585 0)
(0.00601235 -0.00113735 0)
(0.00756292 -0.00108987 0)
(0.0090311 -0.00104066 0)
(0.0104071 -0.000984479 0)
(0.0116824 -0.000915055 0)
(0.0128316 -0.000817158 0)
(0.0138144 -0.000704242 0)
(0.0146317 -0.000629538 0)
(0.0153519 -0.00064976 0)
(0.0160928 -0.00079093 0)
(0.0169478 -0.000980511 0)
(0.0178654 -0.00100024 0)
(0.0185218 -0.000418607 0)
(0.0180882 0.00123437 0)
(0.0153038 0.00326507 0)
(0.0106663 0.00516791 0)
(0.00471796 0.00604208 0)
(-0.000745939 0.00341864 0)
(-0.00427448 -0.000262474 0)
(-0.00373827 -0.00380729 0)
(0.000921599 -0.00215236 0)
(0.00271488 -0.00206611 0)
(0.00437715 -0.00196095 0)
(0.006022 -0.00186859 0)
(0.00757829 -0.00178203 0)
(0.00903883 -0.0016888 0)
(0.0103907 -0.00158408 0)
(0.0116281 -0.00145915 0)
(0.0127285 -0.00129163 0)
(0.0136479 -0.00109769 0)
(0.0143724 -0.000953223 0)
(0.0149455 -0.000937976 0)
(0.0154476 -0.00108186 0)
(0.0159412 -0.00128178 0)
(0.0163934 -0.00124096 0)
(0.0166199 -0.000376523 0)
(0.0159779 0.00198023 0)
(0.013446 0.00486255 0)
(0.00974218 0.00707268 0)
(0.00613871 0.00798862 0)
(0.00236388 0.00536212 0)
(-0.00181451 0.0008904 0)
(-0.00258785 -0.00539326 0)
(0.000921508 -0.00300514 0)
(0.00272554 -0.0028907 0)
(0.00440743 -0.00275186 0)
(0.00606572 -0.00262141 0)
(0.00762949 -0.00249011 0)
(0.00908672 -0.00234551 0)
(0.0104222 -0.00218527 0)
(0.0116335 -0.00199876 0)
(0.0126994 -0.00175365 0)
(0.0135656 -0.00146501 0)
(0.0142012 -0.00122878 0)
(0.0146288 -0.00114483 0)
(0.0149046 -0.00124883 0)
(0.015078 -0.00141896 0)
(0.0151485 -0.00131341 0)
(0.0150796 -0.00024401 0)
(0.0144532 0.00268276 0)
(0.0123341 0.00623162 0)
(0.00936435 0.00851949 0)
(0.00699254 0.00932311 0)
(0.00420729 0.00712537 0)
(0.00024136 0.00225444 0)
(-0.00101334 -0.0060626 0)
(0.000934792 -0.00385712 0)
(0.00275394 -0.0037284 0)
(0.00446392 -0.00355534 0)
(0.00614144 -0.00338508 0)
(0.00771922 -0.00320566 0)
(0.00918009 -0.00300422 0)
(0.0105065 -0.00278334 0)
(0.0117007 -0.00253126 0)
(0.0127421 -0.0022016 0)
(0.0135627 -0.00180384 0)
(0.0141128 -0.00145302 0)
(0.0143971 -0.00126835 0)
(0.0144552 -0.0012943 0)
(0.0143294 -0.00140131 0)
(0.0140472 -0.00123498 0)
(0.0137011 -7.17472e-05 0)
(0.0131842 0.00324122 0)
(0.0115745 0.00736323 0)
(0.00924199 0.00962511 0)
(0.00757778 0.010274 0)
(0.00537748 0.00864228 0)
(0.00210168 0.00348794 0)
(0.000993402 -0.00578564 0)
(0.000960338 -0.00471902 0)
(0.00280401 -0.00457738 0)
(0.00454998 -0.00436805 0)
(0.00625437 -0.00415608 0)
(0.00785418 -0.00392536 0)
(0.00932568 -0.00366178 0)
(0.0106485 -0.00337558 0)
(0.0118311 -0.00305496 0)
(0.0128542 -0.00263444 0)
(0.0136348 -0.00211279 0)
(0.0141047 -0.00162455 0)
(0.0142534 -0.00130861 0)
(0.0141073 -0.00122129 0)
(0.0137011 -0.00123254 0)
(0.0130737 -0.00100128 0)
(0.012382 0.000161388 0)
(0.01193 0.00359046 0)
(0.0109358 0.00822935 0)
(0.00927507 0.0104506 0)
(0.00807392 0.0109697 0)
(0.00636399 0.00988082 0)
(0.00409689 0.00434536 0)
(0.00319042 -0.00463342 0)
(0.000990422 -0.00558916 0)
(0.00288278 -0.00544441 0)
(0.00467125 -0.00519558 0)
(0.00641023 -0.00494005 0)
(0.00803997 -0.00465443 0)
(0.00952772 -0.0043222 0)
(0.0108495 -0.00396506 0)
(0.0120208 -0.00357302 0)
(0.0130262 -0.00305569 0)
(0.0137694 -0.00239516 0)
(0.0141662 -0.00174744 0)
(0.0141934 -0.00127178 0)
(0.0138663 -0.00103905 0)
(0.0132083 -0.000920773 0)
(0.0122489 -0.00060247 0)
(0.0111308 0.000533554 0)
(0.0104803 0.00378473 0)
(0.0101338 0.00871857 0)
(0.00941285 0.0110017 0)
(0.00857217 0.0114972 0)
(0.0076082 0.0106442 0)
(0.00670814 0.00488054 0)
(0.00518779 -0.00262821 0)
(0.00102669 -0.00654936 0)
(0.00299039 -0.00636168 0)
(0.00482755 -0.00606284 0)
(0.00660875 -0.00575895 0)
(0.00827575 -0.00541158 0)
(0.0097834 -0.00500005 0)
(0.0111032 -0.00456233 0)
(0.0122574 -0.00409385 0)
(0.013237 -0.00347276 0)
(0.0139395 -0.00265635 0)
(0.0142711 -0.00182767 0)
(0.0141985 -0.00116423 0)
(0.0137258 -0.000755685 0)
(0.0128628 -0.000474307 0)
(0.0116239 -3.2108e-05 0)
(0.0101204 0.00111234 0)
(0.00903115 0.00402255 0)
(0.00904305 0.00873218 0)
(0.00934633 0.0111704 0)
(0.00911151 0.0117913 0)
(0.00918706 0.0107047 0)
(0.00931516 0.00558714 0)
(0.0065401 0.00138812 0)
(-0.0168805 0.00413927 0)
(-0.0155765 -0.00150348 0)
(-0.0079938 -0.00240112 0)
(-0.00217501 -0.00151326 0)
(0.00134739 -0.00104771 0)
(0.00377218 -0.000627243 0)
(0.00499965 -0.000257722 0)
(0.00615597 -0.00050241 0)
(0.00796783 -0.000543872 0)
(0.00844524 0.000201833 0)
(0.00569823 0.00123037 0)
(-0.000826272 0.00274973 0)
(-0.0115643 0.00305208 0)
(-0.0189971 0.000829185 0)
(-0.0196864 -0.000493615 0)
(-0.0161801 -0.00146191 0)
(-0.0118792 -0.00139109 0)
(-0.00771259 -0.00204706 0)
(0.00186942 -0.000238967 0)
(-0.0135192 0.00982474 0)
(-0.00846859 -0.00275443 0)
(-0.00535533 -0.0040145 0)
(-0.00225602 -0.00266316 0)
(-0.000634942 -0.00171229 0)
(0.000358404 -0.00104544 0)
(0.00111181 -0.000691221 0)
(0.00204076 -0.000926593 0)
(0.00285475 -0.000594471 0)
(0.00205401 0.00100463 0)
(-0.000699786 0.00271715 0)
(-0.00433811 0.00496186 0)
(-0.00902928 0.00536816 0)
(-0.013224 0.00233498 0)
(-0.0153102 -0.000367623 0)
(-0.0141186 -0.00230304 0)
(-0.0126074 -0.00242753 0)
(-0.0110051 -0.00390096 0)
(-0.00339168 -0.00235759 0)
(-0.00551568 0.0130437 0)
(-0.00321974 -0.00377972 0)
(-0.00314955 -0.004774 0)
(-0.00233017 -0.00318211 0)
(-0.00201242 -0.00198574 0)
(-0.0018542 -0.00122042 0)
(-0.00166566 -0.000957963 0)
(-0.00123752 -0.00116523 0)
(-0.000936468 -0.000448231 0)
(-0.00218268 0.00186946 0)
(-0.00489354 0.00383636 0)
(-0.00697729 0.00592302 0)
(-0.00812713 0.00626059 0)
(-0.0101763 0.00349849 0)
(-0.0124565 0.000136618 0)
(-0.0121616 -0.00252185 0)
(-0.0123309 -0.0025346 0)
(-0.0128639 -0.00526505 0)
(-0.00731247 -0.00633918 0)
(0.00158688 0.0136455 0)
(0.000688533 -0.00347348 0)
(-0.00169842 -0.00450422 0)
(-0.00265442 -0.00307696 0)
(-0.00335439 -0.00189858 0)
(-0.00386593 -0.00114628 0)
(-0.00420531 -0.000992275 0)
(-0.00423251 -0.0012285 0)
(-0.00420398 -0.000216892 0)
(-0.00537919 0.00271584 0)
(-0.00761607 0.0046992 0)
(-0.00873719 0.00627065 0)
(-0.0083008 0.00642586 0)
(-0.00897261 0.00423348 0)
(-0.0105827 0.000631473 0)
(-0.0102157 -0.00250379 0)
(-0.0110269 -0.00200994 0)
(-0.012641 -0.00619466 0)
(-0.00814777 -0.0110677 0)
(0.00589389 0.0120065 0)
(0.00286572 -0.00219039 0)
(-0.00120173 -0.00345157 0)
(-0.00337366 -0.00247929 0)
(-0.00482863 -0.00150169 0)
(-0.00588936 -0.000844104 0)
(-0.0067053 -0.00082951 0)
(-0.00713962 -0.00116465 0)
(-0.00725068 5.85582e-07 0)
(-0.00808328 0.00340357 0)
(-0.0096327 0.0052576 0)
(-0.00999089 0.00624175 0)
(-0.00880802 0.00618951 0)
(-0.00877995 0.00460892 0)
(-0.00940728 0.00075891 0)
(-0.00818719 -0.00259904 0)
(-0.00851461 -0.00132086 0)
(-0.0101241 -0.00684343 0)
(-0.00646964 -0.0152628 0)
(0.00645589 0.00963178 0)
(0.00290771 -0.000431626 0)
(-0.00170614 -0.00195617 0)
(-0.00452446 -0.00155505 0)
(-0.0064786 -0.000869462 0)
(-0.00796437 -0.000343616 0)
(-0.00919768 -0.000483335 0)
(-0.0100162 -0.000996304 0)
(-0.0102135 0.000123758 0)
(-0.0105222 0.00385316 0)
(-0.0112881 0.00551761 0)
(-0.0110257 0.00595039 0)
(-0.00938345 0.00572094 0)
(-0.00887056 0.00472384 0)
(-0.00852565 0.000407086 0)
(-0.0062584 -0.00315382 0)
(-0.00518295 -0.000996937 0)
(-0.00595563 -0.00717772 0)
(-0.00358124 -0.018167 0)
(0.00487138 0.00801136 0)
(0.00141372 0.00136412 0)
(-0.00297956 -0.000334727 0)
(-0.00603728 -0.000458844 0)
(-0.00828537 -7.98309e-05 0)
(-0.0100747 0.000318706 0)
(-0.0116505 3.33318e-05 0)
(-0.0128678 -0.000720637 0)
(-0.0132354 0.000122286 0)
(-0.0128512 0.00394159 0)
(-0.0126557 0.00552516 0)
(-0.011902 0.00546444 0)
(-0.0100188 0.00509997 0)
(-0.0089125 0.00452723 0)
(-0.0073394 -0.0004234 0)
(-0.00451271 -0.0041299 0)
(-0.0022391 -0.00134983 0)
(-0.00156679 -0.0073677 0)
(-0.000308574 -0.0195119 0)
(0.00263036 0.00677784 0)
(-0.000775615 0.00296575 0)
(-0.00468738 0.00123654 0)
(-0.0077818 0.000720246 0)
(-0.0101995 0.000820445 0)
(-0.0121785 0.00110575 0)
(-0.0139827 0.000704583 0)
(-0.0155883 -0.000303213 0)
(-0.0162875 6.31522e-05 0)
(-0.0152629 0.00350524 0)
(-0.0138933 0.00521346 0)
(-0.0125452 0.00478156 0)
(-0.0105167 0.00434253 0)
(-0.00855119 0.00379189 0)
(-0.00557512 -0.00168742 0)
(-0.00286677 -0.00520585 0)
(-2.51458e-05 -0.00242257 0)
(0.0023224 -0.00772739 0)
(0.00298029 -0.0190147 0)
(0.00111866 -0.0080521 0)
(0.00318135 -0.00792684 0)
(0.00510254 -0.0075365 0)
(0.00696758 -0.00714178 0)
(0.00870448 -0.00667847 0)
(0.0102462 -0.00611667 0)
(0.0115569 -0.00552749 0)
(0.0126623 -0.00492369 0)
(0.0135675 -0.00412591 0)
(0.0141858 -0.00303594 0)
(0.014428 -0.00189443 0)
(0.0142469 -0.000891498 0)
(0.0136224 -0.000152238 0)
(0.0125436 0.000455504 0)
(0.0110191 0.00115838 0)
(0.00918934 0.00235776 0)
(0.00770176 0.00465248 0)
(0.00767211 0.00822913 0)
(0.00877321 0.0106851 0)
(0.00990955 0.0114678 0)
(0.0110683 0.0100558 0)
(0.0110421 0.00713929 0)
(0.00821957 0.00599029 0)
(0.00111188 -0.00974719 0)
(0.00337567 -0.00952718 0)
(0.00547993 -0.00905782 0)
(0.00751457 -0.0085806 0)
(0.0093512 -0.00798656 0)
(0.0109293 -0.00721449 0)
(0.0122076 -0.00639505 0)
(0.013136 -0.00557393 0)
(0.0137309 -0.00456064 0)
(0.0140811 -0.003231 0)
(0.0142317 -0.00182144 0)
(0.0141256 -0.000487143 0)
(0.0136386 0.000651616 0)
(0.0126634 0.0016795 0)
(0.0112012 0.00269735 0)
(0.00944245 0.0038703 0)
(0.00792418 0.00537939 0)
(0.00751594 0.00729015 0)
(0.00844747 0.00894124 0)
(0.00993266 0.00963636 0)
(0.0107172 0.00903047 0)
(0.00971787 0.00834105 0)
(0.00709354 0.00805633 0)
(0.00165274 -0.0113931 0)
(0.00320456 -0.0114357 0)
(0.00559124 -0.0106974 0)
(0.00793912 -0.010108 0)
(0.00963456 -0.00938303 0)
(0.0111177 -0.00830165 0)
(0.012599 -0.00714088 0)
(0.0135968 -0.00604353 0)
(0.0139464 -0.00482633 0)
(0.0140412 -0.00337505 0)
(0.014199 -0.00184139 0)
(0.0143625 -0.000314495 0)
(0.0142219 0.00114626 0)
(0.0134707 0.00254601 0)
(0.0121117 0.00389357 0)
(0.0104187 0.00515887 0)
(0.00894217 0.00629701 0)
(0.00840148 0.0073166 0)
(0.00900257 0.00825628 0)
(0.0101435 0.00903615 0)
(0.0104665 0.0095918 0)
(0.00907401 0.0101996 0)
(0.00657714 0.0107389 0)
(0.00678909 -0.0178043 0)
(-0.000316728 -0.0125598 0)
(0.00305104 -0.0120786 0)
(0.00654491 -0.0111541 0)
(0.00636376 -0.00995994 0)
(0.0065835 -0.0090026 0)
(0.00916566 -0.00779482 0)
(0.0112212 -0.00634481 0)
(0.0118434 -0.0048547 0)
(0.0119825 -0.00343287 0)
(0.0122882 -0.00189131 0)
(0.0127274 -0.000346614 0)
(0.0129606 0.00136153 0)
(0.012288 0.00308579 0)
(0.0109473 0.00466443 0)
(0.00988464 0.00594156 0)
(0.00964358 0.00672 0)
(0.00998439 0.00740424 0)
(0.00955956 0.00823486 0)
(0.0090557 0.0089285 0)
(0.00920181 0.0100828 0)
(0.00873908 0.0111021 0)
(0.00733068 0.01182 0)
(-0.0147284 -0.011967 0)
(-0.0270723 -0.00922154 0)
(-0.024742 -0.0258237 0)
(-0.0255063 -0.0182403 0)
(-0.0303432 -0.00948304 0)
(-0.0291383 -0.0166733 0)
(-0.0234056 -0.0165806 0)
(-0.0169711 -0.0114419 0)
(-0.0122465 -0.00660644 0)
(-0.00889351 -0.00498351 0)
(-0.00550516 -0.00351825 0)
(-0.00149573 -0.00197511 0)
(0.0026694 0.00156303 0)
(0.00619277 0.00651772 0)
(0.00923549 0.00902308 0)
(0.0118547 0.00905084 0)
(0.0127417 0.00816819 0)
(0.0111506 0.00760843 0)
(0.00636632 0.0110122 0)
(-0.000350624 0.00902627 0)
(-0.00317443 0.0113894 0)
(-0.00304243 0.0158277 0)
(-0.00226821 0.0220777 0)
(-0.00234102 0.0134662 0)
(0.00315916 0.00337983 0)
(-0.00203387 -0.0157553 0)
(-0.0127882 -0.007346 0)
(-0.0109787 -0.00363276 0)
(-0.00962831 -0.0150273 0)
(-0.0151255 -0.016842 0)
(-0.0192559 -0.0142753 0)
(-0.0193439 -0.00979101 0)
(-0.0182049 -0.0083866 0)
(-0.0177142 -0.00693467 0)
(-0.0178401 -0.00643791 0)
(-0.0173644 -0.00464638 0)
(-0.0136101 -0.00185592 0)
(-0.00795185 0.000519576 0)
(-0.00521092 0.00320647 0)
(-0.00784531 0.00904165 0)
(-0.0123424 0.0113622 0)
(-0.013593 0.0169295 0)
(-0.0147116 0.0156013 0)
(-0.0179119 0.0124587 0)
(-0.0201465 0.0123445 0)
(-0.0195686 0.0138808 0)
(0.000648653 -0.00695771 0)
(0.00312012 -0.00698301 0)
(-0.00167345 -0.00816277 0)
(-0.00862034 -0.00499628 0)
(-0.0103199 -0.00968634 0)
(-0.0136637 -0.0114654 0)
(-0.0185363 -0.0103104 0)
(-0.0222706 -0.0106364 0)
(-0.0247493 -0.00956052 0)
(-0.0263909 -0.00802541 0)
(-0.0280223 -0.0060723 0)
(-0.0297059 -0.00464641 0)
(-0.0298372 -0.00534239 0)
(-0.0267418 -0.00698268 0)
(-0.0222958 -0.00320842 0)
(-0.0191529 0.00396709 0)
(-0.0176451 0.0125214 0)
(-0.0178693 0.0142124 0)
(-0.0188695 0.0166286 0)
(-0.0201187 0.017788 0)
(-0.0222038 0.0153789 0)
(-0.0228731 0.0129597 0)
(-0.0220269 0.012081 0)
(-0.000993218 0.00520121 0)
(-0.00232243 0.00197642 0)
(-0.00593567 -0.00257539 0)
(-0.00920442 -0.00147966 0)
(-0.0114828 -0.00405686 0)
(-0.0151563 -0.00636317 0)
(-0.0189391 -0.00660385 0)
(-0.0221219 -0.00682904 0)
(-0.0248277 -0.00653107 0)
(-0.0268573 -0.00555793 0)
(-0.02827 -0.00400507 0)
(-0.0290297 -0.00328751 0)
(-0.0289426 -0.00600673 0)
(-0.0287376 -0.00872001 0)
(-0.028664 -0.0054952 0)
(-0.0279026 0.00185027 0)
(-0.0256593 0.00957459 0)
(-0.023443 0.01368 0)
(-0.022406 0.0165577 0)
(-0.0215446 0.0179492 0)
(-0.0209872 0.0161602 0)
(-0.0210912 0.0126271 0)
(-0.0212489 0.0109467 0)
(-0.000783349 -4.03265e-05 0)
(-0.00166345 0.000758834 0)
(-0.00516104 5.32911e-05 0)
(-0.00828571 0.000574535 0)
(-0.0108029 -0.00104428 0)
(-0.0140459 -0.00293626 0)
(-0.0171723 -0.00366956 0)
(-0.0198817 -0.00401939 0)
(-0.0222313 -0.00422464 0)
(-0.0239668 -0.00401341 0)
(-0.0249503 -0.00323712 0)
(-0.025274 -0.00321826 0)
(-0.0258773 -0.00561768 0)
(-0.0277678 -0.00715367 0)
(-0.0299643 -0.00460531 0)
(-0.0304935 0.000964912 0)
(-0.0288842 0.00663202 0)
(-0.0265239 0.0116341 0)
(-0.0244379 0.0149888 0)
(-0.0225136 0.0163448 0)
(-0.021074 0.0152426 0)
(-0.0205778 0.0126965 0)
(-0.0205247 0.0104871 0)
(-0.00134503 0.00437039 0)
(-0.00279792 0.00432786 0)
(-0.00527799 0.00339224 0)
(-0.00754789 0.00308859 0)
(-0.00963831 0.0016931 0)
(-0.0121894 -3.81722e-05 0)
(-0.0147439 -0.00108108 0)
(-0.0169996 -0.00169814 0)
(-0.0189251 -0.00237051 0)
(-0.0204456 -0.00272153 0)
(-0.0215354 -0.00250226 0)
(-0.0223724 -0.00268168 0)
(-0.0236782 -0.004006 0)
(-0.0258857 -0.00454017 0)
(-0.0280827 -0.00281366 0)
(-0.0289582 0.000742474 0)
(-0.0282802 0.00494334 0)
(-0.0265831 0.00946364 0)
(-0.0244519 0.0128103 0)
(-0.0223388 0.0143421 0)
(-0.0206621 0.0139681 0)
(-0.0197387 0.0122887 0)
(-0.0193115 0.0100608 0)
(-0.00130098 0.00602679 0)
(-0.00285214 0.00604322 0)
(-0.00480854 0.00546745 0)
(-0.00659504 0.00494329 0)
(-0.00831471 0.00376201 0)
(-0.0103157 0.0022756 0)
(-0.0123779 0.00108898 0)
(-0.0142138 0.000191793 0)
(-0.015823 -0.000770315 0)
(-0.0172863 -0.00136723 0)
(-0.0186274 -0.00133066 0)
(-0.0198907 -0.00147421 0)
(-0.0214429 -0.00212454 0)
(-0.0235004 -0.00226517 0)
(-0.0254564 -0.00119722 0)
(-0.0263947 0.000925628 0)
(-0.0260585 0.00402867 0)
(-0.0247903 0.00769747 0)
(-0.0230226 0.0107816 0)
(-0.0211382 0.0124316 0)
(-0.0194518 0.0125316 0)
(-0.01818 0.0114001 0)
(-0.0172294 0.00934006 0)
(-0.00107218 0.00793629 0)
(-0.00252002 0.00774156 0)
(-0.00414242 0.00715988 0)
(-0.00562451 0.00649608 0)
(-0.00708408 0.00542293 0)
(-0.00869212 0.00411074 0)
(-0.0103319 0.00285026 0)
(-0.0118154 0.00172499 0)
(-0.0132211 0.000705751 0)
(-0.0147065 0.000118957 0)
(-0.0161892 0.000113511 0)
(-0.0175879 -3.21803e-05 0)
(-0.0191115 -0.000353868 0)
(-0.0208632 -0.000356539 0)
(-0.0224858 0.000229474 0)
(-0.0234177 0.00128394 0)
(-0.0234057 0.00342475 0)
(-0.0225229 0.00632138 0)
(-0.0210811 0.00909049 0)
(-0.0194392 0.0107011 0)
(-0.0177946 0.0109681 0)
(-0.0162729 0.0100877 0)
(-0.0148747 0.00818138 0)
(-0.000812951 0.00950404 0)
(-0.00205505 0.00923017 0)
(-0.00343166 0.00859065 0)
(-0.00469792 0.00784279 0)
(-0.00595768 0.00681925 0)
(-0.00729278 0.00559316 0)
(-0.00862916 0.004274 0)
(-0.00988902 0.00303557 0)
(-0.0111959 0.00211603 0)
(-0.0126633 0.00167002 0)
(-0.0141147 0.00156229 0)
(-0.0154454 0.00137643 0)
(-0.0167941 0.0011705 0)
(-0.0181859 0.00116587 0)
(-0.0194504 0.00143046 0)
(-0.0203815 0.00185962 0)
(-0.0207072 0.0031829 0)
(-0.0202325 0.00530263 0)
(-0.0191369 0.00768435 0)
(-0.0177026 0.00911282 0)
(-0.0161183 0.00934442 0)
(-0.0145256 0.00853644 0)
(-0.0130075 0.00675717 0)
(-0.000598456 0.0107206 0)
(-0.00160182 0.0104823 0)
(-0.00275983 0.00981061 0)
(-0.00384765 0.00901467 0)
(-0.00493556 0.00801507 0)
(-0.00606662 0.00683599 0)
(-0.00721466 0.00548479 0)
(-0.00838738 0.00426007 0)
(-0.00966617 0.0034814 0)
(-0.0110306 0.00312531 0)
(-0.0123296 0.00287993 0)
(-0.0135154 0.00263079 0)
(-0.0146545 0.00241609 0)
(-0.0157419 0.00233299 0)
(-0.0167089 0.00240016 0)
(-0.0175307 0.00258007 0)
(-0.0180342 0.00329002 0)
(-0.017967 0.00471427 0)
(-0.0172537 0.00655756 0)
(-0.0160295 0.00766078 0)
(-0.0145672 0.00777856 0)
(-0.0130754 0.00700334 0)
(-0.0116907 0.00539455 0)
(-0.00043239 0.0116401 0)
(-0.00121715 0.011498 0)
(-0.00217408 0.0108423 0)
(-0.00310629 0.0100271 0)
(-0.00404674 0.00904571 0)
(-0.00502272 0.00790957 0)
(-0.00607097 0.00660503 0)
(-0.00722003 0.00546982 0)
(-0.00845522 0.00478418 0)
(-0.00967387 0.00439019 0)
(-0.0107906 0.00403357 0)
(-0.0118159 0.0037065 0)
(-0.0127736 0.00342922 0)
(-0.013654 0.00324656 0)
(-0.0144256 0.00317745 0)
(-0.0150868 0.0032386 0)
(-0.0155901 0.00361101 0)
(-0.0157381 0.00450151 0)
(-0.0152967 0.00569978 0)
(-0.014317 0.00640856 0)
(-0.0130803 0.00639304 0)
(-0.0118054 0.00566061 0)
(-0.0106513 0.00426465 0)
(-0.000320309 0.0123228 0)
(-0.000911879 0.0123037 0)
(-0.00170333 0.0117101 0)
(-0.00250808 0.0109051 0)
(-0.00333549 0.00994794 0)
(-0.00420424 0.00886499 0)
(-0.00517523 0.00767936 0)
(-0.00627309 0.00664737 0)
(-0.00740876 0.00597094 0)
(-0.00847148 0.00547472 0)
(-0.00943421 0.00502883 0)
(-0.0103177 0.00462457 0)
(-0.0111313 0.00427293 0)
(-0.0118682 0.0039981 0)
(-0.0125141 0.00382042 0)
(-0.0130656 0.00377311 0)
(-0.0134828 0.00395261 0)
(-0.0136262 0.00443972 0)
(-0.0133262 0.00507455 0)
(-0.0125969 0.00541944 0)
(-0.0116292 0.00526408 0)
(-0.0106111 0.00456914 0)
(-0.00969723 0.00337445 0)
(-0.000217203 0.0128248 0)
(-0.000684288 0.0129475 0)
(-0.00135601 0.0124519 0)
(-0.00206452 0.0116797 0)
(-0.00280664 0.0107572 0)
(-0.00359812 0.00973648 0)
(-0.00448218 0.0086749 0)
(-0.00546414 0.007727 0)
(-0.00645638 0.00700707 0)
(-0.00737729 0.00641643 0)
(-0.00821542 0.00589092 0)
(-0.00898088 0.005414 0)
(-0.00967832 0.00499005 0)
(-0.0103036 0.00463393 0)
(-0.010848 0.0043637 0)
(-0.0113008 0.00420728 0)
(-0.0116239 0.00421239 0)
(-0.0117247 0.00439207 0)
(-0.0115029 0.00462815 0)
(-0.0109661 0.00468038 0)
(-0.0102351 0.00439401 0)
(-0.00945249 0.00372081 0)
(-0.00874783 0.0026869 0)
(-0.000160545 0.0132003 0)
(-0.000551195 0.0134869 0)
(-0.00113873 0.0130978 0)
(-0.00175828 0.0123682 0)
(-0.00241934 0.0114877 0)
(-0.00313097 0.0105285 0)
(-0.00391219 0.00955516 0)
(-0.00475426 0.00865787 0)
(-0.00559863 0.00789636 0)
(-0.00639085 0.00723542 0)
(-0.00711673 0.00663958 0)
(-0.00777801 0.00609511 0)
(-0.00837557 0.00560291 0)
(-0.00890571 0.00517216 0)
(-0.00936024 0.004816 0)
(-0.00972509 0.00455167 0)
(-0.00996814 0.00439752 0)
(-0.0100311 0.0043414 0)
(-0.00985946 0.00430006 0)
(-0.00946155 0.00413375 0)
(-0.00891501 0.00373865 0)
(-0.00832236 0.00307453 0)
(-0.0077834 0.00215834 0)
(-0.000153823 0.013517 0)
(-0.000502924 0.0139703 0)
(-0.00102229 0.0136547 0)
(-0.00155035 0.0129701 0)
(-0.00212517 0.0121337 0)
(-0.00274653 0.0112274 0)
(-0.00341794 0.0103097 0)
(-0.00412645 0.00943907 0)
(-0.00483435 0.00865155 0)
(-0.00550585 0.0079388 0)
(-0.00612613 0.00728407 0)
(-0.00669126 0.006679 0)
(-0.00719872 0.00612351 0)
(-0.00764382 0.00562306 0)
(-0.00801814 0.00518565 0)
(-0.00830766 0.00481953 0)
(-0.00848778 0.00452765 0)
(-0.00852319 0.00429104 0)
(-0.00838621 0.00405208 0)
(-0.00808652 0.00372617 0)
(-0.00767579 0.00324611 0)
(-0.00722615 0.00258304 0)
(-0.00681092 0.0017486 0)
(-0.000163784 0.0138251 0)
(-0.000489551 0.014415 0)
(-0.000944666 0.01413 0)
(-0.00139378 0.0134859 0)
(-0.00188476 0.0126902 0)
(-0.00241369 0.0118255 0)
(-0.00297783 0.010944 0)
(-0.00356503 0.010088 0)
(-0.00415076 0.00928348 0)
(-0.00471108 0.00853285 0)
(-0.00523239 0.00783054 0)
(-0.00570789 0.00717292 0)
(-0.0061327 0.00656018 0)
(-0.00650099 0.00599548 0)
(-0.0068044 0.00548289 0)
(-0.00703061 0.00502485 0)
(-0.00716198 0.00461752 0)
(-0.00717769 0.0042423 0)
(-0.00706486 0.00385957 0)
(-0.00683348 0.0034169 0)
(-0.00651917 0.00287153 0)
(-0.00617236 0.00220439 0)
(-0.00584553 0.00142411 0)
(-0.000219188 0.0141468 0)
(-0.00048466 0.0148063 0)
(-0.000874417 0.0145382 0)
(-0.00125953 0.0139244 0)
(-0.00167351 0.0131603 0)
(-0.00211418 0.0123258 0)
(-0.00257858 0.011468 0)
(-0.00305758 0.0106206 0)
(-0.00353514 0.00980427 0)
(-0.00399484 0.00902583 0)
(-0.00442499 0.00828575 0)
(-0.00481783 0.00758368 0)
(-0.00516716 0.00692045 0)
(-0.00546649 0.00629793 0)
(-0.00570786 0.00571781 0)
(-0.00588117 0.00517947 0)
(-0.00597413 0.00467688 0)
(-0.00597476 0.00419441 0)
(-0.00587795 0.00370502 0)
(-0.00569303 0.00317571 0)
(-0.00544517 0.00257961 0)
(-0.00516965 0.00190487 0)
(-0.00490352 0.00115831 0)
(-0.000279716 0.0144957 0)
(-0.000480695 0.0151286 0)
(-0.00080987 0.0148898 0)
(-0.00113794 0.0142944 0)
(-0.00147982 0.01355 0)
(-0.0018377 0.0127352 0)
(-0.00221101 0.0118929 0)
(-0.00259406 0.0110508 0)
(-0.00297639 0.0102261 0)
(-0.0033464 0.00942734 0)
(-0.0036943 0.00865766 0)
(-0.00401234 0.00791872 0)
(-0.0042938 0.00721195 0)
(-0.00453202 0.00653872 0)
(-0.00471971 0.00589952 0)
(-0.00484874 0.00529259 0)
(-0.00491065 0.00471199 0)
(-0.00489863 0.00414571 0)
(-0.00481139 0.00357546 0)
(-0.00465702 0.00298039 0)
(-0.00445362 0.00234382 0)
(-0.00422586 0.00165884 0)
(-0.00399974 0.000931055 0)
(-0.00029412 0.0148612 0)
(-0.000473993 0.015402 0)
(-0.000761587 0.0151884 0)
(-0.00102776 0.0145982 0)
(-0.00129784 0.0138631 0)
(-0.00157724 0.0130605 0)
(-0.00186761 0.0122287 0)
(-0.00216584 0.0113907 0)
(-0.00246492 0.0105609 0)
(-0.00275623 0.00974759 0)
(-0.00303152 0.00895512 0)
(-0.00328339 0.00818617 0)
(-0.0035051 0.00744264 0)
(-0.00369014 0.00672584 0)
(-0.00383195 0.00603598 0)
(-0.00392396 0.00537128 0)
(-0.00396023 0.00472695 0)
(-0.00393689 0.00409434 0)
(-0.00385434 0.00346135 0)
(-0.00371923 0.0028149 0)
(-0.00354459 0.00214489 0)
(-0.00334777 0.0014476 0)
(-0.00314693 0.000727756 0)
(-0.000265832 0.0152193 0)
(-0.000465676 0.0156648 0)
(-0.000723643 0.0154322 0)
(-0.000921315 0.0148338 0)
(-0.0011196 0.0141017 0)
(-0.00132512 0.0133077 0)
(-0.00154074 0.0124848 0)
(-0.00176479 0.0116517 0)
(-0.00199211 0.01082 0)
(-0.00221578 0.00999709 0)
(-0.00242856 0.00918762 0)
(-0.00262346 0.00839473 0)
(-0.00279394 0.0076207 0)
(-0.00293377 0.00686709 0)
(-0.00303705 0.00613434 0)
(-0.00309838 0.00542132 0)
(-0.00311341 0.00472473 0)
(-0.00307984 0.00403881 0)
(-0.00299862 0.00335591 0)
(-0.00287501 0.00266804 0)
(-0.00271841 0.00196932 0)
(-0.00254101 0.0012581 0)
(-0.00235548 0.000538402 0)
(-0.000251473 0.0155609 0)
(-0.000455661 0.0159268 0)
(-0.00067485 0.0156178 0)
(-0.000803395 0.0150002 0)
(-0.000933638 0.014269 0)
(-0.00107217 0.0134839 0)
(-0.0012224 0.012671 0)
(-0.0013832 0.0118449 0)
(-0.00155025 0.0110146 0)
(-0.00171744 0.0101866 0)
(-0.0018781 0.00936504 0)
(-0.00202559 0.00855346 0)
(-0.00215357 0.00775448 0)
(-0.00225615 0.00697004 0)
(-0.00232796 0.0062012 0)
(-0.00236443 0.00544774 0)
(-0.00236218 0.00470793 0)
(-0.00231967 0.00397841 0)
(-0.00223791 0.00325473 0)
(-0.0021209 0.00253234 0)
(-0.0019754 0.00180813 0)
(-0.00181 0.00108176 0)
(-0.00163356 0.00035667 0)
(-0.000282894 0.0158991 0)
(-0.000433737 0.016157 0)
(-0.000590805 0.0157419 0)
(-0.000657713 0.0151013 0)
(-0.000728291 0.0143724 0)
(-0.000809536 0.0135983 0)
(-0.000905192 0.012798 0)
(-0.00101429 0.0119818 0)
(-0.00113272 0.0111564 0)
(-0.00125469 0.0103269 0)
(-0.00137378 0.0094975 0)
(-0.00148353 0.00867164 0)
(-0.00157782 0.00785236 0)
(-0.00165103 0.00704218 0)
(-0.00169822 0.00624289 0)
(-0.00171538 0.00545534 0)
(-0.00169971 0.00467926 0)
(-0.00165003 0.0039133 0)
(-0.00156716 0.00315536 0)
(-0.00145407 0.0024033 0)
(-0.00131563 0.00165583 0)
(-0.00115793 0.000913437 0)
(-0.000987199 0.000179105 0)
(-0.00028262 0.0162256 0)
(-0.000362443 0.0163215 0)
(-0.000455185 0.0158082 0)
(-0.000473946 0.0151467 0)
(-0.000496066 0.0144224 0)
(-0.000531144 0.0136623 0)
(-0.000583726 0.0128775 0)
(-0.000652883 0.0120741 0)
(-0.000734378 0.0112567 0)
(-0.000822341 0.0104291 0)
(-0.000910337 0.0095952 0)
(-0.000991977 0.00875856 0)
(-0.00106127 0.00792272 0)
(-0.00111283 0.00709084 0)
(-0.00114205 0.00626556 0)
(-0.00114531 0.00544881 0)
(-0.00112016 0.00464171 0)
(-0.00106557 0.00384453 0)
(-0.000982125 0.003057 0)
(-0.000872011 0.00227867 0)
(-0.000738764 0.00150952 0)
(-0.00058676 0.000750572 0)
(-0.000420434 4.41586e-06 0)
(-0.000206669 0.0164888 0)
(-0.000239458 0.0164163 0)
(-0.000279489 0.0158265 0)
(-0.000255305 0.0151472 0)
(-0.000236652 0.0144299 0)
(-0.000235015 0.0136869 0)
(-0.000255265 0.012921 0)
(-0.000295845 0.0121337 0)
(-0.000351772 0.0113271 0)
(-0.000416647 0.010504 0)
(-0.00048375 0.00966814 0)
(-0.000546619 0.00882335 0)
(-0.000599335 0.00797371 0)
(-0.000636702 0.00712315 0)
(-0.000654381 0.0062752 0)
(-0.000649022 0.00543289 0)
(-0.000618415 0.00459857 0)
(-0.000561609 0.00377392 0)
(-0.000478985 0.00296009 0)
(-0.000372178 0.0021579 0)
(-0.000243828 0.00136824 0)
(-9.71694e-05 0.000592475 0)
(6.45468e-05 -0.000167144 0)
(-0.000118256 0.0166473 0)
(-0.000101411 0.0164483 0)
(-8.31502e-05 0.015799 0)
(-1.12504e-05 0.0151063 0)
(4.6492e-05 0.0144013 0)
(7.83288e-05 0.0136812 0)
(8.0915e-05 0.0129392 0)
(5.81657e-05 0.0121717 0)
(1.6908e-05 0.0113785 0)
(-3.53241e-05 0.0105621 0)
(-9.12459e-05 0.00972597 0)
(-0.000144202 0.00887475 0)
(-0.000188311 0.00801316 0)
(-0.000218541 0.00714596 0)
(-0.000230779 0.00627763 0)
(-0.000221911 0.00541226 0)
(-0.000189905 0.00455335 0)
(-0.000133875 0.00370382 0)
(-5.40809e-05 0.00286597 0)
(4.81867e-05 0.00204162 0)
(0.000170846 0.00123236 0)
(0.000311369 0.000439743 0)
(0.000467269 -0.000334272 0)
(-7.20061e-05 0.0167044 0)
(3.79209e-05 0.0164066 0)
(0.000122957 0.0157156 0)
(0.000252256 0.0150195 0)
(0.000351523 0.0143388 0)
(0.000408398 0.0136525 0)
(0.000424566 0.0129419 0)
(0.00040907 0.0121986 0)
(0.000371983 0.0114215 0)
(0.000322542 0.010613 0)
(0.000268778 0.00977772 0)
(0.000217568 0.00892094 0)
(0.000174739 0.00804837 0)
(0.00014514 0.00716568 0)
(0.000132661 0.00627835 0)
(0.0001402 0.00539148 0)
(0.000169623 0.00450968 0)
(0.000221737 0.00363694 0)
(0.000296317 0.00277658 0)
(0.000392237 0.00193128 0)
(0.000507707 0.00110313 0)
(0.000640589 0.000293817 0)
(0.00078884 -0.000494994 0)
(-2.86768e-05 0.0166694 0)
(0.000173062 0.0162844 0)
(0.000342009 0.0155608 0)
(0.000537425 0.0148781 0)
(0.000680341 0.0142438 0)
(0.000755555 0.0136086 0)
(0.000774618 0.0129394 0)
(0.00075535 0.0122251 0)
(0.000712292 0.0114659 0)
(0.000656573 0.010666 0)
(0.000596884 0.00983163 0)
(0.000540188 0.00896933 0)
(0.000492153 0.00808594 0)
(0.000457389 0.00718816 0)
(0.000439535 0.00628244 0)
(0.000441278 0.00537489 0)
(0.000464323 0.00447112 0)
(0.000509378 0.00357615 0)
(0.000576185 0.00269423 0)
(0.000663641 0.00182877 0)
(0.000770034 0.000982313 0)
(0.000893368 0.000156629 0)
(0.0010318 -0.000646985 0)
(3.58198e-05 0.0165401 0)
(0.000312536 0.0160766 0)
(0.000583104 0.0153203 0)
(0.000853497 0.0146723 0)
(0.00103765 0.0141204 0)
(0.00111951 0.0135606 0)
(0.00112796 0.0129435 0)
(0.00109343 0.012262 0)
(0.00103504 0.0115211 0)
(0.000965215 0.0107292 0)
(0.000892827 0.00989484 0)
(0.000824624 0.00902628 0)
(0.000765945 0.00813161 0)
(0.000721072 0.00721853 0)
(0.000693368 0.00629447 0)
(0.000685313 0.00536645 0)
(0.000698465 0.00444107 0)
(0.000733435 0.00352431 0)
(0.000789892 0.00262131 0)
(0.000866659 0.0017362 0)
(0.000961938 0.000871946 0)
(0.00107366 3.03298e-05 0)
(0.0012 -0.000787782 0)
(0.000121538 0.0163094 0)
(0.000495315 0.0157713 0)
(0.00087431 0.0149829 0)
(0.00121538 0.0144012 0)
(0.00142448 0.0139794 0)
(0.00149457 0.0135242 0)
(0.00147702 0.0129675 0)
(0.0014169 0.0123191 0)
(0.00133582 0.0115951 0)
(0.00124606 0.0108091 0)
(0.00115595 0.00997303 0)
(0.00107169 0.00909692 0)
(0.000998141 0.00819006 0)
(0.000939184 0.00726112 0)
(0.000897896 0.00631838 0)
(0.000876566 0.00536973 0)
(0.000876648 0.00442269 0)
(0.000898694 0.00348417 0)
(0.000942308 0.00256021 0)
(0.00100619 0.00165571 0)
(0.00108834 0.00077409 0)
(0.00118641 -8.29013e-05 0)
(0.00129842 -0.000914951 0)
(0.000322506 0.0159067 0)
(0.000835441 0.0153531 0)
(0.00129531 0.0145699 0)
(0.001635 0.0141096 0)
(0.00182012 0.0138405 0)
(0.00186141 0.0135161 0)
(0.00180826 0.0130215 0)
(0.0017172 0.0124033 0)
(0.00160965 0.0116927 0)
(0.0014967 0.01091 0)
(0.00138583 0.0100701 0)
(0.00128255 0.00918492 0)
(0.00119118 0.00826484 0)