/*--------------------------------*- C++ -*----------------------------------*\
  =========                 |
  \\      /  F ield         | OpenFOAM: The Open Source CFD Toolbox
   \\    /   O peration     | Website:  https://openfoam.org
    \\  /    A nd           | Version:  9
     \\/     M anipulation  |
\*---------------------------------------------------------------------------*/
FoamFile
{
    format      ascii;
    class       surfaceScalarField;
    location    "6.88";
    object      alphaPhi0.water;
}
// * * * * * * * * * * * * * * * * * * * * * * * * * * * * * * * * * * * * * //

dimensions      [0 3 -1 0 0 0 0];

internalField   nonuniform List<scalar> 
4432
(
-2.0639e-07
2.0639e-07
-3.77526e-07
1.71137e-07
-5.32663e-07
1.55139e-07
-6.75889e-07
1.43227e-07
-8.06069e-07
1.30181e-07
-9.18814e-07
1.12746e-07
-1.00809e-06
8.92797e-08
-1.06771e-06
5.96141e-08
-1.09482e-06
2.7113e-08
-1.08781e-06
-7.01735e-09
-1.04427e-06
-4.35391e-08
-9.53789e-07
-9.0479e-08
-8.00281e-07
-1.53508e-07
-5.71204e-07
-2.29077e-07
-2.78544e-07
-2.92659e-07
1.10542e-08
-2.89596e-07
1.07137e-07
-9.60795e-08
-2.00112e-07
3.0725e-07
-8.1183e-07
6.13685e-07
-1.54011e-06
7.27966e-07
-1.74076e-06
1.98922e-07
-1.10322e-06
-6.39171e-07
-1.10441e-06
-1.92896e-07
3.99289e-07
-3.63892e-07
3.42134e-07
-5.22624e-07
3.13873e-07
-6.68546e-07
2.89151e-07
-7.99456e-07
2.61089e-07
-9.11849e-07
2.25141e-07
-1.00103e-06
1.7846e-07
-1.06331e-06
1.21898e-07
-1.09599e-06
5.97919e-08
-1.09869e-06
-4.327e-09
-1.06863e-06
-7.35961e-08
-9.99501e-07
-1.59607e-07
-8.81558e-07
-2.7145e-07
-7.0909e-07
-4.01544e-07
-4.92825e-07
-5.08919e-07
-2.85248e-07
-4.97169e-07
-2.07654e-07
-1.73673e-07
-4.02541e-07
5.02149e-07
-7.62294e-07
9.75563e-07
-1.1096e-06
1.07497e-06
-1.25786e-06
3.46306e-07
-9.63467e-07
-9.33555e-07
-2.06786e-06
-1.83568e-07
5.8286e-07
-3.54332e-07
5.12901e-07
-5.14262e-07
4.73803e-07
-6.62051e-07
4.36942e-07
-7.94898e-07
3.93934e-07
-9.09547e-07
3.39791e-07
-1.00234e-06
2.71258e-07
-1.07011e-06
1.89667e-07
-1.11074e-06
1.0042e-07
-1.12384e-06
8.76787e-09
-1.10797e-06
-8.94647e-08
-1.05908e-06
-2.08498e-07
-9.71089e-07
-3.59443e-07
-8.40644e-07
-5.31988e-07
-6.74631e-07
-6.74928e-07
-5.0459e-07
-6.67186e-07
-4.1586e-07
-2.6241e-07
-5.16524e-07
6.02797e-07
-6.92511e-07
1.15235e-06
-8.24733e-07
1.20833e-06
-9.24869e-07
4.46381e-07
-7.56947e-07
-1.10147e-06
-2.82482e-06
-1.77921e-07
7.60783e-07
-3.49559e-07
6.8454e-07
-5.11788e-07
6.36033e-07
-6.6256e-07
5.87716e-07
-7.98872e-07
5.30246e-07
-9.17632e-07
4.58553e-07
-1.01574e-06
3.69367e-07
-1.0904e-06
2.64323e-07
-1.13979e-06
1.49815e-07
-1.16399e-06
3.29604e-08
-1.16284e-06
-9.06153e-08
-1.13412e-06
-2.37217e-07
-1.07383e-06
-4.19736e-07
-9.79404e-07
-6.26412e-07
-8.53192e-07
-8.01138e-07
-7.0595e-07
-8.13928e-07
-5.85463e-07
-3.83101e-07
-6.03815e-07
6.21153e-07
-6.48422e-07
1.19696e-06
-6.50883e-07
1.2108e-06
-6.74017e-07
4.69583e-07
-5.28948e-07
-1.24671e-06
-3.35378e-06
-1.7428e-07
9.35065e-07
-3.47915e-07
8.58176e-07
-5.13804e-07
8.01922e-07
-6.68882e-07
7.42796e-07
-8.10083e-07
6.71447e-07
-9.34547e-07
5.83019e-07
-1.03949e-06
4.74313e-07
-1.12231e-06
3.47144e-07
-1.18139e-06
2.08887e-07
-1.21734e-06
6.89168e-08
-1.23126e-06
-7.66949e-08
-1.22241e-06
-2.4607e-07
-1.18813e-06
-4.54011e-07
-1.12631e-06
-6.88234e-07
-1.03617e-06
-8.91268e-07
-9.1547e-07
-9.34633e-07
-7.54491e-07
-5.4014e-07
-6.85398e-07
5.46247e-07
-6.29425e-07
1.14099e-06
-5.30702e-07
1.11208e-06
-4.65378e-07
4.01557e-07
-2.76495e-07
-1.43286e-06
-3.63028e-06
-1.71956e-07
1.10702e-06
-3.49403e-07
1.03562e-06
-5.20229e-07
9.72747e-07
-6.80715e-07
9.03284e-07
-8.27951e-07
8.18684e-07
-9.59336e-07
7.14407e-07
-1.07228e-06
5.87264e-07
-1.16426e-06
4.39125e-07
-1.23365e-06
2.78277e-07
-1.28163e-06
1.16896e-07
-1.31037e-06
-4.79526e-08
-1.32034e-06
-2.36096e-07
-1.30985e-06
-4.64505e-07
-1.27737e-06
-7.20711e-07
-1.22131e-06
-9.47323e-07
-1.13403e-06
-1.02191e-06
-9.60761e-07
-6.97388e-07
-7.71729e-07
3.49075e-07
-6.22418e-07
9.70148e-07
-4.4225e-07
9.17365e-07
-2.43418e-07
1.96366e-07
1.31987e-08
-1.6894e-06
-3.61708e-06
-1.70593e-07
1.27761e-06
-3.54146e-07
1.21918e-06
-5.30947e-07
1.14955e-06
-6.97488e-07
1.06983e-06
-8.51488e-07
9.72684e-07
-9.90577e-07
8.53497e-07
-1.11227e-06
7.08955e-07
-1.21402e-06
5.40877e-07
-1.29403e-06
3.5829e-07
-1.35381e-06
1.76683e-07
-1.39648e-06
-5.28382e-09
-1.42332e-06
-2.09253e-07
-1.43335e-06
-4.5447e-07
-1.42566e-06
-7.28399e-07
-1.39887e-06
-9.74109e-07
-1.34289e-06
-1.07789e-06
-1.21046e-06
-8.21923e-07
-9.11404e-07
6.3437e-08
-6.51665e-07
7.09736e-07
-3.75872e-07
6.40868e-07
-3.66167e-08
-1.43734e-07
2.4094e-07
-1.97214e-06
-3.37615e-06
-1.74948e-07
1.45256e-06
-3.63252e-07
1.40748e-06
-5.45088e-07
1.33138e-06
-7.1772e-07
1.24246e-06
-8.78827e-07
1.13379e-06
-1.02595e-06
1.00061e-06
-1.15662e-06
8.39627e-07
-1.26836e-06
6.52611e-07
-1.359e-06
4.4893e-07
-1.42992e-06
2.476e-07
-1.48497e-06
4.97596e-08
-1.52574e-06
-1.68485e-07
-1.55197e-06
-4.28239e-07
-1.56288e-06
-7.17492e-07
-1.55638e-06
-9.80608e-07
-1.51964e-06
-1.11462e-06
-1.41302e-06
-9.28547e-07
-1.07845e-06
-2.49472e-07
-7.15517e-07
3.46126e-07
-3.39111e-07
2.63791e-07
7.51235e-08
-5.62044e-07
2.6361e-07
-2.16139e-06
-3.11251e-06
-8.82258e-07
8.8148e-07
3.08701e-08
-9.18893e-07
9.54967e-07
-9.25607e-07
1.60601e-06
-6.53837e-07
2.08679e-06
-4.8572e-07
2.38853e-06
-3.08177e-07
2.68376e-06
-2.97892e-07
3.05843e-06
-3.77339e-07
3.4315e-06
-3.75052e-07
3.35377e-06
7.59888e-08
2.59069e-06
7.62438e-07
1.55981e-06
1.04133e-06
1.61627e-07
1.4039e-06
-9.30902e-07
1.0914e-06
-8.01801e-07
-1.29164e-07
-1.61649e-07
-6.40216e-07
1.66751e-07
-3.28461e-07
5.22747e-07
-3.56022e-07
5.21947e-07
-2.15094e-07
1.09611e-06
4.49503e-07
-1.58199e-06
1.02138e-06
-1.49751e-06
1.46443e-06
-1.09692e-06
1.79325e-06
-8.14563e-07
2.07991e-06
-5.94867e-07
2.34549e-06
-5.64196e-07
2.63473e-06
-6.66769e-07
2.85332e-06
-5.93951e-07
2.74205e-06
1.87058e-07
2.21812e-06
1.28695e-06
1.40853e-06
1.85564e-06
4.35877e-07
2.3779e-06
-3.80547e-07
1.91072e-06
-4.96697e-07
-1.30768e-08
-2.44581e-07
-8.92396e-07
-1.73445e-07
-3.99662e-07
1.58754e-07
-6.88282e-07
6.80638e-07
3.88884e-07
7.06757e-07
7.34941e-07
-1.92566e-06
1.06729e-06
-1.82984e-06
1.37065e-06
-1.4003e-06
1.62129e-06
-1.06523e-06
1.8434e-06
-8.17029e-07
2.05068e-06
-7.7152e-07
2.26031e-06
-8.76455e-07
2.3971e-06
-7.31041e-07
2.24395e-06
3.39174e-07
1.80981e-06
1.72139e-06
1.20043e-06
2.46502e-06
5.72685e-07
3.00616e-06
-4.35162e-08
2.52872e-06
-2.25411e-07
1.68004e-07
-1.90494e-07
-9.27375e-07
-3.62342e-07
-2.27878e-07
-2.40808e-07
-8.09652e-07
4.38494e-07
7.62809e-07
-5.38372e-08
9.09695e-07
-2.07102e-06
1.08406e-06
-2.00426e-06
1.28962e-06
-1.60592e-06
1.47637e-06
-1.25199e-06
1.63891e-06
-9.79605e-07
1.78105e-06
-9.1378e-07
1.91756e-06
-1.01362e-06
2.01336e-06
-8.28203e-07
1.87431e-06
4.75731e-07
1.51266e-06
2.0843e-06
1.06781e-06
2.90987e-06
6.47502e-07
3.42646e-06
1.84087e-07
2.99213e-06
4.1005e-08
3.10826e-07
-5.89386e-08
-8.27493e-07
-4.5676e-07
1.69832e-07
-5.622e-07
-6.98857e-07
-1.23816e-07
8.54515e-07
-9.08546e-07
9.62499e-07
-2.17901e-06
1.0648e-06
-2.10656e-06
1.2069e-06
-1.74805e-06
1.34171e-06
-1.38682e-06
1.44791e-06
-1.08604e-06
1.52642e-06
-9.9297e-07
1.59441e-06
-1.08228e-06
1.65713e-06
-8.91389e-07
1.57134e-06
5.54996e-07
1.28635e-06
2.3707e-06
9.72761e-07
3.22346e-06
7.12531e-07
3.68669e-06
3.75235e-07
3.32943e-06
3.17743e-07
3.64701e-07
1.48494e-07
-6.55847e-07
-3.94182e-07
7.03752e-07
-6.46621e-07
-4.48137e-07
-7.73379e-07
7.78318e-07
-1.6869e-06
9.33906e-07
-2.33461e-06
1.01732e-06
-2.18998e-06
1.11988e-06
-1.85061e-06
1.2137e-06
-1.48072e-06
1.27045e-06
-1.14288e-06
1.28816e-06
-1.01096e-06
1.2858e-06
-1.08005e-06
1.30342e-06
-9.08983e-07
1.29567e-06
5.48259e-07
1.10371e-06
2.51001e-06
9.09018e-07
3.41815e-06
7.43451e-07
3.85226e-06
6.22099e-07
3.33656e-06
6.34775e-07
3.6936e-07
4.12338e-07
-4.35919e-07
-1.23397e-07
1.22879e-06
-4.96876e-07
-7.54886e-08
-1.27025e-06
6.83892e-07
-2.37079e-06
8.78308e-07
-2.52904e-06
9.55774e-07
-2.26744e-06
1.03028e-06
-1.92515e-06
1.09202e-06
-1.54254e-06
1.10828e-06
-1.15923e-06
1.07093e-06
-9.73589e-07
9.95834e-07
-1.00494e-06
9.44205e-07
-8.57338e-07
9.72217e-07
4.89685e-07
9.46146e-07
2.49404e-06
8.58651e-07
3.36578e-06
8.01984e-07
3.78632e-06
9.77297e-07
3.12606e-06
9.54722e-07
4.29459e-07
6.58484e-07
-1.44806e-07
2.55859e-07
1.61791e-06
-1.65043e-07
3.4761e-07
-1.4353e-06
6.66636e-07
-3.03743e-06
8.33702e-07
-2.6961e-06
8.90842e-07
-2.32458e-06
9.38319e-07
-1.97262e-06
9.75212e-07
-1.57943e-06
9.62108e-07
-1.14611e-06
8.83795e-07
-8.95358e-07
7.48328e-07
-8.70267e-07
6.04961e-07
-7.1967e-07
6.74158e-07
4.17217e-07
8.06279e-07
2.33493e-06
8.71366e-07
3.27499e-06
9.95972e-07
3.63612e-06
1.39801e-06
2.83802e-06
1.23749e-06
6.05615e-07
8.81891e-07
2.10833e-07
6.31057e-07
1.85529e-06
2.3047e-07
7.50079e-07
-1.20482e-06
-3.63282e-07
1.81584e-06
-7.92622e-07
1.83682e-06
-1.20553e-06
1.74429e-06
-1.59552e-06
1.63245e-06
-1.96242e-06
1.50068e-06
-2.30155e-06
1.33974e-06
-2.6083e-06
1.14637e-06
-2.87908e-06
9.23393e-07
-3.10625e-06
6.76093e-07
-3.29144e-06
4.32787e-07
-3.44037e-06
1.98685e-07
-3.56169e-06
-4.71591e-08
-3.65399e-06
-3.35932e-07
-3.71494e-06
-6.56534e-07
-3.73659e-06
-9.58956e-07
-3.67342e-06
-1.17779e-06
-3.42365e-06
-1.17812e-06
-2.76604e-06
-9.03812e-07
-1.77627e-06
-6.33873e-07
-7.74249e-07
-7.40108e-07
-9.53962e-09
-1.331e-06
-7.08228e-08
-2.09909e-06
-2.47692e-06
-7.06365e-07
-4.2774e-07
1.56191e-06
-8.50623e-07
1.56781e-06
-1.22104e-06
1.46551e-06
-1.60416e-06
1.40262e-06
-1.9832e-06
1.31671e-06
-2.33581e-06
1.19267e-06
-2.6585e-06
1.04121e-06
-2.96149e-06
8.73805e-07
-3.23889e-06
6.85138e-07
-3.46859e-06
4.81136e-07
-3.63594e-06
2.68139e-07
-3.74669e-06
4.53215e-08
-3.83032e-06
-2.03579e-07
-3.89559e-06
-4.76367e-07
-3.93626e-06
-7.46611e-07
-3.88582e-06
-1.00438e-06
-3.61548e-06
-1.19514e-06
-2.96953e-06
-1.29797e-06
-1.98531e-06
-1.37664e-06
-9.55602e-07
-1.51692e-06
-2.38887e-07
-1.75068e-06
-4.95201e-09
-1.98728e-06
-2.17297e-06
7.24303e-08
-1.78261e-07
0
-3.10896e-07
2.09296e-10
-4.68083e-07
0
-5.88735e-07
1.17208e-08
-6.82934e-07
2.39104e-08
-7.77499e-07
2.25373e-08
-8.80759e-07
1.50356e-08
-9.83198e-07
9.83401e-09
-1.08729e-06
5.74765e-09
-1.19058e-06
2.44869e-09
-1.27424e-06
4.37925e-10
-1.32885e-06
0
-1.36108e-06
-2.47737e-09
-1.39276e-06
-4.63026e-09
-1.42291e-06
-6.45518e-09
-1.4442e-06
-7.45574e-09
-1.39947e-06
-7.56839e-09
-1.19853e-06
-8.52242e-09
-8.28381e-07
-4.60155e-09
-3.99019e-07
-6.05966e-09
-9.38946e-08
-6.15647e-09
3.6033e-08
-5.54215e-09
-4.2951e-09
9.67233e-08
-2.32245e-10
0
-1.71098e-10
9.3612e-13
-3.87438e-09
0
-6.33671e-09
0
-6.19626e-09
0
-5.32773e-09
0
-4.89671e-09
0
-4.05311e-09
0
-2.96959e-09
0
-2.27903e-09
0
-1.98758e-09
0
-1.71454e-09
0
-1.70615e-09
-1.51308e-09
-1.66823e-09
-3.69052e-09
-1.5992e-09
-5.6343e-09
-1.50361e-09
-6.89333e-09
-1.38626e-09
-7.34501e-09
-1.06946e-09
-8.73992e-09
-8.47405e-10
-4.8234e-09
-4.55699e-10
-6.46515e-09
-9.12293e-11
-6.52831e-09
1.55068e-10
-5.7907e-09
-4.41295e-09
2.71842e-10
5.50333e-10
2.76222e-10
-2.10507e-10
6.124e-10
-1.18215e-09
1.09974e-10
-3.85364e-09
1.06669e-09
-7.3447e-09
1.48236e-09
-8.49732e-09
2.18116e-09
-7.53648e-09
3.09882e-09
-1.46195e-08
2.11805e-09
-1.33654e-08
6.77847e-10
-1.26068e-08
1.1643e-09
-1.13847e-08
6.97153e-10
-9.3858e-09
-7.93052e-11
-7.83138e-09
-1.14796e-09
-6.65576e-09
-2.6765e-09
-1.28556e-09
-3.98472e-10
1.31107e-10
-4.09269e-09
0
-3.45731e-09
1.95697e-10
-4.78896e-09
0
-2.49235e-09
-6.12118e-10
-3.79848e-09
-9.91425e-10
-4.55298e-09
-2.31689e-10
-4.95589e-09
-2.24002e-09
-1.90947e-10
-6.48847e-10
0
-4.9447e-10
0
7.74881e-10
5.2531e-10
8.76714e-10
0
1.15595e-11
0
-1.41241e-10
0
-1.45879e-10
2.56398e-12
-1.70624e-11
0
-2.63565e-11
8.42946e-13
-4.85601e-11
2.59996e-13
-2.32799e-10
7.20356e-14
-2.08887e-10
-1.31465e-14
-6.16826e-11
-1.35739e-13
-5.91935e-11
-1.96308e-11
-2.48782e-10
-1.19749e-10
-2.08755e-10
-5.37731e-10
-3.03517e-10
-5.60167e-10
-9.38223e-10
-5.47294e-10
-7.34626e-10
-9.78792e-10
-1.39025e-09
-9.51725e-10
-2.11521e-09
-1.54427e-09
-2.43445e-09
-1.57686e-09
-2.80562e-09
-4.44178e-10
-6.89176e-13
1.9497e-14
-6.74502e-11
3.91898e-14
1.42144e-10
4.0373e-14
2.08636e-11
0
1.97003e-11
0
7.99043e-13
0
3.9244e-14
0
9.06851e-17
0
-1.7227e-14
3.75987e-14
-2.16505e-14
0
-2.22841e-14
0
-3.21025e-14
-7.60195e-14
-2.07785e-13
-3.27473e-14
0
-2.08248e-11
-4.87563e-11
-1.81593e-10
-1.23975e-10
-5.09909e-10
-4.93291e-11
-3.58647e-10
-1.05621e-10
-1.27566e-10
-2.00723e-10
-2.65964e-10
-1.87173e-10
-2.53527e-10
-2.38608e-10
-7.99908e-12
-8.99921e-10
-9.56528e-11
-9.10956e-10
-1.99571e-09
9.53777e-16
1.21432e-14
3.32701e-15
3.10855e-14
9.90172e-14
0
7.61677e-14
0
1.91828e-12
0
1.5128e-12
8.33276e-14
9.37981e-13
7.50595e-12
8.46302e-13
4.05283e-12
8.23857e-15
4.87849e-14
-9.91369e-14
2.1113e-12
-4.12201e-13
1.9464e-12
0
4.53475e-13
-1.01089e-13
-5.16211e-15
-8.29409e-11
-1.41356e-11
-4.23662e-11
-1.3489e-10
-1.70694e-10
-2.92991e-10
-1.09926e-10
-1.83614e-10
-8.30698e-11
-1.28786e-10
-1.0014e-10
-1.35155e-10
-1.93818e-12
-2.74284e-11
-9.92599e-12
-3.95156e-15
-6.99794e-11
-4.34282e-14
-1.71965e-13
-1.23525e-10
1.09758e-15
1.09595e-14
8.85813e-16
3.09952e-14
2.56871e-15
8.0558e-14
2.5326e-15
2.6884e-14
2.03376e-13
1.32493e-14
8.93113e-13
5.17098e-13
2.16707e-12
8.05095e-12
9.62083e-13
2.80962e-12
1.26168e-13
5.78267e-14
6.6508e-13
4.02608e-12
-4.09844e-14
2.81201e-12
0
1.4388e-12
0
4.64326e-15
-1.31745e-11
-2.91366e-12
-3.12241e-11
-8.4125e-14
-3.58514e-11
-1.14828e-12
-5.90973e-11
-2.54485e-11
-8.0719e-11
-4.78786e-11
-1.92372e-11
-3.09518e-11
-2.62438e-14
-4.4872e-13
-9.7028e-15
-1.29936e-14
-1.06502e-14
-3.43948e-14
-1.60478e-13
-1.33465e-14
6.83288e-16
1.019e-14
1.37459e-14
3.48477e-13
6.37275e-15
3.7386e-13
6.73218e-16
5.59836e-14
1.18281e-14
1.92278e-15
2.69407e-13
2.04031e-15
4.75955e-13
0
9.97183e-14
2.90077e-13
5.06955e-13
2.03154e-13
5.56717e-13
3.37998e-12
2.11131e-13
3.31503e-12
-1.27936e-13
1.32494e-12
-7.77646e-14
3.90506e-15
-6.33295e-15
-7.86223e-15
-1.50762e-14
-3.44223e-14
-9.84665e-13
-1.40885e-13
-6.89672e-12
-1.16049e-12
-8.37886e-12
-3.83631e-12
-1.19357e-12
-2.3936e-12
-8.5824e-14
-2.66766e-14
-3.14151e-14
-1.74348e-14
-1.43415e-13
-5.36735e-14
-6.879e-14
-4.64402e-14
7.50351e-15
1.41996e-14
1.36873e-14
3.54302e-13
3.72685e-15
3.92157e-13
7.79109e-17
1.07322e-13
5.82639e-17
1.90392e-15
2.85215e-16
1.71535e-15
6.84858e-16
9.57758e-15
2.8746e-15
2.69138e-13
3.10279e-13
1.27163e-12
3.07097e-13
1.4449e-12
-4.7055e-15
3.78516e-12
-4.02231e-15
1.8545e-14
-3.62116e-16
3.59334e-16
-7.56678e-15
-5.14243e-16
0
-1.53896e-15
-2.76879e-13
-9.58533e-14
-6.74601e-13
-2.44469e-12
-1.16843e-13
-8.62159e-12
-7.32508e-14
-2.44271e-12
-4.58819e-14
0
-1.40281e-13
-8.93968e-15
-1.28618e-13
-1.57382e-14
-4.81437e-14
-1.91736e-14
3.53296e-15
7.15498e-15
6.38155e-15
1.55288e-13
2.01536e-15
4.04812e-13
4.0459e-17
7.29148e-14
2.19813e-17
1.87566e-15
8.79344e-17
1.76499e-15
8.29049e-16
8.93619e-15
2.52181e-13
4.29552e-12
1.70683e-13
3.5983e-12
-6.77274e-15
7.55822e-13
-1.84616e-14
5.37466e-14
-5.67513e-16
8.16334e-16
-6.78243e-16
5.76067e-16
0
1.1626e-16
0
-1.79426e-16
-2.11366e-12
-3.89023e-13
-1.23435e-11
-5.41229e-12
-1.24305e-11
-7.42658e-12
-4.90232e-12
-6.0316e-12
-6.46001e-14
-2.74922e-12
-5.94067e-14
-6.3595e-15
-5.86088e-14
-9.42357e-15
-1.50934e-14
-1.47355e-14
2.34209e-16
3.87545e-15
1.37751e-15
3.803e-14
9.29251e-16
2.91623e-14
0
6.48499e-15
3.08972e-17
1.87194e-15
1.69881e-16
1.74481e-15
1.17789e-13
1.74505e-12
9.16758e-14
4.36292e-12
-1.09246e-14
3.72671e-12
-5.20584e-14
6.84735e-13
-3.28974e-16
1.95564e-15
-3.95535e-16
1.0421e-15
-4.33365e-16
7.47901e-16
-1.26688e-17
1.42907e-16
0
-5.48443e-18
-3.4665e-12
-1.6109e-14
-1.18638e-11
-2.82632e-12
-1.35922e-11
-4.59025e-12
-1.25307e-11
-5.98509e-12
-4.07682e-14
-1.64987e-12
-3.34983e-14
-5.84054e-15
-2.72868e-14
-7.7753e-15
-1.4057e-14
-2.04014e-14
2.61521e-17
1.66505e-14
2.27875e-17
1.00961e-14
1.66908e-17
9.71877e-16
8.7316e-18
3.88665e-16
3.08742e-17
1.97476e-15
1.49908e-16
1.74812e-15
1.62712e-14
1.26305e-12
-2.54178e-14
4.44591e-12
-7.70163e-14
1.80401e-12
-9.84791e-16
8.7256e-15
-4.95873e-16
1.40865e-15
-4.4374e-16
1.2764e-15
-3.13617e-16
9.1284e-16
-3.44691e-17
1.47435e-16
-4.25113e-17
1.18658e-17
0
-2.34663e-16
-3.74344e-12
-1.5936e-13
-1.09149e-11
-1.59987e-12
-8.8654e-12
-2.35473e-12
-6.04749e-14
-1.75697e-13
-5.02822e-14
-8.25966e-15
-4.56128e-14
-1.63761e-14
-1.65922e-14
-2.6167e-14
2.74221e-16
1.96815e-13
9.05283e-16
4.91601e-13
0
1.17135e-16
9.32438e-18
5.65448e-16
2.1806e-16
3.69353e-15
3.61658e-15
4.56402e-14
1.05419e-15
4.07377e-14
-2.95417e-14
0
-8.69809e-15
1.67142e-17
-2.64564e-16
2.26941e-16
-3.93394e-16
1.4777e-15
-3.77652e-16
1.68557e-15
-1.34892e-16
7.77111e-16
-5.06283e-17
6.17326e-17
-5.52436e-17
2.53715e-17
-2.85175e-16
4.5767e-18
-6.49057e-14
-2.01772e-17
-3.76699e-13
-4.43678e-17
-1.40258e-14
-1.03224e-15
-2.04058e-14
-1.28641e-15
-4.97824e-14
-8.09337e-15
-4.02409e-14
-1.29639e-14
-1.46306e-14
-4.02079e-15
1.17201e-15
9.51253e-13
1.67506e-15
8.03636e-13
0
1.18652e-16
1.27758e-17
9.81252e-16
1.1156e-16
1.10034e-14
7.38501e-17
3.04402e-14
-2.60985e-17
5.10168e-17
-3.61828e-17
0
-1.54305e-17
1.04736e-18
-1.30063e-16
2.77959e-16
-2.64267e-16
9.92786e-16
-2.18531e-16
8.90537e-16
-4.27052e-17
1.75124e-16
-4.41693e-17
3.84022e-17
-5.65642e-17
3.61978e-17
-6.43521e-17
1.81711e-17
-7.71149e-17
7.84327e-19
-9.08953e-17
-2.19861e-17
-1.07671e-15
-3.7251e-17
-5.52383e-15
-9.0835e-17
-2.93949e-14
-1.43183e-15
-3.2399e-14
-4.3499e-15
-2.98864e-15
-2.90443e-15
3.29939e-16
9.52121e-13
-2.41211e-17
5.40524e-13
-2.72219e-18
9.84813e-17
-1.15764e-17
1.49926e-15
-5.46051e-17
8.98658e-15
-8.89808e-18
4.91781e-15
-1.10923e-18
4.8557e-17
-1.16058e-18
4.6512e-17
-4.79193e-18
2.21486e-17
-4.82762e-17
8.70311e-17
-6.38942e-17
1.48234e-16
-2.62474e-17
7.85054e-17
-1.42141e-17
1.11893e-17
-2.80045e-17
1.54303e-17
-4.6806e-17
3.41826e-17
-6.55891e-17
2.89783e-17
-7.37149e-17
1.34073e-17
-7.54932e-17
-1.61582e-18
-9.26202e-17
-1.0808e-17
-5.86092e-16
-1.65954e-17
-1.05377e-15
-3.79557e-17
-1.28842e-15
-9.10725e-17
-2.12216e-16
-3.27309e-15
-2.28659e-15
9.55591e-13
-1.4673e-17
3.514e-13
-1.43712e-17
9.85482e-17
-5.52758e-17
1.46601e-15
-4.09128e-17
2.88204e-15
-1.72223e-18
1.9219e-16
-1.41586e-18
5.30855e-17
-7.46296e-19
5.65721e-17
-1.1728e-18
1.15914e-17
-3.45037e-18
3.22005e-18
-3.10191e-18
2.83952e-18
-5.33464e-19
5.63064e-19
-1.19304e-18
2.29342e-18
-9.49175e-18
2.35413e-18
-2.68253e-17
1.36523e-17
-4.51622e-17
2.11998e-17
-5.33268e-17
1.58982e-17
-5.71828e-17
5.64975e-18
-4.81698e-17
-1.89287e-18
-2.53977e-17
-4.2281e-18
-1.23235e-17
-3.91193e-18
-4.02861e-17
-2.91616e-18
-3.4776e-18
-3.5923e-16
-7.93423e-15
9.64743e-13
-1.58261e-17
2.25515e-13
-1.60187e-17
9.87292e-17
-2.63969e-17
6.06941e-16
-3.75087e-18
4.51789e-16
-9.88119e-19
2.57002e-17
-1.16643e-18
3.01868e-17
-2.6938e-19
2.73829e-17
-2.65171e-20
3.58708e-18
-2.95982e-20
4.10837e-19
-1.8995e-20
3.29375e-19
3.48514e-20
3.90266e-20
-1.34704e-19
-1.82848e-19
-8.00537e-19
4.60922e-19
-5.89061e-18
8.45186e-19
-1.25124e-17
3.15678e-18
-1.46912e-17
3.10796e-18
-1.5534e-17
1.53665e-18
-1.30423e-17
1.52385e-19
-8.741e-18
-2.07835e-19
-4.67747e-18
-3.36124e-19
-3.00187e-18
-3.59644e-19
-3.71007e-19
-1.79939e-18
-1.24537e-14
9.7866e-13
-8.99445e-18
3.72033e-13
-9.33342e-18
9.89936e-17
-6.5271e-18
1.40293e-16
-8.93122e-19
9.80376e-17
-4.34876e-19
1.53766e-17
-3.48238e-19
3.89272e-18
3.33416e-21
1.70697e-18
9.42205e-20
-8.0055e-20
1.40725e-19
-1.72728e-18
1.88081e-19
-1.89215e-18
2.12372e-19
-1.79722e-18
1.41188e-19
-1.40099e-18
-3.0034e-20
-6.24152e-19
-2.00911e-19
8.60137e-20
-5.99709e-19
5.58132e-19
-6.90407e-19
6.15793e-19
-6.71426e-19
3.36114e-19
-6.04302e-19
9.41817e-20
-5.28099e-19
2.32686e-21
-4.08658e-19
2.01514e-21
-3.08151e-19
6.32876e-24
-1.85293e-20
-2.98212e-19
-1.78188e-14
9.96488e-13
-4.8223e-18
1.02964e-12
-5.24848e-18
9.93449e-17
-2.99924e-18
9.70941e-17
-8.46781e-19
8.92475e-17
-3.48942e-20
1.46325e-17
-1.70086e-20
6.06478e-19
7.65401e-20
1.25889e-19
1.38295e-19
-1.91211e-18
1.78059e-19
-2.86402e-18
2.07586e-19
-2.88033e-18
2.20104e-19
-2.49261e-18
2.0255e-19
-1.87998e-18
1.54377e-19
-1.18652e-18
9.31809e-20
-5.99267e-19
4.42394e-20
-2.30524e-19
3.01418e-20
-6.58877e-20
2.67692e-20
-2.42365e-20
1.7957e-20
-8.60776e-21
5.26364e-21
2.29958e-21
1.06973e-23
1.73838e-20
-3.05338e-22
2.08318e-20
1.82057e-20
-1.11673e-21
-2.01228e-14
1.01662e-12
-5.56779e-18
1.00949e-12
-6.00076e-18
9.97033e-17
-3.31987e-18
9.72773e-17
-9.4716e-19
1.00593e-16
2.41803e-21
1.47428e-17
3.19533e-20
-6.98276e-20
8.23105e-20
-9.18251e-19
1.13746e-19
-2.25658e-18
1.31567e-19
-2.79534e-18
1.42392e-19
-2.69779e-18
1.47014e-19
-2.27194e-18
1.43391e-19
-1.71924e-18
1.31352e-19
-1.17183e-18
1.1379e-19
-7.21536e-19
9.75036e-20
-4.04603e-19
8.45705e-20
-2.13592e-19
7.19981e-20
-1.04476e-19
5.83088e-20
-4.03309e-20
4.41278e-20
-4.08271e-21
3.0907e-20
9.94742e-21
2.02306e-20
1.42803e-20
1.36892e-20
1.23239e-20
-2.13064e-14
1.03793e-12
-7.08507e-18
9.88151e-13
-7.44682e-18
9.99904e-17
-5.01008e-18
1.483e-16
-1.11159e-18
1.68489e-16
-4.36805e-20
1.88486e-17
1.56146e-20
8.40749e-19
4.27464e-20
-4.94448e-19
5.7433e-20
-1.39767e-18
6.34403e-20
-1.83774e-18
6.61364e-20
-1.83427e-18
6.75692e-20
-1.57509e-18
6.74251e-20
-1.21574e-18
6.49721e-20
-8.56611e-19
6.00715e-20
-5.55118e-19
5.36371e-20
-3.31912e-19
4.62695e-20
-1.83338e-19
3.84105e-20
-9.07961e-20
3.07393e-20
-3.63814e-20
2.37251e-20
-6.83204e-21
1.75462e-20
4.03898e-21
1.22417e-20
6.82539e-21
6.91704e-21
7.9982e-21
-1.11698e-14
1.04911e-12
-1.3924e-17
6.95391e-14
-1.41626e-17
1.00165e-16
-8.68452e-18
3.62886e-16
-1.52455e-18
2.99005e-16
-1.94323e-19
3.37235e-17
-8.34069e-20
7.95947e-18
-2.36052e-20
4.5961e-18
7.34068e-21
2.00326e-18
1.33559e-20
-3.74944e-19
1.58353e-20
-7.11012e-19
1.74728e-20
-7.69725e-19
1.89074e-20
-6.64382e-19
1.98235e-20
-4.97451e-19
1.97564e-20
-3.35532e-19
1.85721e-20
-2.06684e-19
1.6363e-20
-1.16065e-19
1.35867e-20
-5.76418e-20
1.07809e-20
-2.34378e-20
8.30396e-21
-5.42064e-21
6.22595e-21
1.35648e-21
4.47766e-21
2.69105e-21
2.81531e-21
2.99383e-21
-1.99286e-15
3.19706e-16
-5.20077e-17
3.18987e-16
-2.01649e-17
3.1446e-16
-1.52664e-17
7.53573e-16
-2.10552e-18
4.32852e-16
-4.82006e-19
6.48857e-17
-2.546e-19
2.81297e-17
-1.10053e-19
2.1439e-17
-2.75929e-20
1.35832e-17
-1.78285e-21
6.42395e-18
1.68406e-21
2.22035e-18
-9.85966e-23
-3.80118e-20
-1.69516e-22
-2.21976e-19
9.90073e-22
-2.25273e-19
2.17881e-21
-1.67568e-19
2.95887e-21
-1.074e-19
3.16379e-21
-6.17069e-20
2.90696e-21
-3.07593e-20
2.41472e-21
-1.2513e-20
1.89352e-21
-3.13152e-21
1.43596e-21
4.08484e-22
1.06237e-21
9.37359e-22
9.7271e-22
7.42412e-22
-6.01856e-18
3.08141e-16
-1.16664e-17
3.22765e-16
-2.12455e-17
7.3293e-16
-1.45436e-17
8.31574e-16
-2.13989e-18
4.71351e-16
-5.71994e-19
1.07763e-16
-1.56844e-19
6.39491e-17
1.15171e-19
5.2312e-17
2.14189e-19
3.64349e-17
1.66199e-19
2.0676e-17
7.69113e-20
8.99148e-18
1.79027e-20
2.74611e-18
5.8286e-21
4.25448e-19
-2.31114e-21
-6.29228e-20
-2.72536e-21
-7.04049e-20
-1.86601e-21
-4.83878e-20
-1.01799e-21
-2.89187e-20
-3.77672e-22
-1.45137e-20
-1.35056e-23
-5.85286e-21
8.38952e-23
-1.49216e-21
1.03909e-22
1.19638e-22
9.61686e-23
3.06538e-22
2.99259e-22
8.08933e-23
-4.1956e-18
3.07519e-16
-1.31673e-17
3.31613e-16
-1.3948e-17
8.02197e-16
-5.50339e-18
8.39618e-16
-8.10152e-19
4.66961e-16
2.70229e-19
1.47452e-16
8.65772e-19
1.08965e-16
1.28061e-18
9.15167e-17
1.21166e-18
6.60478e-17
8.53293e-19
4.08574e-17
4.01518e-19
1.91497e-17
1.14355e-19
6.17958e-18
1.2819e-20
1.12454e-18
1.98718e-21
5.4202e-20
-2.24929e-21
-2.51388e-20
-2.0696e-21
-1.94719e-20
-1.60011e-21
-1.22996e-20
-1.05481e-21
-6.23167e-21
-6.2283e-22
-2.48123e-21
-3.39486e-22
-6.24656e-22
-1.76629e-22
3.61182e-23
-8.97597e-23
9.75199e-23
8.9706e-23
-4.64291e-23
-2.9648e-18
3.05667e-16
-7.11708e-18
3.09498e-16
-4.47075e-18
6.95154e-16
9.69771e-19
6.85033e-16
2.49787e-18
3.46056e-16
2.58216e-18
1.64814e-16
3.39672e-18
1.45238e-16
3.86134e-18
1.28105e-16
3.25755e-18
9.49021e-17
2.30762e-18
6.16332e-17
1.07557e-18
3.00051e-17
2.84125e-19
9.33303e-18
2.86426e-20
1.36999e-18
7.63226e-21
6.71342e-20
-1.0105e-21
-7.41843e-21
-1.21117e-21
-7.24275e-21
-1.04149e-21
-4.87015e-21
-7.30467e-22
-2.48729e-21
-4.50175e-22
-9.70548e-22
-2.53169e-22
-2.35501e-22
-1.34788e-22
1.17473e-23
-6.98085e-23
3.15237e-23
2.78461e-23
-3.67698e-23
-1.2981e-18
3.2596e-16
-8.07835e-19
2.33515e-16
2.493e-18
3.15618e-16
6.01248e-18
2.94124e-16
5.05608e-18
2.03574e-16
5.92524e-18
1.64648e-16
7.05014e-18
1.54435e-16
7.86936e-18
1.46422e-16
6.35917e-18
1.16812e-16
4.38001e-18
7.71617e-17
2.00619e-18
3.79753e-17
4.48296e-19
1.07615e-17
3.23891e-20
1.37403e-18
8.67549e-21
5.1831e-20
-2.508e-22
-1.40291e-21
-5.68403e-22
-2.5659e-21
-5.25754e-22
-1.83034e-21
-3.75228e-22
-9.34419e-22
-2.29127e-22
-3.53465e-22
-1.25896e-22
-8.12031e-23
-6.54973e-23
4.0451e-24
-3.34827e-23
9.85461e-24
8.31828e-24
-1.71959e-23
-2.0505e-19
5.46313e-16
1.23226e-18
2.3166e-16
3.4588e-18
3.13025e-16
5.70962e-18
2.91508e-16
7.50777e-18
2.01412e-16
9.22618e-18
1.60001e-16
1.04624e-17
1.53519e-16
1.15171e-17
1.47285e-16
1.00479e-17
1.24563e-16
6.56584e-18
8.35806e-17
2.8508e-18
4.03581e-17
5.34106e-19
1.08438e-17
2.91538e-20
1.14609e-18
1.4061e-21
2.0022e-20
9.24873e-25
2.26386e-24
-2.38603e-22
-8.87694e-22
-2.32503e-22
-6.641e-22
-1.64782e-22
-3.34058e-22
-9.78258e-23
-1.21305e-22
-5.19927e-23
-2.61376e-23
-2.61721e-23
1.3951e-24
-1.29198e-23
2.96251e-24
2.38094e-24
-6.41122e-24
5.28782e-18
2.64676e-15
2.95141e-18
2.3363e-16
6.08408e-18
3.09527e-16
8.97382e-18
2.88254e-16
1.09316e-17
1.99089e-16
1.24885e-17
1.57323e-16
1.34972e-17
1.48976e-16
1.47462e-17
1.46912e-16
1.29681e-17
1.24568e-16
8.30739e-18
8.39485e-17
3.39422e-18
4.03566e-17
5.4662e-19
9.97585e-18
1.64922e-20
6.66417e-19
3.14822e-23
4.77856e-21
5.99306e-25
9.95682e-25
-9.54021e-23
-3.09423e-22
-9.46959e-23
-2.35757e-22
-6.53747e-23
-1.15111e-22
-3.72276e-23
-3.97211e-23
-1.89128e-23
-7.90644e-24
-9.10837e-24
4.58044e-25
-4.33088e-24
8.35939e-25
6.2411e-25
-2.07057e-24
2.26875e-16
3.59643e-15
6.94505e-15
2.07854e-13
5.01083e-14
2.45065e-12
6.61261e-14
2.62265e-12
1.97687e-17
4.00519e-13
1.02661e-17
1.6244e-16
1.58895e-17
1.38948e-16
1.7831e-17
1.44567e-16
1.53545e-17
1.2257e-16
9.5818e-18
8.22061e-17
3.57186e-18
3.70733e-17
4.16785e-19
7.18068e-18
5.99732e-21
2.81214e-19
4.34931e-24
9.62729e-22
2.91044e-25
4.93031e-25
-3.74701e-23
-1.10436e-22
-3.64628e-23
-8.26988e-23
-2.40272e-23
-3.85083e-23
-1.29228e-23
-1.24603e-23
-6.19412e-24
-2.25751e-24
-2.81118e-24
1.3673e-25
-1.27682e-24
2.13336e-25
1.45931e-25
-5.73879e-25
1.2666e-15
3.50739e-15
1.25273e-13
7.85995e-13
2.37411e-13
2.89306e-12
1.72811e-13
2.68818e-12
0
1.65387e-12
3.45374e-17
1.41201e-15
1.81591e-17
1.34729e-16
2.04124e-17
1.38812e-16
1.69186e-17
1.15411e-16
9.88642e-18
7.36855e-17
3.01397e-18
2.84963e-17
2.21122e-19
3.89241e-18
1.52964e-21
8.67345e-20
5.11146e-25
1.53321e-22
6.27793e-26
2.1261e-25
-1.46869e-23
-4.06887e-23
-1.34266e-23
-2.87592e-23
-8.26144e-24
-1.25232e-23
-4.12044e-24
-3.73987e-24
-1.82402e-24
-6.04908e-25
-7.63998e-25
3.6157e-26
-3.25447e-25
4.82139e-26
2.97722e-26
-1.35434e-25
1.33084e-15
3.3529e-15
7.75116e-14
6.81503e-13
3.02493e-13
2.669e-12
3.39925e-13
2.65166e-12
2.33587e-14
1.19117e-12
3.29851e-17
4.33464e-15
2.04004e-17
1.35218e-16
2.22108e-17
1.30356e-16
1.70303e-17
1.02956e-16
8.67881e-18
5.8768e-17
1.93431e-18
1.78266e-17
7.90145e-20
1.53107e-18
2.49582e-22
1.71821e-20
2.10783e-23
1.44624e-23
-7.86387e-25
-2.55521e-24
-5.7844e-24
-1.55132e-23
-4.73144e-24
-9.87935e-24
-2.65406e-24
-3.93789e-24
-1.20089e-24
-1.06532e-24
-4.78477e-25
-1.50965e-25
-1.81677e-25
8.24229e-27
-7.10487e-26
9.41049e-27
5.16529e-27
-2.68966e-26
1.41485e-15
3.11259e-15
9.82554e-14
1.41313e-13
4.0233e-13
2.36584e-12
4.23895e-13
2.631e-12
0
2.55423e-13
3.2619e-17
5.669e-16
2.3724e-17
1.34119e-16
2.32124e-17
1.20881e-16
1.52499e-17
8.52508e-17
6.24691e-18
4.0507e-17
8.86538e-19
8.55296e-18
1.69695e-20
3.8484e-19
2.10196e-23
1.75058e-21
1.94462e-24
6.89672e-25
-1.13525e-24
-3.62741e-24
-2.2431e-24
-5.981e-24
-1.58708e-24
-3.32623e-24
-7.91835e-25
-1.18781e-24
-3.17102e-25
-2.85248e-25
-1.10504e-25
-3.48448e-26
-3.71189e-26
1.5833e-27
-1.30425e-26
1.54545e-27
7.40312e-28
-4.40531e-27
2.6728e-15
6.78947e-15
3.45084e-14
0
1.39664e-13
0
1.15263e-13
0
0
6.07903e-17
1.01091e-17
3.55416e-16
2.54283e-17
1.69868e-16
2.01634e-17
1.10203e-16
1.13805e-17
6.21906e-17
3.41238e-18
2.21767e-17
2.52893e-19
2.70856e-18
1.8014e-21
4.96286e-20
7.40203e-25
7.43876e-23
9.71941e-26
1.54438e-26
-6.92282e-25
-2.2241e-24
-8.39347e-25
-2.28031e-24
-5.05239e-25
-1.0926e-24
-2.186e-25
-3.42166e-25
-7.52786e-26
-7.12806e-26
-2.21996e-26
-7.38962e-27
-6.39284e-27
2.52135e-28
-1.96741e-27
2.08095e-28
8.4828e-29
-5.79261e-28
1.32308e-15
6.77371e-15
7.9744e-16
3.00543e-15
6.76679e-16
2.01895e-16
3.05429e-16
0
8.41131e-17
2.62724e-16
6.85063e-17
3.52454e-16
3.0369e-17
1.92504e-16
1.55892e-17
9.19752e-17
6.57617e-18
3.70716e-17
1.19404e-18
8.17264e-18
3.56299e-20
4.38319e-19
7.5002e-23
2.51367e-21
1.04433e-26
1.23215e-24
2.68425e-27
9.87836e-27
-3.37597e-25
-1.11225e-24
-3.03637e-25
-8.5942e-25
-1.53292e-25
-3.51074e-25
-5.60294e-26
-9.44116e-26
-1.60591e-26
-1.66372e-26
-3.8532e-27
-1.43725e-27
-9.13888e-28
3.27826e-29
-2.37632e-28
2.23637e-29
7.46956e-30
-5.9106e-29
1.84686e-15
5.00639e-15
1.2065e-15
5.17165e-15
3.89966e-16
2.4274e-15
1.90746e-16
1.18748e-15
1.20183e-16
7.31413e-16
7.11119e-17
4.24551e-16
2.74401e-17
1.80724e-16
9.81138e-18
6.08933e-17
2.51169e-18
1.51352e-17
2.04236e-19
1.52715e-18
1.84315e-21
2.58971e-20
1.02768e-24
4.03597e-23
1.36825e-25
9.91966e-27
-5.52471e-26
-2.08593e-25
-1.54357e-25
-5.30189e-25
-1.07145e-25
-3.22066e-25
-4.47857e-26
-1.11229e-25
-1.3485e-26
-2.52166e-26
-3.10661e-27
-3.66615e-27
-5.79128e-28
-2.5803e-28
-1.06767e-28
3.48969e-30
-2.22937e-29
1.87632e-30
4.80542e-31
-4.47442e-30
1.14501e-15
5.09943e-16
1.7469e-15
3.32154e-15
8.97568e-16
3.48589e-15
4.42076e-16