/*--------------------------------*- C++ -*----------------------------------*\
  =========                 |
  \\      /  F ield         | OpenFOAM: The Open Source CFD Toolbox
   \\    /   O peration     | Website:  https://openfoam.org
    \\  /    A nd           | Version:  9
     \\/     M anipulation  |
\*---------------------------------------------------------------------------*/
FoamFile
{
    format      ascii;
    class       volScalarField;
    location    "6.88";
    object      k;
}
// * * * * * * * * * * * * * * * * * * * * * * * * * * * * * * * * * * * * * //

dimensions      [0 2 -2 0 0 0 0];

internalField   nonuniform List<scalar> 
2268
(
0.000153046
0.000382158
0.000561669
0.000700789
0.000814111
0.000909012
0.000989853
0.00105934
0.00111905
0.00117076
0.00121608
0.00125632
0.00129226
0.00132129
0.00133517
0.00131751
0.00124022
0.00111827
0.000982455
0.00085844
0.000742266
0.000576757
0.000275462
0.000330155
0.000883163
0.00125396
0.0015456
0.00178466
0.0019852
0.00215599
0.00230277
0.00242905
0.00253738
0.00263095
0.00271229
0.00278172
0.00283405
0.00285542
0.00282076
0.00269695
0.00247609
0.00222166
0.00196439
0.00170725
0.00130828
0.000613964
0.000469065
0.00117958
0.00163675
0.00199688
0.00229329
0.00254215
0.00275372
0.002935
0.0030907
0.0032243
0.00333945
0.00343867
0.00352159
0.00358198
0.00360502
0.00356645
0.00343848
0.00321625
0.00294834
0.00265571
0.00232399
0.00181764
0.000863521
0.000587805
0.00141874
0.00193416
0.00233809
0.00267094
0.00295044
0.00318776
0.00339074
0.00356493
0.00371448
0.00384316
0.00395357
0.00404479
0.00411014
0.00413525
0.0040986
0.00397814
0.00376903
0.00350962
0.00321246
0.00285218
0.00229591
0.00111343
0.000692008
0.00163147
0.00219539
0.00263318
0.00299324
0.00329518
0.00355114
0.00376971
0.00395713
0.0041181
0.0042565
0.00437505
0.00447245
0.00454198
0.00457023
0.00453885
0.00443111
0.00424155
0.00400042
0.00371543
0.00335481
0.00278151
0.0013867
0.000786722
0.00182839
0.00243691
0.00290386
0.00328615
0.00360578
0.00387607
0.00410645
0.00430383
0.00447342
0.00461923
0.00474414
0.00484669
0.00492031
0.00495284
0.004929
0.00483695
0.00467275
0.00445667
0.00419512
0.00385534
0.0032926
0.00172477
0.000875608
0.00201496
0.00266646
0.00316014
0.00356159
0.00389573
0.00417734
0.00441684
0.00462184
0.00479806
0.0049497
0.00507977
0.00518692
0.00526489
0.00530287
0.00528842
0.00521397
0.00507953
0.00489441
0.00466441
0.00436264
0.00384113
0.00222406
0.000960986
0.00219485
0.00288874
0.00340765
0.00382605
0.00417227
0.00446285
0.00470935
0.00492015
0.00510144
0.00525777
0.00539211
0.00550363
0.00558642
0.00563108
0.00562777
0.00557241
0.00546909
0.00531901
0.00512507
0.00487011
0.00444109
0.00311983
0.000297124
0.00072981
0.000993675
0.00111892
0.00119141
0.00122595
0.00125607
0.00127929
0.00126035
0.00114676
0.00098483
0.000812294
0.000663303
0.000670229
0.000758061
0.000742811
0.000565126
0.00039726
0.000207721
0.000544057
0.00153995
0.00206819
0.00234937
0.00250619
0.00259153
0.00264221
0.00265607
0.00258597
0.00238713
0.00208589
0.00178708
0.00153069
0.0014895
0.00158305
0.00150073
0.00118715
0.000843374
0.000328704
0.000699836
0.00196543
0.00262694
0.00298135
0.0031749
0.00327932
0.00333412
0.00333614
0.00324035
0.00301666
0.00270431
0.00237954
0.002101
0.00201155
0.00203044
0.00188946
0.00150936
0.00105566
0.000412753
0.000893093
0.00233374
0.00307108
0.00345688
0.00366331
0.00377186
0.00382276
0.00381252
0.00370085
0.00346865
0.00316108
0.00283794
0.00255834
0.00242864
0.0023801
0.00219189
0.0017697
0.00122382
0.000502163
0.00113314
0.00272942
0.00348891
0.00387467
0.00407729
0.00418024
0.0042224
0.0042004
0.00407914
0.00384676
0.00354938
0.00323814
0.00296267
0.00279764
0.00269181
0.00246524
0.00201761
0.00140174
0.000598579
0.00143649
0.00317458
0.00390602
0.00426633
0.00445253
0.00454294
0.00457314
0.00454027
0.00441416
0.00418794
0.00390458
0.00360996
0.00333933
0.00314241
0.0029857
0.00272259
0.00225484
0.00160075
0.000699258
0.00192711
0.00367974
0.00432906
0.00464395
0.00480468
0.00487781
0.00489403
0.00485128
0.00472401
0.00450921
0.00424443
0.00396798
0.00370167
0.00347686
0.00326881
0.00296702
0.00247427
0.00181497
0.000806575
0.00287668
0.00424461
0.00475543
0.00501181
0.00514149
0.00519445
0.00519565
0.00514408
0.00501862
0.00481904
0.00457875
0.00432058
0.00405726
0.00380336
0.00354196
0.00319878
0.00267728
0.00201947
0.000929519
0.00108734
0.00247015
0.00323028
0.0037866
0.0042284
0.00459013
0.00489157
0.0051462
0.00536365
0.00555091
0.00571291
0.00585222
0.00596927
0.00605908
0.0061147
0.00613034
0.00610685
0.00605217
0.00596027
0.00582166
0.00562378
0.00532238
0.00475745
0.00125541
0.00283417
0.00368528
0.00428505
0.0047496
0.00512424
0.0054337
0.00569391
0.00591609
0.00610846
0.00627672
0.00642395
0.00655076
0.00665427
0.00672977
0.00677416
0.00679017
0.00678493
0.00675107
0.00666839
0.00652805
0.0063399
0.00609659
0.00144667
0.00321275
0.00417586
0.00479013
0.00525625
0.00563211
0.00594293
0.00620293
0.00642487
0.00661972
0.00679413
0.00695187
0.00709336
0.00721618
0.00731634
0.00739036
0.0074404
0.00747241
0.00747323
0.00743202
0.00733758
0.00721285
0.00708697
0.00161602
0.00358033
0.00479498
0.00529205
0.00573161
0.00610322
0.00641351
0.00666815
0.00688642
0.00708325
0.00726506
0.00743643
0.00759808
0.00774691
0.00787816
0.0079838
0.0080616
0.00812329
0.00813759
0.00813169
0.00807194
0.00796969
0.0078764
0.00184787
0.00394352
0.00521396
0.0056424
0.00611616
0.00649432
0.00678224
0.00703983
0.0072864
0.0074943
0.0076826
0.00787011
0.00804945
0.00821376
0.00835574
0.00845613
0.00851272
0.00856844
0.00862257
0.0086557
0.00863215
0.00858284
0.00852333
0.00208658
0.00412342
0.00530861
0.00579517
0.00641204
0.00682757
0.00708801
0.00733862
0.00760122
0.00783393
0.00802885
0.00822296
0.00840936
0.00858303
0.00873561
0.00884142
0.00890626
0.00897806
0.00904396
0.00913218
0.00915215
0.0090905
0.0090126
0.00240605
0.00412109
0.00528626
0.00584396
0.00640459
0.00685043
0.00720435
0.00752376
0.00782365
0.0080741
0.00829564
0.00851043
0.00870753
0.00887838
0.00902687
0.0091354
0.0092112
0.00927625
0.00933778
0.00940087
0.00945672
0.00943152
0.00937798
0.00240849
0.00404405
0.00513559
0.00584472
0.00642657
0.00690859
0.00731156
0.00766514
0.0079812
0.0082583
0.00850785
0.0087401
0.00894625
0.00912474
0.00927806
0.00939385
0.00947783
0.00954366
0.00960252
0.00965596
0.00969861
0.0097054
0.00968846
0.00240664
0.00401753
0.00510627
0.00586471
0.00646983
0.00697745
0.00741067
0.00778879
0.00812261
0.00841779
0.00868345
0.0089259
0.00914497
0.0093434
0.00951345
0.00963888
0.00972567
0.00979374
0.0098525
0.00990061
0.0099379
0.00996475
0.00997378
0.00240828
0.00402626
0.00511735
0.005894
0.00651532
0.00704142
0.00749632
0.00789477
0.00824649
0.0085586
0.00883867
0.00909323
0.0093267
0.00954112
0.00972516
0.00986088
0.0099567
0.0100327
0.0100959
0.0101448
0.0101824
0.0102121
0.0102256
0.00241097
0.00404649
0.0051401
0.00592853
0.00656345
0.00710405
0.00757515
0.00799012
0.00835797
0.00868582
0.00898022
0.0092474
0.00949248
0.00971612
0.00990902
0.0100589
0.0101717
0.010262
0.0103351
0.0103905
0.010431
0.0104605
0.0104747
0.00240559
0.00407296
0.00517176
0.00596977
0.00661641
0.00716897
0.00765287
0.00808137
0.00846316
0.00880511
0.00911288
0.00939181
0.00964659
0.00987755
0.0100792
0.0102451
0.0103779
0.0104857
0.0105726
0.0106387
0.0106865
0.0107195
0.0107366
0.00240636
0.00410523
0.00521235
0.0060188
0.00667535
0.0072381
0.0077328
0.00817291
0.00856702
0.00892164
0.00924179
0.00953236
0.00979714
0.0100369
0.010249
0.0104311
0.0105838
0.0107102
0.0108129
0.0108926
0.0109516
0.0109928
0.0110167
0.00241295
0.00414257
0.00526115
0.00607569
0.00674087
0.00731267
0.00781703
0.0082677
0.00867315
0.00903962
0.00937207
0.00967481
0.00995103
0.0102019
0.0104268
0.0106248
0.0107961
0.0109412
0.0110611
0.0111566
0.0112298
0.0112832
0.0113175
0.00240745
0.00418517
0.00531705
0.00614008
0.00681335
0.00739358
0.00790705
0.00836777
0.00878421
0.00916258
0.0095078
0.00982369
0.0101131
0.0103774
0.0106168
0.0108311
0.0110202
0.0111839
0.0113222
0.0114354
0.0115255
0.0115941
0.0116419
0.00240769
0.00423241
0.00537895
0.00621123
0.00689273
0.00748135
0.00800389
0.00847466
0.00890239
0.00929331
0.00965212
0.00998236
0.0102866
0.0105662
0.0108219
0.0110537
0.0112611
0.0114439
0.0116017
0.0117346
0.0118437
0.01193
0.0119939
0.00241034
0.00428458
0.00544576
0.0062882
0.00697856
0.0075761
0.00810822
0.00858968
0.00902952
0.00943394
0.0098075
0.0101535
0.0104743
0.0107712
0.0110451
0.0112959
0.0115232
0.0117265
0.0119054
0.0120598
0.0121901
0.0122965
0.012379
0.00240611
0.00433683
0.00551625
0.00637002
0.0070703
0.00767776
0.00822051
0.00871379
0.00916693
0.00958616
0.00997591
0.0103393
0.0106785
0.0109949
0.0112891
0.011561
0.0118104
0.0120366
0.0122388
0.012417
0.0125707
0.0126997
0.0128035
0.00240609
0.00439196
0.0055897
0.00645598
0.00716747
0.00778621
0.00834102
0.00884762
0.00931561
0.00975129
0.010159
0.0105418
0.0109017
0.0112399
0.0115569
0.0118528
0.012127
0.0123788
0.0126072
0.0128118
0.0129918
0.0131463
0.0132743
0.00240765
0.00444852
0.00566542
0.00654559
0.00726976
0.00790134
0.0084699
0.00899163
0.00947636
0.0099305
0.0103584
0.010763
0.0111461
0.011509
0.011852
0.0121749
0.0124772
0.012758
0.0130161
0.0132505
0.0134601
0.0136435
0.0137993
0.00240996
0.00450811
0.00574327
0.00663858
0.00737694
0.00802309
0.00860731
0.00914621
0.00964989
0.0101249
0.0105755
0.0110047
0.0114142
0.0118051
0.0121776
0.0125315
0.0128659
0.0131798
0.0134716
0.0137399
0.0139832
0.0141997
0.0143873
0.00240636
0.0045657
0.00582298
0.00673478
0.00748891
0.00815148
0.00875344
0.00931181
0.00983694
0.0103355
0.0108119
0.011269
0.0117085
0.0121314
0.0125377
0.012927
0.0132983
0.0136501
0.0139806
0.0142879
0.0145699
0.0148242
0.0150484
0.00240409
0.004626
0.00590449
0.00683409
0.00760565
0.0082866
0.00890855
0.00948893
0.0100383
0.0105636
0.0110692
0.0115581
0.0120319
0.0124914
0.0129365
0.0133666
0.0137803
0.0141758
0.014551
0.0149032
0.0152297
0.0155278
0.0157942
0.00240638
0.00468607
0.00598754
0.00693639
0.00772716
0.00842859
0.00907295
0.00967812
0.010255
0.0108105
0.0113494
0.0118744
0.0123874
0.0128889
0.0133787
0.0138559
0.0143187
0.0147648
0.0151916
0.0155958
0.015974
0.0163227
0.016638
0.00240879
0.00474619
0.00607201
0.00704163
0.00785347
0.00857759
0.009247
0.00987999
0.0104878
0.0110776
0.0116541
0.0122205
0.0127783
0.013328
0.0138694
0.014401
0.0149208
0.0154257
0.0159125
0.0163772
0.0168154
0.0172228
0.0175947
0.0024135
0.00480577
0.00615774
0.00714973
0.00798457
0.00873375
0.009431
0.0100951
0.0107377
0.0113662
0.0119855
0.0125989
0.013208
0.0138133
0.0144142
0.0150089
0.0155948
0.0161683
0.0167251
0.0172602
0.0177684
0.018244
0.0186815
0.00240951
0.00486742
0.00624477
0.00726059
0.00812041
0.0088971
0.00962521
0.010324
0.0110054
0.0116774
0.0123452
0.0130121
0.01368
0.0143492
0.0150188
0.0156868
0.0163498
0.0170033
0.0176419
0.0182594
0.0188491
0.0194043
0.0199177
0.00241234
0.00492768
0.00633292
0.00737401
0.0082608
0.00906748
0.00982946
0.0105667
0.0112915
0.0120124
0.0127349
0.0134626
0.0141975
0.0149401
0.0156892
0.0164423
0.0171951
0.0179422
0.0186766
0.0193907
0.0200759
0.0207237
0.0213253
0.00240773
0.00498999
0.00642191
0.00748948
0.00840495
0.00924419
0.0100434
0.010823
0.0115961
0.0123716
0.0131555
0.013952
0.0147633
0.01559
0.0164308
0.0172826
0.0181404
0.0189971
0.0198442
0.0206718
0.0214691
0.0222251
0.0229291
0.00240818
0.00505084
0.0065105
0.0076055
0.00855173
0.00942631
0.0102661
0.0110924
0.0119187
0.0127548
0.0136074
0.0144813
0.0153792
0.0163021
0.0172485
0.0182149
0.0191951
0.0201806
0.0211604
0.0221219
0.0230513
0.0239343
0.0247573
0.00241383
0.00510791
0.00659633
0.00772025
0.00869952
0.0096124
0.0104964
0.0113735
0.0122582
0.0131611
0.0140898
0.0150502
0.0160458
0.017078
0.0181457
0.0192449
0.0203682
0.0215052
0.022642
0.0237623
0.024848
0.0258806
0.0268425
0.00240992
0.00516029
0.00667617
0.00783106
0.00884618
0.00980051
0.0107324
0.0116645
0.0126125
0.0135881
0.0146005
0.0156567
0.0167615
0.0179174
0.0191237
0.0203764
0.021667
0.0229827
0.0243062
0.0256159
0.0268881
0.0280981
0.0292227
0.00240842
0.00519975
0.00674566
0.0079347
0.00898904
0.00998821
0.0109714
0.0119624
0.0129782
0.0140322
0.0151353
0.0162964
0.0175222
0.0188168
0.0201806
0.0216101
0.0230962
0.0246235
0.0261701
0.027708
0.0292048
0.030627
0.0319435
0.0024095
0.00522062
0.00680038
0.00802772
0.0091251
0.0101726
0.0112103
0.0122635
0.0133508
0.0144878
0.0156878
0.0169621
0.0183201
0.0197684
0.0213099
0.0229423
0.0246565
0.026435
0.0282505
0.0300659
0.0318368
0.033516
0.0350607
0.00241128
0.0052191
0.00683619
0.0081066
0.00925137
0.0103507
0.0114456
0.0125631
0.0137244
0.0149475
0.0162486
0.0176428
0.0191428
0.0207592
0.0224986
0.024362
0.0263418
0.0284192
0.0305613
0.032719
0.03483
0.0368257
0.0386443
0.00241176
0.00519254
0.00684891
0.00816816
0.00936538
0.0105197
0.0116735
0.012856
0.0140915
0.0154013
0.0168057
0.0183235
0.0199728
0.0217693
0.0237258
0.0258489
0.0281358
0.0305693
0.0331112
0.0356977
0.0382399
0.0406339
0.0427856
0.00240848
0.00513272
0.00683351
0.00821042
0.00946617
0.010678
0.0118904
0.0131361
0.0144433
0.0158375
0.0173433
0.018985
0.0207864
0.0227708
0.0249595
0.0273692
0.030007
0.0328625
0.0358967
0.0390296
0.0421335
0.045044
0.0476067
0.00240758
0.00502457
0.00678515
0.00823413
0.00955528
0.0108252
0.0120928
0.0133966
0.0147695
0.0162418
0.0178431
0.0196034
0.0215536
0.0237264
0.0261552
0.0288716
0.0319006
0.0352492
0.0388891
0.0427298
0.046591
0.0502008
0.0532776
0.00241328
0.00487137
0.0067055
0.00824484
0.00963694
0.0109614
0.0122767
0.0136293
0.015058
0.0165981
0.0182839
0.0201513
0.0222391
0.0245906
0.0272541
0.0302826
0.0337291
0.0376357
0.0420096
0.0467755
0.0517012
0.0563243
0.0600461
0.00386645
0.00482295
0.00660824
0.00825061
0.0097152
0.0110849
0.0124354
0.013824
0.0152953
0.016889
0.0186434
0.0205996
0.0228039
0.0253106
0.0281849
0.031505
0.0353633
0.0398602
0.0450828
0.0510438
0.05753
0.0637961
0.0682895
0.0177574
0.00612719
0.00650919
0.00824734
0.00978624
0.0111871
0.0125577
0.0139677
0.0154668
0.017097
0.0188997
0.0209198
0.0232095
0.0258325
0.0288691
0.0324232
0.0366308
0.0416692
0.047763
0.0551589
0.0639667
0.0734272
0.0785923
0.0840188
0.0140016
0.00660255
0.00823483
0.00983436
0.0112498
0.012627
0.0140457
0.0155579
0.0172065
0.0190342
0.0210878
0.0234229
0.0261086
0.0292348
0.0329221
0.0373382
0.0427266
0.049461
0.0581642
0.0699945
0.0873905
0.0917677
0.00333278
0.00283613
0.0027756
0.00312299
0.00585001
0.00572973
0.00568716
0.00572638
0.00700522
0.00696017
0.00692767
0.00690876
0.00783143
0.00780653
0.00777873
0.00774543
0.00851251
0.00849358
0.00844044
0.00837968
0.00897826
0.00895282
0.00891584
0.00886728
0.00934497
0.00931229
0.00927901
0.00924583
0.00965406
0.00962655
0.00959837
0.00957119
0.00994485
0.0099188
0.00989194
0.0098655
0.0102083
0.0101904
0.0101689
0.0101449
0.0104662
0.0104553
0.0104398
0.0104205
0.0107343
0.0107282
0.0107178
0.0107033
0.0110205
0.0110186
0.0110125
0.0110021
0.0113286
0.0113313
0.0113295
0.011323
0.0116618
0.0116699
0.011673
0.0116709
0.0120244
0.0120388
0.0120478
0.0120511
0.012422
0.0124438
0.0124598
0.0124697
0.0128609
0.0128915
0.0129159
0.0129336
0.0133484
0.0133893
0.0134235
0.0134507
0.0138926
0.0139455
0.0139912
0.0140294
0.0145028
0.0145695
0.0146286
0.0146797
0.0151895
0.0152723
0.0153468
0.0154129
0.0159649
0.0160662
0.0161586
0.016242
0.0168429
0.0169654
0.0170785
0.0171818
0.017839
0.0179862
0.0181231
0.0182494
0.0189714
0.0191469
0.0193112
0.0194637
0.0202602
0.0204683
0.020664
0.0208466
0.0217284
0.0219739
0.0222055
0.0224223
0.0234019
0.0236904
0.0239629
0.0242186
0.0253103
0.025648
0.025967
0.0262666
0.0274878
0.0278816
0.0282533
0.0286022
0.0299744
0.0304321
0.0308633
0.0312671
0.0328177
0.0333481
0.0338459
0.0343105
0.0360761
0.0366888
0.0372607
0.0377913
0.0398224
0.0405277
0.0411806
0.0417813
0.04415
0.0449576
0.0456966
0.0463687
0.0491813
0.0500983
0.0509237
0.0516621
0.05508
0.056105
0.0570062
0.0577942
0.0620689
0.0631792
0.0641228
0.0649224
0.0704496
0.0715727
0.0724816
0.0732191
0.0806038
0.0815631
0.0822859
0.0828389
0.0928806
0.0933307
0.093632
0.0938439
0.00446371
0.00507931
0.00539011
0.00555942
0.00564126
0.0056637
0.00564271
0.00557928
0.00546131
0.00529208
0.00509581
0.00486871
0.00460208
0.00429229
0.00395122
0.00353975
0.00297796
0.00230215
0.00110709
0.00588483
0.00607431
0.00620079
0.00626737
0.00628588
0.00626797
0.00622144
0.0061476
0.00604314
0.00590601
0.00574624
0.0055446
0.00524786
0.00486448
0.0044434
0.00395293
0.00334204
0.00260512
0.00127148
0.006896
0.00692334
0.00694587
0.00693727
0.00690265
0.00685041
0.00678534
0.00670573
0.00660867
0.00649026
0.00635381
0.00616223
0.00582412
0.00538044
0.00489318
0.00433927
0.00368256
0.00286409
0.00133736
0.00768781
0.00766054
0.00763598
0.0075736
0.00749402
0.00741057
0.00733082
0.00724916
0.00715841
0.00704945
0.00693359
0.00674823
0.00634808
0.0058492
0.00530482
0.00470055
0.00399575
0.00308286
0.00145448
0.00829725
0.00824482
0.00818585
0.00812259
0.00804242
0.00794142
0.00784982
0.00776694
0.00766766
0.00752178
0.00732258
0.00712015
0.00683553
0.00621835
0.00558843
0.00494934
0.00420362
0.00319544
0.00148276
0.00879147
0.0087352
0.00867369
0.00857127
0.00846927
0.00837332
0.00829592
0.00821724
0.00810783
0.00791398
0.00764178
0.00742759
0.00701886
0.00646002
0.00586606
0.005227
0.00445324
0.00341894
0.00160922
0.00919434
0.00915623
0.00909661
0.00897993
0.00886595
0.00875986
0.00865801
0.00853638
0.00837409
0.00814639
0.00786124
0.00758376
0.0071933
0.00664178
0.00608237
0.00547141
0.00471676
0.00372333
0.00181951
0.00952517
0.00947109
0.00939693
0.00928637
0.00916161
0.00903657
0.00890293
0.00872814
0.00851353
0.00826492
0.0079961
0.00772023
0.00731386
0.00676829
0.00617852
0.00555195
0.0048232
0.00388307
0.00201426
0.00982057
0.00975257
0.00966483
0.00955157
0.00941659
0.00927235
0.00910775
0.00889392
0.00864244
0.00836202
0.00806026
0.00774293
0.00736437
0.00685748
0.00624018
0.00557016
0.00482829
0.00388388
0.00201693
0.0101025
0.0100319
0.00994218
0.00982589
0.00967924
0.00951207
0.00931552
0.00907477
0.00879216
0.00847225
0.00811705
0.00773287
0.0073316
0.00685161
0.00623949
0.0055341
0.00475091
0.00375922
0.00195557
0.0103835
0.0103145
0.0102241
0.0101034
0.00994508
0.00975923
0.00954215
0.00927838
0.00896498
0.00860815
0.00820598
0.00775693
0.00727862
0.00675415
0.00614674
0.00544316
0.0046228
0.00357365
0.00194681
0.0106727
0.0106062
0.0105128
0.0103858
0.0102192
0.0100212
0.00978805
0.00950358
0.00916615
0.00877904
0.00833871
0.00783985
0.00728727
0.00668404
0.00603265
0.00531846
0.00447514
0.00340035
0.00194904
0.0109775
0.010915
0.0108195
0.0106867
0.010514
0.0103056
0.0100579
0.0097586
0.00940441
0.00899463
0.00852514
0.00799055
0.00738924
0.00672
0.00599578
0.00522258
0.00434885
0.0032753
0.00194638
0.0113042
0.0112472
0.0111533
0.0110184
0.0108414
0.0106247
0.0103655
0.0100553
0.00968892
0.00926318
0.00877346
0.00821434
0.00758142
0.00686945
0.00608211
0.00522762
0.00429006
0.00320265
0.00192916
0.0116586
0.0116085
0.0115193
0.0113866
0.0112091
0.0109881
0.0107215
0.0104033
0.0100282
0.00959189
0.00908936
0.00851498
0.00786268
0.00712501
0.0062968
0.00537494
0.0043551
0.00321031
0.00193723
0.0120468
0.0120057
0.0119238
0.0117968
0.0116229
0.0114019
0.0111322
0.0108094
0.010429
0.0099864
0.00947675
0.00889432
0.00823226
0.00748154
0.0066311
0.00566532
0.00456909
0.00332601
0.00194836
0.0124755
0.0124461
0.0123743
0.0122561
0.0120889
0.0118718
0.0116028
0.0112789
0.0108962
0.0104508
0.00993806
0.00935272
0.00868798
0.00793421
0.00707694
0.00609253
0.00494707
0.0035925
0.00192558
0.0129518
0.0129374
0.0128788
0.012772
0.0126144
0.0124041
0.0121391
0.011817
0.0114345
0.0109885
0.010475
0.00988945
0.00922591
0.00847537
0.00762308
0.00664307
0.00549124
0.00407921
0.00201664
0.0134838
0.0134878
0.0134454
0.0133529
0.0132073
0.0130063
0.0127479
0.0124296
0.0120491
0.0116035
0.0110897
0.010504
0.00984167
0.00909507
0.00825112
0.00728528
0.00614902
0.00470999
0.00234226
0.0140802
0.0141063
0.0140835
0.0140082
0.013877
0.0136876
0.0134375
0.0131246
0.0127467
0.0123013
0.0117859
0.0111977
0.0105327
0.00978467
0.00894215
0.00798188
0.00684942
0.00537901
0.00268259
0.0147512
0.0148035
0.0148039
0.0147486
0.0146344
0.0144585
0.0142183
0.0139116
0.0135362
0.0130898
0.0125703
0.0119749
0.0113003
0.0105406
0.00968458
0.00870718
0.00754413
0.00600239
0.00304201
0.0155086
0.0155914
0.0156187
0.0155868
0.0154922
0.0153317
0.0151026
0.0148025
0.0144289
0.0139796
0.0134521
0.0128437
0.0121507
0.0113664
0.0104778
0.00945695
0.00823525
0.0065743
0.00332629
0.0163656
0.0164837
0.0165422
0.0165372
0.0164647
0.0163217
0.0161048
0.0158115
0.0154388
0.014984
0.0144443
0.0138162
0.0130949
0.0122723
0.0113339
0.0102481
0.00893178
0.00711016
0.00352829
0.0173376
0.0174963
0.0175906
0.017616
0.0175688
0.0174451
0.0172417
0.0169551
0.0165821
0.0161193
0.0155627
0.014908
0.0141486
0.0132757
0.0122716
0.0110981
0.00965935
0.00765026
0.00371355
0.0184421
0.0186472
0.0187821
0.0188421
0.018823
0.018721
0.0185321
0.0182525
0.0178781
0.0174044
0.0168264
0.0161385
0.0153328
0.0143974
0.0133112
0.0120301
0.0104476
0.00823228
0.00392259
0.0196987
0.0199566
0.0201373
0.020236
0.0202484
0.0201703
0.0199973
0.0197249
0.0193482
0.0188615
0.0182584
0.0175314
0.0166703
0.0156605
0.0144771
0.0130707
0.0113256
0.00888626
0.0041804
0.0211297
0.0214472
0.0216792
0.0218211
0.0218683
0.0218164
0.0216609
0.0213964
0.021017
0.0205157
0.0198842
0.0191124
0.0181877
0.0170922
0.0157972
0.0142484
0.0123217
0.00963689
0.00450075
0.0227601
0.0231443
0.0234335
0.0236228
0.0237081
0.0236851
0.0235488
0.0232933
0.0229116
0.0223948
0.0217323
0.0209113
0.0199158
0.0187241
0.0173034
0.0155943
0.0134638
0.0105041
0.00488105
0.024618
0.0250765
0.0254284
0.0256695
0.0257962
0.0258044
0.0256893
0.0254445
0.0250614
0.0245293
0.0238348
0.0229617
0.0218897
0.0205925
0.0190321
0.0171431
0.0147817
0.0115073
0.00531682
0.026735
0.0272755
0.0276955
0.0279921
0.0281629
0.0282047
0.028113
0.0278809
0.0274985
0.026953
0.0262277
0.0253018
0.0241499
0.0227396
0.021026
0.0189355
0.0163109
0.0126707
0.00580799
0.0291475
0.0297772
0.0302699
0.0306249
0.0308418
0.030919
0.0308528
0.0306361
0.0302579
0.0297028
0.0289503
0.0279744
0.0267428
0.025215
0.0233365
0.0210223
0.0180973
0.0140305
0.00637112
0.031897
0.0326224
0.0331909
0.0336056
0.0338693
0.0339829
0.0339441
0.0337462
0.033377
0.0328186
0.0320462
0.0310273
0.0297213
0.0280765
0.0260255
0.0234669
0.0202021
0.0156413
0.00705242
0.0350324
0.0358577
0.0365028
0.0369761
0.0372852
0.0374349
0.0374251
0.0372496
0.0368959
0.0363432
0.0355621
0.0345131
0.0331448
0.0313917
0.0291677
0.0263487
0.022704
0.0175724
0.00789545
0.0386112
0.0395374
0.0402557
0.040783
0.0411336
0.0413171
0.0413366
0.0411875
0.0408567
0.0403215
0.0395478
0.0384883
0.0370793
0.0352376
0.0328523
0.029766
0.0257023
0.0199078
0.00892823
0.042702
0.043724
0.0445066
0.0450784
0.0454627
0.0456752
0.045723
0.0456036
0.0453043
0.0448009
0.0440553
0.0430124
0.0415958
0.0397006
0.0371839
0.0338407
0.029326
0.0227588
0.0101876
0.0473869
0.0484903
0.0493199
0.0499203
0.0503258
0.0505593
0.0506322
0.0505449
0.0502856
0.0498299
0.049137
0.0481457
0.0467672
0.044874
0.0422832
0.0387245
0.0337487
0.0262868
0.0117474
0.0527634
0.0539192
0.0547675
0.055373
0.055782
0.0560248
0.0561172
0.0560623
0.0558505
0.0554583
0.0548448
0.0539459
0.052664
0.0508512
0.0482818
0.0446015
0.0392068
0.0307351
0.0137196
0.0589446
0.0601033
0.0609286
0.0615071
0.0618968
0.0621337
0.0622371
0.0622125
0.0620529
0.0617376
0.0612289
0.0604649
0.0593466
0.0577151
0.0553088
0.0516821
0.0460197
0.0364864
0.0162968
0.0660563
0.0671413
0.0678874
0.0683998
0.0687435
0.0689567
0.0690598
0.0690601
0.0689533
0.0687232
0.0683386
0.0677463
0.0668573
0.0655195
0.0634618
0.0601714
0.0545951
0.0441691
0.0198519
0.0742254
0.0751318
0.0757316
0.0761352
0.0764049
0.0765756
0.0766655
0.0766819
0.0766229
0.0764779
0.076225
0.0758259
0.0752141
0.074269
0.0727576
0.0701844
0.065358
0.0548081
0.0251912
0.0835573
0.0841632
0.08455
0.0848061
0.0849774
0.0850882
0.0851512
0.0851716
0.0851494
0.0850792
0.0849497
0.0847405
0.0844156
0.0839077
0.0830768
0.0815871
0.0784541
0.0698153
0.033671
0.0941025
0.0943076
0.0944351
0.0945191
0.0945757
0.0946133
0.0946363
0.0946466
0.0946445
0.0946289
0.0945973
0.0945453
0.0944653
0.0943443
0.0941553
0.0938247
0.0930471
0.0897098
0.047071
)
;

boundaryField
{
    leftWall
    {
        type            kqRWallFunction;
        value           nonuniform List<scalar> 
50
(
0.000153046
0.000330155
0.000469065
0.000587805
0.000692008
0.000786722
0.000875608
0.000960986
0.00108734
0.00125541
0.00144667
0.00161602
0.00184787
0.00208658
0.00240605
0.00240849
0.00240664
0.00240828
0.00241097
0.00240559
0.00240636
0.00241295
0.00240745
0.00240769
0.00241034
0.00240611
0.00240609
0.00240765
0.00240996
0.00240636
0.00240409
0.00240638
0.00240879
0.0024135
0.00240951
0.00241234
0.00240773
0.00240818
0.00241383
0.00240992
0.00240842
0.0024095
0.00241128
0.00241176
0.00240848
0.00240758
0.00241328
0.00386645
0.0177574
0.0840188
)
;
    }
    rightWall
    {
        type            kqRWallFunction;
        value           nonuniform List<scalar> 
50
(
0.000207721
0.000328704
0.000412753
0.000502163
0.000598579
0.000699258
0.000806575
0.000929519
0.00110709
0.00127148
0.00133736
0.00145448
0.00148276
0.00160922
0.00181951
0.00201426
0.00201693
0.00195557
0.00194681
0.00194904
0.00194638
0.00192916
0.00193723
0.00194836
0.00192558
0.00201664
0.00234226
0.00268259
0.00304201
0.00332629
0.00352829
0.00371355
0.00392259
0.0041804
0.00450075
0.00488105
0.00531682
0.00580799
0.00637112
0.00705242
0.00789545
0.00892823
0.0101876
0.0117474
0.0137196
0.0162968
0.0198519
0.0251912
0.033671
0.047071
)
;
    }
    lowerWall
    {
        type            kqRWallFunction;
        value           nonuniform List<scalar> 
62
(
0.000153046
0.000382158
0.000561669
0.000700789
0.000814111
0.000909012
0.000989853
0.00105934
0.00111905
0.00117076
0.00121608
0.00125632
0.00129226
0.00132129
0.00133517
0.00131751
0.00124022
0.00111827
0.000982455
0.00085844
0.000742266
0.000576757
0.000275462
0.000275462
0.000613964
0.000863521
0.00111343
0.0013867
0.00172477
0.00222406
0.00311983
0.00333278
0.00283613
0.0027756
0.00312299
0.000297124
0.000544057
0.000699836
0.000893093
0.00113314
0.00143649
0.00192711
0.00287668
0.000297124
0.00072981
0.000993675
0.00111892
0.00119141
0.00122595
0.00125607
0.00127929
0.00126035
0.00114676
0.00098483
0.000812294
0.000663303
0.000670229
0.000758061
0.000742811
0.000565126
0.00039726
0.000207721
)
;
    }
    atmosphere
    {
        type            inletOutlet;
        inletValue      uniform 0.1;
        value           nonuniform List<scalar> 
46
(
0.1
0.0140016
0.00660255
0.00823483
0.00983436
0.0112498
0.012627
0.0140457
0.0155579
0.0172065
0.0190342
0.0210878
0.0234229
0.0261086
0.0292348
0.0329221
0.0373382
0.0427266
0.049461
0.0581642
0.0699945
0.1
0.1
0.1
0.1
0.1
0.1
0.1
0.1
0.1
0.1
0.1
0.1
0.1
0.1
0.1
0.1
0.1
0.1
0.1
0.1
0.1
0.1
0.1
0.1
0.047071
)
;
    }
    defaultFaces
    {
        type            empty;
    }
}


// ************************************************************************* //
