/*--------------------------------*- C++ -*----------------------------------*\
  =========                 |
  \\      /  F ield         | OpenFOAM: The Open Source CFD Toolbox
   \\    /   O peration     | Website:  https://openfoam.org
    \\  /    A nd           | Version:  9
     \\/     M anipulation  |
\*---------------------------------------------------------------------------*/
FoamFile
{
    format      ascii;
    class       volScalarField;
    location    "5.77";
    object      epsilon;
}
// * * * * * * * * * * * * * * * * * * * * * * * * * * * * * * * * * * * * * //

dimensions      [0 2 -3 0 0 0 0];

internalField   nonuniform List<scalar> 
2268
(
0.000333348
0.00169008
0.00294983
0.00408296
0.0050969
0.00600616
0.00682956
0.00757945
0.00826234
0.0088818
0.00944608
0.00996917
0.0104584
0.0108923
0.0111811
0.0110985
0.0102665
0.008829
0.00729026
0.00617224
0.00516776
0.00360133
0.00103509
0.000665438
0.0011433
0.00167434
0.00216886
0.00261588
0.00301731
0.00337807
0.00370285
0.00399558
0.00425977
0.00449939
0.00471749
0.00491165
0.00507035
0.00516316
0.00512797
0.00489517
0.00455573
0.00407775
0.00355836
0.00297837
0.00234761
0.00170778
0.00111744
0.00121357
0.00156344
0.00191579
0.00224147
0.0025358
0.00279988
0.00303631
0.00324812
0.00343836
0.00361001
0.00376445
0.00389887
0.00400484
0.00406428
0.00404638
0.0039277
0.00374923
0.00348601
0.00317773
0.00285777
0.00260517
0.00281994
0.00155836
0.00135803
0.00160379
0.00188459
0.00215276
0.00239794
0.00261867
0.00281631
0.00299319
0.00315195
0.00329502
0.00342333
0.00353457
0.00362236
0.00367445
0.00367257
0.00360658
0.00349681
0.00333743
0.00316495
0.00303805
0.00307727
0.00406182
0.00197833
0.00152367
0.00169161
0.00192377
0.00215475
0.00236908
0.00256327
0.00273773
0.00289425
0.00303511
0.00316245
0.00327711
0.0033774
0.00345858
0.00351205
0.00352614
0.00349534
0.00343173
0.00334508
0.00327887
0.00331769
0.00365642
0.00562451
0.00238124
0.00169786
0.00180156
0.00199616
0.00219929
0.00239087
0.0025658
0.00272376
0.00286621
0.00299513
0.00311251
0.00321927
0.00331436
0.00339429
0.00345301
0.00348287
0.00348008
0.00345431
0.00342649
0.00344912
0.00363983
0.00432004
0.00759568
0.00277436
0.00187732
0.00192497
0.00208862
0.0022691
0.00244214
0.00260131
0.00274594
0.00287732
0.00299726
0.00310767
0.00320964
0.00330265
0.0033842
0.00344996
0.00349472
0.00351593
0.00352296
0.00354425
0.00364046
0.00396488
0.00503681
0.0104241
0.00317652
0.00206284
0.00205875
0.00219598
0.00235707
0.00251374
0.0026587
0.0027913
0.00291293
0.00302535
0.0031304
0.00322933
0.00332206
0.00340673
0.00348016
0.00353854
0.00358048
0.00361576
0.00367638
0.00382771
0.00424569
0.00566757
0.016529
0.000945266
0.0039732
0.00629097
0.00756558
0.00821596
0.00850053
0.00868371
0.00890502
0.00913746
0.00870047
0.00707569
0.00546132
0.00404267
0.00472551
0.00665376
0.00633163
0.00412039
0.00231901
0.000870213
0.0010919
0.00230438
0.00317653
0.00368362
0.00395679
0.00408475
0.0041469
0.00419102
0.00419905
0.00402008
0.00361476
0.00317326
0.00276997
0.00280127
0.00297596
0.00278475
0.00212495
0.00149694
0.00104497
0.00170855
0.00228944
0.00277742
0.00306024
0.00321443
0.00328746
0.00331866
0.00332959
0.00330019
0.00316123
0.00293295
0.00269142
0.00246314
0.00238907
0.00237229
0.00219365
0.00180159
0.00140754
0.00135001
0.00253525
0.00256938
0.00278585
0.00291866
0.00299215
0.00302409
0.00303224
0.00302389
0.00297681
0.00284946
0.00267677
0.00250525
0.00234854
0.00227851
0.0021952
0.00200873
0.00170585
0.00140885
0.00152622
0.00360295
0.00298507
0.00293431
0.00293532
0.00293984
0.00293453
0.00292031
0.00289446
0.00283412
0.00271105
0.00256462
0.00243081
0.00232531
0.00227485
0.00215006
0.00195122
0.00168297
0.00143607
0.00166047
0.00510117
0.00348991
0.00314145
0.00302017
0.00296323
0.0029232
0.0028863
0.00284281
0.00277048
0.00264922
0.00252303
0.00242155
0.0023561
0.00230911
0.00215977
0.00194732
0.00168897
0.00147024
0.00175601
0.00757557
0.00405036
0.00336409
0.0031341
0.00302415
0.00295238
0.00289311
0.00283187
0.00274846
0.00262952
0.00252304
0.00245356
0.00241298
0.00235219
0.00219185
0.0019674
0.00170885
0.00150447
0.00182362
0.0131809
0.00456429
0.00356553
0.00325549
0.00310361
0.00300397
0.00292348
0.00284512
0.00275211
0.00263751
0.00254824
0.00250413
0.00247253
0.00239256
0.00222884
0.00199973
0.00174283
0.0015424
0.00188125
0.0037506
0.00234136
0.00227226
0.00237794
0.00251434
0.00264834
0.00277233
0.00288683
0.00299408
0.00309593
0.00319409
0.00328992
0.00338372
0.00347438
0.00355984
0.00363743
0.00370705
0.00377929
0.00388595
0.00408911
0.0045362
0.00562348
0.00874543
0.00450984
0.0027323
0.00260053
0.00268372
0.00279437
0.00289662
0.00298627
0.00307038
0.0031546
0.00324083
0.00332966
0.00342188
0.00351772
0.00361686
0.00371754
0.0038165
0.00391216
0.00401234
0.00414147
0.00434086
0.00469085
0.00532906
0.00644606
0.00527025
0.00316635
0.00299157
0.00308321
0.00317214
0.00323055
0.00326536
0.00330304
0.00335501
0.00342009
0.00349578
0.00358172
0.00367841
0.00378599
0.0039026
0.00402295
0.00414018
0.0042563
0.00439202
0.0045599
0.00479814
0.00514735
0.00558614
0.00629286
0.00366815
0.00346539
0.00363229
0.00367926
0.00366944
0.00361555
0.00358745
0.0035997
0.00363667
0.00369232
0.00376682
0.00386265
0.00398037
0.00411746
0.00426493
0.00440189
0.00451961
0.00467428
0.00480387
0.00494103
0.00512054
0.00530768
0.00784509
0.00403823
0.00392345
0.00402559
0.00386385
0.00383255
0.00378418
0.00376123
0.00378508
0.00383131
0.00388747
0.00396029
0.00406182
0.00419865
0.00437248
0.00457231
0.00473909
0.00480411
0.00492364
0.00505501
0.00508479
0.00511854
0.00517197
0.00809636
0.00416153
0.00391566
0.00391407
0.00387589
0.00397098
0.00386455
0.00382566
0.00385829
0.00392534
0.00401028
0.00411461
0.00424578
0.00441476
0.00462533
0.00485833
0.00500289
0.004968
0.00499824
0.00507409
0.00511269
0.00513031
0.00511779
0.00731588
0.00410964
0.00387235
0.00393533
0.00388449
0.00391493
0.00387915
0.00387206
0.00391005
0.00398139
0.00407608
0.00419265
0.00433109
0.00448782
0.0046463
0.00478179
0.0048705
0.00487925
0.00492742
0.00499101
0.00503512
0.00503091
0.00503214
0.00750271
0.00397442
0.00371979
0.00373382
0.00378364
0.00381237
0.00384897
0.00389316
0.00395427
0.0040326
0.00412495
0.00423054
0.00434657
0.00446386
0.00456995
0.0046623
0.00473811
0.00478909
0.00486794
0.0049427
0.00495212
0.00492852
0.00493912
0.00748632
0.00394452
0.00364452
0.00363148
0.00368583
0.00373811
0.00380426
0.00387964
0.00396164
0.00405143
0.00414815
0.00424995
0.00435207
0.00444586
0.00452411
0.00458825
0.00464464
0.00470492
0.00477681
0.00482821
0.00482508
0.00481545
0.00481902
0.00749506
0.00401456
0.00363356
0.0035823
0.00362336
0.0036855
0.00376376
0.00385151
0.00394392
0.00404078
0.00414059
0.00423972
0.00433239
0.00441194
0.0044746
0.00452338
0.0045689
0.0046209
0.00467327
0.00470545
0.00471206
0.00471265
0.00470613
0.00757565
0.00415185
0.00366222
0.00356935
0.00359076
0.00365071
0.00373007
0.00381952
0.00391389
0.00401132
0.00410917
0.00420312
0.00428816
0.00435997
0.00441691
0.00446245
0.0045047
0.00454863
0.00458877
0.00461527
0.00462759
0.00462929
0.00461604
0.00797644
0.00426812
0.00370705
0.00357942
0.0035808
0.00363185
0.00370609
0.00379178
0.00388301
0.0039765
0.00406896
0.00415671
0.00423632
0.00430504
0.00436211
0.0044099
0.00445299
0.00449356
0.00452859
0.00455365
0.00456737
0.00456848
0.00455404
0.00832887
0.00437944
0.00375969
0.00360249
0.00358542
0.00362529
0.00369191
0.00377169
0.00385765
0.00394555
0.00403213
0.00411467
0.00419086
0.00425888
0.00431808
0.0043695
0.00441508
0.00445558
0.00448949
0.00451452
0.00452897
0.00453089
0.00451869
0.00861929
0.00448053
0.00381289
0.00363112
0.00359801
0.00362696
0.00368565
0.00375922
0.00383974
0.00392254
0.00400456
0.00408365
0.0041581
0.00422653
0.0042882
0.00434314
0.00439176
0.00443402
0.00446901
0.00449532
0.00451143
0.00451584
0.00450772
0.00886924
0.00456995
0.00386285
0.00366075
0.00361413
0.00363346
0.00368499
0.00375301
0.00382906
0.00390822
0.00398752
0.00406502
0.00413921
0.00420889
0.00427319
0.00433155
0.00438361
0.00442886
0.00446653
0.00449557
0.00451486
0.00452334
0.00452055
0.00909352
0.0046491
0.00390816
0.00368904
0.0036312
0.0036425
0.00368814
0.00375183
0.00382481
0.00390202
0.00398044
0.00405807
0.00413345
0.00420541
0.00427293
0.00433519
0.00439143
0.00444089
0.0044828
0.00451628
0.00454046
0.00455462
0.0045584
0.00929615
0.00471934
0.00394852
0.00371496
0.00364791
0.00365281
0.00369403
0.00375485
0.00382633
0.00390328
0.00398251
0.00406195
0.00414007
0.00421562
0.00428752
0.00435477
0.00441645
0.00447166
0.00451959
0.00455941
0.00459038
0.00461191
0.00462365
0.00947982
0.00478146
0.00398394
0.00373811
0.00366367
0.00366384
0.00370221
0.00376176
0.00383336
0.00391169
0.00399346
0.00407643
0.00415899
0.00423981
0.00431771
0.0043916
0.00446047
0.00452335
0.00457933
0.0046276
0.00466741
0.00469816
0.00471946
0.00964416
0.00483565
0.00401444
0.00375836
0.00367833
0.00367545
0.00371264
0.00377257
0.003846
0.00392748
0.00401358
0.00410197
0.0041909
0.00427897
0.00436492
0.00444758
0.00452584
0.00459866
0.00466505
0.00472409
0.00477499
0.00481704
0.00484972
0.00978812
0.00488176
0.00404004
0.00377577
0.00369195
0.00368778
0.00372553
0.00378764
0.00386473
0.00395125
0.00404369
0.00413959
0.00423712
0.00433478
0.00443122
0.00452518
0.00461545
0.00470088
0.00478035
0.00485282
0.00491734
0.00497307
0.00501931
0.00991122
0.00491971
0.0040608
0.00379048
0.00370478
0.00370116
0.00374134
0.00380754
0.00389029
0.00398396
0.00408497
0.00419077
0.00429945
0.00440941
0.00451919
0.00462743
0.00473278
0.00483393
0.0049296
0.00501856
0.00509966
0.00517187
0.00523426
0.010014
0.00494952
0.00407691
0.00380282
0.00371719
0.00371605
0.00376064
0.00383302
0.00392363
0.00402681
0.00413891
0.00425734
0.0043801
0.00450549
0.00463194
0.00475793
0.00488196
0.0050025
0.00511805
0.00522714
0.00532834
0.00542037
0.00550206
0.0100942
0.00497107
0.00408865
0.00381318
0.00372969
0.00373307
0.00378418
0.00386499
0.00396588
0.00408119
0.00420725
0.00434143
0.00448165
0.00462612
0.00477313
0.00492099
0.00506797
0.00521228
0.00535212
0.00548569
0.00561125
0.00572718
0.00583198
0.0101479
0.00498443
0.00409643
0.00382208
0.00374288
0.00375291
0.00381281
0.00390447
0.00401832
0.0041487
0.00429197
0.00444546
0.00460708
0.0047749
0.00494708
0.00512171
0.00529676
0.00547012
0.00563961
0.00580299
0.00595811
0.00610291
0.00623553
0.0101776
0.00499038
0.00410087
0.00383013
0.00375744
0.00377636
0.00384745
0.00395261
0.00408235
0.00423109
0.00439524
0.00457218
0.00475977
0.004956
0.00515885
0.00536615
0.00557551
0.0057844
0.0059901
0.00618986
0.00638094
0.00656074
0.00672691
0.0101891
0.00499018
0.00410271
0.00383801
0.00377408
0.00380425
0.00388908
0.00401061
0.00415947
0.00433026
0.00451949
0.00472464
0.00494358
0.00517423
0.00541438
0.00566153
0.00591286
0.00616525
0.00641533
0.00665959
0.00689456
0.00711693
0.00732371
0.0101859
0.00498492
0.00410266
0.00384639
0.00379353
0.00383739
0.00393869
0.00407968
0.00425123
0.00444819
0.00466729
0.00490619
0.00516283
0.0054351
0.00572058
0.0060164
0.00631917
0.00662501
0.00692964
0.00722858
0.00751732
0.00779161
0.00804763
0.0101702
0.00497531
0.00410133
0.00385591
0.00381649
0.00387661
0.00399727
0.00416105
0.0043592
0.00458694
0.00484138
0.00512045
0.00542231
0.00574485
0.00608547
0.00644083
0.00680683
0.00717858
0.00755057
0.00791696
0.00827184
0.00860964
0.00892544
0.0101415
0.00496142
0.00409913
0.00386711
0.00384362
0.00392268
0.00406573
0.00425586
0.00448486
0.00474852
0.00504449
0.00537122
0.00572718
0.0061104
0.00651813
0.00694651
0.0073905
0.00784386
0.0082994
0.00874941
0.00918587
0.00960148
0.00998978
0.0100919
0.00494238
0.00409632
0.00388055
0.00387557
0.0039763
0.00414488
0.00436511
0.00462954
0.00493477
0.00527929
0.00566227
0.00608279
0.00653922
0.0070287
0.00754679
0.00808727
0.00864218
0.00920184
0.00975582
0.0102935
0.0108052
0.0112815
0.0100041
0.00491778
0.00409351
0.00389688
0.00391297
0.00403812
0.00423541
0.00448958
0.00479427
0.0051472
0.00554804
0.00599709
0.00649438
0.00703891
0.00762797
0.00825645
0.00891667
0.00959825
0.0102884
0.0109728
0.0116368
0.012267
0.0128508
0.0098997
0.0048942
0.0040927
0.00391712
0.00395658
0.00410875
0.00433782
0.00462977
0.00497962
0.00538669
0.00585228
0.00637837
0.00696644
0.00761661
0.00832658
0.00909086
0.00990008
0.0107407
0.0115956
0.0124447
0.0132676
0.014045
0.0147602
0.00977336
0.0048694
0.00409329
0.00394138
0.00400681
0.00418862
0.00445237
0.00478568
0.00518545
0.00565311
0.00619227
0.00680723
0.00750174
0.00827776
0.00913417
0.0100654
0.0110605
0.0121019
0.0131663
0.0142255
0.01525
0.0162113
0.0170876
0.009609
0.00483628
0.00409394
0.00397017
0.0040646
0.00427842
0.0045792
0.00495678
0.0054106
0.00594488
0.0065663
0.00728241
0.00810027
0.00902487
0.0100574
0.0111934
0.0124205
0.0137168
0.0150502
0.0163804
0.0176634
0.0188573
0.0199315
0.00939529
0.00479194
0.00409568
0.00400611
0.00413254
0.00437984
0.00471869
0.00514206
0.0056527
0.00625844
0.00696988
0.00779897
0.00875743
0.00985504
0.0110974
0.012483
0.0139997
0.0156212
0.0173042
0.0189896
0.0206098
0.0221006
0.0234182
0.00910482
0.00473672
0.00410482
0.00405662
0.00421665
0.00449645
0.00487176
0.00533992
0.00590784
0.00658767
0.00739486
0.00834693
0.00946203
0.0107572
0.0122455
0.0139324
0.0158097
0.0178486
0.0199919
0.0221523
0.0242217
0.0260965
0.0277131
0.0086885
0.00467968
0.00414127
0.00413989
0.00432952
0.00463493
0.00504004
0.00554789
0.00617002
0.00692324
0.00782846
0.0089099
0.0101941
0.0117086
0.0134788
0.0155234
0.0178462
0.0204222
0.0231809
0.0259929
0.028678
0.0310566
0.0330361
0.00807981
0.00467706
0.00426567
0.00429829
0.00449516
0.00480592
0.00522542
0.00576193
0.00643056
0.00725208
0.00825272
0.00946416
0.0109233
0.0126717
0.0147537
0.0172116
0.0200751
0.0233399
0.0269323
0.0306668
0.0342309
0.0372785
0.0396843
0.0075858
0.00505471
0.00466832
0.00462639
0.00475412
0.00502264
0.00542773
0.00597476
0.00667729
0.00755713
0.00864455
0.0099786
0.0116079
0.0135916
0.0160002
0.0189134
0.0224102
0.0265419
0.0312701
0.0363599
0.0412603
0.0451983
0.0480613
0.0156231
0.00787979
0.00596727
0.00531702
0.00515909
0.00529176
0.00563895
0.00617318
0.00689372
0.00781776
0.00897691
0.0104165
0.0121967
0.0143965
0.0171181
0.0204928
0.0246804
0.0298488
0.0360979
0.0432507
0.0504042
0.0554802
0.0587057
0.154943
0.0269468
0.0101105
0.0066657
0.00572749
0.00558839
0.00583337
0.00633512
0.00705909
0.00801121
0.0092214
0.010739
0.0126342
0.0150036
0.0179814
0.0217566
0.0265946
0.0328577
0.0409874
0.0512986
0.0629454
0.0691564
0.0722886
1.53856
0.129549
0.0208312
0.00860941
0.00628589
0.00581659
0.00596019
0.00643013
0.00715072
0.00811573
0.00935238
0.0109118
0.0128697
0.0153338
0.0184595
0.022478
0.0277445
0.0348301
0.0447112
0.0592111
0.0821252
0.0877124
0.0894785
0.019323
0.0159513
0.0165688
0.0208667
0.00759723
0.00763268
0.00754902
0.00729277
0.00581658
0.00583751
0.00575092
0.00555532
0.00532943
0.00531812
0.00527993
0.00517592
0.00515203
0.00513049
0.00509535
0.00502922
0.00506966
0.00504867
0.00503749
0.00501105
0.00500903
0.0049938
0.0049833
0.00493616
0.00492526
0.00490462
0.00486224
0.00480351
0.0048016
0.00477535
0.00473451
0.00468588
0.00468093
0.00465617
0.00462355
0.00458579
0.00458995
0.00456804
0.00454117
0.00451039
0.00453052
0.00451165
0.00448891
0.00446281
0.00449908
0.00448332
0.00446413
0.00444183
0.00449255
0.00447997
0.00446422
0.00444549
0.00451025
0.00450101
0.00448875
0.00447362
0.00455356
0.00454795
0.00453941
0.00452805
0.00462503
0.00462348
0.00461905
0.0046118
0.00472802
0.00473109
0.00473126
0.00472859
0.00486664
0.00487503
0.00488047
0.00488297
0.00504602
0.00506058
0.00507209
0.00508055
0.00527248
0.0052943
0.00531289
0.00532824
0.00555392
0.00558428
0.0056112
0.00563463
0.00590008
0.00594058
0.00597735
0.00601032
0.00632304
0.00637565
0.00642413
0.00646841
0.00683773
0.00690482
0.0069673
0.00702494
0.00746256
0.00754703
0.00762609
0.00769962
0.00822015
0.00832529
0.00842417
0.0085166
0.00913822
0.00926816
0.00939067
0.00950556
0.0102511
0.0104107
0.0105614
0.0107028
0.0116011
0.0117961
0.0119801
0.0121527
0.0132403
0.0134775
0.0137007
0.0139096
0.0152334
0.0155203
0.0157893
0.0160401
0.0176604
0.0180058
0.0183276
0.0186262
0.0206223
0.0210356
0.0214175
0.0217691
0.0242473
0.0247379
0.0251866
0.0255952
0.0287006
0.0292766
0.029796
0.0302625
0.0341975
0.0348619
0.0354501
0.0359691
0.0410194
0.0417637
0.0424067
0.0429613
0.049531
0.0503224
0.0509849
0.0515402
0.0601894
0.060952
0.061565
0.062061
0.07352
0.0741142
0.0745683
0.0749209
0.0900127
0.0902469
0.0904142
0.090538
0.00750693
0.00464991
0.00379554
0.00343786
0.0032405
0.00310458
0.00299422
0.00289172
0.00278654
0.00268061
0.00261002
0.00258335
0.00254606
0.00244256
0.0022808
0.00206256
0.00182683
0.00162713
0.00200007
0.00570469
0.00454364
0.00396966
0.00364844
0.00343363
0.00327065
0.0031336
0.00300998
0.00289581
0.00279522
0.00272266
0.00267737
0.00261893
0.00251377
0.00237692
0.0022162
0.00205816
0.00191764
0.00244193
0.00507564
0.00450146
0.00412069
0.00385283
0.00363444
0.00346091
0.0033099
0.00317514
0.00305775
0.002957
0.00287788
0.00282001
0.00275487
0.00265831
0.00255391
0.00246992
0.0024348
0.00246479
0.00346397
0.00490483
0.00455425
0.00430688
0.00409174
0.00385706
0.00369242
0.00353507
0.00339023
0.00327172
0.00317317
0.0030957
0.00304888
0.00300052
0.00290828
0.00281939
0.00280385
0.00292212
0.0032593
0.00549173
0.00485977
0.00462974
0.00448591
0.00430697
0.00409309
0.00396326
0.00376677
0.00358067
0.00344283
0.00333017
0.00322747
0.00315873
0.00312407
0.00307104
0.00299823
0.00299282
0.00319848
0.00382919
0.00860359
0.00488227
0.00470387
0.00460367
0.0044565
0.00423245
0.00407959
0.00386633
0.00366306
0.00350528
0.00338007
0.00326539
0.00315682
0.00307519
0.00301302
0.00297478
0.00304277
0.00336344
0.0039403
0.00813051
0.00481226
0.00466744
0.00458939
0.00450472
0.00427177
0.0041157
0.00392492
0.00373952
0.00358342
0.00345144
0.00332144
0.0031856
0.00307545
0.00300283
0.00297035
0.00304686
0.00331744
0.00381746
0.00658525
0.00470177
0.0045825
0.00449467
0.00440494
0.00424239
0.00409961
0.00395709
0.00380682
0.00365578
0.00351244
0.0033683
0.00321783
0.0030858
0.00299057
0.00294354
0.0029869
0.00318006
0.00369045
0.00614006
0.0046036
0.0044965
0.00439748
0.00429258
0.00416869
0.00405464
0.00394935
0.00382532
0.00367587
0.00352963
0.00338587
0.00323468
0.0030957
0.0029791
0.00289911
0.00289111
0.00300709
0.00342032
0.00568738
0.00451912
0.00442256
0.00432411
0.00422178
0.00411725
0.00401758
0.00392344
0.00380436
0.00366053
0.00352287
0.00337994
0.00322574
0.00308451
0.00295813
0.00285363
0.00280218
0.00285199
0.00317088
0.00548835
0.00445485
0.00436889
0.00427754
0.00418385
0.00408986
0.00399407
0.00389592
0.00377612
0.00364306
0.00351104
0.00336564
0.00320832
0.00306313
0.00293219
0.00281726
0.00274081
0.00274618
0.00297966
0.0050018
0.00441505
0.00433843
0.00425486
0.00416817
0.00407908
0.00398401
0.00388147
0.00376439
0.00363655
0.00350593
0.0033649
0.00321339
0.0030668
0.00292806
0.00280021
0.00270503
0.00268451
0.0028184
0.00489294
0.00440029
0.00433164
0.0042548
0.00417241
0.00408495
0.00399064
0.00388806
0.00377408
0.00365054
0.00352522
0.00339409
0.00325187
0.00310646
0.00296403
0.00283
0.00272075
0.00267716
0.0027449
0.00478568
0.00440981
0.00434884
0.00427855
0.00420018
0.00411449
0.0040215
0.00392067
0.00381066
0.00369349
0.00357448
0.00345159
0.00331833
0.00317853
0.00304202
0.00291747
0.00281996
0.00278943
0.00289913
0.004682
0.00444391
0.00439103
0.00432791
0.00425496
0.0041729
0.00408259
0.00398451
0.00387887
0.00376732
0.00365284
0.00353481
0.00340958
0.00328002
0.00315626
0.00305036
0.00298206
0.00299931
0.00324932
0.00489173
0.00450463
0.00446031
0.00440506
0.0043389
0.00426231
0.00417635
0.0040821
0.00398058
0.00387324
0.00376198
0.0036472
0.00352826
0.00340872
0.00329838
0.00321186
0.00317357
0.00323886
0.00360488
0.00582817
0.00459517
0.00456001
0.0045133
0.00445486
0.00438501
0.00430464
0.00421503
0.0041175
0.00401353
0.00390476
0.00379242
0.00367792
0.00356584
0.00346615
0.00339544
0.00338277
0.00349284
0.00395733
0.00668614
0.00471947
0.00469432
0.00465688
0.0046069
0.00454454
0.00447053
0.00438605
0.00429251
0.00419145
0.00408463
0.00397397
0.00386218
0.00375478
0.00366231
0.00360311
0.0036108
0.00376103
0.00431759
0.00742857
0.00488232
0.0048683
0.00484103
0.00480024
0.00474598
0.00467882
0.00459976
0.00451019
0.00441174
0.00430633
0.00419645
0.00408572
0.00398048
0.00389206
0.00384055
0.00386438
0.00405251
0.00470861
0.00813938
0.00508956
0.0050881
0.00507218
0.00504148
0.00499597
0.00493608
0.00486267
0.00477704
0.00468087
0.00457628
0.00446618
0.00435488
0.00424948
0.00416223
0.00411509
0.00415168
0.00437737
0.00515269
0.00896726
0.00534845
0.00536135
0.00535826
0.00533881
0.00530288
0.00525079
0.00518328
0.00510157
0.00500735
0.0049029
0.00479149
0.00467798
0.00457019
0.00448137
0.00443546
0.00448131
0.00474162
0.00564698
0.0100669
0.00566795
0.00569742
0.00570903
0.0057023
0.00567705
0.00563348
0.00557225
0.0054945
0.00540192
0.00529692
0.00518303
0.00506563
0.00495325
0.00486025
0.00481269
0.00486459
0.00515512
0.00619197
0.0114924
0.00605905
0.00610783
0.00613645
0.0061443
0.00613113
0.00609706
0.00604267
0.00596904
0.00587785
0.0057716
0.00565407
0.00553106
0.0054119
0.00531227
0.00526081
0.00531731
0.00563784
0.00681054
0.0132024
0.00653525
0.00660671
0.00665514
0.00667984
0.0066805
0.0066572
0.00661047
0.00654131
0.00645137
0.00634323
0.00622084
0.00609047
0.0059623
0.00585367
0.00579656
0.0058585
0.00621717
0.00755316
0.0152685
0.00711322
0.00721135
0.00728292
0.0073272
0.00734384
0.00733293
0.00729493
0.00723081
0.00714217
0.00703159
0.00690316
0.00676356
0.00662382
0.00650315
0.00643741
0.00650295
0.00690158
0.00841453
0.017507
0.00781332
0.00794282
0.00804145
0.00810849
0.00814366
0.00814708
0.00811921
0.00806098
0.00797392
0.00786053
0.00772494
0.00757409
0.00741981
0.00728307
0.00720361
0.00726639
0.00769542
0.00935793
0.0196508
0.00866043
0.00882677
0.00895694
0.00905037
0.00910695
0.00912696
0.00911093
0.00905977
0.00897488
0.0088586
0.00871494
0.00855087
0.00837873
0.00822095
0.00812062
0.00817023
0.00861221
0.0103807
0.021566
0.00968499
0.00989435
0.010061
0.0101848
0.0102659
0.0103051
0.0103029
0.0102603
0.0101786
0.0100599
0.0099077
0.0097288
0.00953561
0.00935147
0.00922217
0.00924666
0.00968381
0.011528
0.0234612
0.010924
0.0111833
0.0113917
0.01155
0.011659
0.0117199
0.0117339
0.0117019
0.011625
0.0115049
0.0113446
0.0111502
0.0109337
0.0107187
0.0105531
0.0105425
0.0109651
0.012897
0.0258362
0.0124227
0.012739
0.0129947
0.0131914
0.0133315
0.0134169
0.0134495
0.0134305
0.0133607
0.0132415
0.0130749
0.0128661
0.012626
0.0123779
0.0121714
0.0121196
0.0125267
0.0145833
0.0289174
0.0142359
0.0146167
0.0149245
0.0151634
0.0153373
0.0154497
0.0155034
0.0155002
0.0154408
0.0153261
0.0151572
0.0149377
0.0146771
0.0143978
0.0141504
0.0140566
0.0144526
0.0166737
0.0327471
0.0164305
0.0168826
0.0172468
0.0175303
0.0177399
0.0178812
0.0179585
0.0179742
0.0179295
0.0178247
0.01766
0.0174376
0.0171649
0.0168626
0.016582
0.0164529
0.016849
0.0192753
0.0373875
0.0190881
0.019617
0.02004
0.020369
0.0206148
0.0207859
0.0208885
0.0209265
0.0209016
0.020814
0.0206635
0.0204508
0.0201817
0.0198747
0.0195808
0.019438
0.0198615
0.0225611
0.043187
0.022309
0.0229173
0.0233984
0.0237711
0.0240514
0.0242516
0.0243806
0.0244439
0.0244444
0.0243831
0.0242598
0.0240754
0.0238348
0.0235554
0.0232882
0.0231796
0.023693
0.0268036
0.0508835
0.0262164
0.026902
0.027436
0.0278467
0.0281568
0.0283833
0.0285379
0.0286286
0.02866
0.0286347
0.0285545
0.0284223
0.0282453
0.0280435
0.0278717
0.027888
0.0286134
0.0323644
0.0612019
0.0309625
0.0317151
0.0322903
0.0327283
0.0330597
0.0333065
0.0334838
0.0336021
0.0336683
0.0336881
0.0336671
0.0336139
0.033544
0.0334886
0.0335177
0.0338144
0.0349754
0.0397424
0.0750401
0.0367348
0.0375322
0.0381279
0.0385763
0.038916
0.0391737
0.0393676
0.0395105
0.0396122
0.0396824
0.0397331
0.0397832
0.0398651
0.0400367
0.0404092
0.0412303
0.0432256
0.0496908
0.0940026
0.0437626
0.044566
0.0451511
0.0455861
0.0459164
0.0461717
0.0463721
0.0465324
0.0466649
0.0467837
0.046909
0.0470741
0.0473381
0.0478073
0.0486802
0.0503593
0.0538621
0.0633557
0.120991
0.052322
0.0530729
0.0536055
0.0539972
0.0542959
0.0545317
0.0547246
0.0548897
0.0550407
0.0551955
0.0553817
0.0556482
0.0560857
0.056868
0.058338
0.0612107
0.0672003
0.0823552
0.162112
0.0627383
0.0633602
0.0637907
0.0641054
0.0643477
0.0645438
0.0647109
0.064862
0.0650108
0.0651756
0.0653875
0.0657042
0.0662396
0.0672285
0.0691799
0.0732763
0.0826195
0.107961
0.231035
0.0753864
0.0757965
0.0760758
0.0762806
0.0764412
0.0765753
0.0766941
0.076807
0.076924
0.0770598
0.0772407
0.0775173
0.0779947
0.0789065
0.0808155
0.0852311
0.096902
0.135824
0.354683
0.090696
0.0908311
0.0909228
0.0909914
0.0910468
0.0910951
0.09114
0.091185
0.0912339
0.0912931
0.0913736
0.0914977
0.0917125
0.0921288
0.0930415
0.0953881
0.102983
0.139416
0.581926
)
;

boundaryField
{
    leftWall
    {
        type            epsilonWallFunction;
        value           nonuniform List<scalar> 
50
(
0.000333348
0.000665438
0.00111744
0.00155836
0.00197833
0.00238124
0.00277436
0.00317652
0.0037506
0.00450984
0.00527025
0.00629286
0.00784509
0.00809636
0.00731588
0.00750271
0.00748632
0.00749506
0.00757565
0.00797644
0.00832887
0.00861929
0.00886924
0.00909352
0.00929615
0.00947982
0.00964416
0.00978812
0.00991122
0.010014
0.0100942
0.0101479
0.0101776
0.0101891
0.0101859
0.0101702
0.0101415
0.0100919
0.0100041
0.0098997
0.00977336
0.009609
0.00939529
0.00910482
0.0086885
0.00807981
0.0075858
0.0156231
0.154943
1.53856
)
;
    }
    rightWall
    {
        type            epsilonWallFunction;
        value           nonuniform List<scalar> 
50
(
0.000870213
0.00104497
0.00135001
0.00152622
0.00166047
0.00175601
0.00182362
0.00188125
0.00200007
0.00244193
0.00346397
0.00549173
0.00860359
0.00813051
0.00658525
0.00614006
0.00568738
0.00548835
0.0050018
0.00489294
0.00478568
0.004682
0.00489173
0.00582817
0.00668614
0.00742857
0.00813938
0.00896726
0.0100669
0.0114924
0.0132024
0.0152685
0.017507
0.0196508
0.021566
0.0234612
0.0258362
0.0289174
0.0327471
0.0373875
0.043187
0.0508835
0.0612019
0.0750401
0.0940026
0.120991
0.162112
0.231035
0.354683
0.581926
)
;
    }
    lowerWall
    {
        type            epsilonWallFunction;
        value           nonuniform List<scalar> 
62
(
0.000333348
0.00169008
0.00294983
0.00408296
0.0050969
0.00600616
0.00682956
0.00757945
0.00826234
0.0088818
0.00944608
0.00996917
0.0104584
0.0108923
0.0111811
0.0110985
0.0102665
0.008829
0.00729026
0.00617224
0.00516776
0.00360133
0.00103509
0.00103509
0.00170778
0.00281994
0.00406182
0.00562451
0.00759568
0.0104241
0.016529
0.019323
0.0159513
0.0165688
0.0208667
0.000945266
0.0010919
0.00170855
0.00253525
0.00360295
0.00510117
0.00757557
0.0131809
0.000945266
0.0039732
0.00629097
0.00756558
0.00821596
0.00850053
0.00868371
0.00890502
0.00913746
0.00870047
0.00707569
0.00546132
0.00404267
0.00472551
0.00665376
0.00633163
0.00412039
0.00231901
0.000870213
)
;
    }
    atmosphere
    {
        type            inletOutlet;
        inletValue      uniform 0.1;
        value           nonuniform List<scalar> 
46
(
0.1
0.129549
0.0208312
0.00860941
0.00628589
0.00581659
0.00596019
0.00643013
0.00715072
0.00811573
0.00935238
0.0109118
0.0128697
0.0153338
0.0184595
0.022478
0.0277445
0.0348301
0.0447112
0.0592111
0.1
0.1
0.1
0.1
0.1
0.1
0.1
0.1
0.1
0.1
0.1
0.1
0.1
0.1
0.1
0.1
0.1
0.1
0.1
0.1
0.1
0.1
0.1
0.1
0.1
0.581926
)
;
    }
    defaultFaces
    {
        type            empty;
    }
}


// ************************************************************************* //
