/*--------------------------------*- C++ -*----------------------------------*\
  =========                 |
  \\      /  F ield         | OpenFOAM: The Open Source CFD Toolbox
   \\    /   O peration     | Website:  https://openfoam.org
    \\  /    A nd           | Version:  9
     \\/     M anipulation  |
\*---------------------------------------------------------------------------*/
FoamFile
{
    format      ascii;
    class       volVectorField;
    location    "35.15";
    object      U;
}
// * * * * * * * * * * * * * * * * * * * * * * * * * * * * * * * * * * * * * //

dimensions      [0 1 -1 0 0 0 0];

internalField   nonuniform List<vector> 
918
(
(2.47629 -0.138943 0)
(0.108704 0.722546 0)
(0.171795 1.05392 0)
(2.31834 0.153728 0)
(-0.0596818 1.27084 -1.22324e-19)
(-0.0924034 0.643931 -5.31373e-18)
(0.530069 0.849712 -2.95308e-19)
(0.274314 0.152869 -2.98834e-20)
(3.00615 -0.0195607 0)
(-0.00827145 0.477043 0)
(-0.0172359 0.589715 0)
(0.605211 0.00676637 0)
(0.0107054 0.439105 0)
(-0.00288243 0.421689 0)
(0.0134371 0.340814 -1.30508e-18)
(-0.00468719 0.768622 -9.20464e-20)
(0.312396 0.0742684 2.15205e-18)
(0.0797489 0.642602 -2.22898e-19)
(1.52884 0.128628 0)
(-0.0267165 0.685584 0)
(0.194583 0.157717 -1.26549e-18)
(3.08302 -0.397373 0)
(2.92445 -0.50598 0)
(1.86116 -0.1811 0)
(0.511381 0.0400857 0)
(-0.0253686 0.52155 0)
(-0.00135313 0.494038 1.86235e-18)
(-0.0223873 1.40072 0)
(0.0749672 2.88413 0)
(0.1683 1.73679 0)
(-0.0381997 3.16508 0)
(0.0273478 1.64015 9.40555e-20)
(0.0233477 0.686535 0)
(-0.147425 0.775094 -2.03082e-22)
(-0.193914 1.0291 4.42115e-18)
(-0.0415772 1.04471 0)
(0.744578 -0.00600497 0)
(0.160999 0.2463 6.65505e-19)
(0.993583 1.51319 6.52745e-19)
(0.649993 0.784443 -5.15931e-19)
(0.798674 1.57537 6.19857e-20)
(0.416856 0.851512 -3.20037e-19)
(0.552303 0.306554 2.93898e-20)
(0.29696 0.153641 0)
(0.963031 0.566593 0)
(0.532582 0.303936 1.32009e-19)
(0.257966 0.162784 -1.3546e-19)
(0.871596 -0.0554787 0)
(3.02784 -0.00170478 0)
(3.00685 0.0178656 0)
(3.20086 -0.417733 0)
(3.04288 -0.0742117 0)
(3.03116 -0.0388406 0)
(0.0185952 0.902927 -1.14619e-18)
(-0.054265 0.974495 0)
(0.0028375 0.455169 0)
(-0.0291677 0.981613 0)
(-0.0114118 0.481434 0)
(-0.00135614 0.869701 0)
(-0.0521305 1.11135 0)
(-0.0125599 0.541995 0)
(-0.0253803 1.16277 0)
(-0.00592964 0.622014 0)
(0.79048 0.0116245 0)
(1.16942 -0.00156165 0)
(0.618247 0.0123698 0)
(1.12578 0.0175987 0)
(0.569758 0.00867946 0)
(0.225406 0.921983 1.95972e-18)
(0.0985379 1.2081 0)
(0.176302 1.06604 0)
(0.0331901 0.755774 2.19924e-23)
(0.0372233 0.498055 -2.93093e-18)
(0.0194616 0.747943 0)
(0.00595421 0.422033 0)
(-0.000695271 0.734548 4.51723e-24)
(0.000702499 0.414825 0)
(-0.0169203 0.743179 0)
(-0.0129372 0.42798 0)
(0.0494338 0.649972 0)
(0.048437 0.458218 0)
(0.00800476 0.621948 1.23393e-18)
(0.000744501 0.344903 0)
(-0.0675669 4.69177 0)
(0.00896383 1.45791 9.1383e-20)
(-0.0104497 0.785281 -1.17643e-19)
(0.636082 0.152146 -7.50914e-19)
(0.321612 0.0656844 -7.28676e-19)
(0.644787 0.169721 -2.25456e-18)
(0.31753 0.0955704 -1.4515e-18)
(0.0785214 0.618355 0)
(0.178556 1.31394 1.84832e-19)
(0.179717 0.730318 -2.94902e-19)
(2.06031 0.260946 0)
(1.10704 0.11845 0)
(3.03313 0.103887 0)
(3.10392 0.446059 0)
(2.83919 0.377459 -1.01275e-17)
(2.5781 0.361309 7.77104e-18)
(-0.0706491 1.26336 0)
(-0.0113298 0.623395 0)
(-0.0138041 1.90064 0)
(-0.0507183 1.34681 0)
(-0.0480035 0.679142 0)
(0.440308 0.295625 4.00651e-19)
(0.225462 0.163358 0)
(2.2961 -0.266393 0)
(1.32372 -0.119273 0)
(1.07632 0.012669 0)
(1.01198 0.0187649 0)
(0.540922 0.0108513 0)
(1.01987 0.0563998 0)
(0.821213 0.0703255 0)
(0.343622 0.0286956 3.36285e-18)
(-0.00543499 0.451601 1.77341e-18)
(-0.0270312 0.784627 0)
(-0.0473174 0.847507 0)
(-0.0152739 0.460435 0)
(0.000132527 0.839725 1.8159e-18)
(7.30246e-05 0.487531 0)
(-0.00547889 0.845554 -5.59009e-18)
(-0.00488634 0.496761 1.88625e-18)
(0.0547544 3.56629 0)
(0.0434658 4.02532 0)
(-0.0162246 1.41058 -2.0515e-21)
(-0.01305 1.36321 0)
(-0.00977546 0.741408 0)
(1.41018 0.0348844 0)
(0.760549 0.0154388 0)
(0.709514 0.0142644 0)
(1.41618 -0.0328481 0)
(0.773515 -0.0087397 0)
(0.322053 0.480344 -8.35566e-19)
(0.156804 0.232717 0)
(0.324954 0.509159 9.36426e-20)
(0.163358 0.268429 0)
(1.24081 1.38691 1.66432e-19)
(0.778696 0.740867 -3.92398e-19)
(0.411605 1.42221 0)
(0.607202 1.53409 0)
(0.303555 0.814832 0)
(0.145326 0.35337 -4.42816e-19)
(0.607301 0.280717 0)
(0.313509 0.134638 3.98806e-19)
(1.42734 1.30675 0)
(1.58669 1.16856 0)
(0.874917 0.663926 4.61691e-19)
(1.73392 0.953107 0)
(1.0686 0.438779 2.32221e-20)
(1.47298 0.00813854 0)
(1.501 -0.0292391 0)
(0.801896 -0.00441617 0)
(1.95042 -0.199779 0)
(1.65082 -0.14818 0)
(1.05215 -0.0889696 0)
(3.06126 0.164853 0)
(3.03105 0.0687875 0)
(3.01022 0.0531594 0)
(0.035708 1.60546 6.08172e-19)
(0.0178665 0.826936 0)
(0.0179306 1.69609 1.0797e-18)
(0.00302472 0.938769 -9.70676e-19)
(0.0646802 1.15245 1.87754e-19)
(0.0477096 0.989309 0)
(0.0401846 0.528758 0)
(-0.028682 1.00568 0)
(-0.00699157 0.517602 0)
(0.0181341 1.61541 -4.43281e-21)
(-0.0180623 0.865471 0)
(-0.0539527 1.58393 -2.25777e-19)
(-0.0161259 0.820643 4.37271e-19)
(-0.00178817 1.02997 0)
(0.010274 1.04418 0)
(5.11975e-05 0.531671 0)
(0.010662 1.17126 0)
(0.000909199 0.612527 0)
(1.46831 -0.00370328 0)
(0.789219 0.00805993 0)
(1.44055 0.0331663 0)
(0.761792 -0.000557489 0)
(0.675382 0.00534461 0)
(1.26195 0.0166822 0)
(1.20239 0.0473083 0)
(0.65969 0.015556 0)
(-0.00580051 1.42077 -1.70201e-20)
(0.000184327 1.37708 0)
(0.00482014 0.732923 0)
(0.00172892 0.417221 0)
(0.284435 0.828751 0)
(0.253614 0.399731 -2.87117e-19)
(-0.00223266 0.635408 0)
(-0.00889718 0.367611 0)
(0.0118422 4.33792 0)
(-0.0484348 4.66416 0)
(-0.0178655 4.566 0)
(-0.0718479 3.36755 2.0409e-20)
(-0.0576842 4.60287 0)
(-0.0515293 4.18004 0)
(0.0048406 0.819008 1.08122e-20)
(0.0142128 1.56221 1.65379e-19)
(-0.0358532 1.50274 1.20867e-19)
(-0.00744623 0.825814 0)
(0.664426 0.105708 1.15324e-18)
(0.325684 0.0441634 -1.1302e-18)
(0.149653 1.13329 0)
(0.100935 0.573371 -2.69219e-19)
(0.118105 1.23311 -8.74234e-19)
(0.0518423 0.687067 8.69734e-19)
(0.809201 0.0240635 0)
(1.55677 0.0476796 0)
(1.7097 0.127652 0)
(0.919845 0.0445228 0)
(0.00793552 1.18242 0)
(0.0258353 1.19047 0)
(0.00450233 0.62797 0)
(0.482104 0.315077 1.20356e-18)
(0.43684 0.309077 -1.38662e-18)
(0.234764 0.164173 0)
(1.93551 0.153003 1.15233e-19)
(1.13643 0.0932524 0)
(1.72436 0.118444 0)
(0.883731 0.0226954 0)
(0.678171 0.0857386 0)
(0.699713 0.0460597 -5.40734e-18)
(0.346728 0.0325964 1.99895e-18)
(0.00914742 0.807284 1.69359e-18)
(0.00222282 0.46251 4.08166e-20)
(-0.0108777 1.40842 -3.5799e-20)
(0.00613618 1.38675 1.36581e-18)
(-0.0149832 0.848955 6.29412e-20)
(-0.0119261 0.524486 -2.52896e-22)
(-0.107514 1.00068 -1.16484e-18)
(-0.0529602 1.3532 8.33961e-19)
(-0.0175323 1.35275 -1.35771e-18)
(1.42273 -0.0170845 0)
(1.44236 0.0203186 0)
(0.769872 -0.000177535 0)
(1.45218 0.0253834 0)
(1.36319 0.0462298 0)
(0.761541 0.0203071 0)
(1.30062 -0.00215353 0)
(1.31867 -0.00584863 0)
(0.695054 -0.000986391 0)
(0.30485 0.473395 -9.15171e-19)
(0.161354 0.242675 0)
(0.15715 0.308422 1.36929e-19)
(0.309581 0.585877 1.12209e-18)
(0.307396 0.548564 -6.64287e-19)
(0.156816 0.281893 1.29811e-18)
(0.27847 0.717668 2.18141e-18)
(0.148255 0.380837 3.93603e-19)
(0.636086 0.213092 1.5374e-18)
(0.625988 0.253602 3.99304e-19)
(0.316619 0.115045 7.49241e-19)
(1.92132 0.71464 -5.99633e-19)
(1.1677 0.336109 -7.01854e-19)
(-0.035123 1.70304 4.64088e-19)
(-0.0114085 0.924751 0)
(1.6039 0.0239536 0)
(1.52191 0.0653729 0)
(0.852935 0.0268589 0)
(-0.00355885 1.38473 0)
(0.00507422 0.729574 2.49501e-18)
(0.0046503 0.731252 0)
(0.00207078 0.415097 -2.44205e-18)
(-0.0102751 1.38627 5.95627e-19)
(-0.00947264 1.4225 0)
(0.336542 0.488129 2.57943e-19)
(0.360031 0.546392 -8.62953e-19)
(0.171831 0.257813 7.81102e-19)
(-0.0256693 0.767468 -1.66253e-18)
(-0.0261519 0.689734 0)
(-0.0154343 0.412938 0)
(0.0302171 1.54784 -1.27039e-20)
(0.031407 1.58047 -3.64869e-19)
(0.0178921 0.82249 -1.55895e-20)
(0.213326 1.04394 8.8992e-19)
(0.119634 0.508968 -5.92195e-19)
(0.011863 1.48461 7.30501e-19)
(0.0558011 1.35061 -8.15317e-19)
(0.026801 0.760268 3.53032e-20)
(0.0075136 1.36614 -3.80736e-18)
(-0.000214786 1.39326 4.40915e-18)
(0.00377337 0.829776 1.73283e-18)
(-0.0138288 0.805094 -1.72529e-18)
(-0.00430907 0.481399 -1.73847e-18)
(-0.0106511 1.41685 -4.49956e-18)
(-0.0152177 1.40032 4.58875e-18)
(0.286344 0.674749 0)
(0.299754 0.634592 -2.28753e-18)
(0.151928 0.3317 9.90271e-19)
(0.281185 0.795893 1.18492e-18)
(0.138789 0.427474 -1.82832e-18)
(2.057 0.322587 4.15814e-19)
(2.05157 0.547735 0)
(1.21866 0.220985 -4.01765e-19)
(-0.0738493 1.63502 -4.80123e-21)
(-0.0141326 1.6904 0)
(-0.0157225 0.921777 0)
(0.227048 0.944369 -3.22746e-19)
(0.248194 0.866393 -7.06808e-19)
(0.128785 0.463218 1.32461e-18)
(3.16442 -0.442872 0)
(3.34728 -0.414685 1.81278e-18)
(0.0623858 3.48454 0)
(0.048856 2.80846 0)
(3.15925 0.249915 1.4192e-20)
(3.12355 0.506296 3.71207e-18)
(0.0234388 3.43233 -2.73899e-20)
(0.00930292 2.66402 0)
(-0.0416467 1.19604 1.5549e-18)
(0.190059 1.31637 0)
(3.47263 1.62512 -3.24724e-19)
(3.17427 0.272573 -2.96098e-20)
(3.14838 -0.118696 0)
(3.10047 -0.000403973 3.73119e-22)
(0.0439069 2.59047 0)
(0.157444 3.30049 0)
(-0.0549387 2.53461 0)
(-0.0230278 3.4881 3.15755e-19)
(-0.0248525 3.56906 1.99234e-19)
(2.63343 0.0488321 -1.36492e-20)
(3.04751 0.0311534 0)
(3.15793 0.0868416 0)
(-0.0507629 4.61732 0)
(-0.0457029 3.08299 0)
(-0.0717998 2.93624 0)
(0.652561 3.1061 2.65615e-19)
(3.33884 -0.422458 0)
(3.0114 -0.34581 0)
(3.1699 -0.0530367 2.27717e-18)
(3.2927 -0.3287 -2.74196e-18)
(3.1038 -0.125776 0)
(-0.0566232 4.51571 0)
(0.0168448 3.9356 0)
(0.00880273 4.2661 0)
(-0.0265247 3.09674 0)
(-0.0128765 2.85199 0)
(-0.0304905 2.425 0)
(2.97423 -0.00316924 0)
(2.85043 0.0486288 -1.805e-20)
(2.24693 3.04944 -3.21488e-19)
(3.15695 0.0444553 -2.27824e-18)
(3.19037 0.278179 2.76931e-18)
(3.0828 0.117338 0)
(3.3954 0.328926 2.08726e-18)
(3.35695 0.484366 -2.70651e-18)
(3.07111 0.418429 0)
(-0.0547306 3.3464 0)
(0.0058225 3.27654 8.51796e-20)
(-0.0302704 2.57538 -6.03499e-20)
(3.70791 0.555323 2.26538e-18)
(3.47099 0.208501 0)
(-0.151984 1.27126 -2.1658e-18)
(-0.0624335 0.88216 -1.35026e-19)
(-0.084839 1.33672 2.98541e-18)
(-0.035237 1.27045 -8.9956e-19)
(-0.000496264 1.08841 0)
(-0.0266646 1.23955 6.94814e-19)
(-0.115054 1.38786 2.14641e-18)
(-0.05905 1.34056 -1.31406e-18)
(-0.0767368 1.32063 0)
(1.28928 0.597213 0)
(1.17725 0.682377 0)
(3.55666 2.02952 9.53463e-19)
(3.0499 1.93601 -1.19051e-18)
(3.83774 1.70662 0)
(3.38428 1.15687 0)
(3.34934 0.280496 -3.91676e-18)
(2.89884 0.173121 4.83969e-18)
(3.35145 -0.155478 0)
(2.85479 -0.0761356 0)
(3.43642 0.0430265 0)
(3.5938 0.145057 0)
(3.28683 0.119875 0)
(3.55033 0.298581 0)
(3.40841 0.293059 0)
(3.32755 0.218074 0)
(0.0972829 2.79205 0)
(0.03433 2.08056 0)
(0.126571 3.05284 0)
(0.0927611 2.20657 0)
(0.214739 3.59361 0)
(0.140096 2.67372 -5.58536e-19)
(0.0532937 3.6099 0)
(0.0112852 3.01344 4.05588e-19)
(-0.0244237 3.20246 -5.16994e-19)
(-0.05898 2.79932 0)
(-0.0228582 2.20189 0)
(-0.0718981 2.90698 0)
(-0.055514 2.04976 0)
(-0.106744 4.7492 -2.45539e-19)
(-0.0790663 3.94011 2.77268e-19)
(-0.0742877 3.80095 3.0907e-19)
(-0.0526656 3.0151 0)
(-0.10439 3.80244 -4.58649e-19)
(-0.0370729 3.21364 -2.95048e-19)
(-0.0808387 4.78156 1.92539e-19)
(-0.0933521 4.46458 -3.50461e-19)
(-0.0685765 4.33433 -3.78924e-19)
(3.03133 0.0883889 3.35852e-18)
(2.28959 0.032183 -4.22968e-18)
(2.89131 0.132847 -3.32744e-18)
(2.20957 0.0734901 4.15617e-18)
(3.36858 0.027729 0)
(2.64307 -0.00265023 0)
(3.45416 0.0913603 0)
(3.32025 0.0192924 0)
(2.70666 0.00922898 0)
(3.68031 0.239651 0)
(3.43884 0.0960078 0)
(2.8637 0.056521 0)
(-0.0210359 4.33522 -1.20274e-20)
(-0.0538021 4.65329 0)
(-0.0591377 4.549 0)
(-0.0746588 3.50387 8.77128e-20)
(-0.0373188 2.77729 -3.46508e-21)
(-0.0791161 4.66999 1.13482e-19)
(-0.093173 4.45859 -1.1468e-19)
(-0.0770215 3.95667 0)
(-0.0551749 3.87685 0)
(-0.0186924 3.99354 0)
(-0.0707071 3.25716 0)
(-0.0425614 2.30186 0)
(0.948798 3.66254 -6.086e-19)
(0.921352 2.85391 -1.76274e-19)
(0.430118 2.05239 -2.28151e-19)
(0.252106 2.2986 6.96836e-19)
(1.02333 4.19968 2.63787e-19)
(3.43308 -0.167421 0)
(3.32213 -0.256546 0)
(2.88327 -0.189515 0)
(3.47032 -0.0643455 0)
(3.34581 -0.147864 0)
(3.44893 -0.261022 0)
(3.5195 -0.283601 0)
(3.57949 -0.281129 0)
(3.22413 0.0933886 3.61881e-18)
(2.55519 0.0645187 -4.57593e-18)
(3.09649 0.106579 -3.56227e-18)
(2.50909 0.0566756 4.43246e-18)
(2.24 3.41731 0)
(1.73985 2.94882 -4.45463e-19)
(2.56698 3.34916 -4.03107e-19)
(2.36973 2.52982 5.35773e-19)
(0.774416 1.21291 2.72196e-18)
(1.44675 0.216477 1.3431e-18)
(3.72257 0.304263 0)
(3.89316 0.57284 -1.84588e-18)
(3.29902 0.243966 -8.23352e-20)
(3.72079 0.440159 0)
(0.236574 1.31232 1.79591e-18)
(-0.0166661 1.20198 -2.87608e-18)
(0.058791 0.769957 1.61438e-18)
(0.275917 0.464891 -7.47771e-19)
(0.187225 1.38373 8.70911e-19)
(0.0506336 1.23716 0)
(0.0577275 1.08615 -1.13217e-18)
(0.191687 1.44296 -4.09174e-18)
(0.328964 1.55694 0)
(0.00867327 1.2902 1.19577e-19)
(-0.00971741 1.45729 -1.34012e-18)
(-0.0410144 1.30282 1.94825e-18)
(-0.0574433 1.41766 0)
(-0.0204757 1.38228 0)
(0.68103 1.04981 0)
(2.45664 2.45508 -1.06611e-18)
(2.64422 2.17394 3.95163e-19)
(2.79265 2.88277 0)
(3.21305 3.06784 -3.94519e-19)
(3.16607 2.41193 2.84648e-20)
(0.803626 0.589295 -1.82221e-18)
(1.55578 0.691424 -1.62181e-20)
(1.23283 0.450978 8.72079e-19)
(1.27491 0.843565 5.94999e-20)
(0.938718 0.63377 -2.36927e-18)
(1.46412 0.714102 0)
(1.98968 1.09965 1.45581e-18)
(2.03183 1.01561 0)
(1.41167 0.790625 0)
(1.06186 0.549631 0)
(3.37537 2.18024 1.00841e-18)
(3.94759 0.760956 -1.86321e-18)
(3.84794 1.21615 0)
(3.53389 0.757831 0)
(1.3913 0.364748 1.33238e-18)
(3.2579 1.84223 -8.51434e-19)
(2.8342 1.65438 1.54672e-18)
(3.75521 1.37711 -1.83574e-18)
(3.09793 0.114762 2.46385e-18)
(3.16856 0.180818 -2.57881e-18)
(2.66183 0.0916429 0)
(3.30731 -0.039495 0)
(3.20141 -0.0842557 -2.36639e-18)
(2.63244 -0.0321093 2.34555e-18)
(3.95629 0.093208 0)
(3.75968 0.145656 0)
(3.69369 0.155374 0)
(3.5883 0.204749 0)
(3.83261 0.0590327 0)
(3.72611 0.0522538 0)
(-0.0401346 2.51417 0)
(-0.0377468 2.01308 0)
(0.357018 3.99022 -4.11314e-19)
(0.662943 3.33543 -1.59955e-19)
(0.259714 3.02954 -3.57885e-19)
(0.343896 2.54959 5.73248e-19)
(0.458325 4.01615 0)
(0.469847 4.67199 -5.09841e-19)
(0.383035 4.73042 0)
(0.910923 4.375 -3.79465e-19)
(0.672922 3.81367 9.68723e-19)
(0.597188 4.65372 4.46908e-19)
(0.740833 4.20238 -1.87481e-19)
(0.602691 4.32776 1.50843e-19)
(0.916433 4.65785 -6.63698e-19)
(0.749847 4.66205 0)
(0.858469 4.58989 5.04487e-19)
(0.00704008 4.57137 -1.81135e-19)
(-0.0185355 3.64552 0)
(0.101535 4.28632 5.49604e-19)
(-0.00281343 4.38903 0)
(-0.00361672 3.4573 -4.51006e-19)
(-0.0152506 2.91066 0)
(-0.0999816 4.30964 -2.89118e-19)
(-0.105596 4.68188 0)
(-0.0529815 3.80745 0)
(-0.039797 3.72983 3.25179e-19)
(-0.0468725 3.88642 1.03842e-20)
(-0.0345757 3.70766 6.25867e-19)
(-0.0410237 2.94782 4.06843e-21)
(-0.113514 4.71019 1.80195e-19)
(-0.10239 4.74196 1.03221e-19)
(-0.0165977 2.62449 0)
(0.00134089 2.13654 0)
(-0.0414128 4.78935 4.86248e-19)
(-0.0482338 4.31016 4.23929e-19)
(-0.0828117 4.5858 -5.54176e-19)
(0.0164771 4.75856 0)
(-0.077371 4.53459 -3.0893e-19)
(-0.116796 4.16762 1.27653e-19)
(-0.0840011 4.24834 -4.12811e-20)
(-0.0696514 4.7291 -2.18908e-19)
(-0.0848626 4.26943 -6.85586e-20)
(-0.0832913 4.21432 3.06641e-19)
(2.87141 0.0610252 -2.36347e-18)
(2.85887 0.0497083 2.27294e-18)
(2.33859 0.0345587 0)
(3.51008 0.19204 3.04642e-18)
(2.70366 0.126547 -3.30465e-18)
(2.25448 0.064488 3.60945e-18)
(3.68247 0.335346 -4.01627e-19)
(3.2099 -0.0485194 0)
(3.17213 -0.0135464 2.23694e-18)
(2.69091 -0.0123738 -2.21931e-18)
(3.87877 0.122256 -1.25234e-19)
(3.77177 0.101866 1.0783e-18)
(4.15977 0.173506 0)
(4.22847 0.181165 -3.7512e-19)
(4.01369 0.145247 0)
(3.69489 0.155414 0)
(4.0323 0.0950923 0)
(3.71179 0.087337 0)
(4.18472 0.113898 7.85476e-19)
(4.1372 0.0791468 -1.74786e-18)
(4.14067 0.113899 -8.47982e-19)
(4.1864 0.116541 -9.24459e-19)
(4.2157 0.229032 1.774e-18)
(3.85475 0.188643 0)
(4.06129 0.30194 0)
(-0.071217 4.57992 -1.35711e-19)
(-0.0313016 4.64431 -1.16766e-20)
(-0.0644354 4.66085 0)
(-0.0540259 4.19605 1.38092e-19)
(-0.0522265 4.2238 2.2528e-20)
(-0.057121 4.09171 -2.18334e-20)
(-0.079815 3.52597 2.61151e-19)
(-0.142776 4.00603 -1.45132e-20)
(-0.101614 4.13349 7.47545e-20)
(-0.0737108 3.40194 -1.32252e-19)
(-0.0245324 2.92442 1.58386e-19)
(-0.074365 4.42911 5.20898e-21)
(-0.0873291 4.64255 1.72203e-19)
(1.24334 4.36017 3.47365e-19)
(1.15949 4.52894 7.26017e-19)
(1.73681 3.46678 4.30752e-19)
(1.30882 3.56122 1.69452e-19)
(1.28659 2.89005 0)
(0.548301 2.31824 2.74851e-19)
(0.463427 1.74116 3.30642e-19)
(0.344925 2.56665 1.50883e-20)
(0.491879 3.1724 -1.16117e-18)
(0.631335 3.13145 8.76398e-19)
(0.432572 2.40386 0)
(0.293449 1.97143 -5.57187e-19)
(0.259654 3.07676 1.39451e-18)
(0.27319 2.7187 -3.13794e-20)
(0.157805 2.27545 -1.74776e-18)
(0.591307 1.41085 1.4632e-18)
(0.576235 1.61656 0)
(3.58364 -0.0751493 8.64316e-20)
(3.61861 -0.254101 -7.25952e-20)
(3.72135 -0.217712 -1.26652e-18)
(3.75927 -0.126018 1.2824e-18)
(3.67616 -0.0488552 0)
(2.4463 3.87166 0)
(2.61781 3.91473 0)
(2.88945 3.62563 0)
(2.73612 3.64272 0)
(0.85409 1.39427 -3.33969e-21)
(0.611428 1.03897 0)
(1.70876 3.38391 1.50201e-20)
(1.42064 3.4629 0)
(1.32628 2.95008 -1.28361e-18)
(1.40678 2.89281 8.24341e-19)
(1.79125 0.310396 0)
(1.43043 0.262016 3.52051e-19)
(2.41164 0.358828 2.1917e-18)
(1.78605 0.284835 -7.85395e-19)
(1.4263 0.112198 -2.49489e-18)
(4.26631 0.790107 -2.56537e-18)
(3.85195 0.995215 -3.67211e-20)
(3.29689 0.844638 2.06775e-18)
(3.87577 0.745475 1.81321e-18)
(3.12305 0.465689 -3.04492e-18)
(2.91021 0.452162 3.74974e-19)
(3.19248 0.682316 -8.18685e-19)
(2.97608 0.683406 0)
(3.75866 0.563996 1.53759e-18)
(4.09565 0.62941 0)
(4.09117 0.776486 0)
(4.04578 0.415931 8.23639e-19)
(4.29665 0.642598 -3.02467e-20)
(4.24947 0.715922 -4.52861e-19)
(4.1766 0.643305 0)
(3.61567 0.13042 1.71812e-18)
(4.19 0.183607 2.14413e-18)
(4.09068 0.151665 -1.67936e-18)
(4.13651 0.240885 -1.4428e-18)
(3.74573 0.238221 -2.1563e-18)
(3.30287 0.37597 0)
(3.40342 0.302414 0)
(2.55811 0.190652 -1.26601e-18)
(2.10846 0.119115 4.7675e-19)
(4.03722 0.352635 1.94028e-18)
(4.28774 0.432861 -2.3464e-18)
(4.28488 0.48949 2.06882e-18)
(4.15713 0.493547 0)
(4.25664 0.337317 0)
(4.26651 0.322403 -9.81906e-19)
(4.2143 0.316173 -1.59646e-18)
(2.2266 3.48712 6.20445e-19)
(1.93736 3.23071 -6.8332e-19)
(1.44556 2.3553 -1.03182e-18)
(1.18628 1.99617 2.66828e-19)
(0.883696 1.37805 -2.6285e-18)
(0.79361 1.21536 9.22066e-19)
(0.600729 0.903879 -1.972e-21)
(1.11446 1.78462 -1.13778e-18)
(1.14177 1.8817 1.69848e-18)
(0.974292 1.70004 5.06041e-19)
(0.785896 1.28857 -5.12656e-19)
(0.635378 1.07435 0)
(2.44549 2.60673 -1.15429e-19)
(0.705131 1.14418 8.57187e-19)
(0.927707 0.889679 1.15613e-18)
(0.755237 0.813586 1.33767e-18)
(1.08306 0.746498 1.34109e-18)
(1.46685 1.04428 -2.27017e-18)
(1.38289 1.07117 1.83933e-18)
(1.00177 0.765486 -6.76718e-19)
(0.817006 0.567991 1.49457e-18)
(1.61548 0.490748 -7.78082e-19)
(1.55894 0.508321 0)
(1.23953 0.40733 4.60575e-21)
(2.50913 1.51587 7.75526e-19)
(2.07974 1.27012 -2.80847e-18)
(1.68659 1.18436 9.08677e-21)
(1.66065 1.09232 0)
(2.86199 2.59507 8.7376e-19)
(3.44674 2.75291 1.03742e-18)
(3.25576 2.93079 -1.19589e-18)
(3.5542 2.76346 -4.2836e-19)
(3.4843 2.60376 -1.34883e-19)
(3.51246 2.7952 1.38775e-19)
(3.6742 2.26706 -1.67934e-18)
(3.70518 2.49211 4.00719e-19)
(3.78367 2.4359 0)
(3.78446 2.19166 -5.79675e-19)
(4.04895 1.07334 5.80533e-19)
(4.27597 0.993189 1.0021e-18)
(4.30041 0.966898 1.01162e-18)
(4.05502 1.32936 -1.14957e-18)
(4.10288 1.3498 0)
(4.15253 1.23375 0)
(3.32765 1.23573 -1.56067e-20)
(2.41769 0.666488 0)
(2.72182 0.744042 9.30616e-19)
(3.23824 0.885953 -2.64567e-20)
(3.77286 1.53469 5.10723e-18)
(3.56977 1.76191 1.31107e-18)
(3.4809 1.54048 -1.34061e-18)
(3.0373 1.36977 1.43737e-18)
(2.7606 1.36964 8.23729e-19)
(2.30651 1.15588 -7.97764e-19)
(3.67221 -0.0855426 1.98456e-18)
(3.8947 -0.0289321 0)
(3.85894 -0.0665485 1.34203e-18)
(3.74291 -0.0594082 -2.98765e-18)
(3.98056 0.037378 1.46192e-18)
(3.90444 0.113427 -3.08285e-18)
(3.73986 0.128037 0)
(3.55625 0.173471 -6.28527e-19)
(3.81197 0.122982 1.60523e-18)
(3.69195 0.191385 -8.22533e-19)
(3.6003 0.171079 5.90697e-19)
(-0.0801624 2.59267 0)
(-0.046738 3.39988 0)
(-0.0319049 2.46354 0)
(-0.0215711 1.97203 0)
(0.0462986 3.94225 6.70655e-19)
(0.140165 3.72371 -1.72935e-19)
(0.317257 4.6449 -2.29739e-19)
(0.253027 4.46233 2.42638e-19)
(-0.0247361 4.29504 -4.97565e-19)
(0.0122586 4.32708 3.7363e-19)
(0.0958749 3.87104 2.22705e-20)
(0.00996423 3.55852 -4.67091e-19)
(-0.0122815 3.31028 -6.22671e-20)
(-0.0390541 3.6725 -5.6741e-20)
(0.153273 4.47428 -5.86975e-19)
(0.178468 4.28767 0)
(0.275764 4.63468 2.96414e-19)
(0.268986 4.70948 2.52981e-19)
(0.595889 4.44412 -2.26021e-19)
(0.40804 3.77976 0)
(0.457188 3.6276 -1.11479e-18)
(0.559835 3.99647 7.89922e-19)
(0.480073 4.56165 -6.14795e-19)
(0.370476 4.4319 3.30767e-19)
(0.299419 4.15336 0)
(-0.0341991 4.76169 -5.53267e-19)
(-0.0740086 4.526 -6.4146e-19)
(-0.0751445 4.73932 0)
(-0.0284151 4.35893 -6.24757e-21)
(-0.0184979 4.64079 2.74271e-19)
(-0.117999 3.88314 4.47133e-20)
(-0.0548762 3.48784 -6.53888e-19)
(-0.095017 3.92594 1.74202e-19)
(-0.134881 4.51869 2.32418e-19)
(-0.0755022 4.32911 0)
(-0.0592461 3.88798 0)
(-0.0818489 2.89976 2.00909e-19)
(-0.047169 3.63341 -6.26928e-20)
(-0.0723402 3.62087 0)
(-0.0879271 2.68874 1.58185e-19)
(-0.0461963 2.19508 -3.06493e-19)
(3.76103 0.0323494 0)
(3.7319 0.00775156 -2.03272e-19)
(4.1795 0.0679723 -1.43991e-18)
(4.08911 0.0463224 0)
(3.87634 0.0178331 0)
(4.14973 0.037067 -1.25249e-20)
(4.1003 0.0349603 2.37887e-18)
(4.0001 0.080223 2.84561e-18)
(3.75586 0.118678 0)
(3.55801 0.110063 0)
(4.01332 0.0939749 1.41744e-18)
(3.70324 0.11615 0)
(3.47209 0.128886 0)
(-0.08063 4.69952 0)
(-0.10605 4.66807 1.06716e-20)
(-0.0765069 4.71966 6.29675e-20)
(-0.0603336 3.83364 0)
(-0.111689 4.53634 1.11259e-19)
(-0.0673984 4.24175 -6.33839e-20)
(-0.0535738 3.93101 0)
(1.41005 4.18546 0)
(1.20931 4.58051 -1.29801e-18)
(1.22461 4.48824 0)
(1.57392 4.48725 1.48439e-18)
(1.59329 4.12145 0)
(1.50164 4.37173 -6.06527e-19)
(1.01131 2.24237 -3.39452e-20)
(0.709048 1.6452 -1.74451e-18)
(0.590592 1.22735 2.12846e-18)
(0.708605 1.83471 3.96774e-19)
(0.974865 2.42383 0)
(1.03624 2.37893 0)
(0.718262 1.68711 0)
(0.532247 1.32994 -1.39509e-18)
(1.20852 3.77452 -9.834e-19)
(1.12861 2.98855 -2.35482e-19)
(1.32671 3.40461 1.92584e-19)
(0.599148 2.04055 0)
(0.6201 1.94234 0)
(0.462147 1.5709 -3.92678e-19)
(0.957491 2.72009 0)
(2.68711 3.57099 0)
(2.38112 3.00846 -1.45452e-18)
(2.54577 3.02685 -8.58719e-20)
(2.41961 3.40426 0)
(2.2855 3.14925 2.22103e-18)
(3.27798 3.08683 -3.89686e-19)
(3.13406 3.32508 0)
(3.11645 3.15144 6.3042e-19)
(2.87041 3.4127 0)
(2.8819 3.20076 0)
(1.20909 2.00607 -9.30372e-19)
(1.41387 2.40306 -6.99491e-19)
(1.75336 2.9815 1.20594e-18)
(1.69554 2.95949 -3.62227e-19)
(1.06227 1.822 0)
(1.20668 2.20821 4.71085e-19)
(0.718337 1.28854 -7.15161e-19)
(0.581555 1.04335 -5.60265e-22)
(1.93705 3.69546 0)
(2.1989 3.74284 -5.42585e-19)
(2.33813 3.98623 0)
(2.28407 0.529021 0)
(1.61734 0.34191 0)
(1.20902 0.276587 0)
(2.20912 0.554268 -1.46519e-18)
(1.63527 0.402197 8.17209e-19)
(2.14561 0.129125 -9.85126e-19)
(2.6266 0.297533 0)
(2.46566 0.301649 4.13471e-19)
(1.76987 0.13572 1.63293e-18)
(1.53026 0.0812685 -1.037e-18)
(0.745491 1.55582 8.57995e-19)
(0.959706 1.82028 0)
(0.537616 1.43996 1.56079e-18)
(0.523806 1.61476 -1.42515e-18)
(0.757116 1.8144 -9.88289e-19)
(2.07325 2.46253 1.33763e-18)
(2.09658 2.71192 0)
(1.58336 1.67802 -2.76332e-19)
(2.00956 1.98935 1.74498e-18)
(1.35977 1.29252 -4.23558e-19)
(1.58857 1.31338 4.50663e-19)
(2.1095 1.51318 1.02313e-18)
(2.44263 1.67093 0)
(2.27592 1.85604 0)
(2.00982 1.60597 0)
(3.9568 2.07992 3.84477e-19)
(3.75979 1.8898 -1.2635e-18)
(3.8172 2.02812 1.04672e-18)
(3.90105 1.77151 -1.00827e-18)
(4.15789 1.67393 0)
(4.11697 1.84114 -2.9782e-19)
(2.84042 1.16333 -1.89721e-18)
(2.97079 1.16344 -2.4129e-18)
(2.33193 1.04356 1.45636e-18)
(2.13822 0.934432 -1.41977e-18)
(2.46347 0.846176 -1.17806e-18)
(2.17854 0.776946 1.44877e-18)
(4.00845 0.0334777 -1.52884e-18)
(4.05276 0.0406921 3.1301e-18)
(3.76797 -0.0658791 1.90084e-18)
(3.79119 -0.0737697 -2.2867e-18)
(3.95955 0.0105768 0)
(4.05604 0.0228814 -3.72968e-18)
(0.0965804 4.7615 1.06545e-19)
(0.0674014 4.73215 0)
(0.189438 4.73148 9.53529e-19)
(0.211014 4.74924 -8.67489e-19)
(0.230911 4.71908 4.28443e-19)
(0.121908 4.65917 0)
(-0.100688 4.77117 0)
(-0.106485 4.40448 -6.18487e-20)
(-0.10538 4.33373 5.54369e-20)
(-0.114108 4.48256 7.18509e-21)
(-0.104791 4.72128 -1.01165e-19)
(-0.0819205 4.70892 5.50877e-20)
(1.87529 4.00955 -1.64318e-18)
(1.81625 4.01603 1.74011e-18)
(1.68395 4.40661 -8.54203e-19)
(1.69265 4.27727 7.61209e-20)
(2.25268 4.08664 0)
(1.85456 4.22024 -6.35443e-19)
(1.98181 3.96008 6.16286e-19)
(1.82385 4.38114 8.34398e-19)
(2.07658 4.2194 0)
(2.22803 4.10039 0)
(1.13808 3.63053 1.49494e-18)
(0.826431 2.81097 2.02313e-18)
(0.954143 2.98935 -1.38947e-18)
(0.746356 2.97097 -2.31876e-19)
(0.902188 3.73004 4.6627e-19)
(0.721898 3.36252 -1.13392e-18)
(0.745618 1.4655 -1.21466e-18)
(0.746098 1.31672 0)
(0.602453 1.11432 -1.33509e-18)
(1.11073 2.06369 0)
(1.08769 2.15062 0)
(1.35837 2.19066 -1.0905e-18)
(1.06431 2.01402 -1.03591e-18)
(1.01667 2.03491 1.09859e-18)
(1.03094 1.51906 0)
(1.41015 1.76162 -6.01176e-19)
(1.62705 2.11881 -8.55374e-19)
(1.41058 2.08242 0)
(0.867667 1.81829 7.12393e-19)
(0.779584 1.67938 0)
(2.90584 2.2888 -1.84699e-18)
(3.31876 2.47056 2.60918e-18)
(3.27746 2.19306 -2.59327e-18)
(2.61012 2.02076 -2.31168e-19)
(2.72472 1.94025 -9.7411e-19)
(1.26167 2.18954 7.96093e-19)
(1.3158 2.24435 -1.35978e-18)
(1.45382 2.32931 1.79263e-18)
(1.79001 2.5593 -1.16513e-18)
(1.88857 2.932 -1.56708e-18)
(1.56286 2.48837 -1.18791e-19)
(1.63259 2.62789 1.37114e-18)
(1.80968 2.69276 9.66082e-20)
(2.01756 2.99848 6.49941e-19)
)
;

boundaryField
{
    wall-4
    {
        type            noSlip;
    }
    velocity-inlet-5
    {
        type            fixedValue;
        value           uniform (3 0 0);
    }
    velocity-inlet-6
    {
        type            fixedValue;
        value           uniform (0 1 0);
    }
    pressure-outlet-7
    {
        type            zeroGradient;
    }
    wall-8
    {
        type            noSlip;
    }
    frontAndBackPlanes
    {
        type            empty;
    }
}


// ************************************************************************* //
