/*--------------------------------*- C++ -*----------------------------------*\
  =========                 |
  \\      /  F ield         | OpenFOAM: The Open Source CFD Toolbox
   \\    /   O peration     | Website:  https://openfoam.org
    \\  /    A nd           | Version:  9
     \\/     M anipulation  |
\*---------------------------------------------------------------------------*/
FoamFile
{
    format      ascii;
    class       volScalarField;
    location    "4.76";
    object      nut;
}
// * * * * * * * * * * * * * * * * * * * * * * * * * * * * * * * * * * * * * //

dimensions      [0 2 -1 0 0 0 0];

internalField   nonuniform List<scalar> 
2268
(
1.73967e-05
1.98082e-05
2.37801e-05
2.64217e-05
2.83774e-05
2.99064e-05
3.1144e-05
3.21718e-05
3.30421e-05
3.37885e-05
3.44478e-05
3.50465e-05
3.55529e-05
3.59545e-05
3.62046e-05
3.61675e-05
3.5408e-05
3.35068e-05
3.16487e-05
3.04681e-05
2.89279e-05
2.53761e-05
1.52388e-05
3.95109e-05
0.000152622
0.000203179
0.00023555
0.000259191
0.000277673
0.000292864
0.00030589
0.000317448
0.000327865
0.00033686
0.000344172
0.000350206
0.000354678
0.000356932
0.000355429
0.000346993
0.00032215
0.00029294
0.000280324
0.000264097
0.000201216
5.1158e-05
4.67943e-05
0.000258972
0.000372931
0.000446742
0.000500776
0.00054302
0.000577617
0.000607032
0.000632748
0.000655463
0.000675027
0.000691262
0.000704241
0.00071324
0.000716813
0.000712021
0.000693154
0.000649717
0.000598373
0.00055762
0.000494206
0.000340507
6.10209e-05
5.21222e-05
0.00033477
0.000507589
0.000622232
0.000706833
0.000773133
0.00082732
0.000873082
0.000912636
0.000947087
0.00097656
0.00100099
0.00102009
0.00103271
0.00103683
0.0010287
0.00100187
0.000947561
0.000879353
0.000805571
0.000686966
0.000447528
6.88759e-05
5.62955e-05
0.000391956
0.000616204
0.000768602
0.000882164
0.000971519
0.00104454
0.00110595
0.00115861
0.00120404
0.00124262
0.0012744
0.00129883
0.00131449
0.00131898
0.00130824
0.00127609
0.00121551
0.00113345
0.00102883
0.000857475
0.000539788
7.61576e-05
5.97491e-05
0.000437493
0.00070611
0.000892617
0.00103297
0.00114394
0.00123472
0.0013109
0.0013759
0.00143157
0.00147858
0.00151706
0.00154633
0.00156479
0.0015699
0.00155762
0.0015223
0.00145822
0.00136511
0.00123486
0.00101666
0.000624568
8.44365e-05
6.27275e-05
0.000475379
0.000782399
0.000999442
0.00116428
0.00129525
0.00140261
0.00149262
0.00156916
0.00163441
0.00168927
0.00173399
0.00176783
0.00178912
0.00179533
0.00178262
0.00174587
0.00167977
0.00157949
0.00143078
0.00117658
0.000716317
9.57753e-05
6.5378e-05
0.000507963
0.000848558
0.0010929
0.00127997
0.00142933
0.00155203
0.00165491
0.00174223
0.00181642
0.0018786
0.00192927
0.00196757
0.00199186
0.00199976
0.00198771
0.00195101
0.00188434
0.00178092
0.00162216
0.00135046
0.000842058
0.000115639
1.33634e-05
2.54226e-05
2.95208e-05
3.13031e-05
3.19961e-05
3.21433e-05
3.20566e-05
3.20237e-05
3.22661e-05
3.21784e-05
3.06801e-05
2.86962e-05
2.67859e-05
2.85506e-05
3.11231e-05
3.06955e-05
2.8532e-05
2.46653e-05
2.92187e-05
5.23733e-05
0.000199579
0.000267847
0.000297986
0.000309295
0.000311844
0.000310934
0.000309329
0.000306553
0.000298383
0.000273286
0.000234972
0.000208019
0.000247344
0.000267016
0.000252168
0.000213761
0.000144039
6.00205e-05
6.40304e-05
0.000329745
0.000496817
0.000580751
0.000616388
0.000627337
0.000627359
0.000623575
0.000616496
0.000597953
0.000549714
0.000483577
0.000444379
0.000491773
0.000509154
0.000471131
0.000387208
0.00025406
6.49141e-05
7.37327e-05
0.000416057
0.00067085
0.000813411
0.000880181
0.000904702
0.000908588
0.000903362
0.000891333
0.000863462
0.000801213
0.000723174
0.000679581
0.000711256
0.000708819
0.000641778
0.000514215
0.000326879
6.72251e-05
8.34161e-05
0.000482046
0.000811053
0.0010086
0.00110704
0.00114692
0.00115619
0.00115014
0.00113315
0.00109752
0.00102816
0.000945883
0.000896499
0.000902082
0.000871765
0.000772423
0.000602146
0.000365581
6.7519e-05
9.47233e-05
0.000538941
0.000935505
0.00118113
0.00130758
0.00136181
0.00137648
0.00136981
0.00134818
0.00130629
0.00123337
0.00114888
0.00109047
0.00106696
0.001006
0.000872711
0.000659402
0.000374587
6.59798e-05
0.000109277
0.000599038
0.00106006
0.00134309
0.00149061
0.00155611
0.00157508
0.00156757
0.00154161
0.00149436
0.00141888
0.00133197
0.00126185
0.00120957
0.00111802
0.000950558
0.000693312
0.00035517
6.36204e-05
0.000128686
0.000691698
0.0012019
0.00150366
0.00166258
0.00173497
0.00175638
0.00174728
0.00171698
0.00166465
0.00158678
0.00149628
0.00141287
0.00133358
0.00121309
0.00101237
0.000710708
0.00033226
6.16791e-05
6.91548e-05
0.000552794
0.000939902
0.00122271
0.00144158
0.00161755
0.00176269
0.00188453
0.0019878
0.00207528
0.00214832
0.0022073
0.00225184
0.00228052
0.0022914
0.00228158
0.00224708
0.0021827
0.00207983
0.00191988
0.0016624
0.00125095
0.000666196
7.32672e-05
0.000600221
0.00103738
0.00136215
0.00161591
0.00182134
0.00199164
0.00213508
0.00225704
0.00236063
0.00244732
0.00251741
0.00257092
0.0026071
0.00262478
0.00262194
0.00259553
0.00254135
0.00245261
0.00231738
0.00211751
0.00183546
0.00146297
7.71992e-05
0.000636879
0.00111821
0.00147968
0.00176279
0.00199255
0.00218338
0.00234432
0.0024818
0.00259931
0.00269835
0.00277918
0.00284192
0.00288656
0.00291269
0.00291917
0.00290363
0.0028635
0.00279445
0.00268992
0.00254646
0.00236486
0.0021563
8.14771e-05
0.000661346
0.0011856
0.00158174
0.00188963
0.0021395
0.00234708
0.00252148
0.00267161
0.00280142
0.00291201
0.00300318
0.00307522
0.00312866
0.00316408
0.00318111
0.00317708
0.0031515
0.00310157
0.00302314
0.0029206
0.00280057
0.00267531
8.48353e-05
0.000683598
0.00124046
0.00166099
0.00198265
0.0022498
0.00247883
0.00266781
0.0028304
0.0029729
0.00309574
0.00319732
0.0032781
0.00333956
0.00338377
0.00341109
0.00341964
0.00340751
0.00337202
0.00331122
0.0032345
0.00314877
0.00306493
8.35445e-05
0.000663389
0.00122301
0.00165517
0.00200252
0.00229821
0.00255647
0.00277258
0.00295421
0.00311307
0.00324992
0.00336368
0.00345428
0.00352419
0.00357736
0.00361477
0.00363412
0.00363287
0.00360745
0.00355857
0.00349786
0.00342992
0.00336786
8.15178e-05
0.00060782
0.00118547
0.00163561
0.00200311
0.00232475
0.00260968
0.00285009
0.00305362
0.00323048
0.00338156
0.00350716
0.00360796
0.00368627
0.00374555
0.00378913
0.00381635
0.00382264
0.00380611
0.00376874
0.0037192
0.00366948
0.00362991
8.19079e-05
0.000620658
0.00119051
0.00164966
0.00203521
0.00237415
0.00267168
0.00292654
0.00314656
0.00333721
0.00350035
0.00363651
0.00374631
0.00383223
0.00389767
0.00394636
0.00397949
0.00399389
0.00398823
0.00396449
0.00392893
0.0038914
0.00385542
8.28481e-05
0.000658128
0.00122851
0.0016967
0.00209448
0.00244207
0.00274618
0.00301034
0.00324018
0.00344003
0.00361141
0.00375579
0.00387382
0.00396748
0.00404003
0.00409486
0.00413378
0.00415611
0.00416057
0.00414824
0.00412382
0.00409339
0.00406036
8.36565e-05
0.000685465
0.00127506
0.00175951
0.0021691
0.00252337
0.00283212
0.0031015
0.0033369
0.0035422
0.00371936
0.00386942
0.0039942
0.00409521
0.00417521
0.00423709
0.00428262
0.00431202
0.00432483
0.00432178
0.00430621
0.00428264
0.00425424
8.47397e-05
0.000709024
0.00132305
0.00182684
0.00224902
0.00261052
0.00292383
0.00319705
0.00343604
0.00364485
0.00382592
0.00398074
0.00411081
0.00421826
0.0043053
0.00437423
0.00442658
0.0044629
0.00448328
0.00448845
0.00448075
0.00446341
0.00443908
8.6097e-05
0.000733085
0.00137033
0.00189263
0.00232759
0.00269725
0.00301591
0.00329307
0.00353531
0.00374708
0.00393134
0.00409008
0.00422505
0.00433815
0.00443154
0.00450703
0.00456594
0.00460894
0.00463641
0.00464898
0.00464828
0.00463661
0.0046162
8.75175e-05
0.000755924
0.00141382
0.00195309
0.00240071
0.00277931
0.00310428
0.00338611
0.00363204
0.00384705
0.00403458
0.0041971
0.00433664
0.00445508
0.00455419
0.00463573
0.0047008
0.0047501
0.00478412
0.00480341
0.00480908
0.00480282
0.00478653
8.89649e-05
0.000773454
0.00145033
0.00200574
0.00246605
0.00285426
0.00318638
0.00347372
0.00372411
0.00394301
0.0041343
0.00430088
0.00444495
0.00456843
0.004673
0.00476023
0.00483113
0.00488638
0.00492649
0.00495195
0.00496358
0.00496266
0.00495076
9.02805e-05
0.000786409
0.00148028
0.00205068
0.00252314
0.00292099
0.00326087
0.00355451
0.00381017
0.0040337
0.00422937
0.00440037
0.00454916
0.00467773
0.00478766
0.00488039
0.00495689
0.00501782
0.00506368
0.00509495
0.00511228
0.00511666
0.00510936
9.13167e-05
0.000796532
0.00150491
0.00208882
0.00257275
0.00298015
0.003328
0.00362836
0.00388981
0.00411858
0.0043192
0.0044951
0.00464891
0.00478267
0.00489797
0.0049961
0.00507805
0.00514448
0.00519587
0.00523269
0.00525553
0.00526515
0.00526253
9.20975e-05
0.00080426
0.00152493
0.00212084
0.00261547
0.00303216
0.00338805
0.00369542
0.00396313
0.00419762
0.00440368
0.0045849
0.004744
0.0048831
0.00500379
0.00510727
0.00519457
0.00526634
0.00532308
0.00536527
0.00539341
0.00540813
0.00541018
9.26516e-05
0.00080978
0.00154075
0.00214729
0.00265183
0.00307748
0.00344141
0.00375602
0.00403033
0.00427097
0.00448286
0.0046697
0.00483432
0.00497886
0.00510493
0.00521372
0.00530624
0.0053832
0.00544511
0.00549244
0.00552566
0.00554529
0.00555188
9.29991e-05
0.000813286
0.00155273
0.00216864
0.00268233
0.00311659
0.00348849
0.00381049
0.00409167
0.00433875
0.00455675
0.00474944
0.0049197
0.00506971
0.00520111
0.0053151
0.00541269
0.00549463
0.00556147
0.00561368
0.0056517
0.00567597
0.00568692
9.31498e-05
0.00081501
0.00156125
0.00218535
0.00270746
0.00314995
0.00352972
0.00385915
0.00414734
0.00440104
0.0046253
0.00482395
0.00499988
0.0051553
0.00529188
0.00541088
0.00551331
0.00559995
0.0056714
0.00572816
0.00577066
0.00579927
0.00581434
9.31105e-05
0.000815183
0.0015667
0.00219788
0.0027277
0.00317801
0.00356546
0.00390228
0.0041975
0.00445785
0.00468839
0.00489294
0.00507443
0.00523509
0.00537663
0.00550034
0.00560727
0.00569826
0.00577396
0.0058349
0.0058815
0.00591413
0.00593306
9.2886e-05
0.00081399
0.00156942
0.00220667
0.00274352
0.00320121
0.00359606
0.0039401
0.00424223
0.00450912
0.00474578
0.00495605
0.00514285
0.00530844
0.00545457
0.00558261
0.00569363
0.00578856
0.00586809
0.0059328
0.00598314
0.00601946
0.00604199
9.2494e-05
0.000811606
0.00156978
0.00221219
0.00275538
0.00321997
0.00362185
0.0039728
0.00428156
0.00455471
0.00479719
0.00501283
0.00520454
0.00537463
0.0055249
0.00565678
0.00577142
0.00586981
0.00595273
0.00602081
0.00607454
0.00611425
0.00614018
9.19552e-05
0.000808268
0.00156818
0.0022149
0.00276376
0.00323468
0.0036431
0.00400052
0.00431549
0.00459444
0.00484228
0.00506278
0.00525889
0.00543294
0.00558679
0.00572198
0.00583973
0.00594111
0.006027
0.00609809
0.00615491
0.00619781
0.00622702
9.12865e-05
0.000804209
0.00156501
0.00221525
0.00276907
0.00324566
0.00366003
0.00402334
0.00434393
0.0046281
0.00488069
0.00510544
0.00530532
0.00548272
0.00563957
0.00577751
0.00589787
0.00600182
0.00609033
0.00616416
0.00622388
0.00626988
0.00630237
9.05045e-05
0.000799641
0.00156063
0.00221363
0.00277163
0.00325317
0.00367275
0.00404123
0.00436674
0.00465544
0.00491208
0.0051404
0.00534339
0.0055235
0.00568279
0.00582298
0.00594552
0.00605171
0.00614261
0.00621905
0.00628166
0.00633084
0.00636678
8.96235e-05
0.000794747
0.00155532
0.00221027
0.00277164
0.00325728
0.00368125
0.00405409
0.00438373
0.00467619
0.00493616
0.00516736
0.00537283
0.0055551
0.00571634
0.00585839
0.00598285
0.00609112
0.00618437
0.00626351
0.00632919
0.00638183
0.00642158
8.86442e-05
0.000789631
0.00154915
0.00220522
0.00276904
0.00325785
0.00368531
0.00406167
0.00439465
0.00469014
0.00495277
0.00518626
0.00539369
0.00557771
0.00574059
0.00588433
0.00601065
0.00612108
0.0062169
0.00629906
0.00636825
0.00642486
0.006469
8.75391e-05
0.000784076
0.00154181
0.00219813
0.00276343
0.00325446
0.00368452
0.0040636
0.00439922
0.00469714
0.00496193
0.0051973
0.00540641
0.00559199
0.00575648
0.005902
0.00603042
0.00614341
0.0062423
0.00632811
0.00640152
0.00646284
0.00651214
8.63366e-05
0.000776952
0.00153225
0.00218809
0.002754
0.00324637
0.00367825
0.00405942
0.0043972
0.0046972
0.00496391
0.00520105
0.00541185
0.00559915
0.00576554
0.00591329
0.00604442
0.00616069
0.00626352
0.00635393
0.00643253
0.00649956
0.00655496
8.52005e-05
0.000766723
0.00151904
0.00217387
0.00273966
0.00323265
0.00366579
0.00404869
0.00438846
0.00469054
0.00495932
0.0051985
0.00541139
0.00560096
0.00576993
0.00592076
0.00605558
0.00617627
0.00628426
0.00638054
0.0064656
0.00653954
0.00660209
8.40594e-05
0.000755539
0.0015029
0.00215513
0.00271961
0.00321246
0.00364654
0.00403119
0.00437322
0.00467783
0.00494925
0.00519118
0.00540697
0.00559974
0.00577239
0.00592753
0.00606746
0.00619408
0.00630885
0.00641262
0.00650568
0.00658785
0.00665865
8.29168e-05
0.000744068
0.00148376
0.00213096
0.00269261
0.00318473
0.00361985
0.00400681
0.00435193
0.00466003
0.00493515
0.00518094
0.00540084
0.00559814
0.00577593
0.00593703
0.00608387
0.00621842
0.00634202
0.00645529
0.00655811
0.00664994
0.00673002
8.17616e-05
0.000731596
0.0014602
0.00209947
0.00265685
0.00314812
0.00358505
0.00397557
0.00432523
0.00463833
0.00491866
0.00516982
0.00539538
0.00559883
0.00578354
0.0059526
0.00610865
0.00625363
0.00638868
0.00651389
0.00662852
0.00673147
0.00682164
8.05447e-05
0.000716475
0.00142944
0.0020577
0.00260986
0.00310102
0.00354147
0.00393767
0.00429402
0.00461413
0.00490151
0.00515978
0.00539271
0.0056041
0.00579775
0.00597719
0.00614532
0.006304
0.00645385
0.00659404
0.00672278
0.00683817
0.00693882
7.91741e-05
0.000696443
0.00138727
0.00200119
0.00254819
0.00304146
0.00348854
0.00389355
0.00425937
0.00458885
0.00488529
0.00515242
0.00539436
0.00561549
0.00582028
0.006013
0.00619697
0.00637377
0.00654293
0.00670191
0.00684719
0.00697595
0.00708673
7.74998e-05
0.000667662
0.00132646
0.00192296
0.00246714
0.00296722
0.00342588
0.00384394
0.00422253
0.00456385
0.00487118
0.00514864
0.00540096
0.00563342
0.00585172
0.00606134
0.0062663
0.00646752
0.00666227
0.00684483
0.00700896
0.00715102
0.00727025
7.5334e-05
0.000620695
0.00123235
0.00181143
0.00236034
0.00287611
0.00335375
0.00379015
0.00418497
0.00454029
0.00485986
0.0051485
0.00541197
0.005657
0.00589128
0.00612242
0.00635562
0.00659068
0.00682028
0.0070324
0.00721675
0.00736999
0.00749382
7.39433e-05
0.000526263
0.00107507
0.00164883
0.00222074
0.00276733
0.00327397
0.00373449
0.00414855
0.00451921
0.00485141
0.00515119
0.00542573
0.00568393
0.00593651
0.00619468
0.00646626
0.00674977
0.00702927
0.00727818
0.00748123
0.00763959
0.00776087
9.56444e-05
0.000334587
0.00081561
0.00141794
0.00204607
0.00264496
0.00319172
0.0036811
0.00411577
0.00450158
0.0048455
0.00515521
0.0054397
0.00571052
0.00598261
0.00627299
0.00659566
0.00695112
0.00730937
0.00760254
0.0078152
0.00796556
0.00807267
0.000195415
0.000161674
0.000486901
0.00113248
0.00185331
0.00252454
0.00311803
0.00363661
0.00409002
0.0044885
0.00484166
0.0051589
0.00545096
0.00573208
0.00602192
0.0063456
0.00673018
0.00719245
0.00769457
0.00803627
0.00823148
0.00834972
0.00842634
0.000413327
0.000148022
0.000256742
0.00088582
0.00170128
0.00244034
0.00307109
0.00361005
0.00407531
0.00448127
0.00483961
0.00516094
0.00545708
0.00574404
0.0060449
0.00639215
0.00683079
0.00742192
0.00819211
0.00861802
0.00873368
0.00878381
0.00881217
0.000128029
0.000119121
0.00011673
0.000120062
0.00113299
0.00106741
0.00105027
0.00107269
0.00201691
0.00195999
0.00193256
0.00193344
0.00260378
0.00256857
0.00254268
0.00252762
0.00302284
0.00299979
0.00297638
0.00295594
0.00333951
0.00332063
0.00330186
0.00328488
0.00360058
0.00358352
0.00356857
0.0035528
0.00382746
0.0038104
0.00379451
0.00378022
0.00403497
0.00401888
0.00400373
0.00399042
0.00423076
0.00421545
0.00420049
0.00418635
0.00441726
0.00440256
0.0043875
0.00437233
0.00459614
0.00458212
0.00456714
0.00455136
0.00476848
0.00475536
0.00474079
0.00472489
0.00493505
0.00492308
0.00490928
0.00489372
0.00509628
0.00508571
0.00507298
0.00505816
0.00525229
0.00524329
0.00523188
0.0052181
0.00540287
0.00539556
0.00538562
0.00537309
0.00554751
0.00554194
0.00553356
0.00552241
0.00568544
0.00568159
0.00567482
0.00566511
0.00581564
0.0058135
0.00580832
0.0058001
0.00593703
0.00593653
0.00593292
0.0059262
0.00604851
0.00604961
0.00604756
0.00604234
0.00614917
0.00615184
0.00615135
0.00614766
0.00623846
0.00624271
0.00624381
0.00624172
0.00631633
0.00632224
0.00632502
0.00632464
0.00638344
0.00639115
0.00639577
0.00639728
0.00644126
0.00645098
0.00645768
0.00646131
0.00649214
0.00650417
0.00651323
0.00651928
0.00653931
0.006554
0.00656579
0.0065746
0.0065868
0.00660454
0.00661942
0.00663135
0.00663926
0.00666045
0.00667878
0.00669415
0.00670177
0.00672675
0.00674881
0.00676787
0.00677956
0.00680854
0.00683449
0.00685733
0.00687779
0.0069108
0.00694056
0.00696705
0.00700137
0.00703812
0.00707134
0.00710103
0.00715478
0.00719458
0.00723047
0.00726251
0.00734197
0.00738354
0.00742076
0.00745385
0.00756603
0.00760735
0.00764398
0.00767626
0.00782876
0.00786697
0.00790039
0.00792951
0.0081297
0.00816118
0.00818828
0.00821161
0.0084649
0.00848575
0.00850342
0.00851843
0.00882564
0.0088328
0.00883879
0.00884384
0.000482011
0.00102029
0.00146753
0.00175572
0.00191765
0.00199537
0.00201885
0.00200674
0.00196953
0.00190965
0.00182693
0.00172854
0.00162329
0.00150497
0.00134108
0.00108987
0.000737701
0.000328073
5.9735e-05
0.00128667
0.00161186
0.00190219
0.00211398
0.00224533
0.00231115
0.00232729
0.00230658
0.00225763
0.00218571
0.00209172
0.00197788
0.00184555
0.00168748
0.00148273
0.00119685
0.000823727
0.000401544
6.17659e-05
0.00199161
0.00214751
0.00231707
0.0024576
0.00255143
0.00259762
0.00260058
0.00256846
0.00250725
0.00242187
0.00231421
0.00218386
0.00202868
0.00184172
0.0016101
0.00131329
0.000940141
0.000511468
6.89143e-05
0.00252568
0.00259162
0.00268477
0.00277146
0.00283157
0.00285752
0.00284409
0.00279802
0.00272425
0.00262524
0.00250315
0.00235686
0.00218327
0.0019763
0.00172871
0.00143164
0.00105963
0.000608521
7.83402e-05
0.00293314
0.0029589
0.00300605
0.0030538
0.00308504
0.00309205
0.00305995
0.00299803
0.00291127
0.00279978
0.00266418
0.00250349
0.00231391
0.00209102
0.00183604
0.00154055
0.00117672
0.000703354
9.36425e-05
0.00326485
0.00327257
0.00328996
0.00330322
0.00330848
0.00329316
0.00324602
0.00317105
0.00307149
0.00294732
0.00279765
0.00262166
0.00241719
0.00218238
0.00191371
0.00159865
0.00120989
0.000707951
9.49753e-05
0.00353393
0.00353001
0.00353192
0.00352967
0.00350832
0.00347283
0.00341038
0.00332201
0.00320921
0.00307212
0.00290927
0.00272035
0.00250265
0.00225355
0.00196489
0.00161829
0.00119186
0.000651695
9.13857e-05
0.0037629
0.00375075
0.0037387
0.00371959
0.00368289
0.00362856
0.00355221
0.00345269
0.00332822
0.00317901
0.00300425
0.00280405
0.0025749
0.00231119
0.00200458
0.00163716
0.0011895
0.000651041
8.97776e-05
0.00397146
0.0039503
0.00392503
0.00388928
0.00383694
0.00376714
0.00367898
0.00356941
0.00343501
0.00327449
0.00308722
0.00287318
0.00263029
0.0023529
0.00202949
0.00164436
0.001189
0.000651346
8.84004e-05
0.00416413
0.00413426
0.004098
0.00404958
0.0039847
0.00390266
0.00380241
0.00368226
0.00353789
0.00336497
0.00316288
0.00293213
0.00267173
0.00237623
0.00203341
0.00163069
0.00116504
0.000632306
8.51227e-05
0.00434696
0.00430934
0.00426416
0.00420644
0.00413242
0.00404039
0.00392946
0.00379871
0.00364304
0.0034569
0.00323923
0.00299037
0.00270902
0.0023889
0.00201987
0.00159374
0.00111237
0.000583862
8.13789e-05
0.0045238
0.0044802
0.00442806
0.00436326
0.00428199
0.00418186
0.00406191
0.00392108
0.00375402
0.00355537
0.00332335
0.00305734
0.00275364
0.00240504
0.002004
0.00154563
0.00103661
0.000510865
7.68226e-05
0.00469625
0.00464868
0.00459137
0.00452099
0.0044338
0.00432712
0.00419967
0.00404992
0.00387285
0.00366373
0.00341979
0.00313833
0.00281383
0.00243922
0.00200825
0.00151736
0.000978496
0.000453246
7.31194e-05
0.00486496
0.00481516
0.00475426
0.00467954
0.00458761
0.00447578
0.00434227
0.0041852
0.00400025
0.00378297
0.00352961
0.00323574
0.00289549
0.0025026
0.00205199
0.00154149
0.000985898
0.000454003
7.56308e-05
0.00503006
0.0049794
0.00491626
0.00483837
0.00474285
0.0046271
0.00448899
0.00432636
0.00413549
0.00391204
0.00365174
0.00334965
0.00300026
0.00259867
0.00214072
0.00162533
0.00106357
0.000507701
8.15837e-05
0.00519125
0.0051408
0.00507657
0.00499666
0.00489864
0.00478005
0.00463862
0.00447197
0.00427675
0.0040489
0.00378407
0.00347745
0.0031242
0.00272027
0.00226258
0.00175002
0.00118623
0.00059232
8.76884e-05
0.00534791
0.00529852
0.00523417
0.00515327
0.00505372
0.00493327
0.00478958
0.0046202
0.00442199
0.00419118
0.0039236
0.00361469
0.00326008
0.00285595
0.00239943
0.00188825
0.00131985
0.000689897
9.31151e-05
0.00549921
0.0054515
0.00538783
0.00530682
0.00520663
0.00508517
0.00494014
0.00476906
0.00456894
0.00433621
0.00406686
0.0037565
0.00340077
0.00299552
0.00253659
0.00201861
0.00143127
0.000753497
9.77393e-05
0.00564408
0.00559852
0.00553618
0.00545581
0.00535576
0.00523407
0.00508851
0.00491658
0.00471537
0.0044814
0.00421069
0.00389876
0.00354087
0.00313185
0.00266551
0.00213284
0.00151784
0.000796957
0.000100465
0.00578134
0.00573831
0.00567782
0.00559873
0.00549951
0.0053783
0.00523293
0.00506088
0.00485922
0.00462445
0.00435247
0.00403855
0.00367723
0.00326205
0.00278473
0.0022335
0.00158987
0.000833155
0.000101979
0.0059098
0.00586957
0.00581138
0.00573414
0.00563638
0.0055163
0.00537177
0.00520023
0.00499869
0.00476352
0.0044904
0.00417415
0.00380849
0.00338561
0.00289539
0.00232413
0.00165316
0.000863899
0.000103149
0.00602837
0.0059912
0.00593572
0.00586085
0.00576514
0.00564684
0.00550377
0.00533337
0.0051325
0.00489738
0.00462337
0.00430478
0.00393445
0.00350328
0.0029994
0.00240734
0.00170798
0.000887741
0.000104404
0.00613621
0.00610239
0.00605003
0.00597803
0.00588498
0.00576908
0.00562814
0.0054595
0.00525991
0.00502537
0.00475093
0.00443033
0.0040556
0.00361643
0.00309922
0.00248639
0.00175716
0.000901515
0.000106113
0.00623294
0.00620278
0.00615399
0.00608542
0.00599563
0.00588277
0.00574462
0.00557841
0.00538075
0.00514743
0.00487316
0.0045512
0.00417286
0.00372676
0.00319777
0.00256605
0.00180853
0.000917085
0.000108323
0.00631876
0.00629269
0.00624797
0.00618341
0.0060975
0.00598837
0.00585368
0.00569058
0.00549553
0.00526409
0.00499071
0.0046682
0.00428726
0.00383582
0.00329758
0.00265073
0.00187055
0.000948286
0.000111255
0.0063946
0.00637314
0.00633308
0.00627317
0.00619182
0.00608709
0.00595656
0.00579726
0.00560548
0.00537657
0.00510479
0.0047826
0.0044002
0.00394477
0.00339925
0.00274128
0.0019444
0.000996034
0.000114883
0.00646226
0.00644604
0.0064113
0.00635671
0.00628061
0.00618098
0.00605529
0.00590047
0.00571269
0.00548712
0.00521768
0.00489653
0.00451342
0.00405491
0.00350305
0.00283438
0.00202073
0.0010466
0.000119112
0.00652438
0.0065141
0.00648539
0.00643683
0.00636668
0.00627286
0.00615277
0.0060032
0.00582013
0.00559855
0.00533207
0.00501251
0.00462919
0.00416801
0.00361007
0.00293017
0.00209697
0.00108964
0.000123757
0.0065844
0.00658082
0.00655884
0.00651701
0.00645353
0.00636626
0.00625249
0.00610887
0.00593123
0.00571427
0.0054513
0.00513375
0.00475046
0.00428666
0.00372241
0.00303067
0.00217665
0.00113415
0.0001284
0.00664641
0.00665025
0.00663568
0.00660122
0.00654505
0.00646498
0.00635823
0.0062213
0.00604981
0.00583816
0.00557928
0.00526411
0.00488092
0.00441421
0.00384301
0.00313847
0.00226238
0.00118277
0.000133105
0.00671498
0.00672681
0.00672015
0.00669354
0.0066452
0.00657291
0.00647384
0.00634437
0.00617984
0.00597433
0.00572025
0.00540792
0.00502489
0.00455479
0.00397552
0.00325653
0.00235631
0.00123656
0.000138177
0.0067948
0.00681493
0.00681642
0.0067979
0.00675771
0.00669367
0.00660292
0.00648172
0.00632514
0.00612682
0.00587856
0.00556986
0.00518725
0.00471322
0.0041244
0.0033885
0.00246089
0.00129671
0.000143834
0.00689042
0.00691877
0.00692827
0.00691779
0.00688583
0.00683034
0.0067485
0.00663645
0.00648901
0.00629931
0.00605838
0.00575464
0.00537325
0.00489508
0.00429504
0.00353898
0.00257939
0.00136529
0.000149926
0.00700599
0.00704195
0.00705886
0.00705596
0.00703202
0.00698521
0.00691279
0.00681085
0.00667398
0.00649478
0.00626338
0.00596684
0.00558845
0.00510673
0.00449406
0.00371386
0.00271598
0.00144416
0.000156737
0.00714497
0.0071873
0.00721051
0.00721431
0.00719786
0.00715961
0.00709702
0.0070062
0.00688157
0.00671525
0.00649644
0.00621058
0.0058385
0.0053554
0.00472969
0.003921
0.00287616
0.00153503
0.000165125
0.00731001
0.00735677
0.00738459
0.00739376
0.00738394
0.00735391
0.00730139
0.00722267
0.00711213
0.00696157
0.00675934
0.00648919
0.00612897
0.0056493
0.00501246
0.00417149
0.00306856
0.00164171
0.000175601
0.00750275
0.00755125
0.00758146
0.00759432
0.00758993
0.00756751
0.00752512
0.00745933
0.00736475
0.00723314
0.00705236
0.00680469
0.00646483
0.00599757
0.00535605
0.00448175
0.0033073
0.00177103
0.00018851
0.00772365
0.00777058
0.00780057
0.0078151
0.00781474
0.00779907
0.00776656
0.00771427
0.00763728
0.00752782
0.00737388
0.00715707
0.0068495
0.00640963
0.00577813
0.00487678
0.00361696
0.00193464
0.000204689
0.0079719
0.00801352
0.00804047
0.00805458
0.00805669
0.00804669
0.00802351
0.00798479
0.00792646
0.00784178
0.00771989
0.00754318
0.00728309
0.00689324
0.0063002
0.00539543
0.00404432
0.00215895
0.000225888
0.0082452
0.00827782
0.00829908
0.00831078
0.0083138
0.00830824
0.00829345
0.00826778
0.00822825
0.00816978
0.00808378
0.00795562
0.00775967
0.00745007
0.00694394
0.00609606
0.00468437
0.00251754
0.000253773
0.00853984
0.00856042
0.00857389
0.00858156
0.00858411
0.00858171
0.00857402
0.00856014
0.00853835
0.00850562
0.00845665
0.008382
0.00826393
0.00806728
0.00771798
0.00705375
0.00573108
0.00323061
0.000292289
0.008851
0.00885784
0.00886234
0.00886498
0.00886601
0.0088655
0.00886337
0.00885937
0.00885297
0.00884326
0.0088286
0.00880599
0.00876951
0.00870641
0.00858512
0.00831329
0.00757009
0.0051942
0.000343893
)
;

boundaryField
{
    leftWall
    {
        type            nutkWallFunction;
        Cmu             0.09;
        kappa           0.41;
        E               9.8;
        value           nonuniform List<scalar> 
50
(
3.19335e-06
4.77588e-06
5.67521e-06
6.32234e-06
6.82376e-06
7.2354e-06
7.58814e-06
7.90034e-06
8.34259e-06
8.8216e-06
9.28439e-06
9.34405e-06
8.84635e-06
8.10474e-06
6.13645e-06
1.99574e-06
2.14749e-06
2.27612e-06
2.45179e-06
2.67229e-06
2.90238e-06
3.13629e-06
3.34796e-06
3.51386e-06
3.63826e-06
3.72705e-06
3.78184e-06
3.80509e-06
3.79758e-06
3.75845e-06
3.69433e-06
3.60695e-06
3.49861e-06
3.37192e-06
3.22907e-06
3.07012e-06
2.89053e-06
2.69526e-06
2.51027e-06
2.32429e-06
2.13797e-06
1.94949e-06
1.75081e-06
1.52681e-06
1.25269e-06
8.97114e-07
6.68772e-07
4.18305e-06
1.91609e-05
4.87536e-05
)
;
    }
    rightWall
    {
        type            nutkWallFunction;
        Cmu             0.09;
        kappa           0.41;
        E               9.8;
        value           nonuniform List<scalar> 
50
(
5.94096e-06
7.26785e-06
7.8435e-06
8.11061e-06
8.13903e-06
7.95295e-06
7.67681e-06
7.45023e-06
7.22732e-06
7.4742e-06
8.32056e-06
8.72157e-06
8.48951e-06
8.9688e-06
7.75359e-06
4.23824e-06
3.04648e-06
2.51197e-06
1.90175e-06
1.16862e-06
7.11605e-07
1.13658e-06
2.11163e-06
3.09688e-06
3.95785e-06
4.54364e-06
4.96527e-06
5.20449e-06
5.38797e-06
5.58274e-06
5.84833e-06
6.21895e-06
6.77731e-06
7.33663e-06
7.98568e-06
8.69695e-06
9.38482e-06
1.00604e-05
1.08319e-05
1.16806e-05
1.25227e-05
1.35297e-05
1.47892e-05
1.63321e-05
1.82018e-05
2.05195e-05
2.35184e-05
2.74107e-05
3.26953e-05
3.96299e-05
)
;
    }
    lowerWall
    {
        type            nutkWallFunction;
        Cmu             0.09;
        kappa           0.41;
        E               9.8;
        value           nonuniform List<scalar> 
62
(
1.24115e-06
2.22062e-06
2.75512e-06
3.10405e-06
3.35942e-06
3.55747e-06
3.71677e-06
3.84836e-06
3.9593e-06
4.05407e-06
4.13747e-06
4.21309e-06
4.27693e-06
4.32752e-06
4.35907e-06
4.35459e-06
4.25875e-06
4.01709e-06
3.7804e-06
3.62844e-06
3.42971e-06
2.96543e-06
1.58565e-06
1.58565e-06
6.20423e-06
7.38608e-06
8.31071e-06
9.15525e-06
1.01032e-05
1.13876e-05
1.36027e-05
1.49556e-05
1.39809e-05
1.37197e-05
1.40908e-05
1.31826e-06
6.35282e-06
7.74114e-06
8.87601e-06
9.99217e-06
1.12787e-05
1.29113e-05
1.50497e-05
1.31826e-06
2.97049e-06
3.50403e-06
3.7333e-06
3.82207e-06
3.84103e-06
3.83025e-06
3.82658e-06
3.85816e-06
3.8464e-06
3.65399e-06
3.39759e-06
3.15211e-06
3.38505e-06
3.71529e-06
3.65905e-06
3.37987e-06
2.87349e-06
2.35862e-06
)
;
    }
    atmosphere
    {
        type            calculated;
        value           nonuniform List<scalar> 
46
(
0.009
0.000148022
0.000256742
0.00088582
0.00170128
0.00244034
0.00307109
0.00361005
0.00407531
0.00448127
0.00483961
0.00516094
0.00545708
0.00574404
0.0060449
0.00639215
0.00683079
0.00742192
0.00819211
0.009
0.009
0.009
0.009
0.009
0.009
0.009
0.009
0.009
0.009
0.009
0.009
0.009
0.009
0.009
0.009
0.009
0.009
0.009
0.009
0.009
0.009
0.009
0.009
0.009
0.009
0.000343893
)
;
    }
    defaultFaces
    {
        type            empty;
    }
}


// ************************************************************************* //
