/*--------------------------------*- C++ -*----------------------------------*\
  =========                 |
  \\      /  F ield         | OpenFOAM: The Open Source CFD Toolbox
   \\    /   O peration     | Website:  https://openfoam.org
    \\  /    A nd           | Version:  9
     \\/     M anipulation  |
\*---------------------------------------------------------------------------*/
FoamFile
{
    format      ascii;
    class       volVectorField;
    location    "4.76";
    object      U;
}
// * * * * * * * * * * * * * * * * * * * * * * * * * * * * * * * * * * * * * //

dimensions      [0 1 -1 0 0 0 0];

internalField   nonuniform List<vector> 
2268
(
(-0.000806741 0.000404793 0)
(-0.00229364 0.000502897 0)
(-0.00420876 0.000556196 0)
(-0.00619734 0.000544931 0)
(-0.00811331 0.00052925 0)
(-0.0099657 0.00050556 0)
(-0.0116819 0.000459659 0)
(-0.0131707 0.000381616 0)
(-0.0143086 0.000263211 0)
(-0.0149635 0.000101071 0)
(-0.0150094 -0.000100856 0)
(-0.0143383 -0.000335778 0)
(-0.0128641 -0.000619654 0)
(-0.0104197 -0.000986935 0)
(-0.00678311 -0.00145406 0)
(-0.00203065 -0.00190441 0)
(0.00380426 -0.00140213 0)
(0.00473776 0.00178738 0)
(-0.00562845 0.00432335 0)
(-0.0175508 0.00262541 0)
(-0.0200225 -0.000895238 0)
(-0.0133389 -0.00330105 0)
(-0.00405349 -0.00212511 0)
(-0.000978593 0.00105885 0)
(-0.00265522 0.00130461 0)
(-0.004615 0.00144238 0)
(-0.00671734 0.00143665 0)
(-0.00876058 0.00139196 0)
(-0.0107158 0.0013125 0)
(-0.0125007 0.00117522 0)
(-0.0140178 0.00095848 0)
(-0.015152 0.000651322 0)
(-0.0157963 0.000257342 0)
(-0.0158732 -0.000210626 0)
(-0.0153246 -0.000743933 0)
(-0.0140895 -0.00135924 0)
(-0.0121195 -0.00209119 0)
(-0.00939274 -0.00292464 0)
(-0.00611724 -0.00353696 0)
(-0.00268495 -0.00231036 0)
(-0.00194047 0.00321879 0)
(-0.00646267 0.00710559 0)
(-0.0120838 0.00477217 0)
(-0.0133127 -0.00109539 0)
(-0.0105799 -0.00550924 0)
(-0.00551962 -0.00609298 0)
(-0.00107264 0.00192975 0)
(-0.00290297 0.00219516 0)
(-0.00488939 0.00238406 0)
(-0.00702293 0.00239731 0)
(-0.00910698 0.00232585 0)
(-0.0110959 0.00218306 0)
(-0.0129066 0.00194144 0)
(-0.014443 0.00157184 0)
(-0.0155988 0.00106449 0)
(-0.016283 0.000433709 0)
(-0.0164334 -0.000295784 0)
(-0.0160141 -0.00110818 0)
(-0.0150125 -0.00200931 0)
(-0.0134604 -0.00301295 0)
(-0.011453 -0.0040634 0)
(-0.00926997 -0.00470359 0)
(-0.00720723 -0.00308699 0)
(-0.00613114 0.00354567 0)
(-0.00659041 0.00796702 0)
(-0.00787373 0.0056897 0)
(-0.0082421 -0.00120814 0)
(-0.00708122 -0.00679945 0)
(-0.00417771 -0.00933905 0)
(-0.00115069 0.00287004 0)
(-0.00311566 0.00315296 0)
(-0.00518036 0.00336653 0)
(-0.00735553 0.00338867 0)
(-0.00947305 0.00328647 0)
(-0.0114856 0.00307712 0)
(-0.0133144 0.0027287 0)
(-0.0148666 0.00220587 0)
(-0.0160431 0.00150199 0)
(-0.0167661 0.000642785 0)
(-0.0169893 -0.000333879 0)
(-0.0166974 -0.00139738 0)
(-0.0159133 -0.00253313 0)
(-0.0147251 -0.0037243 0)
(-0.0132999 -0.00487215 0)
(-0.011963 -0.00545523 0)
(-0.0108474 -0.003693 0)
(-0.0092068 0.00298116 0)
(-0.00693842 0.0074493 0)
(-0.0051991 0.00557981 0)
(-0.00399571 -0.00149047 0)
(-0.00317991 -0.00750722 0)
(-0.00170487 -0.0113196 0)
(-0.00120916 0.00386197 0)
(-0.00330732 0.00417637 0)
(-0.00548352 0.00439419 0)
(-0.00771459 0.00441039 0)
(-0.00986599 0.00426985 0)
(-0.0118975 0.00398954 0)
(-0.0137399 0.00353169 0)
(-0.0153044 0.00285487 0)
(-0.0164985 0.00195774 0)
(-0.0172569 0.00087954 0)
(-0.0175486 -0.000326857 0)
(-0.0173753 -0.0016132 0)
(-0.0167831 -0.00293842 0)
(-0.0158928 -0.00424973 0)
(-0.0148986 -0.00541237 0)
(-0.0141025 -0.00589291 0)
(-0.0135298 -0.00418222 0)
(-0.0114779 0.00167372 0)
(-0.00750316 0.00590517 0)
(-0.00350971 0.00439715 0)
(-0.000720452 -0.00215994 0)
(0.000155898 -0.00780424 0)
(0.000519054 -0.0117687 0)
(-0.00125812 0.00490926 0)
(-0.00349763 0.0052587 0)
(-0.00579651 0.00546123 0)
(-0.00808848 0.00545263 0)
(-0.0102704 0.00526334 0)
(-0.0123134 0.00490759 0)
(-0.0141611 0.00433919 0)
(-0.0157296 0.0035095 0)
(-0.0169327 0.00242442 0)
(-0.0177176 0.00113894 0)
(-0.018068 -0.000278399 0)
(-0.0179971 -0.0017614 0)
(-0.0175618 -0.00324064 0)
(-0.0168939 -0.00462882 0)
(-0.0161743 -0.00577291 0)
(-0.0156103 -0.006174 0)
(-0.015109 -0.0046569 0)
(-0.0128567 -2.30882e-06 0)
(-0.00802764 0.00364385 0)
(-0.00252735 0.00239093 0)
(0.00124095 -0.00312621 0)
(0.00226988 -0.00788957 0)
(0.00205964 -0.0111381 0)
(-0.00132528 0.00600278 0)
(-0.00370179 0.0063982 0)
(-0.00611628 0.00656525 0)
(-0.00846263 0.00651107 0)
(-0.0106649 0.00626053 0)
(-0.0127065 0.00582422 0)
(-0.0145452 0.00514436 0)
(-0.0161029 0.00416304 0)
(-0.0172998 0.00289554 0)
(-0.0180966 0.00141467 0)
(-0.0184911 -0.000196105 0)
(-0.0185024 -0.00185512 0)
(-0.0181862 -0.00346631 0)
(-0.0176678 -0.00491366 0)
(-0.0170899 -0.00604997 0)
(-0.0165422 -0.00644717 0)
(-0.0158025 -0.00524181 0)
(-0.0133446 -0.00176905 0)
(-0.00827126 0.00101977 0)
(-0.00220481 -1.78649e-06 0)
(0.00202886 -0.0043045 0)
(0.00342304 -0.00789879 0)
(0.00310142 -0.00959594 0)
(-0.00144186 0.00702183 0)
(-0.00393911 0.00761446 0)
(-0.00643265 0.0077195 0)
(-0.00881843 0.00759534 0)
(-0.0110259 0.00726732 0)
(-0.0130483 0.00674151 0)
(-0.0148579 0.00594578 0)
(-0.0163831 0.00481102 0)
(-0.0175523 0.00336556 0)
(-0.0183416 0.00170086 0)
(-0.0187627 -8.79843e-05 0)
(-0.0188359 -0.00190759 0)
(-0.018605 -0.00364248 0)
(-0.018176 -0.0051529 0)
(-0.0176432 -0.00632376 0)
(-0.0169925 -0.00681527 0)
(-0.0159113 -0.00601984 0)
(-0.013196 -0.00360339 0)
(-0.00816332 -0.00168723 0)
(-0.00215154 -0.00252607 0)
(0.0023046 -0.00575178 0)
(0.00420983 -0.00819172 0)
(0.00450701 -0.00718572 0)
(-0.00809123 0.001482 0)
(0.00398376 -0.00459907 0)
(0.0183126 -0.00405404 0)
(0.0288186 -0.00252511 0)
(0.0352543 -0.00130439 0)
(0.0384554 -0.000508148 0)
(0.0394334 3.05857e-05 0)
(0.0393788 7.12183e-05 0)
(0.0406569 -0.00124781 0)
(0.0470544 -0.00229512 0)
(0.0508225 0.000360224 0)
(0.0449874 0.00412053 0)
(0.0157966 0.00945003 0)
(-0.0130794 0.00239477 0)
(0.00267308 -0.00761306 0)
(0.0278569 -0.00798762 0)
(0.0495531 -0.00502102 0)
(0.0562166 0.00310015 0)
(0.0332297 0.0110355 0)
(0.00275968 0.00039201 0)
(0.0104669 -0.00772953 0)
(0.0194229 -0.00740645 0)
(0.026718 -0.00517599 0)
(0.0318999 -0.00300064 0)
(0.0349003 -0.00135946 0)
(0.0362812 -0.00035477 0)
(0.0370023 -0.000427933 0)
(0.0380947 -0.00229834 0)
(0.0411206 -0.00352354 0)
(0.0419016 0.00196187 0)
(0.035772 0.00985813 0)
(0.0176189 0.0172806 0)
(0.00803322 0.00364558 0)
(0.0176833 -0.0122108 0)
(0.0304881 -0.0141091 0)
(0.0434668 -0.00857082 0)
(0.0475557 0.00640596 0)
(0.0413271 0.0270463 0)
(0.0073918 -0.00368562 0)
(0.0132072 -0.0107952 0)
(0.0197106 -0.0101162 0)
(0.0252857 -0.00740942 0)
(0.0295535 -0.0045423 0)
(0.0321953 -0.00221639 0)
(0.0335151 -0.000804124 0)
(0.0341103 -0.000765512 0)
(0.0343866 -0.00272847 0)
(0.0351214 -0.0039528 0)
(0.0336202 0.00380403 0)
(0.0270633 0.0138959 0)
(0.0188935 0.0197776 0)
(0.019128 0.00252536 0)
(0.0242872 -0.0151329 0)
(0.0300927 -0.0181709 0)
(0.0379079 -0.01152 0)
(0.037764 0.00760094 0)
(0.038141 0.0434639 0)
(0.00726942 -0.00824968 0)
(0.0137051 -0.0136459 0)
(0.0194802 -0.0124268 0)
(0.0240786 -0.00930634 0)
(0.0276656 -0.00588259 0)
(0.0299494 -0.00297589 0)
(0.031043 -0.00114322 0)
(0.0312733 -0.00083133 0)
(0.0306842 -0.00257975 0)
(0.0292842 -0.0035016 0)
(0.0267477 0.00559624 0)
(0.0227381 0.0161278 0)
(0.0215169 0.0195631 0)
(0.0252649 0.00128626 0)
(0.0270368 -0.0162377 0)
(0.0281727 -0.0203061 0)
(0.0321919 -0.0127774 0)
(0.0290209 0.00861966 0)
(0.0332673 0.0577775 0)
(0.00571754 -0.0121741 0)
(0.0134761 -0.0166358 0)
(0.0190447 -0.0145316 0)
(0.0229451 -0.0109321 0)
(0.0259664 -0.00703655 0)
(0.0278979 -0.00361986 0)
(0.0287308 -0.00135097 0)
(0.0286183 -0.000651283 0)
(0.0273496 -0.00191636 0)
(0.0242583 -0.00226976 0)
(0.0214926 0.00658915 0)
(0.0206621 0.016597 0)
(0.0237769 0.0178564 0)
(0.0283564 0.000371662 0)
(0.0273082 -0.0159009 0)
(0.0247044 -0.0208149 0)
(0.0256203 -0.0125809 0)
(0.0183802 0.00939953 0)
(0.026185 0.0688028 0)
(0.00547161 -0.0155401 0)
(0.0136772 -0.0197933 0)
(0.018678 -0.0164393 0)
(0.0218297 -0.0122969 0)
(0.0243099 -0.00800355 0)
(0.0259224 -0.00413846 0)
(0.0265554 -0.0014405 0)
(0.02624 -0.000295862 0)
(0.0246143 -0.000919037 0)
(0.0208371 -0.00062361 0)
(0.0180408 0.00692644 0)
(0.0193528 0.0156566 0)
(0.0249968 0.0154522 0)
(0.0290354 9.95169e-05 0)
(0.0255055 -0.0143237 0)
(0.0195063 -0.0198456 0)
(0.017833 -0.0108989 0)
(0.00547424 0.0103754 0)
(0.0147756 0.0761819 0)
(0.00954636 -0.0205654 0)
(0.0148668 -0.0226216 0)
(0.0184774 -0.0179293 0)
(0.0206707 -0.0133644 0)
(0.0225746 -0.00879209 0)
(0.0239246 -0.00456046 0)
(0.0244912 -0.00147015 0)
(0.024169 0.000131901 0)
(0.0225183 0.000179318 0)
(0.0189494 0.000965858 0)
(0.0164913 0.00701479 0)
(0.0187935 0.0139088 0)
(0.0249651 0.0130665 0)
(0.0276401 0.000573288 0)
(0.0221181 -0.0116922 0)
(0.0129387 -0.0174275 0)
(0.00861882 -0.00765733 0)
(-0.0079609 0.0127062 0)
(-0.000829527 0.0776859 0)
(0.0194325 -0.0286833 0)
(0.0168588 -0.0240089 0)
(0.0183272 -0.0186164 0)
(0.0193666 -0.0140341 0)
(0.0206305 -0.00939897 0)
(0.0217774 -0.00495165 0)
(0.0224522 -0.00154901 0)
(0.0223625 0.000507966 0)
(0.0209862 0.00117797 0)
(0.0180668 0.00224594 0)
(0.0162791 0.00695253 0)
(0.0187034 0.0120709 0)
(0.0239272 0.0112132 0)
(0.0249978 0.0017497 0)
(0.0179788 -0.00806635 0)
(0.0060053 -0.0134829 0)
(-0.00175697 -0.00329356 0)
(-0.019816 0.017396 0)
(-0.0173229 0.0717614 0)
(-0.0014978 0.0098341 0)
(-0.00421946 0.00979766 0)
(-0.00687192 0.00968463 0)
(-0.00930612 0.00939229 0)
(-0.0115007 0.00890459 0)
(-0.0134647 0.00820987 0)
(-0.0151902 0.0072112 0)
(-0.0166194 0.00582104 0)
(-0.0177024 0.00409932 0)
(-0.0184447 0.00216342 0)
(-0.0188794 0.000117443 0)
(-0.0190221 -0.00193777 0)
(-0.0188889 -0.00387345 0)
(-0.0185362 -0.00551788 0)
(-0.0179766 -0.00684691 0)
(-0.0170781 -0.00765797 0)
(-0.0154727 -0.00763295 0)
(-0.0124089 -0.00669484 0)
(-0.00757663 -0.00599641 0)
(-0.00190838 -0.00671977 0)
(0.00289436 -0.00866683 0)
(0.00623033 -0.00992816 0)
(0.00903129 -0.00919041 0)
(-0.00197823 0.0116205 0)
(-0.00445637 0.0128781 0)
(-0.00717201 0.012626 0)
(-0.00961779 0.012025 0)
(-0.0117799 0.011207 0)
(-0.0136115 0.0101749 0)
(-0.0150928 0.00883916 0)
(-0.0162236 0.00708732 0)
(-0.0170355 0.00501687 0)
(-0.0175936 0.0027841 0)
(-0.0179729 0.000466224 0)
(-0.0181831 -0.00186967 0)
(-0.0181995 -0.00409254 0)
(-0.0179373 -0.0060531 0)
(-0.0172753 -0.00780129 0)
(-0.0160545 -0.00925527 0)
(-0.0139978 -0.010261 0)
(-0.0106844 -0.0107903 0)
(-0.00599906 -0.0112795 0)
(-0.000553072 -0.0122019 0)
(0.00467019 -0.0134726 0)
(0.00931898 -0.0144 0)
(0.013914 -0.0149694 0)
(-0.00278564 0.0166767 0)
(-0.00377714 0.0157292 0)
(-0.0066981 0.0146714 0)
(-0.00956492 0.0136353 0)
(-0.0121168 0.012518 0)
(-0.0138919 0.011353 0)
(-0.0146064 0.00988281 0)
(-0.0147305 0.00789214 0)
(-0.0148915 0.00551497 0)
(-0.0150454 0.00313715 0)
(-0.0151673 0.000735445 0)
(-0.015336 -0.00169127 0)
(-0.0155289 -0.0040773 0)
(-0.0154158 -0.00628842 0)
(-0.0146959 -0.00836303 0)
(-0.0132666 -0.0103301 0)
(-0.0111283 -0.0120231 0)
(-0.00796889 -0.0134168 0)
(-0.00342545 -0.0145672 0)
(0.002008 -0.0157028 0)
(0.00739361 -0.0167208 0)
(0.0123666 -0.0174617 0)
(0.0166286 -0.0179494 0)
(-0.00908105 0.0143157 0)
(-0.0010673 0.0148819 0)
(-0.00535477 0.0146349 0)
(-0.0104475 0.0140067 0)
(-0.0155475 0.012933 0)
(-0.018854 0.0117149 0)
(-0.0172411 0.00932599 0)
(-0.0134857 0.00784455 0)
(-0.0126186 0.00557872 0)
(-0.0124818 0.00319392 0)
(-0.0119263 0.000742881 0)
(-0.0116521 -0.00124851 0)
(-0.0118939 -0.00376518 0)
(-0.0116143 -0.00624642 0)
(-0.0104641 -0.00865531 0)
(-0.00778728 -0.0112792 0)
(-0.00541901 -0.0126336 0)
(-0.00376351 -0.0145679 0)
(-0.000341532 -0.0163993 0)
(0.00437888 -0.0179069 0)
(0.00915325 -0.0189361 0)
(0.014646 -0.0196494 0)
(0.0167866 -0.0189521 0)
(-0.0107905 0.0289079 0)
(-0.00926328 0.0172044 0)
(-0.0172709 0.0291915 0)
(-0.0371015 0.0333623 0)
(-0.0518067 0.025324 0)
(-0.0529489 0.0156553 0)
(-0.0404122 -0.00236522 0)
(-0.0296118 0.0019239 0)
(-0.0223466 0.00302038 0)
(-0.0168881 0.00138595 0)
(-0.0112456 -0.00141669 0)
(-0.00485795 -0.00222564 0)
(0.0010097 -0.00521771 0)
(0.00504663 -0.00922004 0)
(0.00771691 -0.0146244 0)
(0.00886344 -0.0205497 0)
(0.0117047 -0.0212852 0)
(0.016834 -0.0258001 0)
(0.0225742 -0.0338558 0)
(0.0257901 -0.0344634 0)
(0.0239517 -0.0361417 0)
(0.0204197 -0.0360646 0)
(0.00883136 -0.0170129 0)
(-0.00560747 0.0375043 0)
(-0.00582162 0.0169123 0)
(-0.00728647 0.0377738 0)
(-0.00942774 0.0446416 0)
(-0.00892311 0.0274749 0)
(-0.00599992 0.00942628 0)
(-0.00705478 -0.0138297 0)
(-0.011506 -0.00493309 0)
(-0.0121209 -0.00347047 0)
(-0.0105566 -0.00523764 0)
(-0.0070137 -0.00880684 0)
(-0.0017484 -0.0109003 0)
(0.00363096 -0.0111286 0)
(0.00660728 -0.0108593 0)
(0.00526136 -0.0109233 0)
(-0.00490791 -0.0132746 0)
(-0.00887772 -0.0218745 0)
(-0.00213156 -0.0261488 0)
(0.00517034 -0.0306711 0)
(0.00961758 -0.0216964 0)
(0.00613285 -0.0159912 0)
(-0.00631913 -0.0146723 0)
(-0.013053 0.0066073 0)
(0.00964336 0.0355469 0)
(0.00647694 0.0170913 0)
(0.00618447 0.0354353 0)
(0.0152865 0.0387471 0)
(0.0226537 0.0228789 0)
(0.0244828 0.00879334 0)
(0.0161322 -0.0033102 0)
(0.00551957 0.00376173 0)
(0.0010433 0.000474765 0)
(-0.00231569 -0.0054056 0)
(-0.00417815 -0.0114132 0)
(-0.00546856 -0.0147864 0)
(-0.00642901 -0.0142467 0)
(-0.007822 -0.0112132 0)
(-0.00937552 -0.00584913 0)
(-0.010909 -0.00482907 0)
(-0.0141243 -0.0215392 0)
(-0.0178679 -0.029794 0)
(-0.0202593 -0.0349626 0)
(-0.02129 -0.0246725 0)
(-0.0213419 -0.0111497 0)
(-0.0238179 -0.00887992 0)
(-0.0115246 -0.0104593 0)
(0.00811469 0.0244144 0)
(0.00985015 0.0182705 0)
(0.0105721 0.0291678 0)
(0.0190981 0.0288515 0)
(0.0232421 0.0190718 0)
(0.0216596 0.0123762 0)
(0.0158063 0.00948593 0)
(0.0101836 0.00926216 0)
(0.00699818 0.00561988 0)
(0.00360826 -0.000984044 0)
(-0.000351983 -0.00738513 0)
(-0.00461838 -0.0110599 0)
(-0.00846293 -0.0111671 0)
(-0.0114782 -0.00853009 0)
(-0.0131829 -0.00501503 0)
(-0.0138366 -0.00606446 0)
(-0.0167427 -0.0156697 0)
(-0.0215188 -0.0266192 0)
(-0.0248542 -0.0318339 0)
(-0.0256488 -0.026351 0)
(-0.0226178 -0.0152855 0)
(-0.0156506 -0.0161306 0)
(-0.00451875 -0.0262741 0)
(0.00310056 0.0167704 0)
(0.0072074 0.0180867 0)
(0.0105104 0.0230776 0)
(0.0163745 0.0228446 0)
(0.0191883 0.018974 0)
(0.0184186 0.0155898 0)
(0.0152961 0.0129782 0)
(0.0122199 0.0115793 0)
(0.0100807 0.00812164 0)
(0.00732902 0.00279676 0)
(0.00349537 -0.00236977 0)
(-0.00096723 -0.00579943 0)
(-0.00516169 -0.00682102 0)
(-0.00831387 -0.00576622 0)
(-0.00977308 -0.00427037 0)
(-0.00970588 -0.00576958 0)
(-0.0101696 -0.0121091 0)
(-0.0130389 -0.0217826 0)
(-0.0173983 -0.0284438 0)
(-0.0196904 -0.0270558 0)
(-0.016447 -0.0217634 0)
(-0.00997807 -0.0240906 0)
(-0.00633315 -0.0314244 0)
(0.0023449 0.0121112 0)
(0.00538555 0.0150526 0)
(0.00863821 0.0186362 0)
(0.0124723 0.019536 0)
(0.0145649 0.0183535 0)
(0.0146484 0.0167195 0)
(0.0134393 0.0149679 0)
(0.0120267 0.0131942 0)
(0.0107095 0.0100186 0)
(0.00872145 0.00570711 0)
(0.00574575 0.00149691 0)
(0.00209627 -0.00165059 0)
(-0.00151786 -0.00323951 0)
(-0.0042746 -0.00348964 0)
(-0.00550749 -0.00369052 0)
(-0.0054298 -0.00597849 0)
(-0.00545937 -0.0113074 0)
(-0.00702727 -0.0186611 0)
(-0.0101793 -0.0249027 0)
(-0.0127175 -0.026485 0)
(-0.0122267 -0.0254305 0)
(-0.0105334 -0.0270553 0)
(-0.0118735 -0.0293115 0)
(0.00199275 0.00850083 0)
(0.003986 0.0124668 0)
(0.00625269 0.015586 0)
(0.00862764 0.0171287 0)
(0.0101684 0.0173139 0)
(0.0107072 0.0167873 0)
(0.0105388 0.0157135 0)
(0.0100879 0.0140367 0)
(0.00942409 0.0112602 0)
(0.00814256 0.00776467 0)
(0.00604706 0.00433458 0)
(0.00335405 0.00154583 0)
(0.000593252 -0.000376236 0)
(-0.00155008 -0.00164155 0)
(-0.00261953 -0.00310501 0)
(-0.00285877 -0.00596908 0)
(-0.00321569 -0.0107155 0)
(-0.00466188 -0.01663 0)
(-0.00727747 -0.0219811 0)
(-0.00984194 -0.0247528 0)
(-0.0112068 -0.0254436 0)
(-0.01237 -0.0259455 0)
(-0.0153241 -0.0253558 0)
(0.00121815 0.00609352 0)
(0.00240742 0.0107641 0)
(0.003733 0.0137422 0)
(0.00512238 0.0155444 0)
(0.00620209 0.0163437 0)
(0.00685554 0.0163854 0)
(0.00715441 0.0157218 0)
(0.00721418 0.0142815 0)
(0.00697563 0.0119352 0)
(0.00618533 0.00912753 0)
(0.00475952 0.00632104 0)
(0.00290508 0.00383914 0)
(0.00101173 0.00170778 0)
(-0.000512122 -0.000216197 0)
(-0.00143426 -0.0024207 0)
(-0.00194781 -0.00553279 0)
(-0.00265484 -0.0097662 0)
(-0.00416849 -0.0146748 0)
(-0.00657564 -0.0193462 0)
(-0.00927029 -0.0223482 0)
(-0.0116772 -0.023454 0)
(-0.0141595 -0.0232849 0)
(-0.0174843 -0.0216205 0)
(0.000324829 0.00500251 0)
(0.000782551 0.00988905 0)
(0.00135224 0.0127775 0)
(0.00204373 0.014608 0)
(0.00271338 0.0155978 0)
(0.00327702 0.01586 0)
(0.0037101 0.0154102 0)
(0.00397873 0.0142039 0)
(0.00394745 0.0122765 0)
(0.00347328 0.00999878 0)
(0.00257108 0.00763478 0)
(0.00140418 0.00533695 0)
(0.000198978 0.00309768 0)
(-0.000838603 0.000838285 0)
(-0.00160446 -0.00170239 0)
(-0.00224523 -0.00482911 0)
(-0.00312938 -0.00860278 0)
(-0.00463609 -0.0127384 0)
(-0.00692362 -0.0167413 0)
(-0.00971987 -0.0195476 0)
(-0.0126101 -0.0206609 0)
(-0.0156112 -0.0201765 0)
(-0.0188463 -0.0182296 0)
(-0.000438997 0.00505685 0)
(-0.000671143 0.00975321 0)
(-0.000730173 0.0124695 0)
(-0.000578687 0.0141737 0)
(-0.000283082 0.0151249 0)
(8.52035e-05 0.0154088 0)
(0.00045928 0.015041 0)
(0.000744299 0.0140182 0)
(0.000809857 0.0124303 0)
(0.000576863 0.0105072 0)
(7.7745e-05 0.00841826 0)
(-0.000592526 0.0062405 0)
(-0.00132131 0.0039848 0)
(-0.0020104 0.00160531 0)
(-0.00263127 -0.00102486 0)
(-0.00329552 -0.00403092 0)
(-0.00423092 -0.00739258 0)
(-0.00567669 -0.0108965 0)
(-0.00780309 -0.0141924 0)
(-0.0105147 -0.0166152 0)
(-0.013495 -0.0176067 0)
(-0.0165432 -0.0170365 0)
(-0.0194665 -0.0152742 0)
(-0.00102488 0.0060543 0)
(-0.00187069 0.0102791 0)
(-0.00245877 0.0126946 0)
(-0.00274373 0.0141571 0)
(-0.00278054 0.014939 0)
(-0.0026421 0.0151283 0)
(-0.00241174 0.0147505 0)
(-0.0021896 0.0138312 0)
(-0.00207949 0.0124513 0)
(-0.00214013 0.0107455 0)
(-0.00236417 0.0088256 0)
(-0.00270813 0.0067493 0)
(-0.00312255 0.00453305 0)
(-0.0035732 0.00215948 0)
(-0.00407231 -0.000418561 0)
(-0.00470912 -0.0032297 0)
(-0.00563334 -0.00621191 0)
(-0.00699925 -0.00918376 0)
(-0.00891297 -0.0118549 0)
(-0.0113549 -0.0138195 0)
(-0.0141218 -0.0146383 0)
(-0.016891 -0.0141694 0)
(-0.0193955 -0.0127671 0)
(-0.00146234 0.00779823 0)
(-0.00280773 0.0113694 0)
(-0.00382679 0.01336 0)
(-0.00446442 0.0144915 0)
(-0.00478468 0.0150228 0)
(-0.00486405 0.0150414 0)
(-0.00478897 0.0145825 0)
(-0.0046511 0.0136792 0)
(-0.00453594 0.0123921 0)
(-0.00449754 0.0108058 0)
(-0.00455061 0.00899472 0)
(-0.00468814 0.00700497 0)
(-0.00490051 0.00485854 0)
(-0.00519028 0.00256077 0)
(-0.00558908 0.000110653 0)
(-0.00616987 -0.00247018 0)
(-0.00703474 -0.00510048 0)
(-0.00828213 -0.00762251 0)
(-0.00997157 -0.00980665 0)
(-0.0120733 -0.0113662 0)
(-0.0144223 -0.0120305 0)
(-0.0167561 -0.0117278 0)
(-0.0188477 -0.0106697 0)
(-0.00177623 0.0101004 0)
(-0.00350214 0.0129048 0)
(-0.00485468 0.0143775 0)
(-0.0057686 0.0151118 0)
(-0.0063176 0.0153363 0)
(-0.00658065 0.0151318 0)
(-0.00664342 0.0145348 0)
(-0.00658926 0.0135769 0)
(-0.00649258 0.0123021 0)
(-0.00640695 0.0107662 0)
(-0.00636242 0.0090205 0)
(-0.00637546 0.00710285 0)
(-0.00646072 0.00503941 0)
(-0.00664062 0.0028507 0)
(-0.00695412 0.000561075 0)
(-0.0074605 -0.00178394 0)
(-0.00822975 -0.00409853 0)
(-0.00932148 -0.00624844 0)
(-0.01076 -0.00805719 0)
(-0.0125031 -0.00932597 0)
(-0.0144183 -0.00989188 0)
(-0.0163105 -0.00972223 0)
(-0.0180056 -0.00894838 0)
(-0.00199687 0.0128012 0)
(-0.0039912 0.0147655 0)
(-0.00558076 0.01566 0)
(-0.00669608 0.015952 0)
(-0.0074162 0.0158313 0)
(-0.00782063 0.0153667 0)
(-0.00799343 0.0145901 0)
(-0.0080118 0.0135276 0)
(-0.00794354 0.0122109 0)
(-0.00784237 0.0106779 0)
(-0.00774744 0.00896534 0)
(-0.00768891 0.00710528 0)
(-0.00769489 0.00512581 0)
(-0.00779721 0.00305575 0)
(-0.00803545 0.00093155 0)
(-0.00845697 -0.00119269 0)
(-0.00910925 -0.0032357 0)
(-0.0100257 -0.00508668 0)
(-0.0112087 -0.00661298 0)
(-0.012612 -0.00767915 0)
(-0.014131 -0.00818619 0)
(-0.0156237 -0.00812141 0)
(-0.0169604 -0.00757358 0)
(-0.00214364 0.0157734 0)
(-0.00430499 0.0168428 0)
(-0.00604363 0.0171236 0)
(-0.00728891 0.016946 0)
(-0.00812296 0.0164567 0)
(-0.00862538 0.0157087 0)
(-0.00887799 0.0147257 0)
(-0.0089532 0.0135265 0)
(-0.00891433 0.0121328 0)
(-0.00881455 0.0105708 0)
(-0.00869736 0.00886783 0)
(-0.00859969 0.0070512 0)
(-0.00855592 0.00514884 0)
(-0.0086009 0.00319257 0)
(-0.00877144 0.00122261 0)
(-0.00910479 -0.000707029 0)
(-0.0096327 -0.00252443 0)
(-0.0103719 -0.00414066 0)
(-0.0113132 -0.00545747 0)
(-0.0124123 -0.00638296 0)
(-0.0135878 -0.00685665 0)
(-0.0147359 -0.00687665 0)
(-0.0157608 -0.00650681 0)
(-0.0022162 0.0189046 0)
(-0.00445864 0.0190436 0)
(-0.00627161 0.0186917 0)
(-0.00758187 0.0180311 0)
(-0.00847748 0.0171637 0)
(-0.00903797 0.0161218 0)
(-0.009342 0.0149182 0)
(-0.00945759 0.0135638 0)
(-0.00944418 0.0120721 0)
(-0.00935334 0.0104608 0)
(-0.00922952 0.00875042 0)
(-0.00911188 0.00696399 0)
(-0.00903641 0.00512756 0)
(-0.00903734 0.00327238 0)
(-0.00914721 0.00143743 0)
(-0.00939503 -0.00032796 0)
(-0.00980179 -0.00196303 0)
(-0.0103742 -0.00339794 0)
(-0.0110982 -0.0045607 0)
(-0.0119347 -0.00538894 0)
(-0.0128203 -0.00584594 0)
(-0.0136785 -0.00593575 0)
(-0.0144382 -0.00570656 0)
(-0.00221323 0.0220906 0)
(-0.00446384 0.0212903 0)
(-0.00628334 0.0202947 0)
(-0.00760072 0.0191521 0)
(-0.00851368 0.0179095 0)
(-0.00909846 0.016574 0)
(-0.00942952 0.0151462 0)
(-0.00957044 0.0136287 0)
(-0.0095767 0.0120282 0)
(-0.00949717 0.0103555 0)
(-0.00937502 0.00862573 0)
(-0.00924871 0.00685763 0)
(-0.00915304 0.00507426 0)
(-0.00911964 0.00330402 0)
(-0.00917645 0.00158195 0)
(-0.00934592 -4.94107e-05 0)
(-0.00964185 -0.00154043 0)
(-0.0100654 -0.00283731 0)
(-0.0106013 -0.00388774 0)
(-0.0112164 -0.00464957 0)
(-0.0118617 -0.00510103 0)
(-0.01248 -0.00524944 0)
(-0.0130182 -0.0051327 0)
(-0.00212152 0.0252221 0)
(-0.00431328 0.0235129 0)
(-0.00608499 0.0218746 0)
(-0.00736615 0.020265 0)
(-0.00826193 0.0186596 0)
(-0.00884396 0.0170391 0)
(-0.00918225 0.0153915 0)
(-0.00933582 0.0137113 0)
(-0.00935587 0.0119984 0)
(-0.00928774 0.0102582 0)
(-0.00917176 0.00850092 0)
(-0.0090439 0.00674104 0)
(-0.0089362 0.00499789 0)
(-0.00887678 0.00329581 0)
(-0.00888913 0.00166463 0)
(-0.00899059 0.00013954 0)
(-0.00919021 -0.00124008 0)
(-0.00948625 -0.00243347 0)
(-0.00986431 -0.00340311 0)
(-0.010297 -0.00412081 0)
(-0.0107462 -0.00457448 0)
(-0.0111688 -0.00477323 0)
(-0.0115245 -0.00474801 0)
(-0.00197136 0.0281896 0)
(-0.00402502 0.0256381 0)
(-0.00569573 0.0233872 0)
(-0.00690531 0.0213348 0)
(-0.00775441 0.0193861 0)
(-0.00831107 0.0174961 0)
(-0.00864039 0.0156396 0)
(-0.00879629 0.0138028 0)
(-0.0088251 0.0119797 0)
(-0.0087678 0.0101704 0)
(-0.00866087 0.00838058 0)
(-0.0085367 0.00662074 0)
(-0.00842376 0.00490605 0)
(-0.00834632 0.00325634 0)
(-0.00832379 0.00169587 0)
(-0.00836955 0.000252721 0)
(-0.00848951 -0.00104268 0)
(-0.00868066 -0.00216005 0)
(-0.00893016 -0.00307291 0)
(-0.00921572 -0.00376297 0)
(-0.0095077 -0.00422454 0)
(-0.00977313 -0.00446776 0)
(-0.00998129 -0.00451868 0)
(-0.00178803 0.0309136 0)
(-0.00363955 0.0275953 0)
(-0.00515486 0.0247893 0)
(-0.00625307 0.0223282 0)
(-0.00702608 0.0200639 0)
(-0.0075369 0.0179267 0)
(-0.00784366 0.0158783 0)
(-0.00799366 0.0138965 0)
(-0.00802735 0.0119695 0)
(-0.00798053 0.0100929 0)
(-0.0078851 0.00826839 0)
(-0.00776927 0.00650239 0)
(-0.0076575 0.00480608 0)
(-0.00757019 0.00319474 0)
(-0.0075231 0.00168731 0)
(-0.00752649 0.000305402 0)
(-0.00758417 -0.00092809 0)
(-0.00769268 -0.00199124 0)
(-0.00784098 -0.00286587 0)
(-0.00801109 -0.00354078 0)
(-0.00817981 -0.00401471 0)
(-0.0083217 -0.00429836 0)
(-0.00841303 -0.00441428 0)
(-0.00157596 0.0333421 0)
(-0.00318173 0.0293306 0)
(-0.0044951 0.0260337 0)
(-0.00544211 0.0232101 0)
(-0.00611104 0.0206687 0)
(-0.00655821 0.0183153 0)
(-0.00683153 0.0160979 0)
(-0.00696952 0.013987 0)
(-0.00700554 0.0119662 0)
(-0.00696951 0.0100271 0)
(-0.00688822 0.00816792 0)
(-0.00678533 0.00639155 0)
(-0.00668116 0.00470541 0)
(-0.00659236 0.00312059 0)
(-0.00653142 0.0016512 0)
(-0.00650604 0.00031329 0)
(-0.00651856 -0.000876481 0)
(-0.00656553 -0.00190275 0)
(-0.00663763 -0.00275366 0)
(-0.00672037 -0.00342317 0)
(-0.00679549 -0.00391314 0)
(-0.00684317 -0.00423462 0)
(-0.00684491 -0.0044076 0)
(-0.00134487 0.0354333 0)
(-0.00266967 0.030802 0)
(-0.00374012 0.0270761 0)
(-0.00449987 0.0239471 0)
(-0.00504091 0.0211796 0)
(-0.00541104 0.0186492 0)
(-0.00564354 0.0162912 0)
(-0.00576574 0.0140711 0)
(-0.00580296 0.0119692 0)
(-0.00577877 0.00997477 0)
(-0.00571461 0.00808296 0)
(-0.00562944 0.00629388 0)
(-0.00553942 0.00461162 0)
(-0.00545758 0.00304363 0)
(-0.00539345 0.00159985 0)
(-0.00535261 0.000291748 0)
(-0.0053363 -0.000869061 0)
(-0.00534121 -0.00187234 0)
(-0.00535957 -0.00271101 0)
(-0.00537968 -0.00338288 0)
(-0.0053871 -0.00389207 0)
(-0.00536624 -0.00424985 0)
(-0.00530248 -0.00447434 0)
(-0.00110489 0.0371559 0)
(-0.0021173 0.0319735 0)
(-0.00290867 0.027875 0)
(-0.00344982 0.0245095 0)
(-0.00384586 0.0215813 0)
(-0.00413184 0.0189207 0)
(-0.00432005 0.0164543 0)
(-0.00442484 0.0141471 0)
(-0.00446328 0.0119791 0)
(-0.00445264 0.00993817 0)
(-0.00440895 0.0080176 0)
(-0.00434643 0.00621517 0)
(-0.00427712 0.0045323 0)
(-0.00421058 0.00297344 0)
(-0.00415359 0.00154518 0)
(-0.00410988 0.000255294 0)
(-0.00407981 -0.000888517 0)
(-0.0040603 -0.00187996 0)
(-0.00404485 -0.00271558 0)
(-0.00402404 -0.00339607 0)
(-0.00398636 -0.00392725 0)
(-0.00391942 -0.0043206 0)
(-0.00381151 -0.00459283 0)
(-0.000848535 0.0384899 0)
(-0.00152039 0.0328178 0)
(-0.00200908 0.0283952 0)
(-0.00231258 0.0248745 0)
(-0.00255794 0.0218675 0)
(-0.00275971 0.0191275 0)
(-0.00290305 0.0165859 0)
(-0.00298991 0.014215 0)
(-0.00303023 0.0119971 0)
(-0.00303524 0.00992008 0)
(-0.00301561 0.0079761 0)
(-0.00298078 0.00616123 0)
(-0.00293868 0.00447488 0)
(-0.00289547 0.00291923 0)
(-0.00285537 0.00149836 0)
(-0.0028204 0.000217274 0)
(-0.0027902 -0.000919242 0)
(-0.0027619 -0.00190784 0)
(-0.00273014 -0.0027478 0)
(-0.00268731 -0.003442 0)
(-0.00262419 -0.0039976 0)
(-0.0025308 -0.00442626 0)
(-0.00239765 -0.00474372 0)
(-0.00048927 0.0393905 0)
(-0.000794679 0.0333202 0)
(-0.0010146 0.0286482 0)
(-0.00111854 0.0250503 0)
(-0.0012254 0.0220369 0)
(-0.00133962 0.0192682 0)
(-0.00143537 0.0166846 0)
(-0.00150321 0.0142745 0)
(-0.00154621 0.0120245 0)
(-0.00156942 0.00992345 0)
(-0.00157785 0.00796287 0)
(-0.00157596 0.00613784 0)
(-0.00156749 0.00444652 0)
(-0.00155526 0.00288964 0)
(-0.00154103 0.00146963 0)
(-0.00152526 0.000189679 0)
(-0.00150697 -0.000947445 0)
(-0.00148354 -0.00194048 0)
(-0.00145057 -0.0027907 0)
(-0.00140203 -0.00350269 0)
(-0.00133047 -0.00408472 0)
(-0.00122778 -0.00454874 0)
(-0.00108604 -0.0049098 0)
(3.68618e-05 0.0397068 0)
(9.6282e-05 0.0334854 0)
(8.24069e-05 0.028697 0)
(0.000120824 0.0250827 0)
(0.000122959 0.0220969 0)
(9.3063e-05 0.0193404 0)
(4.71471e-05 0.0167483 0)
(-1.86357e-06 0.0143256 0)
(-5.00069e-05 0.0120635 0)
(-9.53658e-05 0.00995192 0)
(-0.000136806 0.00798278 0)
(-0.000173603 0.00615093 0)
(-0.000205252 0.00445418 0)
(-0.000231284 0.0028927 0)
(-0.000251094 0.00146824 0)
(-0.000263748 0.000183064 0)
(-0.000267757 -0.000961177 0)
(-0.000260808 -0.00196454 0)
(-0.000239491 -0.00282973 0)
(-0.000199105 -0.00356269 0)
(-0.000133698 -0.00417274 0)
(-3.6529e-05 -0.00467223 0)
(9.92096e-05 -0.00507583 0)
(0.000637214 0.0392354 0)
(0.00106562 0.0333496 0)
(0.00124767 0.0285847 0)
(0.00140147 0.025015 0)
(0.00148626 0.0220692 0)
(0.00152475 0.0193478 0)
(0.00152168 0.0167794 0)
(0.00148477 0.014372 0)
(0.00142457 0.0121187 0)
(0.00135024 0.0100109 0)
(0.00126911 0.00804174 0)
(0.00118703 0.00620685 0)
(0.00110858 0.00450468 0)
(0.00103737 0.00293585 0)
(0.000976161 0.00150237 0)
(0.00092714 0.000206511 0)
(0.000892128 -0.000950334 0)
(0.000872968 -0.00196883 0)
(0.000872015 -0.00285263 0)
(0.000892655 -0.0036089 0)
(0.000939596 -0.00424803 0)
(0.00101859 -0.00478303 0)
(0.00113576 -0.00522849 0)
(0.00118556 0.0380169 0)
(0.00202019 0.0328633 0)
(0.00243064 0.0283132 0)
(0.00269792 0.0248608 0)
(0.0028595 0.0219712 0)
(0.00295124 0.0193046 0)
(0.00297233 0.0167902 0)
(0.00293194 0.0144242 0)
(0.00284718 0.0121993 0)
(0.00273369 0.0101086 0)
(0.00260433 0.00814717 0)
(0.00246949 0.00631256 0)
(0.0023374 0.00460483 0)
(0.00221445 0.00302597 0)
(0.00210535 0.00157917 0)
(0.0020133 0.000267628 0)
(0.00194026 -0.000906648 0)
(0.00188736 -0.00194424 0)
(0.00185569 -0.00284939 0)
(0.0018472 -0.00363042 0)
(0.00186552 -0.00429913 0)
(0.00191576 -0.00486951 0)
(0.00200382 -0.00535637 0)
(0.00161666 0.0361387 0)
(0.00288301 0.0319807 0)
(0.00357564 0.0278543 0)
(0.00399557 0.0246028 0)
(0.00423873 0.0218112 0)
(0.00436117 0.019234 0)
(0.00437939 0.016802 0)
(0.00431394 0.0144995 0)
(0.0041883 0.0123188 0)
(0.00402324 0.0102556 0)
(0.00383597 0.00830772 0)
(0.00364052 0.00647546 0)
(0.0034481 0.00476126 0)
(0.00326741 0.00316928 0)
(0.0031048 0.00170469 0)
(0.00296432 0.000372548 0)
(0.00284785 -0.000823683 0)
(0.00275556 -0.00188376 0)
(0.00268685 -0.00281213 0)
(0.00264199 -0.00361852 0)
(0.00262359 -0.00431667 0)
(0.00263656 -0.00492208 0)
(0.00268705 -0.00545008 0)
(0.00198804 0.0336852 0)
(0.00369254 0.0306961 0)
(0.00469138 0.0271574 0)
(0.00528557 0.0242172 0)
(0.00559913 0.021604 0)
(0.00572466 0.0191633 0)
(0.00571326 0.0168397 0)
(0.00560097 0.0146176 0)
(0.00541782 0.0124923 0)
(0.0051888 0.0104633 0)
(0.00493432 0.00853225 0)
(0.00467099 0.00670274 0)
(0.0044122 0.00498011 0)
(0.0041685 0.00337124 0)
(0.00394763 0.00188396 0)
(0.00375442 0.000525984 0)
(0.00359063 -0.000696789 0)
(0.00345516 -0.00178241 0)
(0.00334518 -0.00273511 0)
(0.00325873 -0.0035665 0)
(0.0031975 -0.00429331 0)
(0.00316675 -0.00493325 0)
(0.00317344 -0.00550244 0)