/*--------------------------------*- C++ -*----------------------------------*\
  =========                 |
  \\      /  F ield         | OpenFOAM: The Open Source CFD Toolbox
   \\    /   O peration     | Website:  https://openfoam.org
    \\  /    A nd           | Version:  9
     \\/     M anipulation  |
\*---------------------------------------------------------------------------*/
FoamFile
{
    format      ascii;
    class       surfaceScalarField;
    location    "0.37";
    object      alphaPhi0.water;
}
// * * * * * * * * * * * * * * * * * * * * * * * * * * * * * * * * * * * * * //

dimensions      [0 3 -1 0 0 0 0];

internalField   nonuniform List<scalar> 
4432
(
-5.47288e-06
5.47288e-06
-6.56041e-06
1.08753e-06
-4.06707e-06
-2.49334e-06
-4.48914e-08
-4.02218e-06
4.46573e-06
-4.51062e-06
9.15115e-06
-4.68542e-06
1.3795e-05
-4.64381e-06
1.83075e-05
-4.51253e-06
2.26414e-05
-4.3339e-06
2.67549e-05
-4.11348e-06
3.05963e-05
-3.84145e-06
3.40935e-05
-3.49714e-06
3.71406e-05
-3.04709e-06
3.95726e-05
-2.43203e-06
4.11285e-05
-1.55595e-06
4.12772e-05
-1.48631e-07
3.91074e-05
2.16979e-06
3.38699e-05
5.23745e-06
2.4914e-05
8.95596e-06
1.24036e-05
1.25103e-05
-2.25463e-06
1.47425e-05
-1.11006e-05
8.76642e-06
-1.1179e-05
-3.55658e-06
9.02945e-06
-2.67677e-06
2.07722e-07
1.67327e-07
-5.33743e-06
3.99319e-06
-7.84804e-06
8.35836e-06
-8.87579e-06
1.28504e-05
-9.17749e-06
1.7315e-05
-9.10835e-06
2.16632e-05
-8.86074e-06
2.58387e-05
-8.50944e-06
2.97932e-05
-8.06801e-06
3.3471e-05
-7.51921e-06
3.67978e-05
-6.82396e-06
3.96694e-05
-5.91863e-06
4.19385e-05
-4.70119e-06
4.34011e-05
-3.01849e-06
4.38517e-05
-5.99247e-07
4.30386e-05
2.98286e-06
4.02222e-05
8.05389e-06
3.43976e-05
1.47805e-05
2.46583e-05
2.22496e-05
1.161e-05
2.77907e-05
6.9463e-07
2.00214e-05
-1.10172e-05
-1.44226e-06
1.04717e-05
1.66853e-07
-1.40139e-06
3.10451e-06
-8.27509e-06
6.88841e-06
-1.16319e-05
1.10568e-05
-1.30442e-05
1.53343e-05
-1.3455e-05
1.95828e-05
-1.33568e-05
2.37217e-05
-1.29997e-05
2.76956e-05
-1.24833e-05
3.14545e-05
-1.18269e-05
3.49416e-05
-1.10063e-05
3.80839e-05
-9.96621e-06
4.07823e-05
-8.61701e-06
4.29032e-05
-6.82211e-06
4.42677e-05
-4.38305e-06
4.46781e-05
-1.00958e-06
4.39354e-05
3.72551e-06
4.17095e-05
1.02798e-05
3.75237e-05
1.89664e-05
3.07208e-05
2.90526e-05
2.09723e-05
3.75392e-05
9.4384e-06
3.17718e-05
-1.53375e-06
3.61979e-07
1.01097e-05
2.41016e-06
-3.44957e-06
5.56782e-06
-1.14327e-05
9.32172e-06
-1.53858e-05
1.33387e-05
-1.70611e-05
1.74182e-05
-1.75346e-05
2.14549e-05
-1.73935e-05
2.53839e-05
-1.69286e-05
2.9155e-05
-1.62545e-05
3.27201e-05
-1.5392e-05
3.60232e-05
-1.43094e-05
3.8994e-05
-1.29371e-05
4.15406e-05
-1.11636e-05
4.35426e-05
-8.82415e-06
4.48486e-05
-5.68906e-06
4.52912e-05
-1.45217e-06
4.47109e-05
4.30589e-06
4.29308e-05
1.20599e-05
3.97293e-05
2.21679e-05
3.46887e-05
3.40932e-05
2.71074e-05
4.51204e-05
1.5807e-05
4.30703e-05
1.42131e-05
1.68132e-06
8.42842e-06
4.27466e-06
-6.04291e-06
7.68029e-06
-1.48384e-05
1.14601e-05
-1.91656e-05
1.5364e-05
-2.0965e-05
1.92644e-05
-2.1435e-05
2.30977e-05
-2.12269e-05
2.68207e-05
-2.06516e-05
3.03926e-05
-1.98264e-05
3.37688e-05
-1.87682e-05
3.68963e-05
-1.74369e-05
3.9709e-05
-1.57498e-05
4.21233e-05
-1.35779e-05
4.40336e-05
-1.07344e-05
4.53135e-05
-6.96898e-06
4.58299e-05
-1.96857e-06
4.54694e-05
4.66635e-06
4.41383e-05
1.33909e-05
4.17314e-05
2.45749e-05
3.79328e-05
3.78918e-05
3.18596e-05
5.11936e-05
2.08698e-05
5.406e-05
3.50229e-05
2.53658e-06
5.89184e-06
5.7906e-06
-9.29693e-06
9.51346e-06
-1.85612e-05
1.33624e-05
-2.30146e-05
1.71777e-05
-2.47803e-05
2.09104e-05
-2.51677e-05
2.45464e-05
-2.48628e-05
2.80678e-05
-2.4173e-05
3.14453e-05
-2.32039e-05
3.4639e-05
-2.19619e-05
3.75996e-05
-2.03975e-05
4.02667e-05
-1.84169e-05
4.25662e-05
-1.58773e-05
4.44075e-05
-1.25758e-05
4.56877e-05
-8.24913e-06
4.63071e-05
-2.58793e-06
4.61977e-05
4.77576e-06
4.53289e-05
1.42597e-05
4.36729e-05
2.62308e-05
4.09775e-05
4.05871e-05
3.62687e-05
5.59024e-05
2.58092e-05
6.45195e-05
6.077e-05
3.12834e-06
2.76351e-06
7.05381e-06
-1.32224e-05
1.11358e-05
-2.26432e-05
1.50732e-05
-2.6952e-05
1.88035e-05
-2.85106e-05
2.23677e-05
-2.87318e-05
2.58071e-05
-2.83022e-05
2.91302e-05
-2.74961e-05
3.23181e-05
-2.63918e-05
3.53359e-05
-2.49797e-05
3.81382e-05
-2.31997e-05
4.06709e-05
-2.09497e-05
4.28704e-05
-1.80768e-05
4.46615e-05
-1.43669e-05
4.59625e-05
-9.55011e-06
4.67052e-05
-3.33064e-06
4.68653e-05
4.61567e-06
4.64729e-05
1.46521e-05
4.55833e-05
2.71204e-05
4.40523e-05
4.2118e-05
4.10197e-05
5.8935e-05
3.16567e-05
7.38825e-05
9.23659e-05
3.60209e-06
-8.38586e-07
8.18369e-06
-1.7804e-05
1.263e-05
-2.70895e-05
1.66382e-05
-3.09602e-05
2.026e-05
-3.21325e-05
2.36412e-05
-3.2113e-05
2.68802e-05
-3.15412e-05
3.00078e-05
-3.06237e-05
3.30121e-05
-2.93961e-05
3.58611e-05
-2.78287e-05
3.85134e-05
-2.5852e-05
4.09217e-05
-2.3358e-05
4.30335e-05
-2.01886e-05
4.47886e-05
-1.6122e-05
4.61251e-05
-1.08866e-05
4.70028e-05
-4.2083e-06
4.74388e-05
4.17969e-06
4.75258e-05
1.45651e-05
4.74252e-05
2.7221e-05
4.7202e-05
4.23412e-05
4.6363e-05
5.97741e-05
3.92593e-05
8.09862e-05
0.000131567
-4.2431e-27
6.87369e-29
-6.08501e-26
1.89832e-26
-5.0988e-24
8.82563e-25
-2.1185e-22
1.19803e-23
-4.76e-21
-2.35226e-22
-4.07471e-20
-1.17263e-20
-1.17021e-19
-9.6418e-20
-1.75114e-20
-1.05224e-18
1.74517e-20
-4.12125e-19
7.16914e-21
-5.10485e-20
1.08359e-21
-4.39329e-21
1.31695e-22
-2.49893e-22
5.76854e-24
-2.82276e-23
4.82772e-26
2.81255e-26
2.16345e-27
3.49347e-27
4.97481e-29
2.1995e-28
6.84513e-31
7.73604e-30
2.05968e-31
1.38397e-31
4.17101e-33
-3.48878e-26
2.42435e-26
-9.58493e-24
9.24175e-24
-6.95083e-22
3.50652e-22
-3.23867e-20
4.36822e-21
-6.1338e-19
-4.95224e-20
-3.56449e-18
-1.28648e-18
-4.65472e-18
-6.00145e-18
-8.37943e-19
-1.12145e-17
1.11009e-18
-8.50298e-18
6.27224e-19
-3.70978e-18
8.38377e-20
-6.71506e-19
1.02567e-20
-3.04227e-20
5.71337e-22
-2.68569e-21
4.05906e-24
3.67517e-24
2.3634e-25
1.00321e-24
5.27026e-27
7.44248e-26
7.61213e-29
2.89026e-27
7.18401e-31
6.14519e-29
5.20775e-31
-3.0685e-24
2.83897e-24
-6.09291e-22
5.99017e-22
-3.52285e-20
2.12841e-20
-1.62296e-18
2.69943e-19
-2.51919e-17
-2.52e-18
-1.44826e-16
-1.61903e-17
-1.57054e-16
-5.65741e-17
-2.11637e-17
-2.73502e-16
3.79159e-17
-1.28532e-16
2.30014e-17
-4.03272e-17
3.8529e-18
-2.28921e-17
4.25864e-19
-1.81021e-18
2.93741e-20
-1.34919e-19
1.87379e-22
1.18393e-22
9.05987e-24
6.42113e-23
2.2334e-25
4.65242e-24
4.6818e-27
1.84676e-25
4.99839e-29
4.20815e-27
4.08343e-29
-1.34443e-22
1.23353e-22
-2.04395e-20
2.06084e-20
-1.08962e-18
7.91526e-19
-3.86941e-17
9.70702e-18
-6.62608e-16
-9.40354e-18
-4.95201e-15
0
-3.73899e-15
-4.05207e-15
-1.98793e-16
-8.51386e-15
1.085e-15
-4.07457e-15
5.09786e-16
-4.49351e-16
9.33085e-17
-4.15914e-17
1.2405e-17
-4.32974e-17
1.02645e-18
-4.18465e-18
6.81243e-21
1.94068e-21
3.13266e-22
2.88226e-21
1.0562e-23
2.1207e-22
2.33489e-25
8.879e-24
2.73729e-27
2.14713e-25
2.3012e-27
-2.1256e-21
2.00242e-21
-3.35922e-19
3.53296e-19
-1.61821e-17
1.58098e-17
-6.84345e-16
1.95494e-16
-1.24394e-14
-9.12196e-15
-1.13045e-13
0
-5.66348e-14
-1.51729e-13
1.36864e-14
-2.06262e-13
2.58114e-14
-8.58686e-14
1.11476e-14
-1.19672e-14
2.18781e-15
0
2.9983e-16
-5.13832e-17
2.70083e-17
-7.02675e-17
2.17836e-19
-1.02637e-20
1.03535e-20
1.05958e-19
4.19289e-22
8.12338e-21
9.96668e-24
3.61433e-22
1.25633e-25
9.3176e-24
1.08856e-25
-7.54397e-21
9.12174e-21
-2.41213e-18
2.80872e-18
-1.84722e-17
1.90905e-16
-9.31448e-15
1.63895e-15
-1.49812e-13
0
-1.14415e-12
0
-1.55296e-13
-3.43993e-12
7.42405e-13
-3.72937e-12
5.48872e-13
-1.28351e-12
2.14375e-13
-2.06295e-13
3.79151e-14
0
5.50114e-15
0
5.53786e-16
-9.07443e-16
6.23405e-18
-1.81194e-18
3.48314e-19
3.42392e-18
1.47646e-20
2.73599e-19
3.77565e-22
1.29457e-20
5.10176e-24
3.57878e-22
4.5344e-24
3.25409e-21
2.7438e-20
1.56549e-18
7.40131e-17
5.36118e-17
4.79383e-15
5.33041e-16
8.37567e-15
3.74444e-12
-9.7124e-13
1.34395e-11
-1.51763e-11
3.08301e-11
-6.83701e-11
2.25857e-11
-4.01356e-11
1.0678e-11
-1.20981e-11
3.74452e-12
-1.88468e-12
6.92142e-13
0
7.35891e-14
0
8.90672e-15
-1.26998e-14
1.72144e-16
-2.18975e-17
1.02337e-17
1.20736e-16
4.6259e-19
8.23254e-18
1.28073e-20
4.11291e-19
1.86732e-22
1.22707e-20
1.70499e-22
1.24784e-20
3.70344e-20
1.33152e-18
7.27174e-17
5.25942e-17
4.74632e-15
2.21644e-09
-2.21643e-09
1.01245e-09
0
1.30028e-09
-5.7222e-10
1.46184e-09
-1.07156e-09
5.34915e-10
0
1.80887e-10
0
5.57334e-11
0
9.9963e-12
0
6.84439e-13
0
1.09361e-13
-1.79357e-13
6.99067e-15
1.44167e-15
3.30452e-16
5.92861e-15
1.34419e-17
2.95274e-16
3.96874e-19
1.27554e-17
6.30899e-21
3.93414e-19
5.96218e-21
9.24576e-06
-1.00843e-05
2.12997e-05
-2.98578e-05
3.17619e-05
-3.75514e-05
4.0202e-05
-3.93999e-05
4.73423e-05
-3.92726e-05
5.38471e-05
-3.86176e-05
6.00671e-05
-3.7761e-05
6.60987e-05
-3.6655e-05
7.19167e-05
-3.52139e-05
7.74548e-05
-3.33667e-05
8.26351e-05
-3.10321e-05
8.73807e-05
-2.81034e-05
9.16192e-05
-2.44268e-05
9.52737e-05
-1.97765e-05
9.82683e-05
-1.38811e-05
0.000100594
-6.53363e-06
0.000102412
2.36087e-06
0.000104107
1.28706e-05
0.000106418
2.49102e-05
0.0001104
3.83589e-05
0.000117378
5.27965e-05
0.000130965
6.7399e-05
8.71651e-05
0.000175209
1.26281e-05
-2.27122e-05
2.81735e-05
-4.53972e-05
3.87867e-05
-4.81521e-05
4.59067e-05
-4.65076e-05
5.16183e-05
-4.49772e-05
5.6978e-05
-4.39682e-05
6.2308e-05
-4.30807e-05
6.75962e-05
-4.19344e-05
7.27527e-05
-4.0363e-05
7.76913e-05
-3.82984e-05
8.23396e-05
-3.56737e-05
8.66505e-05
-3.24078e-05
9.0609e-05
-2.83788e-05
9.42067e-05
-2.33689e-05
9.74194e-05
-1.70903e-05
0.000100284
-9.39615e-06
0.000103083
-4.3599e-07
0.000106204
9.75104e-06
0.000110552
2.05618e-05
0.000117392
3.15195e-05
0.000128594
4.15944e-05
0.000146115
4.98778e-05
5.80437e-05
0.000175236
1.99117e-05
-4.0227e-05
3.52272e-05
-4.76532e-05
4.04472e-05
-3.19977e-05
4.43802e-05
-2.9312e-05
4.89541e-05
-2.95458e-05
5.41519e-05
-3.12748e-05
5.95386e-05
-3.32541e-05
6.47969e-05
-3.45695e-05
6.98407e-05
-3.49977e-05
7.4642e-05
-3.4625e-05
7.91658e-05
-3.34478e-05
8.34248e-05
-3.1549e-05
8.7478e-05
-2.90259e-05
9.12809e-05
-2.55927e-05
9.47517e-05
-2.03501e-05
9.81493e-05
-1.27038e-05
0.000101682
-3.91519e-06
0.000105896
5.53776e-06
0.000111161
1.52967e-05
0.000118387
2.4293e-05
0.000128744
3.12373e-05
0.000142615
3.60076e-05
3.87526e-05
0.000161906
1.60747e-05
5.85588e-15
9.40105e-06
1.41921e-15
8.3857e-06
2.64861e-16
9.47945e-06
1.3865e-16
1.17906e-05
9.43692e-17
1.5013e-05
9.666e-12
1.86174e-05
1.33552e-11
2.21435e-05
8.897e-12
2.5606e-05
4.40525e-12
2.9164e-05
1.66819e-12
3.29956e-05
5.42925e-13
3.7686e-05
1.47098e-13
4.40137e-05
3.2541e-14
5.20753e-05
5.07742e-15
6.05725e-05
-8.72153e-07
6.97754e-05
-4.0983e-06
8.20251e-05
-2.6417e-06
9.63832e-05
3.7392e-07
0.000108311
6.45985e-06
0.000117676
1.49279e-05
0.000127953
2.09602e-05
0.000140311
2.36487e-05
2.4598e-05
0.000154466
-3.54051e-15
5.82668e-15
-7.85001e-16
2.94151e-15
-2.0409e-16
1.2308e-15
-1.24035e-16
8.47497e-16
-9.3904e-17
5.88936e-16
-1.04462e-11
3.01931e-11
-1.56362e-11
3.8127e-11
-1.13382e-11
2.70599e-11
-6.15191e-12
1.40628e-11
-2.57356e-12
5.91783e-12
-9.36128e-13
2.12282e-12
-2.88027e-13
6.67396e-13
-7.39761e-14
1.86012e-13
-1.39104e-14
4.57947e-14
4.24591e-08
9.59586e-15
2.28763e-06
1.59498e-15
6.31669e-06
1.6549e-16
1.42685e-05
6.21317e-18
3.27726e-05
1.88584e-21
7.21693e-05
1.00789e-08
0.000120104
3.18375e-06
0.000138983
9.32137e-06
1.12432e-05
0.000152338
-1.10147e-16
5.39222e-15
-5.51689e-16
3.63215e-15
-5.991e-16
1.65401e-15
-5.51834e-16
1.1944e-15
-4.7832e-16
8.4971e-16
-2.95885e-11
5.70137e-16
-4.34995e-11
3.62097e-16
-3.51057e-11
2.0012e-16
-2.05313e-11
7.32584e-17
-9.70924e-12
-2.06694e-16
-3.93154e-12
-8.50155e-16
-1.40736e-12
-1.77429e-15
-4.5224e-13
-8.42461e-15
-1.30441e-13
-2.12813e-15
-3.29868e-14
-2.31115e-15
-6.97931e-15
-1.66601e-15
-1.09362e-15
-1.02556e-15
-8.9087e-17
-4.0149e-16
-1.57516e-18
-6.5458e-17
3.68438e-07
-4.58819e-14
6.58247e-06
-3.44634e-13
2.05901e-05
7.72147e-09
7.09623e-10
4.01855e-05
7.53719e-16
3.15709e-15
-3.50621e-17
3.04188e-15
-4.82328e-16
1.53716e-15
-6.06455e-16
1.04332e-15
-5.72609e-16
7.17289e-16
-4.80248e-16
4.77477e-16
-3.68745e-16
2.98864e-16
-2.40257e-16
1.42779e-16
-1.02207e-16
-2.02555e-18
1.19517e-17
-3.20853e-16
5.28854e-17
-8.91088e-16
5.82719e-17
-1.77967e-15
2.48854e-15
-2.95833e-15
9.48198e-15
-6.23459e-15
1.11306e-14
-8.16856e-15
1.05824e-14
-6.77038e-15
7.04468e-15
-4.733e-15
2.24451e-15
-1.36221e-15
7.49499e-16
-9.40734e-17
8.29886e-15
-5.15408e-14
2.04241e-14
-3.54262e-13
7.81902e-09
-6.26714e-11
-1.20236e-10
8.85145e-09
1.07276e-16
1.57863e-15
-1.83022e-16
1.70871e-15
-3.60974e-16
9.90326e-16
-4.23315e-16
6.3404e-16
-4.0142e-16
4.15417e-16
-3.41795e-16
2.6847e-16
-2.63643e-16
1.56712e-16
-1.51543e-16
3.61955e-17
3.01117e-17
-1.83681e-16
7.78051e-16
-7.41398e-16
2.24742e-15
-1.60372e-15
5.38228e-15
-2.83105e-15
1.52162e-14
-5.89549e-15
3.69915e-14
-1.33636e-14
5.13075e-14
-1.97104e-14
5.47524e-14
-1.81833e-14
4.52008e-14
-1.45385e-14
2.41111e-14
-6.75547e-15
2.49932e-14
-2.48413e-15
1.3696e-11
-1.7596e-15
9.69448e-11
-7.05566e-16
7.87784e-11
-1.77894e-11
-6.77182e-11
6.01263e-11
-3.97987e-17
6.6071e-16
-1.69206e-16
7.4625e-16
-2.10267e-16
4.61381e-16
-2.14065e-16
2.83242e-16
-1.9325e-16
1.75536e-16
-1.60996e-16
1.07319e-16
-1.16837e-16
4.88926e-17
-3.2795e-17
-3.00782e-17
4.04859e-16
-3.66371e-16
1.64295e-15
-1.17103e-15
3.49659e-15
-2.09449e-15
7.14754e-15
-3.3338e-15
1.94668e-14
-7.06861e-15
5.14941e-14
-1.67115e-14
7.04149e-14
-2.57486e-14
8.13544e-14
-2.41103e-14
7.54694e-14
-1.96577e-14
4.60104e-14
-1.6631e-14
1.64718e-14
-1.27846e-14
2.21097e-14
-9.52196e-15
1.83148e-14
-7.53939e-15
8.20083e-10
-3.27987e-15
-4.05258e-11
9.26499e-10
-2.49207e-17
2.21841e-16
-7.6177e-17
2.68396e-16
-8.60816e-17
1.66139e-16
-7.99016e-17
9.62205e-17
-6.76017e-17
5.54377e-17
-5.33277e-17
3.06622e-17
-3.0307e-17
1.62317e-18
6.88445e-17
-8.2236e-17
5.60974e-16
-4.15491e-16
1.78059e-15
-1.27734e-15
3.49902e-15
-2.03447e-15
6.82355e-15
-2.91454e-15
1.84843e-14
-5.71621e-15
5.03753e-14
-1.31223e-14
7.27383e-14
-2.51012e-14
8.05833e-14
-2.69428e-14
7.09704e-14
-1.83937e-14
1.04802e-13
-2.97554e-14
1.59064e-13
-8.21047e-14
1.03884e-13
-8.41106e-14
6.75002e-14
-4.33387e-14
2.49657e-14
-1.13262e-14
-3.36015e-14
4.66989e-10
-9.85592e-18
6.2175e-17
-2.51157e-17
8.423e-17
-2.63106e-17
4.95362e-17
-2.24423e-17
2.61251e-17
-1.75388e-17
1.35211e-17
-1.2516e-17
6.03688e-18
-8.27871e-19
-7.38923e-18
9.35565e-17
-8.27728e-17
4.8807e-16
-2.96436e-16
1.28868e-15
-7.00752e-16
1.97595e-15
-8.48087e-16
3.27052e-15
-1.02902e-15
8.26321e-15
-1.89142e-15
2.23368e-14
-4.69314e-15
4.50901e-14
-8.84355e-15
5.28443e-14
-1.03752e-14
4.29698e-14
-9.52833e-15
1.63863e-13
-7.43333e-15
3.37111e-13
-5.41134e-15
4.04646e-13
-2.56084e-16
1.30702e-13
-5.74335e-16
3.92771e-14
-8.11301e-17
-1.79579e-16
5.92941e-15
-2.65529e-18
1.61524e-17
-6.74356e-18
2.47522e-17
-6.48472e-18
1.31335e-17
-4.98059e-18
6.03652e-18
-3.48927e-18
2.66754e-18
-2.0121e-18
6.82929e-19
7.56269e-18
-6.23274e-18
5.6028e-17
-3.10989e-17
1.80132e-16
-8.73926e-17
3.89306e-16
-1.85501e-16
5.14065e-16
-2.09315e-16
7.56587e-16
-2.39528e-16
1.89958e-15
-4.30515e-16
5.45104e-15
-8.96729e-16
9.65238e-15
-1.15177e-15
1.16314e-14
-1.10338e-15
1.28055e-14
-8.84381e-16
6.94568e-15
-5.24081e-16
1.33455e-15
-1.86011e-16
6.14458e-16
-1.0306e-16
2.57673e-16
-9.10047e-17
3.12044e-16
-1.06501e-16
-1.7791e-16
3.42429e-16
-5.99511e-19
4.29695e-18
-1.63518e-18
6.9147e-18
-1.40005e-18
3.18872e-18
-9.34495e-19
1.23418e-18
-5.59586e-19
4.38995e-19
-1.85436e-19
2.13619e-20
2.85433e-18
-1.51847e-18
1.2581e-17
-7.95591e-18
3.85032e-17
-2.11111e-17
7.62236e-17
-4.2218e-17
9.66799e-17
-4.76039e-17
1.33184e-16
-4.81821e-17
3.17758e-16
-5.88604e-17
6.59187e-16
-6.66071e-17
7.9137e-16
-6.36901e-17
8.3071e-16
-5.22526e-17
6.65083e-16
-3.07764e-17
3.31447e-16
-2.03098e-17
1.39951e-16
-2.06264e-17
1.43737e-16
-2.62672e-17
2.22753e-16
-4.295e-17
3.96468e-16
-7.70233e-17
-1.52307e-16
7.2593e-16
-1.32179e-19
1.09978e-18
-3.71874e-19
1.70979e-18
-2.75913e-19
6.77242e-19
-1.55229e-19
2.17112e-19
-7.49995e-20
5.79285e-20
-4.73628e-21
-1.24897e-20
4.73149e-19
-3.96418e-19
2.59277e-18
-1.90398e-18
7.35677e-18
-4.69994e-18
1.39293e-17
-8.61734e-18
1.67682e-17
-9.40465e-18
1.94208e-17
-8.09404e-18
2.72058e-17
-5.26528e-18
3.17489e-17
-2.43955e-18
3.31028e-17
-1.02504e-18
2.77141e-17
-9.78237e-19
1.67863e-17
-1.13741e-18
1.61803e-17
-1.36486e-18
2.08023e-17
-1.71221e-18
3.58229e-17
-3.22548e-18
7.83352e-17
-1.05851e-17
1.87485e-16
-3.87416e-17
-1.65196e-16
5.04207e-16
-2.73749e-20
2.37889e-19
-7.5053e-20
3.43851e-19
-4.79253e-20
1.18507e-19
-2.23696e-20
3.15422e-20
-8.12374e-21
5.76306e-21
1.19285e-20
-2.84095e-21
9.79424e-20
-8.27657e-20
4.90402e-19
-3.7359e-19
1.28419e-18
-8.45913e-19
2.22145e-18
-1.37206e-18
2.60599e-18
-1.36303e-18
2.28891e-18
-1.03421e-18
1.33417e-18
-4.8606e-19
5.76883e-19
-1.06153e-19
4.38579e-19
-4.22599e-20
4.91961e-19
-5.18646e-20
7.13707e-19
-6.49656e-20
9.93134e-19
-7.90092e-20
1.53512e-18
-1.85456e-19
4.55919e-18
-1.18499e-18
2.42305e-17
-8.78852e-18
1.14546e-16
-4.99974e-17
-2.7579e-16
4.96234e-16
-4.80282e-21
4.13502e-20
-1.25405e-20
5.38232e-20
-6.9809e-21
1.66822e-20
-2.70459e-21
3.81554e-21
-6.72731e-22
4.72336e-22
1.23553e-21
-8.17517e-22
1.63601e-20
-1.3814e-20
7.5785e-20
-5.57695e-20
1.7875e-19
-1.12262e-19
2.63077e-19
-1.58937e-19
3.03604e-19
-1.42417e-19
2.12411e-19
-8.61355e-20
7.6038e-20
-3.53574e-20
1.69458e-20
-8.99876e-21
1.5623e-20
-2.29648e-21
2.41066e-20
-2.03181e-21
3.40027e-20
-2.27088e-21
4.95583e-20
-5.08845e-21
1.93947e-19
-4.95035e-20
1.887e-18
-6.36073e-19
1.94504e-17
-8.59514e-18
1.39359e-16
-7.05178e-17
-4.41315e-16
8.18784e-16
-6.95916e-22
5.14571e-21
-1.68155e-21
6.00774e-21
-8.39764e-22
1.70601e-21
-2.78424e-22
3.44285e-22
-4.67909e-23
3.14218e-23
1.73006e-22
-1.11722e-22
2.18001e-21
-1.64586e-21
8.92938e-21
-6.02291e-21
1.84294e-20
-1.10012e-20
2.50141e-20
-1.3862e-20
2.38643e-20
-1.09145e-20
1.24044e-20
-4.4252e-21
4.27836e-21
-6.65108e-22
1.00353e-21
-6.25784e-23
6.33226e-22
-5.30672e-23
7.06368e-22
-6.72083e-23
9.94969e-22
-1.30679e-22
3.77192e-21
-9.44866e-22
5.42714e-20
-1.48516e-20
9.07952e-19
-3.26422e-19
1.63135e-17
-7.90467e-18
1.53706e-16
-8.04436e-17
-5.46964e-16
9.60248e-16
-7.54517e-23
3.41237e-22
-1.67027e-22
3.62206e-22
-7.57385e-23
9.50003e-23
-2.19588e-23
1.68792e-23
-2.70325e-24
1.1681e-24
1.61738e-23
-1.00414e-23
2.12863e-22
-1.33265e-22
7.80329e-22
-4.57496e-22
1.43774e-21
-7.91722e-22
1.83605e-21
-9.35542e-22
1.3782e-21
-6.87516e-22
3.61498e-22
-2.45479e-22
2.93237e-23
-3.48732e-23
1.21911e-23
-2.97932e-24
1.40903e-23
-2.38578e-24
2.37728e-23
-3.66222e-24
7.04378e-23
-2.18791e-23
7.80844e-22
-2.95329e-22
1.44444e-20
-4.69891e-21
3.98994e-19
-1.66251e-19
1.21356e-17
-5.73392e-18
1.47334e-16
-7.87722e-17
-5.8726e-16
9.53194e-16
-4.58371e-24
-4.91723e-36
-9.31316e-24
-2.28613e-36
-3.84174e-24
-1.81759e-30
-9.67586e-25
-1.32866e-27
-8.94228e-26
-1.62823e-26
1.11088e-24
-5.2899e-25
1.45338e-23
-6.6949e-24
4.96382e-23
-2.26723e-23
8.56169e-23
-3.89342e-23
1.06173e-22
-4.59347e-23
7.04085e-23
-3.26263e-23
1.57934e-23
-1.04235e-23
1.26308e-24
-1.22174e-24
4.81888e-25
-7.30675e-26
5.42594e-25
-7.51697e-26
1.39286e-24
-5.87104e-25
1.49628e-23
-1.0408e-23
2.42901e-22
-1.51992e-22
4.1975e-21
-2.086e-21
1.75015e-19
-8.23557e-20
7.15873e-18
-3.84406e-18
1.13005e-16
-6.77661e-17
-6.02655e-16
8.62935e-16
5.74274e-39
-4.92297e-36
2.68643e-39
-2.28308e-36
1.36598e-31
-6.00816e-31
1.34647e-28
-3.46094e-28
2.11999e-27
-1.9103e-27
4.55926e-26
-1.55239e-26
6.35323e-25
-1.74012e-25
2.1318e-24
-5.72787e-25
3.64358e-24
-9.54666e-25
4.51118e-24
-1.09078e-24
2.79314e-24
-7.40966e-25
5.18484e-25
-2.05658e-25
3.03523e-26
-2.08107e-26
1.16483e-26
-1.50682e-27
1.82051e-26
-1.06988e-26
3.12193e-25
-2.633e-25
6.97356e-24
-5.51111e-24
1.14374e-22
-8.83639e-23
1.71425e-21
-1.14693e-21
7.41244e-20
-3.93565e-20
4.16301e-18
-2.63766e-18
8.5507e-17
-6.18701e-17
-6.46673e-16
7.81412e-16
6.25539e-38
-1.3574e-41
5.48072e-38
-3.72634e-39
2.46711e-32
-4.65799e-32
1.7219e-29
-2.35463e-29
1.14116e-28
-1.57314e-28
1.16577e-27
-3.3177e-28
1.45727e-26
-9.05682e-28
4.69504e-26
-1.30425e-27
7.67569e-26
-8.66122e-28
9.34032e-26
-1.91881e-28
5.27559e-26
-1.16753e-29
7.82853e-27
-1.63029e-30
4.44039e-28
-4.76975e-30
2.34239e-28
-1.02731e-28
4.16593e-27
-3.64963e-27
1.31917e-25
-9.88619e-26
3.11719e-24
-2.30037e-24
5.632e-23
-4.22032e-23
8.18588e-22
-5.92077e-22
3.01059e-20
-1.77198e-20
2.43128e-18
-1.64018e-18
6.73492e-17
-5.32691e-17
-6.70896e-16
7.26073e-16
1.73146e-43
-9.52085e-46
8.80911e-41
4.16834e-42
1.69923e-33
-9.95679e-41
1.06748e-30
-3.11968e-34
7.39454e-30
-1.42224e-30
1.82625e-29
-1.99436e-29
5.44082e-29
-6.50558e-29
7.4503e-29
-9.70425e-29
4.05777e-29
-6.69842e-29
3.91781e-30
-1.49934e-29
1.94644e-31
-7.82623e-31
1.68436e-31
-6.45623e-32
9.79648e-31
-6.22885e-31
3.10419e-29
-2.93989e-29
1.34077e-27
-9.61042e-28
4.05811e-26
-2.9065e-26
1.0677e-24
-7.81747e-25
2.20244e-23
-1.64295e-23
3.53151e-22
-2.68272e-22
1.14154e-20
-7.30689e-21
1.24124e-18
-8.69234e-19
4.8026e-17
-4.11318e-17
-6.44563e-16
6.27529e-16
6.45694e-48
-5.12618e-53
-9.82518e-44
-1.66542e-54
3.5695e-42
-1.22313e-45
1.42299e-35
-3.53681e-38
7.94255e-32
-2.25532e-34
1.20548e-30
-3.10559e-33
3.6897e-30
-7.04319e-33
5.07664e-30
-6.35584e-33
2.93911e-30
-1.05386e-33
2.72169e-31
-5.07152e-34
8.09163e-33
-5.35106e-34
6.05359e-33
-2.52688e-33
1.43156e-31
-1.47729e-31
8.21563e-30
-6.40888e-30
2.96292e-28
-2.38826e-28
1.01466e-26
-8.13592e-27
3.07257e-25
-2.47548e-25
7.2412e-24
-6.09085e-24
1.34848e-22
-1.17159e-22
3.95668e-21
-2.87703e-21
5.34314e-19
-3.92385e-19
3.04191e-17
-2.87291e-17
-5.81021e-16
5.06177e-16
3.49248e-55
-4.66755e-54
3.88298e-56
-9.23352e-55
4.10399e-47
-5.01489e-51
1.55236e-39
-4.08926e-48
1.18925e-35
-2.17418e-45
1.57996e-34
-3.227e-40
2.77869e-34
-1.99771e-37
2.65119e-34
-1.77982e-36
3.00753e-35
-5.23579e-36
3.16383e-35
-8.22602e-36
4.01486e-35
-1.26128e-35
4.09688e-34
-4.89345e-34
3.14632e-32
-2.76357e-32
1.50737e-30
-1.29403e-30
6.38061e-29
-5.61116e-29
2.44027e-27
-2.14036e-27
8.28866e-26
-7.34613e-26
2.28229e-24
-2.12562e-24
4.96525e-23
-4.92268e-23
1.31356e-21
-1.15547e-21
1.93893e-19
-1.48428e-19
1.71389e-17
-1.75764e-17
-4.77647e-16
3.7621e-16
3.65394e-56
-1.44568e-54
1.50292e-56
-4.54483e-55
1.63091e-52
-3.38028e-55
1.71873e-49
-2.66954e-51
1.12644e-46
-7.57666e-49
2.00387e-41
-2.98643e-44
1.37882e-38
-3.48592e-40
1.21865e-37
-9.17293e-39
3.35394e-37
-3.02817e-38
5.66488e-37
-4.1099e-38
1.14711e-36
-1.02756e-36
7.97729e-35
-7.90911e-35
4.97983e-33
-4.37178e-33
2.62463e-31
-2.40485e-31
1.27207e-29
-1.13105e-29
5.39325e-28
-4.83055e-28
2.04947e-26
-1.87295e-26
6.58014e-25
-6.35136e-25
1.70771e-23
-1.81028e-23
4.38455e-22
-4.63835e-22
5.77911e-20
-4.60327e-20
8.19113e-18
-9.11874e-18
-3.46295e-16
2.45337e-16
1.11136e-56
-1.6531e-55
4.54463e-57
-6.31364e-56
5.90158e-57
-6.71323e-56
1.20016e-52
-5.80337e-52
4.26429e-50
-2.00765e-49
1.73064e-45
-1.95682e-47
2.3084e-41
-2.17846e-45
5.97691e-40
-2.2409e-43
1.67971e-39
-3.78209e-41
2.73281e-39
-2.87885e-39
1.27266e-37
-1.93879e-37
1.09919e-35
-1.00353e-35
6.75039e-34
-6.49464e-34
4.12148e-32
-3.73561e-32
2.13364e-30
-1.95316e-30
1.00146e-28
-9.31767e-29
4.24686e-27
-4.02746e-27
1.57672e-25
-1.57767e-25
4.96333e-24
-5.50473e-24
1.40396e-22
-1.68554e-22
1.37986e-20
-1.19331e-20
3.20397e-18
-3.93943e-18
-2.12777e-16
1.33079e-16
1.07112e-57
-1.71328e-57
7.15326e-58
-1.15901e-57
1.35318e-57
-1.01057e-56
2.52445e-53
-4.76461e-53
1.06625e-50
-1.13216e-50
1.09625e-48
-2.03352e-48
1.42147e-46
-2.66035e-46
1.67982e-44
-3.08881e-44
3.30807e-42
-7.8598e-42
2.90472e-40
-6.75626e-40
2.11424e-38
-1.6063e-38
1.18885e-36
-1.24783e-36
8.49846e-35
-8.36423e-35
5.32573e-33
-5.23555e-33
3.0286e-31
-2.97937e-31
1.56573e-29
-1.58987e-29
7.29045e-28
-7.64247e-28
3.07235e-26
-3.3836e-26
1.15817e-24
-1.39984e-24
3.84523e-23
-5.065e-23
2.6779e-21
-2.82385e-21
9.93973e-19
-1.40448e-18
-1.07778e-16
5.71523e-17
1.02087e-59
-3.86122e-59
1.18562e-59
-2.67349e-59
3.30589e-58
-3.02497e-57
1.79288e-54
-3.49868e-54
5.0452e-52
-8.53034e-52
1.07721e-49
-1.40697e-49
1.62069e-47
-1.85047e-47
2.13382e-45
-1.9998e-45
6.15381e-43
-1.85891e-43
5.78329e-41
-1.68155e-41
1.43717e-39
-1.57803e-39
1.25228e-37
-1.23407e-37
9.06672e-36
-9.05738e-36
6.11341e-34
-6.33427e-34
3.72099e-32
-4.01904e-32
2.11447e-30
-2.41008e-30
1.07582e-28
-1.31307e-28
5.01983e-27
-6.66633e-27
2.17941e-25
-3.18247e-25
8.19343e-24
-1.26089e-23
4.49464e-22
-6.50027e-22
2.34764e-19
-4.13963e-19
-4.51337e-17
1.82068e-17
2.1787e-61
-6.27107e-61
2.54999e-61
-5.34205e-61
9.60348e-59
-5.69908e-58
1.19144e-55
-1.56377e-55
3.46179e-53
-4.12282e-53
6.57614e-51
-7.60767e-51
9.79402e-49
-1.11094e-48
1.17814e-46
-1.34191e-46
1.19089e-44
-1.51272e-44
1.17576e-42
-1.44208e-42
1.22473e-40
-1.2864e-40
1.02359e-38
-1.10711e-38
7.99392e-37
-8.84216e-37
5.90533e-35
-6.9124e-35
3.9256e-33
-4.96567e-33
2.44552e-31
-3.36369e-31
1.37521e-29
-2.13557e-29
7.13504e-28
-1.25193e-27
3.41912e-26
-6.65998e-26
1.32372e-24
-2.69613e-24
6.45694e-23
-1.33687e-22
3.8886e-20
-1.03009e-19
-1.60537e-17
3.78421e-18
3.31218e-63
-7.87201e-63
4.68328e-63
-1.051e-62
1.46505e-59
-8.95072e-60
4.73391e-57
-5.51544e-57
1.4814e-54
-1.64152e-54
3.14033e-52
-3.1882e-52
5.16213e-50
-5.35367e-50
6.89951e-48
-7.03436e-48
8.51484e-46
-8.54207e-46
8.72844e-44
-8.83187e-44
8.24845e-42
-9.09407e-42
7.46782e-40
-8.5452e-40
6.2057e-38
-7.86864e-38
4.98392e-36
-6.953e-36
3.63452e-34
-5.80287e-34
2.46319e-32
-4.57808e-32
1.53925e-30
-3.34081e-30
8.63943e-29
-2.11185e-28
4.21291e-27
-1.10088e-26
1.50063e-25
-4.62764e-25
6.1233e-24
-2.77685e-23
3.14341e-21
-2.71473e-20
-4.98389e-18
1.56064e-19
3.94138e-65
-8.33517e-65
1.0273e-64
-1.50179e-64
1.93028e-61
-2.63977e-61
1.47939e-58
-1.45583e-58
5.18904e-56
-4.90025e-56
1.14903e-53
-1.08319e-53
2.14937e-51
-1.93846e-51
3.08748e-49
-2.96838e-49
4.02271e-47
-3.85441e-47
4.40077e-45
-4.52639e-45
4.72398e-43
-5.0333e-43
4.55078e-41
-5.54165e-41
4.22232e-39
-5.80016e-39
3.67537e-37
-5.82378e-37
2.94952e-35
-5.59706e-35
2.16573e-33
-5.06772e-33
1.40068e-31
-4.05083e-31
7.26121e-30
-2.75239e-29
2.71122e-28
-1.50073e-27
6.31279e-27
-1.67014e-25
-5.68636e-25
-2.97503e-23
-4.80107e-21
-9.27372e-21
-1.20485e-18
-7.87719e-19
4.04537e-67
-6.47305e-67
1.53415e-66
-2.15033e-66
5.03494e-63
-4.73863e-63
3.39861e-60
-3.02593e-60
1.34028e-57
-1.08512e-57
3.3599e-55
-2.73061e-55
6.63284e-53
-5.38865e-53
1.09689e-50
-8.99393e-51
1.50524e-48
-1.33982e-48
1.83358e-46
-1.83855e-46
2.06641e-44
-2.365e-44
2.25072e-42
-2.91248e-42
2.25774e-40
-3.52331e-40
2.08433e-38
-4.08886e-38
1.73496e-36
-4.44766e-36
1.23419e-34
-4.57193e-34
6.3598e-33
-4.58977e-32
1.2782e-31
-4.2057e-30
-4.93464e-29
-7.03378e-28
-7.50335e-27
-1.20788e-25
-4.30851e-24
-2.21048e-23
-3.19103e-21
-3.36413e-21
-2.16422e-19
-3.8472e-19
3.09212e-69
-3.07777e-69
2.27068e-68
-2.02146e-68
7.70307e-65
-6.26105e-65
6.00978e-62
-4.41138e-62
2.51989e-59
-1.7641e-59
7.16243e-57
-5.09369e-57
1.54918e-54
-1.18173e-54
2.75877e-52
-2.34872e-52
4.27558e-50
-4.16388e-50
5.93787e-48
-6.66435e-48
7.48015e-46
-9.66241e-46
8.64796e-44
-1.32038e-43
9.27517e-42
-1.78335e-41
8.67312e-40
-2.10277e-39
6.34762e-38
-2.89043e-37
2.36465e-36
-4.27993e-35
-3.0118e-34
-8.35904e-33
-1.85946e-31
-2.25708e-30
-5.1332e-29
-5.06998e-28
-2.69554e-26
-7.7692e-26
-1.20933e-23
-8.37938e-24
-1.0291e-21
-9.54556e-22
-3.3202e-20
-9.1982e-20
1.42503e-71
-1.10164e-71
1.91537e-70
-6.82026e-71
8.32645e-67
-5.05326e-67
7.20727e-64
-4.33392e-64
3.39227e-61
-2.14284e-61
1.10771e-58
-7.47993e-59
2.80489e-56
-2.02426e-56
5.88669e-54
-4.62233e-54
1.06597e-51
-9.88614e-52
1.6761e-49
-1.829e-49
2.27327e-47
-3.07956e-47
2.7085e-45
-4.76801e-45
2.83766e-43
-8.36883e-43
1.9892e-41
-1.63432e-40
1.8705e-40
-2.60749e-38
-4.77396e-37
-1.36193e-35
-3.7267e-34
-4.95113e-33
-5.15858e-31
-1.21905e-30
-2.50574e-28
-1.94836e-28
-5.01768e-26
-2.19958e-26
-5.87606e-24
-1.87071e-24
-2.77241e-22
-1.80141e-22
-4.6475e-21
-1.53329e-20
4.68226e-74
-1.23908e-73
4.75432e-73
-1.92854e-73
5.12241e-69
-2.40141e-69
5.55225e-66
-2.66821e-66
3.29343e-63
-1.5103e-63
1.31154e-60
-6.33905e-61
3.87359e-58
-2.18936e-58
9.25922e-56
-6.38697e-56
1.98227e-53
-1.48048e-53
3.48433e-51
-3.55729e-51
5.17528e-49
-7.18949e-49
6.27224e-47
-1.81744e-46
6.44224e-45
-3.81418e-44
1.82956e-44
-1.01311e-41
-4.13134e-40
-9.13199e-39
-3.76319e-36
-4.80272e-36
-2.6057e-33
-1.4288e-33
-8.18116e-31
-2.73924e-31
-1.44847e-28
-3.65919e-29
-1.7384e-26
-3.58084e-27
-1.52479e-24
-2.69619e-25
-7.67163e-23
-2.34519e-23
-5.48436e-22
-2.0408e-21
4.22364e-76
-3.82842e-76
5.78739e-76
-7.11185e-77
1.64547e-71
-6.46354e-72
2.48471e-68
-6.63224e-69
1.76334e-65
-4.55472e-66
8.6341e-63
-2.36781e-63
3.27947e-60
-1.02912e-60
9.96455e-58
-3.59854e-58
2.27163e-55
-1.32229e-55
4.99203e-53
-3.45533e-53
8.268e-51
-1.22577e-50
1.35731e-48
-3.70459e-48
5.98358e-47
-9.28303e-46
-1.1265e-43
-1.71397e-42
-4.75278e-39
-1.42323e-39
-3.49024e-36
-6.09794e-37
-1.1433e-33
-1.60198e-34
-2.29101e-31
-2.82835e-32
-3.14313e-29
-3.55434e-30
-3.13796e-27
-3.30907e-28
-2.46313e-25
-2.37632e-26
-1.87628e-23
-1.88466e-24
-5.11603e-23
-2.57678e-22
5.18197e-79
-2.89646e-80
5.13611e-80
-2.55164e-78
2.17767e-74
-5.04091e-75
3.89575e-71
-3.7487e-72
3.74383e-68
-2.99141e-69
2.38377e-65
-2.00369e-66
1.16262e-62
-1.28111e-63
4.24494e-60
-7.77713e-61
1.51256e-57
-4.51066e-58
3.47178e-55
-1.66143e-55
9.1691e-53
-1.11146e-52
1.26215e-50
-2.47996e-50
-4.03087e-48
-5.77697e-47
-1.03708e-42
-1.04339e-43
-1.14809e-39
-7.83486e-41
-5.27216e-37
-3.28039e-38
-1.42345e-34
-8.71603e-36
-2.54861e-32
-1.58087e-33
-3.23144e-30
-2.05323e-31
-3.03086e-28
-1.97685e-29
-2.22588e-26
-1.46274e-27
-1.5882e-24
-1.16001e-25
-3.4413e-24
-2.99522e-23
-5.81208e-83
-1.5527e-84
-1.377e-80
-3.78142e-82
-2.70975e-78
-2.11046e-79
9.91387e-75
-1.63356e-76
1.52261e-71
-1.52381e-73
1.38458e-68
-1.43983e-70
1.03784e-65
-1.76017e-67
6.67529e-63
-1.70243e-64
3.72062e-60
-1.66304e-61
1.15908e-57
-1.66543e-58
5.10502e-55
-1.04461e-55
1.7538e-53
-9.81102e-53
-2.83358e-47
-1.0214e-48