/*--------------------------------*- C++ -*----------------------------------*\
  =========                 |
  \\      /  F ield         | OpenFOAM: The Open Source CFD Toolbox
   \\    /   O peration     | Website:  https://openfoam.org
    \\  /    A nd           | Version:  9
     \\/     M anipulation  |
\*---------------------------------------------------------------------------*/
FoamFile
{
    format      ascii;
    class       volScalarField;
    location    "2.68";
    object      epsilon;
}
// * * * * * * * * * * * * * * * * * * * * * * * * * * * * * * * * * * * * * //

dimensions      [0 2 -3 0 0 0 0];

internalField   nonuniform List<scalar> 
2268
(
0.00458184
0.0281794
0.0499778
0.0697707
0.0872792
0.102595
0.115832
0.127198
0.136954
0.145344
0.152701
0.158808
0.163508
0.166764
0.168329
0.167271
0.159942
0.147455
0.133373
0.116743
0.0911526
0.052598
0.0132829
0.0105995
0.0185768
0.0280272
0.0370659
0.0451823
0.0522767
0.058379
0.0635863
0.0680141
0.071772
0.0750097
0.0777032
0.0797627
0.0811197
0.0816453
0.081036
0.078595
0.0745031
0.0690468
0.061706
0.0509311
0.0356383
0.0207617
0.0189738
0.0198771
0.0260931
0.0326182
0.0386771
0.0440537
0.0487204
0.0527292
0.0561593
0.0590916
0.061605
0.0636994
0.0653215
0.066412
0.0668808
0.0665658
0.0652012
0.0627818
0.059345
0.0545133
0.0473664
0.0372983
0.0322414
0.027521
0.0226073
0.0269269
0.0321774
0.0372689
0.0418821
0.0459397
0.0494639
0.0525133
0.0551509
0.0574232
0.0593307
0.0608366
0.0618935
0.0624379
0.0623739
0.0615709
0.0599979
0.0576469
0.0542579
0.0492255
0.0421652
0.0430073
0.0359515
0.0258342
0.0287109
0.0330983
0.0375761
0.041729
0.0454358
0.0486959
0.051554
0.0540582
0.0562378
0.0580889
0.0595824
0.0606817
0.0613438
0.0615136
0.0611244
0.0601587
0.058623
0.0563928
0.0531747
0.0489179
0.0544653
0.0442418
0.0293294
0.0309924
0.0347137
0.0387403
0.0425652
0.04603
0.0491168
0.0518598
0.0542967
0.0564452
0.0582962
0.0598238
0.0610002
0.0617991
0.0621943
0.0621596
0.0617048
0.0608759
0.0597037
0.0583169
0.0576624
0.0703754
0.0524046
0.0330155
0.0336067
0.0367767
0.0404406
0.0440038
0.0472768
0.0502297
0.0528901
0.0552885
0.0574342
0.0593124
0.0608981
0.06217
0.0631157
0.0637316
0.0640235
0.0640319
0.0638486
0.0636616
0.0641461
0.0686322
0.100884
0.0605784
0.0368731
0.0364841
0.0391765
0.0425293
0.045864
0.0489661
0.0517988
0.0543871
0.0567576
0.0589125
0.0608316
0.0624886
0.0638666
0.0649645
0.0657988
0.066404
0.0668469
0.0672581
0.0679407
0.070053
0.0805707
0.188471
0.00946032
0.0505537
0.0796356
0.0938756
0.0995706
0.100027
0.0935441
0.0783674
0.0631837
0.0609339
0.0643147
0.0633296
0.0593155
0.0605088
0.063889
0.0581382
0.0400921
0.0193555
0.00414528
0.0182061
0.031238
0.0415921
0.0477032
0.0506162
0.0509258
0.04849
0.0439709
0.0381041
0.0347377
0.0335002
0.0322495
0.0308251
0.0295869
0.0290695
0.0265057
0.0203814
0.0126248
0.00696981
0.0319654
0.033913
0.0384764
0.0415453
0.0430366
0.0427481
0.0406169
0.0373974
0.0335247
0.0306021
0.0289158
0.0275302
0.0262138
0.0249461
0.0239295
0.0219952
0.0182194
0.0132532
0.0109939
0.0478304
0.0398684
0.0401171
0.0409497
0.0412826
0.0404239
0.0382142
0.035374
0.0322886
0.0297521
0.0279863
0.0265398
0.025226
0.0239844
0.0228505
0.021193
0.0185343
0.0149176
0.0148138
0.0671667
0.0469833
0.0430946
0.0419883
0.0413155
0.0399621
0.037631
0.0349505
0.0322703
0.0299888
0.0282191
0.0267474
0.0254203
0.0241941
0.0230456
0.0215552
0.0195884
0.0170061
0.0184886
0.0939774
0.0548084
0.0464994
0.043628
0.042085
0.0403154
0.03789
0.0353235
0.0328978
0.0307719
0.0290001
0.0275055
0.0261566
0.0249357
0.023812
0.0224675
0.020919
0.0192713
0.0216873
0.136368
0.0631513
0.0498833
0.0454665
0.0431852
0.0410712
0.0385977
0.0361646
0.0339331
0.0318971
0.0301026
0.0285658
0.0271909
0.0259712
0.024889
0.0237186
0.0224981
0.0216388
0.0253054
0.220784
0.0703934
0.0528629
0.0473143
0.0444428
0.0420526
0.039573
0.0372934
0.0352234
0.0332454
0.0314089
0.0298097
0.0284131
0.0271981
0.0261629
0.0251935
0.0243393
0.0243004
0.0303801
0.0727513
0.0430251
0.0413006
0.0433498
0.0462721
0.0492733
0.052113
0.0547538
0.0572242
0.059549
0.0617228
0.063716
0.065497
0.0670521
0.0683956
0.0695749
0.0706622
0.0717567
0.0730214
0.0747992
0.0781724
0.0871423
0.118497
0.0880073
0.051807
0.0487032
0.0500616
0.0524588
0.054985
0.0574024
0.0597037
0.0619489
0.0641735
0.0663648
0.0684756
0.0704539
0.0722774
0.0739761
0.0756213
0.0773391
0.0792636
0.0815184
0.0842054
0.0875275
0.0925346
0.102742
0.102367
0.0617473
0.0572702
0.0578945
0.0596837
0.061591
0.0634099
0.0651926
0.0670827
0.0691358
0.0713284
0.0735846
0.0758046
0.0779412
0.0800225
0.0821208
0.0844665
0.0872644
0.0906506
0.0944969
0.0979189
0.0994204
0.101136
0.120466
0.0747466
0.067549
0.0670385
0.0680314
0.0690813
0.0700156
0.0709605
0.0722991
0.0740944
0.0762902
0.078766
0.081316
0.0838304
0.0863766
0.0888713
0.0917802
0.0954612
0.100255
0.106367
0.112184
0.109409
0.106298
0.160575
0.0930604
0.0793627
0.0776252
0.0776216
0.0772547
0.0771214
0.0768184
0.0773287
0.0788019
0.0810509
0.0838595
0.0867009
0.0893758
0.0918219
0.094465
0.0975718
0.101415
0.107064
0.116201
0.126903
0.119431
0.113754
0.211132
0.107768
0.0892937
0.086426
0.0834336
0.0834642
0.0832724
0.0823501
0.0820118
0.0830508
0.0852899
0.0883005
0.0912742
0.0942016
0.0972765
0.100252
0.103109
0.105545
0.110068
0.1183
0.123445
0.120642
0.115403
0.229351
0.109538
0.0963949
0.0903821
0.0868384
0.0857623
0.086233
0.0857679
0.0855347
0.0866756
0.0894518
0.0929901
0.0959851
0.0990515
0.101515
0.104674
0.107475
0.10822
0.110923
0.117272
0.121858
0.121875
0.119315
0.1983
0.106105
0.0999849
0.094079
0.0899478
0.087996
0.088398
0.0886069
0.0888839
0.090125
0.0934204
0.097675
0.0994194
0.0998799
0.100642
0.10234
0.104507
0.106026
0.109892
0.116399
0.122105
0.121726
0.120273
0.152792
0.0987607
0.0939696
0.0913008
0.0906522
0.091039
0.0921115
0.0924307
0.0926072
0.0924749
0.0934175
0.095207
0.0953469
0.0951174
0.0953309
0.0959924
0.09729
0.0991362
0.103067
0.108816
0.113981
0.115001
0.110666
0.115831
0.089073
0.0875494
0.0882575
0.0918781
0.0944326
0.0936694
0.0918433
0.0908884
0.0895806
0.0888517
0.0889858
0.0888949
0.0888417
0.088818
0.0890195
0.0897391
0.0910909
0.0938241
0.0977684
0.101404
0.10244
0.0979881
0.111059
0.0846762
0.085032
0.087036
0.0906494
0.0912079
0.0885236
0.0863239
0.084888
0.0835664
0.0827298
0.0824442
0.0822766
0.0821478
0.0819732
0.0819346
0.082244
0.0830422
0.0846169
0.0868311
0.0888004
0.0888832
0.0853692
0.138414
0.0859548
0.0825871
0.083097
0.0843895
0.0836312
0.0815794
0.0798076
0.0784955
0.0774233
0.0766827
0.0762471
0.0759244
0.075616
0.075291
0.0750791
0.0751105
0.0754823
0.0762396
0.0771877
0.0778153
0.0771235
0.0743294
0.171553
0.0891135
0.0796079
0.0779087
0.0776188
0.0766506
0.075157
0.0737893
0.0726958
0.0718103
0.0711238
0.0705885
0.070115
0.0696561
0.0692237
0.0689019
0.0687528
0.0688006
0.0689878
0.0691212
0.0688739
0.0677373
0.0654131
0.18318
0.0896266
0.0764747
0.0730477
0.0717763
0.0706864
0.06951
0.0684312
0.067518
0.0667417
0.0660711
0.065468
0.0648963
0.0643497
0.0638571
0.0634667
0.0631933
0.0630116
0.0628302
0.0624856
0.0617681
0.06048
0.0585148
0.181761
0.0872837
0.0728087
0.0684488
0.0666369
0.0654706
0.0644708
0.0635842
0.0628019
0.0620953
0.0614357
0.0608017
0.0601866
0.0596049
0.0590865
0.0586552
0.0582999
0.057974
0.0575874
0.0570175
0.0561389
0.0548682
0.0532128
0.17414
0.0831699
0.0686636
0.063978
0.0619384
0.0607516
0.0598612
0.0591024
0.0584148
0.0577629
0.0571245
0.0564917
0.0558729
0.0552902
0.0547691
0.0543196
0.0539199
0.0535212
0.0530487
0.0524164
0.0515518
0.0504236
0.0490605
0.163081
0.0780588
0.0642187
0.0595898
0.0575266
0.0563717
0.0555637
0.0548949
0.0542796
0.0536775
0.0530717
0.0524625
0.051865
0.0513023
0.0507953
0.0503477
0.0499366
0.0495197
0.0490398
0.0484381
0.047672
0.046731
0.0456424
0.150002
0.0724358
0.0596483
0.0552969
0.0533326
0.0522481
0.0515135
0.0509149
0.0503594
0.049806
0.0492414
0.0486703
0.0481096
0.0475812
0.0471023
0.0466748
0.0462792
0.0458821
0.0454417
0.0449177
0.0442835
0.0435349
0.0426916
0.135718
0.0665752
0.0550779
0.0511298
0.0493332
0.0483434
0.0476801
0.0471424
0.0466408
0.046137
0.0456203
0.0450973
0.0445845
0.0441016
0.0436633
0.0432721
0.0429127
0.0425602
0.0421846
0.0417577
0.0412612
0.0406917
0.0400608
0.120603
0.0606241
0.0505903
0.0471192
0.045527
0.0446449
0.0440532
0.0435731
0.043124
0.0426721
0.0422092
0.0417423
0.0412866
0.0408592
0.0404733
0.0401321
0.0398243
0.0395319
0.0392331
0.0389077
0.0385416
0.0381305
0.0376792
0.104907
0.0547174
0.0462559
0.0432958
0.0419228
0.0411543
0.040635
0.0402121
0.0398166
0.0394202
0.0390168
0.0386132
0.0382228
0.0378603
0.0375373
0.0372575
0.0370126
0.0367894
0.0365721
0.0363453
0.0360974
0.0358227
0.0355213
0.0896751
0.0491238
0.04216
0.0396927
0.0385355
0.0378806
0.0374342
0.0370698
0.0367307
0.036394
0.0360556
0.0357219
0.0354042
0.0351149
0.0348638
0.0346544
0.0344805
0.034332
0.034197
0.0340632
0.0339205
0.0337623
0.0335853
0.0768586
0.0441597
0.0383759
0.0363372
0.0353798
0.0348349
0.0344619
0.0341583
0.0338791
0.0336067
0.0333389
0.033081
0.0328425
0.0326334
0.0324613
0.0323293
0.0322319
0.0321612
0.0321076
0.0320608
0.0320117
0.031953
0.0318797
0.0657912
0.0394932
0.0348499
0.0332231
0.0324598
0.0320247
0.0317274
0.0314884
0.0312737
0.0310708
0.0308785
0.0307017
0.0305477
0.0304239
0.0303362
0.0302864
0.0302694
0.0302783
0.0303047
0.0303398
0.0303749
0.0304025
0.0304165
0.0564633
0.0351832
0.0315754
0.0303443
0.0297737
0.0294514
0.0292347
0.029066
0.0289218
0.0287941
0.0286828
0.0285918
0.0285265
0.0284922
0.0284928
0.0285286
0.0285946
0.0286842
0.0287896
0.0289025
0.0290149
0.029119
0.0292081
0.0488687
0.0313223
0.0285772
0.0277041
0.0273199
0.0271135
0.0269839
0.0268931
0.0268267
0.0267807
0.026756
0.0267555
0.0267828
0.0268412
0.0269329
0.0270569
0.0272079
0.0273791
0.027563
0.0277515
0.0279366
0.0281106
0.0282664
0.0428254
0.0279518
0.0258725
0.0253039
0.0250945
0.0250067
0.0249721
0.0249682
0.0249882
0.0250313
0.0250989
0.0251934
0.0253169
0.0254709
0.0256561
0.0258707
0.0261087
0.0263631
0.0266261
0.0268897
0.0271457
0.0273861
0.0276035
0.0380555
0.0250593
0.023465
0.0231435
0.0230947
0.0231277
0.0231962
0.0232887
0.0234041
0.0235436
0.0237094
0.0239032
0.0241262
0.0243787
0.0246601
0.0249682
0.0252962
0.0256368
0.0259816
0.0263221
0.0266496
0.0269557
0.027233
0.0343123
0.0226174
0.0213581
0.0212297
0.0213251
0.0214791
0.0216571
0.0218541
0.0220722
0.0223143
0.0225829
0.0228797
0.0232055
0.0235598
0.0239413
0.0243472
0.0247703
0.0252024
0.0256342
0.0260563
0.0264591
0.0268336
0.0271716
0.0314422
0.020611
0.0195652
0.0195801
0.0198009
0.0200715
0.0203608
0.0206662
0.0209908
0.0213388
0.0217131
0.0221158
0.0225476
0.0230081
0.0234954
0.0240061
0.0245324
0.0250649
0.0255929
0.0261052
0.0265907
0.0270393
0.0274421
0.0293705
0.0190419
0.0181086
0.0182204
0.0185436
0.0189198
0.0193155
0.0197269
0.0201571
0.0206107
0.0210913
0.0216019
0.0221436
0.0227164
0.0233181
0.0239446
0.024587
0.025234
0.0258725
0.0264885
0.0270686
0.0276008
0.0280755
0.0280534
0.0179175
0.0170104
0.0171744
0.0175727
0.0180367
0.0185264
0.0190349
0.0195645
0.0201199
0.0207057
0.0213258
0.0219827
0.0226767
0.0234057
0.0241645
0.0249427
0.0257257
0.0264962
0.0272362
0.0279283
0.0285581
0.0291147
0.0274339
0.0172324
0.0162792
0.0164532
0.016896
0.0174243
0.0179899
0.0185817
0.0192006
0.0198514
0.0205402
0.0212723
0.0220517
0.0228801
0.0237554
0.0246712
0.0256142
0.0265648
0.0274991
0.0283921
0.0292207
0.0299669
0.0306186
0.0274214
0.0169571
0.0159009
0.016047
0.0165035
0.0170705
0.0176907
0.018349
0.019045
0.0197839
0.0205735
0.0214215
0.0223344
0.0233159
0.0243648
0.0254732
0.0266237
0.0277883
0.0289325
0.0300198
0.0310182
0.0319048
0.0326672
0.0278931
0.0170352
0.0158368
0.0159246
0.016367
0.0169476
0.0176013
0.0183091
0.0190697
0.0198895
0.0207787
0.0217487
0.0228101
0.0239703
0.0252308
0.0265825
0.0280022
0.0294493
0.0308707
0.0322104
0.0334225
0.0344787
0.0353682
0.0287013
0.0173909
0.0160298
0.0160379
0.0164437
0.0170164
0.0176843
0.0184259
0.0192396
0.0201339
0.0211227
0.0222229
0.0234518
0.0248241
0.0263469
0.0280127
0.0297915
0.0316227
0.0334209
0.035095
0.0365773
0.037835
0.038865
0.0296758
0.0179429
0.016419
0.0163351
0.0166859
0.0172316
0.0178965
0.0186576
0.019514
0.020477
0.0215658
0.0228052
0.0242233
0.0258476
0.0276979
0.0297746
0.0320429
0.0344126
0.0367396
0.0388641
0.0406851
0.0421729
0.0433465
0.0306198
0.0186466
0.0169837
0.0167903
0.0170583
0.0175516
0.0181939
0.0189601
0.0198488
0.0208742
0.0220619
0.0234476
0.0250754
0.0269944
0.0292496
0.0318645
0.034811
0.0379608
0.0410607
0.0438
0.0460325
0.0477603
0.0490568
0.0313776
0.0197331
0.0179026
0.0174805
0.0175692
0.0179512
0.018538
0.0192902
0.020199
0.0212781
0.0225595
0.0240921
0.025942
0.0281912
0.0309306
0.0342382
0.0381293
0.0424504
0.0467509
0.0503316
0.053023
0.0549495
0.0563025
0.0350599
0.0232983
0.0201204
0.0187484
0.0183079
0.0184273
0.018896
0.0196067
0.0205201
0.0216405
0.0230033
0.0246713
0.0267369
0.0293268
0.032605
0.0367592
0.0419396
0.0480787
0.0544413
0.0591318
0.062214
0.064184
0.0654532
0.143705
0.0456079
0.0271261
0.0213469
0.0193951
0.018963
0.0192266
0.0198667
0.0207693
0.0219154
0.0233387
0.0251133
0.0273572
0.0302469
0.0340398
0.0391018
0.0459046
0.0548732
0.0654112
0.0712728
0.0743236
0.0759744
0.0769273
1.53924
0.16908
0.0458212
0.0254242
0.020579
0.0194055
0.0194482
0.0200199
0.0209077
0.0220648
0.0235199
0.0253533
0.0276997
0.030771
0.0349033
0.0406499
0.0489792
0.0617431
0.0828954
0.088333
0.0900928
0.0908091
0.0911644
0.274381
0.223018
0.227325
0.286862
0.116767
0.116754
0.115274
0.111582
0.102045
0.101171
0.0989691
0.0952874
0.104189
0.102378
0.10008
0.0973556
0.110656
0.108048
0.104969
0.101287
0.110905
0.107687
0.103781
0.0993844
0.113791
0.110205
0.10459
0.0983596
0.112316
0.106128
0.0996259
0.0939554
0.102544
0.0970705
0.0920538
0.0875312
0.0917204
0.087632
0.0837221
0.0800115
0.0809011
0.0778924
0.0748723
0.0718945
0.0710784
0.0688513
0.0665612
0.0642612
0.0629593
0.0612852
0.0595572
0.0578134
0.0566154
0.0553372
0.0540257
0.0527046
0.0517258
0.0507397
0.0497361
0.0487285
0.0478953
0.047131
0.0463573
0.0455814
0.0447406
0.044152
0.043557
0.0429591
0.0420072
0.0415609
0.0411087
0.0406522
0.0395552
0.0392248
0.0388885
0.0385463
0.0373197
0.0370836
0.0368412
0.036592
0.0352803
0.0351205
0.0349541
0.0347803
0.03344
0.0333417
0.0332367
0.0331238
0.0318122
0.0317636
0.031708
0.0316442
0.0304129
0.0304051
0.03039
0.0303664
0.0292581
0.0292845
0.0293032
0.029313
0.0283629
0.0284189
0.0284664
0.0285045
0.0277418
0.0278243
0.0278974
0.0279603
0.0274108
0.027518
0.0276147
0.0277
0.0273886
0.0275201
0.0276394
0.0277461
0.0276999
0.0278561
0.0279984
0.0281262
0.0283773
0.02856
0.0287262
0.0288758
0.0294655
0.029677
0.029869
0.0300414
0.0310245
0.0312676
0.0314874
0.0316842
0.0331346
0.0334123
0.0336617
0.0338836
0.0359023
0.0362163
0.0364958
0.0367427
0.0394673
0.0398165
0.0401241
0.040393
0.0440099
0.0443882
0.0447168
0.0450006
0.0497593
0.0501518
0.0504873
0.0507728
0.0569988
0.0573786
0.0576973
0.0579642
0.066068
0.0663945
0.0666631
0.0668844
0.0773591
0.0775822
0.0777624
0.0779086
0.0913143
0.0913897
0.0914497
0.0914979
0.110061
0.0703443
0.0563282
0.0500766
0.0465524
0.0438547
0.0414019
0.0393151
0.0374408
0.0355364
0.0336361
0.0319498
0.0305426
0.029332
0.0283093
0.027545
0.0271635
0.0281856
0.0387836
0.0894825
0.0706868
0.0598106
0.0536469
0.0498263
0.0469032
0.0443489
0.0421818
0.0403145
0.0384729
0.0366846
0.0351539
0.033916
0.0327754
0.0316464
0.0308696
0.030862
0.033024
0.051902
0.086525
0.0734052
0.0636321
0.0576579
0.0537571
0.0505793
0.0476646
0.0451184
0.0429819
0.0410224
0.0394284
0.0383381
0.0375185
0.0364588
0.0350668
0.0339376
0.0340543
0.0377704
0.0666768
0.091919
0.0792634
0.0683421
0.0622411
0.0584395
0.0550055
0.0514397
0.0482218
0.0456615
0.0433019
0.0416833
0.0411276
0.0409641
0.0401655
0.0385652
0.0369101
0.0370013
0.0422187
0.0728579
0.0932015
0.0815054
0.0709367
0.0651169
0.0616517
0.0580111
0.0537268
0.0499042
0.0469837
0.0445926
0.043057
0.0427094
0.0429831
0.0426649
0.0413927
0.0396904
0.039223
0.043598
0.0792084
0.0919519
0.0817369
0.0719429
0.0651128
0.0605115
0.0566702
0.0530762
0.0501336
0.0476848
0.0454761
0.0444219
0.0439156
0.0431026
0.0419207
0.040831
0.0405108
0.0416779
0.0448455
0.0646485
0.0902794
0.0811298
0.0716088
0.0642076
0.0588761
0.0547986
0.0515139
0.0489357
0.0466953
0.044569
0.0434043
0.04321
0.0421877
0.0402399
0.0386377
0.0382222
0.0396386
0.0419976
0.05316
0.0861738
0.077555
0.0692685
0.0623531
0.0569426
0.0527591
0.0496016
0.0470991
0.0449155
0.0429091
0.0413874
0.0404764
0.0395756
0.0383828
0.0369956
0.0362097
0.0366887
0.037809
0.0470053
0.0806579
0.0725586
0.0653062
0.0591911
0.0542278
0.0503891
0.0474828
0.0451035
0.0429731
0.0410272
0.0394001
0.0381037
0.0369162
0.0357603
0.0345724
0.0336169
0.0335696
0.0341571
0.048349
0.0741884
0.0669599
0.0606531
0.0554171
0.0511885
0.0478853
0.0453041
0.0431288
0.041142
0.0392955
0.0376979
0.0363437
0.035071
0.0338224
0.0325179
0.0309884
0.0299739
0.0308594
0.0527646
0.0671922
0.061201
0.0560111
0.0517092
0.0482197
0.0454359
0.0431697
0.041194
0.0393628
0.0376472
0.0361216
0.0347804
0.0335156
0.0322581
0.0308596
0.0290073
0.0271478
0.0271989
0.0450052
0.0606274
0.0559186
0.0518154
0.0483723
0.0455257
0.0431728
0.0411624
0.0393433
0.0376317
0.0360132
0.034522
0.0331405
0.0318125
0.0304803
0.0289639
0.0268705
0.0244174
0.0231556
0.0312621
0.0550625
0.0514559
0.0482682
0.0455296
0.0431907
0.041167
0.03935
0.0376446
0.0360028
0.0344145
0.0328875
0.0314051
0.0299494
0.0284636
0.0267676
0.0245087
0.0218846
0.0202012
0.0240014
0.0506216
0.0478641
0.0453787
0.0431778
0.0412223
0.0394479
0.037781
0.0361623
0.0345602
0.0329643
0.0313718
0.0297749
0.0281777
0.0265362
0.0247272
0.0225486
0.0202729
0.0189508
0.0222517
0.047135
0.0450023
0.0430354
0.0412364
0.0395734
0.0379983
0.0364615
0.0349248
0.0333664
0.0317769
0.030154
0.0285022
0.0268313
0.0251337
0.0233858
0.0215781
0.0200406
0.019798
0.0258319
0.044346
0.0426708
0.0410879
0.0395937
0.0381626
0.0367594
0.0353494
0.0339067
0.0324172
0.030876
0.0292876
0.0276663
0.0260322
0.0244149
0.0228738
0.021541
0.0208118
0.0219094
0.0322358
0.0419965
0.0406701
0.0393859
0.0381374
0.0369037
0.0356583
0.034377
0.0330433
0.0316495
0.0301966
0.0286954
0.0271677
0.0256482
0.0241938
0.0229096
0.0220043
0.0219648
0.0243205
0.0392017
0.0399066
0.038859
0.0378184
0.0367777
0.0357198
0.034625
0.033476
0.0322624
0.0309817
0.0296398
0.0282528
0.0268494
0.0254749
0.0242035
0.0231656
0.0226113
0.0231192
0.0265921
0.0457674
0.0379778
0.0371599
0.0363245
0.0354643
0.0345657
0.0336137
0.0325961
0.0315066
0.0303464
0.0291248
0.027862
0.0265918
0.0253661
0.0242722
0.0234538
0.0231832
0.0241029
0.0284486
0.0517646
0.0361695
0.0355436
0.0348833
0.0341814
0.033427
0.0326086
0.0317173
0.0307499
0.0297102
0.0286096
0.0274716
0.0263352
0.0252573
0.0243292
0.0237033
0.0236689
0.0249245
0.0299537
0.057568
0.0344782
0.0340128
0.033502
0.0329386
0.0323134
0.0316174
0.0308441
0.0299928
0.0290699
0.0280889
0.0270749
0.0260682
0.0251293
0.024353
0.0238973
0.0240663
0.0256115
0.0312981
0.0626581
0.0329207
0.0325888
0.0322045
0.0317607
0.0312495
0.0306641
0.0300001
0.0292584
0.0284462
0.0275787
0.0266824
0.0257981
0.0249882
0.024349
0.0240425
0.0243834
0.0261584
0.032307
0.0662236
0.0315223
0.0313013
0.0310234
0.0306819
0.0302701
0.0297827
0.0292171
0.0285753
0.0278653
0.0271033
0.026316
0.0255447
0.0248519
0.0243343
0.0241558
0.0246373
0.0265844
0.0330187
0.0683735
0.0303111
0.0301813
0.0299918
0.0297366
0.02941
0.0290078
0.0285288
0.027976
0.0273579
0.0266912
0.0260024
0.0253325
0.024743
0.0243301
0.0242574
0.0248482
0.0269164
0.0335105
0.0694177
0.029313
0.029258
0.0291417
0.0289583
0.0287033
0.0283736
0.027969
0.0274933
0.0269555
0.0263722
0.0257695
0.0251873
0.0246858
0.0243595
0.02437
0.0250402
0.0271868
0.0338823
0.0703354
0.0285512
0.0285582
0.028502
0.0283778
0.028182
0.0279126
0.0275703
0.0271594
0.0266894
0.0261763
0.0256458
0.0251363
0.0247063
0.0244479
0.0245203
0.0252446
0.0274426
0.0342459
0.0717373
0.0280473
0.0281063
0.0281
0.0280243
0.0278766
0.0276562
0.0273644
0.0270062
0.026591
0.0261346
0.0256616
0.0252091
0.0248335
0.0246246
0.0247395
0.0254983
0.0277319
0.034651
0.0733603
0.0278232
0.0279271
0.0279623
0.0279262
0.0278172
0.0276355
0.0273834
0.0270662
0.0266933
0.0262801
0.02585
0.0254388
0.025101
0.0249244
0.0250645
0.025842
0.0280976
0.0351162
0.075036
0.0279029
0.0280469
0.0281177
0.028114
0.0280357
0.027884
0.0276619
0.0273751
0.0270329
0.0266502
0.0262493
0.0258645
0.0255487
0.0253884
0.0255384
0.0263216
0.0285874
0.0356767
0.0766253
0.0283158
0.0284968
0.0285988
0.0286221
0.0285681
0.0284389
0.0282387
0.0279732
0.0276517
0.0272883
0.0269044
0.0265326
0.0262246
0.0260658
0.0262117
0.0269881
0.0292524
0.0363652
0.0776841
0.0290984
0.029315
0.0294453
0.0294915
0.0294567
0.0293445
0.0291595
0.0289082
0.0285995
0.0282466
0.0278696
0.0274998
0.0271873
0.0270169
0.0271446
0.0279
0.0301478
0.0372387
0.0782887
0.0302981
0.0305498
0.0307062
0.0307723
0.0307531
0.0306537
0.0304797
0.0302377
0.0299363
0.0295879
0.0292113
0.028836
0.0285103
0.0283177
0.0284149
0.0291358
0.0313591
0.0384829
0.0800543
0.0319762
0.0322625
0.0324435
0.0325272
0.0325211
0.032432
0.0322665
0.0320314
0.0317352
0.0313893
0.0310109
0.0306276
0.0302855
0.0300667
0.0301281
0.0308103
0.0330231
0.0403317
0.0840353
0.0342115
0.0345312
0.0347346
0.0348339
0.0348392
0.0347594
0.0346021
0.0343746
0.034085
0.0337439
0.0333672
0.0329806
0.032628
0.0323897
0.0324239
0.033082
0.0353228
0.0429752
0.0900381
0.0371049
0.0374546
0.0376772
0.0377895
0.0378051
0.0377348
0.0375875
0.0373708
0.037093
0.0367642
0.0363992
0.0360225
0.0356769
0.035442
0.0354792
0.0361568
0.0384993
0.046657
0.0980504
0.0407839
0.0411565
0.0413926
0.0415146
0.0415393
0.0414796
0.0413456
0.0411456
0.0408881
0.0405834
0.0402465
0.0399022
0.0395941
0.0394051
0.0395053
0.0402929
0.0428873
0.0518383
0.108891
0.0454087
0.0457915
0.0460323
0.0461589
0.0461911
0.0461435
0.0460271
0.045851
0.0456245
0.0453587
0.0450705
0.0447875
0.0445588
0.044477
0.0447321
0.0457697
0.0488226
0.0590243
0.124118
0.0511782
0.0515517
0.0517848
0.0519091
0.0519463
0.0519118
0.0518172
0.0516723
0.0514872
0.051275
0.0510557
0.0508631
0.0507575
0.0508525
0.0513776
0.0528573
0.0567455
0.0690578
0.14668
0.0583378
0.058676
0.0588854
0.0589986
0.0590371
0.0590158
0.058946
0.0588375
0.0587014
0.0585527
0.0584151
0.0583304
0.0583751
0.0586962
0.0595927
0.0617366
0.0669883
0.0827766
0.179091
0.0671899
0.0674622
0.0676299
0.067722
0.067757
0.0677473
0.0677028
0.0676326
0.0675473
0.0674625
0.0674042
0.0674191
0.0675972
0.0681198
0.0693752
0.0722702
0.0793782
0.100746
0.225764
0.0781083
0.0782848
0.0783935
0.0784545
0.07848
0.0784786
0.078457
0.078422
0.0783822
0.0783505
0.0783491
0.0784199
0.0786467
0.0792102
0.0805343
0.0837314
0.0922878
0.121693
0.28995
0.0915633
0.091621
0.0916569
0.0916775
0.0916872
0.0916888
0.0916848
0.0916781
0.0916723
0.0916733
0.0916912
0.0917454
0.091876
0.0921751
0.0928851
0.0947816
0.101207
0.139825
0.364222
)
;

boundaryField
{
    leftWall
    {
        type            epsilonWallFunction;
        value           nonuniform List<scalar> 
50
(
0.00458184
0.0105995
0.0189738
0.027521
0.0359515
0.0442418
0.0524046
0.0605784
0.0727513
0.0880073
0.102367
0.120466
0.160575
0.211132
0.229351
0.1983
0.152792
0.115831
0.111059
0.138414
0.171553
0.18318
0.181761
0.17414
0.163081
0.150002
0.135718
0.120603
0.104907
0.0896751
0.0768586
0.0657912
0.0564633
0.0488687
0.0428254
0.0380555
0.0343123
0.0314422
0.0293705
0.0280534
0.0274339
0.0274214
0.0278931
0.0287013
0.0296758
0.0306198
0.0313776
0.0350599
0.143705
1.53924
)
;
    }
    rightWall
    {
        type            epsilonWallFunction;
        value           nonuniform List<scalar> 
50
(
0.00414528
0.00696981
0.0109939
0.0148138
0.0184886
0.0216873
0.0253054
0.0303801
0.0387836
0.051902
0.0666768
0.0728579
0.0792084
0.0646485
0.05316
0.0470053
0.048349
0.0527646
0.0450052
0.0312621
0.0240014
0.0222517
0.0258319
0.0322358
0.0392017
0.0457674
0.0517646
0.057568
0.0626581
0.0662236
0.0683735
0.0694177
0.0703354
0.0717373
0.0733603
0.075036
0.0766253
0.0776841
0.0782887
0.0800543
0.0840353
0.0900381
0.0980504
0.108891
0.124118
0.14668
0.179091
0.225764
0.28995
0.364222
)
;
    }
    lowerWall
    {
        type            epsilonWallFunction;
        value           nonuniform List<scalar> 
62
(
0.00458184
0.0281794
0.0499778
0.0697707
0.0872792
0.102595
0.115832
0.127198
0.136954
0.145344
0.152701
0.158808
0.163508
0.166764
0.168329
0.167271
0.159942
0.147455
0.133373
0.116743
0.0911526
0.052598
0.0132829
0.0132829
0.0207617
0.0322414
0.0430073
0.0544653
0.0703754
0.100884
0.188471
0.274381
0.223018
0.227325
0.286862
0.00946032
0.0182061
0.0319654
0.0478304
0.0671667
0.0939774
0.136368
0.220784
0.00946032
0.0505537
0.0796356
0.0938756
0.0995706
0.100027
0.0935441
0.0783674
0.0631837
0.0609339
0.0643147
0.0633296
0.0593155
0.0605088
0.063889
0.0581382
0.0400921
0.0193555
0.00414528
)
;
    }
    atmosphere
    {
        type            inletOutlet;
        inletValue      uniform 0.1;
        value           nonuniform List<scalar> 
46
(
0.1
0.16908
0.0458212
0.0254242
0.020579
0.0194055
0.0194482
0.0200199
0.0209077
0.0220648
0.0235199
0.0253533
0.0276997
0.030771
0.0349033
0.0406499
0.0489792
0.0617431
0.1
0.1
0.1
0.1
0.1
0.1
0.1
0.1
0.1
0.1
0.1
0.1
0.1
0.1
0.1
0.1
0.1
0.1
0.1
0.1
0.1
0.1
0.1
0.1
0.1
0.1
0.139825
0.364222
)
;
    }
    defaultFaces
    {
        type            empty;
    }
}


// ************************************************************************* //
