/*--------------------------------*- C++ -*----------------------------------*\
  =========                 |
  \\      /  F ield         | OpenFOAM: The Open Source CFD Toolbox
   \\    /   O peration     | Website:  https://openfoam.org
    \\  /    A nd           | Version:  9
     \\/     M anipulation  |
\*---------------------------------------------------------------------------*/
FoamFile
{
    format      ascii;
    class       surfaceScalarField;
    location    "180";
    object      phi;
}
// * * * * * * * * * * * * * * * * * * * * * * * * * * * * * * * * * * * * * //

dimensions      [0 3 -1 0 0 0 0];

internalField   nonuniform List<scalar> 
24170
(
3.129e-06
5.9401e-08
3.04662e-06
8.23825e-08
2.97352e-06
7.30962e-08
2.90488e-06
6.86397e-08
2.84054e-06
6.43376e-08
2.78319e-06
5.73383e-08
2.73385e-06
4.93382e-08
2.69188e-06
4.19699e-08
2.65618e-06
3.56981e-08
2.6257e-06
3.04778e-08
2.59945e-06
2.62424e-08
2.5766e-06
2.28523e-08
2.55646e-06
2.01353e-08
2.53843e-06
1.80256e-08
2.52212e-06
1.63055e-08
2.50628e-06
1.58449e-08
2.49147e-06
1.48018e-08
2.16023e-08
2.46987e-06
3.45306e-06
2.35863e-08
3.457e-06
7.84406e-08
3.45054e-06
7.95583e-08
3.43908e-06
8.00982e-08
3.42429e-06
7.91197e-08
3.40703e-06
7.45913e-08
3.3878e-06
6.85662e-08
3.36726e-06
6.25082e-08
3.3461e-06
5.68609e-08
3.32489e-06
5.16804e-08
3.30413e-06
4.70017e-08
3.28408e-06
4.28951e-08
3.26495e-06
3.92692e-08
3.24675e-06
3.6216e-08
3.22958e-06
3.34764e-08
3.2134e-06
3.2025e-08
3.19856e-06
2.96378e-08
3.27261e-08
3.18744e-06
3.66816e-06
1.79442e-08
3.6792e-06
6.74007e-08
3.68542e-06
7.33334e-08
3.68945e-06
7.60675e-08
3.69104e-06
7.75269e-08
3.69006e-06
7.55639e-08
3.68692e-06
7.17118e-08
3.68206e-06
6.73611e-08
3.67589e-06
6.30284e-08
3.66873e-06
5.88405e-08
3.66085e-06
5.48767e-08
3.65251e-06
5.12402e-08
3.64387e-06
4.79053e-08
3.6351e-06
4.49825e-08
3.62624e-06
4.23306e-08
3.61774e-06
4.05299e-08
3.60889e-06
3.84844e-08
3.87771e-08
3.60284e-06
3.92585e-06
1.74846e-08
3.93591e-06
5.73319e-08
3.94256e-06
6.66849e-08
3.9481e-06
7.0531e-08
3.9525e-06
7.31181e-08
3.95544e-06
7.26234e-08
3.9571e-06
7.00519e-08
3.95772e-06
6.67403e-08
3.95748e-06
6.32582e-08
3.95655e-06
5.97753e-08
3.95504e-06
5.63836e-08
3.95308e-06
5.31988e-08
3.95075e-06
5.02281e-08
3.94817e-06
4.75671e-08
3.94535e-06
4.51502e-08
3.9426e-06
4.32725e-08
3.93962e-06
4.14646e-08
4.05188e-08
3.93788e-06
4.2082e-06
1.64131e-08
4.21598e-06
4.95491e-08
4.22167e-06
6.09906e-08
4.22677e-06
6.54309e-08
4.23151e-06
6.83765e-08
4.23547e-06
6.86607e-08
4.23863e-06
6.68948e-08
4.24109e-06
6.42778e-08
4.24296e-06
6.13846e-08
4.24433e-06
5.84036e-08
4.24528e-06
5.5435e-08
4.24588e-06
5.25922e-08
4.2462e-06
4.99079e-08
4.24631e-06
4.74558e-08
4.24625e-06
4.52123e-08
4.2462e-06
4.3313e-08
4.24612e-06
4.15455e-08
4.00678e-08
4.24657e-06
4.51071e-06
1.47913e-08
4.51688e-06
4.33782e-08
4.52212e-06
5.57456e-08
4.52693e-06
6.06193e-08
4.53163e-06
6.36709e-08
4.53587e-06
6.4421e-08
4.53953e-06
6.32326e-08
4.54268e-06
6.1131e-08
4.54538e-06
5.86798e-08
4.5477e-06
5.60799e-08
4.54969e-06
5.3441e-08
4.55142e-06
5.08688e-08
4.55291e-06
4.84127e-08
4.55424e-06
4.61266e-08
4.55544e-06
4.40071e-08
4.55665e-06
4.21046e-08
4.55788e-06
4.0308e-08
3.85742e-08
4.55938e-06
4.83433e-06
1.31823e-08
4.83962e-06
3.8083e-08
4.84474e-06
5.0625e-08
4.84944e-06
5.59215e-08
4.85406e-06
5.90454e-08
4.85837e-06
6.01131e-08
4.86223e-06
5.93722e-08
4.86568e-06
5.76807e-08
4.86877e-06
5.55824e-08
4.87156e-06
5.32897e-08
4.87408e-06
5.092e-08
4.87637e-06
4.85719e-08
4.87848e-06
4.63029e-08
4.88046e-06
4.41535e-08
4.88233e-06
4.21275e-08
4.8842e-06
4.02335e-08
4.88611e-06
3.84019e-08
3.65463e-08
4.88814e-06
5.18105e-06
1.17169e-08
5.18575e-06
3.33792e-08
5.19074e-06
4.5627e-08
5.19539e-06
5.12759e-08
5.19996e-06
5.44672e-08
5.20431e-06
5.57635e-08
5.20829e-06
5.53879e-08
5.21193e-06
5.40445e-08
5.21526e-06
5.22467e-08
5.21833e-06
5.02175e-08
5.22117e-06
4.80789e-08
5.22382e-06
4.5925e-08
5.2263e-06
4.38156e-08
5.22867e-06
4.17841e-08
5.23096e-06
3.98358e-08
5.23323e-06
3.79627e-08
5.23552e-06
3.61144e-08
3.4216e-08
5.23785e-06
5.55269e-06
1.03627e-08
5.55688e-06
2.91857e-08
5.56168e-06
4.08245e-08
5.56628e-06
4.66737e-08
5.57084e-06
4.99107e-08
5.57523e-06
5.13683e-08
5.57932e-06
5.1295e-08
5.58311e-06
5.02581e-08
5.58663e-06
4.87281e-08
5.58991e-06
4.69354e-08
5.59298e-06
4.50046e-08
5.59588e-06
4.30263e-08
5.59863e-06
4.10603e-08
5.60128e-06
3.9137e-08
5.60385e-06
3.72624e-08
5.60639e-06
3.54248e-08
5.60891e-06
3.35868e-08
3.16996e-08
5.61143e-06
5.95104e-06
9.10075e-09
5.95478e-06
2.5441e-08
5.95935e-06
3.62559e-08
5.96389e-06
4.21245e-08
5.96843e-06
4.53713e-08
5.97286e-06
4.69332e-08
5.97705e-06
4.71029e-08
5.98098e-06
4.63351e-08
5.98465e-06
4.50478e-08
5.98812e-06
4.34719e-08
5.99139e-06
4.17336e-08
5.99449e-06
3.99201e-08
5.99746e-06
3.80898e-08
6.00032e-06
3.62726e-08
6.00311e-06
3.44763e-08
6.00584e-06
3.26918e-08
6.00853e-06
3.08934e-08
2.90563e-08
6.01117e-06
6.37798e-06
7.93072e-09
6.38134e-06
2.20806e-08
6.38566e-06
3.1932e-08
6.39014e-06
3.7645e-08
6.39465e-06
4.08547e-08
6.39912e-06
4.24702e-08
6.40339e-06
4.2824e-08
6.40744e-06
4.2286e-08
6.41127e-06
4.12173e-08
6.4149e-06
3.98414e-08
6.41835e-06
3.8284e-08
6.42164e-06
3.66288e-08
6.42479e-06
3.4932e-08
6.42784e-06
3.32243e-08
6.4308e-06
3.15163e-08
6.43368e-06
2.98044e-08
6.4365e-06
2.80731e-08
2.63171e-08
6.43924e-06
5.74176e-06
7.00548e-09
5.74434e-06
1.94994e-08
5.7478e-06
2.84659e-08
5.75152e-06
3.39217e-08
5.75532e-06
3.70579e-08
5.7591e-06
3.86848e-08
5.76278e-06
3.91492e-08
5.76629e-06
3.8773e-08
5.76963e-06
3.78704e-08
5.77282e-06
3.66515e-08
5.77586e-06
3.52393e-08
5.77878e-06
3.37144e-08
5.78158e-06
3.21315e-08
5.78428e-06
3.05216e-08
5.78689e-06
2.88983e-08
5.78943e-06
2.7263e-08
5.7919e-06
2.56077e-08
2.394e-08
5.79428e-06
6.99914e-06
6.0229e-09
7.00187e-06
1.67682e-08
7.00563e-06
2.4705e-08
7.00979e-06
2.97594e-08
7.0141e-06
3.27434e-08
7.01844e-06
3.43371e-08
7.02271e-06
3.48825e-08
7.02683e-06
3.4655e-08
7.03078e-06
3.3919e-08
7.03456e-06
3.28654e-08
7.03819e-06
3.16113e-08
7.04167e-06
3.02332e-08
7.04501e-06
2.8783e-08
7.04824e-06
2.72928e-08
7.05136e-06
2.57788e-08
7.05437e-06
2.42482e-08
7.05728e-06
2.26994e-08
2.11505e-08
7.06007e-06
8.53188e-06
4.99068e-09
8.53473e-06
1.3914e-08
8.53876e-06
2.06766e-08
8.54335e-06
2.5165e-08
8.5482e-06
2.78923e-08
8.55315e-06
2.9389e-08
8.55806e-06
2.99686e-08
8.56285e-06
2.98627e-08
8.56748e-06
2.92849e-08
8.57194e-06
2.83997e-08
8.57624e-06
2.73147e-08
8.58037e-06
2.61005e-08
8.58435e-06
2.48055e-08
8.58818e-06
2.34616e-08
8.59187e-06
2.20878e-08
8.59542e-06
2.06958e-08
8.59883e-06
1.92898e-08
1.78937e-08
8.60208e-06
1.04003e-05
3.9177e-09
1.04032e-05
1.09561e-08
1.04075e-05
1.64022e-08
1.04125e-05
2.01464e-08
1.04179e-05
2.24872e-08
1.04235e-05
2.38024e-08
1.04291e-05
2.43527e-08
1.04347e-05
2.43258e-08
1.04401e-05
2.38861e-08
1.04453e-05
2.31662e-08
1.04504e-05
2.22588e-08
1.04552e-05
2.1226e-08
1.04599e-05
2.01116e-08
1.04644e-05
1.89453e-08
1.04688e-05
1.77479e-08
1.04729e-05
1.65334e-08
1.04769e-05
1.53101e-08
1.41041e-08
1.04807e-05
1.26779e-05
2.80874e-09
1.2681e-05
7.88848e-09
1.26855e-05
1.18794e-08
1.26909e-05
1.4697e-08
1.26969e-05
1.64997e-08
1.27032e-05
1.75271e-08
1.27096e-05
1.79693e-08
1.27159e-05
1.79654e-08
1.27222e-05
1.76329e-08
1.27283e-05
1.70687e-08
1.27342e-05
1.63449e-08
1.27399e-05
1.55118e-08
1.27454e-05
1.46053e-08
1.27507e-05
1.3652e-08
1.27558e-05
1.26707e-08
1.27606e-05
1.16764e-08
1.27653e-05
1.06778e-08
9.70123e-09
1.27697e-05
1.54543e-05
1.65272e-09
1.54576e-05
4.66458e-09
1.54624e-05
7.04977e-09
1.54683e-05
8.75585e-09
1.5475e-05
9.8547e-09
1.5482e-05
1.04718e-08
1.54893e-05
1.07166e-08
1.54966e-05
1.0673e-08
1.55038e-05
1.0411e-08
1.55109e-05
9.9899e-09
1.55177e-05
9.45569e-09
1.55244e-05
8.8423e-09
1.55308e-05
8.17485e-09
1.5537e-05
7.47268e-09
1.55429e-05
6.75067e-09
1.55486e-05
6.02115e-09
1.5554e-05
5.29169e-09
4.58513e-09
1.55591e-05
1.88389e-05
4.09364e-10
1.88424e-05
1.15922e-09
1.88477e-05
1.73883e-09
1.88543e-05
2.13096e-09
1.88618e-05
2.35342e-09
1.88698e-05
2.43423e-09
1.88782e-05
2.39517e-09
1.88866e-05
2.25585e-09
1.8895e-05
2.03607e-09
1.89032e-05
1.75383e-09
1.89112e-05
1.42398e-09
1.8919e-05
1.0588e-09
1.89265e-05
6.68718e-10
1.89337e-05
2.62725e-10
1.89406e-05
-1.51499e-10
1.89472e-05
-5.66832e-10
1.89535e-05
-9.79047e-10
-1.37064e-09
1.89594e-05
2.29648e-05
-1.02295e-09
2.29688e-05
-2.91728e-09
2.29751e-05
-4.47358e-09
2.29828e-05
-5.65459e-09
2.29917e-05
-6.4825e-09
2.30011e-05
-7.04345e-09
2.3011e-05
-7.42495e-09
2.30209e-05
-7.68161e-09
2.30308e-05
-7.85054e-09
2.30405e-05
-7.96293e-09
2.305e-05
-8.04303e-09
2.30591e-05
-8.10527e-09
2.30679e-05
-8.158e-09
2.30764e-05
-8.20536e-09
2.30845e-05
-8.24968e-09
2.30922e-05
-8.29073e-09
2.30996e-05
-8.32925e-09
-8.35422e-09
2.31066e-05
1.68118e-05
-2.1477e-09
1.6815e-05
-6.09273e-09
1.68198e-05
-9.3109e-09
1.68258e-05
-1.16625e-08
1.68326e-05
-1.32079e-08
1.68397e-05
-1.41752e-08
1.6847e-05
-1.47515e-08
1.68544e-05
-1.50411e-08
1.68616e-05
-1.51227e-08
1.68687e-05
-1.5069e-08
1.68756e-05
-1.49323e-08
1.68823e-05
-1.47462e-08
1.68886e-05
-1.45309e-08
1.68947e-05
-1.43008e-08
1.69006e-05
-1.40639e-08
1.69061e-05
-1.38254e-08
1.69113e-05
-1.35878e-08
-1.3345e-08
1.69163e-05
1.46356e-05
-3.22791e-09
1.46387e-05
-9.18413e-09
1.46435e-05
-1.40322e-08
1.46492e-05
-1.74159e-08
1.46555e-05
-1.95073e-08
1.46621e-05
-2.07561e-08
1.46688e-05
-2.14324e-08
1.46754e-05
-2.16721e-08
1.46819e-05
-2.16068e-08
1.46882e-05
-2.13526e-08
1.46942e-05
-2.09855e-08
1.47e-05
-2.05501e-08
1.47055e-05
-2.00767e-08
1.47108e-05
-1.95863e-08
1.47159e-05
-1.90922e-08
1.47206e-05
-1.86015e-08
1.47252e-05
-1.81194e-08
-1.76411e-08
1.47295e-05
1.27411e-05
-4.23934e-09
1.27443e-05
-1.23158e-08
1.27491e-05
-1.88692e-08
1.27548e-05
-2.30706e-08
1.27607e-05
-2.54989e-08
1.27669e-05
-2.69276e-08
1.27731e-05
-2.76197e-08
1.27792e-05
-2.77245e-08
1.2785e-05
-2.74491e-08
1.27906e-05
-2.69591e-08
1.2796e-05
-2.63439e-08
1.28011e-05
-2.56552e-08
1.28059e-05
-2.49302e-08
1.28105e-05
-2.41941e-08
1.28149e-05
-2.34628e-08
1.2819e-05
-2.27438e-08
1.28229e-05
-2.20424e-08
-2.13553e-08
1.28267e-05
1.10918e-05
-5.08454e-09
1.1095e-05
-1.55412e-08
1.11001e-05
-2.40004e-08
1.11058e-05
-2.87025e-08
1.11115e-05
-3.12435e-08
1.11173e-05
-3.27522e-08
1.11231e-05
-3.336e-08
1.11286e-05
-3.32493e-08
1.11339e-05
-3.27225e-08
1.11389e-05
-3.1977e-08
1.11436e-05
-3.11046e-08
1.11481e-05
-3.01621e-08
1.11524e-05
-2.91924e-08
1.11564e-05
-2.82243e-08
1.11602e-05
-2.72725e-08
1.11638e-05
-2.63456e-08
1.11672e-05
-2.54468e-08
-2.45744e-08
1.11704e-05
9.65582e-06
-5.69284e-09
9.65925e-06
-1.89682e-08
9.6646e-06
-2.93503e-08
9.6701e-06
-3.42052e-08
9.67566e-06
-3.68089e-08
9.68123e-06
-3.83197e-08
9.68657e-06
-3.87019e-08
9.6916e-06
-3.82868e-08
9.69635e-06
-3.74774e-08
9.70084e-06
-3.64678e-08
9.70507e-06
-3.5337e-08
9.70905e-06
-3.41444e-08
9.7128e-06
-3.29376e-08
9.71632e-06
-3.1746e-08
9.71963e-06
-3.05847e-08
9.72274e-06
-2.94605e-08
9.72567e-06
-2.83757e-08
-2.73264e-08
9.72842e-06
8.40532e-06
-5.66435e-09
8.40964e-06
-2.32855e-08
8.41488e-06
-3.4589e-08
8.41991e-06
-3.92376e-08
8.42528e-06
-4.21805e-08
8.43069e-06
-4.3734e-08
8.43578e-06
-4.37944e-08
8.44049e-06
-4.30002e-08
8.44487e-06
-4.18542e-08
8.44893e-06
-4.05325e-08
8.4527e-06
-3.91048e-08
8.45618e-06
-3.76336e-08
8.45941e-06
-3.61683e-08
8.4624e-06
-3.47365e-08
8.46517e-06
-3.33534e-08
8.46773e-06
-3.20251e-08
8.47011e-06
-3.07535e-08
-2.9535e-08
8.47232e-06
7.31455e-06
-2.92732e-09
7.32119e-06
-2.99309e-08
7.32674e-06
-4.01431e-08
7.3317e-06
-4.41929e-08
7.3371e-06
-4.75828e-08
7.34242e-06
-4.906e-08
7.3473e-06
-4.86778e-08
7.35172e-06
-4.74189e-08
7.3557e-06
-4.5838e-08
7.35926e-06
-4.40941e-08
7.36243e-06
-4.22671e-08
7.36522e-06
-4.04303e-08
7.36769e-06
-3.86358e-08
7.36986e-06
-3.69078e-08
7.37176e-06
-3.52615e-08
7.37344e-06
-3.36997e-08
7.3749e-06
-3.22226e-08
-3.08209e-08
7.37619e-06
6.36245e-06
4.68798e-09
6.37189e-06
-3.93745e-08
6.37932e-06
-4.75728e-08
6.38596e-06
-5.08371e-08
6.39225e-06
-5.38685e-08
6.39756e-06
-5.43771e-08
6.40186e-06
-5.2977e-08
6.40535e-06
-5.09042e-08
6.40815e-06
-4.86427e-08
6.41034e-06
-4.62837e-08
6.41197e-06
-4.39045e-08
6.41312e-06
-4.15819e-08
6.41385e-06
-3.93669e-08
6.41422e-06
-3.72775e-08
6.41429e-06
-3.53275e-08
6.4141e-06
-3.3513e-08
6.41371e-06
-3.18348e-08
-3.02733e-08
6.41316e-06
5.5412e-06
8.94979e-09
5.55033e-06
-4.84992e-08
5.55834e-06
-5.55934e-08
5.56605e-06
-5.85421e-08
5.57251e-06
-6.03335e-08
5.57684e-06
-5.87054e-08
5.57908e-06
-5.52224e-08
5.57964e-06
-5.14677e-08
5.57889e-06
-4.78935e-08
5.57711e-06
-4.4503e-08
5.57452e-06
-4.13152e-08
5.57131e-06
-3.83726e-08
5.56763e-06
-3.56834e-08
5.56359e-06
-3.32394e-08
5.5593e-06
-3.10375e-08
5.55484e-06
-2.90607e-08
5.55032e-06
-2.73108e-08
-2.57386e-08
5.54578e-06
4.86004e-06
-2.34868e-08
4.86539e-06
-5.3843e-08
4.86524e-06
-5.54501e-08
4.86217e-06
-5.54755e-08
4.857e-06
-5.51663e-08
4.8495e-06
-5.12082e-08
4.83981e-06
-4.55298e-08
4.82842e-06
-4.00782e-08
4.81585e-06
-3.5324e-08
4.80257e-06
-3.12288e-08
4.78898e-06
-2.77213e-08
4.77534e-06
-2.47388e-08
4.76186e-06
-2.22034e-08
4.74866e-06
-2.00441e-08
4.73584e-06
-1.82146e-08
4.72346e-06
-1.66816e-08
4.71163e-06
-1.54833e-08
-1.51389e-08
4.70103e-06
4.17919e-06
4.12535e-06
4.0699e-06
4.01442e-06
3.95925e-06
3.90805e-06
3.86252e-06
3.82244e-06
3.78711e-06
3.75588e-06
3.72816e-06
3.70342e-06
3.68122e-06
3.66118e-06
3.64296e-06
3.62628e-06
3.61079e-06
3.59566e-06
1.62703e-08
-1.63369e-08
3.00592e-08
-1.38855e-08
3.66584e-08
-6.66778e-09
3.57842e-08
8.05529e-10
2.85054e-08
7.22807e-09
1.62531e-08
1.21938e-08
4.10637e-10
1.58023e-08
-1.79937e-08
1.83531e-08
-3.81808e-08
2.01552e-08
-5.96569e-08
2.14316e-08
-8.2045e-08
2.23619e-08
-1.05154e-07
2.30697e-08
-1.28821e-07
2.36448e-08
-1.53016e-07
2.41587e-08
-1.77723e-07
2.46894e-08
-2.03066e-07
2.53099e-08
-2.29153e-07
2.60723e-08
-2.56209e-07
2.70243e-08
-2.84402e-07
2.81782e-08
-3.13872e-07
2.94395e-08
-3.4469e-07
3.08037e-08
-3.75617e-07
3.08954e-08
-4.04374e-07
2.87411e-08
-4.32342e-07
2.79364e-08
-4.62201e-07
2.98409e-08
-4.93991e-07
3.17586e-08
-5.27888e-07
3.38774e-08
-5.64753e-07
3.68335e-08
-6.0621e-07
4.14372e-08
-6.54923e-07
4.8676e-08
-6.99009e-07
4.40614e-08
-7.35716e-07
3.66664e-08
-7.78316e-07
4.2578e-08
-8.19311e-07
4.0961e-08
-8.59213e-07
3.98854e-08
-9.01369e-07
4.21283e-08
-9.43878e-07
4.24944e-08
-9.86572e-07
4.26683e-08
-1.02935e-06
4.27646e-08
-1.07218e-06
4.28019e-08
-1.11497e-06
4.27751e-08
-1.15769e-06
4.26988e-08
-1.20029e-06
4.25862e-08
-1.24276e-06
4.24468e-08
-1.28506e-06
4.22889e-08
-1.3272e-06
4.2116e-08
-1.36914e-06
4.19318e-08
-1.4109e-06
4.17366e-08
-1.45245e-06
4.15313e-08
-1.49379e-06
4.13143e-08
-1.53489e-06
4.10853e-08
-1.57576e-06
4.08414e-08
-1.61636e-06
4.05816e-08
-1.65669e-06
4.0303e-08
-1.69672e-06
4.00042e-08
-1.73644e-06
3.96818e-08
-1.7758e-06
3.93344e-08
-1.81479e-06
3.8959e-08
-1.85337e-06
3.85544e-08
-1.89152e-06
3.8117e-08
-1.9292e-06
3.76462e-08
-1.96637e-06
3.71389e-08
-2.00299e-06
3.65945e-08
-2.03903e-06
3.601e-08
-2.07445e-06
3.53853e-08
-2.1092e-06
3.47178e-08
-2.14323e-06
3.40076e-08
-2.17651e-06
3.32529e-08
-2.20899e-06
3.2454e-08
-2.24064e-06
3.16094e-08
-2.27138e-06
3.07201e-08
-2.3012e-06
2.97848e-08
-2.33003e-06
2.88047e-08
-2.35784e-06
2.77792e-08
-2.38458e-06
2.67098e-08
-2.41022e-06
2.55959e-08
-2.4347e-06
2.44399e-08
-2.45798e-06
2.32425e-08
-2.48003e-06
2.20057e-08
-2.50081e-06
2.07301e-08
-2.52027e-06
1.94181e-08
-2.53839e-06
1.80712e-08
-2.55512e-06
1.66923e-08
-2.57046e-06
1.5282e-08
-2.58435e-06
1.38424e-08
-2.59678e-06
1.23739e-08
-2.60771e-06
1.08778e-08
-2.61711e-06
9.3526e-09
-2.62496e-06
7.7987e-09
-2.63122e-06
6.20483e-09
-2.63585e-06
4.56305e-09
-2.63878e-06
2.85584e-09
-2.63995e-06
1.08146e-09
-2.63935e-06
-6.96282e-10
-2.63716e-06
-2.28142e-09
-2.6336e-06
-3.65591e-09
-2.62874e-06
-4.95767e-09
-2.62262e-06
-6.21882e-09
-2.61527e-06
-7.44599e-09
-2.60671e-06
-8.64433e-09
-2.59699e-06
-9.81137e-09
-2.58612e-06
-1.09474e-08
-2.57415e-06
-1.2051e-08
-2.56111e-06
-1.31211e-08
-2.54702e-06
-1.41565e-08
-2.53194e-06
-1.51562e-08
-2.51589e-06
-1.61203e-08
-2.49892e-06
-1.70485e-08
-2.48106e-06
-1.79418e-08
-2.46234e-06
-1.88011e-08
-2.4428e-06
-1.96274e-08
-2.42247e-06
-2.04227e-08
-2.40138e-06
-2.11877e-08
-2.37956e-06
-2.1927e-08
-2.35703e-06
-2.26414e-08
-2.33382e-06
-2.33373e-08
-2.30993e-06
-2.40126e-08
-2.28539e-06
-2.46745e-08
-2.26019e-06
-2.53241e-08
-2.23436e-06
-2.59786e-08
-2.20788e-06
-2.66446e-08
-2.18076e-06
-2.7337e-08
-2.15294e-06
-2.80458e-08
-2.12442e-06
-2.87842e-08
-2.09511e-06
-2.95372e-08
-2.06502e-06
-3.03331e-08
-2.03405e-06
-3.11609e-08
-2.00218e-06
-3.20579e-08
-1.9693e-06
-3.30076e-08
-1.93537e-06
-3.40467e-08
-1.90027e-06
-3.51521e-08
-1.86393e-06
-3.63692e-08
-1.8262e-06
-3.76809e-08
-1.787e-06
-3.91282e-08
-1.74616e-06
-4.06793e-08
-1.70359e-06
-4.23685e-08
-1.65912e-06
-4.41796e-08
-1.61262e-06
-4.6153e-08
-1.56392e-06
-4.82684e-08
-1.51289e-06
-5.05487e-08
-1.45942e-06
-5.29714e-08
-1.4034e-06
-5.55413e-08
-1.34467e-06
-5.82734e-08
-1.28308e-06
-6.11487e-08
-1.21855e-06
-6.41403e-08
-1.15097e-06
-6.71995e-08
-1.08031e-06
-7.03319e-08
-1.00649e-06
-7.35203e-08
-9.29486e-07
-7.67432e-08
-8.49301e-07
-7.99635e-08
-7.65956e-07
-8.31676e-08
-6.79492e-07
-8.63255e-08
-5.89971e-07
-8.9424e-08
-4.97489e-07
-9.24266e-08
-4.02169e-07
-9.53036e-08
-3.0422e-07
-9.79729e-08
-2.03788e-07
-1.00493e-07
-1.00688e-07
-1.03199e-07
5.66343e-09
-1.06479e-07
1.14952e-07
-1.09441e-07
2.25775e-07
-1.10991e-07
3.37122e-07
-1.11532e-07
4.48282e-07
-1.11351e-07
5.58615e-07
-1.10535e-07
6.67568e-07
-1.09154e-07
7.74613e-07
-1.07252e-07
8.79303e-07
-1.0489e-07
9.81211e-07
-1.02107e-07
1.07999e-06
-9.89692e-08
1.1753e-06
-9.54966e-08
1.26685e-06
-9.1726e-08
1.35434e-06
-8.76648e-08
1.43744e-06
-8.3261e-08
1.51571e-06
-7.84276e-08
1.58852e-06
-7.29554e-08
1.65478e-06
-6.64165e-08
1.71204e-06
-5.74055e-08
1.75548e-06
-4.35701e-08
1.76506e-06
-9.69503e-09
6.41255e-08
1.70085e-06
7.90345e-09
-2.42966e-08
7.47359e-09
-1.35203e-08
2.20353e-09
-1.43678e-09
-6.48176e-09
9.45581e-09
-1.81808e-08
1.89007e-08
-3.2813e-08
2.67975e-08
-5.02114e-08
3.31787e-08
-7.00993e-08
3.8215e-08
-9.2117e-08
4.21535e-08
-1.15963e-07
4.52537e-08
-1.41369e-07
4.77501e-08
-1.6816e-07
4.98374e-08
-1.96203e-07
5.16723e-08
-2.2545e-07
5.33846e-08
-2.55864e-07
5.50896e-08
-2.87464e-07
5.68896e-08
-3.20266e-07
5.88619e-08
-3.54302e-07
6.10419e-08
-3.89537e-07
6.34014e-08
-4.25915e-07
6.57998e-08
-4.63116e-07
6.79932e-08
-5.01766e-07
6.95276e-08
-5.43362e-07
7.03244e-08
-5.86979e-07
7.15351e-08
-6.30856e-07
7.37043e-08
-6.75282e-07
7.61649e-08
-7.20151e-07
7.87315e-08
-7.6486e-07
8.15226e-08
-8.08044e-07
8.46049e-08
-8.46534e-07
8.71459e-08
-8.89014e-07
8.65245e-08
-9.36933e-07
8.45659e-08
-9.7911e-07
8.47405e-08
-1.02231e-06
8.41441e-08
-1.06599e-06
8.35498e-08
-1.10754e-06
8.36657e-08
-1.14862e-06
8.35651e-08
-1.18928e-06
8.33125e-08
-1.22951e-06
8.29864e-08
-1.26934e-06
8.26205e-08
-1.3088e-06
8.2223e-08
-1.34791e-06
8.17994e-08
-1.38669e-06
8.13546e-08
-1.42515e-06
8.08922e-08
-1.46329e-06
8.04152e-08
-1.50111e-06
7.99244e-08
-1.5386e-06
7.94198e-08
-1.57578e-06
7.88998e-08
-1.61262e-06
7.83622e-08
-1.64912e-06
7.78037e-08
-1.68527e-06
7.7221e-08
-1.72105e-06
7.66098e-08
-1.75645e-06
7.59662e-08
-1.79145e-06
7.52859e-08
-1.82603e-06
7.45648e-08
-1.86016e-06
7.37983e-08
-1.89383e-06
7.29828e-08
-1.927e-06
7.2114e-08
-1.95966e-06
7.11883e-08
-1.99176e-06
7.0202e-08
-2.02329e-06
6.91521e-08
-2.0542e-06
6.80353e-08
-2.08448e-06
6.68489e-08
-2.11408e-06
6.55902e-08
-2.14297e-06
6.42573e-08
-2.17112e-06
6.28481e-08
-2.19849e-06
6.13614e-08
-2.22505e-06
5.97957e-08
-2.25077e-06
5.81506e-08
-2.2756e-06
5.64255e-08
-2.29952e-06
5.46204e-08
-2.32249e-06
5.27355e-08
-2.34448e-06
5.07716e-08
-2.36545e-06
4.87293e-08
-2.38537e-06
4.66101e-08
-2.40421e-06
4.44157e-08
-2.42195e-06
4.21486e-08
-2.43854e-06
3.98113e-08
-2.45397e-06
3.74068e-08
-2.46821e-06
3.4938e-08
-2.48123e-06
3.24089e-08
-2.49301e-06
2.98232e-08
-2.50353e-06
2.71849e-08
-2.51278e-06
2.44979e-08
-2.52074e-06
2.17667e-08
-2.52739e-06
1.89952e-08
-2.53273e-06
1.61882e-08
-2.53676e-06
1.33513e-08
-2.53949e-06
1.04891e-08
-2.54092e-06
7.60896e-09
-2.54112e-06
4.71614e-09
-2.54015e-06
1.82882e-09
-2.5381e-06
-1.01931e-09
-2.53507e-06
-3.78224e-09
-2.53097e-06
-6.44612e-09
-2.52565e-06
-9.03837e-09
-2.51909e-06
-1.15743e-08
-2.51131e-06
-1.40564e-08
-2.50233e-06
-1.64827e-08
-2.49218e-06
-1.88524e-08
-2.48088e-06
-2.11619e-08
-2.46847e-06
-2.341e-08
-2.45497e-06
-2.55952e-08
-2.44043e-06
-2.77154e-08
-2.42486e-06
-2.9769e-08
-2.4083e-06
-3.17545e-08
-2.3908e-06
-3.36724e-08
-2.37237e-06
-3.55226e-08
-2.35306e-06
-3.73074e-08
-2.33288e-06
-3.9028e-08
-2.31188e-06
-4.06879e-08
-2.29007e-06
-4.22893e-08
-2.26748e-06
-4.38371e-08
-2.24414e-06
-4.53354e-08
-2.22006e-06
-4.67913e-08
-2.19526e-06
-4.82104e-08
-2.16976e-06
-4.95994e-08
-2.14354e-06
-5.0964e-08
-2.11663e-06
-5.23176e-08
-2.08902e-06
-5.36788e-08
-2.0607e-06
-5.50678e-08
-2.03167e-06
-5.64995e-08
-2.00189e-06
-5.79796e-08
-1.97131e-06
-5.95147e-08
-1.93989e-06
-6.11099e-08
-1.90758e-06
-6.27858e-08
-1.87431e-06
-6.45558e-08
-1.84002e-06
-6.64501e-08
-1.80464e-06
-6.84803e-08
-1.76808e-06
-7.06728e-08
-1.73024e-06
-7.30306e-08
-1.69103e-06
-7.55911e-08
-1.65032e-06
-7.837e-08
-1.608e-06
-8.14009e-08
-1.56391e-06
-8.46773e-08
-1.51793e-06
-8.82213e-08
-1.4699e-06
-9.20405e-08
-1.41968e-06
-9.61683e-08
-1.36708e-06
-1.0061e-07
-1.31199e-06
-1.05364e-07
-1.25425e-06
-1.10431e-07
-1.1937e-06
-1.15821e-07
-1.13019e-06
-1.21529e-07
-1.06359e-06
-1.27518e-07
-9.93768e-07
-1.33745e-07
-9.2061e-07
-1.40162e-07
-8.44032e-07
-1.46734e-07
-7.63989e-07
-1.5341e-07
-6.80463e-07
-1.60135e-07
-5.93465e-07
-1.66854e-07
-5.03037e-07
-1.73507e-07
-4.09263e-07
-1.80039e-07
-3.12254e-07
-1.86389e-07
-2.1217e-07
-1.92496e-07
-1.09133e-07
-1.98339e-07
-3.2256e-09
-2.03907e-07
1.05241e-07
-2.08997e-07
2.1558e-07
-2.136e-07
3.26623e-07
-2.17589e-07
4.3755e-07
-2.20458e-07
5.48322e-07
-2.21855e-07
6.58619e-07
-2.2194e-07
7.67993e-07
-2.20836e-07
8.75989e-07
-2.18656e-07
9.82183e-07
-2.15471e-07
1.08618e-06
-2.11376e-07
1.18761e-06
-2.06452e-07
1.28616e-06
-2.00792e-07
1.38153e-06
-1.94466e-07
1.47345e-06
-1.87542e-07
1.56165e-06
-1.80051e-07
1.64587e-06
-1.72005e-07
1.7258e-06
-1.6331e-07
1.80106e-06
-1.53806e-07
1.87108e-06
-1.43081e-07
1.93488e-06
-1.30332e-07
1.99078e-06
-1.13416e-07
2.0357e-06
-8.85898e-08
2.06863e-06
-4.27164e-08
4.79928e-08
2.08469e-06
-4.31017e-09
-2.00289e-08
-1.46079e-08
-3.26502e-09
-2.72425e-08
1.11734e-08
-4.1491e-08
2.36829e-08
-5.72316e-08
3.46248e-08
-7.45809e-08
4.41285e-08
-9.36795e-08
5.22629e-08
-1.14614e-07
5.91321e-08
-1.37371e-07
6.48972e-08
-1.61891e-07
6.97563e-08
-1.88069e-07
7.39152e-08
-2.15815e-07
7.75667e-08
-2.45034e-07
8.08801e-08
-2.75665e-07
8.40001e-08
-3.07634e-07
8.70474e-08
-3.40877e-07
9.0118e-08
-3.753e-07
9.32753e-08
-4.10803e-07
9.65323e-08
-4.47251e-07
9.98409e-08
-4.8454e-07
1.03076e-07
-5.22609e-07
1.06054e-07
-5.61695e-07
1.08602e-07
-6.02089e-07
1.10711e-07
-6.43293e-07
1.12726e-07
-6.84447e-07
1.1485e-07
-7.25253e-07
1.16959e-07
-7.65479e-07
1.18947e-07
-8.0474e-07
1.20771e-07
-8.42462e-07
1.22317e-07
-8.78645e-07
1.23315e-07
-9.15413e-07
1.23282e-07
-9.5347e-07
1.2261e-07
-9.90815e-07
1.22075e-07
-1.0281e-06
1.21417e-07
-1.06534e-06
1.20783e-07
-1.10197e-06
1.20283e-07
-1.13814e-06
1.19728e-07
-1.17396e-06
1.19122e-07
-1.20947e-06
1.18485e-07
-1.24468e-06
1.17829e-07
-1.27963e-06
1.1716e-07
-1.31432e-06
1.16481e-07
-1.34876e-06
1.15792e-07
-1.38297e-06
1.15093e-07
-1.41695e-06
1.14381e-07
-1.45068e-06
1.13655e-07
-1.48418e-06
1.12911e-07
-1.51744e-06
1.12146e-07
-1.55044e-06
1.11354e-07
-1.58317e-06
1.1053e-07
-1.61563e-06
1.09669e-07
-1.64779e-06
1.08765e-07
-1.67965e-06
1.07812e-07
-1.71117e-06
1.06803e-07
-1.74235e-06
1.05734e-07
-1.77316e-06
1.04597e-07
-1.80358e-06
1.03388e-07
-1.83358e-06
1.02101e-07
-1.86314e-06
1.00731e-07
-1.89222e-06
9.92722e-08
-1.9208e-06
9.77213e-08
-1.94886e-06
9.60736e-08
-1.97635e-06
9.43255e-08
-2.00324e-06
9.24734e-08
-2.02951e-06
9.05145e-08
-2.05513e-06
8.84461e-08
-2.08004e-06
8.62664e-08
-2.10424e-06
8.39738e-08
-2.12767e-06
8.15672e-08
-2.1503e-06
7.90461e-08
-2.1721e-06
7.64105e-08
-2.19304e-06
7.36607e-08
-2.21308e-06
7.07977e-08
-2.23219e-06
6.78231e-08
-2.25033e-06
6.47385e-08
-2.26748e-06
6.15468e-08
-2.2836e-06
5.82513e-08
-2.29866e-06
5.48558e-08
-2.31263e-06
5.13646e-08
-2.3255e-06
4.77826e-08
-2.33722e-06
4.41152e-08
-2.34779e-06
4.03684e-08
-2.35717e-06
3.65485e-08
-2.36535e-06
3.26624e-08
-2.37233e-06
2.87174e-08
-2.37808e-06
2.47214e-08
-2.38259e-06
2.06838e-08
-2.38588e-06
1.6614e-08
-2.38793e-06
1.25253e-08
-2.38878e-06
8.42849e-09
-2.38843e-06
4.34096e-09
-2.38692e-06
2.83171e-10
-2.38425e-06
-3.72058e-09
-2.38042e-06
-7.64774e-09
-2.37541e-06
-1.15021e-08
-2.36919e-06
-1.52942e-08
-2.36178e-06
-1.90238e-08
-2.35319e-06
-2.26833e-08
-2.34344e-06
-2.62679e-08
-2.33255e-06
-2.97716e-08
-2.32056e-06
-3.31896e-08
-2.30748e-06
-3.65181e-08
-2.29335e-06
-3.9754e-08
-2.2782e-06
-4.28952e-08
-2.26206e-06
-4.59396e-08
-2.24496e-06
-4.88864e-08
-2.22692e-06
-5.17358e-08
-2.20799e-06
-5.44894e-08
-2.18818e-06
-5.71494e-08
-2.16752e-06
-5.97192e-08
-2.14604e-06
-6.22031e-08
-2.12377e-06
-6.46056e-08
-2.10071e-06
-6.69332e-08
-2.0769e-06
-6.91926e-08
-2.05235e-06
-7.13936e-08
-2.02706e-06
-7.35446e-08
-2.00106e-06
-7.56566e-08
-1.97433e-06
-7.77408e-08
-1.94689e-06
-7.98165e-08
-1.91872e-06
-8.1907e-08
-1.88983e-06
-8.404e-08
-1.86019e-06
-8.6235e-08
-1.82977e-06
-8.85095e-08
-1.79851e-06
-9.08724e-08
-1.76639e-06
-9.33441e-08
-1.73332e-06
-9.59433e-08
-1.69927e-06
-9.8701e-08
-1.66415e-06
-1.01644e-07
-1.62789e-06
-1.04808e-07
-1.59039e-06
-1.08213e-07
-1.55157e-06
-1.11884e-07
-1.51132e-06
-1.15852e-07
-1.46952e-06
-1.20162e-07
-1.42604e-06
-1.24844e-07
-1.38075e-06
-1.29913e-07
-1.33349e-06
-1.35385e-07
-1.28414e-06
-1.41286e-07
-1.23252e-06
-1.47646e-07
-1.17848e-06
-1.54482e-07
-1.12187e-06
-1.61793e-07
-1.06255e-06
-1.69583e-07
-1.00035e-06
-1.77862e-07
-9.35146e-07
-1.86602e-07
-8.66788e-07
-1.9576e-07
-7.9515e-07
-2.05277e-07
-7.20125e-07
-2.15097e-07
-6.41645e-07
-2.25134e-07
-5.59687e-07
-2.35303e-07
-4.74252e-07
-2.45517e-07
-3.85377e-07
-2.55687e-07
-2.93138e-07
-2.65715e-07
-1.97652e-07
-2.75503e-07
-9.90703e-08
-2.84958e-07
2.43007e-09
-2.93991e-07
1.06549e-07
-3.02461e-07
2.12848e-07
-3.10213e-07
3.20841e-07
-3.17003e-07
4.29938e-07
-3.22713e-07
5.39455e-07
-3.27128e-07
6.48864e-07
-3.29888e-07
7.57834e-07
-3.30852e-07
8.65974e-07
-3.30105e-07
9.72856e-07
-3.27748e-07
1.07807e-06
-3.23894e-07
1.18122e-06
-3.18651e-07
1.28195e-06
-3.12139e-07
1.37995e-06
-3.04479e-07
1.47492e-06
-2.95791e-07
1.56661e-06
-2.86179e-07
1.65477e-06
-2.75729e-07
1.73918e-06
-2.64489e-07
1.81961e-06
-2.52462e-07
1.89583e-06
-2.39546e-07
1.96749e-06
-2.25492e-07
2.03414e-06
-2.09752e-07
2.09505e-06
-1.91265e-07
2.14923e-06
-1.67626e-07
2.19526e-06
-1.34642e-07
2.23429e-06
-8.17562e-08
9.84447e-09
2.27243e-06
-1.36166e-08
-6.44688e-09
-3.04597e-08
1.3547e-08
-4.82491e-08
2.8945e-08
-6.66663e-08
4.20841e-08
-8.57582e-08
5.37044e-08
-1.05703e-07
6.40592e-08
-1.26702e-07
7.32505e-08
-1.48939e-07
8.13562e-08
-1.72533e-07
8.84801e-08
-1.97547e-07
9.47565e-08
-2.23979e-07
1.00337e-07
-2.51802e-07
1.05376e-07
-2.80946e-07
1.10014e-07
-3.11333e-07
1.14375e-07
-3.42851e-07
1.18557e-07
-3.75376e-07
1.22631e-07
-4.08742e-07
1.26635e-07
-4.42786e-07
1.30566e-07
-4.77328e-07
1.34376e-07
-5.12239e-07
1.37978e-07
-5.47451e-07
1.4126e-07
-5.82986e-07
1.44128e-07
-6.1885e-07
1.46569e-07
-6.54827e-07
1.48695e-07
-6.90586e-07
1.50602e-07
-7.25928e-07
1.52292e-07
-7.60719e-07
1.53731e-07
-7.94841e-07
1.54884e-07
-8.28226e-07
1.55694e-07
-8.61007e-07
1.56086e-07
-8.93722e-07
1.55989e-07
-9.26646e-07
1.55525e-07
-9.59487e-07
1.54908e-07
-9.92254e-07
1.54175e-07
-1.02489e-06
1.53407e-07
-1.05726e-06
1.5265e-07
-1.08941e-06
1.51874e-07
-1.12137e-06
1.51074e-07
-1.15315e-06
1.50256e-07
-1.18476e-06
1.49428e-07
-1.2162e-06
1.48592e-07
-1.24747e-06
1.47749e-07
-1.27859e-06
1.46898e-07
-1.30954e-06
1.46037e-07
-1.34032e-06
1.45162e-07
-1.37094e-06
1.44268e-07
-1.40139e-06
1.43349e-07
-1.43165e-06
1.424e-07
-1.46171e-06
1.41414e-07
-1.49157e-06
1.40384e-07
-1.52121e-06
1.39303e-07
-1.55062e-06
1.38162e-07
-1.57977e-06
1.36954e-07
-1.60864e-06
1.35672e-07
-1.63722e-06
1.34308e-07
-1.66549e-06
1.32855e-07
-1.69342e-06
1.31306e-07
-1.72098e-06
1.29653e-07
-1.74815e-06
1.27891e-07
-1.7749e-06
1.26013e-07
-1.80121e-06
1.24014e-07
-1.82703e-06
1.21889e-07
-1.85235e-06
1.19632e-07
-1.87713e-06
1.17239e-07
-1.90133e-06
1.14707e-07
-1.92493e-06
1.12032e-07
-1.94788e-06
1.09213e-07
-1.97017e-06
1.06246e-07
-1.99174e-06
1.03131e-07
-2.01257e-06
9.98671e-08
-2.03263e-06
9.64539e-08
-2.05187e-06
9.28921e-08
-2.07026e-06
8.9183e-08
-2.08778e-06
8.53283e-08
-2.10438e-06
8.13308e-08
-2.12004e-06
7.7194e-08
-2.13472e-06
7.29221e-08
-2.1484e-06
6.85201e-08
-2.16104e-06
6.39937e-08
-2.17262e-06
5.93494e-08
-2.18312e-06
5.45946e-08
-2.1925e-06
4.97372e-08
-2.20075e-06
4.4786e-08
-2.20786e-06
3.97506e-08
-2.2138e-06
3.46412e-08
-2.21856e-06
2.94694e-08
-2.22214e-06
2.42476e-08
-2.22453e-06
1.89903e-08
-2.22574e-06
1.37119e-08
-2.22575e-06
8.43176e-09
-2.2246e-06
3.16493e-09
-2.22227e-06
-2.06667e-09
-2.21877e-06
-7.24473e-09
-2.21409e-06
-1.23539e-08
-2.20823e-06
-1.73917e-08
-2.2012e-06
-2.23576e-08
-2.193e-06
-2.72465e-08
-2.18366e-06
-3.20482e-08
-2.1732e-06
-3.67546e-08
-2.16164e-06
-4.13571e-08
-2.149e-06
-4.5849e-08
-2.13531e-06
-5.02248e-08
-2.12061e-06
-5.44804e-08
-2.10491e-06
-5.86127e-08
-2.08825e-06
-6.26198e-08
-2.07066e-06
-6.65014e-08
-2.05216e-06
-7.02582e-08
-2.03278e-06
-7.38929e-08
-2.01255e-06
-7.74087e-08
-1.99148e-06
-8.08106e-08
-1.96961e-06
-8.41043e-08
-1.94695e-06
-8.72964e-08
-1.92352e-06
-9.03953e-08
-1.89934e-06
-9.341e-08
-1.87442e-06
-9.63526e-08
-1.84877e-06
-9.92349e-08
-1.8224e-06
-1.02072e-07
-1.7953e-06