/*--------------------------------*- C++ -*----------------------------------*\
  =========                 |
  \\      /  F ield         | OpenFOAM: The Open Source CFD Toolbox
   \\    /   O peration     | Website:  https://openfoam.org
    \\  /    A nd           | Version:  9
     \\/     M anipulation  |
\*---------------------------------------------------------------------------*/
FoamFile
{
    format      ascii;
    class       surfaceScalarField;
    location    "6.96";
    object      phi;
}
// * * * * * * * * * * * * * * * * * * * * * * * * * * * * * * * * * * * * * //

dimensions      [0 3 -1 0 0 0 0];

internalField   nonuniform List<scalar> 
4432
(
-1.89576e-07
1.89576e-07
-3.74505e-07
1.84929e-07
-5.56372e-07
1.81868e-07
-7.2822e-07
1.71846e-07
-8.85827e-07
1.57608e-07
-1.02355e-06
1.37722e-07
-1.13463e-06
1.11074e-07
-1.21292e-06
7.82942e-08
-1.25542e-06
4.24976e-08
-1.26014e-06
4.70998e-09
-1.22311e-06
-3.7029e-08
-1.13363e-06
-8.94809e-08
-9.7512e-07
-1.5851e-07
-7.35991e-07
-2.39129e-07
-4.31069e-07
-3.0492e-07
-1.3626e-07
-2.94805e-07
-4.56661e-08
-9.05923e-08
-3.41744e-07
2.96079e-07
-9.26598e-07
5.84854e-07
-1.61053e-06
6.83937e-07
-1.74248e-06
1.31953e-07
-1.06719e-06
-6.75293e-07
-1.06718e-06
-1.93826e-07
3.83403e-07
-3.81079e-07
3.7218e-07
-5.651e-07
3.6589e-07
-7.39631e-07
3.46372e-07
-8.98928e-07
3.16906e-07
-1.0375e-06
2.7629e-07
-1.14982e-06
2.23392e-07
-1.23178e-06
1.60247e-07
-1.28069e-06
9.14026e-08
-1.29577e-06
1.97873e-08
-1.27364e-06
-5.91521e-08
-1.20673e-06
-1.56395e-07
-1.08498e-06
-2.80259e-07
-9.03446e-07
-4.20656e-07
-6.75937e-07
-5.32424e-07
-4.60854e-07
-5.09885e-07
-3.84894e-07
-1.66551e-07
-5.70848e-07
4.82034e-07
-8.95241e-07
9.09249e-07
-1.18372e-06
9.72418e-07
-1.27893e-06
2.27173e-07
-9.5469e-07
-9.99518e-07
-2.02187e-06
-1.95008e-07
5.78411e-07
-3.83445e-07
5.60616e-07
-5.6681e-07
5.49257e-07
-7.41643e-07
5.21202e-07
-9.02116e-07
4.7738e-07
-1.04291e-06
4.1708e-07
-1.15923e-06
3.3971e-07
-1.24742e-06
2.4844e-07
-1.30517e-06
1.49155e-07
-1.33135e-06
4.59691e-08
-1.32396e-06
-6.65415e-08
-1.27805e-06
-2.02302e-07
-1.1872e-06
-3.7111e-07
-1.04871e-06
-5.5914e-07
-8.71649e-07
-7.09481e-07
-6.92209e-07
-6.89323e-07
-6.00919e-07
-2.57841e-07
-6.86072e-07
5.67185e-07
-8.26802e-07
1.04998e-06
-9.10682e-07
1.0563e-06
-9.67885e-07
2.8438e-07
-7.64932e-07
-1.20247e-06
-2.7868e-06
-1.96459e-07
7.74872e-07
-3.88086e-07
7.52241e-07
-5.73439e-07
7.34612e-07
-7.5024e-07
6.97999e-07
-9.13343e-07
6.40485e-07
-1.05775e-06
5.61482e-07
-1.17906e-06
4.61025e-07
-1.27393e-06
3.43318e-07
-1.34032e-06
2.15542e-07
-1.37757e-06
8.32276e-08
-1.38494e-06
-5.91734e-08
-1.35959e-06
-2.27648e-07
-1.2972e-06
-4.3349e-07
-1.19573e-06
-6.6061e-07
-1.05881e-06
-8.46394e-07
-9.0014e-07
-8.47996e-07
-7.73476e-07
-3.84506e-07
-7.75037e-07
5.68744e-07
-7.87717e-07
1.06266e-06
-7.49569e-07
1.01815e-06
-7.33953e-07
2.68764e-07
-5.48436e-07
-1.38799e-06
-3.33524e-06
-1.97463e-07
9.72337e-07
-3.93763e-07
9.48539e-07
-5.83346e-07
9.24198e-07
-7.63875e-07
8.78526e-07
-9.31083e-07
8.07696e-07
-1.08038e-06
7.1078e-07
-1.20766e-06
5.88307e-07
-1.30979e-06
4.45457e-07
-1.38498e-06
2.90732e-07
-1.43328e-06
1.31535e-07
-1.45527e-06
-3.71804e-08
-1.44985e-06
-2.33063e-07
-1.41412e-06
-4.69214e-07
-1.34641e-06
-7.28317e-07
-1.24659e-06
-9.46212e-07
-1.11202e-06
-9.82566e-07
-9.44698e-07
-5.51833e-07
-8.58398e-07
4.82442e-07
-7.75347e-07
9.79606e-07
-6.43141e-07
8.85946e-07
-5.43255e-07
1.68875e-07
-3.03653e-07
-1.62759e-06
-3.6389e-06
-1.98483e-07
1.17082e-06
-4.00862e-07
1.15092e-06
-5.96054e-07
1.11939e-06
-7.81537e-07
1.06401e-06
-9.53936e-07
9.80097e-07
-1.10904e-06
8.65883e-07
-1.24292e-06
7.22186e-07
-1.35262e-06
5.55163e-07
-1.43654e-06
3.74656e-07
-1.49547e-06
1.90461e-07
-1.53129e-06
-1.35673e-09
-1.5444e-06
-2.1995e-07
-1.53293e-06
-4.8068e-07
-1.49589e-06
-7.65353e-07
-1.43191e-06
-1.01019e-06
-1.33202e-06
-1.08246e-06
-1.15585e-06
-7.28e-07
-9.53535e-07
2.80124e-07
-7.79899e-07
8.05971e-07
-5.74375e-07
6.80422e-07
-3.43401e-07
-6.21014e-08
-3.03749e-08
-1.94062e-06
-3.66928e-06
-2.00402e-07
1.37122e-06
-4.09772e-07
1.36028e-06
-6.11071e-07
1.32069e-06
-8.0198e-07
1.25491e-06
-9.80111e-07
1.15823e-06
-1.14142e-06
1.02719e-06
-1.28207e-06
8.62827e-07
-1.39927e-06
6.72356e-07
-1.49151e-06
4.66893e-07
-1.56013e-06
2.59078e-07
-1.6083e-06
4.68171e-08
-1.63757e-06
-1.90684e-07
-1.64687e-06
-4.71376e-07
-1.63594e-06
-7.76282e-07
-1.60354e-06
-1.04259e-06
-1.53782e-06
-1.14818e-06
-1.3906e-06
-8.75222e-07
-1.08968e-06
-2.07907e-08
-8.14291e-07
5.30591e-07
-5.20685e-07
3.8682e-07
-1.48795e-07
-4.33991e-07
1.56947e-07
-2.24636e-06
-3.51233e-06
-2.07181e-07
1.57841e-06
-4.21208e-07
1.57431e-06
-6.27201e-07
1.52668e-06
-8.23273e-07
1.45098e-06
-1.00717e-06
1.34212e-06
-1.17457e-06
1.19458e-06
-1.32164e-06
1.0099e-06
-1.44588e-06
7.96587e-07
-1.54572e-06
5.66731e-07
-1.62272e-06
3.3608e-07
-1.68104e-06
1.05133e-07
-1.72314e-06
-1.48587e-07
-1.74856e-06
-4.45955e-07
-1.75731e-06
-7.67527e-07
-1.74733e-06
-1.05257e-06
-1.70377e-06
-1.19174e-06
-1.57922e-06
-9.99767e-07
-1.24841e-06
-3.5159e-07
-8.74293e-07
1.56473e-07
-4.80793e-07
-6.67731e-09
-6.32598e-08
-8.51524e-07
1.06911e-07
-2.41653e-06
-3.40541e-06
-9.79141e-07
9.79141e-07
-7.0492e-08
-9.08646e-07
8.82585e-07
-9.53069e-07
1.57215e-06
-6.89559e-07
2.09141e-06
-5.19259e-07
2.42726e-06
-3.35844e-07
2.73495e-06
-3.07688e-07
3.1062e-06
-3.7125e-07
3.47309e-06
-3.66888e-07
3.40851e-06
6.45819e-08
2.67575e-06
7.3276e-07
1.6469e-06
1.02886e-06
2.79465e-07
1.36743e-06
-8.07456e-07
1.08692e-06
-7.83344e-07
-2.41148e-08
-2.06401e-07
-5.76944e-07
1.04898e-07
-3.11304e-07
4.65694e-07
-3.60798e-07
4.65689e-07
-2.67685e-07
1.24683e-06
3.87022e-07
-1.56335e-06
9.82274e-07
-1.54831e-06
1.45669e-06
-1.16397e-06
1.81494e-06
-8.77502e-07
2.12322e-06
-6.44116e-07
2.40142e-06
-5.85888e-07
2.69091e-06
-6.60739e-07
2.90903e-06
-5.85e-07
2.81622e-06
1.57396e-07
2.33127e-06
1.2177e-06
1.54955e-06
1.81058e-06
5.95832e-07
2.32115e-06
-2.57509e-07
1.94026e-06
-4.51175e-07
1.69544e-07
-2.55842e-07
-7.72279e-07
-2.01612e-07
-3.65543e-07
1.18011e-07
-6.80424e-07
5.83697e-07
3.63147e-07
8.83695e-07
7.02651e-07
-1.90285e-06
1.05304e-06
-1.89869e-06
1.38174e-06
-1.49267e-06
1.65798e-06
-1.15375e-06
1.90043e-06
-8.86561e-07
2.12007e-06
-8.05526e-07
2.33366e-06
-8.74331e-07
2.47302e-06
-7.24362e-07
2.33675e-06
2.93672e-07
1.92653e-06
1.62792e-06
1.33876e-06
2.39836e-06
7.16476e-07
2.94343e-06
7.37794e-08
2.58296e-06
-1.74022e-07
4.17341e-07
-1.837e-07
-7.62601e-07
-3.63633e-07
-1.85615e-07
-2.66878e-07
-7.7718e-07
3.16818e-07
7.52088e-07
1.3161e-07
9.01242e-07
-2.052e-06
1.08944e-06
-2.08689e-06
1.31504e-06
-1.71826e-06
1.52421e-06
-1.36293e-06
1.70662e-06
-1.06897e-06
1.86336e-06
-9.62266e-07
2.00811e-06
-1.01909e-06
2.10904e-06
-8.25294e-07
1.98314e-06
4.19582e-07
1.63799e-06
1.97307e-06
1.20518e-06
2.83117e-06
7.76514e-07
3.3721e-06
2.87887e-07
3.07159e-06
8.18711e-08
6.23354e-07
-4.16519e-08
-6.39077e-07
-4.36299e-07
2.09028e-07
-5.71113e-07
-6.42365e-07
-2.54295e-07
8.45817e-07
-7.14208e-07
9.68462e-07
-2.17465e-06
1.0834e-06
-2.20184e-06
1.24173e-06
-1.87659e-06
1.39682e-06
-1.51802e-06
1.52335e-06
-1.1955e-06
1.61897e-06
-1.05788e-06
1.69886e-06
-1.09898e-06
1.76818e-06
-8.9461e-07
1.69486e-06
4.92899e-07
1.41869e-06
2.24923e-06
1.11054e-06
3.13933e-06
8.29332e-07
3.6533e-06
4.55013e-07
3.44591e-06
3.53227e-07
7.25138e-07
1.78273e-07
-4.64121e-07
-3.5612e-07
7.4342e-07
-6.31163e-07
-3.67321e-07
-8.85458e-07
7.6683e-07
-1.48104e-06
9.46553e-07
-2.35438e-06
1.04176e-06
-2.29705e-06
1.15787e-06
-1.99271e-06
1.2707e-06
-1.63085e-06
1.34847e-06
-1.27327e-06
1.38578e-06
-1.09519e-06
1.40009e-06
-1.11328e-06
1.42992e-06
-9.24445e-07
1.43853e-06
4.84292e-07
1.23623e-06
2.45153e-06
1.04325e-06
3.33231e-06
8.57216e-07
3.83933e-06
6.76611e-07
3.62651e-06
6.5815e-07
7.43597e-07
4.51139e-07
-2.5711e-07
-7.11761e-08
1.26573e-06
-4.61148e-07
2.2651e-08
-1.34661e-06
6.83003e-07
-2.16405e-06
8.92767e-07
-2.56414e-06
9.77565e-07
-2.38185e-06
1.06367e-06
-2.0788e-06
1.14371e-06
-1.71089e-06
1.18213e-06
-1.31169e-06
1.16762e-06
-1.08068e-06
1.1147e-06
-1.06036e-06
1.08472e-06
-8.94456e-07
1.15058e-06
4.18433e-07
1.11551e-06
2.4866e-06
9.91657e-07
3.45616e-06
9.06804e-07
3.92419e-06
1.0187e-06
3.51462e-06
9.87623e-07
7.74669e-07
7.08735e-07
2.17763e-08
3.13025e-07
1.66144e-06
-1.16335e-07
4.52009e-07
-1.46295e-06
6.9412e-07
-2.85817e-06
8.40906e-07
-2.71092e-06
9.0006e-07
-2.44101e-06
9.58466e-07
-2.13721e-06
1.01361e-06
-1.76603e-06
1.02381e-06
-1.32189e-06
9.71251e-07
-1.02811e-06
8.63642e-07
-9.52742e-07
7.50637e-07
-7.81449e-07
8.36426e-07
3.32647e-07
1.00103e-06
2.322e-06
9.78794e-07
3.4784e-06
1.06372e-06
3.83926e-06
1.41141e-06
3.16693e-06
1.28782e-06
8.98255e-07
9.52099e-07
3.57499e-07
6.85032e-07
1.9285e-06
2.72185e-07
8.64854e-07
-1.19076e-06
-4.38274e-07
2.01668e-06
-9.19944e-07
2.05597e-06
-1.38154e-06
1.98828e-06
-1.81547e-06
1.88491e-06
-2.22485e-06
1.75151e-06
-2.59896e-06
1.56869e-06
-2.93024e-06
1.34118e-06
-3.21578e-06
1.08214e-06
-3.45049e-06
8.01444e-07
-3.63665e-06
5.22247e-07
-3.7847e-06
2.53185e-07
-3.90294e-06
-3.03488e-08
-3.992e-06
-3.56887e-07
-4.05094e-06
-7.08587e-07
-4.06978e-06
-1.03373e-06
-4.00024e-06
-1.26127e-06
-3.72807e-06
-1.27194e-06
-3.02998e-06
-1.04969e-06
-2.04394e-06
-8.29573e-07
-1.06533e-06
-9.85292e-07
-3.24333e-07
-1.59253e-06
-4.48718e-07
-2.29215e-06
-2.58779e-06
-1.26635e-06
-5.20233e-07
2.53691e-06
-1.00258e-06
2.53831e-06
-1.42192e-06
2.40762e-06
-1.85516e-06
2.31815e-06
-2.27943e-06
2.17577e-06
-2.66109e-06
1.95036e-06
-2.99519e-06
1.67529e-06
-3.29659e-06
1.38353e-06
-3.5635e-06
1.06835e-06
-3.77658e-06
7.35335e-07
-3.92798e-06
4.04585e-07
-4.02488e-06
6.65485e-08
-4.09365e-06
-2.88117e-07
-4.14821e-06
-6.54023e-07
-4.1755e-06
-1.00644e-06
-4.10885e-06
-1.32791e-06
-3.81129e-06
-1.56951e-06
-3.14864e-06
-1.71233e-06
-2.1671e-06
-1.81112e-06
-1.16372e-06
-1.98867e-06
-4.85076e-07
-2.27118e-06
-2.66701e-07
-2.51053e-06
-2.60345e-06
-2.5104e-07
-5.99436e-07
3.13635e-06
-1.06656e-06
3.00543e-06
-1.62208e-06
2.96312e-06
-2.05216e-06
2.74822e-06
-2.36327e-06
2.48688e-06
-2.65604e-06
2.24312e-06
-2.96201e-06
1.98125e-06
-3.23782e-06
1.65935e-06
-3.50135e-06
1.33187e-06
-3.72692e-06
9.60894e-07
-3.86716e-06
5.44816e-07
-3.9114e-06
1.10785e-07
-3.91812e-06
-2.81403e-07
-3.94368e-06
-6.28459e-07
-3.98209e-06
-9.68036e-07
-3.97007e-06
-1.33993e-06
-3.72629e-06
-1.81329e-06
-3.07464e-06
-2.36397e-06
-2.09901e-06
-2.78674e-06
-1.08185e-06
-3.00583e-06
-3.93136e-07
-2.95987e-06
-1.12851e-07
-2.79076e-06
-2.69112e-06
-2.51039e-08
-7.63396e-07
3.89976e-06
-4.21045e-07
2.66318e-06
-3.03555e-06
5.5778e-06
-3.15755e-06
2.87027e-06
-2.60218e-06
1.93154e-06
-2.5175e-06
2.15846e-06
-3.06437e-06
2.52814e-06
-3.10271e-06
1.69771e-06
-3.12805e-06
1.35722e-06
-3.30764e-06
1.14051e-06
-3.47666e-06
7.1385e-07
-3.50848e-06
1.42611e-07
-3.46001e-06
-3.29858e-07
-3.37591e-06
-7.12549e-07
-3.35869e-06
-9.85244e-07
-3.19448e-06
-1.50414e-06
-2.93397e-06
-2.07378e-06
-2.3235e-06
-2.97443e-06
-1.88555e-06
-3.22467e-06
-1.1297e-06
-3.76169e-06
-3.97304e-07
-3.6923e-06
7.64198e-08
-3.26458e-06
-2.90042e-06
2.85566e-07
1.1361e-06
2.7636e-06
-5.51715e-07
4.35073e-06
-6.15826e-06
1.11843e-05
-6.17787e-06
2.88979e-06
-5.57596e-06
1.32965e-06
-5.6756e-06
2.25811e-06
-6.09896e-06
2.95149e-06
-5.27644e-06
8.75166e-07
-4.37247e-06
4.53238e-07
-3.77026e-06
5.38292e-07
-3.36944e-06
3.13031e-07
-2.73235e-06
-4.94472e-07
-1.95143e-06
-1.11076e-06
-1.21316e-06
-1.45079e-06
-5.87111e-07
-1.61128e-06
1.08961e-07
-2.20021e-06
3.1947e-07
-2.2843e-06
1.85374e-07
-2.84036e-06
-7.85446e-07
-2.25382e-06
-1.77835e-06
-2.76871e-06
-1.5419e-06
-3.92863e-06
-1.09321e-06
-3.71306e-06
-2.7695e-06
-1.22375e-06
-8.27322e-07
3.59116e-06
-1.21167e-06
4.73533e-06
1.41131e-06
8.56144e-06
1.06903e-06
3.23211e-06
-1.02696e-06
3.4257e-06
-2.38058e-06
3.61179e-06
-2.20178e-06
2.77273e-06
-2.73596e-06
1.40936e-06
-3.06403e-06
7.81312e-07
-2.95556e-06
4.29818e-07
-2.67872e-06
3.61774e-08
-2.42567e-06
-7.47547e-07
-2.49642e-06
-1.04003e-06
-2.70286e-06
-1.24439e-06
-2.3684e-06
-1.94579e-06
-2.09864e-06
-2.47001e-06
-2.05866e-06
-2.32432e-06
-2.67912e-06
-2.21998e-06
-2.34944e-06
-2.58362e-06
-2.88713e-06
-2.23124e-06
-3.79133e-06
-3.02465e-06
-4.63825e-06
-2.8663e-06
-3.59592e-06
-3.8115e-06
-1.33373e-06
4.92459e-06
-1.17001e-06
4.57172e-06
1.95639e-06
5.43488e-06
1.34692e-06
3.8415e-06
6.58191e-07
4.11438e-06
2.3838e-07
4.03158e-06
-1.65688e-07
3.17681e-06
-7.52738e-07
1.99643e-06
-1.2447e-06
1.2733e-06
-1.57198e-06
7.5716e-07
-1.82784e-06
2.92116e-07
-2.3469e-06
-2.28377e-07
-2.88521e-06
-5.0159e-07
-3.05395e-06
-1.0755e-06
-2.54155e-06
-2.458e-06
-1.95564e-06
-3.05569e-06
-1.69825e-06
-2.58142e-06
-1.86021e-06
-2.05772e-06
-2.12761e-06
-2.31595e-06
-2.30164e-06
-2.05696e-06
-3.5925e-06
-1.73362e-06
-4.35996e-06
-2.099e-06
-4.11666e-06
-3.83945e-06
-7.94653e-08
5.00417e-06
1.91962e-07
4.30038e-06
1.14377e-06
4.48314e-06
9.81133e-07
4.00425e-06
8.49054e-07
4.24658e-06
8.62262e-07
4.01848e-06
7.46723e-07
3.29243e-06
3.31501e-07
2.4117e-06
-1.22998e-07
1.72783e-06
-5.00328e-07
1.1345e-06
-8.60067e-07
6.51856e-07
-1.33968e-06
2.51225e-07
-1.72385e-06
-1.17452e-07
-1.7753e-06
-1.02411e-06
-1.71846e-06
-2.5149e-06
-1.81833e-06
-2.95588e-06
-1.83558e-06
-2.56421e-06
-1.67224e-06
-2.22105e-06
-1.81268e-06
-2.17542e-06
-2.20966e-06
-1.65976e-06
-2.57119e-06
-1.37176e-06
-2.71768e-06
-1.95224e-06
-3.2197e-06
-3.61448e-06
3.57425e-07
4.64697e-06
4.21925e-07
4.2359e-06
7.22363e-07
4.18284e-06
6.75423e-07
4.05132e-06
7.81729e-07
4.14037e-06
9.17216e-07
3.88304e-06
9.16794e-07
3.29286e-06
7.01567e-07
2.62692e-06
4.11143e-07
2.01822e-06
1.32514e-07
1.41309e-06
-1.42099e-07
9.26416e-07
-4.11754e-07
5.20813e-07
-5.76763e-07
4.74667e-08
-7.29445e-07
-8.71548e-07
-1.21936e-06
-2.02515e-06
-1.71525e-06
-2.46018e-06
-1.93802e-06
-2.34168e-06
-1.94731e-06
-2.21209e-06
-2.17694e-06
-1.94622e-06
-2.4029e-06
-1.43429e-06
-2.50065e-06
-1.27445e-06
-2.77046e-06
-1.68278e-06
-2.48429e-06
-3.50614e-06
3.07837e-07
4.33912e-06
3.6284e-07
4.18088e-06
4.52767e-07
4.09298e-06
4.7737e-07
4.02678e-06
6.27058e-07
3.99072e-06
7.77913e-07
3.7322e-06
8.15189e-07
3.2556e-06
7.29475e-07
2.71265e-06
5.8313e-07
2.1646e-06
4.02715e-07
1.59357e-06
2.09259e-07
1.11995e-06
2.40354e-08
7.0613e-07
-1.22898e-07
1.94502e-07
-4.07718e-07
-5.86621e-07
-9.96577e-07
-1.43618e-06
-1.56021e-06
-1.89642e-06
-1.8983e-06
-2.00344e-06
-2.16374e-06
-1.94654e-06
-2.40736e-06
-1.70258e-06
-2.52398e-06
-1.31771e-06
-2.62395e-06
-1.17455e-06
-2.88337e-06
-1.42343e-06
-1.92447e-06
-3.44323e-06
2.04263e-07
4.13474e-06
2.59456e-07
4.12573e-06
2.99596e-07
4.05288e-06
3.48614e-07
3.97778e-06
4.71216e-07
3.86811e-06
5.93611e-07
3.6098e-06
6.44457e-07
3.20476e-06
6.32537e-07
2.72459e-06
5.714e-07
2.22579e-06
4.40871e-07
1.72418e-06
2.7059e-07
1.29035e-06
9.38224e-08
8.83031e-07
-9.08449e-08
3.7931e-07
-4.16094e-07
-2.61229e-07
-9.38011e-07
-9.14112e-07
-1.4745e-06
-1.35974e-06
-1.86092e-06
-1.61676e-06
-2.15005e-06
-1.65708e-06
-2.37114e-06
-1.48118e-06
-2.51074e-06
-1.17785e-06
-2.62933e-06
-1.05574e-06
-2.8534e-06
-1.19922e-06
-1.52637e-06
-3.25144e-06
1.36904e-07
3.99783e-06
1.84874e-07
4.07788e-06
2.17635e-07
4.02017e-06
2.66368e-07
3.92906e-06
3.53857e-07
3.78062e-06
4.39875e-07
3.52377e-06
4.91468e-07
3.15316e-06
5.07249e-07
2.70882e-06
4.71237e-07
2.26182e-06
3.56718e-07
1.83873e-06
1.95577e-07
1.45152e-06
3.15885e-08
1.04705e-06
-1.70677e-07
5.81592e-07
-4.80243e-07
4.83208e-08
-9.16505e-07
-4.77908e-07
-1.37859e-06
-8.97728e-07
-1.75581e-06
-1.2396e-06
-2.05143e-06
-1.36145e-06
-2.25938e-06
-1.27321e-06
-2.39355e-06
-1.04366e-06
-2.51447e-06
-9.34819e-07
-2.67858e-06
-1.03515e-06
-1.28149e-06
-2.92355e-06
9.63042e-08
3.90162e-06
1.43812e-07
4.03051e-06
1.76559e-07
3.98748e-06
2.20139e-07
3.88551e-06
2.82385e-07
3.71839e-06
3.4152e-07
3.46465e-06
3.79984e-07
3.11469e-06
3.87923e-07
2.70087e-06
3.41293e-07
2.30844e-06
2.31842e-07
1.94816e-06
9.65162e-08
1.58684e-06
-5.56008e-08
1.19915e-06
-2.47215e-07
7.73184e-07
-5.1388e-07
3.14934e-07
-8.58994e-07
-1.32899e-07
-1.2312e-06
-5.25686e-07
-1.59902e-06
-8.71956e-07
-1.89708e-06
-1.06357e-06
-2.10884e-06
-1.0616e-06
-2.24257e-06
-9.1007e-07
-2.33633e-06
-8.41179e-07
-2.43603e-06
-9.35562e-07
-1.15208e-06
-2.56555e-06
7.44889e-08
3.82726e-06
1.22281e-07
3.98277e-06
1.56303e-07
3.95349e-06
1.95431e-07
3.8464e-06
2.42193e-07
3.67164e-06
2.83837e-07
3.42302e-06
3.03283e-07
3.09526e-06
2.82568e-07
2.7216e-06
2.20341e-07
2.37066e-06
1.23996e-07
2.0445e-06
1.12597e-08
1.69957e-06
-1.22733e-07
1.33316e-06
-2.91078e-07
9.41561e-07
-5.10376e-07
5.34275e-07
-7.79388e-07
1.36142e-07
-1.07689e-06
-2.2819e-07
-1.40328e-06
-5.45587e-07
-1.69734e-06
-7.69541e-07
-1.92328e-06
-8.35672e-07
-2.05864e-06
-7.747e-07
-2.12655e-06
-7.73236e-07
-2.18485e-06
-8.77183e-07
-1.08133e-06
-2.25548e-06
6.09231e-08
3.76639e-06
1.06936e-07
3.93671e-06
1.40468e-07
3.91992e-06
1.75e-07
3.81185e-06
2.10871e-07
3.63577e-06
2.38646e-07
3.39526e-06
2.39363e-07
3.09456e-06
1.99572e-07
2.76139e-06
1.31164e-07
2.43907e-06
5.13221e-08
2.12433e-06
-4.46639e-08
1.79555e-06
-1.60327e-07
1.44884e-06
-3.04471e-07
1.08577e-06
-4.85013e-07
7.1493e-07
-7.01268e-07
3.52543e-07
-9.45275e-07
1.59739e-08
-1.21077e-06
-2.79932e-07
-1.48011e-06
-5.00028e-07
-1.7013e-06
-6.1428e-07
-1.82537e-06
-6.50416e-07
-1.89227e-06
-7.06085e-07
-1.93999e-06
-8.29187e-07
-1.02579e-06
-1.9952e-06
5.15787e-08
3.71477e-06
8.92902e-08
3.89888e-06
1.18727e-07
3.8904e-06
1.47826e-07
3.78271e-06
1.74538e-07
3.60905e-06
1.90236e-07
3.37956e-06
1.80646e-07
3.10415e-06
1.39308e-07
2.80274e-06
7.96792e-08
2.4987e-06
1.03319e-08
2.19368e-06
-7.18423e-08
1.87774e-06
-1.7149e-07
1.54852e-06
-2.94398e-07
1.20874e-06
-4.45064e-07
8.6571e-07
-6.23499e-07
5.31137e-07
-8.25707e-07
2.18375e-07
-1.04686e-06
-5.85581e-08
-1.26798e-06
-2.78667e-07
-1.45349e-06
-4.28509e-07
-1.57538e-06
-5.28242e-07
-1.6491e-06
-6.32067e-07
-1.70354e-06
-7.74436e-07
-9.65554e-07
-1.76343e-06
4.03545e-08
3.67433e-06
6.44117e-08
3.8747e-06
8.86098e-08
3.86613e-06
1.12654e-07
3.75862e-06
1.3273e-07
3.58895e-06
1.41479e-07
3.3708e-06
1.30618e-07
3.11502e-06
9.76648e-08
2.8357e-06
4.9436e-08
2.54694e-06
-8.78541e-09
2.25192e-06
-7.85339e-08
1.9475e-06
-1.63485e-07
1.6335e-06
-2.67584e-07
1.31289e-06
-3.93625e-07
9.91828e-07
-5.41639e-07
6.79263e-07
-7.087e-07
3.85575e-07
-8.88907e-07
1.2181e-07
-1.06748e-06
-9.99155e-08
-1.22148e-06
-2.74317e-07
-1.33448e-06
-4.15038e-07
-1.41363e-06
-5.52711e-07
-1.47777e-06
-7.10099e-07
-8.96431e-07
-1.54669e-06
1.85372e-08
3.65571e-06
3.35438e-08
3.85962e-06
5.34093e-08
3.84623e-06
7.37378e-08
3.73828e-06
9.03463e-08
3.57234e-06
9.75726e-08
3.36358e-06
9.03109e-08
3.12228e-06
6.70206e-08
2.85899e-06
3.09395e-08
2.58303e-06
-1.53131e-08
2.29818e-06
-7.2619e-08
2.00482e-06
-1.43374e-07
1.70426e-06
-2.30162e-07
1.39969e-06
-3.34643e-07
1.09634e-06
-4.56537e-07
8.01199e-07
-5.93144e-07
5.22235e-07
-7.38765e-07
2.67492e-07
-8.82663e-07
4.40496e-08
-1.01054e-06
-1.46367e-07
-1.11287e-06
-3.12648e-07
-1.19329e-06
-4.72229e-07
-1.26383e-06
-6.39513e-07
-8.21219e-07
-1.339e-06
-3.10624e-09
3.65876e-06
4.96848e-09
3.85154e-06
1.8793e-08
3.83241e-06
3.61826e-08
3.7209e-06
5.14893e-08
3.55704e-06
6.00827e-08
3.35498e-06
5.82428e-08
3.12412e-06
4.45258e-08
2.8727e-06
1.99838e-08
2.60756e-06
-1.44233e-08
2.33258e-06
-5.93476e-08
2.04974e-06
-1.16325e-07
1.76123e-06
-1.86945e-07
1.4703e-06
-2.72061e-07
1.18143e-06
-3.71079e-07
9.00194e-07
-4.81506e-07
6.32636e-07
-5.9855e-07
3.84506e-07
-7.14644e-07
1.6011e-07
-8.20959e-07
-4.00898e-08
-9.12028e-07
-2.21625e-07
-9.89852e-07
-3.94459e-07
-1.06209e-06
-5.67344e-07
-7.44623e-07
-1.13876e-06
-2.29421e-08
3.68169e-06
-2.16148e-08
3.85026e-06
-1.14175e-08
3.82226e-06
3.40936e-09
3.7061e-06
1.85507e-08
3.54191e-06
2.97929e-08
3.34375e-06
3.38057e-08
3.1201e-06
2.88726e-08
2.87763e-06
1.47685e-08
2.62166e-06
-8.51353e-09
2.35585e-06
-4.1606e-08
2.08281e-06
-8.55182e-08
1.80511e-06
-1.41175e-07
1.52592e-06
-2.0889e-07
1.2491e-06
-2.87885e-07
9.79129e-07
-3.75978e-07
7.20659e-07
-4.6941e-07
4.77859e-07
-5.62948e-07
2.53561e-07
-6.51109e-07
4.79778e-08
-7.30707e-07
-1.42126e-07
-8.02911e-07
-3.22362e-07
-8.72548e-07
-4.97818e-07
-6.71046e-07
-9.46242e-07
-3.91731e-08
3.7209e-06
-4.29414e-08
3.85411e-06
-3.69003e-08
3.81627e-06
-2.34454e-08
3.69268e-06
-7.29289e-09
3.52578e-06
7.24705e-09
3.32922e-06
1.69316e-08
3.11043e-06
1.97671e-08
2.8748e-06
1.48237e-08
2.6266e-06
1.54821e-09
2.36911e-06
-2.06941e-08
2.10503e-06
-5.26154e-08
1.83701e-06
-9.47181e-08
1.56798e-06
-1.4699e-07
1.30132e-06
-2.08602e-07
1.04068e-06
-2.77728e-07
7.89713e-07
-3.51524e-07
5.51572e-07
-4.26391e-07
3.28338e-07
-4.98856e-07
1.20347e-07
-5.66989e-07
-7.40937e-08
-6.31458e-07
-2.57996e-07
-6.95235e-07
-4.34145e-07
-6.03876e-07
-7.62512e-07
-4.87306e-08
3.76968e-06
-6.15063e-08
3.86697e-06
-5.76156e-08
3.81243e-06
-4.35926e-08
3.6787e-06
-2.52596e-08
3.50748e-06
-7.02351e-09
3.31102e-06
7.90621e-09
3.09552e-06
1.74279e-08
2.86529e-06
2.02911e-08
2.62374e-06
1.56941e-08
2.37371e-06
2.99574e-09
2.11772e-06
-1.83022e-08
1.85829e-06
-4.84569e-08
1.59812e-06
-8.72806e-08
1.34011e-06
-1.33979e-07
1.08734e-06
-1.87067e-07
8.42752e-07
-2.44422e-07
6.0887e-07
-3.03551e-07
3.87404e-07
-3.62183e-07
1.7891e-07
-4.19067e-07
-1.72819e-08
-4.74521e-07
-2.02616e-07
-5.30284e-07
-3.78455e-07
-5.45369e-07
-5.88867e-07
-5.67584e-08
3.82649e-06
-7.73149e-08
3.8876e-06
-7.23454e-08
3.80751e-06
-5.58349e-08
3.66223e-06
-3.43846e-08
3.48607e-06
-1.2366e-08
3.28903e-06
7.19556e-09
3.07599e-06
2.22645e-08
2.85025e-06
3.1531e-08
2.6145e-06
3.4138e-08
2.37112e-06
2.95003e-08
2.12237e-06
1.72534e-08
1.87055e-06
-2.69563e-09
1.61807e-06
-3.00768e-08
1.36749e-06
-6.41705e-08
1.12142e-06
-1.0379e-07
8.82352e-07
-1.47344e-07
6.52398e-07
-1.93072e-07
4.33101e-07
-2.39421e-07
2.25225e-07
-2.85503e-07
2.8762e-08
-3.31375e-07
-1.56782e-07
-3.77956e-07
-3.31916e-07
-4.96751e-07
-4.26618e-07
-6.34761e-08
3.89001e-06
-8.61674e-08
3.91034e-06
-7.80862e-08
3.79947e-06
-5.81979e-08
3.64238e-06
-3.34693e-08
3.46138e-06
-8.06399e-09
3.26366e-06
1.52566e-08
3.0527e-06
3.46358e-08
2.8309e-06
4.88503e-08
2.60031e-06
5.71137e-08
2.36288e-06
5.89348e-08
2.12057e-06
5.40672e-08
1.87543e-06
4.25211e-08
1.62963e-06
2.46018e-08
1.38542e-06
9.42252e-10
1.14509e-06
-2.74883e-08
9.10785e-07
-5.95011e-08
6.84409e-07
-9.38109e-08
4.67406e-07
-1.29297e-07
2.60703e-07
-1.65262e-07
6.47159e-08
-2.01574e-07
-1.20484e-07
-2.38603e-07
-2.94901e-07
-4.58398e-07
-2.76974e-07
-6.54994e-08
3.95554e-06
-8.31917e-08
3.92806e-06
-7.18948e-08
3.7882e-06
-4.90522e-08
3.61956e-06
-2.16641e-08
3.43402e-06
6.29518e-09
3.23573e-06
3.22866e-08
3.02674e-06
5.46534e-08
2.80856e-06
7.23366e-08
2.58265e-06
8.46818e-08
2.35056e-06
9.13227e-08
2.11396e-06
9.21256e-08
1.87465e-06
8.718e-08
1.63459e-06
7.68082e-08
1.39581e-06
6.15722e-08
1.16034e-06
4.22451e-08
9.30125e-07
1.97625e-08
7.06903e-07
-4.90897e-09
4.92088e-07
-3.09166e-08
2.8672e-07
-5.76675e-08
9.14743e-08
-8.48984e-08
-9.32458e-08
-1.12627e-07
-2.67166e-07
-4.30023e-07
-1.40997e-07
-5.78712e-08
4.01344e-06
-6.78966e-08
3.9381e-06
-5.36578e-08
3.77398e-06
-2.84692e-08
3.59439e-06
8.97801e-10
3.40467e-06
3.05159e-08
3.20613e-06
5.80535e-08
2.99922e-06
8.20881e-08
2.78455e-06
1.01776e-07
2.56299e-06
1.16648e-07
2.33571e-06
1.26486e-07
2.10414e-06
1.31273e-07
1.86988e-06
1.3117e-07
1.63471e-06
1.26512e-07
1.40049e-06
1.17801e-07
1.16907e-06
1.05683e-07
9.42263e-07
9.09006e-08
7.21706e-07
7.421e-08
5.088e-07
5.62928e-08
3.04659e-07
3.76758e-08
1.10113e-07
1.8702e-08
-7.42489e-08
-4.3021e-10
-2.48009e-07
-4.10862e-07
-1.95657e-08
-4.21018e-08
4.05555e-06
-4.47858e-08
3.94079e-06
-2.62577e-08
3.75546e-06
1.88219e-09
3.56626e-06
3.3116e-08
3.37345e-06
6.37984e-08
3.17546e-06
9.18966e-08
2.97113e-06
1.16355e-07
2.7601e-06
1.36647e-07
2.54271e-06
1.52547e-07
2.31983e-06
1.64017e-07
2.09268e-06
1.71165e-07
1.86275e-06
1.74226e-07
1.63167e-06
1.73551e-07
1.40118e-06
1.69604e-07
1.17304e-06
1.62935e-07
9.48957e-07
1.54154e-07
7.30516e-07
1.43871e-07
5.19114e-07
1.32647e-07
3.15916e-07
1.20956e-07
1.2184e-07
1.09178e-07
-6.24314e-08
9.76281e-08
-2.36418e-07
-3.99818e-07
8.66306e-08
-2.58397e-08
4.08139e-06
-1.80536e-08
3.93299e-06
7.12499e-09
3.73028e-06
3.9947e-08
3.53344e-06
7.37082e-08
3.33968e-06
1.05123e-07
3.14404e-06
1.32899e-07
2.94336e-06
1.56605e-07
2.7364e-06
1.76168e-07
2.52315e-06
1.91671e-07
2.30433e-06
2.03291e-07
2.08108e-06
2.11269e-07
1.85479e-06
2.15916e-07
1.62705e-06
2.1761e-07
1.39952e-06
2.16789e-07
1.17389e-06
2.13941e-07
9.5184e-07
2.09576e-07
7.34919e-07
2.04198e-07
5.24534e-07
1.98277e-07
3.21883e-07
1.92232e-07
1.27935e-07
1.8644e-07
-5.65853e-08
1.81264e-07
-2.31185e-07
-3.95598e-07
1.77108e-07
-1.11034e-08
4.09249e-06
9.98444e-09
3.91188e-06
4.51288e-08
3.69511e-06
8.48446e-08
3.49371e-06
1.21785e-07
3.30273e-06
1.53526e-07
3.11229e-06
1.80035e-07
2.91684e-06
2.01807e-07
2.71462e-06
2.19355e-07
2.50561e-06
2.33122e-07
2.29057e-06
2.43508e-07
2.07071e-06
2.50895e-07
1.84743e-06
2.5567e-07
1.6223e-06
2.58242e-07
1.39698e-06
2.5904e-07
1.17313e-06
2.58505e-07
9.52416e-07
2.57078e-07
7.36393e-07
2.55181e-07
5.26484e-07
2.53202e-07
3.23919e-07
2.51498e-07
1.29699e-07
2.50414e-07
-5.54355e-08
2.50307e-07
-2.31009e-07
-3.96812e-07
2.51596e-07
4.00727e-09
4.08847e-06
3.83493e-08
3.87751e-06
8.73144e-08
3.64612e-06
1.36424e-07
3.44457e-06
1.76888e-07
3.26224e-06
2.08107e-07
3.08105e-06
2.32167e-07
2.89277e-06
2.50769e-07
2.69601e-06
2.65065e-07
2.49131e-06
2.75855e-07
2.27979e-06
2.83745e-07
2.06283e-06
2.89245e-07
1.84195e-06
2.92819e-07
1.61875e-06
2.94911e-07
1.39492e-06
2.9595e-07
1.17213e-06
2.96348e-07
9.52066e-07
2.96492e-07
7.36301e-07
2.96737e-07
5.26298e-07
2.97396e-07
3.23323e-07
2.98754e-07
1.28407e-07
3.01094e-07
-5.7705e-08
3.04729e-07
-2.34571e-07
-4.02054e-07
3.10049e-07
1.88598e-08
4.06959e-06
6.96655e-08
3.82665e-06
1.35146e-07
3.5806e-06
1.9582e-07
3.38386e-06
2.38617e-07
3.21941e-06
2.67756e-07
3.05189e-06
2.87926e-07
2.87258e-06
3.02122e-07
2.68181e-06
3.12033e-07
2.4814e-06
3.18736e-07
2.27309e-06
3.2301e-07
2.05857e-06
3.25473e-07
1.8395e-06
3.26661e-07
1.61759e-06
3.27054e-07
1.39456e-06
3.2709e-07
1.17214e-06
3.27166e-07
9.52038e-07
3.27631e-07
7.3589e-07
3.28781e-07
5.25207e-07
3.30856e-07
3.21311e-07
3.3406e-07
1.25269e-07
3.38589e-07
-6.21655e-08
3.44678e-07
-2.40591e-07
-4.09959e-07
3.52658e-07
4.25322e-08
4.02703e-06
1.12076e-07
3.75705e-06
1.94862e-07
3.49777e-06
2.62667e-07
3.31601e-06
3.05741e-07
3.17631e-06
3.30596e-07
3.02701e-06
3.45568e-07
2.85759e-06
3.54348e-07
2.67301e-06
3.58943e-07
2.47679e-06
3.60629e-07
2.2714e-06
3.60326e-07
2.05888e-06
3.58756e-07
1.84109e-06
3.5652e-07
1.61985e-06
3.5414e-07
1.39697e-06
3.5207e-07
1.17425e-06
3.50702e-07
9.53449e-07
3.50358e-07
7.36281e-07
3.51288e-07
5.24329e-07
3.53663e-07
3.18992e-07
3.57592e-07
1.21398e-07
3.63162e-07
-6.76768e-08
3.70503e-07
-2.47872e-07
-4.19251e-07
3.79858e-07
9.2388e-08
3.9346e-06
1.83751e-07
3.66563e-06
2.71996e-07
3.40948e-06
3.35258e-07
3.25271e-06
3.75081e-07
3.13645e-06
3.94279e-07
3.00778e-06
4.03372e-07
2.84847e-06
4.06079e-07
2.67028e-06
4.04631e-07
2.47823e-06
4.0052e-07
2.27551e-06
3.94822e-07
2.06458e-06
3.88366e-07
1.84756e-06
3.81819e-07
1.62641e-06
3.75741e-07
1.40307e-06
3.70605e-07
1.17941e-06
3.66805e-07
9.57283e-07
3.6465e-07
7.38473e-07
3.64356e-07
5.24665e-07
3.66029e-07
3.17363e-07
3.69679e-07
1.17793e-07
3.75263e-07
-7.32147e-08
3.82769e-07
-2.55333e-07
-4.28769e-07
3.92333e-07
1.73706e-07
3.76086e-06
2.88448e-07
3.55083e-06
3.68925e-07
3.32895e-06
4.18478e-07
3.20312e-06
4.46463e-07
3.10843e-06
4.58749e-07
2.99546e-06
4.60963e-07
2.84623e-06
4.56677e-07
2.67455e-06
4.48333e-07
2.48656e-06
4.37633e-07
2.2862e-06
4.25796e-07
2.07641e-06
4.13729e-07
1.85963e-06
4.02138e-07
1.63801e-06
3.91597e-07
1.41363e-06
3.82586e-07
1.18844e-06
3.75504e-07
9.64387e-07
3.70661e-07
7.43341e-07
3.68255e-07
5.27099e-07
3.68344e-07
3.17303e-07
3.70841e-07
1.15327e-07
3.75546e-07
-7.78889e-08
3.82267e-07
-2.62024e-07
-4.37479e-07
3.91007e-07
2.76536e-07
3.48429e-06
4.19471e-07
3.40785e-06
4.86256e-07
3.26213e-06
5.15648e-07
3.17369e-06
5.25477e-07
3.09856e-06
5.26814e-07
2.9941e-06
5.19327e-07
2.85369e-06
5.06115e-07
2.68774e-06
4.8956e-07
2.5031e-06
4.71355e-07
2.3044e-06
4.52694e-07
2.09507e-06
4.34441e-07
1.87788e-06
4.17254e-07
1.6552e-06
4.01669e-07
1.42922e-06
3.88143e-07
1.20198e-06
3.77074e-07
9.75467e-07
3.68783e-07
7.51645e-07
3.63481e-07
5.32416e-07
3.6121e-07
3.1959e-07
3.618e-07
1.14754e-07
3.64877e-07
-8.09494e-08
3.70007e-07
-2.67139e-07
-4.44486e-07
3.77028e-07
3.89831e-07
3.09443e-06
5.65978e-07
3.23166e-06
6.20126e-07
3.20795e-06
6.2548e-07
3.1683e-06
6.15717e-07
3.1083e-06
5.9985e-07
3.00994e-06
5.78457e-07
2.87506e-06
5.53743e-07
2.71244e-06
5.27493e-07
2.52933e-06
5.00959e-07
2.33092e-06
4.75003e-07
2.12101e-06
4.50246e-07
1.90263e-06
4.27169e-07
1.67827e-06
4.06194e-07
1.45019e-06
3.87711e-07
1.22046e-06
3.72103e-07
9.91077e-07
3.59714e-07
7.64035e-07
3.50808e-07
5.41326e-07
3.45468e-07
3.24934e-07
3.43493e-07
1.16733e-07
3.44325e-07
-8.1778e-08
3.47198e-07
-2.70009e-07
-4.49015e-07
3.51729e-07
5.22434e-07
2.57198e-06
7.25096e-07
3.02897e-06
7.66082e-07
3.16694e-06
7.46577e-07
3.18779e-06
7.11847e-07
3.14301e-06
6.73776e-07
3.04799e-06
6.35191e-07
2.91363e-06
5.97214e-07
2.7504e-06
5.60501e-07
2.56603e-06
5.25421e-07
2.36599e-06
4.92209e-07
2.15421e-06
4.61055e-07
1.93377e-06
4.32155e-07
1.70716e-06
4.05741e-07
1.4766e-06
3.82098e-07
1.24409e-06
3.61569e-07
1.0116e-06
3.44533e-07
7.81066e-07
3.31348e-07
5.54506e-07
3.22231e-07
3.34047e-07
3.1706e-07
1.219e-07
3.15135e-07
-7.98577e-08
3.15205e-07
-2.70084e-07
-4.50397e-07
3.1658e-07
6.86889e-07
1.88507e-06
9.05863e-07
2.80997e-06
9.17484e-07
3.1553e-06
8.65269e-07
3.23999e-06
8.00917e-07
3.20735e-06
7.39466e-07
3.10943e-06
6.83534e-07
2.96955e-06
6.32793e-07
2.80113e-06
5.86402e-07
2.61241e-06
5.43624e-07
2.40875e-06
5.03943e-07
2.19388e-06
4.67056e-07
1.97065e-06