/*--------------------------------*- C++ -*----------------------------------*\
  =========                 |
  \\      /  F ield         | OpenFOAM: The Open Source CFD Toolbox
   \\    /   O peration     | Website:  https://openfoam.org
    \\  /    A nd           | Version:  9
     \\/     M anipulation  |
\*---------------------------------------------------------------------------*/
FoamFile
{
    format      ascii;
    class       surfaceScalarField;
    location    "7.75";
    object      alphaPhi0.water;
}
// * * * * * * * * * * * * * * * * * * * * * * * * * * * * * * * * * * * * * //

dimensions      [0 3 -1 0 0 0 0];

internalField   nonuniform List<scalar> 
4432
(
-1.21385e-07
1.21385e-07
-2.57267e-07
1.35879e-07
-3.96777e-07
1.39513e-07
-5.26436e-07
1.29656e-07
-6.40185e-07
1.1375e-07
-7.33675e-07
9.34858e-08
-8.03767e-07
7.00919e-08
-8.49181e-07
4.54135e-08
-8.70272e-07
2.10895e-08
-8.65224e-07
-5.05213e-09
-8.27644e-07
-3.7582e-08
-7.44452e-07
-8.31921e-08
-5.99582e-07
-1.44871e-07
-3.86034e-07
-2.13547e-07
-1.25971e-07
-2.6006e-07
9.90909e-08
-2.2506e-07
1.40118e-07
-4.10249e-08
-8.66721e-08
2.26804e-07
-5.59693e-07
4.73945e-07
-1.14271e-06
5.82227e-07
-1.27288e-06
1.2827e-07
-8.03621e-07
-4.69245e-07
-8.03906e-07
-1.34523e-07
2.5591e-07
-2.72747e-07
2.74097e-07
-4.1129e-07
2.78058e-07
-5.41004e-07
2.59364e-07
-6.55853e-07
2.286e-07
-7.51924e-07
1.89552e-07
-8.2659e-07
1.44756e-07
-8.787e-07
9.7522e-08
-9.07941e-07
5.03282e-08
-9.13234e-07
2.37585e-10
-8.8912e-07
-6.16973e-08
-8.26344e-07
-1.45967e-07
-7.14817e-07
-2.56395e-07
-5.52527e-07
-3.75833e-07
-3.58817e-07
-4.53764e-07
-1.93656e-07
-3.90217e-07
-1.62656e-07
-7.20233e-08
-3.12845e-07
3.77042e-07
-5.42055e-07
7.04352e-07
-7.72858e-07
8.12238e-07
-8.73765e-07
2.28787e-07
-7.01967e-07
-6.4103e-07
-1.50587e-06
-1.4204e-07
3.97952e-07
-2.81459e-07
4.13512e-07
-4.17883e-07
4.14485e-07
-5.46787e-07
3.88262e-07
-6.62814e-07
3.44628e-07
-7.62253e-07
2.88988e-07
-8.42381e-07
2.24886e-07
-9.01673e-07
1.56812e-07
-9.39505e-07
8.81609e-08
-9.54597e-07
1.53306e-08
-9.4334e-07
-7.2953e-08
-8.98948e-07
-1.90356e-07
-8.14477e-07
-3.40863e-07
-6.88735e-07
-5.01571e-07
-5.34408e-07
-6.08078e-07
-3.9343e-07
-5.31199e-07
-3.48315e-07
-1.17138e-07
-4.29739e-07
4.58465e-07
-5.13729e-07
7.89761e-07
-5.57869e-07
8.56226e-07
-6.31391e-07
3.02321e-07
-5.4579e-07
-7.26617e-07
-2.05166e-06
-1.47387e-07
5.45343e-07
-2.9009e-07
5.5621e-07
-4.27392e-07
5.51791e-07
-5.57379e-07
5.18245e-07
-6.75905e-07
4.63156e-07
-7.79554e-07
3.92636e-07
-8.65421e-07
3.10755e-07
-9.31615e-07
2.23008e-07
-9.77468e-07
1.34017e-07
-1.00227e-06
4.01351e-08
-1.00373e-06
-7.14882e-08
-9.77117e-07
-2.16967e-07
-9.17076e-07
-4.009e-07
-8.21759e-07
-5.96885e-07
-6.96347e-07
-7.33489e-07
-5.62584e-07
-6.64677e-07
-4.90545e-07
-1.89314e-07
-5.1142e-07
4.79273e-07
-5.06771e-07
7.85254e-07
-4.51868e-07
8.01882e-07
-4.67251e-07
3.17735e-07
-3.83324e-07
-8.10533e-07
-2.43498e-06
-1.51048e-07
6.96394e-07
-2.9838e-07
7.03537e-07
-4.38902e-07
6.92316e-07
-5.71848e-07
6.51188e-07
-6.94258e-07
5.85568e-07
-8.03073e-07
5.01451e-07
-8.95174e-07
4.02858e-07
-9.68331e-07
2.96169e-07
-1.02201e-06
1.87703e-07
-1.0563e-06
7.44215e-08
-1.07026e-06
-5.75223e-08
-1.0608e-06
-2.26422e-07
-1.02358e-06
-4.38111e-07
-9.56031e-07
-6.64436e-07
-8.57149e-07
-8.3237e-07
-7.27522e-07
-7.9339e-07
-6.16007e-07
-3.01657e-07
-5.861e-07
4.49367e-07
-5.1546e-07
7.14618e-07
-4.03959e-07
6.90383e-07
-3.57918e-07
2.71955e-07
-2.0831e-07
-9.57157e-07
-2.64334e-06
-1.53978e-07
8.50374e-07
-3.0687e-07
8.56423e-07
-4.5201e-07
8.37459e-07
-5.89293e-07
7.88468e-07
-7.16666e-07
7.12942e-07
-8.31381e-07
6.16166e-07
-9.30068e-07
5.01546e-07
-1.01013e-06
3.76231e-07
-1.07125e-06
2.48826e-07
-1.11438e-06
1.17552e-07
-1.14e-06
-3.1901e-08
-1.14645e-06
-2.19964e-07
-1.13031e-06
-4.54257e-07
-1.08904e-06
-7.05702e-07
-1.01818e-06
-9.03228e-07
-9.04956e-07
-9.06264e-07
-7.46794e-07
-4.53793e-07
-6.54114e-07
3.49834e-07
-5.3826e-07
5.98767e-07
-3.82208e-07
5.34334e-07
-2.64293e-07
1.51771e-07
-1.6424e-08
-1.20639e-06
-2.65977e-06
-1.57229e-07
1.00761e-06
-3.1594e-07
1.01513e-06
-4.66265e-07
9.87785e-07
-6.0865e-07
9.30851e-07
-7.41596e-07
8.45887e-07
-8.62556e-07
7.37122e-07
-9.67894e-07
6.06881e-07
-1.05456e-06
4.62892e-07
-1.12242e-06
3.16682e-07
-1.17326e-06
1.68391e-07
-1.20896e-06
3.7968e-09
-1.22921e-06
-1.99715e-07
-1.23154e-06
-4.51927e-07
-1.21438e-06
-7.22857e-07
-1.17256e-06
-9.45044e-07
-1.09115e-06
-9.87675e-07
-9.08097e-07
-6.21513e-07
-7.23162e-07
1.59895e-07
-5.55908e-07
4.2133e-07
-3.62576e-07
3.36903e-07
-1.27361e-07
-8.49122e-08
1.47282e-07
-1.48423e-06
-2.51248e-06
-1.63503e-07
1.17111e-06
-3.25941e-07
1.17756e-06
-4.80752e-07
1.14259e-06
-6.28484e-07
1.07858e-06
-7.67105e-07
9.84505e-07
-8.94204e-07
8.64218e-07
-1.00594e-06
7.18619e-07
-1.0987e-06
5.55646e-07
-1.17233e-06
3.90304e-07
-1.22926e-06
2.25325e-07
-1.27271e-06
4.72465e-08
-1.3036e-06
-1.68825e-07
-1.32056e-06
-4.3497e-07
-1.32321e-06
-7.20202e-07
-1.30641e-06
-9.61839e-07
-1.25453e-06
-1.03956e-06
-1.10444e-06
-7.64651e-07
-8.27455e-07
-1.06642e-07
-5.86846e-07
1.79452e-07
-3.32185e-07
8.09723e-08
-4.71661e-09
-4.16127e-07
1.63452e-07
-1.65431e-06
-2.34903e-06
-1.05425e-06
1.04555e-06
-2.2366e-07
-8.30259e-07
7.02168e-07
-9.26607e-07
1.35161e-06
-6.50771e-07
1.8209e-06
-4.71252e-07
2.12204e-06
-3.08846e-07
2.34897e-06
-2.28733e-07
2.58965e-06
-2.42487e-07
2.75634e-06
-1.68329e-07
2.58488e-06
1.68885e-07
2.01951e-06
5.65371e-07
1.11385e-06
9.05658e-07
7.46995e-08
1.03915e-06
-5.23259e-07
5.9798e-07
-6.38423e-07
1.15118e-07
-4.2164e-07
-2.16817e-07
-2.57313e-07
-1.64339e-07
9.88436e-08
-3.56186e-07
9.86706e-08
-4.5506e-07
1.49927e-06
2.08751e-07
-1.49322e-06
8.09833e-07
-1.52766e-06
1.26396e-06
-1.10487e-06
1.58134e-06
-7.88626e-07
1.8227e-06
-5.502e-07
2.03055e-06
-4.36577e-07
2.20408e-06
-4.16155e-07
2.25865e-06
-2.23039e-07
2.06111e-06
3.65998e-07
1.64687e-06
9.7539e-07
1.09655e-06
1.45598e-06
4.96645e-07
1.63905e-06
-5.2422e-08
1.14842e-06
-3.28105e-07
3.90817e-07
-3.77235e-07
-1.67751e-07
-4.5045e-07
-9.11691e-08
-2.83416e-07
-5.23021e-07
-1.83972e-07
1.48573e-07
1.35061e-06
5.44984e-07
-1.88719e-06
9.05082e-07
-1.88774e-06
1.20663e-06
-1.40645e-06
1.43729e-06
-1.0193e-06
1.61832e-06
-7.31268e-07
1.77178e-06
-5.90018e-07
1.8903e-06
-5.34666e-07
1.89422e-06
-2.27137e-07
1.67236e-06
5.87441e-07
1.33127e-06
1.3159e-06
9.97014e-07
1.79513e-06
6.66503e-07
1.98153e-06
2.32675e-07
1.5866e-06
-8.78448e-08
7.11354e-07
-2.717e-07
1.61128e-08
-5.4928e-07
1.869e-07
-5.78689e-07
-4.90398e-07
-7.62693e-07
6.35738e-07
7.1479e-07
8.05742e-07
-2.05344e-06
9.72136e-07
-2.05417e-06
1.15661e-06
-1.59096e-06
1.31657e-06
-1.17927e-06
1.44318e-06
-8.57974e-07
1.54644e-06
-6.93419e-07
1.62387e-06
-6.12206e-07
1.61447e-06
-2.18428e-07
1.4176e-06
7.83033e-07
1.14933e-06
1.58412e-06
9.27575e-07
2.01688e-06
7.28577e-07
2.18053e-06
3.9804e-07
1.91785e-06
1.1029e-07
9.97806e-07
-1.1392e-07
2.4027e-07
-5.15478e-07
5.87701e-07
-6.61308e-07
-3.4604e-07
-1.42833e-06
8.91117e-07
-1.74192e-07
9.4589e-07
-2.10731e-06
9.94877e-07
-2.10316e-06
1.09795e-06
-1.69403e-06
1.20132e-06
-1.28265e-06
1.27976e-06
-9.36499e-07
1.33756e-06
-7.51724e-07
1.38247e-06
-6.57647e-07
1.37924e-06
-2.15667e-07
1.23128e-06
9.29747e-07
1.03158e-06
1.78433e-06
8.89259e-07
2.15919e-06
7.58403e-07
2.31138e-06
4.90563e-07
2.18402e-06
3.0025e-07
1.17824e-06
1.08395e-07
4.30046e-07
-3.08437e-07
1.00251e-06
-5.103e-07
-1.45253e-07
-1.93863e-06
8.91104e-07
-1.0653e-06
9.61111e-07
-2.17732e-06
9.70324e-07
-2.11238e-06
1.02408e-06
-1.74779e-06
1.08532e-06
-1.34392e-06
1.12301e-06
-9.74355e-07
1.13899e-06
-7.67758e-07
1.15373e-06
-6.724e-07
1.16784e-06
-2.31267e-07
1.08135e-06
1.01024e-06
9.49593e-07
1.91662e-06
8.66851e-07
2.24193e-06
7.93264e-07
2.38497e-06
5.76917e-07
2.40037e-06
4.80627e-07
1.26468e-06
3.75671e-07
5.4034e-07
4.50049e-08
1.32739e-06
-2.13592e-07
1.13497e-07
-2.15223e-06
7.73558e-07
-1.83887e-06
9.04977e-07
-2.30874e-06
9.09666e-07
-2.11708e-06
9.344e-07
-1.77256e-06
9.65617e-07
-1.37517e-06
9.70889e-07
-9.79632e-07
9.48986e-07
-7.45861e-07
9.28005e-07
-6.51424e-07
9.50077e-07
-2.56779e-07
9.55955e-07
9.96125e-07
8.90126e-07
1.97017e-06
8.60384e-07
2.27168e-06
8.21692e-07
2.42366e-06
6.97424e-07
2.48202e-06
6.97892e-07
1.27607e-06
6.20186e-07
6.18254e-07
4.15302e-07
1.52649e-06
1.40604e-07
3.91452e-07
-2.01162e-06
7.37634e-07
-2.5765e-06
8.36689e-07
-2.4078e-06
8.27275e-07
-2.10767e-06
8.29447e-07
-1.77474e-06
8.40017e-07
-1.38574e-06
8.22884e-07
-9.62509e-07
7.72101e-07
-6.95132e-07
7.11729e-07
-5.9221e-07
7.11346e-07
-2.57916e-07
8.32185e-07
8.51601e-07
8.43857e-07
1.92224e-06
8.71887e-07
2.22019e-06
8.54028e-07
2.40136e-06
8.89392e-07
2.40035e-06
9.44324e-07
1.24094e-06
8.13092e-07
7.49696e-07
7.60127e-07
1.59386e-06
4.72917e-07
6.76783e-07
-1.53871e-06
-3.49877e-07
1.52099e-06
-7.13082e-07
1.54076e-06
-1.06473e-06
1.49424e-06
-1.39848e-06
1.41233e-06
-1.71075e-06
1.29678e-06
-2.00001e-06
1.15348e-06
-2.25737e-06
9.75988e-07
-2.47277e-06
7.71041e-07
-2.64484e-06
5.62378e-07
-2.77942e-06
3.59908e-07
-2.88683e-06
1.5466e-07
-2.97431e-06
-8.13398e-08
-3.04099e-06
-3.68279e-07
-3.09141e-06
-6.69781e-07
-3.11023e-06
-9.43003e-07
-3.05065e-06
-1.09914e-06
-2.78498e-06
-1.03019e-06
-2.12991e-06
-7.55877e-07
-1.37761e-06
-5.65094e-07
-6.27085e-07
-6.76879e-07
6.42235e-08
-1.11355e-06
6.17066e-08
-1.65157e-06
-1.88364e-06
-4.03679e-07
-3.56642e-07
1.48028e-06
-7.2417e-07
1.50344e-06
-1.09958e-06
1.47214e-06
-1.4614e-06
1.39542e-06
-1.77651e-06
1.2635e-06
-2.06461e-06
1.12501e-06
-2.34588e-06
9.80084e-07
-2.58204e-06
7.84852e-07
-2.76258e-06
5.77911e-07
-2.88862e-06
3.78457e-07
-2.96432e-06
1.8317e-07
-3.00945e-06
-2.24997e-08
-3.04504e-06
-2.58623e-07
-3.09464e-06
-4.85929e-07
-3.13952e-06
-6.98956e-07
-3.10039e-06
-8.7848e-07
-2.84725e-06
-9.92389e-07
-2.25457e-06
-1.04715e-06
-1.41532e-06
-1.09179e-06
-5.62786e-07
-1.18169e-06
5.24988e-08
-1.31915e-06
3.0115e-07
-1.43025e-06
-1.45461e-06
3.70073e-07
-1.99936e-07
1.31393e-09
-3.51171e-07
0
-4.75332e-07
1.32356e-09
-5.87952e-07
7.64104e-10
-7.06083e-07
0
-8.00153e-07
0
-8.63157e-07
0
-9.2643e-07
0
-9.8319e-07
0
-1.01463e-06
0
-1.01366e-06
0
-9.88818e-07
-8.97902e-09
-9.71869e-07
-1.39033e-09
-9.68941e-07
-1.85237e-09
-9.78245e-07
-2.62186e-09
-9.78279e-07
-3.99447e-09
-9.06062e-07
-4.91128e-09
-7.11443e-07
-4.99111e-09
-4.22663e-07
-3.25165e-09
-1.2691e-07
-3.77804e-09
7.76426e-08
-3.78516e-09
1.74608e-07
-3.32928e-09
-2.26527e-09
2.10402e-07
-1.50598e-09
0
-2.70158e-09
0
-3.31448e-09
7.03231e-13
-2.69339e-09
1.70958e-12
-4.03068e-09
0
-6.81152e-09
0
-4.82976e-09
1.78178e-12
-3.90442e-09
0
-3.53145e-09
0
-3.15331e-09
0
-2.63719e-09
0
-7.83733e-10
-1.14128e-09
-7.88365e-10
-1.37918e-09
-8.25119e-10
-1.81574e-09
-8.54395e-10
-2.60215e-09
-8.1511e-10
-4.05521e-09
-7.18573e-10
-5.04505e-09
-5.42227e-10
-5.21601e-09
-3.86284e-10
-3.46161e-09
-1.41826e-10
-4.08311e-09
8.33984e-11
-4.07904e-09
2.28785e-10
-3.55025e-09
-2.42647e-09
3.10554e-10
-1.35882e-09
3.47031e-10
-1.96234e-09
1.99351e-10
-4.17767e-09
2.09731e-10
-5.00662e-09
6.69975e-10
-4.47775e-09
9.4766e-10
-9.33526e-09
1.18501e-09
-1.20592e-08
-2.76633e-10
-1.06143e-08
7.50847e-10
-9.38368e-09
9.69814e-10
-9.53546e-09
9.3312e-11
-7.89234e-09
-9.03031e-15
-7.38247e-09
-5.14781e-14
-4.83432e-09
-2.12289e-12
-1.88044e-09
-1.08e-10
6.21174e-11
-1.49483e-09
1.77329e-10
-1.45875e-09
6.18617e-11
-1.72133e-09
1.52036e-11
-2.22273e-09
-4.56042e-10
-1.90625e-09
-5.27189e-10
-2.66939e-09
-8.64416e-10
-2.45259e-09
-9.17191e-10
-2.20725e-09
-2.07154e-09
-7.82914e-10
3.16411e-10
1.01437e-10
6.39688e-10
1.85648e-10
4.57833e-10
0
-2.23388e-10
0
-4.19602e-10
0
-5.72821e-11
0
-9.44638e-11
1.2382e-13
-2.08283e-10
0
-1.24767e-10
0
-6.66673e-14
-8.43358e-15
-6.86317e-14
-7.73821e-15
-7.91181e-14
-4.16194e-14
-3.10748e-13
-1.89197e-12
-1.73599e-11
-9.09708e-11
-8.23859e-12
-2.69959e-10
-1.72228e-11
-2.03106e-10
-1.30512e-10
-8.47041e-11
-5.45614e-10
-8.70522e-11
-5.86103e-10
-3.88671e-10
-1.06897e-09
-3.72209e-10
-1.05527e-09
-5.94692e-10
-1.06649e-09
-9.70199e-10
-1.29382e-09
-1.41465e-09
2.06057e-11
3.20099e-14
3.24773e-11
1.96416e-14
2.2545e-11
0
4.74038e-13
0
1.26924e-12
0
-4.19843e-14
0
-9.27225e-14
0
-7.78553e-14
0
-4.55673e-14
0
-5.47806e-14
0
-6.47122e-14
1.5656e-15
-8.77199e-14
-1.93257e-14
-2.08867e-11
-1.74164e-11
-1.73155e-10
-1.61541e-10
-1.03904e-10
-2.05114e-10
-9.19557e-11
-1.7184e-10
-1.98426e-11
-4.73208e-11
-3.11389e-11
-4.31482e-11
-2.43419e-11
-4.60121e-11
-2.77626e-11
-8.19407e-15
-2.89826e-10
-2.14761e-14
-4.50934e-10
-1.64791e-14
-9.32184e-15
-5.12795e-10
1.7857e-14
1.26378e-14
2.31603e-14
1.20398e-14
-2.31159e-15
1.7521e-14
3.8938e-16
0
4.64578e-13
0
1.43397e-13
5.24982e-12
-1.46159e-13
3.16896e-12
-1.36504e-13
1.14951e-12
-6.93353e-13
5.22166e-13
-9.35308e-13
1.43617e-12
0
5.02871e-13
0
-4.28029e-14
-9.11875e-11
-1.22835e-11
-8.86089e-11
-3.40402e-11
-1.54943e-10
-9.21129e-12
-9.8628e-11
-8.045e-11
-6.22413e-11
-6.2318e-11
-4.58417e-11
-2.6954e-11
-1.2544e-14
-8.25135e-14
-6.90348e-15
-1.3688e-14
-7.99077e-15
-2.03523e-14
-9.72655e-15
-1.47595e-14
-7.9202e-15
-1.11463e-14
1.92471e-16
1.15916e-14
2.94132e-17
1.13568e-14
-5.72507e-16
1.55751e-14
0
1.59253e-16
3.27084e-14
7.38737e-14
4.86295e-13
6.16644e-12
2.18189e-13
4.80728e-12
-5.06524e-14
1.87961e-12
-6.25451e-13
1.00264e-12
-1.30803e-12
2.11989e-12
-9.14789e-14
1.02861e-12
-2.86939e-12
-5.09894e-14
-3.84974e-12
-1.20853e-15
-1.85997e-14
-3.32487e-15
-9.29655e-12
-1.44945e-14
-3.22e-11
-6.72444e-13
-4.22338e-11
-3.66158e-12
-1.35064e-13
-7.87377e-12
-4.85117e-14
-1.49089e-13
-3.56013e-14
-6.66375e-15
-3.3639e-14
-5.21628e-15
-1.08119e-14
-1.3601e-14
-7.79226e-15
-1.0956e-14
-1.74267e-16
1.09121e-14
-5.08346e-16
1.08371e-14
-9.1088e-16
1.69203e-13
0
1.41548e-14
7.2028e-14
1.95817e-15
5.04102e-13
4.89786e-13
2.87632e-13
1.974e-12
9.90117e-14
0
-7.05124e-14
1.8143e-12
-4.28137e-13
2.47866e-12
-5.15161e-13
1.11677e-12
-2.73137e-16
2.16852e-14
-4.48657e-16
-5.74165e-16
-1.42971e-15
-1.88798e-15
-2.09054e-15
-9.42205e-14
-9.17003e-15
-7.46517e-13
-2.85207e-12
-9.01288e-13
-7.97275e-13
-7.27452e-13
-8.58423e-14
-2.20439e-14
-6.1859e-14
-1.06694e-14
-7.21696e-14
-1.88611e-14
-5.01774e-14
-2.05154e-14
-1.39328e-14
-2.25895e-16
-7.06191e-16
1.53535e-14
-7.81028e-15
3.73299e-13
-5.98527e-15
3.99437e-13
2.60106e-17
5.03686e-14
3.82101e-16
1.69163e-15
1.28499e-14
1.68076e-15
4.81891e-14
1.01386e-13
9.67584e-14
1.28783e-13
8.90816e-14
1.76095e-12
-1.00423e-13
2.66931e-12
-1.68455e-13
5.23543e-13
-4.72729e-16
5.4547e-16
-3.81111e-16
-2.02339e-16
-1.79406e-15
-6.51121e-16
-5.07938e-13
-1.35791e-13
-1.40716e-12
-2.79229e-12
-2.96142e-13
-6.75638e-12
-6.29348e-14
-1.32319e-12
-5.2557e-14
-6.26738e-16
-8.88278e-14
-7.0396e-15
-9.36541e-14
-7.31454e-15
-8.36109e-14
-2.38385e-14
-5.31874e-15
0
-2.96412e-16
2.08711e-14
-2.04358e-15
3.8046e-13
-4.67614e-16
4.02855e-13
0
8.53434e-14
5.56038e-17
1.65062e-15
1.18271e-16
1.61689e-15
2.52847e-16
1.00773e-13
1.06901e-14
1.22309e-13
3.04802e-13
2.90025e-12
-7.41178e-14
1.09365e-12
-1.15212e-15
2.339e-14
-4.21585e-16
2.78374e-16
-3.20978e-16
7.12398e-19
-3.01209e-15
-2.55839e-16
-2.16498e-12
-2.12119e-13
-1.09179e-11
-4.59577e-12
-1.06718e-11
-5.89667e-12
-1.94883e-12
-4.41661e-12
-4.16636e-14
-1.88807e-12
-2.73549e-14
-1.65051e-15
-5.99071e-14
-3.65072e-15
-3.34228e-14
-6.85379e-15
-4.19842e-15
-2.61434e-15
1.38488e-15
1.06982e-14
4.62926e-15
1.86925e-13
7.15471e-15
4.0532e-13
0
6.21078e-14
1.53968e-16
1.59952e-15
3.58566e-16
1.41201e-15
1.91671e-13
1.46705e-12
3.02182e-13
3.20997e-12
6.43478e-14
2.30607e-12
-2.33532e-14
0
-3.87081e-16
6.57016e-16
-3.25029e-16
4.52126e-16
-2.48666e-16
1.77518e-16
0
-2.19757e-17
-2.44552e-12
-5.57322e-15
-1.05288e-11
-1.69272e-12
-1.20474e-11
-3.27221e-12
-1.09622e-11
-4.39609e-12
-2.07311e-14
-1.73864e-12
-2.29733e-14
-1.49249e-15
-1.47506e-14
-1.8223e-15
-1.55679e-14
-5.54585e-15
-5.65591e-15
-7.60033e-15
3.68029e-16
3.92747e-15
3.65298e-15
0
6.56836e-15
5.53628e-14
0
9.22142e-15
1.85819e-16
1.58948e-15
1.89334e-16
1.40821e-15
1.81083e-13
2.19199e-12
2.02162e-13
3.41276e-12
1.09409e-14
1.66796e-12
-1.91069e-16
2.74905e-15
-2.57065e-16
9.07794e-16
-3.89877e-16
6.79614e-16
-1.5155e-16
3.32386e-16
0
2.50698e-17
0
-3.83575e-17
-2.62236e-12
-6.17264e-14
-8.75806e-12
-1.06243e-12
-1.05536e-11
-1.47656e-12
-2.15696e-14
-3.83136e-13
-2.36338e-14
-1.50209e-15
-2.56934e-14
-3.75488e-15
-2.94803e-14
-8.77766e-15
-8.02541e-15
-7.83071e-15
6.94328e-17
3.60581e-15
5.54972e-17
1.81611e-15
3.06996e-16
1.76332e-15
1.29939e-16
1.57923e-15
1.26443e-16
1.59269e-15
1.25495e-16
1.40887e-15
1.45402e-13
1.04485e-12
1.55469e-13
3.62755e-12
-2.40459e-15
4.9305e-14
-1.89309e-16
4.70357e-16
-2.86556e-16
1.05957e-15
-2.92248e-16
9.5054e-16
-9.96081e-17
4.02497e-16
-5.27994e-17
3.11749e-17
-9.41673e-17
8.50542e-18
-4.29701e-14
-9.66246e-17
-6.21876e-13
-2.25412e-17
-3.10414e-13
-4.20107e-17
-2.81326e-14
-5.60243e-15
-3.71082e-14
-1.51032e-15
-3.29884e-14
-6.14336e-15
-1.89702e-14
-8.38195e-15
-3.82755e-15
-3.91053e-15
1.98468e-17
2.73061e-15
3.40906e-17
9.4556e-16
4.46304e-17
8.97182e-16
6.84521e-17
8.55291e-16
1.73274e-15
4.91957e-15
1.37436e-14
4.2929e-14
3.70257e-14
0
1.76317e-14
3.23437e-17
-2.66397e-17
0
-1.18853e-16
5.00208e-16
-2.43313e-16
1.14951e-15
-2.22137e-16
8.92483e-16
-4.86144e-17
1.66094e-16
-5.04194e-17
3.27092e-17
-5.73504e-17
2.09584e-17
-6.80978e-17
6.62925e-18
-7.96829e-17
-5.10486e-18
-9.9641e-17
-1.63579e-17
-5.66289e-15
-3.33315e-17
-2.01751e-14
-4.68257e-16
-2.82273e-14
-2.39616e-15
-1.2377e-14
-3.43768e-15
-1.52126e-15
-2.80422e-15
4.01519e-15
8.87081e-13
9.43048e-15
9.37776e-13
0
2.80887e-15
1.53662e-16
1.11429e-15
1.45786e-15
1.0201e-14
2.50701e-15
2.9016e-14
3.51566e-17
0
1.73415e-17
3.52321e-17
-3.01667e-18
2.37884e-17
-6.78203e-17
3.13908e-16
-1.21696e-16
5.23195e-16
-5.26995e-17
2.68291e-16
-2.33256e-17
3.23745e-17
-3.86689e-17
2.42578e-17
-5.51371e-17
3.06108e-17
-6.38321e-17
1.92631e-17
-6.74547e-17
7.43467e-18
-7.772e-17
-7.57804e-19
-5.15121e-16
-6.91624e-18
-2.24793e-15
-1.90749e-17
-2.29752e-15
-8.58919e-17
-1.72043e-15
-1.33295e-16
-2.15838e-16
-2.21612e-15
8.4068e-15
1.0149e-12
1.30925e-14
7.80729e-13
0
2.79077e-15
1.27994e-16
1.60048e-15
7.6717e-16
9.24062e-15
7.3442e-16
3.07783e-15
1.37657e-18
5.62537e-17
7.35726e-19
3.08661e-17
-8.75993e-19
2.0538e-17
-1.34409e-17
5.7852e-17
-1.87903e-17
5.66882e-17
-3.54005e-18
1.44273e-17
-6.15041e-18
1.73609e-18
-2.13152e-17
1.01085e-17
-3.93468e-17
2.30907e-17
-5.12244e-17
2.24495e-17
-5.81235e-17
1.46063e-17
-5.55339e-17
5.40604e-18
-4.06542e-17
-8.23407e-19
-6.1068e-18
-2.37996e-18
-7.7747e-18
-1.52949e-18
-1.45293e-16
-2.20582e-18
-3.18262e-18
-2.19996e-16
1.68347e-14
9.87994e-13
3.91135e-15
2.81741e-13
0
4.58508e-16
1.00024e-16
1.5393e-15
2.72418e-16
3.36929e-15
1.17974e-17
7.10347e-17
1.58537e-18
3.43911e-17
7.86809e-19
3.62698e-17
-2.05109e-20
6.68966e-18
-5.68847e-19
1.5977e-18
-4.25324e-19
7.15248e-19
-7.26592e-20
2.43551e-18
-4.15759e-19
3.6204e-19
-5.20403e-18
8.61442e-19
-1.46769e-17
5.21001e-18
-2.04364e-17
7.60384e-18
-2.2802e-17
5.55532e-18
-1.9133e-17
2.47877e-18
-1.19061e-17
3.21239e-19
-6.581e-18
-1.99968e-19
-3.47048e-18
-3.13733e-19
-2.30263e-18
-2.70921e-19
-2.70039e-19
-6.87897e-19
5.76553e-15
9.71983e-13
1.36677e-16
6.77172e-14
0
2.22318e-16
5.17511e-17
7.84038e-16
6.37707e-17
5.1628e-16
1.44841e-18
1.5694e-17
1.10154e-18
2.59079e-17
6.2435e-19
2.15944e-17
1.92985e-21
1.89449e-18
-3.67987e-21
1.99059e-19
3.12636e-20
6.79103e-20
7.65992e-20
-4.32141e-19
-2.91002e-20
-5.32795e-19
-2.23953e-19
1.14941e-19
-1.48607e-18
1.21835e-18
-2.09734e-18
3.10461e-19
-2.13692e-18
2.37707e-19
-1.52668e-18
8.90268e-20
-9.95382e-19
1.92248e-20
-6.99513e-19
-5.40662e-21
-3.77556e-19
-1.50786e-20
-2.41757e-19
9.81555e-24
2.59094e-22
-2.3739e-19
3.40528e-15
9.65888e-13
3.75299e-16
1.72132e-13
2.98134e-18
2.14218e-16
1.17676e-17
2.04753e-16
4.13798e-18
9.5117e-17
5.12387e-19
1.24964e-17
4.49189e-19
6.09778e-18
2.1299e-19
2.54713e-18
-4.7841e-21
-3.56837e-19
1.18351e-20
-1.44548e-18
6.7185e-20
-1.59416e-18
1.15851e-19
-1.61145e-18
1.07741e-19
-1.2422e-18
3.0833e-20
-6.29595e-19
-1.54412e-20
-1.06015e-19
-2.25119e-20
3.20455e-20
-1.86618e-20
2.81229e-20
-9.27816e-21
9.54855e-21
-5.08367e-21
2.02303e-21
-3.06653e-21
7.77244e-23
1.89854e-23
1.21782e-20
3.69057e-22
1.5717e-20
1.42704e-20
-1.37119e-21
1.68141e-15
9.64219e-13
3.18873e-16
9.90567e-13
0
2.20888e-16
2.20788e-18
9.65889e-17
1.86961e-18
8.53007e-17
9.7831e-20
1.23639e-17
1.59737e-20
2.57274e-19
1.02855e-20
3.55667e-19
-3.18486e-20
-1.49163e-18
-1.84072e-20
-2.25329e-18
2.7657e-20
-2.25228e-18
7.32712e-20
-1.9588e-18
9.68706e-20
-1.47008e-18
9.46296e-20
-9.33244e-19
7.94862e-20
-5.09265e-19
7.16293e-20
-2.53144e-19
6.69885e-20
-1.35909e-19
6.02944e-20
-7.2034e-20
5.03766e-20
-3.07514e-20
3.83025e-20
-4.63057e-21
2.68967e-20
7.71911e-21
1.76168e-20
1.16113e-20
1.11236e-20
1.07378e-20
-3.56304e-16
9.64588e-13
3.22939e-15
9.86994e-13
0
5.73486e-16
1.71462e-18
9.48095e-17
2.1644e-18
9.21473e-17
5.96521e-20
1.29524e-17
3.61772e-21
1.08355e-19
-1.09587e-20
-3.30715e-19
-4.83878e-20
-1.61033e-18
-4.79471e-20
-2.11134e-18
-2.0273e-20
-2.04214e-18
1.48113e-20
-1.71203e-18
4.01015e-20
-1.27779e-18
5.27041e-20
-8.55543e-19
5.49784e-20
-5.23388e-19
5.24099e-20
-2.98552e-19
4.70159e-20
-1.63636e-19
3.95271e-20
-8.26974e-20
3.12886e-20
-3.43896e-20
2.34899e-20
-7.55876e-21
1.67406e-20
3.14595e-21
1.12562e-20
5.72734e-21
5.73847e-21
7.15614e-21
-1.81369e-15
9.66414e-13
1.15972e-15
9.84033e-13
0
2.7247e-16
1.75187e-18
1.30105e-16
2.73416e-18
1.39307e-16
7.92519e-20
1.67833e-17
2.72487e-20
1.33136e-18
-1.04409e-21
-2.68203e-20
-3.29348e-20
-8.29011e-19
-4.73247e-20
-1.26584e-18
-4.10953e-20
-1.31989e-18
-2.28312e-20
-1.14753e-18
-1.84242e-21
-8.78565e-19
1.13409e-20
-6.05859e-19
1.79358e-20
-3.83393e-19
1.97821e-20
-2.2516e-19
1.84739e-20
-1.23007e-19
1.54561e-20
-6.04748e-20
1.1986e-20
-2.47425e-20
8.88572e-21
-6.27689e-21
6.35099e-21
9.80826e-22
4.34169e-21
2.2856e-21
2.36431e-21
2.78477e-21
-2.68635e-15
9.69112e-13
-2.02205e-19
1.97171e-13
0
1.02305e-16
3.22458e-18
2.96335e-16
4.35304e-18
2.40837e-16
2.30918e-19
2.93738e-17
1.38137e-19
7.90575e-18
1.05339e-19
5.44156e-18
2.7302e-20
2.85618e-18
7.57768e-22
1.0242e-18
-1.84108e-20
-3.5657e-19
-2.34274e-20
-4.92248e-19
-1.81137e-20
-4.58557e-19
-9.0409e-21
-3.45815e-19
-1.26635e-21
-2.27723e-19
2.45922e-21
-1.3582e-19
3.71705e-21
-7.40911e-20
3.65188e-21
-3.57692e-20
2.99517e-21
-1.4375e-20
2.2492e-21
-3.8463e-21
1.61457e-21
2.41884e-22
1.12449e-21
7.94557e-22
8.19978e-22
7.47912e-22
-1.51815e-15
1.31955e-13
-2.34108e-17
1.80631e-16
6.34566e-19
2.06246e-16
8.43568e-18
6.22969e-16
5.96739e-18
3.70208e-16
7.84745e-19
5.57947e-17
7.15217e-19
2.56308e-17
6.87251e-19
2.10019e-17
4.55165e-19
1.45352e-17
2.15325e-19
8.06955e-18
5.65045e-20
3.18904e-18
2.00197e-20
8.28719e-19
-7.74898e-21
-1.05805e-19
-1.06415e-20
-1.50651e-19
-7.41251e-21
-1.13777e-19
-3.90405e-21
-6.98861e-20
-1.57648e-21
-3.85676e-20
-2.84603e-22
-1.84254e-20
1.50744e-22
-7.25529e-21
2.18711e-22
-1.95655e-21
1.94126e-22
4.54023e-23
1.50135e-22
2.57573e-22
2.53757e-22
1.13324e-22
-2.50602e-18
2.68517e-16
3.32227e-19
2.33298e-16
5.42309e-18
5.58478e-16
1.59106e-17
7.12213e-16
9.01283e-18
4.17881e-16
2.2059e-18
9.49835e-17
2.22326e-18
5.75878e-17
2.24192e-18
4.92067e-17
1.68572e-18
3.63254e-17
9.77076e-19
2.2281e-17
4.03192e-19
1.0594e-17
9.80578e-20
3.54426e-18
3.6832e-20
6.31999e-19
-3.19789e-21
-2.91367e-20
-5.59523e-21
-4.81106e-20
-3.9384e-21
-3.16372e-20
-2.44738e-21
-1.79409e-20
-1.33923e-21
-8.54041e-21
-6.57969e-22
-3.29609e-21
-2.94265e-22
-8.77661e-22
-1.2257e-22
4.58722e-24
-4.89316e-23
8.14345e-23
7.69973e-23
-1.91652e-23
-2.69626e-19
2.71135e-16
1.88206e-18
2.87807e-16
1.15883e-17
6.6237e-16
2.21647e-17
7.26174e-16
1.18289e-17
4.12648e-16
4.97775e-18
1.34369e-16
5.11743e-18
9.92789e-17
5.14537e-18
8.59498e-17
4.00085e-18
6.44618e-17
2.5573e-18
4.19943e-17
1.14208e-18
2.09838e-17
3.1187e-19
7.14299e-18
3.41221e-20
1.30468e-18
6.11655e-21
6.06285e-20
-2.56481e-21
-1.6028e-20
-2.34702e-21
-1.28934e-20
-1.64454e-21
-7.64034e-21
-9.88851e-22
-3.64032e-21
-5.31443e-22
-1.37433e-21
-2.61923e-22
-3.56299e-22
-1.22119e-22
-2.63445e-24
-5.64713e-23
2.59787e-23
2.41559e-23
-2.68977e-23
8.71445e-19
2.73159e-16
3.82504e-18
2.79939e-16
1.80622e-17
6.24695e-16
2.72212e-17
6.19564e-16
1.37902e-17
3.34476e-16
8.90964e-18
1.50707e-16
9.39835e-18
1.33111e-16
9.43768e-18
1.20572e-16
7.32922e-18
9.26673e-17
4.89829e-18
6.2119e-17
2.24445e-18
3.18505e-17
5.65921e-19
1.02917e-17
4.95152e-20
1.48586e-18
1.16802e-20
6.72222e-20
-5.22645e-22
-2.6553e-21
-1.10199e-21
-4.80031e-21
-8.48153e-22
-3.03545e-21
-5.27452e-22
-1.44889e-21
-2.85529e-22
-5.33155e-22
-1.39323e-22
-1.33081e-22
-6.39458e-23
-2.11572e-24
-2.94754e-23
8.03059e-24
7.27472e-24
-1.39771e-23
1.9412e-18
2.74107e-16
4.67378e-18
2.08909e-16
1.58052e-17
3.19383e-16
1.9519e-17
2.7711e-16
1.31369e-17
1.85437e-16
1.25405e-17
1.49801e-16
1.36619e-17
1.41453e-16
1.44347e-17
1.35755e-16
1.1343e-17
1.12739e-16
7.52963e-18
7.70295e-17
3.41949e-18
3.94355e-17
7.39455e-19
1.15945e-17
4.84134e-20
1.49548e-18
2.68966e-21
5.09881e-20
1.9395e-24
3.2419e-23
-4.49219e-22
-1.67851e-21
-3.7801e-22
-1.14534e-21
-2.37787e-22
-5.45066e-22
-1.26474e-22
-1.94148e-22
-5.98709e-23
-4.63744e-23
-2.65719e-23
-7.76955e-25
-1.18622e-23
2.38778e-24
2.09084e-24
-5.48309e-24
4.17979e-18
5.06189e-16
4.75098e-18
1.96279e-16
8.1365e-18
2.48438e-16
1.08571e-17
2.73523e-16
1.32341e-17
1.50181e-16
1.51256e-17
1.46369e-16
1.63037e-17
1.40644e-16
1.71864e-17
1.36022e-16
1.50331e-17
1.18315e-16
9.7568e-18
8.2577e-17
4.19715e-18
4.13664e-17
7.85738e-19
1.17079e-17
4.012e-20
1.24918e-18
2.15112e-22
2.20896e-20
9.87794e-24
3.60143e-23
-1.71742e-22
-5.79274e-22
-1.53549e-22
-4.1758e-22
-9.60104e-23
-1.96157e-22
-4.94445e-23
-6.71032e-23
-2.24264e-23
-1.51997e-23
-9.49503e-24
-2.02078e-25
-4.07392e-24
6.68153e-25
5.5172e-25
-1.82391e-24
2.16991e-17
1.73145e-15
6.25274e-18
2.10786e-16
1.01276e-17
2.43697e-16
1.35342e-17
2.69225e-16
1.5765e-17
1.47084e-16
1.70686e-17
1.44173e-16
1.81113e-17
1.35015e-16
1.939e-17
1.35746e-16
1.71251e-17
1.18499e-16
1.10338e-17
8.30416e-17
4.52854e-18
4.15195e-17
7.48189e-19
1.08214e-17
2.25783e-20
7.73808e-19
4.78545e-23
6.39956e-21
3.90038e-24
5.73943e-24
-6.37689e-23
-2.01621e-22
-5.86245e-23
-1.4925e-22
-3.5771e-23
-6.82259e-23
-1.75791e-23
-2.2172e-23
-7.53494e-24
-4.70519e-24
-2.99356e-24
-3.76925e-26
-1.22031e-24
1.70596e-25
1.30195e-25
-5.17472e-25
1.31326e-16
1.80695e-15
3.30433e-15
9.09266e-14
2.40474e-14
1.21482e-12
8.54823e-14
2.25648e-12
4.38256e-17
8.55846e-14
1.97048e-17
1.67404e-16
2.00761e-17
1.33512e-16
2.13417e-17
1.33642e-16
1.86118e-17
1.17036e-16
1.17354e-17
8.15551e-17
4.44443e-18
3.8418e-17
5.48006e-19
8.00371e-18
8.54012e-21
3.51841e-19
7.59509e-24
1.47663e-21
7.47692e-25
5.50417e-25
-2.35452e-23
-7.19425e-23
-2.14267e-23
-5.28138e-23
-1.24904e-23
-2.30717e-23
-5.75561e-24
-7.01849e-24
-2.28476e-24
-1.37049e-24
-8.31928e-25
-4.02066e-27
-3.16381e-25
3.88744e-26
2.69003e-26
-1.24643e-25
2.82468e-16
1.73492e-15
1.25863e-13
4.52455e-13
3.10657e-13
2.43993e-12
2.11153e-13
2.36012e-12
1.48554e-15
2.10544e-12
2.61496e-17
2.82114e-14
1.95227e-17
1.38256e-16
2.23681e-17
1.27257e-16
1.93205e-17
1.11111e-16
1.14337e-17
7.41598e-17
3.58871e-18
3.02079e-17
2.84343e-19
4.48713e-18
2.20602e-21
1.13158e-19
8.97284e-25
2.41463e-22
9.69959e-26
4.10442e-26
-8.76008e-24
-2.65528e-23
-7.56268e-24
-1.85782e-23
-4.10912e-24
-7.58825e-24
-1.73757e-24
-2.12067e-24
-6.22589e-25
-3.72655e-25
-2.02783e-25
3.15081e-29
-7.04125e-26
7.69648e-27
4.74341e-27
-2.52524e-26
3.29513e-16
1.61652e-15
9.98137e-14
4.43241e-13
3.5753e-13
2.18635e-12
3.91144e-13
2.33064e-12
1.23533e-13
1.44535e-12
5.22859e-17
4.74637e-14
1.60531e-17
1.44763e-16
2.22703e-17
1.19895e-16
1.86415e-17
1.0055e-16
9.67278e-18
6.04455e-17
2.24107e-18
1.94391e-17
9.9499e-20
1.82053e-18
3.50719e-22
2.28042e-20
6.22057e-26
2.14968e-23
9.28102e-27
3.32267e-26
-3.31611e-24
-1.02057e-23
-2.582e-24
-6.48891e-24
-1.27206e-24
-2.41812e-24
-4.81477e-25
-6.07607e-25
-1.51256e-25
-9.37993e-26
-4.27492e-26
2.16e-29
-1.32056e-26
1.29062e-27
6.93846e-28
-4.22157e-27
3.91919e-16
1.43661e-15
2.56695e-13
7.86316e-14
4.39028e-13
1.10683e-12
4.63784e-13
2.31002e-12
1.93984e-14
2.95093e-13
7.33403e-18
4.90257e-15
2.11544e-17
1.27292e-16
2.26323e-17
1.14785e-16
1.61381e-17
8.55058e-17
6.77518e-18
4.2717e-17
1.01334e-18
9.64688e-18
2.11396e-20
4.76198e-19
2.84087e-23
2.37261e-21
2.45998e-24
9.45406e-25
-4.25059e-25
-1.55999e-24
-1.27373e-24
-4.06378e-24
-8.5054e-25
-2.24006e-24
-3.69615e-25
-7.43701e-25
-1.21841e-25
-1.64176e-25
-3.24993e-26
-2.17066e-26
-7.67921e-27
-7.7224e-30
-2.04378e-27
1.79121e-28
8.1619e-29
-5.67564e-28
2.32194e-15
2.96105e-15
3.29596e-14
1.90172e-16
1.7422e-13
0
1.8001e-13
0
0
0
0
3.31881e-16
2.4595e-17
1.53634e-16
2.05013e-17
1.10296e-16
1.17594e-17
6.46977e-17
3.64741e-18
2.42001e-17
2.9177e-19
3.21235e-18
2.26943e-21
6.51192e-20
9.72068e-25
1.0429e-22
1.15913e-25
2.13477e-26
-3.51787e-25
-1.3438e-24
-4.81067e-25
-1.62017e-24
-2.70059e-25
-7.61991e-25
-1.00925e-25
-2.20813e-25
-2.81452e-26
-4.1841e-26
-6.15538e-27
-4.61464e-27
-1.16358e-27
-1.56364e-29
-2.55389e-28
2.01386e-29
7.44865e-30
-5.94465e-29
1.37909e-15
3.57303e-15
8.70776e-16
2.64638e-15
6.70823e-16
2.55985e-16
3.95248e-16
0
8.86027e-17
1.91339e-16
6.7734e-17
3.49566e-16
3.18057e-17
2.08749e-16
1.58314e-17
1.0157e-16
6.71584e-18
4.09093e-17
1.28978e-18
9.47327e-18
4.2491e-20
5.58604e-19
9.67655e-23
3.51413e-21
1.32008e-26
1.76062e-24
2.95264e-27
1.28076e-26
-1.88911e-25
-7.59788e-25
-1.77644e-25
-6.40745e-25
-8.31198e-26
-2.56104e-25
-2.60969e-26
-6.36954e-26
-5.97627e-27
-1.01392e-26
-1.03249e-27
-9.09012e-28
-1.47936e-28
-5.98312e-30
-2.51642e-29
1.81951e-30
5.06793e-31
-4.65623e-30
1.53512e-15
1.2546e-15
1.31766e-15
3.56164e-15
4.29504e-16
2.24916e-15
1.68679e-16
9.89331e-16
1.13527e-16
6.22122e-16
7.77634e-17
4.48215e-16
3.1013e-17
2.14123e-16
1.06708e-17