/*--------------------------------*- C++ -*----------------------------------*\
  =========                 |
  \\      /  F ield         | OpenFOAM: The Open Source CFD Toolbox
   \\    /   O peration     | Website:  https://openfoam.org
    \\  /    A nd           | Version:  9
     \\/     M anipulation  |
\*---------------------------------------------------------------------------*/
FoamFile
{
    format      ascii;
    class       volScalarField;
    location    "115";
    object      epsilon;
}
// * * * * * * * * * * * * * * * * * * * * * * * * * * * * * * * * * * * * * //

dimensions      [0 2 -3 0 0 0 0];

internalField   nonuniform List<scalar> 
12225
(
285.515
270.706
257.907
243.822
232.439
223.116
216.766
212.715
212.747
213.97
217.256
220.899
228.219
232.725
241.79
245.968
257.965
264.659
52.4869
91.9014
106.952
114.782
124.816
136.841
152.666
169.985
191.161
211.047
235.432
255.666
281.586
299.684
325.985
340.125
367.88
376.646
20.3189
34.8672
44.6625
50.4866
55.3789
59.6339
64.6429
69.6795
76.308
83.2454
91.4629
99.4427
108.259
117.233
125.753
136.033
143.207
155.912
15.3459
19.7018
24.1059
27.5767
30.489
32.8809
35.1465
37.3082
39.495
41.9408
44.3369
47.2456
49.7003
53.1279
55.4893
59.4184
61.7167
66.1921
14.65
15.8629
17.3647
19.0777
20.6346
22.0306
23.2424
24.4373
25.4412
26.6036
27.5236
28.7733
29.6408
31.014
31.8454
33.324
34.1753
35.8093
14.7066
14.8768
15.2007
15.8683
16.5649
17.2887
17.9221
18.5867
19.1182
19.7375
20.194
20.8048
21.2131
21.8337
22.2122
22.849
23.2155
23.9161
14.7421
14.6201
14.6247
14.737
14.9292
15.2198
15.4906
15.8098
16.0707
16.384
16.6187
16.9227
17.1333
17.4319
17.6223
17.9227
18.0967
18.4298
14.7626
14.5866
14.4637
14.3813
14.3667
14.39
14.438
14.534
14.6184
14.7371
14.8311
14.9574
15.0488
15.1783
15.2639
15.3965
15.4767
15.6301
14.7666
14.5908
14.4345
14.2964
14.1849
14.1044
14.0396
14.0067
13.9814
13.9786
13.981
13.9919
14.0044
14.0303
14.0483
14.0814
14.1062
14.1508
14.7663
14.594
14.432
14.282
14.1429
14.0219
13.9114
13.8193
13.7369
13.6697
13.6101
13.5633
13.5181
13.4873
13.452
13.4349
13.4034
13.4031
14.7658
14.5945
14.4321
14.2803
14.1361
14.0032
13.8781
13.7643
13.6581
13.5628
13.4734
13.3951
13.3197
13.256
13.1915
13.141
13.0842
13.046
14.7657
14.5943
14.4321
14.2798
14.1353
13.9998
13.8714
13.7518
13.6384
13.5336
13.434
13.3429
13.2556
13.177
13.1002
13.0329
12.9649
12.9078
14.7657
14.5941
14.432
14.2794
14.1349
13.9989
13.8698
13.7484
13.6331
13.5249
13.4219
13.3256
13.2337
13.1483
13.0663
12.9907
12.9174
12.8506
14.7657
14.5939
14.4318
14.279
14.1346
13.9983
13.8691
13.7472
13.6315
13.5222
13.4184
13.3203
13.227
13.139
13.0551
12.976
12.9005
12.8295
14.7657
14.5938
14.4317
14.2787
14.1342
13.9977
13.8686
13.7464
13.6307
13.5211
13.4171
13.3185
13.2249
13.1362
13.0518
12.9717
12.8955
12.8232
14.7657
14.5937
14.4315
14.2785
14.1339
13.9973
13.8681
13.7458
13.63
13.5203
13.4162
13.3175
13.2238
13.1348
13.0503
12.97
12.8935
12.8209
14.7657
14.5937
14.4315
14.2783
14.1337
13.997
13.8677
13.7453
13.6294
13.5196
13.4155
13.3167
13.2229
13.1338
13.0492
12.9687
12.8922
12.8195
14.7657
14.5937
14.4314
14.2782
14.1335
13.9968
13.8674
13.745
13.629
13.5191
13.4149
13.316
13.2222
13.133
13.0483
12.9678
12.8912
12.8183
14.7657
14.5937
14.4314
14.2782
14.1335
13.9967
13.8673
13.7448
13.6288
13.5189
13.4147
13.3157
13.2218
13.1326
13.0479
12.9673
12.8906
12.8177
14.7657
14.5937
14.4314
14.2782
14.1336
13.9968
13.8674
13.745
13.629
13.5191
13.4148
13.3159
13.222
13.1328
13.048
12.9674
12.8908
12.8179
14.7657
14.5937
14.4315
14.2784
14.1337
13.997
13.8677
13.7453
13.6294
13.5196
13.4155
13.3166
13.2229
13.1339
13.0494
12.969
12.8927
12.82
14.7657
14.5937
14.4316
14.2785
14.1341
13.9974
13.8685
13.7464
13.6312
13.522
13.419
13.3214
13.2293
13.1418
13.0595
12.981
12.9074
12.8368
14.7658
14.5937
14.4318
14.2788
14.1353
14.0002
13.8742
13.756
13.6463
13.5435
13.4485
13.3591
13.277
13.1992
13.1282
13.0601
12.9988
12.9387
14.7655
14.5928
14.4328
14.2844
14.1515
14.0321
13.929
13.8375
13.7593
13.6894
13.6306
13.5769
13.5328
13.4905
13.4574
13.423
13.3989
13.3694
14.7592
14.5932
14.4603
14.3602
14.3029
14.2766
14.2805
14.2921
14.321
14.3531
14.3959
14.4346
14.4825
14.5218
14.5721
14.6091
14.6618
14.6942
14.7213
14.6911
14.754
14.9176
15.1827
15.4611
15.7475
16.012
16.2723
16.5038
16.7361
16.9387
17.1509
17.3312
17.5313
17.6941
17.8894
18.0368
14.7477
15.5124
16.5472
17.6842
18.7043
19.5676
20.3371
20.9969
21.6194
22.1662
22.719
23.2112
23.7404
24.205
24.7336
25.184
25.7267
26.1681
15.9871
20.9921
25.0236
27.7606
29.7844
31.3587
32.7768
34.0582
35.3593
36.617
37.9758
39.2984
40.7628
42.1481
43.7205
45.178
46.8891
48.3658
29.9031
47.2184
54.8693
58.6736
61.6135
64.4323
67.5803
70.9784
74.7391
78.7169
82.9879
87.3501
91.9117
96.461
101.113
105.641
110.197
114.606
165.798
160.075
154.899
149.564
144.479
139.677
135.615
132.108
129.27
126.974
125.32
124.045
123.34
122.826
122.843
122.962
123.287
123.832
2.60666
1.78795
2.76112
3.64738
4.4894
5.29526
6.05259
6.74236
7.33434
7.79167
8.06147
8.12408
7.91743
7.98201
8.16247
8.10888
7.62716
6.45055
7.27615
8.05998
8.71237
40.4259
47.1546
52.3591
58.4164
64.8605
71.7894
79.1301
86.8888
95.0121
103.502
112.306
121.431
130.824
140.5
150.406
160.565
170.925
181.52
192.299
203.307
214.495
225.91
237.502
249.323
261.324
273.559
285.977
298.636
311.483
324.576
337.863
351.398
365.128
379.104
393.268
407.673
422.256
437.065
452.034
467.209
482.518
498
513.581
529.294
545.062
560.912
576.763
592.633
608.437
624.188
639.793
655.259
670.486
685.48
700.138
714.483
728.473
742.182
755.292
767.922
779.982
791.513
802.419
812.757
822.422
831.5
839.868
847.61
854.631
860.932
866.574
871.565
875.937
879.704
882.896
885.527
887.607
889.124
890.142
890.619
891.095
891.474
891.473
891.195
891.082
890.499
890.064
890.274
890.269
890.472
892.894
891.045
891.214
891.727
892.166
896.397
894.499
895.378
900.454
898.31
899.693
905.257
903.777
902.531
902.872
902.804
903.205
905.596
901.775
900.919
900.047
900.433
896.71
893.136
888.663
883.447
877.457
870.609
862.967
854.503
845.343
835.496
824.633
812.813
800.032
786.287
771.618
756.118
739.869
722.865
705.241
686.9
667.889
649.061
629.403
609.425
596.145
585.261
574.326
563.13
551.666
539.991
528.264
516.284
504.011
491.73
479.617
467.529
455.483
443.617
431.725
419.919
408.261
396.8
385.172
374.477
360.498
351.656
320.117
6.56917
3.87141
3.70579
4.00361
4.50247
5.1148
5.80235
6.53864
7.29835
8.06218
8.83641
9.66702
10.5811
11.5989
12.6969
13.9138
15.4206
17.5337
20.0971
23.1252
27.212
33.0627
36.5812
39.8851
43.3479
46.9335
50.6403
54.4544
58.3696
62.3763
66.4709
70.6466
74.9022
79.2327
83.6397
88.1201
92.678
97.3126
102.032
106.832
111.71
116.663
121.696
126.805
131.995
137.264
142.616
148.047
153.562
159.157
164.835
170.593
176.433
182.348
188.342
194.407
200.546
206.748
213.016
219.338
225.715
232.135
238.595
245.084
251.596
258.118
264.645
271.159
277.655
284.113
290.526
296.874
303.148
309.33
315.414
321.394
327.286
333.134
338.886
344.445
349.814
354.976
359.923
364.64
369.122
373.353
377.334
381.047
384.494
387.659
390.549
393.169
395.526
397.626
399.476
401.084
402.459
403.611
404.55
405.296
405.876
406.382
406.748
406.98
407.135
407.199
407.164
407.23
407.276
407.291
407.573
407.799
407.473
407.784
407.952
408.08
408.631
408.459
408.587
409.231
408.944
409.125
409.612
409.371
408.982
408.777
408.474
408.126
407.786
406.64
406.17
405.555
404.965
403.595
402.2
400.525
398.611
396.433
393.978
391.249
388.241
384.96
381.387
377.467
373.198
368.578
363.604
358.282
352.626
346.656
340.375
333.815
326.969
319.832
312.57
305.084
297.308
290.57
284.347
278.144
271.849
265.457
258.984
252.487
245.954
239.355
232.667
225.994
219.323
212.683
206.127
199.647
193.268
187.02
180.958
174.991
169.522
163.711
159.518
156.539
11.8016
6.20016
5.41075
5.43816
5.78852
6.33831
7.04232
7.88082
8.84757
9.94289
11.1637
12.4981
13.9472
15.5012
17.1587
18.9491
20.9265
23.1269
25.5071
28.0767
30.9019
33.9059
36.7746
39.6074
42.4833
45.4316
48.4561
51.5538
54.7211
57.9547
61.2545
64.62
68.048
71.5366
75.0855
78.6943
82.3635
86.0931
89.8837
93.7346
97.6454
101.616
105.647
109.738
113.891
118.105
122.38
126.718
131.117
135.578
140.101
144.685
149.33
154.033
158.796
163.615
168.489
173.416
178.392
183.416
188.484
193.59
198.732
203.904
209.101
214.316
219.543
224.774
230.002
235.218
240.414
245.58
250.708
255.791
260.822
265.795
270.71
275.563
280.322
284.961
289.469
293.832
298.041
302.083
305.951
309.633
313.123
316.411
319.493
322.361
325.013
327.451
329.676
331.691
333.5
335.108
336.521
337.749
338.803
339.696
340.447
341.077
341.582
341.972
342.268
342.471
342.598
342.701
342.761
342.787
342.834
342.859
342.77
342.718
342.705
342.547
342.432
342.324
342.128
341.923
341.495
341.276
340.964
340.488
339.959
339.432
338.847
338.202
337.499
336.578
335.746
334.823
333.789
332.477
331.048
329.444
327.665
325.697
323.53
321.16
318.579
315.781
312.751
309.472
305.93
302.121
298.047
293.708
289.11
284.261
279.169
273.845
268.295
262.526
256.592
250.497
244.278
238.328
232.568
226.838
221.076
215.278
209.456
203.64
197.839
192.047
186.269
180.543
174.797
169.088
163.437
157.867
152.398
147.054
141.875
136.851
132.167
127.643
123.961
121.813
17.4514
8.82122
7.39354
7.19715
7.46078
7.99506
8.73106
9.64075
10.7105
11.9309
13.2909
14.7773
16.3778
18.0818
19.8809
21.7769
23.7791
25.8939
28.1162
30.4575
32.9095
35.446
38.0207
40.6583
43.3717
46.1567
49.0118
51.9368
54.9246
57.9663
61.052
64.1973
67.4021
70.666
73.989
77.3707
80.811
84.3094
87.8655
91.479
95.1498
98.8777
102.663
106.506
110.406
114.364
118.381
122.455
126.588
130.779
135.029
139.337
143.704
148.128
152.609
157.146
161.739
166.386
171.086
175.836
180.635
185.48
190.368
195.295
200.257
205.25
210.27
215.309
220.363
225.424
230.485
235.54
240.581
245.6
250.59
255.544
260.455
265.311
270.091
274.778
279.359
283.82
288.15
292.337
296.368
300.234
303.923
307.427
310.738
313.847
316.751
319.446
321.931
324.207
326.274
328.136
329.798
331.267
332.551
333.662
334.612
335.411
336.068
336.592
336.994
337.283
337.471
337.578
337.613
337.561
337.431
337.31
337.121
336.762
336.422
336.026
335.626
335.166
334.661
334.11
333.484
332.84
332.146
331.354
330.503
329.605
328.645
327.62
326.516
325.299
324.04
322.685
321.209
319.568
317.797
315.876
313.798
311.552
309.13
306.524
303.726
300.728
297.518
294.086
290.4
286.474
282.31
277.909
273.276
268.416
263.336
258.046
252.557
246.888
241.072
235.138
229.136
223.213
217.368
211.547
205.726
199.899
194.084
188.303
182.57
176.887
171.264
165.719
160.238
154.834
149.471
144.19
139.003
133.935
129.021
124.28
119.82
115.651
112.06
109.682
23.0982
11.5344
9.46016
9.04026
9.20412
9.70037
10.43
11.3506
12.4398
13.6821
15.0638
16.5711
18.1911
19.9121
21.7252
23.6253
25.6121
27.6869
29.851
32.1061
34.4497
36.8741
39.3704
41.9385
44.5787
47.2888
50.066
52.9066
55.811
58.7803
61.8166
64.9176
68.0819
71.3089
74.5982
77.95
81.3649
84.841
88.3777
91.9744
95.6311
99.3476
103.124
106.96
110.857
114.814
118.832
122.91
127.05
131.251
135.514
139.84
144.227
148.678
153.191
157.766
162.404
167.104
171.865
176.686
181.567
186.506
191.5
196.547
201.645
206.79
211.978
217.205
222.465
227.753
233.062
238.385
243.716
249.046
254.366
259.666
264.936
270.163
275.33
280.423
285.426
290.325
295.106
299.754
304.256
308.597
312.766
316.749
320.536
324.116
327.482
330.627
333.547
336.239
338.703
340.937
342.947
344.737
346.313
347.684
348.859
349.848
350.661
351.307
351.797
352.142
352.348
352.432
352.379
352.149
351.876
351.539
351.093
350.557
349.95
349.274
348.54
347.74
346.877
345.949
344.945
343.881
342.747
341.532
340.243
338.884
337.449
335.935
334.33
332.625
330.833
328.935
326.914
324.756
322.464
320.028
317.441
314.694
311.778
308.688
305.415
301.951
298.287
294.418
290.327
286.015
281.484
276.734
271.769
266.594
261.218
255.654
249.917
244.031
238.024
231.929
225.789
219.674
213.599
207.549
201.517
195.501
189.501
183.563
177.696
171.908
166.21
160.612
155.116
149.729
144.444
139.263
134.166
129.181
124.339
119.675
115.264
111.174
107.553
104.818
28.5076
14.1972
11.4829
10.8332
10.8831
11.3201
12.015
12.9107
13.9772
15.1955
16.5507
18.0299
19.6215
21.3156
23.1039
24.9812
26.9447
28.9934
31.1273
33.3463
35.6491
38.033
40.4951
43.0335
45.6469
48.3339
51.0931
53.9233
56.8245
59.7967
62.8402
65.9546
69.139
72.393
75.7162
79.108
82.5676
86.0951
89.6905
93.3533
97.0836
100.881
104.745
108.677
112.676
116.742
120.876
125.078
129.349
133.689
138.1
142.58
147.132
151.756
156.453
161.223
166.066
170.984
175.976
181.043
186.183
191.396
196.682
202.038
207.462
212.952
218.505
224.117
229.783
235.498
241.256
247.049
252.87
258.71
264.559
270.407
276.24
282.045
287.807
293.51
299.137
304.671
310.097
315.395
320.55
325.544
330.361
334.986
339.403
343.599
347.562
351.282
354.752
357.965
360.917
363.608
366.036
368.205
370.121
371.789
373.218
374.417
375.396
376.167
376.741
377.136
377.339
377.334
377.113
376.782
376.333
375.767
375.08
374.277
373.369
372.362
371.263
370.074
368.798
367.432
365.976
364.432
362.8
361.076
359.261
357.356
355.357
353.262
351.062
348.754
346.337
343.803
341.141
338.345
335.411
332.334
329.107
325.723
322.176
318.46
314.568
310.493
306.23
301.771
297.11
292.246
287.178
281.91
276.445
270.792
264.961
258.969
252.836
246.583
240.24
233.834
227.402
220.985
214.6
208.248
201.931
195.652
189.414
183.266
177.208
171.249
165.4
159.669
154.065
148.591
143.251
138.046
132.968
127.992
123.145
118.472
114.038
109.923
106.217
103.155
33.5035
16.7049
13.3759
12.4891
12.422
12.7864
13.4314
14.2856
15.3123
16.4894
17.8014
19.2364
20.7842
22.4366
24.1867
26.0295
27.9619
29.9818
32.0884
34.2806
36.5576
38.9181
41.3608
43.8845
46.4884
49.1717
51.934
54.7748
57.6944
60.6927
63.77
66.9262
70.1613
73.4749
76.8669
80.337
83.8848
87.5101
91.2129
94.9927
98.8495
102.783
106.793
110.88
115.044
119.285
123.603
128
132.475
137.03
141.666
146.383
151.184
156.068
161.037
166.093
171.237
176.469
181.79
187.202
192.705
198.298
203.982
209.755
215.617
221.566
227.599
233.712
239.902
246.163
252.491
258.876
265.312
271.79
278.297
284.824
291.355
297.876
304.371
310.821
317.209
323.515
329.719
335.8
341.738
347.512
353.101
358.486
363.648
368.568
373.23
377.622
381.732
385.549
389.066
392.279
395.187
397.789
400.088
402.09
403.803
405.234
406.395
407.299
407.96
408.391
408.55
408.434
408.129
407.649
407.002
406.196
405.236
404.127
402.88
401.5
399.994
398.369
396.626
394.768
392.795
390.71
388.513
386.204
383.783
381.249
378.601
375.835
372.95
369.939
366.803
363.536
360.134
356.591
352.905
349.073
345.09
340.953
336.656
332.196
327.568
322.768
317.792
312.636
307.296
301.773
296.066
290.182
284.125
277.909
271.545
265.053
258.453
251.766
245.018
238.237
231.45
224.687
217.962
211.285
204.663
198.101
191.614
185.221
178.935
172.767
166.725
160.82
155.058
149.447
143.99
138.692
133.55
128.551
123.664
118.94
114.444
110.257
106.439
103.102
37.9736
18.9848
15.0821
13.9594
13.7765
14.0645
14.6538
15.4606
16.4419
17.5728
18.8372
20.2236
21.723
23.3285
25.0342
26.836
28.7308
30.7164
32.7916
34.9554
37.2071
39.5462
41.972
44.4841
47.0824
49.7668
52.5375
55.3948
58.339
61.3708
64.4906
67.6989
70.9961
74.3823
77.8577
81.4224
85.0762
88.8192
92.6511
96.5718
100.581
104.679
108.866
113.141
117.506
121.96
126.503
131.137
135.863
140.681
145.594
150.601
155.706
160.908
166.211
171.616
177.125
182.739
188.459
194.289
200.227
206.276
212.435
218.705
225.086
231.575
238.171
244.871
251.672
258.568
265.555
272.624
279.767
286.976
294.237
301.539
308.866
316.203
323.531
330.83
338.08
345.258
352.34
359.303
366.122
372.772
379.227
385.464
391.458
397.187
402.631
407.771
412.591
417.079
421.222
425.014
428.45
431.528
434.249
436.618
438.64
440.325
441.684
442.73
443.482
443.931
444.051
443.866
443.448
442.802
441.942
440.879
439.62
438.176
436.555
434.766
432.816
430.711
428.457
426.057
423.513
420.828
418.005
415.043
411.944
408.706
405.33
401.814
398.156
394.354
390.408
386.315
382.074
377.683
373.141
368.448
363.601
358.601
353.446
348.135
342.666
337.038
331.251
325.302
319.192
312.923
306.5
299.929
293.22
286.385
279.442
272.407
265.301
258.146
250.964
243.778
236.612
229.488
222.42
215.419
208.492
201.649
194.902
188.265
181.75
175.368
169.128
163.039
157.108
151.343
145.749
140.331
135.089
130.014
125.074
120.279
115.704
111.425
107.483
103.918
41.8575
20.9952
16.5726
15.227
14.931
15.1428
15.6755
16.4338
17.3691
18.4539
19.6711
21.0091
22.4599
24.0171
25.6761
27.4333
29.2861
31.2329
33.2723
35.4038
37.6271
39.9419
42.3483
44.8467
47.4375
50.1212
52.8987
55.7709
58.7387
61.8031
64.9654
68.2265
71.5876
75.0494
78.6126
82.2777
86.0448
89.9142
93.8862
97.9606
102.138
106.417
110.8
115.285
119.875
124.568
129.366
134.269
139.279
144.398
149.626
154.965
160.417
165.985
171.67
177.474
183.401
189.451
195.627
201.931
208.365
214.93
221.627
228.457
235.42
242.515
249.741
257.095
264.574
272.174
279.889
287.711
295.633
303.643
311.731
319.881
328.078
336.304
344.54
352.762
360.949
369.073
377.108
385.027
392.799
400.395
407.787
414.943
421.835
428.436
434.719
440.663
446.246
451.452
456.265
460.675
464.675
468.259
471.429
474.186
476.537
478.489
480.054
481.247
482.084
482.55
482.643
482.39
481.846
481.023
479.934
478.595
477.017
475.212
473.19
470.96
468.532
465.912
463.107
460.122
456.961
453.627
450.122
446.449
442.609
438.603
434.429
430.088
425.58
420.906
416.065
411.059
405.888
400.555
395.059
389.405
383.594
377.63
371.515
365.252
358.843
352.291
345.6
338.772
331.812
324.726
317.521
310.209
302.8
295.308
287.752
280.148
272.517
264.877
257.248
249.651
242.104
234.624
227.223
219.913
212.699
205.591
198.599
191.733
185.005
178.423
171.997
165.734
159.64
153.725
147.993
142.449
137.095
131.925
126.91
122.035
117.375
112.999
108.936
105.181
45.1293
22.7171
17.8385
16.2893
15.886
16.0249
16.5024
17.2136
18.1048
19.1457
20.318
21.6101
23.014
24.5242
26.1366
27.8483
29.6575
31.5628
33.5638
35.6601
37.8519
40.1394
42.5233
45.0043
47.5839
50.2632
53.0436
55.9268
58.9141
62.0072
65.2079
68.5185
71.9412
75.4774
79.1286
82.8956
86.7794
90.7804
94.8993
99.1364
103.492
107.967
112.561
117.276
122.11
127.066
132.145
137.346
142.673
148.125
153.706
159.416
165.258
171.234
177.347
183.599
189.993
196.531
203.216
210.049
217.034
224.172
231.464
238.912
246.516
254.275
262.19
270.256
278.473
286.834
295.335
303.968
312.724
321.593
330.561
339.615
348.736
357.906
367.102
376.3
385.475
394.596
403.633
412.555
421.328
429.917
438.287
446.404
454.234
461.743
468.9
475.678
482.053
488.001
493.506
498.552
503.13
507.233
510.859
514.01
516.691
518.911
520.68
522.012
522.923
523.404
523.466
523.137
522.451
521.432
520.097
518.463
516.543
514.353
511.903
509.206
506.269
503.102
499.713
496.106
492.287
488.26
484.028
479.593
474.959
470.125
465.092
459.863
454.438
448.819
443.009
437.01
430.827
424.464
417.925
411.218
404.349
397.325
390.154
382.843
375.4
367.834
360.155
352.369
344.489
336.523
328.483
320.383
312.235
304.057
295.864
287.676
279.51
271.382
263.308
255.306
247.39
239.573
231.864
224.27
216.798
209.454
202.245
195.18
188.266
181.512
174.924
168.509
162.272
156.222
150.365
144.704
139.243
133.974
128.87
123.915
119.175
114.709
110.536
106.629
47.7874
24.1464
18.8826
17.1539
16.652
16.7231
17.1487
17.8155
18.6653
19.6655
20.7967
22.0466
23.4074
24.8736
26.442
28.1101
29.8768
31.7414
33.7043
35.766
37.9276
40.1875
42.5472
45.009
47.5752
50.2478
53.0291
55.9213
58.9263
62.045
65.2786
68.6347
72.1168
75.7271
79.4675
83.3396
87.3449
91.4846
95.7597
100.171
104.72
109.406
114.232
119.196
124.302
129.549
134.938
140.472
146.151
151.977
157.953
164.079
170.359
176.794
183.387
190.142
197.059
204.142
211.395
218.817
226.414
234.185
242.134
250.26
258.565
267.049
275.709
284.546
293.554
302.73
312.068
321.561
331.199
340.971
350.863
360.859
370.942
381.09
391.28
401.484
411.673
421.817
431.88
441.825
451.616
461.212
470.575
479.663
488.437
496.859
504.893
512.506
519.667
526.353
532.54
538.211
543.354
547.96
552.026
555.553
558.545
561.011
562.962
564.412
565.374
565.856
565.87
565.436
564.58
563.339
561.731
559.776
557.49
554.888
551.983
548.789
545.316
541.572
537.565
533.303
528.791
524.032
519.032
513.793
508.317
502.605
496.662
490.487
484.084
477.457
470.609
463.547
456.276
448.804
441.14
433.294
425.279
417.106
408.79
400.343
391.783
383.123
374.379
365.568
356.704
347.803
338.881
329.955
321.038
312.15
303.308
294.529
285.828
277.218
268.713
260.325
252.064
243.939
235.955
228.115
220.423
212.882
205.496
198.27
191.209
184.319
177.604
171.07
164.72
158.563
152.602
146.844
141.289
135.931
130.738
125.713
120.906
116.366
112.103
108.081
49.8467
25.2884
19.7146
17.8341
17.2449
17.2552
17.6332
18.2593
19.0716
20.0355
21.1303
22.3433
23.6663
25.0942
26.624
28.2538
29.983
31.812
33.742
35.7749
37.9109
40.1462
42.4857
44.9322
47.4882
50.1566
52.9409
55.8442
58.8705
62.0177
65.2868
68.6922
72.2376
75.9276
79.7655
83.7533
87.8933
92.1872
96.637
101.244
106.009
110.935
116.022
121.271
126.684
132.263
138.008
143.92
150.003
156.257
162.684
169.287
176.067
183.027
190.168
197.494
205.006
212.708
220.6
228.686
236.968
245.446
254.123
262.999
272.074
281.347
290.819
300.485
310.343
320.387
330.611
341.008
351.566
362.275
373.12
384.084
395.147
406.287
417.478
428.692
439.896
451.056
462.134
473.089
483.88
494.461
504.789
514.819
524.505
533.804
542.674
551.079
558.984
566.36
573.182
579.429
585.086
590.145
594.6
598.451
601.705
604.368
606.455
607.979
608.955
609.401
609.326
608.736
607.666
606.163
604.246
601.935
599.247
596.2
592.808
589.085
585.041
580.688
576.032
571.081
565.84
560.314
554.506
548.421
542.06
535.426
528.522
521.35
513.915
506.22
498.273
490.081
481.653
473.001
464.137
455.077
445.838
436.439
426.901
417.244
407.492
397.668
387.796
377.899
367.999
358.118
348.276
338.493
328.787
319.175
309.677
300.311
291.087
282.014
273.101
264.357
255.787
247.393
239.178
231.139
223.276
215.587
208.073
200.735
193.575
186.594
179.797
173.185
166.76
160.529
154.496
148.667
143.043
137.612
132.347
127.272
122.421
117.831
113.503
109.405
51.3262
26.1522
20.3474
18.3467
17.6826
17.6428
17.9782
18.5686
19.3488
20.2823
21.3475
22.5312
23.8249
25.2236
26.7244
28.326
30.0284
31.8327
33.7416
35.7562
37.8687
40.0844
42.4114
44.8512
47.4072
50.0832
52.8837
55.813
58.8759
62.0671
65.3963
68.8734
72.5065
76.3007
80.2603
84.3897
88.6938
93.1754
97.8366
102.68
107.706
112.919
118.319
123.908
129.689
135.662
141.83
148.194
154.756
161.517
168.479
175.643
183.012
190.588
198.371
206.363
214.567
222.983
231.613
240.458
249.519
258.797
268.292
278.004
287.932
298.075
308.43
318.994
329.762
340.728
351.885
363.223
374.733
386.4
398.21
410.144
422.182
434.299
446.47
458.662
470.841
482.971
495.009
506.913
518.636
530.129
541.345
552.233
562.743
572.829
582.443
591.545
600.097
608.065
615.423
622.148
628.223
633.638
638.388
642.474
645.9
648.677
650.818
652.34
653.26
653.598
653.368
652.55
651.209
649.389
647.109
644.391
641.254
637.716
633.793
629.499
624.845
619.843
614.498
608.819
602.81
596.477
589.822
582.849
575.559
567.958
560.046
551.827
543.307
534.492
525.389
516.009
506.365
496.47
486.343
476.004
465.477
454.787
443.961
433.031
422.028
410.984
399.932
388.903
377.926
367.03
356.243
345.587
335.08
324.743
314.597
304.658
294.917
285.397
276.103
267.04
258.206
249.598
241.209
233.033
225.062
217.29
209.712
202.324
195.125
188.113
181.289
174.651
168.199
161.94
155.871
150.006
144.341
138.86
133.563
128.471
123.605
118.994
114.632
110.497
52.2961
26.7612
20.7973
18.7073
17.984
17.9043
18.2072
18.7705
19.5272
20.44
21.4865
22.6531
23.9312
25.3158
26.8042
28.3956
30.0903
31.8887
33.7926
35.8021
37.9174
40.1424
42.4811
44.9379
47.5175
50.225
53.0657
56.0453
59.1691
62.4431
65.8749
69.4727
73.2443
77.1965
81.3355
85.6674
90.1973
94.9318
99.8738
105.026
110.393
115.975
121.777
127.799
134.045
140.516
147.214
154.14
161.296
168.683
176.302
184.155
192.241
200.562
209.118
217.909
226.936
236.197
245.693
255.424
265.387
275.583
286.01
296.665
307.545
318.649
329.97
341.504
353.244
365.182
377.31
389.617
402.089
414.713
427.472
440.348
453.317
466.356
479.436
492.524
505.585
518.579
531.462
544.188
556.709
568.972
580.926
592.518
603.695
614.406
624.601
634.236
643.27
651.668
659.401
666.444
672.782
678.402
683.3
687.477
690.94
693.701
695.775
697.18
697.935
698.058
697.574
696.427
694.737
692.522
689.806
686.612
682.96
678.87
674.358
669.439
664.123
658.421
652.34
645.886
639.064
631.877
624.329
616.422
608.159
599.542
590.575
581.262
571.608
561.621
551.312
540.693
529.779
518.589
507.145
495.473
483.604
471.571
459.409
447.158
434.859
422.554
410.286
398.093
386.015
374.087
362.345
350.776
339.437
328.355
317.561
307.082
296.918
287.044
277.46
268.163
259.147
250.4
241.911
233.666
225.653
217.859
210.276
202.895
195.711
188.72
181.919
175.304
168.871
162.629
156.563
150.702
145.033
139.555
134.275
129.207
124.365
119.77
115.407
111.273
52.7331
27.1169
21.0752
18.9323
18.171
18.0661
18.3505
18.9006
19.6488
20.5574
21.6038
22.7741
24.0599
25.4565
26.9603
28.5696
30.2844
32.1058
34.0356
36.0763
38.2309
40.5033
42.8982
45.4211
48.0781
50.8757
53.8209
56.921
60.1839
63.618
67.232
71.0348
75.035
79.2411
83.6614
88.3034
93.1748
98.2812
103.628
109.221
115.063
121.157
127.508
134.117
140.987
148.119
155.515
163.176
171.103
179.296
187.755
196.479
205.467
214.718
224.23
234
244.027
254.306
264.836
275.612
286.631
297.888
309.38
321.1
333.043
345.203
357.572
370.142
382.904
395.846
408.958
422.226
435.635
449.17
462.814
476.545
490.341
504.177
518.024
531.849
545.616
559.283
572.807
586.139
599.23
612.027
624.475
636.521
648.111
659.192
669.713
679.627
688.894
697.476
705.343
712.472
718.844
724.451
729.287
733.357
736.667
739.231
741.068
742.198
742.642
742.421
741.507
739.935
737.781
735.068
731.819
728.059
723.808
719.086
713.912
708.297
702.254
695.79
688.913
681.626
673.935
665.84
657.346
648.453
639.164
629.481
619.409
608.95
598.113
586.906
575.341
563.434
551.203
538.671
525.864
512.818
499.567
486.151
472.615
459.011
445.391
431.804
418.304
404.892
391.648
378.639
365.914
353.555
341.522
329.835
318.524
307.643
297.082
286.885
277.052
267.573
258.433
249.612
241.092
232.853
224.872
217.133
209.621
202.322
195.225
188.324
181.611
175.081
168.727
162.554
156.54
150.719
145.091
139.663
134.439
129.429
124.642
120.094
115.761
111.669
52.6736
27.2317
21.1968
19.0434
18.2731
18.1664
18.4558
19.0178
19.786
20.7222
21.8034
23.0157
24.3502
25.8019
27.368
29.0477
30.8415
32.751
34.7792
36.9295
39.2067
41.616
44.1637
46.8568
49.703
52.7104
55.888
59.2449
62.7911
66.5367
70.4921
74.6679
79.0744
83.7219
88.6206
93.7797
99.2067
104.909
110.895
117.172
123.742
130.61
137.778
145.248
153.023
161.102
169.487
178.175
187.168
196.461
206.052
215.938
226.114
236.575
247.315
258.329
269.609
281.149
292.94
304.976
317.247
329.746
342.463
355.388
368.513
381.825
395.314
408.967
422.771
436.711
450.773
464.941
479.197
493.525
507.906
522.318
536.74
551.147
565.51
579.798
593.975
608.001
621.833
635.424
648.725
661.683
674.248
686.366
697.985
709.053
719.521
729.342
738.476
746.886
754.543
761.424
767.511
772.797
777.279
780.961
783.853
785.972
787.338
787.976
787.897
787.107
785.588
783.428
780.656
777.296
773.374
768.915
763.94
758.47
752.519
746.102
739.227
731.903
724.134
715.922
707.27
698.179
688.651
678.686
668.287
657.456
646.195
634.511
622.412
609.907
597.012
583.745
570.128
556.187
541.955
527.474
512.791
497.945
482.993
467.953
452.909
437.949
423.148
408.642
394.4
380.491
367.019
353.868
341.13
328.836
317.01
305.667
294.781
284.349
274.361
264.797
255.631
246.836
238.385
230.247
222.396
214.804
207.452
200.321
193.395
186.662
180.114
173.739
167.534
161.491
155.612
149.914
144.407
139.097
133.988
129.087
124.4
119.94
115.678
111.658
52.2717
27.1632
21.2036
19.0887
18.351
18.2833
18.6227
19.2448
20.0838
21.1032
22.2816
23.6061
25.0688
26.6653
28.3939
30.2546
32.2491
34.3802
36.652
39.0698
41.6398
44.3691
47.2659
50.3389
53.5976
57.052
60.7129
64.5916
68.6999
73.0498
77.6533
82.5226
87.67
93.1075
98.8474
104.902
111.282
117.991
125.034
132.412
140.131
148.194
156.603
165.358
174.458
183.9
193.681
203.797
214.241
225.008
236.089
247.475
259.158
271.125
283.367
295.871
308.625
321.617
334.834
348.261
361.887
375.697
389.677
403.812
418.088
432.49
447.001
461.605
476.284
491.021
505.797
520.594
535.394
550.179
564.93
579.626
594.249
608.774
623.176
637.427
651.494
665.342
678.932
692.218
705.158
717.705
729.812
741.433
752.521
763.028
772.909
782.122
790.628
798.394
805.392
811.598
816.999
821.588
825.362
828.329
830.497
831.886
832.525
832.42
831.588
829.999
827.734
824.814
821.27
817.124
812.402
807.128
801.322
795.003
788.184
780.879
773.093
764.832
756.098
746.892
737.214
727.064
716.441
705.346
693.78
681.745
669.245
656.287
642.878
629.034
614.769
600.107
585.076
569.702
554.025
538.079
521.889
505.548
489.111
472.745
456.485
440.386
424.591
409.004
393.754
378.92
364.565
350.699
337.361
324.577
312.36
300.718
289.636
279.099
269.085
259.564
250.497
241.85
233.585
225.665
218.052
210.712
203.62
196.752
190.086
183.606
177.304
171.157
165.17
159.343
153.68
148.189
142.879
137.755
132.822
128.085
123.549
119.223
115.084
111.181
51.7043
27.018
21.1688
19.1314
18.4784
18.506
18.9574
19.7104
20.7026
21.8996
23.282
24.8387
26.564
28.4554
30.513
32.7387
35.1361
37.7101
40.4668
43.4133
46.5583
49.9109
53.4811
57.2796
61.3172
65.6056
70.1571
74.9841
80.0992
85.5148
91.2435
97.2975
103.689
110.43
117.534
125.015
132.872
141.109
149.726
158.723
168.098
177.85
187.973
198.462
209.311
220.511
232.052
243.924
256.114
268.608
281.394
294.456
307.778
321.345
335.138
349.142
363.339
377.712
392.241
406.911
421.703
436.599
451.583
466.635
481.738
496.872
512.019
527.159
542.272
557.339
572.34
587.256
602.068
616.759
631.313
645.712
659.939
673.976
687.801
701.391
714.721
727.762
740.478
752.833
764.79
776.311
787.36
797.902
807.898
817.306
826.09
834.211
841.637
848.337
854.281
859.451
863.832
867.417
870.205
872.209
873.421
873.879
873.607
872.584
870.82
868.365
865.24
861.465
857.069
852.07
846.492
840.356
833.68
826.481
818.77
810.557
801.845
792.638
782.933
772.731
762.027