/*--------------------------------*- C++ -*----------------------------------*\
  =========                 |
  \\      /  F ield         | OpenFOAM: The Open Source CFD Toolbox
   \\    /   O peration     | Website:  https://openfoam.org
    \\  /    A nd           | Version:  9
     \\/     M anipulation  |
\*---------------------------------------------------------------------------*/
FoamFile
{
    format      ascii;
    class       volScalarField;
    location    "115";
    object      nut;
}
// * * * * * * * * * * * * * * * * * * * * * * * * * * * * * * * * * * * * * //

dimensions      [0 2 -1 0 0 0 0];

internalField   nonuniform List<scalar> 
12225
(
4.14969e-05
3.93428e-05
3.7482e-05
3.5435e-05
3.37805e-05
3.24258e-05
3.15026e-05
3.0914e-05
3.09183e-05
3.11007e-05
3.15659e-05
3.21288e-05
3.31414e-05
3.38739e-05
3.50443e-05
3.60582e-05
3.71212e-05
3.72976e-05
0.000332391
0.000215166
0.000179313
0.000157633
0.000146245
0.000138161
0.00013268
0.000131746
0.000129398
0.000130187
0.00012892
0.000129586
0.000128519
0.00012873
0.000127946
0.000127562
0.000127475
0.000126564
0.000675139
0.000450685
0.000355877
0.000309725
0.000275377
0.000250987
0.00023177
0.000217174
0.000202635
0.000192104
0.000182555
0.00017513
0.000169316
0.000163502
0.000160243
0.000155235
0.000153642
0.000149408
0.000833758
0.000684746
0.000572149
0.00049982
0.00044958
0.000411814
0.000380857
0.000355869
0.00033405
0.000314615
0.000298334
0.000281493
0.00027026
0.000255768
0.000248011
0.000235746
0.00022982
0.000219638
0.000861307
0.000802506
0.000742237
0.000676435
0.000624111
0.000581246
0.000545946
0.000514424
0.000489561
0.000464269
0.000445848
0.000423861
0.000409818
0.000390517
0.00037955
0.000362663
0.000353751
0.000338506
0.000854993
0.00084035
0.000822247
0.000786413
0.000750944
0.000715813
0.000685814
0.000656035
0.000632565
0.000607397
0.000588956
0.000567083
0.000552136
0.000532844
0.000520449
0.000503282
0.000492636
0.000476589
0.000852912
0.000850686
0.000844245
0.000832824
0.000817442
0.000796955
0.000777911
0.000756681
0.000738898
0.000719071
0.000703484
0.000685504
0.000671993
0.00065572
0.000644038
0.000629156
0.000618995
0.000604462
0.000851925
0.00085181
0.000850178
0.000847388
0.000841459
0.000833722
0.000824897
0.000813389
0.0008028
0.00079043
0.000779676
0.000767466
0.000757332
0.000745642
0.000736353
0.000725265
0.000716806
0.000705574
0.000851753
0.000851539
0.000851038
0.000850335
0.000848882
0.000846164
0.000843035
0.000838293
0.000833395
0.000827342
0.000821189
0.000814733
0.000808352
0.000801444
0.000795127
0.000788262
0.000781962
0.000774961
0.000851771
0.000851388
0.000851047
0.000850631
0.000850248
0.000849365
0.000848405
0.000846776
0.000844951
0.000842521
0.00083991
0.000836779
0.000833765
0.00083011
0.000826912
0.000822848
0.000819794
0.000815145
0.000851788
0.000851358
0.000851012
0.000850613
0.000850329
0.000849904
0.000849525
0.000848926
0.0008483
0.000847388
0.000846459
0.000845167
0.000843977
0.000842332
0.000840971
0.000838997
0.000837598
0.000835305
0.000851789
0.000851359
0.000850996
0.000850605
0.000850291
0.000849937
0.000849645
0.000849279
0.000848953
0.000848501
0.000848095
0.000847502
0.000846991
0.000846235
0.000845631
0.000844707
0.000844043
0.000842958
0.000851786
0.000851362
0.000850985
0.000850604
0.000850269
0.000849925
0.000849629
0.000849312
0.000849041
0.000848727
0.00084846
0.000848123
0.000847841
0.000847462
0.000847153
0.000846723
0.000846385
0.000845901
0.000851783
0.000851364
0.000850978
0.000850601
0.000850256
0.000849916
0.000849607
0.000849299
0.000849022
0.00084874
0.000848487
0.000848223
0.000847988
0.000847735
0.000847509
0.00084726
0.000847037
0.00084679
0.000851781
0.000851364
0.000850973
0.000850598
0.000850246
0.000849908
0.000849591
0.000849286
0.000849
0.000848723
0.000848464
0.000848212
0.000847976
0.000847747
0.000847531
0.000847321
0.000847122
0.000846928
0.00085178
0.000851363
0.000850969
0.000850594
0.000850239
0.000849901
0.00084958
0.000849275
0.000848985
0.000848708
0.000848444
0.000848193
0.000847953
0.000847725
0.000847507
0.000847299
0.0008471
0.000846911
0.000851779
0.000851362
0.000850967
0.000850591
0.000850234
0.000849895
0.000849572
0.000849266
0.000848974
0.000848695
0.00084843
0.000848177
0.000847936
0.000847705
0.000847485
0.000847275
0.000847075
0.000846883
0.000851779
0.000851362
0.000850965
0.000850588
0.000850231
0.00084989
0.000849567
0.000849259
0.000848966
0.000848686
0.00084842
0.000848165
0.000847922
0.00084769
0.000847469
0.000847257
0.000847055
0.000846862
0.000851779
0.000851362
0.000850965
0.000850588
0.00085023
0.000849889
0.000849565
0.000849257
0.000848962
0.000848682
0.000848415
0.000848159
0.000847915
0.000847682
0.00084746
0.000847247
0.000847043
0.000846848
0.000851779
0.000851362
0.000850965
0.000850589
0.000850231
0.000849891
0.000849567
0.000849259
0.000848965
0.000848685
0.000848418
0.000848163
0.000847918
0.000847685
0.000847461
0.000847248
0.000847043
0.000846847
0.000851779
0.000851363
0.000850967
0.000850592
0.000850235
0.000849897
0.000849573
0.000849267
0.000848972
0.000848694
0.000848424
0.000848169
0.00084792
0.000847684
0.000847452
0.000847232
0.000847013
0.000846807
0.000851778
0.000851366
0.000850968
0.000850599
0.00085024
0.000849907
0.00084958
0.000849274
0.000848964
0.000848671
0.000848365
0.000848072
0.000847756
0.000847455
0.000847122
0.000846811
0.000846456
0.000846135
0.000851777
0.000851374
0.000850971
0.000850615
0.00085024
0.000849889
0.000849478
0.000849054
0.000848529
0.000847978
0.0008473
0.000846604
0.000845766
0.000844938
0.000843953
0.000843027
0.000841914
0.000840936
0.000851802
0.00085141
0.00085097
0.000850549
0.000849861
0.000848967
0.000847607
0.000845979
0.000843903
0.000841635
0.000838953
0.000836212
0.000833114
0.00083011
0.000826758
0.000823673
0.000820176
0.000817167
0.000852138
0.000851403
0.000850234
0.000848252
0.000844472
0.000839355
0.000832711
0.000825762
0.000817913
0.000809999
0.000801613
0.000793623
0.000785326
0.000777699
0.000769733
0.000762687
0.000755107
0.000748775
0.000854143
0.000847718
0.000840125
0.000827121
0.000808709
0.000789645
0.000769973
0.000751414
0.000733303
0.00071689
0.000700929
0.000686773
0.000672821
0.000660658
0.000648363
0.000637922
0.000626931
0.000617992
0.000854972
0.000818336
0.000776232
0.000726631
0.000684941
0.000649853
0.000618462
0.000592017
0.000568381
0.000548305
0.000529684
0.000513983
0.000498741
0.000486003
0.000473187
0.000462688
0.0004516
0.000442778
0.000807489
0.000666876
0.000570555
0.000509852
0.000465652
0.00043119
0.000404136
0.000382496
0.000364195
0.00034906
0.000335939
0.00032507
0.000314474
0.000306237
0.000297954
0.000291354
0.000284267
0.000278912
0.000501855
0.000348403
0.000292691
0.000259173
0.000236324
0.000221176
0.000211545
0.000204013
0.000198481
0.000195056
0.000192218
0.000190364
0.000188582
0.000187436
0.000186164
0.000185472
0.000184556
0.000184143
7.27286e-05
7.0223e-05
6.79539e-05
6.56135e-05
6.33827e-05
6.12764e-05
5.94929e-05
5.79571e-05
5.67102e-05
5.57029e-05
5.49775e-05
5.44184e-05
5.41085e-05
5.38876e-05
5.38765e-05
5.3963e-05
5.40725e-05
5.43241e-05
2.78216e-06
3.97218e-05
6.15452e-05
8.13858e-05
0.000100261
0.00011835
0.000135563
0.000151799
0.000167148
0.000181972
0.000196956
0.000213264
0.000235094
0.000250794
0.000258269
0.000268772
0.000282908
0.000319952
0.000284568
0.000279369
0.000254496
4.69812e-05
4.96706e-05
5.1442e-05
5.33977e-05
5.52524e-05
5.70818e-05
5.88812e-05
6.06486e-05
6.23875e-05
6.40911e-05
6.57631e-05
6.7398e-05
6.89998e-05
7.05647e-05
7.20972e-05
7.35946e-05
7.50616e-05
7.64966e-05
7.79048e-05
7.9286e-05
8.06435e-05
8.19767e-05
8.32894e-05
8.45812e-05
8.58552e-05
8.71115e-05
8.83523e-05
8.95782e-05
9.07905e-05
9.199e-05
9.31776e-05
9.43538e-05
9.5519e-05
9.6674e-05
9.78183e-05
9.89529e-05
0.000100077
0.000101191
0.000102294
0.000103386
0.000104467
0.000105536
0.000106591
0.000107633
0.000108659
0.000109671
0.000110664
0.00011164
0.000112594
0.000113527
0.000114434
0.000115316
0.000116168
0.000116989
0.000117776
0.000118533
0.00011927
0.000119954
0.000120603
0.000121222
0.000121802
0.000122344
0.000122847
0.000123308
0.000123727
0.000124102
0.000124432
0.000124715
0.000124952
0.000125145
0.000125292
0.000125394
0.000125452
0.000125467
0.000125442
0.000125379
0.000125282
0.000125155
0.000124985
0.000124828
0.000124658
0.000124392
0.000124112
0.000123814
0.000123503
0.000123021
0.000122727
0.000122179
0.000121897
0.000121562
0.000120865
0.000120703
0.000120445
0.000120199
0.000120007
0.000119231
0.00011928
0.000119108
0.000118317
0.000118507
0.000118798
0.000117454
0.000117938
0.000117344
0.000117336
0.000116933
0.00011665
0.000116075
0.000116255
0.000116404
0.000115798
0.000115668
0.0001153
0.000115032
0.000114708
0.000114379
0.000114026
0.000113652
0.000113257
0.000112838
0.000112394
0.000111937
0.000111446
0.000110922
0.000110362
0.000109768
0.000109132
0.000108446
0.00010771
0.000106948
0.000106136
0.000105309
0.000104423
0.000103385
0.000102536
0.000101465
9.94312e-05
9.84699e-05
9.78133e-05
9.71606e-05
9.64897e-05
9.57842e-05
9.50287e-05
9.42935e-05
9.35371e-05
9.27077e-05
9.18415e-05
9.09904e-05
9.01143e-05
8.91986e-05
8.8324e-05
8.73982e-05
8.64393e-05
8.54567e-05
8.44512e-05
8.3449e-05
8.22299e-05
8.14824e-05
7.8586e-05
7.08944e-06
7.0152e-05
0.000139716
0.000191165
0.000227836
0.000255132
0.000276507
0.00029394
0.000308762
0.00032192
0.000333802
0.000344215
0.000354008
0.000361885
0.000367108
0.000370255
0.00037138
0.000370969
0.000364534
0.0003521
0.000330721
0.000301613
0.000308249
0.000319402
0.000331408
0.000343906
0.00035678
0.000370016
0.000383554
0.000397339
0.000411292
0.000425356
0.000439467
0.000453579
0.000467635
0.000481603
0.000495435
0.000509109
0.000522584
0.000535867
0.000548995
0.000561977
0.000574809
0.00058751
0.000600081
0.000612546
0.000624909
0.000637195
0.000649412
0.000661586
0.000673724
0.000685851
0.000697976
0.00071012
0.00072229
0.000734503
0.000746763
0.000759086
0.000771472
0.000783931
0.000796461
0.000809069
0.000821748
0.000834498
0.000847309
0.000860176
0.000873085
0.000886027
0.000898981
0.000911931
0.000924851
0.000937717
0.000950488
0.000963123
0.000975553
0.000987678
0.000999327
0.00101019
0.00102045
0.00103044
0.0010401
0.00104943
0.00105839
0.00106694
0.00107507
0.00108274
0.00108993
0.00109662
0.0011028
0.00110845
0.00111355
0.00111809
0.00112206
0.00112547
0.00112832
0.00113063
0.00113242
0.00113373
0.00113458
0.00113503
0.00113513
0.00113453
0.00113365
0.00113254
0.00113064
0.00112857
0.00112628
0.00112354
0.0011207
0.00111798
0.00111424
0.00111057
0.00110863
0.00110486
0.00110184
0.00109899
0.00109504
0.00109353
0.00109118
0.0010879
0.00108785
0.00108565
0.00108126
0.0010806
0.00107971
0.00107858
0.00107749
0.00107664
0.00107568
0.00107691
0.00107607
0.00107492
0.00107357
0.00107358
0.00107321
0.00107291
0.00107256
0.00107212
0.00107155
0.00107081
0.00106984
0.00106856
0.00106695
0.00106506
0.00106286
0.0010603
0.00105737
0.00105403
0.00105024
0.00104593
0.00104111
0.00103577
0.00102999
0.00102385
0.00101683
0.00100958
0.00100254
0.000990784
0.000977004
0.00096241
0.000947265
0.000931745
0.000915941
0.000899789
0.000883495
0.000867051
0.000850325
0.000833618
0.000817205
0.000800838
0.000784351
0.000768096
0.000752019
0.000736029
0.000720064
0.000704479
0.00068817
0.000671833
0.000660241
0.000605753
1.27603e-05
0.000102624
0.000199142
0.000275132
0.000332171
0.000374307
0.000405389
0.000428488
0.000445835
0.000459229
0.000470542
0.00048165
0.000493071
0.000504756
0.000516651
0.000528835
0.00054145
0.000554413
0.000566662
0.000577929
0.000588139
0.000600096
0.000619755
0.000643489
0.000669139
0.00069576
0.000723031
0.000750799
0.000778956
0.000807392
0.00083597
0.000864558
0.000893096
0.000921516
0.000949751
0.000977748
0.00100546
0.00103287
0.00105996
0.00108672
0.00111317
0.00113932
0.00116517
0.00119075
0.00121607
0.00124117
0.00126605
0.00129075
0.00131529
0.0013397
0.00136402
0.00138826
0.00141244
0.00143661
0.00146077
0.00148495
0.00150915
0.00153341
0.00155773
0.00158211
0.00160656
0.00163109
0.00165569
0.00168036
0.00170508
0.00172984
0.00175462
0.00177941
0.00180417
0.00182886
0.00185345
0.00187788
0.0019021
0.00192602
0.00194955
0.00197257
0.00199495
0.00201659
0.00203759
0.00205804
0.00207787
0.00209704
0.00211548
0.00213315
0.00214998
0.00216593
0.00218094
0.00219498
0.00220801
0.00222
0.00223092
0.00224074
0.00224945
0.00225705
0.00226355
0.00226897
0.00227334
0.0022767
0.00227908
0.00228054
0.00228111
0.00228072
0.00227964
0.00227784
0.00227519
0.00227146
0.00226727
0.00226249
0.00225754
0.0022523
0.00224629
0.00224011
0.00223456
0.00222844
0.00222208
0.00221664
0.00221113
0.00220562
0.0022006
0.002196
0.00219287
0.00218773
0.00218301
0.0021797
0.00217649
0.00217309
0.0021699
0.00216688
0.00216392
0.00216198
0.00215888
0.00215556
0.00215211
0.00214953
0.00214666
0.00214371
0.00214053
0.00213707
0.00213326
0.00212899
0.0021242
0.00211878
0.00211269
0.00210591
0.00209841
0.00209012
0.00208098
0.00207095
0.00205997
0.002048
0.00203502
0.00202101
0.00200605
0.0019902
0.00197315
0.00195517
0.00193669
0.00191456
0.00188973
0.00186336
0.001836
0.00180796
0.00177939
0.0017503
0.00172086
0.00169127
0.00166159
0.0016319
0.00160323
0.00157471
0.00154604
0.00151789
0.00149022
0.00146266
0.00143532
0.00140844
0.00138078
0.00135261
0.00132943
0.00125567
1.88258e-05
0.000129437
0.000248435
0.000343926
0.000416989
0.00047184
0.000512972
0.000544158
0.000568482
0.000588488
0.000606292
0.000623536
0.000641178
0.00065972
0.000679553
0.000700944
0.000724066
0.000748892
0.000775127
0.000802269
0.000830727
0.000861318
0.000894969
0.000930487
0.000967156
0.00100477
0.00104312
0.00108198
0.00112131
0.00116111
0.00120138
0.00124166
0.00128185
0.00132183
0.00136154
0.00140091
0.00143991
0.00147851
0.0015167
0.00155447
0.00159183
0.00162879
0.00166535
0.00170154
0.00173737
0.00177288
0.00180809
0.00184303
0.00187774
0.00191224
0.00194658
0.00198077
0.00201485
0.00204886
0.00208281
0.00211673
0.00215064
0.00218456
0.0022185
0.00225248
0.0022865
0.00232056
0.00235466
0.0023888
0.00242296
0.00245712
0.00249127
0.00252536
0.00255937
0.00259326
0.00262697
0.00266044
0.0026936
0.00272637
0.00275866
0.00279035
0.00282133
0.00285158
0.00288109
0.00290985
0.00293779
0.00296485
0.00299094
0.00301599
0.00303992
0.00306267
0.00308416
0.00310434
0.00312316
0.00314056
0.0031565
0.00317095
0.00318388
0.00319531
0.00320521
0.00321362
0.00322055
0.00322604
0.00323014
0.0032329
0.00323437
0.00323462
0.00323379
0.00323198
0.00322881
0.00322446
0.00321879
0.00321272
0.00320625
0.00319948
0.00319239
0.00318434
0.00317623
0.00316904
0.00316118
0.00315346
0.00314552
0.00313787
0.00313035
0.00312319
0.00311636
0.00310911
0.00310206
0.0030957
0.00308954
0.00308337
0.00307736
0.00307145
0.00306567
0.00306021
0.00305429
0.0030482
0.00304206
0.00303619
0.0030301
0.00302378
0.00301713
0.00301006
0.00300247
0.00299427
0.00298536
0.00297564
0.00296502
0.00295343
0.00294108
0.00292768
0.00291313
0.00289738
0.00288037
0.00286206
0.00284243
0.00282147
0.00279922
0.0027757
0.0027508
0.00272461
0.00269723
0.00266719
0.0026347
0.00260046
0.002565
0.00252868
0.00249167
0.00245397
0.00241576
0.00237728
0.00233867
0.00230003
0.00226196
0.0022243
0.00218772
0.00215221
0.00211775
0.00208322
0.00204936
0.00201616
0.00198254
0.00194835
0.00191783
0.00184178
2.4846e-05
0.000153283
0.000292011
0.000404986
0.000493419
0.000561242
0.00061344
0.000654269
0.00068725
0.000715251
0.000740563
0.000764937
0.000789607
0.000815394
0.000842831
0.00087226
0.00090386
0.000937633
0.000973423
0.00101103
0.0010504
0.00109163
0.0011347
0.00117929
0.0012251
0.00127191
0.00131955
0.00136789
0.0014167
0.00146576
0.00151484
0.00156389
0.0016128
0.00166149
0.00170988
0.00175789
0.00180546
0.00185259
0.00189927
0.00194548
0.00199123
0.0020365
0.00208133
0.0021257
0.00216966
0.00221322
0.00225641
0.00229926
0.00234181
0.00238408
0.00242611
0.00246794
0.0025096
0.00255112
0.00259252
0.00263384
0.0026751
0.00271632
0.00275751
0.0027987
0.00283988
0.00288106
0.00292225
0.00296343
0.00300459
0.00304572
0.00308679
0.00312778
0.00316864
0.00320932
0.00324979
0.00328998
0.00332981
0.00336922
0.00340812
0.00344641
0.00348404
0.00352093
0.00355704
0.00359229
0.00362662
0.00365993
0.00369214
0.00372316
0.00375289
0.00378126
0.00380817
0.00383356
0.00385735
0.00387948
0.0038999
0.00391856
0.00393543
0.0039505
0.00396375
0.00397519
0.00398484
0.00399273
0.0039989
0.0040034
0.00400631
0.0040077
0.0040077
0.00400643
0.00400335
0.00399876
0.00399266
0.00398603
0.00397901
0.00397214
0.00396396
0.00395498
0.00394585
0.00393647
0.00392679
0.00391694
0.00390689
0.00389684
0.00388681
0.0038769
0.00386711
0.00385722
0.00384746
0.00383798
0.00382864
0.00381936
0.00381017
0.00380106
0.00379203
0.00378311
0.00377402
0.00376483
0.00375559
0.00374635
0.00373692
0.00372721
0.00371713
0.0037066
0.0036955
0.00368374
0.00367121
0.0036578
0.00364341
0.00362792
0.00361137
0.00359361
0.00357456
0.00355413
0.00353228
0.00350896
0.00348416
0.00345786
0.00343009
0.00340086
0.00337014
0.00333795
0.00330426
0.00326841
0.00323044
0.00319077
0.00314978
0.00310789
0.0030655
0.0030223
0.00297847
0.00293425
0.00288985
0.00284541
0.00280129
0.00275757
0.00271461
0.00267282
0.00263298
0.00259455
0.0025577
0.00252187
0.00248594
0.00244981
0.00241579
0.00234601
3.0577e-05
0.00017405
0.000330071
0.000459014
0.00056209
0.000642801
0.000706382
0.000757367
0.000799526
0.000835924
0.000869001
0.000900636
0.000932217
0.000964716
0.000998782
0.00103482
0.00107304
0.0011135
0.00115614
0.00120081
0.0012474
0.00129578
0.0013458
0.00139725
0.0014499
0.00150356
0.00155802
0.00161311
0.00166862
0.00172437
0.0017802
0.00183598
0.00189162
0.00194701
0.00200209
0.00205678
0.00211105
0.00216484
0.00221812
0.00227088
0.00232309
0.00237477
0.00242591
0.00247654
0.00252667
0.00257632
0.00262553
0.00267432
0.00272272
0.00277078
0.00281852
0.00286598
0.0029132
0.0029602
0.00300703
0.00305371
0.00310026
0.00314672
0.00319311
0.00323943
0.00328571
0.00333196
0.00337817
0.00342434
0.00347048
0.00351656
0.00356257
0.00360849
0.00365428
0.0036999
0.00374532
0.00379047
0.0038353
0.00387973
0.0039237
0.00396713
0.00400995
0.00405207
0.00409342
0.00413392
0.00417347
0.00421199
0.00424936
0.00428549
0.00432028
0.00435362
0.00438543
0.00441559
0.00444405
0.0044707
0.00449548
0.00451833
0.0045392
0.00455805
0.00457488
0.00458965
0.00460238
0.00461308
0.00462179
0.00462855
0.00463343
0.00463651
0.00463788
0.00463765
0.00463526
0.00463092
0.00462512
0.00461895
0.00461258
0.00460479
0.00459588
0.00458607
0.00457562
0.00456463
0.00455316
0.00454127
0.00452904
0.00451656
0.0045039
0.00449114
0.00447832
0.0044654
0.00445247
0.00443959
0.00442675
0.00441392
0.00440111
0.00438833
0.0043756
0.0043629
0.00435013
0.00433731
0.00432444
0.00431149
0.00429838
0.00428502
0.00427133
0.00425721
0.00424259
0.00422734
0.00421137
0.00419455
0.00417679
0.00415798
0.00413805
0.00411688
0.00409439
0.0040705
0.00404514
0.00401828
0.00398988
0.00395993
0.00392845
0.00389543
0.00386088
0.00382479
0.00378711
0.00374759
0.00370623
0.00366326
0.00361899
0.00357375
0.00352796
0.00348112
0.00343362
0.0033857
0.00333756
0.0032894
0.00324145
0.00319388
0.00314694
0.00310098
0.00305656
0.00301468
0.00297547
0.00293843
0.00290265
0.00286734
0.0028328
0.00277166
3.58373e-05
0.000191644
0.000362488
0.000506015
0.000622537
0.000715713
0.000790494
0.00085157
0.000902846
0.00094751
0.00098811
0.00102663
0.00106458
0.00110303
0.00114274
0.00118419
0.00122765
0.00127324
0.00132095
0.00137071
0.00142238
0.00147581
0.00153082
0.00158722
0.00164481
0.00170338
0.00176273
0.00182267
0.00188303
0.00194362
0.00200429
0.00206492
0.00212539
0.00218561
0.00224549
0.00230496
0.00236396
0.00242246
0.00248042
0.0025378
0.0025946
0.00265082
0.00270645
0.00276151
0.00281602
0.00286999
0.00292346
0.00297644
0.00302899
0.00308112
0.00313287
0.00318429
0.00323541
0.00328626
0.00333688
0.0033873
0.00343756
0.00348768
0.00353769
0.00358761
0.00363747
0.00368727
0.00373703
0.00378675
0.00383644
0.00388609
0.00393568
0.00398522
0.00403466
0.00408398
0.00413315
0.00418212
0.00423085
0.00427926
0.00432729
0.00437489
0.00442196
0.00446843
0.00451422
0.00455923
0.00460336
0.00464652
0.00468859
0.00472945
0.004769
0.00480712
0.00484369
0.0048786
0.00491174
0.00494303
0.00497235
0.00499963
0.00502481
0.00504781
0.0050686
0.00508714
0.00510342
0.00511744
0.0051292
0.00513875
0.00514613
0.0051514
0.00515464
0.00515593
0.00515477
0.00515135
0.00514672
0.00514157
0.00513491
0.0051268
0.00511736
0.00510674
0.00509512
0.00508264
0.00506939
0.00505546
0.00504093
0.0050259
0.00501046
0.00499468
0.00497863
0.00496233
0.00494585
0.00492925
0.00491254
0.00489576
0.00487892
0.00486204
0.00484516
0.00482828
0.00481136
0.00479443
0.00477746
0.00476044
0.00474331
0.00472601
0.00470848
0.00469063
0.00467239
0.00465365
0.00463431
0.00461425
0.00459337
0.00457155
0.0045487
0.0045247
0.00449946
0.0044729
0.00444493
0.00441553
0.00438464
0.00435224
0.00431834
0.00428294
0.00424602
0.0042076
0.00416763
0.00412602
0.00408279
0.00403807
0.00399208
0.00394507
0.00389725
0.00384859
0.00379927
0.00374951
0.00369952
0.00364949
0.00359963
0.0035501
0.00350113
0.00345301
0.00340618
0.00336149
0.00332056
0.00328288
0.00324749
0.0032135
0.00318063
0.00312832
4.05148e-05
0.000206166
0.000389451
0.000546029
0.000674721
0.000779537
0.00086499
0.000935775
0.000995839
0.00104843
0.00109616
0.0011411
0.00118482
0.00122852
0.00127303
0.00131891
0.00136652
0.00141603
0.0014675
0.00152089
0.00157611
0.00163301
0.00169143
0.00175119
0.00181209
0.00187395
0.00193656
0.00199974
0.00206331
0.00212712
0.00219101
0.00225484
0.00231851
0.00238191
0.00244495
0.00250757
0.0025697
0.00263129
0.00269231
0.00275274
0.00281255
0.00287174
0.0029303
0.00298826
0.00304562
0.0031024
0.00315862
0.00321432
0.00326953
0.00332429
0.00337862
0.00343257
0.00348617
0.00353948
0.00359251
0.00364532
0.00369794
0.0037504
0.00380273
0.00385497
0.00390714
0.00395927
0.00401136
0.00406345
0.00411554
0.00416764
0.00421974
0.00427184
0.00432394
0.004376
0.00442802
0.00447994
0.00453175
0.00458338
0.00463478
0.00468588
0.00473662
0.00478692
0.00483669
0.00488583
0.00493424
0.0049818
0.00502841
0.00507393
0.00511824
0.00516119
0.00520267
0.00524253
0.00528064
0.00531688
0.00535113
0.00538327
0.00541321
0.00544086
0.00546614
0.005489
0.00550939
0.00552729
0.00554268
0.00555558
0.00556601
0.00557401
0.00557964
0.00558294
0.00558354
0.00558177
0.00557861
0.00557418
0.00556779
0.00555964
0.00554985
0.00553855
0.00552589
0.00551201
0.00549702
0.00548104
0.00546417
0.0054465
0.00542813
0.00540917
0.00538968
0.00536975
0.00534943
0.00532879
0.0053079
0.00528681
0.00526555
0.00524419
0.00522275
0.00520128
0.0051798
0.00515831
0.00513684
0.00511537
0.00509389
0.00507235
0.00505073
0.00502895
0.00500695
0.00498464
0.00496193
0.0049387
0.00491485
0.00489026
0.00486481
0.0048384
0.00481092
0.00478228
0.00475241
0.00472123
0.00468871
0.00465482
0.00461952
0.00458282
0.00454472
0.0045052
0.00446424
0.00442182
0.00437794
0.0043327
0.00428625
0.00423876
0.00419041
0.00414125
0.00409145
0.0040412
0.00399071
0.00394019
0.00388982
0.00383976
0.00379021
0.00374143
0.00369381
0.00364812
0.0036061
0.00356837
0.00353369
0.0035011
0.00346988
0.00342519
4.45529e-05
0.000217812
0.000411258
0.000579108
0.000718685
0.000834137
0.000929515
0.00100943
0.00107779
0.00113785
0.00119225
0.00124311
0.00129207
0.00134038
0.00138896
0.00143846
0.0014893
0.00154172
0.00159584
0.00165168
0.00170918
0.00176824
0.00182871
0.00189044
0.00195325
0.00201696
0.00208139
0.00214636
0.00221172
0.00227729
0.00234294
0.00240852
0.00247392
0.00253903
0.00260377
0.00266806
0.00273184
0.00279508
0.00285771
0.00291973
0.00298112
0.00304185
0.00310194
0.0031614
0.00322022
0.00327844
0.00333607
0.00339316
0.00344972
0.00350579
0.00356142
0.00361665
0.00367151
0.00372605
0.0037803
0.00383432
0.00388815
0.00394182
0.00399537
0.00404885
0.00410228
0.00415571
0.00420915
0.00426264
0.0043162
0.00436984
0.00442359
0.00447744
0.0045314
0.00458547
0.00463964
0.00469388
0.00474817
0.00480248
0.00485675
0.00491093
0.00496497
0.00501878
0.00507228
0.00512537
0.00517795
0.00522989
0.00528107
0.00533135
0.00538058
0.00542862
0.00547531
0.00552048
0.00556397
0.00560564
0.00564532
0.00568287
0.00571816
0.00575107
0.00578148
0.0058093
0.00583445
0.00585688
0.00587654
0.00589342
0.00590752
0.00591886
0.00592746
0.00593336
0.00593636
0.00593676
0.00593527
0.00593185
0.00592613
0.00591827
0.0059084
0.00589664
0.00588313
0.00586801
0.00585142
0.00583346
0.00581427
0.00579395
0.00577262
0.0057504
0.00572737
0.00570363
0.00567928
0.0056544
0.00562909
0.00560341
0.00557744
0.00555126
0.00552495
0.00549855
0.00547213
0.00544573
0.00541939
0.00539314
0.00536699
0.00534093
0.00531496
0.00528903
0.0052631
0.0052371
0.00521096
0.00518456
0.00515781
0.00513058
0.00510277
0.00507425
0.00504492
0.00501468
0.00498343
0.00495111
0.00491765
0.004883
0.00484714
0.00481004
0.00477169
0.00473207
0.00469117
0.00464896
0.00460546
0.00456071
0.00451483
0.00446793
0.00442016
0.00437159
0.00432239
0.00427273
0.00422285
0.00417294
0.00412318
0.00407374
0.00402477
0.00397652
0.00392938
0.00388405
0.00384215
0.00380508
0.00377148
0.00374039
0.00371083
0.00367206
4.79315e-05
0.000226821
0.000428273
0.00060557
0.000754651
0.000879582
0.000983966
0.00107225
0.00114827
0.00121523
0.00127577
0.00133202
0.00138566
0.00143798
0.00148998
0.00154237
0.00159562
0.00165006
0.00170586
0.00176309
0.00182175
0.00188178
0.00194308
0.00200553
0.00206897
0.00213323
0.00219817
0.00226362
0.00232942
0.00239544
0.00246153
0.00252753
0.00259331
0.00265877
0.00272384
0.00278843
0.00285249
0.00291598
0.00297887
0.00304112
0.00310272
0.00316366
0.00322394
0.00328357
0.00334256
0.00340093
0.00345871
0.00351594
0.00357263
0.00362883
0.00368459
0.00373994
0.00379493
0.0038496
0.00390401
0.0039582
0.00401221
0.0040661
0.00411991
0.00417369
0.00422748
0.00428132
0.00433526
0.00438933
0.00444357
0.00449802
0.00455269
0.00460761
0.00466281
0.00471828
0.00477405
0.00483009
0.00488641
0.00494297
0.00499976
0.00505671
0.00511379
0.00517092
0.00522802
0.005285
0.00534175
0.00539813
0.00545403
0.00550927
0.00556371
0.00561717
0.00566946
0.0057204
0.00576979
0.00581745
0.00586317
0.00590679
0.00594811
0.00598698
0.00602324
0.00605676
0.00608742
0.00611513
0.00613981
0.00616141
0.00617991
0.00619528
0.00620754
0.00621671
0.00622274
0.00622584
0.00622645
0.00622453
0.00621996
0.00621283
0.00620325
0.00619138
0.00617733
0.00616125
0.00614328
0.00612355
0.0061022
0.00607936
0.00605515
0.00602971
0.00600315
0.00597559
0.00594715
0.00591794
0.00588808
0.00585766
0.00582681
0.00579561
0.00576418
0.00573261
0.00570099
0.0056694
0.00563792
0.00560661
0.00557551
0.00554467
0.0055141
0.00548381
0.00545377
0.00542395
0.00539427
0.00536467
0.00533504
0.00530526
0.00527523
0.00524483
0.00521394
0.00518246
0.00515027
0.00511729
0.00508345
0.00504866
0.00501289
0.00497611
0.0049383
0.00489941
0.00485941
0.00481828
0.004776
0.00473261
0.00468817
0.00464276
0.00459648
0.00454942
0.00450172
0.00445356
0.00440519
0.00435682
0.00430862
0.00426073
0.00421331
0.00416656
0.00412091
0.00407706
0.00403657
0.00400086
0.00396869
0.00393918
0.00391128
0.00387716
5.06556e-05
0.000233441
0.000440889
0.000625808
0.000782928
0.000916049
0.00102836
0.0011241
0.00120698
0.00128014
0.00134616
0.00140718
0.00146488
0.0015206
0.00157536
0.00162991
0.00168481
0.00174041
0.00179695
0.00185453
0.00191319
0.00197307
0.00203407
0.00209608
0.00215895
0.00222255
0.00228674
0.00235137
0.00241634
0.00248155
0.00254692
0.00261213
0.00267704
0.00274156
0.00280562
0.00286918
0.00293219
0.00299461
0.0030564
0.00311755
0.00317805
0.00323788
0.00329705
0.00335557
0.00341347
0.00347077
0.00352748
0.00358366
0.00363933
0.00369453
0.00374931
0.00380372
0.0038578
0.00391161
0.00396519
0.0040186
0.00407189
0.00412511
0.00417833
0.00423159
0.00428494
0.00433844
0.00439215
0.00444611
0.00450037
0.00455497
0.00460997
0.00466539
0.00472128
0.00477767
0.00483456
0.00489199
0.00494995
0.00500844
0.00506745
0.00512694
0.00518688
0.0052472
0.00530783
0.00536869
0.00542966
0.00549061
0.00555141
0.00561188
0.00567185
0.00573111
0.00578947
0.0058467
0.00590257
0.00595685
0.0060093
0.0060597
0.00610782
0.00615345
0.00619638
0.00623644
0.00627346
0.0063073
0.00633784
0.006365
0.00638871
0.00640893
0.00642565
0.00643886
0.00644861
0.00645501
0.0064583
0.00645859
0.0064558
0.00644996
0.00644121
0.00642969
0.00641555
0.00639892
0.00637995
0.00635879
0.00633559
0.00631049
0.00628363
0.00625517
0.00622524
0.00619398
0.00616154
0.00612806
0.00609367
0.00605851
0.00602272
0.00598644
0.00594979
0.00591292
0.00587595
0.005839
0.00580219
0.00576562
0.00572938
0.00569355
0.00565819
0.00562334
0.00558902
0.00555523
0.00552193
0.00548906
0.00545653
0.00542424
0.00539209
0.00535997
0.00532776
0.0052953
0.00526251
0.00522927
0.00519548
0.00516104
0.00512591
0.00509005
0.00505341
0.00501592
0.00497753
0.00493819
0.00489788
0.00485658
0.00481432
0.00477116
0.00472716
0.0046824
0.00463697
0.00459107
0.00454501
0.00449898
0.00445316
0.00440764
0.00436258
0.00431818
0.00427489
0.00423344
0.00419546
0.00416171
0.00413129
0.00410344
0.00407718
0.00404677
5.27483e-05
0.000237915
0.000449491
0.000640221
0.000803834
0.00094373
0.00106274
0.00116485
0.00125362
0.00133208
0.00140278
0.00146779
0.00152881
0.00158718
0.00164394
0.00169989
0.0017556
0.00181148
0.00186778
0.00192464
0.00198224
0.00204091
0.00210047
0.00216084
0.00222195
0.00228368
0.00234592
0.00240853
0.00247136
0.00253451
0.00259794
0.00266109
0.00272387
0.00278618
0.00284795
0.00290915
0.00296977
0.00302977
0.00308914
0.00314788
0.00320595
0.00326337
0.00332014
0.0033763
0.00343188
0.0034869
0.00354139
0.00359539
0.00364894
0.00370209
0.00375488
0.00380737
0.00385961
0.00391164
0.00396354
0.00401535
0.00406713
0.00411893
0.00417083
0.00422288
0.00427514
0.00432768
0.00438055
0.00443382
0.00448755
0.0045418
0.00459663
0.00465209
0.00470824
0.00476512
0.00482278
0.00488124
0.00494054
0.00500068
0.00506167
0.00512351
0.00518615
0.00524957
0.00531369
0.00537844
0.00544371
0.00550937
0.00557527
0.00564123