/*--------------------------------*- C++ -*----------------------------------*\
  =========                 |
  \\      /  F ield         | OpenFOAM: The Open Source CFD Toolbox
   \\    /   O peration     | Website:  https://openfoam.org
    \\  /    A nd           | Version:  9
     \\/     M anipulation  |
\*---------------------------------------------------------------------------*/
FoamFile
{
    format      ascii;
    class       volVectorField;
    location    "115";
    object      U;
}
// * * * * * * * * * * * * * * * * * * * * * * * * * * * * * * * * * * * * * //

dimensions      [0 1 -1 0 0 0 0];

internalField   nonuniform List<vector> 
12225
(
(9.857 -0.886598 0)
(9.66626 -0.740724 0)
(9.45571 -0.429403 0)
(9.22435 -0.222137 0)
(9.00624 -0.106371 0)
(8.81395 -0.0457776 0)
(8.6468 -0.015092 0)
(8.50443 0.000555226 0)
(8.38232 0.00850284 0)
(8.27916 0.0124278 0)
(8.18995 0.014177 0)
(8.1129 0.0152897 0)
(8.04461 0.0157768 0)
(7.98356 0.0162862 0)
(7.92678 0.0164751 0)
(7.87537 0.0184835 0)
(7.80718 0.0224557 0)
(7.79667 0.0253477 0)
(10.0545 0.227692 0)
(10.1213 0.326989 0)
(10.1196 0.261662 0)
(10.0855 0.186627 0)
(10.0433 0.134735 0)
(9.99658 0.101194 0)
(9.9438 0.0793873 0)
(9.88485 0.0646847 0)
(9.82335 0.054423 0)
(9.76052 0.0468972 0)
(9.69877 0.0412365 0)
(9.63843 0.0368343 0)
(9.58052 0.03343 0)
(9.52526 0.0309893 0)
(9.47192 0.0292448 0)
(9.42351 0.0298246 0)
(9.37127 0.0289797 0)
(9.34263 0.0495094 0)
(10.0035 0.0581593 0)
(10.0305 0.0559601 0)
(10.056 0.0338031 0)
(10.0703 0.0329257 0)
(10.0769 0.0406985 0)
(10.0777 0.0466204 0)
(10.0723 0.0494664 0)
(10.061 0.0504567 0)
(10.0456 0.050421 0)
(10.0269 0.0498017 0)
(10.006 0.0488981 0)
(9.98337 0.0479495 0)
(9.95961 0.0470923 0)
(9.9351 0.0465968 0)
(9.90987 0.0463992 0)
(9.88503 0.0479916 0)
(9.85941 0.0499161 0)
(9.8378 0.0597513 0)
(9.99772 0.0109549 0)
(10.0111 0.0266358 0)
(10.035 0.0371558 0)
(10.0524 0.0481187 0)
(10.0642 0.0555146 0)
(10.0732 0.05828 0)
(10.0792 0.0584952 0)
(10.082 0.0578149 0)
(10.0822 0.0568531 0)
(10.0804 0.0557824 0)
(10.077 0.0546935 0)
(10.0723 0.0537425 0)
(10.0663 0.0529737 0)
(10.0595 0.0526223 0)
(10.0518 0.0526925 0)
(10.0439 0.0541891 0)
(10.036 0.0564596 0)
(10.0298 0.062393 0)
(9.99935 0.00710824 0)
(10.009 0.0317182 0)
(10.0274 0.0439509 0)
(10.0417 0.0499773 0)
(10.0527 0.0536989 0)
(10.0627 0.0553631 0)
(10.0713 0.0556987 0)
(10.0779 0.0554836 0)
(10.0829 0.0550462 0)
(10.0865 0.054493 0)
(10.089 0.0539028 0)
(10.0906 0.0534098 0)
(10.0913 0.0530853 0)
(10.0914 0.0531198 0)
(10.0909 0.0535881 0)
(10.0904 0.0550631 0)
(10.0902 0.0572618 0)
(10.0914 0.0609604 0)
(10.0003 0.00916005 0)
(10.0083 0.0312403 0)
(10.0227 0.0409985 0)
(10.0349 0.0454701 0)
(10.0449 0.0491501 0)
(10.0546 0.0515313 0)
(10.0635 0.0525766 0)
(10.071 0.052897 0)
(10.0773 0.0528855 0)
(10.0827 0.0526955 0)
(10.0873 0.0524277 0)
(10.0912 0.0522088 0)
(10.0945 0.0521284 0)
(10.0973 0.052336 0)
(10.0998 0.0529199 0)
(10.1024 0.0541743 0)
(10.1054 0.0559356 0)
(10.1096 0.0581983 0)
(10.0004 0.00893677 0)
(10.0071 0.0271467 0)
(10.019 0.0364798 0)
(10.0301 0.041487 0)
(10.0395 0.0455498 0)
(10.0485 0.0482681 0)
(10.057 0.0496095 0)
(10.0646 0.0501777 0)
(10.0712 0.0503875 0)
(10.0771 0.0504013 0)
(10.0825 0.050321 0)
(10.0873 0.0502598 0)
(10.0916 0.0503093 0)
(10.0957 0.0505801 0)
(10.0996 0.0511437 0)
(10.1036 0.0521267 0)
(10.108 0.0533914 0)
(10.1133 0.0546948 0)
(10.0004 0.00791609 0)
(10.0059 0.0234293 0)
(10.0161 0.0328116 0)
(10.0262 0.0382141 0)
(10.035 0.0422538 0)
(10.0434 0.0449966 0)
(10.0515 0.0464877 0)
(10.0589 0.0472297 0)
(10.0655 0.0475998 0)
(10.0715 0.0477589 0)
(10.0771 0.047808 0)
(10.0823 0.0478482 0)
(10.0872 0.0479644 0)
(10.0918 0.0482354 0)
(10.0963 0.0487063 0)
(10.101 0.0494079 0)
(10.106 0.0502077 0)
(10.1117 0.0508323 0)
(10.0004 0.00696859 0)
(10.005 0.0204723 0)
(10.0137 0.0295372 0)
(10.0228 0.0349873 0)
(10.0311 0.0388892 0)
(10.039 0.041617 0)
(10.0466 0.0432362 0)
(10.0537 0.0441263 0)
(10.0602 0.0446222 0)
(10.0663 0.0448888 0)
(10.0719 0.0450266 0)
(10.0772 0.0451264 0)
(10.0823 0.0452618 0)
(10.0872 0.0454875 0)
(10.092 0.0458239 0)
(10.097 0.0462529 0)
(10.1022 0.0466499 0)
(10.1079 0.0467873 0)
(10.0004 0.00614353 0)
(10.0043 0.0179073 0)
(10.0116 0.0263662 0)
(10.0198 0.0317194 0)
(10.0276 0.0355007 0)
(10.035 0.0381984 0)
(10.0422 0.0399032 0)
(10.0491 0.0409021 0)
(10.0554 0.0414896 0)
(10.0614 0.0418317 0)
(10.067 0.0420264 0)
(10.0723 0.0421536 0)
(10.0775 0.0422748 0)
(10.0825 0.0424267 0)
(10.0874 0.0426122 0)
(10.0925 0.0427929 0)
(10.0977 0.0428601 0)
(10.1032 0.0426491 0)
(10.0003 0.00538742 0)
(10.0036 0.0156011 0)
(10.0099 0.0233342 0)
(10.0172 0.0284936 0)
(10.0244 0.0321372 0)
(10.0314 0.0347624 0)
(10.0382 0.0364958 0)
(10.0448 0.0375614 0)
(10.051 0.03821 0)
(10.0568 0.0386003 0)
(10.0623 0.0388258 0)
(10.0677 0.0389558 0)
(10.0728 0.0390406 0)
(10.0778 0.0391045 0)
(10.0828 0.0391407 0)
(10.0878 0.039107 0)
(10.0929 0.0389161 0)
(10.0982 0.03846 0)
(10.0003 0.00472475 0)
(10.0032 0.0136646 0)
(10.0086 0.0206934 0)
(10.0152 0.0255901 0)
(10.0219 0.0290704 0)
(10.0285 0.0315922 0)
(10.035 0.0333076 0)
(10.0412 0.0343991 0)
(10.0472 0.0350774 0)
(10.0529 0.0354893 0)
(10.0584 0.0357223 0)
(10.0637 0.0358373 0)
(10.0688 0.0358756 0)
(10.0737 0.0358542 0)
(10.0787 0.0357632 0)
(10.0836 0.0355647 0)
(10.0886 0.0351918 0)
(10.0935 0.0345805 0)
(10.0003 0.00411167 0)
(10.0028 0.0118981 0)
(10.0075 0.018198 0)
(10.0134 0.0227548 0)
(10.0196 0.026036 0)
(10.0258 0.0284272 0)
(10.032 0.0300898 0)
(10.038 0.0311767 0)
(10.0438 0.0318622 0)
(10.0494 0.0322771 0)
(10.0547 0.0325025 0)
(10.0599 0.0325913 0)
(10.065 0.0325779 0)
(10.0699 0.0324751 0)
(10.0747 0.0322734 0)
(10.0795 0.0319428 0)
(10.0843 0.0314343 0)
(10.089 0.0307176 0)
(10.0002 0.00347802 0)
(10.0024 0.0100619 0)
(10.0064 0.0155204 0)
(10.0117 0.0196114 0)
(10.0174 0.0226084 0)
(10.0232 0.0248072 0)
(10.029 0.0263635 0)
(10.0347 0.0274042 0)
(10.0403 0.0280664 0)
(10.0457 0.028461 0)
(10.0509 0.0286594 0)
(10.056 0.0287071 0)
(10.0609 0.0286314 0)
(10.0657 0.0284434 0)
(10.0705 0.0281363 0)
(10.0751 0.0276906 0)
(10.0797 0.0270737 0)
(10.0841 0.0262819 0)
(10.0002 0.00281946 0)
(10.002 0.00815345 0)
(10.0055 0.0126691 0)
(10.0101 0.0161629 0)
(10.0153 0.0187713 0)
(10.0207 0.0206992 0)
(10.0261 0.0220807 0)
(10.0315 0.0230182 0)
(10.0368 0.023614 0)
(10.042 0.023955 0)
(10.0471 0.0241012 0)
(10.052 0.0240899 0)
(10.0568 0.0239432 0)
(10.0614 0.0236707 0)
(10.066 0.023271 0)
(10.0704 0.0227338 0)
(10.0747 0.0220429 0)
(10.0789 0.0212103 0)
(10.0002 0.00213492 0)
(10.0017 0.00617376 0)
(10.0047 0.00965107 0)
(10.0088 0.0124116 0)
(10.0134 0.0145093 0)
(10.0183 0.0160695 0)
(10.0234 0.0171924 0)
(10.0285 0.0179545 0)
(10.0335 0.0184272 0)
(10.0385 0.0186724 0)
(10.0433 0.0187361 0)
(10.0481 0.0186472 0)
(10.0527 0.0184233 0)
(10.0572 0.0180733 0)
(10.0615 0.0175997 0)
(10.0657 0.017001 0)
(10.0698 0.0162713 0)
(10.0737 0.0154333 0)
(10.0002 0.00142103 0)
(10.0015 0.00410774 0)
(10.0041 0.00644806 0)
(10.0077 0.0083377 0)
(10.0118 0.00979011 0)
(10.0164 0.0108697 0)
(10.0211 0.0116374 0)
(10.0258 0.0121416 0)
(10.0306 0.0124256 0)
(10.0353 0.0125275 0)
(10.04 0.0124765 0)
(10.0445 0.0122933 0)
(10.0489 0.0119897 0)
(10.0532 0.0115738 0)
(10.0573 0.0110495 0)
(10.0613 0.0104209 0)
(10.0651 0.00968713 0)
(10.0688 0.00887521 0)
(10.0001 0.000661105 0)
(10.0013 0.00190269 0)
(10.0036 0.00298642 0)
(10.0069 0.00385944 0)
(10.0107 0.00452126 0)
(10.0149 0.00499367 0)
(10.0194 0.00529878 0)
(10.0239 0.00545519 0)
(10.0284 0.00547993 0)
(10.0329 0.00538826 0)
(10.0373 0.00519204 0)
(10.0416 0.00490007 0)
(10.0458 0.00451804 0)
(10.0499 0.00405038 0)
(10.0538 0.00350034 0)
(10.0575 0.0028723 0)
(10.0611 0.00216796 0)
(10.0645 0.00141178 0)
(10.0001 -0.000187996 0)
(10.0013 -0.0005635 0)
(10.0035 -0.000906588 0)
(10.0066 -0.00121429 0)
(10.0103 -0.00148755 0)
(10.0144 -0.00174123 0)
(10.0186 -0.00199484 0)
(10.023 -0.00226171 0)
(10.0274 -0.00255195 0)
(10.0317 -0.00287293 0)
(10.036 -0.00323256 0)
(10.0401 -0.0036353 0)
(10.0441 -0.00408536 0)
(10.048 -0.0045839 0)
(10.0516 -0.00513241 0)
(10.0552 -0.00572902 0)
(10.0585 -0.00637404 0)
(10.0617 -0.00704845 0)
(10.0001 -0.00100032 0)
(10.0013 -0.00292952 0)
(10.0037 -0.00464736 0)
(10.007 -0.00607916 0)
(10.0109 -0.00722284 0)
(10.0151 -0.00813975 0)
(10.0194 -0.00889215 0)
(10.0238 -0.00952439 0)
(10.0282 -0.0100717 0)
(10.0326 -0.0105685 0)
(10.0368 -0.0110405 0)
(10.0408 -0.0115073 0)
(10.0448 -0.0119804 0)
(10.0485 -0.0124699 0)
(10.0521 -0.0129805 0)
(10.0555 -0.0135168 0)
(10.0587 -0.0140796 0)
(10.0618 -0.014658 0)
(10.0002 -0.00169999 0)
(10.0015 -0.00499373 0)
(10.0041 -0.00791225 0)
(10.0078 -0.0102581 0)
(10.012 -0.0120534 0)
(10.0165 -0.0134498 0)
(10.0211 -0.0145541 0)
(10.0257 -0.0154254 0)
(10.0302 -0.0161214 0)
(10.0346 -0.0167029 0)
(10.0388 -0.0172151 0)
(10.0429 -0.0176889 0)
(10.0468 -0.0181434 0)
(10.0505 -0.018594 0)
(10.054 -0.0190495 0)
(10.0573 -0.0195171 0)
(10.0605 -0.0199996 0)
(10.0635 -0.0204896 0)
(10.0002 -0.00236355 0)
(10.0017 -0.00703092 0)
(10.0047 -0.0111711 0)
(10.009 -0.0143393 0)
(10.0137 -0.0166374 0)
(10.0186 -0.0183768 0)
(10.0234 -0.0197193 0)
(10.0283 -0.0207367 0)
(10.033 -0.0215117 0)
(10.0375 -0.0221257 0)
(10.0418 -0.0226376 0)
(10.0459 -0.023084 0)
(10.0498 -0.0234934 0)
(10.0535 -0.0238839 0)
(10.057 -0.0242709 0)
(10.0603 -0.0246602 0)
(10.0634 -0.0250591 0)
(10.0663 -0.0254596 0)
(10.0002 -0.00298357 0)
(10.0018 -0.00909226 0)
(10.0054 -0.01445 0)
(10.0105 -0.0183405 0)
(10.0159 -0.021088 0)
(10.0212 -0.0231172 0)
(10.0264 -0.0245846 0)
(10.0315 -0.0256168 0)
(10.0363 -0.0263686 0)
(10.041 -0.0269508 0)
(10.0454 -0.0274205 0)
(10.0495 -0.0278142 0)
(10.0535 -0.0281617 0)
(10.0572 -0.0284859 0)
(10.0607 -0.0288011 0)
(10.0639 -0.029116 0)
(10.067 -0.0294354 0)
(10.0699 -0.029756 0)
(10.0001 -0.00352826 0)
(10.0018 -0.0115515 0)
(10.0063 -0.0178924 0)
(10.0123 -0.0219916 0)
(10.0183 -0.0250616 0)
(10.0241 -0.0274778 0)
(10.0297 -0.029127 0)
(10.0351 -0.030153 0)
(10.0402 -0.0308272 0)
(10.0449 -0.0313154 0)
(10.0494 -0.0316855 0)
(10.0536 -0.0319788 0)
(10.0576 -0.0322285 0)
(10.0613 -0.03246 0)
(10.0648 -0.0326861 0)
(10.0681 -0.0329152 0)
(10.0711 -0.033149 0)
(10.074 -0.0333852 0)
(9.99991 -0.00337275 0)
(10.0016 -0.0149848 0)
(10.0073 -0.0227377 0)
(10.0142 -0.0262477 0)
(10.0206 -0.0288355 0)
(10.0269 -0.0312062 0)
(10.0331 -0.0329373 0)
(10.039 -0.0340392 0)
(10.0445 -0.0347571 0)
(10.0494 -0.0352443 0)
(10.054 -0.0355722 0)
(10.0583 -0.0357948 0)
(10.0623 -0.0359583 0)
(10.0659 -0.0360937 0)
(10.0693 -0.0362198 0)
(10.0724 -0.036346 0)
(10.0752 -0.0364769 0)
(10.0779 -0.0366106 0)
(9.99859 -0.000380463 0)
(9.99904 -0.0157965 0)
(10.0076 -0.0274362 0)
(10.0166 -0.0324939 0)
(10.0238 -0.0348723 0)
(10.0306 -0.0362325 0)
(10.0376 -0.0369925 0)
(10.0441 -0.0374716 0)
(10.0499 -0.0378356 0)
(10.055 -0.0381018 0)
(10.0595 -0.0382704 0)
(10.0635 -0.0383673 0)
(10.0671 -0.0384214 0)
(10.0702 -0.0384552 0)
(10.0729 -0.0384834 0)
(10.0753 -0.0385144 0)
(10.0773 -0.038552 0)
(10.0791 -0.0385931 0)
(9.99487 0.00140648 0)
(9.99287 -0.00812314 0)
(10.006 -0.0203307 0)
(10.0202 -0.032264 0)
(10.0307 -0.0404735 0)
(10.0392 -0.0441513 0)
(10.0467 -0.0450709 0)
(10.0529 -0.0449366 0)
(10.0578 -0.0444824 0)
(10.0616 -0.0439014 0)
(10.0646 -0.0432755 0)
(10.0667 -0.0426609 0)
(10.0681 -0.0420918 0)
(10.0689 -0.0415774 0)
(10.0692 -0.0411265 0)
(10.069 -0.0407368 0)
(10.0684 -0.0404046 0)
(10.0676 -0.0401037 0)
(9.9947 -0.0305768 0)
(9.99943 -0.0228493 0)
(10.0146 -0.00261931 0)
(10.0304 -0.00190059 0)
(10.0434 -0.0116544 0)
(10.0533 -0.0209239 0)
(10.0594 -0.0272874 0)
(10.0619 -0.031521 0)
(10.0615 -0.0343045 0)
(10.059 -0.0360117 0)
(10.055 -0.0369572 0)
(10.0497 -0.0374062 0)
(10.0434 -0.0375495 0)
(10.0363 -0.0375076 0)
(10.0287 -0.0373696 0)
(10.0207 -0.0371935 0)
(10.0124 -0.0370424 0)
(10.0041 -0.0368835 0)
(10.0274 -0.183006 0)
(10.0766 -0.288324 0)
(10.0871 -0.24782 0)
(10.0777 -0.186559 0)
(10.0664 -0.140323 0)
(10.0538 -0.108244 0)
(10.0365 -0.0858994 0)
(10.0145 -0.0704447 0)
(9.98936 -0.0596781 0)
(9.96231 -0.0519084 0)
(9.93432 -0.0460939 0)
(9.90598 -0.0416062 0)
(9.87776 -0.0380617 0)
(9.85001 -0.0351985 0)
(9.82296 -0.0328502 0)
(9.79673 -0.0309436 0)
(9.77155 -0.0294441 0)
(9.74746 -0.028648 0)
(9.93575 0.689541 0)
(9.86828 0.609596 0)
(9.76459 0.380607 0)
(9.62663 0.217413 0)
(9.4859 0.119244 0)
(9.3572 0.063161 0)
(9.24268 0.031547 0)
(9.14108 0.0135934 0)
(9.0514 0.00323695 0)
(8.97238 -0.00282728 0)
(8.90242 -0.00638522 0)
(8.84018 -0.00850923 0)
(8.78439 -0.00976262 0)
(8.73418 -0.0105285 0)
(8.68863 -0.0110177 0)
(8.64714 -0.0113036 0)
(8.60879 -0.0115388 0)
(8.57326 -0.0121879 0)
(0.0129768 -0.0230762 -6.24811e-19)
(0.031041 -0.0248851 3.34305e-19)
(0.0427108 -0.0165256 0)
(0.0492885 -0.00594298 0)
(0.048948 0.00384018 0)
(0.0424077 0.0115966 -1.35774e-19)
(0.0312185 0.0171327 0)
(0.0164998 0.0208213 0)
(-0.000972243 0.0232884 0)
(-0.0205779 0.0251783 0)
(-0.0417321 0.0269717 1.01029e-19)
(-0.0640747 0.028245 0)
(-0.0875938 0.0273138 0)
(-0.111536 0.0265897 0)
(-0.135683 0.0315858 0)
(-0.162396 0.0417975 9.38759e-20)
(-0.190015 0.0560576 0)
(-0.22495 0.0453782 0)
(-0.269472 0.0210981 0)
(-0.30482 0.0288637 0)
(-0.346447 0.0365091 0)
(-0.391211 0.0426047 0)
(-0.43836 0.0492074 0)
(-0.48834 0.0527314 1.04332e-19)
(-0.539951 0.0531137 -9.75366e-20)
(-0.591666 0.0536323 9.15365e-20)
(-0.644003 0.0540149 8.62202e-20)
(-0.696658 0.0541148 0)
(-0.7494 0.0539188 0)
(-0.801984 0.0534542 -7.35842e-20)
(-0.854191 0.0527599 -7.02505e-20)
(-0.905831 0.0518742 0)
(-0.956753 0.0508365 0)
(-1.00683 0.0496827 -6.21896e-20)
(-1.05598 0.0484479 0)
(-1.10413 0.0471615 0)
(-1.15125 0.04585 5.62551e-20)
(-1.19731 0.0445343 0)
(-1.24231 0.0432318 5.3125e-20)
(-1.28626 0.0419559 1.03501e-19)
(-1.32919 0.0407168 0)
(-1.37112 0.0395199 0)
(-1.41208 0.0383667 0)
(-1.45211 0.037258 0)
(-1.49123 0.0361916 0)
(-1.52948 0.0351661 9.06538e-20)
(-1.56689 0.0341764 8.89516e-20)
(-1.60347 0.0332196 8.73415e-20)
(-1.63925 0.0322891 0)
(-1.67423 0.031381 -8.43512e-20)
(-1.70843 0.0304869 0)
(-1.74185 0.0296033 8.16163e-20)
(-1.77449 0.0287211 8.03269e-20)
(-1.80634 0.0278369 0)
(-1.8374 0.0269423 0)
(-1.86763 0.0260359 0)
(-1.89702 0.0251092 7.55704e-20)
(-1.92554 0.0241612 0)
(-1.95315 0.0231838 0)
(-1.97982 0.0221781 0)
(-2.00551 0.0211356 0)
(-2.03018 0.0200587 0)
(-2.05379 0.0189398 0)
(-2.07627 0.0177834 0)
(-2.0976 0.0165823 0)
(-2.11771 0.0153426 -6.60985e-20)
(-2.13656 0.0140569 0)
(-2.15409 0.012733 0)
(-2.17026 0.0113641 6.30044e-20)
(-2.18503 0.00995932 6.19555e-20)
(-2.19833 0.00851306 0)
(-2.21014 0.00703548 -5.98156e-20)
(-2.2204 0.00552071 5.87202e-20)
(-2.22906 0.00397871 0)
(-2.23609 0.00240012 -5.6469e-20)
(-2.24142 0.000795219 0)
(-2.24501 -0.000836614 0)
(-2.2468 -0.00242826 5.29126e-20)
(-2.24675 -0.00386965 0)
(-2.2453 -0.00514725 -5.03579e-20)
(-2.24247 -0.00634945 0)
(-2.23834 -0.00747898 4.7677e-20)
(-2.23299 -0.00854233 4.62851e-20)
(-2.2265 -0.00952504 4.48597e-20)
(-2.21895 -0.0104333 8.6799e-20)
(-2.21042 -0.0112526 -8.38142e-20)
(-2.20103 -0.0119845 0)
(-2.19088 -0.0126101 0)
(-2.18008 -0.0131259 0)
(-2.16876 -0.0135312 -7.13025e-20)
(-2.15702 -0.0138082 -6.80669e-20)
(-2.14497 -0.0139612 6.48014e-20)
(-2.13276 -0.0139806 0)
(-2.12053 -0.0138726 -5.82073e-20)
(-2.1084 -0.0136365 -5.48947e-20)
(-2.09651 -0.0132772 -5.1584e-20)
(-2.08497 -0.0127947 0)
(-2.0739 -0.0122008 0)
(-2.06339 -0.0114797 0)
(-2.05356 -0.0106044 -3.85714e-20)
(-2.04451 -0.00972852 0)
(-2.03625 -0.0088449 0)
(-2.02888 -0.00777281 2.93537e-20)
(-2.02247 -0.00671716 0)
(-2.01699 -0.00574514 0)
(-2.01246 -0.00461507 2.08816e-20)
(-2.00894 -0.00360822 0)
(-2.00633 -0.00275895 0)
(-2.00461 -0.0017359 -1.33182e-20)
(-2.00375 -0.000928653 -1.10106e-20)
(-2.00351 -0.000331598 0)
(-2.00386 0.000604253 6.70516e-21)
(-2.00476 0.00120636 0)
(-2.00591 0.00148236 -2.84466e-21)
(-2.00714 0.0018198 0)
(-2.00819 0.0020406 6.11186e-22)
(-2.00905 0.00262739 2.19175e-21)
(-2.00959 0.00278569 0)
(-2.00934 0.0025213 0)
(-2.0083 0.0028814 0)
(-2.00643 0.00269156 0)
(-2.00321 0.00199919 0)
(-1.99851 0.00191141 0)
(-1.99226 0.00166442 0)
(-1.98406 0.000826031 1.27135e-20)
(-1.97361 5.57227e-05 -1.39674e-20)
(-1.96084 -0.000628647 0)
(-1.94554 -0.00156686 0)
(-1.92752 -0.00244318 0)
(-1.90666 -0.00349544 0)
(-1.88271 -0.00475535 -4.29423e-20)
(-1.85555 -0.00618836 0)
(-1.82503 -0.00758369 5.11091e-20)
(-1.79113 -0.00899419 -5.59374e-20)
(-1.75368 -0.0106486 0)
(-1.7126 -0.0123853 0)
(-1.66784 -0.0142242 0)
(-1.61933 -0.0161659 8.22624e-20)
(-1.56708 -0.0181891 9.11462e-20)
(-1.51108 -0.0203041 0)
(-1.45142 -0.0224965 1.12587e-19)
(-1.38817 -0.024763 1.25453e-19)
(-1.32141 -0.0270808 -1.39991e-19)
(-1.25121 -0.0294383 0)
(-1.17766 -0.031821 0)
(-1.10088 -0.034213 -1.95803e-19)
(-1.02101 -0.0366036 0)
(-0.938225 -0.0389909 0)
(-0.852692 -0.0413759 0)
(-0.764594 -0.043759 0)
(-0.674119 -0.0461406 3.47872e-19)
(-0.581451 -0.0485276 3.91196e-19)
(-0.486782 -0.0509219 0)
(-0.390385 -0.0533419 4.96835e-19)
(-0.292489 -0.0558051 0)
(-0.193189 -0.0583453 0)
(-0.0926662 -0.0602875 7.00731e-19)
(0.0107884 -0.0604756 0)
(0.11656 -0.0592866 6.82612e-19)
(0.222909 -0.0578387 0)
(0.329458 -0.056314 0)
(0.435718 -0.0547561 6.25293e-19)
(0.541294 -0.0531603 0)
(0.645868 -0.0515241 5.98298e-19)
(0.74915 -0.049871 0)
(0.850802 -0.0481944 0)
(0.950603 -0.0464798 0)
(1.04835 -0.0447408 -5.59394e-19)
(1.14384 -0.0429954 0)
(1.23683 -0.0412124 5.44648e-19)
(1.32711 -0.0393948 0)
(1.41446 -0.0375473 0)
(1.49854 -0.0356233 0)
(1.57892 -0.0335731 0)
(1.65508 -0.0313264 0)
(1.72581 -0.0287504 0)
(1.79065 -0.0254014 0)
(1.84037 -0.0205848 -1.02786e-18)
(1.88799 -0.00919052 0)
(1.83311 0.0141338 0)
(0.00699035 -0.0625333 1.40294e-18)
(0.0151197 -0.0472223 -6.06622e-19)
(0.0143504 -0.0246632 0)
(0.0100932 -0.00432355 1.81131e-19)
(0.00220498 0.0133674 0)
(-0.00920956 0.0280926 6.84218e-20)
(-0.023967 0.0398608 -1.25737e-19)
(-0.0419779 0.0490331 -1.18305e-19)
(-0.0631557 0.0561827 0)
(-0.0873039 0.0619561 -1.09931e-19)
(-0.114244 0.0669367 -5.41747e-20)
(-0.144032 0.0715142 0)
(-0.177417 0.0754297 0)
(-0.21449 0.0789684 0)
(-0.254441 0.0842782 0)
(-0.296522 0.0919281 -5.22195e-20)
(-0.339467 0.10098 0)
(-0.386898 0.108941 1.09702e-19)
(-0.4374 0.11422 0)
(-0.48795 0.120886 0)
(-0.53768 0.126963 -9.24037e-20)
(-0.587532 0.131349 0)
(-0.637495 0.134538 8.26971e-20)
(-0.687935 0.136762 -3.96693e-20)
(-0.73861 0.137721 3.80858e-20)
(-0.788898 0.137696 -3.66251e-20)
(-0.83867 0.136971 -3.52758e-20)
(-0.887719 0.135621 0)
(-0.935903 0.133719 0)
(-0.983127 0.131345 3.18325e-20)
(-1.02932 0.128585 -3.06378e-20)
(-1.07445 0.125525 0)
(-1.11849 0.122249 0)
(-1.16143 0.118832 2.83857e-20)
(-1.20328 0.115341 0)
(-1.24407 0.111831 0)
(-1.28381 0.108347 -2.64337e-20)
(-1.32254 0.104924 0)
(-1.36029 0.101588 2.51508e-20)
(-1.3971 0.098355 -4.97419e-20)
(-1.433 0.0952357 0)
(-1.46802 0.0922343 0)
(-1.50219 0.0893495 -9.39555e-20)
(-1.53555 0.0865777 -9.24344e-20)
(-1.56811 0.083911 -9.09898e-20)
(-1.5999 0.0813418 4.46189e-20)
(-1.63093 0.0788586 -4.43333e-20)
(-1.66121 0.0764516 -1.30733e-19)
(-1.69075 0.0741079 8.58178e-20)
(-1.71956 0.0718174 4.24955e-20)
(-1.74762 0.0695661 0)
(-1.77494 0.0673441 -4.13623e-20)
(-1.8015 0.0651374 4.04929e-20)
(-1.8273 0.0629372 0)
(-1.85231 0.0607314 0)
(-1.87651 0.058514 0)
(-1.89989 0.0562741 -3.87134e-20)
(-1.9224 0.0540076 0)
(-1.94403 0.0517053 7.51261e-20)
(-1.96474 0.0493662 0)
(-1.9845 0.0469819 7.31072e-20)
(-2.00327 0.0445533 0)
(-2.02102 0.0420741 -7.10703e-20)
(-2.03772 0.0395489 0)
(-2.05333 0.0369728 6.89948e-20)
(-2.06781 0.0343527 -3.39091e-20)
(-2.08113 0.0316849 0)
(-2.09326 0.0289785 -6.57671e-20)
(-2.10418 0.0262306 -3.23486e-20)
(-2.11384 0.0234521 -3.17662e-20)
(-2.12224 0.0206415 0)
(-2.12936 0.0178117 -3.05989e-20)
(-2.13518 0.0149623 -2.994e-20)
(-2.13972 0.0121076 0)
(-2.14298 0.009248 2.86509e-20)
(-2.145 0.00640308 -5.61154e-20)
(-2.14585 0.0035876 0)
(-2.14562 0.000860048 -2.65977e-20)
(-2.14441 -0.00169833 0)
(-2.14202 -0.0040481 7.56452e-20)
(-2.13844 -0.00623724 0)
(-2.13372 -0.00827497 -7.1109e-20)
(-2.12791 -0.0101671 -2.28124e-20)
(-2.12107 -0.0118968 2.23697e-20)
(-2.11328 -0.0134651 4.31542e-20)
(-2.10462 -0.0148567 -4.15399e-20)
(-2.09519 -0.0160733 0)
(-2.0851 -0.017099 0)
(-2.07447 -0.0179322 0)
(-2.06339 -0.0185638 1.0271e-19)
(-2.05198 -0.0189886 3.22053e-20)
(-2.04035 -0.0192011 -3.04759e-20)
(-2.0286 -0.0191982 0)
(-2.01687 -0.0189942 -2.79525e-20)
(-2.00528 -0.0185958 2.53007e-20)
(-1.99393 -0.0180203 2.35931e-20)
(-1.98294 -0.0172761 0)
(-1.97241 -0.0163822 0)
(-1.96243 -0.0153514 0)
(-1.95306 -0.0142013 1.69729e-20)
(-1.94438 -0.0129508 0)
(-1.93648 -0.0116331 -2.83541e-20)
(-1.92936 -0.010267 -3.76577e-20)
(-1.92305 -0.00887281 2.2338e-20)
(-1.91758 -0.00750025 0)
(-1.91294 -0.00615183 8.55065e-21)
(-1.9091 -0.00483108 0)
(-1.90602 -0.00359606 1.15206e-20)
(-1.90361 -0.00248434 -4.64648e-21)
(-1.90178 -0.0015004 -3.4613e-21)
(-1.90047 -0.000710823 0)
(-1.89951 -0.000116237 -3.75002e-21)
(-1.89873 0.000303798 5.58497e-22)
(-1.89802 0.000520859 -6.09161e-22)
(-1.89728 0.000502072 0)
(-1.8964 0.000244199 -2.22453e-21)
(-1.8951 -0.000221365 -9.02046e-21)
(-1.89313 -0.00088285 0)
(-1.89044 -0.00179484 -8.71395e-21)
(-1.88673 -0.00292925 -9.89916e-21)
(-1.88174 -0.00428866 -1.09947e-20)
(-1.87545 -0.00594273 0)
(-1.86757 -0.00783191 0)
(-1.85775 -0.00992963 0)
(-1.84585 -0.0122236 7.50083e-21)
(-1.83171 -0.0146873 7.62078e-21)
(-1.81504 -0.0173106 0)
(-1.7957 -0.020098 1.72219e-20)
(-1.77349 -0.0230253 1.81055e-20)
(-1.74823 -0.0261051 0)
(-1.71978 -0.0292833 1.98449e-20)
(-1.68799 -0.0325464 4.23528e-20)
(-1.65277 -0.0358801 -2.22689e-20)
(-1.61394 -0.0393107 -2.39006e-20)
(-1.5714 -0.0427667 0)
(-1.52509 -0.0462568 0)
(-1.47494 -0.0497419 0)
(-1.42088 -0.0532158 -3.16826e-20)
(-1.36291 -0.0566448 3.39102e-20)
(-1.30102 -0.0600235 7.42595e-20)
(-1.23528 -0.0633372 -4.09206e-20)
(-1.16574 -0.0665775 4.37426e-20)
(-1.09248 -0.0697251 4.91521e-20)
(-1.01558 -0.072756 0)
(-0.935147 -0.0756504 0)
(-0.851301 -0.0783857 -6.33432e-20)
(-0.764201 -0.0809521 0)
(-0.674018 -0.0833413 0)
(-0.580942 -0.0855517 1.70862e-19)
(-0.485172 -0.0875846 0)
(-0.386917 -0.0894457 1.01204e-19)
(-0.286392 -0.0911479 -1.14254e-19)
(-0.183821 -0.0927114 0)
(-0.0793259 -0.0941148 1.30827e-19)
(0.0271351 -0.0952856 0)
(0.135223 -0.0964601 0)
(0.244136 -0.097547 -1.53309e-19)
(0.352969 -0.0978223 3.14476e-19)
(0.461254 -0.0971799 -1.65103e-19)
(0.569031 -0.0960118 0)
(0.676229 -0.0944903 0)
(0.782596 -0.0927063 1.78348e-19)
(0.887879 -0.0907015 0)
(0.991844 -0.0884984 1.8899e-19)
(1.09428 -0.0861276 0)
(1.19496 -0.083618 0)
(1.29372 -0.0809792 0)
(1.39039 -0.078245 2.10929e-19)
(1.48479 -0.075426 0)
(1.57673 -0.072508 -2.18636e-19)
(1.66604 -0.0694741 0)
(1.75251 -0.066307 0)
(1.83585 -0.0629398 4.54677e-19)
(1.91566 -0.0592853 -4.60851e-19)
(1.99146 -0.0551791 0)
(2.06228 -0.0503447 0)
(2.12733 -0.0438373 0)
(2.18182 -0.0342278 1.46605e-18)
(2.22992 -0.014693 0)
(2.24853 0.0258705 -1.02972e-18)
(-0.00378262 -0.0693597 -1.32024e-21)
(-0.00598261 -0.0381708 6.04622e-19)
(-0.015473 -0.00782824 0)
(-0.027552 0.0183787 -2.50878e-19)
(-0.0420426 0.041242 0)
(-0.0587858 0.0611846 0)
(-0.0778556 0.0784835 3.88885e-23)
(-0.099474 0.0934811 7.97009e-20)
(-0.12385 0.106634 7.65981e-20)
(-0.151094 0.118468 7.4571e-20)
(-0.181197 0.129476 0)
(-0.214118 0.139971 0)
(-0.249887 0.149909 -6.97628e-20)
(-0.28838 0.159472 -1.35938e-19)
(-0.329093 0.169418 1.32261e-19)
(-0.371064 0.179901 0)
(-0.413696 0.190143 1.25581e-19)
(-0.457324 0.19858 -6.1138e-20)
(-0.501967 0.20481 0)
(-0.546944 0.21028 1.12287e-19)
(-0.591501 0.21462 5.37975e-20)
(-0.635728 0.217637 -1.02978e-19)
(-0.679836 0.219438 -4.96086e-20)
(-0.723645 0.219923 0)
(-0.76695 0.21919 9.21003e-20)
(-0.809754 0.217388 8.89729e-20)
(-0.852013 0.214691 0)
(-0.893643 0.211236 8.33694e-20)
(-0.934576 0.207152 0)
(-0.974773 0.202564 7.85369e-20)
(-1.01421 0.197589 3.82818e-20)
(-1.05288 0.192335 0)
(-1.09077 0.186902 0)
(-1.12789 0.181379 0)
(-1.16424 0.175841 0)
(-1.19984 0.170349 0)
(-1.23469 0.164952 0)
(-1.2688 0.159684 6.4973e-20)
(-1.30219 0.15457 -9.57264e-20)
(-1.33487 0.149626 0)
(-1.36685 0.144856 0)
(-1.39814 0.140261 0)
(-1.42876 0.135836 2.01604e-22)
(-1.45872 0.131572 5.88106e-20)
(-1.48802 0.127456 1.15667e-19)
(-1.51668 0.123475 -1.13988e-19)
(-1.54469 0.119613 -5.60925e-20)
(-1.57206 0.115853 5.55086e-20)
(-1.59879 0.112177 -1.86388e-22)
(-1.62487 0.10857 5.38465e-20)
(-1.6503 0.105013 0)
(-1.67507 0.101491 5.2453e-20)
(-1.69917 0.097986 -1.6775e-22)
(-1.72258 0.0944847 0)
(-1.74528 0.0909727 0)
(-1.76726 0.0874387 -4.98129e-20)
(-1.78849 0.083871 0)
(-1.80894 0.0802612 0)
(-1.82859 0.0766007 4.77635e-20)
(-1.8474 0.0728843 9.4493e-20)
(-1.86535 0.0691059 -4.67077e-20)
(-1.8824 0.0652637 0)
(-1.89852 0.061355 4.53809e-20)
(-1.91367 0.0573816 0)
(-1.92783 0.0533442 4.38983e-20)
(-1.94095 0.0492478 4.33233e-20)
(-1.95301 0.0450959 -8.51584e-20)
(-1.96397 0.0408968 -4.18491e-20)
(-1.97382 0.036657 0)
(-1.98251 0.0323882 8.0812e-20)
(-1.99005 0.0281003 0)
(-1.9964 0.023809 1.16587e-19)
(-2.00155 0.0195286 7.61668e-20)
(-2.00552 0.0152803 7.45443e-20)
(-2.0083 0.0110846 -7.28831e-20)
(-2.00991 0.0069721 1.06671e-19)
(-2.01037 0.00297562 0)
(-2.0097 -0.000866307 0)
(-2.0079 -0.00453647 -6.57619e-20)
(-2.00498 -0.00802594 -9.56363e-20)
(-2.00095 -0.0113225 0)
(-1.99586 -0.0144056 2.97894e-20)
(-1.98976 -0.0172598 0)
(-1.98271 -0.0198655 -8.3676e-20)
(-1.97478 -0.0222096 4.65173e-22)
(-1.96606 -0.0242766 -4.84912e-22)
(-1.95662 -0.0260569 4.96413e-20)
(-1.94659 -0.027538 0)
(-1.93605 -0.0287125 -4.53319e-20)
(-1.92512 -0.0295741 5.31292e-22)
(-1.9139 -0.0301159 0)
(-1.90247 -0.0303339 0)
(-1.89097 -0.0302332 0)
(-1.87949 -0.0298256 3.39004e-20)
(-1.86815 -0.0291296 0)
(-1.85704 -0.0281647 0)
(-1.84627 -0.0269539 0)
(-1.83593 -0.0255228 0)
(-1.82609 -0.0238973 0)
(-1.81683 -0.022105 2.17024e-20)
(-1.80819 -0.0201832 0)
(-1.80024 -0.0181755 1.73779e-20)
(-1.793 -0.0161118 1.55007e-20)
(-1.78647 -0.0140344 -1.36812e-20)
(-1.78068 -0.0119905 0)
(-1.77561 -0.0100038 -1.02316e-20)
(-1.77122 -0.00810849 0)
(-1.76747 -0.0063711 -7.05361e-21)
(-1.76427 -0.00482216 5.56855e-21)
(-1.76154 -0.00349605 1.25821e-20)
(-1.75921 -0.00244856 0)
(-1.75714 -0.00167721 4.61696e-21)
(-1.75518 -0.00119433 2.89469e-22)
(-1.75323 -0.00103116 0)
(-1.75115 -0.00119585 -3.81207e-21)
(-1.74878 -0.00171383 -5.80855e-21)
(-1.7459 -0.0025792 1.13849e-20)
(-1.74232 -0.00380635 0)
(-1.73788 -0.00542536 5.34384e-21)
(-1.73234 -0.00738051 6.06996e-21)
(-1.72551 -0.00971341 2.05245e-20)
(-1.71728 -0.012479 0)
(-1.70735 -0.0155914 0)
(-1.6955 -0.0190225 0)
(-1.68152 -0.022785 9.31417e-21)
(-1.66523 -0.026821 0)
(-1.64639 -0.0311144 0)
(-1.62484 -0.0356535 -1.05109e-20)
(-1.60039 -0.0404085 -1.10362e-20)
(-1.57288 -0.0453729 0)
(-1.54214 -0.0505099 0)
(-1.50804 -0.0557782 -2.56822e-20)
(-1.47047 -0.0611512 0)
(-1.42927 -0.0666218 2.87553e-20)
(-1.38435 -0.072144 3.05593e-20)
(-1.33563 -0.0776879 0)
(-1.28305 -0.0832134 0)
(-1.22655 -0.0886873 -3.73942e-20)
(-1.16612 -0.0940736 -3.52761e-22)
(-1.10177 -0.0993465 -4.55615e-22)
(-1.03355 -0.104483 0)
(-0.96152 -0.109459 -1.03475e-19)
(-0.885763 -0.11424 0)
(-0.806368 -0.118788 0)
(-0.723455 -0.12307 0)
(-0.637165 -0.127052 7.41887e-20)
(-0.547666 -0.130713 0)
(-0.455144 -0.134037 -1.74353e-19)
(-0.359802 -0.137017 -9.67914e-20)
(-0.261857 -0.139658 0)
(-0.161535 -0.141963 -1.14898e-19)
(-0.0590583 -0.143923 0)
(0.0453774 -0.145543 0)
(0.151418 -0.146859 -4.14082e-19)
(0.25868 -0.147797 2.89726e-19)
(0.366742 -0.148339 0)
(0.475142 -0.148499 3.20444e-19)
(0.58337 -0.148177 -1.7064e-19)
(0.691105 -0.147256 0)
(0.798196 -0.145767 0)
(0.904455 -0.143799 0)
(1.00965 -0.141434 -6.02666e-19)
(1.11356 -0.138719 0)
(1.21595 -0.135691 -2.1782e-19)
(1.31664 -0.132386 0)
(1.41544 -0.128847 0)
(1.51218 -0.125092 0)
(1.60673 -0.121155 0)
(1.69891 -0.117062 0)
(1.78861 -0.112805 0)
(1.87568 -0.108354 -5.25142e-19)
(1.95991 -0.103668 0)
(2.04106 -0.0986519 -2.75302e-19)
(2.1188 -0.0931732 8.38159e-19)
(2.19271 -0.0869974 0)
(2.26202 -0.0796812 0)
(2.32613 -0.0701191 -5.88869e-19)
(2.38229 -0.0563277 -6.03318e-19)
(2.43397 -0.0331214 6.14019e-19)
(2.46814 0.0103931 6.3989e-19)
(-0.0134421 -0.0504042 -1.96025e-18)
(-0.0233986 -0.0108713 -7.27848e-19)
(-0.0391894 0.0234118 -2.71924e-19)
(-0.0572811 0.0528884 -9.83579e-20)
(-0.076942 0.0790136 0)
(-0.0979734 0.1025 1.43015e-19)
(-0.120547 0.123746 -6.5588e-20)
(-0.144917 0.143069 0)
(-0.171285 0.160794 -5.90034e-20)
(-0.199737 0.177232 0)
(-0.230235 0.192619 1.10212e-19)
(-0.26265 0.207064 0)
(-0.296814 0.220547 5.18948e-20)
(-0.33257 0.233134 1.00575e-19)
(-0.369596 0.245003 -9.73615e-20)
(-0.407406 0.256109 0)
(-0.445625 0.26607 -9.10603e-20)
(-0.484148 0.274343 0)
(-0.52297 0.280751 0)
(-0.561943 0.285655 -8.18284e-20)
(-0.600802 0.289135 0)
(-0.639409 0.291178 9.47441e-23)
(-0.6777 0.291826 0)
(-0.715591 0.291081 0)
(-0.753048 0.289013 -4.12367e-23)
(-0.790079 0.285787 -6.64752e-20)
(-0.826674 0.281585 -6.44211e-20)
(-0.862811 0.276578 -6.25809e-20)
(-0.898467 0.270918 0)
(-0.933619 0.264747 -1.18315e-19)
(-0.968249 0.258194 0)
(-1.00234 0.251377 -5.61477e-20)
(-1.03589 0.244402 0)
(-1.06889 0.237359 0)
(-1.10133 0.230324 5.23821e-20)
(-1.13322 0.223358 0)
(-1.16453 0.216511 -5.02665e-20)
(-1.19528 0.209819 -7.59661e-23)
(-1.22546 0.203305 9.68898e-20)
(-1.25507 0.196985 -9.51147e-20)
(-1.28411 0.190866 0)
(-1.31258 0.184947 0)
(-1.34047 0.179223 -4.51979e-20)
(-1.36781 0.173683 0)
(-1.39457 0.168314 -4.4017e-20)
(-1.42077 0.1631 4.33898e-20)
(-1.4464 0.158021 4.2787e-20)
(-1.47145 0.153059 0)
(-1.49593 0.148193 -4.16433e-20)
(-1.51983 0.143402 -4.10974e-20)
(-1.54314 0.138667 8.09982e-20)
(-1.56584 0.133966 -4.00455e-20)
(-1.58792 0.129281 -3.95354e-20)
(-1.60937 0.124594 0)
(-1.63018 0.119887 0)
(-1.6503 0.115146 3.80454e-20)
(-1.66973 0.110357 0)
(-1.68844 0.105509 0)
(-1.7064 0.100592 -7.31626e-20)