/*--------------------------------*- C++ -*----------------------------------*\
  =========                 |
  \\      /  F ield         | OpenFOAM: The Open Source CFD Toolbox
   \\    /   O peration     | Website:  https://openfoam.org
    \\  /    A nd           | Version:  9
     \\/     M anipulation  |
\*---------------------------------------------------------------------------*/
FoamFile
{
    format      ascii;
    class       volScalarField;
    location    "3.79";
    object      p;
}
// * * * * * * * * * * * * * * * * * * * * * * * * * * * * * * * * * * * * * //

dimensions      [1 -1 -2 0 0 0 0];

internalField   nonuniform List<scalar> 
2268
(
703.014
703.316
704.069
705.3
706.96
709.017
711.433
714.166
717.17
720.395
723.782
727.269
730.785
734.244
737.551
740.584
743.221
745.371
747.002
749.05
750.979
752.314
752.644
644.104
644.411
645.155
646.387
648.052
650.117
652.541
655.284
658.299
661.536
664.936
668.432
671.949
675.402
678.696
681.722
684.406
686.78
689.141
690.835
692.286
693.449
693.859
585.097
585.426
586.168
587.407
589.08
591.158
593.598
596.36
599.396
602.655
606.077
609.593
613.127
616.595
619.91
622.981
625.803
628.7
631.47
632.984
633.836
634.61
635.052
525.982
526.328
527.082
528.333
530.022
532.121
534.587
537.376
540.443
543.736
547.194
550.747
554.319
557.83
561.202
564.368
567.37
570.688
573.64
575.179
575.79
575.958
576.335
466.757
467.115
467.888
469.158
470.871
472.999
475.499
478.327
481.437
484.776
488.283
491.889
495.52
499.099
502.555
505.833
508.976
512.398
515.664
517.332
517.677
517.476
517.791
407.42
407.786
408.583
409.878
411.622
413.788
416.332
419.21
422.375
425.772
429.342
433.018
436.726
440.392
443.95
447.345
450.593
453.954
457.269
459.108
459.408
459.173
459.421
347.964
348.343
349.169
350.497
352.279
354.491
357.09
360.029
363.259
366.727
370.374
374.133
377.934
381.705
385.379
388.891
392.229
395.536
398.645
400.598
401.198
401.15
401.19
288.388
288.801
289.661
291.026
292.852
295.118
297.782
300.794
304.1
307.648
311.381
315.235
319.144
323.035
326.835
330.463
333.886
337.171
340.163
342.224
343.241
343.603
343.25
754.213
753.996
752.987
751.196
748.893
746.247
743.382
740.334
737.182
733.64
729.71
725.832
722.874
721.487
721.349
718.66
714.691
711.876
712.535
696.024
695.391
694.289
692.543
690.291
687.734
684.935
681.833
678.501
675.036
671.338
668.546
666.272
664.326
662.203
659.404
656.408
655.034
655.972
637.686
636.808
635.548
633.776
631.551
629.052
626.299
623.2
619.918
616.619
613.589
611.714
609.313
606.551
603.1
600.266
597.98
597.472
598.532
579.18
578.322
576.948
575.111
572.879
570.38
567.628
564.651
561.473
558.338
556.141
554.59
551.932
548.066
544.424
541.693
540.278
538.963
540.436
520.723
519.925
518.453
516.539
514.252
511.723
508.957
506.092
503.012
499.965
498.085
496.999
494.013
489.368
485.93
483.379
482.201
480.908
482.258
462.387
461.574
460.023
458.033
455.661
453.079
450.247
447.378
444.391
441.4
439.455
438.361
435.173
430.652
427.462
425.137
423.795
423.537
424.238
404.183
403.242
401.646
399.591
397.113
394.453
391.492
388.532
385.602
382.682
380.595
378.944
375.844
371.866
368.948
366.909
365.582
366.252
366.327
346.119
345.007
343.341
341.221
338.581
335.816
332.661
329.576
326.749
324.129
321.979
319.747
316.643
313.046
310.373
308.643
307.606
308.61
308.412
195.139
195.573
196.457
197.86
199.754
202.115
204.9
208.048
211.497
215.193
219.085
223.114
227.221
231.331
235.36
239.18
242.729
246.023
248.949
251.24
252.91
254.188
254.954
74.7644
75.075
75.8775
77.1533
78.7415
80.7061
83.087
85.8038
88.8048
92.124
95.7498
99.5759
103.501
107.468
111.504
115.535
119.333
122.759
125.724
128.156
130.14
131.684
132.735
9.46389
9.50803
9.77862
10.2339
10.866
11.6373
12.5543
13.6508
14.9597
16.4328
18.0654
19.8195
21.6315
23.4653
25.3917
27.4083
29.4638
31.4203
33.1392
34.5351
35.5707
36.3252
36.9465
-0.0261633
0.00621203
1.21977e-05
-0.0667047
0.0727069
0.179525
0.235887
0.326569
0.567679
0.701989
0.748982
0.76311
0.767121
0.766246
0.705114
0.436054
0.346777
0.381309
0.503442
0.719306
0.697461
0.462574
0.3712
-0.357546
-0.367407
-0.355961
-0.392729
-0.361687
-0.299211
-0.246689
-0.199248
-0.136573
-0.0699687
-0.0257388
0.00381168
0.0224887
0.0338308
0.00677261
-0.0520972
-0.0888485
-0.123536
-0.180751
-0.250281
-0.378304
-0.559225
-0.615992
-0.747012
-0.766346
-0.753194
-0.747286
-0.776291
-0.778212
-0.771768
-0.771118
-0.824445
-0.860139
-0.863841
-0.854304
-0.851784
-0.840845
-0.836623
-0.762954
-0.753209
-0.769521
-0.806549
-0.897087
-0.932515
-0.927024
-0.897338
-1.14102
-1.14451
-1.13909
-1.10725
-1.12009
-1.14892
-1.18002
-1.20283
-1.22629
-1.24592
-1.2621
-1.27373
-1.28033
-1.28377
-1.2865
-1.2777
-1.26931
-1.2487
-1.20945
-1.17321
-1.17717
-1.15033
-1.12433
-1.36992
-1.36716
-1.36738
-1.36434
-1.36564
-1.36474
-1.36934
-1.38069
-1.38605
-1.38819
-1.39387
-1.3999
-1.40457
-1.40815
-1.4109
-1.41273
-1.40913
-1.39654
-1.37878
-1.35676
-1.34805
-1.33954
-1.33639
-1.49947
-1.49844
-1.49944
-1.50324
-1.50766
-1.51095
-1.51195
-1.51243
-1.51463
-1.51695
-1.52087
-1.52545
-1.52966
-1.53337
-1.53676
-1.53953
-1.5412
-1.54187
-1.54269
-1.533
-1.52343
-1.52136
-1.53307
-1.6295
-1.62878
-1.62991
-1.63294
-1.63599
-1.63883
-1.63991
-1.64112
-1.64277
-1.64488
-1.64805
-1.6518
-1.65558
-1.65904
-1.66224
-1.66546
-1.6689
-1.6736
-1.68168
-1.68537
-1.68476
-1.67996
-1.68686
-1.75838
-1.75836
-1.75943
-1.76158
-1.76395
-1.76613
-1.76758
-1.76899
-1.77062
-1.77266
-1.77535
-1.77837
-1.78148
-1.78456
-1.7876
-1.79078
-1.79431
-1.7987
-1.80449
-1.80986
-1.81215
-1.80999
-1.80924
-1.88678
-1.88722
-1.88826
-1.88991
-1.89176
-1.89354
-1.89503
-1.89649
-1.89815
-1.90005
-1.90229
-1.90476
-1.9074
-1.91012
-1.91289
-1.9158
-1.91896
-1.92257
-1.92669
-1.93008
-1.93167
-1.93129
-1.93089
-2.01464
-2.01539
-2.01646
-2.01783
-2.01934
-2.02084
-2.02225
-2.02367
-2.02522
-2.02693
-2.02885
-2.03097
-2.03326
-2.03564
-2.03811
-2.04069
-2.04342
-2.04634
-2.04942
-2.05196
-2.05336
-2.05357
-2.05334
-2.14202
-2.14302
-2.14414
-2.14536
-2.14664
-2.14794
-2.14922
-2.15054
-2.15195
-2.15349
-2.15519
-2.15704
-2.15903
-2.16112
-2.16328
-2.16553
-2.16786
-2.17027
-2.17268
-2.17478
-2.17604
-2.17648
-2.17644
-2.26907
-2.27023
-2.2714
-2.27254
-2.27368
-2.27482
-2.27598
-2.27719
-2.27847
-2.27985
-2.28135
-2.28298
-2.28471
-2.28653
-2.28842
-2.29036
-2.29234
-2.29432
-2.29624
-2.29792
-2.29911
-2.29965
-2.29968
-2.3959
-2.39717
-2.39836
-2.39944
-2.40047
-2.4015
-2.40255
-2.40364
-2.4048
-2.40604
-2.40737
-2.40881
-2.41032
-2.4119
-2.41354
-2.4152
-2.41687
-2.41851
-2.42004
-2.42137
-2.42236
-2.42289
-2.42297
-2.52258
-2.52389
-2.52508
-2.52611
-2.52706
-2.52799
-2.52894
-2.52993
-2.53097
-2.53208
-2.53326
-2.53452
-2.53585
-2.53723
-2.53864
-2.54006
-2.54147
-2.54282
-2.54407
-2.54514
-2.54594
-2.54641
-2.54656
-2.64916
-2.65046
-2.65163
-2.6526
-2.65347
-2.65432
-2.65518
-2.65607
-2.657
-2.65799
-2.65904
-2.66015
-2.66131
-2.66251
-2.66372
-2.66494
-2.66613
-2.66726
-2.66829
-2.66916
-2.66982
-2.67024
-2.67041
-2.77567
-2.77692
-2.77803
-2.77894
-2.77974
-2.78051
-2.78128
-2.78208
-2.78292
-2.7838
-2.78473
-2.7857
-2.78672
-2.78775
-2.7888
-2.78984
-2.79085
-2.7918
-2.79266
-2.79338
-2.79394
-2.7943
-2.79448
-2.90211
-2.90329
-2.90431
-2.90514
-2.90587
-2.90656
-2.90726
-2.90798
-2.90872
-2.90951
-2.91033
-2.91119
-2.91207
-2.91297
-2.91388
-2.91477
-2.91563
-2.91643
-2.91715
-2.91776
-2.91823
-2.91855
-2.91872
-3.02849
-3.02956
-3.03048
-3.03123
-3.03188
-3.03251
-3.03313
-3.03377
-3.03443
-3.03513
-3.03585
-3.03661
-3.03738
-3.03816
-3.03895
-3.03971
-3.04045
-3.04113
-3.04174
-3.04226
-3.04266
-3.04295
-3.04311
-3.1548
-3.15574
-3.15655
-3.15721
-3.15779
-3.15834
-3.15889
-3.15946
-3.16005
-3.16067
-3.16131
-3.16197
-3.16265
-3.16333
-3.16401
-3.16467
-3.1653
-3.16588
-3.1664
-3.16685
-3.1672
-3.16745
-3.16761
-3.28104
-3.28184
-3.28251
-3.28308
-3.28358
-3.28407
-3.28456
-3.28506
-3.28558
-3.28613
-3.2867
-3.28728
-3.28787
-3.28847
-3.28905
-3.28963
-3.29017
-3.29068
-3.29113
-3.29151
-3.29182
-3.29205
-3.29219
-3.40719
-3.40785
-3.40838
-3.40885
-3.40928
-3.4097
-3.41013
-3.41058
-3.41104
-3.41153
-3.41203
-3.41254
-3.41306
-3.41358
-3.41409
-3.41459
-3.41506
-3.4155
-3.41589
-3.41623
-3.4165
-3.41671
-3.41685
-3.53326
-3.53375
-3.53415
-3.53452
-3.53488
-3.53525
-3.53563
-3.53603
-3.53644
-3.53686
-3.53731
-3.53776
-3.53821
-3.53867
-3.53912
-3.53956
-3.53997
-3.54035
-3.5407
-3.541
-3.54124
-3.54143
-3.54156
-3.65922
-3.65957
-3.65982
-3.6601
-3.66041
-3.66072
-3.66106
-3.6614
-3.66177
-3.66215
-3.66254
-3.66294
-3.66334
-3.66375
-3.66414
-3.66453
-3.66489
-3.66523
-3.66553
-3.6658
-3.66602
-3.6662
-3.66632
-3.78507
-3.78529
-3.78542
-3.78561
-3.78586
-3.78613
-3.78642
-3.78673
-3.78705
-3.78739
-3.78774
-3.78809
-3.78845
-3.78881
-3.78916
-3.7895
-3.78982
-3.79012
-3.7904
-3.79063
-3.79084
-3.791
-3.79112
-3.91081
-3.9109
-3.91094
-3.91108
-3.91127
-3.91149
-3.91173
-3.912
-3.91229
-3.91259
-3.9129
-3.91322
-3.91354
-3.91386
-3.91418
-3.91448
-3.91477
-3.91504
-3.91528
-3.9155
-3.91569
-3.91584
-3.91596
-4.03646
-4.03642
-4.03639
-4.03648
-4.03662
-4.03679
-4.037
-4.03724
-4.0375
-4.03777
-4.03805
-4.03834
-4.03863
-4.03891
-4.03919
-4.03947
-4.03973
-4.03997
-4.0402
-4.0404
-4.04057
-4.04072
-4.04084
-4.16203
-4.16186
-4.16178
-4.16183
-4.16192
-4.16206
-4.16224
-4.16246
-4.16269
-4.16293
-4.16319
-4.16345
-4.16371
-4.16397
-4.16422
-4.16447
-4.1647
-4.16493
-4.16513
-4.16532
-4.16549
-4.16564
-4.16576
-4.28754
-4.28727
-4.28713
-4.28712
-4.28719
-4.28731
-4.28747
-4.28766
-4.28787
-4.28809
-4.28832
-4.28855
-4.28879
-4.28902
-4.28925
-4.28948
-4.28969
-4.2899
-4.29009
-4.29027
-4.29043
-4.29058
-4.2907
-4.413
-4.41266
-4.41245
-4.41241
-4.41245
-4.41255
-4.41269
-4.41286
-4.41304
-4.41325
-4.41346
-4.41367
-4.41388
-4.41409
-4.4143
-4.4145
-4.4147
-4.41489
-4.41507
-4.41524
-4.4154
-4.41554
-4.41567
-4.53843
-4.53803
-4.53779
-4.5377
-4.53772
-4.5378
-4.53792
-4.53807
-4.53823
-4.53842
-4.5386
-4.53879
-4.53898
-4.53917
-4.53936
-4.53954
-4.53972
-4.5399
-4.54007
-4.54024
-4.54039
-4.54053
-4.54065
-4.66382
-4.66339
-4.66312
-4.66301
-4.663
-4.66306
-4.66316
-4.66329
-4.66344
-4.6636
-4.66377
-4.66393
-4.6641
-4.66427
-4.66443
-4.66459
-4.66476
-4.66492
-4.66508
-4.66524
-4.6654
-4.66554
-4.66566
-4.78919
-4.78873
-4.78844
-4.78832
-4.7883
-4.78835
-4.78842
-4.78853
-4.78866
-4.7888
-4.78895
-4.78909
-4.78924
-4.78938
-4.78952
-4.78966
-4.7898
-4.78995
-4.79011
-4.79026
-4.79042
-4.79056
-4.79069
-4.91454
-4.91406
-4.91377
-4.91364
-4.91362
-4.91365
-4.91371
-4.9138
-4.91391
-4.91403
-4.91415
-4.91427
-4.91439
-4.9145
-4.91461
-4.91473
-4.91485
-4.91498
-4.91514
-4.9153
-4.91545
-4.9156
-4.91573
-5.03987
-5.03936
-5.03908
-5.03898
-5.03896
-5.03898
-5.03903
-5.0391
-5.03919
-5.03929
-5.03938
-5.03947
-5.03955
-5.03963
-5.03971
-5.0398
-5.0399
-5.04002
-5.04017
-5.04034
-5.04051
-5.04066
-5.04079
-5.16518
-5.16466
-5.1644
-5.16433
-5.16433
-5.16435
-5.16439
-5.16444
-5.16451
-5.16458
-5.16464
-5.1647
-5.16475
-5.16479
-5.16483
-5.16488
-5.16494
-5.16504
-5.16519
-5.16539
-5.16558
-5.16575
-5.16588
-5.29046
-5.28996
-5.28973
-5.28971
-5.28975
-5.28978
-5.2898
-5.28983
-5.28987
-5.2899
-5.28993
-5.28996
-5.28997
-5.28997
-5.28997
-5.28997
-5.28998
-5.29004
-5.29021
-5.29046
-5.29068
-5.29086
-5.29099
-5.4157
-5.41529
-5.41514
-5.41518
-5.41524
-5.41527
-5.41527
-5.41527
-5.41527
-5.41526
-5.41525
-5.41523
-5.41519
-5.41515
-5.4151
-5.41505
-5.415
-5.41497
-5.41518
-5.41556
-5.41584
-5.41601
-5.41614
-5.54073
-5.54071
-5.54074
-5.54084
-5.54089
-5.54087
-5.54082
-5.54075
-5.54067
-5.5406
-5.54052
-5.54042
-5.54032
-5.54021
-5.54009
-5.53996
-5.53981
-5.53955
-5.53984
-5.54065
-5.54105
-5.54122
-5.54132
-5.66605
-5.66727
-5.66688
-5.66674
-5.66666
-5.66654
-5.6664
-5.66626
-5.66611
-5.66597
-5.66583
-5.66568
-5.66552
-5.66534
-5.66513
-5.66484
-5.66432
-5.66353
-5.66393
-5.66565
-5.66623
-5.6664
-5.66648
258.295
258.763
258.826
258.638
134.138
134.538
134.488
134.093
37.5668
37.7585
37.7526
37.6184
0.598474
0.754822
0.803106
0.771012
-0.529647
-0.45666
-0.456325
-0.500806
-0.88904
-0.865811
-0.88072
-0.87658
-1.14439
-1.14749
-1.16052
-1.16076
-1.35834
-1.37639
-1.37745
-1.37445
-1.5482
-1.55129
-1.54786
-1.54688
-1.68604
-1.68339
-1.68029
-1.6786
-1.80794
-1.80677
-1.8053
-1.80429
-1.93001
-1.92932
-1.92858
-1.92795
-2.05277
-2.05234
-2.05187
-2.05138
-2.17604
-2.17568
-2.17529
-2.17489
-2.29937
-2.29911
-2.29881
-2.29849
-2.42281
-2.42264
-2.42245
-2.42221
-2.54648
-2.54638
-2.54625
-2.54608
-2.67038
-2.67033
-2.67024
-2.67012
-2.79448
-2.79445
-2.7944
-2.79431
-2.91875
-2.91874
-2.9187
-2.91864
-3.04315
-3.04315
-3.04313
-3.04308
-3.16765
-3.16766
-3.16765
-3.16762
-3.29225
-3.29226
-3.29226
-3.29223
-3.4169
-3.41692
-3.41693
-3.41692
-3.54162
-3.54164
-3.54165
-3.54165
-3.66638
-3.66641
-3.66642
-3.66643
-3.79118
-3.79121
-3.79124
-3.79125
-3.91603
-3.91606
-3.91609
-3.91611
-4.04091
-4.04095
-4.04098
-4.04101
-4.16583
-4.16587
-4.1659
-4.16593
-4.29077
-4.29081
-4.29085
-4.29089
-4.41574
-4.41578
-4.41582
-4.41586
-4.54073
-4.54078
-4.54082
-4.54086
-4.66574
-4.66578
-4.66583
-4.66587
-4.79077
-4.79081
-4.79086
-4.7909
-4.91581
-4.91586
-4.9159
-4.91594
-5.04088
-5.04092
-5.04097
-5.04101
-5.16596
-5.16601
-5.16605
-5.16609
-5.29107
-5.29111
-5.29115
-5.29119
-5.4162
-5.41624
-5.41627
-5.4163
-5.54137
-5.54139
-5.54141
-5.54143
-5.66651
-5.66652
-5.66653
-5.66654
255.653
254.261
252.32
250.283
248.133
245.764
242.837
239.577
236.221
233.12
230.215
227.366
224.213
220.975
218.58
217.327
216.899
217.764
218.368
132.95
132.28
131.202
129.87
128.419
126.557
124.387
121.45
117.724
113.596
109.625
106.131
102.966
100.23
98.2252
97.0206
96.6437
96.9959
97.1809
37.3656
37.5392
37.4549
36.9444
36.0867
34.978
33.8497
32.3202
30.2761
27.8254
25.5174
23.5173
21.8489
20.549
19.5311
18.6637
18.2945
18.3221
18.3
0.757086
0.818816
0.862422
0.791814
0.614258
0.382036
0.0187446
-0.291306
-0.332962
-0.315983
-0.305611
-0.309472
-0.322497
-0.337747
-0.369856
-0.349809
-0.370676
-0.439055
-0.46872
-0.565175
-0.607159
-0.626007
-0.62339
-0.592468
-0.544287
-0.540187
-0.541096
-0.548938
-0.559425
-0.571417
-0.586713
-0.602798
-0.624992
-0.654552
-0.663529
-0.668642
-0.671616
-0.671402
-0.866312
-0.852791
-0.85532
-0.856023
-0.86342
-0.881843
-0.887038
-0.892007
-0.893096
-0.89506
-0.8969
-0.895967
-0.894613
-0.899835
-0.914041
-0.915286
-0.919264
-0.93319
-0.937114
-1.14369
-1.12624
-1.1278
-1.13449
-1.1615
-1.20047
-1.21078
-1.21452
-1.21423
-1.21305
-1.21129
-1.2094
-1.20504
-1.198
-1.18808
-1.18834
-1.18888
-1.1847
-1.17872
-1.38692
-1.39102
-1.39411
-1.3964
-1.40264
-1.40517
-1.40524
-1.40277
-1.39922
-1.39326
-1.38688
-1.38095
-1.37769
-1.37704
-1.37285
-1.37188
-1.36948
-1.36474
-1.36424
-1.55446
-1.56044
-1.55924
-1.55683
-1.54867
-1.53758
-1.53282
-1.52898
-1.52454
-1.51882
-1.51269
-1.50791
-1.50547
-1.50416
-1.50245
-1.50119
-1.50016
-1.50357
-1.50222
-1.67975
-1.68096
-1.6797
-1.6767
-1.67095
-1.66367
-1.65862
-1.65477
-1.65056
-1.64513
-1.64066
-1.63792
-1.63638
-1.63449
-1.63103
-1.62916
-1.62848
-1.62994
-1.62984
-1.80355
-1.80321
-1.80166
-1.79885
-1.79422
-1.78882
-1.78464
-1.7812
-1.77772
-1.7736
-1.77127
-1.77018
-1.76811
-1.7642
-1.75934
-1.75727
-1.75649
-1.75698
-1.75737
-1.92703
-1.92611
-1.92453
-1.92212
-1.91856
-1.91477
-1.91169
-1.90884
-1.90641
-1.90446
-1.90315
-1.90114
-1.8971
-1.89245
-1.88918
-1.88766
-1.88705
-1.88692
-1.88719
-2.05053
-2.04948
-2.04805
-2.04619
-2.04392
-2.04137
-2.039
-2.03673
-2.035
-2.0344
-2.03271
-2.02947
-2.02577
-2.02242
-2.02068
-2.02
-2.01935
-2.01911
-2.01899
-2.17415
-2.17317
-2.17195
-2.17056
-2.1692
-2.16752
-2.16552
-2.16335
-2.16175
-2.16089
-2.15904
-2.15637
-2.15431
-2.15287
-2.15157
-2.15031
-2.14916
-2.149
-2.1493
-2.29789
-2.29703
-2.29601
-2.29488
-2.29381
-2.29253
-2.29077
-2.28883
-2.28732
-2.28615
-2.28462
-2.28287
-2.28168
-2.28123
-2.28001
-2.27803
-2.27692
-2.27682
-2.27706
-2.42174
-2.42102
-2.42015
-2.41918
-2.41815
-2.41697
-2.41554
-2.41404
-2.41271
-2.41156
-2.41031
-2.40903
-2.40811
-2.40746
-2.40636
-2.40504
-2.40422
-2.40407
-2.40376
-2.54573
-2.54513
-2.5444
-2.54356
-2.54263
-2.54159
-2.54041
-2.53918
-2.53805
-2.53702
-2.53598
-2.53498
-2.53418
-2.53352
-2.5327
-2.53182
-2.53123
-2.53112
-2.53052
-2.66985
-2.66936
-2.66874
-2.66803
-2.66723
-2.66633
-2.66534
-2.66432
-2.66336
-2.66247
-2.66161
-2.66081
-2.66015
-2.65958
-2.65899
-2.65843
-2.65805
-2.65806
-2.65756
-2.79411
-2.79371
-2.79319
-2.79258
-2.7919
-2.79114
-2.79032
-2.78948
-2.78866
-2.78791
-2.7872
-2.78656
-2.78603
-2.78558
-2.78518
-2.78485
-2.78464
-2.78476
-2.78433
-2.91848
-2.91815
-2.91773
-2.91721
-2.91664
-2.916
-2.91532
-2.91462
-2.91395
-2.91332
-2.91274
-2.91223
-2.91181
-2.91148
-2.91122
-2.91106
-2.911
-2.9111
-2.91072
-3.04296
-3.0427
-3.04234
-3.04192
-3.04143
-3.0409
-3.04034
-3.03976
-3.03921
-3.0387
-3.03823
-3.03783
-3.03751
-3.03727
-3.03712
-3.03707
-3.03712
-3.03718
-3.03683
-3.16753
-3.16732
-3.16703
-3.16668
-3.16628
-3.16584
-3.16537
-3.16491
-3.16446
-3.16404
-3.16367
-3.16335
-3.16311
-3.16294
-3.16286
-3.16288
-3.16302
-3.16307
-3.16282
-3.29217
-3.292
-3.29178
-3.29149
-3.29116
-3.2908
-3.29043
-3.29005
-3.28968
-3.28935
-3.28905
-3.2888
-3.28861
-3.28849
-3.28844
-3.28848
-3.28863
-3.28865
-3.28852
-3.41687
-3.41675
-3.41657
-3.41634
-3.41608
-3.41579
-3.41549
-3.41519
-3.4149
-3.41462
-3.41439
-3.41419
-3.41403
-3.41392
-3.41386
-3.41386
-3.4139
-3.41377
-3.41347
-3.54162
-3.54154
-3.54141
-3.54123
-3.54103
-3.5408
-3.54056
-3.54032
-3.54009
-3.53987
-3.53968
-3.53951
-3.53937
-3.53926
-3.53916
-3.53906
-3.53893
-3.53861
-3.53806
-3.66642
-3.66637
-3.66628
-3.66615
-3.666
-3.66582
-3.66564
-3.66545
-3.66527
-3.6651
-3.66494
-3.6648
-3.66467
-3.66453
-3.66438
-3.66417
-3.66385
-3.66337
-3.66274
-3.79126
-3.79124
-3.79119
-3.7911
-3.79098
-3.79086
-3.79072
-3.79057
-3.79044
-3.7903
-3.79018
-3.79006
-3.78993
-3.78978
-3.78958
-3.78927
-3.78878
-3.78817
-3.78738
-3.91614
-3.91614
-3.91612
-3.91606
-3.91599
-3.9159
-3.9158
-3.91569
-3.91559
-3.91549
-3.9154
-3.9153
-3.91518
-3.91503
-3.9148
-3.91444
-3.91387
-3.91321
-3.91227
-4.04105
-4.04107
-4.04107
-4.04104
-4.041
-4.04094
-4.04088
-4.04081
-4.04074
-4.04067
-4.0406
-4.04053
-4.04043
-4.04029
-4.04008
-4.03974
-4.0392
-4.0386
-4.03777
-4.16598
-4.16602
-4.16604
-4.16604
-4.16602
-4.16599
-4.16595
-4.16592
-4.16588
-4.16584
-4.1658
-4.16575
-4.16569
-4.16558
-4.16541
-4.16513
-4.1647
-4.1642
-4.16355
-4.29094
-4.291
-4.29103
-4.29105
-4.29105
-4.29104
-4.29103
-4.29102
-4.29101
-4.291
-4.29099
-4.29097
-4.29094
-4.29088
-4.29076
-4.29056
-4.29024
-4.2898
-4.28918
-4.41592
-4.41599
-4.41603
-4.41607
-4.41609
-4.4161
-4.41611
-4.41612
-4.41613
-4.41614
-4.41616
-4.41617
-4.41618
-4.41617
-4.41611
-4.41599
-4.41577
-4.41537
-4.41473
-4.54092
-4.54099
-4.54105
-4.54109
-4.54113
-4.54115
-4.54118
-4.54121
-4.54124
-4.54127
-4.54132
-4.54136
-4.54141
-4.54144
-4.54145
-4.54141
-4.54127
-4.54092
-4.54028
-4.66593
-4.66601
-4.66608
-4.66613
-4.66617
-4.66621
-4.66625
-4.66629
-4.66634
-4.66639
-4.66646
-4.66653
-4.66661
-4.66669
-4.66675
-4.66678
-4.66671
-4.6664
-4.66584
-4.79096
-4.79105
-4.79111
-4.79117
-4.79122
-4.79126
-4.79131
-4.79136
-4.79142
-4.79149
-4.79157
-4.79167
-4.79178
-4.7919
-4.79201
-4.79208
-4.79204
-4.79169
-4.79106
-4.91601
-4.91609
-4.91616
-4.91622
-4.91627
-4.91632
-4.91637
-4.91642
-4.91649
-4.91657
-4.91666
-4.91678
-4.91692
-4.91707
-4.91722
-4.91733
-4.91729
-4.91685
-4.91602
-5.04107
-5.04115
-5.04121
-5.04127
-5.04132
-5.04137
-5.04142
-5.04148
-5.04155
-5.04163
-5.04173
-5.04186
-5.04202
-5.04221
-5.04241
-5.04259
-5.0426
-5.04216
-5.04125
-5.16615
-5.16622
-5.16628
-5.16633
-5.16638
-5.16642
-5.16647
-5.16652
-5.16659
-5.16667
-5.16677
-5.1669
-5.16708
-5.1673
-5.16758
-5.16787
-5.16803
-5.16766
-5.16681
-5.29124
-5.2913
-5.29135
-5.29139
-5.29143
-5.29147
-5.29151
-5.29156
-5.29161
-5.29168
-5.29178
-5.29191
-5.29209
-5.29234
-5.29269
-5.29316
-5.29359
-5.29337
-5.29264
-5.41634
-5.41638
-5.41642
-5.41646
-5.41649
-5.41651
-5.41655
-5.41658
-5.41662
-5.41668
-5.41676
-5.41687
-5.41703
-5.41727
-5.41767
-5.41835
-5.41926
-5.41935
-5.41898
-5.54145
-5.54148
-5.5415
-5.54152
-5.54154
-5.54156
-5.54158
-5.5416
-5.54163
-5.54166
-5.54171
-5.54178
-5.54189
-5.54207
-5.54243
-5.54323
-5.54482
-5.54565
-5.54627
-5.66655
-5.66656
-5.66657
-5.66658
-5.66659
-5.6666
-5.6666
-5.66661
-5.66662
-5.66663
-5.66664
-5.66666
-5.66671
-5.66679
-5.66699
-5.66757
-5.66939
-5.67228
-5.67484
)
;

boundaryField
{
    leftWall
    {
        type            calculated;
        value           nonuniform List<scalar> 
50
(
703.014
644.104
585.097
525.982
466.757
407.42
347.964
288.388
195.139
74.7644
9.46389
-0.0261633
-0.357546
-0.747012
-1.14102
-1.36992
-1.49947
-1.6295
-1.75838
-1.88678
-2.01464
-2.14202
-2.26907
-2.3959
-2.52258
-2.64916
-2.77567
-2.90211
-3.02849
-3.1548
-3.28104
-3.40719
-3.53326
-3.65922
-3.78507
-3.91081
-4.03646
-4.16203
-4.28754
-4.413
-4.53843
-4.66382
-4.78919
-4.91454
-5.03987
-5.16518
-5.29046
-5.4157
-5.54073
-5.66605
)
;
    }
    rightWall
    {
        type            calculated;
        value           nonuniform List<scalar> 
50
(
712.535
655.972
598.532
540.436
482.258
424.238
366.327
308.412
218.368
97.1809
18.3
-0.46872
-0.671402
-0.937114
-1.17872
-1.36424
-1.50222
-1.62984
-1.75737
-1.88719
-2.01899
-2.1493
-2.27706
-2.40376
-2.53052
-2.65756
-2.78433
-2.91072
-3.03683
-3.16282
-3.28852
-3.41347
-3.53806
-3.66274
-3.78738
-3.91227
-4.03777
-4.16355
-4.28918
-4.41473
-4.54028
-4.66584
-4.79106
-4.91602
-5.04125
-5.16681
-5.29264
-5.41898
-5.54627
-5.67484
)
;
    }
    lowerWall
    {
        type            calculated;
        value           nonuniform List<scalar> 
62
(
732.443
732.745
733.498
734.729
736.389
738.447
740.862
743.595
746.6
749.824
753.212
756.699
760.214
763.674
766.98
770.013
772.651
774.797
776.229
778.398
780.316
781.577
781.906
752.644
693.859
635.052
576.335
517.791
459.421
401.19
343.25
320.892
321.359
321.423
321.235
754.213
696.024
637.686
579.18
520.723
462.387
404.183
346.119
783.341
783.123
782.115
780.326
778.05
775.404
772.539
769.627
766.573
762.935
758.99
754.783
751.143
749.757
750.138
747.479
743.032
740.134
740.793
)
;
    }
    atmosphere
    {
        type            calculated;
        value           nonuniform List<scalar> 
46
(
-5.72908
-5.72904
-5.72904
-5.72904
-5.72904
-5.72904
-5.72904
-5.72904
-5.72904
-5.72904
-5.72904
-5.72904
-5.72904
-5.72904
-5.72904
-5.72904
-5.72904
-5.72904
-5.72904
-5.72904
-5.72905
-5.72905
-5.72906
-5.72907
-5.72907
-5.72908
-5.72908
-5.72908
-5.72909
-5.7291
-5.7291
-5.72911
-5.72911
-5.72911
-5.72911
-5.72911
-5.72911
-5.7291
-5.7291
-5.7291
-5.72909
-5.72909
-5.72908
-5.72907
-5.72904
-5.74142
)
;
    }
    defaultFaces
    {
        type            empty;
    }
}


// ************************************************************************* //
