# vtk DataFile Version 2.0
track0
ASCII
DATASET POLYDATA
POINTS 12075 float
-0.0205 0.001 1e-05
-0.02052 0.000999985 1e-05
-0.02054 0.000999974 1e-05
-0.02056 0.000999965 1e-05
-0.02058 0.000999959 1e-05
-0.0206 0.000999956 1e-05
-0.0205 0.00367778 1e-05
-0.02052 0.00367778 1e-05
-0.02054 0.00367777 1e-05
-0.02056 0.00367777 1e-05
-0.02058 0.00367777 1e-05
-0.0206 0.00367777 1e-05
-0.0205 0.00635556 1e-05
-0.02052 0.00635555 1e-05
-0.02054 0.00635555 1e-05
-0.02056 0.00635555 1e-05
-0.02058 0.00635555 1e-05
-0.0206 0.00635555 1e-05
-0.0205 0.00903333 1e-05
-0.02052 0.00903333 1e-05
-0.02054 0.00903333 1e-05
-0.02056 0.00903333 1e-05
-0.02058 0.00903333 1e-05
-0.0206 0.00903333 1e-05
-0.0205 0.0117111 1e-05
-0.02052 0.0117111 1e-05
-0.02054 0.0117111 1e-05
-0.02056 0.0117111 1e-05
-0.02058 0.0117111 1e-05
-0.0206 0.0117111 1e-05
-0.0205 0.0143889 1e-05
-0.02052 0.0143889 1e-05
-0.02054 0.0143889 1e-05
-0.02056 0.0143889 1e-05
-0.02058 0.0143889 1e-05
-0.0206 0.0143889 1e-05
-0.0205 0.0170667 1e-05
-0.02052 0.0170667 1e-05
-0.02054 0.0170667 1e-05
-0.02056 0.0170667 1e-05
-0.02058 0.0170667 1e-05
-0.0206 0.0170667 1e-05
-0.0205 0.0197444 1e-05
-0.02052 0.0197444 1e-05
-0.02054 0.0197444 1e-05
-0.02056 0.0197444 1e-05
-0.02058 0.0197444 1e-05
-0.0206 0.0197444 1e-05
-0.0205 0.0224222 1e-05
-0.02052 0.0224222 1e-05
-0.02054 0.0224222 1e-05
-0.02056 0.0224222 1e-05
-0.02058 0.0224222 1e-05
-0.0206 0.0224222 1e-05
-0.0205 0.0251 1e-05
-0.02052 0.0250998 1e-05
-0.02054 0.0250997 1e-05
-0.02056 0.0250995 1e-05
-0.02058 0.0250995 1e-05
-0.0206 0.0250994 1e-05
-0.0205 0.001 1e-05
-0.0202034 0.00100022 1e-05
-0.0199069 0.00100067 1e-05
-0.0196103 0.00100133 1e-05
-0.0193137 0.00100219 1e-05
-0.0190172 0.00100326 1e-05
-0.0187132 0.00100467 1e-05
-0.0184093 0.00100589 1e-05
-0.0181054 0.00100711 1e-05
-0.0178015 0.00100834 1e-05
-0.0174976 0.00100955 1e-05
-0.0172058 0.00101085 1e-05
-0.016914 0.00101196 1e-05
-0.0166222 0.00101307 1e-05
-0.0163305 0.00101417 1e-05
-0.0160387 0.00101527 1e-05
-0.0157586 0.00101642 1e-05
-0.0154784 0.00101751 1e-05
-0.0151983 0.00101863 1e-05
-0.0149182 0.0010198 1e-05
-0.0146381 0.001021 1e-05
-0.0143808 0.00102216 1e-05
-0.0141235 0.00102333 1e-05
-0.0138662 0.00102453 1e-05
-0.0136089 0.00102575 1e-05
-0.0133916 0.00102682 1e-05
-0.013372 0.00102692 1e-05
-0.0133524 0.00102701 1e-05
-0.0133327 0.00102711 1e-05
-0.0133131 0.00102721 1e-05
-0.0132934 0.00102731 1e-05
-0.0130353 0.00102861 1e-05
-0.0127771 0.00102993 1e-05
-0.0125189 0.00103126 1e-05
-0.0122607 0.00103262 1e-05
-0.0120025 0.00103398 1e-05
-0.0117547 0.00103531 1e-05
-0.0115068 0.00103664 1e-05
-0.0112589 0.00103798 1e-05
-0.0110111 0.00103933 1e-05
-0.0107632 0.00104068 1e-05
-0.0105252 0.00104198 1e-05
-0.0102873 0.00104328 1e-05
-0.0100493 0.00104458 1e-05
-0.00981133 0.00104589 1e-05
-0.00957337 0.00104719 1e-05
-0.00934491 0.00104844 1e-05
-0.00911645 0.00104969 1e-05
-0.00888799 0.00105094 1e-05
-0.00865954 0.00105219 1e-05
-0.00843108 0.00105344 1e-05
-0.00821175 0.00105463 1e-05
-0.00799242 0.00105582 1e-05
-0.00777309 0.00105701 1e-05
-0.00755376 0.0010582 1e-05
-0.00733443 0.00105939 1e-05
-0.00712387 0.00106052 1e-05
-0.0069133 0.00106165 1e-05
-0.00670273 0.00106278 1e-05
-0.00649217 0.00106392 1e-05
-0.0062816 0.00106505 1e-05
-0.00607944 0.00106612 1e-05
-0.00587729 0.0010672 1e-05
-0.00567514 0.00106828 1e-05
-0.00547298 0.00106936 1e-05
-0.00527083 0.00107044 1e-05
-0.00507675 0.00107147 1e-05
-0.00488267 0.00107251 1e-05
-0.0046886 0.00107354 1e-05
-0.00449452 0.00107458 1e-05
-0.00430044 0.00107562 1e-05
-0.00411412 0.00107661 1e-05
-0.0039278 0.00107761 1e-05
-0.00374147 0.00107862 1e-05
-0.00355515 0.00107962 1e-05
-0.00336883 0.00108063 1e-05
-0.00318995 0.0010816 1e-05
-0.00301107 0.00108258 1e-05
-0.00283219 0.00108357 1e-05
-0.00265331 0.00108457 1e-05
-0.00247443 0.00108558 1e-05
-0.0023027 0.00108655 1e-05
-0.00213097 0.00108754 1e-05
-0.00195924 0.00108854 1e-05
-0.00178751 0.00108957 1e-05
-0.00161577 0.0010906 1e-05
-0.0014509 0.0010916 1e-05
-0.00128603 0.00109263 1e-05
-0.00112116 0.00109369 1e-05
-0.00095629 0.00109478 1e-05
-0.000791418 0.00109591 1e-05
-0.000633135 0.00109702 1e-05
-0.000474851 0.00109817 1e-05
-0.000316568 0.00109936 1e-05
-0.000158286 0.00110059 1e-05
0 0.00110186 1e-05
0.000105677 0.00110273 1e-05
0.000211355 0.00110362 1e-05
0.000317032 0.00110451 1e-05
0.000422709 0.00110542 1e-05
0.000528387 0.00110633 1e-05
0.000634886 0.00110726 1e-05
0.000741385 0.00110818 1e-05
0.000847885 0.00110909 1e-05
0.000954384 0.00111 1e-05
0.00106088 0.0011109 1e-05
0.00116821 0.0011118 1e-05
0.00127554 0.00111269 1e-05
0.00138286 0.00111357 1e-05
0.00149019 0.00111443 1e-05
0.00159752 0.00111527 1e-05
0.00170568 0.00111611 1e-05
0.00181384 0.00111694 1e-05
0.001922 0.00111775 1e-05
0.00203016 0.00111854 1e-05
0.00213833 0.00111932 1e-05
0.00224733 0.00112008 1e-05
0.00235633 0.00112084 1e-05
0.00246533 0.00112158 1e-05
0.00257434 0.00112231 1e-05
0.00268334 0.00112303 1e-05
0.00279319 0.00112373 1e-05
0.00290304 0.00112442 1e-05
0.00301289 0.0011251 1e-05
0.00312274 0.00112577 1e-05
0.00323259 0.00112643 1e-05
0.00334329 0.00112707 1e-05
0.003454 0.0011277 1e-05
0.0035647 0.00112833 1e-05
0.0036754 0.00112894 1e-05
0.00378611 0.00112954 1e-05
0.00389767 0.00113013 1e-05
0.00400924 0.00113071 1e-05
0.0041208 0.00113129 1e-05
0.00423237 0.00113185 1e-05
0.00434393 0.0011324 1e-05
0.00445636 0.00113294 1e-05
0.00456879 0.00113348 1e-05
0.00468123 0.00113401 1e-05
0.00479366 0.00113452 1e-05
0.00490609 0.00113503 1e-05
0.0050194 0.00113553 1e-05
0.0051327 0.00113602 1e-05
0.00524601 0.00113651 1e-05
0.00535932 0.00113699 1e-05
0.00547262 0.00113746 1e-05
0.00558681 0.00113791 1e-05
0.005701 0.00113837 1e-05
0.00581518 0.00113882 1e-05
0.00592937 0.00113927 1e-05
0.00604356 0.0011397 1e-05
0.00615863 0.00114012 1e-05
0.00627371 0.00114055 1e-05
0.00638878 0.00114097 1e-05
0.00650386 0.00114139 1e-05
0.00661893 0.00114179 1e-05
0.0067349 0.00114219 1e-05
0.00685087 0.00114259 1e-05
0.00696684 0.00114298 1e-05
0.00708281 0.00114337 1e-05
0.00719878 0.00114376 1e-05
0.00731565 0.00114413 1e-05
0.00743252 0.00114451 1e-05
0.00754939 0.00114488 1e-05
0.00766626 0.00114525 1e-05
0.00778313 0.00114562 1e-05
0.00790091 0.00114597 1e-05
0.00801869 0.00114633 1e-05
0.00813647 0.00114669 1e-05
0.00825425 0.00114704 1e-05
0.00837203 0.00114739 1e-05
0.00849073 0.00114774 1e-05
0.00860942 0.00114808 1e-05
0.00872812 0.00114843 1e-05
0.00884682 0.00114877 1e-05
0.00896551 0.00114911 1e-05
0.00908513 0.00114944 1e-05
0.00920475 0.00114978 1e-05
0.00932437 0.00115012 1e-05
0.00944398 0.00115045 1e-05
0.0095636 0.00115078 1e-05
0.00968415 0.00115111 1e-05
0.0098047 0.00115144 1e-05
0.00992525 0.00115177 1e-05
0.0100458 0.00115209 1e-05
0.0101663 0.00115242 1e-05
0.0102878 0.00115274 1e-05
0.0104093 0.00115306 1e-05
0.0105308 0.00115339 1e-05
0.0106523 0.00115371 1e-05
0.0107738 0.00115403 1e-05
0.0108595 0.00115425 1e-05
0.0109452 0.00115448 1e-05
0.0110308 0.0011547 1e-05
0.0111165 0.00115492 1e-05
0.0112022 0.00115515 1e-05
0.011239 0.00115524 1e-05
0.0112757 0.00115534 1e-05
0.0113124 0.00115543 1e-05
0.0113492 0.00115553 1e-05
0.0113859 0.00115562 1e-05
0.0115093 0.00115594 1e-05
0.0116327 0.00115626 1e-05
0.0117561 0.00115657 1e-05
0.0118795 0.00115689 1e-05
0.0120028 0.0011572 1e-05
0.0121272 0.00115752 1e-05
0.0122515 0.00115783 1e-05
0.0123759 0.00115814 1e-05
0.0125002 0.00115846 1e-05
0.0126245 0.00115877 1e-05
0.0127498 0.00115908 1e-05
0.0128752 0.0011594 1e-05
0.0130005 0.00115971 1e-05
0.0131258 0.00116002 1e-05
0.0132511 0.00116033 1e-05
0.0133774 0.00116064 1e-05
0.0135036 0.00116095 1e-05
0.0136299 0.00116126 1e-05
0.0137562 0.00116157 1e-05
0.0138825 0.00116188 1e-05
0.0140098 0.00116219 1e-05
0.014137 0.0011625 1e-05
0.0142643 0.00116281 1e-05
0.0143915 0.00116312 1e-05
0.0145188 0.00116343 1e-05
0.0146471 0.00116374 1e-05
0.0147753 0.00116405 1e-05
0.0149036 0.00116436 1e-05
0.0150318 0.00116466 1e-05
0.0151601 0.00116496 1e-05
0.0152893 0.00116528 1e-05
0.0154186 0.00116558 1e-05
0.0155478 0.00116589 1e-05
0.0156771 0.00116619 1e-05
0.0158063 0.00116649 1e-05
0.0159366 0.0011668 1e-05
0.0160668 0.00116711 1e-05
0.0161971 0.00116741 1e-05
0.0163274 0.00116771 1e-05
0.0164576 0.001168 1e-05
0.0165889 0.00116831 1e-05
0.0167201 0.00116861 1e-05
0.0168514 0.00116891 1e-05
0.0169827 0.0011692 1e-05
0.0171139 0.00116949 1e-05
0.0172462 0.0011698 1e-05
0.0173785 0.0011701 1e-05
0.0175108 0.00117039 1e-05
0.0176431 0.00117068 1e-05
0.0177754 0.00117097 1e-05
0.0179087 0.00117127 1e-05
0.018042 0.00117156 1e-05
0.0181753 0.00117185 1e-05
0.0183087 0.00117213 1e-05
0.018442 0.00117241 1e-05
0.0185763 0.00117272 1e-05
0.0187107 0.001173 1e-05
0.018845 0.00117328 1e-05
0.0189794 0.00117355 1e-05
0.0191137 0.00117382 1e-05
0.0192491 0.00117412 1e-05
0.0193845 0.00117439 1e-05
0.0195199 0.00117466 1e-05
0.0196553 0.00117493 1e-05
0.0197907 0.0011752 1e-05
0.0199272 0.00117549 1e-05
0.0200636 0.00117575 1e-05
0.0202001 0.00117601 1e-05
0.0203365 0.00117627 1e-05
0.020473 0.00117652 1e-05
0.0206105 0.0011768 1e-05
0.020748 0.00117705 1e-05
0.0208855 0.0011773 1e-05
0.021023 0.00117755 1e-05
0.0211606 0.00117779 1e-05
0.0212991 0.00117806 1e-05
0.0214377 0.0011783 1e-05
0.0215763 0.00117854 1e-05
0.0217149 0.00117877 1e-05
0.0218535 0.001179 1e-05
0.0219931 0.00117926 1e-05
0.0221328 0.00117949 1e-05
0.0222724 0.00117971 1e-05
0.0224121 0.00117993 1e-05
0.0225517 0.00118015 1e-05
0.0226925 0.00118039 1e-05
0.0228332 0.0011806 1e-05
0.022974 0.00118081 1e-05
0.0231147 0.00118102 1e-05
0.0232555 0.00118122 1e-05
0.0233973 0.00118145 1e-05
0.0235391 0.00118165 1e-05
0.023681 0.00118183 1e-05
0.0238228 0.00118202 1e-05
0.0239647 0.0011822 1e-05
0.0241076 0.00118241 1e-05
0.0242505 0.00118259 1e-05
0.0243935 0.00118276 1e-05
0.0245364 0.00118293 1e-05
0.0246794 0.00118309 1e-05
0.0248234 0.00118328 1e-05
0.0249675 0.00118345 1e-05
0.0251115 0.0011836 1e-05
0.0252556 0.00118374 1e-05
[...]
POINT_DATA 12075
 FIELD attributes 3
age 1 12075 float
0 -2e-05 -4e-05 -6e-05 -8e-05 -0.0001
0 -2e-05 -4e-05 -6e-05 -8e-05 -0.0001
0 -2e-05 -4e-05 -6e-05 -8e-05 -0.0001
0 -2e-05 -4e-05 -6e-05 -8e-05 -0.0001
0 -2e-05 -4e-05 -6e-05 -8e-05 -0.0001
0 -2e-05 -4e-05 -6e-05 -8e-05 -0.0001
0 -2e-05 -4e-05 -6e-05 -8e-05 -0.0001
0 -2e-05 -4e-05 -6e-05 -8e-05 -0.0001
0 -2e-05 -4e-05 -6e-05 -8e-05 -0.0001
0 -2.00009e-05 -4.00018e-05 -6.00027e-05 -8.00036e-05 -0.000100002
0 0.000296567 0.000593135 0.000889702 0.00118627 0.00148284 0.00178676 0.00209069 0.00239461 0.00269853 0.00300245 0.00329423 0.00358601 0.00387779 0.00416957 0.00446135 0.00474147 0.00502159 0.00530171 0.00558183 0.00586196 0.00611926 0.00637657 0.00663387 0.00689117 0.00710841 0.00712805 0.00714769 0.00716733 0.00718697 0.00720661 0.0074648 0.00772298 0.00798117 0.00823936 0.00849754 0.00874541 0.00899329 0.00924116 0.00948903 0.0097369 0.00997487 0.0102128 0.0104508 0.0106888 0.0109267 0.0111552 0.0113837 0.0116121 0.0118406 0.012069 0.0122884 0.0125077 0.012727 0.0129464 0.0131657 0.0133763 0.0135868 0.0137974 0.014008 0.0142186 0.0144207 0.0146229 0.014825 0.0150272 0.0152293 0.0154234 0.0156175 0.0158116 0.0160057 0.0161997 0.0163861 0.0165724 0.0167587 0.016945 0.0171314 0.0173103 0.0174891 0.017668 0.0178469 0.0180258 0.0181975 0.0183692 0.018541 0.0187127 0.0188845 0.0190493 0.0192142 0.0193791 0.0195439 0.0197088 0.0198671 0.0200254 0.0201837 0.020342 0.0205003 0.0206059 0.0207116 0.0208173 0.020923 0.0210287 0.0211352 0.0212417 0.0213482 0.0214547 0.0215612 0.0216685 0.0217758 0.0218832 0.0219905 0.0220978 0.022206 0.0223142 0.0224223 0.0225305 0.0226387 0.0227477 0.0228567 0.0229657 0.0230747 0.0231837 0.0232935 0.0234034 0.0235132 0.0236231 0.0237329 0.0238437 0.0239544 0.0240651 0.0241758 0.0242865 0.024398 0.0245096 0.0246212 0.0247327 0.0248443 0.0249567 0.0250692 0.0251816 0.025294 0.0254065 0.0255198 0.0256331 0.0257464 0.0258597 0.025973 0.0260872 0.0262014 0.0263156 0.0264298 0.0265439 0.026659 0.0267741 0.0268892 0.0270043 0.0271193 0.0272353 0.0273513 0.0274672 0.0275832 0.0276992 0.0278161 0.0279329 0.0280498 0.0281667 0.0282835 0.0284013 0.0285191 0.0286369 0.0287547 0.0288724 0.0289911 0.0291098 0.0292285 0.0293472 0.0294659 0.0295855 0.0297052 0.0298248 0.0299444 0.030064 0.0301846 0.0303051 0.0304257 0.0305462 0.0306668 0.0307882 0.0309097 0.0310312 0.0311527 0.0312742 0.0313599 0.0314456 0.0315313 0.0316169 0.0317027 0.0317394 0.0317761 0.0318129 0.0318496 0.0318863 0.0320097 0.0321331 0.0322565 0.0323799 0.0325033 0.0326276 0.0327519 0.0328763 0.0330006 0.033125 0.0332503 0.0333756 0.0335009 0.0336262 0.0337515 0.0338778 0.0340041 0.0341303 0.0342566 0.0343829 0.0345102 0.0346374 0.0347647 0.034892 0.0350192 0.0351475 0.0352757 0.035404 0.0355323 0.0356605 0.0357898 0.035919 0.0360483 0.0361775 0.0363068 0.036437 0.0365673 0.0366975 0.0368278 0.036958 0.0370893 0.0372206 0.0373518 0.0374831 0.0376144 0.0377467 0.037879 0.0380112 0.0381435 0.0382758 0.0384091 0.0385425 0.0386758 0.0388091 0.0389424 0.0390768 0.0392111 0.0393455 0.0394798 0.0396142 0.0397496 0.039885 0.0400204 0.0401558 0.0402912 0.0404276 0.0405641 0.0407005 0.040837 0.0409734 0.0411109 0.0412485 0.041386 0.0415235 0.041661 0.0417996 0.0419382 0.0420767 0.0422153 0.0423539 0.0424936 0.0426332 0.0427729 0.0429125 0.0430522 0.0431929 0.0433337 0.0434744 0.0436152 0.0437559 0.0438978 0.0440396 0.0441814 0.0443233 0.0444651 0.044608 0.044751 0.0448939 0.0450369 0.0451798 0.0453239 0.0454679 0.045612 0.045756 0.0459001 0.0460452 0.0461904 0.0463356 0.0464808 0.0466259 0.0467722 0.0469185 0.0470648 0.0472111 0.0473574 0.0475049 0.0476523 0.0477998 0.0479472 0.0480946 0.0482432 0.0483918 0.0485404 0.048689 0.0488376 0.0489873 0.049137 0.0492868 0.0494365 0.0495863 0.0497372 0.0498881 0.050039 0.0501899 0.0503408 0.0504929 0.0506449 0.050797 0.0509491 0.0511012 0.0512544 0.0514077 0.051561 0.0517142 0.0518675 0.0520219 0.0521764 0.0523308 0.0524853 0.0526397 0.0527954 0.052951 0.0531067 0.0532623 0.053418 0.0535749 0.0537317 0.0538886 0.0540454 0.0542023 0.0543604 0.0545185 0.0546766 0.0548346 0.0549927 0.055152 0.0553113 0.0554706 0.05563 0.0557893 0.0559498 0.0561104 0.0562709 0.0564315 0.056592 0.0567538 0.0569156 0.0570774 0.0572392 0.057401 0.0575641 0.0577271 0.0578902 0.0580532 0.0582163 0.0583806 0.0585449 0.0587093 0.0588736 0.0590379 0.0592035 0.0593691 0.0595347 0.0597003 0.0598659 0.0600328 0.0601997 0.0603666 0.0605335 0.0607004 0.0608685 0.0610367 0.0612049 0.0613731 0.0615413 0.0617108 0.0618803 0.0620498 0.0622193 0.0623888 0.0625596 0.0627304 0.0629012 0.063072 0.0632428 0.063415 0.0635871 0.0637592 0.0639314 0.0641035 0.064277 0.0644505 0.0646239 0.0647974 0.0649709 0.0651457 0.0653206 0.0654954 0.0656702 0.065845 0.0660212 0.0661974 0.0663736 0.0665498 0.066726 0.0669035 0.0670811 0.0672586 0.0674362 0.0676137 0.0677927 0.0679716 0.0681505 0.0683295 0.0685084 0.0686887 0.0688691 0.0690494 0.0692297 0.0694101 0.0695918 0.0697735 0.0699552 0.070137 0.0703187 0.0705018 0.070685 0.0708681 0.0710513 0.0712344 0.071419 0.0716036 0.0717881 0.0719727 0.0721573 0.0723433 0.0725293 0.0727153 0.0729013 0.0730873 0.0732747 0.0734622 0.0736496 0.0738371 0.0740245 0.0742134 0.0744023 0.0745912 0.0747802 0.0749691 0.0751595 0.0753498 0.0755402 0.0757306 0.075921 0.0761128 0.0763047 0.0764966 0.0766884 0.0768803 0.0770737 0.077267 0.0774604 0.0776537 0.0778471 0.0779317 0.0780162 0.0781007 0.0781853 0.07826 0.0783723 0.0784846 0.0785969 0.0787092 0.0788215 0.0790179 0.0792143 0.0794107 0.0796071 0.0798035 0.0800015 0.0801994 0.0803973 0.0805953 0.0807933 0.0809928 0.0811923 0.0813918 0.0815913 0.0817908 0.0819919 0.082193 0.082394 0.0825951 0.0827963 0.0829989 0.0832016 0.0834043 0.083607 0.0838097 0.084014 0.0842183 0.0844226 0.0846269 0.0848313 0.0850372 0.0852432 0.0854491 0.085655 0.0858611 0.0860687 0.0862763 0.0864839 0.0866916 0.0868993 0.0871086 0.087318 0.0875273 0.0877366 0.0879461 0.0881571 0.0883682 0.0885792 0.0887903 0.0890016 0.0891603 0.089319 0.0894778 0.0896365 0.0897709 0.0898299 0.0898889 0.0899479 0.090007 0.090066 0.0902806 0.0904953 0.0907099 0.0909245 0.0911395 0.091356 0.0915725 0.091789 0.0920055 0.0922224 0.0924408 0.0926592 0.0928776 0.093096 0.0933149 0.0935352 0.0937556 0.0939759 0.0941963 0.0944173 0.0945837 0.0947501 0.0949164 0.0950828 0.0952275 0.095288 0.0953485 0.0954089 0.0954694 0.09553 0.0957544 0.0959789 0.0962034 0.0964278 0.0966531 0.0968798 0.0971064 0.097333 0.0975597 0.0977873 0.0980161 0.098245 0.0984739 0.0987028 0.0989327 0.0989359 0.0989392 0.0989424 0.0989456 0.0989488 0.0991768 0.0994048 0.0996328 0.0998608 0.10009 0.100324 0.100557 0.100791 0.101024 0.101259 0.101437 0.101614 0.101791 0.101968 0.102127 0.10219 0.102253 0.102316 0.102379 0.102442 0.10268 0.102919 0.103158 0.103396 0.103637 0.103878 0.10412 0.104361 0.104602 0.104846 0.104873 0.104901 0.104929 0.104957 0.104985 0.105201 0.105418 0.105634 0.105851 0.106069 0.106316 0.106563 0.10681 0.107057 0.107306 0.107373 0.10744 0.107507 0.107574 0.107639 0.107823 0.108007 0.10819 0.108374 0.108559 0.108812 0.109066 0.109319 0.109572 0.109827 0.109895 0.109963 0.11003 0.110098 0.110164 0.110353 0.110543 0.110732 0.110921 0.111112 0.111372 0.111631 0.111891 0.11215 0.112413 0.112452 0.112492 0.112531 0.112571 0.11261 0.112834 0.113057 0.113281 0.113505 0.11373 0.113991 0.114252 0.114512 0.114773 0.115015 0.115025 0.115035 0.115045 0.115055 0.115065 0.115335 0.115604 0.115874 0.116144 0.116416 0.116616 0.116817 0.117017 0.117217 0.117408 0.117483 0.117559 0.117634 0.11771 0.117785 0.118062 0.118338 0.118615 0.118892 0.119171 0.119301 0.11943 0.11956 0.11969 0.119817 0.119968 0.120119 0.12027 0.120421 0.120573 0.120857 0.12114 0.121423 0.121706 0.121992 0.122047 0.122103 0.122159 0.122214 0.122269 0.122501 0.122732 0.122963 0.123194 0.123426 0.123701 0.123976 0.124252 0.124527 0.124796 0.124812 0.124827 0.124843 0.124859 0.124875 0.125167 0.125459 0.125752 0.126044 0.126337 0.126556 0.126775 0.126994 0.127213 0.127431 0.127507 0.127583 0.127659 0.127735 0.127811 0.128108 0.128405 0.128702 0.128999 0.129296 0.129431 0.129567 0.129702 0.129838 0.129974 0.130137 0.130301 0.130464 0.130627 0.13079 0.131091 0.131391 0.131692 0.131993 0.132292 0.132344 0.132396 0.132448 0.132499 0.132552 0.132802 0.133051 0.133301 0.133551 0.133799 0.134079 0.134359 0.134639 0.134918 0.135211 0.135231 0.135252 0.135272 0.135292 0.135312 0.135616 0.135919 0.136223 0.136527 0.136828 0.137063 0.137297 0.137532 0.137767 0.138016 0.138082 0.138148 0.138214 0.13828 0.138346 0.138651 0.138956 0.13926 0.139565 0.139866 0.140101 0.140335 0.14057 0.140804 0.141058 0.141124 0.14119 0.141256 0.141322 0.141388 0.141693 0.141999 0.142304 0.14261 0.142911 0.143217 0.143522 0.143828 0.144134 0.144436 0.144445 0.144455 0.144464 0.144473 0.144482 0.144779 0.145076 0.145373 0.14567 0.145964 0.14627 0.146577 0.146884 0.147191 0.147494 0.147701 0.147907 0.148114 0.148321 0.14855 0.148646 0.148742 0.148837 0.148933 0.149029 0.149337 0.149645 0.149954 0.150262 0.150568 0.150878 0.151187 0.151497 0.151806 0.152114 0.152424 0.152735 0.153046 0.153357 0.153666 0.153689 0.153713 0.153736 0.15376 0.153784 0.154072 0.154361 0.15465 0.154938 0.155226 0.15554 0.155854 0.156168 0.156481 0.156794 0.15711 0.157425 0.157741 0.158057 0.158371 0.158689 0.159007 0.159324 0.159642 0.159959 0.160238 0.160518 0.160798 0.161078 0.161407 0.161437 0.161466 0.161496 0.161526 0.161556 0.161878 0.162199 0.162521 0.162843 0.163164 0.163488 0.163812 0.164135 0.164459 0.164783 0.165109 0.165435 0.165761 0.166087 0.166413 0.166742 0.16707 0.167399 0.167727 0.168055 0.168386 0.168717 0.169048 0.169379 0.169709 0.170042 0.170376 0.170709 0.171042 0.171375 0.171711 0.172047 0.172382 0.172718 0.173054 0.173392 0.17373 0.174069 0.174407 0.174745 0.174859 0.174974 0.175088 0.175203 0.175324 0.175549 0.175774 0.175999 0.176224 0.176449 0.176792 0.177135 0.177479 0.177822 0.178165 0.178511 0.178857 0.179203 0.179549 0.179895 0.180244 0.180593 0.180941 0.18129 0.181638 0.18199 0.182341 0.182692 0.183043 0.183395 0.183749 0.184103 0.184457 0.184811 0.185165 0.185521 0.185878 0.186235 0.186591 0.186948 0.187307 0.187667 0.188026 0.188386 0.188745 0.189107 0.18947 0.189832 0.190194 0.190556 0.190921 0.191286 0.191651 0.192016 0.192381 0.192749 0.193117 0.193485 0.193853 0.194221 0.194591 0.194962 0.195333 0.195703 0.196074 0.196448 0.196821 0.197195 0.197568 0.197942 0.198318 0.198695 0.199071 0.199448 0.199824 0.200203 0.200583 0.200962 0.201342 0.201721 0.202103 0.202486 0.202868 0.20325 0.203632 0.204018 0.204403 0.204788 0.205174 0.205559 0.205947 0.206335 0.206724 0.207112 0.2075 0.207891 0.208283 0.208674 0.209065 0.209457 0.209851 0.210245 0.21064 0.211034 0.211428 0.211825 0.212223 0.21262 0.213018 0.213415 0.213815 0.214216 0.214616 0.215017 0.215417 0.215504 0.215592 0.215679 0.215766 0.215858 0.216173 0.216489 0.216804 0.21712 0.217435 0.217842 0.218248 0.218655 0.219062 0.219468 0.219878 0.220288 0.220698 0.221108 0.221518 0.221931 0.222344 0.222757 0.22317 0.223583 0.223999 0.224415 0.224831 0.225248 0.225664 0.226083 0.226503 0.226922 0.227342 0.227761 0.228184 0.228607 0.229029 0.229452 0.229737 0.229764 0.229792 0.22982 0.229847 0.229875 0.229888 0.2299 0.229913 0.229925 0.229938 0.230335 0.230732 0.231129 0.231525 0.231923 0.232348 0.232774 0.2332 0.233625 0.234051 0.234494 0.234936 0.235378 0.235821 0.236263 0.236723 0.237183 0.237643 0.238102 0.238562 0.23904 0.239518 0.239996 0.240473 0.240951 0.241448 0.241944 0.242441 0.242937 0.243434 0.24395 0.244466 0.244982 0.245497 0.246014 0.24655 0.247086 0.247622 0.248158 0.248694 0.249251 0.249808 0.250365 0.250922 0.251479 0.252058 0.252637 0.253216 0.253794 0.254373 0.254975 0.255576 0.256177 0.256779 0.25738 0.258005 0.25863 0.259255 0.25988 0.260505 0.261154 0.261803 0.262452 0.263101 0.263751 0.264425 0.2651 0.265775 0.266449 0.267124 0.267471 0.267817 0.268164 0.268511 0.268899 0.269245 0.269591 0.269937 0.270283 0.270629 0.271357 0.272085 0.272813 0.273541 0.27427 0.275027 0.275783 0.27654 0.277297 0.278053 0.27884 0.279626 0.280412 0.281198 0.281984 0.282801 0.283618 0.284435 0.285252 0.286069 0.286917 0.287766 0.288615 0.289463 0.290312 0.291194 0.292076 0.292957 0.293839 0.294721 0.295637 0.296553 0.297469 0.298385 0.299301 0.300253 0.301205 0.302156 0.303108 0.30406 0.305049 0.306038 0.307027 0.308015 0.309005 0.310032 0.311059 0.312086 0.313114 0.31414