/*--------------------------------*- C++ -*----------------------------------*\
  =========                 |
  \\      /  F ield         | OpenFOAM: The Open Source CFD Toolbox
   \\    /   O peration     | Website:  https://openfoam.org
    \\  /    A nd           | Version:  9
     \\/     M anipulation  |
\*---------------------------------------------------------------------------*/
FoamFile
{
    format      ascii;
    class       volVectorField;
    location    "1.63";
    object      U;
}
// * * * * * * * * * * * * * * * * * * * * * * * * * * * * * * * * * * * * * //

dimensions      [0 1 -1 0 0 0 0];

internalField   nonuniform List<vector> 
2268
(
(-0.0137093 0.00450338 0)
(-0.0147279 -0.00136712 0)
(-0.00413252 -0.00427838 0)
(0.00763374 -0.00438739 0)
(0.019433 -0.00403794 0)
(0.0299324 -0.00355578 0)
(0.0392288 -0.00313685 0)
(0.0475697 -0.00280378 0)
(0.0550794 -0.00245529 0)
(0.0616047 -0.00202377 0)
(0.0669961 -0.00159314 0)
(0.0714078 -0.00126468 0)
(0.0751477 -0.00103856 0)
(0.0783134 -0.000795476 0)
(0.0805236 -0.000301338 0)
(0.0806316 0.000694859 0)
(0.0773287 0.00224835 0)
(0.066238 0.0064067 0)
(0.0435906 0.0105045 0)
(0.00941975 0.012473 0)
(-0.0256083 0.0106198 0)
(-0.0557422 0.00119542 0)
(-0.0335793 -0.0164638 0)
(-0.00729302 0.00903071 0)
(-0.00288819 -0.00327418 0)
(0.00532682 -0.00767213 0)
(0.0140477 -0.00821206 0)
(0.0227398 -0.0076629 0)
(0.0307347 -0.00685568 0)
(0.0380278 -0.00613367 0)
(0.0447573 -0.00554504 0)
(0.0510153 -0.00494635 0)
(0.0567225 -0.00424436 0)
(0.0618177 -0.00356678 0)
(0.0664194 -0.00305252 0)
(0.0706663 -0.00265432 0)
(0.0744682 -0.00211201 0)
(0.0773451 -0.00101071 0)
(0.0783981 0.00109127 0)
(0.0763528 0.00467874 0)
(0.069566 0.0114462 0)
(0.0557241 0.0192256 0)
(0.0335468 0.0239533 0)
(0.00791807 0.0216624 0)
(-0.0196371 0.00655206 0)
(-0.0154111 -0.0307474 0)
(0.000117273 0.0090555 0)
(0.00440119 -0.00605365 0)
(0.0110104 -0.0109911 0)
(0.0177576 -0.0116246 0)
(0.0245095 -0.0109157 0)
(0.0308977 -0.00989004 0)
(0.0368891 -0.00896317 0)
(0.0425775 -0.00821231 0)
(0.048047 -0.00746012 0)
(0.0532395 -0.00658656 0)
(0.0581111 -0.00575254 0)
(0.0627487 -0.00511725 0)
(0.0672082 -0.00457658 0)
(0.0713167 -0.00374174 0)
(0.0745765 -0.00205002 0)
(0.0761593 0.00109884 0)
(0.074954 0.0063527 0)
(0.0703584 0.014938 0)
(0.0618562 0.0252128 0)
(0.0485581 0.0323408 0)
(0.0311479 0.0314077 0)
(0.00766304 0.0141878 0)
(0.00182488 -0.0325797 0)
(0.00483465 0.00657579 0)
(0.0093721 -0.00865086 0)
(0.014942 -0.013767 0)
(0.0203679 -0.0144565 0)
(0.0257596 -0.0136644 0)
(0.0309666 -0.012509 0)
(0.0359682 -0.011464 0)
(0.0408607 -0.0106382 0)
(0.0457419 -0.00982053 0)
(0.0505503 -0.00885939 0)
(0.0552313 -0.00794738 0)
(0.0598569 -0.00725735 0)
(0.0644497 -0.00662241 0)
(0.0688067 -0.00553237 0)
(0.0724497 -0.00329446 0)
(0.0746705 0.000794975 0)
(0.0746336 0.00740952 0)
(0.0721594 0.0173209 0)
(0.0675401 0.0290421 0)
(0.0600843 0.0380265 0)
(0.0484778 0.0391628 0)
(0.0296794 0.0225376 0)
(0.0172453 -0.0259549 0)
(0.00726362 0.00256942 0)
(0.0125859 -0.011322 0)
(0.0176715 -0.0161409 0)
(0.0222823 -0.0167921 0)
(0.0267268 -0.0159447 0)
(0.0310434 -0.0147207 0)
(0.0352555 -0.013629 0)
(0.039499 -0.0128115 0)
(0.0439074 -0.0120146 0)
(0.0484019 -0.0110423 0)
(0.0529028 -0.0101235 0)
(0.0574855 -0.00944646 0)
(0.0621756 -0.00877927 0)
(0.066774 -0.00749878 0)
(0.0708429 -0.00480971 0)
(0.0738024 3.96542e-05 0)
(0.0750875 0.0076535 0)
(0.0747515 0.0184375 0)
(0.0732817 0.0309769 0)
(0.0701399 0.0414164 0)
(0.0631256 0.0449476 0)
(0.0490652 0.0316276 0)
(0.0312152 -0.0123931 0)
(0.00830728 -0.00236918 0)
(0.0145175 -0.0141629 0)
(0.0195345 -0.0182984 0)
(0.0237171 -0.0187742 0)
(0.0275368 -0.0178475 0)
(0.0311942 -0.0165759 0)
(0.0347722 -0.0154817 0)
(0.0384738 -0.0147412 0)
(0.0424901 -0.0140388 0)
(0.046715 -0.0131141 0)
(0.0510342 -0.0122438 0)
(0.0555445 -0.0116425 0)
(0.0603032 -0.0110137 0)
(0.0651365 -0.00962781 0)
(0.0696583 -0.00661172 0)
(0.0734097 -0.00121157 0)
(0.0760529 0.0070578 0)
(0.0777997 0.0183249 0)
(0.079165 0.0312892 0)
(0.0797448 0.0428065 0)
(0.0769174 0.0488081 0)
(0.0681035 0.0413122 0)
(0.0454609 0.00911914 0)
(0.00863706 -0.00776274 0)
(0.0156339 -0.0172276 0)
(0.0208173 -0.0204067 0)
(0.024844 -0.0205576 0)
(0.0282883 -0.0194911 0)
(0.0314756 -0.0181564 0)
(0.0345474 -0.0170741 0)
(0.0377915 -0.0164617 0)
(0.0414767 -0.0159135 0)
(0.0454615 -0.0150746 0)
(0.049589 -0.0142904 0)
(0.0539943 -0.0138213 0)
(0.0587874 -0.0133065 0)
(0.0638343 -0.0119117 0)
(0.0688057 -0.00870379 0)
(0.073353 -0.00296076 0)
(0.0773281 0.00565767 0)
(0.0810787 0.0170699 0)
(0.0851486 0.0301137 0)
(0.0893148 0.0422807 0)
(0.0909805 0.0504999 0)
(0.0889649 0.0509319 0)
(0.0631501 0.0399454 0)
(0.0086484 -0.0133608 0)
(0.0163026 -0.0205799 0)
(0.0217438 -0.0225992 0)
(0.0257896 -0.022276 0)
(0.0290487 -0.0209889 0)
(0.0319222 -0.019545 0)
(0.0345961 -0.0184547 0)
(0.0374527 -0.0180093 0)
(0.0408554 -0.0176709 0)
(0.044621 -0.016938 0)
(0.0485439 -0.0162654 0)
(0.0528108 -0.0159849 0)
(0.0575983 -0.0156651 0)
(0.0628194 -0.0143659 0)
(0.0682052 -0.0111103 0)
(0.0735113 -0.00523109 0)
(0.0787544 0.00345485 0)
(0.0844227 0.0146883 0)
(0.0911371 0.0274147 0)
(0.0989471 0.0396137 0)
(0.105962 0.0490753 0)
(0.110908 0.0566264 0)
(0.101661 0.0949777 0)
(-0.0906387 0.0224489 0)
(-0.093504 -0.01212 0)
(-0.000810302 -0.036788 0)
(0.119222 -0.0402038 0)
(0.231625 -0.0331977 0)
(0.316373 -0.0201797 0)
(0.356038 -0.0037444 0)
(0.343111 0.00541522 0)
(0.314124 0.00607868 0)
(0.287565 0.00994336 0)
(0.241522 0.0194098 0)
(0.157423 0.0231731 0)
(0.0705368 0.0194816 0)
(0.00931165 0.0171328 0)
(-0.0449637 0.0144691 0)
(-0.0956381 0.0105157 0)
(-0.128883 0.000221236 0)
(-0.105278 -0.0175011 0)
(-0.0413478 -0.0208127 0)
(-0.0751518 0.0527273 0)
(-0.0294099 -0.027535 0)
(0.0570106 -0.069696 0)
(0.16131 -0.0765567 0)
(0.254257 -0.0632781 0)
(0.321369 -0.0378353 0)
(0.349645 -0.00575707 0)
(0.339958 0.0130123 0)
(0.313391 0.0159384 0)
(0.289782 0.0235443 0)
(0.255392 0.0424569 0)
(0.184844 0.0536374 0)
(0.100903 0.0477042 0)
(0.0377665 0.0399559 0)
(-0.00969154 0.0318348 0)
(-0.0498421 0.0253327 0)
(-0.0842588 0.0107947 0)
(-0.0864972 -0.0262187 0)
(-0.0442683 -0.047508 0)
(-0.0397094 0.0652765 0)
(0.0193197 -0.0551676 0)
(0.10326 -0.107748 0)
(0.194744 -0.113076 0)
(0.270643 -0.0911286 0)
(0.323216 -0.054068 0)
(0.342638 -0.00791561 0)
(0.327765 0.0205764 0)
(0.29907 0.025929 0)
(0.273024 0.0360164 0)
(0.238715 0.0632356 0)
(0.180066 0.0817508 0)
(0.113273 0.0740889 0)
(0.0615261 0.0612691 0)
(0.0240899 0.0469977 0)
(-0.0060132 0.0385089 0)
(-0.0391452 0.0213206 0)
(-0.0530784 -0.0307132 0)
(-0.0280778 -0.0739321 0)
(-0.00975343 0.0612691 0)
(0.0662467 -0.0852775 0)
(0.148405 -0.145691 0)
(0.225442 -0.146961 0)
(0.285177 -0.115609 0)
(0.326128 -0.0668804 0)
(0.337788 -0.00691257 0)
(0.317332 0.0307354 0)
(0.28503 0.0376676 0)
(0.257544 0.0488966 0)
(0.224805 0.0815161 0)
(0.175228 0.105002 0)
(0.12288 0.0955759 0)
(0.0819136 0.0788748 0)
(0.0517617 0.059374 0)
(0.0281275 0.0495648 0)
(0.00281016 0.0315551 0)
(-0.0130014 -0.0294101 0)
(-0.00200874 -0.0857568 0)
(0.0159467 0.0413898 0)
(0.117229 -0.120133 0)
(0.194018 -0.178775 0)
(0.252417 -0.172837 0)
(0.295546 -0.135178 0)
(0.326731 -0.0771663 0)
(0.332768 -0.00326105 0)
(0.306785 0.0437172 0)
(0.269837 0.0510611 0)
(0.240999 0.061198 0)
(0.213648 0.0981851 0)
(0.174244 0.12433 0)
(0.13383 0.112574 0)
(0.100922 0.0930201 0)
(0.074875 0.0694223 0)
(0.0555632 0.0582144 0)
(0.0400911 0.0389374 0)
(0.0278694 -0.0255799 0)
(0.0255236 -0.0807142 0)
(0.0548375 0.011646 0)
(0.174921 -0.15867 0)
(0.237798 -0.205529 0)
(0.275539 -0.190113 0)
(0.301198 -0.147601 0)
(0.321568 -0.0839265 0)
(0.323852 0.00178221 0)
(0.294428 0.0576462 0)
(0.252521 0.0653521 0)
(0.22074 0.0730573 0)
(0.203033 0.110605 0)
(0.17922 0.139535 0)
(0.148055 0.126244 0)
(0.119779 0.105229 0)
(0.0946139 0.0784994 0)
(0.077819 0.0647346 0)
(0.0703364 0.0422324 0)
(0.0627559 -0.0195881 0)
(0.0470098 -0.0637698 0)
(0.130194 -0.0595122 0)
(0.237128 -0.19864 0)
(0.275306 -0.223055 0)
(0.292435 -0.199456 0)
(0.30128 -0.154081 0)
(0.310264 -0.0871728 0)
(0.307795 0.00740809 0)
(0.278369 0.0736334 0)
(0.23278 0.0804052 0)
(0.198377 0.0832624 0)
(0.191241 0.114167 0)
(0.187372 0.150058 0)
(0.164614 0.137127 0)
(0.138965 0.116171 0)
(0.11312 0.0879492 0)
(0.094855 0.0696039 0)
(0.0895368 0.0432129 0)
(0.0820515 -0.0113973 0)
(0.0549243 -0.0382582 0)
(0.239173 -0.170122 0)
(0.292264 -0.230929 0)
(0.301711 -0.228949 0)
(0.301031 -0.200091 0)
(0.294936 -0.154542 0)
(0.29279 -0.0868962 0)
(0.283371 0.0148773 0)
(0.254515 0.0917349 0)
(0.212218 0.0985079 0)
(0.180909 0.0913246 0)
(0.177097 0.112775 0)
(0.187507 0.151651 0)
(0.181476 0.146264 0)
(0.160223 0.126631 0)
(0.133289 0.098151 0)
(0.110356 0.0748033 0)
(0.0997566 0.0456851 0)
(0.0829848 0.000945251 0)
(0.0417234 -0.00763103 0)
(0.00861986 -0.022596 0)
(0.0169265 -0.0264623 0)
(0.0228078 -0.0263735 0)
(0.0270673 -0.0250604 0)
(0.0302789 -0.0232808 0)
(0.0328793 -0.0215555 0)
(0.0350847 -0.0203627 0)
(0.0374305 -0.0202339 0)
(0.0404542 -0.020329 0)
(0.0439053 -0.0197798 0)
(0.0475001 -0.0193248 0)
(0.0515174 -0.0194382 0)
(0.0562361 -0.0195537 0)
(0.0616402 -0.0185739 0)
(0.0675713 -0.0154904 0)
(0.0739591 -0.0097352 0)
(0.0810553 -0.00136119 0)
(0.0895677 0.00909265 0)
(0.100293 0.0205692 0)
(0.11384 0.0315507 0)
(0.130601 0.0405169 0)
(0.153276 0.0493939 0)
(0.198404 0.0730608 0)
(0.00924532 -0.0345206 0)
(0.016784 -0.0346343 0)
(0.0233353 -0.0318215 0)
(0.0281717 -0.0290036 0)
(0.0318176 -0.0263778 0)
(0.0345846 -0.0240983 0)
(0.0365569 -0.02255 0)
(0.0384288 -0.0229024 0)
(0.0410392 -0.0237533 0)
(0.0441239 -0.0234713 0)
(0.0473739 -0.0234076 0)
(0.0511525 -0.0241881 0)
(0.0556842 -0.0250357 0)
(0.0609523 -0.0247701 0)
(0.0671003 -0.0225405 0)
(0.0745058 -0.0179893 0)
(0.0837056 -0.0114971 0)
(0.0954573 -0.00388156 0)
(0.110705 0.00381046 0)
(0.130288 0.0102152 0)
(0.154733 0.0129986 0)
(0.185143 0.00886312 0)
(0.228979 -0.0086191 0)
(0.00909378 -0.043009 0)
(0.0131694 -0.0404696 0)
(0.0210734 -0.0355909 0)
(0.0272118 -0.0316517 0)
(0.0319596 -0.0284216 0)
(0.0354229 -0.0257895 0)
(0.0378058 -0.0239475 0)
(0.0395336 -0.0248089 0)
(0.041332 -0.0263256 0)
(0.043765 -0.0259103 0)
(0.047239 -0.0258636 0)
(0.0516975 -0.0271862 0)
(0.0563449 -0.0289018 0)
(0.0607568 -0.0295893 0)
(0.0658999 -0.028302 0)
(0.0734901 -0.0250581 0)
(0.0845242 -0.0207921 0)
(0.0994043 -0.01643 0)
(0.118848 -0.0128144 0)
(0.143526 -0.0112602 0)
(0.173847 -0.0140988 0)
(0.210487 -0.0244526 0)
(0.255397 -0.0467834 0)
(0.0147576 -0.0499666 0)
(-0.00137124 -0.0444233 0)
(0.0113926 -0.0391632 0)
(0.0212707 -0.0340906 0)
(0.0287784 -0.0296561 0)
(0.0339249 -0.0264949 0)
(0.0380893 -0.0238857 0)
(0.0404275 -0.0248444 0)
(0.0392082 -0.0266177 0)
(0.0390781 -0.0252936 0)
(0.0441137 -0.0252995 0)
(0.0521089 -0.0270295 0)
(0.0579586 -0.0288077 0)
(0.0593766 -0.0293494 0)
(0.0585234 -0.0290716 0)
(0.0635206 -0.0285506 0)
(0.075645 -0.027454 0)
(0.0928723 -0.0270138 0)
(0.115672 -0.0279963 0)
(0.146056 -0.0313999 0)
(0.18433 -0.0391204 0)
(0.228837 -0.0536277 0)
(0.279068 -0.0794668 0)
(-0.0134834 -0.0486769 0)
(-0.0599751 -0.0551729 0)
(-0.0590655 -0.0576315 0)
(-0.0484452 -0.0612617 0)
(-0.025175 -0.0529646 0)
(-0.00652606 -0.0432516 0)
(0.000184075 -0.0273444 0)
(-0.0523557 -0.00635495 0)
(-0.140315 -0.00484978 0)
(-0.170345 -0.0374505 0)
(-0.133195 -0.0584853 0)
(-0.0954138 -0.0605615 0)
(-0.0643854 -0.0510519 0)
(-0.0697852 -0.0244407 0)
(-0.0847637 -0.0405508 0)
(-0.0436317 -0.0646517 0)
(0.00631353 -0.067964 0)
(0.0501869 -0.0615279 0)
(0.0838571 -0.0577571 0)
(0.124006 -0.0605357 0)
(0.172934 -0.07513 0)
(0.233007 -0.0928138 0)
(0.295231 -0.118166 0)
(-0.0771945 0.0149917 0)
(-0.0994404 -0.0150584 0)
(-0.0868342 -0.0651191 0)
(-0.0651774 -0.0839843 0)
(-0.0526918 -0.0699905 0)
(-0.0474021 -0.0466848 0)
(-0.0496344 -0.00275611 0)
(-0.0755004 0.0757999 0)
(-0.125136 0.0555384 0)
(-0.128468 -0.0347664 0)
(-0.129923 -0.0760304 0)
(-0.127652 -0.0812244 0)
(-0.12552 -0.049828 0)
(-0.156715 0.0157798 0)
(-0.190424 -0.0569602 0)
(-0.178123 -0.10556 0)
(-0.171801 -0.112315 0)
(-0.171903 -0.108619 0)
(-0.172578 -0.128212 0)
(-0.138061 -0.182375 0)
(-0.069767 -0.226315 0)
(-0.00461806 -0.248581 0)
(0.0501858 -0.249091 0)
(-0.0524949 0.100402 0)
(-0.0523062 -0.00306331 0)
(-0.0527128 -0.0728467 0)
(-0.0566784 -0.0873547 0)
(-0.0690343 -0.0661936 0)
(-0.0853068 -0.0403671 0)
(-0.104147 0.0100204 0)
(-0.0997013 0.0881183 0)
(-0.0871446 0.0749074 0)
(-0.0899843 -0.0212179 0)
(-0.129167 -0.0677864 0)
(-0.147471 -0.0764492 0)
(-0.166605 -0.0372437 0)
(-0.188484 0.0331042 0)
(-0.190909 -0.0386974 0)
(-0.197348 -0.0871317 0)
(-0.21049 -0.0953928 0)
(-0.222673 -0.0900406 0)
(-0.225212 -0.105557 0)
(-0.201224 -0.160175 0)
(-0.137844 -0.224346 0)
(-0.0764738 -0.234962 0)
(-0.0391015 -0.199448 0)
(-0.0158744 0.126475 0)
(-0.0117544 0.00401408 0)
(-0.0335063 -0.0649604 0)
(-0.0614927 -0.0703577 0)
(-0.0835112 -0.0478544 0)
(-0.100993 -0.0201879 0)
(-0.11152 0.0214093 0)
(-0.100746 0.0626985 0)
(-0.0799563 0.0554594 0)
(-0.0790895 0.00964353 0)
(-0.103932 -0.0278664 0)
(-0.143755 -0.0527403 0)
(-0.181368 -0.00643192 0)
(-0.176313 0.0319401 0)
(-0.176401 -0.0272507 0)
(-0.205468 -0.0739 0)
(-0.240545 -0.0789927 0)
(-0.276296 -0.0647652 0)
(-0.304111 -0.0867371 0)
(-0.286103 -0.233092 0)
(-0.218776 -0.310493 0)
(-0.154273 -0.29955 0)
(-0.115632 -0.209643 0)
(0.0045477 0.126096 0)
(-0.000854389 0.0177552 0)
(-0.0298758 -0.0327345 0)
(-0.0601732 -0.0399193 0)
(-0.08341 -0.0277772 0)
(-0.0991721 -0.00711692 0)
(-0.105035 0.0202023 0)
(-0.0954846 0.0429932 0)
(-0.079298 0.0400072 0)
(-0.0753588 0.0171142 0)
(-0.0890095 -0.00158702 0)
(-0.114982 -0.00697128 0)
(-0.138059 0.0138336 0)
(-0.145431 0.0270087 0)
(-0.156145 -0.0013113 0)
(-0.200965 -0.029256 0)
(-0.264591 -0.0346588 0)
(-0.325843 -0.0250166 0)
(-0.322333 -0.122076 0)
(-0.283374 -0.283974 0)
(-0.24848 -0.355834 0)
(-0.216349 -0.343844 0)
(-0.174115 -0.22526 0)
(0.0107881 0.119188 0)
(-0.00051747 0.0371859 0)
(-0.0272725 -0.00194731 0)
(-0.0542393 -0.0132734 0)
(-0.0757458 -0.00920589 0)
(-0.089615 0.00300075 0)
(-0.0941574 0.0191236 0)
(-0.0882125 0.0315487 0)
(-0.0780996 0.0306878 0)
(-0.0746185 0.0197364 0)
(-0.0816772 0.0107315 0)
(-0.0964442 0.0109874 0)
(-0.110566 0.0243305 0)
(-0.119508 0.0352048 0)
(-0.136016 0.0330428 0)
(-0.172247 0.0329535 0)
(-0.218191 0.0358793 0)
(-0.253671 0.0107552 0)
(-0.259508 -0.13122 0)
(-0.247463 -0.297066 0)
(-0.246001 -0.37245 0)
(-0.234931 -0.363745 0)
(-0.207492 -0.25625 0)
(0.00979027 0.112848 0)
(-0.00273083 0.0551103 0)
(-0.0248307 0.0234194 0)
(-0.0475091 0.00967579 0)
(-0.0660949 0.00738301 0)
(-0.0782273 0.0119216 0)
(-0.0828301 0.0195401 0)
(-0.0802576 0.025439 0)
(-0.0747216 0.0252492 0)
(-0.072258 0.020826 0)
(-0.075479 0.0183896 0)
(-0.0830981 0.022346 0)
(-0.0910781 0.0338735 0)
(-0.0978396 0.0460115 0)
(-0.109158 0.0533692 0)
(-0.128296 0.059086 0)
(-0.147445 0.0567547 0)
(-0.157376 0.0199072 0)
(-0.172561 -0.097385 0)
(-0.207525 -0.296179 0)
(-0.233623 -0.374003 0)
(-0.242522 -0.369029 0)
(-0.250462 -0.268742 0)
(0.00553943 0.110654 0)
(-0.0058809 0.0702628 0)
(-0.0232988 0.0440042 0)
(-0.0415853 0.0287281 0)
(-0.0570389 0.0216536 0)
(-0.0675742 0.0200984 0)
(-0.0724429 0.0214295 0)
(-0.0722569 0.0228023 0)
(-0.0696431 0.0222239 0)
(-0.0679627 0.0208133 0)
(-0.0688389 0.0218247 0)
(-0.0717076 0.0277448 0)
(-0.0746086 0.0389409 0)
(-0.0767045 0.0518942 0)
(-0.0798428 0.0628056 0)
(-0.0841865 0.0692579 0)
(-0.0855972 0.0620776 0)
(-0.0825449 0.02104 0)
(-0.0905362 -0.0768328 0)
(-0.133411 -0.221744 0)
(-0.201945 -0.352 0)
(-0.239646 -0.364868 0)
(-0.278025 -0.272757 0)
(0.000962694 0.112924 0)
(-0.00869431 0.0830256 0)
(-0.0223296 0.0602256 0)
(-0.0367275 0.0440409 0)
(-0.0492467 0.0335923 0)
(-0.0582376 0.0275357 0)
(-0.0631223 0.0242973 0)
(-0.0643452 0.0223069 0)
(-0.063432 0.0206802 0)
(-0.0622064 0.0201118 0)
(-0.0615785 0.0223294 0)
(-0.0612326 0.0286468 0)
(-0.0600701 0.0389984 0)
(-0.0573721 0.0511295 0)
(-0.0533577 0.0616965 0)
(-0.0476074 0.0663174 0)
(-0.0387872 0.0562396 0)
(-0.0287953 0.0177237 0)
(-0.0291897 -0.0603136 0)
(-0.0564853 -0.167158 0)
(-0.110062 -0.270546 0)
(-0.194151 -0.335153 0)
(-0.218727 -0.264434 0)
(-0.00238602 0.118173 0)
(-0.0104822 0.0936756 0)
(-0.0212403 0.0728579 0)
(-0.032443 0.0561033 0)
(-0.042384 0.043358 0)
(-0.0498795 0.0341102 0)
(-0.0544654 0.0275709 0)
(-0.0563533 0.0229658 0)
(-0.056343 0.0199497 0)
(-0.0553525 0.0189666 0)
(-0.0538004 0.0209263 0)
(-0.0514093 0.0264286 0)
(-0.047436 0.0351118 0)
(-0.0412335 0.045155 0)
(-0.0325632 0.0534634 0)
(-0.0212491 0.0554445 0)
(-0.00763039 0.0439009 0)
(0.00517421 0.00986766 0)
(0.00883071 -0.0519778 0)
(-0.00742994 -0.133408 0)
(-0.046481 -0.211048 0)
(-0.106004 -0.261443 0)
(-0.152466 -0.250354 0)
(-0.0042343 0.124963 0)
(-0.0109926 0.102626 0)
(-0.0194806 0.0826737 0)
(-0.0280756 0.0654658 0)
(-0.0357957 0.0511715 0)
(-0.041864 0.0397154 0)
(-0.0459125 0.030804 0)
(-0.0479713 0.0241323 0)
(-0.0483833 0.0196223 0)
(-0.0475306 0.0175638 0)
(-0.0455119 0.0184116 0)
(-0.0420288 0.022339 0)
(-0.0365159 0.0288006 0)
(-0.028452 0.0361822 0)
(-0.0176208 0.0417212 0)
(-0.00423464 0.0413596 0)
(0.0105109 0.0295891 0)
(0.0232057 0.000618219 0)
(0.027483 -0.0480674 0)
(0.0159942 -0.110744 0)
(-0.0143192 -0.172213 0)
(-0.0602273 -0.214667 0)
(-0.104182 -0.218519 0)
(-0.00482004 0.132195 0)
(-0.0101662 0.110038 0)
(-0.0166858 0.0901905 0)
(-0.0230674 0.0725685 0)
(-0.0288538 0.0572434 0)
(-0.0335757 0.0443014 0)
(-0.0369458 0.0337126 0)
(-0.038879 0.0254256 0)
(-0.0394441 0.019487 0)
(-0.0387123 0.0160871 0)
(-0.0365891 0.0154235 0)
(-0.0327592 0.017429 0)
(-0.0267745 0.0214797 0)
(-0.01826 0.02615 0)
(-0.00714956 0.0291028 0)
(0.00606408 0.0270583 0)
(0.0198671 0.0159933 0)
(0.0311112 -0.00778685 0)
(0.034915 -0.0453635 0)
(0.0261522 -0.0925607 0)
(0.0025625 -0.139366 0)
(-0.0332273 -0.173368 0)
(-0.0711147 -0.183468 0)
(-0.00433893 0.138745 0)
(-0.00799041 0.115803 0)
(-0.0126462 0.0956631 0)
(-0.0170444 0.0777069 0)
(-0.02111 0.0617469 0)
(-0.0245723 0.047866 0)
(-0.0272015 0.0361412 0)
(-0.0288477 0.0266376 0)
(-0.029424 0.0194495 0)
(-0.0288286 0.0146996 0)
(-0.0268629 0.0124426 0)
(-0.0232132 0.0124918 0)
(-0.017523 0.0142272 0)
(-0.00954633 0.0164333 0)
(0.000651545 0.0172255 0)
(0.0124508 0.0140936 0)
(0.0243481 0.00419444 0)
(0.0336788 -0.0148063 0)
(0.0367699 -0.0433137 0)
(0.030019 -0.0783027 0)
(0.0118208 -0.113172 0)
(-0.0160262 -0.139754 0)
(-0.047525 -0.151324 0)
(-0.00283374 0.143483 0)
(-0.00449124 0.119666 0)
(-0.00730488 0.099186 0)
(-0.00984914 0.081073 0)
(-0.0123571 0.0648229 0)
(-0.014651 0.0504409 0)
(-0.0165305 0.0380201 0)
(-0.0178113 0.0276626 0)
(-0.018324 0.0194695 0)
(-0.0178783 0.0135176 0)
(-0.0162288 0.00978681 0)
(-0.0130798 0.00804704 0)
(-0.00814783 0.00773515 0)
(-0.00128189 0.00785558 0)
(0.00737703 0.00694784 0)
(0.0172012 0.00316049 0)
(0.0268703 -0.00546942 0)
(0.0342554 -0.0204119 0)
(0.0366362 -0.0417558 0)
(0.0314775 -0.0673791 0)
(0.0176177 -0.0929466 0)
(-0.00381728 -0.113152 0)
(-0.0291964 -0.123697 0)
(-0.000193757 0.145657 0)
(0.000280394 0.121299 0)
(-0.00077556 0.100831 0)
(-0.00155765 0.0828164 0)
(-0.002651 0.0665959 0)
(-0.00387046 0.0520795 0)
(-0.00502212 0.0393311 0)
(-0.00590378 0.0284488 0)
(-0.00630649 0.0195224 0)
(-0.00600169 0.0125985 0)
(-0.00473238 0.00762374 0)
(-0.00222954 0.00437013 0)
(0.00173371 0.00235899 0)
(0.00724944 0.000804248 0)
(0.0141516 -0.00139104 0)
(0.0218788 -0.00555332 0)
(0.02935 -0.0130128 0)
(0.0349349 -0.0246916 0)
(0.0366594 -0.0405457 0)
(0.0327369 -0.0591198 0)
(0.0223167 -0.0775847 0)
(0.00606005 -0.0925004 0)
(-0.0138219 -0.101052 0)
(0.00296003 0.143347 0)
(0.00594162 0.12103 0)
(0.00668153 0.100709 0)
(0.00748343 0.0830682 0)
(0.00768385 0.0671808 0)
(0.00745331 0.0528443 0)
(0.00699905 0.0400792 0)
(0.00653503 0.0289648 0)
(0.00628523 0.0195755 0)
(0.00648797 0.0119402 0)
(0.00739244 0.00599755 0)
(0.00923904 0.00154578 0)
(0.0122127 -0.00180123 0)
(0.0163725 -0.00464394 0)
(0.0215637 -0.0077848 0)
(0.0273242 -0.012152 0)
(0.0328149 -0.0186315 0)
(0.0368289 -0.0277924 0)
(0.0379579 -0.0395495 0)
(0.0349508 -0.0529183 0)
(0.027184 -0.0660627 0)
(0.0150224 -0.0767607 0)
(-0.000187672 -0.0831582 0)
(0.00624764 0.136495 0)
(0.0117268 0.118416 0)
(0.0143941 0.0988246 0)
(0.0166909 0.0819316 0)
(0.0180856 0.0666752 0)
(0.018779 0.05279 0)
(0.0190047 0.0402695 0)
(0.0189843 0.0291775 0)
(0.0189436 0.019577 0)
(0.0191154 0.0114891 0)
(0.0197322 0.004859 0)
(0.0210073 -0.000477195 0)
(0.0230963 -0.00481845 0)
(0.0260442 -0.00860896 0)
(0.0297259 -0.0124201 0)
(0.0337854 -0.0168877 0)
(0.0375991 -0.0225916 0)
(0.0402995 -0.0298767 0)
(0.0409005 -0.0386516 0)
(0.0385348 -0.0482549 0)
(0.0327506 -0.0574994 0)
(0.0237357 -0.0649564 0)
(0.012308 -0.0694102 0)
(0.00897186 0.125573 0)
(0.0167748 0.113103 0)
(0.0215104 0.0951948 0)
(0.0252619 0.0794805 0)
(0.0278034 0.0651389 0)
(0.0294025 0.0519405 0)
(0.0303246 0.0398851 0)
(0.0307986 0.0290348 0)
(0.0310461 0.0194488 0)
(0.0312887 0.0111489 0)
(0.0317405 0.00409425 0)
(0.0325908 -0.00183806 0)
(0.0339752 -0.00686973 0)
(0.0359378 -0.0113187 0)
(0.0383899 -0.0155811 0)
(0.0410731 -0.0200822 0)
(0.0435424 -0.0251934 0)
(0.0451917 -0.031117 0)
(0.0453442 -0.0377674 0)
(0.0434084 -0.0447002 0)
(0.0390629 -0.0511483 0)
(0.0323982 -0.0561957 0)
(0.0239095 -0.0590537 0)
(0.0104691 0.111569 0)
(0.0203049 0.105103 0)
(0.0271344 0.0898182 0)
(0.032336 0.0757237 0)
(0.0360361 0.0625692 0)
(0.0385758 0.05027 0)
(0.0402507 0.0388732 0)
(0.0412981 0.0284567 0)
(0.0419358 0.019086 0)
(0.042374 0.0107905 0)
(0.0428105 0.00354791 0)
(0.0434159 -0.0027266 0)
(0.0443134 -0.0081878 0)
(0.045553 -0.0130546 0)
(0.0470824 -0.0175925 0)
(0.0487266 -0.0220777 0)
(0.0501811 -0.0267401 0)
(0.0510354 -0.0316909 0)
(0.0508359 -0.036853 0)
(0.0491873 -0.0419246 0)
(0.0458684 -0.0464076 0)
(0.0409206 -0.0497158 0)
(0.0346446 -0.0513441 0)
(0.0105561 0.0960281 0)
(0.0219138 0.0948207 0)
(0.0306277 0.0827382 0)
(0.0372482 0.070632 0)
(0.0421358 0.0589142 0)
(0.0456729 0.0477117 0)
(0.0481742 0.0371503 0)
(0.0498855 0.027341 0)
(0.051023 0.0183654 0)
(0.0517883 0.0102668 0)
(0.0523663 0.00304387 0)
(0.0529148 -0.00335342 0)
(0.0535504 -0.00902392 0)
(0.0543316 -0.0141095 0)
(0.0552393 -0.0187797 0)
(0.0561658 -0.0232054 0)
(0.0569134 -0.0275207 0)
(0.0572146 -0.0317777 0)
(0.0567746 -0.0359067 0)
(0.0553369 -0.0396979 0)
(0.0527556 -0.0428239 0)
(0.0490512 -0.0449082 0)
(0.0444087 -0.0456317 0)
(0.00962352 0.0805823 0)
(0.0217706 0.082998 0)
(0.0318892 0.0741487 0)
(0.0397667 0.064231 0)
(0.0457999 0.0541401 0)
(0.0503469 0.0442041 0)
(0.053718 0.0346364 0)
(0.05616 0.0255896 0)
(0.0578868 0.0171686 0)
(0.0590928 0.00943522 0)
(0.0599531 0.00241058 0)
(0.0606169 -0.00392321 0)
(0.0611978 -0.00961926 0)
(0.061763 -0.0147598 0)
(0.0623212 -0.0194437 0)
(0.0628168 -0.0237675 0)
(0.0631316 -0.0277997 0)
(0.0631001 -0.0315536 0)
(0.0625392 -0.0349641 0)
(0.0612895 -0.0378796 0)
(0.0592609 -0.0400798 0)
(0.0564677 -0.04132 0)
(0.0530271 -0.0414002 0)
(0.00832126 0.0662728 0)
(0.0204768 0.0705075 0)
(0.0313458 0.064456 0)
(0.0401416 0.0567 0)
(0.0471386 0.0483162 0)
(0.0526034 0.0397573 0)
(0.0568088 0.0313038 0)
(0.059987 0.0231456 0)
(0.0623423 0.0154116 0)
(0.0640595 0.00818372 0)
(0.0653043 0.00150557 0)
(0.0662185 -0.00461155 0)
(0.0669136 -0.0101834 0)
(0.0674641 -0.0152458 0)
(0.0679001 -0.0198454 0)
(0.0682049 -0.0240254 0)
(0.0683177 -0.0278094 0)
(0.0681447 -0.0311839 0)
(0.06758 -0.0340856 0)
(0.0665314 -0.0363992 0)
(0.0649494 -0.0379702 0)
(0.0628487 -0.0386352 0)
(0.0603072 -0.0382685 0)
(0.00711404 0.0534292 0)
(0.0186806 0.0581071 0)
(0.029657 0.0542051 0)
(0.0389221 0.0483823 0)
(0.0465725 0.041651 0)
(0.052748 0.0344922 0)
(0.057656 0.0272127 0)
(0.0614957 0.0200232 0)
(0.0644504 0.0130699 0)
(0.0666895 0.00645244 0)
(0.0683662 0.000234674 0)
(0.0696136 -0.00554704 0)
(0.0705397 -0.0108777 0)
(0.0712232 -0.0157575 0)
(0.0717095 -0.0201936 0)
(0.072009 -0.0241912 0)
(0.0721009 -0.0277419 0)
(0.0719412 -0.0308131 0)
(0.071476 -0.0333415 0)
(0.0706593 -0.0352329 0)
(0.0694699 -0.0363725 0)
(0.0679256 -0.0366462 0)
(0.0660818 -0.035972 0)
(0.00614801 0.0420032 0)
(0.0168105 0.0463136 0)
(0.027406 0.0439247 0)
(0.0367005 0.0396974 0)
(0.0446413 0.0344543 0)
(0.0512474 0.0286281 0)
(0.0566518 0.0225114 0)
(0.0610076 0.0163136 0)
(0.0644673 0.0101874 0)
(0.0671779 0.0042436 0)
(0.0692757 -0.00143807 0)
(0.0708821 -0.00680123 0)
(0.0720989 -0.0118066 0)
(0.0730052 -0.0164265 0)
(0.0736552 -0.0206393 0)
(0.0740774 -0.0244221 0)
(0.0742775 -0.0277433 0)
(0.0742444 -0.0305565 0)
(0.0739593 -0.0327965 0)
(0.0734066 -0.0343809 0)
(0.0725846 -0.0352181 0)
(0.0715145 -0.035222 0)
(0.0702385 -0.0343355 0)
(0.00539527 0.0318405 0)
(0.0150589 0.035402 0)
(0.0249719 0.0340178 0)
(0.0339466 0.0310368 0)
(0.0418411 0.0270601 0)
(0.0485869 0.0224328 0)
(0.0542501 0.0174049 0)
(0.0589359 0.0121669 0)
(0.062761 0.00686596 0)
(0.065845 0.00161654 0)
(0.0683039 -0.00349194 0)
(0.0702441 -0.00838856 0)
(0.0717583 -0.0130159 0)
(0.0729224 -0.0173256 0)
(0.0737939 -0.0212746 0)
(0.0744117 -0.0248194 0)
(0.0747982 -0.0279116 0)
(0.0749632 -0.0304941 0)
(0.0749103 -0.0324991 0)
(0.0746436 -0.03385 0)
(0.0741743 -0.0344674 0)
(0.0735263 -0.034281 0)
(0.0727341 -0.0332455 0)
(0.00479291 0.022777 0)
(0.0134753 0.0254759 0)
(0.0225489 0.0247414 0)
(0.0309651 0.0227053 0)
(0.0385478 0.0197644 0)
(0.0451786 0.0161681 0)
(0.0508741 0.0121131 0)
(0.0556969 0.0077603 0)
(0.0597289 0.00324275 0)
(0.0630614 -0.00132905 0)
(0.0657884 -0.00586192 0)
(0.0679995 -0.010276 0)
(0.0697761 -0.0145015 0)
(0.0711878 -0.0184754 0)
(0.0722914 -0.0221388 0)
(0.0731305 -0.0254336 0)
(0.0737365 -0.0282992 0)
(0.0741319 -0.0306701 0)
(0.0743338 -0.0324755 0)
(0.0743587 -0.0336407 0)
(0.0742258 -0.0340927 0)
(0.0739606 -0.0337682 0)
(0.0735932 -0.0326268 0)
(0.00429276 0.0146723 0)
(0.0120448 0.0165502 0)
(0.0202109 0.0162402 0)
(0.0279252 0.0149118 0)
(0.0350112 0.0127949 0)
(0.0413311 0.0100552 0)
(0.0468689 0.00683725 0)
(0.0516542 0.00326938 0)
(0.0557387 -0.000534821 0)
(0.0591881 -0.0044739 0)
(0.062075 -0.00845631 0)
(0.0644722 -0.0123982 0)
(0.0664486 -0.0162223 0)
(0.0680657 -0.0198557 0)
(0.0693767 -0.0232289 0)
(0.0704256 -0.0262734 0)
(0.0712481 -0.0289194 0)
(0.0718731 -0.0310955 0)
(0.0723257 -0.0327276 0)
(0.0726293 -0.0337413 0)
(0.0728079 -0.0340657 0)
(0.0728881 -0.03364 0)
(0.0728974 -0.0324237 0)
(0.00386202 0.00742331 0)
(0.0107287 0.00860716 0)
(0.0179686 0.00858546 0)
(0.0249076 0.00778356 0)
(0.0313833 0.00630815 0)
(0.0372562 0.00426077 0)
(0.042492 0.00174203 0)
(0.0470965 -0.00115152 0)
(0.0510981 -0.00432752 0)
(0.0545412 -0.00769684 0)
(0.0574795 -0.0111731 0)
(0.0599702 -0.0146726 0)
(0.0620699 -0.0181142 0)
(0.0638313 -0.0214196 0)
(0.0653019 -0.0245119 0)
(0.0665238 -0.0273156 0)
(0.067533 -0.029755 0)
(0.0683617 -0.031754 0)
(0.0690387 -0.033236 0)
(0.0695912 -0.0341256 0)
(0.0700459 -0.0343519 0)
(0.07043 -0.033854 0)
(0.0707695 -0.0325886 0)
(0.00346986 0.00096074 0)
(0.00948216 0.0016202 0)
(0.0158056 0.00180179 0)
(0.021944 0.00138607 0)
(0.0277498 0.000399556 0)
(0.033091 -0.00110038 0)
(0.0379238 -0.00304862 0)
(0.0422386 -0.00537735 0)
(0.0460473 -0.00801521 0)
(0.0493779 -0.0108867 0)
(0.0522689 -0.0139127 0)
(0.0547638 -0.0170122 0)
(0.0569075 -0.0201034 0)
(0.0587439 -0.0231048 0)
(0.0603143 -0.0259358 0)
(0.0616568 -0.0285165 0)
(0.0628064 -0.0307674 0)
(0.0637953 -0.0326093 0)
(0.0646541 -0.0339637 0)
(0.0654119 -0.0347539 0)
(0.0660968 -0.0349083 0)
(0.0667367 -0.0343639 0)
(0.067357 -0.0330739 0)
(0.00308585 -0.00474773 0)
(0.00826485 -0.00443896 0)
(0.0136985 -0.00411665 0)
(0.019042 -0.00425866 0)
(0.0241564 -0.00488149 0)
(0.0289201 -0.00595677 0)
(0.0332852 -0.00744824 0)
(0.0372334 -0.00931367 0)
(0.0407658 -0.0115013 0)
(0.0438989 -0.0139491 0)
(0.0466591 -0.0165859 0)
(0.0490784 -0.0193347 0)
(0.0511916 -0.0221148 0)
(0.0530338 -0.024844 0)
(0.05464 -0.0274399 0)
(0.0560438 -0.0298207 0)
(0.0572777 -0.0319048 0)
(0.0583731 -0.0336115 0)
(0.0593606 -0.034861 0)
(0.0602701 -0.0355759 0)
(0.0611308 -0.0356832 0)
(0.0619712 -0.0351178 0)
(0.0628174 -0.0338282 0)
(0.00268355 -0.009704 0)
(0.00704683 -0.00959802 0)
(0.0116253 -0.00919347 0)
(0.0161979 -0.00915636 0)
(0.0206253 -0.00951777 0)
(0.0247947 -0.0102697 0)
(0.0286568 -0.0114015 0)
(0.0321891 -0.0128941 0)
(0.0353867 -0.0147134 0)
(0.0382583 -0.0168092 0)
(0.0408212 -0.0191182 0)
(0.0430979 -0.0215676 0)
(0.0451142 -0.0240789 0)
(0.0468978 -0.0265709 0)
(0.0484772 -0.0289613 0)
(0.0498817 -0.0311679 0)
(0.0511406 -0.0331088 0)
(0.0522836 -0.0347029 0)
(0.0533407 -0.0358704 0)
(0.054342 -0.0365333 0)
(0.0553175 -0.0366178 0)
(0.0562967 -0.0360568 0)
(0.0573074 -0.0347945 0)
(0.00223999 -0.0139009 0)
(0.00580084 -0.0138841 0)
(0.00956498 -0.0134626 0)
(0.0134048 -0.0133308 0)
(0.0171695 -0.0135147 0)
(0.0207503 -0.0140255 0)
(0.0240972 -0.0148785 0)
(0.0271869 -0.0160766 0)
(0.0300123 -0.0176007 0)
(0.032577 -0.0194107 0)
(0.0348916 -0.0214498 0)
(0.0369711 -0.0236494 0)
(0.038834 -0.0259339 0)
(0.0405013 -0.0282241 0)
(0.0419959 -0.0304391 0)
(0.0433426 -0.0324977 0)
(0.0445676 -0.034319 0)
(0.0456984 -0.0358228 0)
(0.0467639 -0.0369298 0)
(0.0477938 -0.0375628 0)
(0.0488188 -0.0376476 0)
(0.0498699 -0.0371159 0)
(0.0509769 -0.0359084 0)
(0.00172215 -0.0173025 0)
(0.00448743 -0.0173259 0)
(0.00749637 -0.0169718 0)
(0.0106598 -0.016824 0)
(0.0138051 -0.0168973 0)
(0.0168208 -0.0172306 0)
(0.0196578 -0.0178698 0)
(0.0222954 -0.0188384 0)
(0.0247271 -0.0201304 0)
(0.0269539 -0.021713 0)
(0.0289818 -0.0235344 0)
(0.0308203 -0.0255298 0)
(0.0324821 -0.0276268 0)
(0.0339825 -0.0297486 0)
(0.0353398 -0.0318168 0)
(0.0365747 -0.0337524 0)
(0.03771 -0.0354763 0)
(0.0387708 -0.0369101 0)
(0.0397843 -0.0379762 0)
(0.0407794 -0.0385986 0)
(0.0417868 -0.0387041 0)
(0.0428388 -0.0382242 0)
(0.0439674 -0.0370977 0)
(0.00104568 -0.0197319 0)
(0.00305466 -0.019945 0)