/*--------------------------------*- C++ -*----------------------------------*\
  =========                 |
  \\      /  F ield         | OpenFOAM: The Open Source CFD Toolbox
   \\    /   O peration     | Website:  https://openfoam.org
    \\  /    A nd           | Version:  9
     \\/     M anipulation  |
\*---------------------------------------------------------------------------*/
FoamFile
{
    format      ascii;
    class       volScalarField;
    location    "2.79";
    object      nut;
}
// * * * * * * * * * * * * * * * * * * * * * * * * * * * * * * * * * * * * * //

dimensions      [0 2 -1 0 0 0 0];

internalField   nonuniform List<scalar> 
2268
(
3.29676e-05
3.90088e-05
4.70256e-05
5.22925e-05
5.61405e-05
5.90899e-05
6.14018e-05
6.32364e-05
6.47029e-05
6.58739e-05
6.67926e-05
6.74981e-05
6.80162e-05
6.83284e-05
6.84116e-05
6.81989e-05
6.73093e-05
6.55625e-05
6.32749e-05
6.03241e-05
5.5563e-05
4.66794e-05
2.91738e-05
7.71634e-05
0.000323464
0.000436772
0.000501798
0.000545357
0.000576961
0.000600847
0.00061925
0.000633468
0.000644295
0.00065226
0.000657693
0.000660915
0.000662232
0.000661118
0.000655507
0.000642203
0.000612254
0.000583191
0.00055228
0.000494847
0.000367073
9.35066e-05
9.26649e-05
0.000538747
0.000800161
0.000955106
0.00105777
0.00113083
0.00118497
0.0012259
0.00125689
0.00127998
0.0012965
0.00130745
0.00131335
0.00131439
0.00130947
0.00129543
0.0012655
0.00121157
0.00114685
0.00106118
0.000914941
0.000635777
0.000109542
0.000104065
0.000684604
0.00107585
0.00131974
0.00148376
0.00160052
0.00168654
0.001751
0.00179935
0.00183502
0.00186031
0.0018769
0.00188542
0.00188586
0.0018766
0.00185352
0.00180894
0.0017351
0.00163578
0.00149328
0.00125732
0.000836828
0.000121873
0.000113048
0.000791681
0.0012897
0.00161404
0.00183656
0.00199605
0.00211356
0.00220126
0.00226667
0.00231466
0.00234852
0.00237063
0.00238172
0.00238164
0.00236829
0.002337
0.00227991
0.00218868
0.00205861
0.00186492
0.00154807
0.00100055
0.000132859
0.000120524
0.000874159
0.00145959
0.00185484
0.00213141
0.0023315
0.00247934
0.00258954
0.00267143
0.00273129
0.00277343
0.00280091
0.00281463
0.0028143
0.00279756
0.00275943
0.00269206
0.00258614
0.00243067
0.00219477
0.00180978
0.00114799
0.000144554
0.00012704
0.000939171
0.00159682
0.00205415
0.00238007
0.00261827
0.002795
0.00292677
0.00302449
0.00309574
0.00314585
0.00317864
0.00319514
0.00319505
0.00317586
0.0031325
0.0030572
0.00293981
0.00276527
0.00249847
0.00206208
0.00129889
0.000161085
0.000133051
0.00099122
0.00170908
0.00222078
0.0025916
0.00286534
0.00306945
0.00322179
0.00333468
0.00341685
0.00347462
0.00351274
0.00353231
0.00353305
0.00351246
0.00346556
0.00338476
0.00325954
0.00307292
0.00278833
0.00232475
0.00148897
0.000194603
2.6554e-05
4.54682e-05
5.29019e-05
5.60772e-05
5.73994e-05
5.72796e-05
5.56255e-05
5.23441e-05
5.00129e-05
5.0468e-05
5.09874e-05
5.03033e-05
4.98323e-05
5.07781e-05
5.14678e-05
4.94706e-05
4.35493e-05
3.46735e-05
3.16089e-05
0.000102353
0.000356378
0.000475403
0.000526411
0.000538735
0.000532625
0.000504368
0.000460444
0.000445299
0.000465904
0.000487413
0.000473856
0.000465263
0.000476365
0.000472556
0.000446576
0.00038679
0.00028073
7.51144e-05
0.000122757
0.000604583
0.000884718
0.00100765
0.00104519
0.00103896
0.000992072
0.00092639
0.000904827
0.000934082
0.000961714
0.000948146
0.000932525
0.00093179
0.000906908
0.000837088
0.000702728
0.000482098
8.76554e-05
0.000139556
0.000799193
0.00121972
0.00141361
0.00148253
0.00148403
0.00143238
0.00136093
0.00133431
0.00135802
0.0013807
0.0013663
0.00133964
0.00131348
0.00125455
0.00113457
0.000930298
0.000614358
9.73854e-05
0.000155487
0.000973619
0.00150794
0.00176359
0.00186396
0.00187745
0.00182926
0.00175993
0.00172852
0.00174013
0.00175176
0.00173134
0.00168996
0.00163303
0.00153481
0.00136271
0.00109248
0.000698517
0.000105229
0.000173563
0.00113076
0.00176762
0.0020765
0.00220409
0.0022305
0.00218977
0.00212576
0.00208972
0.0020869
0.0020841
0.00205306
0.00199341
0.00190627
0.00176913
0.00154719
0.00121191
0.000747195
0.000109857
0.000195318
0.00129164
0.00201839
0.00236614
0.00251382
0.00255158
0.00251942
0.00246152
0.00242086
0.00240328
0.00238436
0.00233936
0.00226038
0.00214529
0.00197281
0.00170698
0.00131121
0.000767095
0.000114881
0.000229538
0.00149591
0.00227812
0.00264234
0.00280079
0.0028466
0.00282236
0.00276992
0.00272467
0.00269288
0.00265717
0.00259601
0.00249819
0.00235814
0.0021554
0.00185369
0.00140879
0.000792066
0.000121541
0.000140042
0.00105676
0.00185088
0.0024356
0.00286981
0.0031957
0.00344117
0.00362545
0.00376251
0.0038627
0.00393357
0.00398062
0.00400555
0.00400855
0.00398734
0.0039373
0.00385142
0.00371952
0.00352464
0.00323385
0.00278323
0.00206376
0.00101921
0.000148658
0.00112065
0.00198739
0.00264885
0.00315423
0.0035404
0.00383407
0.00405561
0.00422116
0.00434294
0.00442977
0.0044875
0.00451969
0.00452738
0.00450901
0.00446086
0.00437759
0.00425195
0.00407227
0.00381818
0.00345493
0.00293399
0.00224538
0.000156858
0.00117592
0.00209377
0.0028176
0.00338467
0.00382254
0.0041561
0.0044078
0.00459712
0.0047379
0.00483905
0.0049074
0.00494792
0.00496262
0.00495085
0.00490974
0.0048359
0.00472616
0.00457529
0.0043749
0.00411037
0.00375965
0.00334548
0.000167188
0.00125322
0.00218773
0.00296469
0.00359121
0.00407346
0.00443657
0.00470811
0.00491495
0.00507218
0.00518603
0.00526424
0.00531357
0.00533672
0.00533408
0.00530308
0.00524174
0.00515128
0.00503143
0.00488246
0.0047014
0.00446029
0.00420329
0.000178816
0.00131045
0.00224811
0.00309477
0.00378651
0.00429394
0.00468474
0.00496875
0.0051855
0.00535705
0.00548355
0.00557049
0.00562818
0.00565887
0.00566337
0.00564216
0.00559522
0.00552274
0.00542735
0.00531685
0.00519056
0.00501476
0.00485192
0.00019121
0.00134579
0.00236915
0.00320318
0.00389549
0.00443107
0.00485639
0.00516742
0.0054
0.0055855
0.00572694
0.00582728
0.00589445
0.00593243
0.00594443
0.0059309
0.00589378
0.00583105
0.00574634
0.00564939
0.00552384
0.00541215
0.00533066
0.00018886
0.00134789
0.00245457
0.00328362
0.00393212
0.00448807
0.00495001
0.0053009
0.00556671
0.00577506
0.00593191
0.00604489
0.00612131
0.0061656
0.00618252
0.00617568
0.00614699
0.00608627
0.00600118
0.00591058
0.00579888
0.00573371
0.00569354
0.000174414
0.00123093
0.00241997
0.00331195
0.00399333
0.00456143
0.00504409
0.00542307
0.00571832
0.00594475
0.00610971
0.00622845
0.0063071
0.0063497
0.00636652
0.00636171
0.00633601
0.00627823
0.0061963
0.00611097
0.00603456
0.005988
0.00595894
0.000165183
0.00109567
0.00236018
0.00334708
0.00410194
0.0047009
0.00518888
0.00556645
0.00586492
0.00609018
0.00624696
0.00635694
0.00643248
0.00647819
0.00649763
0.00649362
0.00646796
0.00641481
0.0063426
0.00627002
0.00621031
0.00616999
0.00613107
0.000171194
0.0011937
0.00247153
0.00348217
0.00425367
0.00486282
0.00533309
0.00569144
0.00597274
0.00618244
0.00633046
0.00643705
0.00651473
0.00656611
0.00659112
0.00659188
0.0065692
0.00652119
0.00645733
0.00639358
0.00634303
0.00630869
0.00627566
0.000185867
0.00149901
0.00273649
0.00368168
0.00441094
0.00498126
0.0054259
0.00576852
0.00603284
0.00623144
0.00637732
0.00648606
0.00656752
0.0066243
0.00665641
0.00666469
0.00664969
0.00661284
0.0065623
0.00651033
0.00646854
0.00644019
0.00641817
0.000196955
0.00162014
0.00289517
0.00382416
0.00452342
0.00506367
0.00548472
0.005811
0.00606257
0.00625491
0.00640098
0.00651289
0.00659863
0.00666134
0.00670181
0.00672064
0.00671875
0.00669883
0.00666689
0.00663153
0.00660125
0.00657985
0.00656505
0.000201798
0.00166774
0.00297141
0.00390047
0.00458499
0.00510652
0.00551075
0.00582445
0.00606864
0.00625872
0.00640691
0.00652331
0.00661491
0.00668535
0.00673624
0.00676852
0.00678339
0.00678333
0.00677234
0.0067559
0.00673937
0.00672613
0.00671636
0.00020192
0.00167631
0.00298669
0.00391679
0.00459532
0.00510748
0.00550226
0.00581019
0.00605236
0.00624397
0.00639669
0.00651963
0.00661926
0.00669961
0.00676288
0.00681042
0.00684348
0.00686378
0.00687368
0.00687619
0.00687434
0.00687056
0.00686571
0.000198926
0.00165652
0.00295519
0.00388219
0.00455849
0.00506768
0.00546054
0.0057688
0.00601372
0.00621046
0.00637038
0.00650213
0.00661199
0.00670416
0.00678121
0.00684471
0.00689578
0.00693546
0.00696468
0.00698485
0.00699743
0.00700382
0.00700464
0.000194053
0.00161364
0.00288719
0.00380638
0.00448173
0.00499258
0.00538869
0.00570183
0.00595331
0.00615827
0.0063279
0.00647061
0.00659257
0.00669801
0.00678965
0.00686909
0.00693717
0.00699449
0.00704114
0.00707724
0.00710335
0.00712
0.00712733
0.000189024
0.0015541
0.00279361
0.00370051
0.00437432
0.00488861
0.00529081
0.00561183
0.00587269
0.00608834
0.0062698
0.00642529
0.00656082
0.00668058
0.00678722
0.00688225
0.00696627
0.00703956
0.00710185
0.00715246
0.00719112
0.00721791
0.00723254
0.000183658
0.00148601
0.00268373
0.00357363
0.00424395
0.00476177
0.00517131
0.00550202
0.00577419
0.0060024
0.00619738
0.00636711
0.00651742
0.00665229
0.00677423
0.00688459
0.00698377
0.00707182
0.00714824
0.00721227
0.00726308
0.00730001
0.00732264
0.000177812
0.00141384
0.00256392
0.00343241
0.00409679
0.00461735
0.00503457
0.00537594
0.00566071
0.00590285
0.00611268
0.00629787
0.00646393
0.00661462
0.00675225
0.00687787
0.00699185
0.00709403
0.00718377
0.00726026
0.00732258
0.00736988
0.00740141
0.000171501
0.00134009
0.00243832
0.00328168
0.00393776
0.00445997
0.00488475
0.0052373
0.00553555
0.00579268
0.00601845
0.00622009
0.00640278
0.00656996
0.00672367
0.00686477
0.00699352
0.00710961
0.00721238
0.00730097
0.00737445
0.00743192
0.00747255
0.000164654
0.00126583
0.0023093
0.00312477
0.00377071
0.00429366
0.00472582
0.0050899
0.00540235
0.00567535
0.005918
0.006137
0.0063371
0.00652138
0.00669161
0.00684847
0.00699208
0.00712208
0.00723778
0.00733831
0.0074228
0.00749038
0.00754021
0.000157138
0.00119033
0.00217757
0.00296393
0.00359891
0.00412218
0.00456177
0.0049378
0.00526512
0.00555481
0.00581519
0.00605235
0.00627053
0.00647244
0.00665954
0.00683235
0.00699088
0.00713471
0.00726315
0.00737541
0.00747067
0.00754812
0.00760702
0.000149078
0.00110963
0.00204236
0.00280097
0.00342559
0.00394953
0.00439692
0.00478546
0.00512833
0.00543548
0.00571434
0.00597029
0.00620705
0.0064269
0.00663099
0.0068197
0.00699294
0.00715027
0.00729105
0.00741456
0.00752008
0.00760691
0.00767443
0.000141588
0.00101725
0.00190301
0.0026384
0.00325495
0.00378049
0.00423629
0.00463792
0.00499698
0.0053222
0.00562005
0.00589516
0.00615066
0.0063884
0.00660924
0.00681342
0.00700078
0.0071709
0.00732323
0.00745717
0.00757212
0.00766752
0.00774289
0.000134516
0.000938848
0.00177542
0.00248646
0.00309394
0.00362112
0.00408568
0.00450083
0.00487648
0.00522006
0.00553702
0.0058312
0.00610511
0.00636017
0.00659701
0.00681572
0.00701613
0.00719789
0.00736056
0.00750369
0.00762687
0.00772972
0.00781192
0.000127978
0.000878688
0.00166877
0.00235471
0.00295235
0.00348036
0.00395311
0.00438139
0.00477328
0.00513478
0.00547026
0.00578269
0.00607397
0.00634514
0.00659656
0.00682827
0.00704011
0.00723185
0.00740322
0.00755396
0.00768388
0.0077928
0.0078806
0.000122172
0.000836524
0.00158703
0.00224936
0.00283711
0.00336542
0.00384564
0.00428619
0.0046933
0.0050715
0.00542404
0.00575307
0.00605989
0.00634517
0.00660909
0.00685165
0.00707279
0.00727241
0.00745046
0.00760692
0.00774182
0.00785523
0.00794722
0.000117209
0.000809452
0.00153034
0.00217343
0.0027529
0.00328166
0.00376866
0.00422023
0.00464087
0.00503375
0.00540107
0.0057442
0.00606396
0.00636068
0.00663442
0.00688521
0.0071131
0.00731817
0.00750062
0.00766069
0.00779868
0.00791488
0.00800959
0.000113093
0.000794284
0.00149699
0.00212743
0.00270174
0.00323184
0.00372504
0.00418605
0.00461796
0.00502282
0.00540193
0.00575604
0.00608555
0.00639056
0.00667107
0.00692715
0.00715899
0.00736692
0.00755139
0.00771292
0.00785208
0.00796942
0.00806541
0.000109789
0.000788649
0.00148463
0.00210996
0.00268304
0.00321575
0.00371457
0.00418319
0.00462373
0.00503743
0.00542494
0.00578657
0.00612239
0.00643236
0.00671645
0.00697482
0.00720782
0.00741604
0.0076002
0.00776115
0.0078997
0.00801666
0.00811268
0.000107276
0.00079086
0.0014904
0.00211781
0.00269351
0.00323004
0.0037338
0.00420806
0.00465449
0.00507384
0.00546639
0.00583212
0.00617092
0.00648265
0.0067673
0.00702512
0.00725669
0.00746285
0.00764465
0.00780323
0.00793969
0.00805504
0.0081501
0.00010555
0.000799242
0.00151047
0.00214581
0.00272726
0.00326849
0.00377643
0.00425453
0.00470436
0.00512653
0.00552113
0.00588799
0.00622686
0.00653758
0.00682017
0.00707501
0.00730294
0.0075051
0.00768289
0.00783777
0.0079711
0.00808404
0.00817752
0.000104587
0.000811709
0.0015398
0.00218703
0.00277636
0.00332286
0.00383441
0.00431494
0.0047663
0.00518914
0.00558352
0.00594921
0.00628591
0.00659344
0.00687193
0.00712193
0.00734456
0.00754134
0.00771406
0.00786449
0.00799421
0.00810448
0.00819622
0.000104306
0.000825907
0.00157272
0.0022337
0.0028321
0.0033843
0.00389923
0.00438149
0.0048333
0.00525551
0.00564824
0.00601126
0.00634428
0.00664718
0.00692019
0.00716412
0.00738047
0.0075712
0.00773852
0.00788452
0.00801087
0.0081188
0.00820911
0.000104566
0.000839551
0.00160378
0.00227839
0.00288626
0.00344465
0.00396328
0.00444731
0.00489935
0.00532047
0.00571094
0.00607056
0.00639912
0.00669658
0.00696344
0.00720083
0.00741074
0.00759564
0.00775819
0.00790068
0.00802473
0.00813125
0.00822082
0.000105177
0.000850386
0.00162794
0.00231439
0.00293168
0.00349706
0.00402038
0.00450705
0.00495989
0.00538022
0.00576847
0.0061246
0.00644851
0.00674041
0.00700116
0.00723243
0.00743681
0.00761731
0.00777687
0.00791786
0.00804146
0.00814801
0.00823768
0.000105904
0.000855388
0.0016391
0.00233425
0.00296122
0.00353549
0.00406571
0.00455685
0.00501182
0.00543224
0.00581883
0.00617184
0.00649143
0.00677822
0.00703373
0.00726054
0.00746199
0.0076413
0.0078011
0.00794363
0.0080692
0.00817724
0.00826752
0.00010648
0.000849196
0.00162588
0.00232595
0.00296545
0.00355352
0.0040951
0.00459397
0.00505322
0.00547509
0.00586093
0.00621149
0.00652746
0.00681021
0.0070625
0.00728856
0.00749265
0.00767689
0.00784187
0.00798952
0.0081191
0.00822908
0.00831924
0.000107211
0.000825615
0.00156491
0.00226786
0.00293059
0.00354391
0.00410512
0.00461677
0.00508317
0.00550813
0.00589425
0.00624322
0.00655658
0.00683707
0.00708981
0.00732224
0.00753992
0.00774059
0.00791771
0.00807297
0.00820591
0.00831529
0.00840206
0.00012231
0.000854124
0.00144187
0.00213338
0.0028422
0.00350165
0.0040948
0.00462544
0.00510193
0.00553143
0.00591874
0.00626695
0.00657893
0.00685958
0.00711828
0.00736844
0.00761864
0.0078583
0.00805809
0.00821876
0.00834744
0.00844785
0.00852396
0.000218892
0.00146447
0.00149916
0.00195825
0.00270638
0.00343369
0.00406994
0.00462353
0.00511129
0.00554575
0.00593464
0.00628273
0.00659446
0.00687758
0.00714728
0.00742622
0.00773471
0.0080698
0.00830504
0.0084555
0.00855994
0.00863516
0.00868922
0.000415904
0.00327259
0.00213349
0.00193662
0.00259154
0.00337316
0.00404695
0.00461857
0.00511446
0.00555233
0.00594235
0.00629055
0.00660253
0.00688824
0.00716729
0.00747125
0.00785595
0.00849178
0.00871557
0.00880131
0.00884653
0.00887557
0.00889537
0.000221598
0.000203171
0.00020265
0.000220438
0.00172155
0.00164038
0.00163835
0.0017212
0.00309677
0.00301712
0.00300762
0.00306755
0.00406447
0.0040081
0.00398824
0.00400486
0.00476315
0.00471647
0.00468175
0.00465865
0.00526406
0.00522033
0.00517595
0.00513415
0.00564038
0.00560108
0.00555437
0.00550784
0.00590429
0.00586235
0.00581976
0.00578394
0.00608294
0.00605263
0.00602595
0.00600371
0.00624581
0.00622867
0.00621319
0.00619907
0.00640225
0.00639297
0.00638373
0.0063742
0.00655628
0.00655086
0.00654468
0.00653737
0.00671051
0.00670643
0.00670106
0.00669398
0.00686122
0.00685731
0.00685155
0.00684351
0.0070015
0.00699768
0.00699139
0.00698225
0.00712632
0.00712316
0.00711694
0.0071074
0.00723473
0.00723304
0.00722787
0.00721901
0.00732907
0.0073297
0.00732653
0.00731942
0.00741311
0.0074168
0.00741644
0.00741194
0.00749005
0.00749727
0.00750028
0.00749901
0.00756372
0.00757463
0.00758121
0.00758342
0.00763652
0.00765114
0.00766133
0.00766704
0.00770967
0.00772786
0.00774153
0.00775063
0.0077834
0.00780491
0.00782181
0.00783407
0.0078571
0.0078816
0.0079014
0.0079165
0.00792966
0.00795667
0.00797893
0.00799646
0.00799928
0.00802824
0.00805246
0.00807195
0.00806372
0.00809408
0.00811973
0.00814071
0.00812073
0.00815193
0.00817853
0.00820055
0.0081684
0.00819999
0.00822711
0.00824979
0.00820565
0.00823727
0.0082646
0.00828767
0.00823254
0.008264
0.00829135
0.00831463
0.00825062
0.00828185
0.00830917
0.00833262
0.00826303
0.0082941
0.00832144
0.00834508
0.00827456
0.0083056
0.00833303
0.00835689
0.00829147
0.00832256
0.00835006
0.00837405
0.00832123
0.00835215
0.00837945
0.00840324
0.00837187
0.00840192
0.00842827
0.00845112
0.00845121
0.00847891
0.00850294
0.0085236
0.00856548
0.0085885
0.0086082
0.00862495
0.00871758
0.00873304
0.00874609
0.00875706
0.00890544
0.00891086
0.00891539
0.00891917
0.00114841
0.00209696
0.00272513
0.00306455
0.00322429
0.00327639
0.0032615
0.00321503
0.00316223
0.00310936
0.00304704
0.00295763
0.00283007
0.00265379
0.00240928
0.00206232
0.00156408
0.00087416
0.00013156
0.00227204
0.0028969
0.00333387
0.00359466
0.00372718
0.00377189
0.00375824
0.00371207
0.00364966
0.00357541
0.00348048
0.00335529
0.00319079
0.00297367
0.00268932
0.00230972
0.00178556
0.00104927
0.000144071
0.00328852
0.00362951
0.00390135
0.00408166
0.00417623
0.00420208
0.00417992
0.00412843
0.00405493
0.00395645
0.00382928
0.00366933
0.00346553
0.00320635
0.00288125
0.0024674
0.00191616
0.00114127
0.000154999
0.00408426
0.00424329
0.00439569
0.00451168
0.00456993
0.00457259
0.00453567
0.00447265
0.00438363
0.00426083
0.004101
0.00390523
0.00365952
0.00335207
0.00297439
0.00251498
0.00193767
0.00115252
0.000158573
0.00464645
0.00471349
0.00480287
0.00487653
0.00490688
0.00488649
0.00483168
0.004751
0.00463982
0.00448851
0.00429181
0.00404246
0.00373325
0.003362
0.00292719
0.00242432
0.00182586
0.00107315
0.000156352
0.00507882
0.00508523
0.0051333
0.00517658
0.00518391
0.00514636
0.00507752
0.00498187
0.00484933
0.0046677
0.00443009
0.004128
0.00375422
0.00331039
0.00280438
0.00224617
0.00163533
0.000925972
0.000146311
0.00544678
0.00542539
0.00543262
0.00543846
0.00541996
0.0053642
0.00527826
0.00516322
0.00500523
0.0047907
0.00451534
0.00418376
0.00378083
0.00330685
0.00276481
0.00217014
0.00153377
0.000810401
0.00013844
0.00573919
0.00570911
0.00569461
0.0056726
0.0056289
0.00555136
0.00544321
0.0053031
0.00511992
0.00488527
0.00459217
0.00424856
0.00384803
0.00338131
0.00285029
0.00226389
0.00161459
0.000858639
0.000139153
0.00597561
0.00594476
0.00591733
0.00587468
0.00580763
0.00570894
0.00557899
0.00541452
0.00521069
0.00496292
0.00466634
0.00432434
0.00393354
0.00348475
0.00297693
0.0024073
0.00176076
0.000988492
0.000143139
0.00617936
0.00614711
0.00610783
0.00604841
0.0059626
0.00584581
0.0056969
0.005514
0.00529493
0.00503707
0.00473774
0.00439709
0.00400993
0.00356495
0.0030564
0.00247677
0.00181065
0.00101678
0.000143264
0.00635838
0.00632414
0.00627534
0.00620301
0.00610247
0.00597068
0.00580661
0.00560939
0.00537798
0.00511075
0.00480543
0.00445901
0.00406486
0.00361143
0.00308698
0.00248046
0.00178102
0.000971454
0.000132673
0.00652242
0.00648513
0.00642822
0.00634534
0.0062329
0.00608898
0.00591291
0.00570427
0.00546237
0.00518573
0.00487144
0.00451363
0.00410558
0.00363358
0.00308245
0.00243771
0.00169842
0.000883319
0.000121051
0.0066775
0.00663553
0.00657096
0.00647903
0.00635703
0.00620368
0.0060185
0.00580106
0.00555051
0.00526492
0.00494043
0.00456998
0.00414474
0.00365021
0.00307108
0.0023974
0.00162732
0.00080175
0.000116093
0.00682424
0.00677675
0.00670521
0.00660591
0.00647677
0.00631678
0.00612537
0.00590186
0.00564496
0.00535211
0.00501879
0.00463761
0.0041983
0.00368756
0.00309275
0.002403
0.00161281
0.00077026
0.000118389
0.00696045
0.00690831
0.0068315
0.00672718
0.00659362
0.00642986
0.00623511
0.00600834
0.00574781
0.00545056
0.00511183
0.00472446
0.00427863
0.00376259
0.00316452
0.00247031
0.00166868
0.00079772
0.000125442
0.00708454
0.00703002
0.0069506
0.00684406
0.00670894
0.00654418
0.0063488
0.00612145
0.00586011
0.00556167
0.00522148
0.00483296
0.0043871
0.00387355
0.00327976
0.00258742
0.00177862
0.000873497
0.000133597
0.00719704
0.00714302
0.00706391
0.00695798
0.00682393
0.00666064
0.00646697
0.00624137
0.00598168
0.00568477
0.00534619
0.00495983
0.00451685
0.00400839
0.00342038
0.00273188
0.00191411
0.000970179
0.000141148
0.00730019
0.00724937
0.00717321
0.00707032
0.00693952
0.00677969
0.00658957
0.00636753
0.0061113
0.00581777
0.00548255
0.00509931
0.00466075
0.00415621
0.00357005
0.00287932
0.00205382
0.00107152
0.000147739
0.00739693
0.0073514
0.00728017
0.00718215
0.00705623
0.0069013
0.00671603
0.00649873
0.00624704
0.00595779
0.00562645
0.00524724
0.00481195
0.00430861
0.00371963
0.00301962
0.00217572
0.00116468
0.000153698
0.00748933
0.0074507
0.00738596
0.00729409
0.00717413
0.00702499
0.00684533
0.0066334
0.00638661
0.00610191
0.00577474
0.00539875
0.00496482
0.00445953
0.00386333
0.00314824
0.00227783
0.00122321
0.000158647
0.00757946
0.00754837
0.00749077
0.00740576
0.0072924
0.0071496
0.00697586
0.00676942
0.00652788
0.00624775
0.00592413
0.00555002
0.00511528
0.00460513
0.00399819
0.00326437
0.00236457
0.00126713
0.000161901
0.00766889
0.00764547
0.00759516
0.00751712
0.0074104
0.00727396
0.00710636
0.00690565
0.00666915
0.00639307
0.00607203
0.00569832
0.00526081
0.00474344
0.00412335
0.00336887
0.00243943
0.00130262
0.000163696
0.00775809
0.00774212
0.0076989
0.0076277
0.00752764
0.00739757
0.00723596
0.00704068
0.00680875
0.00653602
0.00621657
0.00584195
0.00540012
0.00487393
0.00423933
0.00346354
0.00250529
0.00133268
0.000164352
0.00784674
0.00783774
0.0078013
0.00773671
0.00764307
0.00751913
0.00736322
0.00717299
0.00694515
0.00667512
0.00635644
0.00597998
0.00553286
0.00499704
0.00434752
0.00355074
0.00256502
0.00135937
0.000164838
0.00793385
0.00793121
0.00790107
0.00784269
0.00775512
0.00763702
0.00748651
0.007301
0.00707688
0.00680912
0.00649073
0.00611195
0.00565917
0.00511361
0.00444955
0.00363276
0.00262104
0.00138384
0.000165849
0.00801784
0.00802083
0.00799639
0.00794376
0.00786191
0.00774936
0.00760403
0.00742307
0.00720251
0.0069369
0.00661872
0.00623762
0.00577939
0.00522456
0.00454683
0.00371132
0.00267512
0.00140754
0.000167152
0.00809664
0.00810447
0.00808511
0.00803778
0.00796133
0.00785414
0.00771393
0.00753754
0.00732066
0.00705742
0.00673979
0.00635687
0.00589384
0.00533068
0.00464046
0.00378766
0.00272843
0.00143153
0.000168497
0.00816799
0.00817987
0.00816501
0.00812257
0.0080513
0.00794941
0.00781441
0.00764285
0.00743008
0.00716977
0.00685343
0.00646961
0.00600291
0.00543267
0.00473133
0.00386265
0.00278171
0.00145624
0.000169808
0.00822975
0.00824498
0.00823412
0.00819626
0.00813005
0.00803354
0.00790403
0.00773778
0.0075298
0.00727334
0.00695941
0.00657599
0.00610707
0.00553131
0.0048204
0.00393719
0.00283569
0.00148233
0.000170827
0.00828036
0.00829836
0.0082911
0.00825762
0.00819646
0.00810554
0.00798195
0.0078217
0.00761943
0.00736801
0.00705791
0.00667654
0.00620719
0.00562774
0.00490896
0.00401262
0.00289158
0.0015111
0.000171281
0.00831918
0.00833953
0.00833561
0.0083064
0.00825039
0.00816538
0.00804826
0.00789484
0.00769943
0.00745447
0.00714992
0.00677253
0.00630482
0.00572375
0.00499899
0.00409098
0.00295108
0.00154312
0.000171846
0.00834685
0.0083693
0.00836856
0.00834361
0.00829291
0.00821418
0.0081042
0.00795858
0.00777133
0.00753448
0.00723745
0.00686624
0.00640249
0.00582205
0.00509325
0.00417488
0.003016
0.00157781
0.000173756
0.00836545
0.00838987
0.00839223
0.00837158
0.00832639
0.00825437
0.00815227
0.00801553
0.00783792
0.00761107
0.0073238
0.00696128
0.00650406
0.00592662
0.00519564
0.00426776
0.00308901
0.00161673
0.000177127
0.00837852
0.00840483
0.00841023
0.00839389
0.00835441
0.00828957
0.00819614
0.00806949
0.00790321
0.00768855
0.00741368
0.00706283
0.00661513
0.00604326
0.00531168
0.00437443
0.00317406
0.00166333
0.000181519
0.00839092
0.00841896
0.00842723
0.00841516
0.00838153
0.00832432
0.00824039
0.00812517
0.00797215
0.00777227
0.00751305
0.00717757
0.00674317
0.00617997
0.00544927
0.00450169
0.00327615
0.00172076
0.000187014
0.00840847
0.00843781
0.00844859
0.00844056
0.00841283
0.00836364
0.00829009
0.00818775
0.00805019
0.00786815
0.0076286
0.00731334
0.00689739
0.00634726
0.00561936
0.00465914
0.00340141
0.00179145
0.000193883
0.00843741
0.00846722
0.00847981
0.00847539
0.00845345
0.00841257
0.00835019
0.00826224
0.00814251
0.00798185
0.00776688
0.00747819
0.00708803
0.00655782
0.0058363
0.00486006
0.00355811
0.00187705
0.000202772
0.00848385
0.00851271
0.00852605
0.00852454
0.00850807
0.00847562
0.00842508
0.00835286
0.00825333
0.00811783
0.00793311
0.00767901
0.00732496
0.00682574
0.00611799
0.00512202
0.00375596
0.00197962
0.000214241
0.00855299
0.00857893
0.00859163
0.00859211
0.00858059
0.00855647
0.00851812
0.00846265
0.0083853
0.00827846
0.00812993
0.00791989
0.00761592
0.00716556
0.00648759
0.00547092
0.00400625
0.00209983
0.000228289
0.00864855
0.00866929
0.0086798
0.00868123
0.00867399
0.00865778
0.00863153
0.00859316
0.00853913
0.00846353
0.00835638
0.00820028
0.00796406
0.00759073
0.00697736
0.00595347
0.00432188
0.00223202
0.000244502
0.00877238
0.00878574
0.00879265
0.00879404
0.00879029
0.00878131
0.00876652
0.00874474
0.00871385
0.00867023
0.00860742
0.00851334
0.00836401
0.00810846
0.00763189
0.00667077
0.00471312
0.00236387
0.000261468
0.00892441
0.00892896
0.00893135
0.00893194
0.00893087
0.00892816
0.00892364
0.00891695
0.00890744
0.00889399
0.00887448
0.00884479
0.00879574
0.00870376
0.0084941
0.00786453
0.00513027
0.00246509
0.000275948
)
;

boundaryField
{
    leftWall
    {
        type            nutkWallFunction;
        Cmu             0.09;
        kappa           0.41;
        E               9.8;
        value           nonuniform List<scalar> 
50
(
6.22461e-06
9.27373e-06
1.10496e-05
1.23352e-05
1.33378e-05
1.41658e-05
1.48829e-05
1.55411e-05
1.63053e-05
1.72373e-05
1.81213e-05
2.02496e-05
2.03632e-05
2.30928e-05
2.30774e-05
2.12384e-05
1.98373e-05
1.63261e-05
1.76509e-05
1.9319e-05
2.00612e-05
2.01002e-05
1.9682e-05
1.89934e-05
1.82776e-05
1.7504e-05
1.66554e-05
1.57327e-05
1.47237e-05
1.36073e-05
1.24067e-05
1.12859e-05
1.0219e-05
9.22656e-06
8.3402e-06
7.57792e-06
6.94176e-06
6.42805e-06
6.03576e-06
5.766e-06
5.61592e-06
5.57355e-06
5.6169e-06
5.71585e-06
5.83355e-06
5.92739e-06
6.03208e-06
8.20008e-06
2.22179e-05
4.90837e-05
)
;
    }
    rightWall
    {
        type            nutkWallFunction;
        Cmu             0.09;
        kappa           0.41;
        E               9.8;
        value           nonuniform List<scalar> 
50
(
6.42505e-06
9.04102e-06
1.04809e-05
1.15795e-05
1.24576e-05
1.29839e-05
1.35472e-05
1.42895e-05
1.53836e-05
1.67465e-05
1.79962e-05
1.68149e-05
1.74545e-05
1.65394e-05
1.6062e-05
1.43813e-05
1.15622e-05
1.16205e-05
1.00294e-05
8.20165e-06
7.42961e-06
8.14221e-06
9.24364e-06
1.04051e-05
1.12057e-05
1.24468e-05
1.33619e-05
1.41021e-05
1.45903e-05
1.46981e-05
1.46945e-05
1.49175e-05
1.50863e-05
1.52761e-05
1.54722e-05
1.56638e-05
1.57191e-05
1.56974e-05
1.58049e-05
1.62095e-05
1.66965e-05
1.73316e-05
1.81235e-05
1.9084e-05
2.03236e-05
2.196e-05
2.39406e-05
2.62213e-05
2.86189e-05
3.06402e-05
)
;
    }
    lowerWall
    {
        type            nutkWallFunction;
        Cmu             0.09;
        kappa           0.41;
        E               9.8;
        value           nonuniform List<scalar> 
62
(
2.81642e-06
4.71232e-06
5.70307e-06
6.34364e-06
6.8074e-06
7.16075e-06
7.4366e-06
7.65496e-06
7.82937e-06
7.96872e-06
8.07822e-06
8.1622e-06
8.22375e-06
8.261e-06
8.27144e-06
8.24734e-06
8.14133e-06
7.93634e-06
7.66686e-06
7.31639e-06
6.74563e-06
5.66665e-06
3.47025e-06
3.47025e-06
1.11507e-05
1.29393e-05
1.42934e-05
1.54881e-05
1.6753e-05
1.85334e-05
2.20984e-05
2.49177e-05
2.30151e-05
2.29686e-05
2.48142e-05
3.12146e-06
1.21488e-05
1.44149e-05
1.62507e-05
1.797e-05
1.9898e-05
2.21909e-05
2.57408e-05
3.12146e-06
5.52252e-06
6.42801e-06
6.80887e-06
6.96732e-06
6.95448e-06
6.75835e-06
6.36176e-06
6.07063e-06
6.12253e-06
6.18758e-06
6.10673e-06
6.0457e-06
6.15799e-06
6.24308e-06
6.00409e-06
5.27919e-06
4.16506e-06
2.58727e-06
)
;
    }
    atmosphere
    {
        type            calculated;
        value           nonuniform List<scalar> 
46
(
0.009
0.009
0.00213349
0.00193662
0.00259154
0.00337316
0.00404695
0.00461857
0.00511446
0.00555233
0.00594235
0.00629055
0.00660253
0.00688824
0.00716729
0.00747125
0.00785595
0.009
0.009
0.009
0.009
0.009
0.009
0.009
0.009
0.009
0.009
0.009
0.009
0.009
0.009
0.009
0.009
0.009
0.009
0.009
0.009
0.009
0.009
0.009
0.009
0.009
0.009
0.00513027
0.00246509
0.000275948
)
;
    }
    defaultFaces
    {
        type            empty;
    }
}


// ************************************************************************* //
