/*--------------------------------*- C++ -*----------------------------------*\
  =========                 |
  \\      /  F ield         | OpenFOAM: The Open Source CFD Toolbox
   \\    /   O peration     | Website:  https://openfoam.org
    \\  /    A nd           | Version:  9
     \\/     M anipulation  |
\*---------------------------------------------------------------------------*/
FoamFile
{
    format      ascii;
    class       volScalarField;
    location    "7.02";
    object      epsilon;
}
// * * * * * * * * * * * * * * * * * * * * * * * * * * * * * * * * * * * * * //

dimensions      [0 2 -3 0 0 0 0];

internalField   nonuniform List<scalar> 
2268
(
0.000178859
0.000952184
0.00169297
0.00236145
0.00296091
0.00349809
0.00397917
0.00440858
0.00478842
0.00512284
0.00543511
0.00572166
0.00597887
0.00617825
0.00624873
0.00606435
0.00544808
0.00460011
0.00381167
0.00314334
0.00253545
0.00177838
0.000605885
0.000363243
0.000640853
0.000956391
0.00124686
0.00150675
0.00173721
0.00194052
0.00211916
0.00227554
0.00241279
0.00253868
0.00265088
0.00274744
0.00281918
0.00284516
0.00279084
0.00261957
0.00239076
0.00211625
0.00181302
0.00147849
0.0011675
0.000937054
0.00061545
0.000665271
0.000872299
0.00107593
0.00126163
0.00142731
0.00157376
0.00170263
0.00181593
0.00191601
0.00200635
0.00208635
0.00215418
0.00220391
0.00222357
0.00219613
0.00210969
0.0019878
0.00182656
0.00163883
0.00145207
0.00134419
0.00155916
0.000864139
0.00073939
0.000886303
0.00104706
0.00119786
0.00133392
0.00145485
0.00156178
0.00165636
0.00174047
0.00181619
0.00188344
0.00194047
0.00198263
0.00200173
0.00198802
0.00193746
0.00186154
0.00175963
0.00164803
0.00156953
0.0016318
0.00228849
0.00110485
0.000830632
0.000934015
0.00106635
0.0011948
0.00131223
0.00141733
0.00151077
0.00159394
0.00166845
0.0017358
0.00179607
0.00184762
0.00188662
0.00190717
0.00190363
0.0018757
0.00183027
0.00177121
0.001721
0.00173715
0.00197433
0.00320871
0.00134018
0.000930339
0.0009985
0.00110917
0.00122091
0.00132449
0.00141787
0.00150139
0.00157625
0.00164386
0.00170543
0.00176114
0.00180949
0.00184728
0.00187024
0.00187543
0.00186521
0.00184549
0.00182193
0.00182387
0.00192707
0.00236339
0.00451939
0.00157399
0.00103567
0.00107347
0.00116619
0.0012641
0.00135621
0.00143989
0.00151524
0.0015833
0.00164536
0.00170246
0.00175481
0.00180114
0.00183879
0.00186474
0.00187797
0.00188288
0.0018866
0.00189405
0.0019389
0.00211659
0.0027883
0.00673557
0.00181006
0.00114604
0.00115632
0.0012331
0.00131864
0.00140045
0.00147546
0.00154353
0.00160559
0.00166283
0.00171619
0.00176589
0.00181093
0.00184913
0.00187849
0.00189937
0.00191752
0.00194164
0.00197572
0.00205137
0.00227188
0.00312614
0.0110753
0.000651672
0.00256548
0.00409727
0.00489794
0.00537895
0.00560763
0.00578315
0.00590285
0.00575445
0.00502513
0.00405621
0.00307599
0.00226585
0.00212831
0.0024806
0.00244171
0.00162719
0.000962978
0.000257828
0.000674562
0.00140167
0.0019134
0.00220868
0.00239497
0.00250581
0.00258013
0.00261493
0.00255681
0.00236375
0.00212128
0.00178344
0.00146325
0.00133567
0.00127904
0.00117618
0.000875934
0.000596217
0.000307322
0.000993309
0.00135135
0.0016261
0.00179079
0.00189646
0.00196405
0.00200777
0.00202041
0.00197283
0.00185955
0.00171964
0.0015152
0.00130558
0.00118872
0.00109195
0.000988349
0.000787266
0.00058416
0.0004363
0.0014451
0.00150322
0.00161554
0.0016924
0.00174697
0.00178471
0.00180861
0.00180842
0.00176266
0.00167473
0.00156838
0.00141755
0.00125801
0.00115077
0.00105255
0.000957285
0.000801333
0.000635052
0.000596794
0.00210636
0.00176808
0.00170088
0.00169463
0.00170576
0.0017184
0.00172626
0.00171665
0.00167125
0.00159489
0.0015047
0.00138318
0.00125288
0.00115298
0.00106088
0.000976582
0.000850973
0.00071631
0.000791031
0.00310164
0.00211377
0.00182785
0.0017393
0.00171141
0.00170198
0.00169601
0.00167895
0.00163397
0.001565
0.00148513
0.00138327
0.0012722
0.00117737
0.00109226
0.00101657
0.000909965
0.00080938
0.00100931
0.00492791
0.00251073
0.00196409
0.00180128
0.00174016
0.00171173
0.00169381
0.00167069
0.00162665
0.00156425
0.00149346
0.00140649
0.00130924
0.00121879
0.00113722
0.00106569
0.000967505
0.000902534
0.00126328
0.00878404
0.00284764
0.00207905
0.00186645
0.00178046
0.00173653
0.00170846
0.00168045
0.00163802
0.00158251
0.00152218
0.00144736
0.001361
0.00127354
0.00118993
0.00111804
0.00102351
0.000994286
0.00159817
0.00219453
0.00132756
0.00129678
0.0013498
0.00141672
0.0014831
0.00154526
0.00160266
0.00165601
0.00170638
0.00175459
0.00180084
0.00184459
0.00188432
0.00191926
0.0019513
0.00198736
0.00203721
0.0021036
0.00220499
0.00241268
0.00296358
0.00476964
0.00271918
0.00158626
0.00151024
0.0015304
0.0015706
0.00161601
0.00166174
0.00170568
0.00174836
0.00179075
0.00183358
0.00187715
0.0019211
0.00196459
0.0020074
0.00205149
0.00210246
0.0021674
0.0022466
0.00234243
0.00248557
0.00275938
0.00329465
0.00334144
0.00189267
0.00178588
0.00174638
0.00174427
0.0017632
0.00179144
0.00182037
0.00185137
0.00188575
0.0019239
0.00196606
0.0020117
0.00205972
0.00210959
0.00216214
0.00222071
0.00228955
0.00236545
0.00244681
0.00254052
0.00267453
0.00286569
0.00404132
0.00227478
0.00222868
0.00201917
0.00194547
0.00192795
0.00193732
0.00194574
0.00196053
0.00198438
0.00201674
0.00205726
0.00210454
0.00215637
0.00221157
0.00226927
0.00233075
0.00239904
0.00246578
0.00253751
0.00260264
0.00266273
0.00273517
0.00451256
0.00272444
0.00267692
0.00219637
0.00208872
0.0020461
0.00202677
0.00203749
0.00205254
0.00207185
0.00210196
0.00214362
0.0021904
0.00223951
0.00229041
0.00234042
0.00239219
0.00245186
0.00251836
0.00258391
0.00262802
0.00266451
0.00270063
0.00544474
0.00279081
0.00252165
0.00226055
0.00225308
0.00218909
0.00210928
0.00209795
0.00211603
0.00213374
0.00216077
0.00219998
0.00224643
0.00229807
0.00235235
0.00239549
0.00243658
0.00248985
0.00254312
0.00261051
0.00265613
0.00266201
0.00266945
0.00175463
0.00271854
0.0025372
0.00226542
0.00220668
0.0021495
0.00211766
0.00212959
0.00214838
0.00216931
0.00220009
0.00224149
0.00228509
0.00232794
0.00237509
0.00241628
0.00245181
0.00249125
0.00253625
0.00258483
0.00262707
0.00263153
0.00262702
0.00747101
0.00260313
0.00232904
0.00216837
0.0021171
0.00209969
0.0021026
0.00212418
0.00215277
0.00218498
0.00222287
0.00226622
0.00230761
0.00234767
0.00238963
0.00242796
0.00246104
0.00249327
0.00252802
0.00256309
0.00259113
0.00260349
0.00260441
0.00176938
0.00249156
0.0021972
0.00209192
0.00206349
0.00206797
0.00208777
0.00211713
0.00215161
0.00218946
0.00223092
0.00227509
0.00231896
0.00236333
0.00240678
0.0024426
0.00247049
0.00249687
0.00252413
0.00254977
0.00257097
0.00258656
0.00259195
0.00176673
0.00247006
0.00214248
0.00204955
0.00203264
0.00204755
0.00207611
0.00211128
0.00215019
0.00219178
0.00223579
0.00228178
0.00232911
0.00237754
0.00242243
0.00245636
0.00248146
0.00250448
0.00252692
0.00254676
0.00256348
0.00257706
0.00258275
0.00176836
0.0024565
0.00212092
0.00202847
0.00201522
0.00203445
0.0020677
0.00210715
0.00214984
0.00219463
0.00224112
0.00228921
0.00233869
0.0023882
0.00243282
0.00246713
0.00249305
0.00251575
0.00253637
0.00255376
0.002568
0.00257933
0.00258479
0.00176568
0.00247998
0.002117
0.00202094
0.00200732
0.0020276
0.00206306
0.00210534
0.00215092
0.0021984
0.00224712
0.00229688
0.00234728
0.00239663
0.00244123
0.00247777
0.00250697
0.00253177
0.00255326
0.00257101
0.0025852
0.00259615
0.00260244
0.00176737
0.00249679
0.00212432
0.00202321
0.0020072
0.00202676
0.00206285
0.00210672
0.00215433
0.00220394
0.00225463
0.00230589
0.00235709
0.00240674
0.00245242
0.00249225
0.00252606
0.0025548
0.00257928
0.00259952
0.00261587
0.00262875
0.00263759
0.0074799
0.00253206
0.00214045
0.00203305
0.00201368
0.00203163
0.00206748
0.00211215
0.00216125
0.0022127
0.00226533
0.00231838
0.00237108
0.00242222
0.00247028
0.00251402
0.00255297
0.00258692
0.00261608
0.00264064
0.00266113
0.00267798
0.00269104
0.0017684
0.00255777
0.00216298
0.00204869
0.00202568
0.00204176
0.00207705
0.00212224
0.00217269
0.00222605
0.00228095
0.00233642
0.00239165
0.00244564
0.0024973
0.00254569
0.00259016
0.00263016
0.00266539
0.00269594
0.00272233
0.00274489
0.0027636
0.00748881
0.00260418
0.00218826
0.00206856
0.0020423
0.00205668
0.00209152
0.00213737
0.00218942
0.0022451
0.00230286
0.00236163
0.00242052
0.00247867
0.00253517
0.00258918
0.00263992
0.0026868
0.00272933
0.00276741
0.00280128
0.00283111
0.00285682
0.00748532
0.00265771
0.00221926
0.00209245
0.00206304
0.00207607
0.00211087
0.00215785
0.00221204
0.00227071
0.00233217
0.00239524
0.00245901
0.00252264
0.00258529
0.00264615
0.00270441
0.00275933
0.00281046
0.0028575
0.00290036
0.00293897
0.00297311
0.00176628
0.00269292
0.00225077
0.00211927
0.00208746
0.00209975
0.00213517
0.00218397
0.00224107
0.00230361
0.00236977
0.00243832
0.00250831
0.00257887
0.00264917
0.00271838
0.00278567
0.00285026
0.00291151
0.00296905
0.00302252
0.00307154
0.0031157
0.00747706
0.00274883
0.0022855
0.00214909
0.0021154
0.0021277
0.00216455
0.00221605
0.00227703
0.00234449
0.00241657
0.00249198
0.00256968
0.00264881
0.00272849
0.00280786
0.00288604
0.00296217
0.00303548
0.00310539
0.00317134
0.00323268
0.00328875
0.0017642
0.00279488
0.00232298
0.00218163
0.00214678
0.00215995
0.0021992
0.00225446
0.00232044
0.00239411
0.00247353
0.00255737
0.00264455
0.00273414
0.00282524
0.00291692
0.00300822
0.00309818
0.00318588
0.00327045
0.00335119
0.00342716
0.00349743
0.00176807
0.00284464
0.00236214
0.00221672
0.00218162
0.00219664
0.00223939
0.00229961
0.00237193
0.00245329
0.00254172
0.00263583
0.00273452
0.00283682
0.00294174
0.00304829
0.0031554
0.00326197
0.00336688
0.003469
0.00356738
0.00366082
0.00374806
0.00747309
0.0029088
0.00240236
0.00225428
0.00222
0.00223799
0.00228545
0.00235199
0.0024322
0.00252297
0.00262232
0.00272887
0.00284148
0.00295911
0.00308073
0.00320523
0.00333141
0.00345797
0.00358358
0.00370682
0.00382636
0.00394075
0.00404839
0.00746546
0.00296246
0.00244428
0.00229453
0.00226213
0.00228427
0.00233779
0.0024122
0.00250203
0.00260419
0.00271672
0.00283823
0.00296757
0.00310368
0.00324543
0.00339159
0.00354079
0.00369151
0.0038421
0.00399082
0.0041359
0.00427556
0.0044078
0.00748244
0.00301196
0.00248799
0.00233767
0.00230822
0.00233579
0.00239687
0.00248085
0.00258229
0.00269812
0.00282643
0.00296586
0.00311528
0.00327359
0.00343959
0.00361191
0.00378895
0.00396891
0.00414976
0.00432935
0.0045054
0.00467568
0.00483767
0.00176612
0.00305919
0.00253395
0.00238384
0.00235851
0.00239289
0.00246316
0.00255864
0.00267392
0.00280602
0.00295313
0.00311395
0.00328739
0.00347236
0.00366756
0.00387147
0.00408223
0.00429768
0.00451534
0.00473246
0.00494619
0.00515367
0.00535176
0.00176877
0.00311162
0.00258174
0.00243314
0.00241322
0.00245593
0.00253717
0.00264625
0.00277789
0.00292922
0.00309859
0.00328483
0.00348696
0.00370389
0.00393428
0.0041764
0.0044281
0.00468673
0.00494923
0.00521217
0.00547188
0.0057247
0.00596666
0.00749291
0.00317965
0.00263173
0.00248572
0.00247257
0.00252522
0.00261937
0.00274439
0.00289516
0.00306906
0.00326465
0.003481
0.00371727
0.00397248
0.00424523
0.0045336
0.00483507
0.00514641
0.0054638
0.00578286
0.0060989
0.00640712
0.00670248
0.00749241
0.00323712
0.00268395
0.00254171
0.00253673
0.00260102
0.00271015
0.00285365
0.00302665
0.00322685
0.00345315
0.00370497
0.00398175
0.00428268
0.00460638
0.00495077
0.00531285
0.0056887
0.00607348
0.00646157
0.00684688
0.00722307
0.00758365
0.00176862
0.00328318
0.00273846
0.00260118
0.00260578
0.00268348
0.00280982
0.00297452
0.0031731
0.0034037
0.00366574
0.00395914
0.00428379
0.00463919
0.00502411
0.00543631
0.00587232
0.00632732
0.00679516
0.00726855
0.00773942
0.00819936
0.00863984
0.00749579
0.00335019
0.0027951
0.00266395
0.00267963
0.00277265
0.00291852
0.0031073
0.00333501
0.00360045
0.00390376
0.00424558
0.00462649
0.00504655
0.00550486
0.00599915
0.00652545
0.00707788
0.00764855
0.00822788
0.00880505
0.00936869
0.00990744
0.00176829
0.00340339
0.00285352
0.00272968
0.00275808
0.00286839
0.00303619
0.00325198
0.00351251
0.00381745
0.00416795
0.0045657
0.00501231
0.00550877
0.0060548
0.00664838
0.00728511
0.00795784
0.00865649
0.00936825
0.0100784
0.0107713
0.0114315
0.00746481
0.00348018
0.00291242
0.00279779
0.00284085
0.00297052
0.00316259
0.00340825
0.00370521
0.00405435
0.00445817
0.00491987
0.00544257
0.00602869
0.00667918
0.00739265
0.00816458
0.00898645
0.00984531
0.010724
0.0116019
0.0124572
0.0132683
0.00750093
0.00352041
0.00297029
0.00286779
0.00292777
0.00307886
0.00329735
0.0035754
0.00391206
0.00430983
0.00477304
0.00530692
0.00591678
0.00660728
0.0073814
0.00823927
0.00917681
0.0101843
0.0112451
0.012336
0.013428
0.0144893
0.0154894
0.00747368
0.0035765
0.0030264
0.00293974
0.00301924
0.00319358
0.00344005
0.00375232
0.00413124
0.00458138
0.0051095
0.00572352
0.00643187
0.00724251
0.00816179
0.00919274
0.010333
0.0115721
0.0128896
0.0142535
0.015622
0.0169481
0.0181868
0.00751655
0.00359838
0.00308076
0.00301563
0.00311717
0.0033157
0.00359052
0.00393751
0.00435993
0.00486495
0.00546233
0.00616355
0.00698118
0.00792804
0.00901573
0.0102525
0.0116401
0.0131691
0.0148151
0.0165345
0.0182661
0.0199377
0.0214807
0.00748442
0.00362641
0.0031397
0.00310198
0.00322654
0.00344791
0.00374908
0.00412912
0.00459423
0.00515468
0.00582376
0.00661733
0.00755341
0.00865154
0.00993133
0.0114098
0.0130968
0.0149881
0.0170571
0.0192461
0.0214638
0.0235955
0.0255312
0.00176949
0.00362862
0.00322162
0.00321505
0.0033581
0.00359559
0.00391675
0.00432472
0.00482887
0.00544261
0.00618307
0.00707113
0.0081316
0.00939296
0.0108863
0.0126426
0.0146868
0.0170278
0.0196432
0.022461
0.0253456
0.0281072
0.030556
0.00748201
0.00371943
0.00338294
0.0033921
0.0035321
0.00376731
0.00409474
0.00452079
0.00505677
0.00571843
0.00652639
0.00750685
0.00869245
0.0101229
0.0118449
0.0139101
0.016369
0.0192582
0.0225762
0.0262463
0.0300738
0.033732
0.0368599
0.00747179
0.00417395
0.00379587
0.0037142
0.0037818
0.00397323
0.00428243
0.00471127
0.00526842
0.00596938
0.00683698
0.00790234
0.00920644
0.0108019
0.012755
0.0151454
0.0180635
0.0215969
0.0258001
0.0306303
0.035839
0.0408553
0.0448838
0.0146586
0.00690947
0.0049987
0.0043411
0.00414826
0.00421719
0.00447247
0.00488539
0.0054512
0.00618045
0.00709597
0.00823267
0.00963933
0.0113819
0.013548
0.0162517
0.0196372
0.0238746
0.0291364
0.0355163
0.0428196
0.0501159
0.0552903
0.148165
0.0246852
0.00867815
0.00551191
0.00464081
0.00447646
0.00464303
0.00502528
0.00558925
0.00633535
0.0072841
0.00847257
0.00995566
0.0118107
0.0141447
0.0171058
0.0208977
0.0257987
0.0321768
0.040468
0.0509656
0.0627878
0.0690935
1.53755
0.126119
0.0183797
0.00718195
0.00511414
0.00467138
0.00475239
0.00510653
0.00566524
0.00641852
0.00738416
0.00859995
0.0101242
0.0120407
0.0144687
0.0175787
0.0216179
0.026956
0.0341719
0.0442388
0.0589607
0.0820889
0.0877272
0.0120314
0.00973916
0.00951152
0.0111396
0.00392869
0.00396821
0.00392823
0.00382195
0.00299168
0.00301983
0.00300224
0.00294143
0.00276935
0.00277334
0.00275715
0.00272167
0.00270978
0.00270297
0.00268178
0.00264795
0.00266011
0.00264541
0.00262722
0.00260449
0.00261439
0.00260237
0.00258828
0.00257271
0.00259031
0.00257812
0.00256515
0.00255138
0.0025796
0.0025686
0.00255637
0.00254332
0.0025754
0.00256789
0.0025583
0.00254719
0.00258143
0.00257714
0.00257085
0.00256292
0.00260225
0.00260063
0.00259747
0.00259288
0.00264062
0.00264143
0.00264098
0.00263928
0.00269772
0.00270099
0.00270308
0.00270394
0.00277451
0.00278049
0.00278523
0.00278867
0.0028727
0.00288177
0.00288949
0.00289579
0.00299485
0.00300756
0.00301876
0.0030284
0.00314442
0.00316145
0.00317682
0.00319046
0.0033258
0.00334801
0.00336838
0.00338683
0.00354443
0.00357285
0.00359924
0.00362349
0.00380701
0.00384289
0.00387651
0.00390777
0.0041217
0.00416655
0.00420889
0.00424857
0.00449841
0.00455409
0.00460693
0.00465675
0.00494918
0.00501792
0.0050834
0.00514544
0.00548855
0.00557305
0.00565379
0.00573053
0.00613408
0.00623764
0.00633679
0.00643123
0.00690702
0.00703367
0.00715504
0.00727077
0.00783324
0.00798783
0.00813599
0.00827728
0.0089442
0.0091326
0.00931301
0.00948493
0.0102785
0.0105078
0.010727
0.0109355
0.0118839
0.0121627
0.0124285
0.0126806
0.0138202
0.014159
0.0144806
0.0147844
0.0161631
0.0165745
0.0169628
0.0173273
0.0190099
0.0195088
0.0199761
0.0204113
0.022487
0.0230909
0.0236506
0.0241663
0.0267613
0.0274894
0.0281547
0.0287589
0.0320562
0.0329272
0.0337078
0.0344031
0.0386751
0.0397009
0.0405958
0.0413721
0.047036
0.0482052
0.0491873
0.0500094
0.0577132
0.058954
0.0599417
0.0607297
0.0714617
0.0725674
0.0733821
0.0739913
0.089096
0.0896327
0.0899804
0.090217
0.00435266
0.00273028
0.00218191
0.00195878
0.00185023
0.00178857
0.00174798
0.0017141
0.00167543
0.00163176
0.00158986
0.00153398
0.00145971
0.00136947
0.00127842
0.00120042
0.00111223
0.00113722
0.00211284
0.00314044
0.00257051
0.00224792
0.00206336
0.00195179
0.00188026
0.00183152
0.00179475
0.00176296
0.00173374
0.00170949
0.00167436
0.00160123
0.00149759
0.0013986
0.00131206
0.00123672
0.00131195
0.00259164
0.00276184
0.0025048
0.00230363
0.00215677
0.00205306
0.00198118
0.00193234
0.00189823
0.00187301
0.00185451
0.0018438
0.0018228
0.00174195
0.00162661
0.00151942
0.00142963
0.00136812
0.0014654
0.00277155
0.00263558
0.00249768
0.00236218
0.0022433
0.00215175
0.00208549
0.00204263
0.00201702
0.00200166
0.00199372
0.00200021
0.0019971
0.00188966
0.00175886
0.00163975
0.0015561
0.00150881
0.00163191
0.00321254
0.00258392
0.00249521
0.0023998
0.00231523
0.00224408
0.00218393
0.00214811
0.00213342
0.00212228
0.00209684
0.00206646
0.00205723
0.00202726
0.00185853
0.00171911
0.00163578
0.00161947
0.00176413
0.00313998
0.00256525
0.00251948
0.00244691
0.00236337
0.00230154
0.00225801
0.00223457
0.0022219
0.00221061
0.00217494
0.00212405
0.00212868
0.00205413
0.00191584
0.00179363
0.0017205
0.00172898
0.00194973
0.00331169
0.00254659
0.00251831
0.00246591
0.00240272
0.00235458
0.00231804
0.00229381
0.00226794
0.00223914
0.00220029
0.00215211
0.00212412
0.00206404
0.00194305
0.00185563
0.00180265
0.00182788
0.00204931
0.00100738
0.0025275
0.00249604
0.00245484
0.00240821
0.00236747
0.00233469
0.00230285
0.00226134
0.00222068
0.00218338
0.00215205
0.00213464
0.00207593
0.00196467
0.00187018
0.00181936
0.00185785
0.00218064
0.00490146
0.00252055
0.00248798
0.00245225
0.00241276
0.0023726
0.00233734
0.00229744
0.00224912
0.00220268
0.0021611
0.0021271
0.00210518
0.00207348
0.00199436
0.001895
0.00183051
0.00186551
0.00222937
0.00499853
0.00252726
0.00249818
0.0024679
0.00243257
0.0023913
0.0023508
0.00230557
0.00225483
0.00220209
0.00215083
0.00210305
0.0020638
0.00203863
0.00199301
0.00191162
0.00184175
0.0018565
0.0021661
0.00489696
0.00254775
0.00252341
0.00249677
0.00246374
0.00242224
0.0023795
0.00233317
0.00227909
0.00221942
0.00215887
0.00209863
0.00204018
0.00199341
0.00194894
0.00189405
0.001841
0.00183569
0.00204199
0.00115889
0.00258304
0.00256352
0.00253893
0.00250696
0.0024667
0.00242377
0.00237634
0.00231968
0.00225579
0.00218826
0.00211812
0.00204554
0.00197541
0.00191228
0.00186288
0.0018297
0.00182531
0.00197132
0.00115886
0.00263429
0.00262014
0.00259812
0.00256732
0.00252842
0.00248508
0.00243634
0.00237878
0.00231301
0.00224108
0.00216405
0.00208262
0.00199942
0.00191872
0.00185423
0.00181877
0.0018216
0.00193599
0.00490018
0.00270319
0.00269463
0.00267662
0.00264836
0.00261113
0.00256775
0.00251815
0.00246014
0.00239345
0.00231911
0.00223808
0.00215141
0.00206115
0.0019703
0.00188899
0.00183418
0.00182775
0.00190869
0.0011499
0.00279206
0.00278892
0.00277577
0.00275156
0.00271728
0.00267508
0.00262542
0.00256722
0.0025001
0.00242463
0.0023417
0.00225252
0.00215902
0.00206413
0.00197474
0.00190389
0.00187771
0.00194282
0.00114965
0.0029037
0.00290638
0.00289872
0.00287959
0.00284946
0.00280975
0.00276111
0.00270329
0.00263623
0.00256049
0.00247707
0.00238747
0.00229397
0.00220014
0.00211245
0.00204255
0.00201847
0.00210163
0.00115773
0.00304162
0.00305106
0.00304973
0.0030365
0.0030114
0.00297523
0.00292867
0.00287197
0.0028055
0.00273007
0.00264701
0.00255835
0.00246718
0.00237839
0.00230054
0.00225071
0.0022748
0.00251062
0.00476142
0.00321006
0.0032276
0.00323371
0.00322726
0.00320799
0.00317627
0.00313268
0.00307779
0.00301234
0.0029375
0.00285506
0.00276775
0.0026797
0.00259755
0.0025329
0.00251016
0.00259834
0.00304089
0.00505174
0.00341416
0.00344148
0.00345643
0.00345787
0.00344532
0.00341889
0.00337906
0.00332654
0.00326236
0.00318807
0.00310594
0.00301942
0.00293376
0.00285729
0.00280451
0.00280514
0.0029391
0.00350797
0.00634544
0.00366016
0.00369932
0.00372483
0.00373554
0.00373082
0.00371059
0.00367523
0.00362553
0.00356271
0.00348863
0.00340602
0.003319
0.00323385
0.00316056
0.00311648
0.00313671
0.00331116
0.003988
0.00778951
0.00395572
0.00400916
0.00404734
0.00406902
0.00407349
0.00406051
0.00403037
0.00398388
0.00392239
0.00384796
0.00376374
0.0036744
0.00358714
0.00351354
0.00347396
0.00351036
0.00373146
0.00454336
0.00932736
0.00431013
0.00438078
0.00443415
0.00446891
0.00448421
0.00447973
0.00445567
0.00441279
0.00435251
0.00427705
0.00418981
0.00409595
0.00400342
0.00392519
0.00388439
0.00392867
0.00417837
0.0050825
0.0104814
0.00473469
0.00482604
0.00489761
0.00494794
0.00497607
0.00498158
0.00496459
0.0049258
0.00486662
0.00478935
0.00469752
0.00459663
0.00449523
0.00440744
0.00435856
0.00439957
0.00465805
0.00561154
0.0113939
0.00524311
0.00535928
0.00545259
0.00552144
0.00556476
0.00558203
0.00557329
0.00553919
0.00548105
0.00540113
0.00530304
0.00519244
0.0050783
0.0049758
0.00491158
0.00493935
0.00519379
0.00618279
0.0123409
0.00585191
0.00599778
0.00611698
0.00620777
0.006269
0.0063001
0.00630104
0.00627237
0.00621531
0.006132
0.00602595
0.00590294
0.00577228
0.00564965
0.00556316
0.00556986
0.00581408
0.0068446
0.0134756
0.00658106
0.00676235
0.00691223
0.00702887
0.00711112
0.00715842
0.00717071
0.00714844
0.00709271
0.00700547
0.00689005
0.00675208
0.00660097
0.00645298
0.00633798
0.00631762
0.00654991
0.00764063
0.0149294
0.00745468
0.00767799
0.00786402
0.00801093
0.00811769
0.00818384
0.00820943
0.00819486
0.00814106
0.00804972
0.00792381
0.00776863
0.00759354
0.00741542
0.00726631
0.00721403
0.00743478
0.00860943
0.0167714
0.00850191
0.00877487
0.00900319
0.00918523
0.00932028
0.00940824
0.00944937
0.00944414
0.00939332
0.00929824
0.00916138
0.0089875
0.00878571
0.00857343
0.00838526
0.00829654
0.00850593
0.00978505
0.0190039
0.00975806
0.0100894
0.0103668
0.0105891
0.0107565
0.0108694
0.0109285
0.0109347
0.0108885
0.0107909
0.0106437
0.0104509
0.0102211
0.00997193
0.00974071
0.00961131
0.00980841
0.0112085
0.0216517
0.0112662
0.0116656
0.0119993
0.0122673
0.0124709
0.0126119
0.0126918
0.0127117
0.0126726
0.0125748
0.0124195
0.0122096
0.0119527
0.0116664
0.0113903
0.0112173
0.0114012
0.012937
0.0247546
0.0130792
0.0135572
0.0139546
0.0142733
0.0145169
0.0146888
0.014792
0.0148287
0.0147999
0.0147058
0.0145468
0.0143245
0.0140452
0.0137255
0.0134069
0.0131915
0.0133659
0.0150644
0.0285035
0.0152626
0.0158301
0.0162979
0.0166716
0.0169578
0.0171628
0.0172918
0.0173483
0.017334
0.0172492
0.0170937
0.0168677
0.0165759
0.0162336
0.0158829
0.0156352
0.0158163
0.0177376
0.0333076
0.0178977
0.0185651
0.0191089
0.0195399
0.0198697
0.0201088
0.0202652
0.0203445
0.0203497
0.0202816
0.0201398
0.0199239
0.0196369
0.0192926
0.0189332
0.0186794
0.0189028
0.0211439
0.0395611
0.0210867
0.0218624
0.0224843
0.0229719
0.0233439
0.0236159
0.0238
0.0239045
0.0239344
0.0238919
0.0237773
0.0235907
0.023335
0.0230231
0.0226981
0.0224899
0.0228225
0.0255209
0.0476489
0.024958
0.0258455
0.0265426
0.0270813
0.0274898
0.0277906
0.0280006
0.0281314
0.0281908
0.0281832
0.0281116
0.0279787
0.0277902
0.0275625
0.0273428
0.0272736
0.0278373
0.0312038
0.058155
0.0296734
0.0306671
0.031428
0.0320055
0.0324398
0.0327614
0.0329924
0.0331482
0.03324
0.0332757
0.0332627
0.0332102
0.0331328
0.0330586
0.033051
0.0332779
0.0342963
0.0386964
0.0720879
0.0354357
0.0365148
0.0373156
0.0379106
0.0383537
0.0386835
0.0389269
0.0391031
0.0392266
0.0393099
0.0393674
0.039419
0.0394967
0.0396565
0.0400037
0.0407711
0.0426437
0.0487558
0.0910597
0.0424967
0.0436161
0.0444168
0.0449977
0.0454259
0.0457463
0.0459894
0.0461768
0.046326
0.0464543
0.0465842
0.0467507
0.0470129
0.047476
0.0483333
0.0499736
0.0533733
0.0625259
0.117978
0.0511617
0.052243
0.0529852
0.0535103
0.0538938
0.0541832
0.0544091
0.0545936
0.0547554
0.0549153
0.0551035
0.0553703
0.0558072
0.0565871
0.0580486
0.0608937
0.0667936
0.081598
0.15873
0.0617873
0.0627141
0.0633232
0.0637445
0.0640508
0.0642848
0.0644733
0.0646356
0.0647891
0.0649549
0.0651661
0.0654818
0.0660166
0.067005
0.0689524
0.0730286
0.082287
0.107232
0.226818
0.0747652
0.0753955
0.0757935
0.0760647
0.0762626
0.0764171
0.0765461
0.0766628
0.0767799
0.076914
0.0770926
0.0773672
0.0778438
0.0787558
0.0806637
0.0850668
0.0966706
0.135228
0.350856
0.0904967
0.0907085
0.0908386
0.0909271
0.090993
0.0910463
0.091093
0.0911379
0.0911857
0.0912432
0.0913222
0.091445
0.0916593
0.0920756
0.0929884
0.095332
0.102907
0.139211
0.580307
)
;

boundaryField
{
    leftWall
    {
        type            epsilonWallFunction;
        value           nonuniform List<scalar> 
50
(
0.000178859
0.000363243
0.00061545
0.000864139
0.00110485
0.00134018
0.00157399
0.00181006
0.00219453
0.00271918
0.00334144
0.00404132
0.00451256
0.00544474
0.00175463
0.00747101
0.00176938
0.00176673
0.00176836
0.00176568
0.00176737
0.0074799
0.0017684
0.00748881
0.00748532
0.00176628
0.00747706
0.0017642
0.00176807
0.00747309
0.00746546
0.00748244
0.00176612
0.00176877
0.00749291
0.00749241
0.00176862
0.00749579
0.00176829
0.00746481
0.00750093
0.00747368
0.00751655
0.00748442
0.00176949
0.00748201
0.00747179
0.0146586
0.148165
1.53755
)
;
    }
    rightWall
    {
        type            epsilonWallFunction;
        value           nonuniform List<scalar> 
50
(
0.000257828
0.000307322
0.0004363
0.000596794
0.000791031
0.00100931
0.00126328
0.00159817
0.00211284
0.00259164
0.00277155
0.00321254
0.00313998
0.00331169
0.00100738
0.00490146
0.00499853
0.00489696
0.00115889
0.00115886
0.00490018
0.0011499
0.00114965
0.00115773
0.00476142
0.00505174
0.00634544
0.00778951
0.00932736
0.0104814
0.0113939
0.0123409
0.0134756
0.0149294
0.0167714
0.0190039
0.0216517
0.0247546
0.0285035
0.0333076
0.0395611
0.0476489
0.058155
0.0720879
0.0910597
0.117978
0.15873
0.226818
0.350856
0.580307
)
;
    }
    lowerWall
    {
        type            epsilonWallFunction;
        value           nonuniform List<scalar> 
62
(
0.000178859
0.000952184
0.00169297
0.00236145
0.00296091
0.00349809
0.00397917
0.00440858
0.00478842
0.00512284
0.00543511
0.00572166
0.00597887
0.00617825
0.00624873
0.00606435
0.00544808
0.00460011
0.00381167
0.00314334
0.00253545
0.00177838
0.000605885
0.000605885
0.000937054
0.00155916
0.00228849
0.00320871
0.00451939
0.00673557
0.0110753
0.0120314
0.00973916
0.00951152
0.0111396
0.000651672
0.000674562
0.000993309
0.0014451
0.00210636
0.00310164
0.00492791
0.00878404
0.000651672
0.00256548
0.00409727
0.00489794
0.00537895
0.00560763
0.00578315
0.00590285
0.00575445
0.00502513
0.00405621
0.00307599
0.00226585
0.00212831
0.0024806
0.00244171
0.00162719
0.000962978
0.000257828
)
;
    }
    atmosphere
    {
        type            inletOutlet;
        inletValue      uniform 0.1;
        value           nonuniform List<scalar> 
46
(
0.1
0.126119
0.0183797
0.00718195
0.00511414
0.00467138
0.00475239
0.00510653
0.00566524
0.00641852
0.00738416
0.00859995
0.0101242
0.0120407
0.0144687
0.0175787
0.0216179
0.026956
0.0341719
0.0442388
0.0589607
0.1
0.1
0.1
0.1
0.1
0.1
0.1
0.1
0.1
0.1
0.1
0.1
0.1
0.1
0.1
0.1
0.1
0.1
0.1
0.1
0.1
0.1
0.1
0.1
0.580307
)
;
    }
    defaultFaces
    {
        type            empty;
    }
}


// ************************************************************************* //
