/*--------------------------------*- C++ -*----------------------------------*\
  =========                 |
  \\      /  F ield         | OpenFOAM: The Open Source CFD Toolbox
   \\    /   O peration     | Website:  https://openfoam.org
    \\  /    A nd           | Version:  9
     \\/     M anipulation  |
\*---------------------------------------------------------------------------*/
FoamFile
{
    format      ascii;
    class       volScalarField;
    location    "25.2";
    object      p;
}
// * * * * * * * * * * * * * * * * * * * * * * * * * * * * * * * * * * * * * //

dimensions      [0 2 -2 0 0 0 0];

internalField   nonuniform List<scalar> 
918
(
23.4699
23.5775
0.95502
22.8873
1.01507
23.0939
3.27505
13.7861
19.2431
2.93429
2.62363
14.4092
20.6369
16.8783
12.9945
0.924784
14.0529
2.24908
18.4608
1.39823
12.9936
20.4486
21.5373
19.2849
14.122
14.3734
18.5992
1.14623
0.108433
0.255966
0.978517
0.409982
0.147618
21.6308
22.3075
22.2458
15.4957
10.4041
3.59989
3.80429
2.98549
2.80873
13.8287
13.9287
5.86865
13.765
13.7608
16.6446
19.1112
19.2548
19.548
19.337
19.7234
5.97617
2.78581
2.60637
2.87571
2.94974
2.98272
2.69603
2.6777
2.48132
2.33536
13.8886
14.4822
14.5374
14.2686
14.2163
22.4535
21.6966
22.0313
21.1377
21.2831
20.213
19.8274
17.2539
17.6064
16.4802
16.0994
12.7849
12.7461
13.2144
13.4643
0.14542
1.07556
1.22311
14.0598
14.0963
14.0964
14.1109
8.28623
2.19084
2.19386
17.9011
17.4776
20.4825
20.7497
20.1967
20.0112
1.53022
1.52569
1.15146
1.18156
0.950624
13.3349
13.489
19.2363
18.4032
14.1555
14.0556
14.1305
11.5007
13.9109
13.9842
15.323
15.7785
14.9678
15.4043
18.1692
17.7512
19.0358
19.473
0.393467
0.154954
0.687342
0.318042
0.516563
15.364
15.1586
15.6116
15.6624
15.8936
10.4089
10.3394
10.383
10.303
4.15141
4.46597
2.25805
2.57276
2.42372
9.86825
13.9449
13.9916
4.8128
5.51699
5.18043
6.35121
6.72555
16.0103
16.4469
16.1857
17.732
16.9369
17.2851
19.8142
19.3034
19.6038
6.37124
6.6057
5.61041
5.25151
2.24064
2.48939
2.43185
2.98087
2.95867
3.2178
3.34653
2.69832
2.55511
2.89195
2.77524
2.82735
2.16494
2.03521
13.6126
13.3987
14.1516
14.3301
15.0973
14.949
14.6556
14.8244
19.0225
19.426
19.4595
19.0753
11.5466
10.1568
13.7188
13.9943
0.302105
0.264722
0.138214
0.380944
0.400376
0.14211
2.01533
1.82687
1.40543
1.68096
14.0574
14.0171
8.52681
8.74636
8.12284
7.86655
16.3153
16.4655
17.0996
16.6994
1.96193
1.67589
1.80564
13.6519
13.5244
13.6313
10.9358
10.3693
11.9785
12.2482
13.9924
14.0361
14.0321
15.6827
16.0011
19.8239
20.0945
19.9214
20.3072
21.37
21.0213
20.6365
14.5399
14.9483
14.7867
16.1289
15.7626
15.9821
15.1899
15.4946
15.3525
10.3711
10.4173
10.1215
10.1993
10.2477
10.1948
9.80558
9.67866
14.0782
14.0333
14.0573
7.25353
7.75155
4.87096
4.542
12.5445
13.2177
12.8933
18.6522
17.9746
18.7076
18.3367
17.8867
18.2102
10.4281
10.3897
10.423
14.9186
14.2565
14.6084
2.44053
2.07619
2.23908
8.94234
9.03553
6.97404
7.59094
7.25388
16.3028
16.6431
17.3233
16.435
16.9027
17.41
17.188
9.94144
10.0741
9.99103
9.66228
9.5559
9.73607
8.33672
8.94999
3.61318
4.27049
3.96598
9.20346
9.43317
9.28048
18.6309
19.1657
0.766205
1.15381
19.5957
19.3194
0.139898
0.242404
14.255
12.5525
7.26385
17.1981
16.6307
18.9705
3.19296
6.10385
2.80783
3.38102
2.68669
14.6163
14.2503
13.3414
0.453235
1.25698
1.70833
2.89891
18.4113
17.7361
18.8522
19.1724
19.2267
0.687742
0.913031
0.584113
1.24165
1.03066
1.27535
15.5517
15.6499
4.32569
18.8592
19.1635
19.1813
17.658
18.6107
17.6682
0.935873
0.642927
0.707829
10.0815
12.1224
14.2152
13.7678
13.9648
13.9869
13.7378
14.8711
14.5406
14.5055
14.9903
13.9674
13.8222
7.73544
6.38456
8.06997
7.7103
17.0994
16.6873
16.4942
16.2399
18.0857
17.6117
18.4621
17.8505
18.3124
18.5992
2.94277
3.13263
3.01288
2.5219
6.14427
6.60847
5.48917
5.63561
4.26054
2.42656
2.52548
2.75205
2.58296
2.93129
2.67906
2.94321
2.57942
2.32405
2.32147
2.93071
2.73833
2.60422
14.5947
14.5331
14.334
14.3721
14.3545
14.4702
13.5359
13.9406
13.5684
12.3995
12.9806
12.5079
0.826229
0.663258
0.525155
1.32446
1.35169
1.11053
0.834493
1.17359
1.20164
0.813762
1.54465
1.44455
3.15766
2.64657
8.84324
7.97137
6.90156
16.8013
17.6031
16.7728
18.0135
18.4305
18.5359
18.1563
17.6481
15.7305
15.7257
15.3858
15.3392
4.77235
3.73386
4.9686
4.5377
10.4793
14.0662
11.8434
10.8047
11.101
13.425
13.9304
13.5827
13.7197
13.2947
12.8229
13.5148
13.0485
13.1499
12.9289
15.7193
16.1945
15.801
15.2215
15.2414
10.6002
12.0165
5.46702
5.64091
7.24495
6.53902
13.5112
13.9338
13.9185
13.5571
13.7449
13.7459
13.6067
13.7808
13.8608
13.7554
11.8252
10.1448
9.04616
9.03975
14.0776
12.3469
12.9312
12.4145
16.1212
16.6377
16.2524
15.6468
16.1319
15.6037
15.6309
15.8441
17.2023
16.9519
16.7216
17.1085
3.05391
3.00248
3.64678
3.13476
3.03736
2.82138
3.48421
4.75854
4.41617
6.71931
7.26938
4.58013
3.3731
3.79297
4.80771
5.5419
5.51226
3.96966
4.50227
4.93032
4.44113
5.2262
4.73048
2.71753
3.02393
2.86211
2.8358
3.3822
3.88096
3.37628
2.47986
2.59102
2.25505
2.11759
3.53531
2.99397
3.0306
3.67803
1.10724
1.32935
1.44153
2.4135
1.91287
1.97912
15.1833
14.8274
14.961
14.2402
14.3077
14.2488
13.8733
15.2407
14.9628
15.0622
13.7107
13.7974
13.6107
13.906
14.322
14.6212
15.4531
15.1742
14.4133
14.5643
14.2152
14.1435
13.4655
12.9025
12.8419
1.11295
0.824493
0.984066
0.910902
0.606656
0.798795
2.18362
1.57298
1.97018
1.72742
1.96044
1.403
1.30227
4.25379
5.06325
3.96563
3.36702
3.06505
8.90136
9.01295
8.16176
7.85887
8.20047
8.42991
8.37978
7.13709
7.56479
7.37772
9.9177
9.58236
17.5875
17.5316
17.2028
17.0439
17.2703
5.76282
7.66581
6.80007
7.91636
10.2081
10.504
9.31189
8.70629
9.45802
9.53568
14.0478
14.124
13.5649
14.0507
14.0792
11.8358
12.8831
13.4979
13.3124
13.8323
13.9132
12.9743
13.5629
13.4782
12.7608
12.8138
12.1287
12.4672
11.9953
11.7943
14.0568
13.9516
14.2213
13.7722
14.1515
13.7157
14.031
14.029
14.3096
13.4116
12.8329
12.8513
13.2776
12.9777
13.3236
13.4877
9.3092
9.9496
10.3887
10.9244
10.6319
10.4137
10.281
10.5827
10.5596
10.8308
10.7502
10.601
11.5615
13.4174
13.7024
13.8039
13.6007
13.6469
13.3395
13.6124
13.5417
13.9206
14.0085
14.0582
13.1388
13.295
13.4899
13.3736
11.676
10.0975
9.94987
9.50986
7.57772
8.04748
11.0261
9.90306
8.91845
8.99033
12.1694
10.8068
11.6201
12.0432
10.6948
10.3069
12.972
13.7602
13.98
13.7042
12.061
12.1868
12.6365
13.0798
13.2691
13.7249
15.861
16.4367
16.5146
16.2387
16.1007
16.2005
15.9506
16.0537
16.5278
16.6543
16.4856
2.87876
2.99236
2.92256
2.84794
3.0852
2.86047
3.95528
3.94574
3.15542
3.33599
3.3561
3.46173
2.92991
2.97312
4.8263
5.06215
5.33382
4.83239
6.17533
6.81829
7.39999
7.08428
5.78972
5.86979
6.18572
3.50644
3.53371
3.25176
3.70895
3.76152
2.61004
2.23766
2.0429
2.56249
2.6648
2.04954
1.76738
1.81635
2.33055
2.04953
1.80392
14.9758
14.7341
14.7555
14.5353
14.5899
14.9847
15.2056
15.0157
15.1541
15.2051
14.8042
14.6931
14.8642
1.81812
1.49355
1.62232
1.57996
1.64314
1.54916
1.7368
7.60709
6.41602
6.80346
5.97923
4.12166
4.64238
9.54077
9.96239
10.0008
9.71237
9.50209
9.8678
9.71864
9.71151
8.26437
9.33403
8.86928
9.26365
9.28473
9.35267
9.06669
9.08151
10.5853
10.6188
9.48369
10.1235
9.33214
7.93294
8.09997
9.11356
10.0872
10.4062
10.2511
9.98087
9.75226
10.1159
10.1706
10.2307
10.2201
8.7525
8.7122
8.31178
13.9696
13.8761
14.0227
14.0278
14.1547
13.9796
13.8166
14.0938
14.1481
13.9324
11.0789
11.1379
11.3837
12.1305
12.1825
12.093
11.3377
13.102
12.7575
13.3956
13.3423
13.4146
13.0047
12.828
13.0984
10.0816
11.4545
10.9873
11.2506
10.0641
9.30775
13.2243
13.2784
13.3439
13.6169
13.5748
14.1583
15.831
15.7009
15.7482
15.7912
15.4029
15.4402
4.17522
3.82876
4.54979
4.50581
4.06421
3.76426
2.28658
1.96846
1.78058
1.65535
1.88906
1.95
8.1628
8.19042
6.3343
7.35627
5.87723
4.93578
4.79147
5.95593
7.13722
7.19645
8.51476
9.19177
8.7506
8.57611
7.91984
8.24983
10.1181
10.2123
10.1129
10.4318
9.96448
11.7137
11.2959
11.6448
13.2589
12.9684
12.3703
12.2569
12.2218
12.8149
11.9483
11.18
11.8925
12.5481
12.5063
11.1193
10.8743
11.301
11.2849
10.1989
10.7192
10.4812
10.8337
10.5489
)
;

boundaryField
{
    wall-4
    {
        type            zeroGradient;
    }
    velocity-inlet-5
    {
        type            zeroGradient;
    }
    velocity-inlet-6
    {
        type            zeroGradient;
    }
    pressure-outlet-7
    {
        type            fixedValue;
        value           uniform 0;
    }
    wall-8
    {
        type            zeroGradient;
    }
    frontAndBackPlanes
    {
        type            empty;
    }
}


// ************************************************************************* //
