/*--------------------------------*- C++ -*----------------------------------*\
  =========                 |
  \\      /  F ield         | OpenFOAM: The Open Source CFD Toolbox
   \\    /   O peration     | Website:  https://openfoam.org
    \\  /    A nd           | Version:  9
     \\/     M anipulation  |
\*---------------------------------------------------------------------------*/
FoamFile
{
    format      ascii;
    class       volScalarField;
    location    "3.02";
    object      k;
}
// * * * * * * * * * * * * * * * * * * * * * * * * * * * * * * * * * * * * * //

dimensions      [0 2 -2 0 0 0 0];

internalField   nonuniform List<scalar> 
2268
(
0.00108783
0.00277183
0.00406671
0.00503475
0.00579216
0.00638915
0.00685665
0.0072189
0.00749447
0.0076994
0.00784896
0.0079559
0.00802871
0.00807178
0.00808054
0.00803475
0.00787137
0.0074134
0.00682705
0.00619305
0.0053558
0.00389262
0.0013043
0.00237813
0.0063919
0.00903198
0.0110557
0.0126545
0.0139228
0.014925
0.0157095
0.0163153
0.0167759
0.0171212
0.0173741
0.0175481
0.0176452
0.0176494
0.0175161
0.0171436
0.0163222
0.0151846
0.0139253
0.0121827
0.0091721
0.00347258
0.00336632
0.00845545
0.0116807
0.0141674
0.0161488
0.0177324
0.018991
0.0199822
0.0207534
0.0213459
0.0217953
0.0221285
0.0223601
0.0224901
0.0224976
0.0223312
0.0218919
0.0210233
0.0197823
0.0182227
0.0160078
0.0123274
0.00502448
0.00419281
0.0100948
0.0137112
0.0164956
0.0187253
0.0205148
0.0219417
0.0230688
0.0239497
0.024631
0.0251523
0.0255423
0.0258162
0.0259727
0.0259886
0.0258122
0.0253544
0.0244932
0.023228
0.0215308
0.0190685
0.0149837
0.00642858
0.00489933
0.011533
0.0154803
0.018502
0.0209241
0.0228696
0.024421
0.0256472
0.0266075
0.0273532
0.0279273
0.0283604
0.0286676
0.0288472
0.0288759
0.0287039
0.0282526
0.0274221
0.0261756
0.0244356
0.0218628
0.0175212
0.00778131
0.00552446
0.012847
0.0171076
0.0203442
0.022932
0.025005
0.0266533
0.0279533
0.0289711
0.0297634
0.0303765
0.0308424
0.0311767
0.0313778
0.0314233
0.0312666
0.0308386
0.0300554
0.0288606
0.0271483
0.0245804
0.0201415
0.00925535
0.00609604
0.0140774
0.0186506
0.022097
0.0248378
0.0270196
0.0287438
0.0300972
0.0311546
0.0319788
0.0326194
0.03311
0.0334667
0.0336888
0.0337551
0.033623
0.0332314
0.032509
0.0313927
0.0297677
0.0273199
0.0230285
0.0113172
0.00663044
0.0152502
0.0201444
0.0238053
0.0266943
0.0289703
0.0307516
0.0321396
0.0332203
0.0340633
0.0347215
0.03523
0.0356059
0.0358492
0.0359409
0.0358415
0.0354969
0.0348465
0.0338304
0.0323409
0.0301206
0.026345
0.0158125
0.00148421
0.0037647
0.00506591
0.00572667
0.00596546
0.00589973
0.00560886
0.00517108
0.00486184
0.00491116
0.00493543
0.00468782
0.00464127
0.00485185
0.00500345
0.00455057
0.00351699
0.00235578
0.00105867
0.00364732
0.00822368
0.0108494
0.0122288
0.0127837
0.0127045
0.012146
0.0113834
0.0109092
0.0109866
0.0109387
0.0104667
0.010299
0.0103831
0.0101981
0.00926004
0.00742411
0.00508076
0.00206702
0.00514995
0.0110859
0.014178
0.0157491
0.0163752
0.0162947
0.0157099
0.0149329
0.0144083
0.0143161
0.0141405
0.013668
0.0133526
0.0131595
0.0126804
0.0115017
0.0094204
0.00667515
0.00279041
0.00662635
0.0136973
0.0169196
0.0184715
0.019065
0.0189555
0.0183644
0.0176056
0.0170541
0.0168276
0.0165495
0.0160573
0.0156092
0.0151894
0.014471
0.0130842
0.0108718
0.0078556
0.00344229
0.00827772
0.0163101
0.0194614
0.0208737
0.0213752
0.0212192
0.0206217
0.0198823
0.0193075
0.0189742
0.0186124
0.0180836
0.0175154
0.0169119
0.0159996
0.0144157
0.0120659
0.0088257
0.00402575
0.0104136
0.0190175
0.0219229
0.0231105
0.0234808
0.023268
0.0226631
0.02194
0.021341
0.0209175
0.0204817
0.0199039
0.0192271
0.0184719
0.0173982
0.0156434
0.0131057
0.00965697
0.00439286
0.0135539
0.0218877
0.0243525
0.0252479
0.0254583
0.0251817
0.0245706
0.023862
0.0232367
0.0227329
0.0222252
0.0215881
0.0208138
0.0199266
0.0187169
0.0168331
0.0140782
0.0103472
0.0044494
0.0184838
0.0249715
0.0267616
0.0273153
0.0273461
0.0269983
0.0263845
0.0256902
0.0250361
0.0244577
0.0238758
0.0231718
0.0223089
0.0212993
0.0199768
0.0180127
0.015076
0.0109325
0.00458441
0.00738459
0.0170229
0.0224397
0.0264475
0.0295633
0.0319633
0.0338036
0.0352154
0.0363069
0.0371603
0.0378322
0.03836
0.0387626
0.0390426
0.0391833
0.0391502
0.038898
0.0383774
0.0375424
0.0363166
0.0345501
0.0319095
0.0272548
0.00845179
0.0195689
0.0257195
0.0302473
0.0336655
0.0361393
0.0379465
0.0392846
0.0403082
0.0411176
0.0417646
0.0422877
0.0427146
0.04305
0.0432778
0.0433634
0.0432648
0.0429473
0.042389
0.0415576
0.0403953
0.0388529
0.0369147
0.0099063
0.0226521
0.0295123
0.0346817
0.0383827
0.0406809
0.0422561
0.0433637
0.0442164
0.0449277
0.0455074
0.0459894
0.0464272
0.0468275
0.0471708
0.0474109
0.0474898
0.0473779
0.0471049
0.0466633
0.0459843
0.0450718
0.0440081
0.0131746
0.0269892
0.0342127
0.0404496
0.0444154
0.0457616
0.0468215
0.0474858
0.0480305
0.0486088
0.0490911
0.0494768
0.0499072
0.0503852
0.0508893
0.0513449
0.0516258
0.0516677
0.0516373
0.0515728
0.0512455
0.0506685
0.0499496
0.0134657
0.0294042
0.0385227
0.0473727
0.0510676
0.0499459
0.0507958
0.0513873
0.0515033
0.0519345
0.0523626
0.0526425
0.052996
0.0535292
0.0542124
0.0549102
0.0554047
0.0555608
0.0556114
0.055871
0.0559251
0.0558174
0.0551107
0.0119829
0.0276927
0.0389546
0.0471259
0.0507893
0.0516183
0.0533633
0.0546614
0.0544998
0.0543756
0.0546337
0.0549239
0.0553365
0.0559914
0.056824
0.0576435
0.0582728
0.0585014
0.0586441
0.0590548
0.0597397
0.059902
0.0591629
0.0119614
0.0293271
0.0404804
0.0495197
0.0528232
0.0529709
0.0544903
0.0555495
0.0557141
0.055973
0.0563195
0.056642
0.0571354
0.0578882
0.0588046
0.0596839
0.0604622
0.0611336
0.0611497
0.0613644
0.0622205
0.0618344
0.0620544
0.012229
0.0296742
0.0402816
0.0499544
0.0539945
0.0537346
0.0549317
0.056077
0.0564306
0.0569535
0.0574883
0.0579141
0.0584106
0.059096
0.0598717
0.0606423
0.0613762
0.0622282
0.0626977
0.0625262
0.0628617
0.0630942
0.0639816
0.0125711
0.0284491
0.0381919
0.0461247
0.0507251
0.0525913
0.0544677
0.0559169
0.0567217
0.0574308
0.058072
0.058591
0.0591128
0.0597261
0.0603259
0.0608822
0.061385
0.0619455
0.0624883
0.0626828
0.0630079
0.0634697
0.0640041
0.0133969
0.0287437
0.0372613
0.0437336
0.0483008
0.0513487
0.0536699
0.0554137
0.0565968
0.0574854
0.0581924
0.0587765
0.0593379
0.0598838
0.0603427
0.0607252
0.0610337
0.0613165
0.0616058
0.0618363
0.0622286
0.0626929
0.0627183
0.0143158
0.0296817
0.0376616
0.0433435
0.0475118
0.0505269
0.0528586
0.0546791
0.0560157
0.0570192
0.0578011
0.0584422
0.059011
0.059494
0.0598525
0.0601075
0.0602749
0.060418
0.0605691
0.0606856
0.0608994
0.0611614
0.0609593
0.0152939
0.0307075
0.0382418
0.0433234
0.0470152
0.049756
0.0519111
0.0536407
0.054983
0.0560225
0.0568403
0.0575016
0.058048
0.0584713
0.0587577
0.0589298
0.0590215
0.0590901
0.0591671
0.0592183
0.0592861
0.0593259
0.0589827
0.015961
0.0314616
0.0385506
0.0431257
0.0464036
0.0488572
0.0507942
0.0523651
0.0536249
0.0546279
0.0554271
0.0560663
0.0565718
0.0569452
0.05719
0.0573313
0.0574057
0.0574555
0.0575022
0.0575317
0.0575322
0.0574225
0.056984
0.0161871
0.0317345
0.0384797
0.0426596
0.0456017
0.0478015
0.0495327
0.050937
0.0520803
0.0530065
0.0537524
0.0543472
0.0548113
0.0551542
0.0553895
0.0555425
0.0556443
0.0557225
0.055787
0.055821
0.0557841
0.0555898
0.055106
0.0160412
0.0314922
0.0379854
0.0418887
0.0445906
0.0465961
0.0481618
0.0494251
0.0504576
0.0513017
0.0519877
0.0525394
0.0529757
0.0533114
0.0535641
0.053756
0.053909
0.0540373
0.054138
0.0541857
0.0541306
0.0538994
0.0534159
0.0156289
0.0307766
0.0370888
0.0408218
0.0433725
0.0452496
0.0467028
0.0478672
0.0488176
0.0495985
0.0502399
0.0507651
0.0511937
0.0515429
0.0518304
0.052073
0.0522832
0.0524634
0.0526008
0.0526648
0.0526084
0.0523767
0.0519258
0.0151035
0.0297244
0.0358672
0.0394925
0.0419599
0.0437687
0.0451622
0.0462735
0.0471795
0.0479275
0.0485498
0.0490713
0.0495124
0.0498909
0.0502221
0.0505174
0.0507811
0.0510074
0.0511779
0.0512619
0.05122
0.0510133
0.0506166
0.0144527
0.0284254
0.0343944
0.0379462
0.0403762
0.0421631
0.043541
0.04464
0.045538
0.0462848
0.0469149
0.0474551
0.0479261
0.048345
0.0487244
0.0490707
0.0493828
0.0496502
0.0498528
0.0499631
0.0499501
0.0497869
0.049459
0.0137018
0.0269557
0.0327401
0.036234
0.0386535
0.0404493
0.0418435
0.0429618
0.0438815
0.0446538
0.045315
0.0458928
0.0464075
0.0468752
0.0473057
0.0477022
0.0480603
0.0483678
0.0486058
0.0487508
0.0487793
0.0486725
0.0484217
0.0128804
0.0253784
0.0309669
0.0344076
0.0368295
0.0386516
0.0400822
0.0412409
0.0422036
0.0430214
0.0437313
0.0443612
0.0449304
0.0454537
0.0459389
0.0463871
0.0467926
0.0471434
0.0474228
0.0476117
0.0476922
0.0476508
0.0474815
0.012012
0.0237424
0.0291281
0.0325152
0.0349438
0.0368001
0.0382775
0.0394893
0.0405085
0.0413853
0.0421563
0.0428488
0.0434809
0.0440659
0.0446103
0.045114
0.0455712
0.0459711
0.0462995
0.0465411
0.046682
0.046712
0.0466263
0.0111105
0.0220828
0.0272659
0.030599
0.0330349
0.0349276
0.0364565
0.0377278
0.0388114
0.0397557
0.0405961
0.0413588
0.0420604
0.0427129
0.0433215
0.043886
0.0444009
0.0448567
0.0452417
0.0455436
0.0457513
0.0458567
0.0458551
0.0101785
0.02042
0.025412
0.0286945
0.0311381
0.0330678
0.0346498
0.035984
0.0371364
0.0381535
0.0390688
0.039907
0.0406836
0.0414087
0.0420871
0.0427181
0.0432968
0.0438154
0.044264
0.0446325
0.0449117
0.0450946
0.0451769
0.00923334
0.0187614
0.0235904
0.0268318
0.0292859
0.0312536
0.03289
0.0342891
0.0355133
0.0366065
0.0376006
0.0385184
0.0393742
0.0401767
0.0409298
0.0416329
0.0422816
0.0428691
0.0433872
0.0438271
0.044181
0.0444427
0.0446076
0.00837518
0.0171274
0.0218233
0.0250381
0.0275086
0.0295171
0.0312101
0.0326761
0.0339742
0.0351461
0.0362216
0.037222
0.0381606
0.0390446
0.0398771
0.0406572
0.0413813
0.0420431
0.0426354
0.0431506
0.0435815
0.0439223
0.0441684
0.0075838
0.0156267
0.0201776
0.0233631
0.0258484
0.0278964
0.0296449
0.0311779
0.0325511
0.0338035
0.0349626
0.0360478
0.0370721
0.0380408
0.0389565
0.0398183
0.0406225
0.0413634
0.0420342
0.0426278
0.0431374
0.0435573
0.0438829
0.00687548
0.0143126
0.0187039
0.0218498
0.024344
0.026428
0.0282303
0.0298294
0.0312774
0.0326106
0.033854
0.0350256
0.036137
0.037193
0.0381954
0.0391429
0.0400316
0.0408559
0.041609
0.0422838
0.0428737
0.0433727
0.0437762
0.00627182
0.0132193
0.0174405
0.0205338
0.0230281
0.0251425
0.026995
0.0286578
0.030179
0.0315918
0.0329194
0.0341779
0.035378
0.0365238
0.0376165
0.0386542
0.0396323
0.0405449
0.0413847
0.0421443
0.0428165
0.0433953
0.0438757
0.00578425
0.0123509
0.016404
0.0194359
0.0219223
0.024061
0.0259588
0.0276817
0.0292733
0.0307639
0.0321749
0.0335208
0.0348113
0.0360503
0.037238
0.0383716
0.0394457
0.0404531
0.0413856
0.0422347
0.0429926
0.0436527
0.0442098
0.00540987
0.0116891
0.0155908
0.0185604
0.0210343
0.0231922
0.0251306
0.0269093
0.0285679
0.0301343
0.031628
0.0330625
0.0344466
0.0357839
0.0370737
0.0383117
0.039491
0.0406026
0.0416363
0.0425819
0.0434306
0.0441749
0.0448095
0.00513621
0.011207
0.0149842
0.0178979
0.0203589
0.0225327
0.0245077
0.0263382
0.0280609
0.0297014
0.0312783
0.0328044
0.0342877
0.0357317
0.0371343
0.0384894
0.0397876
0.0410168
0.0421639
0.0432162
0.044163
0.044996
0.0457097
0.00494791
0.0108784
0.0145615
0.0174302
0.0198806
0.0220689
0.0240775
0.0259568
0.0277414
0.0294559
0.0311184
0.0327417
0.0343337
0.0358973
0.037429
0.0389202
0.0403572
0.0417235
0.0430013
0.0441743
0.0452291
0.0461567
0.0469518
0.00483009
0.0106795
0.0142982
0.0171343
0.0195783
0.0217812
0.0238214
0.0257474
0.0275929
0.0293827
0.0311356
0.0328654
0.0345803
0.0362826
0.0379674
0.0396219
0.0412266
0.0427577
0.0441904
0.0455027
0.0466783
0.0477073
0.0485858
0.00476846
0.0105882
0.0141706
0.0169879
0.019431
0.0216488
0.0237187
0.0256894
0.0275953
0.0294631
0.0313138
0.033163
0.0350206
0.0368888
0.0387607
0.0406176
0.0424312
0.0441662
0.0457867
0.0472625
0.0485736
0.0497105
0.0506726
0.00474915
0.0105876
0.0141649
0.0169793
0.0194261
0.0216569
0.0237521
0.0257631
0.0277278
0.0296765
0.0316337
0.0336191
0.0356455
0.0377161
0.039822
0.0419368
0.044018
0.0460119
0.0478645
0.0495337
0.0509957
0.0522444
0.0532861
0.00476216
0.0106857
0.0143018
0.0171285
0.0195751
0.0218064
0.0239128
0.025953
0.0279705
0.0300005
0.0320732
0.0342139
0.0364411
0.0387616
0.0411653
0.0436161
0.0460498
0.0483809
0.0505246
0.0524218
0.0540476
0.055405
0.056514
0.00481862
0.0109907
0.0147075
0.0175345
0.0199387
0.0221252
0.0242056
0.0262488
0.0283038
0.0304104
0.0326048
0.0349205
0.0373851
0.0400142
0.0428009
0.0456995
0.0486117
0.051393
0.053905
0.0560656
0.0578576
0.0593068
0.0604575
0.00502993
0.011979
0.0158014
0.018467
0.0206607
0.0226763
0.0246477
0.0266429
0.0287063
0.0308764
0.0331931
0.0356997
0.0384393
0.0414458
0.0447281
0.0482398
0.0518299
0.0552281
0.0582013
0.0606476
0.0625831
0.0640815
0.0652283
0.00604697
0.0153687
0.0187496
0.0205153
0.0219896
0.0235452
0.0252535
0.0271195
0.0291483
0.0313596
0.0337908
0.0364954
0.0395402
0.0429972
0.0469254
0.0513169
0.0559409
0.0601932
0.0637058
0.0664071
0.0684084
0.0698722
0.0709427
0.0113083
0.0258249
0.0259992
0.0246341
0.0242052
0.024774
0.0259963
0.0276358
0.0295831
0.031809
0.0343369
0.0372304
0.0405908
0.0445632
0.0493417
0.0550978
0.0615195
0.0668905
0.0708745
0.0736476
0.0755325
0.0768186
0.0777113
0.0282033
0.0497542
0.0395825
0.0312635
0.0272317
0.0262044
0.0267503
0.0281035
0.0299435
0.0321626
0.0347606
0.0378094
0.0414557
0.0459674
0.0518477
0.0598752
0.0700761
0.0764873
0.0803577
0.0826944
0.0841259
0.0850313
0.0856274
0.0852391
0.0875243
0.0555594
0.0379146
0.0298756
0.0272943
0.0272622
0.0283936
0.0301524
0.0323592
0.0349932
0.0381323
0.041964
0.0468977
0.0539165
0.0652997
0.085174
0.090607
0.092693
0.0936934
0.0942356
0.094555
0.0947567
0.0207216
0.017586
0.0167063
0.0181234
0.0354722
0.0346151
0.0341784
0.0342418
0.0432233
0.0426991
0.0422291
0.0418481
0.0493682
0.0488987
0.0483198
0.0477059
0.0547422
0.0542749
0.0535247
0.0525597
0.0584514
0.0577639
0.0568373
0.0557238
0.0619505
0.0616306
0.060348
0.0585184
0.0639279
0.0632332
0.0616875
0.059841
0.0631648
0.0622377
0.0610945
0.0597881
0.0618407
0.0610858
0.0601785
0.0591243
0.0601949
0.05955
0.0587603
0.057834
0.058271
0.0576839
0.0569725
0.056149
0.0563008
0.0557587
0.0551183
0.0543915
0.0544601
0.0539655
0.0533958
0.0527608
0.0528248
0.0523833
0.051884
0.0513344
0.0514032
0.0510181
0.050587
0.0501156
0.0501688
0.0498409
0.0494746
0.0490744
0.0490869
0.0488138
0.0485082
0.048173
0.0481252
0.0479047
0.0476551
0.0473787
0.047259
0.0470889
0.046892
0.0466699
0.0464757
0.0463536
0.0462062
0.0460348
0.0457737
0.0456974
0.0455969
0.0454728
0.0451619
0.0451291
0.0450727
0.0449932
0.0446562
0.0446648
0.0446501
0.0446124
0.0442778
0.0443257
0.0443504
0.044352
0.0440507
0.0441359
0.0441979
0.0442365
0.0440002
0.0441214
0.0442189
0.0442926
0.044154
0.04431
0.0444415
0.0445485
0.0445412
0.0447308
0.044895
0.0450336
0.0451932
0.0454155
0.0456111
0.0457799
0.0461452
0.0463995
0.0466253
0.0468228
0.0474385
0.0477239
0.0479786
0.0482031
0.0491225
0.0494374
0.049719
0.0499681
0.0512563
0.051598
0.0519034
0.0521735
0.0539105
0.0542741
0.054598
0.0548838
0.0571672
0.0575446
0.0578788
0.0581725
0.0611196
0.0614983
0.0618309
0.0621211
0.0658693
0.0662312
0.0665458
0.0668181
0.0715209
0.0718426
0.0721191
0.0723561
0.0781762
0.0784307
0.078647
0.0788305
0.0859273
0.0860892
0.0862253
0.0863399
0.0948558
0.0949087
0.094953
0.0949901
0.0258412
0.0294611
0.0303197
0.0303978
0.0301636
0.0297096
0.0290968
0.0284245
0.0277295
0.027042
0.0263364
0.0255225
0.0245313
0.023341
0.0218567
0.0198116
0.0167155
0.0121308
0.00516095
0.0349802
0.0353133
0.0349378
0.0343564
0.0337398
0.0330868
0.0324024
0.0317207
0.0309963
0.0302045
0.0293569
0.0284024
0.027244
0.0258243
0.024106
0.0219584
0.0189584
0.0144694
0.00628294
0.0413294
0.0403943
0.0391776
0.038037
0.0370596
0.0361827
0.0353813
0.034663
0.0339218
0.033058
0.0321281
0.0310835
0.0297608
0.0280749
0.026014
0.0235617
0.0204794
0.0161178
0.00780138
0.046728
0.045031
0.0430725
0.0413971
0.0400895
0.0389947
0.0380441
0.0372922
0.0365361
0.0355795
0.034642
0.0336151
0.032135
0.030107
0.0275635
0.0246592
0.0213849
0.0167959
0.00841887
0.050989
0.0490102
0.0464777
0.0443219
0.0427696
0.0414434
0.0402905
0.039383
0.0384779
0.0374714
0.0365753
0.0353078
0.0335271
0.0312183
0.0283271
0.0249468
0.0212662
0.0163776
0.00789439
0.053631
0.051265
0.0488345
0.0466539
0.0449266
0.0434272
0.0421719
0.041257
0.0402387
0.0387941
0.0372758
0.0354362
0.0330965
0.0303863
0.0273603
0.0239453
0.0200767
0.0147375
0.00670601
0.0559715
0.0532867
0.0508031
0.0484945
0.0465799
0.0449215
0.0434785
0.0422798
0.0409099
0.0390082
0.0369825
0.034844
0.032153
0.029058
0.0257613
0.0222401
0.0183842
0.0130237
0.00581737
0.057124
0.0543973
0.0520207
0.049734
0.0477473
0.0458794
0.0440844
0.0424726
0.0407714
0.038676
0.0363914
0.0340801
0.031307
0.0282081
0.0250715
0.021873
0.0182301
0.0132324
0.00592922
0.0574104
0.0546742
0.0523911
0.0501169
0.0479169
0.045823
0.043843
0.0419734
0.0400747
0.0379928
0.0357358
0.0333828
0.0307171
0.0278203
0.0248805
0.0218716
0.0184344
0.0139285
0.00628499
0.0571305
0.0544156
0.0520243
0.0496739
0.047377
0.0452426
0.0432453
0.0413334
0.0394192
0.0374036
0.0352485
0.0329549
0.0304181
0.0276352
0.0246753
0.0215314
0.0180056
0.0135131
0.00602567
0.0561152
0.0535748
0.051176
0.0488641
0.0466627
0.0446108
0.0426808
0.0408213
0.0389597
0.0370189
0.0349516
0.0327268
0.0302671
0.0275327
0.0245077
0.0211611
0.0173958
0.0127168
0.00555672
0.0546578
0.0523811
0.0501452
0.0479974
0.0459637
0.0440469
0.0422189
0.0404374
0.0386426
0.0367693
0.0347631
0.0325767
0.030161
0.027463
0.0244135
0.020956
0.0169789
0.0120939
0.00531584
0.0531033
0.0511136
0.0491161
0.0471823
0.0453351
0.0435647
0.0418443
0.0401421
0.0384099
0.0365902
0.0346242
0.0324661
0.0300867
0.0274355
0.0244359
0.0210071
0.0169839
0.0119985
0.00547259
0.0516524
0.0499351
0.0481844
0.0464647
0.0447942
0.0431609
0.0415424
0.0399134
0.0382352
0.0364574
0.0345282
0.0324104
0.0300841
0.0275111
0.0246275
0.0213309
0.0174284
0.0125037
0.00595738
0.0503834
0.0489074
0.0473811
0.0458544
0.0443404
0.0428293
0.0413031
0.0397405
0.0381105
0.036373
0.0344881
0.0324285
0.0301784
0.0277107
0.0249725
0.0218562
0.018173
0.0134648
0.00659856
0.0493019
0.0480334
0.0467015
0.045342
0.0439644
0.042561
0.0411178
0.0396172
0.0380351
0.0363421
0.0345104
0.0325206
0.0303601
0.0280077
0.0254177
0.0224924
0.0190527
0.014603
0.00726353
0.0483814
0.0472909
0.0461258
0.044911
0.0436529
0.0423461
0.0409796
0.0395396
0.0380084
0.0363658
0.0345934
0.0326781
0.0306096
0.0283696
0.0259187
0.0231713
0.019954
0.0157447
0.00789643
0.0475874
0.0466518
0.0456318
0.0445441
0.0433934
0.0421756
0.0408827
0.0395044
0.0380283
0.0364414
0.034732
0.0328914
0.030911
0.0287744
0.0264447
0.0238463
0.0207998
0.0167601
0.00850512
0.0468898
0.0460919
0.0452007
0.0442278
0.0431763
0.0420434
0.0408233
0.0395089
0.038092
0.0365645
0.0349195
0.0331511
0.0312512
0.0292068
0.0269823
0.024493
0.0215439
0.0175239
0.00900572
0.046269
0.0455949
0.0448211
0.0439544
0.0429968
0.0419465
0.0407997
0.0395515
0.0381969
0.0367311
0.0351499
0.0334489
0.0316228
0.0296584
0.027512
0.0250921
0.0221807
0.0180947
0.00928081
0.0457158
0.0451555
0.0444899
0.043723
0.0428558
0.0418869
0.0408139
0.0396337
0.0383433
0.0369396
0.0354199
0.0337826
0.0320229
0.0301182
0.0280224
0.0256346
0.0227129
0.0185123
0.00935479
0.0452309
0.0447768
0.0442125
0.0435402
0.0427602
0.0418715
0.0408722
0.0397606
0.0385345
0.0371917
0.035733
0.0341554
0.0324476
0.0305848
0.0285154
0.026129
0.0231644
0.0188363
0.00936939
0.0448241
0.0444699
0.0440012
0.0434188
0.0427229
0.0419122
0.0409856
0.0399415
0.0387786
0.0374976
0.0360963
0.0345688
0.0329011
0.0310651
0.0290037
0.0265983
0.0235754
0.0191334
0.00946734
0.044512
0.044252
0.0438734
0.0433765
0.0427609
0.0420255
0.041169
0.0401914
0.0390915
0.0378679
0.0365168
0.0350304
0.0333923
0.0315709
0.0295044
0.0270681
0.0239829
0.0194447
0.00964206
0.0443165
0.0441448
0.0438509
0.0434343
0.0428947
0.0422314
0.0414431
0.0405288
0.0394869
0.0383145
0.0370064
0.0355527
0.0339346
0.0321172
0.030035
0.0275598
0.0244096
0.019778
0.00983625
0.0442622
0.0441731
0.0439584
0.0436174
0.0431495
0.0425538
0.0418288
0.0409727
0.0399828
0.0388551
0.0375824
0.0361528
0.034545
0.0327214
0.0306138
0.0280912
0.0248686
0.0201314
0.0100337
0.044376
0.0443641
0.0442231
0.0439523
0.0435507
0.0430172
0.0423499
0.0415461
0.0406019
0.0395116
0.0382663
0.0368518
0.0352444
0.0334043
0.0312607
0.0286801
0.0253728
0.0205085
0.0102211
0.0446864
0.0447463
0.0446733
0.0444668
0.0441258
0.0436487
0.043033
0.0422753
0.0413701
0.0403101
0.0390841
0.0376756
0.0360585
0.0341906
0.0319988
0.0293465
0.0259369
0.020914
0.0103571
0.0452231
0.0453496
0.0453389
0.0451908
0.0449043
0.0444777
0.0439079
0.0431902
0.0423177
0.041281
0.0400666
0.0386551
0.037018
0.0351101
0.0328557
0.0301142
0.0265786
0.0213578
0.0104097
0.046018
0.046206
0.0462521
0.0461565
0.0459189
0.0455371
0.0450076
0.0443245
0.0434791
0.0424597
0.04125
0.0398275
0.0381601
0.0361995
0.0338662
0.0310143
0.0273261
0.021874
0.0104611
0.0471066
0.0473509
0.0474481
0.0473995
0.0472052
0.0468632
0.0463694
0.0457165
0.0448941
0.0438876
0.0426773
0.0412369
0.0395301
0.0375039
0.0350745
0.03209
0.0282229
0.0225191
0.0106546
0.0485291
0.0488241
0.0489666
0.0489593
0.0488032
0.0484967
0.0480351
0.0474098
0.0466082
0.0456124
0.0443988
0.0429361
0.0411825
0.0390795
0.0365373
0.0333981
0.0293261
0.0233487
0.011034
0.050332
0.0506712
0.0508523
0.0508805
0.050758
0.0504837
0.0500523
0.0494539
0.0486735
0.0476896
0.0464734
0.0449876
0.0431832
0.0409942
0.0383243
0.0350083
0.0307015
0.024408
0.0115521
0.0525691
0.0529439
0.0531562
0.0532137
0.0531203
0.0528757
0.0524742
0.0519047
0.0511492
0.0501822
0.048969
0.047464
0.0456091
0.0433284
0.0405173
0.0370018
0.0324228
0.0257441
0.0121864
0.0553021
0.0557013
0.0559354
0.0560153
0.0559469
0.0557305
0.0553605
0.0548244
0.0541015
0.0531614
0.0519623
0.0504485
0.0485489
0.0461737
0.0432061
0.0394568
0.0345567
0.0274205
0.0129611
0.0586007
0.0590096
0.0592542
0.0593488
0.0593011
0.0591125
0.0587773
0.0582819
0.057603
0.0567054
0.0555387
0.0540344
0.0521032
0.049634
0.0464862
0.0424582
0.0371698
0.0294695
0.0138892
0.0625421
0.0629424
0.0631841
0.0632847
0.0632536
0.0630928
0.0627971
0.0623522
0.0617328
0.0608991
0.0597917
0.0583258
0.0563864
0.053827
0.0504703
0.0460959
0.0403304
0.0319552
0.0150637
0.0672102
0.06758
0.0678041
0.0679015
0.0678827
0.0677504
0.0674999
0.0671169
0.0665755
0.0658328
0.0648211
0.0634375
0.0615315
0.058898
0.0552904
0.0504491
0.0440743
0.034905
0.0165137
0.0726945
0.0730106
0.0732017
0.0732869
0.0732765
0.0731734
0.0729737
0.0726645
0.0722213
0.0716011
0.0707321
0.0694951
0.0676964
0.0650377
0.0611223
0.0555695
0.0483653
0.0382723
0.0182421
0.0790905
0.0793306
0.0794752
0.0795404
0.079535
0.0794617
0.0793176
0.0790926
0.0787663
0.0783013
0.0776302
0.0766289
0.0750667
0.0725169
0.0682556
0.0614318
0.0530169
0.0418726
0.0201749
0.086501
0.0866486
0.0867368
0.0867767
0.086774
0.0867306
0.0866449
0.0865108
0.0863151
0.0860325
0.0856137
0.0849568
0.0838371
0.0817209
0.0772974
0.0677624
0.0575302
0.045284
0.0221692
0.095042
0.0950893
0.0951175
0.0951301
0.0951293
0.0951156
0.0950888
0.095047
0.0949861
0.094898
0.0947655
0.0945483
0.0941343
0.0931317
0.0898035
0.0733816
0.0607739
0.047729
0.0238899
)
;

boundaryField
{
    leftWall
    {
        type            kqRWallFunction;
        value           nonuniform List<scalar> 
50
(
0.00108783
0.00237813
0.00336632
0.00419281
0.00489933
0.00552446
0.00609604
0.00663044
0.00738459
0.00845179
0.0099063
0.0131746
0.0134657
0.0119829
0.0119614
0.012229
0.0125711
0.0133969
0.0143158
0.0152939
0.015961
0.0161871
0.0160412
0.0156289
0.0151035
0.0144527
0.0137018
0.0128804
0.012012
0.0111105
0.0101785
0.00923334
0.00837518
0.0075838
0.00687548
0.00627182
0.00578425
0.00540987
0.00513621
0.00494791
0.00483009
0.00476846
0.00474915
0.00476216
0.00481862
0.00502993
0.00604697
0.0113083
0.0282033
0.0852391
)
;
    }
    rightWall
    {
        type            kqRWallFunction;
        value           nonuniform List<scalar> 
50
(
0.00105867
0.00206702
0.00279041
0.00344229
0.00402575
0.00439286
0.0044494
0.00458441
0.00516095
0.00628294
0.00780138
0.00841887
0.00789439
0.00670601
0.00581737
0.00592922
0.00628499
0.00602567
0.00555672
0.00531584
0.00547259
0.00595738
0.00659856
0.00726353
0.00789643
0.00850512
0.00900572
0.00928081
0.00935479
0.00936939
0.00946734
0.00964206
0.00983625
0.0100337
0.0102211
0.0103571
0.0104097
0.0104611
0.0106546
0.011034
0.0115521
0.0121864
0.0129611
0.0138892
0.0150637
0.0165137
0.0182421
0.0201749
0.0221692
0.0238899
)
;
    }
    lowerWall
    {
        type            kqRWallFunction;
        value           nonuniform List<scalar> 
62
(
0.00108783
0.00277183
0.00406671
0.00503475
0.00579216
0.00638915
0.00685665
0.0072189
0.00749447
0.0076994
0.00784896
0.0079559
0.00802871
0.00807178
0.00808054
0.00803475
0.00787137
0.0074134
0.00682705
0.00619305
0.0053558
0.00389262
0.0013043
0.0013043
0.00347258
0.00502448
0.00642858
0.00778131
0.00925535
0.0113172
0.0158125
0.0207216
0.017586
0.0167063
0.0181234
0.00148421
0.00364732
0.00514995
0.00662635
0.00827772
0.0104136
0.0135539
0.0184838
0.00148421
0.0037647
0.00506591
0.00572667
0.00596546
0.00589973
0.00560886
0.00517108
0.00486184
0.00491116
0.00493543
0.00468782
0.00464127
0.00485185
0.00500345
0.00455057
0.00351699
0.00235578
0.00105867
)
;
    }
    atmosphere
    {
        type            inletOutlet;
        inletValue      uniform 0.1;
        value           nonuniform List<scalar> 
46
(
0.1
0.1
0.0555594
0.0379146
0.0298756
0.0272943
0.0272622
0.0283936
0.0301524
0.0323592
0.0349932
0.0381323
0.041964
0.0468977
0.0539165
0.0652997
0.1
0.1
0.1
0.1
0.1
0.1
0.1
0.1
0.1
0.1
0.1
0.1
0.1
0.1
0.1
0.1
0.1
0.1
0.1
0.1
0.1
0.1
0.1
0.1
0.1
0.1
0.0733816
0.0607739
0.047729
0.0238899
)
;
    }
    defaultFaces
    {
        type            empty;
    }
}


// ************************************************************************* //
