/*--------------------------------*- C++ -*----------------------------------*\
  =========                 |
  \\      /  F ield         | OpenFOAM: The Open Source CFD Toolbox
   \\    /   O peration     | Website:  https://openfoam.org
    \\  /    A nd           | Version:  9
     \\/     M anipulation  |
\*---------------------------------------------------------------------------*/
FoamFile
{
    format      ascii;
    class       surfaceScalarField;
    location    "3.02";
    object      phi;
}
// * * * * * * * * * * * * * * * * * * * * * * * * * * * * * * * * * * * * * //

dimensions      [0 3 -1 0 0 0 0];

internalField   nonuniform List<scalar> 
4432
(
-4.02542e-07
4.02542e-07
-4.45822e-07
4.32789e-08
-3.43338e-07
-1.02483e-07
-1.77083e-07
-1.66256e-07
2.09118e-08
-1.97997e-07
2.27649e-07
-2.06737e-07
4.30084e-07
-2.02437e-07
6.21257e-07
-1.91172e-07
7.96194e-07
-1.74937e-07
9.51331e-07
-1.55138e-07
1.08783e-06
-1.36499e-07
1.21166e-06
-1.23835e-07
1.33155e-06
-1.19887e-07
1.46274e-06
-1.31192e-07
1.62641e-06
-1.63666e-07
1.84656e-06
-2.20155e-07
2.091e-06
-2.44447e-07
1.77026e-06
3.20739e-07
8.34359e-07
9.35902e-07
3.94567e-08
7.94906e-07
-2.1315e-07
2.5261e-07
-1.12018e-07
-1.01128e-07
-1.12014e-07
-2.13218e-07
6.15761e-07
-2.48983e-07
7.90418e-08
-1.75769e-07
-1.75696e-07
-4.22817e-08
-2.99743e-07
1.25111e-07
-3.65392e-07
3.06254e-07
-3.87879e-07
4.88677e-07
-3.84861e-07
6.65789e-07
-3.68283e-07
8.32334e-07
-3.41483e-07
9.84174e-07
-3.06979e-07
1.12078e-06
-2.73102e-07
1.24489e-06
-2.47944e-07
1.3599e-06
-2.34895e-07
1.46996e-06
-2.41256e-07
1.57748e-06
-2.71186e-07
1.67281e-06
-3.15498e-07
1.68875e-06
-2.60381e-07
1.47487e-06
5.34621e-07
1.10144e-06
1.30934e-06
5.86777e-07
1.30957e-06
2.26355e-07
6.13034e-07
5.86236e-08
6.66127e-08
-5.33933e-08
-1.0184e-07
7.17602e-07
-1.24442e-07
1.01644e-07
-7.43116e-08
-2.25827e-07
2.62382e-08
-4.00293e-07
1.60439e-07
-4.99596e-07
3.10986e-07
-5.38424e-07
4.67767e-07
-5.41644e-07
6.25222e-07
-5.25736e-07
7.7824e-07
-4.94498e-07
9.22106e-07
-4.50844e-07
1.05506e-06
-4.06055e-07
1.1775e-06
-3.70382e-07
1.2885e-06
-3.45888e-07
1.38519e-06
-3.37947e-07
1.4594e-06
-3.45398e-07
1.48539e-06
-3.41486e-07
1.4121e-06
-1.87096e-07
1.32659e-06
6.20128e-07
1.17314e-06
1.46279e-06
9.19414e-07
1.56329e-06
5.91275e-07
9.41165e-07
2.55065e-07
4.02823e-07
2.01662e-07
-3.55822e-08
7.53186e-07
-4.81519e-08
1.14214e-07
-1.67637e-08
-2.57215e-07
5.58316e-08
-4.72889e-07
1.58156e-07
-6.01923e-07
2.7821e-07
-6.58476e-07
4.08614e-07
-6.72047e-07
5.455e-07
-6.62622e-07
6.84161e-07
-6.33159e-07
8.19284e-07
-5.85967e-07
9.4822e-07
-5.34989e-07
1.06969e-06
-4.91853e-07
1.17929e-06
-4.55489e-07
1.26963e-06
-4.28286e-07
1.32766e-06
-4.03421e-07
1.32739e-06
-3.41228e-07
1.24438e-06
-1.04082e-07
1.22495e-06
6.39553e-07
1.22758e-06
1.46016e-06
1.14796e-06
1.6429e-06
8.69648e-07
1.21947e-06
4.58261e-07
8.14206e-07
6.59914e-07
-1.59279e-09
7.5478e-07
-6.57812e-09
1.192e-07
5.84213e-09
-2.69636e-07
5.12792e-08
-5.18326e-07
1.23191e-07
-6.73837e-07
2.13359e-07
-7.48645e-07
3.17363e-07
-7.76052e-07
4.33586e-07
-7.78848e-07
5.57915e-07
-7.57491e-07
6.84379e-07
-7.12435e-07
8.09768e-07
-6.60381e-07
9.31851e-07
-6.13938e-07
1.04355e-06
-5.6719e-07
1.1349e-06
-5.19637e-07
1.19247e-06
-4.60992e-07
1.19721e-06
-3.45976e-07
1.14989e-06
-5.6754e-08
1.17266e-06
6.16778e-07
1.27459e-06
1.35823e-06
1.2973e-06
1.62018e-06
1.07934e-06
1.43744e-06
6.46492e-07
1.24705e-06
1.30641e-06
1.0207e-08
7.44575e-07
3.75245e-09
1.25656e-07
-3.41088e-09
-2.62473e-07
1.4829e-08
-5.36565e-07
5.72821e-08
-7.16292e-07
1.18144e-07
-8.09507e-07
1.95977e-07
-8.53887e-07
2.91833e-07
-8.74705e-07
4.02302e-07
-8.67963e-07
5.20627e-07
-8.30763e-07
6.4338e-07
-7.83137e-07
7.68124e-07
-7.38684e-07
8.85751e-07
-6.84819e-07
9.85063e-07
-6.1895e-07
1.05471e-06
-5.30634e-07
1.08415e-06
-3.75422e-07
1.08763e-06
-6.02236e-08
1.15865e-06
5.45753e-07
1.3118e-06
1.20509e-06
1.39742e-06
1.53456e-06
1.26283e-06
1.57202e-06
8.43689e-07
1.66619e-06
2.1501e-06
1.18715e-08
7.32704e-07
-1.10196e-08
1.48549e-07
-4.0597e-08
-2.32896e-07
-4.98123e-08
-5.27348e-07
-3.65264e-08
-7.29577e-07
-4.65037e-09
-8.4138e-07
4.72868e-08
-9.05821e-07
1.23268e-07
-9.50683e-07
2.2059e-07
-9.65283e-07
3.31479e-07
-9.4165e-07
4.5264e-07
-9.04297e-07
5.82102e-07
-8.68145e-07
7.09218e-07
-8.11933e-07
8.2226e-07
-7.3199e-07
9.12712e-07
-6.21085e-07
9.77055e-07
-4.39763e-07
1.03484e-06
-1.18004e-07
1.15564e-06
4.24948e-07
1.34693e-06
1.01379e-06
1.49523e-06
1.38626e-06
1.46933e-06
1.59792e-06
1.09794e-06
2.03758e-06
3.24805e-06
4.1009e-09
7.28604e-07
-4.76909e-08
2.00343e-07
-9.73989e-08
-1.83188e-07
-1.35852e-07
-4.88895e-07
-1.52444e-07
-7.12986e-07
-1.49478e-07
-8.44346e-07
-1.2254e-07
-9.3276e-07
-6.56361e-08
-1.00759e-06
1.87507e-08
-1.04967e-06
1.22918e-07
-1.04582e-06
2.43355e-07
-1.02473e-06
3.79288e-07
-1.00408e-06
5.18691e-07
-9.51335e-07
6.49645e-07
-8.62941e-07
7.6636e-07
-7.37796e-07
8.69952e-07
-5.43352e-07
9.81262e-07
-2.29314e-07
1.15125e-06
2.54956e-07
1.38621e-06
7.78829e-07
1.60991e-06
1.16255e-06
1.73259e-06
1.47524e-06
1.57039e-06
2.19978e-06
4.81843e-06
1.78749e-06
-1.78749e-06
3.89731e-06
-2.10982e-06
5.37446e-06
-1.47715e-06
6.24682e-06
-8.72356e-07
6.62259e-06
-3.75766e-07
6.5119e-06
1.10687e-07
5.772e-06
7.39905e-07
4.2895e-06
1.48251e-06
2.69578e-06
1.59372e-06
2.092e-06
6.0378e-07
1.80207e-06
2.89929e-07
5.69922e-07
1.23215e-06
-3.18483e-07
8.88405e-07
2.52152e-07
-5.70636e-07
2.15368e-06
-1.90153e-06
3.60084e-06
-1.44715e-06
3.21253e-06
3.88306e-07
1.35232e-06
1.86021e-06
1.35231e-06
2.2047e-06
-3.99219e-06
3.68163e-06
-3.58675e-06
4.65911e-06
-2.45463e-06
5.24293e-06
-1.45618e-06
5.52274e-06
-6.55577e-07
5.47496e-06
1.58472e-07
4.8713e-06
1.34357e-06
3.77771e-06
2.5761e-06
2.68486e-06
2.68656e-06
1.95568e-06
1.33295e-06
1.43257e-06
8.13035e-07
8.1088e-07
1.85384e-06
4.04363e-07
1.29492e-06
6.7413e-07
-8.40399e-07
1.68037e-06
-2.90777e-06
2.70234e-06
-2.46912e-06
2.57286e-06
5.17776e-07
1.40506e-06
3.02802e-06
2.75737e-06
2.10574e-06
-6.09793e-06
3.30388e-06
-4.78489e-06
4.06338e-06
-3.21413e-06
4.50374e-06
-1.89654e-06
4.7198e-06
-8.71633e-07
4.65719e-06
2.21078e-07
4.1277e-06
1.87305e-06
3.32688e-06
3.37691e-06
2.55864e-06
3.4548e-06
1.85778e-06
2.03382e-06
1.3442e-06
1.32661e-06
1.06754e-06
2.1305e-06
8.69342e-07
1.49312e-06
9.36768e-07
-9.0782e-07
1.23158e-06
-3.20259e-06
1.96389e-06
-3.20142e-06
2.17923e-06
3.02431e-07
1.30574e-06
3.90152e-06
4.06311e-06
1.76289e-06
-7.86083e-06
2.84822e-06
-5.87021e-06
3.51468e-06
-3.88059e-06
3.87999e-06
-2.26185e-06
4.06583e-06
-1.05748e-06
4.03543e-06
2.51478e-07
3.61116e-06
2.29731e-06
3.04233e-06
3.94575e-06
2.49683e-06
4.00029e-06
1.87046e-06
2.66019e-06
1.41208e-06
1.78499e-06
1.34013e-06
2.20245e-06
1.27393e-06
1.55931e-06
1.06698e-06
-7.0086e-07
8.42259e-07
-2.97788e-06
1.20312e-06
-3.56228e-06
1.8842e-06
-3.78649e-07
1.44879e-06
4.33692e-06
5.5119e-06
1.38692e-06
-9.24775e-06
2.42291e-06
-6.9062e-06
3.02993e-06
-4.48762e-06
3.33405e-06
-2.56596e-06
3.5037e-06
-1.22713e-06
3.5359e-06
2.1928e-07
3.24384e-06
2.58937e-06
2.86458e-06
4.32501e-06
2.49845e-06
4.36642e-06
1.98885e-06
3.16979e-06
1.6221e-06
2.15173e-06
1.63944e-06
2.18511e-06
1.59244e-06
1.6063e-06
1.15178e-06
-2.602e-07
5.68386e-07
-2.3945e-06
4.56846e-07
-3.45074e-06
1.32603e-06
-1.24784e-06
1.7719e-06
3.89105e-06
7.2838e-06
1.13602e-06
-1.03838e-05
2.12062e-06
-7.8908e-06
2.63543e-06
-5.00243e-06
2.85884e-06
-2.78936e-06
3.00523e-06
-1.37352e-06
3.11387e-06
1.10652e-07
2.97529e-06
2.72795e-06
2.77764e-06
4.52267e-06
2.57219e-06
4.57187e-06
2.21046e-06
3.53152e-06
1.95522e-06
2.40698e-06
1.97778e-06
2.16256e-06
1.85839e-06
1.72569e-06
1.2737e-06
3.24487e-07
4.40905e-07
-1.56171e-06
-8.67719e-08
-2.92307e-06
3.95313e-07
-1.72993e-06
1.70891e-06
2.57745e-06
8.99271e-06
1.23704e-06
-1.16208e-05
2.0088e-06
-8.66254e-06
2.34565e-06
-5.33928e-06
2.45307e-06
-2.89678e-06
2.54445e-06
-1.4649e-06
2.72226e-06
-6.71541e-08
2.74392e-06
2.70629e-06
2.7914e-06
4.47519e-06
2.73217e-06
4.6311e-06
2.49541e-06
3.76827e-06
2.37573e-06
2.52666e-06
2.34906e-06
2.18923e-06
2.13862e-06
1.93613e-06
1.46311e-06
9.99996e-07
4.71678e-07
-5.70279e-07
-3.76077e-07
-2.07531e-06
-5.04109e-07
-1.6019e-06
6.2799e-07
1.44535e-06
9.6207e-06
2.048e-06
-1.36688e-05
2.11802e-06
-8.73255e-06
2.15698e-06
-5.37824e-06
2.11548e-06
-2.85528e-06
2.12966e-06
-1.47908e-06
2.30254e-06
-2.40035e-07
2.54414e-06
2.46468e-06
2.84852e-06
4.17081e-06
2.94098e-06
4.53864e-06
2.87975e-06
3.82951e-06
2.82883e-06
2.57757e-06
2.72651e-06
2.29155e-06
2.44918e-06
2.21346e-06
1.73547e-06
1.71371e-06
6.68417e-07
4.96769e-07
-3.84328e-07
-1.02257e-06
-1.11612e-06
-8.70114e-07
-1.09187e-06
1.4211e-06
8.52883e-06
3.56471e-08
6.92959e-07
-1.78387e-07
4.14379e-07
-4.10496e-07
4.89251e-08
-6.13708e-07
-2.85678e-07
-7.5204e-07
-5.74646e-07
-8.42258e-07
-7.54121e-07
-8.69764e-07
-9.05246e-07
-8.08759e-07
-1.06859e-06
-6.63663e-07
-1.19476e-06
-4.61024e-07
-1.24846e-06
-2.06668e-07
-1.27909e-06
1.08078e-07
-1.31883e-06
4.50538e-07
-1.2938e-06
7.95519e-07
-1.20792e-06
1.13964e-06
-1.08192e-06
1.49434e-06
-8.98053e-07
1.89575e-06
-6.30727e-07
2.42274e-06
-2.72037e-07
3.08478e-06
1.16789e-07
3.84789e-06
3.99443e-07
4.76181e-06
5.61326e-07
6.26317e-06
6.98414e-07
9.67039e-07
1.01146e-05
-1.22342e-07
8.15302e-07
-4.95768e-07
7.87804e-07
-8.58067e-07
4.11223e-07
-1.11096e-06
-3.27872e-08
-1.35379e-06
-3.31816e-07
-1.54926e-06
-5.58662e-07
-1.65635e-06
-7.98155e-07
-1.65034e-06
-1.0746e-06
-1.53648e-06
-1.30863e-06
-1.34303e-06
-1.44191e-06
-1.07517e-06
-1.54695e-06
-7.37049e-07
-1.65694e-06
-3.41118e-07
-1.68972e-06
8.29852e-08
-1.63202e-06
5.45936e-07
-1.54487e-06
1.05937e-06
-1.41149e-06
1.6556e-06
-1.22695e-06
2.36036e-06
-9.76797e-07
3.19697e-06
-7.19821e-07
4.16863e-06
-5.72219e-07
5.34979e-06
-6.19831e-07
6.86277e-06
-8.14567e-07
-1.26284e-06
9.09266e-06
-1.10364e-06
1.91894e-06
-9.72115e-07
6.56286e-07
-1.18871e-06
6.27832e-07
-1.85433e-06
6.32846e-07
-2.47709e-06
2.90967e-07
-2.7109e-06
-3.24838e-07
-2.67209e-06
-8.36942e-07
-2.63842e-06
-1.10827e-06
-2.54093e-06
-1.4061e-06
-2.19968e-06
-1.78316e-06
-1.77045e-06
-1.97618e-06
-1.37239e-06
-2.055e-06
-9.27456e-07
-2.13467e-06
-4.24566e-07
-2.13492e-06
1.31396e-07
-2.10084e-06
7.57728e-07
-2.03783e-06
1.50213e-06
-1.97136e-06
2.36692e-06
-1.84159e-06
3.3906e-06
-1.7435e-06
4.55123e-06
-1.73285e-06
5.82647e-06
-1.89508e-06
7.21954e-06
-2.20765e-06
-2.78997e-06
8.74668e-06
-7.26645e-06
9.18537e-06
-1.81258e-07
-6.42888e-06
1.69724e-06
-1.2507e-06
-1.58444e-06
3.91457e-06
-4.93614e-06
3.64265e-06
-4.26889e-06
-9.92132e-07
-2.90682e-06
-2.19904e-06
-2.9068e-06
-1.10829e-06
-3.79783e-06
-5.15053e-07
-2.67143e-06
-2.90957e-06
-1.72195e-06
-2.92567e-06
-1.53309e-06
-2.24386e-06
-1.21297e-06
-2.45479e-06
-7.58769e-07
-2.58911e-06
-1.77872e-07
-2.68172e-06
5.96258e-07
-2.81194e-06
1.54422e-06
-2.9193e-06
2.43914e-06
-2.73651e-06
3.80466e-06
-3.109e-06
5.55085e-06
-3.47904e-06
6.90931e-06
-3.25353e-06
7.81986e-06
-3.11821e-06
-3.87214e-06
8.90201e-06
-3.50792e-06
1.26934e-05
5.91631e-06
-1.58531e-05
1.06042e-05
-5.93857e-06
-2.64574e-06
1.71645e-05
-1.6226e-05
1.72229e-05
-1.44597e-05
-2.75838e-06
-9.80665e-06
-6.85204e-06
-6.83727e-06
-4.07767e-06
-6.811e-06
-5.41275e-07
-3.42221e-06
-6.29834e-06
-5.4198e-07
-5.8059e-06
1.28332e-06
-4.06918e-06
2.87361e-06
-4.04507e-06
3.62806e-06
-3.34355e-06
4.94507e-06
-3.99873e-06
6.83825e-06
-4.70511e-06
8.04368e-06
-4.12475e-06
6.88621e-06
-1.57905e-06
7.6294e-06
-3.85221e-06
1.04076e-05
-6.25723e-06
1.1095e-05
-3.94102e-06
5.9144e-06
2.06246e-06
-3.65399e-06
5.69637e-06
8.10868e-06
4.58475e-06
4.37863e-06
-1.2123e-05
4.77264e-06
-6.33251e-06
2.25936e-06
1.96777e-05
-1.27922e-06
2.07614e-05
-3.0591e-06
-9.78451e-07
-1.71241e-06
-8.19869e-06
8.43102e-07
-6.63319e-06
2.50253e-06
-2.2007e-06
1.82745e-06
-5.62326e-06
2.09872e-06
-6.07719e-06
3.24285e-06
-5.21334e-06
3.76601e-06
-4.56826e-06
5.12277e-06
-4.70034e-06
7.10895e-06
-5.98493e-06
9.94214e-06
-7.53833e-06
1.3413e-05
-7.59559e-06
1.4025e-05
-2.19111e-06
1.26767e-05
-2.50389e-06
1.3259e-05
-6.83953e-06
1.21974e-05
-2.87946e-06
5.28156e-06
8.97807e-06
-4.31834e-06
5.94598e-06
6.0038e-06
-1.41907e-06
-2.57773e-06
-3.54147e-06
-4.8846e-06
-4.02558e-06
4.07428e-06
1.07188e-05
1.30433e-05
1.17924e-05
1.08534e-05
1.21144e-06
8.06618e-06
-5.41146e-06
7.59691e-06
-6.16392e-06
8.49656e-06
-3.10035e-06
5.4462e-06
-2.57288e-06
3.62375e-06
-4.25474e-06
3.32513e-06
-4.91473e-06
2.85259e-06
-4.09572e-06
3.58917e-06
-5.4369e-06
5.06631e-06
-7.46205e-06
6.5914e-06
-9.06345e-06
9.24274e-06
-1.02469e-05
1.47299e-05
-7.67822e-06
1.66242e-05
-4.3982e-06
1.40192e-05
-4.23445e-06
1.00247e-05
1.1151e-06
1.09962e-05
8.00655e-06
-3.06339e-06
9.74125e-06
2.8805e-06
-4.2996e-06
-4.00781e-06
3.34684e-06
-4.67854e-06
-3.3549e-06
4.90703e-06
1.13326e-06
1.54003e-05
1.29912e-06
1.86449e-05
-2.03321e-06
1.40862e-05
-8.52734e-07
9.90516e-06
-1.98276e-06
8.17913e-06
-1.37423e-06
6.94043e-06
-1.33413e-06
4.97712e-06
-2.29142e-06
3.0039e-06
-2.94152e-06
2.01483e-06
-3.10665e-06
1.70674e-06
-5.1288e-06
1.8915e-06
-7.64679e-06
2.1608e-06
-9.33276e-06
3.51267e-06
-1.15988e-05
6.74939e-06
-1.09149e-05
1.12168e-05
-8.86558e-06
1.36418e-05
-6.65946e-06
1.37044e-05
1.05271e-06
1.50224e-05
6.68856e-06
2.19408e-06
9.76494e-06
1.3197e-06
-5.61922e-06
3.28959e-06
1.37706e-06
2.42266e-06
-2.48801e-06
6.78445e-06
-3.22847e-06
1.21883e-05
-4.10477e-06
1.26031e-05
-2.44801e-06
1.13421e-05
4.08242e-07
8.93578e-06
4.23633e-07
7.28242e-06
2.79197e-07
5.92352e-06
2.47906e-08
4.47073e-06
-8.3865e-07
3.18317e-06
-1.65393e-06
2.6923e-06
-2.6157e-06
2.22922e-06
-4.66567e-06
1.2823e-06
-6.6999e-06
9.19217e-07
-8.96967e-06
4.94795e-07
-1.11744e-05
1.22733e-06
-1.16474e-05
3.84046e-06
-1.14787e-05
6.1847e-06
-9.00384e-06
8.45336e-06
-1.21589e-06
9.23165e-06
5.91033e-06
5.57856e-06
5.8471e-06
2.09474e-06
-7.7139e-06
5.6098e-06
-2.13802e-06
6.18232e-06
-3.06054e-06
6.74931e-06
-3.79549e-06
6.33007e-06
-3.68558e-06
5.75857e-06
-1.87656e-06
5.5909e-06
5.75909e-07
4.75317e-06
1.26143e-06
3.84514e-06
1.18728e-06
3.10011e-06
7.69801e-07
2.30633e-06
-4.4948e-08
1.70268e-06
-1.05032e-06
1.43417e-06
-2.34714e-06
1.02112e-06
-4.25255e-06
6.3454e-07
-6.31336e-06
3.63947e-08
-8.37164e-06
-9.5252e-07
-1.01855e-05
-1.85691e-06
-1.07429e-05
-2.16702e-06
-1.11685e-05
-2.21649e-06
-8.9545e-06
-9.49387e-07
-2.4831e-06
4.28616e-07
4.53237e-06
5.90735e-06
9.99684e-08
9.23536e-07
-8.6374e-06
2.82544e-06
-4.03994e-06
3.05541e-06
-3.29049e-06
2.4176e-06
-3.15777e-06
1.29022e-06
-2.55827e-06
4.09558e-07
-9.95916e-07
1.89022e-07
7.96471e-07
-4.83228e-08
1.49884e-06
-3.86488e-07
1.52548e-06
-7.02411e-07
1.0857e-06
-1.02766e-06
2.80239e-07
-1.26992e-06
-8.08099e-07
-1.41082e-06
-2.2062e-06
-1.67061e-06
-3.99267e-06
-2.10242e-06
-5.88147e-06
-2.81035e-06
-7.6637e-06
-3.92863e-06
-9.06724e-06
-4.98472e-06
-9.68692e-06
-6.68078e-06
-9.47234e-06
-8.41064e-06
-7.22459e-06
-8.32309e-06
-2.57073e-06
-6.47993e-06
2.6891e-06
4.8451e-06
-5.41782e-06
-8.11832e-07
-7.82556e-06
-6.40446e-07
-4.21126e-06
-1.05716e-06
-2.87376e-06
-2.035e-06
-2.17999e-06
-3.22699e-06
-1.36634e-06
-4.0742e-06
-1.48691e-07
-4.31635e-06
1.0387e-06
-4.42159e-06
1.60419e-06
-4.50281e-06
1.60678e-06
-4.57685e-06
1.1598e-06
-4.64887e-06
3.52305e-07
-4.70591e-06
-7.51005e-07
-4.778e-06
-2.13408e-06
-5.01646e-06
-3.7542e-06
-5.49298e-06
-5.40489e-06
-6.27764e-06
-6.8789e-06
-7.41078e-06
-7.93401e-06
-8.81592e-06
-8.28175e-06
-1.05472e-05
-7.74104e-06
-1.20166e-05
-5.75514e-06
-1.22949e-05
-2.29232e-06
-1.09756e-05
1.36978e-06
3.4644e-06
-9.59488e-06
-2.26369e-06
-5.56182e-06
-3.40899e-06
-3.06582e-06
-4.47606e-06
-1.80672e-06
-5.65465e-06
-1.00142e-06
-6.78389e-06
-2.37148e-07
-7.55898e-06
6.26405e-07
-7.89067e-06
1.37046e-06
-7.99423e-06
1.70783e-06
-7.99783e-06
1.61041e-06
-7.96269e-06
1.12462e-06
-7.92136e-06
3.10958e-07
-7.8996e-06
-7.72705e-07
-7.95867e-06
-2.07496e-06
-8.2019e-06
-3.51102e-06
-8.69333e-06
-4.91353e-06
-9.47548e-06
-6.0967e-06
-1.05519e-05
-6.85757e-06
-1.1846e-05
-6.98761e-06
-1.32539e-05
-6.33311e-06
-1.4337e-05
-4.67216e-06
-1.44794e-05
-2.14996e-06
-1.35772e-05
4.676e-07
2.2447e-06
-1.23574e-05
-3.19461e-06
-2.36717e-06
-5.21769e-06
-1.0427e-06
-6.7932e-06
-2.31312e-07
-8.15262e-06
3.57911e-07
-9.2758e-06
8.8593e-07
-1.00471e-05
1.39767e-06
-1.045e-05
1.77334e-06
-1.06042e-05
1.86199e-06
-1.06153e-05
1.62156e-06
-1.05577e-05
1.06679e-06
-1.04858e-05
2.38951e-07
-1.04504e-05
-8.0818e-07
-1.05162e-05
-2.00915e-06
-1.07585e-05
-3.26881e-06
-1.12247e-05
-4.44738e-06
-1.19321e-05
-5.38943e-06
-1.28535e-05
-5.93613e-06
-1.3898e-05
-5.94309e-06
-1.49192e-05
-5.31185e-06
-1.56059e-05
-3.9855e-06
-1.56229e-05
-2.13304e-06
-1.49367e-05
-2.186e-07
1.238e-06
-1.393e-05
-3.65301e-06
1.28591e-06
-6.17041e-06
1.47465e-06
-8.07436e-06
1.6726e-06
-9.58007e-06
1.86351e-06
-1.07416e-05
2.04735e-06
-1.15439e-05
2.19991e-06
-1.20111e-05
2.24062e-06
-1.22279e-05
2.07884e-06
-1.22822e-05
1.67589e-06
-1.22495e-05
1.034e-06
-1.21937e-05
1.83031e-07
-1.21739e-05
-8.28019e-07
-1.22505e-05
-1.93257e-06
-1.24786e-05
-3.0406e-06
-1.2889e-05
-4.03703e-06
-1.348e-05
-4.79839e-06
-1.42095e-05
-5.20663e-06
-1.49864e-05
-5.16623e-06
-1.56723e-05
-4.6258e-06
-1.60624e-05
-3.5954e-06
-1.59752e-05
-2.22023e-06
-1.54055e-05
-7.88266e-07
4.04226e-07
-1.45718e-05
-3.74607e-06
5.03206e-06
-6.46055e-06
4.18909e-06
-8.52408e-06
3.73616e-06
-1.01133e-05
3.45266e-06
-1.13087e-05
3.24273e-06
-1.21431e-05
3.0344e-06
-1.26621e-05
2.75964e-06
-1.29369e-05
2.3537e-06
-1.3044e-05
1.78305e-06
-1.30551e-05
1.04509e-06
-1.30345e-05
1.62497e-07
-1.30407e-05
-8.21835e-07
-1.31259e-05
-1.84734e-06
-1.33304e-05
-2.836e-06
-1.36716e-05
-3.6958e-06
-1.41374e-05
-4.33244e-06
-1.46825e-05
-4.66156e-06
-1.52261e-05
-4.62264e-06
-1.56575e-05
-4.19431e-06
-1.58445e-05
-3.40844e-06
-1.56877e-05
-2.37701e-06
-1.51943e-05
-1.28175e-06
-2.99114e-07
-1.44909e-05
-3.57666e-06
8.6087e-06
-6.27295e-06
6.88536e-06
-8.34952e-06
5.8127e-06
-9.94639e-06
5.04949e-06
-1.11417e-05
4.43806e-06
-1.19877e-05
3.88035e-06
-1.25378e-05
3.30978e-06
-1.28564e-05
2.67232e-06
-1.30113e-05
1.93798e-06
-1.3068e-05
1.10174e-06
-1.30863e-05
1.80794e-07
-1.31191e-05
-7.89065e-07
-1.32098e-05
-1.75662e-06
-1.33877e-05
-2.65809e-06
-1.36612e-05
-3.42223e-06
-1.40143e-05
-3.97928e-06
-1.4405e-05
-4.2708e-06
-1.47676e-05
-4.26005e-06
-1.50199e-05
-3.94205e-06
-1.50767e-05
-3.35171e-06
-1.48821e-05
-2.57157e-06
-1.4445e-05
-1.71884e-06
-9.04233e-07
-1.38399e-05
-3.23231e-06
1.18409e-05
-5.75356e-06
9.40659e-06
-7.72878e-06
7.7878e-06
-9.25836e-06
6.57899e-06
-1.04087e-05
5.58837e-06
-1.12354e-05
4.70704e-06
-1.17917e-05
3.86598e-06
-1.21351e-05
3.01579e-06
-1.23256e-05
2.12838e-06
-1.24208e-05
1.19692e-06
-1.24737e-05
2.33692e-07
-1.25298e-05
-7.33017e-07
-1.26242e-05
-1.66229e-06
-1.2778e-05
-2.50438e-06
-1.29944e-05
-3.20584e-06
-1.32571e-05
-3.71658e-06
-1.35306e-05
-3.99726e-06
-1.3764e-05
-4.02666e-06
-1.38982e-05
-3.80786e-06
-1.38779e-05
-3.37211e-06
-1.36701e-05
-2.77931e-06
-1.32817e-05
-2.10729e-06
-1.42907e-06
-1.27569e-05
-2.78317e-06
1.46241e-05
-5.01957e-06
1.16429e-05
-6.80399e-06
9.57212e-06
-8.20096e-06
7.9759e-06
-9.263e-06
6.65037e-06
-1.00389e-05
5.48289e-06
-1.05761e-05
4.40315e-06
-1.09246e-05
3.36434e-06
-1.11358e-05
2.33953e-06
-1.12591e-05
1.32022e-06
-1.13395e-05
3.14088e-07
-1.14147e-05
-6.57849e-07
-1.15124e-05
-1.5646e-06
-1.16478e-05
-2.36902e-06
-1.18213e-05
-3.03237e-06
-1.20181e-05
-3.51975e-06
-1.22098e-05
-3.8056e-06
-1.23579e-05
-3.87861e-06
-1.24203e-05
-3.74543e-06
-1.23604e-05
-3.43206e-06
-1.21576e-05
-2.98212e-06
-1.18159e-05
-2.44902e-06
-1.8833e-06
-1.13617e-05
-2.27555e-06
1.68997e-05
-4.15707e-06
1.35244e-05
-5.68475e-06
1.10998e-05
-6.89937e-06
9.19053e-06
-7.83724e-06
7.58823e-06
-8.53502e-06
6.18065e-06
-9.03121e-06
4.8993e-06
-9.36697e-06
3.70009e-06
-9.58469e-06
2.55725e-06
-9.72532e-06
1.46086e-06
-9.82571e-06
4.14519e-07
-9.91612e-06
-5.67396e-07
-1.00179e-05
-1.46275e-06
-1.01418e-05
-2.24507e-06
-1.02868e-05
-2.88738e-06
-1.04402e-05
-3.36633e-06
-1.05797e-05
-3.6661e-06
-1.06766e-05
-3.78172e-06
-1.07009e-05
-3.72115e-06
-1.06274e-05
-3.50552e-06
-1.04425e-05
-3.1671e-06
-1.01476e-05
-2.74387e-06
-2.2724e-06
-9.75858e-06
-1.73667e-06
1.86363e-05
-3.22303e-06
1.50106e-05
-4.45448e-06
1.23313e-05
-5.45402e-06
1.01901e-05
-6.24229e-06
8.37652e-06
-6.84181e-06
6.78015e-06
-7.28008e-06
5.33753e-06
-7.58871e-06
4.00868e-06
-7.80107e-06
2.76958e-06
-7.94966e-06
1.60946e-06
-8.06355e-06
5.28437e-07
-8.16613e-06
-4.64756e-07
-8.27335e-06
-1.35545e-06
-8.39244e-06
-2.1259e-06
-8.52146e-06
-2.7583e-06
-8.64988e-06
-3.23788e-06
-8.76027e-06
-3.5557e-06
-8.83116e-06
-3.71083e-06
-8.84082e-06
-3.7115e-06
-8.77142e-06
-3.57495e-06
-8.61297e-06
-3.32558e-06
-8.36546e-06
-2.9914e-06
-2.6e-06
-8.0379e-06
-1.17904e-06
1.98153e-05
-2.2572e-06
1.60887e-05
-3.17339e-06
1.32475e-05
-3.94289e-06
1.09597e-05
-4.56864e-06
9.00232e-06
-5.05814e-06
7.26965e-06
-5.42755e-06
5.70691e-06
-5.69895e-06
4.28003e-06
-5.89703e-06
2.96763e-06
-6.04627e-06
1.75868e-06
-6.16851e-06
6.50682e-07
-6.281e-06
-3.5224e-07
-6.39497e-06
-1.24144e-06
-6.51482e-06
-2.00601e-06
-6.63795e-06
-2.63514e-06
-6.75548e-06
-3.12035e-06
-6.85367e-06
-3.45751e-06
-6.91627e-06
-3.64825e-06
-6.92712e-06
-3.70067e-06
-6.8731e-06
-3.629e-06
-6.74648e-06
-3.45223e-06
-6.54613e-06
-3.19179e-06
-2.86919e-06
-6.27696e-06
-5.90015e-07
2.04052e-05
-1.27517e-06
1.67738e-05
-1.88841e-06
1.38607e-05
-2.42874e-06
1.15001e-05
-2.89093e-06
9.46453e-06
-3.26656e-06
7.64529e-06
-3.56173e-06
6.00206e-06
-3.78985e-06
4.50811e-06
-3.96764e-06
3.14539e-06
-4.11225e-06
1.90327e-06
-4.23898e-06
7.77393e-07
-4.35961e-06
-2.31615e-07
-4.4813e-06
-1.11976e-06
-4.606e-06
-1.88132e-06
-4.73051e-06
-2.51065e-06
-4.84709e-06
-3.0038e-06
-4.94472e-06
-3.35992e-06
-5.01075e-06
-3.58226e-06
-5.03286e-06
-3.6786e-06
-5.00098e-06
-3.66091e-06
-4.90882e-06
-3.54441e-06
-4.75454e-06
-3.34608e-06
-3.08321e-06
-4.54052e-06
4.18613e-08
2.03633e-05
-2.80523e-07
1.70961e-05
-6.33268e-07
1.42135e-05
-9.6674e-07
1.18335e-05
-1.2725e-06
9.77028e-06
-1.53635e-06
7.90913e-06
-1.75616e-06
6.22186e-06
-1.93811e-06
4.69003e-06
-2.09192e-06
3.29917e-06
-2.22819e-06
2.03951e-06
-2.3564e-06
9.05579e-07
-2.48354e-06
-1.04501e-07
-2.61318e-06
-9.90147e-07
-2.74516e-06
-1.74938e-06
-2.87563e-06
-2.38023e-06
-2.99761e-06
-2.88187e-06
-3.10194e-06
-3.25564e-06
-3.1785e-06
-3.50575e-06
-3.21758e-06
-3.63955e-06
-3.21117e-06
-3.66733e-06
-3.15394e-06
-3.60165e-06
-3.04366e-06
-3.45635e-06
-3.24572e-06
-2.88113e-06
7.13327e-07
1.96499e-05
6.69001e-07
1.71404e-05
5.48972e-07
1.43334e-05
3.94502e-07
1.19879e-05
2.31755e-07
9.93298e-06
7.42925e-08
8.06656e-06
-7.16706e-08
6.36779e-06
-2.06565e-07
4.82489e-06
-3.3414e-07
3.42672e-06
-4.5925e-07
2.1646e-06
-5.86267e-07
1.03258e-06
-7.17955e-07
2.71645e-08
-8.54813e-07
-8.53322e-07
-9.94775e-07
-1.60945e-06
-1.13333e-06
-2.24171e-06
-1.26394e-06
-2.75129e-06
-1.37872e-06
-3.14089e-06
-1.46931e-06
-3.41517e-06
-1.52782e-06
-3.58105e-06
-1.54765e-06
-3.64749e-06
-1.52415e-06
-3.62513e-06
-1.4549e-06
-3.52557e-06
-3.3609e-06
-1.33969e-06
1.20277e-06
1.84471e-05
1.50092e-06
1.68422e-05
1.59619e-06
1.42381e-05
1.60465e-06
1.19794e-05
1.57349e-06
9.96406e-06
1.51676e-06
8.12324e-06
1.44241e-06
6.44209e-06
1.35475e-06
4.91253e-06
1.25518e-06
3.52626e-06
1.14388e-06
2.27589e-06
1.02095e-06
1.1555e-06
8.87302e-07
1.60805e-07
7.45118e-07
-7.11155e-07
5.98135e-07
-1.46249e-06
4.51522e-07
-2.09511e-06
3.11602e-07
-2.61139e-06
1.85382e-07
-3.01467e-06
7.99799e-08
-3.30976e-06
2.02003e-09
-3.50307e-06
-4.29125e-08
-3.60254e-06
-5.06785e-08
-3.61734e-06
-1.87596e-08
-3.55747e-06
-3.43335e-06
5.37046e-08
1.50466e-06
1.69424e-05
2.12825e-06
1.62185e-05
2.44026e-06
1.3926e-05
2.61382e-06
1.18057e-05
2.71139e-06
9.86641e-06
2.75201e-06
8.08255e-06
2.74802e-06
6.44604e-06
2.70823e-06
4.9523e-06
2.63878e-06
3.5957e-06
2.54432e-06
2.37033e-06
2.42893e-06
1.27089e-06
2.2967e-06
2.93025e-07
2.1522e-06
-5.66664e-07
2.00062e-06
-1.31091e-06
1.84775e-06
-1.94225e-06
1.69983e-06
-2.46346e-06
1.56326e-06
-2.87809e-06
1.44426e-06
-3.19075e-06
1.34854e-06
-3.40733e-06
1.28096e-06
-3.53493e-06
1.24527e-06
-3.58164e-06
1.24404e-06
-3.55624e-06
-3.46789e-06
1.27857e-06
1.60688e-06
1.53355e-05
2.50734e-06
1.5318e-05
3.04341e-06
1.33899e-05
3.38999e-06
1.14591e-05
3.61655e-06
9.63978e-06
3.75375e-06
7.94529e-06
3.82019e-06
6.37956e-06
3.82965e-06
4.9428e-06
3.79291e-06
3.63241e-06
3.71877e-06
2.44445e-06
3.61485e-06
1.37479e-06
3.4881e-06
4.19764e-07
3.34513e-06
-4.23711e-07
3.19242e-06
-1.15822e-06
3.03635e-06
-1.78618e-06
2.88313e-06
-2.31024e-06
2.73872e-06
-2.73367e-06
2.60868e-06
-3.06069e-06
2.498e-06
-3.29664e-06
2.411e-06
-3.44792e-06
2.35119e-06
-3.52182e-06
2.32118e-06
-3.52623e-06
-3.46934e-06
2.32261e-06
1.5671e-06
1.37684e-05
2.67222e-06
1.42128e-05
3.41352e-06
1.26485e-05
3.92651e-06
1.0946e-05
4.28029e-06
9.28595e-06
4.51292e-06
7.7126e-06
4.64966e-06
6.24278e-06
4.70956e-06
4.88285e-06
4.70794e-06
3.63401e-06
4.65745e-06
2.4949e-06
4.56891e-06
1.46329e-06
4.45178e-06
5.36865e-07
4.31447e-06
-2.86428e-07
4.16458e-06
-1.00835e-06
4.00898e-06
-1.6306e-06
3.85391e-06
-2.15517e-06
3.70494e-06
-2.5847e-06
3.56707e-06
-2.92282e-06
3.44476e-06
-3.17432e-06
3.34192e-06
-3.34507e-06
3.26187e-06
-3.44178e-06
3.20734e-06
-3.47169e-06
-3.4423e-06
3.18029e-06
1.46573e-06
1.23026e-05
2.69345e-06
1.2985e-05
3.59477e-06
1.17471e-05
4.25086e-06
1.02899e-05
4.71961e-06
8.81715e-06
5.04095e-06
7.39123e-06
5.24453e-06
6.03915e-06
5.35386e-06
4.77349e-06
5.38814e-06
3.59968e-06
5.3634e-06
2.51959e-06
5.29321e-06
1.53344e-06
5.18915e-06
6.40892e-07
5.06115e-06
-1.58465e-07
4.91776e-06
-8.64987e-07
4.76627e-06
-1.47913e-06
4.61286e-06
-2.00177e-06
4.46275e-06
-2.43458e-06
4.32041e-06
-2.78047e-06
4.1898e-06
-3.0437e-06
4.07454e-06
-3.22979e-06
3.97789e-06
-3.3451e-06
3.90272e-06
-3.3965e-06
-3.39096e-06
3.8514e-06
1.36245e-06
1.09401e-05
2.64287e-06
1.17046e-05
3.64847e-06
1.07415e-05
4.41065e-06
9.52768e-06
4.97105e-06
8.25672e-06
5.3665e-06
6.99575e-06
5.62808e-06
5.77754e-06
5.7819e-06
4.61963e-06
5.84994e-06
3.5316e-06
5.85073e-06
2.51876e-06
5.79995e-06
1.58419e-06
5.71083e-06
7.2997e-07
5.59456e-06
-4.22167e-08
5.46041e-06
-7.30853e-07
5.31595e-06
-1.33468e-06
5.16721e-06
-1.85303e-06
5.01896e-06
-2.28631e-06
4.87509e-06
-2.63658e-06
4.7391e-06
-2.90767e-06
4.61433e-06
-3.10499e-06
4.50412e-06
-3.23486e-06
4.41163e-06
-3.30396e-06
-3.31893e-06
4.33963e-06
1.2866e-06
9.65353e-06
2.57363e-06
1.04176e-05
3.63141e-06
9.68376e-06
4.45793e-06
8.70116e-06
5.07971e-06
7.63494e-06
5.52821e-06
6.54723e-06
5.83356e-06
5.47218e-06
6.02262e-06
4.43055e-06
6.11871e-06
3.4355e-06
6.1418e-06
2.49565e-06
6.10891e-06
1.61706e-06
6.03444e-06
8.04423e-07
5.93044e-06
6.17845e-08
5.80671e-06
-6.0712e-07
5.67095e-06
-1.19891e-06
5.52891e-06
-1.71096e-06
5.38469e-06
-2.14207e-06
5.24146e-06
-2.49331e-06
5.10216e-06
-2.76833e-06
4.96999e-06
-2.97278e-06
4.84847e-06
-3.11329e-06
4.74117e-06
-3.19662e-06
-3.22916e-06
4.65145e-06
1.24484e-06
8.40869e-06
2.51547e-06
9.14699e-06
3.5859e-06
8.61335e-06
4.43846e-06
7.84862e-06
5.08993e-06
6.98348e-06
5.56716e-06
6.07002e-06
5.89835e-06
5.141e-06
6.10979e-06
4.21912e-06
6.22487e-06
3.32043e-06
6.26397e-06
2.45655e-06
6.24469e-06
1.63634e-06
6.18207e-06
8.67067e-07
6.08866e-06
1.55215e-07
5.97463e-06
-4.9306e-07
5.84765e-06
-1.07191e-06
5.71299e-06
-1.57626e-06
5.57384e-06
-2.00287e-06
5.43232e-06
-2.35175e-06
5.29073e-06
-2.62669e-06
5.15219e-06
-2.8342e-06
5.02062e-06
-2.98168e-06
4.90025e-06
-3.07622e-06
-3.12395e-06
4.79508e-06
1.23293e-06
7.17577e-06
2.4817e-06
7.89825e-06
3.53998e-06
7.5551e-06
4.38803e-06
7.00061e-06
5.04015e-06
6.33138e-06
5.52153e-06
5.58867e-06
5.859e-06
4.80356e-06
6.07771e-06
4.00045e-06
6.20024e-06
3.19793e-06
6.24655e-06
2.41028e-06
6.23411e-06
1.64882e-06
6.17808e-06
9.23138e-07
6.09129e-06
2.42043e-07
5.98413e-06
-3.85858e-07
5.86422e-06
-9.51956e-07
5.73616e-06
-1.44816e-06
5.60181e-06
-1.86848e-06
5.46179e-06
-2.21169e-06
5.3176e-06
-2.48248e-06
5.17251e-06
-2.68908e-06
5.03117e-06
-2.84032e-06
4.8987e-06
-2.94374e-06
-3.00512e-06
4.77986e-06
1.24494e-06
5.93085e-06
2.47905e-06
6.66417e-06
3.51279e-06
6.52139e-06
4.33357e-06
6.17985e-06
4.96125e-06
5.70373e-06
5.42373e-06
5.12623e-06
5.74802e-06
4.47932e-06
5.95815e-06
3.79035e-06
6.07536e-06
3.08077e-06
6.11846e-06
2.36722e-06
6.10421e-06
1.66311e-06
6.04746e-06
9.7993e-07
5.96113e-06
3.28412e-07
5.85587e-06
-2.80567e-07
5.7394e-06
-8.35454e-07
5.61563e-06
-1.32436e-06
5.48443e-06
-1.73726e-06
5.34423e-06
-2.07148e-06
5.19566e-06
-2.3339e-06
5.04255e-06
-2.53597e-06
4.89079e-06
-2.68858e-06
4.7467e-06
-2.79967e-06
-2.87429e-06
4.61582e-06
1.27866e-06
4.65221e-06
2.51438e-06
5.42847e-06
3.51905e-06
5.51675e-06
4.29493e-06
5.40399e-06
4.87631e-06
5.12239e-06
5.29898e-06
4.7036e-06
5.59199e-06
4.18634e-06
5.77846e-06
3.60393e-06
5.87772e-06
2.98154e-06
5.90681e-06
2.33816e-06
5.88116e-06
1.68879e-06
5.81491e-06
1.04621e-06
5.72094e-06
4.224e-07
5.61045e-06
-1.70057e-07
5.49177e-06
-7.16764e-07
5.36839e-06
-1.20098e-06
5.23728e-06
-1.60615e-06
5.09347e-06
-1.92769e-06
4.93697e-06
-2.17742e-06
4.77308e-06
-2.37211e-06
4.60964e-06
-2.52518e-06
4.45441e-06
-2.64449e-06
-2.73347e-06
4.31353e-06
1.33518e-06
3.31704e-06
2.5939e-06
4.16978e-06
3.56846e-06
4.5422e-06
4.28378e-06
4.6887e-06
4.79909e-06
4.60711e-06
5.16375e-06
4.33897e-06
5.41029e-06
3.93984e-06
5.5605e-06
3.45373e-06
5.6311e-06
2.91097e-06
5.6365e-06
2.33277e-06
5.59012e-06
1.73519e-06
5.50489e-06
1.13145e-06
5.39355e-06
5.33737e-07
5.26832e-06
-4.48432e-08
5.13939e-06
-5.87851e-07
5.01087e-06
-1.07248e-06
4.87506e-06
-1.47037e-06
4.7218e-06
-1.77448e-06
4.55169e-06
-2.00735e-06
4.37318e-06
-2.19365e-06
4.19691e-06
-2.34897e-06
4.03191e-06
-2.47955e-06
-2.58589e-06
3.88427e-06
1.41735e-06
1.89971e-06
2.71854e-06
2.86862e-06
3.66008e-06
3.60068e-06
4.29785e-06
4.05095e-06
4.72966e-06
4.17532e-06
5.02317e-06
4.04549e-06
5.21377e-06
3.74925e-06
5.32036e-06
3.34715e-06
5.35572e-06