/*--------------------------------*- C++ -*----------------------------------*\
  =========                 |
  \\      /  F ield         | OpenFOAM: The Open Source CFD Toolbox
   \\    /   O peration     | Website:  https://openfoam.org
    \\  /    A nd           | Version:  9
     \\/     M anipulation  |
\*---------------------------------------------------------------------------*/
FoamFile
{
    format      ascii;
    class       volScalarField;
    location    "3.91";
    object      k;
}
// * * * * * * * * * * * * * * * * * * * * * * * * * * * * * * * * * * * * * //

dimensions      [0 2 -2 0 0 0 0];

internalField   nonuniform List<scalar> 
2268
(
0.000598995
0.0014681
0.00212525
0.00262537
0.00302144
0.00334088
0.00360058
0.0038121
0.00398424
0.00412459
0.00423995
0.00433571
0.00441992
0.00449371
0.00454143
0.00453803
0.00441744
0.00406359
0.00367658
0.00338021
0.00303312
0.00230461
0.000912397
0.00127465
0.0033616
0.00471984
0.00576829
0.00660288
0.00727674
0.00782457
0.00827104
0.00863533
0.00893386
0.00918092
0.00938735
0.00955806
0.00968915
0.00976066
0.00972977
0.00951322
0.00899398
0.00825157
0.00760176
0.00675698
0.00515591
0.00219224
0.00178858
0.00446437
0.00613591
0.0074301
0.00846651
0.00930629
0.00999019
0.0105483
0.0110044
0.0113787
0.0116883
0.0119452
0.0121543
0.0123104
0.0123902
0.0123495
0.012118
0.0116217
0.0108949
0.010096
0.00898628
0.00700115
0.0030942
0.00222042
0.00533203
0.00721218
0.00866308
0.00982872
0.0107758
0.0115485
0.0121802
0.0126977
0.0131236
0.0134764
0.013769
0.0140063
0.0141826
0.0142742
0.0142407
0.0140282
0.013592
0.0129337
0.0121058
0.0108714
0.00866555
0.00394027
0.00259339
0.00608657
0.00813653
0.0097068
0.0109687
0.0119954
0.0128343
0.0135212
0.0140852
0.0145508
0.0149377
0.0152598
0.015522
0.015719
0.0158286
0.0158158
0.0156408
0.015276
0.0147096
0.0139102
0.0126457
0.0103158
0.00483875
0.00292672
0.00677174
0.00897368
0.0106442
0.0119838
0.0130735
0.0139644
0.0146949
0.0152959
0.0157936
0.0162089
0.0165566
0.0168426
0.0170624
0.0171962
0.017215
0.0170895
0.0168004
0.0163263
0.0155976
0.0143832
0.0120414
0.00599183
0.00323391
0.00741025
0.00975415
0.0115139
0.0129189
0.0140602
0.0149933
0.0157589
0.0163898
0.0169137
0.0173532
0.017724
0.0180334
0.0182787
0.0184426
0.0185017
0.0184341
0.0182234
0.0178419
0.0172105
0.0161174
0.0139306
0.00782132
0.00352438
0.00801695
0.0104956
0.0123368
0.0137984
0.0149825
0.01595
0.0167441
0.0173993
0.0179449
0.018405
0.0187968
0.0191298
0.0194035
0.0196028
0.0197092
0.0197057
0.0195763
0.0192899
0.0187722
0.0178543
0.0160453
0.0111207
0.00062135
0.00196318
0.00264614
0.00297694
0.00311463
0.00313181
0.00310542
0.00307852
0.00309918
0.00314085
0.00296449
0.0026714
0.00254252
0.00285062
0.00320616
0.00311838
0.0025416
0.00174849
0.0009276
0.00152789
0.00425482
0.0056627
0.006396
0.00673076
0.0068261
0.00678971
0.00674312
0.0067387
0.00668475
0.00639096
0.00586028
0.00567185
0.00609294
0.0062214
0.00582423
0.00482323
0.00326599
0.00155488
0.00218652
0.00560065
0.00734139
0.00823866
0.0086502
0.00877785
0.0087505
0.00868155
0.00862259
0.00849297
0.00816032
0.0076715
0.00746756
0.00765245
0.007562
0.00697285
0.00580825
0.00410248
0.00191537
0.00283359
0.00682669
0.00873183
0.00968156
0.0101096
0.0102391
0.0102036
0.0101072
0.00999757
0.00981108
0.00946134
0.00901326
0.00877212
0.00875279
0.00847804
0.0077176
0.00643752
0.0046507
0.00216636
0.00357497
0.00811903
0.0100624
0.0109847
0.0113863
0.0114946
0.0114365
0.0113071
0.0111492
0.0109183
0.0105562
0.0101262
0.0098306
0.00964889
0.00922275
0.00830513
0.00689909
0.0050331
0.00235216
0.00461053
0.0095671
0.0114067
0.0122322
0.0125738
0.012643
0.0125511
0.0123836
0.0121785
0.0119086
0.0115307
0.0110958
0.0107351
0.0104252
0.00987559
0.00881525
0.00725572
0.0053011
0.00248886
0.00633368
0.0112277
0.0127873
0.0134561
0.0137124
0.0137293
0.0135952
0.0133851
0.0131323
0.0128219
0.0124228
0.0119648
0.0115364
0.0111226
0.0104719
0.00928168
0.00753984
0.00549689
0.00258155
0.00949896
0.0130928
0.0141941
0.0146656
0.0148201
0.0147763
0.0145948
0.0143382
0.014036
0.013682
0.0132536
0.0127619
0.0122697
0.0117692
0.0110327
0.00971907
0.00777024
0.00564914
0.00262592
0.00396883
0.00893278
0.0116119
0.013571
0.015109
0.0163485
0.0173602
0.0181906
0.0188761
0.0194495
0.0199371
0.0203589
0.0207269
0.0210435
0.0212993
0.0214828
0.0215827
0.0215821
0.0214437
0.0211007
0.020441
0.0192118
0.0166473
0.00450245
0.0100556
0.0129915
0.0151011
0.0167168
0.0180084
0.0190653
0.0199328
0.0206475
0.0212492
0.0217687
0.0222308
0.0226519
0.0230371
0.0233847
0.0236902
0.0239501
0.0241469
0.0242384
0.0241684
0.0238802
0.0232866
0.0222521
0.00515703
0.0111545
0.0143526
0.016629
0.0182616
0.0195656
0.0206552
0.0215476
0.0222723
0.0228893
0.0234278
0.0239205
0.0243917
0.0248489
0.0252966
0.0257324
0.02617
0.0265968
0.0269505
0.02716
0.0271955
0.0269911
0.0264203
0.00620547
0.0121624
0.0157345
0.018309
0.0197738
0.0210359
0.0221668
0.0230722
0.0237864
0.0244179
0.0249543
0.0254571
0.0259658
0.0264913
0.0270437
0.0276084
0.0282399
0.0289489
0.0296102
0.0300816
0.0304251
0.0305844
0.0302484
0.0061951
0.0127082
0.016776
0.0196858
0.0210361
0.0223242
0.0235341
0.0244139
0.0252087
0.025876
0.0263481
0.0267942
0.0272768
0.0278002
0.0283832
0.0290182
0.0297699
0.0306413
0.0313898
0.0319347
0.0326147
0.0335173
0.0338487
0.00583248
0.0125704
0.0169802
0.0197393
0.0215711
0.0232778
0.0247194
0.025586
0.0263517
0.0270389
0.0274309
0.0278055
0.0282472
0.0287639
0.0293701
0.0301009
0.0309359
0.0317808
0.0324338
0.0329679
0.0337648
0.034539
0.0348966
0.00559495
0.0126515
0.0171423
0.0202183
0.0219544
0.0234382
0.0248273
0.0258306
0.0267821
0.0276063
0.0281127
0.0285542
0.0290262
0.0295556
0.0301532
0.0308619
0.0316954
0.0325373
0.0330585
0.0335973
0.0343078
0.0350914
0.0357816
0.00568525
0.0127966
0.0172016
0.0204193
0.0221644
0.0234881
0.0247581
0.0258685
0.0269057
0.0277548
0.0284235
0.0290158
0.0295739
0.030134
0.0307341
0.031425
0.0321495
0.0328064
0.0333128
0.0339622
0.0347759
0.0354461
0.0355818
0.00582372
0.0129102
0.0170409
0.0199995
0.0219667
0.0234865
0.0248181
0.0259886
0.0270174
0.0278909
0.0286404
0.0293003
0.0298987
0.0304665
0.0310442
0.0316632
0.0322656
0.0328313
0.0333437
0.0338945
0.0345303
0.0348819
0.0346714
0.00595075
0.0130929
0.0170572
0.0198572
0.021943
0.0235888
0.0249657
0.0261539
0.0271861
0.0280775
0.0288477
0.0295144
0.030102
0.0306396
0.0311587
0.0316777
0.0321828
0.0326758
0.0331426
0.0335413
0.0338595
0.0339664
0.0337381
0.00611428
0.0133858
0.0172845
0.0200115
0.0220965
0.0237589
0.0251382
0.026321
0.0273476
0.0282376
0.0290036
0.0296578
0.0302223
0.030725
0.0311932
0.031644
0.0320802
0.0324988
0.0328716
0.0331423
0.0332689
0.0332243
0.0329968
0.00632171
0.013764
0.0175968
0.0202502
0.0222858
0.0239184
0.0252751
0.0264367
0.027445
0.0283196
0.0290712
0.0297107
0.0302574
0.030736
0.0311703
0.0315754
0.0319555
0.0323018
0.0325836
0.0327558
0.0327871
0.0326722
0.0324284
0.0065371
0.0141275
0.0178871
0.0204607
0.0224326
0.0240195
0.025341
0.0264719
0.0274528
0.0283044
0.0290378
0.0296638
0.0301985
0.0306621
0.0310732
0.0314437
0.0317751
0.0320577
0.0322669
0.0323714
0.0323521
0.032212
0.0319658
0.00676456
0.014399
0.0180952
0.0205952
0.0225039
0.0240414
0.0253233
0.0264192
0.0273695
0.028196
0.0289105
0.0295237
0.0300492
0.0305022
0.0308962
0.0312395
0.0315323
0.0317665
0.0319258
0.0319912
0.0319515
0.0318104
0.0315773
0.0069279
0.0145626
0.0182026
0.0206385
0.0224905
0.0239819
0.0252255
0.026288
0.0272087
0.0280102
0.0287063
0.0293078
0.0298254
0.0302706
0.0306528
0.0309773
0.0312445
0.0314487
0.0315804
0.0316293
0.0315894
0.0314624
0.031253
0.00701873
0.014619
0.0182083
0.0205905
0.0223945
0.0238459
0.0250561
0.0260896
0.026985
0.0277659
0.0284468
0.0290386
0.0295506
0.0299913
0.0303673
0.0306826
0.0309377
0.0311296
0.0312531
0.0313029
0.0312761
0.0311724
0.0309936
0.00704944
0.014578
0.0181181
0.0204553
0.0222202
0.0236392
0.0248229
0.0258341
0.026711
0.0274775
0.0281489
0.0287357
0.0292464
0.0296878
0.030065
0.0303811
0.0306371
0.0308316
0.0309621
0.031026
0.0310211
0.0309467
0.0308022
0.00702849
0.0144514
0.0179409
0.0202391
0.021973
0.0233678
0.0245328
0.0255297
0.0263963
0.0271563
0.0278253
0.0284138
0.0289298
0.029379
0.0297657
0.0300926
0.030361
0.0305703
0.0307195
0.0308067
0.0308304
0.030789
0.0306809
0.00696161
0.0142497
0.0176855
0.0199492
0.0216589
0.0230374
0.0241919
0.0251831
0.026048
0.0268102
0.0274852
0.0280835
0.0286126
0.0290778
0.0294828
0.02983
0.0301207
0.0303546
0.0305312
0.0306489
0.0307061
0.0307007
0.0306306
0.00685357
0.0139822
0.0173608
0.019593
0.0212847
0.022654
0.023806
0.0247999
0.0256719
0.0264452
0.0271351
0.0277518
0.0283026
0.0287923
0.0292243
0.0296006
0.0299221
0.0301889
0.0303999
0.0305537
0.0306484
0.0306818
0.0306514
0.00670894
0.0136569
0.0169749
0.0191783
0.0208572
0.022224
0.0233811
0.0243859
0.0252735
0.0260667
0.0267802
0.0274241
0.0280051
0.0285279
0.0289951
0.0294086
0.0297688
0.0300753
0.0303268
0.0305218
0.0306579
0.0307328
0.030744
0.00653164
0.0132809
0.0165356
0.0187127
0.0203836
0.0217542
0.0229235
0.0239469
0.0248584
0.0256799
0.0264256
0.0271052
0.0277249
0.0282888
0.0287993
0.0292576
0.0296635
0.0300161
0.0303139
0.0305548
0.0307363
0.0308559
0.030911
0.00632475
0.0128613
0.0160507
0.018204
0.0198718
0.0212522
0.0224405
0.02349
0.0244332
0.025291
0.0260771
0.0268006
0.0274671
0.0280801
0.0286415
0.0291517
0.0296102
0.0300152
0.0303649
0.0306566
0.0308877
0.0310554
0.0311572
0.00609133
0.0124049
0.015528
0.0176606
0.0193302
0.0207265
0.0219406
0.0230232
0.0240056
0.0249075
0.0257418
0.026517
0.0272381
0.0279079
0.0285277
0.0290972
0.0296149
0.0300788
0.0304862
0.030834
0.0311193
0.0313392
0.031491
0.00583417
0.0119179
0.0149756
0.0170915
0.0187685
0.0201869
0.0214333
0.0225561
0.0235848
0.0245381
0.0254283
0.0262628
0.0270462
0.0277805
0.0284662
0.0291023
0.0296866
0.0302161
0.0306875
0.0310973
0.031442
0.0317185
0.031924
0.00555433
0.0114063
0.0144024
0.0165071
0.0181974
0.0196443
0.0209297
0.0220993
0.0231814
0.0241934
0.0251466
0.0260481
0.0269014
0.027708
0.0284676
0.0291782
0.0298366
0.0304393
0.0309818
0.0314602
0.0318703
0.0322086
0.0324722
0.00525145
0.0108758
0.0138183
0.0159191
0.0176296
0.0191114
0.0204422
0.0216653
0.0228073
0.0238849
0.0249085
0.0258843
0.0268154
0.0277025
0.0285445
0.0293382
0.0300797
0.030764
0.031386
0.0319405
0.0324228
0.0328289
0.0331556
0.00494953
0.0103328
0.0132357
0.0153417
0.0170793
0.0186024
0.0199846
0.0212673
0.0224756
0.0236254
0.0247263
0.0257842
0.0268014
0.0277779
0.0287117
0.0295986
0.0304333
0.0312094
0.0319205
0.0325603
0.0331229
0.0336037
0.0339992
0.0046641
0.00980446
0.0126749
0.0147928
0.0165635
0.0181333
0.0195723
0.0209199
0.0222002
0.0234283
0.0246135
0.0257612
0.0268734
0.0279493
0.0289858
0.0299776
0.0309176
0.0317979
0.03261
0.0333459
0.0339986
0.0345623
0.0350332
0.0043965
0.00931715
0.0121586
0.0142927
0.0161006
0.0177212
0.0192211
0.020638
0.0219951
0.0233071
0.0245835
0.0258292
0.0270461
0.0282327
0.0293849
0.0304959
0.0315565
0.0325561
0.0334839
0.0343294
0.0350838
0.0357401
0.0362939
0.00415717
0.0088938
0.0117088
0.0138611
0.0157088
0.0173828
0.0189464
0.0204357
0.0218735
0.0232746
0.0246486
0.0260011
0.0273337
0.0286446
0.0299283
0.0311762
0.0323764
0.0335148
0.0345769
0.0355488
0.0364191
0.0371793
0.0378244
0.00395582
0.00854988
0.0113434
0.0135161
0.0154052
0.0171341
0.0187628
0.0203262
0.0218471
0.0233414
0.0248196
0.026288
0.027749
0.0292002
0.0306351
0.0320426
0.033407
0.0347093
0.0359295
0.0370491
0.0380527
0.0389298
0.0396752
0.00379792
0.00829378
0.0110762
0.013274
0.0152068
0.016991
0.018684
0.0203209
0.0219256
0.0235156
0.0251037
0.0266979
0.0283017
0.0299129
0.0315237
0.0331201
0.0346809
0.0361802
0.03759
0.0388841
0.040042
0.0410508
0.0419054
0.00368522
0.00813257
0.0109228
0.0131545
0.0151332
0.0169705
0.0187238
0.0204297
0.0221154
0.0238015
0.0255041
0.0272341
0.0289971
0.0307922
0.0326102
0.0344334
0.0362337
0.0379745
0.0396153
0.0411186
0.0424563
0.0436127
0.0445843
0.00362001
0.00808412
0.0109125
0.0131895
0.0152127
0.0170946
0.0188966
0.0206609
0.0224195
0.0241981
0.0260174
0.0278927
0.0298334
0.0318408
0.0339056
0.0360056
0.0381035
0.0401468
0.0420751
0.0438325
0.0453798
0.0466994
0.0477927
0.00361546
0.00820298
0.0111119
0.01344
0.0154921
0.0173938
0.019219
0.0210197
0.0228351
0.0246971
0.0266319
0.0286605
0.030798
0.0330507
0.0354114
0.0378539
0.0403292
0.0427608
0.0450556
0.0471259
0.0489169
0.0504121
0.0516245
0.00372219
0.00863481
0.011667
0.0140197
0.0160452
0.0179082
0.0197069
0.0215058
0.0233513
0.0252802
0.027324
0.0295108
0.0318638
0.0343981
0.0371136
0.0399842
0.0429475
0.0458922
0.0486681
0.0511294
0.0531992
0.0548725
0.0561879
0.00410213
0.00970432
0.0128557
0.0151124
0.0169711
0.0186787
0.0203662
0.0221058
0.0239434
0.0259155
0.0280563
0.0304009
0.0329838
0.0358354
0.038972
0.0423785
0.0459832
0.0496293
0.0530648
0.0560204
0.0583956
0.0602266
0.0616054
0.00518013
0.0119276
0.0150546
0.0169245
0.0183508
0.0197152
0.0211734
0.0227821
0.0245679
0.0265553
0.0287757
0.0312699
0.0340872
0.037282
0.0409029
0.0449692
0.0494256
0.0540704
0.0584715
0.0620528
0.0647252
0.0666453
0.0680094
0.00792741
0.015685
0.0184138
0.0194701
0.0201278
0.0209363
0.0220472
0.0234616
0.0251588
0.0271361
0.0294151
0.0320402
0.0350781
0.0386163
0.0427573
0.0475981
0.0531701
0.0592948
0.0652748
0.0696116
0.0724664
0.0743159
0.0755321
0.0191617
0.021248
0.0224263
0.0222648
0.0219547
0.0221076
0.0228293
0.0240331
0.0256314
0.0275848
0.0299006
0.0326248
0.035841
0.0396742
0.0442989
0.049944
0.0568701
0.0652159
0.0742876
0.0792966
0.0819397
0.0834083
0.084283
0.083923
0.0303818
0.025874
0.0242843
0.0231919
0.0228624
0.0233092
0.0243684
0.0258986
0.027832
0.0301645
0.0329425
0.0362605
0.0402714
0.045211
0.0514514
0.0596181
0.070875
0.0876711
0.0919541
0.0933848
0.0939974
0.0943169
0.0117401
0.0102582
0.0100313
0.010935
0.0211194
0.0204766
0.0200176
0.0197509
0.0257142
0.0252032
0.0246423
0.0240624
0.0295401
0.029047
0.028349
0.0275151
0.0328745
0.0321475
0.0313313
0.0303128
0.0346105
0.0337495
0.0329885
0.0319764
0.0352814
0.0347433
0.0342428
0.0332038
0.0349039
0.0344645
0.0339493
0.0331913
0.0341406
0.0337556
0.0333132
0.0328327
0.0333558
0.0330617
0.0327386
0.032404
0.0326878
0.0324531
0.0321929
0.0319156
0.0321488
0.0319424
0.0317132
0.0314653
0.0317058
0.031517
0.0313079
0.0310802
0.0313379
0.0311649
0.0309734
0.0307639
0.0310376
0.0308816
0.0307081
0.0305172
0.030805
0.0306672
0.0305125
0.0303409
0.030642
0.030523
0.0303875
0.0302356
0.0305497
0.0304498
0.0303338
0.0302017
0.0305289
0.0304482
0.0303517
0.0302394
0.0305797
0.0305185
0.0304417
0.0303491
0.0307033
0.030662
0.0306051
0.0305324
0.0309024
0.0308816
0.0308449
0.0307925
0.0311822
0.0311827
0.031167
0.0311352
0.0315513
0.031574
0.0315801
0.0315695
0.0320218
0.0320678
0.0320967
0.0321083
0.0326099
0.0326807
0.0327335
0.0327683
0.0333361
0.0334334
0.0335116
0.0335708
0.0342259
0.0343515
0.0344569
0.0345419
0.0353097
0.035466
0.0356003
0.0357127
0.0366245
0.0368136
0.0369788
0.0371202
0.0382132
0.0384374
0.0386353
0.0388071
0.0401263
0.0403875
0.0406195
0.0408227
0.042422
0.0427216
0.0429882
0.0432228
0.0451679
0.0455056
0.0458061
0.0460706
0.0484412
0.0488147
0.0491457
0.0494366
0.05233
0.0527331
0.053088
0.0533983
0.0569332
0.0573542
0.0577215
0.0580399
0.0623595
0.0627792
0.0631407
0.0634509
0.068723
0.069113
0.0694438
0.0697241
0.0761354
0.0764581
0.0767272
0.0769521
0.0846918
0.0849056
0.0850811
0.0852258
0.0944574
0.0945295
0.0945879
0.0946357
0.0148296
0.0158803
0.0163145
0.016491
0.0164926
0.0163588
0.0161097
0.015776
0.0153919
0.0149629
0.0144767
0.0139263
0.0133468
0.0127262
0.0118578
0.010346
0.008098
0.00573849
0.00260725
0.0195461
0.0192663
0.0190583
0.0188699
0.0186572
0.0183922
0.0180477
0.0176152
0.0171047
0.0165506
0.0159656
0.0153412
0.0146853
0.0139638
0.0129782
0.0112821
0.0086592
0.00564165
0.00252211
0.0231477
0.0222091
0.0215669
0.0210888
0.0206838
0.020301
0.019856
0.0193186
0.018683
0.0179935
0.0172997
0.0166112
0.0159186
0.0151664
0.0141635
0.0124238
0.00962724
0.00616436
0.00282119
0.0261616
0.0247736
0.023818
0.0231116
0.0225429
0.0220994
0.0215523
0.0208865
0.0200965
0.0192634
0.018468
0.0177283
0.0170503
0.0163981
0.0156359
0.0140652
0.0111807
0.00774116
0.00394599
0.0285734
0.0268997
0.0257219
0.0248593
0.0241131
0.0235356
0.0228456
0.0220351
0.0211663
0.0202833
0.019421
0.0185943
0.0178207
0.0170956
0.0163601
0.0149432
0.0122848
0.00952901
0.00537284
0.030265
0.0286034
0.0273216
0.0263386
0.0254461
0.0246715
0.02383
0.0229073
0.0219627
0.0210298
0.0201063
0.0192016
0.0183152
0.0173068
0.0161788
0.0147829
0.0128926
0.0103356
0.00593084
0.0314175
0.0298024
0.0285163
0.0274311
0.0263867
0.0255396
0.0246596
0.02364
0.0225918
0.0215565
0.0205211
0.0194756
0.0183764
0.0171506
0.0159486
0.0146664
0.0129995
0.0102291
0.00497802
0.0319126
0.0304226
0.0291635
0.0280473
0.0269967
0.0261026
0.0251932
0.0241358
0.0229989
0.0218417
0.0206858
0.0195126
0.0182464
0.0169003
0.0156556
0.0143308
0.012485
0.00945507
0.00434387
0.0320223
0.0308328
0.0296195
0.0284507
0.0273077
0.0262768
0.0253001
0.0242401
0.0230779
0.0218519
0.0206079
0.0193295
0.0179664
0.0165565
0.0152258
0.0137944
0.0117557
0.00866116
0.00388431
0.0318183
0.0308711
0.0297795
0.0286213
0.0274247
0.0263003
0.0252386
0.0241485
0.02298
0.0217371
0.0204397
0.0190787
0.0176435
0.016173
0.0147363
0.0131431
0.010985
0.00788059
0.00342012
0.0314278
0.0306241
0.0296662
0.0285895
0.0274408
0.0263111
0.0252084
0.0240855
0.0229077
0.0216611
0.0203365
0.0189228
0.0174157
0.0158668
0.0142987
0.0124976
0.0101993
0.00713492
0.00300475
0.0310263
0.0303033
0.0294478
0.0284716
0.0274126
0.0263301
0.025234
0.024102
0.0229233
0.021684
0.0203589
0.0189163
0.0173629
0.0157576
0.0140571
0.012081
0.00967972
0.00667592
0.00286561
0.0306749
0.0300073
0.0292286
0.0283441
0.0273776
0.0263599
0.0252984
0.0241846
0.0230221
0.0218044
0.0204954
0.0190572
0.0175091
0.0158854
0.0141236
0.0121041
0.00974143
0.0068829
0.00317906
0.0303895
0.0297709
0.0290555
0.0282478
0.0273619
0.0264106
0.0253975
0.0243212
0.02319
0.0220019
0.0207245
0.0193265
0.017819
0.0162157
0.0144768
0.0125312
0.0103186
0.00764949
0.00365845
0.0301744
0.0296042
0.0289454
0.0282026
0.0273842
0.0264955
0.025537
0.0245093
0.0234197
0.0222682
0.0210332
0.0196918
0.0182449
0.0166977
0.0150255
0.0131792
0.0110797
0.00844074
0.0041088
0.0300306
0.0295088
0.028903
0.0282174
0.0274574
0.0266261
0.0257228
0.0247479
0.0237059
0.0225974
0.0214101
0.0201282
0.0187483
0.0172691
0.0156682
0.0138941
0.0118343
0.00914006
0.00450102
0.0299583
0.0294847
0.0289294
0.0282963
0.0275893
0.0268105
0.0259597
0.0250366
0.0240436
0.0229812
0.0218424
0.0206171
0.0192993
0.0178822
0.0163401
0.0146158
0.0125788
0.00984253
0.00486387
0.0299573
0.0295313
0.0290248
0.028441
0.0277831
0.027053
0.0262506
0.0253758
0.0244295
0.0234119
0.0223188
0.0211429
0.0198771
0.0185093
0.0170108
0.015321
0.0133015
0.0105494
0.00520748
0.0300278
0.0296485
0.0291891
0.0286522
0.0280404
0.0273553
0.0265971
0.0257659
0.024862
0.0238848
0.0228313
0.0216958
0.0204697
0.0191365
0.0176657
0.0159938
0.0139774
0.0112045
0.00553116
0.0301702
0.0298369
0.0294231
0.028931
0.0283625
0.027719
0.0270008
0.0262082
0.0253409
0.0243981
0.0233769
0.0222717
0.0210716
0.019759
0.0183003
0.0166284
0.0145911
0.0117598
0.00585651
0.0303861
0.0300982
0.0297288
0.0292795
0.0287518
0.0281467
0.0274648
0.0267057
0.0258692
0.0249539
0.0239566
0.0228706
0.0216846
0.020379
0.0189169
0.0172274
0.0151554
0.0122405
0.00615711
0.0306792
0.0304363
0.0301102
0.029702
0.0292128
0.0286432
0.0279936
0.0272635
0.0264521
0.0255573
0.0245752
0.0234986
0.0223155
0.0210037
0.0195273
0.0178106
0.015687
0.012665
0.00639743
0.0310555
0.0308577
0.0305742
0.0302057
0.0297529
0.0292161
0.0285953
0.0278898
0.027098
0.0262172
0.0252429
0.0241665
0.0229765
0.0216501
0.0201468
0.0183872
0.0161936
0.0130419
0.00654938
0.0315244
0.0313721
0.0311309
0.0308011
0.0303831
0.0298769
0.0292819
0.028597
0.0278201
0.0269474
0.0259742
0.0248918
0.0236861
0.022333
0.0207893
0.0189706
0.0166873
0.013384
0.00661418
0.032099
0.031993
0.0317941
0.0315025
0.0311181
0.0306407
0.0300692
0.0294016
0.0286358
0.0277674
0.0267899
0.0256937
0.024463
0.0230718
0.0214741
0.0195805
0.0171904
0.0137208
0.006648
0.0327963
0.0327379
0.0325819
0.0323283
0.0319767
0.0315268
0.0309771
0.0303252
0.0295677
0.0286993
0.0277121
0.026595
0.0253303
0.0238902
0.0222256
0.0202424
0.0177314
0.0140868
0.00669522
0.033638
0.0336288
0.0335164
0.0333009
0.0329822
0.0325594
0.0320305
0.0313926
0.030641
0.0297691
0.0287676
0.0276232
0.0263165
0.0248171
0.0230732
0.020987
0.0183427
0.0145147
0.00679947
0.0346503
0.0346921
0.0346245
0.0344479
0.0341622
0.0337663
0.0332578
0.0326329
0.0318856
0.0310077
0.029988
0.0288111
0.0274551
0.0258869
0.024052
0.0218499
0.0190605
0.0150416
0.00702402
0.0358646
0.0359594
0.0359378
0.0358008
0.0355485
0.0351798
0.0346918
0.0340797
0.0333362
0.0324511
0.031411
0.0301976
0.0287861
0.0271404
0.0252035
0.0228722
0.0199255
0.0157211
0.00736269
0.0373177
0.0374672
0.0374926
0.0373958
0.0371775
0.0368367
0.03637
0.0357716
0.0350327
0.0341409
0.0330799
0.0318281
0.030357
0.0286265
0.0265761
0.0241005
0.0209759
0.0165481
0.0078
0.039052
0.0392574
0.0393302
0.039274
0.0390902
0.0387782
0.0383345
0.0377521
0.0370204
0.0361247
0.0350451
0.033756
0.0322236
0.0304029
0.0282282
0.0255894
0.0222566
0.0175514
0.00829946
0.0411159
0.041377
0.0414968
0.0414808
0.0413319
0.0410502
0.0406318
0.0400691
0.0393497
0.0384558
0.0373637
0.0360423
0.0344516
0.0325388
0.0302299
0.0274063
0.0238256
0.0187717
0.00887933
0.0435638
0.0438787
0.0440434
0.0440663
0.0439522
0.0437022
0.0433127
0.0427751
0.0420754
0.0411927
0.0400989
0.0387564
0.0371168
0.0351162
0.0326677
0.0296371
0.0257613
0.0202707
0.00956765
0.0464564
0.0468202
0.0470256
0.0470845
0.0470044
0.0467876
0.0464311
0.0459258
0.0452561
0.0443983
0.0433193
0.0419745
0.0403046
0.0382309
0.0356465
0.0323917
0.0281685
0.0221327
0.010385
0.0498605
0.0502645
0.0505033
0.0505935
0.0505453
0.050363
0.0500442
0.0495798
0.048953
0.0481378
0.0470967
0.0457775
0.0441086
0.0419922
0.0392928
0.0358104
0.0311895
0.0244761
0.0113586
0.0538488
0.054279
0.0545406
0.054655
0.0546355
0.0544881
0.0542117
0.0537974
0.0532284
0.0524772
0.051503
0.0502473
0.048626
0.0465193
0.0437544
0.0400714
0.0350221
0.0274871
0.0126018
0.0584993
0.0589362
0.0592061
0.0593351
0.0593393
0.0592263
0.0589961
0.0586412
0.0581452
0.0574812
0.0566074
0.0554616
0.0539503
0.051933
0.0491943
0.0453936
0.0399397
0.0314506
0.0143037
0.0638946
0.0643125
0.0645729
0.0647049
0.0647262
0.0646456
0.0644643
0.0641762
0.0637671
0.0632123
0.0624728
0.0614877
0.0601613
0.0583403
0.0557724
0.0520256
0.0463046
0.0367901
0.0166796
0.0701207
0.0704898
0.0707206
0.0708426
0.0708732
0.0708213
0.0706892
0.0704724
0.0701599
0.0697317
0.0691552
0.0683777
0.0673123
0.0658111
0.0636095
0.0602056
0.0545674
0.0441817
0.0201876
0.0772669
0.0775562
0.0777374
0.0778362
0.0778677
0.0778394
0.0777538
0.0776085
0.0773961
0.077103
0.0767062
0.0761676
0.0754222
0.0743524
0.0727294
0.0700647
0.0651808
0.0546579
0.0255114
0.0854264
0.0856091
0.0857239
0.0857883
0.0858123
0.085801
0.0857564
0.0856777
0.0855611
0.0853997
0.0851814
0.0848861
0.0844792
0.0838952
0.0829976
0.0814546
0.0782886
0.0696453
0.0339704
0.0947015
0.0947612
0.0947991
0.0948209
0.09483
0.0948282
0.0948164
0.0947944
0.0947614
0.094716
0.0946553
0.0945752
0.0944688
0.094324
0.0941157
0.0937731
0.0929948
0.0896785
0.0471578
)
;

boundaryField
{
    leftWall
    {
        type            kqRWallFunction;
        value           nonuniform List<scalar> 
50
(
0.000598995
0.00127465
0.00178858
0.00222042
0.00259339
0.00292672
0.00323391
0.00352438
0.00396883
0.00450245
0.00515703
0.00620547
0.0061951
0.00583248
0.00559495
0.00568525
0.00582372
0.00595075
0.00611428
0.00632171
0.0065371
0.00676456
0.0069279
0.00701873
0.00704944
0.00702849
0.00696161
0.00685357
0.00670894
0.00653164
0.00632475
0.00609133
0.00583417
0.00555433
0.00525145
0.00494953
0.0046641
0.0043965
0.00415717
0.00395582
0.00379792
0.00368522
0.00362001
0.00361546
0.00372219
0.00410213
0.00518013
0.00792741
0.0191617
0.083923
)
;
    }
    rightWall
    {
        type            kqRWallFunction;
        value           nonuniform List<scalar> 
50
(
0.0009276
0.00155488
0.00191537
0.00216636
0.00235216
0.00248886
0.00258155
0.00262592
0.00260725
0.00252211
0.00282119
0.00394599
0.00537284
0.00593084
0.00497802
0.00434387
0.00388431
0.00342012
0.00300475
0.00286561
0.00317906
0.00365845
0.0041088
0.00450102
0.00486387
0.00520748
0.00553116
0.00585651
0.00615711
0.00639743
0.00654938
0.00661418
0.006648
0.00669522
0.00679947
0.00702402
0.00736269
0.0078
0.00829946
0.00887933
0.00956765
0.010385
0.0113586
0.0126018
0.0143037
0.0166796
0.0201876
0.0255114
0.0339704
0.0471578
)
;
    }
    lowerWall
    {
        type            kqRWallFunction;
        value           nonuniform List<scalar> 
62
(
0.000598995
0.0014681
0.00212525
0.00262537
0.00302144
0.00334088
0.00360058
0.0038121
0.00398424
0.00412459
0.00423995
0.00433571
0.00441992
0.00449371
0.00454143
0.00453803
0.00441744
0.00406359
0.00367658
0.00338021
0.00303312
0.00230461
0.000912397
0.000912397
0.00219224
0.0030942
0.00394027
0.00483875
0.00599183
0.00782132
0.0111207
0.0117401
0.0102582
0.0100313
0.010935
0.00062135
0.00152789
0.00218652
0.00283359
0.00357497
0.00461053
0.00633368
0.00949896
0.00062135
0.00196318
0.00264614
0.00297694
0.00311463
0.00313181
0.00310542
0.00307852
0.00309918
0.00314085
0.00296449
0.0026714
0.00254252
0.00285062
0.00320616
0.00311838
0.0025416
0.00174849
0.0009276
)
;
    }
    atmosphere
    {
        type            inletOutlet;
        inletValue      uniform 0.1;
        value           nonuniform List<scalar> 
46
(
0.1
0.0303818
0.025874
0.0242843
0.0231919
0.0228624
0.0233092
0.0243684
0.0258986
0.027832
0.0301645
0.0329425
0.0362605
0.0402714
0.045211
0.0514514
0.0596181
0.070875
0.1
0.1
0.1
0.1
0.1
0.1
0.1
0.1
0.1
0.1
0.1
0.1
0.1
0.1
0.1
0.1
0.1
0.1
0.1
0.1
0.1
0.1
0.1
0.1
0.1
0.1
0.1
0.0471578
)
;
    }
    defaultFaces
    {
        type            empty;
    }
}


// ************************************************************************* //
