/*--------------------------------*- C++ -*----------------------------------*\
  =========                 |
  \\      /  F ield         | OpenFOAM: The Open Source CFD Toolbox
   \\    /   O peration     | Website:  https://openfoam.org
    \\  /    A nd           | Version:  9
     \\/     M anipulation  |
\*---------------------------------------------------------------------------*/
FoamFile
{
    format      ascii;
    class       volScalarField;
    location    "3.91";
    object      nut;
}
// * * * * * * * * * * * * * * * * * * * * * * * * * * * * * * * * * * * * * //

dimensions      [0 2 -1 0 0 0 0];

internalField   nonuniform List<scalar> 
2268
(
2.23708e-05
2.57677e-05
3.09967e-05
3.44498e-05
3.69576e-05
3.88635e-05
4.03478e-05
4.15187e-05
4.2449e-05
4.3194e-05
4.37981e-05
4.42946e-05
4.47295e-05
4.51063e-05
4.53479e-05
4.53292e-05
4.47137e-05
4.28739e-05
4.07879e-05
3.91189e-05
3.70687e-05
3.23016e-05
2.03272e-05
5.08337e-05
0.000198612
0.000265014
0.000307368
0.000337714
0.000360764
0.000378933
0.000393585
0.000405596
0.000415642
0.000424297
0.000431966
0.000438329
0.000442894
0.000445533
0.000445008
0.000438859
0.000421397
0.000386967
0.000369917
0.000342898
0.000257365
6.66453e-05
6.02134e-05
0.000339046
0.000487898
0.000583865
0.000653048
0.000705778
0.000747355
0.000780831
0.000808179
0.000830856
0.000850003
0.000866352
0.000879688
0.00088932
0.000894198
0.00089169
0.000877187
0.000843051
0.000784984
0.000730186
0.000636925
0.000430017
7.91641e-05
6.70896e-05
0.000437888
0.000662581
0.00081097
0.000919179
0.0010022
0.00106785
0.00112074
0.00116386
0.00119938
0.00122894
0.00125354
0.00127314
0.00128694
0.00129305
0.00128779
0.00126538
0.00121804
0.00114049
0.00104226
0.000872765
0.000555778
8.93357e-05
7.25064e-05
0.00051095
0.0008007
0.000996943
0.00114195
0.00125414
0.00134332
0.00141536
0.00147413
0.00152239
0.00156217
0.00159473
0.00162017
0.0016376
0.00164454
0.00163662
0.00160744
0.00154896
0.00145366
0.00131208
0.00107065
0.000656053
9.90216e-05
7.70265e-05
0.000567861
0.000912343
0.00115107
0.00132982
0.00146938
0.00158104
0.00167162
0.00174566
0.00180642
0.00185625
0.00189659
0.0019277
0.00194862
0.00195647
0.00194647
0.0019118
0.00184368
0.00173097
0.00155177
0.00124695
0.000741011
0.000110239
8.09696e-05
0.000614201
0.00100465
0.00128062
0.00148984
0.0016547
0.00178751
0.00189579
0.00198459
0.00205753
0.00211719
0.00216518
0.00220191
0.00222644
0.0022356
0.00222435
0.00218562
0.00210978
0.00198248
0.00177438
0.00141923
0.00082554
0.000125998
8.45304e-05
0.000653233
0.00108256
0.00139104
0.00162757
0.00181557
0.00196809
0.00209312
0.00219604
0.00228075
0.00234998
0.00240548
0.00244787
0.00247628
0.00248728
0.00247579
0.00243462
0.00235363
0.00221676
0.00199212
0.00161048
0.000948991
0.000150227
1.67322e-05
2.98135e-05
3.46119e-05
3.67123e-05
3.75525e-05
3.76567e-05
3.74986e-05
3.7339e-05
3.74659e-05
3.77164e-05
3.66405e-05
3.47764e-05
3.38903e-05
3.58588e-05
3.80592e-05
3.75514e-05
3.39373e-05
2.81696e-05
2.88435e-05
6.17958e-05
0.000236578
0.000309804
0.000342538
0.000355915
0.000359674
0.000357036
0.000357809
0.000362788
0.00036069
0.000346501
0.000307186
0.000297416
0.000330785
0.000330356
0.000307819
0.000256571
0.000151083
6.24813e-05
7.39746e-05
0.00039501
0.000571815
0.000657286
0.00069516
0.000708959
0.000710444
0.000712975
0.000719848
0.000715101
0.000687135
0.000630394
0.000612411
0.000641809
0.000629885
0.000574542
0.000465292
0.000277304
6.92799e-05
8.4251e-05
0.000509131
0.000781507
0.000921972
0.000988484
0.00101635
0.00102473
0.00102915
0.00103475
0.00102627
0.000990411
0.000928938
0.000900413
0.00090692
0.000871509
0.000779377
0.00062012
0.000375289
7.36223e-05
9.46902e-05
0.000606545
0.000962576
0.00115275
0.00124652
0.00128889
0.00130432
0.00131013
0.00131257
0.00129965
0.00125878
0.00119514
0.00115335
0.00113034
0.0010647
0.000933937
0.00072948
0.000441762
7.66666e-05
0.000107611
0.000702345
0.0011331
0.00136409
0.00148034
0.00153518
0.00155641
0.00156268
0.00156093
0.0015429
0.0014974
0.0014307
0.00137364
0.00132
0.00122142
0.00105116
0.000803392
0.000481308
7.88236e-05
0.000126168
0.000810758
0.00130725
0.00156636
0.00169793
0.00176169
0.0017867
0.00179219
0.00178546
0.00176119
0.00171084
0.00163919
0.00156593
0.00148296
0.00135113
0.00114096
0.000849987
0.000500589
8.0238e-05
0.000154437
0.000961252
0.00149827
0.00176646
0.0019046
0.00197299
0.00199944
0.00200273
0.00199032
0.0019591
0.00190294
0.00182449
0.001735
0.00162505
0.00146107
0.00121063
0.000875088
0.000506061
8.08987e-05
8.97122e-05
0.000705905
0.00118711
0.00154012
0.00181493
0.00203616
0.00221756
0.00236757
0.00249185
0.00259456
0.00267859
0.00274576
0.00279672
0.00283056
0.00284422
0.00283295
0.00278995
0.00270509
0.00256214
0.00233299
0.00196993
0.00141439
0.000695831
9.55309e-05
0.000758543
0.00129091
0.00168987
0.00200498
0.00226234
0.00247641
0.00265566
0.00280572
0.00293094
0.00303423
0.00311741
0.00318115
0.00322444
0.00324519
0.00323976
0.00320298
0.00312708
0.00300089
0.00280971
0.0025369
0.00217131
0.00173155
0.000102163
0.000792931
0.001369
0.00180759
0.00215428
0.0024404
0.00268175
0.00288613
0.00305865
0.00320416
0.00332531
0.00342391
0.00350075
0.003555
0.00358561
0.00358998
0.00356553
0.00350716
0.00340788
0.00326168
0.00306879
0.00283839
0.00259851
0.000111911
0.000796947
0.00142038
0.00190189
0.00227083
0.00257908
0.00284355
0.00307002
0.00326216
0.00342651
0.0035646
0.00367843
0.00376883
0.00383541
0.00387827
0.0038947
0.00388615
0.0038491
0.00377722
0.0036666
0.00352632
0.00337066
0.00322659
0.000111818
0.000792802
0.00144125
0.0019625
0.00235232
0.00268022
0.00296401
0.00320871
0.00342207
0.00360556
0.00375976
0.00388863
0.00399256
0.00407171
0.00412695
0.00415699
0.00416444
0.00414643
0.00409388
0.00400326
0.00389312
0.00377948
0.00368478
0.000108576
0.000758365
0.00144043
0.0019569
0.00237239
0.00273036
0.00303886
0.00330394
0.00353828
0.00374367
0.00391572
0.00405995
0.00417767
0.00426913
0.00433538
0.0043784
0.0043969
0.00438803
0.00434374
0.00426328
0.00416919
0.00407437
0.00400196
0.000106423
0.00077123
0.00146452
0.00198725
0.00239399
0.00275664
0.00308288
0.0033698
0.00362665
0.00385187
0.00404273
0.0042035
0.00433511
0.00443816
0.0045139
0.00456469
0.00458938
0.00458607
0.00454615
0.00447823
0.00439649
0.00432094
0.00427246
0.000107249
0.000804603
0.00149469
0.00202881
0.00244532
0.00281595
0.00315218
0.00345264
0.003722
0.00395682
0.00415942
0.00433203
0.00447384
0.00458571
0.00466919
0.00472612
0.0047546
0.00475451
0.00472457
0.00467267
0.00460943
0.00454621
0.00449831
0.000108474
0.000813746
0.00150202
0.00205923
0.00251471
0.0029099
0.00325873
0.00356576
0.0038363
0.00407292
0.00427894
0.00445563
0.00460259
0.00471954
0.00480802
0.00486945
0.00490283
0.00490959
0.00489077
0.00485021
0.00479734
0.00473878
0.00468745
0.000109617
0.000830505
0.00154026
0.00212791
0.00261591
0.00303072
0.00338745
0.00369616
0.00396503
0.00419962
0.00440389
0.00457954
0.00472689
0.00484587
0.00493693
0.00500148
0.00504011
0.00505444
0.00504552
0.00501426
0.00496734
0.00491366
0.00486442
0.000111102
0.000868746
0.00161435
0.002229
0.00273699
0.00316265
0.00352328
0.00383181
0.00409823
0.00432956
0.00453041
0.00470314
0.00484875
0.00496769
0.00506049
0.00512795
0.00517152
0.0051924
0.00519142
0.00516945
0.0051305
0.00508332
0.00503762
0.000112974
0.000917514
0.00169998
0.00233678
0.0028579
0.0032903
0.00365349
0.00396196
0.00422667
0.00445537
0.00465321
0.00482318
0.00496691
0.00508537
0.00517935
0.00524968
0.00529763
0.00532421
0.00533019
0.00531669
0.00528688
0.00524745
0.00520596
0.000114885
0.000961129
0.00177574
0.00243199
0.00296444
0.00340308
0.00376944
0.00407914
0.00434369
0.00457134
0.00476762
0.00493607
0.00507886
0.00519741
0.00529282
0.00536602
0.00541808
0.00544991
0.0054624
0.0054568
0.00543583
0.00540441
0.00536806
0.000116877
0.00098836
0.00183092
0.00250574
0.00304978
0.00349561
0.00386651
0.00417911
0.00444538
0.00467398
0.0048706
0.0050392
0.00518248
0.00530225
0.00539986
0.0054764
0.00553279
0.00556998
0.00558895
0.00559102
0.0055785
0.00555496
0.00552441
0.000118317
0.00100511
0.0018681
0.00255842
0.00311356
0.00356741
0.00394426
0.00426134
0.004531
0.00476205
0.00496069
0.00513121
0.00527661
0.005399
0.00549997
0.00558068
0.00564205
0.00568508
0.00571081
0.00572055
0.00571622
0.00570047
0.00567618
0.000119121
0.0010144
0.00189129
0.00259361
0.00315854
0.00362038
0.00400387
0.00432653
0.00460093
0.00483604
0.00503833
0.00521235
0.00536138
0.00548775
0.00559322
0.00567908
0.00574627
0.00579581
0.00582875
0.00584632
0.0058501
0.00584209
0.00582437
0.000119405
0.00101734
0.00190274
0.00261384
0.00318703
0.00365645
0.00404687
0.00437589
0.00465612
0.00489665
0.00510407
0.00528311
0.00543723
0.00556894
0.00568011
0.00577213
0.00584596
0.00590268
0.00594328
0.00596887
0.00598077
0.00598047
0.00596948
0.000119245
0.00101483
0.00190406
0.00262106
0.00320096
0.0036774
0.00407485
0.00441079
0.00469778
0.0049449
0.00515876
0.0053442
0.00550477
0.00564307
0.00576105
0.00586016
0.00594142
0.00600588
0.00605451
0.00608829
0.0061083
0.00611566
0.00611147
0.000118692
0.00100779
0.00189666
0.00261688
0.003202
0.00368482
0.00408931
0.00443264
0.00472717
0.00498188
0.00520334
0.00539639
0.00556458
0.00571057
0.00583633
0.00594333
0.00603265
0.0061053
0.00616221
0.00620425
0.0062323
0.00624723
0.0062498
0.000117781
0.000996968
0.00188177
0.00260272
0.00319165
0.00368022
0.0040917
0.00444278
0.00474553
0.0050087
0.00523875
0.0054404
0.0056172
0.00577177
0.00590608
0.00602159
0.0061194
0.00620053
0.00626583
0.0063161
0.00635205
0.00637436
0.00638359
0.000116545
0.000982976
0.00186046
0.00257991
0.00317131
0.00366502
0.0040834
0.00444255
0.00475407
0.00502644
0.00526586
0.00547694
0.0056631
0.00582691
0.0059703
0.0060947
0.00620126
0.00629094
0.00636459
0.00642291
0.00646653
0.00649598
0.0065117
0.000115008
0.000966328
0.00183372
0.00254969
0.00314236
0.00364064
0.00406585
0.0044333
0.00475405
0.00503617
0.00528557
0.00550665
0.00570268
0.00587613
0.00602888
0.00616231
0.00627761
0.00637575
0.00645752
0.00652359
0.00657455
0.00661084
0.00663278
0.000113186
0.000947536
0.00180254
0.00251333
0.00310624
0.0036086
0.00404053
0.00441645
0.00474675
0.00503901
0.00529877
0.00553016
0.00573628
0.00591948
0.00608157
0.00622393
0.00634775
0.00645401
0.00654351
0.00661692
0.00667478
0.00671751
0.00674538
0.000111093
0.000927082
0.00176786
0.0024721
0.00306443
0.00357048
0.00400904
0.00439353
0.00473357
0.00503614
0.00530638
0.00554812
0.00576424
0.00595698
0.00612809
0.00627898
0.00641084
0.00652469
0.00662137
0.00670155
0.0067658
0.00681452
0.00684798
0.000108739
0.000905436
0.00173064
0.00242733
0.0030185
0.00352798
0.0039731
0.00436615
0.00471592
0.00502874
0.00530929
0.00556108
0.00578679
0.00598855
0.00616808
0.0063268
0.00646599
0.00658671
0.00668985
0.00677616
0.00684621
0.00690043
0.0069391
0.000106117
0.000882991
0.00169176
0.00238033
0.00297007
0.00348286
0.00393446
0.00433596
0.00469524
0.00501796
0.00530833
0.00556953
0.00580409
0.00601403
0.00620106
0.00636671
0.0065123
0.00663901
0.00674782
0.00683953
0.00691479
0.00697404
0.00701758
0.000103203
0.000859565
0.00165164
0.00233225
0.00292072
0.00343688
0.00389485
0.00430452
0.00467283
0.00500479
0.00530416
0.00557383
0.00581616
0.00603316
0.00622658
0.00639803
0.006549
0.00668075
0.00679439
0.00689082
0.00697073
0.0070346
0.00708273
0.000100208
0.00083232
0.00160972
0.00228394
0.00287194
0.00339167
0.00385584
0.00427316
0.00464974
0.00498998
0.00529722
0.00557412
0.00582294
0.0060457
0.00624424
0.00642033
0.0065756
0.00671148
0.00682921
0.00692977
0.0070139
0.00708213
0.00713472
9.72919e-05
0.000804168
0.00156827
0.00223754
0.00282572
0.00334901
0.00381883
0.00424295
0.00462672
0.004974
0.00528776
0.00557048
0.00582438
0.00605154
0.00625395
0.00643355
0.00659218
0.00673144
0.00685269
0.00695701
0.00704517
0.00711767
0.00717477
9.44729e-05
0.000779274
0.00153126
0.00219611
0.00278433
0.00331049
0.00378495
0.00421464
0.00460425
0.00495715
0.00527599
0.00556309
0.00582069
0.00605099
0.00625617
0.00643838
0.00659967
0.00674183
0.00686635
0.00697435
0.00706662
0.00714359
0.00720546
9.18748e-05
0.000759965
0.00150145
0.00216161
0.00274883
0.00327651
0.00375417
0.00418802
0.0045821
0.00493929
0.00526192
0.00555219
0.00581238
0.00604486
0.00625205
0.00643632
0.00659997
0.00674497
0.0068729
0.0069849
0.00708169
0.0071636
0.00723069
8.96274e-05
0.000746688
0.0014793
0.00213381
0.00271822
0.00324559
0.00372492
0.0041617
0.00455927
0.00491989
0.00524552
0.00553823
0.00580038
0.00603455
0.00624347
0.00642977
0.00659599
0.00674428
0.00687627
0.00699303
0.00709512
0.0071827
0.00725564
8.78217e-05
0.000738418
0.00146279
0.00210962
0.00268872
0.00321389
0.00369382
0.00413312
0.00453411
0.0048982
0.00522686
0.005522
0.00578611
0.00602211
0.00623308
0.00642198
0.00659161
0.00674424
0.00688148
0.00700424
0.00711279
0.00720698
0.00728647
8.65071e-05
0.000733373
0.00144746
0.00208252
0.00265315
0.00317483
0.00365568
0.00409871
0.00450459
0.00487351
0.00520627
0.00550469
0.0057715
0.0060101
0.00622408
0.00641682
0.00659137
0.00675009
0.00689443
0.00702494
0.00714142
0.00724331
0.00732996
8.57343e-05
0.000729252
0.00142576
0.00204189
0.0026008
0.00311949
0.00360403
0.00405444
0.00446873
0.00484538
0.00518447
0.00548783
0.00575874
0.00600129
0.00621983
0.00641836
0.00660013
0.00676748
0.00692151
0.0070621
0.0071883
0.00729892
0.00739311
8.56732e-05
0.000722764
0.00138622
0.0019734
0.00251869
0.00303797
0.00353236
0.0039967
0.00442511
0.00481389
0.00516247
0.00547307
0.00574991
0.00599823
0.00622345
0.00643039
0.00662258
0.00680217
0.00696947
0.00712317
0.00726105
0.00738122
0.00748271
8.6909e-05
0.000708386
0.00131542
0.00186383
0.00239631
0.00292298
0.0034364
0.00392365
0.00437352
0.00477978
0.00514147
0.00546179
0.00574651
0.0060026
0.00623701
0.00645574
0.00666278
0.00685977
0.00704541
0.00721616
0.00736774
0.00749755
0.00760512
9.11641e-05
0.000680393
0.00121133
0.0017148
0.00223536
0.00277562
0.00331722
0.00383665
0.0043155
0.00474447
0.00512259
0.00545473
0.00574898
0.00601467
0.00626097
0.00649567
0.00672373
0.0069458
0.00715745
0.00735043
0.00751721
0.00765524
0.00776591
0.000102205
0.00064378
0.00109979
0.00155471
0.00205745
0.00261002
0.00318384
0.00374157
0.00425481
0.00471008
0.00510666
0.00545173
0.00575635
0.0060329
0.00629358
0.00654907
0.00680649
0.0070658
0.00731637
0.00753836
0.00771982
0.00786145
0.00796946
0.000126056
0.000601268
0.00100591
0.00141796
0.00189475
0.00245069
0.00305296
0.00364899
0.00419744
0.00467938
0.00509419
0.0054517
0.00576628
0.00605376
0.00633016
0.00661083
0.00690815
0.00722489
0.00754045
0.00779872
0.00798803
0.00812253
0.00821808
0.000196728
0.000516355
0.000906195
0.00130753
0.00176783
0.0023225
0.00294538
0.00357294
0.00415123
0.00465561
0.00508543
0.00545294
0.0057755
0.00607214
0.00636297
0.00666985
0.00701653
0.00742273
0.00787073
0.00816232
0.00833535
0.00844158
0.00851032
0.000412966
0.000388195
0.00077465
0.00121553
0.00168717
0.00224634
0.00288205
0.00352846
0.00412456
0.00464218
0.00508068
0.00545384
0.00578087
0.0060828
0.0063826
0.00670812
0.00709909
0.00762427
0.00842761
0.00867513
0.00876815
0.00881283
0.00883845
0.000155222
0.000145201
0.00014361
0.000149897
0.0013956
0.00133207
0.00131923
0.00135823
0.00245575
0.00240109
0.00237746
0.00238626
0.00315332
0.0031173
0.00308806
0.0030687
0.00363814
0.00361073
0.00358077
0.0035502
0.00398191
0.00395907
0.00393391
0.00390558
0.00424971
0.00423111
0.00421045
0.00418298
0.00446453
0.00444422
0.00442334
0.00440238
0.00465386
0.00463382
0.00461564
0.00460076
0.0048333
0.004815
0.00479883
0.00478516
0.00500762
0.00498969
0.00497321
0.00495816
0.00517671
0.00515862
0.00514122
0.00512442
0.00534023
0.00532234
0.00530441
0.00528637
0.00549885
0.00548177
0.00546401
0.0054455
0.00565362
0.00563792
0.00562098
0.00560278
0.00580535
0.00579148
0.0057759
0.0057586
0.00595438
0.00594264
0.0059288
0.00591284
0.00610049
0.00609107
0.00607923
0.00606494
0.00624304
0.00623607
0.00622639
0.00621398
0.00638107
0.00637659
0.00636917
0.00635878
0.00651337
0.0065114
0.00650628
0.006498
0.00663856
0.00663905
0.00663625
0.00663013
0.00675511
0.00675802
0.00675751
0.00675355
0.00686149
0.00686674
0.00686846
0.00686665
0.00695623
0.00696372
0.00696763
0.00696795
0.00703815
0.00704783
0.00705389
0.00705631
0.00710665
0.00711847
0.00712667
0.00713123
0.00716196
0.00717595
0.00718633
0.00719309
0.00720546
0.00722169
0.00723436
0.00724343
0.0072398
0.00725844
0.00727355
0.00728509
0.00726901
0.00729025
0.00730798
0.00732217
0.0072983
0.00732234
0.00734287
0.00735988
0.00733379
0.00736079
0.00738424
0.00740413
0.00738212
0.00741211
0.00743846
0.00746116
0.00744995
0.00748275
0.00751174
0.00753694
0.0075436
0.00757869
0.00760972
0.0076368
0.00766863
0.007705
0.00773705
0.00776496
0.00782951
0.00786555
0.00789703
0.00792429
0.00802919
0.00806252
0.00809129
0.00811595
0.00826839
0.00829593
0.00831934
0.00833916
0.00854451
0.00856284
0.00857816
0.00859098
0.00885048
0.00885682
0.00886204
0.00886637
0.000781712
0.00141339
0.00183263
0.0020767
0.00221337
0.00228409
0.00231099
0.00230868
0.00228628
0.00224323
0.00217631
0.00208493
0.00197076
0.00182169
0.00160868
0.00129537
0.000895732
0.000486658
8.06713e-05
0.00168633
0.00205002
0.0023168
0.0024948
0.0026039
0.00266146
0.00267919
0.00266554
0.0026262
0.00256445
0.00247951
0.00236832
0.00222618
0.00203869
0.00177737
0.00139839
0.000922634
0.000442687
7.93592e-05
0.00246861
0.00262934
0.00277751
0.00289005
0.00296356
0.00300088
0.00300346
0.00297488
0.00291835
0.00283698
0.00273231
0.0026016
0.00243702
0.00222295
0.00193251
0.00151913
0.00099266
0.000447699
8.37823e-05
0.00306368
0.00311633
0.00318834
0.00324941
0.00328858
0.0033049
0.00328919
0.00324278
0.00316739
0.00306678
0.00294341
0.00279478
0.00261329
0.00238504
0.00208864
0.00167548
0.00113583
0.000544846
9.90177e-05
0.00351358
0.00351454
0.00354186
0.00356652
0.00357532
0.00356919
0.00353309
0.00346761
0.00337523
0.00325848
0.00311837
0.00295295
0.002757
0.00252062
0.00222997
0.0018478
0.00133397
0.000730248
0.000115532
0.00386797
0.00385168
0.00385098
0.00384656
0.00382852
0.00379682
0.00374089
0.00365739
0.00354775
0.00341384
0.00325603
0.00307259
0.00285985
0.00260522
0.00229609
0.00191908
0.00144909
0.000833796
0.00012168
0.00414924
0.00413037
0.0041153
0.00409101
0.00404993
0.00399605
0.0039218
0.00381947
0.00369067
0.003537
0.00335867
0.0031538
0.00291794
0.00264104
0.00231804
0.00194329
0.0014868
0.000857894
0.000111749
0.00437914
0.00436004
0.00433613
0.00429842
0.00424164
0.00416878
0.00407565
0.00395515
0.00380703
0.00363285
0.00343312
0.00320566
0.002945
0.00264555
0.00231144
0.00193173
0.00146342
0.000822557
0.000104352
0.00458281
0.00456153
0.00452926
0.00447872
0.00440678
0.00431598
0.00420517
0.00406861
0.00390393
0.00371131
0.00349062
0.00323906
0.00295253
0.00263047
0.00227894
0.00188902
0.00141267
0.000778018
9.86779e-05
0.00476595
0.00473956
0.00469924
0.00463848
0.00455482
0.00445039
0.00432448
0.00417332
0.00399435
0.00378601
0.00354537
0.00326929
0.00295613
0.00260849
0.00223327
0.00182109
0.00133413
0.000718198
9.26485e-05
0.00493484
0.00490073
0.0048533
0.00478554
0.0046948
0.0045814
0.00444433
0.0042812
0.00409006
0.00386787
0.00360935
0.00331121
0.00297354
0.00260018
0.00219591
0.00174981
0.00123838
0.000640277
8.68408e-05
0.00509685
0.00505497
0.00500086
0.00492785
0.00483258
0.00471343
0.00456883
0.00439703
0.00419626
0.00396263
0.00369035
0.00337596
0.0030201
0.00262535
0.00219068
0.0017058
0.00115995
0.000567932
8.46704e-05
0.00525569
0.00520756
0.00514776
0.00507045
0.00497175
0.00484876
0.0046993
0.00452173
0.00431433
0.00407284
0.00379211
0.00346872
0.00310192
0.00269129
0.00223158
0.001715
0.00114305
0.000550796
8.90875e-05
0.00541317
0.00536084
0.00529669
0.00521584
0.00511428
0.00498859
0.00483619
0.00465528
0.00444396
0.00419845
0.00391405
0.00358689
0.00321463
0.00279331
0.00231668
0.00178138
0.00119694
0.000598376
9.5556e-05
0.00557015
0.00551553
0.00544845
0.00536486
0.00526098
0.0051334
0.00497942
0.00479687
0.00458376
0.00433675
0.00405148
0.00372383
0.00334951
0.00292238
0.00243617
0.00188895
0.0012874
0.000654897
0.00010127
0.00572677
0.00567146
0.00560275
0.00551729
0.00541172
0.00528291
0.0051282
0.00494514
0.00473166
0.00448462
0.00419991
0.00387299
0.00349831
0.0030687
0.00257682
0.0020176
0.00138953
0.000706733
0.000106011
0.00588264
0.00582792
0.00575872
0.00567229
0.00556574
0.00543627
0.00528131
0.00509844
0.00488536
0.00463895
0.00435517
0.00402906
0.00365435
0.00322307
0.00272611
0.00215448
0.00149974
0.000768215
0.000110233
0.00603698
0.00598385
0.00591514
0.00582861
0.00572179
0.00559219
0.00543738
0.00525502
0.0050426
0.00479689
0.00451375
0.00418786
0.00381239
0.0033785
0.00287551
0.00229131
0.00161258
0.000838316
0.000114092
0.00618869
0.00613795
0.00607058
0.00598474
0.00587833
0.00574912
0.0055948
0.00541308
0.00520127
0.00495597
0.00467282
0.00434612
0.00396854
0.0035302
0.00301927
0.00242112
0.00171858
0.000905017
0.000117608
0.00633648
0.00628874
0.00622343
0.006139
0.00603363
0.0059053
0.00575177
0.00557076
0.00535938
0.00511405
0.00483008
0.00450143
0.00411989
0.00367511
0.00315382
0.00253906
0.00180927
0.000954688
0.000121039
0.00647889
0.00643463
0.00637198
0.00628958
0.00618582
0.00605882
0.00590642
0.00572615
0.00551502
0.0052692
0.00498364
0.00465168
0.00426475
0.00381159
0.00327741
0.00264319
0.0018868
0.000993404
0.00012412
0.00661434
0.00657392
0.00651439
0.00643455
0.00633289
0.00620763
0.00605661
0.00587723
0.00566626
0.00541955
0.00513171
0.00479564
0.00440223
0.00393915
0.00339162
0.00273922
0.00195696
0.00102701
0.000126516
0.00674116
0.00670485
0.00664883
0.00657198
0.00647288
0.00634975
0.00620037
0.00602203
0.00581124
0.00556355
0.00527323
0.0049326
0.0045324
0.00406
0.00349911
0.00282836
0.00202108
0.00105739
0.000127988
0.00685769
0.00682569
0.0067735
0.00670005
0.00660393
0.00648333
0.00633598
0.00615897
0.00594864
0.00570013
0.00540759
0.00506312
0.00465664
0.00417494
0.00360086
0.00291204
0.00208076
0.00108607
0.000128604
0.00696244
0.00693491
0.00688685
0.00681718
0.00672448
0.00660689
0.00646204
0.00628683
0.00607752
0.00582907
0.00553515
0.00518747
0.00477539
0.00428501
0.00369834
0.00299212
0.00213781
0.00111405
0.000128937
0.00705429
0.00703142
0.00698779
0.0069223
0.00683349
0.00671946
0.00657777
0.00640524
0.00619783
0.00595032
0.00565599
0.00530615
0.00488955
0.00439159
0.00379337
0.00307065
0.002194
0.00114193
0.000129409
0.00713277
0.00711478
0.00707592
0.00701508
0.00693076
0.006821
0.00668328
0.00651428
0.00630978
0.00606431
0.0057708
0.00542012
0.00500044
0.00449637
0.003888
0.00314983
0.0022511
0.00116964
0.000130446
0.00719832
0.00718555
0.00715189
0.00709622
0.00701702
0.00691227
0.00677937
0.00661489
0.00641441
0.00617222
0.00588092
0.00553093
0.00510979
0.0046013
0.00398439
0.00323194
0.00231104
0.00119745
0.000132619
0.00725258
0.0072454
0.00721742
0.00716748
0.00709404
0.00699508
0.00686789
0.00670896
0.00651368
0.0062761
0.00598848
0.00564075
0.00521984
0.00470864
0.0040848
0.00331935
0.00237704
0.00123366
0.000135808
0.00729844
0.00729728
0.00727543
0.00723176
0.00716473
0.0070723
0.00695173
0.00679939
0.00661052
0.0063789
0.00609642
0.00575251
0.00533342
0.00482106
0.00419166
0.00341405
0.00244972
0.00127161
0.000139804
0.00734002
0.00734526
0.00732995
0.00729301
0.00723296
0.00714777
0.00703468
0.00688997
0.00670873
0.00648443
0.00620856
0.00586998
0.00545412
0.00494186
0.00430786
0.00351852
0.00253152
0.00131558
0.000144229
0.00738245
0.00739434
0.00738583
0.00735595
0.00730332
0.00722598
0.00712118
0.00698515
0.00681278
0.00659724
0.00632951
0.00599775
0.00558645
0.00507522
0.00443702
0.0036357
0.00262474
0.00136711
0.000149201
0.00743151
0.00745006
0.00744836
0.00742564
0.0073807
0.00731171
0.00721596
0.00708965
0.00692748
0.00672229
0.00646444
0.00614122
0.00573589
0.00522646
0.00458389
0.00376932
0.00273187
0.00142752
0.000154896
0.00749314
0.00751799
0.00752278
0.00750705
0.00746984
0.00740953
0.00732352
0.00720801
0.00705754
0.00686458
0.0066188
0.00630635
0.00590888
0.00540225
0.00475478
0.00392454
0.00285636
0.00149875
0.000161391
0.00757295
0.00760325
0.00761379
0.00760453
0.00757487
0.0075234
0.00744774
0.00734414
0.00720706
0.00702861
0.00679774
0.00649925
0.00611264
0.00561076
0.00495816
0.00410885
0.00300339
0.00158361
0.000168801
0.00767574
0.00771006
0.00772517
0.00772152
0.00769892
0.00765629
0.00759148
0.00750091
0.00737908
0.00721788
0.00700559
0.00672559
0.00635475
0.00586173
0.00520535
0.00433325
0.00318081
0.00168524
0.000177819
0.00780515
0.00784144
0.00785948
0.00786026
0.007844
0.00780997
0.00775635
0.00767984
0.00757519
0.00743433
0.00724518
0.00698987
0.00664244
0.0061662
0.00551136
0.00461458
0.00340193
0.00180866
0.000189465
0.00796339
0.00799904
0.008018
0.00802176
0.00801089
0.00798502
0.00794268
0.00788104
0.00779532
0.00767795
0.00751708
0.00729432
0.00698141
0.00653575
0.00589573
0.00497912
0.00369161
0.00196541
0.000204607
0.00815108
0.00818307
0.00820076
0.00820592
0.00819935
0.00818095
0.00814968
0.00810327
0.00803774
0.00794657
0.00781905
0.0076377
0.00737382
0.00698034
0.00638219
0.00546777
0.00409797
0.00218167
0.000225103
0.00836713
0.00839243
0.00840673
0.00841175
0.00840832
0.00839652
0.0083757
0.00834426
0.00829932
0.00823591
0.00814563
0.00801399
0.00781536
0.00750356
0.00699466
0.00614133
0.00471815
0.00253141
0.00025304
0.00860889
0.00862494
0.00863413
0.00863772
0.00863633
0.0086301
0.0086187
0.00860124
0.00857605
0.00854017
0.00848844
0.00841152
0.00829176
0.00809389
0.00774344
0.00707699
0.00574891
0.00323781
0.000291965
0.00887238
0.00887774
0.00888084
0.00888214
0.00888187
0.00888009
0.00887671
0.00887149
0.00886392
0.00885311
0.00883746
0.00881402
0.00877693
0.00871344
0.00859195
0.00831989
0.00757578
0.00519722
0.000343952
)
;

boundaryField
{
    leftWall
    {
        type            nutkWallFunction;
        Cmu             0.09;
        kappa           0.41;
        E               9.8;
        value           nonuniform List<scalar> 
50
(
4.18699e-06
6.16438e-06
7.28904e-06
8.10034e-06
8.73264e-06
9.25608e-06
9.7098e-06
1.01173e-05
1.07061e-05
1.13669e-05
1.2141e-05
1.27276e-05
1.26862e-05
1.23316e-05
1.14593e-05
6.80966e-06
6.24691e-06
6.43086e-06
6.66439e-06
6.95556e-06
7.25217e-06
7.55975e-06
7.77735e-06
7.89717e-06
7.93754e-06
7.91044e-06
7.82259e-06
7.67912e-06
7.48494e-06
7.24469e-06
6.95975e-06
6.63179e-06
6.26203e-06
5.84889e-06
5.38802e-06
4.91314e-06
4.44866e-06
3.99813e-06
3.58163e-06
3.22042e-06
2.92967e-06
2.71786e-06
2.5936e-06
2.5849e-06
2.78774e-06
3.48386e-06
5.27724e-06
9.04433e-06
1.94331e-05
4.87061e-05
)
;
    }
    rightWall
    {
        type            nutkWallFunction;
        Cmu             0.09;
        kappa           0.41;
        E               9.8;
        value           nonuniform List<scalar> 
50
(
5.84196e-06
7.54534e-06
8.35098e-06
8.86282e-06
9.22081e-06
9.47426e-06
9.64184e-06
9.72082e-06
9.68757e-06
9.53473e-06
1.00684e-05
9.14381e-06
1.15035e-05
1.3314e-05
1.09507e-05
6.98441e-06
4.67908e-06
3.71137e-06
2.7859e-06
2.73958e-06
3.46571e-06
4.28829e-06
5.11845e-06
5.92867e-06
6.67305e-06
7.26727e-06
7.8068e-06
8.33117e-06
8.80097e-06
9.12728e-06
9.23609e-06
9.33148e-06
9.38154e-06
9.4512e-06
9.61349e-06
1.00417e-05
1.05359e-05
1.11345e-05
1.17914e-05
1.25298e-05
1.33712e-05
1.42862e-05
1.53265e-05
1.6646e-05
1.83444e-05
2.05125e-05
2.34128e-05
2.73137e-05
3.26574e-05
3.96358e-05
)
;
    }
    lowerWall
    {
        type            nutkWallFunction;
        Cmu             0.09;
        kappa           0.41;
        E               9.8;
        value           nonuniform List<scalar> 
62
(
1.75875e-06
3.01764e-06
3.69864e-06
4.14013e-06
4.45716e-06
4.69621e-06
4.88126e-06
5.02652e-06
5.14143e-06
5.23309e-06
5.30711e-06
5.36772e-06
5.42039e-06
5.46609e-06
5.49543e-06
5.49334e-06
5.41885e-06
5.19347e-06
4.93398e-06
4.72473e-06
4.46613e-06
3.86307e-06
2.28899e-06
2.28899e-06
8.05025e-06
9.50656e-06
1.06694e-05
1.17607e-05
1.30074e-05
1.47374e-05
1.73621e-05
1.78905e-05
1.68042e-05
1.66304e-05
1.73103e-05
1.8011e-06
7.48093e-06
8.90239e-06
1.00808e-05
1.1259e-05
1.26962e-05
1.47347e-05
1.7794e-05
1.8011e-06
3.54315e-06
4.15738e-06
4.42272e-06
4.52828e-06
4.54127e-06
4.5213e-06
4.50086e-06
4.51659e-06
4.5481e-06
4.41306e-06
4.17827e-06
4.07035e-06
4.32336e-06
4.59697e-06
4.53111e-06
4.06961e-06
3.32552e-06
2.31162e-06
)
;
    }
    atmosphere
    {
        type            calculated;
        value           nonuniform List<scalar> 
46
(
0.009
0.000388195
0.00077465
0.00121553
0.00168717
0.00224634
0.00288205
0.00352846
0.00412456
0.00464218
0.00508068
0.00545384
0.00578087
0.0060828
0.0063826
0.00670812
0.00709909
0.00762427
0.009
0.009
0.009
0.009
0.009
0.009
0.009
0.009
0.009
0.009
0.009
0.009
0.009
0.009
0.009
0.009
0.009
0.009
0.009
0.009
0.009
0.009
0.009
0.009
0.009
0.009
0.009
0.000343952
)
;
    }
    defaultFaces
    {
        type            empty;
    }
}


// ************************************************************************* //
