# vtk DataFile Version 2.0
track0
ASCII
DATASET POLYDATA
POINTS 12075 float
-0.0205 0.001 1e-05
-0.02052 0.000999985 1e-05
-0.02054 0.000999974 1e-05
-0.02056 0.000999965 1e-05
-0.02058 0.000999959 1e-05
-0.0206 0.000999956 1e-05
-0.0205 0.00367778 1e-05
-0.02052 0.00367778 1e-05
-0.02054 0.00367777 1e-05
-0.02056 0.00367777 1e-05
-0.02058 0.00367777 1e-05
-0.0206 0.00367777 1e-05
-0.0205 0.00635556 1e-05
-0.02052 0.00635555 1e-05
-0.02054 0.00635555 1e-05
-0.02056 0.00635555 1e-05
-0.02058 0.00635555 1e-05
-0.0206 0.00635555 1e-05
-0.0205 0.00903333 1e-05
-0.02052 0.00903333 1e-05
-0.02054 0.00903333 1e-05
-0.02056 0.00903333 1e-05
-0.02058 0.00903333 1e-05
-0.0206 0.00903333 1e-05
-0.0205 0.0117111 1e-05
-0.02052 0.0117111 1e-05
-0.02054 0.0117111 1e-05
-0.02056 0.0117111 1e-05
-0.02058 0.0117111 1e-05
-0.0206 0.0117111 1e-05
-0.0205 0.0143889 1e-05
-0.02052 0.0143889 1e-05
-0.02054 0.0143889 1e-05
-0.02056 0.0143889 1e-05
-0.02058 0.0143889 1e-05
-0.0206 0.0143889 1e-05
-0.0205 0.0170667 1e-05
-0.02052 0.0170667 1e-05
-0.02054 0.0170667 1e-05
-0.02056 0.0170667 1e-05
-0.02058 0.0170667 1e-05
-0.0206 0.0170667 1e-05
-0.0205 0.0197444 1e-05
-0.02052 0.0197444 1e-05
-0.02054 0.0197444 1e-05
-0.02056 0.0197444 1e-05
-0.02058 0.0197444 1e-05
-0.0206 0.0197444 1e-05
-0.0205 0.0224222 1e-05
-0.02052 0.0224222 1e-05
-0.02054 0.0224222 1e-05
-0.02056 0.0224222 1e-05
-0.02058 0.0224222 1e-05
-0.0206 0.0224222 1e-05
-0.0205 0.0251 1e-05
-0.02052 0.0250998 1e-05
-0.02054 0.0250997 1e-05
-0.02056 0.0250995 1e-05
-0.02058 0.0250995 1e-05
-0.0206 0.0250994 1e-05
-0.0205 0.001 1e-05
-0.0202034 0.00100022 1e-05
-0.0199069 0.00100067 1e-05
-0.0196103 0.00100133 1e-05
-0.0193137 0.00100219 1e-05
-0.0190172 0.00100326 1e-05
-0.0187132 0.00100467 1e-05
-0.0184093 0.00100589 1e-05
-0.0181054 0.00100711 1e-05
-0.0178015 0.00100832 1e-05
-0.0174976 0.00100954 1e-05
-0.0172058 0.00101083 1e-05
-0.016914 0.00101193 1e-05
-0.0166222 0.00101303 1e-05
-0.0163305 0.00101413 1e-05
-0.0160387 0.00101523 1e-05
-0.0157586 0.00101637 1e-05
-0.0154784 0.00101745 1e-05
-0.0151983 0.00101856 1e-05
-0.0149182 0.00101972 1e-05
-0.0146381 0.00102091 1e-05
-0.0143747 0.00102209 1e-05
-0.0141112 0.00102327 1e-05
-0.0138478 0.00102449 1e-05
-0.0135844 0.00102574 1e-05
-0.013362 0.00102682 1e-05
-0.0133483 0.00102689 1e-05
-0.0133346 0.00102695 1e-05
-0.0133209 0.00102702 1e-05
-0.0133071 0.00102709 1e-05
-0.0132934 0.00102716 1e-05
-0.0130353 0.00102844 1e-05
-0.0127771 0.00102975 1e-05
-0.0125189 0.00103107 1e-05
-0.0122607 0.0010324 1e-05
-0.0120025 0.00103375 1e-05
-0.0117547 0.00103506 1e-05
-0.0115068 0.00103638 1e-05
-0.0112589 0.0010377 1e-05
-0.0110111 0.00103902 1e-05
-0.0107632 0.00104035 1e-05
-0.0105252 0.00104163 1e-05
-0.0102873 0.00104291 1e-05
-0.0100493 0.00104419 1e-05
-0.00981133 0.00104547 1e-05
-0.00957337 0.00104674 1e-05
-0.00934491 0.00104796 1e-05
-0.00911645 0.00104919 1e-05
-0.00888799 0.00105041 1e-05
-0.00865954 0.00105162 1e-05
-0.00843108 0.00105284 1e-05
-0.00821175 0.00105399 1e-05
-0.00799242 0.00105515 1e-05
-0.00777309 0.00105631 1e-05
-0.00755376 0.00105746 1e-05
-0.00733443 0.0010586 1e-05
-0.00712387 0.00105969 1e-05
-0.0069133 0.00106079 1e-05
-0.00670273 0.00106187 1e-05
-0.00649216 0.00106296 1e-05
-0.0062816 0.00106404 1e-05
-0.00607944 0.00106506 1e-05
-0.00587729 0.00106609 1e-05
-0.00567514 0.00106711 1e-05
-0.00547298 0.00106813 1e-05
-0.00527083 0.00106915 1e-05
-0.00507675 0.00107011 1e-05
-0.00488267 0.00107108 1e-05
-0.0046886 0.00107204 1e-05
-0.00449452 0.001073 1e-05
-0.00430044 0.00107396 1e-05
-0.00411412 0.00107486 1e-05
-0.0039278 0.00107577 1e-05
-0.00374147 0.00107668 1e-05
-0.00355515 0.00107759 1e-05
-0.00336883 0.00107849 1e-05
-0.00318995 0.00107934 1e-05
-0.00301107 0.0010802 1e-05
-0.00283219 0.00108106 1e-05
-0.00265331 0.00108192 1e-05
-0.00247443 0.00108277 1e-05
-0.0023027 0.00108358 1e-05
-0.00213097 0.0010844 1e-05
-0.00195924 0.00108522 1e-05
-0.0017875 0.00108603 1e-05
-0.00161577 0.00108685 1e-05
-0.0014509 0.00108762 1e-05
-0.00128603 0.0010884 1e-05
-0.00112116 0.00108918 1e-05
-0.000956289 0.00108997 1e-05
-0.000791418 0.00109075 1e-05
-0.000633135 0.00109151 1e-05
-0.000474851 0.00109226 1e-05
-0.000316567 0.00109302 1e-05
-0.000158284 0.00109378 1e-05
0 0.00109455 1e-05
0.000105677 0.00109505 1e-05
0.000211355 0.00109556 1e-05
0.000317032 0.00109606 1e-05
0.00042271 0.00109657 1e-05
0.000528387 0.00109707 1e-05
0.000634886 0.00109756 1e-05
0.000741385 0.00109806 1e-05
0.000847885 0.00109855 1e-05
0.000954384 0.00109904 1e-05
0.00106088 0.00109953 1e-05
0.00116821 0.00110001 1e-05
0.00127554 0.0011005 1e-05
0.00138286 0.00110097 1e-05
0.00149019 0.00110144 1e-05
0.00159752 0.00110189 1e-05
0.00170568 0.00110235 1e-05
0.00181384 0.0011028 1e-05
0.001922 0.00110324 1e-05
0.00203016 0.00110367 1e-05
0.00213833 0.0011041 1e-05
0.00224733 0.00110451 1e-05
0.00235633 0.00110492 1e-05
0.00246533 0.00110532 1e-05
0.00257434 0.00110571 1e-05
0.00268334 0.0011061 1e-05
0.00279319 0.00110647 1e-05
0.00290304 0.00110684 1e-05
0.00301289 0.0011072 1e-05
0.00312274 0.00110756 1e-05
0.00323259 0.0011079 1e-05
0.00334329 0.00110824 1e-05
0.003454 0.00110857 1e-05
0.0035647 0.0011089 1e-05
0.0036754 0.00110922 1e-05
0.00378611 0.00110953 1e-05
0.00389767 0.00110982 1e-05
0.00400924 0.00111012 1e-05
0.0041208 0.00111041 1e-05
0.00423237 0.00111069 1e-05
0.00434393 0.00111096 1e-05
0.00445636 0.00111122 1e-05
0.00456879 0.00111148 1e-05
0.00468123 0.00111173 1e-05
0.00479366 0.00111198 1e-05
0.00490609 0.00111221 1e-05
0.0050194 0.00111243 1e-05
0.0051327 0.00111266 1e-05
0.00524601 0.00111287 1e-05
0.00535932 0.00111307 1e-05
0.00547262 0.00111327 1e-05
0.00558681 0.00111346 1e-05
0.005701 0.00111364 1e-05
0.00581518 0.00111381 1e-05
0.00592937 0.00111398 1e-05
0.00604356 0.00111414 1e-05
0.00615863 0.00111429 1e-05
0.00627371 0.00111444 1e-05
0.00638878 0.00111457 1e-05
0.00650386 0.0011147 1e-05
0.00661893 0.00111483 1e-05
0.0067349 0.00111494 1e-05
0.00685087 0.00111505 1e-05
0.00696684 0.00111514 1e-05
0.00708281 0.00111524 1e-05
0.00719878 0.00111532 1e-05
0.00731044 0.00111539 1e-05
0.0074221 0.00111546 1e-05
0.00753376 0.00111552 1e-05
0.00764542 0.00111557 1e-05
0.00775102 0.00111561 1e-05
0.00775744 0.00111561 1e-05
0.00776387 0.00111561 1e-05
0.00777029 0.00111562 1e-05
0.00777671 0.00111562 1e-05
0.00778313 0.00111562 1e-05
0.00790091 0.00111566 1e-05
0.00801869 0.00111569 1e-05
0.00813647 0.00111571 1e-05
0.00825425 0.00111572 1e-05
0.00837203 0.00111573 1e-05
0.00849073 0.00111572 1e-05
0.00860942 0.00111571 1e-05
0.00872812 0.00111569 1e-05
0.00884682 0.00111566 1e-05
0.00896551 0.00111562 1e-05
0.00908513 0.00111557 1e-05
0.00920475 0.00111552 1e-05
0.00932437 0.00111546 1e-05
0.00944398 0.00111539 1e-05
0.0095636 0.00111531 1e-05
0.00968415 0.00111521 1e-05
0.0098047 0.00111512 1e-05
0.00992525 0.00111501 1e-05
0.0100458 0.0011149 1e-05
0.0101663 0.00111478 1e-05
0.0102878 0.00111464 1e-05
0.0104093 0.0011145 1e-05
0.0105308 0.00111435 1e-05
0.0106523 0.00111419 1e-05
0.0107738 0.00111403 1e-05
0.0108962 0.00111384 1e-05
0.0110186 0.00111365 1e-05
0.0111411 0.00111346 1e-05
0.0112635 0.00111325 1e-05
0.0113859 0.00111304 1e-05
0.0115093 0.0011128 1e-05
0.0116327 0.00111257 1e-05
0.0117561 0.00111233 1e-05
0.0118795 0.00111208 1e-05
0.0120028 0.00111182 1e-05
0.0121272 0.00111154 1e-05
0.0122515 0.00111125 1e-05
0.0123759 0.00111096 1e-05
0.0125002 0.00111067 1e-05
0.0126245 0.00111036 1e-05
0.0127498 0.00111002 1e-05
0.0128752 0.00110969 1e-05
0.0130005 0.00110935 1e-05
0.0131258 0.00110901 1e-05
0.0132511 0.00110865 1e-05
0.0133774 0.00110827 1e-05
0.0135036 0.00110788 1e-05
0.0136299 0.00110749 1e-05
0.0137562 0.00110709 1e-05
0.0138825 0.00110668 1e-05
0.0140098 0.00110625 1e-05
0.014137 0.00110582 1e-05
0.0142643 0.00110538 1e-05
0.0143915 0.00110492 1e-05
0.0145188 0.00110446 1e-05
0.0146471 0.00110398 1e-05
0.0147753 0.00110349 1e-05
0.0149036 0.001103 1e-05
0.0150318 0.00110249 1e-05
0.0151601 0.00110197 1e-05
0.0152893 0.00110144 1e-05
0.0154186 0.0011009 1e-05
0.0155478 0.00110035 1e-05
0.0156771 0.00109979 1e-05
0.0158063 0.00109922 1e-05
0.0159366 0.00109863 1e-05
0.0160668 0.00109804 1e-05
0.0161971 0.00109743 1e-05
0.0163274 0.00109682 1e-05
0.0164576 0.00109619 1e-05
0.0165889 0.00109556 1e-05
0.0167201 0.00109491 1e-05
0.0168514 0.00109425 1e-05
0.0169827 0.00109357 1e-05
0.0171139 0.0010929 1e-05
0.0172462 0.00109221 1e-05
0.0173785 0.0010915 1e-05
0.0175108 0.00109078 1e-05
0.0176431 0.00109006 1e-05
0.0177754 0.00108932 1e-05
0.0179087 0.00108858 1e-05
0.018042 0.00108782 1e-05
0.0181753 0.00108705 1e-05
0.0183087 0.00108626 1e-05
0.018442 0.00108548 1e-05
0.0185763 0.00108468 1e-05
0.0187107 0.00108387 1e-05
0.018845 0.00108304 1e-05
0.0189794 0.00108219 1e-05
0.0191137 0.00108135 1e-05
0.0192491 0.0010805 1e-05
0.0193845 0.00107963 1e-05
0.0195199 0.00107874 1e-05
0.0196553 0.00107784 1e-05
0.0197907 0.00107694 1e-05
0.0199272 0.00107604 1e-05
0.0200636 0.00107512 1e-05
0.0202001 0.00107417 1e-05
0.0203365 0.00107321 1e-05
0.020473 0.00107226 1e-05
0.0206105 0.0010713 1e-05
0.020748 0.00107032 1e-05
0.0208855 0.00106932 1e-05
0.021023 0.0010683 1e-05
0.0211606 0.00106729 1e-05
0.0212991 0.00106628 1e-05
0.0214377 0.00106525 1e-05
0.0215763 0.00106419 1e-05
0.0217149 0.00106311 1e-05
0.0218535 0.00106205 1e-05
0.0219931 0.00106098 1e-05
0.0221328 0.00105989 1e-05
0.0222724 0.00105877 1e-05
0.0224121 0.00105764 1e-05
0.0225517 0.00105652 1e-05
0.0226925 0.00105539 1e-05
0.0228332 0.00105424 1e-05
0.022974 0.00105307 1e-05
0.0231147 0.00105188 1e-05
0.0232555 0.0010507 1e-05
0.0233973 0.00104952 1e-05
0.0235391 0.00104831 1e-05
0.023681 0.00104707 1e-05
0.0238228 0.00104583 1e-05
0.0239647 0.00104459 1e-05
0.0241076 0.00104335 1e-05
0.0242505 0.00104209 1e-05
0.0243935 0.00104079 1e-05
0.0245364 0.00103949 1e-05
0.0246794 0.00103819 1e-05
0.0248234 0.0010369 1e-05
0.0249675 0.00103557 1e-05
0.0251115 0.00103421 1e-05
0.0252556 0.00103285 1e-05
[...]
POINT_DATA 12075
 FIELD attributes 3
age 1 12075 float
0 -2e-05 -4e-05 -6e-05 -8e-05 -0.0001
0 -2e-05 -4e-05 -6e-05 -8e-05 -0.0001
0 -2e-05 -4e-05 -6e-05 -8e-05 -0.0001
0 -2e-05 -4e-05 -6e-05 -8e-05 -0.0001
0 -2e-05 -4e-05 -6e-05 -8e-05 -0.0001
0 -2e-05 -4e-05 -6e-05 -8e-05 -0.0001
0 -2e-05 -4e-05 -6e-05 -8e-05 -0.0001
0 -2e-05 -4e-05 -6e-05 -8e-05 -0.0001
0 -2e-05 -4e-05 -6e-05 -8e-05 -0.0001
0 -2.00009e-05 -4.00018e-05 -6.00027e-05 -8.00036e-05 -0.000100002
0 0.000296567 0.000593135 0.000889702 0.00118627 0.00148284 0.00178676 0.00209069 0.00239461 0.00269853 0.00300245 0.00329423 0.00358601 0.00387779 0.00416957 0.00446135 0.00474147 0.00502159 0.00530171 0.00558183 0.00586196 0.00612538 0.0063888 0.00665222 0.00691564 0.0071381 0.0071518 0.0071655 0.0071792 0.00719291 0.00720661 0.0074648 0.00772298 0.00798117 0.00823935 0.00849754 0.00874541 0.00899328 0.00924116 0.00948903 0.0097369 0.00997487 0.0102128 0.0104508 0.0106888 0.0109267 0.0111552 0.0113837 0.0116121 0.0118406 0.012069 0.0122884 0.0125077 0.012727 0.0129464 0.0131657 0.0133763 0.0135868 0.0137974 0.014008 0.0142186 0.0144207 0.0146229 0.014825 0.0150272 0.0152293 0.0154234 0.0156175 0.0158116 0.0160057 0.0161997 0.0163861 0.0165724 0.0167587 0.016945 0.0171314 0.0173102 0.0174891 0.017668 0.0178469 0.0180258 0.0181975 0.0183692 0.018541 0.0187127 0.0188844 0.0190493 0.0192142 0.0193791 0.0195439 0.0197088 0.0198671 0.0200254 0.0201837 0.0203419 0.0205002 0.0206059 0.0207116 0.0208173 0.0209229 0.0210286 0.0211351 0.0212416 0.0213481 0.0214546 0.0215611 0.0216684 0.0217758 0.0218831 0.0219904 0.0220978 0.0222059 0.0223141 0.0224222 0.0225304 0.0226386 0.0227476 0.0228566 0.0229656 0.0230746 0.0231836 0.0232934 0.0234033 0.0235131 0.023623 0.0237328 0.0238435 0.0239542 0.024065 0.0241757 0.0242864 0.0243979 0.0245095 0.0246211 0.0247326 0.0248442 0.0249566 0.0250691 0.0251815 0.0252939 0.0254063 0.0255197 0.025633 0.0257463 0.0258596 0.0259729 0.0260871 0.0262013 0.0263154 0.0264296 0.0265438 0.0266589 0.026774 0.026889 0.0270041 0.0271192 0.0272352 0.0273511 0.0274671 0.0275831 0.027699 0.0278107 0.0279224 0.028034 0.0281457 0.0282513 0.0282577 0.0282641 0.0282706 0.028277 0.0282834 0.0284012 0.028519 0.0286367 0.0287545 0.0288723 0.028991 0.0291097 0.0292284 0.0293471 0.0294658 0.0295854 0.029705 0.0298246 0.0299442 0.0300639 0.0301844 0.030305 0.0304255 0.0305461 0.0306666 0.0307881 0.0309096 0.0310311 0.0311525 0.031274 0.0313965 0.0315189 0.0316413 0.0317638 0.0318862 0.0320096 0.032133 0.0322563 0.0323797 0.0325031 0.0326274 0.0327518 0.0328761 0.0330005 0.0331248 0.0332501 0.0333754 0.0335007 0.033626 0.0337513 0.0338776 0.0340039 0.0341302 0.0342565 0.0343828 0.03451 0.0346373 0.0347646 0.0348918 0.0350191 0.0351473 0.0352756 0.0354038 0.0355321 0.0356604 0.0357896 0.0359189 0.0360481 0.0361774 0.0363066 0.0364369 0.0365671 0.0366974 0.0368276 0.0369579 0.0370892 0.0372204 0.0373517 0.037483 0.0376142 0.0377465 0.0378788 0.0380111 0.0381434 0.0382757 0.038409 0.0385423 0.0386757 0.038809 0.0389423 0.0390767 0.039211 0.0393454 0.0394797 0.0396141 0.0397495 0.0398849 0.0400203 0.0401557 0.0402911 0.0404275 0.040564 0.0407004 0.0408369 0.0409734 0.0411109 0.0412484 0.0413859 0.0415234 0.0416609 0.0417995 0.0419381 0.0420767 0.0422153 0.0423539 0.0424935 0.0426332 0.0427728 0.0429125 0.0430522 0.0431929 0.0433337 0.0434744 0.0436152 0.0437559 0.0438978 0.0440396 0.0441814 0.0443233 0.0444651 0.0446081 0.044751 0.044894 0.0450369 0.0451799 0.0453239 0.045468 0.045612 0.0457561 0.0459002 0.0460453 0.0461905 0.0463357 0.0464809 0.0466261 0.0467724 0.0469187 0.047065 0.0472113 0.0473576 0.047505 0.0476525 0.0477999 0.0479474 0.0480948 0.0482434 0.048392 0.0485406 0.0486892 0.0488378 0.0489876 0.0491373 0.049287 0.0494368 0.0495865 0.0497375 0.0498884 0.0500393 0.0501902 0.0503411 0.0504932 0.0506453 0.0507974 0.0509495 0.0511016 0.0512548 0.0514081 0.0515614 0.0517146 0.0518679 0.0520224 0.0521768 0.0523313 0.0524858 0.0526402 0.0527959 0.0529516 0.0531072 0.0532629 0.0534186 0.0535754 0.0537323 0.0538892 0.0540461 0.0542029 0.0543381 0.0544732 0.0546083 0.0547434 0.0548735 0.0548975 0.0549214 0.0549454 0.0549694 0.0549934 0.0551528 0.0553121 0.0554714 0.0556307 0.0557901 0.0559506 0.0561112 0.0562718 0.0564323 0.0565929 0.0567547 0.0569165 0.0570783 0.0572402 0.057402 0.0575651 0.0577281 0.0578912 0.0580543 0.0582174 0.0583817 0.0585461 0.0587104 0.0588747 0.0590391 0.0592047 0.0593703 0.059536 0.0597016 0.0598672 0.0600341 0.060201 0.0603679 0.0605349 0.0607018 0.06087 0.0610382 0.0612064 0.0613746 0.0615428 0.0617124 0.0618819 0.0620514 0.0622209 0.0623905 0.0625613 0.0627321 0.062903 0.0630738 0.0632447 0.0634168 0.063589 0.0637612 0.0639334 0.0641055 0.064279 0.0644526 0.0646261 0.0647996 0.0649731 0.065148 0.0653228 0.0654977 0.0656726 0.0658474 0.0660237 0.0661999 0.0663761 0.0665523 0.0667286 0.0669062 0.0670838 0.0672614 0.067439 0.0676166 0.0677956 0.0679746 0.0681535 0.0683325 0.0685115 0.0686919 0.0688723 0.0690527 0.069233 0.0694134 0.0695952 0.069777 0.0699588 0.0701406 0.0703224 0.0705056 0.0706888 0.070872 0.0710552 0.0712384 0.071423 0.0716076 0.0717923 0.0719769 0.0721615 0.0723476 0.0725337 0.0727198 0.0729058 0.0730919 0.0732679 0.0734438 0.0736198 0.0737957 0.0739607 0.0739745 0.0739883 0.074002 0.0740158 0.0740296 0.0742185 0.0744075 0.0745965 0.0747855 0.0749745 0.075165 0.0753554 0.0755459 0.0757364 0.0759268 0.0761188 0.0763108 0.0765027 0.0766947 0.0768866 0.0770801 0.0772735 0.077467 0.0776604 0.0778539 0.0780489 0.0782438 0.0784388 0.0786338 0.0788287 0.0790252 0.0792217 0.0794182 0.0796147 0.0798112 0.0800092 0.0802073 0.0804053 0.0806033 0.0808014 0.0810009 0.0812005 0.0814001 0.0815997 0.0817993 0.0820004 0.0822015 0.0824027 0.0826038 0.082805 0.0830077 0.0832104 0.0834131 0.0836158 0.0838186 0.0840229 0.0842272 0.0844315 0.0846358 0.0848401 0.085046 0.0852519 0.0854578 0.0856638 0.0858697 0.0860772 0.0862847 0.0864923 0.0866998 0.0869073 0.0870556 0.0872039 0.0873521 0.0875004 0.0876409 0.0877034 0.0877658 0.0878282 0.0878907 0.0879531 0.0881639 0.0883747 0.0885855 0.0887963 0.0890072 0.0892196 0.0894321 0.0896445 0.089857 0.0900695 0.0902836 0.0904977 0.0907119 0.090926 0.0911402 0.091356 0.0915718 0.0917876 0.0920034 0.0922193 0.0924368 0.0926543 0.0928719 0.0930894 0.0933069 0.0935262 0.0937454 0.0939647 0.0941839 0.0944032 0.0946242 0.0948451 0.0950661 0.0952871 0.0955081 0.0957308 0.0959535 0.0961762 0.096399 0.0966217 0.0968222 0.0970227 0.0972233 0.0974238 0.0976111 0.0976378 0.0976644 0.097691 0.0977176 0.0977442 0.0979705 0.0981967 0.098423 0.0986493 0.0988756 0.0991036 0.0993317 0.0995598 0.0997878 0.100016 0.100246 0.100476 0.100706 0.100935 0.101165 0.101397 0.101629 0.10186 0.102092 0.102324 0.102558 0.102791 0.103025 0.103258 0.103492 0.103727 0.103963 0.104198 0.104433 0.104669 0.104906 0.105144 0.105381 0.105618 0.105856 0.105902 0.105948 0.105994 0.10604 0.106086 0.106279 0.106472 0.106665 0.106858 0.107052 0.107293 0.107534 0.107775 0.108016 0.108257 0.1085 0.108743 0.108986 0.10923 0.109473 0.109718 0.109963 0.110208 0.110453 0.110698 0.110945 0.111192 0.111439 0.111686 0.111933 0.112182 0.112431 0.11268 0.112929 0.113178 0.113257 0.113337 0.113416 0.113495 0.113573 0.113745 0.113917 0.114089 0.114261 0.114433 0.114686 0.114939 0.115192 0.115445 0.115698 0.115954 0.116209 0.116464 0.116719 0.116974 0.117231 0.117488 0.117746 0.118003 0.11826 0.118519 0.118779 0.119038 0.119297 0.119556 0.119723 0.119889 0.120055 0.120221 0.120381 0.120477 0.120574 0.120671 0.120767 0.120864 0.121127 0.121391 0.121654 0.121918 0.122181 0.122447 0.122713 0.122978 0.123244 0.12351 0.123778 0.124046 0.124314 0.124581 0.124849 0.12512 0.12539 0.12566 0.12593 0.1262 0.126304 0.126407 0.126511 0.126614 0.126715 0.126885 0.127054 0.127223 0.127392 0.127562 0.127836 0.128111 0.128385 0.12866 0.128934 0.129211 0.129488 0.129765 0.130042 0.130319 0.130598 0.130877 0.131156 0.131435 0.131714 0.13192 0.132126 0.132332 0.132538 0.132738 0.132814 0.132891 0.132968 0.133045 0.133121 0.133405 0.133689 0.133972 0.134256 0.13454 0.134826 0.135112 0.135398 0.135684 0.13597 0.136259 0.136547 0.136835 0.137124 0.137412 0.137648 0.137884 0.138119 0.138355 0.138584 0.13864 0.138697 0.138753 0.13881 0.138866 0.139159 0.139452 0.139745 0.140038 0.140332 0.140627 0.140923 0.141218 0.141514 0.141809 0.142107 0.142405 0.142703 0.143001 0.143299 0.143515 0.143731 0.143946 0.144162 0.144374 0.14446 0.144545 0.14463 0.144715 0.1448 0.145103 0.145406 0.145709 0.146011 0.146314 0.146619 0.146924 0.147229 0.147535 0.14784 0.148147 0.148455 0.148762 0.14907 0.149378 0.149546 0.149714 0.149882 0.150051 0.150218 0.15036 0.150502 0.150644 0.150786 0.150928 0.15124 0.151553 0.151865 0.152177 0.15249 0.152805 0.15312 0.153435 0.153749 0.154064 0.154382 0.154699 0.155016 0.155333 0.155651 0.155768 0.155884 0.156001 0.156118 0.156235 0.156438 0.156641 0.156844 0.157047 0.15725 0.157572 0.157894 0.158216 0.158538 0.15886 0.159185 0.15951 0.159834 0.160159 0.160484 0.160811 0.161138 0.161465 0.161792 0.162119 0.162206 0.162293 0.16238 0.162467 0.162554 0.162797 0.163039 0.163282 0.163524 0.163767 0.164099 0.164431 0.164763 0.165095 0.165427 0.165761 0.166096 0.16643 0.166765 0.167099 0.167436 0.167773 0.16811 0.168447 0.168784 0.168891 0.168998 0.169106 0.169213 0.169321 0.169553 0.169785 0.170017 0.170249 0.170481 0.170823 0.171165 0.171507 0.171849 0.172191 0.172535 0.17288 0.173224 0.173569 0.173913 0.17426 0.174607 0.174954 0.175301 0.175648 0.175779 0.17591 0.176041 0.176173 0.176306 0.176524 0.176742 0.176959 0.177177 0.177395 0.177747 0.1781 0.178452 0.178804 0.179156 0.17951 0.179865 0.18022 0.180575 0.180929 0.181287 0.181644 0.182001 0.182359 0.182716 0.182932 0.183148 0.183364 0.18358 0.183801 0.183944 0.184087 0.18423 0.184372 0.184515 0.184878 0.185241 0.185603 0.185966 0.186328 0.186694 0.187059 0.187424 0.18779 0.188155 0.188523 0.188891 0.189259 0.189627 0.189995 0.190365 0.190736 0.191107 0.191478 0.191848 0.191858 0.191867 0.191876 0.191885 0.191894 0.192258 0.192623 0.192987 0.193352 0.193716 0.194093 0.194469 0.194845 0.195222 0.195598 0.195977 0.196356 0.196736 0.197115 0.197494 0.197876 0.198258 0.19864 0.199022 0.199404 0.199626 0.199847 0.200068 0.200289 0.200512 0.200676 0.200839 0.201002 0.201166 0.201329 0.201717 0.202105 0.202493 0.202881 0.203269 0.20366 0.204051 0.204442 0.204833 0.205224 0.205618 0.206011 0.206405 0.206799 0.207193 0.20759 0.207987 0.208384 0.208781 0.209178 0.209222 0.209265 0.209309 0.209352 0.209396 0.209752 0.210109 0.210465 0.210822 0.211178 0.211581 0.211984 0.212387 0.212791 0.213194 0.2136 0.214006 0.214412 0.214819 0.215225 0.215634 0.216043 0.216453 0.216862 0.217271 0.217489 0.217707 0.217925 0.218144 0.218365 0.218559 0.218753 0.218946 0.21914 0.219334 0.219749 0.220165 0.22058 0.220996 0.221411 0.22183 0.222249 0.222667 0.223086 0.223504 0.223926 0.224348 0.224769 0.225191 0.225612 0.226037 0.226462 0.226887 0.227311 0.227736 0.227785 0.227834 0.227883 0.227932 0.227982 0.228343 0.228705 0.229067 0.229429 0.22979 0.230217 0.230644 0.23107 0.231497 0.231923 0.232325 0.232726 0.233128 0.233529 0.233977 0.234009 0.234041 0.234073 0.234106 0.234138 0.234598 0.235058 0.235518 0.235978 0.236437 0.236915 0.237392 0.23787 0.238348 0.238825 0.239219 0.239614 0.240009 0.240403 0.240857 0.240946 0.241036 0.241125 0.241214 0.241304 0.241819 0.242334 0.242849 0.243364 0.243878 0.244413 0.244948 0.245483 0.246018 0.246552 0.247107 0.247662 0.248217 0.248772 0.24933 0.249358 0.249386 0.249414 0.249442 0.249471 0.25002 0.250569 0.251118 0.251667 0.252216 0.252815 0.253415 0.254015 0.254614 0.255214 0.255837 0.25646 0.257083 0.257706 0.25833 0.258977 0.259625 0.260272 0.26092 0.261568 0.26163 0.261692 0.261755 0.261817 0.261881 0.262491 0.263102 0.263712 0.264322 0.264932 0.265632 0.266331 0.26703 0.26773 0.268429 0.269156 0.269883 0.27061 0.271336 0.272064 0.272819 0.273574 0.274329 0.275085 0.275841 0.276625 0.27741 0.278195 0.27898 0.279766 0.280582 0.281397 0.282213 0.283029 0.283845 0.284362 0.284879 0.285397 0.285914 0.286563 0.286867 0.287171 0.287476 0.28778 0.288085 0.288966 0.289847 0.290728 0.291609 0.29249 0.293405 0.294321 0.295237 0.296152 0.297068 0.298019 0.29897 0.299922 0.300873 0.301824 0.302813 0.303802 0.30479 0.305779 0.306768 0.307794 0.308821 0.309848 0.310875 0.3119