# vtk DataFile Version 2.0
track0
ASCII
DATASET POLYDATA
POINTS 12080 float
-0.0205 0.001 1e-05
-0.02052 0.000999985 1e-05
-0.02054 0.000999974 1e-05
-0.02056 0.000999965 1e-05
-0.02058 0.000999959 1e-05
-0.0206 0.000999956 1e-05
-0.0205 0.00367778 1e-05
-0.02052 0.00367778 1e-05
-0.02054 0.00367777 1e-05
-0.02056 0.00367777 1e-05
-0.02058 0.00367777 1e-05
-0.0206 0.00367777 1e-05
-0.0205 0.00635556 1e-05
-0.02052 0.00635555 1e-05
-0.02054 0.00635555 1e-05
-0.02056 0.00635555 1e-05
-0.02058 0.00635555 1e-05
-0.0206 0.00635555 1e-05
-0.0205 0.00903333 1e-05
-0.02052 0.00903333 1e-05
-0.02054 0.00903333 1e-05
-0.02056 0.00903333 1e-05
-0.02058 0.00903333 1e-05
-0.0206 0.00903333 1e-05
-0.0205 0.0117111 1e-05
-0.02052 0.0117111 1e-05
-0.02054 0.0117111 1e-05
-0.02056 0.0117111 1e-05
-0.02058 0.0117111 1e-05
-0.0206 0.0117111 1e-05
-0.0205 0.0143889 1e-05
-0.02052 0.0143889 1e-05
-0.02054 0.0143889 1e-05
-0.02056 0.0143889 1e-05
-0.02058 0.0143889 1e-05
-0.0206 0.0143889 1e-05
-0.0205 0.0170667 1e-05
-0.02052 0.0170667 1e-05
-0.02054 0.0170667 1e-05
-0.02056 0.0170667 1e-05
-0.02058 0.0170667 1e-05
-0.0206 0.0170667 1e-05
-0.0205 0.0197444 1e-05
-0.02052 0.0197444 1e-05
-0.02054 0.0197444 1e-05
-0.02056 0.0197444 1e-05
-0.02058 0.0197444 1e-05
-0.0206 0.0197444 1e-05
-0.0205 0.0224222 1e-05
-0.02052 0.0224222 1e-05
-0.02054 0.0224222 1e-05
-0.02056 0.0224222 1e-05
-0.02058 0.0224222 1e-05
-0.0206 0.0224222 1e-05
-0.0205 0.0251 1e-05
-0.02052 0.0250998 1e-05
-0.02054 0.0250997 1e-05
-0.02056 0.0250995 1e-05
-0.02058 0.0250995 1e-05
-0.0206 0.0250994 1e-05
-0.0205 0.001 1e-05
-0.0202034 0.00100022 1e-05
-0.0199069 0.00100067 1e-05
-0.0196103 0.00100133 1e-05
-0.0193137 0.00100219 1e-05
-0.0190172 0.00100326 1e-05
-0.0187132 0.00100467 1e-05
-0.0184093 0.00100589 1e-05
-0.0181054 0.00100711 1e-05
-0.0178015 0.00100833 1e-05
-0.0174976 0.00100954 1e-05
-0.0172058 0.00101084 1e-05
-0.016914 0.00101194 1e-05
-0.0166222 0.00101304 1e-05
-0.0163305 0.00101414 1e-05
-0.0160387 0.00101523 1e-05
-0.0157586 0.00101637 1e-05
-0.0154784 0.00101745 1e-05
-0.0151983 0.00101857 1e-05
-0.0149182 0.00101973 1e-05
-0.0146381 0.00102092 1e-05
-0.0143754 0.0010221 1e-05
-0.0141128 0.00102328 1e-05
-0.0138501 0.00102449 1e-05
-0.0135874 0.00102574 1e-05
-0.0133657 0.00102682 1e-05
-0.0133512 0.00102689 1e-05
-0.0133368 0.00102696 1e-05
-0.0133223 0.00102703 1e-05
-0.0133079 0.0010271 1e-05
-0.0132934 0.00102718 1e-05
-0.0130353 0.00102847 1e-05
-0.0127771 0.00102977 1e-05
-0.0125189 0.00103109 1e-05
-0.0122607 0.00103243 1e-05
-0.0120025 0.00103378 1e-05
-0.0117547 0.00103509 1e-05
-0.0115068 0.00103641 1e-05
-0.0112589 0.00103774 1e-05
-0.0110111 0.00103906 1e-05
-0.0107632 0.0010404 1e-05
-0.0105252 0.00104168 1e-05
-0.0102873 0.00104296 1e-05
-0.0100493 0.00104424 1e-05
-0.00981133 0.00104553 1e-05
-0.00957337 0.00104681 1e-05
-0.00934491 0.00104803 1e-05
-0.00911645 0.00104926 1e-05
-0.00888799 0.00105049 1e-05
-0.00865954 0.00105171 1e-05
-0.00843108 0.00105293 1e-05
-0.00821175 0.00105409 1e-05
-0.00799242 0.00105526 1e-05
-0.00777309 0.00105642 1e-05
-0.00755376 0.00105758 1e-05
-0.00733443 0.00105873 1e-05
-0.00712387 0.00105983 1e-05
-0.0069133 0.00106093 1e-05
-0.00670273 0.00106203 1e-05
-0.00649216 0.00106313 1e-05
-0.0062816 0.00106422 1e-05
-0.00607944 0.00106526 1e-05
-0.00587729 0.0010663 1e-05
-0.00567514 0.00106733 1e-05
-0.00547298 0.00106837 1e-05
-0.00527083 0.0010694 1e-05
-0.00507675 0.00107038 1e-05
-0.00488267 0.00107137 1e-05
-0.0046886 0.00107235 1e-05
-0.00449452 0.00107333 1e-05
-0.00430044 0.00107432 1e-05
-0.00411412 0.00107525 1e-05
-0.0039278 0.00107619 1e-05
-0.00374147 0.00107713 1e-05
-0.00355515 0.00107807 1e-05
-0.00336883 0.001079 1e-05
-0.00318995 0.0010799 1e-05
-0.00301107 0.0010808 1e-05
-0.00283219 0.00108171 1e-05
-0.00265331 0.00108261 1e-05
-0.00247443 0.00108353 1e-05
-0.0023027 0.0010844 1e-05
-0.00213097 0.00108529 1e-05
-0.00195924 0.00108618 1e-05
-0.0017875 0.00108708 1e-05
-0.00161577 0.00108798 1e-05
-0.0014509 0.00108886 1e-05
-0.00128603 0.00108974 1e-05
-0.00112116 0.00109065 1e-05
-0.00095629 0.00109157 1e-05
-0.000791418 0.00109251 1e-05
-0.000633135 0.00109342 1e-05
-0.000474851 0.00109436 1e-05
-0.000316568 0.00109532 1e-05
-0.000158285 0.0010963 1e-05
0 0.00109731 1e-05
0.000105677 0.00109799 1e-05
0.000211355 0.00109868 1e-05
0.000317032 0.00109937 1e-05
0.00042271 0.00110007 1e-05
0.000528387 0.00110077 1e-05
0.000634886 0.00110147 1e-05
0.000741385 0.00110217 1e-05
0.000847885 0.00110286 1e-05
0.000954384 0.00110355 1e-05
0.00106088 0.00110422 1e-05
0.00116821 0.0011049 1e-05
0.00127554 0.00110556 1e-05
0.00138286 0.0011062 1e-05
0.00149019 0.00110684 1e-05
0.00159752 0.00110745 1e-05
0.00170568 0.00110806 1e-05
0.00181384 0.00110866 1e-05
0.001922 0.00110924 1e-05
0.00203016 0.00110981 1e-05
0.00213833 0.00111037 1e-05
0.00224733 0.00111091 1e-05
0.00235633 0.00111144 1e-05
0.00246533 0.00111196 1e-05
0.00257434 0.00111246 1e-05
0.00268334 0.00111296 1e-05
0.00279319 0.00111343 1e-05
0.00290304 0.0011139 1e-05
0.00301289 0.00111436 1e-05
0.00312274 0.00111481 1e-05
0.00323259 0.00111524 1e-05
0.00334329 0.00111566 1e-05
0.003454 0.00111607 1e-05
0.0035647 0.00111648 1e-05
0.0036754 0.00111686 1e-05
0.00378611 0.00111724 1e-05
0.00389767 0.0011176 1e-05
0.00400924 0.00111795 1e-05
0.0041208 0.00111829 1e-05
0.00423237 0.00111862 1e-05
0.00434393 0.00111894 1e-05
0.00445636 0.00111924 1e-05
0.00456879 0.00111954 1e-05
0.00468123 0.00111982 1e-05
0.00479366 0.00112009 1e-05
0.00490609 0.00112035 1e-05
0.0050194 0.0011206 1e-05
0.0051327 0.00112084 1e-05
0.00524601 0.00112106 1e-05
0.00535932 0.00112128 1e-05
0.00547262 0.00112148 1e-05
0.00558681 0.00112167 1e-05
0.005701 0.00112185 1e-05
0.00581518 0.00112202 1e-05
0.00592937 0.00112218 1e-05
0.00604356 0.00112232 1e-05
0.00615863 0.00112246 1e-05
0.00627371 0.00112258 1e-05
0.00638878 0.0011227 1e-05
0.00650386 0.0011228 1e-05
0.00661893 0.00112289 1e-05
0.0067349 0.00112297 1e-05
0.00685087 0.00112304 1e-05
0.00696684 0.0011231 1e-05
0.00708281 0.00112315 1e-05
0.00719878 0.00112318 1e-05
0.00731565 0.0011232 1e-05
0.00743252 0.00112322 1e-05
0.00754939 0.00112322 1e-05
0.00766626 0.00112322 1e-05
0.00778313 0.0011232 1e-05
0.00790091 0.00112317 1e-05
0.00801869 0.00112312 1e-05
0.00813647 0.00112307 1e-05
0.00825425 0.00112301 1e-05
0.00837203 0.00112294 1e-05
0.00837551 0.00112293 1e-05
0.00837899 0.00112293 1e-05
0.00838247 0.00112293 1e-05
0.00838595 0.00112293 1e-05
0.00838942 0.00112292 1e-05
0.00850464 0.00112284 1e-05
0.00861986 0.00112274 1e-05
0.00873507 0.00112264 1e-05
0.00885029 0.00112252 1e-05
0.00896551 0.00112239 1e-05
0.00908513 0.00112224 1e-05
0.00920475 0.00112209 1e-05
0.00932437 0.00112192 1e-05
0.00944398 0.00112174 1e-05
0.0095636 0.00112155 1e-05
0.00968415 0.00112134 1e-05
0.0098047 0.00112113 1e-05
0.00992525 0.0011209 1e-05
0.0100458 0.00112066 1e-05
0.0101663 0.00112041 1e-05
0.0102878 0.00112014 1e-05
0.0104093 0.00111987 1e-05
0.0105308 0.00111958 1e-05
0.0106523 0.00111928 1e-05
0.0107738 0.00111897 1e-05
0.0108962 0.00111863 1e-05
0.0110186 0.00111829 1e-05
0.0111411 0.00111794 1e-05
0.0112635 0.00111758 1e-05
0.0113859 0.0011172 1e-05
0.0115093 0.0011168 1e-05
0.0116327 0.00111639 1e-05
0.0117561 0.00111598 1e-05
0.0118795 0.00111555 1e-05
0.0120028 0.00111511 1e-05
0.0121272 0.00111464 1e-05
0.0122515 0.00111417 1e-05
0.0123759 0.00111368 1e-05
0.0125002 0.00111319 1e-05
0.0126245 0.00111268 1e-05
0.0127498 0.00111214 1e-05
0.0128752 0.0011116 1e-05
0.0130005 0.00111105 1e-05
0.0131258 0.00111048 1e-05
0.0132511 0.0011099 1e-05
0.0133774 0.0011093 1e-05
0.0135036 0.00110869 1e-05
0.0136299 0.00110806 1e-05
0.0137562 0.00110742 1e-05
0.0138825 0.00110677 1e-05
0.0140098 0.0011061 1e-05
0.014137 0.00110541 1e-05
0.0142643 0.00110471 1e-05
0.0143915 0.001104 1e-05
0.0145188 0.00110327 1e-05
0.0146471 0.00110253 1e-05
0.0147753 0.00110177 1e-05
0.0149036 0.001101 1e-05
0.0150318 0.00110021 1e-05
0.0151601 0.0010994 1e-05
0.0152893 0.00109859 1e-05
0.0154186 0.00109775 1e-05
0.0155478 0.0010969 1e-05
0.0156771 0.00109603 1e-05
0.0158063 0.00109515 1e-05
0.0159366 0.00109426 1e-05
0.0160668 0.00109335 1e-05
0.0161971 0.00109242 1e-05
0.0163273 0.00109147 1e-05
0.0164576 0.00109051 1e-05
0.0165889 0.00108954 1e-05
0.0167201 0.00108855 1e-05
0.0168514 0.00108754 1e-05
0.0169827 0.0010865 1e-05
0.0171139 0.00108547 1e-05
0.0172462 0.00108442 1e-05
0.0173785 0.00108335 1e-05
0.0175108 0.00108225 1e-05
0.0176431 0.00108113 1e-05
0.0177754 0.00108001 1e-05
0.0179087 0.00107888 1e-05
0.018042 0.00107772 1e-05
0.0181753 0.00107654 1e-05
0.0183087 0.00107533 1e-05
0.018442 0.00107413 1e-05
0.0185763 0.00107292 1e-05
0.0187107 0.00107167 1e-05
0.018845 0.00107039 1e-05
0.0189794 0.0010691 1e-05
0.0191137 0.00106781 1e-05
0.0192491 0.00106651 1e-05
0.0193845 0.00106517 1e-05
0.0195199 0.00106381 1e-05
0.0196553 0.00106242 1e-05
0.0197907 0.00106104 1e-05
0.0199272 0.00105965 1e-05
0.0200636 0.00105822 1e-05
0.0202001 0.00105676 1e-05
0.0203365 0.00105528 1e-05
0.020473 0.0010538 1e-05
0.0206105 0.00105232 1e-05
0.020748 0.0010508 1e-05
0.0208855 0.00104924 1e-05
0.021023 0.00104767 1e-05
0.0211606 0.00104609 1e-05
0.0212991 0.00104451 1e-05
0.0214377 0.00104289 1e-05
0.0215763 0.00104123 1e-05
0.0217149 0.00103956 1e-05
0.0218535 0.00103788 1e-05
0.0219931 0.0010362 1e-05
0.0221328 0.00103448 1e-05
0.0222724 0.00103272 1e-05
0.0224121 0.00103094 1e-05
0.0225517 0.00102916 1e-05
0.0226925 0.00102737 1e-05
0.0228332 0.00102555 1e-05
0.022974 0.00102368 1e-05
0.0231147 0.00102179 1e-05
0.0232555 0.00101991 1e-05
0.0233973 0.00101801 1e-05
0.0235391 0.00101607 1e-05
0.023681 0.00101409 1e-05
0.0238228 0.00101209 1e-05
0.0239647 0.0010101 1e-05
0.0241076 0.00100808 1e-05
0.0242505 0.00100603 1e-05
0.0243935 0.00100394 1e-05
0.0245364 0.00100183 1e-05
0.0246794 0.000999711 1e-05
0.0248234 0.000997576 1e-05
0.0249675 0.000995399 1e-05
0.0251115 0.00099319 1e-05
0.0252556 0.000990961 1e-05
[...]
POINT_DATA 12080
 FIELD attributes 3
age 1 12080 float
0 -2e-05 -4e-05 -6e-05 -8e-05 -0.0001
0 -2e-05 -4e-05 -6e-05 -8e-05 -0.0001
0 -2e-05 -4e-05 -6e-05 -8e-05 -0.0001
0 -2e-05 -4e-05 -6e-05 -8e-05 -0.0001
0 -2e-05 -4e-05 -6e-05 -8e-05 -0.0001
0 -2e-05 -4e-05 -6e-05 -8e-05 -0.0001
0 -2e-05 -4e-05 -6e-05 -8e-05 -0.0001
0 -2e-05 -4e-05 -6e-05 -8e-05 -0.0001
0 -2e-05 -4e-05 -6e-05 -8e-05 -0.0001
0 -2.00009e-05 -4.00018e-05 -6.00027e-05 -8.00036e-05 -0.000100002
0 0.000296567 0.000593135 0.000889702 0.00118627 0.00148284 0.00178676 0.00209069 0.00239461 0.00269853 0.00300245 0.00329423 0.00358601 0.00387779 0.00416957 0.00446135 0.00474147 0.00502159 0.00530171 0.00558183 0.00586196 0.00612462 0.00638729 0.00664996 0.00691263 0.00713439 0.00714883 0.00716328 0.00717772 0.00719216 0.00720661 0.0074648 0.00772298 0.00798117 0.00823935 0.00849754 0.00874541 0.00899328 0.00924116 0.00948903 0.0097369 0.00997487 0.0102128 0.0104508 0.0106888 0.0109267 0.0111552 0.0113837 0.0116121 0.0118406 0.012069 0.0122884 0.0125077 0.012727 0.0129464 0.0131657 0.0133763 0.0135868 0.0137974 0.014008 0.0142186 0.0144207 0.0146229 0.014825 0.0150272 0.0152293 0.0154234 0.0156175 0.0158116 0.0160057 0.0161997 0.0163861 0.0165724 0.0167587 0.016945 0.0171314 0.0173102 0.0174891 0.017668 0.0178469 0.0180258 0.0181975 0.0183692 0.018541 0.0187127 0.0188844 0.0190493 0.0192142 0.0193791 0.0195439 0.0197088 0.0198671 0.0200254 0.0201837 0.020342 0.0205002 0.0206059 0.0207116 0.0208173 0.020923 0.0210286 0.0211351 0.0212416 0.0213481 0.0214546 0.0215611 0.0216685 0.0217758 0.0218831 0.0219905 0.0220978 0.022206 0.0223141 0.0224223 0.0225304 0.0226386 0.0227476 0.0228566 0.0229656 0.0230746 0.0231836 0.0232935 0.0234033 0.0235132 0.023623 0.0237329 0.0238436 0.0239543 0.024065 0.0241757 0.0242864 0.024398 0.0245095 0.0246211 0.0247327 0.0248442 0.0249567 0.0250691 0.0251815 0.025294 0.0254064 0.0255197 0.025633 0.0257463 0.0258596 0.0259729 0.0260871 0.0262013 0.0263155 0.0264297 0.0265439 0.0266589 0.026774 0.0268891 0.0270042 0.0271192 0.0272352 0.0273512 0.0274671 0.0275831 0.0276991 0.027816 0.0279328 0.0280497 0.0281666 0.0282834 0.0284012 0.028519 0.0286368 0.0287546 0.0288723 0.0288758 0.0288793 0.0288828 0.0288862 0.0288897 0.0290049 0.0291202 0.0292354 0.0293506 0.0294658 0.0295854 0.029705 0.0298247 0.0299443 0.0300639 0.0301845 0.030305 0.0304256 0.0305461 0.0306666 0.0307881 0.0309096 0.0310311 0.0311526 0.0312741 0.0313965 0.0315189 0.0316414 0.0317638 0.0318862 0.0320096 0.032133 0.0322564 0.0323798 0.0325031 0.0326275 0.0327518 0.0328762 0.0330005 0.0331249 0.0332502 0.0333755 0.0335008 0.0336261 0.0337514 0.0338777 0.034004 0.0341303 0.0342565 0.0343828 0.0345101 0.0346374 0.0347646 0.0348919 0.0350191 0.0351474 0.0352757 0.0354039 0.0355322 0.0356604 0.0357897 0.0359189 0.0360482 0.0361774 0.0363067 0.036437 0.0365672 0.0366975 0.0368277 0.036958 0.0370893 0.0372205 0.0373518 0.0374831 0.0376143 0.0377466 0.0378789 0.0380112 0.0381435 0.0382758 0.0384091 0.0385425 0.0386758 0.0388091 0.0389424 0.0390768 0.0392111 0.0393455 0.0394799 0.0396142 0.0397496 0.039885 0.0400204 0.0401558 0.0402912 0.0404277 0.0405642 0.0407006 0.0408371 0.0409735 0.0411111 0.0412486 0.0413861 0.0415236 0.0416611 0.0417997 0.0419383 0.0420769 0.0422155 0.0423541 0.0424938 0.0426334 0.0427731 0.0429128 0.0430524 0.0431932 0.043334 0.0434747 0.0436155 0.0437562 0.0438981 0.0440399 0.0441818 0.0443236 0.0444655 0.0446084 0.0447514 0.0448944 0.0450373 0.0451803 0.0453243 0.0454684 0.0456125 0.0457565 0.0459006 0.0460458 0.046191 0.0463362 0.0464814 0.0466266 0.0467729 0.0469192 0.0470655 0.0472119 0.0473582 0.0475056 0.0476531 0.0478006 0.047948 0.0480955 0.0482441 0.0483927 0.0485413 0.0486899 0.0488385 0.0489883 0.0491381 0.0492878 0.0494376 0.0495874 0.0497383 0.0498892 0.0500402 0.0501911 0.0503421 0.0504568 0.0505714 0.0506861 0.0508008 0.0509094 0.050948 0.0509867 0.0510253 0.051064 0.0511026 0.0512559 0.0514092 0.0515625 0.0517158 0.0518691 0.0520236 0.0521781 0.0523326 0.0524871 0.0526416 0.0527973 0.052953 0.0531087 0.0532644 0.0534201 0.053577 0.0537339 0.0538908 0.0540477 0.0542046 0.0543628 0.0545209 0.054679 0.0548372 0.0549953 0.0551547 0.0553141 0.0554734 0.0556328 0.0557922 0.0559528 0.0561134 0.056274 0.0564346 0.0565953 0.0567572 0.056919 0.0570809 0.0572428 0.0574046 0.0575678 0.0577309 0.0578941 0.0580572 0.0582203 0.0583848 0.0585492 0.0587136 0.058878 0.0590424 0.0592081 0.0593738 0.0595395 0.0597052 0.0598709 0.0600379 0.0602049 0.0603719 0.0605389 0.0607059 0.0608742 0.0610425 0.0612109 0.0613792 0.0615475 0.0617171 0.0618867 0.0620564 0.062226 0.0623956 0.0625666 0.0627375 0.0629085 0.0630795 0.0632504 0.0633553 0.0634602 0.0635652 0.0636701 0.0637696 0.0638381 0.0639065 0.063975 0.0640435 0.064112 0.0642856 0.0644593 0.0646329 0.0648066 0.0649803 0.0651553 0.0653303 0.0655053 0.0656803 0.0658554 0.0660318 0.0662082 0.0663846 0.066561 0.0667374 0.0669152 0.067093 0.0672708 0.0674486 0.0676264 0.0678056 0.0679848 0.068164 0.0683432 0.0685224 0.068703 0.0688836 0.0690643 0.0692449 0.0694255 0.0696076 0.0697896 0.0699716 0.0701537 0.0703358 0.0705193 0.0707027 0.0708862 0.0710697 0.0712532 0.0714382 0.0716231 0.071808 0.071993 0.072178 0.0722732 0.0723684 0.0724636 0.0725588 0.07265 0.072742 0.0728341 0.0729261 0.0730181 0.0731101 0.073298 0.0734859 0.0736738 0.0738617 0.0740496 0.074239 0.0744284 0.0746178 0.0748072 0.0749966 0.0751875 0.0753784 0.0755693 0.0757602 0.0759512 0.0761437 0.0763361 0.0765285 0.0767209 0.0769135 0.0771074 0.0773014 0.0774953 0.0776893 0.0778834 0.0780789 0.0782744 0.0784699 0.0786655 0.0788611 0.0789833 0.0791055 0.0792277 0.07935 0.0794669 0.0795428 0.0796188 0.0796947 0.0797707 0.0798466 0.0800453 0.080244 0.0804427 0.0806413 0.0808401 0.0810404 0.0812406 0.0814409 0.0816412 0.0818415 0.0820434 0.0822453 0.0824471 0.082649 0.082851 0.0830545 0.083258 0.0834615 0.0836649 0.0838685 0.0840737 0.0842788 0.0844839 0.084689 0.0848942 0.0850462 0.0851982 0.0853502 0.0855022 0.0856491 0.0857049 0.0857607 0.0858165 0.0858723 0.0859282 0.0861366 0.086345 0.0865534 0.0867618 0.0869703 0.0871804 0.0873904 0.0876005 0.0878106 0.0880207 0.0882325 0.0884442 0.0886559 0.0888676 0.0890794 0.0892928 0.0895062 0.0897196 0.089933 0.0901465 0.0903615 0.0905766 0.0907917 0.0910067 0.0912218 0.0913356 0.0914494 0.0915632 0.091677 0.0917911 0.091894 0.0919969 0.0920998 0.0922026 0.0923055 0.0925239 0.0927423 0.0929607 0.0931792 0.0933975 0.0936176 0.0938377 0.0940578 0.0942779 0.0944979 0.0947196 0.0949414 0.0951632 0.0953849 0.0956066 0.09583 0.0960534 0.0962769 0.0965003 0.0967236 0.0969487 0.0971739 0.097399 0.0976241 0.0978491 0.0980511 0.0982532 0.0984553 0.0986574 0.098873 0.098895 0.0989169 0.0989389 0.0989609 0.0989829 0.0992114 0.0994398 0.0996683 0.0998968 0.100125 0.100355 0.100585 0.100816 0.101046 0.101276 0.101508 0.10174 0.101972 0.102203 0.102435 0.102669 0.102902 0.103136 0.10337 0.103603 0.103838 0.104074 0.104309 0.104545 0.10478 0.105017 0.105254 0.105491 0.105728 0.105965 0.106204 0.106443 0.106682 0.106921 0.107159 0.1074 0.107641 0.107882 0.108122 0.108363 0.108605 0.108848 0.10909 0.109333 0.109575 0.109647 0.109719 0.10979 0.109862 0.109937 0.110109 0.110281 0.110453 0.110625 0.110797 0.111043 0.111289 0.111535 0.111782 0.112028 0.112276 0.112524 0.112772 0.11302 0.113268 0.113518 0.113768 0.114018 0.114268 0.114518 0.11477 0.115022 0.115273 0.115525 0.115777 0.116031 0.116285 0.116539 0.116793 0.117046 0.117302 0.117558 0.117814 0.11807 0.118325 0.118583 0.118841 0.119099 0.119357 0.119614 0.119874 0.120134 0.120394 0.120654 0.120913 0.121175 0.121437 0.121699 0.121961 0.122223 0.122486 0.12275 0.123014 0.123278 0.123542 0.123808 0.124074 0.12434 0.124606 0.124872 0.12514 0.125408 0.125676 0.125944 0.126212 0.126482 0.126753 0.127023 0.127293 0.127563 0.127836 0.128108 0.12838 0.128653 0.128925 0.129015 0.129104 0.129193 0.129282 0.129366 0.129553 0.129739 0.129925 0.130112 0.130298 0.130575 0.130852 0.131129 0.131405 0.131682 0.131961 0.13224 0.132519 0.132798 0.133078 0.133359 0.13364 0.133922 0.134203 0.134485 0.134768 0.135052 0.135336 0.135619 0.135903 0.136189 0.136475 0.136761 0.137047 0.137334 0.137622 0.137911 0.138199 0.138488 0.138777 0.139068 0.139359 0.139649 0.13994 0.140232 0.140261 0.140291 0.14032 0.14035 0.140379 0.140643 0.140907 0.141171 0.141435 0.1417 0.141996 0.142292 0.142588 0.142884 0.143181 0.143479 0.143778 0.144077 0.144376 0.144675 0.144977 0.145278 0.145579 0.145881 0.146183 0.14645 0.146716 0.146983 0.147249 0.147483 0.147527 0.147572 0.147616 0.147661 0.147705 0.148012 0.148319 0.148626 0.148933 0.149242 0.149552 0.149862 0.150172 0.150482 0.150793 0.151106 0.151419 0.151732 0.152045 0.15236 0.152498 0.152636 0.152775 0.152913 0.153045 0.153224 0.153403 0.153583 0.153762 0.153942 0.154261 0.154581 0.1549 0.155219 0.15554 0.155863 0.156186 0.156508 0.156831 0.157155 0.157283 0.157411 0.157539 0.157667 0.157789 0.157989 0.158188 0.158388 0.158587 0.158787 0.159117 0.159446 0.159775 0.160105 0.160436 0.160766 0.161095 0.161424 0.161754 0.162054 0.162064 0.162074 0.162083 0.162093 0.162103 0.162439 0.162776 0.163112 0.163449 0.163787 0.164127 0.164467 0.164807 0.165147 0.165489 0.165598 0.165708 0.165817 0.165927 0.166034 0.166269 0.166503 0.166738 0.166973 0.167208 0.167555 0.167902 0.168249 0.168596 0.168944 0.169087 0.16923 0.169373 0.169516 0.169656 0.169864 0.170072 0.17028 0.170488 0.170697 0.17105 0.171404 0.171757 0.172111 0.172465 0.1726 0.172734 0.172869 0.173003 0.173137 0.173359 0.173581 0.173804 0.174026 0.174248 0.174608 0.174967 0.175326 0.175686 0.176045 0.176151 0.176258 0.176365 0.176472 0.176579 0.176834 0.177089 0.177344 0.177599 0.177853 0.178218 0.178582 0.178946 0.17931 0.179673 0.179755 0.179836 0.179918 0.179999 0.180081 0.180366 0.180651 0.180935 0.18122 0.181503 0.181872 0.18224 0.182608 0.182977 0.183343 0.183425 0.183507 0.18359 0.183672 0.183756 0.184043 0.18433 0.184617 0.184905 0.18519 0.185562 0.185934 0.186305 0.186677 0.187046 0.187186 0.187326 0.187466 0.187606 0.187752 0.187984 0.188216 0.188447 0.188679 0.18891 0.189285 0.18966 0.190034 0.190409 0.190782 0.191078 0.191374 0.191671 0.191967 0.192297 0.19237 0.192443 0.192516 0.192589 0.192662 0.19304 0.193418 0.193797 0.194175 0.194551 0.194931 0.195311 0.195691 0.196071 0.196449 0.196709 0.196969 0.197228 0.197488 0.197778 0.197894 0.19801 0.198126 0.198242 0.198357 0.198742 0.199126 0.19951 0.199894 0.200276 0.200663 0.201049 0.201435 0.201822 0.202207 0.202595 0.202984 0.203373 0.203761 0.204149 0.204312 0.204475 0.204639 0.204802 0.204978 0.205203 0.205428 0.205653 0.205879 0.206103 0.206497 0.206891 0.207284 0.207678 0.208071 0.208467 0.208863 0.20926 0.209656 0.210051 0.21045 0.210849 0.211249 0.211648 0.212046 0.212448 0.21285 0.213251 0.213653 0.214054 0.214419 0.214783 0.215148 0.215512 0.215954 0.215978 0.216003 0.216028 0.216053 0.216077 0.216485 0.216893 0.2173 0.217708 0.218115 0.218526 0.218936 0.219347 0.219757 0.220168 0.220581 0.220995 0.221408 0.221822 0.222235 0.222652 0.223068 0.223485 0.223902 0.224318 0.224738 0.225157 0.225577 0.225997 0.226416 0.226839 0.227262 0.227685 0.228107 0.22853 0.228939 0.229349 0.229758 0.230167 0.230577 0.231002 0.231427 0.231852 0.232278 0.232703 0.233097 0.23349 0.233883 0.234277 0.234783 0.234809 0.234835 0.234861 0.234887 0.234913 0.235372 0.235832 0.236291 0.23675 0.23721 0.237687 0.238164 0.238642 0.239119 0.239596 0.240092 0.240588 0.241084 0.24158 0.242077 0.242592 0.243108 0.243623 0.244139 0.244654 0.24519 0.245726 0.246261 0.246797 0.247333 0.247889 0.248446 0.249003 0.249559 0.250116 0.250695 0.251273 0.251852 0.25243 0.253009 0.25361 0.254211 0.254812 0.255413 0.256015 0.256639 0.257264 0.257888 0.258513 0.259138 0.259787 0.260436 0.261085 0.261734 0.262383 0.263058 0.263732 0.264406 0.265081 0.265755 0.265804 0.265852 0.2659 0.265948 0.265997 0.266649 0.267302 0.267954 0.268607 0.269259 0.269988 0.270716 0.271444 0.272172 0.2729 0.273657 0.274413 0.27517 0.275927 0.276683 0.277469 0.278256 0.279042 0.279828 0.280614 0.281431 0.282248 0.283064 0.283881 0.284698 0.285547 0.286395 0.287244 0.288093 0.288941 0.289823 0.290705 0.291587 0.292468 0.29335 0.294266 0.295183 0.296099 0.297015 0.297931 0.298883 0.299835 0.300787 0.301738 0.30269 0.303679 0.304668 0.305657 0.306646 0.307636 0.308663 0.30969 0.310717 0.311744 0.31277