/*--------------------------------*- C++ -*----------------------------------*\
  =========                 |
  \\      /  F ield         | OpenFOAM: The Open Source CFD Toolbox
   \\    /   O peration     | Website:  https://openfoam.org
    \\  /    A nd           | Version:  9
     \\/     M anipulation  |
\*---------------------------------------------------------------------------*/
FoamFile
{
    format      ascii;
    class       surfaceScalarField;
    location    "4.2";
    object      phi;
}
// * * * * * * * * * * * * * * * * * * * * * * * * * * * * * * * * * * * * * //

dimensions      [0 3 -1 0 0 0 0];

internalField   nonuniform List<scalar> 
1300
(
11.2529
1.87548
-5.23219
11.2529
-5.44427
1.87548
-4.65152
4.65152
-1.57441
1.57441
5.71313
5.53972
-3.15357
3.15357
-3.80952
3.80952
-3.34323
3.34323
-1.06194
1.06194
-1.02855
1.02855
0.74558
-0.74558
-3.68457
3.68457
-2.01881
2.01881
-3.57569
3.57569
6.13334
-6.13334
-4.00403
4.00403
-0.917146
0.917146
-4.26383
15.5167
6.98903
6.98903
-2.88949
2.88949
-1.2636
1.2636
1.41034
-1.41034
10.8436
-10.8436
-5.61144
-6.33047
2.01027
-14.4936
-3.434
-3.434
-2.7054
2.7054
-0.829928
1.04555
3.59048
-3.59048
-0.869921
0.869921
-4.7101
0.058576
-4.7101
4.52351
0.128013
4.52351
-1.77734
0.202924
-1.77734
4.77821
-4.77821
1.40888
0.165534
1.40888
3.93481
-3.93481
-5.70887
11.422
5.54399
-5.31955
20.8362
-5.93331
11.473
-3.91581
3.91581
-3.05191
-0.101658
-3.05191
3.31733
-0.163762
3.31733
-4.01938
4.01938
-3.66374
-0.145783
-3.66374
3.92054
-0.11102
3.92054
3.89296
-3.89296
-3.37707
0.0338439
-3.37707
3.22171
0.121515
3.22171
0.771042
1.10443
-2.64652
3.69207
-1.10443
0.0424988
1.02614
0.0357986
1.02614
-1.01459
-0.0139576
-1.01459
1.05085
-0.0223002
1.05085
0.812084
-0.066504
0.812084
-0.779116
0.0335364
-0.779116
-8.08121
-8.05532
-3.74126
0.0566948
-3.74126
-2.00524
-0.0135695
-2.00524
2.06954
-0.0507286
2.06954
-2.74852
2.74852
-3.88624
0.310545
-3.88624
4.81774
1.3156
4.81774
5.0471
6.20576
16.3
-16.3
10.1666
-3.85411
-0.149919
-3.85411
-4.16304
-6.68059
4.16304
-0.159016
-1.02604
0.108896
-1.02604
5.62493
1.3641
5.62493
3.11548
0.10623
-3.11548
0.225987
4.77114
-4.77114
1.77982
1.10968
1.77982
-1.18849
1.18849
1.12684
-0.075993
-1.12684
-0.136758
1.38598
0.024362
1.38598
-1.40975
-0.000593824
-1.40975
7.73762
-14.0681
-7.54601
3.55708
0.127488
-3.55708
0.123081
3.72624
-0.135764
3.72624
-3.49038
3.49038
-3.66496
0.0744826
-3.66496
-0.779817
-0.0901039
-0.779817
0.972208
-0.102287
0.972208
-4.85219
0.142093
-4.85219
-4.27109
0.384855
4.27109
0.252416
1.44118
-1.44118
-1.92526
0.14792
-1.92526
-4.82682
-0.0253713
4.82682
-0.0486097
-4.84434
0.0661259
-4.84434
-3.73397
0.0690101
3.73397
0.200838
4.58786
1.03707
-4.58786
0.653052
-5.37084
11.5766
-5.88202
11.426
-3.65883
-0.256974
-3.65883
4.07998
-0.16417
4.07998
3.30634
0.269359
-3.30634
0.254424
3.53078
-0.213445
3.53078
-3.97198
-0.0473974
-3.97198
3.88855
0.130824
3.88855
3.6335
-0.102718
-3.6335
-0.0302408
3.92451
-0.00396898
3.92451
3.93493
-0.0419705
3.93493
-3.78666
-0.106302
-3.78666
3.52347
-3.52347
3.50156
0.0219076
-3.50156
0.124492
-5.07402
5.07343
-0.00799879
-5.06602
1.01814
1.01814
0.883609
-0.0715254
0.883609
-0.864666
0.0855491
-0.864666
8.10616
-15.6522
7.95477
-16.036
7.19967
-21.6932
7.74235
-15.7977
3.92879
-3.92879
3.90355
0.0252414
-3.90355
0.162292
-1.93764
-0.0675998
-1.93764
-2.50223
-0.246295
-2.50223
3.10669
-0.358169
3.10669
-3.79953
3.79953
-4.14986
0.350332
4.14986
0.667883
3.92758
-0.00306721
-3.92758
0.073468
1.20623
0.202654
-1.20623
0.180186
4.96071
-0.189577
4.96071
-4.32534
-0.445791
-4.32534
-1.87283
-0.0648146
1.87283
-0.0930106
-1.25793
0.0694394
-1.25793
-5.0745
0.00847833
-5.0387
-1.40127
-1.40127
1.30414
4.9962
-3.80082
0.0141635
3.80082
-0.0745776
3.63615
0.163373
-3.63615
0.145771
-3.52484
0.00137278
3.52484
-0.0344598
-0.755659
-0.0241573
-0.755659
-1.18158
1.18158
-1.05859
-0.122992
1.05859
-0.0863823
1.60618
-0.165001
1.60618
2.02186
0.047682
-2.02186
0.0965983
-5.03721
0.192875
-5.03721
4.1005
-0.0205187
4.1005
-4.15685
-0.168496
4.15685
-0.22192
-0.00371509
5.07714
-1.01442
-0.000167237
1.01442
-5.1015
5.10134
-0.763238
0.00757848
0.763238
0.120371
1.02602
0.162477
-1.02602
0.161352
3.91354
-0.0249868
-3.91354
-0.015253
-2.21848
-0.283752
-2.21848
-3.40821
-0.250618
3.40821
-0.301523
-5.11439
-0.0787384
5.19312
-5.13669
1.33667
0.0493058
-1.33667
5.15064
-1.3088
-0.132377
1.3088
-0.127217
1.82187
-0.215695
1.82187
5.17194
-0.211223
-5.17194
0.134722
-4.10419
0.132209
4.10419
-0.00369559
-2.00177
-0.216707
2.00177
-0.179896
-13.1272
14.4913
7.70905
-7.02606
-7.04203
-13.7066
4.45319
7.12341
14.6198
-12.1313
-9.56199
-12.0082
2.86385
-2.7025
-4.07011
4.0036
22.9409
-22.8748
-18.4358
19.1037
20.721
-20.5202
5.70381
5.7182
18.4218
-18.5234
-20.2758
20.0188
18.5664
-18.7122
20.8837
-20.931
-24.4377
24.4127
-17.1886
17.2225
-20.4874
20.3811
-21.1697
20.9478
-8.08255
-7.95343
16.4251
-16.3684
22.6169
-22.7668
-21.0504
21.3609
10.0452
4.4461
11.0823
-6.24879
11.9526
-5.22424
12.9333
7.74909
-15.8316
7.90308
-14.9451
10.6599
11.957
-10.5009
-3.20574
-18.0746
17.9389
-17.699
17.6646
24.1462
-24.0876
-6.16926
11.8875
-5.25675
12.3802
-11.413
-7.0228
10.0974
4.52242
9.31988
7.10519
-9.44737
-2.5608
-24.2893
24.0781
-25.3503
24.9045
0.0603723
2.44942
-2.50979
1.32397
-0.814606
3.26402
2.04924
2.13479
2.44894
-2.28646
0.253557
-2.76335
-2.90011
-6.71156
6.85948
6.4807
-6.31517
16.3953
6.54569
16.3466
-16.4482
-6.42661
-16.2553
11.4251
7.67853
11.7755
12.0754
8.64562
12.1444
10.3747
-10.3147
-0.0600488
-11.4526
21.8273
1.57278
-18.4754
-13.9529
11.0732
7.34856
10.9095
-11.6632
-6.8602
-11.4088
-11.0743
-9.20145
-11.3249
12.0771
7.94171
11.9129
-14.7261
14.7224
11.6285
6.9379
11.5175
-11.2072
-7.50503
-11.2374
24.9686
-6.10292
-18.8657
-12.6693
-11.7684
12.5385
8.34515
13.8545
10.5582
13.8393
8.16194
16.8066
-16.5071
4.73871
-10.6737
-6.51495
-10.5492
10.3317
6.89073
10.4533
-12.0015
-8.48587
-11.9874
-12.2957
-8.87404
12.3376
8.04348
-12.7803
-12.57
12.9488
7.99902
7.06456
-16.6265
8.73312
-16.6865
-10.895
-5.47339
-10.7327
9.78747
6.4971
-16.2846
-6.04416
24.195
-12.238
20.9893
-12.9426
-9.82426
-12.8691
-15.9197
-5.13065
-15.5349
-8.50098
8.21723
-9.2707
8.91253
25.2787
-14.7216
-10.5571
-12.3619
-8.15826
11.7088
-0.626578
-12.8422
12.7822
-0.889627
12.0437
16.4898
15.8632
-11.0356
-6.66343
-10.8898
10.8106
6.85396
10.812
16.6562
7.48997
16.7842
-16.8997
-7.1879
-16.7576
5.51114
-5.60124
6.94537
-7.01019
15.5787
9.32576
-15.3892
-8.90019
22.5705
-10.7525
-11.8181
-5.29626
5.75495
-0.458691
-2.03223
-0.708262
0.208884
-2.02905
-2.04106
1.99551
0.13928
5.89423
3.85317
-2.41174
2.48117
2.78139
2.7054
-0.194711
2.85647
-2.84889
18.8645
-10.8488
-8.0157
13.9608
-13.9862
-2.79678
-18.3468
15.55
2.36045
3.82339
-3.71449
-5.0107
-1.70086
-4.9141
3.76741
2.71328
3.97007
2.6005
4.25898
-9.44068
1.85326
7.58742
-6.84018
-4.46191
-12.8602
-5.601
18.4612
16.46
7.61808
-16.5948
0.339432
6.64342
-6.69415
-1.74738
-11.1128
8.60006
-10.3474
-14.2306
-6.14653
20.3772
-9.64574
-1.24411
9.48236
2.29311
-10.9059
-7.16875
10.8314
1.313
-11.8062
23.6318
-11.8255
-18.4697
8.56446
13.2628
16.243
-17.8507
9.2414
8.60935
-4.58792
9.40783
1.50164
9.19439
-20.2965
13.4363
13.0741
8.28688
-13.3434
1.93459
-18.3619
23.7605
-20.7106
-3.0499
12.5084
11.2521
12.5341
12.7446
-7.88382
20.4179
-2.9179
-17.7927
21.2798
-12.9929
14.4135
-27.4064
-27.1582
9.36545
-16.7497
20.245
-3.49523
-4.85334
-9.87279
21.6031
-2.01958
-19.5835
9.89331
-13.16
-12.1172
25.2772
-19.2629
19.6223
-6.49904
-13.1232
-12.1895
-8.74158
12.0573
2.66517
-23.7722
28.5109
-6.96559
9.81668
1.70082
9.81271
9.85823
-14.5553
4.69711
9.40468
-15.9037
6.73799
-21.2933
-11.0964
22.2716
-11.1752
-16.5698
-14.6826
-1.88723
4.64371
23.8672
-15.2019
11.5508
3.65112
9.07295
1.73905
-9.09485
-1.45434
1.17718
16.1317
-17.3089
11.6304
11.7367
12.2107
3.92097
10.9914
6.94744
-10.9168
-1.07054
-14.3874
5.51333
-6.3439
-13.6234
19.1367
-15.3982
1.77485
-9.91164
-13.5294
23.441
-16.4266
11.4983
12.1334
18.3523
-18.7741
5.24477
-9.43405
-9.34009
10.1534
-16.4973
7.04617
12.0905
15.0452
2.47518
11.4728
10.7988
-17.97
1.2834
17.9039
-15.3431
3.53517
10.3041
-15.086
0.403359
-10.3293
2.7657
-15.0037
-13.5189
15.4638
-20.5944
-11.9426
14.3871
2.39712
-14.6395
-0.89538
-5.36615
-3.13483
-5.58286
-3.36151
-5.90919
-11.2453
-2.06174
-9.18358
6.15549
-6.96529
-4.35963
7.26681
1.64572
-5.54497
5.4126
-6.15575
5.94005
-0.228001
13.0102
15.6352
7.47692
-8.42225
15.8992
-15.0509
22.5408
-27.9834
12.9325
14.7991
-21.987
-13.1843
3.09045
2.42068
2.98817
13.6481
-14.788
1.13985
-13.5964
17.459
-3.86257
-20.2743
6.6779
-6.62618
6.41952
0.525852
6.35192
1.86595
7.4274
-9.29335
-5.14424
-5.23725
-8.41224
-12.9143
21.3266
4.74241
-12.3994
7.65695
-12.3524
17.0948
0.267415
-12.6668
17.8965
-10.4691
18.4223
-12.085
6.33734
12.1015
21.079
-8.97754
15.4454
-6.11965
6.36911
-15.3467
-6.54522
-11.1732
18.0639
-12.2678
14.0427
-0.755039
14.7977
-14.1949
3.4424
-1.98413
9.75254
9.97853
15.8574
-11.9365
11.3073
-17.4269
-4.03938
-14.9517
-2.86123
0.785517
-13.2613
12.4758
12.1184
-11.3329
-3.62448
9.7685
-6.14402
6.39342
-3.21939
-3.17402
-2.11297
-3.48828
2.13712
0.719346
7.11276
0.558286
-3.77768
-2.2906
-2.17023
10.2902
8.57432
-4.72082
4.26213
4.51193
-0.688544
1.24569
2.72438
5.55492
-4.30922
0.809931
4.74498
-2.90456
4.86725
1.77617
-4.91493
0.000833598
-3.94953
12.5496
3.63789
-6.35118
2.04195
2.48588
-13.3347
18.2633
-10.3248
-7.93849
20.7492
3.06782
-13.3927
15.2789
-12.9185
7.62916
-13.2302
-5.7635
-18.682
-12.1363
-10.042
17.699
-11.2845
18.9026
3.46835
-19.242
22.7104
-12.6881
6.54152
-10.3883
12.1645
-4.40674
-5.98154
10.6752
9.70196
-10.4935
-0.619303
0.18167
8.67719
-8.49552
-1.67025
-8.51042
-16.3209
17.6339
-8.22384
17.4652
7.67533
-7.43168
24.8969
6.69682
-14.1285
-11.7728
-13.0169
-5.51915
10.7238
-2.07765
-9.15977
-15.2009
9.26249
-0.0681035
-19.7627
22.9331
-3.17033
-12.4142
-1.02207
13.5305
-17.9363
2.03263
-11.1984
11.7347
13.2363
13.1682
-19.5614
-0.0221014
-11.6197
3.19841
-14.8181
14.4505
-6.66509
16.0305
-15.3985
11.0389
-13.7528
12.9807
-1.83743
13.3376
-8.6405
5.52806
-14.2696
-11.6045
15.3694
-8.43149
17.0702
-9.88014
26.9504
-16.8457
15.3024
11.6479
-2.84572
-10.0234
-15.0887
12.243
0.213716
10.0264
17.5396
-10.5921
16.469
8.51418
-17.9482
-7.98315
-25.0779
7.12967
-12.9445
-7.04908
14.1787
11.3032
13.0423
4.83866
-11.5879
15.9752
-17.8625
-4.80008
-8.71879
15.2929
-3.04985
9.53515
-18.2539
-5.4686
12.4071
-0.530522
-11.8766
2.31449
-14.2571
5.2743
-19.5314
15.3201
-16.2155
1.98803
-8.61421
-3.55694
-3.68416
-2.33171
-3.82404
-8.10145
5.76974
-1.42355
3.98904
-12.3954
11.8649
-5.06362
10.8334
-4.46845
-1.11441
4.64834
1.29171
12.1251
2.5954
-15.7797
-8.82266
14.3735
-5.55088
1.46751
-10.6659
3.70766
7.76084
12.9884
-23.3108
1.32381
-14.4559
-4.47208
6.89277
5.29642
17.4148
2.62681
7.28703
-0.394265
9.91384
2.5939
2.50752
-10.5966
11.7365
1.87914
14.8117
-2.14674
8.48408
4.20518
4.19161
2.50254
6.47448
3.50405
9.91687
0.623524
-4.61373
2.31671
-4.48695
-1.46097
-4.55847
-0.554867
4.13226
-4.68713
10.7872
-2.21287
5.23631
-2.01441
-5.80593
7.82034
-10.0301
-6.49448
-1.74949
-6.0901
8.13205
6.45949
-6.38256
-3.64755
2.08076
-14.217
11.1494
-11.7687
-2.06675
20.6437
-9.86922
1.3737
-3.3277
-7.13673
-8.83759
8.83676
23.8583
1.03859
12.0328
18.6725
11.5038
0.911667
11.4401
-14.9353
-9.85325
-14.9574
-0.506888
13.0236
4.99189
18.8753
16.6398
13.5899
-4.664
-22.5265
19.3111
-7.57461
15.4485
-3.57192
-15.9595
14.3437
8.19708
-16.7409
0.525348
-15.4341
-23.0087
-0.484427
12.3493
-11.6406
10.5262
7.3914
1.79218
-2.73846
-0.945695
2.86146
-0.353937
9.5599
-0.160974
-9.03564
9.19662
-3.97129
2.51032
-0.709204
4.97133
7.11114
4.89827
-4.13737
-8.8245
-8.22758
-5.10709
-16.1661
2.29514
-8.75464
6.305
-3.79467
3.13098
5.40194
10.6382
-1.74331
-9.58956
7.88733
-4.75635
5.88189
)
;

boundaryField
{
    wall-4
    {
        type            calculated;
        value           uniform 0;
    }
    velocity-inlet-5
    {
        type            calculated;
        value           uniform -11.2529;
    }
    velocity-inlet-6
    {
        type            calculated;
        value           uniform -1.87548;
    }
    pressure-outlet-7
    {
        type            calculated;
        value           nonuniform List<scalar> 8(5.23219 5.44427 11.9419 12.4833 16.1365 15.2836 16.0609 14.942);
    }
    wall-8
    {
        type            calculated;
        value           uniform 0;
    }
    frontAndBackPlanes
    {
        type            empty;
        value           nonuniform List<scalar> 0();
    }
}


// ************************************************************************* //
