/*--------------------------------*- C++ -*----------------------------------*\
  =========                 |
  \\      /  F ield         | OpenFOAM: The Open Source CFD Toolbox
   \\    /   O peration     | Website:  https://openfoam.org
    \\  /    A nd           | Version:  9
     \\/     M anipulation  |
\*---------------------------------------------------------------------------*/
FoamFile
{
    format      ascii;
    class       volScalarField;
    location    "27";
    object      p;
}
// * * * * * * * * * * * * * * * * * * * * * * * * * * * * * * * * * * * * * //

dimensions      [0 2 -2 0 0 0 0];

internalField   nonuniform List<scalar> 
918
(
23.4697
23.5769
0.953972
22.8871
1.01612
23.0933
3.27395
13.7857
19.2429
2.93444
2.62417
14.409
20.6363
16.8777
12.9939
0.924987
14.0526
2.24802
18.4606
1.39804
12.9931
20.4484
21.5371
19.2847
14.1218
14.3729
18.5986
1.14536
0.108141
0.255385
0.978917
0.410367
0.147579
21.6302
22.3069
22.2452
15.4956
10.4035
3.59897
3.80345
2.98442
2.80754
13.8284
13.9283
5.8681
13.7646
13.7604
16.6445
19.111
19.2546
19.5478
19.3368
19.7232
5.97526
2.7858
2.60613
2.8761
2.95029
2.98312
2.69658
2.67828
2.48176
2.33579
13.8884
14.4821
14.5373
14.2685
14.2161
22.4529
21.696
22.0307
21.1371
21.2825
20.2124
19.8268
17.2534
17.6058
16.4796
16.0988
12.7843
12.7455
13.2138
13.4637
0.145369
1.07596
1.22336
14.0596
14.0961
14.0961
14.1106
8.28464
2.18981
2.19271
17.901
17.4775
20.4824
20.7496
20.1966
20.0111
1.52991
1.52556
1.15092
1.18126
0.950409
13.3344
13.4885
19.2361
18.403
14.1554
14.0554
14.1304
11.5005
13.9107
13.9841
15.3224
15.778
14.9672
15.4037
18.1686
17.7506
19.0352
19.4724
0.393187
0.154754
0.687533
0.318182
0.516693
15.3639
15.1585
15.6115
15.6623
15.8935
10.4083
10.3389
10.3824
10.3023
4.15066
4.46524
2.2569
2.57153
2.42246
9.86723
13.9446
13.9913
4.81214
5.51641
5.17978
6.35076
6.72512
16.0102
16.4467
16.1855
17.7318
16.9367
17.2849
19.814
19.3032
19.6037
6.37008
6.60447
5.60948
5.25066
2.23981
2.48894
2.43122
2.98147
2.95933
3.21809
3.34658
2.69868
2.55542
2.89261
2.77584
2.82802
2.16519
2.03543
13.6125
13.3985
14.1514
14.33
15.0972
14.9489
14.6555
14.8243
19.0219
19.4254
19.4589
19.0747
11.546
10.1564
13.7182
13.9937
0.30209
0.26461
0.138262
0.380985
0.400512
0.14233
2.01574
1.82727
1.40572
1.68119
14.0571
14.0169
8.52524
8.74482
8.12119
7.86496
16.3151
16.4654
17.0995
16.6993
1.96198
1.67584
1.80565
13.6515
13.524
13.6308
10.9356
10.3691
11.9783
12.2481
13.9922
14.036
14.0319
15.6821
16.0005
19.8233
20.0939
19.9208
20.3066
21.3694
21.0207
20.6359
14.5397
14.9481
14.7865
16.1288
15.7624
15.9819
15.1898
15.4945
15.3524
10.3705
10.4168
10.1207
10.1985
10.247
10.1941
9.8045
9.67755
14.0779
14.033
14.0571
7.25316
7.75119
4.87027
4.5414
12.5443
13.2176
12.8931
18.6516
17.974
18.707
18.3361
17.8861
18.2096
10.4276
10.3892
10.4226
14.918
14.2559
14.6078
2.44115
2.07683
2.23977
8.9408
9.03409
6.97267
7.58942
7.25244
16.3022
16.6425
17.3227
16.4344
16.9021
17.4094
17.1875
9.94045
10.0732
9.9901
9.66108
9.55466
9.73583
8.33641
8.9497
3.61319
4.2701
3.9658
9.20205
9.43189
9.27917
18.6307
19.1655
0.765837
1.15316
19.5956
19.3193
0.139659
0.242418
14.2544
12.552
7.26344
17.1979
16.6305
18.9703
3.19304
6.10333
2.80876
3.38102
2.68673
14.6162
14.2501
13.3412
0.452973
1.25695
1.70859
2.89784
18.4111
17.736
18.8521
19.1722
19.2266
0.687576
0.912692
0.584054
1.2417
1.03062
1.27545
15.5516
15.6497
4.32487
18.8591
19.1634
19.1811
17.6579
18.6105
17.668
0.935879
0.642934
0.70776
10.0813
12.1222
14.2146
13.7672
13.9642
13.9863
13.7372
14.8705
14.54
14.5049
14.9898
13.9671
13.8218
7.73514
6.38414
8.06963
7.70997
17.0993
16.6872
16.4941
16.2397
18.0855
17.6116
18.462
17.8504
18.3122
18.599
2.94335
3.13311
3.01277
2.52159
6.14391
6.6074
5.48878
5.6348
4.26017
2.42742
2.52623
2.75278
2.58361
2.93148
2.67913
2.94325
2.57958
2.32406
2.32181
2.93103
2.73868
2.60451
14.5945
14.533
14.3339
14.3719
14.3544
14.4701
13.5357
13.9404
13.5682
12.3993
12.9804
12.5077
0.826083
0.66348
0.525039
1.3244
1.3516
1.11062
0.83437
1.17342
1.20165
0.813677
1.54492
1.44462
3.15691
2.6456
8.84187
7.96981
6.90154
16.8011
17.603
16.7726
18.0134
18.4303
18.5357
18.1561
17.6479
15.7304
15.7255
15.3857
15.3391
4.77189
3.73298
4.96805
4.53713
10.4788
14.066
11.8432
10.8045
11.1008
13.4248
13.9298
13.5821
13.7191
13.2941
12.8223
13.5142
13.048
13.1493
12.9283
15.7188
16.1939
15.8004
15.2209
15.2409
10.5997
12.0162
5.46651
5.64045
7.24476
6.53871
13.5107
13.9335
13.9182
13.5567
13.7445
13.7456
13.6064
13.7805
13.8604
13.755
11.8251
10.1446
9.0459
9.03949
14.0774
12.3467
12.931
12.4143
16.1211
16.6375
16.2522
15.6467
16.1317
15.6035
15.6308
15.844
17.2021
16.9517
16.7215
17.1083
3.05453
3.00317
3.64723
3.13436
3.03723
2.82079
3.48428
4.75868
4.41634
6.71903
7.26936
4.58034
3.37316
3.79321
4.80808
5.54187
5.51195
3.96964
4.50187
4.93035
4.44102
5.22544
4.72981
2.71784
3.02464
2.86288
2.83651
3.38216
3.88081
3.37621
2.48025
2.59171
2.25566
2.11803
3.53589
2.99505
3.03171
3.67857
1.10728
1.32938
1.44152
2.41377
1.91323
1.97937
15.1832
14.8272
14.9609
14.2401
14.3075
14.2487
13.8731
15.2406
14.9626
15.062
13.7105
13.7973
13.6105
13.9059
14.3219
14.6211
15.4529
15.174
14.4131
14.5641
14.215
14.1433
13.4653
12.9023
12.8418
1.11294
0.824786
0.98415
0.910848
0.606409
0.79859
2.18371
1.57317
1.97052
1.72732
1.96045
1.403
1.30235
4.25374
5.06386
3.96498
3.36641
3.0639
8.90014
9.01171
8.16043
7.85797
8.19955
8.42862
8.37842
7.13598
7.56337
7.37636
9.91679
9.58126
17.5873
17.5314
17.2026
17.0437
17.2702
5.76288
7.66579
6.79985
7.91606
10.2076
10.5033
9.31161
8.70588
9.4574
9.53521
14.0476
14.1238
13.5647
14.0506
14.079
11.8357
12.883
13.4978
13.3123
13.8321
13.913
12.9741
13.5628
13.478
12.7607
12.8136
12.1285
12.467
11.9951
11.7941
14.0567
13.9514
14.2212
13.772
14.1513
13.7156
14.0309
14.0288
14.3094
13.4114
12.8327
12.8512
13.2774
12.9775
13.3235
13.4876
9.30908
9.94932
10.3882
10.9239
10.6313
10.4132
10.2805
10.5822
10.5591
10.8303
10.7497
10.6006
11.5613
13.4169
13.7019
13.8033
13.6003
13.6464
13.339
13.6119
13.5412
13.9203
14.0082
14.0579
13.1386
13.2947
13.4895
13.3732
11.6758
10.0975
9.94978
9.50978
7.57753
8.04725
11.026
9.90291
8.91821
8.99013
12.1692
10.8066
11.62
12.0431
10.6947
10.3067
12.9719
13.76
13.9798
13.7041
12.0608
12.1866
12.6363
13.0796
13.2689
13.7246
15.8609
16.4365
16.5144
16.2385
16.1005
16.2004
15.9505
16.0535
16.5276
16.6542
16.4854
2.87948
2.99315
2.92332
2.84864
3.08574
2.86113
3.95606
3.94672
3.15618
3.33664
3.35674
3.46225
2.93074
2.97389
4.8265
5.06226
5.33394
4.8325
6.17555
6.81753
7.39905
7.08393
5.78992
5.86962
6.18527
3.50702
3.53374
3.25192
3.70925
3.76186
2.61065
2.23822
2.04349
2.5636
2.66553
2.05021
1.76757
1.81662
2.33103
2.04982
1.80408
14.9756
14.734
14.7553
14.5351
14.5898
14.9846
15.2054
15.0155
15.1539
15.2049
14.804
14.693
14.8641
1.81833
1.49377
1.62242
1.58019
1.64346
1.54938
1.73721
7.60664
6.41614
6.8036
5.9792
4.12145
4.64227
9.54002
9.96155
10
9.71133
9.50116
9.86691
9.71772
9.71052
8.26406
9.33325
8.86883
9.26241
9.28365
9.35148
9.06582
9.08138
10.5851
10.6187
9.48358
10.1233
9.33199
7.9328
8.09981
9.11343
10.087
10.4056
10.2506
9.98056
9.75194
10.1153
10.17
10.2301
10.2194
8.75236
8.71217
8.31169
13.9694
13.8759
14.0224
14.0276
14.1545
13.9794
13.8165
14.0936
14.1479
13.9322
11.0784
11.1374
11.3832
12.1299
12.182
12.0927
11.3374
13.1016
12.7571
13.3951
13.3419
13.4142
13.0044
12.8276
13.098
10.0814
11.4543
10.9872
11.2505
10.0639
9.30753
13.2241
13.2782
13.3436
13.6166
13.5746
14.158
15.8308
15.7008
15.7481
15.7911
15.4028
15.44
4.17553
3.82925
4.55051
4.50632
4.06468
3.76473
2.2866
1.96858
1.78059
1.65558
1.88924
1.95035
8.1629
8.19024
6.33439
7.35613
5.87704
4.93544
4.79099
5.95604
7.13731
7.19636
8.51426
9.19081
8.74981
8.57517
7.9192
8.24898
10.1173
10.2116
10.1121
10.431
9.96375
11.7132
11.2954
11.6443
13.2583
12.9679
12.3698
12.2564
12.2213
12.8143
11.9482
11.1799
11.8924
12.5479
12.5061
11.1189
10.8739
11.3006
11.2845
10.1986
10.7188
10.4808
10.8333
10.5486
)
;

boundaryField
{
    wall-4
    {
        type            zeroGradient;
    }
    velocity-inlet-5
    {
        type            zeroGradient;
    }
    velocity-inlet-6
    {
        type            zeroGradient;
    }
    pressure-outlet-7
    {
        type            fixedValue;
        value           uniform 0;
    }
    wall-8
    {
        type            zeroGradient;
    }
    frontAndBackPlanes
    {
        type            empty;
    }
}


// ************************************************************************* //
