/*--------------------------------*- C++ -*----------------------------------*\
  =========                 |
  \\      /  F ield         | OpenFOAM: The Open Source CFD Toolbox
   \\    /   O peration     | Website:  https://openfoam.org
    \\  /    A nd           | Version:  9
     \\/     M anipulation  |
\*---------------------------------------------------------------------------*/
FoamFile
{
    format      ascii;
    class       volScalarField;
    location    "7.96";
    object      alpha.water;
}
// * * * * * * * * * * * * * * * * * * * * * * * * * * * * * * * * * * * * * //

dimensions      [0 0 0 0 0 0 0];

internalField   nonuniform List<scalar> 
2268
(
1
1
0.999999
0.999998
0.999999
1
0.999999
0.999999
0.999998
0.999999
1
1
1
1
1
1
1
1
0.99855
0.997613
0.998429
0.999994
0.999791
0.999998
0.999999
0.999997
0.999998
0.999999
0.999999
0.999997
0.999997
0.999998
0.999999
1
1
1
1
0.999999
0.999998
0.999998
1
0.998539
0.997613
0.999712
0.999994
0.999992
0.999997
0.999997
0.999997
0.999999
0.999999
1
0.999999
0.999999
0.999999
1
1
1
1
1
0.999998
0.999979
0.999999
1
0.99918
0.997613
0.999979
0.999994
0.999994
0.999998
0.999999
0.999999
1
0.999999
1
0.999999
0.999999
0.999999
1
1
1
1
1
1
0.999895
0.999711
0.999946
0.999953
0.999427
0.999962
0.999847
0.999987
0.999999
1
0.999999
1
1
1
1
1
1
1
1
1
1
1
1
0.999808
0.99863
0.999989
0.99999
0.99999
0.99999
0.997551
0.999976
0.999999
1
0.999999
1
1
1
1
1
1
1
1
1
1
1
1
1
0.996274
0.996573
0.99999
0.99999
0.9985
0.996217
0.999895
0.999999
1
1
1
1
1
1
1
1
1
1
1
1
1
1
1
0.995126
0.983258
0.987258
0.992064
0.984687
0.996925
0.999959
0.999999
1
1
1
1
1
1
1
1
1
1
1
1
1
1
1
0.998114
0.982304
0.982302
0.9823
0.982307
0.998796
0.99996
0.997966
0.999856
0.999276
0.999161
0.999286
0.997649
0.994535
0.994535
0.994789
0.993583
0.992198
0.992198
0.992393
0.998675
0.998675
0.998674
0.998675
0.998675
0.998553
0.993257
0.999836
0.999988
0.999985
0.999991
0.999991
0.999991
0.999937
0.999937
0.999915
0.997306
0.992198
0.992198
0.997902
0.998675
0.998675
0.998675
0.998423
0.997956
0.992259
0.997697
0.999988
0.999986
0.999991
0.999984
0.999971
0.999971
0.999886
0.99992
0.999727
0.997501
0.994571
0.996347
0.998675
0.998675
0.99829
0.994951
0.99495
0.99226
0.998153
0.999988
0.99999
0.999998
0.999959
0.999761
0.999794
0.999451
0.999236
0.999661
0.999647
0.999562
0.998568
0.997867
0.998675
0.997432
0.99495
0.995902
0.993814
0.999418
0.999999
0.999998
0.999998
0.999846
0.999738
0.999745
0.999529
0.998672
0.999501
0.999646
0.999646
0.999611
0.995219
0.996925
0.996094
0.997622
0.998434
0.999812
0.999999
0.999999
0.999992
0.999971
0.999953
0.999929
0.999991
0.999207
0.99885
0.999616
0.999646
0.999646
0.999645
0.995224
0.991939
0.9888
0.998434
0.998434
0.999999
0.999999
0.999997
0.999987
0.999989
0.999995
0.999995
0.999995
0.998239
0.989873
0.999645
0.999646
0.999564
0.990914
0.991145
0.997516
0.988647
0.997636
0.998434
0.999999
0.999998
0.999998
0.999997
0.999997
0.999995
0.99996
0.999992
0.995683
0.980764
0.986418
0.996854
0.998141
0.982953
0.988875
0.997516
0.988647
0.995836
0.998434
0.999999
1
1
1
1
1
1
1
1
1
1
1
0.999999
1
1
1
1
0.998561
0.992942
0.99283
0.999275
0.999988
0.999993
0.996351
0.996576
0.996854
0.996982
0.996988
0.997174
0.997438
0.997556
0.996269
0.992414
0.987927
0.983291
0.9799
0.97714
0.975448
0.974741
0.975011
0.976721
0.976827
0.974662
0.969537
0.962743
0.958618
0.425472
0.425308
0.422673
0.418328
0.41218
0.404012
0.394621
0.384487
0.374559
0.365574
0.356794
0.347712
0.337761
0.327638
0.317764
0.309167
0.302902
0.298989
0.295883
0.291135
0.285504
0.282331
0.281801
0.00056373
0.00054598
0.000527156
0.000508402
0.000489582
0.000469263
0.000448779
0.000427614
0.000408449
0.000385282
0.000369835
0.000356113
0.000356113
0.000414604
0.000538485
0.000715688
0.000923633
0.00089221
0.000683088
0.000691158
0.00073302
0.000732213
0.000576091
0.000752721
0.000749566
0.00130503
0.00130446
0.00117809
0.00191778
0.00252822
0.00262272
0.00262975
0.00272861
0.00272848
0.00272852
0.00258392
0.00234645
0.00219327
0.00202666
0.00167198
0.00117589
0.00067765
0.000691605
0.000732986
0.000731836
0.000556828
0.000442111
0.000387414
0.000257125
0.000229744
0.000285696
0.000185709
2.85056e-08
2.7923e-08
3.27592e-05
4.01106e-06
2.69545e-08
2.69468e-08
2.69811e-08
2.99191e-06
4.78131e-06
5.70042e-06
2.93821e-05
0.00019509
0.000325985
0.000323672
0.000346017
0.000282107
0.000388434
1.62598e-05
2.1353e-05
2.10676e-05
4.92034e-06
7.39936e-06
7.38576e-08
7.34479e-08
2.78817e-08
2.75855e-08
2.7131e-08
2.69469e-08
2.69811e-08
9.97422e-06
6.2208e-05
6.78555e-05
6.2067e-05
1.4829e-05
1.38525e-05
1.13873e-05
4.284e-06
2.12865e-05
9.89639e-05
0.000105641
2.43686e-09
2.41257e-09
2.32069e-09
3.48657e-07
1.52229e-06
1.54969e-06
1.07623e-06
1.13527e-07
3.81257e-07
9.41145e-07
3.09862e-07
1.39209e-07
3.17941e-05
6.26523e-05
6.27097e-05
3.27568e-05
1.86668e-05
1.25997e-05
6.8021e-06
1.05064e-08
1.24285e-08
5.04047e-09
3.34359e-09
2.40841e-09
2.31981e-09
2.31982e-09
3.74186e-09
2.7191e-07
1.90747e-06
1.90776e-06
1.24847e-06
7.06655e-07
2.81156e-06
1.8038e-06
1.27524e-06
3.65428e-06
2.03008e-07
3.24798e-09
5.1563e-06
1.70457e-05
5.03038e-06
1.05064e-08
1.04757e-08
1.03759e-08
4.83804e-09
3.2443e-09
2.55027e-09
2.31982e-09
2.31981e-09
2.31982e-09
2.59486e-08
1.45154e-06
1.89734e-06
3.54543e-07
1.46929e-06
2.81156e-06
2.81151e-06
5.49089e-07
6.07625e-10
6.08527e-10
3.18492e-09
3.24798e-09
1.57577e-07
8.2664e-07
6.53799e-08
1.05064e-08
1.60248e-08
2.06645e-08
3.2443e-09
3.13958e-09
3.4095e-08
6.97768e-08
4.29055e-09
8.86665e-10
9.43399e-08
3.18531e-07
6.2139e-08
1.25531e-06
2.81156e-06
1.81834e-06
6.05825e-10
6.04838e-10
6.08049e-10
2.40372e-07
6.94785e-07
7.02317e-07
1.87004e-08
1.8675e-08
2.51692e-08
3.23992e-08
3.11488e-08
6.6545e-09
5.57056e-09
1.05575e-07
1.05579e-07
1.90488e-08
4.80612e-10
4.80873e-10
5.33522e-10
6.48154e-10
1.34584e-06
2.66609e-06
8.1398e-08
6.04465e-10
6.01317e-10
6.08098e-10
6.12266e-07
5.47536e-06
5.88117e-06
3.0339e-06
9.47096e-09
9.45307e-09
2.09888e-08
2.0515e-08
3.67001e-09
4.65753e-09
1.056e-07
1.05601e-07
2.16382e-08
4.80612e-10
4.80612e-10
1.43121e-07
1.39569e-06
1.62326e-06
7.93372e-07
6.07671e-10
6.07097e-10
5.97818e-10
3.21187e-10
7.17364e-07
5.67181e-06
5.88117e-06
5.88117e-06
2.69267e-06
5.20025e-09
5.20048e-09
6.59237e-09
4.67174e-09
2.17126e-09
3.32027e-08
8.91915e-08
1.18196e-08
4.80612e-10
2.07027e-09
8.96699e-07
1.6455e-06
1.62334e-06
2.58452e-10
7.15472e-10
8.1157e-10
5.97736e-10
1.90513e-10
3.40156e-09
8.24097e-07
5.02396e-06
5.87052e-06
1.22304e-06
5.20048e-09
7.04802e-09
1.42433e-08
7.79242e-09
9.86014e-10
3.26963e-10
8.49427e-09
1.58916e-09
4.81511e-10
1.58699e-09
9.0378e-07
1.6455e-06
7.87394e-07
2.58105e-10
7.94692e-10
9.17995e-10
5.80034e-10
9.47788e-11
6.32653e-11
7.89191e-09
1.6631e-07
3.71803e-07
6.84619e-08
5.79625e-09
1.49051e-08
1.64278e-08
9.0544e-09
2.84879e-10
2.84879e-10
2.84879e-10
2.97324e-10
7.39676e-10
1.22704e-08
2.58365e-07
5.14582e-07
7.61095e-09
2.57987e-10
8.28168e-10
8.60037e-10
3.14563e-10
6.98096e-11
6.32653e-11
6.32789e-11
6.59505e-11
6.0698e-11
3.09835e-10
7.53481e-09
1.63224e-08
1.50989e-08
1.75582e-09
2.85504e-10
2.57421e-08
7.47851e-10
2.98224e-10
2.75734e-09
1.33067e-08
1.90599e-10
1.50133e-11
1.77716e-11
2.58104e-10
5.72219e-10
4.47087e-10
9.95308e-11
4.8147e-11
6.33672e-11
6.66109e-11
6.27094e-11
5.83136e-11
1.66244e-10
1.07175e-09
1.91025e-09
1.50355e-09
1.15579e-09
2.44591e-07
2.34693e-07
9.33816e-10
4.17685e-10
3.16928e-09
7.24942e-09
4.45078e-11
1.41069e-11
1.42516e-11
1.06201e-10
1.67892e-10
8.14308e-11
1.46179e-11
2.55634e-11
5.00099e-11
6.04174e-11
6.19735e-11
5.62883e-11
4.41439e-11
2.29488e-11
4.9895e-12
2.88748e-11
1.38284e-10
2.75618e-07
2.17272e-07
4.24443e-10
4.63869e-10
2.20197e-09
7.94002e-10
1.80372e-11
1.41054e-11
7.07798e-12
1.33027e-11
1.26398e-11
2.71255e-12
5.26492e-13
6.08051e-12
2.06228e-11
3.03786e-11
3.19826e-11
2.70754e-11
1.70726e-11
9.0844e-12
4.65172e-12
2.41269e-12
1.28735e-12
2.75618e-07
7.83255e-08
5.59705e-11
3.66464e-10
7.60717e-10
2.42737e-11
1.27476e-11
1.17548e-11
1.25752e-12
2.60417e-13
1.05843e-13
-2.39099e-15
-3.03701e-13
2.40162e-13
2.15524e-12
4.51898e-12
4.63203e-12
3.25671e-12
1.86317e-12
1.08424e-12
6.84181e-13
3.38504e-13
2.44194e-13
2.75606e-07
8.41304e-09
5.58159e-11
1.7144e-10
1.14108e-10
5.20667e-12
6.36327e-12
4.72009e-12
0
-5.68294e-13
-7.46765e-13
-9.05764e-13
-8.42916e-13
-4.69535e-13
4.56161e-15
8.03801e-14
8.24023e-14
4.05151e-14
1.7077e-14
8.1209e-15
3.21046e-15
1.15702e-16
-7.01776e-16
2.76469e-07
6.15764e-08
2.82214e-11
4.72006e-11
2.77716e-11
4.10238e-12
1.14505e-12
3.76138e-13
-5.44926e-13
-1.00457e-12
-1.14875e-12
-1.16339e-12
-1.01836e-12
-7.52205e-13
-4.78604e-13
-3.00658e-13
-2.19602e-13
-1.75827e-13
-1.39793e-13
-1.0574e-13
-7.40445e-14
-4.82882e-14
-2.94275e-14
2.76485e-07
2.68811e-07
2.82227e-11
2.82418e-11
2.73723e-11
4.16126e-12
6.23616e-14
-6.12798e-14
-6.71166e-13
-1.00122e-12
-1.08967e-12
-1.04189e-12
-8.95592e-13
-6.99069e-13
-5.09796e-13
-3.61087e-13
-2.6137e-13
-1.90572e-13
-1.3622e-13
-9.45918e-14
-6.3632e-14
-4.11602e-14
-2.52995e-14
2.76485e-07
2.76485e-07
7.05573e-11
3.13376e-11
3.34849e-11
4.72729e-12
1.93716e-13
-2.90017e-14
-4.11081e-13
-6.58603e-13
-7.46502e-13
-7.22732e-13
-6.27596e-13
-5.00424e-13
-3.75612e-13
-2.71166e-13
-1.91901e-13
-1.32366e-13
-8.84463e-14
-5.75283e-14
-3.69269e-14
-2.3342e-14
-1.43016e-14
2.76485e-07
2.34013e-07
3.85539e-11
5.33905e-11
5.31205e-11
6.97358e-12
1.26327e-12
7.97763e-13
2.44977e-13
-1.00985e-13
-2.65442e-13
-3.43142e-13
-3.42286e-13
-2.91467e-13
-2.24822e-13
-1.63037e-13
-1.13522e-13
-7.53695e-14
-4.77868e-14
-2.91988e-14
-1.7591e-14
-1.06014e-14
-6.38157e-15
2.39873e-07
3.35058e-08
3.85554e-11
1.23698e-10
8.9386e-11
1.26995e-11
4.90541e-12
4.17261e-12
2.97156e-12
1.60958e-12
5.97946e-13
4.91939e-14
-1.00811e-13
-1.32989e-13
-1.13977e-13
-8.40825e-14
-5.84725e-14
-3.78483e-14
-2.29599e-14
-1.31916e-14
-7.3698e-15
-4.12264e-15
-2.36045e-15
2.38276e-08
8.19454e-11
9.61898e-11
2.08988e-10
1.27729e-10
2.31847e-11
1.29408e-11
1.1832e-11
9.38034e-12
6.12414e-12
3.10882e-12
1.1088e-12
1.71115e-13
-3.23228e-14
-4.92633e-14
-3.83304e-14
-2.70888e-14
-1.72816e-14
-1.01109e-14
-5.49805e-15
-2.84874e-15
-1.4616e-15
-7.65902e-16
7.70365e-11
8.1784e-11
1.84214e-10
2.23402e-10
1.36127e-10
3.72828e-11
2.59135e-11
2.40057e-11
1.95218e-11
1.36712e-11
7.46353e-12
2.87729e-12
6.35509e-13
2.44727e-14
-1.69908e-14
-1.57556e-14
-1.15322e-14
-7.30934e-15
-4.14166e-15
-2.1403e-15
-1.03566e-15
-4.93184e-16
-2.40165e-16
7.69508e-11
8.18715e-11
1.93304e-10
2.16371e-10
1.27861e-10
4.98687e-11
4.12227e-11
3.8707e-11
3.16796e-11
2.2991e-11
1.2984e-11
4.91928e-12
9.45834e-13
5.12896e-14
-3.04814e-15
-5.89732e-15
-4.58638e-15
-2.90078e-15
-1.5939e-15
-7.83925e-16
-3.58645e-16
-1.63762e-16
-7.67287e-17
7.69498e-11
7.36564e-11
1.54582e-10
1.51753e-10
9.25805e-11
5.31983e-11
5.1325e-11
5.09971e-11
4.32472e-11
3.18337e-11
1.82022e-11
6.44215e-12
1.00633e-12
4.68246e-14
-8.36478e-19
-2.05995e-15
-1.73101e-15
-1.09117e-15
-5.79614e-16
-2.71825e-16
-1.18196e-16
-5.14728e-17
-2.32206e-17
9.53786e-11
5.37771e-11
6.56753e-11
5.30465e-11
5.50814e-11
5.26777e-11
5.31244e-11
5.45724e-11
4.99976e-11
3.76552e-11
2.12429e-11
6.89064e-12
9.39964e-13
2.99403e-14
4.21308e-17
-7.05663e-16
-6.30157e-16
-3.92967e-16
-2.00711e-16
-8.94514e-17
-3.67813e-17
-1.52778e-17
-6.63746e-18
3.10695e-10
5.10492e-11
5.10368e-11
5.1034e-11
5.10304e-11
5.10293e-11
5.2173e-11
5.46361e-11
5.12956e-11
3.91933e-11
2.16969e-11
6.71128e-12
7.19833e-13
1.25948e-14
1.72124e-17
-2.42769e-16
-2.24388e-16
-1.36715e-16
-6.65313e-17
-2.79288e-17
-1.07277e-17
-4.21765e-18
-1.73157e-18
5.1917e-10
1.28223e-09
5.10536e-11
8.41444e-08
5.10293e-11
5.10281e-11
5.10281e-11
5.42928e-11
5.10505e-11
3.89587e-11
2.10582e-11
5.74842e-12
4.23498e-13
3.88105e-15
2.82261e-18
-8.53255e-17
-7.89395e-17
-4.61967e-17
-2.11273e-17
-8.2156e-18
-2.88638e-18
-1.05655e-18
-4.02938e-19
5.18878e-10
6.0543e-08
5.5558e-07
8.15277e-07
2.04872e-07
3.95892e-09
5.10117e-11
5.26303e-11
4.95839e-11
3.71305e-11
1.84515e-11
3.97176e-12
1.85403e-13
8.99288e-16
2.61725e-19
-3.09204e-17
-2.75636e-17
-1.51658e-17
-6.39848e-18
-2.25259e-18
-7.07338e-19
-2.36213e-19
-8.21275e-20
5.19005e-10
1.48768e-07
8.2648e-07
8.26492e-07
7.57635e-07
2.63562e-08
4.93438e-11
4.93481e-11
4.62004e-11
3.2617e-11
1.37904e-11
2.10676e-12
5.67503e-14
1.34925e-16
9.94191e-21
-1.163e-17
-9.54854e-18
-4.81854e-18
-1.83448e-18
-5.69348e-19
-1.55188e-19
-4.60961e-20
-1.43251e-20
5.19196e-10
8.69386e-08
8.26489e-07
8.26487e-07
5.60719e-07
1.33914e-08
4.67983e-11
4.67947e-11
4.10621e-11
2.56123e-11
8.42107e-12
8.05451e-13
1.07551e-14
1.05739e-17
-8.66753e-19
-4.55306e-18
-3.26878e-18
-1.47521e-18
-4.94693e-19
-1.31472e-19
-3.00222e-20
-7.68414e-21
-2.08284e-21
1.01269e-09
1.24644e-08
2.60662e-07
5.2803e-07
9.43871e-08
1.25668e-09
4.95029e-11
4.49765e-11
3.37287e-11
1.71663e-11
3.8992e-12
1.96622e-13
1.06155e-15
3.89602e-19
-1.04279e-18
-1.79955e-18
-1.10128e-18
-4.34781e-19
-1.25305e-19
-2.76593e-20
-5.08006e-21
-1.07321e-21
-2.45246e-22
2.07481e-09
1.38757e-09
8.27671e-10
6.37121e-09
2.40396e-10
1.2655e-10
7.05856e-11
4.30527e-11
2.44106e-11
9.01505e-12
1.18393e-12
2.51779e-14
4.48509e-17
4.10373e-21
-6.32466e-19
-7.04547e-19
-3.65477e-19
-1.23943e-19
-2.99956e-20
-5.33541e-21
-7.51764e-22
-1.23441e-22
-2.26157e-23
2.01214e-09
1.58262e-09
7.01612e-10
2.49829e-10
1.50074e-10
1.36208e-10
7.99229e-11
3.71654e-11
1.44781e-11
3.19007e-12
1.86885e-13
1.30581e-15
6.70855e-19
-3.55292e-20
-3.27247e-19
-2.7383e-19
-1.20223e-19
-3.4571e-20
-6.89946e-21
-9.64746e-22
-9.96115e-23
-1.16722e-23
-1.57614e-24
3.84295e-10
1.1911e-09
9.65174e-10
5.77795e-10
3.23042e-10
1.79592e-10
7.73989e-11
2.60277e-11
6.03236e-12
5.95441e-13
1.13308e-14
2.13093e-17
2.48938e-21
-7.7153e-20
-1.6017e-19
-1.061e-19
-3.95497e-20
-9.59622e-21
-1.56497e-21
-1.69485e-22
-1.23632e-23
-9.23718e-25
-7.93245e-26
-1.37357e-26
3.38216e-10
8.1584e-10
6.83185e-10
4.40375e-10
2.01266e-10
6.76578e-11
1.42272e-11
1.44832e-12
4.28563e-14
1.94095e-16
9.81033e-20
-3.37659e-21
-6.08281e-20
-7.54551e-20
-4.10938e-20
-1.31344e-20
-2.70346e-21
-3.61476e-22
-3.02447e-23
-1.51659e-24
-6.3217e-26
-2.67262e-27
-3.36479e-27
1.99624e-11
3.17515e-10
4.5054e-10
3.3541e-10
1.5784e-10
3.92712e-11
3.93699e-12
1.16115e-13
6.93099e-16
6.55124e-19
1.56146e-22
-1.38039e-20
-3.80866e-20
-3.45242e-20
-1.59494e-20
-4.44388e-21
-7.9001e-22
-8.87397e-23
-5.91904e-24
-2.11016e-25
-3.98022e-27
-4.5575e-29
0.999997
0.999999
0.999999
0.999999
0.958972
0.959009
0.959432
0.959665
0.280904
0.28083
0.281487
0.283205
0.000387139
0.000377678
0.000489849
0.000497483
0.000371679
0.000364409
0.000476241
0.000497174
0.000388629
0.000351968
0.00018801
0.000479258
0.00010638
0.0001129
0.000130163
9.15382e-05
3.50286e-09
5.33298e-08
6.20573e-07
1.09131e-07
3.33278e-09
9.98603e-09
2.18215e-07
7.57693e-07
3.2443e-09
3.1942e-07
8.64952e-06
1.76556e-05
3.98015e-09
9.93458e-06
2.10046e-05
2.10046e-05
3.66869e-09
3.10727e-08
8.65482e-06
2.10046e-05
3.65671e-09
4.15101e-09
3.36853e-09
4.30331e-09
6.54716e-09
1.37417e-08
9.96692e-09
3.19918e-09
1.57913e-08
3.75838e-08
3.75851e-08
3.75782e-08
1.26859e-09
3.10685e-09
1.09261e-08
2.47279e-08
1.14848e-09
1.99709e-10
3.36663e-13
2.87265e-13
1.26609e-10
1.31572e-11
3.43244e-13
2.41858e-13
3.80548e-13
3.75856e-13
4.09202e-13
2.44798e-13
2.37382e-13
2.38381e-13
2.0393e-13
1.27358e-13
1.11324e-15
3.54554e-15
2.74761e-15
1.3873e-15
-1.66806e-14
-1.31295e-14
-1.03836e-14
-8.23228e-15
-1.47709e-14
-1.1716e-14
-9.40101e-15
-7.59696e-15
-8.30064e-15
-6.35923e-15
-4.94556e-15
-3.91943e-15
-3.74484e-15
-2.7764e-15
-2.05323e-15
-1.53504e-15
-1.43237e-15
-1.04802e-15
-7.56031e-16
-5.29665e-16
-4.93563e-16
-3.50861e-16
-2.50816e-16
-1.73017e-16
-1.60935e-16
-1.10522e-16
-7.60468e-17
-5.15322e-17
-5.0563e-17
-3.36158e-17
-2.22126e-17
-1.45204e-17
-1.49114e-17
-9.61711e-18
-6.13652e-18
-3.85958e-18
-4.12156e-18
-2.55757e-18
-1.56674e-18
-9.43948e-19
-1.0287e-18
-6.0877e-19
-3.55234e-19
-2.03666e-19
-2.2668e-19
-1.26684e-19
-6.97012e-20
-3.76333e-20
-4.31808e-20
-2.25037e-20
-1.15238e-20
-5.78145e-21
-6.92962e-21
-3.31539e-21
-1.55491e-21
-7.12892e-22
-9.08449e-22
-3.91043e-22
-1.64524e-22
-6.74767e-23
-9.37552e-23
-3.5315e-23
-1.29587e-23
-4.61966e-24
-7.26157e-24
-2.29714e-24
-7.05642e-25
-2.0983e-25
-3.9488e-25
-9.79519e-26
-2.35758e-26
-5.48179e-27
-1.34409e-26
-2.29372e-27
-3.83024e-28
-6.21048e-29
-2.24222e-28
-1.9488e-29
-1.71062e-30
-1.50109e-31
-7.91925e-31
-1.32077e-32
-2.25076e-34
-4.11775e-36
0.999999
0.999999
0.999999
0.999999
0.998772
0.995229
0.994454
0.996536
0.996534
0.990382
0.976327
0.976324
0.976569
0.982801
0.997375
0.997516
0.993038
0.993495
0.997813
0.959654
0.959448
0.959226
0.959275
0.960082
0.961367
0.961277
0.962378
0.974593
0.990075
0.993699
0.995911
0.995914
0.995865
0.99537
0.99362
0.993194
0.988412
0.983363
0.288135
0.291822
0.295943
0.302855
0.312466
0.324001
0.33601
0.346094
0.352692
0.362265
0.377909
0.389681
0.399697
0.404973
0.403729
0.407251
0.414164
0.417265
0.42072
0.000463051
0.000531616
0.000924603
0.0010574
0.000805902
0.000604742
0.0004692
0.000387848
0.000341607
0.000339136
0.000338167
0.000337535
0.000336977
0.000337535
0.000338121
0.000338992
0.000339621
0.000340293
0.000340927
0.000463067
0.000507571
0.00106474
0.00106441
0.00105384
0.00106314
0.0010672
0.00106744
0.00106751
0.00106741
0.00106694
0.000835047
0.000336247
0.000718278
0.000847819
0.000847814
0.000847819
0.000814142
0.00075649
0.00047964
0.000410188
0.000317839
0.00033858
0.000314443
0.000238843
0.000199769
0.000189469
0.000194268
0.000159404
1.56715e-05
2.56363e-05
0.000167834
0.00024773
0.000289426
0.000326571
0.000337543
0.00034103
0.0003265
8.00341e-05
7.63969e-05
1.53235e-05
1.64413e-08
2.91784e-07
4.65486e-07
5.77201e-07
5.79303e-07
5.85112e-07
5.90801e-07
4.04346e-06
6.83973e-06
1.94217e-05
8.53689e-06
5.18018e-07
5.17979e-07
5.17978e-07
5.17979e-07
1.01403e-05
7.3403e-08
2.14784e-08
5.46753e-09
1.60506e-08
5.05646e-07
1.95196e-05
3.75431e-05
3.16916e-05
2.30215e-05
3.48443e-05
5.1193e-05
5.11909e-05
3.95518e-05
2.84652e-06
5.17992e-07
5.17978e-07
5.17976e-07
5.17978e-07
5.17979e-07
1.07133e-06
1.10343e-07
5.46753e-09
5.46753e-09
1.10805e-05
4.9355e-05
4.9357e-05
4.92987e-05
4.93445e-05
4.93856e-05
5.11909e-05
5.11944e-05
3.40876e-05
2.99999e-06
5.17981e-07
5.1797e-07
5.17975e-07
5.17976e-07
5.17978e-07
2.10046e-05
9.37429e-06
3.425e-07
1.60737e-08
1.12338e-05
3.38983e-05
1.76457e-05
1.22151e-07
1.22106e-07
1.22481e-07
1.54034e-05
2.76042e-05
3.33748e-05
1.45095e-05
3.04935e-06
5.1797e-07
5.1797e-07
5.17976e-07
5.17977e-07
2.10046e-05
2.10046e-05
1.49534e-05
2.15439e-06
1.13434e-06
1.99336e-09
1.99327e-09
2.26809e-07
8.03967e-07
1.47595e-07
1.09449e-07
3.15712e-06
1.99517e-05
2.02518e-05
3.71118e-06
5.1797e-07
5.17974e-07
5.19504e-07
5.19507e-07
2.10046e-05
2.09992e-05
2.09807e-05
5.87368e-06
1.99245e-09
1.99204e-09
1.38694e-07
9.76877e-07
9.7695e-07
4.35816e-07
1.05454e-07
4.10466e-06
9.04782e-06
1.24385e-05
5.36629e-07
5.17974e-07
5.17975e-07
5.17982e-07
5.19545e-07
4.20119e-06
1.10653e-05
4.12876e-06
1.99132e-09
1.9907e-09
4.31484e-09
6.45041e-08
9.48553e-08
9.96305e-08
2.47034e-10
2.46998e-10
2.49483e-10
9.13671e-07
9.90973e-06
1.01344e-05
5.98609e-06
5.17977e-07
5.17981e-07
5.17984e-07
2.02599e-09
2.00412e-09
1.99191e-09
1.9907e-09
3.70522e-09
6.02304e-09
1.97116e-09
2.46879e-10
2.46921e-10
2.46893e-10
2.47059e-10
2.55362e-10
2.92422e-06
1.01343e-05
1.01345e-05
1.01343e-05
6.76634e-06
5.17984e-07
5.17986e-07
4.0498e-08
4.92036e-08
3.71122e-08
2.36937e-09
1.53802e-09
1.5026e-09
9.68816e-10
3.96876e-10
2.46879e-10
5.37757e-10
8.52203e-10
7.92088e-10
1.29561e-10
4.35849e-07
2.81386e-06
2.59173e-06
1.84531e-06
2.48376e-06
4.30731e-06
1.35575e-07
2.43645e-07
2.43645e-07
1.10251e-07
1.14609e-08
2.36169e-10
2.84384e-10
6.10026e-10
1.28548e-09
7.75235e-10
8.61529e-10
7.5509e-10
1.28933e-10
3.80985e-11
3.80783e-11
5.24321e-11
3.3455e-06
1.26348e-05
1.26348e-05
6.39222e-08
2.43645e-07
2.43623e-07
2.43602e-07
1.70561e-07
2.36163e-10
2.12145e-09
2.51957e-08
3.72965e-08
9.08265e-09
4.90237e-11
4.90077e-11
4.98819e-11
3.83358e-11
3.87754e-11
2.6917e-07
9.42341e-06
1.26348e-05
1.26347e-05
3.7375e-14
3.37123e-08
2.04951e-07
2.43553e-07
2.21619e-07
1.45184e-08
3.90886e-09
6.00148e-08
6.57753e-08
5.62101e-08
1.14505e-09
4.65203e-11
7.62924e-11
7.79345e-11
8.02675e-11
7.66443e-09
3.36828e-06
7.6738e-06
3.84129e-06
3.73392e-14
5.31583e-17
-3.30872e-27
4.09069e-08
3.20825e-08
4.17967e-09
9.69006e-09
6.13913e-08
6.57753e-08
6.57706e-08
1.98499e-08
4.65129e-11
4.65129e-11
5.95737e-11
2.18945e-10
5.19885e-09
1.11177e-12
1.11177e-12
1.11177e-12
5.55976e-14
1.02381e-16
-7.19362e-17
0
1.83813e-19
2.57442e-16
7.78426e-10
1.43987e-08
3.82798e-08
2.65219e-08
2.31283e-09
7.28164e-11
4.65928e-11
2.38233e-11
7.51614e-12
1.11178e-12
1.11177e-12
1.11177e-12
1.11177e-12
-1.5719e-16
-5.5195e-16
-4.67853e-16
-9.62134e-17
5.55779e-16
5.55908e-16
5.61164e-16
5.76872e-16
6.09391e-16
6.75359e-16
7.76685e-16
1.54876e-11
7.23839e-11
8.51604e-12
2.28467e-12
1.38386e-12
1.11734e-12
1.11177e-12
1.11178e-12
-6.52697e-15
-3.42991e-15
-1.69303e-15
-2.68252e-16
2.16262e-15
1.75449e-14
3.78721e-14
7.15433e-14
1.31706e-13
1.71574e-13
2.18418e-13
6.59486e-13
1.29054e-12
8.60972e-13
5.11495e-13
8.53156e-13
1.26941e-12
1.11176e-12
1.1118e-12
-6.10899e-15
-3.55083e-15
-2.01986e-15
-1.08977e-15
-4.86455e-16
0
1.21981e-15
3.22756e-14
1.38471e-13
1.95016e-13
2.26872e-13
5.36354e-13
7.34295e-13
2.41753e-13
1.13498e-13
5.90619e-13
1.75123e-12
1.1118e-12
6.93594e-07
-3.12341e-15
-1.86102e-15
-1.09814e-15
-6.40914e-16
-3.66346e-16
-1.99914e-16
-9.12145e-17
-2.28756e-21
7.99962e-16
7.10681e-15
1.39763e-14
2.90168e-14
9.7342e-14
3.73184e-14
3.39014e-14
5.17895e-13
2.24141e-12
1.11266e-12
2.21994e-06
-1.16475e-15
-6.79407e-16
-3.95497e-16
-2.29578e-16
-1.32825e-16
-7.76439e-17
-4.4606e-17
-2.29466e-17
-3.75012e-18
1.65341e-17
1.06065e-16
3.33983e-16
9.24013e-16
2.81227e-15
1.53843e-14
5.07519e-13
2.48339e-12
1.11301e-12
2.21998e-06
-3.54133e-16
-1.9903e-16
-1.11333e-16
-6.26409e-17
-3.57467e-17
-2.05931e-17
-1.17237e-17
-6.24966e-18
-2.36942e-18
1.20073e-18
1.43587e-17
7.11145e-17
3.59452e-16
1.78401e-15
1.33662e-14
5.16332e-13
2.52739e-12
1.11324e-12
2.21993e-06
-9.48136e-17
-5.02183e-17
-2.70817e-17
-1.48583e-17
-8.20903e-18
-4.46066e-18
-2.21441e-18
-8.19279e-19
1.06842e-20
2.22446e-18
1.27043e-17
6.22459e-17
3.22117e-16
1.64784e-15
1.30835e-14
5.04899e-13
2.52678e-12
1.11362e-12
2.17213e-06
-2.46076e-17
-1.18444e-17
-5.8632e-18
-2.96895e-18
-1.48098e-18
-5.8954e-19
3.21857e-20
1.04023e-18
6.08865e-18
2.1194e-17
4.96253e-17
1.05869e-16
3.61442e-16
1.79022e-15
1.84535e-14
4.947e-13
2.5661e-12
1.11397e-12
3.69123e-07
-6.23613e-18
-2.67094e-18
-1.17048e-18
-5.15445e-19
-1.24965e-19
3.36474e-19
3.52468e-18
1.98582e-17
7.74003e-17
2.24451e-16
4.75124e-16
8.84954e-16
2.26931e-15
1.0485e-14
7.96243e-14
5.9085e-13
3.02106e-12
1.21922e-12
1.21968e-12
-1.53308e-18
-5.94463e-19
-2.30335e-19
-7.4453e-20
2.048e-19
3.87565e-18
2.64837e-17
1.29481e-16
4.91295e-16
1.49471e-15
3.79086e-15
1.10614e-14
4.0007e-14
1.61385e-13
5.44273e-13
1.57403e-12
3.98389e-12
1.21968e-12
2.73019e-07
-3.49152e-19
-1.24474e-19
-4.28325e-20
6.58094e-21
9.53626e-19
1.38775e-17
1.21401e-16
6.41541e-16
2.7481e-15
1.08839e-14
4.96941e-14
2.45417e-13
8.56034e-13
2.19219e-12
3.55987e-12
5.37563e-12
6.26395e-12
1.22045e-12
2.26665e-06
-6.98291e-20
-2.29363e-20
-6.5635e-21
4.84985e-20
1.80566e-18
3.64727e-17
4.47628e-16
3.0484e-15
1.85851e-14
1.11493e-13
7.08598e-13
3.29299e-12
9.00904e-12
1.58964e-11
1.66423e-11
1.67575e-11
1.45143e-11
1.29982e-12
2.36184e-06
-1.18091e-20
-3.53394e-21
-4.19114e-22
5.65678e-20
2.70343e-18
7.00799e-17
1.21147e-15
1.3155e-14
1.16216e-13
8.14817e-13
4.63982e-12
1.72808e-11
3.81341e-11
5.25615e-11
4.92089e-11
4.16853e-11
4.10106e-11
1.29805e-12
2.36182e-06
-1.63251e-21
-4.3595e-22
2.88208e-22
5.76942e-20
3.21598e-18
9.85737e-17
2.28072e-15
4.03619e-14
4.22126e-13
2.86522e-12
1.34143e-11
4.17042e-11
7.8535e-11
9.18467e-11
9.26376e-11
8.34793e-11
9.9963e-11
1.30203e-12
2.36173e-06
-1.77517e-22
-4.06955e-23
2.24406e-22
4.38436e-20
3.31254e-18
1.09422e-16
3.0741e-15
7.81165e-14
8.45006e-13
5.33706e-12
2.13686e-11
5.95454e-11
1.00257e-10
1.06641e-10
1.21023e-10
1.83273e-10
2.42892e-10
1.32053e-12
2.36154e-06
-1.44567e-23
-2.49983e-24
9.13859e-23
2.07058e-20
2.52793e-18
1.03983e-16
3.3081e-15
1.02302e-13
1.09385e-12
6.49702e-12
2.40153e-11
6.44358e-11
1.0025e-10
1.0004e-10
1.23806e-10
9.70389e-10
1.05376e-09
1.37865e-12
1.92864e-06
-8.25077e-25
-3.03715e-26
3.41738e-23
7.97151e-21
1.09888e-18
5.52003e-17
2.70723e-15
1.06563e-13
1.1234e-12
6.41972e-12
2.14934e-11
4.51007e-11
8.06118e-11
4.9014e-11
6.24606e-11
4.01931e-09
4.29244e-09
1.65442e-12
5.49162e-07
-2.99145e-26
2.60519e-26
8.64424e-24
2.52463e-21
3.61029e-19
1.71018e-17
1.03883e-15
7.0465e-14
6.97741e-13
3.44803e-12
9.32913e-12
1.49613e-11
2.87054e-11
9.48941e-12
9.49638e-12
6.54472e-09
6.7322e-09
2.8836e-12
5.64391e-07
-5.84193e-28
4.17576e-27
1.31142e-24
5.31171e-22
8.88502e-20
3.96452e-18
2.21864e-16
1.99602e-14
1.85753e-13
8.28218e-13
1.95841e-12
2.99518e-12
5.20605e-12
9.535e-14
3.43883e-11
5.75476e-09
6.59928e-09
1.66323e-09
8.99701e-07
-4.39175e-30
3.36383e-28
1.04813e-25
6.30041e-23
1.26004e-20
6.09691e-19
3.01004e-17
2.94635e-15
2.59168e-14
1.06947e-13
2.31438e-13
3.50036e-13
5.46087e-13
7.827e-16
7.31818e-11
1.16999e-09
2.96655e-09
2.67795e-14
8.99655e-07
-5.72675e-33
2.01101e-32
1.87141e-27
3.52478e-24
7.41359e-22
4.07891e-20
2.10355e-18
1.99765e-16
1.65362e-15
6.32449e-15
1.28785e-14
1.93467e-14
2.61362e-14
7.82177e-16
1.03182e-11
1.37004e-11
9.07744e-11
7.73705e-26
8.85072e-07
-3.50956e-38
-3.1954e-40
3.2791e-35
6.12744e-30
1.4756e-26
4.70315e-24
1.10365e-21
1.08253e-19
6.64058e-19
2.35419e-18
4.68951e-18
6.62424e-18
2.85559e-18
5.60673e-20
1.80686e-14
-5.49319e-51
-1.24347e-50
-1.17549e-41
7.96839e-07
)
;

boundaryField
{
    leftWall
    {
        type            zeroGradient;
    }
    rightWall
    {
        type            zeroGradient;
    }
    lowerWall
    {
        type            zeroGradient;
    }
    atmosphere
    {
        type            inletOutlet;
        inletValue      uniform 0;
        value           nonuniform List<scalar> 
46
(
0
1.99624e-11
3.17515e-10
4.5054e-10
3.3541e-10
1.5784e-10
3.92712e-11
3.93699e-12
1.16115e-13
6.93099e-16
6.55124e-19
1.56146e-22
-1.38039e-20
-3.80866e-20
-3.45242e-20
-1.59494e-20
-4.44388e-21
-7.9001e-22
-8.87397e-23
-5.91904e-24
-2.11016e-25
0
0
0
0
0
0
0
0
0
0
0
0
0
0
0
0
0
0
0
0
0
0
0
0
7.96839e-07
)
;
    }
    defaultFaces
    {
        type            empty;
    }
}


// ************************************************************************* //
