/*--------------------------------*- C++ -*----------------------------------*\
  =========                 |
  \\      /  F ield         | OpenFOAM: The Open Source CFD Toolbox
   \\    /   O peration     | Website:  https://openfoam.org
    \\  /    A nd           | Version:  9
     \\/     M anipulation  |
\*---------------------------------------------------------------------------*/
FoamFile
{
    format      ascii;
    class       volVectorField;
    location    "9.49";
    object      U;
}
// * * * * * * * * * * * * * * * * * * * * * * * * * * * * * * * * * * * * * //

dimensions      [0 1 -1 0 0 0 0];

internalField   nonuniform List<vector> 
2268
(
(0.000697976 -0.000324428 0)
(0.00195391 -0.000292827 0)
(0.00308713 -0.000284502 0)
(0.00425505 -0.000293136 0)
(0.00541763 -0.000298994 0)
(0.00655753 -0.000298408 0)
(0.00766342 -0.000290545 0)
(0.00869346 -0.000267572 0)
(0.00959859 -0.000230314 0)
(0.0103429 -0.000193204 0)
(0.0109508 -0.000171398 0)
(0.0115078 -0.000187341 0)
(0.0121495 -0.000249639 0)
(0.0129968 -0.00033237 0)
(0.0139844 -0.0003545 0)
(0.0148169 -0.000171264 0)
(0.0144817 0.00030797 0)
(0.0125046 0.0007328 0)
(0.0090659 0.00170544 0)
(0.00211784 0.00220048 0)
(-0.00312443 0.000851561 0)
(-0.00453202 -0.00031731 0)
(-0.00282077 -0.00117305 0)
(0.000623398 -0.000930893 0)
(0.00187916 -0.000877777 0)
(0.00306258 -0.000854341 0)
(0.00425504 -0.000847113 0)
(0.00540534 -0.000833047 0)
(0.00650143 -0.000808002 0)
(0.00753884 -0.000765902 0)
(0.00848911 -0.000691757 0)
(0.00931 -0.000585739 0)
(0.00997263 -0.000478153 0)
(0.0104914 -0.000406055 0)
(0.0109252 -0.000407897 0)
(0.0113617 -0.000496694 0)
(0.011871 -0.000610082 0)
(0.0123994 -0.000579335 0)
(0.0127154 -0.00012053 0)
(0.0121509 0.00090805 0)
(0.0102335 0.00189397 0)
(0.00756861 0.00336974 0)
(0.0037658 0.00405962 0)
(0.000587056 0.00223824 0)
(-0.0020301 0.000328989 0)
(-0.00246976 -0.00246159 0)
(0.000599055 -0.00148984 0)
(0.00186595 -0.00144127 0)
(0.00306758 -0.00141174 0)
(0.0042645 -0.00138367 0)
(0.00539589 -0.00134132 0)
(0.00645308 -0.00128572 0)
(0.00743953 -0.00120755 0)
(0.00833614 -0.00108324 0)
(0.00910032 -0.000909667 0)
(0.00970072 -0.000731165 0)
(0.0101436 -0.000601489 0)
(0.0104676 -0.000572788 0)
(0.0107344 -0.000660758 0)
(0.0109967 -0.000778521 0)
(0.0112295 -0.000693415 0)
(0.0112906 -8.77313e-06 0)
(0.0106102 0.00149004 0)
(0.00875839 0.00291097 0)
(0.00663327 0.00446199 0)
(0.00457065 0.00519982 0)
(0.00254623 0.0034335 0)
(-0.000301491 0.00130868 0)
(-0.00159658 -0.00325581 0)
(0.000598747 -0.00207056 0)
(0.00187309 -0.00202779 0)
(0.0030853 -0.00198516 0)
(0.00428322 -0.0019286 0)
(0.00539807 -0.00184915 0)
(0.00642368 -0.00175651 0)
(0.00737266 -0.0016396 0)
(0.00823347 -0.00146321 0)
(0.00895822 -0.00121761 0)
(0.00950817 -0.000960534 0)
(0.00988188 -0.000759912 0)
(0.0101019 -0.000679462 0)
(0.010213 -0.000739775 0)
(0.0102633 -0.000840753 0)
(0.0102643 -0.00070991 0)
(0.0101796 0.000155073 0)
(0.00951415 0.00206839 0)
(0.00782994 0.00382278 0)
(0.00608962 0.00522781 0)
(0.00494015 0.0059039 0)
(0.00362497 0.00446655 0)
(0.000918506 0.00241631 0)
(-0.00077103 -0.00346802 0)
(0.000611283 -0.00265186 0)
(0.00189103 -0.0026202 0)
(0.00311136 -0.00256276 0)
(0.0043123 -0.00247323 0)
(0.00541512 -0.00235008 0)
(0.00641562 -0.00221643 0)
(0.00733752 -0.00206064 0)
(0.0081761 -0.00183195 0)
(0.00887413 -0.00150963 0)
(0.00938239 -0.0011657 0)
(0.00969279 -0.000880695 0)
(0.00981411 -0.000728398 0)
(0.00977853 -0.000737515 0)
(0.00963232 -0.000805566 0)
(0.00942039 -0.000646747 0)
(0.00922804 0.000318539 0)
(0.00866246 0.00259295 0)
(0.00723339 0.00461771 0)
(0.00576819 0.00579386 0)
(0.00506142 0.00631554 0)
(0.00413973 0.00533899 0)
(0.00177561 0.00351583 0)
(0.000117594 -0.00320799 0)
(0.000633327 -0.00324452 0)
(0.00191779 -0.0032148 0)
(0.0031482 -0.00314066 0)
(0.00435763 -0.0030147 0)
(0.00545424 -0.00284186 0)
(0.0064357 -0.00266444 0)
(0.00733868 -0.00247134 0)
(0.00816522 -0.00219121 0)
(0.00884597 -0.00178705 0)
(0.00931996 -0.00134757 0)
(0.00957451 -0.000964893 0)
(0.00960627 -0.000721413 0)
(0.00943546 -0.00065668 0)
(0.00910263 -0.000674095 0)
(0.00867019 -0.00050071 0)
(0.00833777 0.000461379 0)
(0.00791778 0.00300817 0)
(0.00684624 0.00528624 0)
(0.00562477 0.00625181 0)
(0.00505894 0.00658734 0)
(0.00427499 0.00606696 0)
(0.00253954 0.00438992 0)
(0.00151722 -0.00256363 0)
(0.000658323 -0.00382859 0)
(0.00195628 -0.0038122 0)
(0.00320099 -0.00372239 0)
(0.00442588 -0.00355762 0)
(0.0055228 -0.00332877 0)
(0.0064909 -0.00310494 0)
(0.00738041 -0.00287685 0)
(0.00820017 -0.00254659 0)
(0.00886843 -0.00205427 0)
(0.00931364 -0.00151033 0)
(0.00952152 -0.00101741 0)
(0.00947798 -0.000664328 0)
(0.00919035 -0.000503633 0)
(0.00868593 -0.000448535 0)
(0.00802299 -0.000255311 0)
(0.0074379 0.000629289 0)
(0.00711448 0.00325911 0)
(0.00659355 0.0057654 0)
(0.00569468 0.0066756 0)
(0.00501562 0.00685745 0)
(0.00431366 0.00659314 0)
(0.00354407 0.004796 0)
(0.00303448 -0.00151906 0)
(0.000679449 -0.00449816 0)
(0.00200552 -0.00443743 0)
(0.00327282 -0.00433024 0)
(0.00452042 -0.00412118 0)
(0.00562473 -0.00382669 0)
(0.00658504 -0.00355117 0)
(0.00746296 -0.00328854 0)
(0.0082735 -0.00290878 0)
(0.00892666 -0.00231786 0)
(0.00934534 -0.00166031 0)
(0.00951693 -0.0010452 0)
(0.00941812 -0.00056341 0)
(0.00904191 -0.00028504 0)
(0.00839677 -0.000133007 0)
(0.00751988 0.000112695 0)
(0.00659602 0.000927821 0)
(0.00621303 0.0033552 0)
(0.00624401 0.00595511 0)
(0.00582744 0.00704087 0)
(0.00513949 0.00715179 0)
(0.00470569 0.0068068 0)
(0.00486473 0.00491053 0)
(0.00399702 0.000702594 0)
(-0.0103966 0.00305556 0)
(-0.014089 0.000301906 0)
(-0.0104324 -0.00171143 0)
(-0.00455867 -0.00144342 0)
(-0.00115812 -0.000995314 0)
(0.00163932 -0.000815569 0)
(0.00344977 -0.000404345 0)
(0.00440142 -0.000189874 0)
(0.00486126 -0.000175926 0)
(0.00523525 -0.000464083 0)
(0.00606241 0.000297284 0)
(0.00234062 0.00262378 0)
(-0.0087684 0.00243137 0)
(-0.01231 -8.48021e-05 0)
(-0.0102536 -0.000609095 0)
(-0.00881926 -0.000270376 0)
(-0.00955339 0.000119571 0)
(-0.0105666 -0.000740693 0)
(-0.00416582 -0.00161803 0)
(-0.00999536 0.00731388 0)
(-0.00963868 0.000281145 0)
(-0.00734631 -0.00306178 0)
(-0.00398568 -0.00268192 0)
(-0.00199257 -0.00183869 0)
(-0.00064156 -0.00131826 0)
(0.00018016 -0.000784564 0)
(0.000920863 -0.000423179 0)
(0.00108106 -0.000125111 0)
(0.000192457 -0.00024092 0)
(-0.000485117 0.000705762 0)
(-0.00138628 0.00424509 0)
(-0.00574389 0.00426579 0)
(-0.00770352 0.000450813 0)
(-0.00785315 -0.000792022 0)
(-0.00771923 -0.000237681 0)
(-0.00921413 0.000767488 0)
(-0.0109885 -0.00136598 0)
(-0.00617697 -0.00496166 0)
(-0.0073986 0.0106234 0)
(-0.00627788 -0.000186847 0)
(-0.00491776 -0.00404074 0)
(-0.00341608 -0.00341912 0)
(-0.00258324 -0.00230996 0)
(-0.0020743 -0.0015787 0)
(-0.0017976 -0.000998437 0)
(-0.00142123 -0.000547609 0)
(-0.00158146 0.000135492 0)
(-0.00287338 0.000313574 0)
(-0.00443869 0.00108249 0)
(-0.00459086 0.00448642 0)
(-0.00479481 0.00477334 0)
(-0.00535611 0.000909364 0)
(-0.00614197 -0.000534647 0)
(-0.00679564 0.000176646 0)
(-0.00833607 0.00150727 0)
(-0.0100473 -0.00181901 0)
(-0.00595547 -0.00883258 0)
(-0.0043678 0.0130412 0)
(-0.00296136 -0.00057181 0)
(-0.0028604 -0.00436468 0)
(-0.00297874 -0.00360111 0)
(-0.00315443 -0.00241635 0)
(-0.00332239 -0.00160406 0)
(-0.00348213 -0.00105304 0)
(-0.00340964 -0.000538966 0)
(-0.00375299 0.000485263 0)
(-0.00510013 0.00097953 0)
(-0.00681177 0.00155849 0)
(-0.00664273 0.00415764 0)
(-0.00495946 0.00447768 0)
(-0.0043007 0.00109729 0)
(-0.00501798 -0.000143271 0)
(-0.00583097 0.000696084 0)
(-0.00700176 0.00203862 0)
(-0.00809569 -0.00227432 0)
(-0.00424437 -0.0119861 0)
(-0.000155752 0.0139488 0)
(0.000369542 -0.000697344 0)
(-0.00127393 -0.00399927 0)
(-0.00279213 -0.00327829 0)
(-0.00382059 -0.00219464 0)
(-0.00455685 -0.0014202 0)
(-0.00509518 -0.000966123 0)
(-0.00527049 -0.000451574 0)
(-0.00567482 0.000850965 0)
(-0.00687407 0.00157396 0)
(-0.00825803 0.00193074 0)
(-0.00784432 0.00359382 0)
(-0.00557088 0.00373212 0)
(-0.00429864 0.00103568 0)
(-0.00458601 0.000127224 0)
(-0.00478586 0.00103612 0)
(-0.00512903 0.00232723 0)
(-0.00560101 -0.00281038 0)
(-0.00233837 -0.0142115 0)
(0.00427669 0.0129577 0)
(0.00283913 -7.59407e-05 0)
(-0.000458301 -0.00296938 0)
(-0.00297585 -0.00253653 0)
(-0.00464865 -0.00170123 0)
(-0.0058367 -0.00105473 0)
(-0.0067035 -0.00075605 0)
(-0.00707506 -0.000324938 0)
(-0.00743057 0.001179 0)
(-0.00835776 0.00205058 0)
(-0.00926751 0.00211613 0)
(-0.0085683 0.00295863 0)
(-0.00627239 0.00286781 0)
(-0.00492892 0.000823382 0)
(-0.00477264 8.79572e-05 0)
(-0.00396667 0.000909343 0)
(-0.00287772 0.00223861 0)
(-0.00256707 -0.0032814 0)
(-0.000396571 -0.0154605 0)
(0.00639592 0.0110273 0)
(0.00357899 0.00126759 0)
(-0.000566828 -0.0014872 0)
(-0.00358907 -0.00152366 0)
(-0.00566623 -0.00101796 0)
(-0.00718012 -0.000542308 0)
(-0.00832794 -0.000437304 0)
(-0.00888782 -0.000194976 0)
(-0.00910907 0.0014063 0)
(-0.0096326 0.0023794 0)
(-0.0100504 0.00210984 0)
(-0.00909224 0.0022917 0)
(-0.00691944 0.00205176 0)
(-0.00567595 0.000562289 0)
(-0.00513925 -0.0002514 0)
(-0.00340257 0.000186723 0)
(-0.000822744 0.00163892 0)
(0.000597239 -0.00374545 0)
(0.00199491 -0.0155126 0)
(0.0049767 0.00851142 0)
(0.00242523 0.0027751 0)
(-0.00153512 0.00010221 0)
(-0.00459645 -0.000394533 0)
(-0.00685817 -0.000220072 0)
(-0.00856988 8.46366e-05 0)
(-0.00993206 -9.73438e-06 0)
(-0.0107363 -4.13764e-05 0)
(-0.0108238 0.00145262 0)
(-0.0107573 0.00248146 0)
(-0.0106258 0.00192563 0)
(-0.00947151 0.00159437 0)
(-0.0074382 0.00128624 0)
(-0.00617818 0.000273131 0)
(-0.00511145 -0.000911042 0)
(-0.00288926 -0.000925084 0)
(0.000535365 0.000488326 0)
(0.00320563 -0.00431405 0)
(0.00423318 -0.0143721 0)
(0.00075938 -0.00548296 0)
(0.00209237 -0.00551854 0)
(0.00340571 -0.00537653 0)
(0.00470352 -0.00507769 0)
(0.00583303 -0.00465769 0)
(0.00679187 -0.00428517 0)
(0.00764667 -0.00396046 0)
(0.00841906 -0.00350159 0)
(0.00902573 -0.00273105 0)
(0.00939863 -0.00188341 0)
(0.0095312 -0.0010607 0)
(0.0093869 -0.000342368 0)
(0.00893283 0.000167625 0)
(0.0081538 0.000538568 0)
(0.00705642 0.000933522 0)
(0.00581403 0.00168137 0)
(0.00511215 0.00346804 0)
(0.0052791 0.00582339 0)
(0.00564373 0.00723312 0)
(0.00579306 0.00740897 0)
(0.00591001 0.00678016 0)
(0.00599209 0.00528031 0)
(0.0042434 0.00405668 0)
(0.000643916 -0.00658993 0)
(0.00216912 -0.0063761 0)
(0.00366831 -0.00626102 0)
(0.00505517 -0.00591143 0)
(0.0062462 -0.00535082 0)
(0.00723929 -0.00485182 0)
(0.00800409 -0.00441383 0)
(0.00854274 -0.0038507 0)
(0.00891778 -0.0029492 0)
(0.00917615 -0.00197562 0)
(0.00931352 -0.0010011 0)
(0.00929406 -7.43528e-05 0)
(0.00902562 0.000703627 0)
(0.00841026 0.00137506 0)
(0.00740808 0.00198976 0)
(0.00611989 0.00266479 0)
(0.0050115 0.00368227 0)
(0.00475783 0.00511167 0)
(0.00538265 0.00621758 0)
(0.0061842 0.00655247 0)
(0.00645455 0.00627488 0)
(0.00577465 0.00579051 0)
(0.00393984 0.00556855 0)
(0.00124749 -0.00735324 0)
(0.00316341 -0.00769499 0)
(0.00434928 -0.00763819 0)
(0.00516717 -0.00707302 0)
(0.00646157 -0.00618078 0)
(0.00793075 -0.00547705 0)
(0.00879513 -0.00489515 0)
(0.00905346 -0.00415908 0)
(0.00916288 -0.00315402 0)
(0.0093778 -0.00211221 0)
(0.00961336 -0.00107389 0)
(0.00983416 -4.39855e-05 0)
(0.00985053 0.000947794 0)
(0.00946568 0.00191756 0)
(0.00863422 0.0028639 0)
(0.00740568 0.00372602 0)
(0.0061796 0.00448038 0)
(0.00571168 0.00514816 0)
(0.00609675 0.00573751 0)
(0.0066784 0.00628431 0)
(0.00673885 0.00680737 0)
(0.00578735 0.00722149 0)
(0.00388156 0.00752745 0)
(0.00540538 -0.0126369 0)
(0.00443281 -0.00890644 0)
(0.00361787 -0.0083398 0)
(0.000959862 -0.00759828 0)
(0.00275969 -0.0070806 0)
(0.0064474 -0.00607502 0)
(0.00750674 -0.00520106 0)
(0.00733281 -0.00421819 0)
(0.00743947 -0.0033074 0)
(0.00801148 -0.00222089 0)
(0.00843075 -0.00116989 0)
(0.00887487 -0.000145809 0)
(0.00885815 0.00107332 0)
(0.00818923 0.00223978 0)
(0.00737021 0.00338915 0)
(0.00693152 0.00437559 0)
(0.0072012 0.00490891 0)
(0.00770064 0.00528303 0)
(0.00690459 0.00587811 0)
(0.00565855 0.0063862 0)
(0.00562303 0.00714667 0)
(0.00594833 0.00789973 0)
(0.004044 0.00843085 0)
(-0.00732907 -0.013295 0)
(-0.0064319 -0.0132491 0)
(-0.0181948 -0.00124534 0)
(-0.031486 -0.00470417 0)
(-0.0271925 -0.019336 0)
(-0.0201652 -0.0134851 0)
(-0.0160968 -0.00751328 0)
(-0.0147895 -0.00452087 0)
(-0.0119754 -0.00562696 0)
(-0.00830642 -0.00406215 0)
(-0.0050229 -0.00297911 0)
(-0.00167499 -0.00139382 0)
(0.00113435 0.00192342 0)
(0.00319261 0.00441729 0)
(0.00596567 0.00552928 0)
(0.00935985 0.00520891 0)
(0.0116726 0.0047291 0)
(0.011932 0.00539843 0)
(0.00857944 0.0103585 0)
(0.00135509 0.00829496 0)
(-0.00177156 0.00753405 0)
(0.000946456 0.0101432 0)
(-0.000792636 0.0222861 0)
(-0.00192887 -0.00139921 0)
(-0.00628065 -0.00343594 0)
(-0.00550387 0.0127439 0)
(-0.000191676 0.00358324 0)
(-0.00571065 -0.0165701 0)
(-0.0170122 -0.0136208 0)
(-0.0189672 -0.00787156 0)
(-0.0172934 -0.00724663 0)
(-0.0159511 -0.00903367 0)
(-0.0161052 -0.0069227 0)
(-0.0159145 -0.00565693 0)
(-0.0148641 -0.00532703 0)
(-0.0117929 -0.00292296 0)
(-0.00770777 -0.00152405 0)
(-0.00425039 -0.00174505 0)
(-0.00305238 -0.000663262 0)
(-0.00591463 0.00395347 0)
(-0.0104622 0.00748666 0)
(-0.0105046 0.0138053 0)
(-0.00920215 0.0133331 0)
(-0.0111383 0.00827684 0)
(-0.012761 0.00687268 0)
(-0.0108021 0.0184091 0)
(-0.000886751 -0.00189319 0)
(-0.00706672 -0.00375439 0)
(-0.00820245 0.00105091 0)
(-0.00536069 -0.00405379 0)
(-0.00908844 -0.00559515 0)
(-0.014882 -0.00662407 0)
(-0.0171933 -0.00671448 0)
(-0.0183131 -0.00815239 0)
(-0.0195058 -0.00780616 0)
(-0.0205096 -0.0063576 0)
(-0.0210075 -0.00542022 0)
(-0.0205524 -0.00702256 0)
(-0.0184681 -0.00683374 0)
(-0.0155611 -0.00469395 0)
(-0.0135498 -0.00189915 0)
(-0.0130682 0.00319533 0)
(-0.0135772 0.00889907 0)
(-0.0147768 0.0102514 0)
(-0.0154186 0.0115744 0)
(-0.0151573 0.0129115 0)
(-0.015966 0.010359 0)
(-0.017693 0.00798256 0)
(-0.0148693 0.0123622 0)
(-0.00104287 0.00407977 0)
(-0.00531029 0.00326353 0)
(-0.00711312 0.00464291 0)
(-0.00758259 0.00145753 0)
(-0.010405 -0.00230821 0)
(-0.0131945 -0.00396456 0)
(-0.0150666 -0.00491992 0)
(-0.0166823 -0.00600326 0)
(-0.018122 -0.00618953 0)
(-0.0189122 -0.00545991 0)
(-0.0190303 -0.00511717 0)
(-0.0191554 -0.00712131 0)
(-0.0194031 -0.00780815 0)
(-0.0194085 -0.00582881 0)
(-0.0194763 -0.00255691 0)
(-0.0193142 0.00215006 0)
(-0.0185621 0.00790053 0)
(-0.0180567 0.0105151 0)
(-0.0178995 0.0118307 0)
(-0.017534 0.0124558 0)
(-0.0174817 0.0109806 0)
(-0.018006 0.00847364 0)
(-0.0167861 0.0075377 0)
(-0.00126367 0.00571619 0)
(-0.00388965 0.00485064 0)
(-0.00561262 0.00470544 0)
(-0.00670528 0.00223986 0)
(-0.00876121 -0.000424525 0)
(-0.0108634 -0.00209166 0)
(-0.0125681 -0.00326462 0)
(-0.0141349 -0.00434266 0)
(-0.0154493 -0.00509285 0)
(-0.0162311 -0.00502496 0)
(-0.0166566 -0.00500837 0)
(-0.0174836 -0.0062341 0)
(-0.0189508 -0.00671073 0)
(-0.0202883 -0.00512053 0)
(-0.0210238 -0.00212831 0)
(-0.0211269 0.00169822 0)
(-0.0204253 0.00669362 0)
(-0.0194384 0.00986664 0)
(-0.0187236 0.0115111 0)
(-0.0181057 0.0119687 0)
(-0.017772 0.0108473 0)
(-0.0178388 0.00846956 0)
(-0.0169243 0.00544112 0)
(-0.00104418 0.00792153 0)
(-0.00278342 0.00701464 0)
(-0.00419605 0.00603125 0)
(-0.00534136 0.00396359 0)
(-0.00699227 0.00148078 0)
(-0.00874103 -0.000381522 0)
(-0.0103057 -0.00171378 0)
(-0.0117477 -0.00291927 0)
(-0.0129921 -0.00402351 0)
(-0.0140097 -0.00425925 0)
(-0.014971 -0.00422603 0)
(-0.0162622 -0.00477493 0)
(-0.0179676 -0.00493596 0)
(-0.0194734 -0.00391446 0)
(-0.0203143 -0.00162821 0)
(-0.0205631 0.00165413 0)
(-0.0201237 0.00577304 0)
(-0.0191907 0.00893126 0)
(-0.0182433 0.0107331 0)
(-0.017366 0.0112835 0)
(-0.0166707 0.0104304 0)
(-0.0162219 0.0081321 0)
(-0.015381 0.00392365 0)
(-0.000757188 0.00947618 0)
(-0.00197482 0.00850724 0)
(-0.00309872 0.00717959 0)
(-0.00414322 0.00527647 0)
(-0.00550995 0.00307389 0)
(-0.00703539 0.00117106 0)
(-0.00847863 -0.000262958 0)
(-0.00979709 -0.00160432 0)
(-0.0110317 -0.00283972 0)
(-0.0122801 -0.0030766 0)
(-0.0135712 -0.00296369 0)
(-0.0150266 -0.00317687 0)
(-0.016696 -0.0032221 0)
(-0.0181395 -0.00274916 0)
(-0.0189554 -0.00114334 0)
(-0.0191408 0.00164056 0)
(-0.0187555 0.00510723 0)
(-0.0179459 0.00798546 0)
(-0.0169383 0.00973399 0)
(-0.015831 0.0102982 0)
(-0.0147111 0.00957272 0)
(-0.0136869 0.00738344 0)
(-0.0129592 0.00308075 0)
(-0.000546708 0.0105834 0)
(-0.00143757 0.00959722 0)
(-0.00234083 0.00815979 0)
(-0.00327594 0.00638563 0)
(-0.00443647 0.00442388 0)
(-0.00576024 0.00258672 0)
(-0.00704256 0.00105013 0)
(-0.00822485 -0.000375616 0)
(-0.00947572 -0.00153855 0)
(-0.0108661 -0.00166775 0)
(-0.0122494 -0.00156745 0)
(-0.0136477 -0.00164146 0)
(-0.015133 -0.00167161 0)
(-0.0164749 -0.00162578 0)
(-0.017354 -0.000644202 0)
(-0.017594 0.00153534 0)
(-0.0172044 0.00448815 0)
(-0.0164179 0.00708641 0)
(-0.0153985 0.00861984 0)
(-0.0141611 0.00905375 0)
(-0.0127981 0.00832044 0)
(-0.0114813 0.00629271 0)
(-0.0107015 0.00272924 0)
(-0.000392143 0.0114013 0)
(-0.00107328 0.0104334 0)
(-0.00181678 0.00900508 0)
(-0.00265007 0.00736143 0)
(-0.00365685 0.00557895 0)
(-0.00479021 0.00382981 0)
(-0.00589991 0.00220312 0)
(-0.00698337 0.000780854 0)
(-0.00824482 -0.000160409 0)
(-0.00963869 -0.000242216 0)
(-0.0109467 -0.000235967 0)
(-0.0121801 -0.000291835 0)
(-0.013404 -0.000348447 0)
(-0.0146119 -0.000478326 0)
(-0.0156016 7.71579e-06 0)
(-0.0160362 0.00151994 0)
(-0.0157741 0.00386901 0)
(-0.0150334 0.0062109 0)
(-0.0140149 0.00746271 0)
(-0.0127633 0.00771328 0)
(-0.0114057 0.00694837 0)
(-0.0101481 0.00514149 0)
(-0.00935234 0.00238384 0)
(-0.000258961 0.0120088 0)
(-0.000793957 0.0110977 0)
(-0.0014145 0.00973712 0)
(-0.00214252 0.0082195 0)
(-0.00301215 0.00657792 0)
(-0.00399073 0.00490432 0)
(-0.00497567 0.0032284 0)
(-0.00601849 0.00191221 0)
(-0.00726083 0.00120483 0)
(-0.00855766 0.0010658 0)
(-0.00972601 0.000954819 0)
(-0.0107883 0.000839859 0)
(-0.0117889 0.000730947 0)
(-0.012799 0.000608213 0)
(-0.0137509 0.000804982 0)
(-0.0143607 0.00173891 0)
(-0.0143916 0.00343986 0)
(-0.0138203 0.00536682 0)
(-0.0128398 0.00633341 0)
(-0.0116653 0.00643608 0)
(-0.0104528 0.00569825 0)
(-0.0094029 0.00416823 0)
(-0.00879011 0.00203413 0)
(-0.000142595 0.0124351 0)
(-0.000557434 0.0116297 0)
(-0.00106992 0.0103625 0)
(-0.00169135 0.00895904 0)
(-0.00243267 0.00744073 0)
(-0.00328558 0.00585463 0)
(-0.00422107 0.00420519 0)
(-0.00527025 0.00303848 0)
(-0.00645287 0.00247719 0)
(-0.00761355 0.00222243 0)
(-0.00863915 0.00199801 0)
(-0.00956374 0.00179719 0)
(-0.0104181 0.00162556 0)
(-0.0112437 0.00150985 0)
(-0.0120471 0.00159571 0)
(-0.0126899 0.00216322 0)
(-0.0129211 0.00329718 0)
(-0.0125514 0.0046325 0)
(-0.011721 0.00531947 0)
(-0.0107139 0.00532091 0)
(-0.00970606 0.00466108 0)
(-0.00887508 0.00341913 0)
(-0.00841454 0.00178879 0)
(-4.85875e-05 0.0127024 0)
(-0.000354292 0.012044 0)
(-0.000768793 0.0108862 0)
(-0.00129448 0.00958704 0)
(-0.0019258 0.00818455 0)
(-0.0026775 0.00671389 0)
(-0.00359222 0.00520093 0)
(-0.00465359 0.00415032 0)
(-0.00574902 0.00361653 0)
(-0.00676324 0.00323856 0)
(-0.00766449 0.00291407 0)
(-0.0084819 0.00263271 0)
(-0.00923544 0.00240122 0)
(-0.00994879 0.00225188 0)
(-0.0106226 0.00227785 0)
(-0.01117 0.00261908 0)
(-0.01141 0.00330641 0)
(-0.0111877 0.00409151 0)
(-0.0105765 0.00450363 0)
(-0.00979042 0.00441944 0)
(-0.00900094 0.00384179 0)
(-0.00835992 0.00284596 0)
(-0.00800184 0.00159361 0)
(1.44672e-06 0.0128454 0)
(-0.000194124 0.0123497 0)
(-0.000523663 0.011321 0)
(-0.000977234 0.010127 0)
(-0.00153597 0.00883933 0)
(-0.00222039 0.00750421 0)
(-0.00308582 0.00619011 0)
(-0.00409153 0.00521415 0)
(-0.00507725 0.00461435 0)
(-0.00596454 0.00413507 0)
(-0.00676581 0.00372726 0)
(-0.00749692 0.00337654 0)
(-0.00816917 0.00308851 0)
(-0.00879216 0.00288937 0)
(-0.00935604 0.00283617 0)
(-0.00979715 0.00299281 0)
(-0.00999836 0.00334753 0)
(-0.00986605 0.00373684 0)
(-0.00944131 0.00390486 0)
(-0.00886372 0.00373605 0)
(-0.0082705 0.00321675 0)
(-0.00778265 0.00240359 0)
(-0.00749448 0.00141689 0)
(3.23881e-05 0.0128992 0)
(-7.23054e-05 0.0125672 0)
(-0.000342527 0.011689 0)
(-0.000748571 0.0106095 0)
(-0.00126166 0.00943752 0)
(-0.00189636 0.0082376 0)
(-0.00267585 0.00709535 0)
(-0.00355518 0.00617088 0)
(-0.00441885 0.00549114 0)
(-0.00520722 0.00493375 0)
(-0.00592496 0.00445554 0)
(-0.00658056 0.00404247 0)
(-0.00717926 0.0036974 0)
(-0.00772158 0.00343734 0)
(-0.0081927 0.0032925 0)
(-0.00854687 0.00328677 0)
(-0.00871273 0.00339431 0)
(-0.00863892 0.00350932 0)
(-0.00835154 0.0034851 0)
(-0.00793991 0.00323754 0)
(-0.00750399 0.00274965 0)
(-0.00713422 0.00205958 0)
(-0.00689715 0.00125108 0)
(6.72452e-05 0.0128829 0)
(1.40497e-05 0.0127259 0)
(-0.00022581 0.0120144 0)
(-0.000595542 0.0110509 0)
(-0.00106369 0.00998816 0)
(-0.00163695 0.00890522 0)
(-0.00231695 0.0078775 0)
(-0.00306494 0.00699014 0)
(-0.00380787 0.00626279 0)
(-0.00450175 0.00564516 0)
(-0.00514007 0.00510693 0)
(-0.00572369 0.00463616 0)
(-0.00625253 0.00423294 0)
(-0.00672204 0.00390599 0)
(-0.00711698 0.00366832 0)
(-0.00740551 0.00352397 0)
(-0.0075456 0.00344616 0)
(-0.00751103 0.00336608 0)
(-0.00732026 0.00319622 0)
(-0.00703095 0.00287999 0)
(-0.00671293 0.00240288 0)
(-0.00643109 0.0017895 0)
(-0.0062325 0.00109606 0)
(9.55497e-05 0.0128244 0)
(3.62364e-05 0.012862 0)
(-0.000181643 0.0123049 0)
(-0.000503108 0.0114469 0)
(-0.000914531 0.0104804 0)
(-0.00141414 0.00949101 0)
(-0.00199332 0.00854051 0)
(-0.0026216 0.00768165 0)
(-0.00325244 0.00693117 0)
(-0.0038535 0.0062705 0)
(-0.00441287 0.00568286 0)
(-0.00492566 0.00515979 0)
(-0.00538763 0.00469979 0)
(-0.00579162 0.00430581 0)
(-0.00612403 0.00398112 0)
(-0.00636315 0.00372102 0)
(-0.0064846 0.00350223 0)
(-0.00647599 0.00327944 0)
(-0.00635118 0.00299907 0)
(-0.00614814 0.00262412 0)
(-0.00591471 0.00214384 0)
(-0.00569639 0.00157384 0)
(-0.00552641 0.000951212 0)
(8.29627e-05 0.0127635 0)
(8.83171e-06 0.0130024 0)
(-0.000185999 0.0125531 0)
(-0.000447527 0.0117859 0)
(-0.000793793 0.0109029 0)
(-0.00121488 0.00998868 0)
(-0.00169805 0.00909529 0)
(-0.00221972 0.0082607 0)
(-0.00274889 0.00750061 0)
(-0.0032613 0.00681089 0)
(-0.00374351 0.00618415 0)
(-0.0041874 0.00561545 0)
(-0.0045861 0.00510284 0)
(-0.00493136 0.00464609 0)
(-0.00521168 0.00424364 0)
(-0.00541225 0.00388788 0)
(-0.00551894 0.0035601 0)
(-0.00552644 0.00323012 0)
(-0.00544537 0.0028644 0)
(-0.00530119 0.00243907 0)
(-0.00512644 0.00194665 0)
(-0.00495265 0.00139706 0)
(-0.00480321 0.000814628 0)
(2.01916e-05 0.0127378 0)
(-2.43073e-05 0.0131353 0)
(-0.000188753 0.0127552 0)
(-0.000400175 0.0120651 0)
(-0.000684054 0.0112537 0)
(-0.00102976 0.0104009 0)
(-0.00142529 0.00955293 0)
(-0.0018529 0.00874043 0)
(-0.00229105 0.00797862 0)
(-0.00272118 0.00727024 0)
(-0.00313028 0.00661358 0)
(-0.00350888 0.00600646 0)
(-0.00384883 0.00544731 0)
(-0.00414169 0.00493453 0)
(-0.00437783 0.00446479 0)
(-0.0045469 0.00403034 0)
(-0.00464049 0.00361691 0)
(-0.00465668 0.00320423 0)
(-0.00460349 0.00277098 0)
(-0.00449822 0.00230181 0)
(-0.00436298 0.00179175 0)
(-0.00421947 0.00124714 0)
(-0.00408413 0.000683952 0)
(-3.88914e-05 0.0127596 0)
(-5.49424e-05 0.0132327 0)
(-0.000175006 0.0129175 0)
(-0.000348914 0.0122912 0)
(-0.00057675 0.0115381 0)
(-0.000853357 0.010735 0)
(-0.0011704 0.00992437 0)
(-0.0015153 0.0091325 0)
(-0.00187274 0.00837399 0)
(-0.00222829 0.00765464 0)
(-0.00257014 0.0069759 0)
(-0.0028886 0.00633756 0)
(-0.00317517 0.00573872 0)
(-0.00342163 0.00517766 0)
(-0.00361983 0.00465089 0)
(-0.00376217 0.00415183 0)
(-0.00384333 0.00367002 0)
(-0.00386275 0.00319189 0)
(-0.00382636 0.00270377 0)
(-0.00374593 0.00219586 0)
(-0.00363652 0.00166495 0)
(-0.003513 0.00111516 0)
(-0.00338695 0.000557041 0)
(-8.55604e-05 0.0128226 0)
(-7.71609e-05 0.0132886 0)
(-0.000161989 0.0130456 0)
(-0.00029709 0.0124696 0)
(-0.000470962 0.0117616 0)
(-0.000683341 0.0109985 0)
(-0.00092981 0.0102194 0)
(-0.00120184 0.00944741 0)
(-0.00148829 0.00869585 0)
(-0.00177761 0.00797148 0)
(-0.00205926 0.00727735 0)
(-0.00232388 0.00661453 0)
(-0.00256304 0.00598291 0)
(-0.00276897 0.00538128 0)
(-0.00293454 0.00480685 0)
(-0.0030538 0.00425466 0)
(-0.003123 0.00371744 0)
(-0.00314196 0.00318625 0)
(-0.00311484 0.00265242 0)
(-0.00304969 0.00210976 0)
(-0.0029567 0.00155632 0)
(-0.0028461 0.000994841 0)
(-0.00272601 0.000432358 0)
(-0.000100483 0.0129095 0)
(-9.20183e-05 0.0133268 0)
(-0.000160354 0.013139 0)
(-0.000247557 0.012599 0)
(-0.000365761 0.0119262 0)
(-0.000517009 0.0111967 0)
(-0.00069959 0.0104463 0)
(-0.000907595 0.00969457 0)
(-0.00113235 0.00895321 0)
(-0.00136416 0.00822883 0)
(-0.00159344 0.00752509 0)
(-0.00181126 0.0068439 0)
(-0.00200947 0.00618596 0)
(-0.00218069 0.00555086 0)
(-0.00231853 0.0049369 0)
(-0.00241795 0.00434086 0)
(-0.00247597 0.00375806 0)
(-0.00249229 0.00318291 0)
(-0.00246969 0.00261009 0)
(-0.00241358 0.00203589 0)
(-0.00233088 0.00145925 0)
(-0.00222862 0.000882066 0)
(-0.00211252 0.000309097 0)
(-7.85258e-05 0.0129992 0)
(-0.000104786 0.0133763 0)
(-0.000160394 0.0131944 0)
(-0.000192766 0.0126757 0)
(-0.000254911 0.0120323 0)
(-0.000348828 0.0113344 0)
(-0.000474469 0.0106126 0)
(-0.000627246 0.00988299 0)
(-0.000799694 0.0091552 0)
(-0.000983049 0.00843523 0)
(-0.00116833 0.0077269 0)
(-0.00134693 0.00703272 0)
(-0.00151096 0.00635416 0)
(-0.00165337 0.00569178 0)
(-0.00176826 0.0050451 0)
(-0.00185111 0.00441258 0)
(-0.00189922 0.00379169 0)
(-0.00191204 0.00317934 0)
(-0.00189126 0.00257259 0)
(-0.00184047 0.00196948 0)
(-0.00176436 0.00136961 0)
(-0.00166778 0.000774412 0)
(-0.0015548 0.000187156 0)
(-8.38662e-05 0.0130891 0)
(-0.000114605 0.0134333 0)
(-0.000140994 0.0132069 0)
(-0.000118187 0.0126983 0)
(-0.00012798 0.012083 0)
(-0.00017102 0.0114179 0)
(-0.000248196 0.0107267 0)
(-0.00035534 0.010022 0)
(-0.000485337 0.00931128 0)
(-0.000629741 0.00859967 0)
(-0.000779805 0.00789104 0)
(-0.00092711 0.00718838 0)
(-0.00106394 0.00649398 0)
(-0.00118353 0.00580942 0)
(-0.00128028 0.00513552 0)
(-0.00134996 0.00447228 0)
(-0.00138998 0.00381899 0)
(-0.00139949 0.00317451 0)
(-0.00137941 0.00253769 0)
(-0.00133205 0.00190784 0)
(-0.0012606 0.00128513 0)
(-0.00116848 0.000670762 0)
(-0.00105861 6.70202e-05 0)
(-0.000104449 0.0131874 0)
(-0.000104465 0.0134649 0)
(-7.69953e-05 0.0131722 0)
(-8.44873e-06 0.0126708 0)
(2.55945e-05 0.0120854 0)
(2.39734e-05 0.0114559 0)
(-1.49709e-05 0.0107986 0)
(-8.7057e-05 0.0101219 0)
(-0.000185033 0.00943145 0)
(-0.000300355 0.00873154 0)
(-0.000424246 0.00802603 0)
(-0.000548336 0.00731847 0)
(-0.000665042 0.00661198 0)
(-0.000767798 0.00590925 0)
(-0.000851236 0.00521235 0)
(-0.000911332 0.00452275 0)
(-0.000945522 0.00384133 0)
(-0.000952746 0.00316852 0)
(-0.000933356 0.00250456 0)
(-0.000888839 0.0018498 0)
(-0.000821405 0.0012049 0)
(-0.000733517 0.000570964 0)
(-0.000627348 -5.03336e-05 0)
(-9.49037e-05 0.0132727 0)
(-3.54532e-05 0.0134399 0)
(4.01903e-05 0.0130963 0)
(0.000143487 0.0126034 0)
(0.000211557 0.0120501 0)
(0.000240753 0.0114592 0)
(0.000229035 0.010839 0)
(0.000180907 0.0101935 0)
(0.000104207 0.0095261 0)
(7.94885e-06 0.00884044 0)
(-9.88367e-05 0.00814055 0)
(-0.000207733 0.0074306 0)
(-0.000311265 0.00671471 0)
(-0.000403057 0.00599667 0)
(-0.000477961 0.00527985 0)
(-0.00053213 0.00456707 0)
(-0.000563058 0.00386061 0)
(-0.000569555 0.00316224 0)
(-0.000551633 0.00247339 0)
(-0.000510263 0.00179524 0)
(-0.000447046 0.00112891 0)
(-0.000363855 0.000475511 0)
(-0.000262416 -0.000163666 0)
(-3.62813e-05 0.0132932 0)
(8.48254e-05 0.0133585 0)
(0.000198953 0.0129834 0)
(0.000331148 0.0125043 0)
(0.000428239 0.0119864 0)
(0.00047992 0.0114384 0)
(0.000485038 0.0108592 0)
(0.00044986 0.0102479 0)
(0.000383755 0.00960567 0)
(0.000296722 0.00893592 0)
(0.000198255 0.00824308 0)
(9.68687e-05 0.00753219 0)
(-8.65949e-08 0.00680847 0)
(-8.64727e-05 0.00607693 0)
(-0.000157402 0.0053422 0)
(-0.000209244 0.00460839 0)
(-0.000239603 0.00387903 0)
(-0.000247265 0.0031571 0)
(-0.000232074 0.00244501 0)
(-0.000194722 0.00174473 0)
(-0.000136473 0.00105777 0)
(-5.88716e-05 0.000385321 0)
(3.66029e-05 -0.000271589 0)
(2.9114e-05 0.0132172 0)
(0.0002152 0.0132259 0)
(0.000380699 0.0128304 0)
(0.000548081 0.0123734 0)
(0.000672858 0.0118995 0)
(0.000740355 0.0114023 0)
(0.000752344 0.0108697 0)
(0.000719217 0.0102958 0)
(0.000653281 0.00968038 0)
(0.000566102 0.00902717 0)
(0.000467789 0.00834166 0)
(0.000366904 0.00763015 0)
(0.000270566 0.00689915 0)
(0.000184565 0.00615494 0)
(0.000113444 0.00540339 0)
(6.05566e-05 0.00464982 0)
(2.81165e-05 0.00389895 0)
(1.72695e-05 0.00315479 0)
(2.82078e-05 0.00242069 0)
(6.03502e-05 0.00169927 0)
(0.000112577 0.000992456 0)
(0.000183476 0.000301556 0)
(0.000271664 -0.000372608 0)
(8.2024e-05 0.0130463 0)
(0.000349914 0.0130273 0)
(0.00057858 0.012629 0)
(0.000790952 0.0122064 0)
(0.000944321 0.0117922 0)
(0.00102074 0.0113591 0)
(0.00102876 0.0108811 0)
(0.000986462 0.0103479 0)
(0.000910646 0.00975993 0)
(0.000814797 0.00912263 0)
(0.000709513 0.00844349 0)
(0.000603168 0.00773059 0)
(0.000502426 0.00699189 0)
(0.000412566 0.006235 0)
(0.000337675 0.00546698 0)
(0.000280751 0.00469429 0)
(0.000243768 0.00392268 0)
(0.000227741 0.00315715 0)
(0.000232817 0.00240185 0)
(0.000258417 0.00166007 0)
(0.000303434 0.000934128 0)
(0.00036645 0.000225456 0)
(0.000446048 -0.000465282 0)
(0.000164016 0.0127789 0)
(0.000494409 0.0127502 0)
(0.000799512 0.0123676 0)
(0.00106365 0.0119958 0)
(0.00124414 0.011668 0)
(0.00131909 0.0113194 0)
(0.00130982 0.0109055 0)
(0.00124658 0.0104152 0)
(0.00115168 0.0098533 0)
(0.0010401 0.00922957 0)
(0.000922318 0.00855452 0)
(0.00080603 0.00783842 0)
(0.000697119 0.00709084 0)
(0.000600156 0.00632065 0)
(0.00051866 0.005536 0)
(0.000455215 0.00474434 0)
(0.000411526 0.00395236 0)
(0.000388455 0.00316594 0)
(0.000386078 0.00238999 0)
(0.000403776 0.00162842 0)
(0.000440382 0.000883975 0)
(0.000494366 0.000158243 0)