/*--------------------------------*- C++ -*----------------------------------*\
  =========                 |
  \\      /  F ield         | OpenFOAM: The Open Source CFD Toolbox
   \\    /   O peration     | Website:  https://openfoam.org
    \\  /    A nd           | Version:  9
     \\/     M anipulation  |
\*---------------------------------------------------------------------------*/
FoamFile
{
    format      ascii;
    class       volScalarField;
    location    "5.06";
    object      alpha.water;
}
// * * * * * * * * * * * * * * * * * * * * * * * * * * * * * * * * * * * * * //

dimensions      [0 0 0 0 0 0 0];

internalField   nonuniform List<scalar> 
2268
(
1
1
0.999999
0.999999
1
0.999999
1
0.999999
0.999998
0.999999
1
1
1
1
1
1
1
0.999915
0.999859
0.997191
0.996147
0.996468
0.996469
0.999999
0.999999
0.999998
0.999998
1
0.999999
0.999998
0.999998
0.999998
0.999999
1
1
1
1
1
1
0.999958
0.999967
0.999967
0.999967
0.999889
0.999992
0.999501
0.999998
0.999998
0.999998
0.999999
1
1
0.999999
0.999999
1
1
1
1
1
1
1
1
0.999547
0.994318
0.986968
0.995784
0.999114
0.999992
0.999992
0.999999
0.999999
0.999999
1
1
1
1
1
1
1
1
1
1
1
1
1
0.998792
0.979969
0.979889
0.979882
0.989023
0.999923
0.99997
1
1
1
1
1
1
1
1
1
1
1
1
1
1
1
1
1
0.984247
0.979882
0.979882
0.988783
0.99995
0.999961
1
1
1
1
1
1
1
1
1
1
1
1
1
1
1
1
1
0.99757
0.979882
0.979882
0.995331
0.999995
0.99997
1
1
1
1
1
1
1
1
1
1
1
1
1
1
1
1
1
1
0.996469
0.995629
0.999673
0.999998
0.999998
1
1
1
1
1
1
1
1
1
1
1
1
1
1
1
0.999999
0.999999
0.999999
1
1
0.999999
0.999999
0.999999
0.990063
0.991848
0.994187
0.993522
0.991665
0.99068
0.99068
0.99068
0.991469
0.997926
0.998716
0.998716
0.990841
0.973641
0.992348
0.998534
0.998535
0.99739
0.992415
0.990063
0.999664
0.999963
0.999963
0.999963
0.999649
0.998358
0.998288
0.999041
0.998692
0.998716
0.998716
0.984508
0.973643
0.998534
0.998535
0.998535
0.998512
0.992414
0.996231
0.999375
0.999955
0.999963
0.99994
0.99992
0.999915
0.999915
0.99978
0.99886
0.998266
0.99333
0.960192
0.979308
0.998535
0.998535
0.998535
0.998525
0.992415
0.999876
0.999921
0.999877
0.99995
0.999964
0.999964
0.999917
0.99865
0.998362
0.997954
0.971479
0.960159
0.960172
0.976603
0.998534
0.998534
0.998535
0.998532
0.997324
0.999886
0.99997
0.999958
0.999956
0.999964
0.999964
0.999125
0.998041
0.998207
0.997191
0.963507
0.960159
0.960159
0.978007
0.998484
0.998533
0.993192
0.998199
0.998491
0.999985
0.999991
0.999991
0.999981
0.999945
0.999962
0.999589
0.998866
0.99952
0.999288
0.983387
0.960159
0.960162
0.996491
0.998521
0.998382
0.975044
0.996427
0.998492
0.999991
0.999991
0.999991
0.999982
0.999846
0.999846
0.999906
0.999974
0.999974
0.999356
0.994959
0.982307
0.991027
0.998521
0.998521
0.997804
0.975022
0.994093
0.998491
0.999993
0.999992
0.999992
0.999991
0.999991
0.999991
0.999991
0.999991
0.998738
0.996561
0.997167
0.998518
0.998521
0.998521
0.998521
0.99852
0.97501
0.968351
0.991587
0.999999
0.999999
0.999999
1
1
1
1
1
1
1
1
0.999999
0.999999
1
1
1
1
1
1
1
1
1
1
0.97097
0.971162
0.972198
0.97322
0.974622
0.976371
0.978215
0.979947
0.982055
0.982705
0.981992
0.980944
0.979903
0.97863
0.977795
0.978245
0.980358
0.984004
0.987436
0.988495
0.986999
0.984731
0.984154
0.320704
0.324279
0.327596
0.330222
0.331254
0.331243
0.330878
0.329903
0.328362
0.327391
0.327245
0.32734
0.327453
0.32799
0.328701
0.329467
0.330691
0.333728
0.336621
0.336454
0.336291
0.339562
0.348295
0.00064277
0.000641286
0.000640528
0.000641286
0.000640101
0.000634924
0.000626343
0.000619879
0.000615487
0.000612714
0.000611703
0.000612257
0.000611889
0.000667596
0.00088049
0.00123644
0.00171825
0.00207061
0.00151369
0.00197536
0.00229636
0.00217772
0.00147123
0.0017858
0.00178565
0.0015775
0.00105369
0.00206399
0.00452487
0.00524252
0.00536604
0.00537767
0.00546322
0.00550313
0.00550398
0.00550398
0.00550398
0.00550398
0.00550315
0.00511696
0.00205573
0.00126134
0.0019739
0.00229903
0.00213764
0.00101855
0.00140788
0.00152006
0.00151501
0.001539
0.00176156
0.000551631
0.000387075
0.000623416
0.000814259
0.000983766
0.00117936
0.00137074
0.00143408
0.00134209
0.0011712
0.00086742
0.0014139
0.00157466
0.00125975
0.00111818
0.000963993
0.000760405
0.000515086
0.000396688
0.000312241
0.000417827
0.000467694
0.000195035
9.21706e-05
1.16099e-08
8.03458e-09
8.03461e-09
8.03459e-09
8.03461e-09
8.04871e-09
8.92619e-09
1.05575e-08
1.13943e-08
3.41351e-07
6.08183e-06
8.194e-05
0.000174187
0.000109544
0.000104495
0.000157925
0.000516486
8.2701e-10
8.25294e-10
8.5232e-10
9.05828e-10
9.2592e-10
7.4219e-10
1.13116e-05
4.95774e-06
8.03459e-09
8.03461e-09
1.68429e-08
9.03831e-07
2.15405e-06
1.22735e-06
9.9227e-09
2.3367e-08
4.88753e-05
0.000147952
0.000149468
8.01119e-05
0.000100346
0.000301214
0.000466917
1.22226e-09
1.54682e-08
3.75405e-08
7.43748e-09
1.71314e-09
5.55067e-10
5.64859e-10
5.59977e-10
1.43761e-08
8.05047e-09
3.5243e-07
3.74757e-06
3.89219e-06
2.48238e-06
9.55393e-09
4.00293e-08
8.99638e-06
4.25189e-05
7.34847e-05
7.97974e-05
0.00011645
0.000130823
9.67886e-05
1.41945e-09
1.06291e-07
1.55597e-07
5.55344e-08
5.55067e-10
5.55067e-10
5.55067e-10
5.55122e-10
5.71126e-10
7.08466e-08
7.21912e-07
3.66498e-06
3.88508e-06
3.26734e-07
9.3504e-09
7.79809e-08
8.43886e-08
4.84129e-08
3.36544e-07
5.30396e-06
8.92089e-06
8.83117e-08
2.27273e-08
1.73975e-09
1.19718e-07
1.55603e-07
6.02128e-08
5.55067e-10
5.55067e-10
5.55122e-10
1.4926e-08
8.69915e-07
2.17339e-06
2.17144e-06
5.73095e-07
2.28001e-08
5.19545e-09
9.3527e-09
8.65562e-09
2.81478e-09
4.61289e-08
6.11552e-07
1.51626e-06
6.43262e-07
2.74065e-08
1.98663e-08
1.25663e-09
7.46856e-09
4.44344e-08
1.32088e-08
5.58387e-10
5.55163e-10
5.60288e-10
8.06279e-07
2.17207e-06
2.17346e-06
1.33607e-06
1.59496e-09
1.91752e-09
1.95123e-09
9.0048e-10
8.82902e-11
1.22829e-10
6.08039e-07
5.57993e-06
6.56304e-06
6.37085e-06
2.3487e-06
1.98654e-08
1.02105e-09
8.41159e-10
3.92573e-11
3.79797e-11
1.2173e-09
1.49296e-09
1.62567e-09
6.87475e-07
1.57747e-06
8.89681e-07
5.77275e-08
1.59352e-09
3.33501e-09
2.19483e-09
7.59992e-11
7.3756e-11
8.88343e-11
8.74044e-07
6.33445e-06
6.56304e-06
6.56304e-06
4.74064e-06
1.98654e-08
6.03478e-08
1.23659e-07
4.42453e-09
3.64273e-11
1.16771e-09
5.89023e-09
3.70942e-08
1.07978e-07
1.45525e-08
1.50897e-09
3.25547e-10
1.59543e-09
2.40449e-09
6.25719e-10
7.6456e-11
7.23899e-11
1.67155e-10
5.76637e-08
8.44618e-07
4.39721e-06
4.54573e-06
2.58598e-07
1.98655e-08
1.46535e-07
2.17982e-07
1.8632e-08
3.45356e-11
1.73619e-09
5.50779e-09
6.8991e-09
4.20984e-10
1.40345e-10
4.78736e-11
1.29089e-10
3.83712e-10
2.5882e-10
7.25698e-11
6.55612e-11
6.56418e-11
6.63196e-11
6.81675e-11
1.84153e-09
3.88081e-08
5.23595e-08
8.1928e-09
5.0907e-08
1.93991e-07
2.17983e-07
2.01676e-08
3.36114e-11
1.09626e-09
1.46318e-09
6.12272e-10
1.21951e-10
6.63423e-11
1.55864e-11
9.5036e-12
1.32161e-11
2.51063e-12
9.92147e-12
2.91455e-11
4.83987e-11
6.89225e-11
7.29635e-11
7.35602e-11
7.75952e-11
5.23894e-11
1.63422e-09
2.07022e-08
2.12237e-07
2.15438e-07
3.40387e-10
3.34874e-11
3.98577e-10
2.61246e-10
7.1851e-11
3.60057e-11
1.49374e-11
1.93175e-12
7.42381e-14
5.85226e-16
-5.62097e-14
2.5156e-13
4.65551e-12
2.50597e-11
6.07763e-11
8.33882e-11
8.66877e-11
8.30011e-11
5.22715e-11
2.9274e-11
6.54804e-11
2.76682e-07
2.17853e-07
1.21373e-10
3.1878e-11
9.4622e-11
5.69039e-11
9.67471e-12
2.7262e-12
3.60823e-13
-2.85174e-13
-1.18656e-12
-1.36223e-12
-1.20976e-12
-7.11926e-13
5.14337e-14
2.50879e-12
1.54843e-11
3.31958e-11
4.18025e-11
4.12429e-11
3.7626e-11
2.29384e-11
8.13167e-12
2.76689e-07
2.50342e-07
6.48441e-09
3.18499e-11
3.18291e-11
1.76668e-11
8.27835e-13
5.04871e-32
-8.97922e-13
-1.49611e-12
-1.90733e-12
-1.97791e-12
-1.80462e-12
-1.46902e-12
-1.01253e-12
-4.05725e-13
1.99723e-13
1.23085e-12
3.20094e-12
5.02277e-12
6.11416e-12
5.88188e-12
3.4725e-12
2.76689e-07
2.76444e-07
1.32179e-08
3.18621e-11
3.42881e-11
1.56279e-11
1.06357e-13
-5.61128e-13
-1.21404e-12
-1.64703e-12
-1.85286e-12
-1.86022e-12
-1.71998e-12
-1.49071e-12
-1.21557e-12
-9.21996e-13
-6.32083e-13
-3.54704e-13
-6.22186e-14
1.8105e-14
4.17044e-14
1.49362e-13
2.85927e-13
2.76689e-07
2.75193e-07
3.33409e-11
3.33122e-11
7.34002e-11
1.67476e-11
4.50201e-13
-3.38346e-13
-7.9573e-13
-1.11569e-12
-1.26592e-12
-1.29786e-12
-1.23475e-12
-1.10337e-12
-9.34237e-13
-7.56152e-13
-5.8763e-13
-4.39038e-13
-3.13173e-13
-2.1416e-13
-1.39197e-13
-7.61014e-14
-2.433e-14
1.36338e-07
1.53626e-07
3.3517e-11
9.85113e-11
1.61384e-10
2.62012e-11
2.62235e-12
8.69212e-13
2.80405e-14
-3.17484e-13
-5.23588e-13
-6.37483e-13
-6.69508e-13
-6.40672e-13
-5.70389e-13
-4.79827e-13
-3.85931e-13
-2.99247e-13
-2.25927e-13
-1.67059e-13
-1.20488e-13
-8.28515e-14
-5.21687e-14
2.14732e-10
2.90225e-09
1.53994e-10
2.63935e-10
2.18426e-10
4.17061e-11
9.41637e-12
6.20645e-12
3.69153e-12
1.48662e-12
3.11755e-13
-9.99426e-14
-2.3178e-13
-2.83246e-13
-2.83393e-13
-2.55275e-13
-2.14185e-13
-1.69848e-13
-1.29768e-13
-9.70196e-14
-7.16054e-14
-5.18079e-14
-3.55693e-14
6.80044e-11
6.80692e-11
2.36776e-10
3.00377e-10
2.2783e-10
5.22389e-11
2.1835e-11
1.73047e-11
1.22758e-11
6.8261e-12
2.86302e-12
7.86439e-13
6.0657e-14
-7.5587e-14
-1.12279e-13
-1.15198e-13
-1.03759e-13
-8.47582e-14
-6.51618e-14
-4.83738e-14
-3.53629e-14
-2.57009e-14
-1.82374e-14
6.80044e-11
6.80626e-11
2.28014e-10
2.93014e-10
1.91793e-10
5.64621e-11
3.65873e-11
3.13397e-11
2.41092e-11
1.54505e-11
7.54769e-12
2.64131e-12
5.59404e-13
2.84286e-14
-3.41797e-14
-4.48315e-14
-4.51337e-14
-3.82691e-14
-2.95299e-14
-2.15493e-14
-1.5289e-14
-1.08098e-14
-7.6837e-15
7.40974e-11
5.87692e-11
1.3717e-10
1.83192e-10
1.13655e-10
5.6265e-11
4.89286e-11
4.46654e-11
3.54587e-11
2.50299e-11
1.35382e-11
5.06479e-12
1.09845e-12
9.58951e-14
-8.32534e-15
-1.59716e-14
-1.82693e-14
-1.60538e-14
-1.23868e-14
-8.84684e-15
-6.03437e-15
-4.04401e-15
-2.76671e-15
1.21207e-10
5.24276e-11
5.2428e-11
5.4212e-11
5.50737e-11
5.40904e-11
5.39602e-11
5.39188e-11
4.47759e-11
3.29649e-11
1.86791e-11
6.85909e-12
1.30363e-12
9.32546e-14
-1.89413e-15
-5.62745e-15
-7.05211e-15
-6.36447e-15
-4.91408e-15
-3.43324e-15
-2.2424e-15
-1.40698e-15
-8.90395e-16
4.61127e-10
5.2428e-11
5.24278e-11
5.2428e-11
5.24312e-11
5.25472e-11
5.39082e-11
5.59284e-11
5.07083e-11
3.76055e-11
2.1451e-11
7.38197e-12
1.18932e-12
5.54173e-14
-4.93492e-16
-2.07052e-15
-2.67225e-15
-2.42834e-15
-1.84727e-15
-1.25286e-15
-7.83812e-16
-4.62986e-16
-2.68432e-16
1.67268e-09
2.97185e-08
2.64812e-07
1.72645e-07
2.20257e-09
5.1547e-11
5.23162e-11
5.59284e-11
5.17198e-11
3.86998e-11
2.16889e-11
6.88592e-12
8.16295e-13
2.04682e-14
-1.22261e-16
-7.58025e-16
-9.85226e-16
-8.84446e-16
-6.57128e-16
-4.32427e-16
-2.6085e-16
-1.4775e-16
-8.02162e-17
2.79717e-09
2.21623e-07
8.36781e-07
8.31138e-07
1.39789e-07
5.15444e-11
5.15412e-11
5.56458e-11
5.05626e-11
3.75852e-11
1.98266e-11
5.17964e-12
3.97266e-13
4.80684e-15
-1.90113e-17
-2.89504e-16
-3.61214e-16
-3.11725e-16
-2.23371e-16
-1.41462e-16
-8.18773e-17
-4.42149e-17
-2.25281e-17
2.81939e-09
2.62748e-07
8.36782e-07
8.36783e-07
3.028e-07
5.15412e-11
5.15389e-11
5.37805e-11
4.72421e-11
3.33759e-11
1.54192e-11
3.01189e-12
1.36775e-13
7.16349e-16
-1.93073e-18
-1.16312e-16
-1.30265e-16
-1.05953e-16
-7.23653e-17
-4.3843e-17
-2.41991e-17
-1.24064e-17
-5.98587e-18
2.82041e-09
1.48084e-07
8.36783e-07
8.36775e-07
2.15279e-07
1.27993e-10
5.03419e-11
5.03436e-11
4.16315e-11
2.65806e-11
9.92389e-12
1.28568e-12
3.06636e-14
6.83558e-17
-1.77859e-17
-4.59673e-17
-4.5653e-17
-3.45691e-17
-2.22321e-17
-1.27343e-17
-6.62849e-18
-3.18903e-18
-1.43714e-18
2.93613e-09
1.82015e-08
4.16922e-07
2.68447e-07
3.08877e-08
1.40591e-10
5.45326e-11
4.56193e-11
3.38182e-11
1.83309e-11
4.90396e-12
3.5708e-13
3.78907e-15
3.26564e-18
-1.15587e-17
-1.7456e-17
-1.5356e-17
-1.06807e-17
-6.38508e-18
-3.40548e-18
-1.64688e-18
-7.33747e-19
-3.04964e-19
3.32649e-09
2.47e-09
9.9115e-10
2.64156e-10
9.58648e-11
9.58405e-11
5.53526e-11
3.82622e-11
2.40828e-11
9.95475e-12
1.60229e-12
5.28224e-14
2.00441e-16
4.60374e-20
-5.41586e-18
-6.28176e-18
-4.85889e-18
-3.06413e-18
-1.68027e-18
-8.22533e-19
-3.6447e-19
-1.48258e-19
-5.60031e-20
3.35376e-09
2.50905e-09
8.19674e-10
3.15409e-10
1.47557e-10
7.98155e-11
4.57359e-11
2.69759e-11
1.33999e-11
3.58622e-12
2.77932e-13
3.31562e-15
3.62981e-18
-7.19717e-19
-2.36018e-18
-2.13559e-18
-1.42723e-18
-8.02914e-19
-3.97678e-19
-1.76051e-19
-7.03987e-20
-2.57309e-20
-8.68502e-21
2.72094e-09
2.44002e-09
1.28838e-09
5.88788e-10
2.35068e-10
7.97137e-11
3.20898e-11
1.44058e-11
4.81285e-12
6.65449e-13
1.95692e-14
7.16198e-17
1.91024e-20
-6.78336e-19
-9.45695e-19
-6.8896e-19
-3.88598e-19
-1.90174e-19
-8.33387e-20
-3.27699e-20
-1.1614e-20
-3.74217e-21
-1.10568e-21
9.40895e-10
1.28162e-09
1.00468e-09
5.59559e-10
2.25344e-10
6.72465e-11
1.79819e-11
4.92618e-12
8.5826e-13
4.73694e-14
4.3966e-16
4.55545e-19
-7.16688e-20
-3.67059e-19
-3.57683e-19
-2.13537e-19
-9.90085e-20
-4.06709e-20
-1.53018e-20
-5.21629e-21
-1.60078e-21
-4.43678e-22
-1.11744e-22
6.71478e-11
1.87428e-10
3.1259e-10
2.52532e-10
1.22736e-10
3.39655e-11
6.03586e-12
8.26782e-13
5.76306e-14
1.03877e-15
3.06769e-18
8.70294e-22
-1.0402e-19
-1.6998e-19
-1.29593e-19
-6.43791e-20
-2.39787e-20
-7.92976e-21
-2.4556e-21
-7.00947e-22
-1.80209e-22
-4.15022e-23
-8.58354e-24
4.13489e-13
4.03869e-12
2.1506e-11
3.07844e-11
2.08079e-11
6.33576e-12
8.23944e-13
5.16423e-14
1.24616e-15
7.61181e-18
7.9019e-21
-1.66718e-20
-6.42926e-20
-7.18619e-20
-4.54262e-20
-1.91455e-20
-5.8326e-21
-1.49097e-21
-3.54485e-22
-7.9666e-23
-1.62188e-23
-2.93191e-24
-4.69194e-25
8.66874e-17
8.71016e-15
2.09515e-13
6.55284e-13
6.58341e-13
2.64156e-13
3.05852e-14
1.00974e-15
1.0122e-17
3.05297e-20
7.21179e-24
-1.71578e-20
-3.23162e-20
-2.86132e-20
-1.55294e-20
-5.66432e-21
-1.45005e-21
-2.8303e-22
-4.80639e-23
-7.7475e-24
-1.13059e-24
-1.44429e-25
-1.60564e-26
-1.4048e-26
3.20648e-18
3.13203e-16
2.11842e-15
3.11517e-15
1.76116e-15
2.39227e-16
6.61808e-18
5.12653e-20
6.65534e-23
-2.84364e-21
-1.08506e-20
-1.45862e-20
-1.09167e-20
-5.21912e-21
-1.68032e-21
-3.69859e-22
-5.60717e-23
-6.48939e-24
-6.54617e-25
-5.67518e-26
-4.08626e-27
-2.49322e-28
-7.55367e-26
3.45279e-22
1.29207e-19
4.05073e-18
1.07857e-17
2.90395e-18
4.24914e-19
1.60118e-20
1.27317e-22
-3.04853e-22
-2.58825e-21
-5.64964e-21
-6.14155e-21
-4.03896e-21
-1.74197e-21
-5.07629e-22
-9.95141e-23
-1.26194e-23
-1.00855e-24
-5.04408e-26
-1.5257e-27
-3.05457e-29
-4.62691e-31
1
1
1
1
0.980427
0.978348
0.978261
0.977689
0.353089
0.35575
0.35911
0.363105
0.00123122
0.00175304
0.00175996
0.0016553
0.00103086
0.00173191
0.00172941
0.00155934
0.00129674
0.00173945
0.00144133
0.000761536
0.000538498
0.000399545
0.000279158
0.00058883
0.000353279
0.000202772
0.000108953
7.19842e-05
4.64939e-05
1.71205e-05
5.5457e-06
3.99122e-07
1.02881e-07
1.59571e-07
3.66129e-07
3.98871e-07
1.02411e-07
1.49199e-07
1.02e-07
4.54186e-08
1.98879e-08
3.28063e-08
3.86208e-08
3.54183e-08
1.98654e-08
1.98657e-08
2.57026e-08
3.62523e-08
1.98654e-08
2.3518e-08
2.72821e-08
2.8079e-08
5.09013e-08
2.08425e-08
2.67403e-09
2.78173e-09
2.29091e-08
2.64203e-09
2.65533e-09
7.21656e-09
3.5799e-10
1.35583e-09
2.66953e-09
2.95297e-09
4.72035e-12
4.34161e-11
1.40954e-10
4.78996e-11
2.33513e-12
2.03633e-12
1.77834e-12
1.45744e-12
3.78554e-13
4.01137e-13
4.25303e-13
4.36889e-13
1.28301e-15
3.20507e-15
8.39898e-15
1.53187e-14
-2.91563e-14
-2.27455e-14
-1.77802e-14
-1.37855e-14
-2.21898e-14
-1.79401e-14
-1.47554e-14
-1.23796e-14
-1.18574e-14
-9.46713e-15
-7.62031e-15
-6.30204e-15
-5.17426e-15
-4.07071e-15
-3.15305e-15
-2.4574e-15
-1.91899e-15
-1.49554e-15
-1.13739e-15
-8.33294e-16
-6.29652e-16
-4.7785e-16
-3.58863e-16
-2.5701e-16
-1.91729e-16
-1.39375e-16
-1.00354e-16
-7.02693e-17
-5.61217e-17
-3.90255e-17
-2.67275e-17
-1.8019e-17
-1.53838e-17
-1.02606e-17
-6.71046e-18
-4.31572e-18
-3.91882e-18
-2.49997e-18
-1.55899e-18
-9.52142e-19
-8.94363e-19
-5.42173e-19
-3.20706e-19
-1.85363e-19
-1.78758e-19
-1.01952e-19
-5.66427e-20
-3.06933e-20
-3.05496e-20
-1.61838e-20
-8.33437e-21
-4.17766e-21
-4.34287e-21
-2.10321e-21
-9.87509e-22
-4.50158e-22
-4.97081e-22
-2.15654e-22
-9.03964e-23
-3.66717e-23
-4.40049e-23
-1.6647e-23
-6.05889e-24
-2.12601e-24
-2.85252e-24
-9.0577e-25
-2.75367e-25
-8.0362e-26
-1.24064e-25
-3.11819e-26
-7.46967e-27
-1.71113e-27
-3.042e-27
-5.46851e-28
-9.35932e-29
-1.53081e-29
-2.69575e-29
-2.79521e-30
-2.7919e-31
-2.69402e-32
-1.26442e-32
-3.48491e-34
-1.0017e-35
-3.01566e-37
1
1
1
1
0.99692
0.989902
0.987631
0.989946
0.994126
0.997608
0.998483
0.998493
0.998518
0.998521
0.99852
0.996691
0.977952
0.967422
0.969566
0.974719
0.971353
0.96802
0.965961
0.966191
0.965146
0.959036
0.951217
0.947877
0.95607
0.971297
0.978674
0.976396
0.963641
0.956497
0.962148
0.966279
0.966111
0.966234
0.372097
0.373556
0.374952
0.378155
0.382248
0.389299
0.400047
0.408609
0.411775
0.408617
0.403448
0.401632
0.401652
0.402848
0.403483
0.406242
0.416405
0.421418
0.419595
0.000619761
0.000540007
0.00057948
0.000532953
0.0012283
0.00184952
0.00136502
0.00110492
0.0009305
0.000847142
0.000847108
0.000847142
0.000847259
0.000847235
0.000846869
0.000846222
0.000845583
0.000845581
0.000845583
0.000538602
0.000534828
0.000531118
0.000526585
0.000921952
0.00192426
0.00146698
0.00119732
0.00120362
0.00109321
0.00107379
0.00108767
0.00116288
0.00119363
0.00139407
0.00123126
0.00119389
0.000845583
0.000845578
0.000546169
0.00102096
0.00102051
0.000526585
0.00110308
0.0018304
0.0018303
0.00179754
0.00177711
0.00177718
0.00177648
0.00177467
0.00146042
0.00141302
0.00139432
0.00136424
0.00132714
0.00105398
0.000885413
0.00102284
0.0010226
0.00102141
0.00102043
0.00085516
0.000430663
0.000253027
0.000290345
0.000265146
0.000254822
0.000271413
0.000295202
0.000421443
0.000435407
0.000339739
0.000273283
0.000196004
0.000517995
0.000640339
0.000260781
0.000159007
0.000114156
0.000255886
6.80581e-05
6.90367e-07
1.66149e-07
2.2882e-07
2.34055e-07
2.39206e-07
2.77377e-07
3.68247e-07
4.38304e-07
4.5158e-07
4.51959e-07
5.1257e-06
7.87366e-07
1.63551e-05
1.067e-05
1.59776e-08
1.51694e-08
1.52001e-08
1.5469e-08
1.57149e-08
2.51905e-08
1.40866e-07
1.41494e-07
7.54024e-06
3.75134e-05
4.83928e-05
4.40118e-05
2.02931e-05
2.46589e-06
6.87736e-07
6.94216e-07
7.86801e-07
7.87366e-07
7.88381e-07
1.38335e-08
1.44162e-08
1.48207e-08
1.52043e-08
1.5469e-08
1.57149e-08
1.7408e-08
6.04561e-06
6.40984e-05
6.69843e-05
6.69843e-05
6.21079e-05
8.11463e-06
1.81996e-06
8.84498e-07
7.95003e-07
8.42913e-07
8.12032e-07
7.89294e-07
1.38335e-08
1.38335e-08
5.59807e-07
4.245e-06
4.42989e-06
8.52183e-07
8.10336e-07
4.11726e-05
6.70574e-05
6.16957e-05
1.66369e-05
1.66441e-05
2.79717e-05
3.42039e-05
2.34347e-05
1.58815e-05
4.93027e-06
8.84658e-07
8.18395e-07
1.60077e-08
1.44481e-08
6.64365e-06
2.16704e-05
2.12488e-05
5.88138e-06
5.84946e-06
5.72833e-05
5.85961e-05
3.59461e-06
1.11739e-05
3.87416e-05
4.35453e-05
4.35495e-05
4.35236e-05
4.34733e-05
4.1027e-05
3.38371e-06
1.08389e-06
3.6201e-08
3.69555e-07
1.56603e-05
2.16703e-05
2.16704e-05
2.16702e-05
1.68514e-05
6.81869e-06
6.64357e-10
7.58021e-08
2.71663e-05
4.31582e-05
4.32128e-05
2.2829e-05
6.81027e-06
9.516e-06
9.04682e-06
1.35272e-05
1.69447e-05
2.80842e-08
4.77043e-08
4.65752e-06
2.02844e-05
2.16702e-05
5.42873e-06
4.8334e-07
3.83414e-10
6.24566e-10
7.93873e-08
5.4332e-06
1.22334e-05
3.6545e-06
1.64714e-10
1.64737e-10
1.69717e-10
8.13024e-07
1.53179e-05
1.69447e-05
2.81706e-08
1.11288e-07
2.44227e-07
9.6966e-07
1.40006e-06
2.37312e-07
1.68403e-10
3.82721e-10
3.7209e-08
1.9824e-07
1.65187e-10
1.64913e-10
1.64714e-10
1.64659e-10
1.64714e-10
1.80684e-10
5.97559e-06
1.6937e-05
1.69447e-05
4.792e-08
8.62989e-08
6.21937e-08
3.56876e-08
1.97589e-08
1.56872e-09
1.68225e-10
4.5901e-10
7.49202e-09
1.56169e-08
5.55352e-09
3.75284e-10
3.44279e-10
1.64659e-10
1.64326e-10
1.5341e-10
9.68598e-07
6.7548e-06
1.49115e-05
3.71073e-09
5.02391e-09
1.68947e-07
3.00262e-07
2.28926e-07
4.39773e-09
1.68236e-10
1.74109e-10
4.34086e-10
1.01033e-09
1.9101e-09
1.97646e-09
9.68783e-10
1.65157e-10
1.76845e-10
1.53294e-10
4.81507e-12
4.81507e-12
4.81507e-12
1.08641e-12
9.24781e-12
1.28541e-07
3.00256e-07
3.00262e-07
2.97891e-07
1.15911e-07
1.74194e-10
2.0599e-10
1.00232e-09
3.15929e-09
4.84431e-10
2.8216e-10
2.00564e-10
2.29399e-10
1.98465e-10
2.445e-11
4.81507e-12
4.81506e-12
1.08145e-12
6.4194e-13
2.24251e-09
6.57389e-08
2.4905e-07
2.98205e-07
2.39713e-07
9.41989e-09
4.47028e-09
4.74658e-08
7.2933e-08
3.39615e-08
5.92965e-09
1.72541e-10
2.27854e-10
2.15839e-10
5.37262e-11
5.09849e-12
4.8151e-12
4.28115e-13
1.94141e-13
4.43477e-15
2.20493e-10
9.81355e-09
2.89591e-08
2.59545e-08
1.26435e-08
5.77484e-08
8.41151e-08
8.41151e-08
8.41151e-08
1.76406e-08
1.7235e-10
1.7235e-10
1.18273e-10
2.49276e-11
5.33377e-12
4.82723e-12
1.99477e-14
1.6341e-14
3.66836e-15
3.67706e-14
1.00473e-13
5.28826e-15
7.42284e-14
8.00427e-14
2.73145e-09
2.55643e-08
4.47616e-08
2.80242e-08
3.32894e-09
2.43228e-10
7.66647e-11
3.20337e-11
1.37512e-11
5.42437e-12
6.58063e-12
-1.0583e-14
-4.66901e-15
-2.16714e-15
3.15544e-33
0
4.96134e-15
7.98515e-14
1.93425e-13
1.93458e-13
1.93574e-13
1.93928e-13
1.94301e-13
1.9513e-13
1.07293e-11
1.50761e-11
8.37036e-12
6.0982e-11
2.46005e-09
2.61364e-10
-1.04995e-14
-6.5471e-15
-3.94096e-15
-2.22839e-15
-1.05449e-15
-1.75621e-16
8.48e-16
3.53625e-14
3.62943e-13
9.10538e-13
5.80882e-13
1.3812e-12
3.34799e-12
3.0518e-12
2.10005e-12
2.79282e-12
1.49529e-10
3.61367e-07
4.87827e-06
-5.37606e-15
-3.55089e-15
-2.29837e-15
-1.45081e-15
-8.83442e-16
-5.00103e-16
-2.26445e-16
2.02473e-17
5.74821e-15
7.70723e-14
2.83784e-13
8.1225e-13
1.53561e-12
9.24444e-13
6.57158e-13
1.84779e-12
6.62394e-12
1.22673e-06
1.34902e-05
-2.00752e-15
-1.31055e-15
-8.44774e-16
-5.35644e-16
-3.31615e-16
-2.05807e-16
-1.23852e-16
-6.44808e-17
-1.05814e-18
6.32353e-16
4.49574e-15
1.65848e-14
4.61122e-14
8.26238e-14
1.97697e-13
1.39426e-12
1.39451e-12
1.26338e-06
1.34902e-05
-6.13017e-16
-3.82793e-16
-2.34786e-16
-1.43425e-16
-8.81196e-17
-5.44897e-17
-3.31864e-17
-1.8691e-17
-6.65862e-18
1.75213e-17
1.57546e-16
7.84253e-16
3.6211e-15
1.65448e-14
1.0995e-13
1.49091e-12
1.39498e-12
2.96573e-07
1.34902e-05
-1.5767e-16
-9.26853e-17
-5.57871e-17
-3.36438e-17
-2.01873e-17
-1.19635e-17
-6.91432e-18
-3.55435e-18
-7.51313e-19
6.32813e-18
4.81187e-17
2.95548e-16
1.86795e-15
1.08939e-14
8.9288e-14
2.2012e-12
1.76235e-12
1.52579e-12
1.34881e-05
-3.74877e-17
-2.02268e-17
-1.12429e-17
-6.33684e-18
-3.5686e-18
-1.90812e-18
-9.74003e-19
-1.8147e-19
4.22544e-19
5.64591e-18
3.68772e-17
2.2333e-16
1.466e-15
8.84699e-15
8.18561e-14
2.74485e-12
6.18821e-12
1.52527e-12
1.27752e-05
-8.30623e-18
-3.95808e-18
-1.94735e-18
-9.70128e-19
-4.61565e-19
-4.81482e-38
1.54874e-19
8.46543e-19
3.54113e-18
9.98422e-18
3.79977e-17
2.06712e-16
1.33957e-15
8.08631e-15
9.32275e-14
3.12516e-12
9.59994e-12
1.52715e-12
4.91737e-06
-1.78444e-18
-7.49295e-19
-3.1686e-19
-1.18397e-19
1.618e-20
6.19667e-19
4.24645e-18
1.69313e-17
5.13187e-17
1.25816e-16
2.65633e-16
5.87512e-16
1.9727e-15
9.26526e-15
1.27411e-13
3.00141e-12
9.59753e-12
1.53217e-12
4.12749e-06
-3.6029e-19
-1.3521e-19
-4.81589e-20
3.69737e-21
6.36119e-19
5.4559e-18
3.01713e-17
1.28892e-16
4.38044e-16
1.18043e-15
2.63605e-15
5.49633e-15
1.33856e-14
3.94499e-14
2.13431e-13
2.88698e-12
8.6316e-12
4.24343e-12
5.57737e-06
-6.43892e-20
-2.18702e-20
-5.03574e-21
9.72351e-20
1.9586e-18
2.1357e-17
1.45973e-16
7.14433e-16
2.70533e-15
7.97181e-15
1.92945e-14
4.47541e-14
1.10238e-13
2.57247e-13
6.01517e-13
3.07001e-12
7.67393e-12
3.04667e-12
3.94751e-06
-9.69858e-21
-2.95503e-21
8.64343e-22
1.63326e-19
4.51717e-18
6.58412e-17
5.63737e-16
3.15383e-15
1.34742e-14
4.61415e-14
1.29902e-13
3.37591e-13
7.85025e-13
1.49053e-12
2.28008e-12
4.43854e-12
7.84742e-12
3.04671e-12
3.04667e-12
-1.18176e-21
-3.09679e-22
2.21246e-21
2.1595e-19
8.26299e-18
1.6048e-16
1.76747e-15
1.16021e-14
5.82906e-14
2.49553e-13
9.13083e-13
2.44556e-12
4.33887e-12
6.12824e-12
7.29336e-12
8.96457e-12
8.86064e-12
3.04667e-12
3.78445e-07
-1.11718e-22
-2.10185e-23
1.9171e-21
2.34235e-19
1.18753e-17
3.02043e-16
4.51362e-15
3.84691e-14
2.43375e-13
1.29001e-12
5.77585e-12
1.42755e-11
1.8056e-11
1.97099e-11
1.96063e-11
2.54552e-11
2.0883e-11
3.04706e-12
3.5255e-06
-7.79003e-24
-3.5833e-26
9.43167e-22
2.11113e-19
1.35042e-17
4.25615e-16
8.94382e-15
1.1486e-13
9.26691e-13
5.39058e-12
2.34225e-11
5.04537e-11
5.4786e-11
5.50074e-11
5.55484e-11
1.39899e-10
1.53831e-10
4.97278e-11
3.67643e-06
-3.74682e-25
1.02888e-24
4.1917e-22
1.07328e-19
1.28794e-17
4.70826e-16
1.29938e-14
2.62882e-13
2.47455e-12
1.4251e-11
5.2771e-11
9.92127e-11
1.13134e-10
1.14349e-10
1.56814e-10
5.73593e-10
7.05649e-10
3.7315e-11
3.6752e-06
-1.12594e-26
3.29281e-25
1.55161e-22
4.34839e-20
6.72108e-18
3.87522e-16
1.44336e-14
4.05186e-13
4.06113e-12
2.25093e-11
7.1869e-11
1.25602e-10
1.47985e-10
1.47147e-10
3.37906e-10
1.3566e-09
1.4723e-09
3.62361e-11
3.29078e-06
-1.77266e-28
7.14987e-26
3.30892e-23
1.4093e-20
2.51384e-18
1.4668e-16
1.06603e-14
4.50137e-13
4.59013e-12
2.47592e-11
7.30401e-11
1.23135e-10
1.46811e-10
1.02767e-10
6.56035e-10
5.03765e-09
3.25977e-09
3.20172e-11
2.90444e-06
-8.80394e-31
7.89704e-27
3.55672e-24
2.40125e-21
6.23116e-19
3.8502e-17
2.78219e-15
2.82801e-13
3.00706e-12
1.49276e-11
3.58979e-11
5.65799e-11
9.09938e-11
3.47202e-15
2.08326e-09
1.72202e-08
1.31785e-08
1.6256e-11
2.89846e-06
-1.11861e-33
4.65423e-31
6.6468e-26
1.80996e-22
5.75328e-20
4.59521e-18
3.43425e-16
4.56968e-14
4.9745e-13
2.34488e-12
5.45603e-12
9.1327e-12
1.34273e-11
6.31549e-18
4.63657e-09
1.81732e-08
1.81687e-08
2.19722e-12
2.89657e-06
-4.00174e-39
-3.4987e-41
5.40142e-33
1.97453e-27
9.04928e-24
5.31213e-21
2.18705e-18
3.64265e-16
3.61054e-15
1.98736e-14
5.73113e-14
1.06504e-13
7.14809e-14
-6.82479e-41
1.35221e-09
7.53618e-09
5.35788e-09
4.00361e-28
2.0156e-06
)
;

boundaryField
{
    leftWall
    {
        type            zeroGradient;
    }
    rightWall
    {
        type            zeroGradient;
    }
    lowerWall
    {
        type            zeroGradient;
    }
    atmosphere
    {
        type            inletOutlet;
        inletValue      uniform 0;
        value           nonuniform List<scalar> 
46
(
0
3.45279e-22
1.29207e-19
4.05073e-18
1.07857e-17
2.90395e-18
4.24914e-19
1.60118e-20
1.27317e-22
-3.04853e-22
-2.58825e-21
-5.64964e-21
-6.14155e-21
-4.03896e-21
-1.74197e-21
-5.07629e-22
-9.95141e-23
-1.26194e-23
-1.00855e-24
-5.04408e-26
0
0
0
0
0
0
0
0
0
0
0
0
0
0
0
0
0
0
0
0
0
0
0
0
0
2.0156e-06
)
;
    }
    defaultFaces
    {
        type            empty;
    }
}


// ************************************************************************* //
