/*--------------------------------*- C++ -*----------------------------------*\
  =========                 |
  \\      /  F ield         | OpenFOAM: The Open Source CFD Toolbox
   \\    /   O peration     | Website:  https://openfoam.org
    \\  /    A nd           | Version:  9
     \\/     M anipulation  |
\*---------------------------------------------------------------------------*/
FoamFile
{
    format      ascii;
    class       surfaceScalarField;
    location    "5.06";
    object      phi;
}
// * * * * * * * * * * * * * * * * * * * * * * * * * * * * * * * * * * * * * //

dimensions      [0 3 -1 0 0 0 0];

internalField   nonuniform List<scalar> 
4432
(
2.34567e-07
-2.34567e-07
5.24111e-07
-2.89541e-07
8.14626e-07
-2.90516e-07
1.08381e-06
-2.69178e-07
1.32449e-06
-2.40682e-07
1.53349e-06
-2.08997e-07
1.71268e-06
-1.79195e-07
1.86765e-06
-1.54972e-07
2.00377e-06
-1.36119e-07
2.12376e-06
-1.19989e-07
2.2307e-06
-1.06945e-07
2.33036e-06
-9.96669e-08
2.43341e-06
-1.03053e-07
2.55649e-06
-1.23086e-07
2.71547e-06
-1.58979e-07
2.89097e-06
-1.755e-07
2.87292e-06
1.80522e-08
2.11187e-06
7.61046e-07
7.66495e-07
1.34537e-06
-4.21307e-07
1.1878e-06
-8.96018e-07
4.7471e-07
-5.77838e-07
-3.18177e-07
-5.77834e-07
2.62623e-07
-4.9719e-07
5.42926e-07
-5.69837e-07
8.22124e-07
-5.69716e-07
1.08818e-06
-5.35224e-07
1.33162e-06
-4.8413e-07
1.54819e-06
-4.25564e-07
1.73834e-06
-3.69348e-07
1.905e-06
-3.2163e-07
2.05059e-06
-2.81721e-07
2.17558e-06
-2.44984e-07
2.28004e-06
-2.11409e-07
2.36624e-06
-1.85867e-07
2.43861e-06
-1.75429e-07
2.50238e-06
-1.8686e-07
2.55846e-06
-2.15061e-07
2.58429e-06
-2.01332e-07
2.47943e-06
1.22913e-07
1.95687e-06
1.2836e-06
1.04166e-06
2.26058e-06
1.66878e-07
2.06258e-06
-3.58872e-07
1.00046e-06
-4.45444e-07
-2.31602e-07
-1.02328e-06
2.82014e-07
-7.79205e-07
5.5966e-07
-8.47477e-07
8.32335e-07
-8.42394e-07
1.09593e-06
-7.98811e-07
1.34086e-06
-7.29065e-07
1.56178e-06
-6.46474e-07
1.75792e-06
-5.65494e-07
1.93063e-06
-4.94342e-07
2.08048e-06
-4.31567e-07
2.20583e-06
-3.70334e-07
2.30465e-06
-3.10229e-07
2.37635e-06
-2.57576e-07
2.42103e-06
-2.20104e-07
2.43712e-06
-2.02955e-07
2.41791e-06
-1.95845e-07
2.34417e-06
-1.27592e-07
2.18397e-06
2.831e-07
1.78722e-06
1.68035e-06
1.25037e-06
2.79741e-06
6.1574e-07
2.69722e-06
1.06328e-07
1.50988e-06
-1.57119e-07
3.18438e-08
-1.1804e-06
2.91966e-07
-1.07117e-06
5.73023e-07
-1.12853e-06
8.46183e-07
-1.11556e-06
1.11121e-06
-1.06383e-06
1.35934e-06
-9.77201e-07
1.5847e-06
-8.71825e-07
1.78581e-06
-7.66601e-07
1.96299e-06
-6.71521e-07
2.11542e-06
-5.84e-07
2.23969e-06
-4.94604e-07
2.33187e-06
-4.02403e-07
2.38917e-06
-3.14875e-07
2.40854e-06
-2.39478e-07
2.38406e-06
-1.78474e-07
2.30492e-06
-1.16701e-07
2.15486e-06
2.24675e-08
1.94516e-06
4.92797e-07
1.70028e-06
1.92522e-06
1.41215e-06
3.08554e-06
9.93675e-07
3.11569e-06
5.66921e-07
1.93663e-06
1.95548e-07
4.03212e-07
-9.84855e-07
2.97073e-07
-1.36825e-06
5.84562e-07
-1.41601e-06
8.63017e-07
-1.39401e-06
1.13286e-06
-1.33367e-06
1.38589e-06
-1.23023e-06
1.61607e-06
-1.102e-06
1.82166e-06
-9.72192e-07
2.00241e-06
-8.52271e-07
2.1565e-06
-7.38091e-07
2.2789e-06
-6.17004e-07
2.36405e-06
-4.87557e-07
2.40766e-06
-3.58477e-07
2.40476e-06
-2.36585e-07
2.3472e-06
-1.20911e-07
2.22267e-06
7.82633e-09
2.02097e-06
2.24163e-07
1.76525e-06
7.48514e-07
1.65327e-06
2.03721e-06
1.52829e-06
3.21051e-06
1.31804e-06
3.32594e-06
1.00931e-06
2.24536e-06
5.31818e-07
8.807e-07
-4.53039e-07
3.0101e-07
-1.66926e-06
5.96504e-07
-1.7115e-06
8.82822e-07
-1.68033e-06
1.15957e-06
-1.61042e-06
1.41854e-06
-1.48921e-06
1.65365e-06
-1.3371e-06
1.86324e-06
-1.18178e-06
2.04679e-06
-1.03583e-06
2.2018e-06
-8.93097e-07
2.32179e-06
-7.37001e-07
2.39995e-06
-5.65723e-07
2.4312e-06
-3.89729e-07
2.40995e-06
-2.15341e-07
2.32768e-06
-3.86382e-08
2.17443e-06
1.61076e-07
1.94683e-06
4.51755e-07
1.68667e-06
1.00868e-06
1.60704e-06
2.11684e-06
1.62487e-06
3.19268e-06
1.59119e-06
3.35962e-06
1.34755e-06
2.489e-06
8.09299e-07
1.41895e-06
3.56263e-07
3.06008e-07
-1.97527e-06
6.10099e-07
-2.01559e-06
9.04983e-07
-1.97522e-06
1.18937e-06
-1.8948e-06
1.4545e-06
-1.75434e-06
1.69424e-06
-1.57684e-06
1.90721e-06
-1.39476e-06
2.09277e-06
-1.22139e-06
2.24791e-06
-1.04824e-06
2.365e-06
-8.54098e-07
2.4364e-06
-6.37127e-07
2.45702e-06
-4.10349e-07
2.42172e-06
-1.80053e-07
2.32338e-06
5.97053e-08
2.15593e-06
3.28526e-07
1.92504e-06
6.82645e-07
1.68782e-06
1.24589e-06
1.61165e-06
2.19301e-06
1.70293e-06
3.10141e-06
1.76555e-06
3.297e-06
1.57305e-06
2.6815e-06
1.03635e-06
1.95565e-06
1.39261e-06
3.12994e-07
-2.28826e-06
6.24631e-07
-2.32722e-06
9.27513e-07
-2.27811e-06
1.21912e-06
-2.18641e-06
1.4899e-06
-2.02512e-06
1.73366e-06
-1.82061e-06
1.94931e-06
-1.6104e-06
2.13601e-06
-1.40809e-06
2.29041e-06
-1.20265e-06
2.40398e-06
-9.67671e-07
2.46883e-06
-7.01973e-07
2.48061e-06
-4.22131e-07
2.43554e-06
-1.34976e-07
2.32874e-06
1.66506e-07
2.15876e-06
4.985e-07
1.9392e-06
9.02212e-07
1.72915e-06
1.45594e-06
1.66487e-06
2.25729e-06
1.76524e-06
3.00105e-06
1.85095e-06
3.21129e-06
1.70918e-06
2.82328e-06
1.25426e-06
2.41057e-06
2.64687e-06
-1.09306e-06
1.09306e-06
-6.89189e-07
-4.03867e-07
-2.83482e-07
-4.05706e-07
-6.83344e-08
-2.15145e-07
-2.1609e-08
-4.67191e-08
-8.32827e-08
6.16733e-08
-1.6493e-07
8.16489e-08
-1.09863e-07
-5.50654e-08
3.24531e-07
-4.34399e-07
1.00452e-06
-6.79991e-07
9.5843e-07
4.6092e-08
-1.64947e-07
1.12338e-06
-2.4795e-06
2.31455e-06
-3.23718e-06
7.57681e-07
-9.30513e-07
-2.30667e-06
1.47054e-06
-2.40105e-06
2.74274e-06
-1.2722e-06
2.25201e-06
4.9073e-07
2.25201e-06
-4.31105e-07
1.52417e-06
-3.96718e-07
-4.38246e-07
-3.46078e-07
-4.56339e-07
-3.40212e-07
-2.21012e-07
-3.90725e-07
3.80063e-09
-4.77447e-07
1.48394e-07
-5.3931e-07
1.43508e-07
-4.74699e-07
-1.19674e-07
-1.90535e-07
-7.18568e-07
1.16216e-07
-9.86736e-07
-5.03942e-08
2.12697e-07
-8.73485e-07
1.94648e-06
-1.97879e-06
3.41984e-06
-1.64148e-06
4.2038e-07
-2.36956e-07
-3.71121e-06
1.27057e-06
-3.90858e-06
2.09701e-06
-2.09865e-06
2.0204e-06
5.67338e-07
4.27242e-06
-6.1746e-08
1.58592e-06
-2.81421e-07
-2.18568e-07
-4.26765e-07
-3.10991e-07
-5.41522e-07
-1.06259e-07
-6.58553e-07
1.20834e-07
-7.82008e-07
2.71847e-07
-8.66005e-07
2.27501e-07
-8.56299e-07
-1.29378e-07
-7.34983e-07
-8.3989e-07
-5.92858e-07
-1.12886e-06
-8.64373e-07
4.84205e-07
-1.36614e-06
2.44825e-06
-1.44548e-06
3.49917e-06
-7.82748e-07
-2.42348e-07
8.23995e-08
-4.57636e-06
1.06719e-06
-4.89336e-06
1.56276e-06
-2.59422e-06
1.55435e-06
5.75752e-07
5.82677e-06
-8.24599e-10
1.58674e-06
-2.9556e-07
7.61653e-08
-5.46115e-07
-6.0437e-08
-7.38655e-07
8.62738e-08
-9.06223e-07
2.88401e-07
-1.06343e-06
4.29047e-07
-1.1883e-06
3.52368e-07
-1.256e-06
-6.16772e-08
-1.27821e-06
-8.17678e-07
-1.28653e-06
-1.12053e-06
-1.46261e-06
6.60275e-07
-1.59626e-06
2.58191e-06
-1.09176e-06
2.99466e-06
-3.71583e-07
-9.62522e-07
1.75995e-07
-5.12394e-06
8.33557e-07
-5.55092e-06
1.09212e-06
-2.85279e-06
1.11429e-06
5.53581e-07
6.94106e-06
-6.10514e-08
1.64779e-06
-3.89923e-07
4.05031e-07
-7.01117e-07
2.50755e-07
-9.46299e-07
3.3145e-07
-1.15208e-06
4.94182e-07
-1.34204e-06
6.19007e-07
-1.5085e-06
5.18823e-07
-1.64746e-06
7.72848e-08
-1.79139e-06
-6.73745e-07
-1.94646e-06
-9.65467e-07
-1.91358e-06
6.27395e-07
-1.67485e-06
2.34318e-06
-9.02523e-07
2.22233e-06
-2.12028e-07
-1.65301e-06
9.30744e-08
-5.42905e-06
5.08099e-07
-5.96594e-06
6.19843e-07
-2.96453e-06
7.02572e-07
4.70854e-07
7.64363e-06
-1.39114e-07
1.7869e-06
-5.247e-07
7.90612e-07
-8.82682e-07
6.08736e-07
-1.16478e-06
6.13547e-07
-1.39835e-06
7.27747e-07
-1.61466e-06
8.35324e-07
-1.81354e-06
7.17706e-07
-2.00314e-06
2.6689e-07
-2.22869e-06
-4.482e-07
-2.45617e-06
-7.37978e-07
-2.29042e-06
4.61633e-07
-1.75752e-06
1.81029e-06
-8.38247e-07
1.30305e-06
-2.85218e-07
-2.20604e-06
-1.96948e-07
-5.51732e-06
2.89714e-08
-6.19186e-06
1.19551e-07
-3.05511e-06
2.97286e-07
2.93119e-07
7.94092e-06
-2.08461e-07
1.99536e-06
-6.84585e-07
1.26674e-06
-1.08045e-06
1.00461e-06
-1.38956e-06
9.22652e-07
-1.64189e-06
9.80087e-07
-1.87333e-06
1.06677e-06
-2.08909e-06
9.33465e-07
-2.30395e-06
4.81754e-07
-2.55822e-06
-1.93927e-07
-2.76918e-06
-5.27012e-07
-2.5533e-06
2.45745e-07
-1.856e-06
1.11299e-06
-9.46577e-07
3.9363e-07
-5.69647e-07
-2.58297e-06
-6.50076e-07
-5.4369e-06
-6.03448e-07
-6.23849e-06
-4.55951e-07
-3.20261e-06
-2.19766e-07
5.69333e-08
7.72115e-06
-3.4869e-07
2.34405e-06
-8.68097e-07
1.78614e-06
-1.28442e-06
1.42093e-06
-1.6143e-06
1.25254e-06
-1.87836e-06
1.24415e-06
-2.11355e-06
1.30195e-06
-2.32637e-06
1.14629e-06
-2.53989e-06
6.9527e-07
-2.77929e-06
4.54708e-08
-2.9375e-06
-3.68802e-07
-2.68853e-06
-3.22569e-09
-1.98274e-06
4.07196e-07
-1.20064e-06
-3.88472e-07
-9.71e-07
-2.8126e-06
-1.19775e-06
-5.21015e-06
-1.37069e-06
-6.06554e-06
-1.17253e-06
-3.40077e-06
-9.26875e-07
-1.88717e-07
6.79428e-06
6.77154e-07
-2.96542e-06
1.3642e-06
-3.01427e-06
2.03372e-06
-2.94762e-06
2.67563e-06
-2.82832e-06
3.26737e-06
-2.61686e-06
3.79678e-06
-2.35002e-06
4.26269e-06
-2.07632e-06
4.66028e-06
-1.80568e-06
4.98366e-06
-1.52603e-06
5.21087e-06
-1.19488e-06
5.32662e-06
-8.17727e-07
5.32728e-06
-4.22792e-07
5.21191e-06
-1.96084e-08
4.97814e-06
4.00278e-07
4.63633e-06
8.4031e-07
4.22955e-06
1.309e-06
3.86924e-06
1.81626e-06
3.75816e-06
2.36837e-06
3.91473e-06
2.84448e-06
4.05056e-06
3.07546e-06
3.84791e-06
3.02592e-06
3.37784e-06
2.88063e-06
2.88815e-06
3.13656e-06
6.58107e-07
-3.62353e-06
1.35901e-06
-3.71517e-06
2.02982e-06
-3.61844e-06
2.67267e-06
-3.47116e-06
3.27058e-06
-3.21476e-06
3.81721e-06
-2.89665e-06
4.3021e-06
-2.5612e-06
4.702e-06
-2.20557e-06
4.99493e-06
-1.81896e-06
5.17923e-06
-1.37918e-06
5.26054e-06
-8.9904e-07
5.2385e-06
-4.0075e-07
5.11931e-06
9.95781e-08
4.9115e-06
6.08085e-07
4.63871e-06
1.1131e-06
4.33587e-06
1.61184e-06
4.07735e-06
2.07477e-06
3.96327e-06
2.48245e-06
3.97383e-06
2.83391e-06
3.90512e-06
3.14416e-06
3.56363e-06
3.36741e-06
2.92978e-06
3.51448e-06
3.64921e-06
2.16873e-06
8.83575e-07
-4.50711e-06
1.38531e-06
-4.21693e-06
1.90921e-06
-4.14237e-06
2.36104e-06
-3.92303e-06
2.89302e-06
-3.74677e-06
3.51216e-06
-3.51582e-06
4.08642e-06
-3.13548e-06
4.52561e-06
-2.64479e-06
4.7885e-06
-2.08187e-06
4.92801e-06
-1.5187e-06
4.9875e-06
-9.58553e-07
4.9674e-06
-3.80658e-07
4.85185e-06
2.15133e-07
4.67504e-06
7.84893e-07
4.47982e-06
1.30833e-06
4.31262e-06
1.77905e-06
4.19652e-06
2.19089e-06
4.05694e-06
2.62205e-06
3.89189e-06
2.99898e-06
3.69141e-06
3.34465e-06
3.26251e-06
3.79634e-06
2.48608e-06
4.29093e-06
4.704e-06
1.43133e-06
1.87513e-06
-6.38225e-06
1.87287e-06
-4.21449e-06
1.9955e-06
-4.26503e-06
1.1812e-06
-3.10865e-06
1.30878e-06
-3.8743e-06
2.44247e-06
-4.6495e-06
3.30541e-06
-3.99836e-06
3.80367e-06
-3.14296e-06
4.04094e-06
-2.31908e-06
4.19512e-06
-1.67284e-06
4.2917e-06
-1.0551e-06
4.34491e-06
-4.33853e-07
4.31176e-06
2.48289e-07
4.18301e-06
9.13636e-07
4.03704e-06
1.45429e-06
4.22896e-06
1.58709e-06
5.02141e-06
1.39839e-06
4.48673e-06
3.15665e-06
3.34314e-06
4.14249e-06
3.12404e-06
3.56369e-06
3.16919e-06
3.75115e-06
2.84932e-06
4.61071e-06
6.88311e-06
6.70137e-07
-1.25396e-06
-5.12847e-06
-8.5091e-07
-4.61747e-06
-1.73865e-06
-3.37724e-06
-3.65952e-06
-1.18778e-06
-2.8506e-06
-4.68316e-06
-1.84073e-06
-5.65942e-06
-1.37585e-06
-4.4633e-06
-6.82795e-07
-3.83611e-06
-8.15968e-08
-2.92035e-06
6.37529e-07
-2.39201e-06
1.5607e-06
-1.97829e-06
2.64169e-06
-1.51485e-06
3.63726e-06
-7.47264e-07
4.31625e-06
2.34678e-07
5.02659e-06
7.44014e-07
5.59795e-06
1.0158e-06
7.41165e-06
-4.15215e-07
6.77699e-06
3.79142e-06
4.00574e-06
6.91385e-06
2.51453e-06
5.05498e-06
1.84739e-06
4.41838e-06
6.49425e-07
5.8087e-06
9.56598e-06
-2.03372e-06
-8.21754e-07
-4.30674e-06
-9.30102e-07
-4.50921e-06
5.91481e-07
-4.89879e-06
3.8073e-06
-4.40367e-06
5.73663e-06
-6.61244e-06
2.65388e-06
-2.57662e-06
-3.06822e-07
-1.50259e-06
-1.45915e-06
-2.68377e-06
-1.4102e-06
-2.96929e-06
-9.29012e-07
-2.87317e-06
-1.50824e-07
-2.75645e-06
8.16311e-07
-2.48195e-06
1.72849e-06
-1.65941e-06
2.30039e-06
-3.37218e-07
2.00498e-06
1.03941e-06
4.69618e-07
2.55113e-06
-6.37196e-07
6.91579e-07
-1.86735e-07
3.34097e-06
3.48051e-07
6.37908e-06
-1.01108e-06
6.41411e-06
-3.25374e-06
6.66117e-06
-5.25021e-06
7.80552e-06
8.02822e-06
-3.71206e-06
2.0136e-07
-4.50802e-06
-1.59858e-08
-4.29168e-06
1.15251e-06
-6.06724e-06
3.27119e-06
-6.52237e-06
2.01535e-06
-5.35659e-06
1.39905e-06
-1.96028e-06
5.48641e-07
-6.52165e-07
-4.78649e-07
-1.65648e-06
-1.10449e-06
-2.34344e-06
-1.32435e-06
-2.65332e-06
-1.41898e-06
-2.66182e-06
-1.60216e-06
-2.29876e-06
-1.92109e-06
-1.34046e-06
-2.42373e-06
1.65442e-07
-3.33153e-06
1.94721e-06
-4.02442e-06
3.24399e-06
-5.98835e-06
2.65548e-06
-6.10947e-06
3.46207e-06
-5.01288e-06
5.28246e-06
-5.66221e-06
7.06331e-06
-6.64176e-06
7.64052e-06
-5.50219e-06
6.66603e-06
4.52738e-06
-2.00115e-06
6.86804e-08
-4.57681e-06
3.78114e-07
-4.60103e-06
-6.4212e-08
-5.62495e-06
-9.83001e-07
-5.60355e-06
-1.93475e-06
-4.4048e-06
-1.87944e-06
-2.01557e-06
-1.51291e-06
-1.01868e-06
-1.81615e-06
-1.35321e-06
-2.35838e-06
-1.80117e-06
-2.93995e-06
-2.07168e-06
-3.57679e-06
-2.0249e-06
-4.28748e-06
-1.58797e-06
-5.0425e-06
-5.85339e-07
-5.79722e-06
9.20279e-07
-6.42113e-06
2.57123e-06
-6.93734e-06
3.76032e-06
-7.8674e-06
3.58571e-06
-7.9372e-06
3.53209e-06
-7.34233e-06
4.68781e-06
-6.53247e-06
6.25361e-06
-5.21014e-06
6.3181e-06
-3.06809e-06
4.5239e-06
2.89266e-06
-1.43343e-06
6.64693e-08
-4.64315e-06
-1.77461e-07
-4.35704e-06
-1.08727e-06
-4.71507e-06
-2.24181e-06
-4.44892e-06
-3.16638e-06
-3.48018e-06
-3.18681e-06
-1.99512e-06
-3.00119e-06
-1.20431e-06
-3.17617e-06
-1.17824e-06
-3.62502e-06
-1.35233e-06
-4.25628e-06
-1.44041e-06
-5.00029e-06
-1.28088e-06
-5.78747e-06
-8.00779e-07
-6.5142e-06
1.41398e-07
-7.04773e-06
1.45378e-06
-7.26587e-06
2.78933e-06
-7.19448e-06
3.68887e-06
-7.35482e-06
3.74603e-06
-7.47231e-06
3.64963e-06
-6.89672e-06
4.11235e-06
-5.44775e-06
4.80482e-06
-3.59534e-06
4.46572e-06
-2.40536e-06
3.33388e-06
2.61934e-06
-2.13209e-06
-1.77815e-07
-4.46524e-06
-5.99166e-07
-3.93569e-06
-1.50995e-06
-3.80421e-06
-2.54644e-06
-3.41238e-06
-3.35698e-06
-2.66963e-06
-3.62867e-06
-1.72345e-06
-3.71441e-06
-1.1186e-06
-3.95917e-06
-9.33495e-07
-4.39215e-06
-9.19354e-07
-4.9722e-06
-8.60347e-07
-5.6428e-06
-6.10241e-07
-6.33634e-06
-1.07207e-07
-6.89848e-06
7.03555e-07
-7.18616e-06
1.74145e-06
-7.12534e-06
2.72844e-06
-6.81318e-06
3.37661e-06
-6.56569e-06
3.49841e-06
-6.33058e-06
3.41433e-06
-5.71199e-06
3.49356e-06
-4.5113e-06
3.60402e-06
-3.34553e-06
3.29989e-06
-2.75321e-06
2.74153e-06
2.48614e-06
-2.61998e-06
-3.56729e-07
-4.10855e-06
-8.8377e-07
-3.40861e-06
-1.6801e-06
-3.00783e-06
-2.5388e-06
-2.55368e-06
-3.24498e-06
-1.96346e-06
-3.65611e-06
-1.31234e-06
-3.93304e-06
-8.41652e-07
-4.25574e-06
-6.10765e-07
-4.67567e-06
-4.99359e-07
-5.18932e-06
-3.46603e-07
-5.75087e-06
-4.85598e-08
-6.29292e-06
4.34989e-07
-6.68023e-06
1.09101e-06
-6.79398e-06
1.85532e-06
-6.62123e-06
2.55582e-06
-6.25333e-06
3.00885e-06
-5.87644e-06
3.12167e-06
-5.48924e-06
3.02725e-06
-4.88628e-06
2.89068e-06
-4.06581e-06
2.78363e-06
-3.32987e-06
2.56403e-06
-2.92724e-06
2.33898e-06
2.32838e-06
-2.7694e-06
-4.80347e-07
-3.62824e-06
-1.05836e-06
-2.83051e-06
-1.75217e-06
-2.31399e-06
-2.4635e-06
-1.84234e-06
-3.07898e-06
-1.34798e-06
-3.53152e-06
-8.59783e-07
-3.89132e-06
-4.81814e-07
-4.24985e-06
-2.52183e-07
-4.65277e-06
-9.63746e-08
-5.10481e-06
1.05509e-07
-5.56044e-06
4.07161e-07
-5.94598e-06
8.20627e-07
-6.18e-06
1.32513e-06
-6.19619e-06
1.87158e-06
-5.99189e-06
2.3516e-06
-5.63825e-06
2.65532e-06
-5.24677e-06
2.73036e-06
-4.84414e-06
2.62476e-06
-4.35595e-06
2.40262e-06
-3.80564e-06
2.23344e-06
-3.32823e-06
2.08671e-06
-3.03527e-06
2.04606e-06
2.15598e-06
-2.86285e-06
-5.78053e-07
-3.05014e-06
-1.16746e-06
-2.24101e-06
-1.78939e-06
-1.69204e-06
-2.39733e-06
-1.23439e-06
-2.93667e-06
-8.08608e-07
-3.37684e-06
-4.19581e-07
-3.74933e-06
-1.09282e-07
-4.1088e-06
1.07322e-07
-4.48666e-06
2.81506e-07
-4.86906e-06
4.87916e-07
-5.21686e-06
7.54958e-07
-5.47827e-06
1.08203e-06
-5.60761e-06
1.45444e-06
-5.56846e-06
1.83235e-06
-5.36599e-06
2.14902e-06
-5.05001e-06
2.33923e-06
-4.69119e-06
2.37147e-06
-4.3291e-06
2.26262e-06
-3.97967e-06
2.05314e-06
-3.6214e-06
1.87513e-06
-3.31932e-06
1.78461e-06
-3.10371e-06
1.83041e-06
1.96798e-06
-2.91576e-06
-6.43414e-07
-2.40663e-06
-1.23944e-06
-1.64495e-06
-1.81599e-06
-1.11548e-06
-2.35536e-06
-6.94997e-07
-2.83482e-06
-3.29096e-07
-3.24346e-06
-1.08731e-08
-3.59895e-06
2.46266e-07
-3.93483e-06
4.43239e-07
-4.26629e-06
6.12973e-07
-4.57379e-06
7.9542e-07
-4.82871e-06
1.00987e-06
-5.00173e-06
1.25505e-06
-5.06403e-06
1.51673e-06
-4.99851e-06
1.76677e-06
-4.81354e-06
1.96394e-06
-4.54433e-06
2.0699e-06
-4.23935e-06
2.06638e-06
-3.94062e-06
1.9638e-06
-3.68849e-06
1.80093e-06
-3.46351e-06
1.6501e-06
-3.2732e-06
1.59428e-06
-3.10283e-06
1.66006e-06
1.77461e-06
-2.90939e-06
-6.85519e-07
-1.72107e-06
-1.28855e-06
-1.04196e-06
-1.83698e-06
-5.67052e-07
-2.33094e-06
-2.01005e-07
-2.76508e-06
1.05104e-07
-3.13914e-06
3.63262e-07
-3.46604e-06
5.73241e-07
-3.76389e-06
7.41131e-07
-4.03792e-06
8.87037e-07
-4.27669e-06
1.0342e-06
-4.46093e-06
1.19412e-06
-4.57149e-06
1.36567e-06
-4.59284e-06
1.53816e-06
-4.51842e-06
1.69244e-06
-4.35788e-06
1.80347e-06
-4.13739e-06
1.84945e-06
-3.89263e-06
1.82167e-06
-3.65892e-06
1.73015e-06
-3.46249e-06
1.60456e-06
-3.31062e-06
1.49832e-06
-3.17794e-06
1.46172e-06
-3.02415e-06
1.50641e-06
1.59272e-06
-2.84208e-06
-7.11406e-07
-1.0097e-06
-1.31846e-06
-4.34972e-07
-1.84852e-06
-3.69992e-08
-2.31122e-06
2.61728e-07
-2.71063e-06
5.0458e-07
-3.05216e-06
7.04865e-07
-3.3459e-06
8.67046e-07
-3.60251e-06
9.97775e-07
-3.82516e-06
1.10971e-06
-4.00717e-06
1.21623e-06
-4.13728e-06
1.32425e-06
-4.20444e-06
1.43289e-06
-4.20108e-06
1.5349e-06
-4.12652e-06
1.61801e-06
-3.99047e-06
1.66757e-06
-3.8129e-06
1.67203e-06
-3.61977e-06
1.6287e-06
-3.43673e-06
1.54726e-06
-3.28245e-06
1.45043e-06
-3.15661e-06
1.37263e-06
-3.03857e-06
1.34384e-06
-2.90123e-06
1.36923e-06
1.42422e-06
-2.73257e-06
-7.24195e-07
-2.85569e-07
-1.33006e-06
1.70869e-07
-1.84564e-06
4.78608e-07
-2.28457e-06
7.00709e-07
-2.65617e-06
8.76244e-07
-2.96849e-06
1.01726e-06
-3.23047e-06
1.12908e-06
-3.44992e-06
1.21726e-06
-3.62986e-06
1.28967e-06
-3.76762e-06
1.35399e-06
-3.85769e-06
1.41432e-06
-3.89483e-06
1.47005e-06
-3.87649e-06
1.51662e-06
-3.80506e-06
1.54667e-06
-3.68953e-06
1.55213e-06
-3.54502e-06
1.52763e-06
-3.38997e-06
1.47376e-06
-3.2417e-06
1.39911e-06
-3.11126e-06
1.32009e-06
-2.99671e-06
1.25817e-06
-2.88331e-06
1.2305e-06
-2.75282e-06
1.23879e-06
1.26726e-06
-2.59584e-06
-7.27673e-07
4.42067e-07
-1.32531e-06
7.6857e-07
-1.82509e-06
9.78463e-07
-2.24319e-06
1.11889e-06
-2.59078e-06
1.22391e-06
-2.87723e-06
1.30377e-06
-3.1111e-06
1.36299e-06
-3.29925e-06
1.40546e-06
-3.44538e-06
1.43583e-06
-3.54976e-06
1.45839e-06
-3.61086e-06
1.47542e-06
-3.62736e-06
1.48655e-06
-3.59981e-06
1.48907e-06
-3.53202e-06
1.47888e-06
-3.43185e-06
1.45198e-06
-3.31065e-06
1.40643e-06
-3.18122e-06
1.34434e-06
-3.05482e-06
1.2727e-06
-2.93762e-06
1.20287e-06
-2.8275e-06
1.148e-06
-2.71458e-06
1.11751e-06
-2.58713e-06
1.11124e-06
1.11871e-06
-2.43871e-06
-7.21671e-07
1.16376e-06
-1.30444e-06
1.35148e-06
-1.78557e-06
1.4597e-06
-2.18256e-06
1.51599e-06
-2.50765e-06
1.54908e-06
-2.77073e-06
1.56692e-06
-2.98019e-06
1.5725e-06
-3.14268e-06
1.568e-06
-3.26263e-06
1.55581e-06
-3.34229e-06
1.53808e-06
-3.38275e-06
1.51589e-06
-3.38516e-06
1.48895e-06
-3.35185e-06
1.45573e-06
-3.28715e-06
1.41414e-06
-3.19771e-06
1.36249e-06
-3.092e-06
1.30066e-06
-2.97884e-06
1.2311e-06
-2.86544e-06
1.1592e-06
-2.75523e-06
1.09254e-06
-2.64637e-06
1.03901e-06
-2.53251e-06
1.00349e-06
-2.40635e-06
9.8492e-07
9.76037e-07
-2.26386e-06
-7.04884e-07
1.86873e-06
-1.26771e-06
1.91449e-06
-1.72624e-06
1.91836e-06
-2.1002e-06
1.89006e-06
-2.40285e-06
1.85181e-06
-2.64414e-06
1.80828e-06
-2.83222e-06
1.76064e-06
-2.97367e-06
1.7095e-06
-3.07339e-06
1.65559e-06
-3.13488e-06
1.5996e-06
-3.16077e-06
1.54181e-06
-3.15366e-06
1.48184e-06
-3.11678e-06
1.41883e-06
-3.05448e-06
1.3518e-06
-2.97231e-06
1.28027e-06
-2.87659e-06
1.20487e-06
-2.77346e-06
1.12788e-06
-2.66756e-06
1.05319e-06
-2.56086e-06
9.85718e-07
-2.45198e-06
9.29999e-07
-2.33694e-06
8.8832e-07
-2.21135e-06
8.59195e-07
8.37423e-07
-2.07288e-06
-6.79036e-07
2.54788e-06
-1.21553e-06
2.45114e-06
-1.64628e-06
2.34923e-06
-1.99477e-06
2.23864e-06
-2.27442e-06
2.13153e-06
-2.49485e-06
2.02877e-06
-2.66382e-06
1.92968e-06
-2.78773e-06
1.83346e-06
-2.87168e-06
1.7396e-06
-2.91978e-06
1.64775e-06
-2.93547e-06
1.55754e-06
-2.92208e-06
1.46847e-06
-2.88316e-06
1.37992e-06
-2.82283e-06
1.29146e-06
-2.74569e-06
1.2031e-06
-2.65652e-06
1.11566e-06
-2.55966e-06
1.03096e-06
-2.4582e-06
9.51673e-07
-2.35335e-06
8.808e-07
-2.2442e-06
8.20785e-07
-2.12835e-06
7.72405e-07
-2.00324e-06
7.34019e-07
7.01757e-07
-1.86763e-06
-6.41059e-07
3.18904e-06
-1.14506e-06
2.95526e-06
-1.54432e-06
2.74856e-06
-1.86564e-06
2.56003e-06
-2.12182e-06
2.38776e-06
-2.32204e-06
2.22904e-06
-2.4736e-06
2.08129e-06
-2.58257e-06
1.94249e-06
-2.65401e-06
1.81109e-06
-2.69218e-06
1.68598e-06
-2.70083e-06
1.56626e-06
-2.68352e-06
1.45119e-06
-2.64378e-06
1.34023e-06
-2.58535e-06
1.23306e-06
-2.51205e-06
1.12981e-06
-2.42755e-06
1.03118e-06
-2.33502e-06
9.38438e-07
-2.23661e-06
8.53262e-07
-2.13314e-06
7.77342e-07
-2.02413e-06
7.11778e-07
-1.90817e-06
6.5646e-07
-1.78385e-06
6.09717e-07
5.68546e-07
-1.65061e-06
-5.9044e-07
3.77956e-06
-1.05426e-06
3.41914e-06
-1.42064e-06
3.11498e-06
-1.71367e-06
2.85309e-06
-1.94603e-06
2.62015e-06
-2.12649e-06
2.40953e-06
-2.26188e-06
2.21673e-06
-2.35785e-06
2.0385e-06
-2.41916e-06
1.87246e-06
-2.44995e-06
1.71682e-06
-2.4539e-06
1.57027e-06
-2.43447e-06
1.43182e-06
-2.39499e-06
1.3008e-06
-2.33874e-06
1.17686e-06
-2.26888e-06
1.06001e-06
-2.18831e-06
9.50663e-07
-2.09938e-06
8.49571e-07
-2.0037e-06
7.57634e-07
-1.90192e-06
6.75616e-07
-1.79383e-06
6.0375e-07
-1.6787e-06
5.41396e-07
-1.55581e-06
4.86901e-07
4.37818e-07
-1.42501e-06
-5.32144e-07
4.31174e-06
-9.48906e-07
3.8359e-06
-1.27895e-06
3.44503e-06
-1.54177e-06
3.11591e-06
-1.74949e-06
2.82788e-06
-1.91032e-06
2.57038e-06
-2.03043e-06
2.33687e-06
-2.11485e-06
2.12295e-06
-2.16783e-06
1.92548e-06
-2.19315e-06
1.74218e-06
-2.19419e-06
1.57137e-06
-2.17412e-06
1.41181e-06
-2.13591e-06
1.26265e-06
-2.08238e-06
1.12339e-06
-2.01613e-06
9.93831e-07
-1.93948e-06
8.74079e-07
-1.85424e-06
7.64409e-07
-1.76166e-06
6.65126e-07
-1.6623e-06
5.76338e-07
-1.55619e-06
4.9771e-07
-1.44298e-06
4.28276e-07
-1.32241e-06
3.66408e-07
3.1002e-07
-1.19453e-06
-4.69467e-07
4.7812e-06
-8.35044e-07
4.20145e-06
-1.1239e-06
3.73386e-06
-1.35364e-06
3.34564e-06
-1.53546e-06
3.0097e-06
-1.67655e-06
2.71147e-06
-1.78203e-06
2.44236e-06
-1.85603e-06
2.19696e-06
-1.90211e-06
1.97159e-06
-1.92348e-06
1.76359e-06
-1.92309e-06
1.57101e-06
-1.90364e-06
1.39241e-06
-1.8677e-06
1.22675e-06
-1.81761e-06
1.07335e-06
-1.75552e-06
9.31796e-07
-1.68326e-06
8.01877e-07
-1.60227e-06
6.83488e-07
-1.51356e-06
5.76478e-07
-1.41764e-06
4.80492e-07
-1.31467e-06
3.94813e-07
-1.20459e-06
3.1827e-07
-1.08737e-06
2.49254e-07
1.85908e-07
-9.63186e-07
-4.04514e-07
5.1857e-06
-7.15379e-07
4.51228e-06
-9.58813e-07
3.97727e-06
-1.15252e-06
3.53933e-06
-1.30726e-06
3.16443e-06
-1.42861e-06
2.83282e-06
-1.52013e-06
2.53387e-06
-1.58474e-06
2.26158e-06
-1.62514e-06
2.012e-06
-1.64387e-06
1.78233e-06
-1.64329e-06
1.57044e-06
-1.62562e-06
1.37476e-06
-1.59294e-06
1.1941e-06
-1.54716e-06
1.0276e-06
-1.48998e-06
8.74652e-07
-1.42285e-06
7.34798e-07
-1.34695e-06
6.07627e-07
-1.26307e-06
4.92655e-07
-1.17173e-06
3.89201e-07
-1.07316e-06
2.96289e-07
-9.67442e-07
2.12608e-07
-8.54701e-07
1.36565e-07
6.64385e-08
-7.3518e-07
-3.38882e-07
5.52456e-06
-5.92124e-07
4.7655e-06
-7.86051e-07
4.17118e-06
-9.41109e-07
3.69438e-06
-1.06816e-06
3.29147e-06
-1.17023e-06
2.93487e-06
-1.24863e-06
2.61227e-06
-1.3049e-06
2.31784e-06
-1.34076e-06
2.04786e-06
-1.35801e-06
1.79957e-06
-1.35838e-06
1.57083e-06
-1.34358e-06
1.35996e-06
-1.31516e-06
1.1657e-06
-1.2746e-06
9.87057e-07
-1.22321e-06
8.23281e-07
-1.16212e-06
6.73732e-07
-1.09226e-06
5.37784e-07
-1.01429e-06
4.1472e-07
-9.28696e-07
3.03634e-07
-8.35749e-07
2.03374e-07
-7.35641e-07
1.12533e-07
-6.2856e-07
2.95155e-08
-4.73174e-08
-5.1477e-07
-2.73137e-07
5.79768e-06
-4.66672e-07
4.95903e-06
-6.0679e-07
4.31129e-06
-7.21528e-07
3.80911e-06
-8.21633e-07
3.39157e-06
-9.05478e-07
3.01871e-06
-9.71841e-07
2.67862e-06
-1.02082e-06
2.36681e-06
-1.05322e-06
2.08025e-06
-1.07008e-06
1.81643e-06
-1.07251e-06
1.57326e-06
-1.06161e-06
1.34907e-06
-1.03846e-06
1.14256e-06
-1.00408e-06
9.52684e-07
-9.59419e-07
7.78623e-07
-9.05311e-07
6.19634e-07
-8.42477e-07
4.74963e-07
-7.71491e-07
3.43747e-07
-6.92782e-07
2.24939e-07
-6.06661e-07
1.17268e-07
-5.13365e-07
1.9253e-08
-4.13116e-07
-7.07159e-08
-1.54243e-07
-3.06172e-07
-2.0011e-07
5.99778e-06
-3.31801e-07
5.09073e-06
-4.21064e-07
4.40056e-06
-4.97035e-07
3.88509e-06
-5.71996e-07
3.46653e-06
-6.38991e-07
3.08571e-06
-6.94306e-07
2.73394e-06
-7.36964e-07
2.40947e-06
-7.6692e-07
2.11021e-06
-7.84465e-07
1.83397e-06
-7.90024e-07
1.57882e-06
-7.84096e-07
1.34314e-06
-7.67228e-07
1.12569e-06
-7.4e-07
9.25457e-07
-7.03004e-07
7.4163e-07
-6.56822e-07
5.73455e-07
-6.01996e-07
4.2014e-07
-5.39007e-07
2.80761e-07
-4.68258e-07
1.54194e-07
-3.90078e-07
3.90911e-08
-3.04731e-07
-6.60899e-08
-2.12449e-07
-1.62994e-07
-2.53229e-07
-1.13459e-07
-1.03693e-07
6.10148e-06
-1.75387e-07
5.16245e-06
-2.25681e-07
4.45087e-06
-2.72919e-07
3.93234e-06
-3.24355e-07
3.51798e-06
-3.75326e-07
3.13669e-06
-4.20274e-07
2.7789e-06
-4.57504e-07
2.44671e-06
-4.86091e-07
2.1388e-06
-5.05472e-07
1.85336e-06
-5.15311e-07
1.58866e-06
-5.15454e-07
1.34329e-06
-5.05904e-07
1.11614e-06
-4.86805e-07
9.06358e-07
-4.5841e-07
7.13235e-07
-4.21062e-07
5.36105e-07
-3.75151e-07
3.74227e-07
-3.2109e-07
2.26695e-07
-2.5927e-07
9.23686e-08
-1.9004e-07
-3.01456e-08
-1.13685e-07
-1.42452e-07
-3.04294e-08
-2.46258e-07
-3.43216e-07
5.95476e-08
1.89883e-08
6.0825e-06
2.08499e-09
5.17939e-06
-1.98032e-08
4.47279e-06
-4.78773e-08
3.96044e-06
-8.0667e-08
3.55079e-06
-1.16714e-07
3.17276e-06
-1.52541e-07
2.81474e-06
-1.85763e-07
2.47995e-06
-2.14457e-07
2.16751e-06
-2.37106e-07
1.87602e-06
-2.52554e-07
1.60412e-06
-2.59974e-07
1.35072e-06
-2.58828e-07
1.115e-06
-2.48837e-07
8.96367e-07
-2.29942e-07
6.94337e-07
-2.0227e-07
5.08426e-07
-1.66089e-07
3.38037e-07
-1.21767e-07
1.82361e-07
-6.97103e-08
4.02975e-08
-1.03051e-08
-8.95676e-08
5.61387e-08
-2.08915e-07
1.29415e-07
-3.19556e-07
-4.23234e-07
2.09408e-07
1.47599e-07
5.93492e-06
1.86886e-07
5.14014e-06
1.93478e-07
4.46624e-06
1.81051e-07
3.9729e-06
1.61934e-07
3.56994e-06
1.37394e-07
3.19733e-06
1.07658e-07
2.8445e-06
7.58121e-08
2.51181e-06
4.47682e-08
2.19857e-06
1.69657e-08
1.90384e-06
-5.66963e-09
1.62677e-06
-2.16914e-08
1.36675e-06
-3.00736e-08
1.12338e-06
-3.01589e-08
8.96449e-07
-2.16105e-08
6.85782e-07
-4.37043e-09
4.91175e-07
2.13833e-08
3.12268e-07
5.52982e-08
1.48427e-07
9.69189e-08
-1.34629e-09
1.45788e-07
-1.38464e-07
2.01556e-07
-2.64713e-07
2.6404e-07
-3.82072e-07
-4.92436e-07
3.33205e-07
2.64792e-07
5.67016e-06
3.72123e-07
5.03287e-06
4.08595e-07
4.42981e-06
4.13609e-07
3.96793e-06
4.06325e-07
3.57727e-06
3.87595e-07
3.21609e-06
3.59131e-07
2.873e-06
3.2484e-07
2.54613e-06
2.88495e-07
2.23494e-06
2.53273e-07
1.93908e-06
2.21698e-07
1.65835e-06
1.95695e-07
1.39275e-06
1.76674e-07
1.1424e-06
1.65596e-07
9.0752e-07
1.6303e-07
6.88336e-07
1.69184e-07
4.85004e-07
1.83952e-07
2.97479e-07
2.06959e-07
1.25393e-07
2.37659e-07
-3.2077e-08
2.75474e-07
-1.76314e-07
3.19984e-07
-3.0926e-07
3.7103e-07
-4.3316e-07
-5.50143e-07
4.28692e-07
3.71395e-07
5.2988e-06
5.4838e-07
4.85596e-06
6.25185e-07
4.35306e-06
6.51567e-07
3.9416e-06
6.51111e-07
3.57777e-06
6.31839e-07
3.23541e-06
5.99141e-07
2.90574e-06
5.58147e-07
2.58716e-06
5.13348e-07
2.27977e-06
4.68402e-07
1.98404e-06
4.26192e-07
1.70057e-06
3.88931e-07
1.43002e-06
3.58276e-07
1.17306e-06
3.35403e-07
9.30383e-07
3.21062e-07
7.02662e-07
3.15597e-07
4.90448e-07
3.18958e-07
2.9409e-07
3.30735e-07
1.13584e-07
3.50238e-07
-5.16167e-08
3.76699e-07
-2.02815e-07
4.09573e-07
-3.42177e-07
4.48738e-07
-4.72371e-07
-5.95878e-07
4.94424e-07
4.86432e-07
4.8124e-06
7.33068e-07
4.6094e-06
8.49047e-07
4.23715e-06
8.90733e-07
3.89997e-06
8.90657e-07
3.5779e-06
8.64984e-07
3.26113e-06
8.23064e-07
2.9477e-06
7.71582e-07
2.63867e-06
7.15613e-07
2.33576e-06
6.59045e-07
2.04063e-06
6.0487e-07
1.75476e-06
5.55386e-07
1.4795e-06
5.12347e-07
1.21609e-06
4.77059e-07
9.65659e-07
4.50417e-07
7.29285e-07
4.32905e-07
5.07936e-07
4.24562e-07
3.02405e-07
4.24947e-07
1.13164e-07
4.33191e-07
-5.98987e-08
4.48229e-07
-2.17894e-07
4.69314e-07
-3.63306e-07
4.96372e-07
-4.99474e-07
-6.29403e-07
5.29849e-07
6.29311e-07
4.18314e-06
9.44292e-07
4.2945e-06
1.08393e-06
4.09757e-06
1.12758e-06
3.85639e-06
1.11901e-06
3.58653e-06
1.0808e-06
3.29939e-06
1.02539e-06
3.00315e-06
9.60554e-07
2.70354e-06
8.91588e-07
2.40475e-06
8.22284e-07
2.10995e-06
7.55467e-07
1.82159e-06
6.93307e-07
1.54167e-06
6.37514e-07
1.27188e-06
5.89438e-07
1.01372e-06
5.50108e-07
7.68598e-07
5.2019e-07
5.3783e-07
4.99892e-07
3.22674e-07
4.88824e-07
1.24198e-07
4.85924e-07
-5.7035e-08
4.89702e-07
-2.2171e-07
4.9907e-07
-3.72715e-07
5.14026e-07
-5.14471e-07
-6.50758e-07
5.35338e-07
8.15354e-07
3.36783e-06
1.1908e-06
3.91914e-06
1.33019e-06
3.95825e-06
1.35721e-06
3.82943e-06
1.32915e-06
3.61463e-06
1.27236e-06
3.35623e-06
1.20025e-06
3.0753e-06
1.12053e-06
2.78329e-06
1.03802e-06
2.48729e-06
9.55967e-07
2.19202e-06
8.76724e-07
1.90084e-06
8.02126e-07
1.61627e-06
7.33697e-07
1.3403e-06
6.72763e-07
1.07465e-06
6.20482e-07
8.20863e-07
5.77779e-07
5.80512e-07
5.45182e-07
3.55245e-07
5.22536e-07
1.46815e-07
5.08678e-07
-4.32087e-08
5.01554e-07
-2.14621e-07
4.99508e-07
-3.70704e-07
5.02617e-07
-5.17616e-07
-6.60323e-07
5.12147e-07
1.05548e-06
2.3124e-06
1.47207e-06
3.50262e-06
1.57805e-06
3.85233e-06
1.56826e-06
3.83928e-06
1.5109e-06
3.67205e-06
1.43148e-06
3.43569e-06
1.34164e-06
3.16517e-06
1.2475e-06
2.87747e-06