/*--------------------------------*- C++ -*----------------------------------*\
  =========                 |
  \\      /  F ield         | OpenFOAM: The Open Source CFD Toolbox
   \\    /   O peration     | Website:  https://openfoam.org
    \\  /    A nd           | Version:  9
     \\/     M anipulation  |
\*---------------------------------------------------------------------------*/
FoamFile
{
    format      ascii;
    class       volScalarField;
    location    "21.25";
    object      p;
}
// * * * * * * * * * * * * * * * * * * * * * * * * * * * * * * * * * * * * * //

dimensions      [0 2 -2 0 0 0 0];

internalField   nonuniform List<scalar> 
918
(
23.4688
23.5794
0.959841
22.8862
1.011
23.0959
3.2796
13.7865
19.242
2.9343
2.62402
14.408
20.6388
16.8803
12.9967
0.924208
14.0523
2.2534
18.4597
1.3994
12.9952
20.4475
21.5362
19.2838
14.1209
14.3753
18.6012
1.15131
0.109562
0.258792
0.976832
0.408941
0.148166
21.6328
22.3094
22.2477
15.4946
10.4068
3.6034
3.80738
2.9899
2.81371
13.829
13.9289
5.86997
13.7656
13.7615
16.6435
19.1101
19.2537
19.5469
19.3359
19.7223
5.97759
2.78672
2.60762
2.87538
2.94881
2.97969
2.69659
2.67785
2.48222
2.33625
13.8875
14.4811
14.5363
14.2675
14.2151
22.4555
21.6985
22.0333
21.1396
21.285
20.215
19.8294
17.2559
17.6084
16.4822
16.1013
12.7871
12.7483
13.2166
13.4664
0.146023
1.07406
1.22196
14.0592
14.0956
14.0959
14.1104
8.2933
2.19517
2.19853
17.9
17.4765
20.4814
20.7486
20.1956
20.0101
1.53209
1.52728
1.15445
1.18338
0.952187
13.3362
13.4902
19.2352
18.4021
14.1544
14.0545
14.1294
11.4998
13.9099
13.9832
15.325
15.7805
14.9698
15.4062
18.1712
17.7531
19.0377
19.475
0.395078
0.155784
0.686927
0.317847
0.516223
15.3629
15.1575
15.6105
15.6613
15.8925
10.4114
10.3415
10.386
10.306
4.15394
4.46837
2.26273
2.57794
2.42896
9.8735
13.945
13.9916
4.81484
5.51854
5.18236
6.35196
6.72612
16.0092
16.4458
16.1846
17.7309
16.9358
17.284
19.8131
19.3023
19.6027
6.3737
6.6092
5.6116
5.25248
2.24425
2.49136
2.43429
2.98008
2.95783
3.2147
3.34438
2.69554
2.55262
2.89139
2.77522
2.82686
2.16623
2.0364
13.6116
13.3976
14.1505
14.329
15.0962
14.9479
14.6545
14.8232
19.0245
19.4279
19.4614
19.0772
11.5485
10.1579
13.7209
13.9963
0.302263
0.265459
0.13797
0.380547
0.400115
0.141585
2.0134
1.82499
1.4041
1.67964
14.0566
14.0163
8.53405
8.75367
8.1299
7.87311
16.3142
16.4644
17.0985
16.6983
1.96339
1.67744
1.80703
13.6528
13.5255
13.6322
10.9349
10.3685
11.9775
12.2472
13.9915
14.0352
14.0312
15.6846
16.0031
19.8258
20.0965
19.9233
20.3091
21.3719
21.0232
20.6384
14.5388
14.9472
14.7856
16.1278
15.7614
15.9809
15.1888
15.4935
15.3514
10.3729
10.419
10.1257
10.2033
10.251
10.1983
9.81117
9.68441
14.0779
14.0332
14.0571
7.25378
7.75167
4.87124
4.5419
12.5435
13.2167
12.8922
18.6542
17.9765
18.7095
18.3386
17.8887
18.2122
10.4297
10.3909
10.4244
14.9206
14.2585
14.6104
2.43729
2.07341
2.23617
8.94978
9.04259
6.97844
7.59669
7.25905
16.3047
16.6451
17.3252
16.437
16.9046
17.4119
17.19
9.9465
10.0786
9.99574
9.66862
9.56235
9.73547
8.33655
8.94966
3.61109
4.26935
3.96441
9.21047
9.43979
9.28715
18.6298
19.1646
0.768247
1.15775
19.5946
19.3183
0.140597
0.241944
14.257
12.5544
7.26431
17.197
16.6296
18.9694
3.19199
6.10518
2.80651
3.37995
2.68591
14.6151
14.2492
13.3404
0.45476
1.25696
1.70835
2.90259
18.4102
17.735
18.8511
19.1713
19.2256
0.688639
0.91512
0.584519
1.24292
1.0318
1.27588
15.5507
15.6487
4.32866
18.8581
19.1624
19.1802
17.6569
18.6096
17.6671
0.935805
0.642562
0.708208
10.0809
12.1216
14.2172
13.7697
13.9668
13.9889
13.7398
14.8731
14.5426
14.5075
14.9923
13.9674
13.8227
7.73517
6.38509
8.06996
7.7102
17.0983
16.6862
16.4931
16.2388
18.0846
17.6106
18.461
17.8494
18.3113
18.5981
2.94078
3.1311
3.01267
2.52275
6.14518
6.61222
5.48973
5.63706
4.25984
2.42638
2.52513
2.75098
2.58243
2.93026
2.67839
2.94218
2.57775
2.32345
2.32003
2.92911
2.73701
2.60249
14.5935
14.532
14.3328
14.3709
14.3535
14.4692
13.5348
13.9395
13.5673
12.3986
12.9796
12.5068
0.826266
0.661221
0.525687
1.32468
1.35174
1.11094
0.835744
1.17509
1.20201
0.815584
1.54403
1.44565
3.15973
2.64993
8.85
7.97833
6.90096
16.8002
17.602
16.7717
18.0124
18.4294
18.5348
18.1552
17.647
15.7294
15.7245
15.3847
15.3381
4.77294
3.7371
4.96985
4.53913
10.4815
14.0653
11.8425
10.8039
11.1001
13.4237
13.9325
13.5846
13.7218
13.2966
12.8248
13.5169
13.0506
13.1518
12.9307
15.7213
16.1965
15.8029
15.2235
15.2434
10.6016
12.0163
5.46809
5.64158
7.24401
6.53883
13.5125
13.9336
13.9182
13.5576
13.7457
13.7459
13.6068
13.7808
13.8612
13.7555
11.824
10.144
9.04566
9.03929
14.0771
12.3461
12.9306
12.4131
16.1201
16.6366
16.2513
15.6457
16.1308
15.6026
15.6298
15.843
17.2012
16.9508
16.7205
17.1074
3.05258
3.00095
3.64463
3.13544
3.03718
2.82306
3.48325
4.75694
4.41463
6.72004
7.26916
4.57818
3.37225
3.79107
4.80493
5.54089
5.5129
3.96919
4.50211
4.92898
4.44058
5.22746
4.73124
2.71733
3.02209
2.86041
2.83463
3.38132
3.87983
3.37514
2.47899
2.58986
2.2553
2.11822
3.53307
2.9915
3.02796
3.67616
1.10617
1.3288
1.4415
2.41292
1.9115
1.97756
15.1821
14.8262
14.9598
14.239
14.3065
14.2477
13.8721
15.2397
14.9617
15.0611
13.7096
13.7964
13.6096
13.9049
14.3208
14.62
15.452
15.173
14.4121
14.5632
14.2141
14.1423
13.4644
12.9014
12.8409
1.11262
0.82272
0.983794
0.912274
0.608244
0.800531
2.18275
1.57208
1.96917
1.72706
1.95974
1.40422
1.30199
4.25245
5.05905
3.96732
3.36836
3.06958
8.90735
9.01923
8.16776
7.86298
8.20485
8.436
8.38607
7.14122
7.57061
7.38297
9.92232
9.58815
17.5864
17.5305
17.2017
17.0428
17.2692
5.76047
7.66411
6.79925
7.9163
10.2102
10.5068
9.31235
8.70778
9.46079
9.53743
14.047
14.1232
13.5639
14.0498
14.0782
11.8347
12.882
13.4967
13.3111
13.8312
13.9122
12.9734
13.562
13.4769
12.7594
12.8125
12.1276
12.466
11.994
11.7932
14.0556
13.9504
14.2201
13.771
14.1502
13.7146
14.0298
14.0279
14.3085
13.4104
12.8318
12.8503
13.2765
12.9765
13.3225
13.4864
9.30823
9.94981
10.3901
10.926
10.6339
10.4152
10.2825
10.5841
10.5614
10.8321
10.7516
10.6022
11.5611
13.4192
13.704
13.8059
13.6016
13.6477
13.3403
13.6137
13.5426
13.92
14.0082
14.0577
13.1385
13.2951
13.4905
13.3739
11.6751
10.0952
9.94824
9.50825
7.57667
8.04674
11.0244
9.90191
8.91775
8.9894
12.1683
10.8057
11.6189
12.0419
10.6936
10.3058
12.971
13.7594
13.9792
13.7031
12.0597
12.1855
12.6353
13.079
13.2684
13.7246
15.86
16.4356
16.5135
16.2376
16.0996
16.1994
15.9495
16.0526
16.5266
16.6532
16.4845
2.87791
2.991
2.92121
2.84689
3.08325
2.85837
3.95191
3.94186
3.15352
3.33416
3.35392
3.46051
2.92798
2.97133
4.82447
5.06038
5.33246
4.83137
6.17403
6.82102
7.4035
7.08565
5.78842
5.86972
6.18655
3.50434
3.5325
3.25049
3.70667
3.75977
2.60971
2.23755
2.04227
2.56049
2.66363
2.04891
1.76816
1.81714
2.3302
2.05052
1.80493
14.9747
14.733
14.7544
14.5342
14.5888
14.9836
15.2045
15.0145
15.1529
15.2039
14.8031
14.6919
14.863
1.81807
1.49206
1.62266
1.58016
1.64157
1.54852
1.73574
7.60842
6.41435
6.80153
5.97836
4.12099
4.6413
9.54433
9.9666
10.0049
9.7177
9.50679
9.87226
9.72329
9.71658
8.26546
9.33768
8.87106
9.26995
9.29028
9.35885
9.07098
9.08042
10.5846
10.6179
9.48259
10.1231
9.33097
7.93173
8.09886
9.11231
10.086
10.4085
10.2527
9.98147
9.75299
10.1183
10.173
10.2335
10.2231
8.75214
8.71076
8.31056
13.9687
13.8754
14.022
14.027
14.1541
13.9785
13.8155
14.0928
14.1471
13.9313
11.0802
11.1394
11.385
12.1324
12.1844
12.0933
11.338
13.1031
12.7581
13.3968
13.3432
13.4148
13.0045
12.8281
13.0989
10.0804
11.453
10.9855
11.2493
10.063
9.30697
13.2236
13.2776
13.3434
13.6165
13.5741
14.1578
15.8299
15.6998
15.7471
15.7901
15.4018
15.4391
4.17358
3.82677
4.54654
4.50354
4.06205
3.7625
2.28696
1.96883
1.78154
1.65562
1.88872
1.94893
8.16117
8.19055
6.33243
7.35598
5.87641
4.93585
4.7922
5.95377
7.13533
7.19548
8.51695
9.1965
8.75439
8.58064
7.9227
8.25385
10.122
10.2157
10.1165
10.4352
9.9679
11.7151
11.2974
11.6463
13.2608
12.9698
12.3716
12.2583
12.2233
12.8167
11.9471
11.1783
11.8912
12.5476
12.5058
11.1206
10.8757
11.3022
11.2856
10.1994
10.7203
10.4823
10.8344
10.549
)
;

boundaryField
{
    wall-4
    {
        type            zeroGradient;
    }
    velocity-inlet-5
    {
        type            zeroGradient;
    }
    velocity-inlet-6
    {
        type            zeroGradient;
    }
    pressure-outlet-7
    {
        type            fixedValue;
        value           uniform 0;
    }
    wall-8
    {
        type            zeroGradient;
    }
    frontAndBackPlanes
    {
        type            empty;
    }
}


// ************************************************************************* //
