/*--------------------------------*- C++ -*----------------------------------*\
  =========                 |
  \\      /  F ield         | OpenFOAM: The Open Source CFD Toolbox
   \\    /   O peration     | Website:  https://openfoam.org
    \\  /    A nd           | Version:  9
     \\/     M anipulation  |
\*---------------------------------------------------------------------------*/
FoamFile
{
    format      ascii;
    class       volScalarField;
    location    "0.25";
    object      p;
}
// * * * * * * * * * * * * * * * * * * * * * * * * * * * * * * * * * * * * * //

dimensions      [0 2 -2 0 0 0 0];

internalField   nonuniform List<scalar> 
918
(
65.2952
49.4581
3.03389
63.8893
1.04606
48.6672
23.1845
38.6228
60.5729
15.6416
10.1285
47.6681
45.9078
40.8538
36.3711
4.16146
41.7883
17.1475
58.2201
4.41439
36.0553
62.5532
62.4944
59.2489
44.7593
36.6506
43.2229
1.69947
-0.0162708
0.929363
1.25642
1.30776
2.15519
47.2219
47.8684
47.983
52.6963
29.9886
24.8256
25.2356
22.8717
21.4436
38.8711
39.2573
31.24
38.2978
38.0543
56.1327
60.1194
60.5307
60.6926
60.3032
61.6214
17.7393
16.1232
16.4395
15.2261
14.6217
11.3569
10.7325
11.2622
9.58414
9.0484
48.0964
48.1585
48.6813
47.2087
46.6168
48.1062
47.4652
47.8278
46.4114
46.7161
45.4059
44.8959
41.3992
41.889
40.3213
39.7533
35.8467
35.6417
36.857
37.1496
0.214417
4.77326
5.35422
42.0614
42.4452
41.4072
41.158
22.7728
18.4363
18.4738
57.5765
57.2906
61.8289
61.4589
61.0448
60.5571
5.03085
5.6281
1.87413
3.91313
3.39763
36.5564
36.9339
58.5584
58.2863
46.0194
45.374
45.6665
42.5674
45.0674
44.452
39.0208
39.2205
37.9492
38.6152
42.6217
42.0683
43.8105
44.3879
0.398292
0.325527
3.65839
2.67574
3.14043
52.1402
51.481
52.9138
53.2348
53.8212
30.2045
30.4845
29.9216
29.7586
26.9813
27.3287
19.6838
21.1825
19.8698
27.6144
39.5659
39.8737
28.8673
30.8732
29.3652
32.6304
33.4453
54.259
55.5712
54.8687
57.7464
56.807
57.2872
60.8255
60.0347
60.9374
18.4569
19.1172
16.9705
16.2527
17.305
16.6129
16.7688
14.026
13.5694
12.0263
12.5245
10.7273
10.0934
13.0623
11.9236
12.5132
8.50621
7.87215
47.4588
46.8741
48.767
49.3343
50.6775
50.1388
49.2786
49.7299
43.8405
44.3863
44.3822
43.8869
32.8665
29.3105
37.5768
37.7805
0.698319
0.466243
0.30462
1
0.62614
0.297857
7.58948
6.94824
5.94917
6.5386
42.7791
43.1869
23.1608
23.6981
22.2287
21.772
55.0821
55.7143
56.8225
56.2757
7.24025
6.29533
6.73067
37.7357
37.1238
37.4599
41.5893
40.4272
43.4283
44.1952
43.3916
43.8759
43.6938
39.4409
39.8574
44.9081
45.3218
44.9362
45.5071
46.8796
46.5191
45.9607
49.8357
50.8739
50.439
54.3812
53.4922
53.9974
51.2335
52.3159
51.7621
30.5354
30.5571
28.7595
28.9999
29.5222
29.3106
27.2224
26.881
40.736
40.07
40.4565
35.1231
35.6186
15.4918
14.9159
44.9563
46.2665
45.6159
43.3301
42.426
43.4005
42.902
42.2785
42.7085
30.6669
30.3877
30.6656
38.6297
38.0885
38.3727
9.45866
8.2508
8.83385
24.0684
24.4967
19.7354
20.974
20.4505
40.1552
40.5323
41.4716
40.3909
40.9462
41.5939
41.2648
27.9294
28.4711
28.269
26.4671
26.1538
39.4492
36.8819
37.7356
13.1377
14.4024
13.7926
24.8055
25.7171
25.3325
58.5889
59.303
1.09087
2.13391
60.0926
60.3838
1.08365
2.1791
37.6241
35.082
34.0351
56.938
55.6111
59.1073
16.2775
17.9922
10.5122
11.7753
9.39518
47.9778
48.5661
46.1299
1.38468
4.61658
4.88003
19.3087
58.7754
57.8764
59.2595
59.7718
59.6601
1.93665
1.65582
1.29921
4.40328
3.08475
3.94619
52.3276
52.2135
25.4962
59.2318
59.5148
59.4202
57.6934
58.9379
57.8205
4.11575
2.73074
3.61117
39.9923
43.5168
37.2271
36.3033
37.27
37.3324
37.0915
38.3705
37.9188
37.7687
38.2208
39.1498
38.036
33.9938
31.8679
35.5325
35.8326
56.4713
55.8967
55.3664
54.5869
57.5073
56.4833
58.6182
57.4722
58.3517
58.759
16.0335
15.5743
16.9573
16.9461
18.5193
19.5948
17.236
16.9202
14.0893
9.98561
9.63652
10.965
11.7013
11.5567
9.92726
11.3101
10.6753
9.12773
8.35541
11.0521
10.6356
11.168
48.1243
49.0261
47.5442
47.4095
48.9049
49.9465
46.8294
48.0486
47.5691
44.234
45.7794
45.0803
1.62627
2.16648
1.709
5.04449
5.84244
3.63063
3.2685
4.12196
3.33421
3.0595
5.16536
6.08868
20.3318
20.4083
23.8206
21.9021
21.1918
55.7621
57.4378
56.6474
57.7234
58.5118
58.8523
58.4327
57.2627
52.6774
53.4763
51.7851
51.3013
25.4278
23.9684
26.1322
27.1913
30.2501
43.2785
43.2198
40.9552
41.9827
43.1472
36.3094
36.7109
36.6309
35.6319
35.5285
36.7994
36.3478
36.1226
35.4818
39.3398
39.7337
39.2734
38.6701
38.6874
30.9783
34.4033
29.7341
28.8695
30.9093
31.4265
36.5696
39.341
39.8757
37.6494
37.6267
38.7371
37.9874
38.3916
38.2741
38.6754
36.0547
39.651
37.3272
37.7822
41.1428
36.9635
37.3457
38.8526
54.2025
55.4708
54.5845
52.8356
54.2957
53.2339
52.7594
52.6945
56.1009
56.2287
55.3343
55.6509
15.09
14.1781
17.6676
19.5245
18.4929
18.1121
18.4941
18.5009
17.7332
21.0847
21.5453
18.744
19.9473
18.9456
20.3381
20.1811
20.5137
15.1228
14.5013
15.9186
15.3046
16.0278
15.3776
11.1926
11.7284
12.6403
11.3416
12.2946
13.4851
13.2071
9.43531
10.0692
8.99542
8.38413
13.0792
12.9039
12.3491
14.2055
4.82039
5.17182
5.57988
8.39919
7.92372
9.0757
50.7798
49.5156
50.1461
46.3681
47.0332
46.256
44.693
52.0333
50.94
51.2195
47.192
47.6778
46.619
47.0153
48.0884
48.2515
52.2813
51.8502
48.4621
49.0112
47.8412
47.8686
45.8689
45.7565
44.9624
4.06563
3.3514
3.69892
3.96068
3.01242
3.27086
7.88599
6.30344
7.60435
6.49578
6.96242
4.6267
4.56402
21.4632
21.3511
23.8359
21.5954
21.8737
24.0386
24.6053
22.3827
22.0246
22.8483
23.3685
23.159
20.235
21.2856
20.9907
27.7536
26.2592
56.853
56.5979
56.1144
56.2087
56.1575
26.5369
28.0832
28.1887
29.727
30.1039
30.0885
27.9264
26.4876
26.8412
27.6234
42.7506
42.6566
43.4
43.5731
43.9028
40.9534
40.7569
40.7843
42.8564
42.9491
42.5923
42.3516
42.3832
42.7134
42.2957
42.2557
43.5088
42.5872
42.1412
42.2246
47.2767
46.888
47.4911
45.9371
46.5292
43.5209
45.0844
45.8394
45.2433
44.0309
43.7748
43.5092
43.7255
44.5483
45.1361
44.9064
29.1358
29.5634
30.4104
31.2643
30.2994
30.7872
30.5639
30.8007
30.6222
31.4599
31.0788
30.7593
33.0417
36.0668
36.2777
36.4093
37.3278
37.0478
36.5057
36.7573
36.9776
40.7732
40.1976
40.6444
37.0977
37.4917
37.016
37.3292
34.6158
34.045
32.9849
33.9928
32.4874
32.5852
35.7054
34.6936
34.2551
35.0863
40.5333
39.5551
40.1976
39.4656
38.1329
38.5384
39.3681
40.3376
40.9394
40.5105
37.7501
37.5525
37.877
38.1869
38.1438
38.5693
53.8253
54.3708
54.6604
54.5859
53.7216
53.9542
53.254
54.0537
54.9004
55.3322
55.1212
12.0037
12.4982
13.7247
12.8819
15.4126
15.8441
17.5306
17.2298
13.9766
14.7248
15.2612
15.0759
14.0073
13.6678
16.4642
16.8977
17.0777
16.9482
20.5979
20.2977
20.9246
21.0195
19.7555
19.059
19.4364
13.0246
12.6921
12.4548
13.1962
13.6119
9.93518
9.21536
8.61799
9.78366
10.5801
7.66583
6.66743
6.87943
7.55481
7.84904
7.31799
51.1223
50.3981
49.6568
49.2467
49.2649
50.409
51.188
50.9412
51.3628
50.7747
49.9346
49.5682
49.8651
6.58066
6.15547
6.3307
6.40979
6.07018
4.95727
5.05148
24.595
22.6001
22.6429
23.2877
22.7672
22.6565
27.997
27.8882
28.3848
26.5779
26.6044
26.9784
27.3499
27.2211
24.8485
26.1799
26.0109
24.8811
25.7726
25.4948
25.753
29.9267
31.4463
32.0542
29.4754
30.2816
32.4076
30.9049
31.6898
31.2022
31.9018
29.8646
29.9079
29.2237
28.7764
29.5227
29.0915
29.7451
29.5519
27.3315
28.3452
27.9592
41.713
42.0339
41.9458
41.3846
41.4521
44.5459
43.7847
43.9114
44.2636
44.6886
31.9214
31.9658
32.421
33.8702
34.3373
33.062
32.529
35.0917
35.0949
35.7748
36.0831
36.5006
36.1878
35.7624
36.0535
35.725
36.8119
35.9425
37.2073
36.7459
35.9755
38.9328
39.1592
39.0767
39.3175
39.7144
39.9306
52.9469
53.1792
52.9109
52.9956
51.83
51.9444
15.4092
14.888
16.3499
16.5676
16.0851
15.2928
7.94873
7.78638
7.51506
7.289
7.4739
7.75127
26.2407
25.8394
23.8275
24.7128
25.7927
24.0427
24.8203
24.4404
25.6875
26.1997
24.9667
24.8492
25.3269
24.3724
23.2205
23.8863
28.6079
29.239
28.9782
28.9336
28.4711
32.8065
32.1758
32.9353
35.2412
34.6266
33.2919
33.2452
34.0033
34.8377
35.1682
34.7888
35.3013
35.7189
35.6775
31.9477
31.32
32.2585
32.1627
30.3278
31.0538
30.5731
31.2837
30.8267
)
;

boundaryField
{
    wall-4
    {
        type            zeroGradient;
    }
    velocity-inlet-5
    {
        type            zeroGradient;
    }
    velocity-inlet-6
    {
        type            zeroGradient;
    }
    pressure-outlet-7
    {
        type            fixedValue;
        value           uniform 0;
    }
    wall-8
    {
        type            zeroGradient;
    }
    frontAndBackPlanes
    {
        type            empty;
    }
}


// ************************************************************************* //
