/*--------------------------------*- C++ -*----------------------------------*\
  =========                 |
  \\      /  F ield         | OpenFOAM: The Open Source CFD Toolbox
   \\    /   O peration     | Website:  https://openfoam.org
    \\  /    A nd           | Version:  9
     \\/     M anipulation  |
\*---------------------------------------------------------------------------*/
FoamFile
{
    format      ascii;
    class       volScalarField;
    location    "1.37";
    object      nut;
}
// * * * * * * * * * * * * * * * * * * * * * * * * * * * * * * * * * * * * * //

dimensions      [0 2 -1 0 0 0 0];

internalField   nonuniform List<scalar> 
2268
(
4.0944e-05
5.02368e-05
6.46497e-05
7.46998e-05
8.22321e-05
8.79576e-05
9.22349e-05
9.52921e-05
9.73099e-05
9.84655e-05
9.89063e-05
9.8748e-05
9.85022e-05
9.83047e-05
9.81603e-05
9.83805e-05
9.94077e-05
0.000100948
0.000101886
0.000100713
9.54173e-05
8.24799e-05
5.68779e-05
9.42502e-05
0.000448892
0.000639253
0.000755304
0.000832233
0.000883712
0.000916359
0.000934156
0.000940241
0.000937854
0.000929958
0.000917012
0.000895495
0.000877568
0.000863841
0.000856713
0.000863773
0.000877602
0.000882583
0.000859793
0.000780915
0.000593054
0.000174347
0.000114618
0.000738169
0.00115578
0.00142692
0.0016104
0.00173443
0.00181386
0.00185759
0.0018724
0.00186519
0.00184269
0.00180894
0.00176604
0.00172804
0.00169977
0.00168461
0.00168683
0.00169423
0.0016814
0.0016145
0.00144078
0.00105863
0.000202596
0.00013056
0.000918828
0.0015065
0.00190977
0.00219293
0.00239086
0.00252313
0.00260177
0.00263598
0.0026354
0.00261009
0.00256833
0.00251717
0.00247125
0.00243777
0.0024195
0.00241509
0.00240831
0.00236894
0.00225335
0.00198948
0.00143175
0.000227006
0.000144037
0.00104874
0.0017616
0.0022674
0.00263242
0.00289496
0.00307718
0.00319278
0.00325236
0.00326741
0.00325061
0.00321357
0.00316669
0.00312362
0.00309281
0.00307507
0.00306429
0.0030414
0.00297396
0.00281181
0.00246605
0.00174912
0.000252416
0.000156131
0.00115448
0.00196667
0.00255333
0.00298392
0.00330002
0.0035258
0.00367609
0.0037624
0.00379763
0.00379648
0.0037728
0.00373896
0.00370632
0.00368334
0.00366858
0.00365256
0.00361461
0.00352164
0.00331884
0.00290135
0.00203756
0.000280974
0.000167516
0.00124924
0.00214695
0.00280039
0.00328434
0.00364442
0.00390694
0.00408783
0.00419948
0.00425608
0.00427396
0.00426831
0.00425207
0.00423525
0.0042228
0.00421242
0.00419259
0.00414224
0.00402882
0.00379433
0.00331927
0.002321
0.000313922
0.000178702
0.00134099
0.00231644
0.00302749
0.00355616
0.00395278
0.00424606
0.00445316
0.0045874
0.00466442
0.00470206
0.00471609
0.00471912
0.00471968
0.00472017
0.00471501
0.00469265
0.00463321
0.00450591
0.00425172
0.00374211
0.00264085
0.00036007
5.13187e-05
9.68571e-05
0.000119858
0.000130527
0.000130222
0.000123325
0.000115504
0.000110792
0.000110473
0.000113556
0.000115858
0.000114776
0.000111371
0.00010529
9.77817e-05
8.97522e-05
8.32645e-05
7.69804e-05
8.79436e-05
0.000196008
0.000757812
0.00108959
0.00125606
0.00126775
0.00119666
0.00108346
0.00100636
0.000971584
0.000991039
0.00101491
0.00100405
0.000983196
0.000928129
0.00084445
0.0007434
0.00069358
0.0005514
0.00019573
0.000239699
0.0012241
0.00197774
0.00240027
0.00248469
0.00236593
0.0021765
0.00203706
0.00197848
0.00200252
0.00200499
0.00195467
0.00189105
0.00178633
0.00163112
0.00144182
0.00128136
0.000913225
0.000225099
0.000275593
0.0015241
0.00263355
0.00329003
0.00346424
0.00333643
0.00310826
0.00293664
0.00288002
0.00291713
0.0028903
0.00278673
0.00267862
0.00253116
0.0023213
0.00205749
0.0017835
0.00122199
0.000249064
0.000311002
0.00174278
0.00316526
0.00402197
0.00427717
0.00415668
0.00390928
0.00372198
0.00367318
0.00371115
0.0036625
0.00350891
0.00336108
0.00317818
0.00292588
0.00260326
0.0022324
0.00151325
0.000270811
0.000353437
0.00191451
0.00363818
0.00466727
0.00498482
0.00487489
0.00461511
0.00441823
0.00436838
0.00438769
0.00432116
0.00413813
0.00395398
0.00374134
0.00345597
0.00308741
0.00263223
0.00177931
0.000292788
0.00041236
0.00207746
0.00409633
0.00526635
0.00562052
0.00551842
0.00524728
0.00503888
0.00497165
0.00495856
0.00487356
0.00468326
0.004469
0.00422784
0.00391795
0.00351285
0.00298314
0.00200494
0.000315942
0.000492188
0.00233812
0.00459312
0.00584505
0.00620329
0.00610077
0.00581823
0.00559108
0.005491
0.00543799
0.00533297
0.00514332
0.00491664
0.00464415
0.00431062
0.00388015
0.00329023
0.002207
0.000338568
0.000192207
0.00147947
0.00256483
0.00335458
0.00394279
0.00438745
0.00472131
0.00496375
0.00512994
0.00523784
0.00530704
0.00535302
0.00538671
0.00541402
0.00543455
0.00544131
0.00542041
0.00535215
0.00521448
0.00495239
0.00445
0.00344962
0.00148566
0.000211948
0.00167678
0.00290537
0.00378911
0.00444342
0.00493836
0.005313
0.00558991
0.00578631
0.00592335
0.00602334
0.00610037
0.00616279
0.006214
0.00625201
0.00627038
0.00625811
0.00619887
0.00606633
0.00583108
0.00541613
0.00468269
0.0034842
0.00023174
0.00186748
0.00324554
0.00421906
0.00493019
0.00546436
0.00586932
0.00617155
0.00638896
0.00654363
0.00666061
0.0067527
0.00682759
0.00688872
0.00693415
0.00695903
0.00695526
0.00691184
0.00681474
0.00664009
0.00636101
0.00593924
0.00541315
0.000252582
0.00201793
0.00357565
0.00463924
0.00539831
0.00595635
0.00637958
0.00669979
0.00693592
0.00710483
0.00722937
0.00732129
0.00739228
0.00745065
0.00749608
0.00752474
0.00753047
0.00750697
0.00745068
0.00735785
0.0072138
0.00703344
0.00688433
0.000279172
0.00212287
0.00390654
0.00505844
0.00585406
0.00640166
0.0068234
0.00714954
0.00740219
0.00759931
0.00773636
0.00781886
0.00787093
0.00791706
0.00795985
0.00799307
0.00801041
0.00800975
0.00799687
0.0079831
0.00795744
0.00793074
0.00794792
0.000314492
0.00252361
0.00429589
0.00541158
0.00618623
0.00676231
0.00716515
0.00749173
0.00776078
0.00798839
0.00815483
0.00824531
0.00827602
0.00830448
0.00834892
0.00839126
0.00842079
0.00843867
0.00846567
0.00851092
0.00856596
0.0086278
0.00872299
0.000337463
0.00259779
0.00439037
0.0055364
0.00634984
0.00693978
0.0073832
0.00773021
0.00801194
0.00824715
0.0084216
0.00853236
0.00858201
0.00860341
0.00865806
0.00870645
0.00875324
0.00880219
0.00886374
0.00894533
0.00906165
0.00920494
0.00935974
0.000332793
0.00255101
0.00435025
0.00555856
0.00641599
0.00705032
0.00752935
0.00789175
0.00818081
0.00841326
0.00858188
0.0086955
0.00876367
0.00881333
0.00887932
0.00894949
0.0090249
0.00910716
0.00919996
0.00932618
0.00950063
0.00970586
0.00988991
0.000317811
0.00246339
0.00427001
0.00554461
0.00646028
0.00712523
0.00761767
0.0079907
0.00828757
0.00852037
0.00868882
0.00880778
0.00889414
0.00897145
0.00905565
0.00915201
0.00925135
0.00936033
0.0094882
0.00965767
0.00987697
0.0101101
0.0102756
0.000308495
0.0024147
0.00422899
0.00553818
0.00648483
0.00716416
0.00766369
0.00804529
0.0083475
0.0085818
0.00875731
0.00888593
0.00898712
0.00909078
0.00920298
0.0093225
0.00944422
0.00957825
0.00973574
0.00993216
0.0101594
0.0103627
0.0105099
0.000305014
0.0023987
0.0042194
0.00553933
0.00648758
0.0071689
0.0076724
0.00805823
0.00836216
0.00860035
0.00878493
0.00892994
0.00904682
0.00917011
0.00931124
0.00945994
0.00961176
0.00977038
0.00994467
0.0101441
0.0103572
0.010551
0.0107082
0.000304121
0.00239808
0.0042168
0.00552451
0.00645877
0.00713501
0.00763798
0.00802516
0.00833169
0.00857675
0.00877426
0.00893779
0.00908006
0.00922358
0.0093838
0.00955944
0.00974066
0.00992406
0.0101145
0.0103217
0.0105312
0.0107267
0.0108946
0.000303318
0.00238933
0.00418988
0.00547352
0.0063889
0.00705467
0.00755368
0.00794124
0.00825228
0.00850795
0.00872326
0.00891141
0.00908476
0.00925768
0.00944112
0.00963765
0.00984117
0.0100475
0.0102577
0.0104721
0.0106817
0.0108771
0.011049
0.000300253
0.00235967
0.0041279
0.0053796
0.0062718
0.00692381
0.00741704
0.00780517
0.00812288
0.00839243
0.00862933
0.00884603
0.00905294
0.00925932
0.00947176
0.00969215
0.00991707
0.0101424
0.0103657
0.0105838
0.0107911
0.0109821
0.01115
0.000294191
0.0023051
0.00402645
0.00523996
0.00610608
0.00674303
0.00723005
0.00761949
0.00794557
0.00823082
0.00849076
0.00873666
0.00897667
0.0092164
0.00945891
0.00970424
0.00994928
0.0101898
0.0104217
0.0106408
0.0108432
0.0110252
0.0111814
0.000285
0.00222651
0.00388704
0.00505697
0.00589495
0.00651679
0.00699808
0.0073896
0.00772483
0.00802605
0.00830826
0.00858143
0.00885169
0.00912193
0.00939247
0.00966138
0.0099248
0.010178
0.0104161
0.0106347
0.0108303
0.0109997
0.0111388
0.000272759
0.00212696
0.00371454
0.0048368
0.00564587
0.00625274
0.00672929
0.00712358
0.00746801
0.00778425
0.00808653
0.00838363
0.00867999
0.00897654
0.00927159
0.0095615
0.00984135
0.0101057
0.010349
0.0105666
0.0107545
0.0109103
0.0110305
0.000257623
0.00200887
0.0035146
0.00458788
0.00536889
0.00596179
0.00643497
0.00683272
0.00718608
0.00751584
0.00783541
0.00815253
0.00847041
0.00878862
0.00910406
0.00941183
0.00970604
0.00998041
0.0102289
0.0104459
0.0106274
0.0107711
0.0108745
0.000240711
0.0018633
0.00328947
0.00431955
0.00507635
0.00565821
0.00612971
0.00653203
0.0068942
0.00723604
0.00757017
0.00790349
0.00823837
0.00857355
0.00890508
0.00922728
0.00953353
0.00981693
0.0100708
0.0102891
0.0104666
0.0106019
0.0106932
0.00022359
0.00170518
0.00305312
0.00404332
0.00478221
0.00535789
0.00583094
0.00624017
0.00661148
0.00696445
0.00731085
0.0076569
0.00800457
0.00835218
0.00869543
0.00902829
0.00934384
0.00963478
0.00989401
0.010115
0.0102921
0.0104237
0.0105084
0.00020653
0.00156063
0.0028317
0.00378651
0.00451179
0.00508523
0.00556181
0.00597833
0.00635918
0.00672316
0.00708012
0.0074358
0.00779244
0.00814807
0.00849849
0.00883783
0.00915922
0.00945536
0.00971902
0.0099435
0.0101229
0.0102547
0.0103381
0.000190661
0.00144575
0.00264641
0.00356945
0.00428504
0.00486026
0.00534412
0.00577054
0.0061619
0.00653483
0.0068995
0.00726175
0.00762415
0.00798339
0.00833619
0.00867732
0.00900033
0.00929819
0.00956393
0.00979103
0.00997366
0.0101079
0.0101936
0.000177235
0.00136505
0.0025084
0.00340566
0.00411612
0.00469724
0.00519198
0.00563082
0.00603418
0.00641674
0.00678815
0.00715398
0.00751644
0.00787431
0.00822452
0.00856259
0.00888252
0.00917764
0.00944172
0.00966871
0.00985312
0.00999043
0.0100799
0.000166921
0.00131366
0.00241753
0.00329838
0.00400964
0.00460105
0.00511002
0.00556356
0.00598016
0.00637266
0.00675002
0.00711761
0.00747779
0.00783034
0.00817307
0.00850235
0.00881338
0.00910064
0.00935848
0.00958143
0.00976451
0.0099036
0.00999681
0.000159515
0.00128333
0.00236597
0.0032415
0.00396027
0.00456634
0.0050925
0.00556261
0.00599337
0.0063959
0.00677857
0.00714656
0.00750252
0.00784697
0.0081787
0.0084952
0.00879288
0.00906748
0.00931436
0.0095289
0.00970689
0.00984478
0.00994015
0.000154283
0.00126707
0.00234353
0.00322379
0.00395613
0.00458053
0.00512613
0.00561414
0.00605954
0.00647206
0.00685953
0.00722704
0.00757752
0.00791215
0.00823068
0.00853171
0.00881294
0.00907136
0.00930354
0.00950589
0.00967503
0.00980808
0.00990299
0.000150475
0.00126029
0.00234125
0.00323359
0.00398377
0.00462887
0.00519519
0.00570179
0.00616159
0.00658376
0.00697557
0.00734203
0.00768634
0.00801029
0.0083145
0.00859865
0.00886162
0.00910166
0.00931655
0.0095038
0.00966096
0.00978581
0.00987672
0.000147579
0.00126001
0.00235249
0.00326154
0.00403198
0.00469879
0.0052861
0.00581084
0.00628415
0.00671515
0.0071106
0.00747543
0.00781313
0.00812603
0.00841553
0.00868227
0.00892622
0.00914678
0.00934289
0.00951315
0.009656
0.00976997
0.00985386
0.000145411
0.0012641
0.00237289
0.00330159
0.00409358
0.0047823
0.00538968
0.0059305
0.00641593
0.00685439
0.0072523
0.0076146
0.00794509
0.00824661
0.00852129
0.00877061
0.00899548
0.00919632
0.00937309
0.00952538
0.00965251
0.00975371
0.0098283
0.000143978
0.00127125
0.00240063
0.00335163
0.00416604
0.00487539
0.00550045
0.00605542
0.00655072
0.00699439
0.00739278
0.007751
0.00807322
0.0083628
0.00862252
0.00885458
0.0090607
0.00924214
0.00939973
0.0095339
0.00964475
0.00973219
0.009796
0.000143098
0.00128157
0.00243556
0.00341157
0.0042489
0.004978
0.00561871
0.00618482
0.0066866
0.00713213
0.00752803
0.00787979
0.00819204
0.0084687
0.00871309
0.00892805
0.00911594
0.00927869
0.00941781
0.00953442
0.00962925
0.00970276
0.0097552
0.000142802
0.00129743
0.00248187
0.00348678
0.00434815
0.00509544
0.00574843
0.00632121
0.00682462
0.00726738
0.00765674
0.00799879
0.00829874
0.00856103
0.00878949
0.00898744
0.00915773
0.00930277
0.00942457
0.00952474
0.00960451
0.00966476
0.0097061
0.000143251
0.0013237
0.00254867
0.00358755
0.00447328
0.00523563
0.00589557
0.0064687
0.0069673
0.00740135
0.00777911
0.00810748
0.00839226
0.0086384
0.00885013
0.0090311
0.00918447
0.00931298
0.00941894
0.00950429
0.00957055
0.00961892
0.00965022
0.000144773
0.00136819
0.00264826
0.00372604
0.00463458
0.00540653
0.00606598
0.00663135
0.00711731
0.00753568
0.00789606
0.00820626
0.0084727
0.00870071
0.00889479
0.00905876
0.00919594
0.0093092
0.00940101
0.00947344
0.00952818
0.00956658
0.00958958
0.000147972
0.00143966
0.00279099
0.00391102
0.00483907
0.00561368
0.00626385
0.00681226
0.00727691
0.00767207
0.00800893
0.00829628
0.00854107
0.00874889
0.00892432
0.00907122
0.00919289
0.00929218
0.00937153
0.00943304
0.00947844
0.00950909
0.00952596
0.000153797
0.00154113
0.00297686
0.00414297
0.00508874
0.00585986
0.00649206
0.00701402
0.00744842
0.00781265
0.00811978
0.00837958
0.00859939
0.0087849
0.00894062
0.00907023
0.00917688
0.00926325
0.00933166
0.00938411
0.00942223
0.00944733
0.00946032
0.000163413
0.00166346
0.00319506
0.00441845
0.00538561
0.00614911
0.00675471
0.00724031
0.00763515
0.0079606
0.0082318
0.00845938
0.00865091
0.00881193
0.00894667
0.00905852
0.00915031
0.00922443
0.00928299
0.00932777
0.00936027
0.00938166
0.00939275
0.000177947
0.00179466
0.0034432
0.00474703
0.00574241
0.00649214
0.0070595
0.00749663
0.00784151
0.00811999
0.00834909
0.00853994
0.00869994
0.00883423
0.00894657
0.00903986
0.0091165
0.00917852
0.00922771
0.00926557
0.00929342
0.00931225
0.00932274
0.0001988
0.00194245
0.00375543
0.00516933
0.00619012
0.00690752
0.00741628
0.00778836
0.00807128
0.00829449
0.00847574
0.00862581
0.0087514
0.00885688
0.00894532
0.009019
0.00907981
0.00912934
0.00916897
0.00919994
0.00922327
0.0092398
0.00925006
0.000229814
0.00214969
0.0042251
0.00576704
0.00677532
0.00741475
0.00783073
0.0081163
0.00832473
0.00848538
0.0086144
0.00872086
0.00881003
0.00888516
0.00894844
0.00900148
0.00904557
0.00908182
0.00911121
0.00913461
0.0091528
0.00916638
0.00917578
0.000285145
0.0025379
0.00506248
0.00667312
0.00754514
0.00801872
0.00829487
0.00847182
0.00859612
0.00869024
0.00876542
0.00882751
0.00887975
0.00892402
0.00896157
0.00899328
0.00901989
0.00904201
0.00906021
0.00907502
0.00908689
0.00909621
0.00910326
0.00041824
0.00372839
0.00687512
0.00807137
0.00850176
0.00868448
0.0087782
0.00883488
0.00887389
0.00890335
0.00892701
0.00894671
0.00896344
0.00897775
0.00899001
0.00900046
0.00900932
0.00901677
0.009023
0.00902816
0.00903241
0.00903588
0.00903868
0.000439117
0.000415231
0.000402932
0.000418334
0.00272312
0.00269135
0.00292538
0.00330473
0.00524316
0.00528978
0.00549051
0.00579818
0.0069269
0.00701201
0.00716815
0.00740262
0.00804381
0.0081411
0.00827293
0.00837805
0.00882559
0.00890027
0.00898405
0.00903224
0.00944724
0.00949166
0.00952065
0.00954467
0.00995197
0.00996494
0.00996774
0.00998099
0.0103089
0.0103171
0.0103256
0.0103412
0.010561
0.0105889
0.0106165
0.0106485
0.0107807
0.0108266
0.0108728
0.0109249
0.0109807
0.0110375
0.0110928
0.0111503
0.0111408
0.0112014
0.0112578
0.0113103
0.0112394
0.0112972
0.0113487
0.0113928
0.0112616
0.0113111
0.011353
0.0113855
0.0112053
0.0112436
0.0112731
0.0112925
0.0110823
0.011109
0.0111263
0.0111333
0.0109136
0.0109306
0.0109379
0.0109349
0.0107233
0.0107335
0.010734
0.0107243
0.0105338
0.0105405
0.0105374
0.0105244
0.0103626
0.0103686
0.0103647
0.010351
0.0102203
0.0102276
0.0102249
0.0102127
0.0101105
0.0101203
0.0101204
0.0101111
0.0100318
0.0100446
0.010048
0.0100423
0.00997882
0.00999425
0.0100007
0.00999842
0.00994355
0.0099607
0.00996938
0.00996984
0.00991744
0.00993518
0.00994501
0.00994721
0.00989242
0.00990958
0.00991956
0.00992244
0.00986276
0.00987807
0.00988699
0.00988959
0.00982498
0.00983748
0.00984435
0.00984565
0.00977793
0.00978705
0.00979123
0.0097905
0.00972246
0.00972805
0.00972928
0.0097262
0.00966072
0.00966305
0.00966152
0.00965616
0.00959531
0.00959504
0.00959132
0.00958417
0.0095284
0.00952646
0.00952144
0.00951334
0.00946114
0.00945861
0.00945335
0.00944532
0.00939347
0.00939136
0.00938688
0.00937998
0.00932444
0.00932348
0.00932056
0.00931561
0.00925312
0.00925356
0.00925251
0.00924987
0.00917972
0.00918125
0.00918178
0.00918123
0.00910685
0.00910865
0.0091099
0.00911057
0.00904027
0.00904116
0.00904188
0.00904244
0.00149865
0.00346233
0.00554456
0.00672392
0.00702883
0.00691614
0.00662375
0.00635524
0.00618731
0.0060681
0.00593051
0.00573932
0.00550208
0.00520209
0.00482689
0.00435581
0.00369698
0.00248704
0.000364554
0.00423082
0.00549012
0.00708999
0.00798421
0.00804423
0.00783331
0.00748467
0.00712483
0.00686277
0.00666794
0.00648319
0.00627039
0.00600517
0.00566836
0.0052452
0.0047076
0.00396393
0.00268041
0.000399889
0.00641746
0.00706872
0.00822515
0.00901726
0.00889629
0.00855745
0.00811346
0.00766628
0.00734682
0.00710839
0.00686904
0.00660147
0.00628279
0.00588209
0.00537842
0.00474765
0.00394534
0.00263393
0.000418432
0.00783123
0.00823127
0.00905292
0.00966349
0.00954656
0.00911828
0.00857511
0.00804706
0.00767537
0.00742077
0.00713548
0.00679196
0.00637979
0.00587329
0.00523524
0.00444121
0.00355588
0.00233051
0.000398581
0.00854259
0.00908545
0.00972852
0.0101857
0.0101026
0.00959454
0.00895872
0.00837559
0.00796015
0.00764747
0.00732532
0.00692611
0.00640976
0.00574467
0.00490311
0.00389117
0.00283206
0.00177699
0.000360899
0.00915122
0.009703
0.0102693
0.0105861
0.0103819
0.00986359
0.00925337
0.00868323
0.00822828
0.00786359
0.00751096
0.00708669
0.00650162
0.00569723
0.00463869
0.00332376
0.0020027
0.00110732
0.000322064
0.00965999
0.0100899
0.0105831
0.0107651
0.0105101
0.0100594
0.00950041
0.00894034
0.00845427
0.00805382
0.00768891
0.00728456
0.00670927
0.00589584
0.00481577
0.00329323
0.00186061
0.000886664
0.000276652
0.0100667
0.0103223
0.0106754
0.0108495
0.0106464
0.0102275
0.00968636
0.00913164
0.00862626
0.00819588
0.0078063
0.0073846
0.0068449
0.00615576
0.00520983
0.00381203
0.00227478
0.0011195
0.000265339
0.0104231
0.0105787
0.0107999
0.0109717
0.0107963
0.01038
0.00983244
0.00926343
0.0087427
0.00828086
0.00784424
0.00737316
0.00681666
0.00614908
0.00526971
0.00424575
0.00305772
0.00164571
0.000299387
0.0107556
0.0109128
0.0110753
0.0111532
0.0109471
0.0105082
0.00995406
0.00937228
0.0088289
0.00833263
0.00784756
0.00732361
0.00672885
0.00607056
0.00538693
0.00451256
0.00347743
0.00212271
0.000326874
0.0110645
0.0112376
0.011332
0.0112557
0.0110005
0.0105892
0.0100523
0.00946779
0.00890376
0.00836915
0.00783425
0.00726193
0.00663508
0.00597796
0.00534043
0.00456011
0.00354585
0.00217493
0.000313798
0.0112863
0.0114044
0.011396
0.0112568
0.0109834
0.010607
0.0101162
0.00954949
0.00897418
0.008407
0.00783089
0.00721719
0.00655929
0.00588247
0.00519569
0.004412
0.00341441
0.00204033
0.000288005
0.0114171
0.0114666
0.0113941
0.0112298
0.0109544
0.0105856
0.0101249
0.00959136
0.00902511
0.00843852
0.00783248
0.00719163
0.00651231
0.00580599
0.005064
0.00422823
0.00319906
0.00184492
0.000275411
0.0114722
0.0114715
0.0113599
0.0111724
0.0108896
0.010521
0.0100754
0.00956583
0.00901704
0.00843733
0.00782323
0.00717555
0.00649055
0.00576923
0.00499474
0.00412119
0.00307098
0.00173907
0.000269932
0.0114377
0.0114013
0.0112653
0.0110594
0.0107699
0.010402
0.00996749
0.00947917
0.00895278
0.00839483
0.00780039
0.00716526
0.00649395
0.00577993
0.00500303
0.0041224
0.00306639
0.00173358
0.000270477
0.011318
0.0112541
0.011102
0.0108849
0.0105939
0.0102322
0.00981219
0.00934776
0.00884973
0.00832318
0.00776393
0.00716492
0.00652382
0.00583651
0.00508006
0.00421164
0.00315519
0.0017966
0.000274388
0.0111351
0.0110502
0.0108879
0.0106656
0.0103786
0.0100295
0.00963051
0.00919538
0.00873243
0.00824496
0.00772865
0.00717678
0.00658199
0.0059324
0.00520657
0.00435583
0.00329548
0.00189484
0.000279511
0.0109182
0.0108188
0.010651
0.0104289
0.0101507
0.00982036
0.0094489
0.00904864
0.00862619
0.00818226
0.00771247
0.00720962
0.0066642
0.00605959
0.00536351
0.00452578
0.00345267
0.00200115
0.00028469
0.0106954
0.0105877
0.0104196
0.0102028
0.00993825
0.00963141
0.0092922
0.00893042
0.00855077
0.00815115
0.00772728
0.00727088
0.00676976
0.00620298
0.00553346
0.00470025
0.0036034
0.00209321
0.000289568
0.0104889
0.0103787
0.010216
0.0100095
0.00976302
0.00948306
0.00917801
0.00885496
0.00851642
0.0081593
0.00777703
0.00736101
0.00689613
0.00635715
0.00570196
0.00486331
0.00373595
0.00216539
0.000293593
0.0103138
0.010207
0.0100544
0.00986262
0.0096374
0.00938544
0.00911352
0.00882634
0.00852461
0.00820453
0.00785802
0.0074743
0.00703617
0.00651459
0.00586347
0.00501171
0.00385111
0.00222548
0.000295904
0.0101778
0.0100799
0.00994042
0.00976599
0.00956307
0.00933791
0.00909583
0.00883968
0.00856886
0.00827885
0.00796094
0.00760116
0.00718047
0.00666695
0.00601177
0.00514182
0.00394786
0.00227443
0.000296824
0.0100816
0.00999545
0.0098708
0.0097145
0.00953294
0.00933176
0.00911504
0.00888439
0.00863821
0.00837131
0.00807411
0.00773124
0.00731959
0.00680654
0.00614157
0.00525087
0.00402563
0.00231268
0.00029701
0.0100195
0.00994592
0.0098363
0.00969728
0.00953492
0.00935417
0.00915819
0.00894769
0.00872034
0.00847021
0.00818683
0.00785356
0.00744521
0.00692726
0.00624915
0.00533744
0.0040846
0.00234042
0.000297379
0.00998199
0.00992051
0.00982488
0.00970135
0.00955549
0.00939162
0.00921217
0.00901717
0.00880364
0.00856494
0.00828973
0.00796042
0.00755106
0.00702483
0.00633233
0.00540113
0.00412538
0.0023577
0.000298002
0.0099588
0.00990778
0.00982432
0.00971409
0.00958205
0.00943187
0.0092654
0.00908205
0.00887826
0.00864671
0.00837533
0.00804585
0.00763193
0.00709675
0.00639019
0.00544229
0.00414899
0.00236579
0.000298051
0.00993997
0.00989722
0.00982382
0.00972464
0.00960394
0.00946478
0.00930841
0.00913368
0.00893646
0.00870886
0.00843825
0.00810597
0.00768569
0.00714117
0.00642283
0.00546183
0.00415677
0.00236611
0.000297165
0.00991725
0.00988039
0.00981481
0.00972452
0.00961301
0.00948265
0.00933411
0.00916569
0.00897274
0.0087469
0.00847518
0.0081388
0.00771173
0.00715855
0.00643101
0.00546133
0.00415035
0.0023596
0.000295458
0.00988485
0.00985151
0.00979157
0.00970812
0.00960387
0.00948048
0.00933798
0.00917417
0.00898392
0.00875853
0.00848481
0.00814411
0.00771089
0.00715073
0.00641675
0.0054429
0.00413176
0.00234726
0.000293179
0.00983983
0.00980789
0.00975152
0.00967301
0.00957424
0.00945618
0.00931827
0.00915779
0.00896923
0.00874364
0.00846781
0.00812334
0.00768535
0.00712046
0.00638323
0.00540938
0.00410354
0.0023312
0.0002904
0.00978227
0.00975001
0.00969535
0.00961996
0.00952499
0.00941075
0.0092761
0.00911788
0.00893031
0.00870426
0.00842663
0.00807939
0.00763836
0.00707122
0.00633391
0.00536393
0.00406813
0.00231337
0.000287184
0.00971485
0.00968082
0.00962645
0.00955263
0.00945988
0.00934795
0.00921524
0.00905825
0.00887098
0.00864432
0.00836532
0.00801638
0.00757404
0.00700696
0.00627239
0.00530946
0.00402709
0.00229337
0.000283859
0.00964168
0.00960524
0.00955023
0.00947678
0.00938488
0.00927381
0.00914164
0.00898468
0.00879689
0.00856926
0.00828913
0.00793935
0.00749713
0.00693202
0.0062024
0.00524876
0.00398161
0.00226992
0.000280723
0.00956721
0.00952868
0.0094728
0.00939915
0.00930712
0.00919563
0.00906255
0.00890423
0.0087148
0.00848552
0.0082041
0.00785391
0.00741279
0.00685107
0.00612799
0.00518509
0.00393399
0.00224428
0.00027746
0.00949516
0.00945582
0.00939982
0.00932619
0.00923368
0.00912085
0.00898554
0.00882435
0.00863185
0.00839983
0.00811654
0.00776593
0.00732642
0.00676901
0.00605364
0.0051225
0.00388765
0.00221874
0.000274447
0.00942762
0.00938953
0.00933512
0.0092627
0.00917029
0.00905589
0.00891737
0.00875184
0.0085547
0.00831858
0.0080325
0.00768105
0.00724332
0.0066909
0.00598427
0.00506584
0.00384707
0.0021957
0.000272835
0.00936454
0.00933023
0.00927993
0.00921096
0.00912034
0.00900511
0.00886301
0.00869199
0.00848871
0.00824708
0.00795714
0.00760433
0.00716842
0.00662167
0.00592504
0.00502076
0.00381825
0.00217998
0.00027313
0.00930391
0.00927588
0.00923254
0.00917015
0.00908421
0.00897017
0.00882503
0.00864787
0.00843731
0.008189
0.00789431
0.00753967
0.00710572
0.00656554
0.00588073
0.00499315
0.00380842
0.00217804
0.000276032
0.00924271
0.00922271
0.00918895
0.00913662
0.00905938
0.00895006
0.00880333
0.00862003
0.00840159
0.00814595
0.00784605
0.00748943
0.00705777
0.00652525
0.00585458
0.00498768
0.00382524
0.00220081
0.000282593
0.00917835
0.00916681
0.00914419
0.00910515
0.00904154
0.00894209
0.00879561
0.00860651
0.00838027
0.00811744
0.00781249
0.00745409
0.00702502
0.00650085
0.00584608
0.00500397
0.00387189
0.00226113
0.000294489
0.00911059
0.00910616
0.00909456
0.009071
0.00902659
0.00894461
0.00879812
0.00860327
0.00837008
0.00810114
0.00779205
0.0074323
0.00700563
0.00648892
0.00584869
0.00503084
0.00393616
0.00235808
0.000314449
0.00904306
0.00904256
0.00903963
0.00903199
0.00901361
0.00896469
0.00880499
0.00860415
0.0083663
0.00809366
0.0077821
0.00742147
0.00699603
0.00648332
0.0058503
0.0050422
0.00396135
0.00247202
0.000344325
)
;

boundaryField
{
    leftWall
    {
        type            nutkWallFunction;
        Cmu             0.09;
        kappa           0.41;
        E               9.8;
        value           nonuniform List<scalar> 
50
(
7.73074e-06
1.12262e-05
1.34818e-05
1.52243e-05
1.66822e-05
1.79789e-05
1.919e-05
2.0372e-05
2.17819e-05
2.38317e-05
2.58713e-05
2.80442e-05
3.08242e-05
3.54098e-05
3.88298e-05
3.84085e-05
3.65019e-05
3.52698e-05
3.48104e-05
3.46946e-05
3.45417e-05
3.40782e-05
3.32071e-05
3.19064e-05
3.01807e-05
2.80437e-05
2.56449e-05
2.32055e-05
2.07623e-05
1.84788e-05
1.65394e-05
1.50442e-05
1.39656e-05
1.31988e-05
1.2636e-05
1.22041e-05
1.18758e-05
1.1655e-05
1.15167e-05
1.14649e-05
1.15221e-05
1.1734e-05
1.21868e-05
1.30198e-05
1.44077e-05
1.65164e-05
1.95323e-05
2.39581e-05
3.16598e-05
4.93919e-05
)
;
    }
    rightWall
    {
        type            nutkWallFunction;
        Cmu             0.09;
        kappa           0.41;
        E               9.8;
        value           nonuniform List<scalar> 
50
(
1.70251e-05
2.21935e-05
2.5259e-05
2.77173e-05
2.99142e-05
3.21066e-05
3.43812e-05
3.65951e-05
3.91794e-05
4.28157e-05
4.55099e-05
4.3488e-05
3.96587e-05
3.5552e-05
3.09187e-05
3.07688e-05
3.40002e-05
3.7656e-05
3.59494e-05
3.23923e-05
3.06806e-05
2.99128e-05
2.99671e-05
3.0489e-05
3.11813e-05
3.18837e-05
3.25507e-05
3.30941e-05
3.34046e-05
3.35253e-05
3.36117e-05
3.39267e-05
3.39949e-05
3.3997e-05
3.38637e-05
3.36372e-05
3.33474e-05
3.29696e-05
3.25317e-05
3.20783e-05
3.16499e-05
3.11007e-05
3.06827e-05
3.05399e-05
3.06155e-05
3.09852e-05
3.18235e-05
3.33358e-05
3.58592e-05
3.94942e-05
)
;
    }
    lowerWall
    {
        type            nutkWallFunction;
        Cmu             0.09;
        kappa           0.41;
        E               9.8;
        value           nonuniform List<scalar> 
62
(
3.59581e-06
6.06694e-06
7.77793e-06
8.95487e-06
9.82903e-06
1.04899e-05
1.09823e-05
1.13343e-05
1.15679e-05
1.17031e-05
1.17558e-05
1.17414e-05
1.17217e-05
1.1703e-05
1.16898e-05
1.17238e-05
1.1855e-05
1.20427e-05
1.21545e-05
1.20187e-05
1.14086e-05
9.91828e-06
6.94482e-06
6.94482e-06
1.9969e-05
2.28517e-05
2.52915e-05
2.7824e-05
3.0688e-05
3.40119e-05
3.8666e-05
4.64284e-05
4.41223e-05
4.29797e-05
4.45466e-05
6.23246e-06
2.23201e-05
2.68302e-05
3.05053e-05
3.40738e-05
3.82423e-05
4.3888e-05
5.14737e-05
6.23246e-06
1.15273e-05
1.40431e-05
1.51566e-05
1.5082e-05
1.42914e-05
1.34431e-05
1.29777e-05
1.30482e-05
1.34702e-05
1.37368e-05
1.36003e-05
1.32108e-05
1.25233e-05
1.1678e-05
1.0776e-05
1.00297e-05
9.27474e-06
7.5635e-06
)
;
    }
    atmosphere
    {
        type            calculated;
        value           nonuniform List<scalar> 
46
(
0.009
0.009
0.009
0.009
0.009
0.009
0.009
0.009
0.009
0.009
0.009
0.009
0.009
0.009
0.009
0.009
0.009
0.009
0.009
0.009
0.009
0.009
0.009
0.009
0.009
0.009
0.009
0.009
0.009
0.009
0.009
0.009
0.009
0.00880499
0.00860415
0.0083663
0.00809366
0.0077821
0.00742147
0.00699603
0.00648332
0.0058503
0.0050422
0.00396135
0.00247202
0.000344325
)
;
    }
    defaultFaces
    {
        type            empty;
    }
}


// ************************************************************************* //
