/*--------------------------------*- C++ -*----------------------------------*\
  =========                 |
  \\      /  F ield         | OpenFOAM: The Open Source CFD Toolbox
   \\    /   O peration     | Website:  https://openfoam.org
    \\  /    A nd           | Version:  9
     \\/     M anipulation  |
\*---------------------------------------------------------------------------*/
FoamFile
{
    format      ascii;
    class       volVectorField;
    location    "9.36";
    object      U;
}
// * * * * * * * * * * * * * * * * * * * * * * * * * * * * * * * * * * * * * //

dimensions      [0 1 -1 0 0 0 0];

internalField   nonuniform List<vector> 
2268
(
(7.88797e-05 -1.78471e-05 0)
(5.08761e-05 5.52083e-05 0)
(-0.000177217 7.14407e-05 0)
(-0.000345648 4.69079e-05 0)
(-0.000428341 1.61771e-05 0)
(-0.00042368 -1.5309e-05 0)
(-0.000330241 -4.00195e-05 0)
(-0.000170273 -5.62379e-05 0)
(3.16232e-05 -6.61615e-05 0)
(0.000259385 -8.437e-05 0)
(0.000554959 -0.000119701 0)
(0.00101129 -0.000194188 0)
(0.00176805 -0.000315193 0)
(0.00294263 -0.000452992 0)
(0.00445041 -0.000523086 0)
(0.00596521 -0.00037991 0)
(0.00644472 6.88022e-05 0)
(0.00534731 0.0005153 0)
(0.00284449 0.00147801 0)
(-0.00302403 0.00192567 0)
(-0.00702503 0.000445439 0)
(-0.00690592 -0.000812498 0)
(-0.00354367 -0.00154127 0)
(-5.53962e-05 -4.27593e-05 0)
(-0.000115823 8.85248e-05 0)
(-0.000281199 0.000128862 0)
(-0.000439668 9.0132e-05 0)
(-0.000546891 3.22989e-05 0)
(-0.000595992 -2.90596e-05 0)
(-0.000581639 -8.04227e-05 0)
(-0.000517683 -0.000114692 0)
(-0.000418475 -0.000136919 0)
(-0.00028834 -0.000175555 0)
(-9.81537e-05 -0.000252928 0)
(0.000220344 -0.000409757 0)
(0.000758675 -0.000654235 0)
(0.00158348 -0.000914266 0)
(0.0026216 -0.00101312 0)
(0.00361657 -0.000659693 0)
(0.00383146 0.000282413 0)
(0.00278243 0.00125488 0)
(0.00113157 0.00263986 0)
(-0.00141437 0.00319368 0)
(-0.00324279 0.00119295 0)
(-0.00443975 -0.000879673 0)
(-0.0032814 -0.00351863 0)
(-0.000125254 3.33398e-05 0)
(-0.000208361 0.00014954 0)
(-0.000339542 0.00019345 0)
(-0.000487173 0.000152705 0)
(-0.000612749 7.99191e-05 0)
(-0.000705558 -3.01439e-06 0)
(-0.00075243 -7.91628e-05 0)
(-0.000758461 -0.000131767 0)
(-0.00073422 -0.000169597 0)
(-0.000681491 -0.000226247 0)
(-0.000580566 -0.000342864 0)
(-0.000384093 -0.000568672 0)
(-2.54928e-05 -0.0009115 0)
(0.000545462 -0.00127073 0)
(0.00128801 -0.00140121 0)
(0.00203581 -0.000885975 0)
(0.00218209 0.000474682 0)
(0.00124776 0.00180498 0)
(0.000207588 0.00320103 0)
(-0.000566375 0.0037221 0)
(-0.00130993 0.0017664 0)
(-0.00274478 -0.000570208 0)
(-0.00242327 -0.0050729 0)
(-0.000157766 0.000115498 0)
(-0.000265486 0.000210221 0)
(-0.000395863 0.000252422 0)
(-0.000547434 0.000215319 0)
(-0.000696701 0.000137027 0)
(-0.000831721 3.99427e-05 0)
(-0.000931631 -5.43551e-05 0)
(-0.000995165 -0.000121694 0)
(-0.00103288 -0.000171814 0)
(-0.00104792 -0.000243322 0)
(-0.00102981 -0.000388259 0)
(-0.000948632 -0.000664278 0)
(-0.000753935 -0.00108153 0)
(-0.000398913 -0.0015238 0)
(0.000117069 -0.0017 0)
(0.000735833 -0.00108258 0)
(0.000928087 0.000635012 0)
(0.000201807 0.00221913 0)
(-0.000433861 0.00342616 0)
(-0.000290793 0.00382469 0)
(-0.000317873 0.00216558 0)
(-0.00156719 -0.000175647 0)
(-0.00156176 -0.00608337 0)
(-0.000167381 0.000210853 0)
(-0.000299533 0.000282647 0)
(-0.000450056 0.000319779 0)
(-0.000618088 0.00028932 0)
(-0.000797303 0.00021251 0)
(-0.000975776 0.000106532 0)
(-0.00112443 -4.09642e-06 0)
(-0.00123713 -8.52965e-05 0)
(-0.00132744 -0.000145306 0)
(-0.0014023 -0.000227008 0)
(-0.00146072 -0.000389201 0)
(-0.00148838 -0.000697877 0)
(-0.00144697 -0.00116976 0)
(-0.00128986 -0.0016835 0)
(-0.000978903 -0.00192823 0)
(-0.00044685 -0.00129358 0)
(-0.000123191 0.000720745 0)
(-0.000559218 0.00251171 0)
(-0.000917364 0.0034385 0)
(-0.000353669 0.00363894 0)
(1.74215e-05 0.00237884 0)
(-0.000795008 0.000167341 0)
(-0.000596961 -0.00660408 0)
(-0.00016292 0.000314187 0)
(-0.000319999 0.000366643 0)
(-0.000501187 0.000398478 0)
(-0.000691986 0.000376554 0)
(-0.000904588 0.000306951 0)
(-0.00112752 0.000195656 0)
(-0.00132118 6.81986e-05 0)
(-0.00147509 -2.66554e-05 0)
(-0.00160879 -9.39179e-05 0)
(-0.00173429 -0.000180398 0)
(-0.00185946 -0.000348387 0)
(-0.00198476 -0.000671962 0)
(-0.00208337 -0.00117799 0)
(-0.00211259 -0.00174929 0)
(-0.00201426 -0.00208052 0)
(-0.00160307 -0.00153455 0)
(-0.00109906 0.000682113 0)
(-0.00114383 0.00267913 0)
(-0.00126126 0.00334425 0)
(-0.000590505 0.00332723 0)
(-9.18528e-05 0.00241886 0)
(-0.000171373 0.000193578 0)
(0.000865699 -0.00672293 0)
(-0.00015524 0.000436035 0)
(-0.000333487 0.000462955 0)
(-0.000548751 0.000489727 0)
(-0.000761505 0.000476988 0)
(-0.00100655 0.00041966 0)
(-0.00127324 0.000305455 0)
(-0.0015081 0.000158782 0)
(-0.00169562 4.94222e-05 0)
(-0.00186354 -2.27591e-05 0)
(-0.00202903 -0.000109001 0)
(-0.00220714 -0.000272359 0)
(-0.00241223 -0.000593464 0)
(-0.0026302 -0.00111218 0)
(-0.00282959 -0.00171987 0)
(-0.00295595 -0.00213563 0)
(-0.00278358 -0.00175802 0)
(-0.00215987 0.000465464 0)
(-0.00161675 0.00264828 0)
(-0.00140633 0.00322721 0)
(-0.000886079 0.00301548 0)
(-0.000315909 0.00221747 0)
(0.000604008 -0.000349592 0)
(0.00222186 -0.00647283 0)
(-0.000169289 0.000441568 0)
(-0.000358618 0.000566667 0)
(-0.000591893 0.000585557 0)
(-0.000819328 0.000581372 0)
(-0.00109119 0.0005436 0)
(-0.00139811 0.000429833 0)
(-0.00167076 0.000259445 0)
(-0.00188692 0.000134487 0)
(-0.0020817 6.1113e-05 0)
(-0.0022763 -2.04658e-05 0)
(-0.00248993 -0.00016946 0)
(-0.00274895 -0.000469966 0)
(-0.00305439 -0.000978643 0)
(-0.00339296 -0.00159324 0)
(-0.00373218 -0.0020666 0)
(-0.00389185 -0.00186324 0)
(-0.00333073 7.4695e-05 0)
(-0.00222014 0.00231546 0)
(-0.0014896 0.00305631 0)
(-0.000977745 0.00272732 0)
(-0.000145228 0.00170875 0)
(0.00162966 -0.00109912 0)
(0.00217013 -0.00544267 0)
(-0.0101949 0.00281195 0)
(-0.011843 -0.00020908 0)
(-0.00627562 -0.002142 0)
(0.00116645 -0.00179572 0)
(0.00573342 -0.00125925 0)
(0.00943407 -0.0010345 0)
(0.0119246 -0.000507758 0)
(0.0132896 -0.000296136 0)
(0.0140482 -0.000199924 0)
(0.0143622 -0.00038825 0)
(0.0145156 0.000441661 0)
(0.0102354 0.00273221 0)
(-0.00134814 0.00260232 0)
(-0.0060145 0.000253761 0)
(-0.00511278 -0.000340534 0)
(-0.0048314 -4.78783e-05 0)
(-0.00643295 0.000313405 0)
(-0.00847997 -0.000520878 0)
(-0.00319795 -0.00121867 0)
(-0.00948155 0.00653785 0)
(-0.00707393 -0.00106821 0)
(-0.00306679 -0.00415497 0)
(0.0018303 -0.0035786 0)
(0.00496751 -0.00253246 0)
(0.00721918 -0.00184399 0)
(0.00875203 -0.00112586 0)
(0.00993044 -0.000662879 0)
(0.0103347 -0.000169077 0)
(0.0094073 -1.44837e-05 0)
(0.0083314 0.00105295 0)
(0.00690537 0.0045892 0)
(0.00190892 0.00476101 0)
(-0.00117384 0.00124189 0)
(-0.00251246 -2.16522e-05 0)
(-0.00353404 0.000473728 0)
(-0.00609363 0.00141015 0)
(-0.00912544 -0.000662319 0)
(-0.00555276 -0.00401301 0)
(-0.00652463 0.00918978 0)
(-0.00338195 -0.00237676 0)
(-0.000455006 -0.00576783 0)
(0.00251455 -0.00484892 0)
(0.00446746 -0.00343699 0)
(0.00586797 -0.00241689 0)
(0.00684019 -0.00159394 0)
(0.00766144 -0.000932741 0)
(0.00774558 4.4252e-05 0)
(0.00640755 0.000640256 0)
(0.00446956 0.00161968 0)
(0.00368891 0.00507575 0)
(0.0027381 0.00563917 0)
(0.00126181 0.00213678 0)
(-0.000670372 0.00073351 0)
(-0.00246196 0.00138053 0)
(-0.00520189 0.00266913 0)
(-0.00829409 -0.000551834 0)
(-0.00551156 -0.00741135 0)
(-0.00289366 0.0107643 0)
(0.000334675 -0.00349402 0)
(0.00186243 -0.00671666 0)
(0.00313118 -0.00554943 0)
(0.00404734 -0.00396648 0)
(0.00475883 -0.00277009 0)
(0.0052742 -0.0018867 0)
(0.00578994 -0.00107202 0)
(0.0056971 0.000344475 0)
(0.00431799 0.0013756 0)
(0.00223975 0.00230868 0)
(0.00175718 0.00505865 0)
(0.00262533 0.00569963 0)
(0.00237557 0.00274432 0)
(0.000567377 0.00157936 0)
(-0.00136245 0.00238564 0)
(-0.00381353 0.0037891 0)
(-0.00635734 -0.000413724 0)
(-0.00379406 -0.0101094 0)
(0.00182139 0.0104682 0)
(0.00398274 -0.00418865 0)
(0.00373426 -0.00694536 0)
(0.00354405 -0.00573613 0)
(0.00358216 -0.00416333 0)
(0.00371165 -0.00291373 0)
(0.00382903 -0.00203456 0)
(0.00409004 -0.00113382 0)
(0.00394248 0.000661749 0)
(0.00272192 0.00205144 0)
(0.000970359 0.00288164 0)
(0.000740569 0.00482593 0)
(0.00217062 0.00533806 0)
(0.00248407 0.00310851 0)
(0.00112801 0.00229369 0)
(-0.000168612 0.00321598 0)
(-0.00184343 0.00470076 0)
(-0.0037895 -0.000415662 0)
(-0.00179971 -0.011856 0)
(0.00628334 0.00824589 0)
(0.00668302 -0.00424255 0)
(0.00484322 -0.00649799 0)
(0.00361145 -0.00549383 0)
(0.00298658 -0.00408072 0)
(0.00264951 -0.0028686 0)
(0.00242072 -0.00205283 0)
(0.00247163 -0.00115628 0)
(0.00237694 0.000934048 0)
(0.00143983 0.00261219 0)
(0.000159492 0.00326825 0)
(0.000230904 0.00451462 0)
(0.00169309 0.00487394 0)
(0.00203616 0.00333766 0)
(0.00109862 0.00272163 0)
(0.000819645 0.00358039 0)
(0.000547934 0.00525816 0)
(-0.000624766 -0.000355779 0)
(0.00020639 -0.0125561 0)
(0.00797422 0.00528111 0)
(0.00760333 -0.00378907 0)
(0.00502716 -0.00562769 0)
(0.00325695 -0.00496718 0)
(0.00220813 -0.00379522 0)
(0.00152906 -0.00266675 0)
(0.00100576 -0.00195124 0)
(0.000844699 -0.00116289 0)
(0.000880458 0.00110013 0)
(0.000366427 0.00301815 0)
(-0.000412283 0.00346091 0)
(-5.96805e-05 0.00416599 0)
(0.00130145 0.00445891 0)
(0.00151642 0.00352388 0)
(0.00092881 0.00283864 0)
(0.00158014 0.00337495 0)
(0.00274891 0.00527066 0)
(0.00265948 -0.000208557 0)
(0.0026356 -0.0120503 0)
(0.00703566 0.0010794 0)
(0.00677279 -0.0032728 0)
(0.004394 -0.00464417 0)
(0.00250093 -0.00429285 0)
(0.00123048 -0.00337156 0)
(0.00033525 -0.00234221 0)
(-0.00040329 -0.00173012 0)
(-0.000842578 -0.00111493 0)
(-0.000702042 0.00109891 0)
(-0.000591338 0.00317227 0)
(-0.000779235 0.00345705 0)
(-0.000203847 0.0037837 0)
(0.00103649 0.00408921 0)
(0.0012498 0.00362562 0)
(0.00118208 0.00264625 0)
(0.00231764 0.00280053 0)
(0.00430857 0.00465889 0)
(0.00541828 -4.43021e-05 0)
(0.00493873 -0.0104189 0)
(-0.000115539 0.000906617 0)
(-0.000366639 0.000698323 0)
(-0.000648755 0.000663677 0)
(-0.000885133 0.000683031 0)
(-0.00118206 0.000711455 0)
(-0.00153747 0.000615219 0)
(-0.00186497 0.000393434 0)
(-0.00212988 0.000242516 0)
(-0.00236531 0.000189381 0)
(-0.0025914 0.000128948 0)
(-0.00282888 2.32451e-05 0)
(-0.00311807 -0.000212324 0)
(-0.00348831 -0.000671524 0)
(-0.0039622 -0.00124476 0)
(-0.00453434 -0.00174608 0)
(-0.00501395 -0.00178051 0)
(-0.00477215 -0.000594839 0)
(-0.0035353 0.00137384 0)
(-0.00197857 0.00242134 0)
(-0.000554694 0.00212944 0)
(0.000779921 0.000817329 0)
(0.00225753 -0.00138791 0)
(0.000295791 -0.00286274 0)
(-0.000282768 0.000853214 0)
(-0.000483486 0.00138498 0)
(-0.000671067 0.00135751 0)
(-0.000833706 0.0013565 0)
(-0.00109564 0.00142721 0)
(-0.00144172 0.00132299 0)
(-0.00184565 0.00102347 0)
(-0.00227209 0.00080168 0)
(-0.00264263 0.000643098 0)
(-0.00290712 0.000482225 0)
(-0.0030849 0.000311748 0)
(-0.0032127 6.22572e-05 0)
(-0.00337846 -0.000355921 0)
(-0.00368956 -0.000850792 0)
(-0.00420062 -0.00134234 0)
(-0.00479636 -0.00165379 0)
(-0.00498309 -0.00140053 0)
(-0.00412605 -0.000500248 0)
(-0.00222559 0.000108203 0)
(3.81838e-05 -8.41776e-05 0)
(0.00176769 -0.000932441 0)
(0.00258801 -0.00180549 0)
(0.00186984 -0.00225374 0)
(-0.000208425 0.00219468 0)
(0.000509951 0.00176255 0)
(5.19443e-05 0.00132636 0)
(-0.00076128 0.00133434 0)
(-0.00104325 0.00168594 0)
(-0.000675281 0.00172794 0)
(-0.000594547 0.00140216 0)
(-0.00109922 0.0011502 0)
(-0.00168374 0.000878183 0)
(-0.00195844 0.000634228 0)
(-0.00196432 0.000385733 0)
(-0.00176742 8.42273e-05 0)
(-0.00161765 -0.000246942 0)
(-0.00172856 -0.000559104 0)
(-0.00215061 -0.000833998 0)
(-0.00287189 -0.00112046 0)
(-0.00343797 -0.0013257 0)
(-0.00289039 -0.00140203 0)
(-0.00109161 -0.00149193 0)
(0.0011458 -0.00159911 0)
(0.00287636 -0.00171568 0)
(0.00356301 -0.00171525 0)
(0.00298373 -0.00156616 0)
(-0.00337916 -0.000890709 0)
(0.00234243 0.000650927 0)
(0.000410193 0.00102419 0)
(-0.00497235 0.00130619 0)
(-0.00605573 0.00107981 0)
(-0.00219464 0.000941216 0)
(-0.000136929 0.00110119 0)
(-0.000676318 0.00130937 0)
(-0.00150659 0.000892446 0)
(-0.00169544 0.00063791 0)
(-0.00140806 0.0002829 0)
(-0.000805293 -7.63183e-05 0)
(-0.000766788 -0.000128315 0)
(-0.00131843 -0.000341363 0)
(-0.00168999 -0.000397717 0)
(-0.00173121 -0.000511133 0)
(-0.00150918 -0.000989402 0)
(-0.000639792 -0.0016726 0)
(0.000120129 -0.00210056 0)
(0.000860467 -0.0022274 0)
(0.00229585 -0.0018094 0)
(0.00369027 -0.00141772 0)
(0.00328701 -0.000860259 0)
(-0.00620041 0.00541818 0)
(-0.00355842 -0.00513472 0)
(-0.0131199 0.0117182 0)
(-0.033292 0.0152904 0)
(-0.0322912 -0.0060385 0)
(-0.0238083 -0.00714531 0)
(-0.0184966 -0.000282491 0)
(-0.0165495 0.00384271 0)
(-0.0147381 0.00170095 0)
(-0.0120799 0.000227646 0)
(-0.00911353 -0.00125588 0)
(-0.00573614 -0.00177266 0)
(-0.00240725 0.000394855 0)
(1.57791e-05 0.000689608 0)
(0.0030641 9.60327e-05 0)
(0.00699996 -0.00104939 0)
(0.00925589 -0.00250332 0)
(0.00875874 -0.00526647 0)
(0.00548014 -0.00341444 0)
(-0.000188059 -0.00551982 0)
(-0.00283031 -0.00660583 0)
(-0.000293646 -0.00417085 0)
(-0.00104239 0.00514803 0)
(0.000911738 0.0087042 0)
(-0.00622401 0.00330632 0)
(-0.00912266 0.0231126 0)
(-0.00259184 0.0226966 0)
(-0.00206657 -0.00963366 0)
(-0.0131912 -0.00940464 0)
(-0.0176558 -0.00325215 0)
(-0.016489 -0.000660255 0)
(-0.0142996 -0.00322952 0)
(-0.0136354 -0.00349386 0)
(-0.0137786 -0.00411865 0)
(-0.0134135 -0.00565707 0)
(-0.0104649 -0.00471081 0)
(-0.00593753 -0.00434001 0)
(-0.0024916 -0.00590956 0)
(-0.00157331 -0.00531476 0)
(-0.00382553 -0.000944926 0)
(-0.00750056 0.00112148 0)
(-0.00873601 0.00485475 0)
(-0.00940963 0.00449645 0)
(-0.0118173 -0.00198217 0)
(-0.0134547 -0.0038354 0)
(-0.0118595 0.00572201 0)
(0.00102934 0.0109914 0)
(-0.00530648 0.007752 0)
(-0.00732944 0.0167869 0)
(-0.000413541 0.0144142 0)
(-0.00236639 0.00146769 0)
(-0.0101101 0.00230122 0)
(-0.0128282 0.000916331 0)
(-0.0134966 -0.00132992 0)
(-0.0138249 -0.00250734 0)
(-0.0142761 -0.00224697 0)
(-0.0146011 -0.00315638 0)
(-0.0143831 -0.00663666 0)
(-0.0125936 -0.00890263 0)
(-0.00985049 -0.00842654 0)
(-0.00804008 -0.00712092 0)
(-0.00774508 -0.00341967 0)
(-0.00842624 0.00198733 0)
(-0.0099163 0.00230625 0)
(-0.0112431 0.000705499 0)
(-0.0119814 0.00178644 0)
(-0.0138157 -0.000428942 0)
(-0.0166623 -0.00278598 0)
(-0.0155913 -5.04262e-05 0)
(-0.000407232 0.0131424 0)
(-0.00382561 0.012094 0)
(-0.00476518 0.0147774 0)
(-0.0016143 0.0121727 0)
(-0.00316053 0.00458576 0)
(-0.00683113 0.0027841 0)
(-0.00825181 0.00139321 0)
(-0.00936806 -0.000212174 0)
(-0.0102699 -0.0015688 0)
(-0.0106603 -0.00208407 0)
(-0.0105284 -0.00315444 0)
(-0.0105439 -0.00662049 0)
(-0.0109657 -0.00947098 0)
(-0.0113807 -0.00904852 0)
(-0.0119 -0.00680098 0)
(-0.0122638 -0.00330649 0)
(-0.0119885 0.00163788 0)
(-0.0119392 0.003626 0)
(-0.0127086 0.00395308 0)
(-0.0135773 0.00378845 0)
(-0.0147445 0.00183114 0)
(-0.0165141 -0.000886308 0)
(-0.016948 -0.00264079 0)
(-0.000673496 0.0146788 0)
(-0.0024033 0.0140191 0)
(-0.00290959 0.0142313 0)
(-0.00175609 0.0118411 0)
(-0.00266721 0.00703782 0)
(-0.0045279 0.00475511 0)
(-0.00555253 0.00282467 0)
(-0.00650877 0.000934906 0)
(-0.0072793 -0.000914459 0)
(-0.00763545 -0.00202694 0)
(-0.00774201 -0.00326697 0)
(-0.00838296 -0.00582952 0)
(-0.00998509 -0.00800299 0)
(-0.0117957 -0.00782952 0)
(-0.0130785 -0.00586145 0)
(-0.0137702 -0.00310486 0)
(-0.0137052 0.000997442 0)
(-0.0133813 0.00353871 0)
(-0.0135834 0.00440323 0)
(-0.0140977 0.00431271 0)
(-0.0149254 0.00282092 0)
(-0.0161931 0.000297501 0)
(-0.0167963 -0.002831 0)
(-0.000446679 0.0157412 0)
(-0.00134685 0.014994 0)
(-0.00165238 0.014086 0)
(-0.00131139 0.0118189 0)
(-0.00192268 0.00829544 0)
(-0.00305456 0.00579865 0)
(-0.00391593 0.00373436 0)
(-0.00472892 0.00175271 0)
(-0.00542815 -0.000331684 0)
(-0.00601233 -0.00163554 0)
(-0.00666369 -0.00272307 0)
(-0.00780321 -0.00444465 0)
(-0.00962422 -0.00592375 0)
(-0.011535 -0.00609184 0)
(-0.0128882 -0.00482917 0)
(-0.0136989 -0.00251992 0)
(-0.013915 0.000791831 0)
(-0.0137034 0.00336919 0)
(-0.0135993 0.00458902 0)
(-0.0137015 0.00470954 0)
(-0.0140496 0.003579 0)
(-0.0146967 0.00119123 0)
(-0.0151031 -0.00287673 0)
(-0.000227953 0.0163576 0)
(-0.000692763 0.0155019 0)
(-0.000871297 0.0141069 0)
(-0.000837286 0.0119425 0)
(-0.00130753 0.00910152 0)
(-0.0021503 0.00661981 0)
(-0.00293809 0.00452561 0)
(-0.00366686 0.00247823 0)
(-0.0043965 0.000377213 0)
(-0.00525126 -0.000817477 0)
(-0.00627781 -0.00166484 0)
(-0.00761923 -0.00288025 0)
(-0.00938039 -0.00397149 0)
(-0.0111491 -0.00447428 0)
(-0.0124174 -0.00384027 0)
(-0.0131122 -0.00195066 0)
(-0.0133152 0.000826208 0)
(-0.0131745 0.00317795 0)
(-0.0129229 0.00446968 0)
(-0.0126613 0.00468468 0)
(-0.0124508 0.00373846 0)
(-0.0123767 0.00149361 0)
(-0.0125673 -0.00264286 0)
(-9.44253e-05 0.0166554 0)
(-0.000322468 0.0157513 0)
(-0.000422632 0.0141923 0)
(-0.000518069 0.0121515 0)
(-0.000924011 0.00971808 0)
(-0.00161342 0.00737095 0)
(-0.00231535 0.00524726 0)
(-0.0029741 0.00317948 0)
(-0.00378159 0.00125901 0)
(-0.00484358 0.000287303 0)
(-0.00601725 -0.000433025 0)
(-0.00733146 -0.00135983 0)
(-0.0088879 -0.00224164 0)
(-0.0104712 -0.00298987 0)
(-0.0117213 -0.00288865 0)
(-0.0124241 -0.00152818 0)
(-0.0125606 0.000804894 0)
(-0.0123564 0.00294781 0)
(-0.0119923 0.00410585 0)
(-0.0114749 0.00425177 0)
(-0.0108783 0.003335 0)
(-0.010343 0.00125064 0)
(-0.0102671 -0.00223935 0)
(-1.24852e-06 0.0167718 0)
(-0.000102943 0.0158659 0)
(-0.000158264 0.0142982 0)
(-0.000306393 0.0124007 0)
(-0.000678158 0.0102339 0)
(-0.00125548 0.00803799 0)
(-0.001864 0.00589156 0)
(-0.00249946 0.00388634 0)
(-0.00338716 0.00228165 0)
(-0.00451399 0.00147684 0)
(-0.00566029 0.000770204 0)
(-0.00683537 -1.45984e-05 0)
(-0.00811587 -0.000786979 0)
(-0.00948961 -0.00158531 0)
(-0.0107698 -0.00184972 0)
(-0.0116152 -0.00106831 0)
(-0.0118271 0.000691869 0)
(-0.0115948 0.0026426 0)
(-0.0111313 0.00358245 0)
(-0.0104828 0.00358883 0)
(-0.00975661 0.00266218 0)
(-0.00913104 0.000783167 0)
(-0.00892239 -0.00198096 0)
(8.57107e-05 0.0167643 0)
(5.69637e-05 0.0159094 0)
(3.00248e-05 0.0144025 0)
(-0.000120939 0.0126503 0)
(-0.00045014 0.0106818 0)
(-0.000947699 0.00861744 0)
(-0.00150233 0.00648311 0)
(-0.00216813 0.00464225 0)
(-0.00310422 0.00335205 0)
(-0.00418361 0.00259713 0)
(-0.00522396 0.00186405 0)
(-0.00624688 0.00112068 0)
(-0.00729792 0.000395652 0)
(-0.00843195 -0.000314628 0)
(-0.00960402 -0.000733041 0)
(-0.0105501 -0.000435312 0)
(-0.0109991 0.00072844 0)
(-0.0108824 0.00229007 0)
(-0.0103775 0.00298715 0)
(-0.00970625 0.00287357 0)
(-0.00901387 0.00198472 0)
(-0.00848086 0.000368092 0)
(-0.00835949 -0.00180979 0)
(0.000158359 0.0166501 0)
(0.000193137 0.0158979 0)
(0.00019668 0.0144869 0)
(7.00548e-05 0.0128702 0)
(-0.000207156 0.0110687 0)
(-0.000640598 0.00914119 0)
(-0.00120606 0.00709119 0)
(-0.00194025 0.00545748 0)
(-0.00287059 0.00438511 0)
(-0.00385154 0.0035998 0)
(-0.00477209 0.00283244 0)
(-0.00566684 0.00208539 0)
(-0.00656477 0.0013763 0)
(-0.00749932 0.000739144 0)
(-0.00847929 0.000305369 0)
(-0.00938813 0.000336967 0)
(-0.00997149 0.00100613 0)
(-0.0100012 0.00199082 0)
(-0.00958561 0.00242594 0)
(-0.00900435 0.00222756 0)
(-0.00843273 0.0014225 0)
(-0.0080364 8.58992e-05 0)
(-0.00799963 -0.00160369 0)
(0.000214177 0.0164419 0)
(0.00030878 0.0158329 0)
(0.000346106 0.0145401 0)
(0.000248819 0.0130495 0)
(1.74231e-05 0.0114002 0)
(-0.000366358 0.00963152 0)
(-0.000958984 0.00777022 0)
(-0.00175348 0.00630839 0)
(-0.00263676 0.00532666 0)
(-0.00349964 0.0044863 0)
(-0.00431275 0.00368732 0)
(-0.00510566 0.00292803 0)
(-0.0058965 0.0022238 0)
(-0.00670441 0.00161185 0)
(-0.00753072 0.00118297 0)
(-0.00830011 0.00107731 0)
(-0.00883186 0.00136555 0)
(-0.00894772 0.00182959 0)
(-0.0086945 0.00199901 0)
(-0.00827565 0.00172561 0)
(-0.00786067 0.00100732 0)
(-0.00759536 -8.53158e-05 0)
(-0.00761048 -0.0014003 0)
(0.000230437 0.0161662 0)
(0.000393238 0.0157156 0)
(0.000458109 0.0145643 0)
(0.000377284 0.0132009 0)
(0.000165092 0.0116972 0)
(-0.000198461 0.010102 0)
(-0.000781411 0.00848148 0)
(-0.00155391 0.00714742 0)
(-0.00235652 0.00615677 0)
(-0.00311406 0.00527232 0)
(-0.00383967 0.00444849 0)
(-0.00454939 0.00367794 0)
(-0.0052533 0.00297306 0)
(-0.0059586 0.00236486 0)
(-0.0066558 0.00191252 0)
(-0.00728646 0.00168632 0)
(-0.00773225 0.00169648 0)
(-0.00788472 0.00179784 0)
(-0.00776691 0.00173694 0)
(-0.00750817 0.00138847 0)
(-0.00724146 0.000733648 0)
(-0.00708382 -0.000174994 0)
(-0.00712751 -0.00122257 0)
(0.000237654 0.0158506 0)
(0.000446995 0.0155591 0)
(0.000520796 0.0145744 0)
(0.000439588 0.0133459 0)
(0.000229692 0.0119841 0)
(-0.000125191 0.0105554 0)
(-0.000657817 0.00914182 0)
(-0.00133131 0.00790687 0)
(-0.00203363 0.00688762 0)
(-0.00270797 0.00597478 0)
(-0.00335879 0.00513096 0)
(-0.0039945 0.0043482 0)
(-0.00461958 0.00363519 0)
(-0.0052333 0.00301387 0)
(-0.00582072 0.00251868 0)
(-0.00633761 0.00218058 0)
(-0.0067103 0.0019873 0)
(-0.00687781 0.00184448 0)
(-0.00685418 0.00160865 0)
(-0.00672017 0.00119241 0)
(-0.00657095 0.000575685 0)
(-0.00649341 -0.000206148 0)
(-0.00655203 -0.00107247 0)
(0.000264495 0.0155067 0)
(0.000463329 0.0153909 0)
(0.000529097 0.0145887 0)
(0.000444317 0.0134925 0)
(0.000242776 0.0122619 0)
(-8.53097e-05 0.0109764 0)
(-0.000548811 0.00970985 0)
(-0.0011152 0.00855221 0)
(-0.001715 0.00752949 0)
(-0.00230685 0.00660028 0)
(-0.00288447 0.00574054 0)
(-0.00344865 0.00494394 0)
(-0.00399879 0.00421588 0)
(-0.00452954 0.00357 0)
(-0.00502513 0.00302419 0)
(-0.00545337 0.00258893 0)
(-0.00576954 0.00224644 0)
(-0.0059408 0.00193565 0)
(-0.00597738 0.00157243 0)
(-0.00593019 0.00109976 0)
(-0.00586439 0.000501887 0)
(-0.00584143 -0.000198223 0)
(-0.00590581 -0.000946381 0)
(0.000261903 0.0151624 0)
(0.000424639 0.0152453 0)
(0.000475092 0.0146057 0)
(0.000404447 0.0136284 0)
(0.000228469 0.0125134 0)
(-5.55801e-05 0.011345 0)
(-0.000444349 0.010185 0)
(-0.000912109 0.00908997 0)
(-0.0014156 0.00808163 0)
(-0.00192479 0.00714782 0)
(-0.00242846 0.00627743 0)
(-0.00292181 0.00546716 0)
(-0.0034003 0.00472039 0)
(-0.00385612 0.00404481 0)
(-0.00427487 0.0034485 0)
(-0.00463373 0.00293236 0)
(-0.00490565 0.00247957 0)
(-0.00507341 0.00205045 0)
(-0.00514504 0.00159463 0)
(-0.00515317 0.00107604 0)
(-0.00514144 0.000483787 0)
(-0.00515193 -0.000167351 0)
(-0.00521495 -0.000841834 0)
(0.000201989 0.0148607 0)
(0.00034986 0.015138 0)
(0.000387779 0.0146104 0)
(0.000344918 0.0137377 0)
(0.000205935 0.0127236 0)
(-2.566e-05 0.0116516 0)
(-0.000341258 0.0105742 0)
(-0.000721008 0.00953275 0)
(-0.00113677 0.00854689 0)
(-0.00156636 0.00761748 0)
(-0.0019973 0.00674199 0)
(-0.00242172 0.00592008 0)
(-0.00283261 0.00515429 0)
(-0.00322117 0.00444878 0)
(-0.00357501 0.00380647 0)
(-0.00387793 0.00322451 0)
(-0.00411339 0.00268921 0)
(-0.0042724 0.00217476 0)
(-0.0043612 0.00165056 0)
(-0.00440102 0.00109423 0)
(-0.00442066 0.000498777 0)
(-0.00444837 -0.000126257 0)
(-0.00450453 -0.000757887 0)
(0.000127946 0.0146266 0)
(0.00027316 0.0150521 0)
(0.000315692 0.0145986 0)
(0.000293424 0.0138155 0)
(0.000190769 0.0128881 0)
(1.12511e-05 0.0118958 0)
(-0.00023686 0.0108859 0)
(-0.000539002 0.00989161 0)
(-0.000876202 0.0089316 0)
(-0.00123175 0.00801255 0)
(-0.00159368 0.00713684 0)
(-0.00195295 0.00630638 0)
(-0.00230135 0.00552359 0)
(-0.00262998 0.00479089 0)
(-0.00292832 0.00410897 0)
(-0.00318464 0.00347418 0)
(-0.00338845 0.00287632 0)
(-0.00353488 0.00229871 0)
(-0.00362856 0.00172268 0)
(-0.00368332 0.00113455 0)
(-0.00371801 0.000530137 0)
(-0.00375125 -8.43805e-05 0)
(-0.0037966 -0.000694231 0)
(5.21418e-05 0.0144669 0)
(0.000203854 0.014954 0)
(0.000266111 0.0145756 0)
(0.000257787 0.013866 0)
(0.000188596 0.0130093 0)
(5.78941e-05 0.0120823 0)
(-0.000129349 0.0111285 0)
(-0.000363299 0.0101765 0)
(-0.000630911 0.00924355 0)
(-0.000919403 0.00833865 0)
(-0.00121799 0.00746676 0)
(-0.00151748 0.00663119 0)
(-0.00180938 0.00583463 0)
(-0.0020851 0.00507892 0)
(-0.00233566 0.00436414 0)
(-0.00255221 0.00368728 0)
(-0.00272762 0.00304127 0)
(-0.00285896 0.00241561 0)
(-0.00294941 0.00179902 0)
(-0.00300787 0.00118334 0)
(-0.00304653 0.000566246 0)
(-0.0030775 -4.81862e-05 0)
(-0.00310967 -0.000650491 0)
(-7.55585e-06 0.014373 0)
(0.000148448 0.0148379 0)
(0.000220699 0.014542 0)
(0.000232136 0.0138904 0)
(0.000198142 0.0130893 0)
(0.000114338 0.0122157 0)
(-1.76108e-05 0.0113099 0)
(-0.000191479 0.0103964 0)
(-0.000398025 0.00949085 0)
(-0.000627156 0.00860272 0)
(-0.000869274 0.00773797 0)
(-0.00111551 0.00690073 0)
(-0.0013575 0.00609406 0)
(-0.00158714 0.00531987 0)
(-0.00179662 0.00457855 0)
(-0.00197885 0.00386824 0)
(-0.00212855 0.0031846 0)
(-0.00224358 0.00252133 0)
(-0.00232586 0.0018719 0)
(-0.00238097 0.00123169 0)
(-0.00241663 0.000599596 0)
(-0.00244062 -2.15994e-05 0)
(-0.00245865 -0.000625825 0)
(-1.76242e-05 0.0143188 0)
(0.000104089 0.014733 0)
(0.000171069 0.014493 0)
(0.000213853 0.0138836 0)
(0.000219412 0.013127 0)
(0.00018169 0.0122992 0)
(0.000100231 0.0114362 0)
(-2.09201e-05 0.0105592 0)
(-0.000174683 0.00968169 0)
(-0.000352577 0.00881243 0)
(-0.000545877 0.00795765 0)
(-0.000746106 0.00712192 0)
(-0.000945187 0.00630868 0)
(-0.00113549 0.00552031 0)
(-0.00131002 0.0047579 0)
(-0.00146278 0.00402094 0)
(-0.00158946 0.00330731 0)
(-0.00168815 0.00261374 0)
(-0.00175972 0.00193682 0)
(-0.00180752 0.00127428 0)
(-0.00183631 0.000625847 0)
(-0.00185097 -6.48623e-06 0)
(-0.00185512 -0.000618791 0)
(-9.08368e-06 0.0142827 0)
(6.65802e-05 0.0146617 0)
(0.000127231 0.0144231 0)
(0.000210936 0.0138398 0)
(0.0002581 0.0131212 0)
(0.000264181 0.0123355 0)
(0.000227667 0.0115137 0)
(0.0001516 0.010673 0)
(4.20922e-05 0.00982442 0)
(-9.31302e-05 0.00897596 0)
(-0.000245815 0.0081336 0)
(-0.000407785 0.00730213 0)
(-0.000571221 0.00648546 0)
(-0.000728892 0.0056866 0)
(-0.000874356 0.00490754 0)
(-0.00100229 0.00414911 0)
(-0.00110887 0.00341106 0)
(-0.00119219 0.00269233 0)
(-0.00125234 0.00199169 0)
(-0.00129113 0.00130847 0)
(-0.00131141 0.000643015 0)
(-0.00131617 -3.13045e-06 0)
(-0.00130764 -0.000627381 0)
(-2.9944e-05 0.0142675 0)
(3.59481e-05 0.0146077 0)
(0.000111954 0.0143253 0)
(0.000237196 0.0137567 0)
(0.000323488 0.0130734 0)
(0.000368117 0.0123298 0)
(0.000369196 0.0115496 0)
(0.00032957 0.010746 0)
(0.000255185 0.00992788 0)
(0.000153588 0.00910197 0)
(3.28802e-05 0.00827403 0)
(-9.88826e-05 0.00744906 0)
(-0.00023408 0.00663147 0)
(-0.000365783 0.00582502 0)
(-0.000487948 0.0050327 0)
(-0.000595663 0.00425664 0)
(-0.000685391 0.00349813 0)
(-0.000755139 0.00275784 0)
(-0.000804457 0.00203614 0)
(-0.000834172 0.00133351 0)
(-0.000845883 0.000650808 0)
(-0.000841388 -1.06621e-05 0)
(-0.000822061 -0.000649143 0)
(-7.55182e-05 0.0142785 0)
(3.49049e-05 0.0145344 0)
(0.000150476 0.0141934 0)
(0.000306295 0.013637 0)
(0.000424421 0.0129898 0)
(0.000499351 0.0122898 0)
(0.00052884 0.0115529 0)
(0.000515937 0.0107879 0)
(0.000466888 0.0100015 0)
(0.000389455 0.00919957 0)
(0.00029185 0.00838747 0)
(0.000182115 0.00757054 0)
(6.77389e-05 0.00675378 0)
(-4.45794e-05 0.00594179 0)
(-0.000149101 0.0051386 0)
(-0.000241219 0.00434755 0)
(-0.000317581 0.0035713 0)
(-0.000376151 0.00281192 0)
(-0.000416144 0.00207102 0)
(-0.000437786 0.00134999 0)
(-0.000441935 0.000650096 0)
(-0.000429676 -2.74236e-05 0)
(-0.000401863 -0.000681334 0)
(-4.75849e-05 0.0142802 0)
(9.41409e-05 0.0144216 0)
(0.000247714 0.014031 0)
(0.000423193 0.013489 0)
(0.000564564 0.0128796 0)
(0.000660688 0.0122252 0)
(0.000708685 0.0115334 0)
(0.000712244 0.0108087 0)
(0.0006784 0.0100553 0)
(0.000615508 0.00927809 0)
(0.000532105 0.00848255 0)
(0.000436315 0.00767439 0)
(0.000335527 0.00685937 0)
(0.000236225 0.00604299 0)
(0.000143866 0.00523034 0)
(6.27929e-05 0.00442595 0)
(-3.8234e-06 0.0036337 0)
(-5.39729e-05 0.00285683 0)
(-8.67198e-05 0.00209799 0)
(-0.000101986 0.00135933 0)
(-0.000100242 0.000642499 0)
(-8.22006e-05 -5.12694e-05 0)
(-4.84392e-05 -0.000721069 0)
(7.09054e-06 0.0142181 0)
(0.000198415 0.0142681 0)
(0.000383959 0.0138437 0)
(0.00058049 0.0133191 0)
(0.000741332 0.0127505 0)
(0.000851388 0.0121452 0)
(0.000908471 0.0115014 0)
(0.00091825 0.0108187 0)
(0.000889498 0.010099 0)
(0.000831674 0.0093468 0)
(0.000753855 0.00856771 0)
(0.000664296 0.0077682 0)
(0.000570268 0.00695493 0)
(0.000477997 0.00613444 0)
(0.000392636 0.0053129 0)
(0.000318244 0.00449595 0)
(0.000257781 0.0036886 0)
(0.000213142 0.00289516 0)
(0.00018526 0.00211918 0)
(0.000174298 0.00136348 0)
(0.00017991 0.000630057 0)
(0.000201512 -7.98077e-05 0)
(0.000238618 -0.000765455 0)
(5.05021e-05 0.014072 0)
(0.000315245 0.0140668 0)
(0.000543103 0.0136258 0)
(0.000769574 0.0131262 0)
(0.000950748 0.0126063 0)
(0.00106923 0.0120574 0)
(0.00112626 0.0114666 0)
(0.00113202 0.0108281 0)
(0.00109844 0.0101426 0)
(0.00103666 0.00941462 0)
(0.000956426 0.00865091 0)
(0.000866073 0.00785899 0)
(0.000772645 0.00704665 0)
(0.000682017 0.00622153 0)
(0.000598969 0.00539089 0)
(0.00052723 0.00456145 0)
(0.000469499 0.00373927 0)
(0.000427487 0.00292963 0)
(0.000402007 0.00213693 0)
(0.000393141 0.0013646 0)
(0.000400473 0.000614991 0)
(0.000423358 -0.000110582 0)
(0.000461266 -0.000811692 0)
(0.000118888 0.0138413 0)
(0.00043554 0.0138055 0)
(0.000722236 0.0133654 0)
(0.000988076 0.0129038 0)
(0.00119143 0.0124485 0)
(0.00131215 0.0119695 0)
(0.00135884 0.011439 0)
(0.00134986 0.0108471 0)
(0.00130184 0.0101952 0)
(0.0012279 0.00948974 0)
(0.00113829 0.00873928 0)
(0.00104118 0.00795297 0)
(0.000943158 0.00713995 0)
(0.000849605 0.00630899 0)
(0.000764832 0.00546845 0)
(0.000692185 0.00462603 0)
(0.000634067 0.00378879 0)
(0.000591961 0.00296291 0)
(0.00056649 0.0021536 0)
(0.000557541 0.0013649 0)
(0.000564483 0.000599526 0)
(0.000586453 -0.000141205 0)
(0.000622764 -0.000857143 0)
(0.000185712 0.0135227 0)
(0.000568845 0.0134732 0)
(0.000926564 0.0130499 0)
(0.0012399 0.0126429 0)
(0.00146459 0.01228 0)
(0.00157739 0.0118915 0)
(0.00160068 0.0114302 0)
(0.00156564 0.0108861 0)