/*--------------------------------*- C++ -*----------------------------------*\
  =========                 |
  \\      /  F ield         | OpenFOAM: The Open Source CFD Toolbox
   \\    /   O peration     | Website:  https://openfoam.org
    \\  /    A nd           | Version:  9
     \\/     M anipulation  |
\*---------------------------------------------------------------------------*/
FoamFile
{
    format      ascii;
    class       volScalarField;
    location    "6.51";
    object      epsilon;
}
// * * * * * * * * * * * * * * * * * * * * * * * * * * * * * * * * * * * * * //

dimensions      [0 2 -3 0 0 0 0];

internalField   nonuniform List<scalar> 
2268
(
0.000221455
0.00115947
0.00204459
0.00284585
0.00356685
0.00421704
0.00480736
0.00534545
0.00583397
0.00627666
0.00668348
0.00706872
0.00743344
0.00774525
0.00791656
0.00777465
0.00711993
0.00609372
0.00498602
0.00404772
0.0033004
0.00226321
0.000690803
0.000449232
0.000775524
0.00114284
0.00148659
0.00179845
0.0020792
0.00233178
0.00255924
0.00276427
0.00295
0.00312007
0.00327667
0.0034174
0.00353024
0.00358829
0.00354604
0.00337208
0.00312185
0.00277391
0.00238687
0.00196016
0.00150758
0.00111755
0.000761742
0.000822941
0.0010625
0.00130492
0.00152962
0.001733
0.00191559
0.00207918
0.00222599
0.00235859
0.00247933
0.0025888
0.00268452
0.00275878
0.0027965
0.00277585
0.00268765
0.00255744
0.00236327
0.00213065
0.0018868
0.00168626
0.00184679
0.00106938
0.000923889
0.00109061
0.00128241
0.001466
0.00163402
0.00178538
0.00192104
0.00204278
0.00215268
0.00225252
0.00234255
0.00242063
0.00248114
0.00251414
0.002507
0.00245677
0.00237666
0.00225523
0.00211506
0.00200072
0.00200141
0.00268184
0.00136532
0.00104145
0.0011539
0.00131141
0.00146836
0.00161408
0.00174619
0.00186504
0.00197201
0.00206881
0.00215687
0.00223644
0.00230583
0.0023608
0.0023945
0.00239899
0.00237316
0.00232494
0.00225337
0.00218433
0.00217868
0.00238816
0.00376751
0.00165256
0.00116695
0.0012346
0.00136553
0.00150229
0.00163131
0.00174922
0.00185591
0.00195246
0.00204027
0.0021206
0.00219378
0.00225855
0.00231179
0.00234868
0.00236406
0.00235729
0.00233445
0.00230239
0.00229226
0.00238555
0.00283316
0.00521354
0.00193682
0.0012985
0.00132691
0.0014356
0.00155551
0.0016705
0.0017765
0.00187315
0.00196133
0.00204219
0.00211685
0.00218578
0.00224813
0.00230162
0.0023429
0.00236862
0.00237823
0.00237772
0.00237867
0.00241682
0.0025967
0.00331158
0.00731959
0.00223342
0.00143745
0.00142926
0.00151828
0.00162302
0.00172508
0.00182003
0.00190746
0.00198815
0.00206304
0.00213315
0.00219903
0.00226019
0.00231499
0.00236111
0.00239622
0.00242025
0.00243952
0.00246803
0.0025425
0.00278074
0.00373251
0.0120637
0.000752722
0.00305189
0.00477794
0.00569448
0.00619993
0.0064158
0.00660905
0.00681042
0.00682704
0.0061486
0.00493187
0.00376693
0.00275333
0.00276619
0.00356074
0.00351486
0.00227857
0.00127733
0.000403363
0.000810878
0.00171704
0.00233962
0.00269676
0.00290458
0.00301668
0.00309226
0.00314226
0.00311305
0.00290816
0.00262702
0.0022462
0.00186701
0.00173524
0.00172381
0.00160489
0.00119098
0.000804135
0.000476776
0.00122885
0.0016799
0.00201578
0.00220749
0.00232388
0.00239394
0.0024403
0.00246182
0.00242358
0.00229088
0.00213543
0.00191395
0.00167612
0.00153511
0.00144274
0.00132079
0.00105026
0.000780859
0.000623959
0.00183619
0.0018826
0.00201162
0.00209023
0.00214488
0.00218272
0.00220922
0.00221554
0.00217183
0.00206114
0.00194022
0.00177996
0.00160323
0.00147736
0.00137617
0.0012572
0.00104043
0.000818012
0.000764919
0.00261944
0.00220345
0.00211733
0.00209397
0.0020958
0.0021049
0.00211376
0.00210786
0.0020592
0.00195829
0.0018508
0.0017213
0.00158089
0.00147321
0.00137498
0.00126087
0.00107477
0.000884043
0.000925451
0.00369517
0.00259567
0.00226839
0.0021493
0.0021041
0.0020869
0.00207904
0.00206192
0.0020088
0.00191388
0.00181537
0.00170566
0.00159125
0.00150127
0.00140167
0.00129131
0.0011263
0.000967494
0.00111387
0.00542933
0.0030151
0.00242913
0.00222622
0.00214081
0.00209996
0.00207613
0.00204828
0.00199125
0.00190148
0.0018144
0.00172138
0.00162794
0.00155036
0.00144224
0.0013325
0.00118231
0.00105917
0.00134333
0.00921123
0.00336796
0.00256892
0.00230795
0.00219146
0.00213021
0.0020915
0.00205342
0.00199337
0.00190946
0.00183716
0.0017621
0.00168491
0.00160712
0.00148989
0.00137789
0.0012397
0.00115471
0.00164151
0.00266532
0.00165072
0.00159657
0.00166057
0.00174443
0.00182753
0.00190574
0.00197922
0.00204883
0.00211529
0.00217935
0.00224158
0.00230197
0.00235966
0.00241308
0.00246099
0.00250432
0.00254997
0.00261224
0.00272195
0.00297129
0.00363934
0.00575474
0.00327746
0.00197245
0.00187254
0.00190886
0.00196366
0.00201648
0.00206682
0.00211762
0.00216995
0.00222414
0.00228003
0.00233768
0.00239742
0.00245847
0.00251954
0.00257929
0.00263855
0.0027025
0.00278113
0.00289373
0.00308857
0.00346806
0.00421635
0.00394369
0.002363
0.00223059
0.00223908
0.00225763
0.00226675
0.00227626
0.002296
0.00232494
0.00236283
0.00240788
0.00245875
0.00251578
0.00257869
0.0026459
0.0027146
0.00278343
0.00285511
0.00293649
0.0030379
0.00317699
0.00338661
0.00369002
0.00485354
0.00284685
0.00270475
0.00266576
0.00263705
0.00258679
0.00254071
0.00252321
0.00252115
0.00253683
0.00256702
0.00260721
0.00265827
0.00272141
0.00279444
0.00287183
0.00294591
0.00301584
0.00309814
0.00319201
0.00328802
0.00340196
0.00354601
0.0061126
0.00324478
0.00313689
0.00284407
0.00274487
0.00269086
0.00265041
0.00264795
0.00265935
0.00268327
0.0027207
0.00276584
0.00282039
0.00289191
0.00297504
0.00306615
0.00314863
0.00319776
0.00327387
0.00335849
0.00339258
0.00344172
0.00349406
0.00640369
0.00337879
0.00303915
0.0028554
0.00285493
0.00279917
0.00268444
0.00265997
0.00268224
0.00273069
0.00279468
0.0028646
0.00294356
0.00303602
0.00312416
0.00319974
0.00325367
0.0032678
0.00329365
0.00334715
0.00338043
0.00341574
0.00346022
0.007024
0.0033577
0.0029931
0.00281081
0.00276753
0.00273277
0.00268946
0.00268394
0.00270686
0.00275182
0.00281523
0.00288627
0.00296191
0.00304134
0.00310911
0.00316154
0.00319222
0.00321179
0.00324204
0.00327874
0.00330697
0.00333985
0.00336785
0.00747215
0.00316062
0.00278988
0.00270166
0.00266434
0.00265619
0.00266732
0.00269339
0.0027319
0.00277813
0.00283428
0.00289524
0.00295221
0.00300552
0.00305823
0.00310639
0.003145
0.00317619
0.00320796
0.00323637
0.00325769
0.003278
0.00328888
0.00747656
0.00297368
0.00265753
0.00260266
0.00258856
0.00260068
0.00263596
0.00268266
0.00273496
0.00278965
0.00284702
0.00290337
0.00295185
0.00299278
0.00303325
0.00307552
0.0031168
0.00315243
0.00318174
0.00320634
0.00322683
0.00324018
0.00323572
0.00176799
0.00287534
0.00258611
0.00253094
0.00253216
0.00255962
0.00260658
0.002663
0.00272314
0.00278423
0.00284431
0.00289915
0.00294441
0.00298208
0.00301939
0.00306007
0.00309993
0.00313435
0.00316261
0.00318649
0.00320332
0.00320831
0.00319809
0.00746897
0.00290476
0.00256196
0.00249387
0.00249771
0.00253147
0.00258248
0.00264198
0.0027051
0.00276887
0.00283017
0.00288497
0.00293118
0.00297139
0.00301079
0.00305146
0.00309004
0.00312385
0.00315233
0.00317483
0.00318762
0.00318871
0.00317881
0.00749656
0.00293874
0.00256764
0.00248347
0.00248267
0.002516
0.0025666
0.00262579
0.00268898
0.0027529
0.00281421
0.00286989
0.00291917
0.00296389
0.00300685
0.00304876
0.00308756
0.00312179
0.00315074
0.00317269
0.00318474
0.0031866
0.00317994
0.00746715
0.00301185
0.00259077
0.00249004
0.00248176
0.00251141
0.00255958
0.00261711
0.00267909
0.00274204
0.00280305
0.00286012
0.00291284
0.002962
0.0030087
0.00305294
0.00309345
0.00312928
0.00315963
0.00318286
0.00319712
0.00320258
0.00320068
0.00176793
0.00305532
0.00262078
0.00250653
0.00249041
0.00251534
0.00256041
0.00261592
0.00267644
0.00273847
0.00279962
0.00285847
0.00291446
0.00296762
0.00301811
0.00306554
0.00310903
0.0031478
0.00318098
0.00320733
0.00322572
0.00323632
0.0032401
0.00748928
0.00312022
0.00265489
0.00252893
0.00250547
0.00252567
0.00256769
0.0026213
0.00268076
0.0027426
0.00280471
0.0028658
0.00292512
0.00298226
0.00303686
0.00308836
0.00313598
0.00317898
0.00321653
0.00324763
0.00327157
0.00328841
0.00329871
0.0017677
0.00316548
0.00269156
0.00255502
0.0025249
0.00254084
0.00258027
0.00263252
0.0026917
0.00275434
0.00281834
0.00288237
0.00294551
0.00300711
0.00306655
0.00312313
0.0031761
0.0032247
0.00326811
0.00330552
0.00333638
0.00336059
0.00337841
0.00747981
0.00323422
0.00272951
0.00258341
0.00254746
0.0025599
0.0025975
0.00264924
0.00270913
0.00277363
0.00284055
0.00290846
0.00297632
0.0030433
0.00310865
0.00317158
0.00323131
0.00328702
0.00333793
0.00338328
0.00342253
0.00345545
0.00348199
0.00749168
0.00328492
0.00276825
0.00261341
0.00257249
0.00258235
0.00261909
0.00267141
0.00273314
0.00280066
0.00287168
0.00294465
0.00301843
0.00309209
0.00316475
0.00323558
0.00330372
0.00336832
0.00342855
0.00348365
0.00353299
0.00357616
0.00361286
0.00749114
0.00334445
0.00280775
0.00264465
0.00259968
0.00260801
0.00264505
0.00269914
0.00276399
0.00283584
0.00291231
0.00299178
0.003073
0.00315495
0.00323668
0.00331727
0.0033958
0.00347134
0.00354298
0.00360988
0.00367128
0.00372655
0.00377517
0.00748306
0.00340375
0.00284761
0.00267694
0.00262893
0.00263692
0.00267552
0.00273274
0.0028021
0.00287977
0.00296329
0.00305094
0.00314142
0.00323362
0.00332651
0.00341909
0.00351035
0.00359924
0.00368476
0.00376589
0.0038417
0.00391133
0.00397401
0.00749383
0.003459
0.00288782
0.00271023
0.0026603
0.00266923
0.00271079
0.00277261
0.00284807
0.00293325
0.00302564
0.00312346
0.00322536
0.00333013
0.00343669
0.00354392
0.00365069
0.00375583
0.00385813
0.0039564
0.00404948
0.00413625
0.00421565
0.0017677
0.00350681
0.00292828
0.0027445
0.00269393
0.00270524
0.00275125
0.0028193
0.00290261
0.00299723
0.00310059
0.0032109
0.00332674
0.00344686
0.00357007
0.00369513
0.00382076
0.00394561
0.00406825
0.00418722
0.00430108
0.00440839
0.0045078
0.00750808
0.00357649
0.00296875
0.0027798
0.00273006
0.00274528
0.00279739
0.00287343
0.00296656
0.00307279
0.00318955
0.00331505
0.00344782
0.00358656
0.00372998
0.00387671
0.00402527
0.00417406
0.00432137
0.00446541
0.00460438
0.00473646
0.00485992
0.00750114
0.00363997
0.00300884
0.0028162
0.00276899
0.00278978
0.00284974
0.00293573
0.00304086
0.00316117
0.00329413
0.00343795
0.00359118
0.00375245
0.00392038
0.00409342
0.00426986
0.00444779
0.00462511
0.00479963
0.00496906
0.00513113
0.00528364
0.0075585
0.00370365
0.00304686
0.0028539
0.00281111
0.0028392
0.00290891
0.00300697
0.00312655
0.00326374
0.0034161
0.00358192
0.00375977
0.00394826
0.00414588
0.0043509
0.00456131
0.00477478
0.00498875
0.00520045
0.00540699
0.0056055
0.00579321
0.00765946
0.00374842
0.00308441
0.00289348
0.00285683
0.00289402
0.00297549
0.00308797
0.0032247
0.00338195
0.00355743
0.00374955
0.00395695
0.00417827
0.00441188
0.00465582
0.00490771
0.0051647
0.00542358
0.00568083
0.00593275
0.00617569
0.00640612
0.00775429
0.00379146
0.00312261
0.00293537
0.00290652
0.00295467
0.00305008
0.00317952
0.00333645
0.00351736
0.0037202
0.00394363
0.00418645
0.00444735
0.00472462
0.00501604
0.00531874
0.00562921
0.00594334
0.00625661
0.00656424
0.00686149
0.00714392
0.00784498
0.00383375
0.00316177
0.0029798
0.00296047
0.00302155
0.00313321
0.0032824
0.00346287
0.00367147
0.00390657
0.00416716
0.00445234
0.00476095
0.00509125
0.00544071
0.00580588
0.00618232
0.00656475
0.00694723
0.00732347
0.00768731
0.00803295
0.00793164
0.00387533
0.00320198
0.00302691
0.00301889
0.00309498
0.00322535
0.00339728
0.00360495
0.00384577
0.00411867
0.00442321
0.00475897
0.00512508
0.00551985
0.00594045
0.00638267
0.00684087
0.00730812
0.00777654
0.00823762
0.00868317
0.00910566
0.00801183
0.00391557
0.00324307
0.00307673
0.00308191
0.00317516
0.00332683
0.00352466
0.00376348
0.00404148
0.00435843
0.00471474
0.00511073
0.00554609
0.00601933
0.00652733
0.00706497
0.007625
0.00819812
0.00877364
0.00934015
0.00988658
0.0104027
0.00807764
0.00395323
0.00328475
0.00312923
0.00314962
0.00326225
0.00343785
0.00366483
0.00393896
0.0042595
0.00462742
0.00504436
0.00551184
0.00603046
0.00659922
0.00721481
0.007871
0.00855837
0.00926445
0.00997451
0.0106728
0.0113441
0.0119743
0.00811961
0.00398785
0.00332702
0.00318449
0.00322212
0.00335633
0.00355844
0.00381781
0.00413145
0.00450011
0.00492645
0.0054139
0.00596574
0.00658412
0.00726902
0.00801722
0.00882128
0.00966895
0.0105432
0.0114235
0.0122875
0.013114
0.0138838
0.00813493
0.0040208
0.00336967
0.00324236
0.00329945
0.00345742
0.00368843
0.00398316
0.00434031
0.00476265
0.00525516
0.00582382
0.0064745
0.00721181
0.00803761
0.00894934
0.00993841
0.0109889
0.0120776
0.0131751
0.0142492
0.0152698
0.0162105
0.00810467
0.00404589
0.00341143
0.00330314
0.00338223
0.00356589
0.00382764
0.00416004
0.00456408
0.00504522
0.00561152
0.00627246
0.00703774
0.00791575
0.00891161
0.0100246
0.0112455
0.012554
0.0139179
0.0152951
0.0166386
0.0179039
0.0190545
0.00801911
0.0040589
0.00345283
0.003369
0.00347263
0.00368302
0.00397613
0.00434722
0.0048003
0.00534424
0.00599111
0.0067551
0.00765123
0.00869366
0.00989294
0.0112523
0.0127631
0.0144003
0.0161198
0.017861
0.019554
0.0211316
0.0225418
0.00785825
0.00405836
0.00349909
0.00344656
0.00357598
0.00381187
0.0041345
0.00454301
0.00504517
0.00565397
0.00638643
0.00726271
0.00830512
0.00953615
0.0109751
0.0126325
0.0145032
0.016558
0.0187382
0.0209573
0.0231108
0.025095
0.0268304
0.00758838
0.00405174
0.00356853
0.00355259
0.00370369
0.00395832
0.00430407
0.00474505
0.00529321
0.00596603
0.00678609
0.00778081
0.00898188
0.0104234
0.0121376
0.014148
0.0164577
0.0190368
0.0218115
0.0246628
0.0274362
0.029966
0.0321184
0.00751425
0.00407467
0.00371798
0.00372666
0.00387771
0.00413187
0.00448635
0.00494962
0.0055367
0.0062689
0.00717431
0.00828848
0.00965443
0.0113213
0.0133397
0.0157527
0.0185805
0.0218007
0.0253314
0.0290225
0.0326558
0.0359554
0.03866
0.0017695
0.00451284
0.00413888
0.00405793
0.00413482
0.00434404
0.00468095
0.00515018
0.00576494
0.00654768
0.00753088
0.00875819
0.0102852
0.0121788
0.0145132
0.0173588
0.0207641
0.0247309
0.0291927
0.0339976
0.0388726
0.0433479
0.0468061
0.0160558
0.0074421
0.00541322
0.00472106
0.00452078
0.0045997
0.0048802
0.0053349
0.0059635
0.00678441
0.00783211
0.00915717
0.0108275
0.0129286
0.0155606
0.0188276
0.0228184
0.0275839
0.0331244
0.0393793
0.0461292
0.0526279
0.0570977
0.155166
0.02602
0.00932594
0.00597326
0.00504644
0.00487473
0.0050606
0.00548415
0.00611424
0.00695935
0.00805309
0.00945076
0.0112302
0.013493
0.0163629
0.019977
0.0244703
0.029967
0.0366079
0.0446175
0.0542463
0.0648816
0.0704381
1.53826
0.127205
0.0193838
0.00774736
0.00555282
0.00508266
0.00517683
0.00557109
0.00619741
0.00705364
0.00817131
0.00960792
0.0114469
0.0137993
0.0168033
0.0206176
0.0254114
0.0313763
0.0388213
0.0484478
0.0619309
0.0831161
0.0882383
0.01526
0.0116804
0.0110235
0.0129002
0.00520576
0.00524175
0.00515281
0.00498108
0.0039186
0.00397384
0.00394409
0.00383842
0.00365556
0.00368293
0.00365087
0.00357387
0.00354162
0.00355725
0.00353145
0.00347
0.00354124
0.00355369
0.00351127
0.00345019
0.0034042
0.00340519
0.00337959
0.00334422
0.00328329
0.00327534
0.00326242
0.00324369
0.00321867
0.0032049
0.00319027
0.00317439
0.00318115
0.00316841
0.00315436
0.00313925
0.0031651
0.00315481
0.00314302
0.00312992
0.00316993
0.00316213
0.0031528
0.00314204
0.00319466
0.00318943
0.0031826
0.00317424
0.00323845
0.00323598
0.00323186
0.00322612
0.0033019
0.0033025
0.00330138
0.00329857
0.00338709
0.00339115
0.00339342
0.00339391
0.00349696
0.00350497
0.0035111
0.00351533
0.0036351
0.00364767
0.00365824
0.00366679
0.00380589
0.00382378
0.00383952
0.00385307
0.0040147
0.00403884
0.00406066
0.0040801
0.00426817
0.00429971
0.00432873
0.00435515
0.00457443
0.00461481
0.00465241
0.00468711
0.00494348
0.00499444
0.00504231
0.00508689
0.00538758
0.00545126
0.00551141
0.00556784
0.00592174
0.00600069
0.00607558
0.0061462
0.00656431
0.00666164
0.00675423
0.00684184
0.00733783
0.00745726
0.00757108
0.00767898
0.00826987
0.00841585
0.00855505
0.00868712
0.00939447
0.0095723
0.00974173
0.00990238
0.0107538
0.0109697
0.0111749
0.0113691
0.0124003
0.0126612
0.0129086
0.0131419
0.0143991
0.0147133
0.0150097
0.015288
0.016832
0.0172086
0.0175615
0.0178909
0.0198018
0.0202507
0.0206679
0.0210538
0.0234375
0.0239695
0.0244582
0.0249051
0.0279008
0.0285269
0.0290934
0.0296036
0.0333944
0.0341258
0.0347737
0.0353454
0.0401768
0.0410218
0.0417489
0.0423729
0.0485917
0.0495465
0.0503356
0.0509873
0.0591233
0.0601424
0.0609383
0.061562
0.0724615
0.0733878
0.0740549
0.0745425
0.0894478
0.0899112
0.0902031
0.0903959
0.00524682
0.00338089
0.00271841
0.00242845
0.00227979
0.00219261
0.00213333
0.00208087
0.00201812
0.00194625
0.00189656
0.00185144
0.00178971
0.00169366
0.0015649
0.00144908
0.00133343
0.00129887
0.00209664
0.00402308
0.00324195
0.00280906
0.00255795
0.0024028
0.00229964
0.00222466
0.00216217
0.00210213
0.00204526
0.0020082
0.0019822
0.00191932
0.00179834
0.00166555
0.00155747
0.00148226
0.00152964
0.00272618
0.00354583
0.00315983
0.00287916
0.00267142
0.00252622
0.00242434
0.00234846
0.00228791
0.00223591
0.00219035
0.00215974
0.00213971
0.00206258
0.00191939
0.00177786
0.00167933
0.00164114
0.00175517
0.00307287
0.00339969
0.00316813
0.00298043
0.00279087
0.00266301
0.00257796
0.00251373
0.00246487
0.00242883
0.00239857
0.00238086
0.00237344
0.00226275
0.00208379
0.00191173
0.00181371
0.00181093
0.00202628
0.00343352
0.00333899
0.00317667
0.00303688
0.00289457
0.00279991
0.00272108
0.00265267
0.00260962
0.00258009
0.00252722
0.00245608
0.00241092
0.00234774
0.00220644
0.00204852
0.00193829
0.00195355
0.00219093
0.00417808
0.00334647
0.00324094
0.00313951
0.0029852
0.00287132
0.00278555
0.00271369
0.00266035
0.0026187
0.00256184
0.00247487
0.00242657
0.0023557
0.00223069
0.00210147
0.00202991
0.0020646
0.00236035
0.00496757
0.00328393
0.00321344
0.003136
0.00301382
0.00291814
0.00285263
0.00279015
0.00273549
0.00267643
0.00260288
0.0025088
0.0024188
0.00232672
0.00222556
0.0021422
0.00210076
0.00214302
0.00248104
0.00526174
0.00320631
0.00315013
0.0030864
0.00300452
0.00293662
0.00289025
0.0028444
0.00278176
0.00270509
0.00262579
0.00253405
0.00243335
0.00233098
0.00223787
0.00216118
0.00212988
0.00219599
0.0025694
0.00506575
0.003145
0.00309598
0.00303987
0.00297854
0.00292704
0.00289088
0.00284996
0.00277624
0.0026953
0.00262083
0.00253424
0.00243495
0.00235007
0.00227002
0.00218322
0.00213551
0.00219294
0.00256984
0.00498751
0.00311253
0.00306922
0.00302183
0.00297282
0.00292683
0.00288664
0.00283546
0.00275785
0.00267999
0.00260618
0.00251892
0.00241897
0.00234264
0.00227766
0.00219472
0.00213116
0.00215401
0.00245634
0.00491131
0.00310635
0.00306814
0.00302747
0.0029853
0.00293943
0.00289057
0.00283027
0.00275364
0.00267487
0.00259652
0.00250792
0.00240718
0.00231939
0.00225078
0.00218042
0.00212102
0.00211451
0.00231852
0.00489557
0.00312203
0.00308823
0.00305095
0.00301071
0.00296377
0.00290998
0.00284634
0.0027698
0.00268869
0.00260587
0.00251546
0.00241514
0.00231601
0.00222996
0.00215721
0.00211079
0.00210243
0.00223842
0.00115766
0.00315794
0.00312857
0.00309344
0.00305272
0.00300472
0.00294924
0.00288464
0.00280944
0.00272827
0.00264307
0.00255075
0.00245023
0.00234699
0.00224873
0.00216384
0.00211324
0.00210935
0.00220613
0.00115792
0.00321395
0.00318967
0.00315777
0.00311794
0.00306988
0.00301396
0.00294962
0.00287642
0.00279625
0.00271015
0.00261676
0.00251593
0.00241122
0.00230834
0.00221682
0.00215523
0.00214736
0.00223559
0.00112619
0.00329111
0.00327273
0.00324556
0.0032089
0.00316276
0.00310786
0.00304461
0.00297305
0.0028939
0.00280769
0.00271411
0.00261364
0.00250915
0.00240614
0.00231422
0.00224868
0.0022348
0.00232342
0.00114722
0.00339175
0.00338008
0.00335881
0.00332703
0.00328466
0.00323243
0.0031711
0.0031011
0.00302288
0.00293696
0.00284368
0.00274416
0.00264138
0.0025412
0.00245391
0.00239576
0.00239655
0.00251675
0.00116091
0.00351919
0.00351518
0.00350078
0.00347507
0.00343779
0.00338947
0.00333089
0.0032627
0.00318552
0.00310005
0.00300727
0.00290895
0.00280869
0.0027132
0.00263447
0.00259392
0.00263688
0.00289206
0.00491139
0.00367756
0.00368234
0.00367587
0.0036572
0.00362597
0.00358246
0.00352733
0.00346136
0.00338537
0.00330043
0.00320806
0.00311077
0.00301301
0.00292264
0.00285394
0.00283515
0.0029349
0.0033738
0.00534251
0.0038719
0.00388692
0.0038896
0.00387901
0.0038547
0.00381675
0.00376568
0.00370231
0.00362766
0.00354317
0.00345088
0.00335404
0.00325801
0.0031719
0.0031122
0.00311266
0.00325959
0.00384415
0.00650116
0.0041084
0.00413543
0.0041488
0.00414755
0.00413113
0.00409951
0.00405308
0.00399266
0.00391945
0.00383517
0.00374239
0.00364504
0.00354942
0.00346596
0.00341331
0.00342999
0.00361644
0.00433745
0.0078924
0.00439466
0.0044359
0.00446184
0.00447148
0.00446418
0.00443979
0.00439865
0.00434153
0.00426976
0.00418532
0.00409123
0.00399208
0.0038951
0.00381219
0.00376454
0.00379584
0.00401948
0.00486393
0.00944982
0.00473998
0.00479811
0.00483895
0.00486138
0.0048647
0.00484868
0.00481357
0.00476013
0.00468977
0.00460468
0.00450823
0.00440563
0.00430507
0.00422012
0.00417515
0.00422111
0.00449031
0.00548699
0.0112701
0.00515573
0.005234
0.00529251
0.00533004
0.00534582
0.00533954
0.00531138
0.00526209
0.00519309
0.00510673
0.00500666
0.0048986
0.00479166
0.00470124
0.00465503
0.00471065
0.00501763
0.00614657
0.0129228
0.00565578
0.00575803
0.00583751
0.00589288
0.0059233
0.0059284
0.00590832
0.00586375
0.00579609
0.00570777
0.00560263
0.00548682
0.00537027
0.00526972
0.0052156
0.00527078
0.00559674
0.00680734
0.014198
0.00625699
0.00638776
0.00649206
0.00656845
0.00661604
0.00663444
0.00662375
0.00658464
0.00651845
0.00642756
0.00631586
0.00618972
0.00605958
0.00594324
0.00587314
0.00591604
0.00624201
0.00749642
0.0153063
0.0069799
0.00714448
0.00727798
0.00737896
0.00744659
0.0074805
0.0074808
0.0074481
0.00738365
0.00728966
0.00716992
0.00703075
0.00688284
0.00674471
0.00665044
0.00667054
0.00698479
0.00827875
0.016579
0.00784946
0.00805383
0.00822147
0.00835104
0.00844187
0.00849375
0.00850686
0.00848177
0.00841958
0.00832225
0.00819322
0.00803857
0.00786891
0.00770326
0.00757743
0.00756659
0.00786461
0.00921683
0.0182194
0.00889597
0.00914689
0.00935407
0.00951651
0.0096339
0.00970638
0.00973433
0.00971835
0.00965933
0.00955888
0.00941993
0.00924799
0.00905334
0.00885531
0.00869172
0.00864402
0.00892582
0.0103661
0.0203483
0.0101564
0.0104612
0.0107136
0.0109133
0.0110607
0.0111564
0.0112014
0.0111964
0.011142
0.0110395
0.0108909
0.0107011
0.0104796
0.0102459
0.0100399
0.00995103
0.0102181
0.0117754
0.022991
0.0116757
0.0120423
0.0123457
0.0125867
0.0127672
0.0128888
0.0129532
0.0129613
0.0129137
0.0128112
0.012655
0.0124487
0.0122008
0.0119305
0.0116799
0.0115472
0.0118009
0.0134994
0.0261655
0.0135091
0.0139452
0.0143047
0.0145907
0.0148069
0.0149566
0.0150426
0.0150664
0.0150287
0.0149298
0.01477
0.0145515
0.0142813
0.0139775
0.0136841
0.0135085
0.0137525
0.0156162
0.0299388
0.0157241
0.0162368
0.0166565
0.0169898
0.0172432
0.0174225
0.017532
0.0175743
0.0175505
0.0174606
0.017304
0.0170815
0.0167983
0.016471
0.0161442
0.0159345
0.0161815
0.0182552
0.0345989
0.0184036
0.0189982
0.0194801
0.019861
0.0201515
0.0203607
0.020495
0.0205587
0.0205536
0.0204798
0.0203365
0.0201233
0.0198438
0.0195129
0.019175
0.0189557
0.0192389
0.0216145
0.0406837
0.0216496
0.0223284
0.0228711
0.0232967
0.0236218
0.0238593
0.0240187
0.0241062
0.0241251
0.0240763
0.0239596
0.0237747
0.0235247
0.0232238
0.0229169
0.0227387
0.0231247
0.025946
0.0486801
0.0255875
0.0263476
0.0269446
0.0274081
0.0277617
0.0280235
0.0282065
0.0283193
0.0283671
0.0283529
0.0282786
0.0281461
0.0279615
0.0277418
0.0275361
0.0274916
0.0281026
0.0315863
0.0591445
0.0303713
0.0312017
0.0318399
0.0323288
0.032701
0.0329801
0.0331827
0.0333201
0.0334003
0.0334294
0.0334133
0.0333604
0.0332848
0.0332156
0.0332174
0.033463
0.0345218
0.0390345
0.0730495
0.036189
0.0370677
0.0377249
0.0382206
0.0385968
0.0388825
0.0390976
0.039256
0.0393688
0.0394462
0.0395006
0.0395511
0.0396292
0.039791
0.0401431
0.0409228
0.042828
0.0490478
0.0920267
0.0432694
0.0441592
0.044803
0.0452799
0.0456409
0.0459188
0.0461356
0.0463074
0.0464476
0.0465711
0.0466986
0.0468639
0.0471256
0.0475885
0.0484471
0.0500937
0.0535174
0.0627696
0.11896
0.0518904
0.0527339
0.0533207
0.0537472
0.0540696
0.0543219
0.0545259
0.0546981
0.0548535
0.0550104
0.0551974
0.0554635
0.0558996
0.0566783
0.0581388
0.0609864
0.0669045
0.0818025
0.159734
0.0623863
0.0631016
0.0635785
0.0639191
0.0641774
0.0643835
0.0645566
0.064711
0.064861
0.0650258
0.065237
0.0655529
0.0660874
0.0670745
0.0690203
0.0730983
0.082377
0.107449
0.228381
0.075149
0.0756346
0.0759457
0.0761658
0.0763346
0.076473
0.0765938
0.076707
0.0768232
0.0769578
0.0771373
0.0774128
0.0778896
0.0788009
0.0807078
0.0851125
0.0967345
0.135407
0.352106
0.0906173
0.0907808
0.0908829
0.0909556
0.0910128
0.0910617
0.0911065
0.0911509
0.091199
0.0912572
0.0913369
0.0914603
0.0916748
0.0920911
0.0930036
0.0953477
0.102929
0.139273
0.580733
)
;

boundaryField
{
    leftWall
    {
        type            epsilonWallFunction;
        value           nonuniform List<scalar> 
50
(
0.000221455
0.000449232
0.000761742
0.00106938
0.00136532
0.00165256
0.00193682
0.00223342
0.00266532
0.00327746
0.00394369
0.00485354
0.0061126
0.00640369
0.007024
0.00747215
0.00747656
0.00176799
0.00746897
0.00749656
0.00746715
0.00176793
0.00748928
0.0017677
0.00747981
0.00749168
0.00749114
0.00748306
0.00749383
0.0017677
0.00750808
0.00750114
0.0075585
0.00765946
0.00775429
0.00784498
0.00793164
0.00801183
0.00807764
0.00811961
0.00813493
0.00810467
0.00801911
0.00785825
0.00758838
0.00751425
0.0017695
0.0160558
0.155166
1.53826
)
;
    }
    rightWall
    {
        type            epsilonWallFunction;
        value           nonuniform List<scalar> 
50
(
0.000403363
0.000476776
0.000623959
0.000764919
0.000925451
0.00111387
0.00134333
0.00164151
0.00209664
0.00272618
0.00307287
0.00343352
0.00417808
0.00496757
0.00526174
0.00506575
0.00498751
0.00491131
0.00489557
0.00115766
0.00115792
0.00112619
0.00114722
0.00116091
0.00491139
0.00534251
0.00650116
0.0078924
0.00944982
0.0112701
0.0129228
0.014198
0.0153063
0.016579
0.0182194
0.0203483
0.022991
0.0261655
0.0299388
0.0345989
0.0406837
0.0486801
0.0591445
0.0730495
0.0920267
0.11896
0.159734
0.228381
0.352106
0.580733
)
;
    }
    lowerWall
    {
        type            epsilonWallFunction;
        value           nonuniform List<scalar> 
62
(
0.000221455
0.00115947
0.00204459
0.00284585
0.00356685
0.00421704
0.00480736
0.00534545
0.00583397
0.00627666
0.00668348
0.00706872
0.00743344
0.00774525
0.00791656
0.00777465
0.00711993
0.00609372
0.00498602
0.00404772
0.0033004
0.00226321
0.000690803
0.000690803
0.00111755
0.00184679
0.00268184
0.00376751
0.00521354
0.00731959
0.0120637
0.01526
0.0116804
0.0110235
0.0129002
0.000752722
0.000810878
0.00122885
0.00183619
0.00261944
0.00369517
0.00542933
0.00921123
0.000752722
0.00305189
0.00477794
0.00569448
0.00619993
0.0064158
0.00660905
0.00681042
0.00682704
0.0061486
0.00493187
0.00376693
0.00275333
0.00276619
0.00356074
0.00351486
0.00227857
0.00127733
0.000403363
)
;
    }
    atmosphere
    {
        type            inletOutlet;
        inletValue      uniform 0.1;
        value           nonuniform List<scalar> 
46
(
0.1
0.127205
0.0193838
0.00774736
0.00555282
0.00508266
0.00517683
0.00557109
0.00619741
0.00705364
0.00817131
0.00960792
0.0114469
0.0137993
0.0168033
0.0206176
0.0254114
0.0313763
0.0388213
0.0484478
0.0619309
0.1
0.1
0.1
0.1
0.1
0.1
0.1
0.1
0.1
0.1
0.1
0.1
0.1
0.1
0.1
0.1
0.1
0.1
0.1
0.1
0.1
0.1
0.1
0.1
0.580733
)
;
    }
    defaultFaces
    {
        type            empty;
    }
}


// ************************************************************************* //
