/*--------------------------------*- C++ -*----------------------------------*\
  =========                 |
  \\      /  F ield         | OpenFOAM: The Open Source CFD Toolbox
   \\    /   O peration     | Website:  https://openfoam.org
    \\  /    A nd           | Version:  9
     \\/     M anipulation  |
\*---------------------------------------------------------------------------*/
FoamFile
{
    format      ascii;
    class       volScalarField;
    location    "6.51";
    object      p_rgh;
}
// * * * * * * * * * * * * * * * * * * * * * * * * * * * * * * * * * * * * * //

dimensions      [1 -1 -2 0 0 0 0];

internalField   nonuniform List<scalar> 
2268
(
767.16
767.162
767.07
766.87
766.562
766.152
765.646
765.05
764.376
763.632
762.832
761.991
761.12
760.228
759.322
758.416
757.567
756.862
756.327
755.912
755.732
755.857
755.925
767.152
767.143
767.047
766.843
766.536
766.126
765.62
765.024
764.349
763.605
762.804
761.958
761.078
760.175
759.262
758.367
757.58
756.985
756.558
756.097
755.937
755.872
755.952
767.156
767.14
767.04
766.832
766.521
766.11
765.603
765.006
764.33
763.585
762.782
761.932
761.048
760.142
759.235
758.36
757.607
757.05
756.735
756.428
755.979
755.84
755.938
767.176
767.162
767.061
766.847
766.533
766.119
765.609
765.009
764.33
763.582
762.775
761.922
761.037
760.135
759.244
758.391
757.421
756.992
756.67
756.371
755.883
755.733
755.938
767.213
767.206
767.107
766.891
766.573
766.155
765.64
765.036
764.353
763.599
762.785
761.927
761.042
760.149
759.279
758.475
757.09
753.826
754.921
755.799
754.219
755.582
755.944
767.268
767.27
767.176
766.96
766.638
766.215
765.695
765.085
764.396
763.633
762.81
761.944
761.057
760.172
759.329
758.578
757.3
751.514
750.79
750.269
750.062
755.358
755.949
767.344
767.356
767.267
767.051
766.725
766.297
765.771
765.155
764.459
763.685
762.846
761.968
761.078
760.196
759.38
758.672
758.255
753.503
750.373
749.78
752.507
755.771
755.908
767.44
767.459
767.375
767.159
766.828
766.394
765.861
765.24
764.538
763.751
762.895
762.001
761.105
760.218
759.424
758.741
758.35
757.799
751.158
750.182
756.052
755.832
755.911
756.84
757.435
757.948
758.401
758.831
759.199
759.697
760.193
760.591
760.875
761.299
762.234
763.104
763.6
764.628
765.54
765.953
766.189
766.155
756.768
757.534
757.978
758.437
758.931
759.521
760.027
760.487
760.869
761.212
761.69
762.635
763.359
763.675
764.5
765.35
765.854
766.134
766.207
756.656
757.492
757.975
758.388
758.89
759.467
760.007
760.484
760.821
761.18
761.871
762.871
763.875
764.125
764.346
765.32
765.826
766.181
765.803
757.451
757.849
757.998
758.358
758.862
759.431
759.952
760.429
760.722
760.783
761.882
762.944
763.946
764.116
764.102
765.444
765.86
766.221
765.844
757.987
757.89
757.996
758.336
758.831
759.388
759.835
760.399
761.053
760.431
761.806
762.983
763.957
758.285
763.411
765.53
765.016
765.751
765.955
757.776
757.744
757.922
758.276
758.778
759.351
759.964
760.612
761.296
760.243
753.492
759.816
759.782
753.488
763.75
765.502
762.366
766.258
766.568
757.534
757.595
757.783
758.185
758.717
759.324
760.018
760.775
761.6
760.06
749.082
749.656
750.757
752.931
766.083
766.379
760.931
767.207
767.543
757.259
757.384
757.64
758.107
758.681
759.278
759.988
760.678
761.521
761.667
749.429
749.405
750.383
761.803
766.877
766.853
760.651
766.641
767.724
767.624
767.65
767.575
767.36
767.018
766.572
766.031
765.404
764.697
763.887
762.99
762.063
761.159
760.298
759.476
758.785
758.347
758.273
758.134
757.567
756.598
755.725
755.516
761.23
761.323
761.377
761.517
761.713
761.68
761.407
761.103
760.913
758.879
755.403
751.951
749.619
747.618
745.452
743.74
743.927
745.328
745.757
744.266
740.745
736.467
734.723
332.395
333.615
334.07
332.557
329.456
325.493
320.358
314.06
307.271
301.486
296.557
291.284
285.045
278.66
273.21
268.792
265.048
262.653
261.004
257.739
254.487
253.256
254.568
0.828143
0.834298
0.798706
0.84809
0.947714
0.997755
1.02587
1.06402
1.08495
1.09516
1.10322
1.1119
1.11803
1.22904
1.42682
1.68961
2.00815
1.73851
1.1692
1.29626
1.3487
1.36053
1.25771
1.35303
1.35653
1.0252
1.58897
3.15788
3.606
3.76454
4.20475
4.22874
4.23502
4.28812
4.29664
4.29373
4.28783
3.95433
3.34324
2.8511
2.28062
1.12302
1.30496
1.3396
1.33996
1.17076
0.755933
0.915355
0.699607
0.73243
0.0172321
0.0106371
0.0694391
0.0454799
0.1789
0.226102
0.261336
0.333812
0.25472
0.186514
0.191329
0.195522
0.20832
0.516854
0.806877
0.590856
0.751631
0.860995
0.732472
0.0266611
0.0131868
0.149139
0.145331
0.0318611
0.00812142
-0.00282528
-0.00323898
-0.00376767
-0.00316571
-0.00214377
-0.000893384
0.00196436
0.00596045
0.0172361
0.102206
0.148368
0.0878842
0.0994912
0.176743
0.221611
0.111585
0.316498
-0.00506701
-0.00601615
-0.0062006
-0.00679932
-0.0039008
3.08255e-05
0.00129423
-0.0008679
-0.00296208
-0.00205995
0.000424701
0.00138429
0.00170677
0.00428885
0.0697224
0.142639
0.142921
0.0592354
0.077027
0.11729
0.0269232
0.0138297
0.0333369
-0.00418634
-0.00462758
-0.00484172
-0.00494804
-0.00375722
-0.00233718
0.00168945
0.000468344
-0.00240799
-0.000480027
0.00369841
0.00459109
0.00191331
0.00321592
0.0384243
0.0636295
0.0435352
0.0481807
0.0731211
0.0328252
0.00973822
0.0103147
0.00923167
-0.00374016
-0.00381478
-0.00379414
-0.00386812
-0.00333149
-0.00283272
-0.0015257
-0.00190614
-0.00194142
0.000181746
0.00433511
0.00509394
0.00232438
0.00187462
0.00323964
0.00186712
0.00316468
0.00721826
0.013792
0.00830422
0.00781592
0.00836838
0.00810276
-0.00313521
-0.00301725
-0.00304174
-0.00309976
-0.00286287
-0.00256047
-0.00229422
-0.0019567
-0.00156503
0.0015584
0.00487105
0.0013387
0.000783012
0.0012726
0.00165289
0.00210837
0.00327
0.0047935
0.00551984
0.0057944
0.00653946
0.00700605
0.00699635
-0.00265343
-0.00258944
-0.00250855
-0.00259475
-0.00244567
-0.00220067
-0.0019328
-0.000805866
0.00191301
0.00223455
0.00117463
-2.1941e-05
0.000584571
0.00112525
0.00155644
0.00205342
0.00530656
0.0153915
0.0161019
0.0112781
0.005504
0.00580316
0.00587291
-0.00220126
-0.00228318
-0.00222518
-0.0022233
-0.00208269
-0.00188289
-0.00119589
0.00225414
0.00252136
0.00228361
-0.000420434
5.73407e-05
0.000553098
0.00101763
0.00143383
0.00186467
0.00781494
0.0154331
0.0160178
0.0165839
0.00717128
0.00480849
0.00489264
-0.0018123
-0.00189873
-0.00192687
-0.00188378
-0.0017677
-0.00160798
-0.00094658
0.00230916
0.00254201
-0.00016485
-0.000293623
0.000115257
0.000530225
0.000927179
0.0012979
0.00165141
0.002256
0.00812659
0.0149385
0.00922307
0.00366031
0.00398041
0.00408377
-0.00139291
-0.00135449
-0.00160318
-0.00157984
-0.00149145
-0.00133649
-0.000934427
-0.000677901
-0.000442383
-0.000525595
-0.000190639
0.00015899
0.000510253
0.000850629
0.00117456
0.00147847
0.00174773
0.00198008
0.00237667
0.00266655
0.00306875
0.00335018
0.00342363
-0.00086389
-0.000893543
-0.00133055
-0.00131857
-0.00124583
-0.00111993
-0.000997245
-0.000851261
-0.000644133
-0.000388538
-0.00010512
0.000191643
0.000490886
0.0007849
0.00106722
0.00133364
0.00157795
0.00180526
0.0020522
0.00233666
0.00261204
0.00280922
0.00285692
-0.000255933
-0.000620445
-0.0010928
-0.00109274
-0.00103641
-0.000941447
-0.000829613
-0.000679728
-0.000495284
-0.000277471
-3.71508e-05
0.000215362
0.000472061
0.000725856
0.000971133
0.00120434
0.00142243
0.0016281
0.00183547
0.00204693
0.00223162
0.00234997
0.00238764
2.91884e-06
-0.000479749
-0.000893803
-0.000900439
-0.000857892
-0.00078157
-0.000674055
-0.000538935
-0.000376336
-0.000188733
1.66919e-05
0.000232801
0.000453109
0.000671698
0.000883938
0.00108661
0.00127739
0.00145649
0.00162794
0.00178934
0.00192271
0.00200657
0.00203002
0.000214825
-0.000445077
-0.000729867
-0.000737678
-0.000704194
-0.000637287
-0.000541878
-0.000421985
-0.000279478
-0.000117385
5.91015e-05
0.000244544
0.000433707
0.000621779
0.000804776
0.000979684
0.00114421
0.00129718
0.0014383
0.0015637
0.00166257
0.00172267
0.00173662
0.000374087
-0.000273614
-0.000585163
-0.000597815
-0.0005712
-0.000513287
-0.000429702
-0.000324295
-0.000199868
-5.96247e-05
9.23406e-05
0.000251686
0.000414146
0.000575745
0.000733029
0.00088315
0.00102375
0.00115294
0.00126881
0.00136753
0.00144223
0.00148559
0.00149283
0.000521874
0.000310667
-0.000464581
-0.000479256
-0.000457665
-0.000407658
-0.000334602
-0.000242351
-0.000133986
-1.26024e-05
0.000118364
0.000255342
0.000394808
0.000533424
0.000668179
0.000796432
0.000915835
0.00102422
0.00111927
0.00119765
0.00125474
0.00128597
0.00128828
0.00064131
0.000559623
-0.000364989
-0.000379592
-0.000361315
-0.000317731
-0.000253812
-0.000173243
-7.90294e-05
2.59737e-05
0.000138823
0.000256526
0.000376127
0.000494796
0.0006099
0.000719027
0.000819943
0.000910487
0.000988375
0.00105085
0.00109468
0.00111683
0.00111534
0.000737311
0.000586887
-0.000280389
-0.000294995
-0.000278923
-0.000240611
-0.000184618
-0.000114382
-3.26472e-05
5.8042e-05
0.000155157
0.000256166
0.000358563
0.000459926
0.000557949
0.000650465
0.000735409
0.000810767
0.000874465
0.00092425
0.000957746
0.000972864
0.000968282
0.000657862
-6.47347e-06
-0.000211948
-0.000222516
-0.000207313
-0.000173424
-0.000124479
-6.34957e-05
7.1383e-06
8.52158e-05
0.000168571
0.000255045
0.0003425
0.000428843
0.000512057
0.000590203
0.000661419
0.000723881
0.000775768
0.000815228
0.000840451
0.000849912
0.000842676
3.29465e-05
-0.000124585
-0.000151761
-0.000157386
-0.000143153
-0.000113547
-7.12086e-05
-1.87067e-05
4.19166e-05
0.000108768
0.000179993
0.000253743
0.000328174
0.000401469
0.00047185
0.000537594
0.000597031
0.000648537
0.000690523
0.000721449
0.000739883
0.000744649
0.000735039
1.38552e-05
-5.37429e-05
-8.82824e-05
-9.57932e-05
-8.41692e-05
-5.91529e-05
-2.3215e-05
2.13732e-05
7.28585e-05
0.000129623
0.000190077
0.000252625
0.000315667
0.000377606
0.000436868
0.000491915
0.000541253
0.000583434
0.000617072
0.000640858
0.00065362
0.000654403
0.000642632
4.94043e-05
-2.37692e-06
-3.24819e-05
-3.9283e-05
-2.99277e-05
-9.29341e-06
2.05146e-05
5.76739e-05
0.000100753
0.000148395
0.000199232
0.000251882
0.000304938
0.000356985
0.000406614
0.000452442
0.000493123
0.000527361
0.00055393
0.000571697
0.000579668
0.000577033
0.000563299
7.65356e-05
3.75991e-05
1.57082e-05
1.21173e-05
2.01677e-05
3.67277e-05
6.063e-05
9.07713e-05
0.000126077
0.00016544
0.000207673
0.000251565
0.000295868
0.000339306
0.000380601
0.000418497
0.000451769
0.000479244
0.000499819
0.000512492
0.000516393
0.000510814
0.000495311
9.53886e-05
6.91754e-05
5.81249e-05
5.9926e-05
6.72781e-05
7.9536e-05
9.74968e-05
0.00012093
0.000149044
0.000180899
0.000215454
0.000251621
0.000288276
0.000324248
0.000358361
0.000389458
0.000416413
0.000438144
0.000453641
0.000461999
0.000462435
0.000454313
0.000437234
0.000106795
9.40229e-05
9.84223e-05
0.00010773
0.000112809
0.000119388
0.000131094
0.000148083
0.000169597
0.00019472
0.000222489
0.000251902
0.000281925
0.000311468
0.000339433
0.000364742
0.00038634
0.00040322
0.000414429
0.000419131
0.000416608
0.00040628
0.000387796
0.000113804
0.000113962
0.000143847
0.000162417
0.00015677
0.000155026
0.000160494
0.000171701
0.000187415
0.000206684
0.000228581
0.000252176
0.000276515
0.000300583
0.000323336
0.000343765
0.000360867
0.000373675
0.000381287
0.000382901
0.000377841
0.000365575
0.000345813
0.000112822
0.000465899
0.00290483
0.00345281
0.000659595
0.000182361
0.000183647
0.000190797
0.000202012
0.000216485
0.000233462
0.00025215
0.000271695
0.000291149
0.000309545
0.000325916
0.000339294
0.000348738
0.000353365
0.000352383
0.000345137
0.000331132
0.000310162
0.00010775
0.001199
0.00393696
0.00395583
0.00208804
0.000199051
0.000199982
0.000205212
0.000213286
0.000223988
0.00023692
0.000251522
0.000267066
0.000282691
0.000297495
0.00031055
0.000320911
0.000327641
0.000329847
0.000326718
0.000317581
0.000301969
0.000279789
0.000106079
0.00106964
0.0040489
0.00406107
0.00195957
0.000208702
0.000212624
0.000216493
0.000221898
0.000229365
0.000238849
0.000250004
0.000262208
0.000274682
0.000286575
0.000296989
0.000304988
0.000309625
0.000309965
0.000305127
0.000294367
0.000277208
0.000253722
0.000119645
0.000434964
0.00316609
0.00309979
0.000748571
0.00022426
0.000225814
0.000226555
0.000228635
0.0002328
0.000239109
0.00024726
0.000256655
0.000266552
0.000276134
0.000284521
0.000290788
0.000293963
0.000293029
0.000286964
0.000274847
0.000256115
0.000231084
0.00016752
0.000258333
0.000407043
0.000361645
0.000254336
0.000247662
0.000240868
0.000235783
0.000233453
0.00023405
0.000237348
0.000242854
0.000249892
0.000257711
0.000265507
0.000272436
0.000277593
0.000279981
0.000278464
0.00027177
0.000258617
0.000238156
0.000211086
0.000247985
0.000354841
0.000365029
0.000330023
0.000296307
0.000271955
0.000254127
0.000242064
0.000235036
0.000232249
0.000232912
0.000236211
0.000241344
0.000247531
0.000254004
0.000259989
0.000264656
0.000267008
0.000265767
0.000259296
0.000245616
0.00022306
0.000192978
0.000372945
0.000482674
0.000448895
0.000381487
0.000325762
0.000286195
0.000259119
0.000241481
0.000230955
0.000225775
0.000224581
0.000226285
0.000229995
0.000234947
0.00024047
0.000245943
0.000250694
0.000253814
0.000253947
0.000249068
0.000235988
0.000210662
0.000175821
0.000561136
0.000618338
0.000499403
0.000398358
0.000328039
0.000280398
0.000249232
0.00022974
0.000218327
0.000212519
0.000210643
0.000211523
0.000214303
0.000218337
0.000223148
0.000228367
0.00023361
0.000238221
0.000241004
0.000239795
0.000229662
0.000200585
0.000157853
0.00072842
0.000682142
0.000482839
0.0003665
0.000295433
0.000251031
0.000224671
0.000209487
0.000201106
0.000197085
0.000195975
0.000196854
0.000199115
0.000202378
0.000206462
0.000211361
0.000217115
0.000223572
0.000230201
0.000235077
0.000230072
0.00019702
0.000136944
0.000918512
0.000627455
0.000400926
0.000301012
0.000245115
0.000219244
0.000209717
0.000206249
0.000205032
0.000204984
0.000205684
0.000206907
0.00020855
0.000210641
0.000213394
0.000217271
0.000222887
0.000230861
0.000242479
0.000258562
0.000260902
0.000227581
0.000115699
0.000732339
3.5195e-05
0.000158929
0.000167956
0.000169623
0.000177902
0.000187628
0.000194321
0.000198104
0.00020005
0.000200891
0.000201061
0.000200871
0.00020064
0.00020084
0.000202246
0.000205938
0.000213332
0.000229306
0.000274714
0.000376882
0.000305524
0.00010048
755.363
755.456
755.624
755.724
733.299
732.928
733.123
733.572
255.472
256.178
257.267
259.111
0.877118
0.761463
0.764665
0.762324
0.718293
0.716784
0.726144
0.730263
0.709408
0.713042
0.901579
0.901302
0.715226
0.70653
0.400947
0.466799
0.0928636
0.0401114
0.00995373
0.00995911
0.0081499
0.00811058
0.00849801
0.00875962
0.0077672
0.00764444
0.00775289
0.00790998
0.0068508
0.00680398
0.00685279
0.00693988
0.00581544
0.00576988
0.00573181
0.00578384
0.00483292
0.00474913
0.00463742
0.00446212
0.00400549
0.00390967
0.00378267
0.00360846
0.00331444
0.00324403
0.00316754
0.00311344
0.00277705
0.00272273
0.00266155
0.00262706
0.00234782
0.00230605
0.00224635
0.00216889
0.00199395
0.00196006
0.00191543
0.00186096
0.00170605
0.00167865
0.00164407
0.00160221
0.00146679
0.00144405
0.00141603
0.0013825
0.0012655
0.00124603
0.00122242
0.00119441
0.00109479
0.00107755
0.00105687
0.0010325
0.000949144
0.000933364
0.000914593
0.000892591
0.00082431
0.000809432
0.000791872
0.000771438
0.000716951
0.000702579
0.000685796
0.000666434
0.000624481
0.000610369
0.000594095
0.000575508
0.000544881
0.000530884
0.000514963
0.000496969
0.000476545
0.000462581
0.000446912
0.000429383
0.000418099
0.000404125
0.000388634
0.000371457
0.000368304
0.000354284
0.0003389
0.000321971
0.000325971
0.000311867
0.000296519
0.000279736
0.000289952
0.000275716
0.000260331
0.000243605
0.000259148
0.00024472
0.000229228
0.000212486
0.000232538
0.000217841
0.000202172
0.00018536
0.000209178
0.000194111
0.000178194
0.000161281
0.00018817
0.0001726
0.000156363
0.000139348
0.000168595
0.000152336
0.000135713
0.000118655
0.000149357
0.000132194
0.000115158
9.82314e-05
0.000128746
0.000110651
9.34002e-05
7.70415e-05
0.000103772
8.54209e-05
6.89789e-05
5.42546e-05
7.05165e-05
5.26947e-05
3.96968e-05
2.93111e-05
5.01622e-05
3.21968e-05
1.91191e-05
9.74202e-06
756.701
756.953
757.402
757.99
757.867
756.123
756.052
758.324
761.143
763.335
764.73
758.589
760.062
768.585
767.695
767.454
760.189
764.151
768.094
734.076
733.706
733.909
734.572
736.065
737.213
736.195
734.784
739.189
754.658
765.143
766.628
767.4
767.189
764.337
763.506
763.937
762.9
760.988
263.688
266
268.603
272.199
278.455
287.986
298.986
308.474
313.396
315.429
327.371
343.032
349.497
345.585
340.802
342.609
351.313
346.081
345.8
0.798652
0.779538
0.862638
1.46098
1.69641
1.42696
1.1401
0.975609
0.92206
0.918819
0.879998
0.816976
0.771029
0.81929
0.866307
0.868105
0.848927
0.867814
0.871706
0.740493
0.744067
0.756022
1.41796
1.66605
1.65282
1.65663
1.66739
1.66334
1.65729
1.64696
1.46657
0.882774
1.24975
1.36777
1.37423
1.38145
1.38508
1.37369
0.886926
0.869832
0.868619
0.810776
0.958566
1.06623
0.962126
0.86258
0.823629
0.786114
0.666145
0.520531
0.666459
0.703466
0.774488
0.803398
0.758492
0.756042
0.772541
0.51688
0.527877
0.510221
0.416571
0.169936
0.0226857
0.0170212
0.0175407
0.0171982
0.0161049
0.0152663
0.0141349
0.0111651
0.0129227
0.0289804
0.0272781
0.0459362
0.126923
0.0768915
0.010023
0.00997603
0.00985863
0.00954852
0.0116087
0.0135175
0.0151937
0.0376517
0.0639919
0.0694915
0.0761335
0.0608392
0.0147536
0.00596408
0.00344889
0.00187343
0.000867676
0.000186945
0.00112719
0.00890489
0.00914394
0.00930633
0.00941824
0.0102264
0.0113442
0.0498905
0.104409
0.102603
0.101494
0.101155
0.100637
0.0257534
0.00571675
0.00367707
0.00220315
0.00140881
0.00101482
0.0015001
0.00863888
0.0113735
0.0121175
0.00862007
0.00859505
0.0225465
0.108424
0.106072
0.0646193
0.0501168
0.0982076
0.103628
0.036333
0.0349132
0.00527796
0.00249513
0.0018023
0.00154738
0.00171105
0.0144186
0.043146
0.0442307
0.0127875
0.00685912
0.0313097
0.0859909
0.0400202
0.00403483
0.00769891
0.0125103
0.0347803
0.0570778
0.0577083
0.0408949
0.00261619
0.00217762
0.00188807
0.00188963
0.0247721
0.0460332
0.0460596
0.0461782
0.0242904
0.0104883
0.00193262
0.000834998
0.00402408
0.0166729
0.0157083
0.00710403
0.0382328
0.0594443
0.0475651
0.00659625
0.00268215
0.00228385
0.00211804
0.00857741
0.0376305
0.0464965
0.0463985
0.0282439
0.00232126
0.00138889
0.000910392
0.00318258
0.00439628
0.000680632
-0.000491782
-0.000646734
-0.00047049
0.0203959
0.0313217
0.024059
0.00320883
0.00228467
0.0032079
0.00455668
0.0156638
0.0115569
0.0018102
0.00173748
0.00126772
0.00091119
0.000498264
0.000140181
-0.000117343
-0.000257253
-0.0003042
0.000162189
0.0197692
0.0322766
0.0326764
0.0328329
0.0235753
0.00284057
0.00215223
0.00167925
0.00152794
0.00155305
0.00142139
0.00110771
0.000808521
0.000505653
0.00022495
1.43964e-05
-0.000114534
-0.000178505
-0.000196334
0.0014584
0.0156634
0.0218153
0.0126489
0.0087478
0.00248133
0.00218441
0.0019457
0.00166904
0.00139999
0.00121288
0.000961688
0.000707609
0.000470115
0.000248172
7.0548e-05
-5.17984e-05
-0.000121721
-0.000161972
-0.00022214
-0.000240979
-0.000113752
0.000152873
-0.000150774
0.0020263
0.00211552
0.00220376
0.0020299
0.00174711
0.00111958
0.000837946
0.000623039
0.000422547
0.000239386
7.07214e-05
-4.96484e-05
-0.00012977
-0.000172283
-0.000178458
-0.000101451
9.11384e-05
0.000331567
0.000291104
0.00175489
0.00162399
0.00191819
0.00191285
0.00177213
0.00153157
0.000715157
0.000534329
0.000445384
0.000328381
8.77431e-05
-9.53572e-05
-0.000187423
-0.000241292
-0.000247269
-0.000166689
9.25089e-06
0.00303939
0.0211391
0.00152053
0.00136488
0.00119801
0.00128175
0.00148633
0.00109521
0.000631494
0.000458953
0.000461495
0.000299194
0.000150421
-0.000162547
-0.000299576
-0.000391288
-0.000453204
-0.000465741
-0.000434128
0.016048
0.0371005
0.00131697
0.00119195
0.00105253
0.000910942
0.000770201
0.000628911
0.000481564
0.000378211
0.000320179
0.000213486
9.87494e-06
-0.000270527
-0.000447205
-0.000594275
-0.000748208
-0.000910791
-0.00100399
0.022738
0.0378065
0.00113959
0.00103512
0.000915019
0.000787572
0.000655842
0.000519365
0.000375631
0.000223379
6.50284e-05
-8.95948e-05
-0.000252752
-0.000424339
-0.000601948
-0.000803717
-0.00104677
-0.00135038
-0.00166867
0.0113246
0.0386904
0.000984747
0.000894309
0.000788132
0.000671796
0.000547985
0.000417148
0.000278366
0.000131047
-2.39564e-05
-0.000185765
-0.000355427
-0.000537377
-0.000740529
-0.000978849
-0.0012746
-0.00165899
-0.00213997
-0.00180763
0.0393536
0.000849556
0.000768876
0.000672896
0.000565429
0.000448676
0.000323402
0.000189379
4.62509e-05
-0.000105986
-0.000267758
-0.000441157
-0.000630915
-0.000845186
-0.00109637
-0.00140373
-0.00179587
-0.00227683
-0.00274273
0.00579313
0.000731622
0.00065791
0.000569594
0.000469315
0.000358806
0.000238846
0.0001095
-2.94704e-05
-0.000178417
-0.000338211
-0.000510931
-0.000700405
-0.000912441
-0.00115471
-0.00143757
-0.0017727
-0.00213942
-0.00237396
-0.00226606
0.000628919
0.000560355
0.000477984
0.000383656
0.000278701
0.000163814
3.91756e-05
-9.53476e-05
-0.000240117
-0.000395894
-0.000564113
-0.000746995
-0.000947227
-0.00116698
-0.00140659
-0.0016594
-0.00188313
-0.00193697
-0.00169181
0.000539726
0.000475107
0.000397506
0.000308227
0.00020828
9.82543e-05
-2.16162e-05
-0.000151343
-0.00029111
-0.00044128
-0.000602383
-0.000774897
-0.00095855
-0.00115088
-0.00134466
-0.00152086
-0.00162713
-0.00156526
-0.000706769
0.000462551
0.000401061
0.000327408
0.000242516
0.00014715
4.17977e-05
-7.32737e-05
-0.000197944
-0.000332142
-0.000475746
-0.000628391
-0.000789053
-0.000955204
-0.00112132
-0.00127618
-0.00139618
-0.00143052
-0.00131326
0.00734287
0.000396055
0.00033712
0.000266824
0.000185826
9.47018e-05
-6.14732e-06
-0.000116437
-0.000235924
-0.000364288
-0.000500952
-0.000644804
-0.000793703
-0.000943662
-0.0010876
-0.00121338
-0.00129916
-0.00130331
-0.00117671
0.00955406
0.000338987
0.000282184
0.000214813
0.000137344
5.02011e-05
-4.62944e-05
-0.000151859
-0.000266161
-0.000388674
-0.00051846
-0.000653837
-0.000791882
-0.000927706
-0.00105356
-0.00115781
-0.00122276
-0.00121736
-0.00109768
0.0099271
0.000290146
0.00023516
0.000170404
9.62053e-05
1.28608e-05
-7.93935e-05
-0.000180305
-0.000289502
-0.000406328
-0.000529592
-0.000657206
-0.00078567
-0.000909418
-0.00102013
-0.0011063
-0.00115235
-0.00113296
-0.00101196
0.00720501
0.000248371
0.000194975
0.000132629
6.15479e-05
-1.80926e-05
-0.000106159
-0.000202469
-0.000306679
-0.000418095
-0.000535403
-0.000656259
-0.000776731
-0.00089058
-0.00098852
-0.00105759
-0.00107956
-0.00102603
-0.000870009
-0.000618162
0.000212548
0.000160601
0.000100569
3.2565e-05
-4.33623e-05
-0.000127208
-0.000218913
-0.000318239
-0.000424577
-0.000536645
-0.00065205
-0.000766632
-0.000873617
-0.000962614
-0.00101828
-0.00101707
-0.000922705
-0.000714473
0.000481654
0.000181631
0.000131085
7.33884e-05
8.54648e-06
-6.35345e-05
-0.000143013
-0.000230009
-0.000324483
-0.000426042
-0.000533642
-0.000645116
-0.000756456
-0.000860822
-0.000947294
-0.000999057
-0.00098926
-0.000876904
-0.000645123
0.010952
0.000154656
0.000105571
5.03638e-05
-1.10868e-05
-7.9044e-05
-0.000153866
-0.000235906
-0.000325406
-0.000422335
-0.000526105
-0.000635106
-0.000745964
-0.000852486
-0.000944149
-0.00100409
-0.00100489
-0.000903432
-0.000675081
0.0124367
0.000130749
8.33148e-05
3.09084e-05
-2.67589e-05
-9.01529e-05
-0.00015986
-0.000236506
-0.000320683
-0.000412833
-0.00051303
-0.000620559
-0.000733225
-0.000846279
-0.000950517
-0.0010299
-0.00105707
-0.000983849
-0.000759403
0.0127127
0.000109112
6.3692e-05
1.45872e-05
-3.87247e-05
-9.69448e-05
-0.0001609
-0.000231493
-0.000309689
-0.000396476
-0.000492742
-0.000598984
-0.000714762
-0.000837658
-0.000960868
-0.00107019
-0.00113819
-0.00110691
-0.000885279
0.0129611
8.90125e-05
4.62057e-05
1.1263e-06
-4.70721e-05
-9.93466e-05
-0.00015674
-0.000220394
-0.000291608
-0.000371902
-0.000463044
-0.000566976
-0.000685516
-0.000819583
-0.000966398
-0.00111568
-0.00123858
-0.00126809
-0.00105203
0.0110271
6.97827e-05
3.05102e-05
-9.57303e-06
-5.17347e-05
-9.7173e-05
-0.000147071
-0.000202707
-0.000265596
-0.000337669
-0.000421479
-0.00052044
-0.000639026
-0.000782197
-0.00095409
-0.00115166
-0.00133325
-0.00145879
-0.00126565
0.00637986
5.09352e-05
1.65857e-05
-1.7278e-05
-5.2372e-05
-9.00417e-05
-0.000131465
-0.000177886
-0.000230828
-0.000292375
-0.00036555
-0.000454916
-0.000567339
-0.000712427
-0.000903134
-0.00115131
-0.00142126
-0.00170329
-0.00157208
0.00651223
3.2592e-05
5.21613e-06
-2.0994e-05
-4.7982e-05
-7.70101e-05
-0.00010903
-0.000145018
-0.00018622
-0.000234455
-0.000292587
-0.000365364
-0.000460762
-0.000591761
-0.00077974
-0.00106236
-0.00147468
-0.00204938
-0.00200153
0.00620278
1.5675e-05
-2.45722e-06
-1.98305e-05
-3.80113e-05
-5.78386e-05
-7.97995e-05
-0.000104377
-0.000132235
-0.00016444
-0.000202849
-0.000250886
-0.000315063
-0.000407482
-0.000551885
-0.000811434
-0.00135376
-0.00237789
-0.00273068
0.00524094
-3.34103e-07
-1.0734e-05
-2.03197e-05
-3.06068e-05
-4.19372e-05
-5.43456e-05
-6.78147e-05
-8.23573e-05
-9.81006e-05
-0.000115457
-0.00013555
-0.000161288
-0.000199854
-0.000268495
-0.000417591
-0.000830118
-0.00199484
-0.00337486
0.00248568
)
;

boundaryField
{
    leftWall
    {
        type            fixedFluxPressure;
        gradient        uniform 0;
        value           nonuniform List<scalar> 
50
(
767.16
767.152
767.156
767.176
767.213
767.268
767.344
767.44
767.624
761.23
332.395
0.828143
1.35303
0.755933
0.0266611
-0.00506701
-0.00418634
-0.00374016
-0.00313521
-0.00265343
-0.00220126
-0.0018123
-0.00139291
-0.00086389
-0.000255933
2.91884e-06
0.000214825
0.000374087
0.000521874
0.00064131
0.000737311
0.000657862
3.29465e-05
1.38552e-05
4.94043e-05
7.65356e-05
9.53886e-05
0.000106795
0.000113804
0.000112822
0.00010775
0.000106079
0.000119645
0.00016752
0.000247985
0.000372945
0.000561136
0.00072842
0.000918512
0.000732339
)
;
    }
    rightWall
    {
        type            fixedFluxPressure;
        gradient        uniform 0;
        value           nonuniform List<scalar> 
50
(
766.155
766.207
765.803
765.844
765.955
766.568
767.543
767.724
768.094
760.988
345.8
0.871706
1.37369
0.772541
0.0768915
0.00112719
0.0015001
0.00171105
0.00188963
0.00211804
0.00228467
0.0235753
0.0087478
-0.000150774
0.000291104
0.0211391
0.0371005
0.0378065
0.0386904
0.0393536
0.00579313
-0.00226606
-0.00169181
-0.000706769
0.00734287
0.00955406
0.0099271
0.00720501
-0.000618162
0.000481654
0.010952
0.0124367
0.0127127
0.0129611
0.0110271
0.00637986
0.00651223
0.00620278
0.00524094
0.00248568
)
;
    }
    lowerWall
    {
        type            fixedFluxPressure;
        gradient        uniform 0;
        value           nonuniform List<scalar> 
62
(
767.16
767.162
767.07
766.87
766.562
766.152
765.646
765.05
764.376
763.632
762.832
761.991
761.12
760.228
759.322
758.416
757.567
756.862
756.327
755.912
755.732
755.857
755.925
755.925
755.952
755.938
755.938
755.944
755.949
755.908
755.911
755.363
755.456
755.624
755.724
756.84
756.768
756.656
757.451
757.987
757.776
757.534
757.259
756.84
757.435
757.948
758.401
758.831
759.199
759.697
760.193
760.591
760.875
761.299
762.234
763.104
763.6
764.628
765.54
765.953
766.189
766.155
)
;
    }
    atmosphere
    {
        type            totalPressure;
        rho             rho;
        psi             none;
        gamma           1;
        p0              uniform 0;
        value           nonuniform List<scalar> 
46
(
-0.000104852
0
0
0
0
0
0
0
0
0
0
0
0
0
0
0
0
0
0
0
0
-4.22497e-07
-1.90414e-06
-3.69261e-06
-5.14017e-06
-6.80522e-06
-8.67447e-06
-1.22556e-05
-1.81242e-05
-2.48952e-05
-3.24477e-05
-4.06455e-05
-4.93311e-05
-5.83184e-05
-6.73863e-05
-7.62719e-05
-8.46628e-05
-9.21871e-05
-9.83963e-05
-0.000102724
-0.000104371
-0.000102007
-9.28985e-05
-7.08383e-05
-2.09553e-05
0
)
;
    }
    defaultFaces
    {
        type            empty;
    }
}


// ************************************************************************* //
