/*--------------------------------*- C++ -*----------------------------------*\
  =========                 |
  \\      /  F ield         | OpenFOAM: The Open Source CFD Toolbox
   \\    /   O peration     | Website:  https://openfoam.org
    \\  /    A nd           | Version:  9
     \\/     M anipulation  |
\*---------------------------------------------------------------------------*/
FoamFile
{
    format      ascii;
    class       volScalarField;
    location    "8.58";
    object      p;
}
// * * * * * * * * * * * * * * * * * * * * * * * * * * * * * * * * * * * * * //

dimensions      [1 -1 -2 0 0 0 0];

internalField   nonuniform List<scalar> 
2268
(
739.732
739.54
739.205
738.722
738.101
737.356
736.499
735.548
734.519
733.431
732.304
731.156
730.004
728.861
727.737
726.653
725.639
724.752
723.999
723.392
723.021
722.762
722.63
680.916
680.727
680.393
679.909
679.285
678.534
677.67
676.71
675.673
674.576
673.438
672.278
671.11
669.951
668.818
667.741
666.76
665.912
665.255
664.674
664.189
663.836
663.7
622.134
621.946
621.61
621.124
620.495
619.736
618.863
617.891
616.841
615.731
614.579
613.402
612.218
611.043
609.901
608.828
607.864
607.043
606.435
605.868
605.295
604.88
604.751
563.388
563.198
562.859
562.369
561.732
560.964
560.077
559.091
558.025
556.897
555.727
554.532
553.331
552.142
550.991
549.916
548.943
548.12
547.513
546.973
546.344
545.89
545.786
504.68
504.485
504.14
503.643
502.997
502.215
501.314
500.31
499.223
498.075
496.883
495.667
494.448
493.246
492.088
491.01
490.014
489.141
488.513
487.985
487.342
486.896
486.813
446.007
445.807
445.455
444.948
444.29
443.492
442.571
441.546
440.436
439.262
438.044
436.804
435.566
434.352
433.19
432.12
431.097
430.092
429.454
428.937
428.287
427.961
427.825
387.371
387.165
386.804
386.285
385.611
384.794
383.851
382.801
381.664
380.459
379.211
377.942
376.682
375.456
374.293
373.243
372.319
371.358
370.504
369.883
369.415
369.134
368.808
328.77
328.558
328.187
327.656
326.963
326.124
325.155
324.076
322.907
321.668
320.382
319.08
317.796
316.555
315.392
314.371
313.608
312.963
311.931
311.107
310.856
310.343
309.791
725.186
725.647
726.588
727.458
728.38
729.332
730.326
731.367
732.43
733.504
734.552
735.527
736.571
737.783
738.697
739.478
740.038
740.41
740.682
666.282
666.614
667.563
668.456
669.416
670.414
671.499
672.583
673.682
674.825
676.034
677.195
678.227
679.112
679.98
680.741
681.302
681.682
681.969
607.519
607.746
608.613
609.473
610.451
611.476
612.58
613.695
614.836
616.036
617.362
618.759
619.864
620.558
621.309
622.061
622.654
623.124
623.443
548.875
549.041
549.711
550.525
551.501
552.545
553.672
554.823
556.006
557.242
558.601
560.091
561.282
561.972
562.671
563.404
564.036
564.588
564.859
490.178
490.325
490.829
491.587
492.556
493.62
494.775
495.966
497.191
498.45
499.834
501.287
502.519
503.309
504.089
504.765
505.384
505.988
506.258
431.271
431.445
431.896
432.631
433.602
434.686
435.874
437.115
438.373
439.615
441.049
442.495
443.739
444.607
445.538
446.468
446.936
447.352
447.696
372.096
372.383
372.882
373.641
374.632
375.736
376.966
378.279
379.615
380.798
382.238
383.724
384.991
385.909
387.092
388.102
388.671
388.801
389.196
312.71
313.205
313.796
314.618
315.644
316.768
318.049
319.469
321.071
322.301
323.593
324.974
326.261
327.383
328.933
329.709
330.41
330.379
330.764
237.217
236.991
236.604
236.05
235.325
234.444
233.428
232.298
231.071
229.768
228.413
227.047
225.713
224.441
223.272
222.275
221.539
220.939
220.212
219.526
218.854
218.33
217.676
112.933
112.71
112.307
111.71
110.924
109.994
108.976
107.888
106.73
105.516
104.267
103.011
101.766
100.546
99.383
98.3354
97.4831
96.8612
96.3338
95.6945
94.9679
94.4748
94.2022
25.2873
25.1473
24.9147
24.5623
24.161
23.7271
23.2339
22.7044
22.1599
21.6157
21.0785
20.5339
19.9593
19.375
18.7987
18.261
17.8357
17.5407
17.2937
17.0347
16.7518
16.5677
16.4934
-0.746418
-0.73209
-0.720534
-0.72551
-0.679588
-0.60001
-0.575618
-0.57982
-0.587217
-0.594358
-0.600545
-0.605526
-0.623395
-0.632812
-0.63855
-0.655483
-0.69254
-0.743657
-0.788602
-0.791818
-0.774967
-0.762024
-0.768165
-0.966241
-0.962004
-0.95739
-0.956206
-0.945188
-0.929077
-0.914982
-0.906909
-0.9016
-0.898038
-0.895952
-0.895764
-0.900924
-0.905297
-0.90925
-0.91775
-0.929202
-0.938926
-0.945271
-0.948834
-0.948738
-0.948131
-0.949749
-1.14971
-1.15204
-1.14933
-1.14955
-1.15208
-1.15863
-1.16086
-1.16102
-1.16043
-1.15972
-1.15864
-1.15649
-1.15192
-1.14891
-1.14775
-1.14661
-1.14442
-1.14043
-1.13595
-1.13375
-1.13107
-1.12794
-1.12379
-1.28995
-1.29082
-1.29062
-1.29032
-1.29124
-1.29042
-1.28986
-1.2889
-1.28763
-1.28598
-1.28412
-1.28198
-1.27897
-1.27671
-1.27561
-1.27468
-1.27358
-1.2731
-1.27257
-1.27189
-1.27184
-1.27182
-1.2712
-1.41508
-1.4154
-1.41538
-1.41493
-1.41496
-1.41433
-1.41362
-1.4129
-1.41202
-1.41088
-1.40968
-1.40869
-1.40791
-1.407
-1.40571
-1.40377
-1.40183
-1.40093
-1.40046
-1.39982
-1.39968
-1.39988
-1.39985
-1.53981
-1.53997
-1.53984
-1.53953
-1.53934
-1.5388
-1.53821
-1.53759
-1.53683
-1.53596
-1.53512
-1.53461
-1.53456
-1.53384
-1.53235
-1.53063
-1.52896
-1.52784
-1.52707
-1.52647
-1.5262
-1.52613
-1.52593
-1.66443
-1.66453
-1.66438
-1.66415
-1.66391
-1.66351
-1.66302
-1.66244
-1.66179
-1.6611
-1.66044
-1.65986
-1.6594
-1.65866
-1.65757
-1.65643
-1.65529
-1.65422
-1.65346
-1.65293
-1.65264
-1.65249
-1.6523
-1.78909
-1.78912
-1.789
-1.7888
-1.78857
-1.78825
-1.78783
-1.78732
-1.7868
-1.78623
-1.78566
-1.78505
-1.78449
-1.78378
-1.78282
-1.78186
-1.78098
-1.78025
-1.77967
-1.77925
-1.77901
-1.77892
-1.77894
-1.91379
-1.91379
-1.91368
-1.91351
-1.91329
-1.91301
-1.91263
-1.9122
-1.9118
-1.91136
-1.91082
-1.91025
-1.90971
-1.90909
-1.90831
-1.90751
-1.90676
-1.90616
-1.90575
-1.90543
-1.90525
-1.90525
-1.90546
-2.03855
-2.03853
-2.03843
-2.03828
-2.03808
-2.03782
-2.03749
-2.03714
-2.03683
-2.03645
-2.03596
-2.03547
-2.03499
-2.0345
-2.03401
-2.03337
-2.0327
-2.03213
-2.03175
-2.03147
-2.03134
-2.03137
-2.03159
-2.16337
-2.16333
-2.16324
-2.16311
-2.16293
-2.16271
-2.16243
-2.16216
-2.16188
-2.16152
-2.16111
-2.16069
-2.16028
-2.15989
-2.15956
-2.15915
-2.15865
-2.15813
-2.15768
-2.15739
-2.15725
-2.15726
-2.15743
-2.28822
-2.28819
-2.2881
-2.28799
-2.28783
-2.28765
-2.28745
-2.28722
-2.28696
-2.28662
-2.28626
-2.2859
-2.28554
-2.28521
-2.28492
-2.28465
-2.2843
-2.28386
-2.28343
-2.28317
-2.28304
-2.28302
-2.28313
-2.4131
-2.41309
-2.41301
-2.4129
-2.41278
-2.41263
-2.41249
-2.41229
-2.41203
-2.41172
-2.41141
-2.4111
-2.41079
-2.4105
-2.41023
-2.40996
-2.40967
-2.40934
-2.40903
-2.40882
-2.4087
-2.40868
-2.40874
-2.53805
-2.53801
-2.53794
-2.53785
-2.53775
-2.53762
-2.5375
-2.53732
-2.53709
-2.53683
-2.53656
-2.5363
-2.53603
-2.53577
-2.53552
-2.53528
-2.53503
-2.53477
-2.53454
-2.53437
-2.53427
-2.53424
-2.53428
-2.66303
-2.66296
-2.66291
-2.66284
-2.66275
-2.66264
-2.66251
-2.66236
-2.66216
-2.66195
-2.66172
-2.66149
-2.66126
-2.66103
-2.66081
-2.6606
-2.66039
-2.66018
-2.66
-2.65986
-2.65978
-2.65975
-2.65977
-2.788
-2.78799
-2.78793
-2.78786
-2.78778
-2.78768
-2.78756
-2.78742
-2.78726
-2.78708
-2.78688
-2.78668
-2.78648
-2.78629
-2.78609
-2.78591
-2.78573
-2.78556
-2.78542
-2.78531
-2.78524
-2.78521
-2.78522
-2.91305
-2.91303
-2.91297
-2.91291
-2.91283
-2.91274
-2.91264
-2.91251
-2.91237
-2.91222
-2.91205
-2.91188
-2.91171
-2.91153
-2.91137
-2.91121
-2.91106
-2.91092
-2.9108
-2.91071
-2.91065
-2.91063
-2.91063
-3.03811
-3.03808
-3.03803
-3.03798
-3.03791
-3.03783
-3.03773
-3.03762
-3.0375
-3.03736
-3.03722
-3.03707
-3.03693
-3.03678
-3.03663
-3.0365
-3.03637
-3.03626
-3.03616
-3.03609
-3.03604
-3.03602
-3.03602
-3.16318
-3.16315
-3.16311
-3.16306
-3.163
-3.16293
-3.16284
-3.16275
-3.16264
-3.16252
-3.1624
-3.16227
-3.16214
-3.16202
-3.16189
-3.16178
-3.16167
-3.16158
-3.1615
-3.16144
-3.1614
-3.16138
-3.16139
-3.28827
-3.28824
-3.28821
-3.28816
-3.28811
-3.28804
-3.28797
-3.28788
-3.28779
-3.28769
-3.28758
-3.28747
-3.28736
-3.28725
-3.28715
-3.28705
-3.28696
-3.28688
-3.28681
-3.28676
-3.28673
-3.28672
-3.28673
-3.41338
-3.41336
-3.41332
-3.41328
-3.41323
-3.41317
-3.4131
-3.41302
-3.41294
-3.41285
-3.41276
-3.41267
-3.41257
-3.41248
-3.41239
-3.41231
-3.41223
-3.41217
-3.41211
-3.41207
-3.41205
-3.41204
-3.41205
-3.53851
-3.53848
-3.53845
-3.53841
-3.53836
-3.5383
-3.53824
-3.53818
-3.5381
-3.53803
-3.53795
-3.53787
-3.53779
-3.53771
-3.53763
-3.53756
-3.5375
-3.53744
-3.5374
-3.53737
-3.53735
-3.53735
-3.53736
-3.66363
-3.66364
-3.66359
-3.66354
-3.6635
-3.66345
-3.66339
-3.66333
-3.66327
-3.6632
-3.66314
-3.66307
-3.663
-3.66293
-3.66287
-3.66281
-3.66275
-3.66271
-3.66267
-3.66265
-3.66264
-3.66264
-3.66265
-3.78876
-3.78879
-3.78873
-3.78869
-3.78864
-3.7886
-3.78855
-3.78849
-3.78844
-3.78838
-3.78832
-3.78827
-3.78821
-3.78815
-3.7881
-3.78805
-3.788
-3.78797
-3.78794
-3.78792
-3.78791
-3.78791
-3.78793
-3.91391
-3.91391
-3.91387
-3.91383
-3.91379
-3.91375
-3.9137
-3.91366
-3.91361
-3.91356
-3.91351
-3.91346
-3.91341
-3.91337
-3.91332
-3.91328
-3.91324
-3.91321
-3.91319
-3.91318
-3.91317
-3.91318
-3.91319
-4.03906
-4.03905
-4.03901
-4.03898
-4.03894
-4.0389
-4.03887
-4.03883
-4.03879
-4.03875
-4.03871
-4.03866
-4.03862
-4.03858
-4.03854
-4.03851
-4.03848
-4.03845
-4.03844
-4.03843
-4.03843
-4.03843
-4.03845
-4.16421
-4.16419
-4.16416
-4.16412
-4.16409
-4.16406
-4.16403
-4.164
-4.16397
-4.16393
-4.1639
-4.16386
-4.16383
-4.16379
-4.16376
-4.16373
-4.16371
-4.16369
-4.16367
-4.16367
-4.16367
-4.16368
-4.1637
-4.28939
-4.28933
-4.2893
-4.28927
-4.28924
-4.28922
-4.2892
-4.28917
-4.28915
-4.28912
-4.28909
-4.28906
-4.28903
-4.289
-4.28897
-4.28895
-4.28893
-4.28892
-4.28891
-4.2889
-4.28891
-4.28892
-4.28894
-4.41453
-4.4145
-4.41446
-4.41442
-4.4144
-4.41438
-4.41436
-4.41435
-4.41433
-4.41431
-4.41428
-4.41426
-4.41423
-4.41421
-4.41419
-4.41417
-4.41415
-4.41414
-4.41414
-4.41414
-4.41414
-4.41415
-4.41417
-4.53969
-4.53966
-4.53961
-4.53957
-4.53955
-4.53955
-4.53954
-4.53953
-4.53951
-4.5395
-4.53948
-4.53946
-4.53944
-4.53942
-4.5394
-4.53938
-4.53937
-4.53936
-4.53936
-4.53936
-4.53937
-4.53938
-4.5394
-4.66486
-4.66481
-4.66475
-4.66471
-4.66471
-4.66471
-4.66472
-4.66471
-4.6647
-4.66469
-4.66468
-4.66466
-4.66464
-4.66463
-4.66461
-4.6646
-4.66459
-4.66458
-4.66458
-4.66458
-4.66459
-4.66461
-4.66463
-4.79003
-4.78997
-4.78992
-4.78989
-4.78988
-4.7899
-4.7899
-4.7899
-4.7899
-4.78989
-4.78988
-4.78986
-4.78985
-4.78984
-4.78982
-4.78981
-4.7898
-4.7898
-4.7898
-4.7898
-4.78981
-4.78983
-4.78985
-4.91519
-4.91512
-4.9151
-4.91509
-4.9151
-4.9151
-4.9151
-4.9151
-4.9151
-4.91509
-4.91508
-4.91507
-4.91506
-4.91505
-4.91504
-4.91503
-4.91502
-4.91501
-4.91501
-4.91502
-4.91503
-4.91505
-4.91507
-5.04034
-5.04026
-5.04028
-5.04029
-5.04031
-5.04031
-5.04031
-5.04031
-5.0403
-5.0403
-5.04029
-5.04028
-5.04027
-5.04026
-5.04025
-5.04024
-5.04023
-5.04023
-5.04023
-5.04023
-5.04025
-5.04026
-5.04029
-5.16543
-5.16539
-5.16544
-5.16548
-5.16551
-5.16551
-5.16551
-5.16551
-5.16551
-5.1655
-5.1655
-5.16549
-5.16548
-5.16547
-5.16546
-5.16545
-5.16545
-5.16544
-5.16544
-5.16545
-5.16546
-5.16548
-5.16551
-5.29045
-5.29049
-5.29058
-5.29065
-5.29069
-5.29071
-5.29072
-5.29072
-5.29072
-5.29071
-5.29071
-5.2907
-5.2907
-5.29069
-5.29068
-5.29067
-5.29067
-5.29066
-5.29066
-5.29066
-5.29067
-5.29069
-5.29072
-5.41551
-5.4156
-5.41575
-5.41584
-5.4159
-5.41592
-5.41593
-5.41593
-5.41593
-5.41593
-5.41592
-5.41592
-5.41591
-5.4159
-5.4159
-5.41589
-5.41588
-5.41588
-5.41587
-5.41587
-5.41587
-5.4159
-5.41594
-5.54057
-5.5408
-5.54097
-5.54106
-5.54111
-5.54113
-5.54113
-5.54113
-5.54113
-5.54112
-5.54112
-5.54112
-5.54111
-5.54111
-5.5411
-5.54109
-5.54109
-5.54108
-5.54107
-5.54105
-5.54104
-5.54108
-5.54116
-5.66588
-5.66639
-5.66632
-5.66633
-5.66634
-5.66634
-5.66634
-5.66633
-5.66633
-5.66633
-5.66633
-5.66632
-5.66632
-5.66632
-5.66632
-5.66631
-5.66631
-5.6663
-5.66629
-5.66627
-5.66622
-5.66625
-5.66638
218.308
218.373
218.72
219.099
94.4755
94.6149
94.8276
95.1029
16.5276
16.5812
16.6745
16.8087
-0.785377
-0.784381
-0.775767
-0.77121
-0.953332
-0.953417
-0.950797
-0.947964
-1.12034
-1.12051
-1.12211
-1.12188
-1.26744
-1.26742
-1.26956
-1.27132
-1.39901
-1.39858
-1.39868
-1.39871
-1.52532
-1.52498
-1.52485
-1.52481
-1.6519
-1.65169
-1.65161
-1.65157
-1.77902
-1.77908
-1.77908
-1.77907
-1.90595
-1.90622
-1.90637
-1.90648
-2.032
-2.03232
-2.03263
-2.03285
-2.15769
-2.15787
-2.15805
-2.15821
-2.28329
-2.2834
-2.28351
-2.28362
-2.40884
-2.40891
-2.40899
-2.40907
-2.53434
-2.53439
-2.53445
-2.53451
-2.65981
-2.65985
-2.65989
-2.65994
-2.78525
-2.78528
-2.78531
-2.78535
-2.91066
-2.91068
-2.91071
-2.91075
-3.03604
-3.03606
-3.03609
-3.03612
-3.1614
-3.16142
-3.16144
-3.16147
-3.28675
-3.28676
-3.28678
-3.2868
-3.41207
-3.41208
-3.4121
-3.41212
-3.53737
-3.53739
-3.53741
-3.53743
-3.66266
-3.66268
-3.6627
-3.66271
-3.78794
-3.78796
-3.78797
-3.78799
-3.91321
-3.91322
-3.91324
-3.91326
-4.03847
-4.03848
-4.0385
-4.03851
-4.16372
-4.16373
-4.16374
-4.16376
-4.28896
-4.28897
-4.28898
-4.289
-4.41419
-4.41421
-4.41422
-4.41424
-4.53942
-4.53944
-4.53945
-4.53947
-4.66465
-4.66466
-4.66468
-4.66469
-4.78987
-4.78988
-4.7899
-4.78991
-4.91509
-4.91511
-4.91512
-4.91513
-5.04031
-5.04032
-5.04034
-5.04035
-5.16553
-5.16554
-5.16556
-5.16557
-5.29075
-5.29076
-5.29078
-5.29079
-5.41597
-5.41598
-5.416
-5.41601
-5.54119
-5.54121
-5.54122
-5.54122
-5.66641
-5.66642
-5.66643
-5.66644
219.888
220.577
221.33
222.285
223.436
224.746
226.145
227.678
229.544
231.376
232.827
234.194
235.525
236.7
237.699
238.417
239.11
239.204
239.549
95.7721
96.6781
97.6294
98.728
99.9931
101.407
102.854
104.313
105.906
107.801
109.343
110.721
112.009
113.104
113.788
114.528
115.261
115.588
115.873
17.1199
17.5711
18.0627
18.6269
19.2657
19.9689
20.6969
21.3743
21.9513
22.7446
23.4422
24.0706
24.6988
25.2944
25.6796
26.1083
26.5712
26.8394
27.0507
-0.771731
-0.751554
-0.729813
-0.727221
-0.733117
-0.739049
-0.743725
-0.744628
-0.746019
-0.760804
-0.769184
-0.791033
-0.830216
-0.782533
-0.747315
-0.73225
-0.722669
-0.714761
-0.711532
-0.94654
-0.944301
-0.940366
-0.939332
-0.942327
-0.944378
-0.946522
-0.948773
-0.951892
-0.956778
-0.962484
-0.970855
-0.978079
-0.970629
-0.96835
-0.967361
-0.967133
-0.967674
-0.969618
-1.12227
-1.12817
-1.13227
-1.13376
-1.13527
-1.13706
-1.13888
-1.14079
-1.14299
-1.14564
-1.14754
-1.14723
-1.14327
-1.14756
-1.14862
-1.14827
-1.14811
-1.14764
-1.14819
-1.27216
-1.27202
-1.27278
-1.27329
-1.27244
-1.2718
-1.27238
-1.27379
-1.27481
-1.27438
-1.27447
-1.27514
-1.27715
-1.28276
-1.28604
-1.28795
-1.28903
-1.28974
-1.28917
-1.39881
-1.39918
-1.39944
-1.39966
-1.39907
-1.39918
-1.39993
-1.4008
-1.40166
-1.40242
-1.40297
-1.40373
-1.40545
-1.40893
-1.41115
-1.4126
-1.41348
-1.41393
-1.41365
-1.52482
-1.52535
-1.52599
-1.52669
-1.52725
-1.52837
-1.52968
-1.53037
-1.53117
-1.53245
-1.5333
-1.53366
-1.53434
-1.5353
-1.53638
-1.53735
-1.53801
-1.53835
-1.53818
-1.65153
-1.65176
-1.65257
-1.6538
-1.65549
-1.65692
-1.65788
-1.65855
-1.65924
-1.66003
-1.66098
-1.66161
-1.66165
-1.66104
-1.6615
-1.66212
-1.66259
-1.66287
-1.66283
-1.77907
-1.77889
-1.77942
-1.78048
-1.78195
-1.78309
-1.78349
-1.78396
-1.78457
-1.78527
-1.78604
-1.78681
-1.78694
-1.78642
-1.78653
-1.78686
-1.7872
-1.78743
-1.78754
-1.90661
-1.90654
-1.90653
-1.90683
-1.90762
-1.90838
-1.90888
-1.90937
-1.90991
-1.91048
-1.91109
-1.91166
-1.9119
-1.91158
-1.91141
-1.91158
-1.91182
-1.91202
-1.91227
-2.03311
-2.03314
-2.03292
-2.03286
-2.03328
-2.03382
-2.03428
-2.03474
-2.03521
-2.0357
-2.0362
-2.03669
-2.03699
-2.03684
-2.03647
-2.0364
-2.03651
-2.03663
-2.03703
-2.15846
-2.15857
-2.15849
-2.15855
-2.15886
-2.15926
-2.15966
-2.16007
-2.16049
-2.16092
-2.16136
-2.16179
-2.16218
-2.1623
-2.16196
-2.1616
-2.16136
-2.16133
-2.16184
-2.2838
-2.28392
-2.28397
-2.2841
-2.28435
-2.28468
-2.28503
-2.28539
-2.28577
-2.28615
-2.28654
-2.28694
-2.28734
-2.28754
-2.28739
-2.28704
-2.28666
-2.28667
-2.28721
-2.40921
-2.40933
-2.40943
-2.40958
-2.4098
-2.41008
-2.41038
-2.41071
-2.41105
-2.41139
-2.41174
-2.41209
-2.4124
-2.41261
-2.41266
-2.41263
-2.4126
-2.41278
-2.41335
-2.53463
-2.53475
-2.53487
-2.53502
-2.53522
-2.53547
-2.53573
-2.53602
-2.53632
-2.53664
-2.53696
-2.53727
-2.53757
-2.53782
-2.53803
-2.53833
-2.53875
-2.53896
-2.53928
-2.66004
-2.66016
-2.66029
-2.66044
-2.66062
-2.66083
-2.66107
-2.66133
-2.6616
-2.66189
-2.66218
-2.66247
-2.66276
-2.66304
-2.66334
-2.66372
-2.66422
-2.66441
-2.66446
-2.78543
-2.78555
-2.78568
-2.78582
-2.78599
-2.78618
-2.7864
-2.78663
-2.78688
-2.78714
-2.78741
-2.78768
-2.78796
-2.78823
-2.78853
-2.78886
-2.7892
-2.78938
-2.78941
-2.91081
-2.91092
-2.91104
-2.91117
-2.91133
-2.91151
-2.9117
-2.91192
-2.91215
-2.91239
-2.91263
-2.91288
-2.91314
-2.9134
-2.91367
-2.91394
-2.91419
-2.91434
-2.91433
-3.03618
-3.03627
-3.03638
-3.03651
-3.03665
-3.03682
-3.037
-3.0372
-3.0374
-3.03762
-3.03785
-3.03808
-3.03832
-3.03855
-3.03879
-3.03901
-3.03918
-3.03929
-3.03923
-3.16152
-3.16161
-3.16171
-3.16183
-3.16196
-3.16212
-3.16228
-3.16246
-3.16265
-3.16285
-3.16306
-3.16327
-3.16349
-3.1637
-3.1639
-3.16408
-3.1642
-3.16427
-3.16419
-3.28685
-3.28693
-3.28703
-3.28714
-3.28726
-3.2874
-3.28755
-3.28772
-3.28789
-3.28808
-3.28827
-3.28846
-3.28865
-3.28884
-3.28902
-3.28917
-3.28927
-3.28932
-3.28925
-3.41217
-3.41224
-3.41233
-3.41243
-3.41254
-3.41267
-3.41281
-3.41297
-3.41313
-3.41329
-3.41347
-3.41364
-3.41382
-3.41399
-3.41415
-3.41428
-3.41438
-3.41442
-3.41436
-3.53746
-3.53753
-3.53761
-3.53771
-3.53782
-3.53794
-3.53807
-3.53821
-3.53835
-3.53851
-3.53866
-3.53882
-3.53898
-3.53913
-3.53928
-3.5394
-3.53949
-3.53953
-3.53947
-3.66275
-3.66281
-3.66289
-3.66298
-3.66308
-3.66319
-3.66331
-3.66344
-3.66357
-3.66372
-3.66386
-3.664
-3.66415
-3.66428
-3.66441
-3.66451
-3.6646
-3.66464
-3.6646
-3.78803
-3.78809
-3.78816
-3.78824
-3.78833
-3.78844
-3.78855
-3.78867
-3.78879
-3.78892
-3.78905
-3.78918
-3.78931
-3.78943
-3.78953
-3.78962
-3.78968
-3.7897
-3.78966
-3.91329
-3.91335
-3.91341
-3.91349
-3.91358
-3.91367
-3.91378
-3.91389
-3.914
-3.91412
-3.91424
-3.91436
-3.91447
-3.91458
-3.91466
-3.91472
-3.91474
-3.91472
-3.91462
-4.03854
-4.0386
-4.03866
-4.03874
-4.03882
-4.03891
-4.039
-4.0391
-4.03921
-4.03932
-4.03943
-4.03954
-4.03964
-4.03973
-4.0398
-4.03983
-4.03981
-4.03975
-4.0396
-4.16379
-4.16384
-4.1639
-4.16397
-4.16405
-4.16413
-4.16422
-4.16432
-4.16441
-4.16452
-4.16462
-4.16472
-4.16481
-4.16489
-4.16494
-4.16496
-4.16493
-4.16485
-4.16468
-4.28903
-4.28908
-4.28914
-4.2892
-4.28927
-4.28935
-4.28943
-4.28952
-4.28962
-4.28971
-4.28981
-4.2899
-4.28998
-4.29006
-4.29011
-4.29013
-4.2901
-4.29002
-4.28988
-4.41426
-4.41431
-4.41437
-4.41443
-4.41449
-4.41457
-4.41464
-4.41473
-4.41481
-4.4149
-4.41499
-4.41508
-4.41517
-4.41524
-4.41529
-4.41531
-4.41529
-4.41522
-4.41507
-4.53949
-4.53954
-4.53959
-4.53965
-4.53971
-4.53978
-4.53985
-4.53993
-4.54001
-4.54009
-4.54018
-4.54027
-4.54035
-4.54042
-4.54048
-4.54052
-4.54051
-4.54043
-4.54027
-4.66472
-4.66476
-4.66481
-4.66486
-4.66492
-4.66498
-4.66505
-4.66512
-4.6652
-4.66528
-4.66536
-4.66545
-4.66553
-4.66561
-4.66568
-4.66573
-4.66573
-4.66566
-4.66547
-4.78994
-4.78998
-4.79003
-4.79008
-4.79013
-4.79019
-4.79025
-4.79031
-4.79039
-4.79046
-4.79054
-4.79063
-4.79072
-4.7908
-4.79088
-4.79095
-4.79097
-4.79089
-4.7907
-4.91516
-4.9152
-4.91524
-4.91529
-4.91533
-4.91538
-4.91544
-4.9155
-4.91557
-4.91564
-4.91572
-4.9158
-4.91589
-4.91599
-4.91608
-4.91616
-4.9162
-4.91612
-4.91591
-5.04038
-5.04041
-5.04045
-5.04049
-5.04053
-5.04058
-5.04063
-5.04068
-5.04074
-5.04081
-5.04088
-5.04097
-5.04106
-5.04117
-5.04128
-5.04138
-5.04143
-5.04132
-5.04105
-5.16559
-5.16563
-5.16566
-5.16569
-5.16573
-5.16577
-5.16581
-5.16586
-5.16591
-5.16597
-5.16604
-5.16612
-5.16622
-5.16633
-5.16646
-5.1666
-5.16668
-5.16655
-5.16623
-5.29081
-5.29084
-5.29086
-5.29089
-5.29092
-5.29095
-5.29099
-5.29103
-5.29107
-5.29112
-5.29118
-5.29126
-5.29135
-5.29147
-5.29162
-5.29181
-5.29198
-5.29187
-5.29154
-5.41602
-5.41604
-5.41606
-5.41609
-5.41611
-5.41613
-5.41616
-5.41619
-5.41622
-5.41626
-5.41631
-5.41637
-5.41646
-5.41657
-5.41674
-5.417
-5.41732
-5.41728
-5.41702
-5.54123
-5.54125
-5.54126
-5.54127
-5.54129
-5.54131
-5.54132
-5.54134
-5.54137
-5.54139
-5.54143
-5.54147
-5.54152
-5.54161
-5.54176
-5.54208
-5.54265
-5.54284
-5.54281
-5.66644
-5.66645
-5.66646
-5.66646
-5.66647
-5.66648
-5.66649
-5.6665
-5.66651
-5.66652
-5.66654
-5.66655
-5.66658
-5.66662
-5.66671
-5.66694
-5.66757
-5.66828
-5.66891
)
;

boundaryField
{
    leftWall
    {
        type            calculated;
        value           nonuniform List<scalar> 
50
(
739.732
680.916
622.134
563.388
504.68
446.007
387.371
328.77
237.217
112.933
25.2873
-0.746418
-0.966241
-1.14971
-1.28995
-1.41508
-1.53981
-1.66443
-1.78909
-1.91379
-2.03855
-2.16337
-2.28822
-2.4131
-2.53805
-2.66303
-2.788
-2.91305
-3.03811
-3.16318
-3.28827
-3.41338
-3.53851
-3.66363
-3.78876
-3.91391
-4.03906
-4.16421
-4.28939
-4.41453
-4.53969
-4.66486
-4.79003
-4.91519
-5.04034
-5.16543
-5.29045
-5.41551
-5.54057
-5.66588
)
;
    }
    rightWall
    {
        type            calculated;
        value           nonuniform List<scalar> 
50
(
740.682
681.969
623.443
564.859
506.258
447.696
389.196
330.764
239.549
115.873
27.0507
-0.711532
-0.969618
-1.14819
-1.28917
-1.41365
-1.53818
-1.66283
-1.78754
-1.91227
-2.03703
-2.16184
-2.28721
-2.41335
-2.53928
-2.66446
-2.78941
-2.91433
-3.03923
-3.16419
-3.28925
-3.41436
-3.53947
-3.6646
-3.78966
-3.91462
-4.0396
-4.16468
-4.28988
-4.41507
-4.54027
-4.66547
-4.7907
-4.91591
-5.04105
-5.16623
-5.29154
-5.41702
-5.54281
-5.66891
)
;
    }
    lowerWall
    {
        type            calculated;
        value           nonuniform List<scalar> 
62
(
769.161
768.969
768.634
768.151
767.531
766.785
765.929
764.977
763.948
762.86
761.733
760.585
759.433
758.29
757.166
756.082
755.069
754.181
753.394
752.763
752.418
752.192
752.055
722.63
663.7
604.751
545.786
486.813
427.825
368.808
309.791
280.898
280.964
281.313
281.694
725.186
666.282
607.519
548.875
490.178
431.271
372.096
312.71
754.609
755.07
756.001
756.869
757.798
758.738
759.626
760.654
761.721
762.769
763.753
764.728
765.817
767.174
768.088
768.868
769.429
769.801
770.073
)
;
    }
    atmosphere
    {
        type            calculated;
        value           nonuniform List<scalar> 
46
(
-5.7291
-5.72904
-5.72904
-5.72904
-5.72904
-5.72904
-5.72904
-5.72904
-5.72904
-5.72904
-5.72904
-5.72904
-5.72904
-5.72904
-5.72904
-5.72904
-5.72904
-5.72904
-5.72904
-5.72904
-5.72904
-5.72904
-5.72904
-5.72904
-5.72904
-5.72904
-5.72904
-5.72905
-5.72905
-5.72906
-5.72906
-5.72907
-5.72907
-5.72908
-5.72908
-5.72909
-5.7291
-5.7291
-5.72911
-5.72911
-5.72911
-5.72911
-5.72911
-5.7291
-5.72907
-5.73295
)
;
    }
    defaultFaces
    {
        type            empty;
    }
}


// ************************************************************************* //
