/*--------------------------------*- C++ -*----------------------------------*\
  =========                 |
  \\      /  F ield         | OpenFOAM: The Open Source CFD Toolbox
   \\    /   O peration     | Website:  https://openfoam.org
    \\  /    A nd           | Version:  9
     \\/     M anipulation  |
\*---------------------------------------------------------------------------*/
FoamFile
{
    format      ascii;
    class       surfaceScalarField;
    location    "9.23";
    object      phi;
}
// * * * * * * * * * * * * * * * * * * * * * * * * * * * * * * * * * * * * * //

dimensions      [0 3 -1 0 0 0 0];

internalField   nonuniform List<scalar> 
4432
(
-1.17769e-07
1.17769e-07
-2.40213e-07
1.22444e-07
-3.56889e-07
1.16675e-07
-4.59589e-07
1.02698e-07
-5.45549e-07
8.59591e-08
-6.13545e-07
6.79926e-08
-6.63783e-07
5.02362e-08
-6.97703e-07
3.3916e-08
-7.16131e-07
1.84238e-08
-7.17603e-07
1.46841e-09
-6.96734e-07
-2.08743e-08
-6.43379e-07
-5.33581e-08
-5.46001e-07
-9.73813e-08
-4.01057e-07
-1.44945e-07
-2.27412e-07
-1.73647e-07
-8.35312e-08
-1.4388e-07
-5.1585e-08
-3.19457e-08
-1.40956e-07
8.9372e-08
-4.34384e-07
2.9343e-07
-8.25022e-07
3.90642e-07
-8.83085e-07
5.80696e-08
-6.08464e-07
-2.74613e-07
-6.08455e-07
-1.25376e-07
2.43144e-07
-2.45626e-07
2.42694e-07
-3.60269e-07
2.31316e-07
-4.63949e-07
2.06374e-07
-5.53374e-07
1.7538e-07
-6.26974e-07
1.41587e-07
-6.84614e-07
1.07871e-07
-7.26932e-07
7.6228e-08
-7.54151e-07
4.56356e-08
-7.64891e-07
1.22017e-08
-7.5486e-07
-3.09099e-08
-7.17132e-07
-9.10903e-08
-6.44529e-07
-1.69987e-07
-5.36509e-07
-2.52967e-07
-4.08684e-07
-3.01472e-07
-3.0319e-07
-2.49374e-07
-2.76965e-07
-5.81688e-08
-3.35213e-07
1.47624e-07
-4.44882e-07
4.03105e-07
-5.57472e-07
5.03243e-07
-5.89503e-07
9.01135e-08
-4.88943e-07
-3.75158e-07
-1.09739e-06
-1.28818e-07
3.7196e-07
-2.4825e-07
3.62126e-07
-3.61431e-07
3.44496e-07
-4.66069e-07
3.1101e-07
-5.58791e-07
2.68102e-07
-6.37582e-07
2.20376e-07
-7.0175e-07
1.72037e-07
-7.51397e-07
1.25872e-07
-7.86351e-07
8.05877e-08
-8.05274e-07
3.11223e-08
-8.05125e-07
-3.10619e-08
-7.80906e-07
-1.15311e-07
-7.27542e-07
-2.23352e-07
-6.44255e-07
-3.36255e-07
-5.41229e-07
-4.04498e-07
-4.50068e-07
-3.40536e-07
-4.19453e-07
-8.87837e-08
-4.45522e-07
1.73694e-07
-4.43698e-07
4.01284e-07
-4.20748e-07
4.803e-07
-4.18546e-07
8.79195e-08
-3.70658e-07
-4.23038e-07
-1.46805e-06
-1.30941e-07
5.02901e-07
-2.52039e-07
4.83224e-07
-3.66391e-07
4.58849e-07
-4.73497e-07
4.18117e-07
-5.70327e-07
3.64934e-07
-6.54617e-07
3.04668e-07
-7.25168e-07
2.4259e-07
-7.81658e-07
1.82363e-07
-8.2376e-07
1.2269e-07
-8.50518e-07
5.78811e-08
-8.5993e-07
-2.16501e-08
-8.48461e-07
-1.26781e-07
-8.11939e-07
-2.59875e-07
-7.48239e-07
-3.99956e-07
-6.6102e-07
-4.91719e-07
-5.71905e-07
-4.29652e-07
-5.2939e-07
-1.31302e-07
-5.24824e-07
1.69126e-07
-4.64216e-07
3.40676e-07
-3.59995e-07
3.76081e-07
-3.16437e-07
4.43628e-08
-2.74881e-07
-4.64592e-07
-1.74294e-06
-1.32294e-07
6.35196e-07
-2.56377e-07
6.07308e-07
-3.73931e-07
5.76405e-07
-4.85079e-07
5.29267e-07
-5.87122e-07
4.6698e-07
-6.77592e-07
3.95142e-07
-7.54799e-07
3.19802e-07
-8.18095e-07
2.45662e-07
-8.67129e-07
1.71728e-07
-9.01442e-07
9.21967e-08
-9.20074e-07
-3.01732e-09
-9.20688e-07
-1.26166e-07
-8.9964e-07
-2.80924e-07
-8.53366e-07
-4.46232e-07
-7.79017e-07
-5.66071e-07
-6.84919e-07
-5.23754e-07
-6.23062e-07
-1.93164e-07
-5.89023e-07
1.35083e-07
-4.97653e-07
2.49302e-07
-3.50481e-07
2.28906e-07
-2.67104e-07
-3.90184e-08
-1.93857e-07
-5.37845e-07
-1.9368e-06
-1.33446e-07
7.68643e-07
-2.61492e-07
7.35356e-07
-3.8361e-07
6.98526e-07
-5.00064e-07
6.45723e-07
-6.08309e-07
5.75229e-07
-7.05631e-07
4.92468e-07
-7.89784e-07
4.03962e-07
-8.59829e-07
3.15713e-07
-9.15459e-07
2.27362e-07
-9.56762e-07
1.33504e-07
-9.83813e-07
2.4035e-08
-9.95466e-07
-1.14512e-07
-9.88641e-07
-2.8775e-07
-9.59101e-07
-4.75774e-07
-8.99527e-07
-6.25649e-07
-8.00508e-07
-6.22778e-07
-7.08041e-07
-2.85637e-07
-6.48259e-07
7.52952e-08
-5.36907e-07
1.37944e-07
-3.75589e-07
6.75829e-08
-2.59713e-07
-1.54904e-07
-9.54302e-08
-7.02138e-07
-2.03224e-06
-1.34874e-07
9.03519e-07
-2.67575e-07
8.68058e-07
-3.9506e-07
8.26015e-07
-5.17594e-07
7.6826e-07
-6.32734e-07
6.90374e-07
-7.3741e-07
5.97149e-07
-8.28669e-07
4.95226e-07
-9.05249e-07
3.92298e-07
-9.66896e-07
2.89013e-07
-1.01423e-06
1.80837e-07
-1.04838e-06
5.81862e-08
-1.06935e-06
-9.35324e-08
-1.07501e-06
-2.82092e-07
-1.06166e-06
-4.89132e-07
-1.02007e-06
-6.67242e-07
-9.29227e-07
-7.13623e-07
-8.01315e-07
-4.13553e-07
-6.91235e-07
-3.47903e-08
-5.7746e-07
2.41641e-08
-4.22396e-07
-8.74883e-08
-2.62767e-07
-3.14542e-07
-2.76344e-09
-9.62154e-07
-2.03501e-06
-1.38755e-07
1.04228e-06
-2.7504e-07
1.00434e-06
-4.07573e-07
9.5855e-07
-5.36403e-07
8.97091e-07
-6.58772e-07
8.12743e-07
-7.71097e-07
7.09473e-07
-8.69452e-07
5.93581e-07
-9.52173e-07
4.75018e-07
-1.01902e-06
3.55859e-07
-1.07105e-06
2.32864e-07
-1.11039e-06
9.75267e-08
-1.13809e-06
-6.58301e-08
-1.15345e-06
-2.66735e-07
-1.15416e-06
-4.88431e-07
-1.1306e-06
-6.90796e-07
-1.06629e-06
-7.77938e-07
-9.13766e-07
-5.66079e-07
-7.38383e-07
-2.10174e-07
-6.07188e-07
-1.07031e-07
-4.62758e-07
-2.31921e-07
-2.4027e-07
-5.37035e-07
5.08293e-09
-1.20751e-06
-2.02992e-06
-7.99444e-07
7.99444e-07
-5.0539e-07
-2.94057e-07
2.18137e-07
-7.23511e-07
8.16032e-07
-5.97892e-07
1.24411e-06
-4.28072e-07
1.57099e-06
-3.26871e-07
1.75286e-06
-1.81867e-07
1.86737e-06
-1.1451e-07
1.90746e-06
-4.00904e-08
1.92266e-06
-1.5195e-08
1.69655e-06
2.26104e-07
9.18694e-07
7.77858e-07
1.57203e-07
7.6149e-07
-4.51968e-08
2.02398e-07
-8.39476e-08
3.87483e-08
-2.02953e-07
1.19002e-07
-4.3256e-07
2.29605e-07
-3.83382e-07
-4.91815e-08
-3.83384e-07
-5.6049e-07
1.35995e-06
-1.51543e-07
-7.03006e-07
3.69764e-07
-1.2448e-06
7.94205e-07
-1.02232e-06
1.09875e-06
-7.32606e-07
1.29963e-06
-5.2775e-07
1.45786e-06
-3.40095e-07
1.54748e-06
-2.04125e-07
1.52353e-06
-1.61479e-08
1.40108e-06
1.07258e-07
1.26508e-06
3.62106e-07
9.38508e-07
1.10442e-06
5.33189e-07
1.1668e-06
2.77288e-07
4.58295e-07
8.94839e-08
2.26548e-07
-1.37015e-07
3.45496e-07
-4.69439e-07
5.62025e-07
-5.49516e-07
3.0891e-08
-9.32902e-07
-2.63831e-07
1.6238e-06
1.28583e-07
-1.09542e-06
5.03996e-07
-1.6202e-06
7.93546e-07
-1.31187e-06
1.00792e-06
-9.46975e-07
1.15461e-06
-6.74438e-07
1.27006e-06
-4.55543e-07
1.32988e-06
-2.63951e-07
1.27491e-06
3.8825e-08
1.10668e-06
2.75483e-07
9.38561e-07
5.30223e-07
8.4609e-07
1.19689e-06
6.96342e-07
1.31655e-06
4.66589e-07
6.88046e-07
2.20563e-07
4.72571e-07
-5.47526e-08
6.2081e-07
-4.01678e-07
9.08948e-07
-5.28903e-07
1.58114e-07
-1.4618e-06
7.49012e-08
1.54891e-06
4.01084e-07
-1.42162e-06
6.27837e-07
-1.84695e-06
8.01477e-07
-1.48551e-06
9.41046e-07
-1.08654e-06
1.04146e-06
-7.74857e-07
1.12292e-06
-5.37004e-07
1.16264e-06
-3.0367e-07
1.09672e-06
1.04741e-07
9.31142e-07
4.41061e-07
7.6886e-07
6.92503e-07
7.66225e-07
1.19953e-06
7.50454e-07
1.33232e-06
5.76734e-07
8.61766e-07
3.29775e-07
7.1953e-07
5.44317e-08
8.96153e-07
-2.57137e-07
1.22052e-06
-3.65192e-07
2.66169e-07
-1.827e-06
4.5475e-07
1.09417e-06
6.56791e-07
-1.62367e-06
7.29539e-07
-1.91969e-06
8.05676e-07
-1.56166e-06
8.82792e-07
-1.16366e-06
9.42807e-07
-8.34875e-07
9.9576e-07
-5.8996e-07
1.02285e-06
-3.30765e-07
9.6175e-07
1.6584e-07
8.17387e-07
5.85422e-07
6.93304e-07
8.16586e-07
7.1131e-07
1.18152e-06
7.44619e-07
1.29901e-06
6.12442e-07
9.93945e-07
4.20983e-07
9.10991e-07
2.05572e-07
1.11157e-06
-5.53653e-08
1.48146e-06
-1.53415e-07
3.6422e-07
-1.98041e-06
7.80807e-07
3.13361e-07
8.3273e-07
-1.67561e-06
7.91595e-07
-1.87856e-06
7.96575e-07
-1.56664e-06
8.25867e-07
-1.19295e-06
8.51452e-07
-8.60465e-07
8.79519e-07
-6.1803e-07
9.02126e-07
-3.53375e-07
8.56125e-07
2.11838e-07
7.4206e-07
6.99485e-07
6.59229e-07
8.99416e-07
6.8841e-07
1.15234e-06
7.18199e-07
1.26922e-06
6.03063e-07
1.10908e-06
4.74243e-07
1.03981e-06
3.78401e-07
1.20741e-06
2.11582e-07
1.64828e-06
7.71546e-08
4.98649e-07
-1.90325e-06
8.91401e-07
-5.78043e-07
8.93789e-07
-1.67801e-06
8.03998e-07
-1.78878e-06
7.68432e-07
-1.53109e-06
7.65394e-07
-1.18992e-06
7.63247e-07
-8.58321e-07
7.66852e-07
-6.21638e-07
7.88978e-07
-3.75504e-07
7.69845e-07
2.3097e-07
6.90593e-07
7.78735e-07
6.46993e-07
9.43015e-07
6.81918e-07
1.11741e-06
7.0149e-07
1.24965e-06
5.90724e-07
1.21985e-06
5.16754e-07
1.11379e-06
5.25789e-07
1.19838e-06
4.75847e-07
1.69822e-06
3.25174e-07
6.49325e-07
-1.57808e-06
8.17706e-07
-1.39576e-06
8.56996e-07
-1.7173e-06
7.70906e-07
-1.70269e-06
7.19301e-07
-1.47948e-06
6.98386e-07
-1.16901e-06
6.76388e-07
-8.36322e-07
6.57894e-07
-6.03144e-07
6.62985e-07
-3.80594e-07
6.91351e-07
2.02603e-07
6.61768e-07
8.08319e-07
6.50157e-07
9.54626e-07
6.92333e-07
1.07524e-06
7.05059e-07
1.23693e-06
6.06753e-07
1.31816e-06
6.02267e-07
1.11827e-06
6.21839e-07
1.17881e-06
6.97595e-07
1.62247e-06
5.50461e-07
7.96459e-07
-1.02762e-06
-2.91314e-07
1.33359e-06
-6.01027e-07
1.31406e-06
-9.06069e-07
1.26359e-06
-1.20211e-06
1.19313e-06
-1.48621e-06
1.09684e-06
-1.75108e-06
9.74335e-07
-1.98317e-06
8.25666e-07
-2.17788e-06
6.69721e-07
-2.33419e-06
5.12163e-07
-2.45479e-06
3.53466e-07
-2.5477e-06
1.90432e-07
-2.61652e-06
2.98524e-09
-2.66708e-06
-2.1618e-07
-2.69938e-06
-4.56131e-07
-2.69886e-06
-6.91317e-07
-2.61087e-06
-8.65924e-07
-2.31416e-06
-8.62781e-07
-1.85178e-06
-6.7255e-07
-1.38637e-06
-5.72438e-07
-9.30729e-07
-6.87559e-07
-4.66989e-07
-1.00077e-06
-2.89664e-07
-1.38484e-06
-1.6221e-06
-6.97489e-07
-3.21007e-07
1.6546e-06
-6.61116e-07
1.65416e-06
-9.69712e-07
1.57218e-06
-1.25898e-06
1.48239e-06
-1.56398e-06
1.40185e-06
-1.86681e-06
1.27716e-06
-2.13057e-06
1.08942e-06
-2.34622e-06
8.85372e-07
-2.51462e-06
6.80564e-07
-2.63472e-06
4.73568e-07
-2.70721e-06
2.62919e-07
-2.74451e-06
4.02866e-08
-2.75696e-06
-2.03727e-07
-2.7679e-06
-4.45189e-07
-2.77451e-06
-6.84707e-07
-2.7284e-06
-9.12038e-07
-2.52624e-06
-1.06493e-06
-2.07204e-06
-1.12675e-06
-1.44829e-06
-1.19619e-06
-8.19537e-07
-1.31632e-06
-3.42967e-07
-1.47735e-06
-1.00056e-07
-1.62775e-06
-1.7127e-06
-9.43035e-09
-3.79984e-07
2.03457e-06
-6.92099e-07
1.96632e-06
-1.06591e-06
1.94606e-06
-1.4404e-06
1.85695e-06
-1.71018e-06
1.67168e-06
-1.9136e-06
1.48063e-06
-2.13165e-06
1.30752e-06
-2.34942e-06
1.10318e-06
-2.52669e-06
8.57869e-07
-2.63758e-06
5.84484e-07
-2.66893e-06
2.94289e-07
-2.63641e-06
7.77856e-09
-2.60473e-06
-2.35397e-07
-2.58716e-06
-4.62768e-07
-2.59521e-06
-6.76688e-07
-2.60981e-06
-8.97463e-07
-2.47439e-06
-1.2004e-06
-2.01994e-06
-1.58126e-06
-1.36688e-06
-1.84931e-06
-6.92421e-07
-1.99085e-06
-1.78566e-07
-1.99129e-06
8.70456e-08
-1.89347e-06
-1.80423e-06
1.78445e-07
-9.0739e-07
2.94197e-06
-2.63209e-07
1.32197e-06
-1.10175e-06
2.78446e-06
-2.62448e-06
3.37957e-06
-2.47022e-06
1.51731e-06
-1.8224e-06
8.3274e-07
-1.78039e-06
1.26545e-06
-2.05872e-06
1.38145e-06
-2.28684e-06
1.08594e-06
-2.35899e-06
6.5659e-07
-2.33916e-06
2.74432e-07
-2.18296e-06
-1.48427e-07
-2.26471e-06
-1.53648e-07
-2.30489e-06
-4.22557e-07
-2.3004e-06
-6.81133e-07
-2.15769e-06
-1.04012e-06
-1.88867e-06
-1.46933e-06
-1.46847e-06
-2.00137e-06
-1.21178e-06
-2.10592e-06
-7.0537e-07
-2.49715e-06
-1.58209e-07
-2.53835e-06
2.80996e-07
-2.33255e-06
-1.79369e-06
2.70679e-07
4.13269e-08
2.90068e-06
-5.09666e-07
1.87315e-06
-3.14642e-06
5.4212e-06
-6.15954e-06
6.39272e-06
-5.5842e-06
9.41949e-07
-4.28679e-06
-4.64716e-07
-3.47005e-06
4.48672e-07
-3.08437e-06
9.95757e-07
-2.70669e-06
7.08272e-07
-2.21478e-06
1.64694e-07
-1.67988e-06
-2.60456e-07
-9.9711e-07
-8.3117e-07
-3.36476e-07
-8.14255e-07
1.4539e-07
-9.0439e-07
7.82774e-07
-1.31847e-06
1.49678e-06
-1.75407e-06
1.75854e-06
-1.73101e-06
1.59973e-06
-1.84246e-06
6.12579e-07
-1.11867e-06
-3.11977e-07
-1.57254e-06
-3.5997e-07
-2.49038e-06
-6.1049e-08
-2.63168e-06
-8.07623e-07
-1.04789e-06
-2.66365e-07
3.16677e-06
-1.32019e-06
2.92678e-06
-8.74285e-07
4.97505e-06
4.92113e-07
5.02615e-06
-3.94789e-07
1.82876e-06
-1.80082e-06
9.41255e-07
-2.22339e-06
8.71226e-07
-1.9781e-06
7.50461e-07
-1.68206e-06
4.12261e-07
-1.5306e-06
1.32858e-08
-1.4928e-06
-2.9819e-07
-1.29315e-06
-1.03073e-06
-5.25608e-07
-1.5817e-06
2.75535e-07
-1.70542e-06
7.24797e-07
-1.76761e-06
4.77189e-07
-1.50632e-06
-3.2575e-07
-9.27897e-07
-9.27592e-07
-1.24038e-06
-9.48608e-07
-1.09735e-06
-1.42368e-06
-1.0971e-06
-1.97691e-06
-1.93661e-06
-2.18634e-06
-2.42131e-06
-1.24341e-06
-1.7493e-06
-3.21469e-07
3.48842e-06
-9.33321e-07
3.53855e-06
-2.85464e-07
4.32721e-06
6.82084e-07
4.05865e-06
1.3903e-07
2.37188e-06
-5.73256e-07
1.65363e-06
-8.80395e-07
1.17845e-06
-9.2046e-07
7.90586e-07
-9.16751e-07
4.08586e-07
-9.91924e-07
8.84684e-08
-1.00971e-06
-2.80422e-07
-8.86663e-07
-1.15382e-06
-4.56474e-07
-2.01197e-06
-3.72298e-08
-2.12476e-06
1.12805e-07
-1.91775e-06
3.44028e-09
-1.39706e-06
-2.70761e-07
-6.53793e-07
-8.68008e-07
-6.43211e-07
-1.3228e-06
-6.42641e-07
-1.71091e-06
-7.09161e-07
-2.38965e-06
-1.25817e-06
-3.04086e-06
-1.77036e-06
-1.72886e-06
-2.55568e-06
-2.78906e-07
3.76736e-06
-5.13716e-07
3.77319e-06
-1.12045e-07
3.92548e-06
3.92113e-07
3.55446e-06
2.26444e-07
2.53754e-06
-3.32987e-09
1.8834e-06
-1.66724e-07
1.34183e-06
-2.56797e-07
8.80647e-07
-2.77189e-07
4.28965e-07
-2.57775e-07
6.90451e-08
-1.94694e-07
-3.43509e-07
-2.36608e-07
-1.11191e-06
-3.9613e-07
-1.85245e-06
-5.19233e-07
-2.00166e-06
-7.21001e-07
-1.71598e-06
-8.20309e-07
-1.29773e-06
-8.69572e-07
-6.0448e-07
-1.19197e-06
-3.20712e-07
-1.57617e-06
-2.58306e-07
-1.93403e-06
-3.51203e-07
-2.43414e-06
-7.5805e-07
-2.93179e-06
-1.27276e-06
-1.64962e-06
-3.011e-06
-1.4501e-07
3.91219e-06
-2.12498e-07
3.84047e-06
6.85902e-09
3.70598e-06
2.67624e-07
3.29359e-06
2.48181e-07
2.5569e-06
1.88019e-07
1.94349e-06
1.13108e-07
1.41669e-06
5.22409e-08
9.41492e-07
4.06659e-08
4.40552e-07
5.98092e-08
4.99504e-08
5.54362e-08
-3.39052e-07
-1.44946e-07
-9.11414e-07
-5.43446e-07
-1.45381e-06
-9.18992e-07
-1.62595e-06
-1.17049e-06
-1.46429e-06
-1.3511e-06
-1.1169e-06
-1.40479e-06
-5.50513e-07
-1.56738e-06
-1.57769e-07
-1.81202e-06
-1.3207e-08
-2.09372e-06
-6.89938e-08
-2.48025e-06
-3.70983e-07
-2.90371e-06
-8.4875e-07
-1.46875e-06
-3.08399e-06
-3.65156e-08
3.94851e-06
-2.14911e-08
3.8253e-06
1.08113e-07
3.57626e-06
2.52611e-07
3.149e-06
2.6073e-07
2.54869e-06
2.33602e-07
1.97054e-06
1.80008e-07
1.47022e-06
1.33392e-07
9.8807e-07
9.58205e-08
4.78123e-07
4.11847e-08
1.04627e-07
-7.97962e-08
-2.17992e-07
-3.4578e-07
-6.4532e-07
-7.52876e-07
-1.04658e-06
-1.1291e-06
-1.24958e-06
-1.39455e-06
-1.19869e-06
-1.601e-06
-9.10287e-07
-1.69854e-06
-4.52792e-07
-1.78995e-06
-6.61056e-08
-1.92503e-06
1.22211e-07
-2.10141e-06
1.07792e-07
-2.34815e-06
-1.23776e-07
-2.63757e-06
-5.5886e-07
-1.29497e-06
-2.81083e-06
2.29189e-08
3.9255e-06
7.24869e-08
3.77571e-06
1.70837e-07
3.47789e-06
2.58797e-07
3.061e-06
2.65839e-07
2.5416e-06
2.27324e-07
2.009e-06
1.74677e-07
1.52283e-06
1.19944e-07
1.04278e-06
3.98669e-08
5.58197e-07
-9.19127e-08
2.36427e-07
-2.78767e-07
-3.10957e-08
-5.62509e-07
-3.6152e-07
-9.35202e-07
-6.73829e-07
-1.27823e-06
-9.06496e-07
-1.52414e-06
-9.52753e-07
-1.68256e-06
-7.51875e-07
-1.78078e-06
-3.5461e-07
-1.84095e-06
-5.98474e-09
-1.89844e-06
1.79677e-07
-1.9675e-06
1.76863e-07
-2.06714e-06
-2.41101e-08
-2.19563e-06
-4.30331e-07
-1.12245e-06
-2.36814e-06
5.21559e-08
3.87334e-06
1.19137e-07
3.7088e-06
1.98096e-07
3.39897e-06
2.53246e-07
3.00587e-06
2.5376e-07
2.5411e-06
2.09068e-07
2.0537e-06
1.56169e-07
1.57572e-06
9.10604e-08
1.10789e-06
-3.52064e-08
6.8447e-07
-2.15549e-07
4.16783e-07
-4.21076e-07
1.74451e-07
-6.88835e-07
-9.3738e-08
-1.01098e-06
-3.51661e-07
-1.32376e-06
-5.93704e-07
-1.56176e-06
-7.1477e-07
-1.70767e-06
-6.06018e-07
-1.76373e-06
-2.98664e-07
-1.7968e-06
2.69321e-08
-1.79976e-06
1.82447e-07
-1.78763e-06
1.64535e-07
-1.78164e-06
-3.03078e-08
-1.80126e-06
-4.10929e-07
-9.8164e-07
-1.94233e-06
6.98547e-08
3.80354e-06
1.42058e-07
3.63669e-06
2.07394e-07
3.3337e-06
2.44298e-07
2.96901e-06
2.37926e-07
2.5475e-06
1.96213e-07
2.09544e-06
1.43139e-07
1.62882e-06
6.00715e-08
1.19097e-06
-9.54881e-08
8.4004e-07
-2.83622e-07
6.04923e-07
-4.84057e-07
3.74886e-07
-7.17305e-07
1.39506e-07
-9.79351e-07
-8.96272e-08
-1.26325e-06
-3.09817e-07
-1.51686e-06
-4.61189e-07
-1.67449e-06
-4.48443e-07
-1.72041e-06
-2.52827e-07
-1.72688e-06
3.3261e-08
-1.69402e-06
1.49421e-07
-1.63918e-06
1.09506e-07
-1.5883e-06
-8.13955e-08
-1.57928e-06
-4.20167e-07
-8.87957e-07
-1.67321e-06
8.40864e-08
3.71953e-06
1.56733e-07
3.56411e-06
2.13718e-07
3.27675e-06
2.42507e-07
2.94026e-06
2.34308e-07
2.55574e-06
1.92868e-07
2.13691e-06
1.36413e-07
1.6853e-06
3.08555e-08
1.29655e-06
-1.32861e-07
1.00377e-06
-3.08279e-07
7.80344e-07
-4.91661e-07
5.58263e-07
-6.90233e-07
3.38066e-07
-9.05317e-07
1.25438e-07
-1.14495e-06
-7.0207e-08
-1.38629e-06
-2.19874e-07
-1.56544e-06
-2.69324e-07
-1.65406e-06
-1.64253e-07
-1.6461e-06
2.52351e-08
-1.59629e-06
9.95232e-08
-1.52998e-06
4.31002e-08
-1.47605e-06
-1.35434e-07
-1.47156e-06
-4.2476e-07
-7.95144e-07
-1.56448e-06
9.67807e-08
3.62279e-06
1.69945e-07
3.49096e-06
2.22432e-07
3.22427e-06
2.48635e-07
2.91407e-06
2.41553e-07
2.56284e-06
1.99994e-07
2.17849e-06
1.24561e-07
1.76076e-06
5.31226e-09
1.41582e-06
-1.51524e-07
1.16062e-06
-3.09281e-07
9.38116e-07
-4.72039e-07
7.21032e-07
-6.43643e-07
5.09679e-07
-8.27218e-07
3.09018e-07
-1.02437e-06
1.26951e-07
-1.22858e-06
-1.56592e-08
-1.41347e-06
-8.44205e-08
-1.52453e-06
-5.31757e-08
-1.5313e-06
3.20135e-08
-1.48885e-06
5.70798e-08
-1.43348e-06
-1.22532e-08
-1.39458e-06
-1.7433e-07
-1.40395e-06
-4.15367e-07
-7.05588e-07
-1.49348e-06
1.04942e-07
3.51786e-06
1.80495e-07
3.41537e-06
2.30554e-07
3.17419e-06
2.55269e-07
2.88935e-06
2.49071e-07
2.56904e-06
2.07289e-07
2.22029e-06
1.14045e-07
1.85402e-06
-1.24828e-08
1.54237e-06
-1.53001e-07
1.30117e-06
-2.9332e-07
1.07846e-06
-4.37612e-07
8.65355e-07
-5.88639e-07
6.60741e-07
-7.48281e-07
4.68699e-07
-9.17713e-07
2.96427e-07
-1.09133e-06
1.58005e-07
-1.24873e-06
7.30415e-08
-1.3527e-06
5.08679e-08
-1.38105e-06
6.04353e-08
-1.36241e-06
3.85179e-08
-1.33008e-06
-4.44965e-08
-1.31213e-06
-1.92191e-07
-1.33398e-06
-3.9342e-07
-6.23525e-07
-1.41594e-06
1.06825e-07
3.41101e-06
1.85068e-07
3.33706e-06
2.32634e-07
3.12659e-06
2.53208e-07
2.86875e-06
2.44083e-07
2.57816e-06
1.99295e-07
2.26508e-06
1.05705e-07
1.94763e-06
-1.56356e-08
1.66373e-06
-1.38634e-07
1.42419e-06
-2.63945e-07
1.2038e-06
-3.92627e-07
9.94074e-07
-5.26649e-07
7.94808e-07
-6.66888e-07
6.08993e-07
-8.12729e-07
4.4233e-07
-9.58475e-07
3.03822e-07
-1.08871e-06
2.03363e-07
-1.1802e-06
1.42442e-07
-1.22043e-06
1.00765e-07
-1.22445e-06
4.26432e-08
-1.21582e-06
-5.30117e-08
-1.2172e-06
-1.90697e-07
-1.24797e-06
-3.62537e-07
-5.50233e-07
-1.32114e-06
1.08517e-07
3.30245e-06
1.84155e-07
3.26136e-06
2.2542e-07
3.08529e-06
2.40099e-07
2.85405e-06
2.26803e-07
2.59144e-06
1.80565e-07
2.31131e-06
9.86398e-08
2.02955e-06
-5.3466e-09
1.76772e-06
-1.14455e-07
1.53331e-06
-2.2588e-07
1.31525e-06
-3.40588e-07
1.10881e-06
-4.59358e-07
9.13616e-07
-5.82137e-07
7.3182e-07
-7.07194e-07
5.67445e-07
-8.29161e-07
4.25856e-07
-9.37256e-07
3.11533e-07
-1.01762e-06
2.22895e-07
-1.06354e-06
1.46774e-07
-1.08347e-06
6.26714e-08
-1.09312e-06
-4.3261e-08
-1.10897e-06
-1.74736e-07
-1.145e-06
-3.264e-07
-4.85446e-07
-1.20968e-06
1.05255e-07
3.19715e-06
1.74186e-07
3.19237e-06
2.08724e-07
3.05071e-06
2.19176e-07
2.84356e-06
2.04574e-07
2.60601e-06
1.6264e-07
2.35323e-06
9.39867e-08
2.0982e-06
7.43065e-09
1.85428e-06
-8.62953e-08
1.62704e-06
-1.84e-07
1.41296e-06
-2.85099e-07
1.20993e-06
-3.89363e-07
1.01791e-06
-4.95985e-07
8.38477e-07
-6.02786e-07
6.7429e-07
-7.05218e-07
5.28341e-07
-7.95952e-07
4.02328e-07
-8.6689e-07
2.93902e-07
-9.14591e-07
1.94551e-07
-9.44118e-07
9.2281e-08
-9.65696e-07
-2.15945e-08
-9.90707e-07
-1.49633e-07
-1.0288e-06
-2.88212e-07
-4.28661e-07
-1.08549e-06
9.47723e-08
3.10234e-06
1.52271e-07
3.13481e-06
1.84278e-07
3.01866e-06
1.94251e-07
2.83355e-06
1.82092e-07
2.61814e-06
1.4743e-07
2.38786e-06
9.19701e-08
2.15363e-06
2.14998e-08
1.92473e-06
-5.73101e-08
1.70584e-06
-1.41237e-07
1.49689e-06
-2.28843e-07
1.29754e-06
-3.19154e-07
1.10823e-06
-4.10856e-07
9.30205e-07
-5.01704e-07
7.65175e-07
-5.88061e-07
6.14742e-07
-6.64998e-07
4.79319e-07
-7.27768e-07
3.56733e-07
-7.74667e-07
2.41518e-07
-8.08882e-07
1.26571e-07
-8.37007e-07
6.61161e-09
-8.66632e-07
-1.19922e-07
-9.04208e-07
-2.50548e-07
-3.79503e-07
-9.53268e-07
8.06719e-08
3.02164e-06
1.26635e-07
3.0888e-06
1.57913e-07
2.98733e-06
1.69621e-07
2.8218e-06
1.62029e-07
2.62569e-06
1.3571e-07
2.41414e-06
9.25139e-08
2.1968e-06
3.63389e-08
1.98089e-06
-2.84434e-08
1.77061e-06
-9.89896e-08
1.56743e-06
-1.73512e-07
1.37207e-06
-2.50597e-07
1.18534e-06
-3.28669e-07
1.0083e-06
-4.05601e-07
8.42143e-07
-4.78539e-07
6.87725e-07
-5.44143e-07
5.44976e-07
-5.99557e-07
4.1221e-07
-6.43937e-07
2.85969e-07
-6.79334e-07
1.62045e-07
-7.09961e-07
3.7322e-08
-7.4076e-07
-8.90349e-08
-7.75911e-07
-2.15303e-07
-3.37687e-07
-8.17624e-07
6.23164e-08
2.9593e-06
1.05564e-07
3.04549e-06
1.35297e-07
2.95755e-06
1.48731e-07
2.80832e-06
1.46073e-07
2.6283e-06
1.2792e-07
2.43226e-06
9.57456e-08
2.22895e-06
5.21715e-08
2.02444e-06
1.80527e-10
1.8226e-06
-5.78451e-08
1.62546e-06
-1.20074e-07
1.43431e-06
-1.84912e-07
1.25019e-06
-2.507e-07
1.07412e-06
-3.15502e-07
9.06985e-07
-3.77064e-07
7.49335e-07
-4.33049e-07
6.01019e-07
-4.81655e-07
4.60883e-07
-5.22418e-07
3.26807e-07
-5.5664e-07
1.96349e-07
-5.86978e-07
6.77474e-08
-6.16563e-07
-5.93569e-08
-6.4803e-07
-1.8374e-07
-3.02921e-07
-6.8269e-07
4.44151e-08
2.91485e-06
8.96553e-08
3.00019e-06
1.17295e-07
2.92985e-06
1.3234e-07
2.79322e-06
1.34556e-07
2.62604e-06
1.24053e-07
2.44272e-06
1.01701e-07
2.25127e-06
6.91985e-08
2.05692e-06
2.86375e-08
1.86315e-06
-1.80241e-08
1.67212e-06
-6.90488e-08
1.48534e-06
-1.22821e-07
1.30399e-06
-1.77708e-07
1.12904e-06
-2.3197e-07
9.61286e-07
-2.83783e-07
8.01197e-07
-3.3143e-07
6.48725e-07
-3.73677e-07
5.03196e-07
-4.102e-07
3.63405e-07
-4.41778e-07
2.28007e-07
-4.70039e-07
9.60939e-08
-4.9691e-07
-3.23975e-08
-5.23984e-07
-1.56576e-07
-2.74827e-07
-5.5198e-07
3.14638e-08
2.88335e-06
7.44125e-08
2.95717e-06
1.01756e-07
2.90245e-06
1.19526e-07
2.7754e-06
1.27043e-07
2.61848e-06
1.23871e-07
2.44586e-06
1.10346e-07
2.26477e-06
8.75559e-08
2.07969e-06
5.70327e-08
1.89366e-06
2.04151e-08
1.70874e-06
-2.0689e-08
1.52646e-06
-6.47127e-08
1.34803e-06
-1.10096e-07
1.17445e-06
-1.55272e-07
1.0065e-06
-1.98714e-07
8.44682e-07
-2.39077e-07
6.89138e-07
-2.75426e-07
5.39603e-07
-3.07462e-07
3.95504e-07
-3.3559e-07
2.56205e-07
-3.60759e-07
1.21335e-07
-3.84098e-07
-8.98425e-09
-4.06517e-07
-1.34082e-07
-2.52911e-07
-4.28354e-07
2.54152e-08
2.85789e-06
5.91161e-08
2.92341e-06
8.79741e-08
2.87355e-06
1.10031e-07
2.7533e-06
1.2348e-07
2.60499e-06
1.27396e-07
2.44191e-06
1.21789e-07
2.27035e-06
1.07415e-07
2.09405e-06
8.55074e-08
1.91555e-06
5.75057e-08
1.73673e-06
2.49141e-08
1.55905e-06
-1.07636e-08
1.38372e-06
-4.80475e-08
1.21175e-06
-8.55063e-08
1.04398e-06
-1.21813e-07
8.81019e-07
-1.55847e-07
7.23209e-07
-1.86826e-07
5.70625e-07
-2.14423e-07
4.23149e-07
-2.38785e-07
2.80618e-07
-2.60408e-07
1.43009e-07
-2.79907e-07
1.05665e-08
-2.97751e-07
-1.16187e-07
-2.36569e-07
-3.1404e-07
2.20587e-08
2.8358e-06
4.65076e-08
2.89891e-06
7.78556e-08
2.84216e-06
1.05117e-07
2.726e-06
1.24665e-07
2.58541e-06
1.35127e-07
2.43142e-06
1.36371e-07
2.26908e-06
1.29039e-07
2.10136e-06
1.14243e-07
1.93034e-06
9.33354e-08
1.75763e-06
6.77611e-08
1.58462e-06
3.89741e-08
1.4125e-06
8.38693e-09
1.24234e-06
-2.2671e-08
1.07505e-06
-5.30066e-08
9.11371e-07
-8.16331e-08
7.51855e-07
-1.07848e-07
5.96863e-07
-1.31287e-07
4.46615e-07
-1.51918e-07
3.01277e-07
-1.69945e-07
1.61065e-07
-1.85656e-07
2.63051e-08
-1.99248e-07
-1.02569e-07
-2.25109e-07
-2.10681e-07
1.4312e-08
2.82146e-06
3.843e-08
2.87476e-06
7.4219e-08
2.80634e-06
1.06826e-07
2.69337e-06
1.31876e-07
2.56034e-06
1.47833e-07
2.41544e-06
1.54565e-07
2.26233e-06
1.52725e-07
2.10319e-06
1.43424e-07
1.93963e-06
1.28001e-07
1.77305e-06
1.07888e-07
1.60473e-06
8.45077e-08
1.43588e-06
5.92227e-08
1.26762e-06
3.32865e-08
1.10099e-06
7.80005e-09
9.36859e-07
-1.63359e-08
7.75995e-07
-3.8464e-08
6.18997e-07
-5.81917e-08
4.6635e-07
-7.53712e-08
3.18464e-07
-9.00278e-08
1.75728e-07
-1.02251e-07
3.85335e-08
-1.12076e-07
-9.274e-08
-2.17785e-07
-1.19396e-07
8.93286e-09
2.8125e-06
3.99838e-08
2.84368e-06
8.01295e-08
2.76618e-06
1.17019e-07
2.65646e-06
1.46224e-07
2.53112e-06
1.66168e-07
2.39548e-06
1.76747e-07
2.25174e-06
1.78685e-07
2.10124e-06
1.73157e-07
1.94514e-06
1.61551e-07
1.78464e-06
1.45313e-07
1.62096e-06
1.25855e-07
1.45533e-06
1.04502e-07
1.28897e-06
8.24475e-08
1.12303e-06
6.07225e-08
9.58576e-07
4.01648e-08
7.96545e-07
2.13971e-08
6.37757e-07
4.82318e-09
4.82916e-07
-9.34607e-09
3.32625e-07
-2.10356e-08
1.87408e-07
-3.02256e-08
4.77125e-08
-3.68703e-08
-8.6108e-08
-2.13833e-07
-4.0836e-08
1.608e-08
2.79641e-06
5.29984e-08
2.80676e-06
9.61996e-08
2.72297e-06
1.36043e-07
2.61661e-06
1.67984e-07
2.49917e-06
1.90317e-07
2.37315e-06
2.03001e-07
2.23905e-06
2.0692e-07
2.09731e-06
2.03399e-07
1.94865e-06
1.93926e-07
1.7941e-06
1.79991e-07
1.63488e-06
1.63008e-07
1.4723e-06
1.44266e-07
1.3077e-06
1.24908e-07
1.14238e-06
1.05901e-07
9.77567e-07
8.80279e-08
8.14402e-07
7.18734e-08
6.53895e-07
5.78333e-08
4.96938e-07
4.614e-08
3.44299e-07
3.69107e-08
1.96617e-07
3.02109e-08
5.43909e-08
2.6116e-08
-8.20357e-08
-2.12497e-07
2.47558e-08
3.00871e-08
2.76632e-06
7.29979e-08
2.76385e-06
1.20006e-07
2.67596e-06
1.62746e-07
2.57388e-06
1.96636e-07
2.46528e-06
2.19979e-07
2.3498e-06
2.33067e-07
2.22596e-06
2.37169e-07
2.0932e-06
2.33902e-07
1.95191e-06
2.2492e-07
1.80308e-06
2.11783e-07
1.64801e-06
1.95907e-07
1.48816e-06
1.78544e-07
1.32505e-06
1.60776e-07
1.16013e-06
1.43509e-07
9.94816e-07
1.27466e-07
8.30426e-07
1.13187e-07
6.68153e-07
1.0104e-07
5.09063e-07
9.12475e-08
3.54069e-07
8.39252e-08
2.03914e-07
7.91387e-08
5.91515e-08
7.69553e-08
-7.9879e-08
-2.13053e-07
7.74828e-08
4.44345e-08
2.72189e-06
9.6267e-08
2.71203e-06
1.49239e-07
2.623e-06
1.95947e-07
2.52717e-06
2.3153e-07
2.42971e-06
2.54633e-07
2.3267e-06
2.66414e-07
2.21418e-06
2.68904e-07
2.09071e-06
2.64192e-07
1.95662e-06
2.54161e-07
1.8131e-06
2.40443e-07
1.66172e-06
2.2444e-07
1.50416e-06
2.07349e-07
1.34212e-06
1.90179e-07
1.17728e-06
1.73763e-07
1.01121e-06
1.5876e-07
8.4541e-07
1.45655e-07
6.81237e-07
1.34775e-07
5.19921e-07
1.26306e-07
3.62514e-07
1.20332e-07
2.09862e-07
1.16886e-07
6.25716e-08
1.15998e-07
-7.90177e-08
-2.14824e-07
1.17742e-07
5.90888e-08
2.6628e-06
1.22035e-07
2.6491e-06
1.83292e-07
2.56176e-06
2.35322e-07
2.47515e-06
2.7233e-07
2.39271e-06
2.9368e-07
2.30536e-06
3.02247e-07
2.20562e-06
3.01302e-07
2.09166e-06
2.9355e-07
1.96437e-06
2.81103e-07
1.82555e-06
2.65623e-07
1.67719e-06
2.48454e-07
1.52132e-06
2.30701e-07
1.35987e-06
2.13281e-07
1.19469e-06
1.96943e-07
1.02754e-06
1.82273e-07
8.60064e-07
1.69698e-07
6.93793e-07
1.59495e-07
5.30104e-07
1.518e-07
3.70188e-07
1.46643e-07
2.14996e-07
1.43996e-07
6.51959e-08
1.43829e-07
-7.8875e-08
-2.17193e-07
1.46174e-07
7.58098e-08
2.587e-06
1.51622e-07
2.5733e-06
2.23093e-07
2.4903e-06
2.81488e-07
2.41677e-06
3.18895e-07
2.35531e-06
3.36212e-07
2.28805e-06
3.39318e-07
2.20252e-06
3.33144e-07
2.09784e-06
3.2098e-07
1.97654e-06
3.05039e-07
1.84149e-06
2.86904e-07
1.69532e-06
2.67787e-07
1.54043e-06
2.48658e-07
1.37899e-06
2.30316e-07
1.21302e-06
2.13416e-07
1.04443e-06
1.98471e-07
8.74995e-07
1.85854e-07
7.06396e-07
1.7579e-07
5.40152e-07
1.68363e-07
3.77598e-07
1.63534e-07
2.19807e-07
1.61192e-07
6.75186e-08
1.61228e-07
-7.89302e-08
-2.19602e-07
1.63618e-07
9.90275e-08
2.48799e-06
1.90057e-07
2.48229e-06
2.71203e-07
2.40916e-06
3.36239e-07
2.35175e-06
3.7039e-07
2.32117e-06
3.80255e-07
2.27819e-06
3.75543e-07
2.20723e-06
3.62697e-07
2.11069e-06
3.45222e-07
1.99402e-06
3.25163e-07
1.86155e-06
3.0387e-07
1.71661e-06
2.8234e-07
1.56196e-06
2.6137e-07
1.39995e-06
2.41628e-07
1.23275e-06
2.23672e-07
1.06237e-06
2.0795e-07
8.90707e-07
1.9479e-07
7.19545e-07
1.84382e-07
5.50548e-07
1.76763e-07
3.85203e-07
1.71824e-07
2.24732e-07
1.69354e-07
6.99751e-08
1.69133e-07
-7.87242e-08
-2.21559e-07
1.71075e-07
1.44874e-07
2.34312e-06
2.5277e-07
2.37441e-06
3.40881e-07
2.32106e-06
3.95856e-07
2.29678e-06
4.22855e-07
2.29418e-06
4.2173e-07
2.27932e-06
4.07755e-07
2.22122e-06
3.87822e-07
2.13062e-06
3.64943e-07
2.0169e-06
3.40742e-07
1.88575e-06
3.16235e-07
1.74112e-06
2.92167e-07
1.58602e-06
2.69153e-07
1.42296e-06
2.47728e-07
1.25417e-06
2.28365e-07
1.08173e-06
2.11461e-07
9.07605e-07
1.97322e-07
7.33676e-07
1.86129e-07
5.61733e-07
1.77897e-07
3.93426e-07
1.72458e-07
2.30162e-07
1.69483e-07
7.29403e-08
1.68609e-07
-7.78608e-08
-2.22629e-07
1.6967e-07
2.30467e-07
2.11266e-06
3.59334e-07
2.24555e-06
4.34051e-07
2.24636e-06
4.62628e-07
2.26821e-06
4.70087e-07
2.28673e-06
4.55855e-07
2.29356e-06
4.33075e-07
2.244e-06
4.06841e-07
2.15686e-06
3.79254e-07
2.04449e-06
3.51422e-07
1.91358e-06
3.2403e-07
1.76851e-06
2.9759e-07
1.61246e-06
2.72552e-07
1.448e-06
2.49336e-07
1.27739e-06
2.28342e-07
1.10272e-06
2.09937e-07
9.26006e-07
1.94431e-07
7.49177e-07
1.82032e-07
5.74127e-07
1.72779e-07
4.02674e-07
1.66476e-07
2.36459e-07
1.62675e-07
7.67348e-08
1.60812e-07
-7.60036e-08
-2.22436e-07
1.60613e-07
3.53379e-07
1.75929e-06
5.04672e-07
2.09427e-06
5.4024e-07
2.2108e-06
5.3743e-07
2.27103e-06
5.113e-07
2.31286e-06
4.82348e-07
2.32252e-06
4.51397e-07
2.27496e-06
4.19732e-07
2.18853e-06
3.88274e-07
2.07595e-06
3.57499e-07
1.94436e-06
3.27732e-07
1.79828e-06
2.99262e-07
1.64093e-06
2.72381e-07
1.47488e-06
2.47404e-07
1.30236e-06
2.24666e-07
1.12546e-06
2.04513e-07
9.46158e-07
1.87281e-07
7.66406e-07
1.73247e-07
5.88159e-07
1.62536e-07
4.13382e-07
1.54998e-07
2.43993e-07
1.50089e-07
8.16406e-08
1.46952e-07
-7.287e-08
-2.20656e-07
1.45169e-07
4.89851e-07
1.26945e-06
6.54793e-07
1.92934e-06
6.53961e-07
2.21164e-06
6.06775e-07
2.31822e-06
5.49954e-07
2.36969e-06
5.04548e-07
2.36793e-06
4.64612e-07
2.3149e-06
4.27707e-07
2.22544e-06
3.92918e-07
2.11074e-06
3.59805e-07
1.97748e-06
3.28205e-07
1.82988e-06
2.98125e-07
1.67101e-06
2.69687e-07
1.50332e-06
2.43091e-07