/*--------------------------------*- C++ -*----------------------------------*\
  =========                 |
  \\      /  F ield         | OpenFOAM: The Open Source CFD Toolbox
   \\    /   O peration     | Website:  https://openfoam.org
    \\  /    A nd           | Version:  9
     \\/     M anipulation  |
\*---------------------------------------------------------------------------*/
FoamFile
{
    format      ascii;
    class       volScalarField;
    location    "3.99";
    object      p;
}
// * * * * * * * * * * * * * * * * * * * * * * * * * * * * * * * * * * * * * //

dimensions      [1 -1 -2 0 0 0 0];

internalField   nonuniform List<scalar> 
2268
(
746.785
746.191
745.408
744.427
743.284
742.012
740.636
739.18
737.67
736.13
734.579
733.036
731.51
730.001
728.484
726.91
725.224
723.402
721.97
721.328
721.037
720.691
719.902
688.067
687.504
686.736
685.766
684.624
683.344
681.952
680.474
678.936
677.361
675.77
674.178
672.594
671.016
669.431
667.815
666.196
664.735
663.714
662.615
662.022
661.581
660.943
629.4
628.853
628.098
627.143
626.002
624.712
623.301
621.795
620.223
618.607
616.967
615.319
613.674
612.036
610.407
608.803
607.378
606.529
605.653
604.182
603.02
602.385
601.803
570.794
570.236
569.476
568.527
567.384
566.081
564.648
563.113
561.503
559.843
558.154
556.454
554.757
553.078
551.436
549.881
548.657
548.212
547.373
545.927
544.362
543.215
542.559
512.244
511.654
510.872
509.916
508.763
507.443
505.985
504.418
502.77
501.065
499.328
497.58
495.842
494.134
492.492
490.981
489.833
489.509
488.913
487.485
485.519
484.065
483.283
453.744
453.111
452.294
451.319
450.146
448.803
447.317
445.715
444.026
442.276
440.491
438.698
436.921
435.189
433.543
432.051
430.893
430.417
429.905
428.522
426.483
424.98
423.974
395.289
394.608
393.748
392.744
391.544
390.171
388.652
387.012
385.279
383.48
381.645
379.805
377.991
376.233
374.571
373.073
371.869
371.166
370.462
369.182
367.464
366.063
364.52
336.881
336.155
335.254
334.213
332.978
331.568
330.008
328.324
326.539
324.682
322.79
320.899
319.045
317.254
315.564
314.032
312.763
311.874
311.03
309.859
308.497
307.377
304.956
724.823
725.763
726.618
727.336
728.067
728.897
729.849
730.902
732.009
732.911
733.293
733.55
733.967
735.66
738.812
739.592
738.532
736.904
737.94
666.438
666.942
667.669
668.449
669.269
670.205
671.258
672.307
673.263
674.148
674.744
675.779
677.482
678.887
680.048
680.292
679.686
679.881
681.379
607.729
608.024
608.581
609.361
610.245
611.273
612.423
613.531
614.571
615.62
616.835
618.845
620.716
621.516
621.361
621.407
621.176
622.329
624.264
548.663
549.035
549.538
550.298
551.218
552.303
553.512
554.763
556.016
557.286
559.418
561.923
563.605
563.54
563.05
563.08
563.262
564.199
566.882
489.464
489.94
490.464
491.234
492.173
493.301
494.564
496.02
497.458
498.932
501.549
504.675
506.239
505.424
504.963
505.09
505.396
505.487
508.983
430.191
430.726
431.317
432.137
433.095
434.263
435.563
437.12
438.75
440.424
443.134
446.439
447.928
447.165
446.983
447.302
447.601
447.861
450.844
370.83
371.433
372.088
372.995
373.981
375.185
376.491
378.083
379.875
381.747
384.424
387.457
388.977
388.843
389.065
389.692
390.13
391.488
392.971
311.358
312.08
312.777
313.804
314.798
316.029
317.312
318.925
320.892
323.144
325.947
328.626
330.205
330.591
331.202
332.222
333.058
335.3
335.836
245.664
244.866
243.907
242.795
241.486
240.003
238.369
236.602
234.72
232.755
230.757
228.775
226.85
225.001
223.243
221.618
220.218
219.094
218.096
217.076
216.193
215.665
214.941
121.78
120.746
119.645
118.368
116.896
115.3
113.659
111.917
110.064
108.208
106.382
104.57
102.773
101.006
99.389
97.9463
96.6706
95.5499
94.5621
93.6855
92.9496
92.4183
91.9396
30.3101
29.5635
28.8417
28.0852
27.379
26.619
25.8615
25.1107
24.3593
23.5753
22.7847
21.9569
21.0742
20.2016
19.4495
18.8031
18.2737
17.8002
17.3512
16.9351
16.557
16.2539
16.0236
0.114343
0.0423675
-0.012185
-0.0344991
0.139156
0.271045
0.329426
0.42617
0.667246
0.715137
0.696097
0.639942
0.541716
0.472967
0.379392
0.181346
0.0907487
0.0339743
-0.0197757
-0.0562694
-0.113452
-0.225868
-0.403886
-0.418495
-0.418239
-0.417609
-0.439619
-0.38801
-0.321237
-0.266107
-0.202735
-0.115741
-0.0624936
-0.0505405
-0.0590703
-0.0820591
-0.121558
-0.183425
-0.227147
-0.264087
-0.29379
-0.336063
-0.429128
-0.500956
-0.584428
-0.628299
-0.803953
-0.789098
-0.78362
-0.802381
-0.811817
-0.801164
-0.793568
-0.7862
-0.821039
-0.850005
-0.870253
-0.883007
-0.897718
-0.914742
-0.928298
-0.858268
-0.85367
-0.844989
-0.856262
-0.927137
-0.95285
-0.952243
-0.904882
-1.16696
-1.15873
-1.15427
-1.14662
-1.16232
-1.17459
-1.18973
-1.21034
-1.23791
-1.26029
-1.27468
-1.28052
-1.27927
-1.27353
-1.2671
-1.26501
-1.26064
-1.24537
-1.22016
-1.17914
-1.1663
-1.15741
-1.12754
-1.40535
-1.40823
-1.40572
-1.3926
-1.39634
-1.39881
-1.40104
-1.4079
-1.41107
-1.40814
-1.40663
-1.40601
-1.40398
-1.40084
-1.39765
-1.39703
-1.38984
-1.38105
-1.36724
-1.34914
-1.33778
-1.33411
-1.32232
-1.54188
-1.54298
-1.54254
-1.54196
-1.54245
-1.54323
-1.54257
-1.5403
-1.53757
-1.53465
-1.5326
-1.5312
-1.52949
-1.52735
-1.52532
-1.52413
-1.52158
-1.52116
-1.52158
-1.51504
-1.50648
-1.50602
-1.51106
-1.66662
-1.66657
-1.666
-1.66534
-1.66571
-1.6661
-1.66559
-1.66422
-1.66222
-1.65992
-1.65814
-1.65679
-1.65549
-1.654
-1.65256
-1.65168
-1.65094
-1.65169
-1.65443
-1.65789
-1.65656
-1.65432
-1.65584
-1.79138
-1.79089
-1.79042
-1.79007
-1.79011
-1.79012
-1.78958
-1.78847
-1.78692
-1.78523
-1.7838
-1.78259
-1.78139
-1.78022
-1.77918
-1.77854
-1.77825
-1.77887
-1.7804
-1.78204
-1.78338
-1.78146
-1.78005
-1.91614
-1.91566
-1.91527
-1.915
-1.91485
-1.91462
-1.91405
-1.91313
-1.91194
-1.91068
-1.90946
-1.90832
-1.90723
-1.90627
-1.90547
-1.90497
-1.90479
-1.90514
-1.90597
-1.90679
-1.90709
-1.90626
-1.90534
-2.04081
-2.04055
-2.04027
-2.04001
-2.03976
-2.0394
-2.03884
-2.03804
-2.03709
-2.03604
-2.03497
-2.03395
-2.03302
-2.03221
-2.03156
-2.03114
-2.03098
-2.03115
-2.03161
-2.03212
-2.0322
-2.03171
-2.03107
-2.16539
-2.1654
-2.16526
-2.16503
-2.16474
-2.16434
-2.16379
-2.16308
-2.16225
-2.16134
-2.16043
-2.15955
-2.15875
-2.15806
-2.15751
-2.15714
-2.15697
-2.15703
-2.15731
-2.15769
-2.15776
-2.15745
-2.15696
-2.28995
-2.29018
-2.2902
-2.29004
-2.28975
-2.28935
-2.28883
-2.28818
-2.28745
-2.28667
-2.28588
-2.28512
-2.28442
-2.28382
-2.28334
-2.283
-2.28281
-2.28279
-2.28291
-2.28311
-2.28321
-2.28302
-2.28261
-2.41452
-2.41493
-2.41509
-2.41501
-2.41476
-2.41439
-2.41391
-2.41333
-2.41269
-2.412
-2.41131
-2.41065
-2.41004
-2.40951
-2.40907
-2.40875
-2.40855
-2.40846
-2.40846
-2.40851
-2.4085
-2.40835
-2.40806
-2.53916
-2.53969
-2.53996
-2.53996
-2.53976
-2.53944
-2.53901
-2.53849
-2.53792
-2.53732
-2.53672
-2.53614
-2.5356
-2.53512
-2.53473
-2.53442
-2.5342
-2.53406
-2.53399
-2.53395
-2.53388
-2.53374
-2.53353
-2.66388
-2.6645
-2.66485
-2.66491
-2.66476
-2.66449
-2.66411
-2.66366
-2.66316
-2.66263
-2.66209
-2.66158
-2.6611
-2.66067
-2.6603
-2.66001
-2.65978
-2.65962
-2.6595
-2.6594
-2.6593
-2.65917
-2.65901
-2.78871
-2.78936
-2.78976
-2.78986
-2.78977
-2.78953
-2.78921
-2.78881
-2.78837
-2.78791
-2.78744
-2.78698
-2.78655
-2.78616
-2.78582
-2.78554
-2.78531
-2.78513
-2.78498
-2.78486
-2.78474
-2.78462
-2.78449
-2.91364
-2.91429
-2.9147
-2.91483
-2.91477
-2.91458
-2.9143
-2.91396
-2.91357
-2.91316
-2.91275
-2.91234
-2.91195
-2.9116
-2.91128
-2.91101
-2.91079
-2.9106
-2.91044
-2.91031
-2.91018
-2.91007
-2.90995
-3.03865
-3.03928
-3.03967
-3.03981
-3.03978
-3.03962
-3.03938
-3.03908
-3.03875
-3.03839
-3.03802
-3.03765
-3.03731
-3.03699
-3.0367
-3.03644
-3.03622
-3.03604
-3.03588
-3.03574
-3.03562
-3.0355
-3.03541
-3.16373
-3.16431
-3.16467
-3.16481
-3.16479
-3.16466
-3.16445
-3.16419
-3.1639
-3.16358
-3.16325
-3.16293
-3.16262
-3.16233
-3.16207
-3.16183
-3.16162
-3.16144
-3.16128
-3.16115
-3.16103
-3.16093
-3.16084
-3.28886
-3.28937
-3.28968
-3.28981
-3.28979
-3.28968
-3.2895
-3.28928
-3.28902
-3.28874
-3.28846
-3.28817
-3.2879
-3.28764
-3.28739
-3.28718
-3.28698
-3.28681
-3.28666
-3.28653
-3.28642
-3.28633
-3.28626
-3.41404
-3.41446
-3.41471
-3.41481
-3.41479
-3.41469
-3.41454
-3.41435
-3.41412
-3.41388
-3.41363
-3.41338
-3.41313
-3.4129
-3.41268
-3.41248
-3.41231
-3.41215
-3.41201
-3.41189
-3.41179
-3.41171
-3.41166
-3.53924
-3.53957
-3.53974
-3.5398
-3.53978
-3.53969
-3.53956
-3.53939
-3.5392
-3.53899
-3.53877
-3.53855
-3.53834
-3.53813
-3.53794
-3.53776
-3.5376
-3.53746
-3.53733
-3.53723
-3.53714
-3.53707
-3.53703
-3.66445
-3.66467
-3.66476
-3.66478
-3.66476
-3.66468
-3.66457
-3.66442
-3.66426
-3.66407
-3.66389
-3.6637
-3.66351
-3.66333
-3.66316
-3.663
-3.66286
-3.66273
-3.66263
-3.66254
-3.66246
-3.66241
-3.66238
-3.78965
-3.78978
-3.78978
-3.78976
-3.78973
-3.78966
-3.78956
-3.78944
-3.78929
-3.78914
-3.78898
-3.78882
-3.78866
-3.7885
-3.78835
-3.78822
-3.7881
-3.78799
-3.7879
-3.78782
-3.78776
-3.78772
-3.7877
-3.91483
-3.91488
-3.91481
-3.91476
-3.91471
-3.91464
-3.91455
-3.91444
-3.91432
-3.91419
-3.91406
-3.91392
-3.91378
-3.91365
-3.91353
-3.91341
-3.91331
-3.91322
-3.91315
-3.91309
-3.91304
-3.91301
-3.913
-4.03999
-4.03995
-4.03983
-4.03976
-4.0397
-4.03962
-4.03953
-4.03944
-4.03934
-4.03923
-4.03912
-4.03901
-4.0389
-4.03879
-4.03868
-4.03859
-4.03851
-4.03843
-4.03837
-4.03833
-4.0383
-4.03829
-4.03829
-4.16513
-4.16499
-4.16485
-4.16476
-4.16468
-4.1646
-4.16452
-4.16444
-4.16436
-4.16427
-4.16418
-4.16409
-4.164
-4.16391
-4.16383
-4.16375
-4.16369
-4.16363
-4.16359
-4.16356
-4.16354
-4.16354
-4.16355
-4.29025
-4.29002
-4.28985
-4.28974
-4.28965
-4.28958
-4.28951
-4.28944
-4.28938
-4.28931
-4.28924
-4.28917
-4.28909
-4.28903
-4.28896
-4.2889
-4.28885
-4.28881
-4.28879
-4.28877
-4.28877
-4.28878
-4.28881
-4.41536
-4.41506
-4.41484
-4.41471
-4.41463
-4.41456
-4.41451
-4.41445
-4.4144
-4.41435
-4.4143
-4.41424
-4.41419
-4.41414
-4.41409
-4.41405
-4.41401
-4.41399
-4.41398
-4.41398
-4.41399
-4.41401
-4.41404
-4.54047
-4.54011
-4.53986
-4.53972
-4.53963
-4.53957
-4.53952
-4.53948
-4.53944
-4.53941
-4.53937
-4.53933
-4.53929
-4.53925
-4.53922
-4.53919
-4.53916
-4.53915
-4.53916
-4.53917
-4.53919
-4.53923
-4.53927
-4.66557
-4.66518
-4.6649
-4.66475
-4.66466
-4.66461
-4.66456
-4.66453
-4.66451
-4.66448
-4.66445
-4.66443
-4.6644
-4.66437
-4.66434
-4.66432
-4.66431
-4.66431
-4.66433
-4.66436
-4.66439
-4.66444
-4.66449
-4.79065
-4.79024
-4.78996
-4.78981
-4.78973
-4.78967
-4.78964
-4.78961
-4.78959
-4.78957
-4.78956
-4.78954
-4.78951
-4.78949
-4.78947
-4.78945
-4.78945
-4.78946
-4.78949
-4.78954
-4.78959
-4.78965
-4.78971
-4.91573
-4.91531
-4.91504
-4.91491
-4.91483
-4.91478
-4.91474
-4.91472
-4.91471
-4.9147
-4.91468
-4.91466
-4.91464
-4.91462
-4.9146
-4.91459
-4.91459
-4.91461
-4.91465
-4.91471
-4.91478
-4.91485
-4.91493
-5.04077
-5.04037
-5.04014
-5.04003
-5.03997
-5.03992
-5.03989
-5.03987
-5.03986
-5.03985
-5.03983
-5.03981
-5.03979
-5.03976
-5.03973
-5.03971
-5.03971
-5.03974
-5.03979
-5.03988
-5.03997
-5.04006
-5.04015
-5.16578
-5.16542
-5.16525
-5.16519
-5.16514
-5.16511
-5.16508
-5.16506
-5.16504
-5.16503
-5.16501
-5.16499
-5.16495
-5.16491
-5.16487
-5.16484
-5.16483
-5.16485
-5.16493
-5.16505
-5.16517
-5.16528
-5.16537
-5.29073
-5.29047
-5.29039
-5.29039
-5.29037
-5.29034
-5.29031
-5.29029
-5.29028
-5.29025
-5.29023
-5.29019
-5.29014
-5.29008
-5.29002
-5.28997
-5.28993
-5.28994
-5.29004
-5.29023
-5.29039
-5.29051
-5.29061
-5.41567
-5.41556
-5.41559
-5.41564
-5.41565
-5.41563
-5.4156
-5.41557
-5.41554
-5.41551
-5.41546
-5.4154
-5.41533
-5.41525
-5.41517
-5.41509
-5.41501
-5.41497
-5.41512
-5.41542
-5.41564
-5.41577
-5.41586
-5.54034
-5.54067
-5.54088
-5.54098
-5.54101
-5.54098
-5.54094
-5.54087
-5.5408
-5.54073
-5.54064
-5.54054
-5.54043
-5.54031
-5.54018
-5.54004
-5.5399
-5.53977
-5.53993
-5.54061
-5.54094
-5.54107
-5.54114
-5.66556
-5.66693
-5.66659
-5.66653
-5.66648
-5.6664
-5.66631
-5.66621
-5.6661
-5.66598
-5.66586
-5.66573
-5.66559
-5.66543
-5.66524
-5.66499
-5.66452
-5.66372
-5.66417
-5.6657
-5.6662
-5.66635
-5.66641
217.521
217.857
218.2
218.784
92.7708
93.1657
93.3919
93.6176
16.2999
16.462
16.5666
16.6773
-0.304078
-0.268987
-0.278313
-0.315313
-0.580438
-0.544742
-0.57486
-0.592154
-0.923596
-0.884455
-0.923527
-0.918622
-1.15615
-1.16906
-1.16832
-1.16657
-1.34645
-1.35961
-1.36106
-1.36117
-1.51579
-1.51679
-1.51502
-1.51371
-1.65344
-1.65037
-1.64814
-1.64711
-1.77856
-1.77748
-1.77637
-1.77566
-1.90441
-1.90379
-1.90322
-1.90276
-2.03042
-2.03
-2.02962
-2.0293
-2.15644
-2.15609
-2.15579
-2.15553
-2.28219
-2.28195
-2.28172
-2.28153
-2.4078
-2.40763
-2.40749
-2.40735
-2.53335
-2.53324
-2.53314
-2.53305
-2.65888
-2.65881
-2.65874
-2.65868
-2.78439
-2.78434
-2.78429
-2.78426
-2.90988
-2.90984
-2.90981
-2.90979
-3.03535
-3.03532
-3.0353
-3.03529
-3.1608
-3.16078
-3.16077
-3.16076
-3.28622
-3.28621
-3.28621
-3.28621
-3.41163
-3.41162
-3.41162
-3.41163
-3.53701
-3.537
-3.53701
-3.53702
-3.66236
-3.66236
-3.66237
-3.66238
-3.7877
-3.7877
-3.78771
-3.78773
-3.91301
-3.91302
-3.91303
-3.91305
-4.0383
-4.03831
-4.03833
-4.03835
-4.16357
-4.16359
-4.16361
-4.16363
-4.28883
-4.28885
-4.28887
-4.2889
-4.41408
-4.4141
-4.41412
-4.41415
-4.53931
-4.53933
-4.53936
-4.53939
-4.66454
-4.66456
-4.66459
-4.66462
-4.78976
-4.78979
-4.78982
-4.78985
-4.91498
-4.91501
-4.91504
-4.91507
-5.0402
-5.04023
-5.04026
-5.0403
-5.16543
-5.16546
-5.16549
-5.16552
-5.29066
-5.2907
-5.29073
-5.29075
-5.41591
-5.41594
-5.41597
-5.41599
-5.54118
-5.5412
-5.54122
-5.54123
-5.66644
-5.66645
-5.66646
-5.66646
218.112
219.078
219.928
221.368
223.07
224.891
226.677
228.44
230.171
232.18
234.531
236.902
238.608
239.617
240.74
242.357
243.965
246.28
247.033
94.1976
96.1205
98.0048
100.134
102.549
104.986
107.475
109.631
111.353
112.734
113.988
115.459
117
118.513
120.164
121.977
123.811
125.67
125.967
17.0307
18.3064
19.5658
20.7817
22.0178
23.3066
24.7775
26.1698
27.1566
27.6235
27.7971
28.1094
28.69
29.5469
30.5909
31.473
32.0913
33.0099
32.7559
-0.383729
-0.457289
-0.479784
-0.48974
-0.461137
-0.367021
-0.369327
-0.388692
-0.396498
-0.373172
-0.28553
-0.221492
-0.181136
-0.11625
-0.0530525
-0.0316404
-0.062894
-0.204679
-0.286931
-0.613268
-0.630308
-0.636481
-0.639281
-0.623278
-0.586678
-0.575638
-0.575445
-0.579968
-0.586557
-0.595642
-0.606152
-0.615229
-0.630612
-0.665697
-0.715319
-0.702008
-0.698123
-0.689787
-0.893461
-0.883173
-0.886172
-0.89227
-0.90237
-0.923675
-0.928774
-0.929533
-0.926833
-0.924072
-0.923329
-0.92187
-0.91727
-0.920398
-0.940724
-0.965007
-0.955013
-0.960442
-0.93912
-1.1704
-1.15328
-1.16024
-1.16384
-1.18845
-1.21806
-1.22637
-1.22841
-1.22761
-1.22564
-1.22275
-1.22105
-1.21906
-1.21651
-1.2128
-1.20288
-1.21017
-1.21011
-1.20475
-1.37466
-1.37658
-1.38009
-1.38382
-1.38974
-1.3892
-1.39098
-1.39298
-1.39391
-1.39371
-1.39346
-1.39368
-1.39633
-1.40096
-1.40148
-1.39125
-1.39932
-1.39916
-1.40004
-1.51753
-1.52614
-1.52587
-1.52669
-1.52205
-1.5192
-1.5191
-1.51965
-1.51953
-1.51863
-1.51813
-1.51958
-1.5225
-1.52647
-1.52886
-1.52772
-1.53048
-1.53384
-1.53441
-1.64722
-1.6505
-1.65095
-1.6506
-1.64827
-1.64626
-1.64593
-1.6462
-1.64566
-1.64513
-1.64629
-1.64855
-1.65118
-1.65265
-1.65285
-1.65254
-1.65447
-1.65669
-1.65764
-1.77514
-1.77633
-1.77654
-1.77605
-1.77444
-1.77333
-1.77326
-1.77354
-1.77345
-1.77447
-1.77714
-1.77919
-1.77936
-1.77807
-1.7773
-1.77741
-1.77863
-1.78015
-1.78136
-1.90221
-1.90256
-1.90261
-1.90231
-1.9015
-1.90127
-1.90152
-1.90223
-1.90349
-1.9056
-1.90743
-1.90733
-1.90528
-1.90426
-1.90402
-1.90445
-1.90533
-1.90619
-1.90718
-2.02884
-2.02888
-2.02895
-2.02909
-2.02927
-2.02941
-2.02991
-2.03081
-2.0329
-2.03474
-2.03498
-2.0339
-2.03281
-2.03256
-2.03319
-2.03391
-2.03428
-2.03465
-2.03511
-2.15516
-2.15512
-2.15525
-2.15568
-2.15644
-2.15688
-2.15725
-2.15781
-2.1593
-2.16049
-2.16054
-2.16047
-2.16106
-2.16138
-2.16158
-2.16142
-2.1612
-2.16155
-2.16217
-2.28125
-2.2812
-2.28134
-2.28175
-2.28248
-2.28302
-2.28322
-2.28368
-2.28464
-2.28551
-2.2859
-2.28639
-2.28755
-2.28818
-2.28776
-2.28701
-2.28682
-2.28714
-2.28751
-2.40715
-2.40712
-2.40725
-2.40756
-2.40804
-2.40848
-2.40882
-2.4093
-2.41002
-2.41072
-2.41124
-2.41184
-2.41266
-2.41308
-2.4129
-2.4126
-2.41261
-2.41298
-2.413
-2.53292
-2.53291
-2.53303
-2.53328
-2.53364
-2.53401
-2.53438
-2.53484
-2.53543
-2.53603
-2.53657
-2.53714
-2.53776
-2.53817
-2.53827
-2.53831
-2.53855
-2.53915
-2.53909
-2.6586
-2.65861
-2.65872
-2.65893
-2.65923
-2.65956
-2.65992
-2.66034
-2.66085
-2.66139
-2.66191
-2.66245
-2.663
-2.66344
-2.66374
-2.66403
-2.66447
-2.66526
-2.66515
-2.78421
-2.78423
-2.78434
-2.78453
-2.7848
-2.7851
-2.78544
-2.78583
-2.78628
-2.78676
-2.78726
-2.78778
-2.7883
-2.78878
-2.78921
-2.78966
-2.79021
-2.79104
-2.79091
-2.90977
-2.90981
-2.90991
-2.91008
-2.91032
-2.9106
-2.91092
-2.91129
-2.9117
-2.91215
-2.91262
-2.91311
-2.91362
-2.91411
-2.91461
-2.91517
-2.9158
-2.91649
-2.91647
-3.03529
-3.03533
-3.03543
-3.0356
-3.03581
-3.03607
-3.03637
-3.03672
-3.0371
-3.03752
-3.03797
-3.03844
-3.03892
-3.03941
-3.03993
-3.04052
-3.04119
-3.04177
-3.04193
-3.16077
-3.16082
-3.16092
-3.16108
-3.16128
-3.16152
-3.1618
-3.16213
-3.16249
-3.16288
-3.16329
-3.16373
-3.16418
-3.16465
-3.16514
-3.16569
-3.16629
-3.16674
-3.16692
-3.28622
-3.28628
-3.28638
-3.28653
-3.28672
-3.28694
-3.28721
-3.28751
-3.28785
-3.28821
-3.28859
-3.28899
-3.2894
-3.28982
-3.29024
-3.29068
-3.29112
-3.29132
-3.29121
-3.41165
-3.41171
-3.41181
-3.41195
-3.41213
-3.41235
-3.4126
-3.41288
-3.41319
-3.41352
-3.41387
-3.41423
-3.41459
-3.41494
-3.41526
-3.41556
-3.41578
-3.41577
-3.41546
-3.53704
-3.53711
-3.53721
-3.53735
-3.53752
-3.53772
-3.53796
-3.53822
-3.53851
-3.53882
-3.53913
-3.53945
-3.53975
-3.54003
-3.54026
-3.5404
-3.5404
-3.54022
-3.53984
-3.66241
-3.66248
-3.66258
-3.66272
-3.66288
-3.66308
-3.6633
-3.66355
-3.66381
-3.66409
-3.66438
-3.66465
-3.66491
-3.66512
-3.66525
-3.66526
-3.66507
-3.66473
-3.66424
-3.78776
-3.78783
-3.78794
-3.78807
-3.78823
-3.78841
-3.78862
-3.78885
-3.7891
-3.78936
-3.78961
-3.78986
-3.79007
-3.79023
-3.7903
-3.79021
-3.78989
-3.78944
-3.78875
-3.91309
-3.91316
-3.91326
-3.91339
-3.91355
-3.91372
-3.91392
-3.91414
-3.91437
-3.91461
-3.91485
-3.91507
-3.91526
-3.91539
-3.91543
-3.91531
-3.91497
-3.91455
-3.91385
-4.03839
-4.03847
-4.03857
-4.0387
-4.03885
-4.03902
-4.03921
-4.03941
-4.03963
-4.03985
-4.04008
-4.04029
-4.04046
-4.04059
-4.04063
-4.04054
-4.04028
-4.03996
-4.03945
-4.16367
-4.16376
-4.16386
-4.16398
-4.16413
-4.16429
-4.16447
-4.16467
-4.16487
-4.16509
-4.1653
-4.16551
-4.16568
-4.16582
-4.16588
-4.16584
-4.16567
-4.1654
-4.16494
-4.28894
-4.28903
-4.28913
-4.28925
-4.28939
-4.28955
-4.28972
-4.28991
-4.29011
-4.29031
-4.29052
-4.29073
-4.29091
-4.29106
-4.29116
-4.29117
-4.29107
-4.29082
-4.29033
-4.4142
-4.41429
-4.41439
-4.4145
-4.41464
-4.41479
-4.41495
-4.41513
-4.41532
-4.41553
-4.41573
-4.41594
-4.41613
-4.41631
-4.41644
-4.41651
-4.41648
-4.41625
-4.41571
-4.53944
-4.53953
-4.53963
-4.53974
-4.53987
-4.54001
-4.54017
-4.54034
-4.54053
-4.54072
-4.54093
-4.54114
-4.54135
-4.54154
-4.54171
-4.54183
-4.54187
-4.54166
-4.54118
-4.66468
-4.66476
-4.66486
-4.66497
-4.66509
-4.66522
-4.66537
-4.66553
-4.66571
-4.6659
-4.66611
-4.66632
-4.66654
-4.66676
-4.66695
-4.66711
-4.66717
-4.66694
-4.66648
-4.7899
-4.78999
-4.79008
-4.79018
-4.7903
-4.79042
-4.79056
-4.79071
-4.79088
-4.79106
-4.79127
-4.79149
-4.79172
-4.79195
-4.79217
-4.79234
-4.79236
-4.79203
-4.79136
-4.91513
-4.91521
-4.9153
-4.91539
-4.91549
-4.91561
-4.91573
-4.91587
-4.91603
-4.91621
-4.9164
-4.91662
-4.91687
-4.91712
-4.91737
-4.91756
-4.91757
-4.91714
-4.91628
-5.04035
-5.04043
-5.04051
-5.04059
-5.04068
-5.04078
-5.04089
-5.04102
-5.04116
-5.04133
-5.04152
-5.04173
-5.04199
-5.04227
-5.04257
-5.04283
-5.0429
-5.04246
-5.04155
-5.16557
-5.16564
-5.16571
-5.16578
-5.16586
-5.16595
-5.16604
-5.16615
-5.16628
-5.16642
-5.1666
-5.16681
-5.16707
-5.16739
-5.16776
-5.16816
-5.1684
-5.16803
-5.16714
-5.29079
-5.29085
-5.29091
-5.29097
-5.29103
-5.2911
-5.29118
-5.29127
-5.29137
-5.2915
-5.29165
-5.29185
-5.2921
-5.29245
-5.29291
-5.29351
-5.29408
-5.29386
-5.29304
-5.41602
-5.41606
-5.41611
-5.41615
-5.4162
-5.41625
-5.41631
-5.41638
-5.41645
-5.41655
-5.41667
-5.41683
-5.41706
-5.41739
-5.41791
-5.41878
-5.41993
-5.42001
-5.41956
-5.54125
-5.54127
-5.5413
-5.54133
-5.54136
-5.54139
-5.54143
-5.54147
-5.54152
-5.54158
-5.54166
-5.54176
-5.54191
-5.54216
-5.54262
-5.54365
-5.54564
-5.54652
-5.54721
-5.66647
-5.66648
-5.6665
-5.66651
-5.66652
-5.66654
-5.66655
-5.66657
-5.66658
-5.6666
-5.66663
-5.66667
-5.66673
-5.66684
-5.6671
-5.66786
-5.67017
-5.6738
-5.67661
)
;

boundaryField
{
    leftWall
    {
        type            calculated;
        value           nonuniform List<scalar> 
50
(
746.785
688.067
629.4
570.794
512.244
453.744
395.289
336.881
245.664
121.78
30.3101
0.114343
-0.418495
-0.803953
-1.16696
-1.40535
-1.54188
-1.66662
-1.79138
-1.91614
-2.04081
-2.16539
-2.28995
-2.41452
-2.53916
-2.66388
-2.78871
-2.91364
-3.03865
-3.16373
-3.28886
-3.41404
-3.53924
-3.66445
-3.78965
-3.91483
-4.03999
-4.16513
-4.29025
-4.41536
-4.54047
-4.66557
-4.79065
-4.91573
-5.04077
-5.16578
-5.29073
-5.41567
-5.54034
-5.66556
)
;
    }
    rightWall
    {
        type            calculated;
        value           nonuniform List<scalar> 
50
(
737.94
681.379
624.264
566.882
508.983
450.844
392.971
335.836
247.033
125.967
32.7559
-0.286931
-0.689787
-0.93912
-1.20475
-1.40004
-1.53441
-1.65764
-1.78136
-1.90718
-2.03511
-2.16217
-2.28751
-2.413
-2.53909
-2.66515
-2.79091
-2.91647
-3.04193
-3.16692
-3.29121
-3.41546
-3.53984
-3.66424
-3.78875
-3.91385
-4.03945
-4.16494
-4.29033
-4.41571
-4.54118
-4.66648
-4.79136
-4.91628
-5.04155
-5.16714
-5.29304
-5.41956
-5.54721
-5.67661
)
;
    }
    lowerWall
    {
        type            calculated;
        value           nonuniform List<scalar> 
62
(
776.215
775.62
774.838
773.856
772.714
771.442
770.065
768.61
767.1
765.559
764.009
762.465
760.94
759.43
757.913
756.34
754.653
752.791
751.277
750.668
750.361
749.976
749.188
719.902
660.943
601.803
542.559
483.283
423.974
364.52
304.956
280.102
280.429
280.778
281.37
724.823
666.438
607.729
548.663
489.464
430.191
370.83
311.358
753.95
754.893
755.757
756.475
757.222
758.053
759.004
760.112
761.397
762.28
762.608
762.796
762.28
763.929
767.572
768.768
767.371
765.163
766.2
)
;
    }
    atmosphere
    {
        type            calculated;
        value           nonuniform List<scalar> 
46
(
-5.72913
-5.72904
-5.72904
-5.72904
-5.72904
-5.72904
-5.72904
-5.72904
-5.72904
-5.72904
-5.72904
-5.72904
-5.72904
-5.72904
-5.72904
-5.72904
-5.72904
-5.72904
-5.72904
-5.72904
-5.72905
-5.72905
-5.72906
-5.72907
-5.72907
-5.72907
-5.72908
-5.72908
-5.72909
-5.7291
-5.7291
-5.72911
-5.72911
-5.72912
-5.72912
-5.72912
-5.72912
-5.72912
-5.72913
-5.72913
-5.72913
-5.72912
-5.72912
-5.72909
-5.72904
-5.74415
)
;
    }
    defaultFaces
    {
        type            empty;
    }
}


// ************************************************************************* //
