/*--------------------------------*- C++ -*----------------------------------*\
  =========                 |
  \\      /  F ield         | OpenFOAM: The Open Source CFD Toolbox
   \\    /   O peration     | Website:  https://openfoam.org
    \\  /    A nd           | Version:  9
     \\/     M anipulation  |
\*---------------------------------------------------------------------------*/
FoamFile
{
    format      ascii;
    class       surfaceScalarField;
    location    "30.75";
    object      phi;
}
// * * * * * * * * * * * * * * * * * * * * * * * * * * * * * * * * * * * * * //

dimensions      [0 3 -1 0 0 0 0];

internalField   nonuniform List<scalar> 
1300
(
11.2529
1.87548
-4.16639
11.2529
-5.00966
1.87548
-4.24273
4.24273
-1.18751
1.18751
5.7123
5.54056
-2.37717
2.37717
-2.81853
2.81853
-2.86016
2.86016
-1.06194
1.06194
-1.02826
1.02826
0.693118
-0.693118
-3.42025
3.42025
-1.4562
1.4562
-2.90907
2.90907
6.1281
-6.1281
-3.24612
3.24612
-0.743767
0.743767
-4.26321
15.5161
6.98965
6.98965
-2.37111
2.37111
-1.25395
1.25395
1.41034
-1.41034
9.05065
-9.05065
-4.88427
-5.88404
1.91888
-14.066
-3.09077
-3.09077
-2.7054
2.7054
-0.829928
1.04555
3.47681
-3.47681
-0.75715
0.75715
-4.32815
0.0854216
-4.32815
4.02724
0.215489
4.02724
-1.32879
0.14128
-1.32879
4.67816
-4.67816
1.07575
0.11176
1.07575
3.9281
-3.9281
-5.71006
11.4224
5.5428
-5.32064
20.8367
-5.93222
11.4728
-3.89978
3.89978
-2.29433
-0.0828461
-2.29433
2.37871
-0.00154023
2.37871
-4.00295
4.00295
-2.6088
-0.209729
-2.6088
2.91856
-0.100024
2.91856
3.66642
-3.66642
-2.91622
0.0560589
-2.91622
2.70846
0.151704
2.70846
0.771042
1.10443
-2.64652
3.69207
-1.10443
0.0424987
1.02614
0.0357986
1.02614
-1.01453
-0.0137252
-1.01453
1.04984
-0.0215793
1.04984
0.730136
-0.0370171
0.730136
-0.754863
0.0617442
-0.754863
-8.60715
-8.97419
-3.54413
0.123884
-3.54413
-1.47422
0.0180201
-1.47422
1.49235
-0.0361562
1.49235
-2.52548
2.52548
-3.25098
0.341905
-3.25098
4.80635
1.32175
4.80635
5.04612
6.20674
16.299
-16.299
10.1709
-2.96641
-0.279713
-2.96641
-3.4116
-5.63905
3.4116
-0.165479
-0.805508
0.0617409
-0.805508
5.62659
1.36306
5.62659
2.58623
0.122225
-2.58623
0.215123
4.62615
-4.62615
1.42328
0.947823
1.42328
-1.19154
1.19154
1.12336
-0.0735238
-1.12336
-0.130582
1.38601
0.0243318
1.38601
-1.40975
-0.000595773
-1.40975
7.3101
-13.1941
-7.76825
3.23053
0.18972
-3.23053
0.139756
3.56356
-0.0867502
3.56356
-3.30969
3.30969
-3.61099
0.134179
-3.61099
-0.682227
-0.0749236
-0.682227
0.842037
-0.0848868
0.842037
-4.57604
0.247892
-4.57604
-3.69097
0.439999
3.69097
0.336263
1.25015
-1.25015
-1.43659
0.107806
-1.43659
-4.65912
0.0830761
4.65912
0.0190393
-4.77213
0.0939732
-4.77213
-3.71253
0.101534
3.71253
0.215576
4.58935
1.03724
-4.58935
0.661248
-5.36948
11.5762
-5.88338
11.4262
-3.51592
-0.383859
-3.51592
4.09084
-0.191059
4.09084
2.5705
0.33857
-2.5705
0.276172
2.50489
-0.126177
2.50489
-3.94565
-0.057296
-3.94565
3.80584
0.197114
3.80584
2.54438
-0.0394925
-2.54438
-0.0644181
2.89325
0.0253018
2.89325
3.6724
-0.00598055
3.6724
-3.53944
-0.126984
-3.53944
3.17896
-3.17896
3.08059
0.0983704
-3.08059
0.164369
-5.07402
5.07343
-0.00799946
-5.06602
1.01814
1.01814
0.768953
-0.0388175
0.768953
-0.861792
0.106929
-0.861792
8.34359
-16.1118
8.77983
-17.387
7.53431
-21.6003
8.11587
-17.0901
3.82842
-3.82842
3.76225
0.066164
-3.76225
0.218118
-1.45605
-0.0181643
-1.45605
-2.28837
-0.237106
-2.28837
2.85753
-0.332052
2.85753
-3.74209
3.74209
-4.12478
0.382686
4.12478
0.68157
2.95445
-0.0611999
-2.95445
-0.0119537
0.924059
0.151686
-0.924059
0.118551
4.86347
-0.237326
4.86347
-4.0852
-0.540946
-4.0852
-1.47495
0.0188922
1.47495
-0.0516608
-1.25895
0.0674032
-1.25895
-5.0745
0.00847756
-5.0387
-1.40127
-1.40127
1.30414
4.9962
-3.58567
0.0462344
3.58567
-0.0221052
3.52705
0.215042
-3.52705
0.21736
-3.26327
0.0843113
3.26327
0.0464178
-0.659748
-0.022479
-0.659748
-1.03477
1.03477
-0.917651
-0.117116
0.917651
-0.0756141
1.40561
-0.155459
1.40561
1.47054
0.0218111
-1.47054
0.0339508
-5.01125
0.239121
-5.01125
4.10145
-0.0106154
4.10145
-3.94906
-0.136136
3.94906
-0.276664
-0.00372289
5.07715
-1.01441
-0.000120147
1.01441
-5.10148
5.10136
-0.665138
0.0053903
0.665138
0.103815
1.02967
0.161873
-1.02967
0.16788
3.84934
-0.0434992
-3.84934
0.0209193
-2.00741
-0.280959
-2.00741
-3.18493
-0.33099
3.18493
-0.327401
-5.11518
-0.0779365
5.19312
-5.13676
1.33688
0.0491256
-1.33688
5.15049
-1.14366
-0.106485
1.14366
-0.108895
1.60388
-0.198279
1.60388
5.12082
-0.257348
-5.12082
0.109569
-4.11921
0.173551
4.11921
-0.0177509
-1.77517
-0.232239
1.77517
-0.171289
-13.1281
14.4911
7.70865
-6.27926
-6.91488
-11.9183
4.4471
7.12912
14.618
-11.8164
-9.78389
-11.6767
2.86006
-2.69218
-3.7273
3.69029
23.5915
-23.4976
-18.3992
19.0808
20.777
-20.5615
5.70885
5.71351
15.8499
-15.9327
-20.8999
20.5161
15.3859
-15.5957
22.0536
-22.1109
-25.8176
25.7741
-16.0928
16.1489
-20.2944
20.1674
-21.0577
20.781
-8.35132
-9.03567
16.5184
-16.3945
19.9973
-20.277
-19.3827
19.7246
10.0475
4.44359
11.0848
-6.24673
11.9556
-5.22605
12.9347
8.29426
-16.6456
7.81758
-14.7325
9.0443
10.953
-8.87882
-3.0395
-17.9699
17.8832
-17.257
17.3034
24.1236
-24.0381
-6.17283
11.8863
-5.25335
12.3825
-11.409
-6.99019
10.0872
4.53073
8.99291
7.52547
-9.18263
-2.49405
-24.7987
24.5414
-25.6599
25.1189
0.100179
2.42593
-2.52611
1.35412
-0.862691
3.28862
1.99737
2.1043
2.45271
-2.29084
0.239463
-2.76558
-2.89616
-5.34046
5.44827
5.15714
-5.04538
16.5465
7.04501
16.5656
-16.7495
-6.74809
-16.5104
11.3637
7.71706
11.7464
12.0617
8.71534
12.1632
10.359
-10.3317
-0.0273076
-11.4777
21.8367
1.55464
-18.4678
-13.9371
8.8457
7.00417
8.84416
-9.89112
-6.0416
-9.61495
-11.0153
-9.88467
-11.3462
12.3196
8.19644
12.1286
-15.3172
15.2995
9.27305
6.11288
9.17303
-8.96221
-6.63344
-9.02663
27.4832
-6.67837
-20.8049
-13.1829
-12.6348
12.9857
9.06784
14.341
11.4332
14.3619
8.91533
18.5679
-17.9832
5.34839
-9.94704
-6.1458
-9.78267
9.25805
6.89085
9.40976
-11.7668
-8.52762
-11.7206
-11.987
-9.07075
11.9929
8.17449
-12.5344
-13.1255
12.6705
8.11051
7.84216
-17.6261
9.24791
-18.2836
-10.966
-5.42847
-10.7479
10.7856
6.68334
-17.4689
-5.86002
23.632
-12.679
20.5925
-10.8983
-9.37874
-10.9102
-14.8035
-4.57922
-14.3635
-7.98971
7.70876
-8.82166
8.48961
26.8771
-16.2224
-10.6547
-12.3784
-8.18309
11.7171
-0.632343
-12.8358
12.8085
-0.880182
12.0545
16.4981
15.8658
-10.8802
-6.37674
-10.6629
10.2702
7.03322
10.3545
16.1052
8.01841
16.3206
-16.8175
-7.22069
-16.5696
4.84109
-4.91601
5.71363
-5.69473
15.5794
9.5395
-15.3421
-9.45662
22.9305
-10.775
-12.1555
-5.11966
5.21414
-0.0944837
-1.83103
-0.476906
0.266861
-1.93096
-1.79634
1.86922
0.235079
5.44922
3.65288
-2.41437
2.48177
2.77875
2.70523
-0.190933
2.49877
-2.49338
18.9021
-11.4322
-7.46986
13.9701
-13.887
-2.59947
-19.3272
16.7277
2.67856
3.00335
-2.94161
-3.94842
-1.39204
-3.91447
2.95198
2.20515
3.10367
2.10716
3.3411
-8.10341
1.56299
6.54042
-5.99625
-3.48238
-13.3463
-6.26642
19.6127
16.6788
7.86258
-16.7884
0.278
5.29306
-5.32922
-1.59827
-11.748
8.34807
-9.94634
-15.2171
-6.46089
21.678
-9.58078
-1.08208
9.36573
2.38065
-10.8773
-7.09265
10.7431
1.42012
-12.0645
23.9707
-11.9062
-18.4413
8.51577
13.3209
16.2328
-17.8628
9.31888
8.54388
-4.54188
7.42965
1.41451
7.30348
-19.9286
13.887
11.3235
8.40118
-11.662
2.04708
-17.8816
25.1713
-22.2876
-2.88373
12.8217
12.3496
13.5494
13.3278
-7.78537
21.3347
-3.61832
-18.6693
21.4999
-13.0987
15.7827
-28.8814
-29.1105
10.4412
-17.9559
22.0751
-4.11917
-5.20582
-10.1114
23.1617
-2.00658
-21.1552
10.122
-13.9267
-11.8539
25.7806
-20.605
18.4873
-6.2672
-12.2201
-12.6663
-9.44455
12.4928
2.80668
-25.8743
31.2227
-7.30642
7.80413
1.36889
7.82943
10.6085
-15.9761
5.36768
9.99657
-16.2638
6.76206
-22.7382
-12.1599
24.1949
-12.035
-17.5884
-15.7976
-1.79078
4.87533
26.3474
-16.3085
12.1174
4.19106
8.46174
1.89274
-8.56011
-1.22257
0.96806
16.0865
-17.0545
10.3778
10.5
11.7044
4.38204
10.7702
7.11295
-10.7481
-0.972414
-14.7928
5.72201
-6.61828
-14.5742
20.2962
-16.2679
1.69369
-10.3032
-13.9906
24.2938
-16.449
11.4255
12.5453
18.4587
-19.615
5.62438
-9.74634
-9.86864
10.6435
-17.2618
7.49832
12.7979
15.6088
2.48335
12.7481
11.4468
-19.4314
1.14786
18.9722
-16.4782
3.88921
10.4727
-16.0066
0.209046
-10.5389
2.66397
-15.343
-14.8049
16.5297
-21.1089
-12.3518
13.5672
2.75346
-13.9034
-0.46006
-4.95433
-3.03539
-5.18657
-3.27692
-5.54475
-11.0623
-1.9269
-9.13539
5.78185
-6.68713
-4.65912
7.01453
1.47508
-4.93555
4.82907
-5.58035
5.38207
-0.210165
13.0186
15.6556
7.4725
-8.47674
15.9492
-15.6082
23.6266
-29.725
14.1168
15.9489
-23.1696
-13.7761
2.70116
2.13993
2.61627
13.4479
-14.4145
0.966649
-13.2791
17.5985
-4.31946
-19.5808
6.30171
-6.1329
5.1867
0.526928
5.16853
1.41639
6.84598
-8.26237
-4.27834
-4.33001
-9.16324
-13.8594
23.0226
4.73545
-13.1051
8.36966
-12.0625
16.7979
0.0785411
-13.1836
16.9847
-10.1388
17.5117
-11.984
5.52771
12.7918
22.3469
-9.5551
16.2481
-6.70864
7.06787
-16.623
-6.79152
-11.2883
18.1792
-13.0055
14.6992
-1.12464
15.8239
-13.7773
3.00223
-2.07284
8.4272
8.64232
16.8088
-12.4267
11.9697
-18.6783
-4.65327
-16.195
-3.39713
1.01883
-13.8257
12.8069
12.0441
-11.0252
-3.24224
8.98432
-5.74208
5.68196
-2.84834
-2.83363
-1.84644
-3.06957
1.86891
0.629853
6.31182
0.489188
-3.33753
-2.00419
-1.90037
10.3745
8.52761
-3.83188
3.7374
3.56502
-0.561664
0.958735
2.14493
4.58721
-3.62848
0.678128
3.90909
-2.26349
3.82774
1.46532
-3.84955
-0.0649195
-3.40814
11.7562
3.13227
-5.33743
1.70895
2.38206
-13.8143
19.7415
-11.4155
-8.32598
22.1235
3.06343
-14.4789
16.2638
-13.5852
8.10341
-14.3698
-6.37551
-19.9607
-12.9157
-10.7095
19.0792
-12.3131
20.1757
3.86209
-20.4537
24.3158
-12.7398
6.27895
-9.44315
10.9085
-4.05811
-5.38505
11.2657
10.4123
-11.0535
-0.694445
0.21212
8.41933
-8.20721
-1.52701
-7.52326
-16.4089
17.829
-8.25569
17.5746
7.69356
-7.63403
25.2086
6.56495
-14.199
-11.8763
-12.9584
-5.6551
10.5777
-1.79522
-7.23142
-14.0153
7.27091
0.0325684
-19.0772
22.07
-2.99282
-12.073
-1.81406
14.6358
-18.0991
1.83532
-11.337
10.733
12.1475
12.18
-20.8436
-0.311572
-12.6471
3.1764
-15.8235
15.526
-6.80303
17.2443
-16.0068
11.3477
-14.5317
14.3605
-1.46301
14.7499
-9.38219
6.05501
-15.4996
-12.6929
14.4709
-8.35802
15.8398
-10.1161
25.9559
-17.4225
14.4035
11.5524
-2.71225
-8.19796
-13.9738
11.2615
0.429728
8.25916
17.8373
-10.7244
16.8649
8.92447
-18.6708
-8.33729
-25.8596
7.18882
-13.3144
-7.35658
14.5454
11.1021
12.9949
4.67676
-11.7723
17.7869
-19.5777
-5.75191
-9.05301
14.5772
-3.31572
10.1445
-19.1975
-5.1985
13.1093
-0.192186
-12.9171
3.11312
-15.4649
5.13043
-20.5953
15.9785
-16.4385
1.76949
-7.90239
-3.16606
-3.27495
-2.17187
-3.40848
-7.56683
5.39496
-1.26513
3.56394
-12.5212
12.3291
-5.07727
10.4722
-4.05781
-1.12876
4.2291
1.15298
11.6252
3.02529
-16.8014
-9.25477
14.6243
-5.36951
1.1197
-10.8004
3.82386
8.09954
14.024
-24.8273
1.65771
-15.1437
-4.06976
6.20969
4.91456
16.9586
2.54412
6.55212
-0.342429
9.09623
2.27384
2.19823
-11.2174
12.1841
1.58944
15.7063
-1.88296
7.41066
3.28558
3.3036
2.02562
5.72249
2.91983
8.72472
0.462347
-3.86766
2.06785
-3.96822
-1.26968
-4.00704
-0.316752
3.72519
-4.04194
10.4961
-1.96851
5.12661
-1.88173
-4.93341
6.81514
-9.35159
-5.49508
-1.58599
-5.60631
7.31526
6.14991
-5.72927
-3.62232
2.39097
-15.3067
11.9789
-12.6733
-2.261
22.0548
-9.46147
1.25426
-3.18252
-6.269
-7.66103
7.72595
24.1899
1.01868
12.2837
18.8477
11.755
1.03067
11.9867
-16.1058
-10.7515
-16.4174
-0.891397
13.7444
5.61422
20.7332
17.1666
13.8509
-5.34656
-24.9242
20.7191
-8.53504
16.3997
-3.48257
-17.1127
14.6484
8.97821
-17.4018
0.963313
-16.1494
-24.6845
-0.344214
12.6733
-11.281
10.1522
7.11685
2.01854
-2.42559
-0.849364
2.54271
-0.344478
8.75176
-0.188788
-8.19496
8.38375
-3.5364
2.26672
-0.42931
4.16671
6.38583
4.41733
-3.77764
-7.81958
-8.81659
-4.99769
-17.1426
2.4701
-8.62001
5.681
-3.41427
2.84737
4.96948
10.0961
-1.60165
-9.42359
7.34373
-4.49636
5.59973
)
;

boundaryField
{
    wall-4
    {
        type            calculated;
        value           uniform 0;
    }
    velocity-inlet-5
    {
        type            calculated;
        value           uniform -11.2529;
    }
    velocity-inlet-6
    {
        type            calculated;
        value           uniform -1.87548;
    }
    pressure-outlet-7
    {
        type            calculated;
        value           nonuniform List<scalar> 8(4.16639 5.00966 10.7683 12.1471 17.5813 15.0784 17.1234 15.6502);
    }
    wall-8
    {
        type            calculated;
        value           uniform 0;
    }
    frontAndBackPlanes
    {
        type            empty;
        value           nonuniform List<scalar> 0();
    }
}


// ************************************************************************* //
