/*--------------------------------*- C++ -*----------------------------------*\
  =========                 |
  \\      /  F ield         | OpenFOAM: The Open Source CFD Toolbox
   \\    /   O peration     | Website:  https://openfoam.org
    \\  /    A nd           | Version:  9
     \\/     M anipulation  |
\*---------------------------------------------------------------------------*/
FoamFile
{
    format      ascii;
    class       volScalarField;
    location    "1.3";
    object      alpha.water;
}
// * * * * * * * * * * * * * * * * * * * * * * * * * * * * * * * * * * * * * //

dimensions      [0 0 0 0 0 0 0];

internalField   nonuniform List<scalar> 
2268
(
1
1
1
1
1
1
1
1
1
1
1
1
1
0.997617
0.975923
0.975713
0.975713
0.979861
0.99301
0.995892
0.996023
0.987195
0.984546
1
1
1
1
1
1
1
1
1
1
1
1
1
1
0.979072
0.97572
0.988405
0.999482
0.999978
0.999979
0.999979
0.999944
0.984546
1
1
1
1
1
1
1
1
1
1
1
1
1
1
0.994013
0.991518
0.998429
0.999981
0.999956
0.999383
0.999699
0.999941
0.993958
1
1
1
1
1
1
1
1
1
1
1
1
1
0.999998
0.999999
0.99999
0.999983
0.999982
0.999248
0.998725
0.999489
0.999927
0.999924
1
1
1
1
1
1
1
1
1
1
1
1
1
1
1
1
1
0.999869
0.99624
0.998659
0.999921
0.999926
0.999925
1
1
1
1
1
1
1
1
1
1
1
1
1
1
1
1
1
0.99765
0.992105
0.998338
0.99992
0.999925
0.999925
1
1
1
1
1
1
1
1
1
1
1
1
1
1
1
1
1
0.997143
0.991721
0.998275
0.999897
0.999888
0.999919
1
1
1
1
1
1
1
1
1
1
1
1
1
1
1
1
1
0.976696
0.990006
0.9998
0.999884
0.999884
0.999908
0.998107
0.998107
0.99809
0.998075
0.998073
0.995845
0.989548
0.989522
0.978452
0.97888
0.979601
0.9796
0.973884
0.946338
0.965858
0.968478
0.968417
0.96827
0.968228
0.998016
0.995733
0.997521
0.998072
0.998075
0.998059
0.998044
0.862194
0.598736
0.70721
0.957503
0.979601
0.97957
0.946569
0.968639
0.968575
0.968479
0.968412
0.968233
0.982348
0.955179
0.940683
0.955383
0.994415
0.998046
0.994736
0.516879
0.373761
0.373794
0.577628
0.93218
0.979542
0.979204
0.968778
0.936153
0.901091
0.946102
0.968316
0.97554
0.950826
0.909269
0.909309
0.959298
0.997929
0.991028
0.484663
0.469842
0.373764
0.378898
0.656279
0.945056
0.978865
0.963925
0.725893
0.72678
0.864478
0.968321
0.990289
0.990297
0.983934
0.932371
0.88798
0.946449
0.731308
0.665512
0.769072
0.729804
0.277139
0.217969
0.419015
0.860327
0.932474
0.725647
0.733295
0.945919
0.968324
0.990299
0.990289
0.990041
0.989796
0.662418
0.42671
0.348901
0.667411
0.77287
0.772881
0.531138
0.152389
0.148802
0.236509
0.570988
0.824445
0.953937
0.968336
0.968329
0.989735
0.982691
0.98978
0.989803
0.585805
0.348901
0.34869
0.5709
0.772874
0.772887
0.670726
0.157584
0.148573
0.148343
0.14838
0.679854
0.96828
0.968298
0.968323
0.761348
0.623458
0.887111
0.98946
0.800149
0.35129
0.348733
0.662323
0.772887
0.772887
0.763965
0.287429
0.14843
0.148467
0.148357
0.355792
0.942342
0.96827
0.96828
1
1
1
1
1
1
0.999999
1
1
1
1
0.999998
0.999998
0.999999
1
1
0.974643
0.962954
0.978062
0.999848
0.9999
0.999903
0.999906
0.999999
0.999999
0.999999
0.999999
0.999999
0.999999
0.999999
0.999999
0.999998
0.999999
1
0.999999
0.999998
0.999998
1
1
0.980661
0.962954
0.98021
0.995126
0.975583
0.902747
0.746115
0.999953
0.999938
0.999946
0.999955
0.999964
0.999976
0.999978
0.99998
0.999987
0.99993
1
1
1
0.999999
1
1
0.999441
0.997927
0.991828
0.871067
0.5206
0.193614
0.0574716
0.869744
0.87682
0.896486
0.911104
0.922674
0.939831
0.919613
0.86894
0.788424
0.857422
0.983243
0.999999
1
1
1
0.999999
0.994802
0.931722
0.613237
0.144292
0.00888612
0.00362892
0.00275338
0.137932
0.162158
0.187118
0.210167
0.23325
0.272756
0.276261
0.344725
0.428268
0.312905
0.421047
0.67895
0.874704
0.940074
0.925658
0.845201
0.538487
0.13132
0.00418692
0.00566153
0.00651689
0.0108358
0.00820103
1.24393e-07
1.2447e-07
1.2483e-07
1.2839e-07
3.26455e-07
1.42358e-05
0.0550413
0.289021
0.419521
0.143445
0.0880664
0.0883707
0.136199
0.198397
0.169656
0.0808212
0.00462583
0.00363347
0.00370305
0.00470275
0.027516
0.0286873
0.0261823
1.2355e-07
1.25517e-07
1.31264e-07
6.09479e-07
0.000263914
0.00151438
0.0768411
0.156803
0.213715
0.225263
0.0744117
0.0332408
0.00352751
0.00348621
0.00344711
0.00348621
0.00355392
0.00362338
0.00373786
0.0276418
0.0286597
0.0286873
0.00881661
1.24485e-07
8.10163e-07
6.73039e-07
0.000102342
0.0041364
0.00517713
1.6639e-07
5.84627e-07
2.39701e-05
0.0848125
0.116143
0.102425
0.00920424
0.00366772
0.00342125
0.0038047
0.0040872
0.003848
0.0235684
0.0275151
0.0125307
8.11935e-05
1.70922e-06
4.42314e-08
9.14934e-07
5.70841e-06
0.000127905
8.7136e-05
1.14423e-07
1.13463e-07
1.63866e-07
2.79507e-07
0.00913163
0.0772905
0.0822982
0.0180664
0.00305066
0.00303416
0.00432785
0.0159666
0.0201077
0.0111703
5.99193e-05
1.90586e-10
1.87086e-08
5.14525e-07
1.66631e-09
2.09146e-09
8.15118e-06
2.41185e-05
1.85731e-06
7.36305e-09
2.16269e-07
2.57555e-07
2.68299e-07
2.98527e-07
1.16299e-06
0.00312373
0.0189837
0.00409955
0.00265442
0.00548116
0.0120029
0.00855741
8.67362e-22
-2.16151e-10
-2.64692e-26
1.90586e-10
1.06507e-07
9.98339e-10
1.77099e-07
7.98897e-07
3.91902e-07
4.34106e-10
6.09488e-09
6.12573e-08
1.47773e-06
1.53802e-06
5.00081e-07
5.84602e-09
5.16284e-06
0.00344462
0.00466366
0.00227502
7.69622e-15
1.51298e-42
-7.34607e-13
-1.0442e-12
0
7.17377e-13
8.81381e-11
4.08538e-09
9.93219e-10
8.52447e-09
1.05837e-08
2.5681e-09
4.31237e-10
1.41581e-10
1.41543e-10
1.33155e-09
4.84468e-07
4.95097e-07
1.87945e-12
-2.52806e-09
-8.10728e-11
0.00029036
4.67464e-13
5.32537e-13
2.53597e-12
5.90993e-12
7.83917e-12
6.21304e-12
3.19982e-12
9.34125e-12
1.12227e-10
4.89991e-11
2.29819e-10
2.99492e-10
1.58596e-10
1.0311e-10
1.80487e-10
5.93721e-10
2.54532e-10
1.11116e-11
8.24136e-12
6.44474e-12
5.36223e-12
2.89816e-12
3.32223e-12
3.40264e-12
6.9728e-12
9.95968e-12
9.95968e-12
7.32841e-12
2.292e-12
1.23869e-12
1.32064e-12
6.17476e-12
2.9616e-11
3.75539e-11
3.89225e-11
4.92609e-11
5.77757e-11
6.11159e-11
7.15997e-11
1.32333e-10
2.17412e-10
2.17036e-10
1.59468e-10
1.01509e-10
6.26388e-11
3.27843e-12
3.28038e-12
3.38013e-12
2.92309e-12
1.25534e-12
1.87117e-13
2.4015e-14
1.24174e-14
6.30225e-14
1.19196e-12
2.81703e-11
4.12789e-11
4.71497e-11
5.24672e-11
5.78397e-11
5.95466e-11
5.54206e-11
4.96443e-11
4.91508e-11
5.03037e-11
4.70724e-11
3.13632e-11
1.63068e-11
6.90316e-12
1.68113e-12
-2.93849e-13
-1.12471e-12
-1.4229e-12
-1.32066e-12
-9.76811e-13
-6.03882e-13
-2.58224e-13
5.20388e-14
2.65879e-11
4.0136e-11
4.72726e-11
5.16542e-11
5.66108e-11
5.91137e-11
5.6623e-11
5.07226e-11
5.00679e-11
5.27432e-11
5.23504e-11
4.16797e-11
2.42495e-11
9.62686e-12
1.05189e-12
-1.41383e-12
-2.60203e-12
-2.98826e-12
-2.72513e-12
-2.05277e-12
-1.31059e-12
-7.08818e-13
-2.86566e-13
2.409e-11
3.57408e-11
4.33255e-11
4.71737e-11
5.16407e-11
5.58917e-11
5.60522e-11
4.90278e-11
4.47445e-11
4.582e-11
4.57077e-11
3.01472e-11
1.57804e-11
3.91117e-12
-8.50217e-13
-3.07883e-12
-4.48001e-12
-4.83876e-12
-4.26773e-12
-3.20542e-12
-2.0701e-12
-1.16152e-12
-5.68645e-13
2.02644e-11
2.87651e-11
3.49673e-11
3.83607e-11
4.15121e-11
4.58129e-11
4.81751e-11
4.51569e-11
3.53193e-11
3.01317e-11
2.85424e-11
1.56417e-11
5.20918e-12
-2.1551e-13
-2.56943e-12
-4.96132e-12
-6.25836e-12
-6.27979e-12
-5.35479e-12
-3.97587e-12
-2.58977e-12
-1.48301e-12
-7.66623e-13
1.47934e-11
2.03705e-11
2.43521e-11
2.65478e-11
2.80862e-11
2.97765e-11
3.1366e-11
3.13218e-11
2.47531e-11
1.65666e-11
1.0845e-11
4.11498e-12
8.70399e-14
-1.62404e-12
-4.1141e-12
-6.03364e-12
-6.82646e-12
-6.49465e-12
-5.38091e-12
-3.94299e-12
-2.56972e-12
-1.49166e-12
-7.90137e-13
8.03141e-12
1.16772e-11
1.37514e-11
1.445e-11
1.46236e-11
1.43941e-11
1.38344e-11
1.29855e-11
1.04343e-11
6.36115e-12
2.3233e-12
1.77589e-13
-9.00417e-13
-2.67165e-12
-4.4731e-12
-5.68154e-12
-5.97221e-12
-5.42469e-12
-4.35709e-12
-3.13257e-12
-2.02707e-12
-1.18173e-12
-6.28409e-13
2.40694e-12
4.57784e-12
5.46819e-12
5.34388e-12
4.98716e-12
4.42591e-12
3.6286e-12
2.78407e-12
1.90781e-12
9.04332e-13
1.21221e-13
-4.13785e-13
-1.41104e-12
-2.65216e-12
-3.73831e-12
-4.30795e-12
-4.24371e-12
-3.67326e-12
-2.8433e-12
-1.98993e-12
-1.26688e-12
-7.3553e-13
-3.89634e-13
2.63018e-13
9.41269e-13
1.19005e-12
1.0692e-12
8.8071e-13
6.73731e-13
4.56511e-13
2.65891e-13
1.09307e-13
1.71228e-14
-1.61022e-13
-6.17206e-13
-1.29045e-12
-1.99549e-12
-2.50013e-12
-2.64934e-12
-2.44582e-12
-2.00833e-12
-1.48858e-12
-1.00638e-12
-6.2496e-13
-3.57987e-13
-1.89508e-13
7.40468e-15
7.42558e-14
1.04535e-13
8.7667e-14
6.285e-14
4.02891e-14
2.27589e-14
8.13322e-15
7.43461e-16
-4.57129e-14
-2.08341e-13
-5.03128e-13
-8.68198e-13
-1.18732e-12
-1.35137e-12
-1.32102e-12
-1.13748e-12
-8.79223e-13
-6.18528e-13
-4.00027e-13
-2.39561e-13
-1.33492e-13
-6.94221e-14
5.70399e-17
1.85221e-15
3.0812e-15
2.54586e-15
1.68246e-15
9.66961e-16
3.99335e-16
3.45908e-17
-8.43566e-15
-5.06631e-14
-1.50279e-13
-2.99529e-13
-4.55454e-13
-5.62156e-13
-5.84231e-13
-5.25992e-13
-4.20139e-13
-3.03301e-13
-2.006e-13
-1.22773e-13
-7.00477e-14
-3.74557e-14
-1.88406e-14
1.07499e-19
1.52329e-17
3.58417e-17
3.21557e-17
2.23773e-17
1.23776e-17
1.89002e-18
-7.46785e-16
-7.9969e-15
-3.23781e-14
-7.89407e-14
-1.37773e-13
-1.87819e-13
-2.09905e-13
-1.98738e-13
-1.63997e-13
-1.20741e-13
-8.07812e-14
-4.97911e-14
-2.85595e-14
-1.53588e-14
-7.7878e-15
-3.73896e-15
-4.05652e-18
2.46125e-35
1.03955e-19
1.21921e-19
1.04896e-19
3.07982e-20
-1.31466e-17
-6.56074e-16
-4.54626e-15
-1.5019e-14
-3.17179e-14
-4.92158e-14
-6.02473e-14
-6.07379e-14
-5.20973e-14
-3.91479e-14
-2.63814e-14
-1.62333e-14
-9.24621e-15
-4.92482e-15
-2.47167e-15
-1.17564e-15
-5.32333e-16
-4.44535e-18
-2.18838e-18
-1.20312e-18
-7.45791e-19
-5.17932e-19
-4.30215e-19
-1.40307e-17
-3.40529e-16
-1.86223e-15
-5.25493e-15
-9.74852e-15
-1.34644e-14
-1.47297e-14
-1.33025e-14
-1.02629e-14
-6.97007e-15
-4.26674e-15
-2.39604e-15
-1.25077e-15
-6.13085e-16
-2.8437e-16
-1.25559e-16
-5.302e-17
-2.52436e-18
-2.20129e-18
-1.51232e-18
-1.02096e-18
-7.05499e-19
-5.31612e-19
-7.61222e-18
-1.24217e-16
-5.65404e-16
-1.37499e-15
-2.25128e-15
-2.75443e-15
-2.67099e-15
-2.14217e-15
-1.47484e-15
-8.98367e-16
-4.95572e-16
-2.51911e-16
-1.19522e-16
-5.3446e-17
-2.2695e-17
-9.2068e-18
-3.58564e-18
-9.59573e-19
-1.15068e-18
-8.66534e-19
-5.99125e-19
-4.08737e-19
-2.93601e-19
-2.68963e-18
-3.26144e-17
-1.24614e-16
-2.64252e-16
-3.80354e-16
-4.08677e-16
-3.47671e-16
-2.45342e-16
-1.49459e-16
-8.10214e-17
-3.9966e-17
-1.82387e-17
-7.79708e-18
-3.15238e-18
-1.21427e-18
-4.4824e-19
-1.59324e-19
-2.58996e-19
-3.91425e-19
-3.08713e-19
-2.13705e-19
-1.42274e-19
-9.73141e-20
-6.43885e-19
-5.99311e-18
-1.96359e-17
-3.63486e-17
-4.5571e-17
-4.24532e-17
-3.13056e-17
-1.92643e-17
-1.03005e-17
-4.93008e-18
-2.15805e-18
-8.77487e-19
-3.3531e-19
-1.21509e-19
-4.20608e-20
-1.39905e-20
-4.4805e-21
-5.2054e-20
-9.05666e-20
-7.28995e-20
-4.96023e-20
-3.16978e-20
-2.03627e-20
-1.03144e-19
-7.71553e-19
-2.17839e-18
-3.48108e-18
-3.73935e-18
-2.97224e-18
-1.87922e-18
-9.99993e-19
-4.66086e-19
-1.95639e-19
-7.54416e-20
-2.71224e-20
-9.19299e-21
-2.9632e-21
-9.14641e-22
-2.71713e-22
-7.14595e-23
-8.1264e-21
-1.49574e-20
-1.1706e-20
-7.65157e-21
-4.65445e-21
-2.82406e-21
-1.14636e-20
-6.95704e-20
-1.66829e-19
-2.25268e-19
-2.02844e-19
-1.35519e-19
-7.28821e-20
-3.33418e-20
-1.34695e-20
-4.93107e-21
-1.66612e-21
-5.26577e-22
-1.57274e-22
-4.47558e-23
-1.22164e-23
-3.15633e-24
2.19362e-24
-1.00231e-21
-1.86994e-21
-1.38624e-21
-8.52138e-22
-4.84957e-22
-2.7315e-22
-8.94791e-22
-4.35764e-21
-8.64965e-21
-9.58794e-21
-7.08892e-21
-3.94992e-21
-1.79842e-21
-7.04637e-22
-2.45753e-22
-7.80771e-23
-2.29747e-23
-6.3401e-24
-1.65688e-24
-4.13305e-25
-9.87757e-26
-1.12246e-26
2.29315e-24
-9.91746e-23
-1.81093e-22
-1.24761e-22
-7.07939e-23
-3.69704e-23
-1.89395e-23
-4.9481e-23
-1.8873e-22
-2.99705e-22
-2.65772e-22
-1.59957e-22
-7.41451e-23
-2.85189e-23
-9.53425e-24
-2.85622e-24
-7.83025e-25
-1.99441e-25
-4.77398e-26
-1.08378e-26
-2.35141e-27
-4.66281e-28
5.73925e-27
1.52522e-24
-7.99698e-24
-1.38831e-23
-8.74161e-24
-4.50379e-24
-2.11773e-24
-9.65878e-25
-1.96827e-24
-5.69558e-24
-7.02927e-24
-4.92694e-24
-2.41341e-24
-9.29192e-25
-3.00875e-25
-8.54024e-26
-2.18334e-26
-5.12302e-27
-1.11872e-27
-2.29824e-28
-4.48107e-29
-8.35509e-30
-4.57846e-31
2.14433e-27
6.80452e-25
-5.35458e-25
-8.62298e-25
-4.89516e-25
-2.2557e-25
-9.38387e-26
-3.73247e-26
-5.80349e-26
-1.24081e-25
-1.16941e-25
-6.47564e-26
-2.57998e-26
-8.21633e-27
-2.22116e-27
-5.29112e-28
-1.13858e-28
-2.2524e-29
-4.15049e-30
-7.19889e-31
-1.18569e-31
-1.86877e-32
2.11947e-31
5.88743e-28
1.68775e-25
-3.04461e-26
-4.45095e-26
-2.25596e-26
-9.19082e-27
-3.33297e-27
-1.1363e-27
-1.3325e-27
-2.06672e-27
-1.47978e-27
-6.46282e-28
-2.07306e-28
-5.37752e-29
-1.19195e-29
-2.33697e-30
-4.14854e-31
-6.78049e-32
-1.03339e-32
-1.48359e-33
-2.02363e-34
-2.62791e-35
1.46196e-31
9.34636e-29
2.37806e-26
-1.50789e-27
-1.9674e-27
-8.85799e-28
-3.16336e-28
-9.88353e-29
-2.84818e-29
-2.52168e-29
-2.83123e-29
-1.5221e-29
-5.16662e-30
-1.30819e-30
-2.69886e-31
-4.77582e-32
-7.4891e-33
-1.06414e-33
-1.39254e-34
-1.6995e-35
-1.95443e-36
-2.13675e-37
-9.0953e-39
4.79637e-32
8.21673e-30
1.71622e-27
-6.64793e-29
-7.67168e-29
-3.07164e-29
-9.57442e-30
-2.55444e-30
-6.14537e-31
-4.20499e-31
-3.39332e-31
-1.35728e-31
-3.48018e-32
-6.69949e-33
-1.05463e-33
-1.42746e-34
-1.71496e-35
-1.86868e-36
-1.87573e-37
-1.75539e-38
-1.54678e-39
-1.29328e-40
8.79101e-39
1.11712e-33
2.71092e-31
3.2746e-29
-2.64379e-30
-2.70556e-30
-9.70757e-31
-2.64103e-31
-5.99157e-32
-1.19433e-32
-6.54976e-33
-3.85676e-33
-1.10151e-33
-2.01829e-34
-2.77672e-35
-3.12228e-36
-3.01731e-37
-2.58781e-38
-2.01332e-39
-1.44351e-40
-9.65379e-42
-6.08167e-43
-3.61205e-44
4.37502e-39
8.2157e-36
2.85908e-33
6.20785e-31
-9.39426e-32
-8.77152e-32
-2.84109e-32
-6.85945e-33
-1.32815e-33
-2.17105e-34
-1.0222e-34
-4.42782e-35
-8.34036e-36
-9.81321e-37
-8.55027e-38
-6.03022e-39
-3.62815e-40
-1.92625e-41
-9.23634e-43
-4.06807e-44
-1.66735e-45
-6.42723e-47
1.04918e-47
1.29315e-39
1.97874e-37
6.82682e-36
4.50427e-35
-2.93891e-33
-2.64165e-33
-8.2694e-34
-1.79024e-34
-2.97348e-35
-3.9263e-36
-1.76107e-36
-5.56206e-37
-5.59326e-38
-3.05755e-39
-1.14177e-40
-3.28185e-42
-7.78565e-44
-1.59333e-45
-2.89811e-47
-4.78621e-49
-7.29316e-51
-1.03853e-52
-1.39671e-54
8.73169e-54
1.07485e-47
4.47204e-45
4.90867e-44
0.990273
0.950017
0.909742
0.908329
0.49582
0.307745
0.176767
0.0929394
0.00661185
0.00279908
0.0024618
0.00251418
0.00249186
0.0024607
0.00245624
0.00245505
0.00250318
0.00245624
0.00245421
0.00245624
0.00522716
0.00249356
0.0120034
0.0160078
0.0118743
0.0160568
0.0160954
0.0160951
0.00263455
0.00728385
0.00628778
0.00497341
4.68567e-06
3.82339e-06
4.91816e-06
6.40437e-06
3.42623e-07
2.61514e-07
3.56376e-07
4.85269e-07
1.08594e-08
1.19975e-08
1.73821e-08
3.05352e-08
2.6023e-10
3.6357e-10
5.55567e-10
5.27339e-10
1.28044e-11
2.14469e-11
4.58801e-11
1.03727e-10
5.72444e-12
1.37729e-11
2.35158e-11
3.2361e-11
8.69111e-13
4.11702e-12
8.78129e-12
1.15273e-11
4.75834e-15
1.83717e-13
1.18478e-12
2.76906e-12
-2.00508e-13
-5.68554e-14
7.525e-15
9.24151e-14
-3.61491e-13
-1.96191e-13
-8.45757e-14
1.61559e-30
-4.4131e-13
-2.60864e-13
-1.43422e-13
-6.68119e-14
-3.95123e-13
-2.45807e-13
-1.45662e-13
-8.01053e-14
-2.61334e-13
-1.68199e-13
-1.04215e-13
-6.21412e-14
-1.29061e-13
-8.45535e-14
-5.37123e-14
-3.31186e-14
-4.70066e-14
-3.07841e-14
-1.95994e-14
-1.2187e-14
-1.25356e-14
-8.1015e-15
-5.10415e-15
-3.14227e-15
-2.42054e-15
-1.52673e-15
-9.40904e-16
-5.6774e-16
-3.32305e-16
-2.02524e-16
-1.20802e-16
-7.06585e-17
-3.16345e-17
-1.84527e-17
-1.05461e-17
-5.91627e-18
-2.02629e-18
-1.12038e-18
-6.07288e-19
-3.23136e-19
-8.44738e-20
-4.37891e-20
-2.21645e-20
-1.08418e-20
-2.18782e-21
-1.01049e-21
-3.93313e-22
-6.69521e-23
-2.03909e-23
1.57784e-23
9.62053e-23
2.02114e-22
1.12471e-23
2.47949e-23
5.93599e-23
1.15899e-22
7.88786e-24
1.77919e-23
4.3481e-23
8.99401e-23
5.35769e-24
1.20555e-23
3.01337e-23
7.36891e-23
2.41657e-24
5.37913e-24
1.55166e-23
5.40663e-23
6.05058e-25
1.37563e-24
5.96446e-24
2.96554e-23
8.74703e-26
2.24224e-25
2.05966e-24
1.26767e-23
6.83622e-27
2.39094e-26
4.98518e-25
3.02576e-24
1.69191e-28
1.2658e-27
4.42987e-26
2.15011e-25
5.38698e-30
6.8602e-29
1.95278e-27
6.17462e-27
4.48168e-35
2.79663e-34
1.32059e-32
2.47548e-32
2.21752e-44
2.1918e-45
6.4175e-47
8.10047e-69
0.411912
0.190649
0.384945
0.725586
0.793958
0.741093
0.516415
0.560849
0.654447
0.74705
0.759252
0.733163
0.593005
0.425091
0.375421
0.433341
0.490548
0.53533
0.771134
0.0294438
0.0385095
0.0418895
0.161894
0.40095
0.363747
0.237445
0.226943
0.226734
0.291496
0.443242
0.514618
0.614176
0.614183
0.552468
0.255637
0.0710372
0.0848791
0.236933
0.0222665
0.0266125
0.0166715
0.0379208
0.119526
0.222406
0.239077
0.233119
0.116253
0.0129625
0.0649124
0.146947
0.16674
0.135189
0.117241
0.0966375
0.0644578
0.0494127
0.0473674
0.00352158
0.00607066
0.00898078
0.0132839
0.0538387
0.166555
0.237515
0.235168
0.0951088
0.0129939
0.0129563
0.0361018
0.168122
0.18519
0.184228
0.185103
0.174386
0.0891867
0.0469657
0.00302634
0.00164942
0.000434612
0.000407135
0.000405879
0.005271
0.03944
0.0597915
0.0466312
0.0430237
0.181338
0.185201
0.185282
0.185315
0.185303
0.185293
0.148863
0.0469595
0.0469468
0.0157188
0.00445019
0.000413667
0.000406561
0.000941738
0.00218913
0.00227089
0.00505553
0.00595734
0.0695644
0.184335
0.185248
0.174406
0.166149
0.185293
0.183382
0.0868028
0.0469632
0.0469595
0.0154124
0.00277792
0.000480962
0.000925955
0.016954
0.0215738
0.0149491
0.00524342
0.00547314
0.0262714
0.0499709
0.0442887
0.0110831
0.00378063
0.0214052
0.0377955
0.0805599
0.102589
0.102117
0.00254645
0.0012441
0.000405611
0.000545968
0.00838539
0.0215739
0.0217242
0.0125481
0.00611711
0.00616287
0.00740235
0.00798569
0.00283295
0.00014733
3.93707e-05
3.69307e-05
3.59989e-05
0.0129613
0.0180594
1.71741e-05
6.01986e-05
7.41861e-05
0.000332698
0.000195391
0.0105664
0.0216729
0.0217242
0.0172169
0.0140927
0.023976
0.0239377
0.0230585
0.00740652
0.0002514
3.5999e-05
3.54565e-05
3.37782e-05
3.34773e-05
1.10441e-06
9.89308e-07
8.53633e-07
7.34128e-06
1.81101e-05
3.85572e-05
0.00456604
0.0214517
0.024267
0.0242753
0.0242393
0.0220877
0.0126552
0.00743699
0.000252712
0.000121009
8.97673e-05
0.000119385
3.28838e-05
8.49825e-08
8.21934e-08
1.18639e-07
1.09296e-06
1.63614e-05
7.09785e-05
0.000123561
0.001237
0.00585905
0.00826077
0.00596511
0.000146334
1.47648e-06
1.6209e-06
0.000742737
0.000169085
0.000285103
0.000284715
3.2564e-05
4.14917e-09
2.57006e-08
7.73486e-08
1.66087e-06
1.70585e-05
4.24003e-05
2.90692e-05
2.00305e-05
2.58636e-07
2.75185e-07
3.18908e-07
4.10844e-07
1.4133e-06
4.30924e-06
0.000197527
0.000285679
0.000285756
6.82225e-05
5.63944e-10
6.42833e-10
2.24901e-08
1.52418e-07
6.0256e-07
6.2732e-06
1.60885e-06
2.20997e-07
1.3831e-07
2.47437e-07
3.91004e-06
5.80924e-06
3.73035e-06
1.63237e-06
2.97367e-05
0.000169251
0.000285783
0.000192603
5.63944e-10
5.63944e-10
1.20417e-10
8.0305e-09
2.49034e-06
6.97491e-06
4.79572e-06
1.98297e-06
1.38301e-07
1.3831e-07
2.93684e-07
1.88964e-06
1.55532e-06
1.12899e-07
2.26495e-06
0.000183115
0.000267901
0.000197891
5.63948e-10
5.63944e-10
5.63944e-10
1.50763e-10
7.88634e-09
2.72514e-06
8.55243e-06
8.61e-06
8.61668e-06
2.62565e-06
1.36204e-07
1.56606e-07
1.12793e-07
1.12865e-07
1.12869e-07
1.1042e-05
0.00017426
0.000156136
1.14435e-09
1.10869e-09
5.6405e-10
5.63944e-10
9.80837e-11
5.68862e-09
5.59122e-07
4.2493e-06
8.6155e-06
8.6155e-06
1.97406e-06
1.13023e-07
1.12793e-07
1.1279e-07
1.12793e-07
1.20295e-07
1.32069e-05
1.1054e-05
5.81325e-09
5.77081e-09
7.99203e-09
5.64105e-10
5.6395e-10
1.45931e-11
3.58162e-10
2.03858e-10
2.01822e-08
1.81448e-06
3.73968e-06
1.75521e-06
1.13103e-07
1.1279e-07
1.12789e-07
2.56781e-07
1.37419e-06
2.78362e-06
1.14559e-08
1.14085e-08
1.39401e-08
1.181e-08
5.65864e-10
5.64128e-10
4.63145e-14
3.83934e-13
2.69824e-12
2.29727e-11
3.50223e-10
1.78294e-08
7.86642e-07
7.90727e-07
1.86879e-07
1.1279e-07
6.93716e-07
1.3781e-06
3.34037e-07
5.89935e-08
1.40768e-08
1.5826e-08
5.76453e-09
6.37193e-10
5.69289e-10
-6.92462e-15
1.63081e-15
2.72932e-14
2.48127e-13
3.25603e-12
6.07945e-12
1.10403e-08
3.33205e-07
2.24664e-07
1.13195e-07
3.72765e-07
4.19514e-07
1.04964e-07
3.11223e-10
3.10286e-10
8.43746e-09
3.94181e-10
7.95639e-08
1.12152e-09
-2.7174e-14
-2.42087e-15
1.67926e-16
3.82013e-15
5.70473e-13
1.74372e-12
2.90083e-12
9.82006e-12
2.42914e-07
3.5623e-07
2.59624e-07
1.29636e-08
3.22461e-10
3.21308e-10
3.09832e-10
1.48942e-10
1.49618e-10
1.42764e-06
2.1098e-07
-2.23184e-14
-7.13816e-15
-9.95966e-16
-2.02375e-31
3.32627e-14
5.91579e-13
2.507e-12
7.45032e-13
9.87339e-08
3.57461e-07
3.57461e-07
1.58054e-07
9.65569e-10
5.95963e-10
3.99796e-10
1.47843e-10
1.06357e-09
1.85134e-06
8.40297e-07
-1.26329e-14
-4.5252e-15
-1.44304e-15
-2.59116e-16
1.98755e-15
4.81265e-14
6.68102e-13
6.75762e-13
7.45032e-13
1.22748e-07
3.11232e-07
1.5284e-07
1.87835e-09
5.69658e-10
3.55176e-10
1.4681e-10
1.11498e-07
1.85845e-06
1.29739e-06
-4.77226e-15
-1.7992e-15
-6.31498e-16
-1.65495e-16
7.02077e-16
2.61177e-14
3.53157e-14
2.51354e-12
4.19137e-10
5.31838e-10
1.14432e-08
1.63758e-08
7.09039e-09
1.35412e-09
2.40654e-10
1.46296e-10
4.50182e-07
1.86301e-06
1.715e-06
-1.22593e-15
-4.70709e-16
-1.71791e-16
-3.90781e-17
3.44023e-16
5.5432e-15
3.0175e-14
1.48416e-12
1.96555e-10
2.16641e-10
3.10154e-10
4.34169e-10
6.03855e-10
3.69117e-10
1.46195e-10
1.4622e-10
4.9338e-07
1.3073e-06
1.48154e-05
-2.14788e-16
-8.18088e-17
-2.93392e-17
3.57329e-18
2.38375e-16
2.11828e-15
2.22898e-14
3.38921e-13
1.4431e-11
3.48603e-11
1.15763e-10
1.71736e-10
1.71848e-10
1.58717e-10
1.4594e-10
1.46074e-10
7.80848e-08
4.22366e-10
6.68297e-05
-2.54891e-17
-9.30208e-18
-2.50211e-18
1.82633e-17
2.25158e-16
1.82837e-15
1.4154e-14
1.11025e-13
8.24435e-13
5.20571e-12
2.70584e-11
5.97318e-11
8.65257e-11
1.24739e-10
1.4606e-10
1.51242e-10
1.45646e-10
1.47071e-10
6.68366e-05
-2.01e-18
-6.26084e-19
1.0299e-18
2.27227e-17
2.41607e-16
1.8622e-15
1.18522e-14
6.98257e-14
3.84608e-13
1.92196e-12
7.87211e-12
2.31087e-11
4.80091e-11
9.10883e-11
1.46563e-10
1.64115e-10
1.44891e-10
1.45266e-10
6.66269e-05
-1.00245e-19
1.3447e-20
1.62142e-18
2.47943e-17
2.61523e-16
2.03127e-15
1.23047e-14
6.33484e-14
2.87326e-13
1.16161e-12
4.2477e-12
1.30693e-11
3.3101e-11
8.07112e-11
1.56656e-10
1.65429e-10
1.42344e-10
1.15679e-10
6.55957e-05
-2.14355e-21
6.66368e-20
1.67009e-18
2.49596e-17
2.64586e-16
2.13933e-15
1.34027e-14
6.77907e-14
2.96713e-13
1.15355e-12
4.09402e-12
1.24114e-11
3.24029e-11
8.55691e-11
1.92047e-10
1.56814e-10
8.47177e-11
8.6102e-11
6.82344e-05
1.61399e-21
7.32237e-20
1.57562e-18
2.3057e-17
2.5113e-16
2.18757e-15
1.49635e-14
8.01861e-14
3.51977e-13
1.3316e-12
4.59855e-12
1.3919e-11
3.89171e-11
1.15724e-10
3.00783e-10
2.20143e-10
8.38167e-11
1.49665e-05
6.84697e-05
5.89414e-21
4.36948e-19
4.04944e-18
3.12307e-17
2.88738e-16
2.59668e-15
2.00849e-14
1.19445e-13
5.44349e-13
2.03567e-12
6.82787e-12
2.19326e-11
6.70241e-11
2.32247e-10
3.46725e-10
2.99245e-10
8.27704e-11
2.59122e-05
6.84697e-05
4.71175e-20
9.57416e-18
1.54682e-16
4.46071e-16
1.27327e-15
6.14586e-15
3.97256e-14
2.55514e-13
1.41246e-12
6.08766e-12
2.06859e-11
5.10744e-11
9.62145e-11
2.31453e-10
3.14931e-10
1.89158e-10
8.23635e-11
2.40138e-05
6.84697e-05
1.55395e-19
5.98339e-17
1.50539e-15
6.40263e-15
1.78816e-14
6.88302e-14
2.6272e-13
8.95267e-13
3.28768e-12
1.27837e-11
2.99575e-11
3.72423e-11
4.54067e-11
8.44092e-11
8.2853e-11
8.23635e-11
8.23787e-11
8.35512e-06
6.84681e-05
2.56551e-19
1.47103e-16
4.90758e-15
3.57046e-14
1.32793e-13
5.61455e-13
2.13146e-12
5.27111e-12
1.0581e-11
1.80275e-11
1.81099e-11
1.81763e-11
1.83337e-11
2.29742e-10
3.69623e-09
9.00978e-09
8.23646e-11
4.13195e-06
4.94412e-05
2.80679e-19
2.00154e-16
8.76e-15
1.02779e-13
5.08522e-13
2.35935e-12
9.23227e-12
1.69315e-11
1.70758e-11
1.70711e-11
2.06246e-10
5.77811e-09
7.61082e-09
4.54361e-09
1.49339e-08
1.49247e-08
1.14802e-10
8.82669e-06
5.10107e-05
1.10496e-19
1.74151e-16
1.06922e-14
1.73608e-13
1.22863e-12
6.03155e-12
2.49953e-11
3.15275e-11
2.2183e-11
1.71003e-11
4.99908e-09
1.23683e-08
1.23683e-08
7.19742e-09
1.15952e-08
1.40171e-08
1.83365e-10
1.8777e-05
6.40101e-05
3.00347e-20
3.96457e-17
6.57021e-15
2.00736e-13
1.8465e-12
1.1149e-11
4.68616e-11
7.01862e-11
5.28381e-11
1.71712e-11
4.79172e-09
1.23461e-08
1.11384e-08
4.97806e-09
4.5956e-09
6.4493e-09
2.49848e-10
2.24349e-05
7.07738e-05
4.63369e-21
6.74259e-18
1.54028e-15
1.10343e-13
1.85034e-12
1.42185e-11
7.38939e-11
1.40934e-10
1.3118e-10
1.46278e-10
1.62465e-09
4.84075e-09
3.51642e-09
3.20613e-09
3.20875e-09
3.87277e-09
2.88424e-10
2.9965e-05
7.08504e-05
1.90566e-22
5.95673e-19
2.22722e-16
2.40196e-14
6.91866e-13
9.90293e-12
7.07726e-11
2.19102e-10
2.39764e-10
2.23926e-10
2.46024e-10
2.70592e-10
2.95805e-10
4.61828e-07
1.38187e-07
3.40787e-09
3.09293e-10
6.27779e-05
7.08647e-05
3.58605e-24
3.88211e-20
1.46262e-17
2.97595e-15
1.74939e-13
2.92457e-12
4.25678e-11
2.28464e-10
3.10385e-10
2.54496e-10
2.09196e-10
2.08864e-10
4.4581e-07
7.72427e-07
7.21567e-07
4.11388e-09
1.38876e-05
7.08625e-05
7.0855e-05
3.72686e-32
3.76124e-25
5.12366e-20
9.42754e-17
1.7001e-14
5.5482e-13
1.03665e-11
1.78896e-10
3.10556e-10
3.10555e-10
2.08833e-10
2.08864e-10
4.52216e-07
7.72231e-07
6.5012e-07
8.20281e-09
9.75557e-06
7.05265e-05
6.68091e-05
2.31688e-42
1.25323e-34
5.3904e-26
1.48707e-20
4.04836e-17
1.0313e-14
9.52699e-13
3.51516e-11
1.67482e-10
2.89395e-10
2.25755e-10
2.08826e-10
4.07778e-08
3.85368e-07
1.74196e-07
1.78615e-08
3.91078e-07
2.28372e-05
2.33467e-05
)
;

boundaryField
{
    leftWall
    {
        type            zeroGradient;
    }
    rightWall
    {
        type            zeroGradient;
    }
    lowerWall
    {
        type            zeroGradient;
    }
    atmosphere
    {
        type            inletOutlet;
        inletValue      uniform 0;
        value           nonuniform List<scalar> 
46
(
0
0
0
0
0
0
0
0
0
0
0
0
0
0
0
0
0
0
0
0
0
0
0
0
0
0
0
0
0
0
0
0
0
9.52699e-13
3.51516e-11
1.67482e-10
2.89395e-10
2.25755e-10
2.08826e-10
4.07778e-08
3.85368e-07
1.74196e-07
1.78615e-08
3.91078e-07
2.28372e-05
2.33467e-05
)
;
    }
    defaultFaces
    {
        type            empty;
    }
}


// ************************************************************************* //
