/*--------------------------------*- C++ -*----------------------------------*\
  =========                 |
  \\      /  F ield         | OpenFOAM: The Open Source CFD Toolbox
   \\    /   O peration     | Website:  https://openfoam.org
    \\  /    A nd           | Version:  9
     \\/     M anipulation  |
\*---------------------------------------------------------------------------*/
FoamFile
{
    format      ascii;
    class       volScalarField;
    location    "3.61";
    object      p;
}
// * * * * * * * * * * * * * * * * * * * * * * * * * * * * * * * * * * * * * //

dimensions      [1 -1 -2 0 0 0 0];

internalField   nonuniform List<scalar> 
2268
(
711.007
711.588
712.36
713.334
714.459
715.713
717.086
718.567
720.146
721.811
723.549
725.348
727.187
729.038
730.862
732.6
734.198
735.577
736.662
738.44
740.402
742.029
742.878
652.022
652.549
653.274
654.219
655.336
656.599
657.992
659.502
661.118
662.826
664.612
666.458
668.341
670.234
672.097
673.875
675.549
677.191
679.162
680.649
682.028
683.461
684.349
592.975
593.482
594.166
595.073
596.174
597.439
598.85
600.391
602.048
603.807
605.649
607.553
609.496
611.451
613.386
615.261
617.119
619.37
621.705
623.126
623.914
624.884
625.82
533.854
534.375
535.046
535.927
537.012
538.278
539.705
541.274
542.971
544.777
546.674
548.638
550.647
552.676
554.701
556.702
558.758
561.422
563.976
565.397
565.951
566.415
567.379
474.665
475.215
475.899
476.772
477.849
479.119
480.562
482.159
483.893
485.744
487.692
489.715
491.791
493.897
496.015
498.14
500.336
503.056
505.859
507.376
507.707
508.017
509.099
415.415
416.001
416.711
417.589
418.669
419.947
421.41
423.038
424.81
426.704
428.701
430.781
432.923
435.105
437.313
439.545
441.835
444.459
447.217
448.848
449.216
449.664
450.961
356.107
356.731
357.472
358.365
359.454
360.747
362.235
363.899
365.711
367.649
369.695
371.833
374.041
376.299
378.593
380.917
383.279
385.825
388.358
390.026
390.701
391.37
392.927
296.742
297.396
298.163
299.075
300.178
301.491
303.012
304.719
306.579
308.563
310.661
312.86
315.14
317.479
319.86
322.27
324.699
327.206
329.62
331.376
332.385
333.299
335.148
749.082
748.466
747.614
746.516
745.203
743.827
742.472
741.149
739.832
738.18
736.203
733.732
732.302
732.171
732.984
730.898
726.658
724.447
724.563
690.979
689.949
689.02
687.939
686.659
685.361
684.07
682.705
681.248
679.613
677.738
676.41
675.659
674.858
673.983
672.017
668.97
667.566
667.648
632.664
631.432
630.363
629.243
627.972
626.714
625.458
624.107
622.695
621.161
619.772
619.45
618.66
617.26
614.847
612.889
611.122
609.975
610.1
574.132
572.905
571.757
570.586
569.304
568.039
566.775
565.539
564.213
562.785
562.032
562.296
561.278
559.099
556.261
554.394
553.87
551.714
552.21
515.626
514.455
513.196
511.948
510.617
509.322
508.024
506.872
505.662
504.316
503.855
504.504
503.42
500.486
497.916
496.272
496.222
494.241
494.218
457.172
456.083
454.635
453.307
451.902
450.562
449.186
448.013
446.913
445.667
445.222
445.745
444.676
441.786
439.627
438.278
438.092
437.253
436.146
398.738
397.671
396.047
394.66
393.166
391.776
390.247
388.992
387.973
386.861
386.376
386.5
385.41
383.079
381.322
380.307
379.978
379.855
377.953
340.316
338.968
337.421
336.031
334.383
332.973
331.316
329.831
328.969
328.236
327.847
327.465
326.3
324.384
322.987
322.351
322.19
322.099
320.717
203.819
204.494
205.288
206.241
207.379
208.731
210.32
212.116
214.064
216.127
218.307
220.61
223.01
225.483
228.008
230.555
233.09
235.603
237.971
239.964
241.59
243.114
245.085
82.3679
83.0139
83.7375
84.653
85.662
86.804
88.1695
89.7257
91.4286
93.282
95.3058
97.4565
99.6708
101.911
104.194
106.513
108.787
111.013
113.287
115.616
118.108
120.831
123.71
12.3526
12.6705
12.9592
13.3219
13.8028
14.3179
14.8721
15.5007
16.265
17.1249
18.0639
19.0343
19.9904
20.9291
21.8472
22.7439
23.6729
24.6423
25.8217
27.0492
28.1701
29.4516
31.2543
-0.00959173
0.0451371
0.01118
-0.0789802
0.0612628
0.171757
0.222905
0.28522
0.483068
0.625857
0.702019
0.748761
0.769452
0.777049
0.747669
0.576426
0.524511
0.533654
0.65976
0.658043
0.33094
-0.148171
-0.165593
-0.322901
-0.305665
-0.291505
-0.322143
-0.300253
-0.220519
-0.164664
-0.123957
-0.0681092
0.00113653
0.0506606
0.0846736
0.102539
0.1077
0.0753355
0.0288549
-0.0182558
-0.0720584
-0.159408
-0.291525
-0.466922
-0.583275
-0.582766
-0.730396
-0.722193
-0.701065
-0.702513
-0.756108
-0.769261
-0.746593
-0.752905
-0.824544
-0.853551
-0.84472
-0.830065
-0.810717
-0.78927
-0.766148
-0.726539
-0.714789
-0.739263
-0.811033
-0.876038
-0.891083
-0.864972
-0.830148
-1.11787
-1.12947
-1.11987
-1.08059
-1.10575
-1.15403
-1.19349
-1.21551
-1.23919
-1.25452
-1.26729
-1.27659
-1.28228
-1.28476
-1.28308
-1.27334
-1.25883
-1.2276
-1.17311
-1.14982
-1.14622
-1.10583
-1.08202
-1.37849
-1.38213
-1.38494
-1.37674
-1.36634
-1.36717
-1.38002
-1.38955
-1.38914
-1.3918
-1.39673
-1.40121
-1.40425
-1.40607
-1.40686
-1.40539
-1.39833
-1.38475
-1.36505
-1.33975
-1.32904
-1.31938
-1.32571
-1.51758
-1.51859
-1.51936
-1.52648
-1.52909
-1.52739
-1.52206
-1.52087
-1.52007
-1.52119
-1.52419
-1.52741
-1.53013
-1.53221
-1.53319
-1.53344
-1.53283
-1.53174
-1.53181
-1.52142
-1.51197
-1.5113
-1.53248
-1.6449
-1.64568
-1.64703
-1.65057
-1.65222
-1.65216
-1.65066
-1.64981
-1.64924
-1.64994
-1.65182
-1.65414
-1.65638
-1.65814
-1.65933
-1.66043
-1.66173
-1.66455
-1.67123
-1.67445
-1.67266
-1.66669
-1.67063
-1.77143
-1.77225
-1.77381
-1.77616
-1.77767
-1.77809
-1.77766
-1.77731
-1.77721
-1.77784
-1.77916
-1.78076
-1.78236
-1.78384
-1.78515
-1.78651
-1.78817
-1.79081
-1.7951
-1.79885
-1.79925
-1.7964
-1.79419
-1.89761
-1.89864
-1.90018
-1.90197
-1.9033
-1.90394
-1.90405
-1.90412
-1.90436
-1.90496
-1.90592
-1.90707
-1.90832
-1.90958
-1.91082
-1.91215
-1.91371
-1.91581
-1.91857
-1.92059
-1.92083
-1.91953
-1.91851
-2.02351
-2.02481
-2.02633
-2.02783
-2.029
-2.02974
-2.03014
-2.03046
-2.03086
-2.03144
-2.0322
-2.03312
-2.03415
-2.03523
-2.03635
-2.03755
-2.03891
-2.04053
-2.04239
-2.04384
-2.04422
-2.04365
-2.043
-2.14926
-2.1508
-2.15233
-2.15368
-2.15475
-2.15552
-2.15606
-2.15651
-2.15697
-2.15753
-2.1582
-2.15898
-2.15985
-2.16077
-2.16175
-2.16279
-2.16394
-2.1652
-2.16655
-2.1677
-2.16817
-2.16801
-2.16763
-2.27495
-2.27666
-2.27824
-2.27951
-2.2805
-2.28127
-2.28187
-2.28238
-2.28287
-2.28341
-2.28402
-2.28469
-2.28543
-2.28623
-2.28706
-2.28795
-2.2889
-2.28989
-2.29088
-2.29172
-2.29223
-2.29231
-2.29209
-2.40066
-2.40248
-2.40407
-2.4053
-2.40624
-2.40699
-2.4076
-2.40813
-2.40863
-2.40915
-2.4097
-2.4103
-2.41094
-2.41161
-2.41233
-2.41307
-2.41384
-2.41462
-2.41536
-2.41598
-2.41639
-2.41652
-2.41642
-2.52643
-2.52828
-2.52987
-2.53106
-2.53196
-2.53268
-2.53328
-2.5338
-2.53429
-2.53478
-2.53528
-2.53581
-2.53637
-2.53695
-2.53756
-2.53818
-2.53881
-2.53943
-2.54
-2.54047
-2.54079
-2.54093
-2.54091
-2.65229
-2.65412
-2.65566
-2.65679
-2.65764
-2.65833
-2.6589
-2.65941
-2.65988
-2.66033
-2.66079
-2.66126
-2.66175
-2.66225
-2.66277
-2.66329
-2.6638
-2.6643
-2.66475
-2.66512
-2.66538
-2.66551
-2.66554
-2.77825
-2.77999
-2.78144
-2.7825
-2.7833
-2.78394
-2.78448
-2.78496
-2.78539
-2.78582
-2.78623
-2.78665
-2.78708
-2.78752
-2.78796
-2.78839
-2.78882
-2.78922
-2.78958
-2.78988
-2.7901
-2.79023
-2.79028
-2.90427
-2.90588
-2.90721
-2.90819
-2.90892
-2.90951
-2.91001
-2.91045
-2.91085
-2.91124
-2.91162
-2.91199
-2.91237
-2.91275
-2.91312
-2.9135
-2.91385
-2.91418
-2.91448
-2.91473
-2.91492
-2.91504
-2.9151
-3.03034
-3.03178
-3.03296
-3.03383
-3.03449
-3.03503
-3.03548
-3.03589
-3.03626
-3.03661
-3.03695
-3.03729
-3.03762
-3.03795
-3.03827
-3.03859
-3.03889
-3.03917
-3.03942
-3.03963
-3.0398
-3.03991
-3.03998
-3.15642
-3.15766
-3.15868
-3.15944
-3.16002
-3.1605
-3.16091
-3.16127
-3.16161
-3.16193
-3.16224
-3.16254
-3.16283
-3.16312
-3.1634
-3.16368
-3.16394
-3.16418
-3.16439
-3.16457
-3.16472
-3.16483
-3.1649
-3.28249
-3.28352
-3.28435
-3.28499
-3.28549
-3.28591
-3.28628
-3.28661
-3.28691
-3.2872
-3.28747
-3.28774
-3.28801
-3.28826
-3.28851
-3.28875
-3.28898
-3.28918
-3.28937
-3.28953
-3.28967
-3.28977
-3.28985
-3.40851
-3.40932
-3.40996
-3.41048
-3.4109
-3.41127
-3.41159
-3.41188
-3.41216
-3.41242
-3.41267
-3.41291
-3.41315
-3.41338
-3.4136
-3.41381
-3.41401
-3.4142
-3.41436
-3.41451
-3.41464
-3.41474
-3.41482
-3.53445
-3.53504
-3.53549
-3.53589
-3.53625
-3.53656
-3.53685
-3.53711
-3.53736
-3.5376
-3.53782
-3.53804
-3.53826
-3.53847
-3.53867
-3.53886
-3.53904
-3.53921
-3.53936
-3.5395
-3.53962
-3.53972
-3.5398
-3.66029
-3.66069
-3.66096
-3.66125
-3.66154
-3.66181
-3.66206
-3.66229
-3.66252
-3.66273
-3.66294
-3.66315
-3.66334
-3.66353
-3.66372
-3.66389
-3.66406
-3.66422
-3.66436
-3.66449
-3.66461
-3.66471
-3.6648
-3.78599
-3.78624
-3.78637
-3.78657
-3.78679
-3.78701
-3.78723
-3.78744
-3.78764
-3.78784
-3.78804
-3.78823
-3.78841
-3.78859
-3.78876
-3.78893
-3.78908
-3.78923
-3.78937
-3.7895
-3.78961
-3.78972
-3.78981
-3.9116
-3.91167
-3.9117
-3.91184
-3.91201
-3.91218
-3.91236
-3.91255
-3.91274
-3.91293
-3.91311
-3.91329
-3.91347
-3.91363
-3.9138
-3.91395
-3.9141
-3.91425
-3.91438
-3.91451
-3.91463
-3.91473
-3.91483
-4.03711
-4.03702
-4.03698
-4.03707
-4.03718
-4.03732
-4.03748
-4.03765
-4.03783
-4.038
-4.03818
-4.03835
-4.03852
-4.03868
-4.03883
-4.03899
-4.03913
-4.03927
-4.0394
-4.03953
-4.03965
-4.03976
-4.03986
-4.16256
-4.16233
-4.16222
-4.16225
-4.16233
-4.16244
-4.16258
-4.16274
-4.16291
-4.16308
-4.16324
-4.16341
-4.16357
-4.16372
-4.16388
-4.16402
-4.16416
-4.1643
-4.16443
-4.16456
-4.16468
-4.1648
-4.1649
-4.28796
-4.28763
-4.28744
-4.28742
-4.28747
-4.28757
-4.28769
-4.28784
-4.288
-4.28816
-4.28832
-4.28848
-4.28863
-4.28878
-4.28893
-4.28907
-4.28921
-4.28934
-4.28948
-4.2896
-4.28973
-4.28984
-4.28995
-4.41332
-4.41293
-4.41269
-4.41261
-4.41263
-4.41271
-4.41282
-4.41295
-4.4131
-4.41325
-4.41341
-4.41356
-4.41371
-4.41385
-4.41399
-4.41413
-4.41426
-4.41439
-4.41453
-4.41466
-4.41478
-4.4149
-4.41502
-4.53866
-4.53822
-4.53794
-4.53782
-4.53782
-4.53788
-4.53797
-4.5381
-4.53823
-4.53837
-4.53852
-4.53866
-4.5388
-4.53893
-4.53907
-4.53919
-4.53932
-4.53945
-4.53959
-4.53972
-4.53985
-4.53997
-4.54009
-4.66399
-4.66351
-4.6632
-4.66306
-4.66304
-4.66308
-4.66316
-4.66327
-4.66339
-4.66352
-4.66366
-4.66379
-4.66392
-4.66404
-4.66416
-4.66428
-4.6644
-4.66452
-4.66466
-4.66479
-4.66492
-4.66505
-4.66518
-4.78929
-4.78879
-4.78847
-4.78832
-4.78829
-4.78832
-4.78838
-4.78848
-4.78859
-4.78871
-4.78883
-4.78894
-4.78905
-4.78916
-4.78926
-4.78937
-4.78948
-4.7896
-4.78973
-4.78987
-4.79001
-4.79015
-4.79027
-4.91457
-4.91404
-4.91372
-4.91359
-4.91356
-4.91359
-4.91364
-4.91372
-4.91382
-4.91392
-4.91403
-4.91412
-4.91421
-4.9143
-4.91438
-4.91447
-4.91456
-4.91468
-4.91481
-4.91496
-4.91511
-4.91525
-4.91538
-5.03985
-5.03928
-5.03898
-5.03888
-5.03887
-5.0389
-5.03895
-5.03901
-5.0391
-5.03918
-5.03926
-5.03933
-5.0394
-5.03946
-5.03951
-5.03957
-5.03965
-5.03975
-5.03989
-5.04005
-5.04022
-5.04037
-5.04051
-5.16512
-5.1645
-5.16422
-5.16418
-5.16421
-5.16426
-5.1643
-5.16436
-5.16442
-5.16448
-5.16453
-5.16458
-5.16461
-5.16463
-5.16465
-5.16468
-5.16472
-5.16481
-5.16495
-5.16515
-5.16534
-5.16551
-5.16565
-5.29041
-5.28972
-5.28948
-5.28953
-5.28962
-5.28968
-5.28972
-5.28975
-5.28979
-5.28982
-5.28985
-5.28985
-5.28985
-5.28983
-5.28981
-5.28979
-5.28979
-5.28984
-5.29001
-5.29027
-5.29049
-5.29067
-5.29081
-5.41572
-5.41497
-5.41482
-5.41499
-5.41514
-5.4152
-5.41521
-5.41521
-5.41521
-5.4152
-5.41518
-5.41514
-5.4151
-5.41503
-5.41497
-5.4149
-5.41484
-5.41478
-5.415
-5.4154
-5.41569
-5.41587
-5.416
-5.54097
-5.54042
-5.54062
-5.54083
-5.54092
-5.5409
-5.54083
-5.54074
-5.54065
-5.54055
-5.54046
-5.54035
-5.54023
-5.5401
-5.53997
-5.53984
-5.53967
-5.53932
-5.53964
-5.54052
-5.54095
-5.54113
-5.54123
-5.66569
-5.66814
-5.66769
-5.66725
-5.66696
-5.66672
-5.6665
-5.6663
-5.66612
-5.66594
-5.66578
-5.66561
-5.66543
-5.66523
-5.665
-5.66467
-5.66409
-5.66328
-5.66368
-5.66554
-5.66617
-5.66636
-5.66644
246.273
247.09
247.385
247.408
125.054
125.42
125.517
125.562
32.2078
32.5441
32.6971
32.7803
0.141065
0.408665
0.587607
0.590103
-0.523585
-0.488355
-0.431641
-0.443822
-0.822235
-0.819899
-0.826945
-0.827359
-1.10235
-1.1364
-1.14802
-1.15001
-1.35772
-1.37179
-1.36681
-1.36683
-1.5392
-1.53684
-1.53203
-1.53288
-1.66859
-1.6668
-1.66528
-1.66544
-1.79326
-1.79255
-1.79189
-1.79191
-1.91787
-1.91748
-1.91721
-1.91718
-2.04257
-2.04231
-2.04215
-2.04206
-2.16734
-2.16713
-2.16694
-2.16681
-2.29185
-2.2917
-2.29157
-2.29146
-2.4163
-2.41622
-2.41615
-2.41608
-2.54086
-2.54082
-2.54079
-2.54075
-2.66553
-2.66552
-2.66551
-2.66549
-2.7903
-2.7903
-2.7903
-2.79029
-2.91513
-2.91515
-2.91515
-2.91514
-3.04002
-3.04004
-3.04005
-3.04004
-3.16495
-3.16497
-3.16498
-3.16498
-3.2899
-3.28992
-3.28994
-3.28994
-3.41487
-3.41489
-3.41491
-3.41492
-3.53985
-3.53988
-3.5399
-3.53992
-3.66485
-3.66488
-3.66491
-3.66493
-3.78987
-3.7899
-3.78993
-3.78996
-3.91489
-3.91493
-3.91496
-3.91499
-4.03993
-4.03997
-4.04
-4.04004
-4.16497
-4.16502
-4.16506
-4.16509
-4.29003
-4.29007
-4.29012
-4.29016
-4.4151
-4.41514
-4.41519
-4.41523
-4.54017
-4.54022
-4.54027
-4.54031
-4.66526
-4.66531
-4.66535
-4.6654
-4.79036
-4.79041
-4.79045
-4.7905
-4.91547
-4.91552
-4.91556
-4.91561
-5.04059
-5.04064
-5.04069
-5.04073
-5.16573
-5.16578
-5.16582
-5.16587
-5.29089
-5.29094
-5.29098
-5.29101
-5.41607
-5.41611
-5.41614
-5.41617
-5.54128
-5.5413
-5.54132
-5.54134
-5.66647
-5.66649
-5.6665
-5.6665
248.118
246.945
245.779
244.719
243.847
242.925
241.755
240.301
238.769
237.405
236.271
235.296
234.05
232.586
231.656
231.69
232.047
232.361
232.757
125.797
125.457
125.133
124.855
124.704
124.256
123.79
122.77
120.707
118.178
115.715
113.796
112.175
110.805
109.908
109.691
110.259
111.434
112.288
33.0676
33.6258
34.1786
34.3871
34.2101
33.7925
33.4702
32.956
31.9812
30.2906
28.6563
27.339
26.2845
25.478
24.8425
24.2389
24.2769
24.997
25.8686
0.465587
0.363118
0.525481
0.599224
0.575931
0.482661
0.226491
-0.0268015
-0.271548
-0.294076
-0.302795
-0.329764
-0.37223
-0.401555
-0.380913
-0.358525
-0.383197
-0.47919
-0.524169
-0.477163
-0.543454
-0.569566
-0.56725
-0.525587
-0.478406
-0.486549
-0.500703
-0.51062
-0.525956
-0.545624
-0.571326
-0.606756
-0.639544
-0.653195
-0.667444
-0.681419
-0.696697
-0.699284
-0.823216
-0.806072
-0.809419
-0.807532
-0.81104
-0.81886
-0.820868
-0.838237
-0.851819
-0.863019
-0.87237
-0.885078
-0.897731
-0.911185
-0.917757
-0.923013
-0.935137
-0.949504
-0.953017
-1.12282
-1.09727
-1.09436
-1.09786
-1.12648
-1.16666
-1.18152
-1.19079
-1.19889
-1.20348
-1.20539
-1.20585
-1.19899
-1.19435
-1.19928
-1.20193
-1.20232
-1.19111
-1.18432
-1.37589
-1.3761
-1.37718
-1.38075
-1.39099
-1.40253
-1.40661
-1.40482
-1.40152
-1.39684
-1.39209
-1.38642
-1.38384
-1.38048
-1.38008
-1.37838
-1.37812
-1.37377
-1.37445
-1.5444
-1.5488
-1.55075
-1.55104
-1.54718
-1.53858
-1.5343
-1.53145
-1.52738
-1.52272
-1.51778
-1.51279
-1.51022
-1.50817
-1.5082
-1.50772
-1.50835
-1.51226
-1.51171
-1.66851
-1.67058
-1.67184
-1.67224
-1.66892
-1.66336
-1.6593
-1.65639
-1.65297
-1.64856
-1.64413
-1.64146
-1.64007
-1.63904
-1.6369
-1.63534
-1.63541
-1.63723
-1.6378
-1.79291
-1.79396
-1.79451
-1.79416
-1.79169
-1.78773
-1.78468
-1.78214
-1.77946
-1.77593
-1.77343
-1.77292
-1.77225
-1.76946
-1.7652
-1.76282
-1.76244
-1.7632
-1.76404
-1.91742
-1.91787
-1.91801
-1.91745
-1.91568
-1.91317
-1.91126
-1.90931
-1.90742
-1.90577
-1.90513
-1.90437
-1.9019
-1.89737
-1.8941
-1.89248
-1.89206
-1.89208
-1.89274
-2.042
-2.04212
-2.04208
-2.04168
-2.04081
-2.03954
-2.03821
-2.03685
-2.0355
-2.03537
-2.03495
-2.033
-2.02964
-2.02658
-2.02473
-2.0243
-2.02433
-2.02415
-2.02403
-2.16663
-2.16659
-2.16649
-2.16626
-2.166
-2.16548
-2.16449
-2.16316
-2.16203
-2.16189
-2.16123
-2.15933
-2.1574
-2.15635
-2.15563
-2.15518
-2.1546
-2.15474
-2.15462
-2.29128
-2.29118
-2.29105
-2.29087
-2.2907
-2.29039
-2.2896
-2.28845
-2.28754
-2.28707
-2.28643
-2.28533
-2.28445
-2.2845
-2.28429
-2.28328
-2.28226
-2.28253
-2.28266
-2.41594
-2.41582
-2.41569
-2.4155
-2.41527
-2.41491
-2.41431
-2.41354
-2.41285
-2.41238
-2.41185
-2.41118
-2.41072
-2.41077
-2.41051
-2.40972
-2.4092
-2.40945
-2.40919
-2.54065
-2.54053
-2.5404
-2.54022
-2.53998
-2.53966
-2.53919
-2.53863
-2.53812
-2.53771
-2.53731
-2.53689
-2.53659
-2.53651
-2.5363
-2.53589
-2.53555
-2.53563
-2.53524
-2.66541
-2.66531
-2.66518
-2.66502
-2.66481
-2.66454
-2.66417
-2.66376
-2.66338
-2.66305
-2.66276
-2.66249
-2.6623
-2.66221
-2.66207
-2.6618
-2.66149
-2.66135
-2.6607
-2.79023
-2.79014
-2.79003
-2.78989
-2.78972
-2.7895
-2.78922
-2.78892
-2.78864
-2.78839
-2.78818
-2.78801
-2.7879
-2.78785
-2.78776
-2.78758
-2.78732
-2.78713
-2.78633
-2.9151
-2.91503
-2.91493
-2.91482
-2.91467
-2.9145
-2.9143
-2.91409
-2.91389
-2.91372
-2.91358
-2.91348
-2.91343
-2.91341
-2.91338
-2.91329
-2.91312
-2.91292
-2.91232
-3.04001
-3.03996
-3.03988
-3.03979
-3.03968
-3.03955
-3.03941
-3.03926
-3.03913
-3.03902
-3.03894
-3.0389
-3.03889
-3.03891
-3.03892
-3.0389
-3.03881
-3.03861
-3.03804
-3.16496
-3.16492
-3.16487
-3.1648
-3.16472
-3.16463
-3.16453
-3.16444
-3.16436
-3.1643
-3.16427
-3.16426
-3.16429
-3.16433
-3.16438
-3.16441
-3.16439
-3.16419
-3.16359
-3.28993
-3.28992
-3.28988
-3.28984
-3.28979
-3.28973
-3.28967
-3.28962
-3.28958
-3.28955
-3.28955
-3.28958
-3.28962
-3.28968
-3.28975
-3.28982
-3.28986
-3.28968
-3.28912
-3.41493
-3.41493
-3.41492
-3.4149
-3.41487
-3.41484
-3.41482
-3.41479
-3.41478
-3.41479
-3.41481
-3.41484
-3.41489
-3.41495
-3.41502
-3.41509
-3.41515
-3.41498
-3.41461
-3.53994
-3.53996
-3.53997
-3.53997
-3.53997
-3.53996
-3.53996
-3.53996
-3.53997
-3.54
-3.54003
-3.54007
-3.54011
-3.54015
-3.54018
-3.5402
-3.54017
-3.5399
-3.53947
-3.66496
-3.665
-3.66503
-3.66505
-3.66507
-3.66508
-3.6651
-3.66512
-3.66515
-3.66519
-3.66522
-3.66526
-3.66529
-3.66529
-3.66526
-3.66516
-3.66495
-3.66448
-3.66377
-3.79
-3.79005
-3.7901
-3.79014
-3.79017
-3.7902
-3.79024
-3.79028
-3.79032
-3.79036
-3.7904
-3.79043
-3.79044
-3.7904
-3.79029
-3.79007
-3.78965
-3.78901
-3.78819
-3.91504
-3.91511
-3.91517
-3.91522
-3.91527
-3.91532
-3.91537
-3.91542
-3.91547
-3.91552
-3.91556
-3.91559
-3.91558
-3.91551
-3.91534
-3.91502
-3.91443
-3.91365
-3.91263
-4.0401
-4.04018
-4.04025
-4.04031
-4.04037
-4.04043
-4.0405
-4.04056
-4.04062
-4.04067
-4.04072
-4.04074
-4.04073
-4.04064
-4.04045
-4.04008
-4.03945
-4.03864
-4.03755
-4.16516
-4.16525
-4.16533
-4.1654
-4.16547
-4.16554
-4.16561
-4.16568
-4.16575
-4.16582
-4.16587
-4.1659
-4.16589
-4.16582
-4.16564
-4.16529
-4.16472
-4.16401
-4.16312
-4.29023
-4.29032
-4.29041
-4.29049
-4.29057
-4.29065
-4.29073
-4.2908
-4.29088
-4.29095
-4.29102
-4.29106
-4.29107
-4.29102
-4.29088
-4.2906
-4.29013
-4.28953
-4.28875
-4.4153
-4.4154
-4.41549
-4.41558
-4.41567
-4.41575
-4.41583
-4.41592
-4.416
-4.41608
-4.41616
-4.41622
-4.41625
-4.41623
-4.41614
-4.41595
-4.41559
-4.41504
-4.41428
-4.54038
-4.54049
-4.54058
-4.54067
-4.54076
-4.54085
-4.54093
-4.54102
-4.54111
-4.5412
-4.54129
-4.54137
-4.54142
-4.54145
-4.54142
-4.5413
-4.54104
-4.54056
-4.53979
-4.66548
-4.66558
-4.66567
-4.66576
-4.66585
-4.66594
-4.66603
-4.66612
-4.66621
-4.66631
-4.66641
-4.6665
-4.66659
-4.66665
-4.66667
-4.66663
-4.66647
-4.66604
-4.66536
-4.79057
-4.79068
-4.79077
-4.79086
-4.79094
-4.79103
-4.79111
-4.7912
-4.7913
-4.7914
-4.79151
-4.79162
-4.79173
-4.79182
-4.79189
-4.79191
-4.79179
-4.79137
-4.7907
-4.91568
-4.91578
-4.91587
-4.91595
-4.91603
-4.91611
-4.9162
-4.91628
-4.91637
-4.91648
-4.91659
-4.91671
-4.91684
-4.91697
-4.91708
-4.91714
-4.91703
-4.91654
-4.91569
-5.0408
-5.04089
-5.04097
-5.04105
-5.04112
-5.0412
-5.04127
-5.04135
-5.04144
-5.04153
-5.04165
-5.04177
-5.04192
-5.04207
-5.04223
-5.04235
-5.04228
-5.04177
-5.04082
-5.16593
-5.16601
-5.16608
-5.16615
-5.16621
-5.16627
-5.16634
-5.16641
-5.16649
-5.16658
-5.16668
-5.16681
-5.16696
-5.16715
-5.16736
-5.16756
-5.16761
-5.16715
-5.16622
-5.29106
-5.29113
-5.29119
-5.29125
-5.2913
-5.29135
-5.2914
-5.29146
-5.29153
-5.2916
-5.29169
-5.29181
-5.29196
-5.29216
-5.29243
-5.29277
-5.29302
-5.29269
-5.29186
-5.41621
-5.41626
-5.41631
-5.41635
-5.41639
-5.41642
-5.41646
-5.4165
-5.41655
-5.41661
-5.41668
-5.41678
-5.41691
-5.4171
-5.4174
-5.41788
-5.41848
-5.41842
-5.41786
-5.54136
-5.5414
-5.54142
-5.54145
-5.54147
-5.54149
-5.54152
-5.54154
-5.54157
-5.54161
-5.54165
-5.54171
-5.5418
-5.54195
-5.54221
-5.54283
-5.54407
-5.5444
-5.54452
-5.66651
-5.66653
-5.66654
-5.66655
-5.66655
-5.66656
-5.66657
-5.66658
-5.66659
-5.6666
-5.66661
-5.66663
-5.66666
-5.66674
-5.66692
-5.66756
-5.66989
-5.6704
-5.67142
)
;

boundaryField
{
    leftWall
    {
        type            calculated;
        value           nonuniform List<scalar> 
50
(
711.007
652.022
592.975
533.854
474.665
415.415
356.107
296.742
203.819
82.3679
12.3526
-0.00959173
-0.322901
-0.730396
-1.11787
-1.37849
-1.51758
-1.6449
-1.77143
-1.89761
-2.02351
-2.14926
-2.27495
-2.40066
-2.52643
-2.65229
-2.77825
-2.90427
-3.03034
-3.15642
-3.28249
-3.40851
-3.53445
-3.66029
-3.78599
-3.9116
-4.03711
-4.16256
-4.28796
-4.41332
-4.53866
-4.66399
-4.78929
-4.91457
-5.03985
-5.16512
-5.29041
-5.41572
-5.54097
-5.66569
)
;
    }
    rightWall
    {
        type            calculated;
        value           nonuniform List<scalar> 
50
(
724.563
667.648
610.1
552.21
494.218
436.146
377.953
320.717
232.757
112.288
25.8686
-0.524169
-0.699284
-0.953017
-1.18432
-1.37445
-1.51171
-1.6378
-1.76404
-1.89274
-2.02403
-2.15462
-2.28266
-2.40919
-2.53524
-2.6607
-2.78633
-2.91232
-3.03804
-3.16359
-3.28912
-3.41461
-3.53947
-3.66377
-3.78819
-3.91263
-4.03755
-4.16312
-4.28875
-4.41428
-4.53979
-4.66536
-4.7907
-4.91569
-5.04082
-5.16622
-5.29186
-5.41786
-5.54452
-5.67142
)
;
    }
    lowerWall
    {
        type            calculated;
        value           nonuniform List<scalar> 
62
(
740.436
741.017
741.789
742.763
743.888
745.143
746.515
747.997
749.575
751.24
752.979
754.777
756.616
758.468
760.292
762.029
763.627
765.007
765.762
767.763
769.762
771.278
772.121
742.878
684.349
625.82
567.379
509.099
450.961
392.927
335.148
308.87
309.687
309.983
310.005
749.082
690.979
632.664
574.132
515.626
457.172
398.738
340.316
778.21
777.593
776.741
775.645
774.363
772.984
771.628
770.452
769.216
767.469
765.478
762.643
760.564
760.432
761.478
759.238
754.919
752.706
752.821
)
;
    }
    atmosphere
    {
        type            calculated;
        value           nonuniform List<scalar> 
46
(
-5.72909
-5.72904
-5.72904
-5.72904
-5.72904
-5.72904
-5.72904
-5.72904
-5.72904
-5.72904
-5.72904
-5.72904
-5.72904
-5.72904
-5.72904
-5.72904
-5.72904
-5.72904
-5.72904
-5.72904
-5.72905
-5.72905
-5.72906
-5.72907
-5.72907
-5.72907
-5.72908
-5.72908
-5.72909
-5.72909
-5.72909
-5.7291
-5.7291
-5.7291
-5.7291
-5.72909
-5.72909
-5.72908
-5.72908
-5.72907
-5.72907
-5.72906
-5.72905
-5.72904
-5.72904
-5.73702
)
;
    }
    defaultFaces
    {
        type            empty;
    }
}


// ************************************************************************* //
