/*--------------------------------*- C++ -*----------------------------------*\
  =========                 |
  \\      /  F ield         | OpenFOAM: The Open Source CFD Toolbox
   \\    /   O peration     | Website:  https://openfoam.org
    \\  /    A nd           | Version:  9
     \\/     M anipulation  |
\*---------------------------------------------------------------------------*/
FoamFile
{
    format      ascii;
    class       volVectorField;
    location    "85";
    object      U;
}
// * * * * * * * * * * * * * * * * * * * * * * * * * * * * * * * * * * * * * //

dimensions      [0 1 -1 0 0 0 0];

internalField   nonuniform List<vector> 
12225
(
(9.85697 -0.886606 0)
(9.66616 -0.740688 0)
(9.45539 -0.429359 0)
(9.22371 -0.222054 0)
(9.00513 -0.106268 0)
(8.81227 -0.0456508 0)
(8.64438 -0.0149341 0)
(8.50113 0.000748607 0)
(8.37798 0.00873435 0)
(8.27357 0.0127077 0)
(8.18289 0.0145268 0)
(8.10402 0.0157392 0)
(8.03349 0.0163651 0)
(7.96957 0.0170886 0)
(7.90874 0.0175596 0)
(7.85229 0.0205072 0)
(7.77197 0.0246871 0)
(7.76268 0.0368779 0)
(10.0545 0.227713 0)
(10.1212 0.327012 0)
(10.1195 0.261728 0)
(10.0853 0.186723 0)
(10.0429 0.13488 0)
(9.99586 0.101386 0)
(9.94271 0.0796434 0)
(9.88328 0.0650201 0)
(9.82118 0.0548451 0)
(9.7576 0.0474215 0)
(9.69493 0.0418933 0)
(9.63349 0.0376791 0)
(9.57424 0.0345342 0)
(9.51739 0.0324938 0)
(9.46185 0.0313458 0)
(9.41158 0.0332957 0)
(9.35453 0.0339877 0)
(9.3288 0.0628137 0)
(10.0035 0.0581809 0)
(10.0305 0.0560216 0)
(10.0558 0.0339094 0)
(10.07 0.033086 0)
(10.0763 0.0409217 0)
(10.0768 0.0469227 0)
(10.0711 0.0498588 0)
(10.0593 0.0509555 0)
(10.0433 0.0510437 0)
(10.024 0.0505789 0)
(10.0023 0.0498792 0)
(9.97858 0.0492075 0)
(9.95358 0.0487187 0)
(9.92758 0.0487739 0)
(9.90034 0.0493485 0)
(9.87343 0.0525418 0)
(9.84468 0.0564644 0)
(9.82202 0.0723967 0)
(9.99771 0.0109838 0)
(10.011 0.0267146 0)
(10.0348 0.0372901 0)
(10.0521 0.0483241 0)
(10.0636 0.0558104 0)
(10.0723 0.0586767 0)
(10.0779 0.0590092 0)
(10.0802 0.0584699 0)
(10.0798 0.0576795 0)
(10.0774 0.0568227 0)
(10.0732 0.0560095 0)
(10.0675 0.0554199 0)
(10.0604 0.0551297 0)
(10.0523 0.0554697 0)
(10.0429 0.0565241 0)
(10.0333 0.0597306 0)
(10.0234 0.064314 0)
(10.0167 0.0748641 0)
(9.99934 0.00714808 0)
(10.0089 0.0318209 0)
(10.0272 0.0441306 0)
(10.0414 0.0502538 0)
(10.052 0.0540845 0)
(10.0617 0.0558724 0)
(10.0699 0.0563551 0)
(10.0761 0.0563178 0)
(10.0805 0.0560951 0)
(10.0835 0.0558063 0)
(10.0852 0.0555496 0)
(10.0859 0.0554883 0)
(10.0855 0.0557329 0)
(10.0844 0.0565622 0)
(10.0826 0.058139 0)
(10.0807 0.0613133 0)
(10.0793 0.0657767 0)
(10.0804 0.072841 0)
(10.0003 0.00921182 0)
(10.0082 0.031371 0)
(10.0225 0.0412281 0)
(10.0345 0.0458145 0)
(10.0443 0.049624 0)
(10.0536 0.0521588 0)
(10.0621 0.0533848 0)
(10.0692 0.0539195 0)
(10.075 0.0541651 0)
(10.0797 0.0542888 0)
(10.0835 0.0544116 0)
(10.0866 0.0546924 0)
(10.0889 0.0552609 0)
(10.0907 0.056341 0)
(10.092 0.0580959 0)
(10.0935 0.0609838 0)
(10.0957 0.0648142 0)
(10.0999 0.0696734 0)
(10.0004 0.00900114 0)
(10.007 0.0273067 0)
(10.0189 0.0367584 0)
(10.0297 0.0419014 0)
(10.0388 0.0461222 0)
(10.0475 0.0490255 0)
(10.0557 0.0505797 0)
(10.0628 0.0513975 0)
(10.0689 0.0519066 0)
(10.0742 0.0522836 0)
(10.0788 0.0526506 0)
(10.0828 0.0531514 0)
(10.0863 0.0539148 0)
(10.0894 0.0551094 0)
(10.0923 0.0568623 0)
(10.0955 0.059386 0)
(10.0993 0.0625072 0)
(10.1046 0.0659045 0)
(10.0004 0.00799354 0)
(10.0059 0.0236184 0)
(10.0159 0.0331409 0)
(10.0258 0.0387059 0)
(10.0344 0.0429323 0)
(10.0425 0.0458884 0)
(10.0502 0.0476241 0)
(10.0571 0.048653 0)
(10.0632 0.0493653 0)
(10.0687 0.0499359 0)
(10.0736 0.0504851 0)
(10.0781 0.0511409 0)
(10.0821 0.0520205 0)
(10.0859 0.0532448 0)
(10.0897 0.0548951 0)
(10.0936 0.0570387 0)
(10.0982 0.0595002 0)
(10.1038 0.0618735 0)
(10.0004 0.00705964 0)
(10.005 0.0206911 0)
(10.0135 0.0299199 0)
(10.0225 0.0355594 0)
(10.0305 0.0396751 0)
(10.0381 0.0426447 0)
(10.0454 0.0445431 0)
(10.0521 0.0457594 0)
(10.0581 0.0466391 0)
(10.0636 0.0473618 0)
(10.0686 0.0480463 0)
(10.0733 0.0488066 0)
(10.0776 0.0497414 0)
(10.0818 0.0509337 0)
(10.086 0.0524236 0)
(10.0904 0.0541995 0)
(10.0953 0.0560935 0)
(10.1009 0.0577364 0)
(10.0004 0.0062485 0)
(10.0042 0.0181554 0)
(10.0114 0.0268021 0)
(10.0195 0.0323711 0)
(10.027 0.0363946 0)
(10.0342 0.0393653 0)
(10.0411 0.0413836 0)
(10.0475 0.0427463 0)
(10.0534 0.0437571 0)
(10.0589 0.0445955 0)
(10.064 0.0453772 0)
(10.0687 0.0462008 0)
(10.0732 0.047146 0)
(10.0776 0.048266 0)
(10.0821 0.049571 0)
(10.0867 0.0510129 0)
(10.0916 0.0524433 0)
(10.097 0.0535666 0)
(10.0003 0.00550654 0)
(10.0036 0.0158769 0)
(10.0097 0.0238204 0)
(10.0169 0.0292219 0)
(10.0239 0.0331371 0)
(10.0307 0.0360664 0)
(10.0372 0.0381452 0)
(10.0434 0.0396086 0)
(10.0492 0.0407163 0)
(10.0545 0.0416392 0)
(10.0596 0.0424851 0)
(10.0644 0.0433382 0)
(10.069 0.0442604 0)
(10.0736 0.0452847 0)
(10.0781 0.0464026 0)
(10.0828 0.047555 0)
(10.0876 0.0486223 0)
(10.0928 0.049381 0)
(10.0003 0.00485687 0)
(10.0031 0.0139708 0)
(10.0084 0.0212311 0)
(10.0149 0.0263943 0)
(10.0214 0.0301717 0)
(10.0278 0.0330251 0)
(10.034 0.0351147 0)
(10.04 0.036633 0)
(10.0456 0.0378004 0)
(10.0509 0.0387745 0)
(10.0559 0.0396544 0)
(10.0608 0.0405101 0)
(10.0654 0.0413911 0)
(10.07 0.0423174 0)
(10.0746 0.0432742 0)
(10.0792 0.0442044 0)
(10.084 0.0450164 0)
(10.0889 0.0455434 0)
(10.0003 0.00425817 0)
(10.0027 0.0122255 0)
(10.0073 0.0187776 0)
(10.0132 0.0236248 0)
(10.0192 0.0272261 0)
(10.0252 0.0299737 0)
(10.0311 0.0320371 0)
(10.0369 0.0335764 0)
(10.0424 0.0347748 0)
(10.0476 0.0357746 0)
(10.0526 0.0366657 0)
(10.0574 0.0375065 0)
(10.0621 0.0383337 0)
(10.0667 0.0391606 0)
(10.0713 0.0399716 0)
(10.0759 0.0407197 0)
(10.0805 0.0413366 0)
(10.0852 0.0416961 0)
(10.0002 0.00364058 0)
(10.0023 0.0104124 0)
(10.0063 0.0161463 0)
(10.0115 0.0205539 0)
(10.0171 0.023897 0)
(10.0227 0.0264779 0)
(10.0283 0.0284624 0)
(10.0338 0.0299824 0)
(10.0391 0.0311809 0)
(10.0442 0.0321787 0)
(10.0492 0.0330573 0)
(10.054 0.0338643 0)
(10.0586 0.034624 0)
(10.0632 0.0353444 0)
(10.0677 0.0360131 0)
(10.0722 0.0365976 0)
(10.0767 0.0370557 0)
(10.0812 0.0372879 0)
(10.0002 0.0029988 0)
(10.002 0.00852583 0)
(10.0054 0.0133398 0)
(10.01 0.0171753 0)
(10.015 0.0201559 0)
(10.0203 0.0224905 0)
(10.0255 0.0243236 0)
(10.0308 0.0257642 0)
(10.0359 0.0269165 0)
(10.0409 0.0278738 0)
(10.0458 0.0287057 0)
(10.0505 0.0294511 0)
(10.0551 0.0301282 0)
(10.0596 0.0307387 0)
(10.0641 0.0312758 0)
(10.0685 0.031721 0)
(10.0728 0.0320552 0)
(10.077 0.0322023 0)
(10.0002 0.00233004 0)
(10.0017 0.00656473 0)
(10.0046 0.0103606 0)
(10.0087 0.013485 0)
(10.0132 0.015978 0)
(10.0181 0.0179666 0)
(10.023 0.0195584 0)
(10.028 0.0208395 0)
(10.0329 0.0218824 0)
(10.0378 0.0227512 0)
(10.0425 0.0234958 0)
(10.0472 0.0241504 0)
(10.0517 0.0247286 0)
(10.0562 0.0252319 0)
(10.0605 0.0256556 0)
(10.0647 0.0259923 0)
(10.0689 0.0262392 0)
(10.0729 0.0263375 0)
(10.0002 0.00162825 0)
(10.0015 0.00451087 0)
(10.004 0.00718388 0)
(10.0076 0.00945352 0)
(10.0118 0.0113163 0)
(10.0162 0.0128376 0)
(10.0209 0.0140825 0)
(10.0256 0.0151083 0)
(10.0304 0.0159625 0)
(10.0351 0.0166816 0)
(10.0397 0.0172961 0)
(10.0443 0.0178292 0)
(10.0487 0.0182926 0)
(10.053 0.0186889 0)
(10.0573 0.0190158 0)
(10.0614 0.0192711 0)
(10.0653 0.0194606 0)
(10.0692 0.0195367 0)
(10.0001 0.000873329 0)
(10.0013 0.00230589 0)
(10.0036 0.00372675 0)
(10.0069 0.00498464 0)
(10.0108 0.00605819 0)
(10.015 0.00697065 0)
(10.0194 0.00774713 0)
(10.024 0.00841177 0)
(10.0286 0.00898668 0)
(10.0332 0.00948678 0)
(10.0377 0.00992309 0)
(10.0421 0.0103043 0)
(10.0465 0.0106369 0)
(10.0507 0.0109222 0)
(10.0548 0.01116 0)
(10.0588 0.0113493 0)
(10.0626 0.0114978 0)
(10.0663 0.0115636 0)
(10.0001 1.61183e-05 0)
(10.0013 -0.000181716 0)
(10.0035 -0.000203329 0)
(10.0067 -0.000144582 0)
(10.0105 -2.81827e-05 0)
(10.0146 0.000131182 0)
(10.019 0.000318518 0)
(10.0235 0.000520876 0)
(10.028 0.000733525 0)
(10.0325 0.00094889 0)
(10.037 0.00116106 0)
(10.0414 0.00136201 0)
(10.0456 0.00154924 0)
(10.0498 0.00171807 0)
(10.0538 0.00186794 0)
(10.0577 0.00199497 0)
(10.0614 0.00210522 0)
(10.065 0.00215861 0)
(10.0002 -0.000816037 0)
(10.0014 -0.00258186 0)
(10.0038 -0.00401101 0)
(10.0072 -0.00511432 0)
(10.0111 -0.00591188 0)
(10.0155 -0.00646258 0)
(10.02 -0.00682704 0)
(10.0246 -0.00704588 0)
(10.0292 -0.00715589 0)
(10.0338 -0.00718578 0)
(10.0383 -0.00716403 0)
(10.0427 -0.00710913 0)
(10.047 -0.0070375 0)
(10.0511 -0.00695474 0)
(10.0551 -0.0068694 0)
(10.0589 -0.00678403 0)
(10.0627 -0.00670208 0)
(10.0662 -0.00665548 0)
(10.0002 -0.00153839 0)
(10.0015 -0.00468514 0)
(10.0042 -0.00735064 0)
(10.008 -0.00940891 0)
(10.0124 -0.0109024 0)
(10.017 -0.0119802 0)
(10.0218 -0.0127479 0)
(10.0266 -0.0132625 0)
(10.0314 -0.0135816 0)
(10.0361 -0.0137602 0)
(10.0407 -0.0138467 0)
(10.0451 -0.0138728 0)
(10.0494 -0.0138625 0)
(10.0536 -0.0138257 0)
(10.0576 -0.0137737 0)
(10.0614 -0.0137123 0)
(10.0652 -0.0136471 0)
(10.0687 -0.013607 0)
(10.0002 -0.00222564 0)
(10.0017 -0.00676355 0)
(10.0048 -0.0106863 0)
(10.0092 -0.0136091 0)
(10.0141 -0.0156488 0)
(10.0191 -0.0171158 0)
(10.0242 -0.0181695 0)
(10.0293 -0.0188862 0)
(10.0343 -0.0193435 0)
(10.0392 -0.01962 0)
(10.0439 -0.0197716 0)
(10.0484 -0.019843 0)
(10.0528 -0.0198588 0)
(10.0569 -0.0198416 0)
(10.061 -0.0197987 0)
(10.0648 -0.0197466 0)
(10.0686 -0.0196844 0)
(10.0721 -0.0196431 0)
(10.0002 -0.00286904 0)
(10.0018 -0.00886572 0)
(10.0056 -0.0140416 0)
(10.0108 -0.0177273 0)
(10.0163 -0.0202608 0)
(10.0218 -0.0220627 0)
(10.0272 -0.0232882 0)
(10.0326 -0.0240669 0)
(10.0378 -0.0245533 0)
(10.0429 -0.0248547 0)
(10.0477 -0.0250289 0)
(10.0523 -0.0251139 0)
(10.0567 -0.0251384 0)
(10.0609 -0.025123 0)
(10.065 -0.0250834 0)
(10.0689 -0.0250312 0)
(10.0726 -0.0249723 0)
(10.0761 -0.024926 0)
(10.0001 -0.00343595 0)
(10.0019 -0.0113642 0)
(10.0064 -0.0175574 0)
(10.0125 -0.0214889 0)
(10.0188 -0.0243832 0)
(10.0247 -0.0266163 0)
(10.0306 -0.0280721 0)
(10.0363 -0.0288916 0)
(10.0418 -0.0293452 0)
(10.0469 -0.0295999 0)
(10.0518 -0.0297285 0)
(10.0565 -0.0297701 0)
(10.061 -0.0297586 0)
(10.0653 -0.0297134 0)
(10.0693 -0.0296531 0)
(10.0732 -0.0295841 0)
(10.0769 -0.0295147 0)
(10.0804 -0.0294514 0)
(9.99992 -0.00330092 0)
(10.0016 -0.014835 0)
(10.0075 -0.0224722 0)
(10.0145 -0.0258516 0)
(10.0211 -0.0282956 0)
(10.0276 -0.0305159 0)
(10.0341 -0.032095 0)
(10.0403 -0.0330376 0)
(10.0461 -0.0335822 0)
(10.0515 -0.033883 0)
(10.0565 -0.0340152 0)
(10.0613 -0.034034 0)
(10.0658 -0.0339851 0)
(10.07 -0.0338997 0)
(10.0739 -0.0337962 0)
(10.0777 -0.0336874 0)
(10.0812 -0.0335769 0)
(10.0844 -0.0334738 0)
(9.9986 -0.000326957 0)
(9.99909 -0.0156824 0)
(10.0077 -0.027232 0)
(10.0169 -0.0321933 0)
(10.0243 -0.0344628 0)
(10.0314 -0.0357018 0)
(10.0386 -0.0363368 0)
(10.0454 -0.0366899 0)
(10.0515 -0.0369221 0)
(10.057 -0.0370465 0)
(10.062 -0.0370646 0)
(10.0666 -0.0370003 0)
(10.0706 -0.0368871 0)
(10.0743 -0.0367468 0)
(10.0776 -0.0365952 0)
(10.0806 -0.0364437 0)
(10.0833 -0.0362932 0)
(10.0857 -0.0361523 0)
(9.99489 0.00144371 0)
(9.99292 -0.00804258 0)
(10.0062 -0.0201863 0)
(10.0205 -0.0320436 0)
(10.0311 -0.0401767 0)
(10.0399 -0.0437712 0)
(10.0477 -0.0445958 0)
(10.0542 -0.0443614 0)
(10.0594 -0.0438039 0)
(10.0637 -0.0431155 0)
(10.067 -0.0423751 0)
(10.0697 -0.0416391 0)
(10.0716 -0.0409437 0)
(10.0729 -0.040297 0)
(10.0738 -0.0397076 0)
(10.0742 -0.039176 0)
(10.0743 -0.0387012 0)
(10.0741 -0.0382585 0)
(9.99471 -0.030553 0)
(9.99948 -0.02279 0)
(10.0148 -0.00251973 0)
(10.0307 -0.00173963 0)
(10.0439 -0.0114315 0)
(10.0539 -0.0206435 0)
(10.0603 -0.0269456 0)
(10.063 -0.0311109 0)
(10.063 -0.0338199 0)
(10.0609 -0.0354479 0)
(10.0573 -0.0363089 0)
(10.0524 -0.0366743 0)
(10.0466 -0.036731 0)
(10.0401 -0.036597 0)
(10.0331 -0.0363606 0)
(10.0257 -0.0360806 0)
(10.0182 -0.0358231 0)
(10.0105 -0.035559 0)
(10.0274 -0.182991 0)
(10.0766 -0.288293 0)
(10.0872 -0.247757 0)
(10.0779 -0.186468 0)
(10.0666 -0.140188 0)
(10.0542 -0.108062 0)
(10.0372 -0.0856758 0)
(10.0155 -0.0701791 0)
(9.99061 -0.0593661 0)
(9.96394 -0.0515414 0)
(9.93636 -0.0456707 0)
(9.90848 -0.0411315 0)
(9.88078 -0.0375376 0)
(9.8536 -0.0346233 0)
(9.82716 -0.0322162 0)
(9.80157 -0.0302498 0)
(9.77709 -0.0286844 0)
(9.75368 -0.0278262 0)
(9.93577 0.689548 0)
(9.86836 0.609617 0)
(9.76483 0.380659 0)
(9.62711 0.21748 0)
(9.48671 0.119332 0)
(9.35842 0.0632776 0)
(9.24437 0.0316868 0)
(9.14334 0.0137521 0)
(9.05429 0.00341791 0)
(8.97598 -0.00261855 0)
(8.90679 -0.0061463 0)
(8.84535 -0.0082444 0)
(8.79044 -0.00947394 0)
(8.74117 -0.0102056 0)
(8.6966 -0.0106777 0)
(8.65613 -0.0109281 0)
(8.61886 -0.0111171 0)
(8.58438 -0.0117343 0)
(0.0135473 -0.0131775 -4.9544e-19)
(0.0461168 -0.0347947 2.2509e-19)
(0.0764277 -0.0427445 0)
(0.112713 -0.0429981 0)
(0.145588 -0.0384392 0)
(0.172087 -0.0313472 -8.78364e-20)
(0.192505 -0.0247321 0)
(0.207293 -0.0235014 0)
(0.2172 -0.0326472 0)
(0.227574 -0.0346579 0)
(0.226901 0.0140087 1.40396e-19)
(0.209705 0.0313374 0)
(0.192391 0.0291807 0)
(0.171525 0.0260275 0)
(0.152522 0.0163174 0)
(0.135437 0.00441626 1.5694e-19)
(0.105525 0.0144032 0)
(0.0824418 0.0198603 0)
(0.0567693 0.0238834 0)
(0.0252064 0.0297266 0)
(-0.0183277 0.037385 0)
(-0.0636239 0.0466407 0)
(-0.115001 0.0553637 0)
(-0.172638 0.0607268 1.72398e-19)
(-0.236594 0.0638268 -1.49773e-19)
(-0.30479 0.0669525 1.31978e-19)
(-0.377297 0.0706468 1.17287e-19)
(-0.454128 0.0746539 0)
(-0.534895 0.078387 0)
(-0.618936 0.0815324 -8.60835e-20)
(-0.705394 0.0838889 -7.88234e-20)
(-0.793348 0.0853651 0)
(-0.881895 0.085875 0)
(-0.970181 0.0854639 -6.30884e-20)
(-1.05746 0.0842097 0)
(-1.1431 0.0822631 0)
(-1.2266 0.0797475 5.32966e-20)
(-1.30762 0.0768374 0)
(-1.38591 0.0736571 4.87659e-20)
(-1.46136 0.0703558 9.38249e-20)
(-1.53393 0.0670217 0)
(-1.6037 0.0637601 0)
(-1.67076 0.0606167 0)
(-1.73527 0.0576556 0)
(-1.7974 0.0548896 0)
(-1.85736 0.052354 7.86272e-20)
(-1.91535 0.0500409 7.68411e-20)
(-1.97159 0.0479652 7.51848e-20)
(-2.02627 0.0461075 0)
(-2.07959 0.0444724 -7.21977e-20)
(-2.13174 0.0430332 0)
(-2.18292 0.0417898 6.95457e-20)
(-2.23327 0.0407209 6.83191e-20)
(-2.28297 0.0398238 0)
(-2.33215 0.039073 0)
(-2.38097 0.0384668 0)
(-2.42953 0.0379878 6.38943e-20)
(-2.47795 0.037634 0)
(-2.52633 0.0373844 0)
(-2.57477 0.0372396 0)
(-2.62335 0.037189 0)
(-2.67213 0.0372319 0)
(-2.72118 0.037356 0)
(-2.77056 0.0375567 0)
(-2.82029 0.0378251 0)
(-2.87042 0.0381525 -5.57132e-20)
(-2.92095 0.0385339 0)
(-2.9719 0.0389552 0)
(-3.02323 0.0394117 5.33769e-20)
(-3.07494 0.03988 5.26444e-20)
(-3.12698 0.0403505 0)
(-3.17931 0.0407867 -5.12588e-20)
(-3.23187 0.0411732 5.0608e-20)
(-3.28458 0.0414664 0)
(-3.33736 0.041653 -4.93947e-20)
(-3.3901 0.0416898 0)
(-3.44266 0.0415684 0)
(-3.49486 0.0412487 4.77958e-20)
(-3.54653 0.0407239 0)
(-3.59748 0.0399566 -4.68675e-20)
(-3.6475 0.0389596 0)
(-3.69632 0.0377135 4.60414e-20)
(-3.7437 0.0362455 4.5667e-20)
(-3.78935 0.0345508 4.53217e-20)
(-3.83294 0.0326826 9.00158e-20)
(-3.87408 0.0306504 -8.94626e-20)
(-3.91234 0.0285007 0)
(-3.94723 0.0262255 0)
(-3.97828 0.0238257 0)
(-4.00494 0.0212894 -8.80751e-20)
(-4.02683 0.0185218 -8.79051e-20)
(-4.04337 0.015601 8.77773e-20)
(-4.05416 0.0125595 0)
(-4.05872 0.00962704 -8.74248e-20)
(-4.05806 0.00679811 -8.71464e-20)
(-4.05184 0.00382739 -8.68003e-20)
(-4.03987 0.000768752 0)
(-4.02191 -0.00266096 0)
(-3.99772 -0.00594482 0)
(-3.96716 -0.00972445 -8.42857e-20)
(-3.9299 -0.0136944 0)
(-3.8859 -0.0178761 0)
(-3.83474 -0.0225814 8.01325e-20)
(-3.77648 -0.0269762 0)
(-3.71104 -0.031369 0)
(-3.63839 -0.0359023 7.27236e-20)
(-3.55833 -0.0408479 0)
(-3.47108 -0.0457166 0)
(-3.37665 -0.0506295 -6.06055e-20)
(-3.27534 -0.0555041 -5.52877e-20)
(-3.16737 -0.0603205 0)
(-3.05306 -0.0650382 4.23922e-20)
(-2.93283 -0.0695919 0)
(-2.80708 -0.0739534 -2.61317e-20)
(-2.67631 -0.0780622 0)
(-2.54104 -0.0818995 -6.07439e-21)
(-2.40183 -0.0854278 5.52407e-21)
(-2.2593 -0.0886272 0)
(-2.11409 -0.0914601 0)
(-1.9668 -0.0939002 0)
(-1.81804 -0.0959424 0)
(-1.66842 -0.0975876 0)
(-1.51858 -0.0988668 0)
(-1.3691 -0.099784 0)
(-1.22059 -0.100417 1.47571e-19)
(-1.0735 -0.100799 -1.7385e-19)
(-0.928273 -0.100973 0)
(-0.785285 -0.100946 0)
(-0.644847 -0.100818 0)
(-0.507227 -0.100488 0)
(-0.372725 -0.099982 -7.20346e-19)
(-0.241534 -0.0994474 0)
(-0.113343 -0.0984636 9.3283e-19)
(0.0147784 -0.0953958 -9.44908e-19)
(0.141741 -0.0903104 0)
(0.263747 -0.08469 0)
(0.380908 -0.0792356 0)
(0.492893 -0.0740536 7.86601e-19)
(0.599676 -0.0691976 7.60941e-19)
(0.701347 -0.0646434 0)
(0.798119 -0.0603956 7.18929e-19)
(0.890211 -0.0564188 7.01433e-19)
(0.977858 -0.0527059 -6.85677e-19)
(1.06124 -0.0492318 0)
(1.14053 -0.045999 0)
(1.21593 -0.0430133 -6.466e-19)
(1.2876 -0.0402196 0)
(1.35572 -0.0376075 0)
(1.42047 -0.0351574 0)
(1.48202 -0.0328619 0)
(1.54052 -0.030726 5.99732e-19)
(1.59612 -0.0287401 5.92321e-19)
(1.64896 -0.0268907 0)
(1.69921 -0.0251651 5.78956e-19)
(1.74699 -0.0235459 0)
(1.79247 -0.0220382 0)
(1.83578 -0.0206493 5.61892e-19)
(1.87704 -0.0193532 0)
(1.9164 -0.018146 5.52167e-19)
(1.95398 -0.0170248 0)
(1.98988 -0.0159881 0)
(2.02423 -0.0150268 5.39511e-19)
(2.05714 -0.0141359 0)
(2.0887 -0.0133177 5.32137e-19)
(2.11901 -0.0125456 0)
(2.14816 -0.0118242 0)
(2.17624 -0.0111728 0)
(2.20327 -0.0105491 -5.19435e-19)
(2.22933 -0.0099504 0)
(2.25443 -0.00939251 5.14028e-19)
(2.2785 -0.00882398 0)
(2.3015 -0.00820803 0)
(2.32323 -0.00757436 0)
(2.34334 -0.00684746 0)
(2.3613 -0.00588705 0)
(2.37559 -0.00451794 0)
(2.38547 -0.00174112 0)
(2.37782 0.00379665 -1.01982e-18)
(2.35885 0.0162148 0)
(2.23713 0.0332871 0)
(0.0225245 -0.0929737 1.126e-18)
(0.0614274 -0.119737 -4.77361e-19)
(0.088566 -0.112556 0)
(0.112403 -0.0992013 1.40428e-19)
(0.130794 -0.083036 0)
(0.14372 -0.065168 5.16667e-20)
(0.151705 -0.0466938 -9.64426e-20)
(0.154547 -0.0283764 -9.49369e-20)
(0.150976 -0.0105978 0)
(0.138801 0.00685518 -1.15106e-19)
(0.123731 0.0229587 -5.90168e-20)
(0.110332 0.0373067 0)
(0.0924735 0.0499356 0)
(0.068898 0.0612365 0)
(0.040099 0.0721866 0)
(0.000699253 0.0839834 -6.53521e-20)
(-0.0454831 0.0915894 0)
(-0.0952569 0.0983257 1.3716e-19)
(-0.150396 0.106745 0)
(-0.211793 0.118247 0)
(-0.277552 0.133025 -1.09011e-19)
(-0.344705 0.14928 0)
(-0.415298 0.164477 9.13007e-20)
(-0.490962 0.177791 -4.29477e-20)
(-0.571647 0.189401 4.05865e-20)
(-0.655851 0.199462 -3.84424e-20)
(-0.74243 0.20808 -3.64324e-20)
(-0.830164 0.215017 0)
(-0.918059 0.219976 0)
(-1.00529 0.222745 3.12488e-20)
(-1.09115 0.223273 -2.94913e-20)
(-1.17505 0.221673 0)
(-1.25652 0.218131 0)
(-1.33527 0.212964 2.63666e-20)
(-1.41108 0.206519 0)
(-1.48388 0.199169 0)
(-1.55368 0.191234 -2.3843e-20)
(-1.62056 0.183019 0)
(-1.68466 0.174756 2.22793e-20)
(-1.74616 0.166657 -4.39627e-20)
(-1.80526 0.158859 0)
(-1.86216 0.151481 0)
(-1.9171 0.144583 -8.18467e-20)
(-1.97027 0.138219 -8.02928e-20)
(-2.02187 0.132393 -7.8861e-20)
(-2.0721 0.127115 3.85451e-20)
(-2.12114 0.122362 -3.83701e-20)
(-2.16916 0.118121 -1.12942e-19)
(-2.2163 0.114354 7.4071e-20)
(-2.26272 0.111039 3.67378e-20)
(-2.30854 0.108132 0)
(-2.35388 0.105606 -3.5797e-20)
(-2.39885 0.103422 3.4944e-20)
(-2.44356 0.101556 0)
(-2.48808 0.0999676 0)
(-2.5325 0.0986343 0)
(-2.57689 0.0975224 -3.37957e-20)
(-2.62129 0.0966125 0)
(-2.66576 0.0958699 6.57595e-20)
(-2.71033 0.0952733 0)
(-2.75504 0.0947947 6.44382e-20)
(-2.79989 0.0944161 0)
(-2.84489 0.0941108 -6.31888e-20)
(-2.89003 0.0938558 0)
(-2.93531 0.0936274 6.20011e-20)
(-2.9807 0.093401 -3.04804e-20)
(-3.02617 0.0931588 0)
(-3.07168 0.0928767 -6.03276e-20)
(-3.11715 0.0925425 -3.0142e-20)
(-3.16254 0.092131 -2.98907e-20)
(-3.20776 0.0916344 0)
(-3.25272 0.0910222 -2.89074e-20)
(-3.29734 0.0902843 -2.91994e-20)
(-3.34148 0.0893839 0)
(-3.38505 0.0883114 2.87974e-20)
(-3.4279 0.0870282 -5.66733e-20)
(-3.46987 0.0855296 0)
(-3.51079 0.0837733 -2.82827e-20)
(-3.55047 0.0817443 0)
(-3.58873 0.0793875 8.34044e-20)
(-3.62535 0.0766898 0)
(-3.66013 0.0735957 -8.26515e-20)
(-3.69286 0.0700893 -2.76087e-20)
(-3.72331 0.0661145 2.70195e-20)
(-3.75129 0.0616824 5.39035e-20)
(-3.77657 0.0567641 -5.3793e-20)
(-3.79896 0.0513913 0)
(-3.81825 0.0455497 0)
(-3.83423 0.0392668 0)
(-3.84685 0.0325301 1.61961e-19)
(-3.85611 0.0253396 5.41502e-20)
(-3.86211 0.017782 -5.40911e-20)
(-3.86476 0.00999498 0)
(-3.86398 0.00216557 -5.3096e-20)
(-3.85836 -0.00576363 5.35301e-20)
(-3.84751 -0.0138954 5.32203e-20)
(-3.83106 -0.0222941 0)
(-3.80872 -0.0309289 0)
(-3.78022 -0.0398018 0)
(-3.74523 -0.0488526 5.11766e-20)
(-3.70363 -0.0580591 0)
(-3.65516 -0.0674196 -9.87552e-20)
(-3.59976 -0.0768229 -1.44732e-19)
(-3.53723 -0.0862492 9.39395e-20)
(-3.4674 -0.0956005 0)
(-3.39016 -0.104767 4.40841e-20)
(-3.30561 -0.11371 0)
(-3.21382 -0.122357 7.86663e-20)
(-3.11484 -0.130606 -3.74045e-20)
(-3.00894 -0.138479 -3.45868e-20)
(-2.89634 -0.145829 0)
(-2.7774 -0.152644 -7.94524e-20)
(-2.65252 -0.158844 4.57946e-20)
(-2.52217 -0.1644 1.72114e-20)
(-2.38686 -0.169246 0)
(-2.24715 -0.173358 7.30928e-21)
(-2.10362 -0.176696 9.05769e-21)
(-1.95695 -0.179272 0)
(-1.8078 -0.181076 -1.61122e-20)
(-1.65682 -0.182098 -2.8698e-20)
(-1.50463 -0.182342 -4.18727e-20)
(-1.35186 -0.18183 0)
(-1.19913 -0.18063 0)
(-1.04704 -0.178827 0)
(-0.896166 -0.176527 4.76703e-20)
(-0.746994 -0.173778 6.01206e-20)
(-0.599968 -0.170693 0)
(-0.455461 -0.167319 1.48393e-19)
(-0.313741 -0.163763 1.6543e-19)
(-0.175142 -0.160085 0)
(-0.0389952 -0.156626 2.0063e-19)
(0.0943947 -0.153535 4.071e-19)
(0.223523 -0.150193 -2.1411e-19)
(0.347291 -0.14529 -2.12749e-19)
(0.465512 -0.138817 0)
(0.578967 -0.131765 0)
(0.688191 -0.124666 0)
(0.793182 -0.117715 -2.41069e-19)
(0.893925 -0.111021 2.3965e-19)
(0.990452 -0.104621 4.92851e-19)
(1.08285 -0.0985383 -2.52513e-19)
(1.17124 -0.0927701 2.51019e-19)
(1.25575 -0.0873092 2.58469e-19)
(1.33649 -0.0821559 0)
(1.41358 -0.0772941 0)
(1.48715 -0.0727178 -2.61804e-19)
(1.55732 -0.0684014 0)
(1.62424 -0.0643438 0)
(1.68805 -0.0605312 5.37363e-19)
(1.74889 -0.0569573 0)
(1.80688 -0.0535972 2.7e-19)
(1.86216 -0.0504415 -2.73503e-19)
(1.91488 -0.0474837 0)
(1.96518 -0.0447214 2.73269e-19)
(2.01318 -0.0421408 0)
(2.05903 -0.0397404 0)
(2.10284 -0.037511 -2.77178e-19)
(2.14473 -0.0354334 5.53896e-19)
(2.18484 -0.0335011 -2.78149e-19)
(2.22328 -0.0317091 0)
(2.26017 -0.0300509 0)
(2.29561 -0.0285175 2.78066e-19)
(2.32971 -0.0270954 0)
(2.36256 -0.0257814 2.78685e-19)
(2.39426 -0.0245641 0)
(2.42489 -0.0234346 0)
(2.45453 -0.0223884 0)
(2.48323 -0.0213963 2.80217e-19)
(2.51104 -0.0204397 0)
(2.53796 -0.0195034 -2.80401e-19)
(2.56398 -0.0185431 0)
(2.589 -0.0174997 0)
(2.61286 -0.0163075 5.61274e-19)
(2.63526 -0.0148278 -5.62016e-19)
(2.65574 -0.0127885 0)
(2.6733 -0.00974875 0)
(2.68727 -0.00428726 0)
(2.6954 0.00565294 1.71817e-18)
(2.70366 0.0262081 0)
(2.68447 0.0637479 -1.18516e-18)
(0.0191593 -0.17453 -4.35922e-22)
(0.0461818 -0.183792 4.7692e-19)
(0.0610414 -0.157509 0)
(0.0721652 -0.129744 -2.16182e-19)
(0.0784781 -0.101932 0)
(0.0799261 -0.074127 0)
(0.0768309 -0.0465822 7.48073e-23)
(0.0692477 -0.0194592 7.07053e-20)
(0.0570447 0.00728425 6.96996e-20)
(0.0401289 0.0337603 7.01279e-20)
(0.0192544 0.0594863 0)
(-0.00513228 0.0829627 0)
(-0.0339308 0.104495 -6.84293e-20)
(-0.0678522 0.124962 -1.35197e-19)
(-0.107239 0.145107 1.34444e-19)
(-0.152595 0.164999 0)
(-0.203354 0.183685 1.31668e-19)
(-0.259524 0.201928 -6.41796e-20)
(-0.32086 0.220724 0)
(-0.386592 0.240376 1.16898e-19)
(-0.45526 0.260393 5.56418e-20)
(-0.525919 0.280154 -1.05457e-19)
(-0.598601 0.298812 -5.04288e-20)
(-0.673199 0.315619 0)
(-0.749091 0.329986 9.19597e-20)
(-0.825558 0.341437 8.80027e-20)
(-0.901825 0.34974 0)
(-0.977182 0.354746 8.0864e-20)
(-1.05105 0.356454 0)
(-1.12299 0.355 7.47428e-20)
(-1.19272 0.350635 3.61189e-20)
(-1.26009 0.343722 0)
(-1.32506 0.334707 0)
(-1.3877 0.324067 0)
(-1.4481 0.312281 0)
(-1.50639 0.299801 0)
(-1.5627 0.287022 0)
(-1.61716 0.274275 5.81672e-20)
(-1.66989 0.261826 -8.53517e-20)
(-1.72104 0.249876 0)
(-1.77073 0.238568 0)
(-1.81907 0.227998 0)
(-1.86618 0.218218 2.55913e-22)
(-1.91217 0.209252 5.18051e-20)
(-1.95714 0.201096 1.01707e-19)
(-2.00121 0.193729 -1.00174e-19)
(-2.04446 0.187118 -4.92448e-20)
(-2.08699 0.181223 4.88271e-20)
(-2.12891 0.175995 -2.52136e-22)
(-2.17028 0.171387 4.73498e-20)
(-2.2112 0.167347 0)
(-2.25176 0.163826 4.62519e-20)
(-2.29201 0.160776 -2.5455e-22)
(-2.33204 0.158152 0)
(-2.3719 0.155907 0)
(-2.41165 0.153999 -4.43405e-20)
(-2.45134 0.152388 0)
(-2.49101 0.151035 0)
(-2.5307 0.149901 4.2819e-20)
(-2.57044 0.148949 8.54108e-20)
(-2.61025 0.148142 -4.26139e-20)
(-2.65014 0.147448 0)
(-2.69012 0.14683 4.191e-20)
(-2.73019 0.146251 0)
(-2.77034 0.145678 4.06564e-20)
(-2.81054 0.145074 4.09311e-20)
(-2.85079 0.14441 -8.06494e-20)
(-2.89104 0.143648 -3.9726e-20)
(-2.93125 0.14276 0)
(-2.97137 0.141712 7.89198e-20)
(-3.01135 0.140476 0)
(-3.05111 0.139016 1.17124e-19)
(-3.09057 0.137307 7.73953e-20)
(-3.12966 0.13531 7.69395e-20)
(-3.16827 0.133 -7.65121e-20)
(-3.20631 0.130343 1.14495e-19)
(-3.24365 0.127318 0)
(-3.28015 0.123889 0)
(-3.31567 0.12003 -7.50982e-20)
(-3.35005 0.115701 -1.12566e-19)
(-3.38315 0.110882 0)
(-3.41479 0.105536 3.75048e-20)
(-3.4448 0.0996417 0)
(-3.473 0.0931707 -1.11283e-19)
(-3.49921 0.0861252 -6.00775e-22)
(-3.52323 0.0784984 5.71731e-22)
(-3.54486 0.0703112 7.36308e-20)
(-3.56385 0.0615749 0)
(-3.57995 0.0523127 -7.35149e-20)
(-3.59292 0.0425124 -4.56777e-22)
(-3.60253 0.0321552 0)
(-3.60856 0.0212256 0)
(-3.61064 0.00973586 0)
(-3.60836 -0.00234275 7.30984e-20)
(-3.60128 -0.0149826 0)
(-3.58907 -0.0281412 0)
(-3.57139 -0.0417695 0)
(-3.54793 -0.0558296 0)
(-3.5184 -0.070252 0)
(-3.48251 -0.0849864 6.90436e-20)
(-3.44008 -0.0999626 0)
(-3.39087 -0.11512 6.63544e-20)
(-3.33476 -0.130356 6.46671e-20)
(-3.27156 -0.145537 -6.26954e-20)
(-3.20114 -0.160592 0)
(-3.12342 -0.175336 -5.78385e-20)
(-3.03848 -0.189641 0)
(-2.94631 -0.203414 -5.1609e-20)
(-2.84708 -0.216514 4.7927e-20)
(-2.741 -0.22889 1.3399e-19)
(-2.62833 -0.240395 0)
(-2.50945 -0.250928 1.0664e-19)
(-2.38477 -0.260395 3.25971e-20)
(-2.25476 -0.268713 0)
(-2.11996 -0.275811 3.91127e-20)
(-1.98094 -0.281635 2.65957e-20)
(-1.83833 -0.286146 -1.78601e-20)
(-1.6928 -0.289338 0)
(-1.545 -0.291212 9.91092e-21)
(-1.39561 -0.291781 1.75229e-20)
(-1.24524 -0.291068 7.10111e-20)
(-1.09452 -0.289137 0)
(-0.944078 -0.286077 0)
(-0.794495 -0.282023 0)
(-0.646316 -0.277109 5.30646e-20)
(-0.500019 -0.271466 0)
(-0.356015 -0.265223 0)
(-0.214661 -0.258521 -8.45117e-20)
(-0.0760323 -0.251588 -9.24013e-20)
(0.0595913 -0.244542 0)
(0.191523 -0.237187 0)
(0.319266 -0.229386 -2.18819e-19)
(0.44252 -0.221239 0)
(0.56103 -0.212759 2.37894e-19)
(0.674836 -0.203851 2.42428e-19)
(0.784237 -0.194595 0)
(0.889437 -0.185257 0)
(0.990496 -0.176011 -2.67165e-19)
(1.08745 -0.166974 -3.47237e-21)
(1.18037 -0.158214 -3.2668e-21)
(1.26933 -0.149774 0)
(1.35447 -0.141673 -5.9038e-19)
(1.4359 -0.133924 0)
(1.51371 -0.126535 0)
(1.58803 -0.119506 0)
(1.65898 -0.112833 3.16066e-19)
(1.72668 -0.1065 0)
(1.79127 -0.1005 -6.43585e-19)
(1.85289 -0.0948259 -3.27047e-19)
(1.91166 -0.0894788 0)
(1.96773 -0.0844401 -3.33036e-19)
(2.02125 -0.0796975 0)
(2.07235 -0.0752427 0)
(2.12115 -0.0710657 -1.01919e-18)
(2.16778 -0.0671532 6.83039e-19)
(2.21238 -0.0635008 0)
(2.25506 -0.0600922 6.90937e-19)
(2.29593 -0.0569144 -3.48236e-19)
(2.33514 -0.0539564 0)
(2.37279 -0.051209 0)
(2.40899 -0.0486616 0)
(2.44384 -0.0463011 -1.06045e-18)
(2.47744 -0.0441151 0)
(2.5099 -0.042089 -3.56264e-19)
(2.54129 -0.0402148 0)
(2.57171 -0.0384791 0)
(2.60122 -0.0368561 0)
(2.62988 -0.0353214 0)
(2.65773 -0.0338482 0)
(2.68477 -0.0323908 0)
(2.711 -0.0308927 -7.23461e-19)
(2.73632 -0.0292781 0)
(2.76061 -0.0274175 -3.63775e-19)
(2.78361 -0.0251114 1.09343e-18)
(2.80494 -0.0220172 0)
(2.8239 -0.0175269 0)
(2.83991 -0.0103656 -7.3901e-19)
(2.85101 0.00162795 -7.45974e-19)
(2.86144 0.0239432 7.49284e-19)
(2.86031 0.0660675 7.70307e-19)
(0.00758627 -0.225491 -1.297e-18)
(0.0200357 -0.209739 -5.74857e-19)
(0.0220773 -0.172235 -2.37254e-19)
(0.0212975 -0.134859 -8.88744e-20)
(0.0171439 -0.0981194 0)
(0.00928971 -0.0618637 1.31757e-19)
(-0.0022214 -0.0261015 -6.07847e-20)
(-0.0173467 0.00912287 0)
(-0.0361234 0.0437651 -5.48083e-20)
(-0.0586386 0.0776709 0)
(-0.0849593 0.110524 1.03157e-19)
(-0.115245 0.142073 0)
(-0.149768 0.172452 4.96183e-20)
(-0.188702 0.201899 9.75452e-20)
(-0.23207 0.23059 -9.58235e-20)
(-0.2798 0.258464 0)
(-0.331784 0.285335 -9.15047e-20)
(-0.387887 0.3114 0)
(-0.447663 0.336831 0)
(-0.510364 0.361508 -8.24819e-20)
(-0.575082 0.385044 0)
(-0.640982 0.406945 1.52736e-22)
(-0.707402 0.426546 0)
(-0.773767 0.443059 0)
(-0.839524 0.455865 -5.157e-23)
(-0.904233 0.464661 -6.45908e-20)
(-0.967547 0.469404 -6.20658e-20)
(-1.02921 0.470229 -5.97672e-20)
(-1.08906 0.467393 0)
(-1.14702 0.461255 -1.11127e-19)
(-1.20309 0.452256 0)
(-1.25735 0.440897 -5.19547e-20)
(-1.30993 0.427716 0)
(-1.36094 0.413227 0)
(-1.41051 0.397904 4.76124e-20)
(-1.45875 0.38217 0)
(-1.50575 0.366388 -4.52734e-20)
(-1.55161 0.350859 -9.9364e-23)
(-1.5964 0.335819 8.66925e-20)
(-1.64017 0.321449 -8.48395e-20)
(-1.683 0.307876 0)
(-1.72493 0.295183 0)
(-1.76602 0.283417 -4.00536e-20)
(-1.80633 0.272597 0)
(-1.84591 0.262717 -3.90502e-20)
(-1.88482 0.253754 3.84904e-20)
(-1.92312 0.245671 3.79651e-20)
(-1.96087 0.238426 0)
(-1.99813 0.231968 -3.70035e-20)
(-2.03497 0.226243 -3.65611e-20)
(-2.07143 0.221194 7.20042e-20)
(-2.10759 0.216767 -3.57405e-20)
(-2.14349 0.212907 -3.5358e-20)
(-2.1792 0.209558 0)
(-2.21476 0.206669 0)
(-2.25022 0.204188 3.4303e-20)
(-2.28563 0.202067 0)
(-2.32101 0.200257 0)
(-2.35641 0.198711 -6.67234e-20)
(-2.39186 0.197384 -6.61385e-20)
(-2.42736 0.196232 0)
(-2.46295 0.195212 0)
(-2.49863 0.194281 0)
(-2.5344 0.193393 0)
(-2.57026 0.192507 -6.34997e-20)
(-2.60622 0.191579 6.2641e-20)
(-2.64224 0.190567 6.25639e-20)
(-2.67831 0.189429 1.23854e-19)
(-2.71439 0.188123 0)
(-2.75045 0.186608 -3.89332e-22)
(-2.78644 0.184842 0)