/*--------------------------------*- C++ -*----------------------------------*\
  =========                 |
  \\      /  F ield         | OpenFOAM: The Open Source CFD Toolbox
   \\    /   O peration     | Website:  https://openfoam.org
    \\  /    A nd           | Version:  9
     \\/     M anipulation  |
\*---------------------------------------------------------------------------*/
FoamFile
{
    format      ascii;
    class       volScalarField;
    location    "1.8";
    object      epsilon;
}
// * * * * * * * * * * * * * * * * * * * * * * * * * * * * * * * * * * * * * //

dimensions      [0 2 -3 0 0 0 0];

internalField   nonuniform List<scalar> 
2268
(
0.00886565
0.0464921
0.084793
0.117965
0.147098
0.172781
0.195931
0.217054
0.236431
0.254287
0.27098
0.286805
0.301614
0.31519
0.325986
0.332007
0.330826
0.317876
0.289008
0.25063
0.196075
0.116717
0.0397783
0.0154653
0.0296547
0.0456955
0.0601869
0.073012
0.0845214
0.0949702
0.104516
0.113242
0.121223
0.12858
0.135434
0.141799
0.147681
0.152694
0.156235
0.157477
0.155287
0.148196
0.134205
0.111133
0.080258
0.0629301
0.0247431
0.0305455
0.0415248
0.0520052
0.0615847
0.0703429
0.0783931
0.0858138
0.0926497
0.098953
0.104815
0.110335
0.115556
0.120484
0.124936
0.128589
0.130972
0.131402
0.128912
0.122222
0.110412
0.0958285
0.110098
0.0350348
0.0341469
0.0424353
0.0510635
0.0592417
0.0668896
0.0740436
0.0807366
0.0869904
0.0928539
0.098423
0.103803
0.109054
0.114182
0.11908
0.123538
0.12724
0.129713
0.13032
0.128536
0.124758
0.123009
0.172555
0.0453042
0.0388252
0.0451993
0.0526508
0.0600164
0.0670982
0.073875
0.0803393
0.0864911
0.0923851
0.098139
0.103878
0.109672
0.115528
0.12138
0.127087
0.132424
0.137082
0.140772
0.143754
0.148057
0.161684
0.260924
0.0554706
0.0440937
0.0489632
0.0555643
0.0624074
0.0692089
0.0759
0.0824273
0.0887671
0.0949892
0.101251
0.107706
0.114428
0.121421
0.128654
0.136034
0.143402
0.150589
0.157694
0.165923
0.179728
0.215136
0.391299
0.0657357
0.0497606
0.0534017
0.0593632
0.0658789
0.0726111
0.0794465
0.086273
0.0930377
0.0998419
0.106904
0.114413
0.122439
0.130972
0.140025
0.149547
0.159414
0.169557
0.180487
0.194538
0.219638
0.288121
0.633362
0.0762527
0.0557622
0.0583822
0.0638662
0.0702194
0.077081
0.0842885
0.0916451
0.0990629
0.106701
0.114869
0.123798
0.133533
0.14405
0.155413
0.167616
0.180515
0.194068
0.209165
0.22931
0.266192
0.378686
1.35661
0.130987
0.40354
0.769452
0.940191
0.975398
0.948067
0.865278
0.7263
0.581519
0.460083
0.362477
0.279654
0.209807
0.155115
0.122764
0.110136
0.0951575
0.0674499
0.0330341
0.133606
0.260824
0.40378
0.457723
0.45837
0.438661
0.40418
0.35666
0.310114
0.263977
0.218685
0.178972
0.144079
0.114033
0.0918675
0.0790106
0.0677069
0.0506559
0.0418599
0.164865
0.278172
0.37537
0.399773
0.387717
0.363704
0.332683
0.296292
0.261454
0.22761
0.193668
0.162878
0.135207
0.110076
0.0902946
0.0778879
0.0687659
0.0581106
0.0637158
0.190427
0.33431
0.403282
0.40651
0.382053
0.350344
0.315494
0.279343
0.246271
0.215694
0.185845
0.158438
0.133576
0.110727
0.0924108
0.0805809
0.0728853
0.0674382
0.0938658
0.2554
0.430906
0.463412
0.440978
0.400922
0.358269
0.315951
0.276127
0.241787
0.211698
0.183381
0.157437
0.134016
0.112822
0.0958952
0.0847484
0.0781231
0.0771271
0.128248
0.450589
0.587019
0.550459
0.493129
0.433472
0.376689
0.324236
0.278732
0.241875
0.211237
0.183344
0.15805
0.135584
0.115835
0.100293
0.0899833
0.0842974
0.0870298
0.16697
1.08118
0.813943
0.655768
0.55564
0.47379
0.400375
0.33593
0.283785
0.244083
0.212571
0.184635
0.159742
0.138133
0.119688
0.105427
0.0961464
0.0914775
0.0969677
0.202064
2.21059
1.04383
0.756078
0.619964
0.516976
0.425521
0.348214
0.289369
0.247011
0.214679
0.18667
0.162316
0.141686
0.124394
0.111208
0.103135
0.0996842
0.107085
0.232594
0.0924323
0.0653399
0.0667303
0.0717275
0.0781037
0.0855227
0.0937242
0.102311
0.111132
0.120505
0.130951
0.142766
0.155911
0.170335
0.186191
0.20357
0.222151
0.241699
0.263569
0.292757
0.342652
0.45445
0.80394
0.117893
0.0807043
0.0806906
0.0853751
0.0924956
0.101879
0.112903
0.124461
0.136305
0.149377
0.164813
0.182896
0.203123
0.225391
0.250473
0.278563
0.307959
0.336852
0.366861
0.404802
0.463527
0.564126
0.742864
0.152685
0.1014
0.0989189
0.102994
0.111669
0.125
0.141219
0.15723
0.172972
0.191183
0.214285
0.241944
0.272081
0.304733
0.342882
0.387086
0.431185
0.468506
0.501883
0.542986
0.608825
0.714801
0.862139
0.219095
0.133654
0.123855
0.125815
0.137183
0.158215
0.183661
0.204869
0.224047
0.248707
0.283667
0.325601
0.367756
0.411803
0.468223
0.538634
0.602266
0.640656
0.666263
0.703186
0.782102
0.9241
1.10364
0.42319
0.167145
0.142112
0.14283
0.158433
0.186353
0.213266
0.233856
0.254699
0.285458
0.329202
0.377683
0.421331
0.469235
0.537331
0.622055
0.693846
0.733219
0.75155
0.785497
0.875843
1.02836
1.18169
0.427444
0.17392
0.14744
0.149882
0.162039
0.180469
0.199977
0.219388
0.241302
0.268209
0.301471
0.339635
0.380057
0.426718
0.482522
0.543275
0.598591
0.64089
0.678063
0.728867
0.818684
0.945565
1.02971
0.373802
0.176305
0.157151
0.15863
0.163915
0.173896
0.190067
0.210828
0.231634
0.252668
0.278097
0.30925
0.345423
0.387742
0.434024
0.482466
0.529609
0.572978
0.620869
0.681261
0.759462
0.846868
0.885367
0.321678
0.174057
0.156844
0.156198
0.159461
0.166356
0.179933
0.200331
0.220768
0.238911
0.258955
0.28492
0.3172
0.354937
0.394208
0.435248
0.478946
0.524595
0.579342
0.645178
0.715831
0.762304
0.774051
0.290481
0.166807
0.147673
0.146014
0.14923
0.155624
0.166919
0.183685
0.202344
0.220249
0.239395
0.263017
0.291933
0.323883
0.35722
0.393319
0.436315
0.487501
0.547617
0.61428
0.674664
0.708072
0.705136
0.270487
0.155208
0.137295
0.135264
0.138127
0.143935
0.153242
0.166425
0.181986
0.198483
0.216769
0.238525
0.263712
0.290763
0.319487
0.352582
0.394037
0.445238
0.503889
0.565131
0.616966
0.64344
0.63343
0.256637
0.14418
0.127867
0.125681
0.128066
0.133108
0.140756
0.151177
0.163829
0.178061
0.194178
0.213
0.234501
0.257915
0.283513
0.313538
0.350738
0.395607
0.445753
0.495929
0.536345
0.555419
0.545809
0.245684
0.135242
0.11992
0.117579
0.119472
0.123742
0.130054
0.138425
0.148689
0.160599
0.17427
0.190084
0.208107
0.22812
0.250549
0.27675
0.308213
0.344818
0.384265
0.42204
0.451337
0.464874
0.458401
0.236065
0.1281
0.113254
0.110733
0.11218
0.115764
0.121021
0.127873
0.136268
0.146132
0.157523
0.170626
0.185547
0.202318
0.221317
0.243292
0.268819
0.297436
0.327179
0.354651
0.375444
0.38535
0.382202
0.226396
0.121951
0.107438
0.104763
0.105831
0.108838
0.113264
0.118974
0.12593
0.134116
0.143566
0.154377
0.166647
0.18047
0.196102
0.214001
0.234212
0.256199
0.278419
0.298484
0.313616
0.321429
0.320849
0.216032
0.116161
0.10208
0.099306
0.100064
0.102591
0.106355
0.111189
0.117036
0.123885
0.13175
0.140682
0.150749
0.162035
0.174697
0.188982
0.204809
0.221719
0.238524
0.253613
0.265217
0.271912
0.273092
0.204727
0.110365
0.0968729
0.0940714
0.0945832
0.0967146
0.0999324
0.104052
0.10901
0.114782
0.121368
0.128785
0.137068
0.146272
0.156489
0.167845
0.180242
0.193311
0.206278
0.218067
0.227489
0.233585
0.235932
0.192225
0.104313
0.0915955
0.0888485
0.0891726
0.0909659
0.0937167
0.0972386
0.10146
0.106349
0.111891
0.118081
0.124928
0.132459
0.140726
0.149796
0.159604
0.169884
0.180123
0.189606
0.197543
0.20326
0.206372
0.178606
0.0979332
0.0861278
0.0835027
0.0836878
0.0851946
0.0875428
0.0905535
0.0941531
0.0983049
0.102984
0.108174
0.113865
0.120065
0.126803
0.134119
0.141985
0.15022
0.158489
0.166319
0.173166
0.178538
0.182083
0.163957
0.0912047
0.0804107
0.0779634
0.0780569
0.0793278
0.0813336
0.0839078
0.0869795
0.0905107
0.0944731
0.0988429
0.103603
0.10875
0.114297
0.120274
0.126678
0.133391
0.140196
0.146778
0.152761
0.157772
0.161505
0.148275
0.0840912
0.0744257
0.072216
0.0722688
0.0733573
0.0750819
0.0772914
0.0799205
0.0829334
0.0863024
0.0900025
0.0940137
0.0983272
0.10295
0.107903
0.113197
0.118756
0.12444
0.130039
0.135291
0.139915
0.143653
0.131813
0.0766075
0.0682002
0.0662957
0.0663642
0.0673281
0.0688351
0.0707516
0.0730202
0.0756092
0.078494
0.081652
0.0850642
0.0887202
0.092623
0.0967886
0.101231
0.1059
0.110705
0.115506
0.120119
0.124335
0.127945
0.115118
0.0688619
0.0618178
0.0602868
0.0604298
0.0613286
0.0626821
0.0643765
0.066363
0.0686156
0.0711142
0.07384
0.076777
0.0799156
0.0832566
0.0868119
0.0905927
0.0945647
0.0986675
0.102807
0.106854
0.110658
0.114052
0.0989678
0.0610753
0.0554287
0.054323
0.0545935
0.0554825
0.0567425
0.0582802
0.0600566
0.0620515
0.0642497
0.0666369
0.0692006
0.0719327
0.0748331
0.0779102
0.0811703
0.0845876
0.0881207
0.0917057
0.095254
0.0986549
0.101784
0.0842616
0.0535709
0.0492472
0.0485823
0.0490149
0.0499375
0.0511536
0.0525902
0.054218
0.0560223
0.0579923
0.0601179
0.0623899
0.0648019
0.0673535
0.0700509
0.0728943
0.0758631
0.0789282
0.082046
0.0851551
0.0881769
0.0910192
0.0718214
0.0467293
0.0435261
0.0432656
0.0438673
0.0448481
0.0460551
0.047433
0.0489603
0.0506269
0.052426
0.0543505
0.0563942
0.0585521
0.0608235
0.0632135
0.0657171
0.0683174
0.0709933
0.0737148
0.0764398
0.0791132
0.0816682
0.0621613
0.0408911
0.038504
0.0385613
0.03931
0.040354
0.0415709
0.0429179
0.044379
0.0459472
0.0476178
0.0493866
0.0512491
0.0532019
0.0552435
0.0573796
0.0596003
0.0618923
0.0642403
0.0666237
0.0690136
0.0713722
0.0736522
0.055347
0.0362596
0.0343494
0.0346094
0.0354637
0.0365609
0.037794
0.039126
0.0405429
0.0420391
0.0436113
0.0452566
0.0469721
0.0487555
0.0506051
0.0525258
0.0545062
0.056536
0.0586042
0.0606966
0.0627941
0.064871
0.0668948
0.0510697
0.032872
0.0311372
0.0314868
0.0323998
0.0335332
0.0347808
0.0361047
0.0374901
0.0389311
0.0404247
0.0419686
0.0435611
0.0452007
0.0468865
0.0486206
0.0503934
0.0521969
0.0540233
0.0558634
0.0577047
0.0595304
0.0613191
0.0488826
0.0306498
0.0288685
0.0292184
0.0301497
0.0313013
0.0325573
0.0338739
0.0352333
0.0366282
0.0380552
0.0395123
0.0409983
0.0425127
0.0440551
0.0456255
0.0472165
0.0488222
0.0504375
0.0520568
0.0536725
0.0552742
0.0568484
0.048419
0.0294837
0.0275137
0.0278052
0.0287247
0.0298779
0.0311327
0.0324374
0.0337701
0.0351215
0.0364874
0.0378662
0.0392568
0.0406593
0.0420739
0.0434987
0.0449285
0.0463595
0.0477889
0.0492136
0.0506293
0.0520305
0.0534091
0.0494851
0.0293025
0.0270547
0.0272521
0.0281372
0.0292747
0.0305146
0.0317967
0.0330953
0.0343993
0.035704
0.0370076
0.0383093
0.039609
0.0409072
0.0422006
0.043486
0.0447616
0.0460258
0.0472775
0.0485151
0.0497358
0.0509358
0.0520638
0.0301069
0.0275143
0.0275905
0.0284182
0.0295172
0.0307207
0.0319615
0.0332111
0.0344573
0.0356949
0.0369215
0.0381363
0.0393389
0.040528
0.0417008
0.0428554
0.0439912
0.0451076
0.0462046
0.0472823
0.0483399
0.0493759
0.056303
0.0319832
0.0289719
0.0288916
0.0296279
0.0306533
0.031787
0.0329573
0.0341343
0.0353051
0.0364635
0.0376066
0.0387324
0.0398394
0.0409237
0.0419838
0.0430185
0.0440273
0.0450103
0.0459681
0.0469013
0.0478105
0.0486957
0.0625361
0.0351147
0.0315757
0.031276
0.0318615
0.0327567
0.0337699
0.0348276
0.0358989
0.0369696
0.0380318
0.0390806
0.0401125
0.0411205
0.042102
0.0430551
0.0439781
0.0448703
0.0457318
0.0465631
0.0473651
0.0481388
0.0488847
0.0713524
0.039808
0.0355573
0.0349198
0.0352502
0.035925
0.0367445
0.037633
0.0385567
0.0394972
0.0404425
0.0413837
0.0423115
0.0432166
0.0440956
0.0449451
0.0457626
0.0465464
0.0472961
0.0480118
0.048694
0.0493436
0.0499611
0.0837309
0.0465473
0.0412544
0.0400559
0.0399529
0.0402708
0.0407978
0.041448
0.0421766
0.0429549
0.0437618
0.0445812
0.0453937
0.0461912
0.0469669
0.047715
0.0484314
0.0491132
0.049759
0.0503681
0.0509406
0.0514766
0.0519762
0.101297
0.0561038
0.0491419
0.0469636
0.046134
0.0459031
0.0460177
0.0463566
0.0468456
0.0474341
0.0480858
0.0487668
0.0494572
0.0501435
0.0508147
0.0514624
0.0520806
0.052665
0.0532132
0.0537234
0.0541951
0.0546276
0.0550201
0.126903
0.0697596
0.0598485
0.0559127
0.0539099
0.0528946
0.0524802
0.0524517
0.0526741
0.0530593
0.0535423
0.0540796
0.0546445
0.0552171
0.0557824
0.0563297
0.056851
0.057341
0.0577959
0.0582136
0.0585923
0.0589309
0.0592278
0.166232
0.0897185
0.074017
0.0669707
0.0632325
0.0612346
0.0602401
0.0598432
0.0598105
0.0599992
0.0603185
0.060716
0.0611558
0.0616132
0.0620706
0.0625156
0.0629392
0.0633351
0.0636992
0.0640285
0.064321
0.0645749
0.0647879
0.234081
0.119242
0.0914138
0.0794798
0.0736876
0.0707775
0.0693435
0.0686872
0.0684692
0.0685018
0.0686833
0.0689522
0.0692694
0.0696093
0.0699541
0.0702914
0.0706126
0.0709113
0.0711834
0.0714258
0.0716365
0.0718135
0.0719544
0.384508
0.157709
0.107851
0.0911269
0.0842643
0.0811851
0.0798942
0.0792512
0.0789867
0.0789405
0.0790208
0.0791745
0.0793694
0.0795846
0.0798061
0.080024
0.0802314
0.0804236
0.080597
0.0807493
0.0808788
0.0809839
0.0810629
0.760908
0.179851
0.112268
0.0979106
0.0929742
0.0911536
0.0922056
0.092031
0.0919037
0.0918625
0.0918754
0.0919202
0.0919832
0.0920556
0.0921315
0.0922067
0.0922784
0.0923445
0.0924036
0.0924548
0.0924973
0.0925305
0.0925539
2.80615
2.60526
2.65553
2.94689
0.976858
1.08071
1.1543
1.20049
0.992776
1.07995
1.15638
1.21862
1.25907
1.36746
1.45583
1.51104
1.29432
1.33139
1.3211
1.3035
1.05794
1.06517
1.06715
1.05823
0.892222
0.890619
0.870827
0.849787
0.763931
0.746171
0.723186
0.698774
0.676575
0.65231
0.624713
0.597801
0.600679
0.575837
0.550044
0.525362
0.519568
0.499741
0.478957
0.45871
0.440492
0.426764
0.411892
0.396683
0.37129
0.362605
0.352771
0.342224
0.314793
0.309635
0.30346
0.296505
0.270149
0.267297
0.263601
0.259186
0.234962
0.233601
0.231555
0.228887
0.206678
0.206299
0.205366
0.203908
0.183225
0.183508
0.183342
0.182737
0.163166
0.163888
0.164252
0.164254
0.145605
0.146603
0.147319
0.147744
0.130023
0.131175
0.132108
0.132812
0.116137
0.117352
0.118401
0.119273
0.103795
0.105008
0.106098
0.107054
0.0929076
0.0940756
0.0951539
0.0961331
0.0834081
0.0845044
0.0855366
0.0864971
0.0752336
0.0762443
0.0772099
0.0781246
0.0683181
0.0692373
0.0701254
0.070978
0.0625899
0.0634169
0.0642229
0.0650045
0.0579748
0.0587118
0.0594346
0.0601411
0.0544001
0.0550505
0.0556913
0.056321
0.0517998
0.0523676
0.0529284
0.0534815
0.0501211
0.0506101
0.0510936
0.0515711
0.0493292
0.0497435
0.0501525
0.050556
0.0494135
0.049757
0.0500946
0.0504263
0.050392
0.050669
0.0509389
0.0512017
0.0523166
0.052532
0.0527387
0.0529367
0.0552783
0.0554378
0.0555872
0.0557261
0.0594135
0.0595241
0.0596236
0.0597115
0.0649121
0.0649822
0.0650409
0.0650878
0.072029
0.0720676
0.072096
0.0721138
0.0810996
0.0811161
0.0811252
0.0811265
0.0925629
0.0925659
0.0925661
0.0925635
1.5245
1.05985
0.852029
0.709345
0.581152
0.460843
0.36435
0.296558
0.251076
0.217966
0.190325
0.167398
0.148695
0.133048
0.121155
0.115265
0.114162
0.123625
0.267345
1.16004
1.07135
0.975538
0.822136
0.637998
0.480067
0.370406
0.300547
0.255759
0.222574
0.196136
0.175338
0.159132
0.145651
0.135136
0.134151
0.138904
0.143603
0.258012
1.29902
1.26493
1.16077
0.848352
0.625242
0.471612
0.367895
0.302573
0.259659
0.227899
0.202404
0.18258
0.167911
0.156322
0.14786
0.153621
0.166815
0.15966
0.224224
1.45412
1.19166
1.02567
0.804877
0.601188
0.458445
0.363005
0.301918
0.261612
0.232421
0.208407
0.188971
0.175341
0.16489
0.157904
0.166771
0.180575
0.165017
0.205789
1.25122
1.18114
1.05225
0.781531
0.580429
0.450146
0.35763
0.298702
0.26024
0.233855
0.212445
0.194603
0.18336
0.17381
0.166657
0.171263
0.17725
0.167035
0.212006
1.03342
0.974933
0.885397
0.704929
0.543927
0.434068
0.350596
0.294208
0.256384
0.230986
0.212636
0.199069
0.193202
0.184688
0.178588
0.180898
0.176786
0.176308
0.278548
0.817331
0.763186
0.69214
0.592704
0.491031
0.407313
0.338262
0.288286
0.253473
0.228107
0.210383
0.201689
0.19718
0.192438
0.19296
0.199286
0.194633
0.200569
0.412874
0.661737
0.611837
0.555471
0.490541
0.426057
0.370066
0.314497
0.272857
0.245913
0.224418
0.20779
0.206419
0.208218
0.202004
0.204414
0.204265
0.19536
0.203782
0.42805
0.558464
0.512594
0.467063
0.418049
0.36995
0.325543
0.283821
0.251793
0.229636
0.21218
0.200526
0.202806
0.209294
0.207603
0.202872
0.197362
0.182605
0.189576
0.381502
0.488459
0.444066
0.40324
0.363195
0.324926
0.288304
0.255621
0.230677
0.211703
0.19746
0.18859
0.188859
0.193434
0.193474
0.188667
0.181647
0.174969
0.185616
0.323014
0.427562
0.38787
0.351138
0.317002
0.285658
0.256812
0.231723
0.211942
0.196134
0.183791
0.175273
0.171945
0.172213
0.171098
0.169131
0.166811
0.165325
0.176385
0.265356
0.372149
0.339643
0.308961
0.280321
0.25412
0.230673
0.210667
0.194606
0.181791
0.171293
0.162836
0.156905
0.15399
0.152564
0.152801
0.153709
0.1514
0.157416
0.224159
0.324409
0.299075
0.274284
0.250696
0.228897
0.209376
0.19261
0.178845
0.167783
0.158827
0.151149
0.144788
0.140906
0.139681
0.140608
0.142081
0.141009
0.144229
0.198833
0.284203
0.265245
0.245738
0.226552
0.20839
0.191799
0.177221
0.164911
0.154822
0.146588
0.139523
0.133587
0.1296
0.127878
0.128335
0.130546
0.131968
0.135241
0.17907
0.250968
0.237165
0.222108
0.206651
0.191507
0.177237
0.164293
0.152993
0.143454
0.135549
0.128897
0.123291
0.11901
0.116537
0.116274
0.118202
0.120594
0.124124
0.154726
0.223582
0.213751
0.202304
0.189968
0.177387
0.165096
0.153551
0.143112
0.134005
0.12628
0.119778
0.114255
0.109709
0.106522
0.105099
0.105539
0.106883
0.108936
0.126425
0.200684
0.193881
0.185337
0.175623
0.165276
0.15478
0.144575
0.135035
0.126443
0.118947
0.112513
0.106962
0.102186
0.098323
0.0956012
0.0941555
0.0935343
0.0933531
0.102868
0.181027
0.176547
0.170353
0.162863
0.154502
0.14569
0.13683
0.128287
0.120359
0.113237
0.106954
0.101394
0.0964189
0.0920089
0.088245
0.0852663
0.0830592
0.0818675
0.0909142
0.163659
0.16098
0.156695
0.151097
0.144511
0.137283
0.129768
0.122301
0.115166
0.108562
0.102557
0.0970872
0.0920353
0.0873337
0.0830107
0.0792326
0.0764394
0.0762082
0.0916985
0.147962
0.146677
0.143936
0.139938
0.134922
0.129161
0.122953
0.116589
0.110326
0.104351
0.0987507
0.093509
0.088559
0.0838641
0.0794879
0.0756999
0.0733478
0.0754288
0.0995318
0.133594
0.133364
0.131859
0.129194
0.12554
0.121105
0.116126
0.110845
0.105482
0.100209
0.0951212
0.0902441
0.0855709
0.0811291
0.0770597
0.0737616
0.0723712
0.0768267
0.11049
0.120422
0.120947
0.1204
0.118828
0.116331
0.113062
0.109204
0.104948
0.100479
0.0959456
0.0914496
0.0870485
0.0827885
0.0787603
0.0751801
0.0725534
0.0722026
0.0787528
0.122155
0.108416
0.109453
0.109611
0.108897
0.10736
0.105099
0.102239
0.0989271
0.0953139
0.0915304
0.0876753
0.0838282
0.0800747
0.0765535
0.0735368
0.0716042
0.0722027
0.0804167
0.132561
0.0975937
0.0989484
0.0996036
0.0995367
0.0987636
0.0973376
0.0953431
0.0928858
0.0900795
0.0870316
0.0838376
0.0805889
0.0773966
0.0744342
0.0720088
0.07075
0.0722022
0.0818101
0.141178
0.087974
0.0895014
0.0904849
0.0908874
0.0907013
0.0899493
0.0886812
0.0869679
0.0848924
0.0825413
0.0800026
0.0773718
0.0747722
0.0723922
0.0705642
0.0699555
0.0722011
0.083117
0.148079
0.079562
0.0811558
0.0823365
0.0830618
0.0833108
0.0830851
0.0824089
0.0813257
0.0798932
0.0781792
0.076261
0.0742319
0.0722181
0.0704146
0.0691616
0.0691375
0.072011
0.0838116
0.152268
0.0723396
0.0739249
0.0752034
0.0761342
0.0766899
0.0768597
0.07665
0.076084
0.0751992
0.0740466
0.0726918
0.0712216
0.0697587
0.0684949
0.0677658
0.0682432
0.0716002
0.0840151
0.155348
0.0662682
0.067793
0.0690952
0.0701385
0.0708947
0.0713465
0.0714892
0.0713317
0.0708962
0.0702195
0.0693552
0.0683825
0.0674136
0.066632
0.0663605
0.0672557
0.0709816
0.0837999
0.157009
0.0612936
0.0627225
0.0639934
0.0650763
0.0659456
0.0665818
0.0669746
0.0671237
0.0670404
0.0667496
0.0662992
0.0657508
0.0652046
0.0648317
0.0649447
0.0661779
0.0701755
0.0832122
0.15742
0.0573553
0.0586637
0.0598622
0.0609274
0.0618376
0.0625749
0.0631268
0.0634883
0.063663
0.0636732
0.06355
0.0633443
0.0631451
0.0631089
0.0635283
0.0650241
0.0692103
0.0823209
0.156818
0.054394
0.0555651
0.0566599
0.0576612
0.0585525
0.0593189
0.0599489
0.0604364
0.060783
0.0610042
0.061121
0.0611762
0.0612477
0.0614768
0.062136
0.0638201
0.0681256
0.0812124
0.155455
0.0523605
0.0533823
0.0543491
0.0552492
0.0560708
0.0568032
0.057438
0.0579705
0.0584052
0.0587499
0.0590225
0.0592592
0.0595278
0.0599553
0.0607949
0.0626151
0.0669762
0.0799769
0.153715
0.0512225
0.0520867
0.0529065
0.0536743
0.0543823
0.055024
0.0555956
0.0560973
0.0565356
0.0569188
0.0572648
0.0576064
0.0580032
0.0585692
0.05954
0.0614587
0.0658396
0.0786944
0.151771
0.0509717
0.0516732
0.0523317
0.0529415
0.0534973
0.0539958
0.0544383
0.0548322
0.0551892
0.0555246
0.0558618
0.0562334
0.0566935
0.0573452
0.0584078
0.0603991
0.0647808
0.0773944
0.148819
0.0516296
0.052167
0.0526548
0.0530867
0.0534568
0.053763
0.0540102
0.0542146
0.0543985
0.0545927
0.0548334
0.0551591
0.0556205
0.0563108
0.0574335
0.0594813
0.0638603
0.0762088
0.145454
0.0532532
0.0536302
0.0539447
0.0541865
0.0543452
0.0544144
0.0543988
0.0543223
0.0542252
0.0541658
0.0542088
0.0544066
0.0548083
0.0554961
0.0566576
0.0587631
0.0631815
0.0754912
0.144728
0.0559408
0.0561683
0.0563168
0.0563687
0.0563031
0.0561011
0.0557565
0.055294
0.0547783
0.0543143
0.0540284
0.0540021
0.054282
0.0549349
0.0561316
0.0583287
0.0628947
0.0755619
0.147747
0.0598382
0.0599364
0.05994
0.0598211
0.059542
0.0590586
0.0583346
0.0573721
0.0562526
0.0551525
0.0543446
0.0539693
0.0540607
0.0546567
0.0559095
0.0582789
0.0631836
0.0767162
0.155316
0.0651452
0.0651451
0.0650421
0.0647981
0.064355
0.0636315
0.0625317
0.0609802
0.0590126
0.0568681
0.0552188
0.0543165
0.0541423
0.0546691
0.0560261
0.0587098
0.06428
0.0794906
0.169215
0.0721245
0.0720672
0.0719134
0.0716205
0.0711163
0.0702834
0.0689429
0.0668514
0.0637644
0.0597415
0.0566922
0.055008
0.0544791
0.0549306
0.0564587
0.0596675
0.0664738
0.0848396
0.191154
0.0811152
0.0810477
0.0809101
0.0806679
0.0802571
0.0795574
0.0783385
0.0761258
0.0718894
0.06399
0.0586442
0.0558927
0.0549389
0.0553127
0.0570592
0.0610038
0.0698839
0.093951
0.227236
0.0925543
0.0925233
0.0924676
0.0923748
0.0922197
0.0919483
0.0914237
0.0901823
0.0862087
0.068793
0.0603638
0.0565609
0.0552504
0.0555553
0.0574576
0.0620436
0.0734348
0.109971
0.27911
)
;

boundaryField
{
    leftWall
    {
        type            epsilonWallFunction;
        value           nonuniform List<scalar> 
50
(
0.00886565
0.0154653
0.0247431
0.0350348
0.0453042
0.0554706
0.0657357
0.0762527
0.0924323
0.117893
0.152685
0.219095
0.42319
0.427444
0.373802
0.321678
0.290481
0.270487
0.256637
0.245684
0.236065
0.226396
0.216032
0.204727
0.192225
0.178606
0.163957
0.148275
0.131813
0.115118
0.0989678
0.0842616
0.0718214
0.0621613
0.055347
0.0510697
0.0488826
0.048419
0.0494851
0.0520638
0.056303
0.0625361
0.0713524
0.0837309
0.101297
0.126903
0.166232
0.234081
0.384508
0.760908
)
;
    }
    rightWall
    {
        type            epsilonWallFunction;
        value           nonuniform List<scalar> 
50
(
0.0330341
0.0418599
0.0637158
0.0938658
0.128248
0.16697
0.202064
0.232594
0.267345
0.258012
0.224224
0.205789
0.212006
0.278548
0.412874
0.42805
0.381502
0.323014
0.265356
0.224159
0.198833
0.17907
0.154726
0.126425
0.102868
0.0909142
0.0916985
0.0995318
0.11049
0.122155
0.132561
0.141178
0.148079
0.152268
0.155348
0.157009
0.15742
0.156818
0.155455
0.153715
0.151771
0.148819
0.145454
0.144728
0.147747
0.155316
0.169215
0.191154
0.227236
0.27911
)
;
    }
    lowerWall
    {
        type            epsilonWallFunction;
        value           nonuniform List<scalar> 
62
(
0.00886565
0.0464921
0.084793
0.117965
0.147098
0.172781
0.195931
0.217054
0.236431
0.254287
0.27098
0.286805
0.301614
0.31519
0.325986
0.332007
0.330826
0.317876
0.289008
0.25063
0.196075
0.116717
0.0397783
0.0397783
0.0629301
0.110098
0.172555
0.260924
0.391299
0.633362
1.35661
2.80615
2.60526
2.65553
2.94689
0.130987
0.133606
0.164865
0.190427
0.2554
0.450589
1.08118
2.21059
0.130987
0.40354
0.769452
0.940191
0.975398
0.948067
0.865278
0.7263
0.581519
0.460083
0.362477
0.279654
0.209807
0.155115
0.122764
0.110136
0.0951575
0.0674499
0.0330341
)
;
    }
    atmosphere
    {
        type            inletOutlet;
        inletValue      uniform 0.1;
        value           nonuniform List<scalar> 
46
(
0.760908
0.179851
0.112268
0.0979106
0.0929742
0.0911536
0.1
0.1
0.1
0.1
0.1
0.1
0.1
0.1
0.1
0.1
0.1
0.1
0.1
0.1
0.1
0.1
0.1
0.1
0.1
0.1
0.1
0.1
0.1
0.1
0.1
0.1
0.1
0.1
0.1
0.1
0.068793
0.0603638
0.0565609
0.0552504
0.0555553
0.0574576
0.0620436
0.0734348
0.109971
0.27911
)
;
    }
    defaultFaces
    {
        type            empty;
    }
}


// ************************************************************************* //
