/*--------------------------------*- C++ -*----------------------------------*\
  =========                 |
  \\      /  F ield         | OpenFOAM: The Open Source CFD Toolbox
   \\    /   O peration     | Website:  https://openfoam.org
    \\  /    A nd           | Version:  9
     \\/     M anipulation  |
\*---------------------------------------------------------------------------*/
FoamFile
{
    format      ascii;
    class       volVectorField;
    location    "1.9";
    object      U;
}
// * * * * * * * * * * * * * * * * * * * * * * * * * * * * * * * * * * * * * //

dimensions      [0 1 -1 0 0 0 0];

internalField   nonuniform List<vector> 
6400
(
(6.0324e-05 -6.09699e-05 -1.04616e-06)
(0.000152992 -5.44871e-05 4.65536e-05)
(0.000144722 -4.58691e-06 0.000156408)
(-1.96447e-05 5.24635e-05 0.00030079)
(-0.00034304 0.000104352 0.000453376)
(-0.000805884 0.000146971 0.000595515)
(-0.00138209 0.000179581 0.000714077)
(-0.00204419 0.000202744 0.000800185)
(-0.00276554 0.000217396 0.000848233)
(-0.00352121 0.000224507 0.00085506)
(-0.00428834 0.000224956 0.000819323)
(-0.00504609 0.000219501 0.000741059)
(-0.00577558 0.000208778 0.000621374)
(-0.00645964 0.000193319 0.000462239)
(-0.00708275 0.00017358 0.000266373)
(-0.00763088 0.000149972 3.7174e-05)
(-0.00809149 0.000122895 -0.000221309)
(-0.0084536 9.27708e-05 -0.000504394)
(-0.00870789 6.00725e-05 -0.000806772)
(-0.00884696 2.53509e-05 -0.00112254)
(-0.00886553 -1.07477e-05 -0.00144523)
(-0.00876079 -4.74696e-05 -0.00176792)
(-0.0085327 -8.39502e-05 -0.00208332)
(-0.00818427 -0.000119221 -0.00238396)
(-0.00772182 -0.000152229 -0.0026624)
(-0.00715519 -0.000181859 -0.00291147)
(-0.0064978 -0.000206975 -0.00312456)
(-0.00576659 -0.000226457 -0.00329591)
(-0.00498188 -0.000239248 -0.00342096)
(-0.00416698 -0.000244403 -0.00349667)
(-0.00334773 -0.000241128 -0.00352181)
(-0.00255183 -0.000228823 -0.00349729)
(-0.00180806 -0.00020711 -0.00342643)
(-0.00114528 -0.00017588 -0.00331523)
(-0.000591182 -0.000135404 -0.00317275)
(-0.000170554 -8.66271e-05 -0.00301138)
(9.73112e-05 -3.1989e-05 -0.00284717)
(0.000203834 2.27925e-05 -0.00270039)
(0.000167213 6.41607e-05 -0.00259674)
(5.89174e-05 5.86984e-05 -0.00221421)
(5.58786e-05 -0.000155177 -4.9558e-05)
(5.53737e-05 -5.30362e-05 -1.49901e-06)
(-0.000223732 0.000204713 0.000101739)
(-0.00085141 0.000498004 0.000231881)
(-0.0018342 0.000775312 0.000368919)
(-0.00313986 0.00101306 0.000496717)
(-0.00471637 0.00120218 0.000603036)
(-0.00650331 0.00134089 0.000678976)
(-0.00843807 0.00143083 0.000718459)
(-0.0104593 0.00147508 0.000717711)
(-0.0125086 0.00147724 0.0006748)
(-0.0145315 0.00144091 0.000589268)
(-0.0164778 0.00136956 0.000461843)
(-0.0183012 0.00126638 0.000294254)
(-0.0199599 0.00113443 8.90901e-05)
(-0.021416 0.00097664 -0.000150273)
(-0.0226361 0.00079603 -0.000419721)
(-0.023591 0.000595794 -0.000714434)
(-0.0242566 0.000379461 -0.00102892)
(-0.024614 0.000151004 -0.00135704)
(-0.0246505 -8.50729e-05 -0.0016921)
(-0.0243598 -0.000323693 -0.00202694)
(-0.0237433 -0.000559211 -0.00235407)
(-0.0228102 -0.000785467 -0.00266584)
(-0.0215785 -0.000995905 -0.00295468)
(-0.0200748 -0.00118374 -0.00321337)
(-0.0183348 -0.00134216 -0.00343532)
(-0.0164031 -0.00146461 -0.0036149)
(-0.0143322 -0.00154506 -0.00374776)
(-0.0121819 -0.0015783 -0.00383114)
(-0.0100177 -0.00156025 -0.00386422)
(-0.00790888 -0.0014883 -0.00384837)
(-0.00592645 -0.00136162 -0.00378737)
(-0.00413989 -0.00118164 -0.00368767)
(-0.00261363 -0.000952808 -0.00355852)
(-0.00140209 -0.00068406 -0.00341202)
(-0.000543041 -0.000391987 -0.00326308)
(-4.71635e-05 -0.000106643 -0.00312924)
(0.000120782 0.000116902 -0.00303115)
(6.54127e-05 0.00016716 -0.00252182)
(8.338e-06 -0.000150828 -0.000160441)
(-0.000198914 0.000224282 -0.000103913)
(-0.000876465 0.000877251 1.02045e-06)
(-0.00205255 0.00160221 0.00011887)
(-0.00372024 0.0022944 0.000238402)
(-0.0058366 0.00289747 0.000347361)
(-0.00833201 0.00338458 0.000436325)
(-0.0111236 0.00374613 0.000498251)
(-0.0141235 0.00398199 0.0005281)
(-0.0172435 0.00409697 0.000522603)
(-0.020398 0.00409837 0.000479982)
(-0.0235059 0.00399443 0.000399693)
(-0.0264917 0.00379367 0.000282232)
(-0.0292854 0.00350451 0.000128988)
(-0.0318232 0.00313531 -5.7859e-05)
(-0.0340476 0.00269445 -0.000275396)
(-0.0359077 0.00219064 -0.000520022)
(-0.0373598 0.0016332 -0.000787469)
(-0.0383676 0.00103235 -0.00107283)
(-0.0389034 0.000399463 -0.00137062)
(-0.0389488 -0.000252734 -0.0016748)
(-0.0384955 -0.000910106 -0.00197892)
(-0.0375467 -0.00155714 -0.00227622)
(-0.0361173 -0.00217712 -0.00255979)
(-0.0342351 -0.00275242 -0.00282283)
(-0.0319409 -0.003265 -0.00305882)
(-0.0292886 -0.00369692 -0.00326187)
(-0.0263447 -0.00403109 -0.00342696)
(-0.0231874 -0.00425197 -0.00355023)
(-0.0199049 -0.00434643 -0.00362933)
(-0.0165932 -0.00430463 -0.00366359)
(-0.0133536 -0.00412092 -0.00365435)
(-0.0102883 -0.00379487 -0.00360503)
(-0.0074967 -0.00333263 -0.0035213)
(-0.00506959 -0.00274878 -0.00341108)
(-0.00308248 -0.00206962 -0.00328441)
(-0.00158698 -0.00133891 -0.00315332)
(-0.000598849 -0.000627154 -0.00303165)
(-8.72908e-05 -4.6172e-05 -0.00293272)
(2.81641e-05 0.000209276 -0.00241867)
(-4.79931e-05 8.24206e-06 -0.000309232)
(-0.000500089 0.000856598 -0.000234913)
(-0.00163406 0.00205875 -0.00011258)
(-0.00340404 0.00334638 8.35093e-06)
(-0.00577424 0.0045682 0.000124536)
(-0.00868599 0.00563533 0.000226563)
(-0.0120525 0.00650091 0.000307535)
(-0.0157726 0.00714498 0.000362334)
(-0.0197387 0.00756369 0.00038718)
(-0.0238419 0.00776265 0.000379576)
(-0.0279758 0.00775266 0.000338159)
(-0.0320383 0.00754717 0.000262534)
(-0.0359335 0.00716083 0.000153148)
(-0.0395724 0.00660877 1.12006e-05)
(-0.0428734 0.00590644 -0.000161421)
(-0.0457629 0.0050697 -0.000362177)
(-0.0481759 0.00411526 -0.000587892)
(-0.0500565 0.00306103 -0.000834768)
(-0.051359 0.00192666 -0.0010984)
(-0.0520484 0.000733876 -0.00137382)
(-0.0521019 -0.00049323 -0.00165552)
(-0.0515097 -0.0017281 -0.00193758)
(-0.0502765 -0.0029418 -0.00221376)
(-0.0484221 -0.00410341 -0.00247765)
(-0.0459822 -0.00518053 -0.00272292)
(-0.0430089 -0.00614018 -0.00294348)
(-0.0395707 -0.00694979 -0.0031338)
(-0.0357514 -0.00757846 -0.00328915)
(-0.0316495 -0.00799842 -0.00340588)
(-0.0273755 -0.00818645 -0.00348172)
(-0.0230497 -0.00812561 -0.00351594)
(-0.0187978 -0.00780691 -0.00350961)
(-0.0147472 -0.00723123 -0.00346565)
(-0.0110206 -0.00641165 -0.00338894)
(-0.00773035 -0.00537649 -0.00328615)
(-0.0049706 -0.00417394 -0.00316555)
(-0.00280843 -0.00287934 -0.00303694)
(-0.00127158 -0.0016059 -0.00291175)
(-0.000350036 -0.000519007 -0.00279677)
(-2.00077e-05 0.000120395 -0.00227042)
(-0.000102445 0.000333432 -0.000471974)
(-0.000805596 0.00187278 -0.00037589)
(-0.00241441 0.00377761 -0.000228684)
(-0.00479495 0.00574294 -9.68288e-05)
(-0.00787247 0.00758382 2.35352e-05)
(-0.0115668 0.00918499 0.000125237)
(-0.0157719 0.0104818 0.000203639)
(-0.0203687 0.011444 0.000255485)
(-0.0252328 0.0120636 0.00027829)
(-0.0302383 0.0123466 0.00027042)
(-0.0352618 0.0123071 0.000231037)
(-0.0401847 0.0119642 0.000160008)
(-0.0448948 0.0113392 5.78281e-05)
(-0.0492877 0.0104549 -7.44154e-05)
(-0.0532677 0.00933532 -0.000235066)
(-0.0567481 0.00800525 -0.000421901)
(-0.0596524 0.00649116 -0.000632126)
(-0.061915 0.00482159 -0.000862367)
(-0.063482 0.00302773 -0.00110867)
(-0.0643126 0.00114398 -0.0013665)
(-0.0643803 -0.000791691 -0.00163081)
(-0.0636738 -0.0027377 -0.0018961)
(-0.0621986 -0.00464901 -0.00215653)
(-0.0599781 -0.00647764 -0.00240604)
(-0.0570541 -0.00817363 -0.00263858)
(-0.0534873 -0.00968625 -0.00284832)
(-0.0493574 -0.0109656 -0.00302989)
(-0.044762 -0.0119646 -0.00317865)
(-0.0398155 -0.0126409 -0.00329096)
(-0.0346465 -0.0129598 -0.00336443)
(-0.0293946 -0.0128958 -0.00339811)
(-0.0242061 -0.0124364 -0.00339268)
(-0.0192292 -0.011584 -0.00335051)
(-0.0146074 -0.0103597 -0.00327565)
(-0.0104731 -0.0088071 -0.00317366)
(-0.00693965 -0.00699757 -0.00305127)
(-0.00409335 -0.00503815 -0.00291648)
(-0.00198062 -0.00308163 -0.00277905)
(-0.000622683 -0.0013384 -0.00263986)
(-6.74231e-05 -0.000115522 -0.00209811)
(-0.00015209 0.000817975 -0.000631305)
(-0.00109857 0.00327295 -0.000511071)
(-0.00317832 0.00604016 -0.000334814)
(-0.00616692 0.00879797 -0.000186701)
(-0.00994561 0.0113407 -5.66243e-05)
(-0.0144082 0.013535 4.99077e-05)
(-0.0194265 0.0153027 0.000130173)
(-0.0248631 0.0166057 0.000182604)
(-0.0305772 0.017433 0.000205943)
(-0.0364281 0.0177912 0.000199426)
(-0.0422779 0.0176985 0.000162782)
(-0.0479944 0.0171796 9.61928e-05)
(-0.0534525 0.0162634 2.66362e-07)
(-0.0585353 0.0149813 -0.000123963)
(-0.0631355 0.0133665 -0.000275015)
(-0.0671561 0.0114542 -0.000450937)
(-0.0705112 0.00928204 -0.000649264)
(-0.073127 0.00689066 -0.000866989)
(-0.0749431 0.00432453 -0.00110054)
(-0.0759134 0.00163252 -0.00134577)
(-0.0760076 -0.0011316 -0.00159799)
(-0.075213 -0.00390915 -0.001852)
(-0.0735348 -0.00663678 -0.00210223)
(-0.0709985 -0.00924726 -0.00234285)
(-0.0676499 -0.0116707 -0.00256793)
(-0.0635559 -0.0138363 -0.0027717)
(-0.0588046 -0.0156746 -0.00294877)
(-0.0535044 -0.0171199 -0.0030944)
(-0.0477822 -0.0181136 -0.00320476)
(-0.0417816 -0.0186072 -0.00327719)
(-0.0356587 -0.0185659 -0.00331039)
(-0.0295779 -0.0179722 -0.00330454)
(-0.0237066 -0.0168299 -0.0032614)
(-0.0182084 -0.0151676 -0.00318425)
(-0.0132363 -0.0130443 -0.00307769)
(-0.00892554 -0.0105538 -0.00294722)
(-0.0053855 -0.00783288 -0.00279951)
(-0.00268675 -0.00506938 -0.00264338)
(-0.000887507 -0.00251034 -0.00247476)
(-0.000110695 -0.000494136 -0.00191646)
(-0.000196861 0.00145134 -0.000774104)
(-0.00137417 0.00504448 -0.000627363)
(-0.00391028 0.00883597 -0.000420152)
(-0.00749358 0.0125015 -0.000252573)
(-0.0119597 0.0158261 -0.000109149)
(-0.0171737 0.0186664 5.81097e-06)
(-0.0229832 0.0209368 9.11739e-05)
(-0.029231 0.0225949 0.00014685)
(-0.0357601 0.0236288 0.0001727)
(-0.0424155 0.0240475 0.000168776)
(-0.0490469 0.0238737 0.000135366)
(-0.0555103 0.0231389 7.29788e-05)
(-0.0616698 0.0218802 -1.76384e-05)
(-0.0673986 0.0201382 -0.000135469)
(-0.0725801 0.0179564 -0.000279175)
(-0.0771087 0.0153813 -0.000447031)
(-0.0808908 0.0124624 -0.000636863)
(-0.0838459 0.00925387 -0.000845984)
(-0.0859077 0.00581449 -0.00107115)
(-0.0870251 0.002209 -0.00130852)
(-0.0871644 -0.00149164 -0.00155369)
(-0.08631 -0.00521011 -0.00180169)
(-0.0844664 -0.0088631 -0.0020471)
(-0.0816591 -0.0123623 -0.00228416)
(-0.077936 -0.0156161 -0.00250694)
(-0.073368 -0.0185315 -0.00270957)
(-0.068049 -0.0210173 -0.00288647)
(-0.0620954 -0.0229873 -0.00303264)
(-0.0556445 -0.0243641 -0.00314389)
(-0.0488525 -0.0250839 -0.00321712)
(-0.0418903 -0.0251001 -0.00325055)
(-0.0349395 -0.0243891 -0.00324381)
(-0.0281863 -0.0229541 -0.003198)
(-0.0218152 -0.0208304 -0.0031157)
(-0.016002 -0.0180904 -0.0030007)
(-0.0109067 -0.014849 -0.00285754)
(-0.00666562 -0.0112696 -0.00269203)
(-0.00337753 -0.00757061 -0.00251266)
(-0.00114019 -0.00402937 -0.00231133)
(-0.000149586 -0.00100703 -0.00173554)
(-0.000237584 0.00222319 -0.000890125)
(-0.0016328 0.00717059 -0.000713695)
(-0.00460692 0.0121477 -0.000475069)
(-0.00876649 0.0168367 -0.000286391)
(-0.0139022 0.0210224 -0.000127502)
(-0.0198489 0.0245593 -1.85015e-06)
(-0.0264286 0.0273603 9.0749e-05)
(-0.0334636 0.0293831 0.000151484)
(-0.0407803 0.0306181 0.000181205)
(-0.0482099 0.0310787 0.000180704)
(-0.0555905 0.030794 0.000150781)
(-0.0627679 0.0298032 9.22576e-05)
(-0.0695969 0.0281524 6.01525e-06)
(-0.0759427 0.0258922 -0.000106937)
(-0.081681 0.0230773 -0.000245381)
(-0.0866993 0.0197656 -0.000407801)
(-0.0908976 0.01602 -0.000592279)
(-0.0941895 0.0119082 -0.000796413)
(-0.0965033 0.00750435 -0.00101724)
(-0.0977833 0.00288985 -0.00125119)
(-0.0979916 -0.00184621 -0.00149406)
(-0.0971091 -0.00660683 -0.00174103)
(-0.0951378 -0.0112876 -0.00198674)
(-0.0921019 -0.0157777 -0.0022254)
(-0.0880493 -0.019962 -0.00245095)
(-0.0830525 -0.0237237 -0.00265729)
(-0.077209 -0.0269478 -0.0028385)
(-0.0706409 -0.0295251 -0.00298915)
(-0.0634939 -0.0313574 -0.00310454)
(-0.0559351 -0.0323625 -0.00318101)
(-0.0481495 -0.0324801 -0.00321614)
(-0.0403355 -0.0316774 -0.00320893)
(-0.032699 -0.0299551 -0.00315984)
(-0.0254473 -0.0273526 -0.00307075)
(-0.0187811 -0.0239536 -0.0029448)
(-0.0128887 -0.0198913 -0.00278582)
(-0.00793684 -0.015353 -0.00259915)
(-0.00405553 -0.0105841 -0.00239341)
(-0.00138308 -0.00588842 -0.00215726)
(-0.00018516 -0.00164681 -0.00156235)
(-0.00027519 0.0031246 -0.000971054)
(-0.00187665 0.00963435 -0.000760528)
(-0.00527022 0.0159559 -0.000490809)
(-0.00998607 0.021784 -0.000280398)
(-0.0157714 0.02691 -0.000104959)
(-0.022431 0.0311936 3.26841e-05)
(-0.0297605 0.0345516 0.000133823)
(-0.0375611 0.0369469 0.000200751)
(-0.0456424 0.0383755 0.000235182)
(-0.0538221 0.0388581 0.00023856)
(-0.0619273 0.038432 0.000212143)
(-0.0697945 0.0371458 0.000157023)
(-0.077271 0.0350555 7.41977e-05)
(-0.0842148 0.0322228 -3.53408e-05)
(-0.0904957 0.0287136 -0.000170495)
(-0.0959953 0.0245985 -0.000329941)
(-0.100608 0.0199533 -0.000512009)
(-0.104243 0.0148602 -0.000714558)
(-0.106823 0.00940895 -0.000934879)
(-0.108288 0.00369785 -0.00116962)
(-0.108594 -0.00216538 -0.00141474)
(-0.107719 -0.00806344 -0.0016655)
(-0.105659 -0.0138699 -0.00191655)
(-0.102438 -0.0194506 -0.00216195)
(-0.0980992 -0.0246655 -0.00239543)
(-0.0927155 -0.0293721 -0.0026105)
(-0.0863854 -0.0334294 -0.00280078)
(-0.0792348 -0.0367029 -0.00296026)
(-0.071416 -0.0390706 -0.0030836)
(-0.0631058 -0.0404291 -0.0031664)
(-0.0545026 -0.0407008 -0.00320552)
(-0.0458219 -0.0398406 -0.0031992)
(-0.0372909 -0.0378431 -0.00314719)
(-0.0291412 -0.0347488 -0.00305075)
(-0.0216021 -0.0306499 -0.00291246)
(-0.014893 -0.0256947 -0.00273565)
(-0.0092147 -0.0200919 -0.00252548)
(-0.00473099 -0.014112 -0.00229111)
(-0.00162144 -0.00808375 -0.00201847)
(-0.000218833 -0.00240869 -0.00140172)
(-0.000310472 0.00414826 -0.0010098)
(-0.00210825 0.0124203 -0.00075942)
(-0.00590409 0.0202417 -0.000459329)
(-0.0111565 0.0273232 -0.000227177)
(-0.0175713 0.033469 -3.48066e-05)
(-0.0249234 0.038549 0.000115431)
(-0.0329822 0.0424903 0.000225775)
(-0.0415277 0.045265 0.000299489)
(-0.0503525 0.0468793 0.000339038)
(-0.0592612 0.0473638 0.000346435)
(-0.0680704 0.0467666 0.000323329)
(-0.0766084 0.0451472 0.000271039)
(-0.0847156 0.042573 0.000190645)
(-0.0922447 0.0391174 8.31001e-05)
(-0.0990601 0.0348582 -5.06301e-05)
(-0.105039 0.0298789 -0.000209423)
(-0.110072 0.0242686 -0.000391846)
(-0.114062 0.0181237 -0.000596017)
(-0.116928 0.0115494 -0.000819465)
(-0.118604 0.00466118 -0.00105904)
(-0.119042 -0.00241479 -0.00131082)
(-0.118213 -0.00954073 -0.00157013)
(-0.116109 -0.0165679 -0.00183152)
(-0.112747 -0.0233377 -0.00208888)
(-0.108167 -0.0296842 -0.0023356)
(-0.102439 -0.0354376 -0.00256472)
(-0.09566 -0.0404287 -0.00276926)
(-0.0879572 -0.044495 -0.00294248)
(-0.0794878 -0.0474871 -0.00307822)
(-0.0704373 -0.0492767 -0.00317124)
(-0.0610169 -0.0497649 -0.00321748)
(-0.05146 -0.0488901 -0.00321434)
(-0.0420159 -0.0466366 -0.00316079)
(-0.0329436 -0.0430419 -0.00305744)
(-0.0245034 -0.0382029 -0.00290638)
(-0.01695 -0.0322805 -0.00271061)
(-0.0105213 -0.0255025 -0.00247531)
(-0.00541781 -0.0181633 -0.00221054)
(-0.00186163 -0.0106177 -0.0018998)
(-0.000252043 -0.00329136 -0.00125709)
(-0.000344037 0.00528833 -0.00100002)
(-0.00232991 0.0155149 -0.000702669)
(-0.00651269 0.0249872 -0.000373115)
(-0.0122832 0.0334348 -0.000119595)
(-0.0193075 0.0406788 8.96164e-05)
(-0.0273314 0.0466051 0.000252551)
(-0.0360986 0.0511557 0.000372289)
(-0.0453678 0.054317 0.000452957)
(-0.054915 0.056109 0.000497686)
(-0.0645321 0.0565761 0.000508977)
(-0.0740258 0.0557793 0.000488812)
(-0.083217 0.0537913 0.000438688)
(-0.0919405 0.0506921 0.000359724)
(-0.100044 0.0465676 0.000252805)
(-0.107389 0.0415085 0.00011874)
(-0.113848 0.0356107 -4.15657e-05)
(-0.119309 0.0289767 -0.000226935)
(-0.12367 0.0217169 -0.000435746)
(-0.126845 0.0139516 -0.000665772)
(-0.128764 0.00581258 -0.000914054)
(-0.129371 -0.00255573 -0.0011768)
(-0.128632 -0.0109954 -0.00144934)
(-0.126532 -0.0193353 -0.00172613)
(-0.123078 -0.0273921 -0.00200081)
(-0.118307 -0.0349731 -0.00226635)
(-0.112281 -0.0418794 -0.00251522)
(-0.105093 -0.0479115 -0.00273971)
(-0.0968713 -0.0528754 -0.00293222)
(-0.0877742 -0.0565911 -0.00308561)
(-0.0779948 -0.0589007 -0.00319359)
(-0.0677567 -0.0596789 -0.00325106)
(-0.057311 -0.0588425 -0.0032544)
(-0.0469311 -0.0563603 -0.0032017)
(-0.0369053 -0.0522619 -0.00309286)
(-0.0275286 -0.0466448 -0.0029295)
(-0.0190944 -0.039679 -0.00271437)
(-0.0118819 -0.03161 -0.00245288)
(-0.00613148 -0.022756 -0.00215617)
(-0.00211031 -0.0134998 -0.00180554)
(-0.000286147 -0.00429717 -0.00113128)
(-0.000376329 0.00654017 -0.000935785)
(-0.00254346 0.0189067 -0.000583043)
(-0.00709971 0.0301764 -0.000224998)
(-0.0133711 0.0400999 4.92828e-05)
(-0.0209853 0.0485192 0.000274933)
(-0.0296601 0.0553407 0.000450316)
(-0.0391137 0.0605263 0.000579283)
(-0.049084 0.0640812 0.000666749)
(-0.059331 0.0660435 0.000716445)
(-0.0696341 0.0664745 0.000731301)
(-0.0797911 0.0654515 0.000713571)
(-0.0896164 0.063062 0.000664881)
(-0.0989402 0.0594004 0.000586351)
(-0.107607 0.0545661 0.000478759)
(-0.115475 0.0486628 0.000342723)
(-0.122416 0.0417992 0.000178898)
(-0.128312 0.0340905 -1.18183e-05)
(-0.133061 0.0256607 -0.00022809)
(-0.136571 0.0166442 -0.000467956)
(-0.138765 0.00718819 -0.000728672)
(-0.139584 -0.00254553 -0.00100658)
(-0.138982 -0.0123796 -0.00129702)
(-0.136937 -0.022121 -0.00159432)
(-0.133448 -0.0315618 -0.00189185)
(-0.128541 -0.0404816 -0.00218209)
(-0.122269 -0.0486512 -0.00245688)
(-0.114722 -0.0558382 -0.00270764)
(-0.10602 -0.0618143 -0.00292574)
(-0.0963243 -0.066364 -0.0031029)
(-0.0858322 -0.069295 -0.00323159)
(-0.0747785 -0.0704496 -0.00330545)
(-0.0634323 -0.0697167 -0.00331968)
(-0.052092 -0.0670433 -0.0032713)
(-0.0410777 -0.0624452 -0.00315942)
(-0.0307224 -0.0560154 -0.00298512)
(-0.0213624 -0.0479299 -0.00275093)
(-0.0133227 -0.0384496 -0.00246259)
(-0.00688789 -0.0279175 -0.00213256)
(-0.00237414 -0.0167475 -0.00173989)
(-0.000322413 -0.00543205 -0.00102694)
(-0.000407652 0.00790005 -0.000811379)
(-0.00275032 0.0225857 -0.000393583)
(-0.00766808 0.0357947 -8.02822e-06)
(-0.0144242 0.0473007 0.000286274)
(-0.0226092 0.05697 0.000527754)
(-0.0319131 0.0647341 0.000715087)
(-0.0420295 0.0705791 0.000852854)
(-0.0526758 0.0745339 0.000946717)
(-0.0635966 0.0766589 0.00100095)
(-0.0745597 0.077036 0.00101888)
(-0.0853546 0.0757615 0.00100297)
(-0.0957906 0.0729404 0.000954946)
(-0.105695 0.0686829 0.000875879)
(-0.114909 0.0631029 0.000766399)
(-0.123291 0.0563175 0.000626893)
(-0.13071 0.048448 0.000457725)
(-0.137048 0.0396221 0.00025947)
(-0.142198 0.0299759 3.31356e-05)
(-0.146067 0.0196568 -0.000219625)
(-0.148571 0.00882619 -0.00049632)
(-0.149643 -0.00233825 -0.000793453)
(-0.14923 -0.0136411 -0.00110641)
(-0.147298 -0.0248684 -0.00142942)
(-0.143836 -0.0357878 -0.00175553)
(-0.138857 -0.0461513 -0.00207672)
(-0.132403 -0.0556981 -0.0023841)
(-0.124553 -0.0641608 -0.00266812)
(-0.115422 -0.0712731 -0.00291898)
(-0.105167 -0.0767795 -0.00312704)
(-0.0939869 -0.0804473 -0.00328332)
(-0.082127 -0.0820797 -0.00337995)
(-0.0698732 -0.0815301 -0.0034107)
(-0.0575494 -0.0787161 -0.00337134)
(-0.0455097 -0.0736326 -0.00325997)
(-0.0341285 -0.0663621 -0.00307704)
(-0.0237899 -0.057082 -0.0028248)
(-0.01487 -0.0460669 -0.00250937)
(-0.00770283 -0.0336853 -0.0021447)
(-0.00265958 -0.020386 -0.00170747)
(-0.000362035 -0.00670546 -0.000947046)
(-0.000438212 0.00936487 -0.000621197)
(-0.00295152 0.0265432 -0.000127475)
(-0.00822005 0.0418286 0.000284634)
(-0.0154456 0.0550197 0.00059814)
(-0.0241821 0.0660106 0.000854699)
(-0.0340924 0.0747617 0.0010533)
(-0.0448455 0.0812884 0.00119923)
(-0.0561392 0.0856479 0.00129888)
(-0.0677029 0.087927 0.00135706)
(-0.079294 0.0882323 0.00137742)
(-0.090695 0.0866822 0.00136264)
(-0.101711 0.0834017 0.00131448)
(-0.112167 0.0785186 0.00123394)
(-0.121906 0.0721623 0.00112146)
(-0.130784 0.0644637 0.000977143)
(-0.138672 0.0555564 0.000801012)
(-0.145451 0.0455795 0.000593262)
(-0.151013 0.0346803 0.00035451)
(-0.155261 0.0230176 8.60421e-05)
(-0.158107 0.010765 -0.000209965)
(-0.159475 -0.00188587 -0.000530244)
(-0.159304 -0.0147234 -0.000870282)
(-0.157548 -0.0275142 -0.00122422)
(-0.154182 -0.0400029 -0.00158484)
(-0.149204 -0.0519138 -0.00194358)
(-0.142644 -0.0629539 -0.00229076)
(-0.134563 -0.072819 -0.00261577)
(-0.125067 -0.081201 -0.00290748)
(-0.114305 -0.0877998 -0.0031547)
(-0.102476 -0.0923355 -0.00334671)
(-0.0898306 -0.0945643 -0.00347387)
(-0.0766706 -0.0942955 -0.0035282)
(-0.0633455 -0.0914081 -0.00350392)
(-0.0502447 -0.0858673 -0.00339788)
(-0.0377877 -0.0777376 -0.00320969)
(-0.0264113 -0.0671924 -0.00294122)
(-0.0165491 -0.0545173 -0.00259894)
(-0.0085917 -0.0401066 -0.0021984)
(-0.00297295 -0.0244482 -0.0017137)
(-0.000406161 -0.00813023 -0.000895282)
(-0.000468157 0.010932 -0.000359663)
(-0.00314788 0.0307714 0.000222042)
(-0.00875746 0.0482656 0.000659794)
(-0.0164378 0.0632399 0.000991643)
(-0.0257064 0.0756194 0.00126242)
(-0.0361985 0.0853981 0.00147145)
(-0.0475591 0.0926251 0.00162473)
(-0.0594665 0.0973908 0.00172938)
(-0.071636 0.0998132 0.00179071)
(-0.0838153 0.100028 0.00181273)
(-0.0957813 0.0981782 0.0017983)
(-0.107337 0.0944124 0.00174919)
(-0.118307 0.0888775 0.00166628)
(-0.128535 0.0817195 0.00154979)
(-0.137882 0.0730834 0.00139948)
(-0.146218 0.0631149 0.00121498)
(-0.153428 0.0519636 0.00099604)
(-0.159403 0.0397861 0.000742803)
(-0.164044 0.0267508 0.000456103)
(-0.167259 0.0130412 0.000137711)
(-0.168965 -0.0011399 -0.000209421)
(-0.16909 -0.015567 -0.000580964)
(-0.167576 -0.0299896 -0.00097106)
(-0.164383 -0.0441311 -0.00137225)
(-0.159491 -0.0576893 -0.00177547)
(-0.15291 -0.0703389 -0.00217021)
(-0.144687 -0.081737 -0.00254471)
(-0.134908 -0.0915312 -0.00288637)
(-0.123711 -0.0993709 -0.00318221)
(-0.11129 -0.104922 -0.00341951)
(-0.0978967 -0.107886 -0.00358651)
(-0.0838458 -0.108017 -0.00367311)
(-0.069511 -0.105144 -0.00367157)
(-0.0553184 -0.0991919 -0.00357716)
(-0.0417358 -0.0901984 -0.00338835)
(-0.0292582 -0.0783252 -0.00310643)
(-0.0183842 -0.063865 -0.00273812)
(-0.00956941 -0.0472379 -0.00230067)
(-0.00332043 -0.0289745 -0.00176526)
(-0.000455919 -0.00972246 -0.000876386)
(-0.000497612 0.0125991 -2.11953e-05)
(-0.00334017 0.0352635 0.000661747)
(-0.0092821 0.0550939 0.00112429)
(-0.0174032 0.0719443 0.00147359)
(-0.0271838 0.085774 0.00175763)
(-0.0382313 0.096615 0.00197608)
(-0.0501661 0.104555 0.0021357)
(-0.0626476 0.109724 0.00224433)
(-0.0753774 0.112275 0.00230784)
(-0.088095 0.112377 0.00233058)
(-0.100573 0.110203 0.00231559)
(-0.112615 0.105927 0.00226465)
(-0.124046 0.0997169 0.00217849)
(-0.134716 0.0917369 0.00205706)
(-0.144488 0.0821464 0.00189974)
(-0.153239 0.0711026 0.0017057)
(-0.160855 0.0587644 0.00147416)
(-0.167232 0.0452962 0.00120469)
(-0.17227 0.0308733 0.000897564)
(-0.175872 0.0156863 0.000554039)
(-0.177952 -5.37334e-05 0.000176625)
(-0.178426 -0.0161108 -0.000230648)
(-0.177223 -0.0322206 -0.000662034)
(-0.174286 -0.0480878 -0.00110993)
(-0.169574 -0.0633857 -0.00156483)
(-0.163076 -0.0777574 -0.00201539)
(-0.154816 -0.0908209 -0.00244864)
(-0.144858 -0.102176 -0.00285037)
(-0.133322 -0.111418 -0.0032056)
(-0.120388 -0.118151 -0.0034993)
(-0.106306 -0.12201 -0.00371717)
(-0.0913991 -0.122683 -0.00384656)
(-0.0760616 -0.119937 -0.0038773)
(-0.0607564 -0.113644 -0.00380256)
(-0.0460023 -0.103801 -0.00361932)
(-0.0323588 -0.0905493 -0.0033279)
(-0.020398 -0.0741822 -0.00293515)
(-0.0106504 -0.0551444 -0.00246006)
(-0.00370809 -0.0340124 -0.00187045)
(-0.000512452 -0.0115015 -0.00089653)
(-0.000526713 0.0143644 0.000399811)
(-0.00352934 0.0400136 0.00119849)
(-0.00979628 0.0623027 0.00168505)
(-0.0183451 0.0811159 0.00205089)
(-0.0286173 0.0964505 0.0023471)
(-0.0401913 0.108381 0.00257378)
(-0.0526623 0.11704 0.00273847)
(-0.0656707 0.122601 0.00284981)
(-0.0789055 0.12526 0.00291423)
(-0.0920991 0.125223 0.00293651)
(-0.105022 0.122697 0.00291985)
(-0.117479 0.117885 0.00286607)
(-0.129303 0.110978 0.00277574)
(-0.140346 0.10216 0.00264849)
(-0.150482 0.0916058 0.00248328)
(-0.159595 0.0794825 0.00227874)
(-0.167578 0.0659572 0.00203346)
(-0.174329 0.0512003 0.00174635)
(-0.179752 0.035391 0.00141699)
(-0.183751 0.0187239 0.00104598)
(-0.186231 0.00141445 0.000635222)
(-0.187102 -0.0162948 0.000188294)
(-0.186278 -0.0341297 -0.00028932)
(-0.183684 -0.05178 -0.000790014)
(-0.179257 -0.0688977 -0.00130393)
(-0.172961 -0.0850965 -0.00181898)
(-0.164789 -0.0999554 -0.00232095)
(-0.154779 -0.113025 -0.0027939)
(-0.143026 -0.123841 -0.00322064)
(-0.12969 -0.131938 -0.00358349)
(-0.115008 -0.136876 -0.0038652)
(-0.0993054 -0.138263 -0.00405)
(-0.0829939 -0.135789 -0.00412469)
(-0.0665711 -0.129253 -0.00407978)
(-0.050609 -0.1186 -0.00391012)
(-0.0357373 -0.103936 -0.00361467)
(-0.0226111 -0.0855471 -0.0032001)
(-0.0118484 -0.063899 -0.00268714)
(-0.00414202 -0.0396164 -0.00203967)
(-0.000576943 -0.0134899 -0.000963706)
(-0.000555702 0.0162267 0.000908996)
(-0.00371683 0.0450172 0.00183925)
(-0.0103035 0.0698824 0.00234918)
(-0.0192685 0.0907381 0.00273062)
(-0.0300119 0.107623 0.00303776)
(-0.0420809 0.120661 0.00327118)
(-0.0550446 0.130034 0.00343931)
(-0.0685242 0.135966 0.00355166)
(-0.0821966 0.138702 0.00361534)
(-0.0957889 0.138493 0.00363558)
(-0.109072 0.135583 0.00361584)
(-0.121856 0.130206 0.00355798)
(-0.133979 0.122583 0.00346241)
(-0.145308 0.112916 0.00332842)
(-0.155724 0.101394 0.00315452)
(-0.165123 0.0881974 0.00293869)
(-0.173408 0.0734982 0.00267881)
(-0.180486 0.0574705 0.00237301)
(-0.186265 0.0402946 0.00202003)
(-0.190651 0.0221652 0.00161961)
(-0.193547 0.00329804 0.00117291)
(-0.194854 -0.0160629 0.000682819)
(-0.194475 -0.0356384 0.000154369)
(-0.192313 -0.0551085 -0.000405021)
(-0.188285 -0.0741082 -0.000985316)
(-0.182322 -0.0922253 -0.00157377)
(-0.174386 -0.109002 -0.002155)
(-0.164481 -0.123939 -0.00271127)
(-0.152665 -0.136508 -0.00322299)
(-0.139069 -0.14617 -0.00366949)
(-0.123911 -0.152396 -0.00403008)
(-0.107508 -0.154699 -0.00428525)
(-0.0902807 -0.152674 -0.00441807)
(-0.0727587 -0.146032 -0.00441559)
(-0.0555673 -0.13464 -0.00426981)
(-0.0394122 -0.118555 -0.00397767)
(-0.0250422 -0.0980419 -0.00354524)
(-0.0131769 -0.0735817 -0.00299491)
(-0.00462836 -0.0458478 -0.00228597)
(-0.000650648 -0.0157134 -0.00108816)
(-0.000584953 0.0181854 0.00151207)
(-0.00390495 0.0502717 0.00259126)
(-0.0108092 0.0778258 0.0031241)
(-0.0201815 0.100796 0.00352011)
(-0.0313764 0.119266 0.00383669)
(-0.0439067 0.133414 0.00407496)
(-0.0573134 0.143482 0.00424435)
(-0.071198 0.149752 0.00435543)
(-0.0852266 0.152523 0.0044161)
(-0.0991227 0.152097 0.00443217)
(-0.112661 0.148763 0.00440743)
(-0.125658 0.14279 0.00434384)
(-0.137966 0.134429 0.00424167)
(-0.149463 0.123904 0.00409988)
(-0.160048 0.11142 0.00391643)
(-0.169631 0.0971657 0.00368863)
(-0.178129 0.08132 0.00341353)
(-0.185461 0.064057 0.00308832)
(-0.191543 0.0455553 0.00271074)
(-0.196286 0.0260052 0.00227952)
(-0.199595 0.00561775 0.00179479)
(-0.201365 -0.0153668 0.00125858)
(-0.201487 -0.0366705 0.000675169)
(-0.199847 -0.0579698 5.15534e-05)
(-0.196335 -0.0788888 -0.000602284)
(-0.190852 -0.0989946 -0.00127315)
(-0.183321 -0.117796 -0.00194458)
(-0.173704 -0.134746 -0.00259708)
(-0.162015 -0.149253 -0.0032085)
(-0.148345 -0.160692 -0.00375489)
(-0.132879 -0.168439 -0.0042116)
(-0.115911 -0.171896 -0.0045547)
(-0.097866 -0.170541 -0.00476265)
(-0.079295 -0.16397 -0.0048181)
(-0.0608762 -0.151952 -0.00470924)
(-0.0433958 -0.13447 -0.0044301)
(-0.0277074 -0.11175 -0.00398555)
(-0.0146488 -0.084278 -0.00339942)
(-0.00517343 -0.0527741 -0.00262559)
(-0.000734936 -0.0182013 -0.0012829)
(-0.000615071 0.0202417 0.00221489)
(-0.00409724 0.0557782 0.00346215)
(-0.011322 0.0861292 0.00401767)
(-0.0210971 0.111275 0.00442714)
(-0.0327255 0.131352 0.00475127)
(-0.0456811 0.146598 0.00499186)
(-0.0594742 0.157324 0.00515957)
(-0.0736859 0.163878 0.00526621)
(-0.0879723 0.166626 0.00532072)
(-0.102056 0.165925 0.00532963)
(-0.115719 0.162116 0.00529722)
(-0.128789 0.155509 0.00522562)
(-0.141136 0.146387 0.00511501)
(-0.152656 0.134996 0.00496401)
(-0.163268 0.121561 0.00477)
(-0.172901 0.106277 0.00452953)
(-0.181491 0.0893268 0.00423871)
(-0.188973 0.0708835 0.00389366)
(-0.195277 0.0511195 0.00349093)
(-0.200323 0.030217 0.00302801)
(-0.20402 0.00837672 0.00250381)
(-0.206262 -0.014171 0.00191914)
(-0.20693 -0.0371565 0.00127729)
(-0.205894 -0.06026 0.000584487)
(-0.203019 -0.0831028 -0.000149638)
(-0.198173 -0.105239 -0.000911719)
(-0.191236 -0.12615 -0.00168445)
(-0.18212 -0.145245 -0.00244666)
(-0.170787 -0.161867 -0.00317361)
(-0.157274 -0.175307 -0.00383781)
(-0.141716 -0.184831 -0.00441015)
(-0.124375 -0.189714 -0.00486153)
(-0.105658 -0.189294 -0.0051648)
(-0.0861309 -0.183026 -0.00529704)
(-0.0665192 -0.170546 -0.00524142)
(-0.0476921 -0.151734 -0.00498791)
(-0.0306198 -0.126753 -0.00453927)
(-0.0162766 -0.0960774 -0.00392038)
(-0.00578386 -0.0604689 -0.0030787)
(-0.000831336 -0.020986 -0.00156428)
(-0.000647007 0.0223987 0.00302358)
(-0.00429918 0.0615429 0.00446021)
(-0.0118549 0.0947949 0.00503851)
(-0.0220351 0.122168 0.00546012)
(-0.0340822 0.143854 0.00578931)
(-0.0474252 0.160164 0.00602877)
(-0.0615399 0.171485 0.0061907)
(-0.0759864 0.178248 0.00628849)
(-0.0904127 0.180892 0.00633239)
(-0.104544 0.179842 0.00632996)
(-0.118173 0.175494 0.00628612)
(-0.131145 0.168205 0.00620329)
(-0.143351 0.158294 0.00608165)
(-0.154713 0.146033 0.00591947)
(-0.165173 0.131662 0.00571353)
(-0.174687 0.115387 0.00545953)
(-0.183213 0.0973906 0.00515252)
(-0.190708 0.077842 0.00478738)
(-0.197121 0.0569047 0.00435931)
(-0.202385 0.0347474 0.00386432)
(-0.206417 0.0115554 0.0032998)
(-0.209115 -0.0124578 0.00266509)
(-0.210356 -0.0370385 0.00196209)
(-0.209996 -0.0618799 0.00119592)
(-0.207876 -0.0866095 0.000375436)
(-0.20383 -0.110778 -0.000486196)
(-0.197692 -0.133849 -0.00137116)
(-0.189321 -0.155195 -0.00225683)
(-0.178612 -0.174099 -0.00311598)