/*--------------------------------*- C++ -*----------------------------------*\
  =========                 |
  \\      /  F ield         | OpenFOAM: The Open Source CFD Toolbox
   \\    /   O peration     | Website:  https://openfoam.org
    \\  /    A nd           | Version:  9
     \\/     M anipulation  |
\*---------------------------------------------------------------------------*/
FoamFile
{
    format      ascii;
    class       surfaceScalarField;
    location    "0.6";
    object      phi;
}
// * * * * * * * * * * * * * * * * * * * * * * * * * * * * * * * * * * * * * //

dimensions      [0 3 -1 0 0 0 0];

internalField   nonuniform List<scalar> 
17280
(
6.30575e-10
-6.43434e-10
-5.09567e-12
9.73574e-10
-3.39282e-10
-3.58923e-12
4.33156e-10
5.38162e-10
2.18845e-12
-1.10262e-09
1.52928e-09
6.52778e-12
-3.56688e-09
2.45431e-09
9.89464e-12
-6.81824e-09
3.23848e-09
1.28327e-11
-1.069e-08
3.85654e-09
1.52153e-11
-1.50135e-08
4.30654e-09
1.69706e-11
-1.96282e-08
4.59648e-09
1.81195e-11
-2.4385e-08
4.73812e-09
1.87085e-11
-2.91479e-08
4.74412e-09
1.87633e-11
-3.3793e-08
4.62676e-09
1.83247e-11
-3.82079e-08
4.39743e-09
1.74407e-11
-4.22906e-08
4.06656e-09
1.61562e-11
-4.59489e-08
3.64379e-09
1.45054e-11
-4.90998e-08
3.13845e-09
1.25197e-11
-5.167e-08
2.55996e-09
1.02387e-11
-5.35961e-08
1.91833e-09
7.70695e-12
-5.48256e-08
1.22464e-09
4.9704e-12
-5.53192e-08
4.91454e-10
2.07766e-12
-5.50513e-08
-2.66945e-10
-9.1631e-13
-5.4013e-08
-1.03434e-09
-3.94742e-12
-5.22134e-08
-1.79262e-09
-6.94191e-12
-4.96817e-08
-2.52192e-09
-9.81938e-12
-4.64681e-08
-3.20104e-09
-1.24963e-11
-4.26453e-08
-3.80792e-09
-1.4887e-11
-3.83079e-08
-4.32042e-09
-1.69043e-11
-3.35724e-08
-4.71706e-09
-1.8463e-11
-2.85749e-08
-4.97803e-09
-1.94858e-11
-2.34688e-08
-5.08612e-09
-1.99071e-11
-1.84215e-08
-5.02767e-09
-1.96764e-11
-1.36091e-08
-4.79357e-09
-1.87617e-11
-9.21173e-09
-4.38025e-09
-1.71561e-11
-5.40581e-09
-3.79102e-09
-1.48833e-11
-2.35542e-09
-3.03838e-09
-1.20052e-11
-1.97932e-10
-2.14881e-09
-8.66928e-12
9.81271e-10
-1.17405e-09
-5.14939e-12
1.19487e-09
-2.12558e-10
-1.03913e-12
6.51607e-10
5.39666e-10
3.60048e-12
6.51587e-10
2.03684e-14
3.50913e-10
-9.94826e-10
4.38613e-13
-4.94434e-10
5.0686e-10
-8.7574e-13
-3.32382e-09
3.37012e-09
-2.33226e-12
-8.35857e-09
6.56931e-09
-5.27846e-12
-1.55099e-08
9.6143e-09
-8.6511e-12
-2.45137e-08
1.22541e-08
-1.17358e-11
-3.50192e-08
1.43763e-08
-1.42739e-11
-4.66422e-08
1.59458e-08
-1.6179e-11
-5.8996e-08
1.69677e-08
-1.74459e-11
-7.17068e-08
1.74671e-08
-1.8104e-11
-8.44228e-08
1.74783e-08
-1.82129e-11
-9.68169e-08
1.70386e-08
-1.78175e-11
-1.08588e-07
1.61856e-08
-1.69588e-11
-1.19462e-07
1.49558e-08
-1.56834e-11
-1.29189e-07
1.33848e-08
-1.40393e-11
-1.37546e-07
1.15082e-08
-1.20693e-11
-1.44339e-07
9.36275e-09
-9.8102e-12
-1.49401e-07
6.98756e-09
-7.30103e-12
-1.52598e-07
4.42573e-09
-4.58847e-12
-1.5383e-07
1.72536e-09
-1.72698e-12
-1.53038e-07
-1.05959e-09
1.22373e-12
-1.50208e-07
-3.8689e-09
4.19982e-12
-1.45372e-07
-6.63622e-09
7.13126e-12
-1.38614e-07
-9.28981e-09
9.94033e-12
-1.30073e-07
-1.17539e-08
1.2543e-11
-1.19946e-07
-1.39505e-08
1.48532e-11
-1.08481e-07
-1.58021e-08
1.67857e-11
-9.59816e-08
-1.72344e-08
1.82586e-11
-8.27992e-08
-1.81797e-08
1.91951e-11
-6.93244e-08
-1.85804e-08
1.95283e-11
-5.59785e-08
-1.83929e-08
1.92062e-11
-4.31994e-08
-1.75909e-08
1.81965e-11
-3.14256e-08
-1.61705e-08
1.6492e-11
-2.10757e-08
-1.41551e-08
1.41204e-11
-1.2521e-08
-1.16042e-08
1.11603e-11
-6.04942e-09
-8.62811e-09
7.74686e-12
-1.8117e-09
-5.41593e-09
4.16119e-12
2.58136e-10
-2.28375e-09
1.35196e-12
5.52644e-10
2.44803e-10
3.47793e-13
1.20761e-09
-3.40888e-12
-5.07661e-10
-4.84073e-10
-3.18082e-12
-3.34651e-09
3.34408e-09
1.79609e-12
-9.12581e-09
9.14939e-09
-1.0264e-13
-1.80015e-08
1.54452e-08
-2.01658e-13
-2.9819e-08
2.14318e-08
-2.90369e-14
-4.42198e-08
2.6655e-08
-1.92079e-13
-6.0728e-08
3.08849e-08
-3.95832e-13
-7.88109e-08
3.40293e-08
-5.5462e-13
-9.79186e-08
3.60761e-08
-6.8401e-13
-1.17509e-07
3.70581e-08
-7.74546e-13
-1.37062e-07
3.7032e-08
-8.27698e-13
-1.56088e-07
3.60657e-08
-8.38731e-13
-1.74133e-07
3.42317e-08
-8.08523e-13
-1.9078e-07
3.16035e-08
-7.44675e-13
-2.0565e-07
2.82556e-08
-6.56682e-13
-2.18405e-07
2.42637e-08
-5.49315e-13
-2.28749e-07
1.97071e-08
-4.22551e-13
-2.36432e-07
1.4671e-08
-2.7865e-13
-2.41255e-07
9.24862e-09
-1.24179e-13
-2.43073e-07
3.5434e-09
3.37261e-14
-2.41803e-07
-2.32966e-09
1.9024e-13
-2.37429e-07
-8.24337e-09
3.41997e-13
-2.30007e-07
-1.40589e-08
4.85302e-13
-2.1967e-07
-1.96273e-08
6.15498e-13
-2.06632e-07
-2.47922e-08
7.27695e-13
-1.91189e-07
-2.93941e-08
8.17712e-13
-1.73717e-07
-3.32752e-08
8.82131e-13
-1.54667e-07
-3.62852e-08
9.17558e-13
-1.34559e-07
-3.82888e-08
9.20443e-13
-1.13968e-07
-3.91723e-08
8.88147e-13
-9.35098e-08
-3.88519e-08
8.20134e-13
-7.382e-08
-3.72815e-08
7.18355e-13
-5.55285e-08
-3.44625e-08
5.88259e-13
-3.92293e-08
-3.04547e-08
4.38912e-13
-2.54417e-08
-2.53921e-08
2.74344e-13
-1.45629e-08
-1.95071e-08
1.27045e-13
-6.80696e-09
-1.3172e-08
1.62995e-13
-2.12969e-09
-6.96118e-09
1.75878e-13
-1.43918e-10
-1.74034e-09
-6.18227e-13
1.06267e-09
1.00798e-12
-1.5157e-09
1.03869e-09
-6.85951e-12
-6.67179e-09
8.49482e-09
5.27851e-12
-1.57219e-08
1.81992e-08
2.44725e-13
-2.86348e-08
2.83581e-08
9.47131e-14
-4.51263e-08
3.79224e-08
9.99767e-13
-6.47273e-08
4.62548e-08
1.24613e-12
-8.6851e-08
5.30073e-08
1.38157e-12
-1.10847e-07
5.80234e-08
1.4992e-12
-1.36039e-07
6.12665e-08
1.55297e-12
-1.61754e-07
6.27725e-08
1.55852e-12
-1.87344e-07
6.26195e-08
1.5287e-12
-2.12188e-07
6.09088e-08
1.47473e-12
-2.35711e-07
5.77528e-08
1.39926e-12
-2.57379e-07
5.32703e-08
1.30014e-12
-2.76708e-07
4.75836e-08
1.1762e-12
-2.93265e-07
4.08203e-08
1.03024e-12
-3.06674e-07
3.31148e-08
8.66397e-13
-3.16616e-07
2.46123e-08
6.85681e-13
-3.22839e-07
1.54713e-08
4.87356e-13
-3.25163e-07
5.86708e-09
2.72195e-13
-3.23486e-07
-4.00675e-09
4.33654e-14
-3.17792e-07
-1.39374e-08
-1.94816e-13
-3.08156e-07
-2.3694e-08
-4.37196e-13
-2.94753e-07
-3.30301e-08
-6.77776e-13
-2.77855e-07
-4.16887e-08
-9.09682e-13
-2.5784e-07
-4.94084e-08
-1.12524e-12
-2.35182e-07
-5.59315e-08
-1.31629e-12
-2.10451e-07
-6.10146e-08
-1.47478e-12
-1.843e-07
-6.44388e-08
-1.59316e-12
-1.57448e-07
-6.60225e-08
-1.66396e-12
-1.30664e-07
-6.5634e-08
-1.67972e-12
-1.04739e-07
-6.32053e-08
-1.63347e-12
-8.04529e-08
-5.8747e-08
-1.51761e-12
-5.8541e-08
-5.23654e-08
-1.32937e-12
-3.96472e-08
-4.42848e-08
-1.09715e-12
-2.42752e-08
-3.48783e-08
-7.72441e-13
-1.2732e-08
-2.47153e-08
-4.22098e-15
-5.06723e-09
-1.4626e-08
4.59592e-14
-1.02138e-09
-5.78291e-09
-3.26936e-12
3.6468e-11
4.81923e-12
-2.52408e-09
3.57322e-09
-1.05201e-11
-1.008e-08
1.60415e-08
9.16909e-12
-2.251e-08
3.0629e-08
2.4424e-13
-3.95272e-08
4.5376e-08
-7.59034e-13
-6.06683e-08
5.90633e-08
1.42451e-13
-8.53279e-08
7.09143e-08
1.48287e-13
-1.12804e-07
8.04834e-08
8.54444e-14
-1.42338e-07
8.75574e-08
7.677e-14
-1.73149e-07
9.20768e-08
4.87745e-14
-2.04457e-07
9.4081e-08
1.95298e-14
-2.35508e-07
9.36707e-08
6.19367e-16
-2.65582e-07
9.09824e-08
-5.14982e-15
-2.94002e-07
8.61731e-08
-2.12348e-15
-3.20144e-07
7.9412e-08
6.82071e-15
-3.43438e-07
7.08773e-08
2.07272e-14
-3.63374e-07
6.07567e-08
3.98161e-14
-3.79509e-07
4.925e-08
6.31806e-14
-3.9147e-07
3.65731e-08
8.76305e-14
-3.98961e-07
2.29622e-08
1.0972e-13
-4.01772e-07
8.67734e-09
1.27043e-13
-3.99783e-07
-5.99533e-09
1.38e-13
-3.92978e-07
-2.07427e-08
1.41341e-13
-3.81446e-07
-3.52263e-08
1.36462e-13
-3.65389e-07
-4.90866e-08
1.23556e-13
-3.45129e-07
-6.19493e-08
1.03288e-13
-3.21103e-07
-7.34349e-08
7.66261e-14
-2.93864e-07
-8.31705e-08
4.49466e-14
-2.64074e-07
-9.08041e-08
1.00174e-14
-2.32492e-07
-9.60205e-08
-2.593e-14
-1.99956e-07
-9.85591e-08
-5.98502e-14
-1.67357e-07
-9.82324e-08
-8.80147e-14
-1.35617e-07
-9.49459e-08
-1.06359e-13
-1.05645e-07
-8.87187e-08
-1.07759e-13
-7.83034e-08
-7.97066e-08
-9.12941e-14
-5.43594e-08
-6.82287e-08
-1.0571e-13
-3.44364e-08
-5.48013e-08
-5.22187e-14
-1.89669e-08
-4.01855e-08
6.94725e-13
-8.14841e-09
-2.54444e-08
2.06726e-14
-1.91814e-09
-1.20065e-08
-6.71446e-12
-1.88969e-09
8.00749e-12
-3.47975e-09
7.06705e-09
-1.41168e-11
-1.33954e-08
2.59442e-08
1.31129e-11
-2.91859e-08
4.64189e-08
5.33999e-13
-5.02809e-08
6.64721e-08
-1.03315e-12
-7.6008e-08
8.47902e-08
1.52728e-13
-1.05603e-07
1.00509e-07
1.58543e-13
-1.38238e-07
1.13118e-07
7.79339e-14
-1.73046e-07
1.22365e-07
7.4921e-14
-2.09147e-07
1.28178e-07
5.78913e-14
-2.45673e-07
1.30607e-07
4.26709e-14
-2.81781e-07
1.29779e-07
3.74331e-14
-3.16667e-07
1.25868e-07
3.89656e-14
-3.49576e-07
1.19082e-07
4.3032e-14
-3.79808e-07
1.09644e-07
5.05979e-14
-4.06725e-07
9.77943e-08
6.26255e-14
-4.29756e-07
8.37876e-08
7.85982e-14
-4.48402e-07
6.78962e-08
9.63939e-14
-4.62244e-07
5.04154e-08
1.13068e-13
-4.7095e-07
3.16677e-08
1.26318e-13
-4.74281e-07
1.20079e-08
1.34401e-13
-4.72101e-07
-8.17476e-09
1.35769e-13
-4.64388e-07
-2.84557e-08
1.29281e-13
-4.51238e-07
-4.83772e-08
1.14707e-13
-4.32871e-07
-6.74536e-08
9.27403e-14
-4.0964e-07
-8.51803e-08
6.44611e-14
-3.82029e-07
-1.01046e-07
3.10985e-14
-3.5065e-07
-1.14549e-07
-5.71307e-15
-3.16239e-07
-1.25215e-07
-4.37466e-14
-2.7964e-07
-1.32619e-07
-8.01107e-14
-2.41788e-07
-1.36411e-07
-1.1119e-13
-2.03685e-07
-1.36335e-07
-1.33222e-13
-1.66366e-07
-1.32264e-07
-1.42751e-13
-1.30866e-07
-1.24219e-07
-1.32539e-13
-9.81736e-08
-1.12399e-07
-1.05577e-13
-6.91874e-08
-9.72147e-08
-1.37516e-13
-4.46713e-08
-7.93173e-08
-9.0652e-14
-2.52134e-08
-5.96442e-08
9.17635e-13
-1.11941e-08
-3.94636e-08
-2.20093e-13
-2.77751e-09
-2.04128e-08
-1.01596e-11
-4.67851e-09
1.13128e-11
-4.37114e-09
1.14558e-08
-1.7544e-11
-1.6555e-08
3.81113e-08
1.68092e-11
-3.56194e-08
6.54825e-08
8.32156e-13
-6.07088e-08
9.15627e-08
-1.22099e-12
-9.09274e-08
1.15009e-07
2.55486e-13
-1.25337e-07
1.34919e-07
2.59506e-13
-1.62973e-07
1.50753e-07
1.55787e-13
-2.02856e-07
1.62248e-07
1.61037e-13
-2.44013e-07
1.69335e-07
1.61476e-13
-2.8549e-07
1.72085e-07
1.6311e-13
-3.2637e-07
1.70658e-07
1.68335e-13
-3.65777e-07
1.65276e-07
1.71557e-13
-4.02893e-07
1.56197e-07
1.71434e-13
-4.36957e-07
1.43708e-07
1.72414e-13
-4.67275e-07
1.28112e-07
1.75654e-13
-4.93226e-07
1.09738e-07
1.79474e-13
-5.14266e-07
8.89358e-08
1.81191e-13
-5.29935e-07
6.60849e-08
1.7866e-13
-5.39869e-07
4.1601e-08
1.70818e-13
-5.43801e-07
1.59399e-08
1.56629e-13
-5.41577e-07
-1.03987e-08
1.34859e-13
-5.33162e-07
-3.68707e-08
1.04786e-13
-5.1865e-07
-6.28898e-08
6.68328e-14
-4.98269e-07
-8.78346e-08
2.24273e-14
-4.72389e-07
-1.11059e-07
-2.66709e-14
-4.41526e-07
-1.31909e-07
-7.86285e-14
-4.06336e-07
-1.4974e-07
-1.31179e-13
-3.6761e-07
-1.63941e-07
-1.81299e-13
-3.26265e-07
-1.73964e-07
-2.25191e-13
-2.83322e-07
-1.79354e-07
-2.58485e-13
-2.39882e-07
-1.79775e-07
-2.77258e-13
-1.97093e-07
-1.75053e-07
-2.78592e-13
-1.56115e-07
-1.65197e-07
-2.54999e-13
-1.18071e-07
-1.50443e-07
-2.13068e-13
-8.40087e-08
-1.31277e-07
-2.54831e-13
-5.48535e-08
-1.08472e-07
-2.04088e-13
-3.13733e-08
-8.31255e-08
1.07431e-12
-1.41521e-08
-5.66843e-08
-4.85845e-13
-3.58815e-09
-3.09633e-08
-1.34727e-11
-8.28116e-09
1.45093e-11
-5.20309e-09
1.66797e-08
-2.08172e-11
-1.955e-08
5.24379e-08
2.02417e-11
-4.17744e-08
8.77057e-08
1.1158e-12
-7.07458e-08
1.20536e-07
-1.41064e-12
-1.05342e-07
1.49605e-07
3.02021e-13
-1.44444e-07
1.7402e-07
2.66455e-13
-1.86941e-07
1.93251e-07
1.18622e-13
-2.31741e-07
2.07047e-07
1.21067e-13
-2.77773e-07
2.15368e-07
1.31108e-13
-3.24007e-07
2.18318e-07
1.41024e-13
-3.69455e-07
2.16105e-07
1.50807e-13
-4.13182e-07
2.09003e-07
1.56283e-13
-4.54315e-07
1.9733e-07
1.59393e-13
-4.92044e-07
1.81437e-07
1.65693e-13
-5.25631e-07
1.61699e-07
1.74592e-13
-5.54411e-07
1.38519e-07
1.82799e-13
-5.77803e-07
1.12328e-07
1.87363e-13
-5.95313e-07
8.35943e-08
1.86928e-13
-6.06542e-07
5.28301e-08
1.81134e-13
-6.11198e-07
2.05958e-08
1.68963e-13
-6.09103e-07
-1.24942e-08
1.48895e-13
-6.00203e-07
-4.57709e-08
1.20106e-13
-5.84579e-07
-7.85136e-08
8.30409e-14
-5.62457e-07
-1.09957e-07
3.9089e-14
-5.3421e-07
-1.39306e-07
-1.01249e-14
-5.00371e-07
-1.65748e-07
-6.29173e-14
-4.61624e-07
-1.88486e-07
-1.17085e-13
-4.18806e-07
-2.06759e-07
-1.69501e-13
-3.72893e-07
-2.19877e-07
-2.16127e-13
-3.24984e-07
-2.27262e-07
-2.52377e-13
-2.76277e-07
-2.28482e-07
-2.74513e-13
-2.28035e-07
-2.23295e-07
-2.80238e-13
-1.81548e-07
-2.11684e-07
-2.61506e-13
-1.3809e-07
-1.939e-07
-2.27684e-13
-9.88753e-08
-1.70491e-07
-3.05301e-13
-6.50107e-08
-1.42337e-07
-2.78912e-13
-3.74648e-08
-1.10673e-07
1.23576e-12
-1.70385e-08
-7.711e-08
-7.45971e-13
-4.3609e-09
-4.36242e-08
-1.66603e-11
-1.26597e-08
1.76005e-11
-5.98505e-09
2.26887e-08
-2.39276e-11
-2.23942e-08
6.88235e-08
2.34938e-11
-4.76591e-08
1.12969e-07
1.40333e-12
-8.03892e-08
1.53267e-07
-1.57898e-12
-1.1924e-07
1.88455e-07
3.45597e-13
-1.62909e-07
2.17688e-07
2.71753e-13
-2.10138e-07
2.4048e-07
8.75588e-14
-2.59715e-07
2.56624e-07
8.96501e-14
-3.10478e-07
2.6613e-07
1.04343e-13
-3.61316e-07
2.69157e-07
1.14486e-13
-4.11181e-07
2.6597e-07
1.23147e-13
-4.59085e-07
2.56907e-07
1.29591e-13
-5.04108e-07
2.42353e-07
1.36974e-13
-5.454e-07
2.22729e-07
1.49467e-13
-5.82185e-07
1.98484e-07
1.64048e-13
-6.13765e-07
1.70098e-07
1.76596e-13
-6.39524e-07
1.38087e-07
1.84694e-13
-6.58937e-07
1.03007e-07
1.87831e-13
-6.71575e-07
6.54676e-08
1.85962e-13
-6.77114e-07
2.61348e-08
1.77799e-13
-6.75348e-07
-1.42604e-08
1.61524e-13
-6.66197e-07
-5.49221e-08
1.36233e-13
-6.4972e-07
-9.49911e-08
1.02249e-13
-6.26124e-07
-1.33553e-07
6.06709e-14
-5.95776e-07
-1.69653e-07
1.27923e-14
-5.59209e-07
-2.02315e-07
-3.99459e-14
-5.17124e-07
-2.30572e-07
-9.54738e-14
-4.70388e-07
-2.53494e-07
-1.50665e-13
-4.2003e-07
-2.70235e-07
-2.01334e-13
-3.67221e-07
-2.80071e-07
-2.42713e-13
-3.13253e-07
-2.82449e-07
-2.71244e-13
-2.5951e-07
-2.77037e-07
-2.85085e-13
-2.07425e-07
-2.63769e-07
-2.75196e-13
-1.58436e-07
-2.42888e-07
-2.53198e-13
-1.13944e-07
-2.14983e-07
-3.69102e-13
-7.52592e-08
-1.81021e-07
-3.68152e-13
-4.35692e-08
-1.42364e-07
1.38034e-12
-1.99022e-08
-1.00776e-07
-1.00577e-12
-5.1151e-09
-5.83916e-08
-1.97688e-11
-1.77954e-08
2.06557e-11
-6.72661e-09
2.94422e-08
-2.68824e-11
-2.51081e-08
8.71784e-08
2.65675e-11
-5.32995e-08
1.41159e-07
1.65901e-12
-8.96651e-08
1.89635e-07
-1.75175e-12
-1.32645e-07
2.31435e-07
3.82851e-13
-1.80754e-07
2.65797e-07
2.84867e-13
-2.32587e-07
2.92312e-07
7.23435e-14
-2.86812e-07
3.1085e-07
7.14139e-14
-3.42174e-07
3.21492e-07
8.3595e-14
-3.97489e-07
3.24471e-07
8.85394e-14
-4.51648e-07
3.20129e-07
9.50288e-14
-5.03618e-07
3.08876e-07
1.03987e-13
-5.5244e-07
2.91174e-07
1.16851e-13
-5.9723e-07
2.67519e-07
1.3512e-13
-6.37183e-07
2.38437e-07
1.54152e-13
-6.71571e-07
2.04487e-07
1.70193e-13
-6.99752e-07
1.66267e-07
1.81751e-13
-7.21169e-07
1.24424e-07
1.88793e-13
-7.35361e-07
7.966e-08
1.9116e-13
-7.41974e-07
3.27471e-08
1.87249e-13
-7.40765e-07
-1.54695e-08
1.75102e-13
-7.3162e-07
-6.4067e-08
1.53744e-13
-7.14565e-07
-1.12046e-07
1.23192e-13
-6.89778e-07
-1.58341e-07
8.40458e-14
-6.57601e-07
-2.01829e-07
3.71722e-14
-6.18555e-07
-2.41361e-07
-1.62634e-14
-5.73342e-07
-2.75785e-07
-7.43783e-14
-5.22849e-07
-3.03987e-07
-1.34118e-13
-4.68146e-07
-3.24938e-07
-1.91155e-13
-4.10471e-07
-3.37745e-07
-2.40451e-13
-3.51213e-07
-3.41706e-07
-2.78474e-13
-2.9188e-07
-3.3637e-07
-3.0355e-13
-2.3406e-07
-3.21589e-07
-3.05121e-13
-1.79375e-07
-2.97573e-07
-2.96519e-13
-1.2943e-07
-2.64928e-07
-4.50745e-13
-8.57632e-08
-2.24687e-07
-4.72699e-13
-4.97994e-08
-1.78329e-07
1.51706e-12
-2.28072e-08
-1.27767e-07
-1.26404e-12
-5.87286e-09
-7.5303e-08
-2.28743e-11
-2.3692e-08
2.37515e-11
-7.43605e-09
3.6908e-08
-2.97102e-11
-2.77123e-08
1.07425e-07
2.94744e-11
-5.87256e-08
1.7217e-07
1.88466e-12
-9.86077e-08
2.29519e-07
-1.92183e-12
-1.45591e-07
2.78417e-07
4.26013e-13
-1.98012e-07
3.18218e-07
3.09676e-13
-2.54318e-07
3.48619e-07
6.55853e-14
-3.13062e-07
3.69594e-07
5.34598e-14
-3.72894e-07
3.81324e-07
5.71158e-14
-4.3256e-07
3.84138e-07
5.55573e-14
-4.90899e-07
3.78468e-07
6.14483e-14
-5.46835e-07
3.64812e-07
7.42469e-14
-5.99378e-07
3.43717e-07
9.21296e-14
-6.47618e-07
3.15759e-07
1.14451e-13
-6.90727e-07
2.81545e-07
1.36442e-13
-7.27953e-07
2.41713e-07
1.55487e-13
-7.58629e-07
1.96943e-07
1.70818e-13
-7.82172e-07
1.47967e-07
1.82357e-13
-7.9809e-07
9.55778e-08
1.89647e-13
-8.05991e-07
4.06478e-08
1.90929e-13
-8.05593e-07
-1.58674e-08
1.84208e-13
-7.96739e-07
-7.29212e-08
1.68282e-13
-7.79409e-07
-1.29376e-07
1.42604e-13
-7.53738e-07
-1.84012e-07
1.07124e-13
-7.20031e-07
-2.35537e-07
6.22344e-14
-6.78778e-07
-2.82615e-07
8.76452e-15
-6.30666e-07
-3.23897e-07
-5.17293e-14
-5.76589e-07
-3.58064e-07
-1.16439e-13
-5.17647e-07
-3.8388e-07
-1.81001e-13
-4.5514e-07
-4.00252e-07
-2.40112e-13
-3.9055e-07
-4.06296e-07
-2.9013e-13
-3.25516e-07
-4.01404e-07
-3.29153e-13
-2.61792e-07
-3.85312e-07
-3.44552e-13
-2.01202e-07
-3.58163e-07
-3.5097e-13
-1.45579e-07
-3.2055e-07
-5.44593e-13
-9.67103e-08
-2.73555e-07
-5.8779e-13
-5.62828e-08
-2.18759e-07
1.65653e-12
-2.58231e-08
-1.58225e-07
-1.52375e-12
-6.6567e-09
-9.44434e-08
-2.60659e-11
-3.03757e-08
2.697e-11
-8.11983e-09
4.50602e-08
-3.2453e-11
-3.02243e-08
1.29497e-07
3.2253e-11
-6.39646e-08
2.05909e-07
2.09808e-12
-1.0725e-07
2.72806e-07
-2.07906e-12
-1.58111e-07
3.29278e-07
4.76317e-13
-2.14711e-07
3.74817e-07
3.36912e-13
-2.75353e-07
4.09261e-07
5.48104e-14
-3.38474e-07
4.32715e-07
2.7173e-14
-4.02637e-07
4.45487e-07
2.25484e-14
-4.66521e-07
4.48022e-07
1.73265e-14
-5.28914e-07
4.40861e-07
2.47825e-14
-5.88709e-07
4.24607e-07
4.12582e-14
-6.44888e-07
3.99897e-07
6.23381e-14
-6.96525e-07
3.67396e-07
8.67395e-14
-7.42773e-07
3.27793e-07
1.1066e-13
-7.82866e-07
2.81806e-07
1.32606e-13
-8.16116e-07
2.30193e-07
1.51993e-13
-8.41916e-07
1.73766e-07
1.68403e-13
-8.59741e-07
1.13403e-07
1.81174e-13
-8.69163e-07
5.0069e-08
1.88572e-13
-8.69853e-07
-1.51774e-08
1.88511e-13
-8.61602e-07
-8.11724e-08
1.79338e-13
-8.44334e-07
-1.46645e-07
1.59762e-13
-8.18126e-07
-2.1022e-07
1.29038e-13
-7.83227e-07
-2.70435e-07
8.70691e-14
-7.40082e-07
-3.2576e-07
3.42713e-14
-6.89345e-07
-3.74634e-07
-2.82975e-14
-6.31897e-07
-4.15511e-07
-9.82677e-14
-5.68856e-07
-4.46921e-07
-1.71347e-13
-5.01572e-07
-4.67536e-07
-2.41979e-13
-4.31619e-07
-4.76248e-07
-3.06317e-13
-3.6077e-07
-4.72253e-07
-3.61866e-13
-2.90956e-07
-4.55126e-07
-3.93329e-13
-2.24218e-07
-4.249e-07
-4.1634e-13
-1.62643e-07
-3.82125e-07
-6.51121e-13
-1.08296e-07
-3.27902e-07
-7.14208e-13
-6.31517e-08
-2.63905e-07
1.80467e-12
-2.90208e-08
-1.92354e-07
-1.79193e-12
-7.48867e-09
-1.15946e-07
-2.94352e-11
-3.78948e-08
3.03959e-11
-8.7827e-09
5.38781e-08
-3.51199e-11
-3.26578e-08
1.53338e-07
3.4946e-11
-6.90385e-08
2.42287e-07
2.31067e-12
-1.15618e-07
3.19388e-07
-2.22684e-12
-1.7023e-07
3.8389e-07
5.22517e-13
-2.30869e-07
4.35455e-07
3.5457e-13
-2.95696e-07
4.74088e-07
3.34804e-14
-3.63037e-07
5.00056e-07
-7.3992e-15
-4.3137e-07
5.13819e-07
-1.63868e-14
-4.99311e-07
5.15963e-07
-2.26027e-14
-5.65608e-07
5.07159e-07
-1.36474e-14
-6.29125e-07
4.88124e-07
4.40961e-15
-6.8883e-07
4.59601e-07
2.63265e-14
-7.43784e-07
4.22349e-07
5.13141e-14
-7.93133e-07
3.77142e-07
7.66449e-14
-8.36102e-07
3.24775e-07
1.01399e-13
-8.71989e-07
2.6608e-07
1.24768e-13
-9.00166e-07
2.01942e-07
1.46056e-13
-9.2008e-07
1.33317e-07
1.64629e-13
-9.31261e-07
6.12501e-08
1.78844e-13
-9.33332e-07
-1.31063e-08
1.86377e-13
-9.26024e-07
-8.8481e-08
1.84974e-13
-9.09192e-07
-1.63477e-07
1.72547e-13
-8.8284e-07
-2.36572e-07
1.4766e-13
-8.47146e-07
-3.06129e-07
1.09683e-13
-8.02486e-07
-3.7042e-07
5.8471e-14
-7.49461e-07
-4.27659e-07
-5.64318e-15
-6.8892e-07
-4.76052e-07
-8.09605e-14
-6.21979e-07
-5.13863e-07
-1.63384e-13
-5.50024e-07
-5.3949e-07
-2.47098e-13
-4.74714e-07
-5.51559e-07
-3.27964e-13
-3.97953e-07
-5.49013e-07
-4.02603e-13
-3.21861e-07
-5.31218e-07
-4.52464e-13
-2.48712e-07
-4.98049e-07
-4.93842e-13
-1.80872e-07
-4.49964e-07
-7.72435e-13
-1.20714e-07
-3.88059e-07
-8.5449e-13
-7.05373e-08
-3.14083e-07
1.96557e-12
-3.24702e-08
-2.30419e-07
-2.07713e-12
-8.39013e-09
-1.39993e-07
-3.30726e-11
-4.6319e-08
3.41142e-11
-9.42804e-09
6.33438e-08
-3.77057e-11
-3.50232e-08
1.78895e-07
3.75756e-11
-7.39642e-08
2.81225e-07
2.52071e-12
-1.23731e-07
3.69157e-07
-2.37456e-12
-1.81965e-07
4.42123e-07
5.58601e-13
-2.46491e-07
4.99981e-07
3.62862e-13
-3.15334e-07
5.42931e-07
6.79934e-15
-3.8671e-07
5.71433e-07
-4.3542e-14
-4.59017e-07
5.86125e-07
-5.51085e-14
-5.30817e-07
5.87763e-07
-6.33829e-14
-6.00824e-07
5.77166e-07
-5.59833e-14
-6.67882e-07
5.55182e-07
-3.96595e-14
-7.30954e-07
5.22672e-07
-1.92333e-14
-7.89099e-07
4.80494e-07
5.06427e-15
-8.41466e-07
4.29509e-07
3.10452e-14
-8.87279e-07
3.70588e-07
5.78802e-14
-9.25831e-07
3.04632e-07
8.45394e-14
-9.5648e-07
2.32591e-07
1.10328e-13
-9.78646e-07
1.55483e-07
1.34772e-13
-9.91821e-07
7.4425e-08
1.56229e-13
-9.95575e-07
-9.35261e-09
1.7201e-13
-9.89571e-07
-9.4485e-08
1.79299e-13
-9.73587e-07
-1.79461e-07
1.75235e-13
-9.47539e-07
-2.6262e-07
1.5772e-13
-9.11511e-07
-3.42157e-07
1.25474e-13
-8.65792e-07
-4.1614e-07
7.7568e-14
-8.10902e-07
-4.82548e-07
1.33135e-14
-7.47636e-07
-5.39319e-07
-6.65784e-14
-6.7708e-07
-5.84418e-07
-1.58432e-13
-6.0064e-07
-6.1593e-07
-2.5624e-13
-5.2004e-07
-6.32158e-07
-3.55496e-13
-4.37316e-07
-6.31737e-07
-4.51718e-13
-3.54775e-07
-6.13758e-07
-5.22529e-13
-2.74947e-07
-5.77877e-07
-5.84528e-13
-2.00499e-07
-5.2441e-07
-9.1089e-13
-1.34151e-07
-4.54406e-07
-1.01192e-12
-7.85673e-08
-3.69669e-07
2.14203e-12
-3.62394e-08
-2.72745e-07
-2.38891e-12
-9.38175e-09
-1.66814e-07
-3.70668e-11
-5.57389e-08
3.8209e-11
-1.00585e-08
7.34426e-08
-4.02382e-11
-3.73287e-08
2.06125e-07
4.01402e-11
-7.87551e-08
3.22649e-07
2.71798e-12
-1.31604e-07
4.22009e-07
-2.52845e-12
-1.93324e-07
5.03842e-07
5.86738e-13
-2.6157e-07
5.68227e-07
3.6771e-13
-3.34233e-07
6.15594e-07
-1.98334e-14
-4.09425e-07
6.46624e-07
-7.89356e-14
-4.85467e-07
6.62168e-07
-9.51698e-14
-5.60875e-07
6.63171e-07
-1.09025e-13
-6.34337e-07
6.50628e-07
-1.06593e-13
-7.0469e-07
6.25536e-07
-9.42819e-14
-7.70901e-07
5.88884e-07
-7.65053e-14
-8.32043e-07
5.41636e-07
-5.36031e-14
-8.87278e-07
4.84744e-07
-2.7688e-14
-9.35842e-07
4.19152e-07
4.55931e-16
-9.77031e-07
3.45822e-07
2.98506e-14
-1.0102e-06
2.65758e-07
5.99596e-14
-1.03475e-06
1.8003e-07
9.03913e-14
-1.05013e-06
8.98067e-08
1.19373e-13
-1.05586e-06
-3.61939e-09
1.43834e-13
-1.05154e-06
-9.8808e-08
1.60646e-13
-1.03685e-06
-1.94151e-07
1.66243e-13
-1.0116e-06
-2.87864e-07
1.57885e-13
-9.7578e-07
-3.77981e-07
1.33478e-13
-9.29549e-07
-4.62371e-07
9.10544e-14
-8.73325e-07
-5.38771e-07
2.85995e-14
-8.07813e-07
-6.04831e-07
-5.45124e-14
-7.34044e-07
-6.58187e-07
-1.55369e-13
-6.53411e-07
-6.96563e-07
-2.67998e-13
-5.67686e-07
-7.17882e-07
-3.87556e-13
-4.79019e-07
-7.20404e-07
-5.08274e-13
-3.89908e-07
-7.02869e-07
-6.03388e-13
-3.03146e-07
-6.64638e-07
-6.89441e-13
-2.21737e-07
-6.05819e-07
-1.06959e-12
-1.48782e-07
-5.27359e-07
-1.19118e-12
-8.7364e-08
-4.3109e-07
2.33506e-12
-4.03945e-08
-3.19711e-07
-2.73823e-12
-1.04838e-08
-1.96683e-07
-4.15052e-11
-6.62655e-08
4.27638e-11
-1.06764e-08
8.41616e-08
-4.25986e-11
-3.95824e-08
2.34989e-07
4.26419e-11
-8.34244e-08
3.66488e-07
2.90602e-12
-1.39251e-07
4.77838e-07
-2.68117e-12
-2.04311e-07
5.68902e-07
6.16153e-13
-2.76094e-07
6.40009e-07
3.75167e-13
-3.5235e-07
6.91851e-07
-4.49923e-14
-4.31092e-07
7.25366e-07
-1.16157e-13
-5.10572e-07
7.41648e-07
-1.41318e-13
-5.89268e-07
7.41868e-07
-1.64129e-13
-6.65853e-07
7.27213e-07
-1.68617e-13
-7.39172e-07
6.98854e-07
-1.61078e-13
-8.08207e-07
6.57919e-07
-1.46243e-13
-8.7206e-07
6.0549e-07
-1.25156e-13
-9.29922e-07
5.42606e-07
-9.98616e-14
-9.81055e-07
4.70285e-07
-7.08678e-14
-1.02477e-06
3.89541e-07
-3.89146e-14
-1.06044e-06
3.0142e-07
-4.47129e-15
-1.08744e-06
2.07028e-07
3.19712e-14
-1.1052e-06
1.07567e-07
6.8531e-14
-1.11319e-06
4.36963e-09
1.02075e-13
-1.11092e-06
-1.01072e-07
1.28875e-13
-1.098e-06
-2.07074e-07
1.4539e-13
-1.07411e-06
-3.11748e-07
1.48088e-13
-1.03911e-06
-4.12985e-07
1.33819e-13
-9.93018e-07
-5.08464e-07
9.9312e-14
-9.36114e-07
-5.95675e-07
4.09393e-14
-8.68976e-07
-6.71968e-07
-4.36119e-14
-7.92541e-07
-7.34622e-07
-1.52625e-13
-7.08152e-07
-7.80952e-07
-2.80593e-13
-6.17595e-07
-8.08439e-07
-4.22568e-13
-5.23113e-07
-8.14885e-07
-5.71413e-13
-4.27386e-07
-7.98594e-07
-6.95405e-13
-3.33483e-07
-7.5854e-07
-8.1066e-13
-2.44765e-07
-6.94536e-07
-1.2532e-12
-1.64766e-07
-6.07357e-07
-1.39885e-12
-9.7043e-08
-4.98815e-07
2.54376e-12
-4.49998e-08
-3.71751e-07
-3.13755e-12
-1.17162e-08
-2.2992e-07
-4.64756e-11
-7.80295e-08
4.78628e-11
-1.12848e-08
9.54916e-08
-4.51846e-11
-4.17944e-08
2.65453e-07
4.51343e-11
-8.7989e-08
4.1268e-07
3.10577e-12
-1.46689e-07
5.36541e-07
-2.81837e-12
-2.14938e-07
6.3715e-07
6.55734e-13
-2.90048e-07
7.15119e-07
3.88117e-13
-3.69633e-07
7.71436e-07
-6.99825e-14
-4.51606e-07
8.07339e-07
-1.58466e-13
-5.34158e-07
8.242e-07
-1.96719e-13
-6.15738e-07
8.23448e-07
-2.30642e-13
-6.95019e-07
8.06494e-07
-2.42968e-13
-7.70865e-07
7.74701e-07
-2.40595e-13
-8.42298e-07
7.29352e-07
-2.2913e-13
-9.08462e-07
6.71653e-07
-2.1043e-13
-9.68595e-07
6.02739e-07
-1.8623e-13
-1.022e-06
5.23693e-07
-1.56639e-13
-1.06804e-06
4.35576e-07
-1.22265e-13
-1.10608e-06
3.3946e-07
-8.37262e-14
-1.13552e-06
2.36469e-07
-4.1698e-14
-1.15577e-06
1.27816e-07
1.98243e-15
-1.16625e-06
1.48495e-08
4.43941e-14
-1.1664e-06
-1.00913e-07
8.17847e-14
-1.15574e-06
-2.17743e-07
1.10492e-13
-1.13381e-06
-3.33673e-07
1.26204e-13
-1.10032e-06
-4.46475e-07
1.24557e-13
-1.05513e-06
-5.53655e-07
1.00745e-13
-9.98338e-07
-6.52467e-07
4.92547e-14
-9.30357e-07
-7.39949e-07
-3.42876e-14
-8.51979e-07
-8.13e-07
-1.49902e-13
-7.64449e-07
-8.68481e-07
-2.93196e-13
-6.69526e-07
-9.03362e-07
-4.59626e-13
-5.69508e-07
-9.14902e-07
-6.40834e-13
-4.6724e-07
-9.00861e-07
-7.99606e-13
-3.66064e-07
-8.59715e-07
-9.51239e-13
-2.69727e-07
-7.90872e-07
-1.46779e-12
-1.82242e-07
-6.9484e-07
-1.64319e-12
-1.07713e-07
-5.73346e-07
2.76557e-12
-5.01178e-08
-4.29343e-07
-3.60106e-12
-1.3099e-08
-2.66887e-07
-5.20675e-11
-9.11821e-08
5.35914e-11
-1.1888e-08
1.07427e-07
-4.76227e-11
-4.398e-08
2.97498e-07
4.76314e-11
-9.24755e-08
4.61172e-07
3.33097e-12
-1.53951e-07
5.9802e-07
-2.93511e-12
-2.25227e-07
7.08425e-07
7.07565e-13
-3.03431e-07
7.93323e-07
4.05893e-13
-3.86036e-07
8.54041e-07
-9.66533e-14
-4.70856e-07
8.92159e-07
-2.07285e-13
-5.56029e-07
9.09374e-07
-2.61725e-13
-6.39988e-07
9.07407e-07
-3.08119e-13
-7.2142e-07
8.87927e-07
-3.2908e-13
-7.99231e-07
8.52512e-07
-3.32538e-13
-8.72497e-07
8.02619e-07
-3.25009e-13
-9.4043e-07
7.39586e-07
-3.09069e-13
-1.00234e-06
6.64646e-07
-2.86101e-13
-1.05759e-06
5.78944e-07
-2.56007e-13
-1.10559e-06
4.83578e-07
-2.19529e-13
-1.14576e-06
3.79634e-07
-1.77562e-13
-1.17753e-06
2.68232e-07
-1.30852e-13
-1.20028e-06
1.50573e-07
-8.09106e-14
-1.21342e-06
2.79894e-08
-3.01663e-14
-1.21633e-06
-9.8006e-08
1.81674e-14
-1.2084e-06
-2.25674e-07
6.00897e-14
-1.18907e-06
-3.53005e-07
9.05788e-14
-1.15786e-06
-4.77684e-07
1.04024e-13
-1.11444e-06
-5.97071e-07
9.39484e-14
-1.05871e-06
-7.08201e-07
5.27149e-14
-9.90849e-07
-8.07808e-07
-2.65378e-14
-9.1146e-07
-8.9239e-07
-1.46275e-13
-8.21627e-07
-9.58313e-07
-3.04121e-13
-7.23019e-07
-1.00197e-06
-4.9679e-13
-6.17943e-07
-1.01998e-06
-7.15177e-13
-5.09372e-07
-1.00943e-06
-9.16181e-13
-4.00912e-07
-9.68174e-07
-1.1139e-12
-2.96716e-07
-8.95066e-07
-1.71984e-12
-2.01327e-07
-7.90227e-07
-1.93372e-12
-1.19474e-07
-6.55202e-07
2.99612e-12
-5.58097e-08
-4.93003e-07
-4.14572e-12
-1.46527e-08
-3.07986e-07
-5.83748e-11
-1.05895e-07
6.00369e-11
-1.24934e-08
1.19971e-07
-5.00865e-11
-4.61634e-08
3.31117e-07
5.01785e-11
-9.69264e-08
5.11931e-07
3.58794e-12
-1.61088e-07
6.62184e-07
-3.0332e-12
-2.35225e-07
7.82562e-07
7.71161e-13
-3.16264e-07
8.74361e-07
4.27505e-13
-4.01528e-07
9.39305e-07
-1.26166e-13
-4.88735e-07
9.79366e-07
-2.63256e-13
-5.75978e-07
9.96618e-07
-3.36686e-13
-6.61689e-07
9.93118e-07
-3.96981e-13
-7.44591e-07
9.7083e-07
-4.27412e-13
-8.23651e-07
9.31572e-07
-4.3703e-13
-8.98027e-07
8.76995e-07
-4.33226e-13
-9.6702e-07
8.0858e-07
-4.19453e-13
-1.03003e-06
7.27659e-07
-3.97086e-13
-1.08653e-06
6.35438e-07
-3.66197e-13
-1.13599e-06
5.3304e-07
-3.27838e-13
-1.1779e-06
4.21548e-07
-2.83118e-13
-1.21173e-06
3.0206e-07
-2.3261e-13
-1.23689e-06
1.75737e-07
-1.77199e-13
-1.25277e-06
4.3864e-08
-1.18548e-13
-1.25868e-06
-9.20889e-08
-5.93061e-14
-1.25395e-06
-2.30412e-07
-3.56075e-15
-1.23786e-06
-3.69096e-07
4.30654e-14
-1.20976e-06
-5.05783e-07
7.38226e-14
-1.1691e-06
-6.37728e-07
8.05842e-14
-1.11552e-06
-7.61777e-07
5.34283e-14
-1.04896e-06
-8.74377e-07
-1.74707e-14
-9.69726e-07
-9.71621e-07
-1.37904e-13
-8.78688e-07
-1.04935e-06
-3.08707e-13
-7.77346e-07
-1.10331e-06
-5.29092e-13
-6.67945e-07
-1.12938e-06
-7.90137e-13
-5.53531e-07
-1.12384e-06
-1.04274e-12
-4.3795e-07
-1.08375e-06
-1.29956e-12
-3.25769e-07
-1.00725e-06
-2.01536e-12
-2.22109e-07
-8.93884e-07
-2.28104e-12
-1.32416e-07
-7.44899e-07
3.22875e-12
-6.21359e-08
-5.63278e-07
-4.7928e-12
-1.63985e-08
-3.53657e-07
-6.54994e-11
-1.22361e-07
6.72906e-11
-1.31121e-08
1.33135e-07
-5.26228e-11
-4.83828e-08
3.66335e-07
5.28317e-11
-1.01409e-07
5.64954e-07
3.88477e-12
-1.68188e-07
7.28966e-07
-3.11232e-12
-2.45018e-07
8.59392e-07
8.49742e-13
-3.28603e-07
9.57945e-07
4.5436e-13
-4.16105e-07
1.02681e-06
-1.59042e-13
-5.05148e-07
1.06841e-06
-3.28048e-13
-5.93793e-07
1.08526e-06
-4.24137e-13
-6.80489e-07
1.07981e-06
-5.00024e-13
-7.64017e-07
1.05436e-06
-5.40145e-13
-8.43434e-07
1.01099e-06
-5.54962e-13
-9.18008e-07
9.51569e-07
-5.53153e-13
-9.8716e-07
8.77733e-07
-5.39579e-13
-1.05042e-06
7.90915e-07
-5.16158e-13
-1.10736e-06
6.92378e-07
-4.8345e-13
-1.15758e-06
5.83261e-07
-4.42803e-13
-1.20065e-06
4.64628e-07
-3.95341e-13
-1.23612e-06
3.37529e-07
-3.41259e-13
-1.26344e-06
2.03058e-07
-2.80661e-13
-1.282e-06
6.24222e-08
-2.14327e-13
-1.2911e-06
-8.2995e-08
-1.44293e-13
-1.28995e-06
-2.31558e-07
-7.44704e-14
-1.27773e-06
-3.81311e-07
-1.07821e-14
-1.25361e-06
-5.29905e-07
3.91985e-14
-1.2168e-06
-6.74545e-07
6.58871e-14
-1.16664e-06