/*--------------------------------*- C++ -*----------------------------------*\
  =========                 |
  \\      /  F ield         | OpenFOAM: The Open Source CFD Toolbox
   \\    /   O peration     | Website:  https://openfoam.org
    \\  /    A nd           | Version:  9
     \\/     M anipulation  |
\*---------------------------------------------------------------------------*/
FoamFile
{
    format      ascii;
    class       volScalarField;
    location    "8.31";
    object      p;
}
// * * * * * * * * * * * * * * * * * * * * * * * * * * * * * * * * * * * * * //

dimensions      [1 -1 -2 0 0 0 0];

internalField   nonuniform List<scalar> 
2268
(
722.252
722.394
722.698
723.163
723.78
724.539
725.428
726.42
727.507
728.665
729.873
731.102
732.317
733.594
734.715
735.76
736.712
737.582
738.401
739.069
739.685
740.115
740.352
663.363
663.508
663.812
664.278
664.896
665.655
666.537
667.534
668.622
669.783
670.993
672.224
673.45
674.686
675.821
676.885
677.877
678.795
679.728
680.44
680.947
681.267
681.5
604.439
604.587
604.893
605.363
605.984
606.746
607.634
608.633
609.726
610.893
612.109
613.347
614.582
615.806
616.957
618.044
619.073
620.01
621.041
621.775
622.202
622.458
622.701
545.478
545.628
545.938
546.413
547.041
547.81
548.706
549.713
550.815
551.993
553.222
554.474
555.725
556.956
558.129
559.244
560.299
561.254
562.27
563.067
563.46
563.686
563.966
486.479
486.631
486.946
487.428
488.065
488.845
489.753
490.774
491.889
493.085
494.333
495.605
496.879
498.133
499.338
500.487
501.551
502.499
503.488
504.324
504.733
504.991
505.306
427.44
427.595
427.916
428.408
429.056
429.85
430.775
431.814
432.948
434.168
435.439
436.738
438.042
439.33
440.579
441.778
442.915
443.719
444.707
445.593
446.012
446.424
446.723
368.363
368.519
368.849
369.352
370.014
370.827
371.773
372.835
373.989
375.24
376.541
377.871
379.212
380.544
381.848
383.118
384.379
385.335
386.167
386.926
387.545
388.006
388.207
309.243
309.406
309.748
310.265
310.945
311.778
312.75
313.84
315.012
316.305
317.639
319.004
320.386
321.77
323.14
324.496
325.906
327.339
328.135
328.589
329.534
329.723
329.77
738.843
738.858
738.763
738.177
737.309
736.219
734.994
733.688
732.337
731.001
729.705
728.468
727.443
726.774
725.983
725.42
724.886
724.542
724.439
680.1
679.904
679.824
679.25
678.408
677.365
676.213
674.928
673.6
672.34
671.206
670.124
669.07
668.043
667.209
666.615
666.074
665.74
665.658
621.596
621.212
620.999
620.385
619.54
618.499
617.343
616.07
614.767
613.547
612.53
611.635
610.612
609.374
608.428
607.835
607.296
607.071
607.006
563.236
562.742
562.31
561.609
560.73
559.672
558.507
557.24
555.949
554.731
553.722
552.879
551.89
550.636
549.618
549.024
548.488
548.367
548.257
504.929
504.351
503.706
502.898
501.968
500.886
499.708
498.441
497.144
495.902
494.874
493.965
492.973
491.797
490.866
490.202
489.602
489.516
489.408
446.507
445.892
445.123
444.226
443.241
442.123
440.928
439.663
438.334
437.007
435.989
435.041
434.029
432.865
432.125
431.617
430.876
430.552
430.508
387.935
387.337
386.534
385.579
384.54
383.375
382.163
380.916
379.607
378.197
377.069
376.114
375.086
373.973
373.468
372.871
372.25
371.588
371.592
329.337
328.77
327.95
326.958
325.864
324.637
323.409
322.212
321.158
319.757
318.32
317.192
316.173
315.417
314.959
314.082
313.55
312.673
312.678
216.769
216.942
217.301
217.837
218.544
219.413
220.432
221.581
222.845
224.156
225.537
226.959
228.414
229.892
231.379
232.876
234.407
235.895
236.97
237.714
238.335
238.561
238.509
93.3134
93.4526
93.7595
94.2472
94.8774
95.6384
96.5387
97.5861
98.7729
100.071
101.46
102.907
104.358
105.807
107.24
108.658
110.115
111.627
112.919
113.815
114.271
114.447
114.567
16.0838
16.1408
16.2641
16.47
16.7469
17.0745
17.4583
17.9077
18.4368
19.0553
19.7436
20.4706
21.1867
21.8657
22.5071
23.1292
23.8155
24.6385
25.3466
25.8284
26.0354
26.0784
26.1551
-0.743679
-0.722619
-0.704689
-0.705741
-0.68412
-0.638804
-0.598732
-0.577383
-0.572566
-0.571375
-0.576615
-0.581982
-0.5861
-0.591007
-0.613835
-0.631863
-0.664885
-0.724425
-0.782049
-0.787352
-0.774291
-0.761533
-0.774542
-0.939323
-0.940148
-0.939348
-0.939981
-0.934367
-0.923633
-0.909149
-0.897713
-0.891678
-0.886954
-0.884989
-0.884499
-0.884228
-0.88601
-0.895803
-0.904799
-0.915333
-0.927344
-0.937872
-0.942885
-0.944465
-0.947292
-0.951041
-1.12579
-1.13059
-1.1321
-1.1335
-1.13569
-1.14462
-1.14809
-1.1507
-1.15225
-1.15377
-1.15458
-1.15461
-1.15353
-1.15273
-1.15082
-1.15167
-1.15125
-1.14723
-1.1442
-1.14253
-1.14016
-1.13696
-1.13337
-1.27217
-1.27361
-1.27235
-1.27274
-1.27439
-1.2739
-1.2764
-1.27782
-1.27869
-1.27956
-1.28012
-1.28026
-1.27986
-1.28
-1.28133
-1.28309
-1.28483
-1.28711
-1.28709
-1.28785
-1.28804
-1.28723
-1.28654
-1.40053
-1.40026
-1.39984
-1.3998
-1.40053
-1.4008
-1.4022
-1.40335
-1.40438
-1.40538
-1.40634
-1.40747
-1.40907
-1.41059
-1.41158
-1.41182
-1.41208
-1.4133
-1.41409
-1.41482
-1.41581
-1.41674
-1.41683
-1.52579
-1.52612
-1.52613
-1.52634
-1.52686
-1.52736
-1.52828
-1.52926
-1.53021
-1.53122
-1.53233
-1.53382
-1.53612
-1.53778
-1.53823
-1.53806
-1.53808
-1.53855
-1.53897
-1.53946
-1.54009
-1.54059
-1.54059
-1.65203
-1.65224
-1.65235
-1.65262
-1.65309
-1.65365
-1.6544
-1.65521
-1.65608
-1.65703
-1.65809
-1.65931
-1.66077
-1.66196
-1.6626
-1.66302
-1.66329
-1.66352
-1.6638
-1.66418
-1.66461
-1.66494
-1.66491
-1.77807
-1.77826
-1.77843
-1.77872
-1.77915
-1.7797
-1.78034
-1.78104
-1.78185
-1.78272
-1.78366
-1.78462
-1.78568
-1.78659
-1.78715
-1.78753
-1.78789
-1.78827
-1.78861
-1.78897
-1.78932
-1.7896
-1.78972
-1.90406
-1.90423
-1.90441
-1.90468
-1.90507
-1.90555
-1.90611
-1.90673
-1.9075
-1.90831
-1.90909
-1.90988
-1.91072
-1.91147
-1.912
-1.91238
-1.91272
-1.91306
-1.91347
-1.91383
-1.91415
-1.91445
-1.91473
-2.02999
-2.03013
-2.03029
-2.03055
-2.0309
-2.03132
-2.0318
-2.03238
-2.03308
-2.03379
-2.03445
-2.03513
-2.03584
-2.03652
-2.03714
-2.03758
-2.03786
-2.0381
-2.03845
-2.03875
-2.03904
-2.03933
-2.03964
-2.15582
-2.15595
-2.1561
-2.15633
-2.15665
-2.15703
-2.15747
-2.15801
-2.15861
-2.15919
-2.15977
-2.16037
-2.16099
-2.16161
-2.16224
-2.16276
-2.16311
-2.16333
-2.16349
-2.1637
-2.16394
-2.16419
-2.16446
-2.28158
-2.28171
-2.28183
-2.28204
-2.28233
-2.28268
-2.28311
-2.28359
-2.28409
-2.28457
-2.28508
-2.2856
-2.28614
-2.28668
-2.28722
-2.28775
-2.28816
-2.28838
-2.28848
-2.28865
-2.28885
-2.28906
-2.28926
-2.4073
-2.40737
-2.40749
-2.40769
-2.40795
-2.40827
-2.40867
-2.4091
-2.40951
-2.40992
-2.41037
-2.41083
-2.41129
-2.41176
-2.41222
-2.41265
-2.413
-2.41325
-2.41341
-2.41358
-2.41376
-2.41393
-2.41409
-2.53296
-2.53297
-2.5331
-2.53328
-2.53351
-2.5338
-2.53415
-2.53451
-2.53487
-2.53524
-2.53564
-2.53604
-2.53645
-2.53685
-2.53724
-2.5376
-2.53791
-2.53815
-2.53834
-2.53851
-2.53867
-2.53882
-2.53894
-2.65853
-2.65857
-2.65867
-2.65883
-2.65903
-2.65928
-2.65958
-2.65989
-2.66021
-2.66055
-2.66089
-2.66125
-2.6616
-2.66195
-2.66229
-2.6626
-2.66288
-2.6631
-2.66329
-2.66346
-2.66361
-2.66373
-2.66383
-2.78408
-2.78412
-2.7842
-2.78434
-2.78452
-2.78473
-2.78498
-2.78526
-2.78554
-2.78584
-2.78615
-2.78646
-2.78677
-2.78707
-2.78737
-2.78764
-2.78788
-2.78809
-2.78827
-2.78843
-2.78856
-2.78867
-2.78876
-2.90959
-2.90963
-2.9097
-2.90982
-2.90997
-2.91016
-2.91037
-2.91061
-2.91086
-2.91112
-2.91139
-2.91167
-2.91194
-2.91221
-2.91247
-2.9127
-2.91292
-2.91311
-2.91328
-2.91343
-2.91355
-2.91365
-2.91372
-3.03506
-3.0351
-3.03516
-3.03526
-3.03539
-3.03555
-3.03574
-3.03594
-3.03616
-3.0364
-3.03663
-3.03688
-3.03712
-3.03735
-3.03758
-3.03779
-3.03799
-3.03816
-3.03832
-3.03845
-3.03856
-3.03865
-3.03871
-3.1605
-3.16053
-3.16058
-3.16067
-3.16078
-3.16092
-3.16109
-3.16127
-3.16146
-3.16166
-3.16187
-3.16209
-3.1623
-3.16251
-3.16271
-3.1629
-3.16308
-3.16323
-3.16337
-3.16349
-3.1636
-3.16368
-3.16374
-3.2859
-3.28594
-3.28597
-3.28606
-3.28616
-3.28628
-3.28642
-3.28657
-3.28674
-3.28692
-3.28711
-3.2873
-3.28749
-3.28767
-3.28785
-3.28802
-3.28818
-3.28832
-3.28845
-3.28856
-3.28865
-3.28873
-3.28878
-3.41128
-3.41133
-3.41136
-3.41143
-3.41151
-3.41161
-3.41173
-3.41187
-3.41202
-3.41218
-3.41234
-3.41251
-3.41268
-3.41284
-3.413
-3.41315
-3.4133
-3.41342
-3.41354
-3.41364
-3.41373
-3.41379
-3.41385
-3.53664
-3.53672
-3.53673
-3.53678
-3.53685
-3.53693
-3.53704
-3.53716
-3.53729
-3.53743
-3.53757
-3.53772
-3.53787
-3.53802
-3.53816
-3.53829
-3.53842
-3.53854
-3.53864
-3.53873
-3.53881
-3.53888
-3.53892
-3.66199
-3.66207
-3.66207
-3.66211
-3.66216
-3.66224
-3.66233
-3.66243
-3.66255
-3.66267
-3.6628
-3.66293
-3.66306
-3.66319
-3.66332
-3.66344
-3.66355
-3.66366
-3.66375
-3.66384
-3.66391
-3.66397
-3.66401
-3.78736
-3.78738
-3.78738
-3.78742
-3.78747
-3.78753
-3.78761
-3.7877
-3.7878
-3.78791
-3.78802
-3.78814
-3.78825
-3.78837
-3.78848
-3.78859
-3.78869
-3.78879
-3.78887
-3.78895
-3.78902
-3.78907
-3.78912
-3.91269
-3.91267
-3.91268
-3.91271
-3.91275
-3.91281
-3.91288
-3.91296
-3.91305
-3.91314
-3.91324
-3.91334
-3.91345
-3.91355
-3.91365
-3.91375
-3.91384
-3.91392
-3.914
-3.91407
-3.91413
-3.91418
-3.91422
-4.03799
-4.03796
-4.03797
-4.03799
-4.03803
-4.03808
-4.03814
-4.03821
-4.03829
-4.03837
-4.03846
-4.03855
-4.03864
-4.03873
-4.03882
-4.03891
-4.03899
-4.03906
-4.03913
-4.0392
-4.03925
-4.0393
-4.03934
-4.16324
-4.16327
-4.16325
-4.16327
-4.16329
-4.16334
-4.16339
-4.16345
-4.16352
-4.1636
-4.16368
-4.16376
-4.16384
-4.16392
-4.16399
-4.16407
-4.16414
-4.16421
-4.16427
-4.16433
-4.16438
-4.16443
-4.16447
-4.28853
-4.28853
-4.28852
-4.28852
-4.28855
-4.28859
-4.28864
-4.28869
-4.28876
-4.28882
-4.28889
-4.28896
-4.28903
-4.2891
-4.28917
-4.28924
-4.2893
-4.28936
-4.28942
-4.28947
-4.28952
-4.28956
-4.2896
-4.41382
-4.41378
-4.41377
-4.41377
-4.41379
-4.41383
-4.41388
-4.41393
-4.41399
-4.41405
-4.41411
-4.41417
-4.41423
-4.41429
-4.41435
-4.41441
-4.41447
-4.41452
-4.41457
-4.41462
-4.41466
-4.41471
-4.41474
-4.53905
-4.53906
-4.53902
-4.539
-4.53903
-4.53907
-4.53912
-4.53917
-4.53922
-4.53927
-4.53932
-4.53938
-4.53943
-4.53948
-4.53954
-4.53959
-4.53964
-4.53968
-4.53973
-4.53977
-4.53981
-4.53985
-4.53989
-4.6643
-4.66431
-4.66425
-4.66423
-4.66426
-4.66431
-4.66435
-4.6644
-4.66445
-4.66449
-4.66454
-4.66459
-4.66463
-4.66468
-4.66472
-4.66477
-4.66481
-4.66485
-4.66489
-4.66493
-4.66497
-4.66501
-4.66504
-4.78957
-4.78953
-4.78949
-4.78949
-4.78951
-4.78955
-4.7896
-4.78964
-4.78968
-4.78972
-4.78976
-4.7898
-4.78984
-4.78988
-4.78991
-4.78995
-4.78999
-4.79002
-4.79006
-4.79009
-4.79013
-4.79016
-4.7902
-4.91481
-4.91475
-4.91474
-4.91475
-4.91478
-4.91481
-4.91484
-4.91488
-4.91491
-4.91495
-4.91498
-4.91501
-4.91505
-4.91508
-4.91511
-4.91514
-4.91517
-4.9152
-4.91523
-4.91526
-4.91529
-4.91532
-4.91536
-5.04002
-5.03995
-5.03997
-5.04001
-5.04004
-5.04006
-5.04009
-5.04012
-5.04015
-5.04017
-5.0402
-5.04023
-5.04026
-5.04028
-5.04031
-5.04033
-5.04035
-5.04038
-5.0404
-5.04043
-5.04046
-5.04049
-5.04052
-5.16519
-5.16512
-5.16517
-5.16524
-5.16528
-5.16531
-5.16533
-5.16536
-5.16538
-5.1654
-5.16543
-5.16545
-5.16547
-5.16549
-5.16551
-5.16552
-5.16554
-5.16556
-5.16558
-5.1656
-5.16562
-5.16566
-5.16569
-5.29028
-5.29027
-5.29037
-5.29046
-5.29052
-5.29055
-5.29058
-5.2906
-5.29062
-5.29064
-5.29065
-5.29067
-5.29068
-5.2907
-5.29071
-5.29072
-5.29074
-5.29075
-5.29076
-5.29077
-5.29079
-5.29083
-5.29087
-5.4154
-5.41546
-5.41561
-5.41571
-5.41577
-5.41581
-5.41583
-5.41585
-5.41586
-5.41587
-5.41588
-5.41589
-5.4159
-5.41591
-5.41592
-5.41593
-5.41593
-5.41594
-5.41594
-5.41595
-5.41596
-5.41599
-5.41604
-5.54049
-5.54072
-5.54089
-5.54098
-5.54104
-5.54106
-5.54107
-5.54108
-5.54108
-5.54109
-5.54109
-5.5411
-5.5411
-5.54111
-5.54111
-5.54111
-5.54111
-5.54111
-5.54111
-5.5411
-5.54109
-5.54114
-5.54123
-5.66586
-5.66636
-5.66629
-5.66631
-5.66631
-5.66631
-5.66631
-5.66631
-5.66631
-5.66631
-5.66631
-5.66631
-5.66631
-5.66632
-5.66632
-5.66632
-5.66631
-5.66631
-5.6663
-5.66628
-5.66624
-5.66627
-5.6664
239.576
239.516
239.428
239.202
114.972
115.006
114.909
114.686
26.2892
26.3082
26.2642
26.1548
-0.799984
-0.805136
-0.798135
-0.787867
-0.95531
-0.956692
-0.954925
-0.952214
-1.13313
-1.13274
-1.13403
-1.13261
-1.28295
-1.28189
-1.28322
-1.28481
-1.41537
-1.41456
-1.41467
-1.41488
-1.53983
-1.53935
-1.53897
-1.53874
-1.66441
-1.66404
-1.66376
-1.66352
-1.78964
-1.78954
-1.78946
-1.78934
-1.91506
-1.91528
-1.91536
-1.91536
-2.03999
-2.04024
-2.0405
-2.04064
-2.1647
-2.16485
-2.16498
-2.16509
-2.28942
-2.28951
-2.28958
-2.28963
-2.41419
-2.41425
-2.41428
-2.4143
-2.53901
-2.53905
-2.53907
-2.53908
-2.66388
-2.66391
-2.66392
-2.66392
-2.7888
-2.78882
-2.78883
-2.78883
-2.91375
-2.91377
-2.91378
-2.91378
-3.03874
-3.03876
-3.03876
-3.03877
-3.16376
-3.16378
-3.16378
-3.16379
-3.28881
-3.28882
-3.28883
-3.28883
-3.41387
-3.41388
-3.41389
-3.41389
-3.53895
-3.53896
-3.53897
-3.53897
-3.66404
-3.66405
-3.66406
-3.66406
-3.78914
-3.78915
-3.78916
-3.78917
-3.91425
-3.91426
-3.91427
-3.91428
-4.03937
-4.03938
-4.03939
-4.0394
-4.16449
-4.16451
-4.16452
-4.16453
-4.28963
-4.28964
-4.28965
-4.28966
-4.41477
-4.41478
-4.41479
-4.4148
-4.53991
-4.53993
-4.53994
-4.53995
-4.66506
-4.66508
-4.66509
-4.6651
-4.79022
-4.79023
-4.79025
-4.79026
-4.91538
-4.9154
-4.91541
-4.91542
-5.04055
-5.04056
-5.04058
-5.04059
-5.16572
-5.16573
-5.16575
-5.16576
-5.29089
-5.29091
-5.29092
-5.29093
-5.41607
-5.41609
-5.4161
-5.41611
-5.54126
-5.54127
-5.54128
-5.54129
-5.66644
-5.66645
-5.66646
-5.66646
238.226
237.356
236.408
235.357
234.235
233.044
231.791
230.593
229.704
228.779
227.542
226.305
225.224
224.252
223.161
222.099
221.57
220.751
220.681
114.082
113.347
112.497
111.565
110.6
109.592
108.45
107.21
106.047
105.278
104.207
103.001
101.8
100.59
99.3127
98.5123
98.1326
97.7581
97.5914
25.8668
25.5052
25.129
24.7352
24.3261
23.8945
23.3864
22.7533
21.9863
21.4797
20.9036
20.2664
19.6414
19.1106
18.6403
18.405
18.3058
18.3309
18.3702
-0.773367
-0.755558
-0.718137
-0.715621
-0.723835
-0.732372
-0.73488
-0.732028
-0.730576
-0.746726
-0.767728
-0.798104
-0.82007
-0.777834
-0.7441
-0.72634
-0.722189
-0.726045
-0.733227
-0.949722
-0.94653
-0.937422
-0.932986
-0.935616
-0.937804
-0.939542
-0.941498
-0.944144
-0.949076
-0.956447
-0.964989
-0.967297
-0.960048
-0.953983
-0.950406
-0.947751
-0.946378
-0.944552
-1.13043
-1.13327
-1.13908
-1.13989
-1.13893
-1.1393
-1.13967
-1.13994
-1.14046
-1.14169
-1.14088
-1.13749
-1.13075
-1.13487
-1.13426
-1.13297
-1.13191
-1.13119
-1.12955
-1.2859
-1.28498
-1.28572
-1.28499
-1.28279
-1.27961
-1.27717
-1.27556
-1.27387
-1.27123
-1.26842
-1.26641
-1.26671
-1.27037
-1.27212
-1.27314
-1.27336
-1.27358
-1.27365
-1.41475
-1.41332
-1.4117
-1.41022
-1.40806
-1.40567
-1.40405
-1.40253
-1.40098
-1.39941
-1.39759
-1.3962
-1.39631
-1.39797
-1.39904
-1.39964
-1.39984
-1.39985
-1.39977
-1.53835
-1.53758
-1.53673
-1.53584
-1.53472
-1.53378
-1.53326
-1.53216
-1.53081
-1.52985
-1.52877
-1.52729
-1.5263
-1.52573
-1.52584
-1.52604
-1.52609
-1.52601
-1.5258
-1.66313
-1.66234
-1.66184
-1.66168
-1.66177
-1.66195
-1.66144
-1.66038
-1.65926
-1.65822
-1.65738
-1.65634
-1.65489
-1.65295
-1.65244
-1.65229
-1.65219
-1.65208
-1.65187
-1.78905
-1.78806
-1.78745
-1.78742
-1.78767
-1.78778
-1.78684
-1.78567
-1.78467
-1.78379
-1.78308
-1.78245
-1.7814
-1.77965
-1.77877
-1.7783
-1.77811
-1.778
-1.77789
-1.91521
-1.9145
-1.91374
-1.91311
-1.9128
-1.91249
-1.91177
-1.9109
-1.91006
-1.90927
-1.90858
-1.90794
-1.90715
-1.90585
-1.90466
-1.90407
-1.90386
-1.90375
-1.9038
-2.0407
-2.04028
-2.03951
-2.0385
-2.03791
-2.03744
-2.03682
-2.03611
-2.0354
-2.0347
-2.03406
-2.03349
-2.0328
-2.03186
-2.03061
-2.02988
-2.02955
-2.02938
-2.02966
-2.16521
-2.16496
-2.16426
-2.16351
-2.16295
-2.16245
-2.16189
-2.16129
-2.16068
-2.16008
-2.15952
-2.15901
-2.1585
-2.15788
-2.15692
-2.15603
-2.15534
-2.15496
-2.15534
-2.28967
-2.28944
-2.28898
-2.28844
-2.28796
-2.28749
-2.287
-2.28648
-2.28596
-2.28545
-2.28497
-2.28453
-2.28415
-2.28371
-2.28302
-2.28223
-2.28135
-2.28099
-2.28137
-2.41431
-2.41413
-2.41379
-2.41337
-2.41297
-2.41256
-2.41213
-2.41168
-2.41123
-2.4108
-2.41039
-2.41001
-2.40966
-2.40928
-2.40882
-2.40833
-2.40787
-2.40773
-2.40821
-2.53907
-2.53893
-2.53867
-2.53834
-2.538
-2.53764
-2.53727
-2.53689
-2.53651
-2.53614
-2.5358
-2.53548
-2.5352
-2.53493
-2.53469
-2.53457
-2.53468
-2.53477
-2.53505
-2.66392
-2.6638
-2.6636
-2.66335
-2.66306
-2.66275
-2.66243
-2.66211
-2.66179
-2.66148
-2.6612
-2.66094
-2.66073
-2.66056
-2.66047
-2.66054
-2.66088
-2.66103
-2.66098
-2.78882
-2.78873
-2.78857
-2.78837
-2.78813
-2.78787
-2.7876
-2.78733
-2.78706
-2.7868
-2.78657
-2.78637
-2.78621
-2.78611
-2.78608
-2.78616
-2.78637
-2.78648
-2.7864
-2.91377
-2.91369
-2.91357
-2.91341
-2.91321
-2.913
-2.91277
-2.91255
-2.91232
-2.91211
-2.91192
-2.91177
-2.91165
-2.91157
-2.91157
-2.91163
-2.91174
-2.91182
-2.91171
-3.03876
-3.0387
-3.0386
-3.03847
-3.03831
-3.03813
-3.03794
-3.03776
-3.03758
-3.0374
-3.03725
-3.03713
-3.03703
-3.03698
-3.03698
-3.03701
-3.03705
-3.03707
-3.03695
-3.16378
-3.16373
-3.16365
-3.16355
-3.16342
-3.16327
-3.16312
-3.16297
-3.16282
-3.16268
-3.16256
-3.16246
-3.16239
-3.16235
-3.16233
-3.16234
-3.16234
-3.16231
-3.16216
-3.28883
-3.28879
-3.28873
-3.28864
-3.28854
-3.28842
-3.2883
-3.28817
-3.28805
-3.28794
-3.28784
-3.28776
-3.28771
-3.28767
-3.28766
-3.28766
-3.28763
-3.28758
-3.28742
-3.41389
-3.41387
-3.41382
-3.41375
-3.41367
-3.41357
-3.41347
-3.41337
-3.41327
-3.41319
-3.41311
-3.41305
-3.413
-3.41298
-3.41297
-3.41296
-3.41294
-3.41289
-3.41276
-3.53897
-3.53896
-3.53892
-3.53887
-3.5388
-3.53873
-3.53865
-3.53857
-3.53849
-3.53842
-3.53836
-3.53832
-3.53828
-3.53826
-3.53825
-3.53825
-3.53823
-3.53819
-3.53808
-3.66407
-3.66406
-3.66403
-3.66399
-3.66394
-3.66388
-3.66382
-3.66376
-3.6637
-3.66365
-3.6636
-3.66357
-3.66354
-3.66353
-3.66352
-3.66352
-3.66352
-3.66348
-3.66339
-3.78917
-3.78917
-3.78915
-3.78912
-3.78909
-3.78905
-3.789
-3.78895
-3.78891
-3.78887
-3.78884
-3.78881
-3.78879
-3.78878
-3.78877
-3.78877
-3.78876
-3.78872
-3.78865
-3.91429
-3.91429
-3.91428
-3.91426
-3.91424
-3.91421
-3.91418
-3.91414
-3.91411
-3.91408
-3.91406
-3.91404
-3.91403
-3.91402
-3.91401
-3.91399
-3.91396
-3.91389
-3.91379
-4.03941
-4.03942
-4.03942
-4.03941
-4.03939
-4.03937
-4.03935
-4.03933
-4.03931
-4.03929
-4.03928
-4.03927
-4.03926
-4.03925
-4.03923
-4.0392
-4.03913
-4.03903
-4.03887
-4.16454
-4.16455
-4.16456
-4.16456
-4.16455
-4.16454
-4.16453
-4.16451
-4.1645
-4.1645
-4.16449
-4.16449
-4.16448
-4.16448
-4.16446
-4.16441
-4.16433
-4.16421
-4.16401
-4.28968
-4.28969
-4.2897
-4.28971
-4.28971
-4.28971
-4.2897
-4.2897
-4.2897
-4.2897
-4.2897
-4.2897
-4.28971
-4.2897
-4.28969
-4.28965
-4.28957
-4.28945
-4.28926
-4.41482
-4.41484
-4.41486
-4.41486
-4.41487
-4.41487
-4.41488
-4.41488
-4.41489
-4.4149
-4.41491
-4.41492
-4.41493
-4.41494
-4.41493
-4.4149
-4.41483
-4.41472
-4.41455
-4.53997
-4.53999
-4.54001
-4.54002
-4.54003
-4.54004
-4.54005
-4.54006
-4.54007
-4.54009
-4.54011
-4.54013
-4.54015
-4.54017
-4.54018
-4.54016
-4.54011
-4.54001
-4.53982
-4.66512
-4.66515
-4.66517
-4.66518
-4.6652
-4.66521
-4.66523
-4.66524
-4.66526
-4.66528
-4.66531
-4.66534
-4.66537
-4.6654
-4.66543
-4.66543
-4.6654
-4.6653
-4.66509
-4.79028
-4.79031
-4.79033
-4.79035
-4.79036
-4.79038
-4.7904
-4.79042
-4.79044
-4.79047
-4.7905
-4.79054
-4.79058
-4.79063
-4.79067
-4.7907
-4.7907
-4.7906
-4.79038
-4.91544
-4.91547
-4.91549
-4.91551
-4.91553
-4.91555
-4.91557
-4.91559
-4.91561
-4.91564
-4.91568
-4.91573
-4.91579
-4.91585
-4.91592
-4.91597
-4.91599
-4.91588
-4.91565
-5.04061
-5.04064
-5.04066
-5.04068
-5.0407
-5.04071
-5.04073
-5.04075
-5.04078
-5.04082
-5.04086
-5.04091
-5.04098
-5.04106
-5.04115
-5.04123
-5.04127
-5.04115
-5.04087
-5.16578
-5.1658
-5.16582
-5.16584
-5.16586
-5.16588
-5.1659
-5.16592
-5.16594
-5.16598
-5.16602
-5.16608
-5.16616
-5.16625
-5.16637
-5.16649
-5.16657
-5.16643
-5.16609
-5.29095
-5.29097
-5.29099
-5.29101
-5.29102
-5.29104
-5.29105
-5.29107
-5.2911
-5.29113
-5.29117
-5.29123
-5.29131
-5.29142
-5.29156
-5.29175
-5.29191
-5.2918
-5.29145
-5.41613
-5.41614
-5.41616
-5.41617
-5.41618
-5.41619
-5.41621
-5.41622
-5.41624
-5.41627
-5.41631
-5.41636
-5.41643
-5.41654
-5.4167
-5.41698
-5.41731
-5.41726
-5.41698
-5.5413
-5.54131
-5.54132
-5.54133
-5.54134
-5.54134
-5.54135
-5.54137
-5.54138
-5.5414
-5.54142
-5.54146
-5.54151
-5.54159
-5.54175
-5.54208
-5.54268
-5.54288
-5.54284
-5.66647
-5.66647
-5.66648
-5.66648
-5.66649
-5.6665
-5.6665
-5.66651
-5.66652
-5.66653
-5.66654
-5.66655
-5.66657
-5.66661
-5.6667
-5.66695
-5.66763
-5.66838
-5.66907
)
;

boundaryField
{
    leftWall
    {
        type            calculated;
        value           nonuniform List<scalar> 
50
(
722.252
663.363
604.439
545.478
486.479
427.44
368.363
309.243
216.769
93.3134
16.0838
-0.743679
-0.939323
-1.12579
-1.27217
-1.40053
-1.52579
-1.65203
-1.77807
-1.90406
-2.02999
-2.15582
-2.28158
-2.4073
-2.53296
-2.65853
-2.78408
-2.90959
-3.03506
-3.1605
-3.2859
-3.41128
-3.53664
-3.66199
-3.78736
-3.91269
-4.03799
-4.16324
-4.28853
-4.41382
-4.53905
-4.6643
-4.78957
-4.91481
-5.04002
-5.16519
-5.29028
-5.4154
-5.54049
-5.66586
)
;
    }
    rightWall
    {
        type            calculated;
        value           nonuniform List<scalar> 
50
(
724.439
665.658
607.006
548.257
489.408
430.508
371.592
312.678
220.681
97.5914
18.3702
-0.733227
-0.944552
-1.12955
-1.27365
-1.39977
-1.5258
-1.65187
-1.77789
-1.9038
-2.02966
-2.15534
-2.28137
-2.40821
-2.53505
-2.66098
-2.7864
-2.91171
-3.03695
-3.16216
-3.28742
-3.41276
-3.53808
-3.66339
-3.78865
-3.91379
-4.03887
-4.16401
-4.28926
-4.41455
-4.53982
-4.66509
-4.79038
-4.91565
-5.04087
-5.16609
-5.29145
-5.41698
-5.54284
-5.66907
)
;
    }
    lowerWall
    {
        type            calculated;
        value           nonuniform List<scalar> 
62
(
751.681
751.824
752.127
752.592
753.21
753.968
754.857
755.85
756.936
758.094
759.302
760.532
761.747
763.023
764.145
765.189
766.141
767.011
767.799
768.433
769.074
769.544
769.777
740.352
681.5
622.701
563.966
505.306
446.723
388.207
329.77
302.173
302.113
302.025
301.799
738.843
680.1
621.596
563.236
504.929
446.507
387.935
329.337
768.256
768.282
768.174
767.585
766.722
765.598
764.272
762.964
761.62
760.247
758.905
757.668
756.695
756.164
755.374
754.81
754.277
753.933
753.828
)
;
    }
    atmosphere
    {
        type            calculated;
        value           nonuniform List<scalar> 
46
(
-5.7291
-5.72904
-5.72904
-5.72904
-5.72904
-5.72904
-5.72904
-5.72904
-5.72904
-5.72904
-5.72904
-5.72904
-5.72904
-5.72904
-5.72904
-5.72904
-5.72904
-5.72904
-5.72904
-5.72904
-5.72904
-5.72904
-5.72904
-5.72904
-5.72904
-5.72904
-5.72905
-5.72905
-5.72905
-5.72906
-5.72906
-5.72907
-5.72907
-5.72908
-5.72909
-5.72909
-5.7291
-5.7291
-5.72911
-5.72911
-5.72911
-5.72911
-5.72911
-5.7291
-5.72907
-5.73321
)
;
    }
    defaultFaces
    {
        type            empty;
    }
}


// ************************************************************************* //
