/*--------------------------------*- C++ -*----------------------------------*\
  =========                 |
  \\      /  F ield         | OpenFOAM: The Open Source CFD Toolbox
   \\    /   O peration     | Website:  https://openfoam.org
    \\  /    A nd           | Version:  9
     \\/     M anipulation  |
\*---------------------------------------------------------------------------*/
FoamFile
{
    format      ascii;
    class       volScalarField;
    location    "3.85";
    object      nut;
}
// * * * * * * * * * * * * * * * * * * * * * * * * * * * * * * * * * * * * * //

dimensions      [0 2 -1 0 0 0 0];

internalField   nonuniform List<scalar> 
2268
(
2.25714e-05
2.62058e-05
3.1592e-05
3.51262e-05
3.76793e-05
3.96085e-05
4.11007e-05
4.22675e-05
4.31832e-05
4.39046e-05
4.44784e-05
4.49398e-05
4.5318e-05
4.56481e-05
4.58651e-05
4.58637e-05
4.53394e-05
4.36269e-05
4.14575e-05
3.96711e-05
3.74407e-05
3.27005e-05
2.04773e-05
5.14282e-05
0.000204584
0.000274662
0.000318992
0.000350408
0.000373942
0.000392162
0.000406527
0.000417961
0.000427148
0.000434689
0.000441073
0.000446458
0.000450167
0.000452058
0.000450889
0.000444023
0.000425085
0.000387999
0.000368502
0.000345553
0.000262263
6.75409e-05
6.09696e-05
0.00034625
0.00050268
0.000603607
0.000675726
0.000729971
0.000772004
0.000805114
0.000831405
0.000852401
0.000869326
0.00088311
0.000894086
0.000901552
0.000904586
0.000900509
0.000884284
0.000846882
0.000785995
0.000730133
0.000644094
0.00044067
8.04095e-05
6.79541e-05
0.000444116
0.000678437
0.000834327
0.00094743
0.00103329
0.0011002
0.0011531
0.00119517
0.00122872
0.00125553
0.00127687
0.00129324
0.00130395
0.00130745
0.00130004
0.00127551
0.00122525
0.00114519
0.00104804
0.000888358
0.000573552
9.07551e-05
7.34483e-05
0.000515592
0.000815498
0.00102098
0.00117256
0.00128893
0.00138036
0.00145308
0.00151119
0.00155763
0.00159462
0.00162373
0.00164558
0.00165945
0.00166341
0.00165312
0.00162191
0.00156136
0.00146439
0.00132759
0.00109645
0.000682197
0.000100363
7.80267e-05
0.000570833
0.000925055
0.00117401
0.00136062
0.00150557
0.00162049
0.00171257
0.00178659
0.00184597
0.00189331
0.00193037
0.00195789
0.00197512
0.00197993
0.0019676
0.00193126
0.00186214
0.00175015
0.00157709
0.00128257
0.000776072
0.000111153
8.20131e-05
0.000615621
0.00101488
0.0013015
0.00151947
0.00169072
0.00182776
0.00193841
0.00202792
0.0021001
0.00215778
0.00220289
0.00223624
0.0022572
0.00226344
0.00225007
0.00221004
0.00213398
0.00200858
0.00180694
0.00146194
0.00086807
0.000126371
8.55986e-05
0.000653376
0.00109029
0.00140942
0.00165526
0.00185045
0.00200806
0.00213629
0.00224071
0.00232536
0.00239324
0.00244639
0.00248571
0.00251079
0.00251913
0.00250572
0.0024635
0.00238254
0.00224756
0.00202823
0.00165517
0.000994032
0.00015085
1.74101e-05
3.01457e-05
3.50454e-05
3.71711e-05
3.80157e-05
3.81324e-05
3.79396e-05
3.77354e-05
3.78322e-05
3.80959e-05
3.70291e-05
3.52066e-05
3.47239e-05
3.69481e-05
3.89231e-05
3.82262e-05
3.41604e-05
2.81245e-05
2.82962e-05
6.29402e-05
0.000240326
0.000312705
0.00034553
0.000359213
0.000362285
0.000359886
0.000361464
0.000368352
0.000366618
0.000352894
0.000315205
0.000308581
0.000340826
0.000338812
0.000315124
0.000261513
0.000154636
6.21936e-05
7.48106e-05
0.000401899
0.000575465
0.000659784
0.0006979
0.000711525
0.000713951
0.000718258
0.00072823
0.000724898
0.000698511
0.000645737
0.000632766
0.000660499
0.000645047
0.00058705
0.000474632
0.000284554
6.96599e-05
8.48012e-05
0.000519454
0.000786433
0.000924039
0.000990514
0.00101889
0.00102903
0.00103598
0.00104498
0.00103904
0.00100561
0.000948887
0.000925265
0.000929606
0.000889586
0.000793666
0.000631463
0.000384715
7.45938e-05
9.47129e-05
0.000619932
0.000968627
0.00115435
0.00124794
0.00129153
0.00130963
0.00131866
0.0013248
0.00131499
0.0012768
0.00121754
0.00117948
0.00115375
0.00108278
0.000947445
0.000740675
0.000451689
7.8149e-05
0.000106729
0.000718358
0.00113924
0.00136462
0.00148095
0.00153787
0.00156279
0.00157293
0.00157515
0.00156035
0.00151749
0.00145415
0.00139926
0.00134228
0.0012377
0.00106228
0.000813114
0.000491045
8.07802e-05
0.000124437
0.000828203
0.00131145
0.00156476
0.00169735
0.00176434
0.00179405
0.00180408
0.00180158
0.00178056
0.0017325
0.00166297
0.00159025
0.00150324
0.00136467
0.00114875
0.000857598
0.000509839
8.26763e-05
0.000153019
0.000975664
0.00149738
0.00176155
0.00190247
0.00197551
0.00200757
0.0020161
0.00200819
0.00198021
0.0019259
0.00184836
0.00175786
0.00164312
0.00147151
0.00121452
0.000880595
0.000514474
8.35102e-05
9.07301e-05
0.000704755
0.00119134
0.00155445
0.001839
0.00206831
0.00225595
0.00241038
0.00253734
0.00264114
0.0027249
0.00279074
0.00283958
0.00287099
0.00288262
0.00286979
0.00282577
0.00274048
0.00259787
0.00237016
0.00200949
0.0014538
0.000720665
9.68364e-05
0.000758219
0.00129328
0.00170132
0.00202621
0.00229229
0.00251354
0.00269822
0.00285193
0.00297918
0.00308312
0.00316586
0.00322838
0.00327023
0.00328931
0.00328197
0.003243
0.0031643
0.00303426
0.00283775
0.00255766
0.00218252
0.00173077
0.00010423
0.000796205
0.00137135
0.00181816
0.00217448
0.00246954
0.00271865
0.00292913
0.0031058
0.00325397
0.00337639
0.0034751
0.0035512
0.00360455
0.00363331
0.00363482
0.00360655
0.00354298
0.00343671
0.00328196
0.00307837
0.00283485
0.00258019
0.000115206
0.000804312
0.00142053
0.00191167
0.00229081
0.00260839
0.00288135
0.00311449
0.00331107
0.00347872
0.00361844
0.00373251
0.00382244
0.00388832
0.00392893
0.00394123
0.00392743
0.00388349
0.00380318
0.00368472
0.00353582
0.00336948
0.00321297
0.000115756
0.000798635
0.00144654
0.00197238
0.00237287
0.0027117
0.00300464
0.00325522
0.00347384
0.00366167
0.00381761
0.00394617
0.00404972
0.004128
0.00418071
0.00420532
0.00420638
0.00418038
0.0041197
0.00402408
0.00390884
0.00379157
0.00369095
0.00011165
0.00075511
0.00145611
0.00198339
0.00240048
0.00276729
0.0030851
0.00335589
0.00359538
0.00380523
0.00397932
0.00412316
0.00423955
0.00432906
0.00439182
0.00442919
0.00444162
0.00442577
0.00437554
0.00429149
0.00419171
0.00408945
0.00401303
0.000108653
0.000762991
0.00148791
0.00202715
0.00243994
0.0028076
0.00313994
0.00343219
0.00369342
0.00392105
0.00411216
0.00427198
0.00440142
0.00450189
0.00457385
0.00461899
0.00463792
0.00462833
0.00458443
0.0045119
0.00442485
0.00434162
0.00429148
0.000109802
0.000820156
0.00152401
0.00207777
0.00251085
0.00289005
0.00322893
0.00353038
0.00379979
0.00403378
0.00423481
0.00440514
0.00454455
0.00465328
0.00473287
0.0047846
0.00480758
0.00480155
0.00476718
0.0047111
0.00464358
0.00457391
0.00452546
0.000111794
0.000845745
0.00155346
0.00213095
0.00260327
0.00300571
0.0033545
0.00365884
0.00392618
0.00415951
0.00436186
0.00453452
0.00467743
0.00479044
0.00487419
0.00493044
0.00495865
0.00495984
0.00493628
0.00489155
0.00483474
0.00477152
0.00472101
0.000113228
0.000876437
0.00161649
0.00222401
0.00272372
0.00314164
0.00349592
0.00380017
0.00406425
0.00429403
0.00449326
0.00466357
0.00480542
0.00491893
0.00500467
0.0050635
0.00509679
0.00510606
0.00509253
0.00505636
0.00500479
0.00494761
0.00489863
0.000114837
0.000921349
0.00170321
0.0023366
0.00285265
0.00327919
0.00363661
0.00394037
0.00420167
0.00442777
0.00462311
0.00478996
0.00492937
0.00504201
0.00512871
0.00519052
0.00522866
0.00524459
0.00523887
0.00521172
0.00516752
0.00511694
0.00507107
0.000116741
0.000969198
0.00178857
0.00244351
0.00297161
0.00340459
0.00376498
0.00406927
0.00432932
0.00455312
0.00474566
0.00490985
0.00504741
0.00515952
0.00524734
0.00531208
0.00535479
0.00537651
0.00537769
0.00535909
0.00532427
0.0052816
0.00523947
0.000118766
0.00100545
0.00185628
0.00253091
0.00307055
0.00351028
0.00387464
0.00418104
0.00444183
0.00466536
0.00485693
0.0050201
0.00515718
0.00526984
0.00535948
0.0054274
0.00547458
0.00550181
0.0055097
0.00549937
0.00547404
0.00543963
0.00540226
0.000120582
0.00102703
0.00190212
0.00259432
0.0031459
0.00359384
0.00396399
0.00427437
0.00453761
0.00476249
0.00495493
0.00511892
0.00525719
0.00537179
0.0054643
0.00553607
0.00558808
0.00562109
0.00563592
0.00563388
0.00561767
0.00559149
0.00555973
0.000121657
0.00104027
0.00193202
0.0026382
0.00320074
0.0036572
0.00403403
0.00434964
0.00461692
0.00484491
0.00503994
0.0052064
0.00534741
0.00546527
0.00556176
0.00563829
0.00569587
0.00573528
0.00575747
0.00576381
0.00575647
0.00573847
0.00571296
0.000122159
0.00104669
0.00194909
0.00266574
0.0032377
0.00370237
0.00408629
0.004408
0.00468054
0.00491315
0.00511241
0.005283
0.0054283
0.00555084
0.00565252
0.00573481
0.00579878
0.00584527
0.00587529
0.00589012
0.0058915
0.00588164
0.0058628
0.000122212
0.00104691
0.00195504
0.00267909
0.00325889
0.00373121
0.00412237
0.00445084
0.00472967
0.00496822
0.00517318
0.00534942
0.00550051
0.00562907
0.00573712
0.0058262
0.00589738
0.0059516
0.00598986
0.00601329
0.00602332
0.00602154
0.00600957
0.000121871
0.00104169
0.00195121
0.00267989
0.00326597
0.00374532
0.00414376
0.00447951
0.00476555
0.00501118
0.00522316
0.00540643
0.00556462
0.00570046
0.00581599
0.00591279
0.00599192
0.00605441
0.00610121
0.00613333
0.00615189
0.0061581
0.00615307
0.000121158
0.00103195
0.00193884
0.00266957
0.00326043
0.00374613
0.00415182
0.00449531
0.00478932
0.00504305
0.0052632
0.00545469
0.00562116
0.00576534
0.00588929
0.00599458
0.00608229
0.00615346
0.006209
0.00624981
0.00627678
0.0062908
0.00629268
0.000120093
0.00101852
0.00191914
0.00264942
0.0032436
0.00373499
0.00414784
0.00449942
0.00480208
0.0050648
0.0052941
0.00549482
0.00567053
0.00582393
0.00595704
0.00607141
0.00616814
0.00624825
0.00631262
0.00636202
0.00639721
0.00641885
0.00642752
0.000118702
0.001002
0.00189314
0.00262071
0.0032168
0.0037132
0.00413311
0.00449306
0.00480495
0.00507737
0.00531663
0.00552739
0.0057131
0.00587638
0.00601919
0.00614302
0.00624901
0.00633814
0.00641127
0.00646909
0.00651223
0.00654125
0.00655654
0.000117002
0.00098291
0.00186182
0.00258463
0.00318138
0.00368217
0.00410899
0.00447755
0.0047991
0.00508181
0.00533164
0.00555303
0.00574925
0.00592281
0.00607561
0.00620904
0.0063243
0.00642236
0.00650403
0.00656997
0.00662075
0.00665682
0.00667852
0.000115007
0.00096174
0.00182611
0.00254243
0.00313874
0.00364338
0.004077
0.00445432
0.00478587
0.00507926
0.00534006
0.00557241
0.00577938
0.00596335
0.00612611
0.00626906
0.00639338
0.00650005
0.00658987
0.00666351
0.0067215
0.00676427
0.00679209
0.000112729
0.000938957
0.00178697
0.0024954
0.0030904
0.00359847
0.0040388
0.00442499
0.00476672
0.00507099
0.00534291
0.00558626
0.00580392
0.0059981
0.00617053
0.00632259
0.0064555
0.00657025
0.00666768
0.00674846
0.00681316
0.00686217
0.00689578
0.000110175
0.000915032
0.00174536
0.00244488
0.00303801
0.00354925
0.00399623
0.00439131
0.00474325
0.00505836
0.00534124
0.00559534
0.00582327
0.00602713
0.0062086
0.0063691
0.00650986
0.00663196
0.00673627
0.00682353
0.00689433
0.0069491
0.00698812
0.000107333
0.000890338
0.00170214
0.00239223
0.00298327
0.00349763
0.00395122
0.00435512
0.0047171
0.00504273
0.0053361
0.0056003
0.00583775
0.00605043
0.00624
0.00640796
0.00655562
0.00668414
0.00679448
0.00688748
0.00696375
0.00702378
0.00706785
0.000104179
0.000864592
0.00165771
0.00233867
0.0029279
0.00344555
0.00390574
0.00431823
0.00468981
0.00502532
0.00532836
0.00560167
0.00584753
0.00606784
0.00626431
0.00643855
0.00659198
0.0067259
0.00684139
0.00693936
0.00702051
0.00708533
0.00713413
0.000100992
0.000834305
0.00161129
0.0022851
0.00287358
0.00339488
0.00386159
0.00428223
0.00466268
0.00500711
0.00531863
0.00559976
0.00585262
0.00607916
0.00628115
0.00646036
0.0066184
0.0067567
0.00687649
0.00697877
0.0070643
0.00713358
0.00718693
9.78938e-05
0.000804033
0.00156622
0.00223437
0.00282284
0.00334783
0.00382057
0.00424852
0.00463671
0.00498872
0.00530728
0.00559467
0.00585297
0.0060842
0.0062903
0.00647322
0.00663477
0.00677658
0.00690001
0.00700615
0.00709577
0.00716939
0.00722728
9.49285e-05
0.000777907
0.00152678
0.00218989
0.00277826
0.00330632
0.00378407
0.00421805
0.00461255
0.00497059
0.00529455
0.00558656
0.00584873
0.00608319
0.0062921
0.00647764
0.00664187
0.00678659
0.0069133
0.00702312
0.00711684
0.00719492
0.00725756
9.22295e-05
0.000758143
0.00149575
0.00215377
0.00274112
0.00327094
0.00375225
0.00419074
0.00459002
0.00495256
0.0052804
0.00557557
0.00584023
0.00607674
0.0062875
0.00647496
0.00664142
0.00678888
0.00691891
0.00703266
0.00713083
0.00721378
0.00728157
8.99277e-05
0.000744953
0.00147346
0.0021258
0.00271053
0.00324032
0.00372356
0.00416519
0.00456804
0.00493396
0.00526462
0.00556195
0.00582823
0.00606607
0.00627825
0.00646746
0.00663627
0.00678683
0.00692075
0.00703911
0.00714245
0.00723093
0.00730445
8.81083e-05
0.000737142
0.00145775
0.00210281
0.0026826
0.00321049
0.00369451
0.00413867
0.00454476
0.00491382
0.00524705
0.00554626
0.00581396
0.00605312
0.00626691
0.00645836
0.00663028
0.00678493
0.00692389
0.00704803
0.00715762
0.00725253
0.00733241
8.68104e-05
0.000732832
0.00144405
0.00207813
0.00265001
0.00317469
0.00365964
0.00410732
0.00451787
0.00489116
0.00522778
0.00552953
0.00579922
0.00604038
0.0062567
0.00645159
0.00662811
0.00678856
0.00693433
0.00706594
0.00718319
0.00728553
0.00737235
8.60755e-05
0.000729788
0.00142488
0.00204113
0.00260188
0.00312372
0.00361219
0.00406679
0.00448509
0.00486527
0.00520732
0.00551314
0.00578617
0.00603066
0.00625108
0.00645139
0.0066348
0.00680356
0.00695866
0.00709998
0.00722657
0.00733732
0.00743139
8.60779e-05
0.000725267
0.0013893
0.00197769
0.00252519
0.00304751
0.0035454
0.00401324
0.00444477
0.00483608
0.00518659
0.00549872
0.00577691
0.00602662
0.00625331
0.00646171
0.00665522
0.00683582
0.00700374
0.00715767
0.0072955
0.0074154
0.00751647
8.74749e-05
0.00071568
0.00132549
0.00187549
0.00240981
0.00293883
0.00345492
0.00394469
0.00439658
0.00480421
0.00516675
0.00548767
0.00577307
0.00603008
0.00626565
0.00648557
0.00669356
0.00689104
0.0070767
0.00724706
0.00739805
0.00752717
0.00763402
9.23786e-05
0.000700562
0.00123641
0.00173955
0.00225908
0.00279938
0.00334198
0.00386253
0.00434206
0.00477111
0.00514894
0.00548081
0.00577516
0.00604144
0.00628868
0.00652429
0.0067528
0.00697468
0.00718554
0.0073774
0.00754302
0.00767996
0.00778967
0.000105902
0.000695277
0.00116011
0.00160691
0.00209885
0.00264475
0.00321592
0.00377266
0.00428494
0.0047389
0.00513406
0.00547806
0.0057823
0.00605921
0.00632063
0.00657667
0.00683391
0.00709209
0.00734082
0.00756087
0.00774065
0.00788094
0.00798786
0.000135091
0.000703153
0.00112644
0.00151833
0.00196553
0.00250092
0.00309357
0.00368542
0.00423105
0.00471024
0.00512256
0.0054783
0.00579216
0.00607983
0.0063568
0.00663759
0.00693388
0.00724818
0.00756048
0.007816
0.00800335
0.00813647
0.00823101
0.000204474
0.000661154
0.00108759
0.001463
0.00187449
0.00239085
0.00299463
0.00361413
0.00418775
0.00468815
0.0051146
0.00547981
0.00580139
0.00609814
0.00638938
0.00669591
0.00704053
0.00744255
0.00788508
0.00817342
0.00834465
0.0084498
0.00851782
0.000412954
0.00052822
0.000986357
0.00140612
0.0018193
0.0023279
0.00293719
0.00357261
0.00416281
0.00467569
0.00511031
0.00548088
0.00580681
0.00610879
0.00640891
0.00673375
0.00712177
0.00764074
0.00843402
0.00867903
0.00877117
0.00881543
0.0088408
0.000155424
0.000144178
0.000142409
0.000149163
0.00138711
0.00132004
0.00130411
0.0013403
0.00242703
0.00236696
0.00233968
0.00234636
0.00312897
0.00308771
0.00305496
0.00303352
0.00363296
0.00360045
0.00356719
0.00353425
0.00398959
0.00396406
0.00393717
0.00390732
0.00426957
0.00425074
0.00422997
0.00420115
0.00449427
0.00447481
0.00445378
0.00443045
0.00468825
0.0046684
0.00464954
0.00463359
0.00486834
0.00485042
0.00483449
0.00482111
0.00504215
0.00502504
0.00500939
0.00499517
0.00521107
0.00519373
0.00517717
0.00516124
0.00537484
0.00535743
0.00534014
0.00532282
0.00553421
0.00551737
0.00550001
0.00548205
0.00569021
0.00567457
0.00565785
0.00564
0.00584348
0.00582955
0.00581405
0.00579694
0.00599411
0.00598224
0.00596837
0.00595247
0.00614171
0.00613212
0.00612016
0.00610582
0.00628554
0.00627837
0.00626852
0.00625598
0.00642466
0.00641997
0.00641236
0.0064018
0.00655793
0.00655577
0.00655047
0.00654201
0.00668409
0.00668445
0.00668149
0.00667521
0.00680173
0.00680455
0.00680394
0.00679985
0.00690932
0.00691455
0.00691623
0.00691435
0.00700538
0.00701293
0.00701686
0.00701715
0.00708866
0.00709844
0.00710457
0.00710702
0.00715836
0.00717034
0.00717864
0.00718325
0.00721454
0.0072287
0.00723919
0.00724601
0.00725833
0.00727474
0.00728752
0.00729664
0.00729225
0.00731104
0.00732624
0.0073378
0.00732018
0.00734153
0.00735932
0.0073735
0.00734731
0.00737141
0.00739195
0.00740889
0.00737982
0.00740681
0.0074302
0.00744997
0.00742445
0.00745435
0.00748056
0.00750308
0.00748802
0.00752064
0.0075494
0.00757435
0.00757697
0.00761178
0.00764251
0.00766926
0.00769698
0.007733
0.00776468
0.00779222
0.00785262
0.00788825
0.00791934
0.00794621
0.00804693
0.00807985
0.00810823
0.00813253
0.00828074
0.00830793
0.00833102
0.00835054
0.00855162
0.00856971
0.00858483
0.00859745
0.0088527
0.00885895
0.00886411
0.00886837
0.000782775
0.0014058
0.00181992
0.00206675
0.00220993
0.00228747
0.00232006
0.00232409
0.00230658
0.0022668
0.00220107
0.00210901
0.00199174
0.00183581
0.00161379
0.00129483
0.000896505
0.000490279
8.26705e-05
0.00165739
0.00201851
0.00229141
0.00247947
0.00259944
0.00266594
0.00269034
0.00268198
0.00264827
0.00259079
0.00250718
0.00239467
0.00224857
0.00205397
0.0017811
0.00139608
0.000916555
0.000436846
8.12655e-05
0.00242645
0.00259178
0.00275067
0.00287617
0.00296145
0.0030073
0.00301627
0.00299402
0.00294319
0.00286602
0.0027632
0.00263137
0.00246324
0.00224333
0.00194345
0.00152022
0.000985984
0.000440277
8.76033e-05
0.00302772
0.00308664
0.00316925
0.00324274
0.00329247
0.00331445
0.00330367
0.00326462
0.00319569
0.00309976
0.00297829
0.00282885
0.00264436
0.00241154
0.00210767
0.00168324
0.00114191
0.000553426
0.00010368
0.00349468
0.00349996
0.00353452
0.00356889
0.00358695
0.0035849
0.00355298
0.00349444
0.00340883
0.00329682
0.00315853
0.00299234
0.00279334
0.00255303
0.00225656
0.00185996
0.00135671
0.000762614
0.000120815
0.00386625
0.00385075
0.00385449
0.00385801
0.00384747
0.00381883
0.00376712
0.00369056
0.00358773
0.00345859
0.00330249
0.00311749
0.00289997
0.00263965
0.00232654
0.00194773
0.00147976
0.000859826
0.000124121
0.00416302
0.00414219
0.00412889
0.00410957
0.00407427
0.00402357
0.00395448
0.00385931
0.00373694
0.00358748
0.00341017
0.00320291
0.00296155
0.00267831
0.00235131
0.00197306
0.00150644
0.000864306
0.000111639
0.00440371
0.00438275
0.00435966
0.00432511
0.00427216
0.00420252
0.00411499
0.00400074
0.00385769
0.00368635
0.00348651
0.00325581
0.00298941
0.00268363
0.00234395
0.00195122
0.00147071
0.000815764
0.000104995
0.00461483
0.00459282
0.00456143
0.00451331
0.00444401
0.00435593
0.00424945
0.00411747
0.00395624
0.00376517
0.00354372
0.00328883
0.0029965
0.00266716
0.00230686
0.00190125
0.00141386
0.000775559
9.90092e-05
0.00480264
0.00477663
0.00473737
0.00467866
0.0045972
0.00449505
0.00437224
0.00422413
0.00404726
0.00383969
0.00359829
0.00331911
0.00300008
0.00264383
0.00225722
0.0018289
0.00133042
0.000711258
9.23426e-05
0.00497322
0.00494028
0.00489427
0.00482861
0.00474015
0.00462907
0.00449446
0.0043335
0.00414352
0.00392171
0.00366269
0.00336198
0.00301875
0.0026363
0.00221954
0.00175707
0.00123166
0.000628332
8.66437e-05
0.00513513
0.00509493
0.00504268
0.00497199
0.00487917
0.00476243
0.00461999
0.00444975
0.00424976
0.00401666
0.0037443
0.00342822
0.00306784
0.0026654
0.00221965
0.00171985
0.00115901
0.00055995
8.59434e-05
0.00529343
0.00524721
0.00518954
0.00511465
0.00501843
0.0048978
0.00475032
0.00457405
0.00436736
0.00412673
0.00384646
0.00352235
0.0031528
0.00273733
0.00227011
0.00174243
0.00115754
0.000555435
9.12375e-05
0.00545076
0.00540026
0.00533824
0.00525968
0.00516041
0.00503685
0.00488624
0.00470645
0.00449598
0.00425161
0.0039681
0.00364129
0.0032683
0.00284518
0.00236488
0.00182277
0.00122825
0.000614935
9.79571e-05
0.00560815
0.00555507
0.00548984
0.00540819
0.00530622
0.0051804
0.00502791
0.0048464
0.00463429
0.00438857
0.00410469
0.00377825
0.00340474
0.0029778
0.00249033
0.00193962
0.00132997
0.000681497
0.000103789
0.0057656
0.00571141
0.00564408
0.0055601
0.00545598
0.00532854
0.0051749
0.00499287
0.00478052
0.00453491
0.00425189
0.0039267
0.00355365
0.00312523
0.0026333
0.00207176
0.0014369
0.000737458
0.000108483
0.00592249
0.00586842
0.00580009
0.00571462
0.00560905
0.00548053
0.00532639
0.0051445
0.00493261
0.00468771
0.00440572
0.00408153
0.00370866
0.0032787
0.00278171
0.0022075
0.00154523
0.000796224
0.000112495
0.00607785
0.00602495
0.00595664
0.00587059
0.00576431
0.0056353
0.00548119
0.00529975
0.0050885
0.00484428
0.00456287
0.00423881
0.003865
0.00343198
0.00292828
0.00234043
0.00165284
0.000861116
0.000116109
0.00623052
0.00617968
0.00611234
0.00602661
0.00592039
0.00579151
0.00563779
0.00545691
0.0052462
0.00500228
0.00472068
0.00439554
0.00401915
0.00358105
0.00306857
0.00246575
0.00175368
0.000923959
0.000119446
0.00637922
0.00633119
0.00626567
0.0061811
0.00607571
0.0059475
0.00579446
0.00561417
0.00540377
0.00515963
0.00487695
0.00454948
0.00416861
0.00372342
0.00319982
0.00257985
0.00184034
0.000971763
0.000122725
0.0065226
0.00647795
0.00641496
0.0063323
0.0062284
0.00610142
0.00594929
0.00576961
0.00555929
0.00531441
0.00502984
0.00469865
0.00431183
0.00385777
0.00332056
0.00268152
0.00191602
0.00100909
0.000125699
0.00665914
0.00661833
0.00655843
0.00647829
0.00637644
0.00625114
0.00610027
0.00592126
0.00571086
0.00546482
0.00517755
0.00484181
0.00444788
0.00398389
0.00343359
0.00277597
0.00198473
0.00104178
0.000128126
0.00678724
0.00675058
0.00669422
0.00661706
0.00651773
0.00639448
0.00624513
0.00606696
0.00585644
0.00560906
0.00531882
0.00497826
0.00457752
0.00410374
0.00353993
0.00286386
0.00204779
0.00107146
0.00012982
0.00690524
0.00687296
0.00682045
0.00674669
0.00665029
0.00652948
0.00638198
0.00620491
0.00599449
0.00574601
0.00545334
0.0051085
0.00470112
0.00421767
0.00364044
0.00294629
0.00210644
0.00109944
0.000130625
0.00701157
0.00698382
0.00693546
0.00686546
0.0067724
0.00665447
0.00650926
0.00633379
0.00612416
0.00587536
0.00558092
0.00523243
0.00481902
0.00432652
0.00373645
0.00302489
0.00216234
0.00112682
0.000130938
0.00710498
0.00708192
0.00703799
0.00697212
0.00688285
0.00676835
0.00662614
0.00645307
0.00624505
0.00599681
0.00570155
0.00535044
0.00493207
0.00443159
0.00382971
0.00310166
0.00221723
0.00115422
0.000131283
0.00718479
0.00716663
0.00712744
0.00706614
0.00698126
0.00687087
0.00673243
0.00656263
0.00635722
0.00611067
0.00581583
0.00546346
0.00504156
0.00453457
0.00392227
0.00317881
0.00227291
0.00118217
0.000132049
0.00725125
0.00723827
0.00720423
0.00714801
0.00706813
0.00696259
0.00682877
0.00666325
0.00646159
0.00621801
0.00592504
0.00557299
0.00514927
0.00463749
0.00401639
0.00325864
0.00233124
0.00121023
0.000133833
0.00730578
0.00729835
0.00726989
0.0072193
0.00714506
0.00704514
0.00691687
0.00675669
0.00656001
0.0063208
0.00603126
0.00568122
0.00525747
0.00474273
0.00411447
0.00334357
0.00239475
0.00124355
0.000136753
0.0073511
0.0073496
0.00732719
0.00728276
0.0072148
0.00712128
0.00699947
0.00684574
0.00665532
0.00642193
0.0061374
0.00579109
0.00536906
0.00485307
0.00421914
0.00343599
0.00246515
0.0012797
0.00014056
0.00739123
0.00739603
0.00738005
0.00734225
0.00728116
0.00719477
0.00708033
0.00693414
0.00675126
0.00652516
0.00624726
0.00590632
0.00548765
0.00497189
0.00433346
0.00353861
0.00254509
0.00132218
0.000144818
0.00743126
0.00744261
0.00743333
0.00740248
0.00734872
0.0072701
0.00716389
0.00702633
0.00685231
0.00663501
0.00636539
0.00603152
0.00561774
0.00510342
0.00446117
0.00365454
0.00263704
0.00137252
0.00014961
0.00747705
0.00749494
0.00749238
0.00746861
0.00742247
0.00735213
0.00725494
0.00712709
0.00696332
0.00675649
0.00649698
0.00617204
0.00576478
0.00525296
0.00460706
0.00378767
0.00274368
0.00143209
0.000155116
0.00753465
0.00755874
0.00756257
0.00754573
0.00750727
0.00744559
0.00735813
0.00724109
0.00708911
0.00689466
0.00664752
0.00633385
0.0059352
0.00542715
0.00477744
0.00394323
0.00286859
0.00150287
0.000161451
0.00760985
0.00763928
0.00764881
0.0076384
0.00760746
0.00755463
0.00747753
0.00737246
0.00723394
0.0070542
0.00682228
0.00652312
0.00613621
0.00563415
0.00498077
0.00412877
0.00301715
0.00158788
0.000168698
0.00770761
0.00774099
0.00775505
0.00775026
0.0077264
0.00768244
0.00761624
0.00752426
0.0074011
0.00723878
0.00702577
0.00674564
0.00637543
0.00588361
0.00522825
0.00435528
0.00319743
0.00169074
0.000177486
0.00783176
0.00786708
0.00788408
0.00788376
0.00786631
0.00783103
0.0077761
0.00769828
0.00759241
0.00745059
0.00726098
0.00700602
0.00666006
0.00618637
0.0055345
0.00463907
0.00342249
0.00181674
0.000188884
0.00798465
0.00801937
0.00803737
0.00804012
0.00802818
0.00800118
0.00795767
0.00789485
0.00780804
0.00768985
0.0075287
0.0073066
0.00699572
0.00655364
0.00591823
0.00500521
0.00371584
0.00197682
0.000203825
0.00816705
0.00819822
0.00821508
0.00821939
0.00821192
0.00819258
0.00816032
0.0081129
0.00804645
0.00795458
0.00782687
0.00764626
0.00738452
0.00699495
0.00640222
0.0054929
0.0041233
0.00219543
0.000224163
0.00837803
0.00840268
0.00841634
0.00842072
0.00841661
0.0084041
0.00838253
0.00835032
0.00830464
0.00824067
0.00815022
0.00801914
0.00782228
0.00751385
0.00700994
0.00616188
0.00474024
0.00254443
0.000252117
0.00861504
0.00863068
0.00863948
0.00864267
0.00864087
0.0086342
0.00862233
0.00860438
0.00857871
0.00854243
0.00849053
0.00841388
0.00829515
0.00809941
0.00775232
0.00708986
0.00576385
0.00324764
0.000291255
0.00887427
0.0088795
0.00888247
0.00888364
0.00888322
0.00888129
0.00887776
0.00887237
0.00886463
0.00885367
0.00883793
0.00881453
0.00877771
0.00871486
0.00859447
0.0083239
0.00758101
0.00520147
0.000343693
)
;

boundaryField
{
    leftWall
    {
        type            nutkWallFunction;
        Cmu             0.09;
        kappa           0.41;
        E               9.8;
        value           nonuniform List<scalar> 
50
(
4.22569e-06
6.23643e-06
7.37973e-06
8.20334e-06
8.84433e-06
9.37427e-06
9.83278e-06
1.02429e-05
1.08251e-05
1.1518e-05
1.2387e-05
1.27075e-05
1.28191e-05
1.28208e-05
1.18331e-05
6.78328e-06
6.77335e-06
6.99791e-06
7.24787e-06
7.54265e-06
7.85828e-06
8.13129e-06
8.29074e-06
8.36314e-06
8.36776e-06
8.3131e-06
8.20125e-06
8.03472e-06
7.81735e-06
7.55275e-06
7.24177e-06
6.88582e-06
6.4857e-06
6.03871e-06
5.54072e-06
5.03601e-06
4.54339e-06
4.07015e-06
3.63805e-06
3.26857e-06
2.97598e-06
2.76713e-06
2.64908e-06
2.6503e-06
2.87737e-06
3.67152e-06
5.84484e-06
1.04242e-05
2.061e-05
4.87061e-05
)
;
    }
    rightWall
    {
        type            nutkWallFunction;
        Cmu             0.09;
        kappa           0.41;
        E               9.8;
        value           nonuniform List<scalar> 
50
(
5.72998e-06
7.51194e-06
8.39633e-06
8.97622e-06
9.3926e-06
9.70111e-06
9.92392e-06
1.00191e-05
9.91681e-06
9.75691e-06
1.05185e-05
9.76926e-06
1.22357e-05
1.34681e-05
1.07168e-05
7.06918e-06
4.73282e-06
3.66085e-06
2.7711e-06
2.97371e-06
3.8322e-06
4.67954e-06
5.51447e-06
6.274e-06
7.02485e-06
7.57951e-06
8.09e-06
8.58898e-06
9.04107e-06
9.40547e-06
9.54316e-06
9.63876e-06
9.68646e-06
9.73719e-06
9.85234e-06
1.02058e-05
1.06806e-05
1.12501e-05
1.18823e-05
1.25912e-05
1.3405e-05
1.43086e-05
1.53149e-05
1.65958e-05
1.82576e-05
2.03953e-05
2.32731e-05
2.71779e-05
3.2555e-05
3.95971e-05
)
;
    }
    lowerWall
    {
        type            nutkWallFunction;
        Cmu             0.09;
        kappa           0.41;
        E               9.8;
        value           nonuniform List<scalar> 
62
(
1.77888e-06
3.07486e-06
3.7748e-06
4.22555e-06
4.54752e-06
4.7889e-06
4.97451e-06
5.11896e-06
5.23188e-06
5.3205e-06
5.39075e-06
5.44708e-06
5.49294e-06
5.5328e-06
5.55907e-06
5.55911e-06
5.49603e-06
5.28783e-06
5.01912e-06
4.7958e-06
4.5143e-06
3.91425e-06
2.30688e-06
2.30688e-06
8.15234e-06
9.64789e-06
1.08295e-05
1.19107e-05
1.31063e-05
1.477e-05
1.74191e-05
1.79079e-05
1.66861e-05
1.64949e-05
1.72286e-05
1.89737e-06
7.61778e-06
8.99963e-06
1.01437e-05
1.12615e-05
1.25951e-05
1.4534e-05
1.76255e-05
1.89737e-06
3.58515e-06
4.21249e-06
4.48083e-06
4.58689e-06
4.60186e-06
4.57694e-06
4.5506e-06
4.56209e-06
4.59538e-06
4.46181e-06
4.23275e-06
4.17739e-06
4.45971e-06
4.70466e-06
4.61502e-06
4.09664e-06
3.31808e-06
2.25864e-06
)
;
    }
    atmosphere
    {
        type            calculated;
        value           nonuniform List<scalar> 
46
(
0.009
0.00052822
0.000986357
0.00140612
0.0018193
0.0023279
0.00293719
0.00357261
0.00416281
0.00467569
0.00511031
0.00548088
0.00580681
0.00610879
0.00640891
0.00673375
0.00712177
0.00764074
0.009
0.009
0.009
0.009
0.009
0.009
0.009
0.009
0.009
0.009
0.009
0.009
0.009
0.009
0.009
0.009
0.009
0.009
0.009
0.009
0.009
0.009
0.009
0.009
0.009
0.009
0.009
0.000343693
)
;
    }
    defaultFaces
    {
        type            empty;
    }
}


// ************************************************************************* //
