/*--------------------------------*- C++ -*----------------------------------*\
  =========                 |
  \\      /  F ield         | OpenFOAM: The Open Source CFD Toolbox
   \\    /   O peration     | Website:  https://openfoam.org
    \\  /    A nd           | Version:  9
     \\/     M anipulation  |
\*---------------------------------------------------------------------------*/
FoamFile
{
    format      ascii;
    class       volVectorField;
    location    "3.85";
    object      U;
}
// * * * * * * * * * * * * * * * * * * * * * * * * * * * * * * * * * * * * * //

dimensions      [0 1 -1 0 0 0 0];

internalField   nonuniform List<vector> 
2268
(
(-0.00365798 0.00160678 0)
(-0.00823898 0.00108198 0)
(-0.0114786 0.000791037 0)
(-0.0144234 0.000654871 0)
(-0.0169457 0.000593182 0)
(-0.0192881 0.000556027 0)
(-0.0214308 0.000513083 0)
(-0.0233535 0.000461595 0)
(-0.0250346 0.000405834 0)
(-0.0264619 0.000344917 0)
(-0.0276026 0.000262343 0)
(-0.0283483 0.000136371 0)
(-0.0285356 -6.44178e-05 0)
(-0.0279095 -0.000366989 0)
(-0.0261671 -0.000788994 0)
(-0.0230873 -0.00133944 0)
(-0.0185055 -0.00161747 0)
(-0.0147965 0.000300229 0)
(-0.0209705 0.0044105 0)
(-0.0329008 0.00287065 0)
(-0.0341345 -0.00157488 0)
(-0.0242539 -0.00483175 0)
(-0.00922329 -0.00443696 0)
(-0.00311775 0.00406095 0)
(-0.00732037 0.00293471 0)
(-0.0106131 0.00236533 0)
(-0.013831 0.00203068 0)
(-0.0167083 0.00183369 0)
(-0.0193686 0.00168203 0)
(-0.0217853 0.0015227 0)
(-0.0239385 0.00134745 0)
(-0.0258075 0.0011605 0)
(-0.0273708 0.000953452 0)
(-0.0285864 0.000696886 0)
(-0.0293665 0.000348404 0)
(-0.0295896 -0.000140824 0)
(-0.0291161 -0.000807094 0)
(-0.0277946 -0.00165562 0)
(-0.025657 -0.00257699 0)
(-0.0229662 -0.0027815 0)
(-0.0210464 0.000577419 0)
(-0.0223305 0.00573999 0)
(-0.0253554 0.00399336 0)
(-0.0243288 -0.00275987 0)
(-0.0191152 -0.00884259 0)
(-0.0096265 -0.0114945 0)
(-0.00256161 0.00623658 0)
(-0.00670144 0.00464096 0)
(-0.0100881 0.00390911 0)
(-0.0134879 0.00346373 0)
(-0.0166031 0.00316071 0)
(-0.0194898 0.00289752 0)
(-0.0221102 0.00261665 0)
(-0.0244401 0.00230943 0)
(-0.0264574 0.0019801 0)
(-0.0281373 0.00161433 0)
(-0.0294381 0.00117174 0)
(-0.0302894 0.000596239 0)
(-0.030599 -0.000167454 0)
(-0.0302784 -0.00114688 0)
(-0.029289 -0.00230524 0)
(-0.0278075 -0.00341808 0)
(-0.026209 -0.00354148 0)
(-0.0245621 0.00019006 0)
(-0.0225961 0.00512948 0)
(-0.0207023 0.00347263 0)
(-0.0179439 -0.00404426 0)
(-0.0139555 -0.011637 0)
(-0.00688867 -0.017194 0)
(-0.00222222 0.00829068 0)
(-0.00630112 0.00643458 0)
(-0.00983151 0.00557041 0)
(-0.0134041 0.00502755 0)
(-0.0167309 0.00461804 0)
(-0.0198233 0.00423403 0)
(-0.0226315 0.00381807 0)
(-0.0251252 0.00336384 0)
(-0.027281 0.00287638 0)
(-0.029073 0.00233628 0)
(-0.0304613 0.00169503 0)
(-0.0313886 0.000887649 0)
(-0.0317865 -0.000142311 0)
(-0.0316051 -0.00140317 0)
(-0.030868 -0.00280307 0)
(-0.029808 -0.00402687 0)
(-0.0287979 -0.00413691 0)
(-0.0270392 -0.000877418 0)
(-0.0232882 0.00339435 0)
(-0.0185922 0.00179154 0)
(-0.013883 -0.00590488 0)
(-0.00953028 -0.0140487 0)
(-0.00342284 -0.0211676 0)
(-0.00202335 0.0102062 0)
(-0.00606211 0.0082673 0)
(-0.00976472 0.00731904 0)
(-0.0135169 0.00669555 0)
(-0.017049 0.00618297 0)
(-0.0203404 0.00567243 0)
(-0.023331 0.00511068 0)
(-0.0259839 0.00449695 0)
(-0.0282749 0.0038385 0)
(-0.0301777 0.00311152 0)
(-0.0316547 0.00226192 0)
(-0.0326588 0.0012201 0)
(-0.0331396 -6.70327e-05 0)
(-0.0330702 -0.00158463 0)
(-0.0324964 -0.00318607 0)
(-0.031631 -0.00449553 0)
(-0.0307432 -0.00468448 0)
(-0.0288472 -0.00229564 0)
(-0.0242761 0.000886575 0)
(-0.0179108 -0.00089085 0)
(-0.0118094 -0.00836313 0)
(-0.00690328 -0.0163783 0)
(-0.000908384 -0.0233428 0)
(-0.00191759 0.0120559 0)
(-0.00598001 0.0101317 0)
(-0.00986686 0.00914149 0)
(-0.0138029 0.00845148 0)
(-0.0175359 0.00783908 0)
(-0.0210204 0.0071975 0)
(-0.024187 0.00648069 0)
(-0.026993 0.00569661 0)
(-0.0294135 0.00485641 0)
(-0.0314222 0.00393218 0)
(-0.0329826 0.0028664 0)
(-0.0340555 0.00158809 0)
(-0.0346036 4.91727e-05 0)
(-0.0346101 -0.00171404 0)
(-0.0341159 -0.00351048 0)
(-0.0332776 -0.00493514 0)
(-0.0322322 -0.0053176 0)
(-0.0301097 -0.00383279 0)
(-0.0253051 -0.00195358 0)
(-0.0184329 -0.00410407 0)
(-0.0118823 -0.0111377 0)
(-0.00666791 -0.0189612 0)
(-6.31472e-05 -0.0247944 0)
(-0.00189785 0.0138829 0)
(-0.006053 0.0120454 0)
(-0.010125 0.0110464 0)
(-0.0142417 0.0103011 0)
(-0.0181672 0.00958979 0)
(-0.0218347 0.00881118 0)
(-0.0251669 0.00792891 0)
(-0.0281151 0.00696271 0)
(-0.0306547 0.00592922 0)
(-0.0327582 0.00479613 0)
(-0.0343885 0.00350444 0)
(-0.035513 0.00198442 0)
(-0.0361046 0.000192459 0)
(-0.0361491 -0.00181951 0)
(-0.0356684 -0.00382945 0)
(-0.0347598 -0.00542419 0)
(-0.0334596 -0.00609465 0)
(-0.0310563 -0.00544411 0)
(-0.0263321 -0.0047608 0)
(-0.0198168 -0.00731665 0)
(-0.0136495 -0.0139144 0)
(-0.0086196 -0.021755 0)
(-0.0022828 -0.0274854 0)
(-0.00199208 0.015405 0)
(-0.00629929 0.0140919 0)
(-0.0105071 0.013092 0)
(-0.0147971 0.0122884 0)
(-0.0189029 0.0114695 0)
(-0.0227379 0.0105417 0)
(-0.026219 0.00947966 0)
(-0.0292929 0.0083151 0)
(-0.0319349 0.00707143 0)
(-0.0341153 0.00571072 0)
(-0.035794 0.00417607 0)
(-0.0369437 0.0024018 0)
(-0.0375482 0.000347095 0)
(-0.037595 -0.00192947 0)
(-0.0370833 -0.00418736 0)
(-0.0360612 -0.00601229 0)
(-0.0345085 -0.00702974 0)
(-0.0318837 -0.00711944 0)
(-0.0273905 -0.00738014 0)
(-0.0215997 -0.010209 0)
(-0.0163294 -0.0162996 0)
(-0.0122638 -0.0239755 0)
(-0.0104955 -0.032063 0)
(-0.00674441 0.000912035 0)
(0.00540359 -0.00398535 0)
(0.0179549 -0.00345171 0)
(0.0263961 -0.00198922 0)
(0.0308271 -0.000887172 0)
(0.0319282 9.85388e-05 0)
(0.0301999 0.000944345 0)
(0.0267393 0.000876702 0)
(0.0249765 -0.000394109 0)
(0.0282774 -0.00187542 0)
(0.0333901 -0.000229665 0)
(0.0259879 0.0052697 0)
(0.00183889 0.0061548 0)
(-0.00720361 -0.00146346 0)
(0.0143256 -0.00987151 0)
(0.0468272 -0.0112874 0)
(0.0766653 -0.00300673 0)
(0.0623427 0.010234 0)
(0.00932531 0.00844055 0)
(0.000258992 -0.000256681 0)
(0.0102757 -0.00746616 0)
(0.0178463 -0.00635622 0)
(0.0232427 -0.00379823 0)
(0.0260508 -0.00159609 0)
(0.0266067 0.000235842 0)
(0.0256263 0.00160888 0)
(0.0233356 0.00167877 0)
(0.0212612 -0.000295526 0)
(0.0217987 -0.00255064 0)
(0.0222387 0.00111508 0)
(0.0175882 0.0093221 0)
(0.0074016 0.00910119 0)
(0.0092208 -0.00413139 0)
(0.0220784 -0.0162816 0)
(0.0382369 -0.0182686 0)
(0.0538018 -0.00487688 0)
(0.054543 0.0220432 0)
(0.0136098 0.0215279 0)
(0.00548404 -0.00359901 0)
(0.0125499 -0.0102816 0)
(0.0172054 -0.00840442 0)
(0.0207982 -0.00511928 0)
(0.0227572 -0.00209704 0)
(0.0231066 0.000351065 0)
(0.0223244 0.00213993 0)
(0.0205025 0.00252471 0)
(0.0184224 0.000318018 0)
(0.0171728 -0.00231471 0)
(0.0157771 0.00217827 0)
(0.0136267 0.0106898 0)
(0.0121304 0.00892137 0)
(0.0165862 -0.0072214 0)
(0.0236588 -0.0202188 0)
(0.0309233 -0.0229803 0)
(0.0399446 -0.00756499 0)
(0.0399886 0.0288635 0)
(0.0132091 0.0338116 0)
(0.00760874 -0.00798439 0)
(0.0129768 -0.0123827 0)
(0.0160237 -0.0098347 0)
(0.0185726 -0.00611735 0)
(0.020105 -0.00251121 0)
(0.0204868 0.000438543 0)
(0.0199138 0.00261816 0)
(0.018413 0.003302 0)
(0.016399 0.00113832 0)
(0.0140086 -0.00148316 0)
(0.0119433 0.00286121 0)
(0.0122866 0.0104526 0)
(0.0156514 0.0075037 0)
(0.0200216 -0.00916238 0)
(0.0223477 -0.0219466 0)
(0.0240379 -0.0254195 0)
(0.0295056 -0.00925865 0)
(0.030007 0.0342705 0)
(0.010663 0.0433644 0)
(0.0078199 -0.0124467 0)
(0.0121118 -0.0139736 0)
(0.0143666 -0.0108396 0)
(0.0163991 -0.00690252 0)
(0.0178068 -0.00290183 0)
(0.018395 0.000440057 0)
(0.0181214 0.00300955 0)
(0.0169721 0.00397718 0)
(0.0152272 0.00205693 0)
(0.0124385 -0.000300651 0)
(0.0101816 0.00313531 0)
(0.0121418 0.00905706 0)
(0.0177468 0.00537826 0)
(0.0210544 -0.00989312 0)
(0.0197257 -0.0219676 0)
(0.0175228 -0.0260371 0)
(0.0195276 -0.0107689 0)
(0.0215623 0.0384495 0)
(0.00853354 0.0503461 0)
(0.00673666 -0.016512 0)
(0.010384 -0.0153219 0)
(0.0123358 -0.0116534 0)
(0.014199 -0.00761417 0)
(0.0157086 -0.00334636 0)
(0.0166745 0.000290879 0)
(0.0168949 0.00325194 0)
(0.0162122 0.00449964 0)
(0.0148856 0.00290269 0)
(0.0123786 0.000882392 0)
(0.0104453 0.00316327 0)
(0.012982 0.00716013 0)
(0.0186301 0.00332812 0)
(0.0204266 -0.00962409 0)
(0.0165105 -0.0206502 0)
(0.0113618 -0.0252112 0)
(0.00952358 -0.0116869 0)
(0.0129529 0.0406314 0)
(0.00771376 0.0553044 0)
(0.00438966 -0.0197633 0)
(0.00810277 -0.0165943 0)
(0.010032 -0.0124378 0)
(0.0119104 -0.00836194 0)
(0.0136759 -0.00391946 0)
(0.0151765 -8.88872e-05 0)
(0.0161045 0.00325293 0)
(0.0160815 0.00481918 0)
(0.0153079 0.00355211 0)
(0.0134607 0.0018134 0)
(0.0121697 0.00302477 0)
(0.0145635 0.00539236 0)
(0.018967 0.00186041 0)
(0.0190565 -0.0085885 0)
(0.013177 -0.0182319 0)
(0.00541362 -0.0230862 0)
(-0.000298809 -0.0117836 0)
(0.00413781 0.0401432 0)
(0.00870685 0.0585162 0)
(0.00275097 -0.0219278 0)
(0.00561822 -0.0176337 0)
(0.00754614 -0.0132219 0)
(0.00946025 -0.00920435 0)
(0.0115595 -0.00470282 0)
(0.0137105 -0.000803821 0)
(0.0155407 0.00289061 0)
(0.0164396 0.00482834 0)
(0.0163954 0.00392332 0)
(0.0153592 0.00238901 0)
(0.0147404 0.00278891 0)
(0.0166154 0.00408842 0)
(0.0193233 0.00117106 0)
(0.0177101 -0.00680821 0)
(0.0101481 -0.0147544 0)
(-0.000106891 -0.0195873 0)
(-0.00969049 -0.010696 0)
(-0.00535493 0.0367381 0)
(0.0103834 0.0606319 0)
(-0.00186272 0.0208818 0)
(-0.00654121 0.0180389 0)
(-0.0111501 0.01672 0)
(-0.0157455 0.0157213 0)
(-0.0201152 0.01468 0)
(-0.024176 0.0134833 0)
(-0.0278528 0.0121114 0)
(-0.0310887 0.0106043 0)
(-0.033856 0.00899585 0)
(-0.0361172 0.0072349 0)
(-0.0378246 0.00527957 0)
(-0.0389579 0.00307585 0)
(-0.0395249 0.000584431 0)
(-0.0395241 -0.00214395 0)
(-0.038927 -0.00485662 0)
(-0.0377201 -0.00713668 0)
(-0.0358376 -0.00876204 0)
(-0.0329804 -0.00985279 0)
(-0.0289092 -0.011168 0)
(-0.0243039 -0.0140685 0)
(-0.0206224 -0.0190082 0)
(-0.0192336 -0.0248753 0)
(-0.0255336 -0.0288673 0)
(-0.00245001 0.0183981 0)
(-0.0074699 0.019744 0)
(-0.0124533 0.019372 0)
(-0.0172223 0.0185981 0)
(-0.0216804 0.0175995 0)
(-0.0257935 0.0163 0)
(-0.0295419 0.0147106 0)
(-0.0328584 0.0129265 0)
(-0.0356568 0.0110066 0)
(-0.0378585 0.00884669 0)
(-0.039406 0.00644211 0)
(-0.0402836 0.0037836 0)
(-0.0405755 0.000848621 0)
(-0.0403847 -0.0023332 0)
(-0.0397185 -0.00555136 0)
(-0.0384723 -0.00846718 0)
(-0.0364258 -0.0108964 0)
(-0.0333954 -0.0129527 0)
(-0.0294919 -0.014955 0)
(-0.0254247 -0.0174124 0)
(-0.0222741 -0.0205338 0)
(-0.0209391 -0.023549 0)
(-0.0219845 -0.0249504 0)
(-0.00637713 0.028637 0)
(-0.00960588 0.0265752 0)
(-0.0147487 0.024496 0)
(-0.020353 0.0227142 0)
(-0.0253097 0.0213746 0)
(-0.0290498 0.0197558 0)
(-0.0326009 0.0175904 0)
(-0.0361436 0.0153459 0)
(-0.0386872 0.0130169 0)
(-0.0400646 0.0103469 0)
(-0.0408404 0.00728432 0)
(-0.0410066 0.00409062 0)
(-0.0406286 0.000774198 0)
(-0.0398147 -0.00261965 0)
(-0.0386506 -0.00619531 0)
(-0.0373638 -0.00963548 0)
(-0.0354506 -0.0126621 0)
(-0.032326 -0.0151906 0)
(-0.0281981 -0.0173968 0)
(-0.0238328 -0.0194265 0)
(-0.0203592 -0.0217354 0)
(-0.0194044 -0.0242739 0)
(-0.0213459 -0.0256695 0)
(-0.0348228 0.04162 0)
(-0.00908791 0.0281479 0)
(-0.0100381 0.0283871 0)
(-0.0222344 0.0272116 0)
(-0.031362 0.0241474 0)
(-0.031261 0.0220514 0)
(-0.0331115 0.0206643 0)
(-0.039805 0.0185848 0)
(-0.04141 0.0137064 0)
(-0.0382184 0.0111153 0)
(-0.037205 0.00777976 0)
(-0.0368851 0.00411577 0)
(-0.0360312 0.000134718 0)
(-0.0341881 -0.00339961 0)
(-0.0307264 -0.00730399 0)
(-0.0302595 -0.00980926 0)
(-0.0307859 -0.0136292 0)
(-0.0286229 -0.0166557 0)
(-0.0247463 -0.0194202 0)
(-0.0194487 -0.0218811 0)
(-0.0132077 -0.0235892 0)
(-0.0123473 -0.0243823 0)
(-0.0222398 -0.0253624 0)
(-0.0126158 0.0697532 0)
(-0.00157869 0.00572995 0)
(0.00679351 0.042822 0)
(-0.0164613 0.0680166 0)
(-0.0387995 0.0363841 0)
(-0.039748 0.0241931 0)
(-0.0377786 0.0308583 0)
(-0.0382533 0.0339328 0)
(-0.0326619 0.00848744 0)
(-0.0279901 0.00713053 0)
(-0.0238791 0.00600897 0)
(-0.0204617 0.00186071 0)
(-0.0165748 -0.00363159 0)
(-0.0106629 -0.0103692 0)
(-0.00348259 -0.0174678 0)
(0.00421907 -0.0116598 0)
(0.00868928 -0.0219392 0)
(0.0181664 -0.0319373 0)
(0.0307699 -0.0375335 0)
(0.0381722 -0.0392923 0)
(0.0424849 -0.0388042 0)
(0.0402452 -0.0130702 0)
(-0.0132488 0.00604512 0)
(0.0180177 0.0610731 0)
(0.0080843 0.0107874 0)
(9.47208e-05 0.0369726 0)
(0.00840264 0.0753828 0)
(0.00643838 0.0422081 0)
(0.00294431 0.020597 0)
(0.0033376 0.0224323 0)
(0.00899393 0.0227552 0)
(0.00927255 0.00325679 0)
(0.00133493 0.00419862 0)
(-0.00356249 0.00328768 0)
(-0.00489606 -0.00128252 0)
(-0.0046149 -0.00654558 0)
(-0.00413952 -0.0133517 0)
(-0.00657704 -0.0193569 0)
(-0.0033353 -0.018151 0)
(0.00597482 -0.0270865 0)
(0.015425 -0.0367336 0)
(0.0258535 -0.0401946 0)
(0.0333989 -0.0314527 0)
(0.0216096 -0.0268809 0)
(4.94624e-05 0.0212485 0)
(-0.012182 0.0452123 0)
(0.0219557 0.03471 0)
(0.00797716 0.0263827 0)
(-0.00767686 0.0352341 0)
(0.0118092 0.0567889 0)
(0.0354221 0.0359513 0)
(0.0430824 0.0184643 0)
(0.0420773 0.0222749 0)
(0.0434252 0.0202007 0)
(0.0406511 0.0117962 0)
(0.0291194 0.0150709 0)
(0.0192606 0.00942972 0)
(0.0126999 0.0013212 0)
(0.00826108 -0.00532437 0)
(0.00462299 -0.0121681 0)
(-0.00167477 -0.0172894 0)
(-0.00284657 -0.0238121 0)
(-0.00150005 -0.0322389 0)
(-0.00600164 -0.0423931 0)
(-0.0123222 -0.050272 0)
(-0.0109674 -0.0314213 0)
(-0.0121013 -0.0105317 0)
(-0.0171696 0.0296855 0)
(0.00517561 0.0249028 0)
(0.00431122 0.0307289 0)
(0.00686557 0.0411535 0)
(0.00156592 0.0357765 0)
(0.018222 0.0344077 0)
(0.0379537 0.0211709 0)
(0.0453362 0.0132778 0)
(0.0502785 0.0207506 0)
(0.0518498 0.0216981 0)
(0.0457861 0.0222764 0)
(0.039357 0.0268744 0)
(0.0349759 0.0197681 0)
(0.0295453 0.00979846 0)
(0.0234203 0.00158427 0)
(0.0171229 -0.00465399 0)
(0.0100185 -0.0100955 0)
(0.0013623 -0.0202607 0)
(-0.00957745 -0.0265661 0)
(-0.0209672 -0.0339983 0)
(-0.0265837 -0.0453956 0)
(-0.0243971 -0.037533 0)
(-0.0166665 -0.0140971 0)
(-0.0038607 0.012964 0)
(0.0220915 -0.0040492 0)
(0.00270702 0.0230511 0)
(0.0134739 0.0323273 0)
(0.0220767 0.0269524 0)
(0.0311917 0.0161309 0)
(0.0381731 0.0111051 0)
(0.0391956 0.00939707 0)
(0.0390421 0.017153 0)
(0.0397925 0.0239365 0)
(0.0389621 0.0263077 0)
(0.0377954 0.0270716 0)
(0.0367097 0.0220003 0)
(0.0337383 0.0145393 0)
(0.0290967 0.00754397 0)
(0.0236358 0.00202211 0)
(0.0175932 -0.00244019 0)
(0.0104995 -0.00804673 0)
(0.0026298 -0.0135295 0)
(-0.00522862 -0.0230981 0)
(-0.0134071 -0.0394095 0)
(-0.0173006 -0.0418313 0)
(-0.0116871 -0.0274721 0)
(0.00453729 -0.00770414 0)
(0.0223145 -0.0193398 0)
(0.00431879 0.0148226 0)
(0.0141939 0.0197156 0)
(0.02251 0.0176416 0)
(0.0275953 0.0125482 0)
(0.0294556 0.0102357 0)
(0.02855 0.0113866 0)
(0.0276419 0.0172512 0)
(0.0282771 0.023069 0)
(0.0293378 0.0258387 0)
(0.0305791 0.0260558 0)
(0.0313761 0.0226115 0)
(0.0304826 0.0172789 0)
(0.0279283 0.0117077 0)
(0.0244062 0.00683709 0)
(0.0205857 0.00264196 0)
(0.0166414 -0.00211331 0)
(0.0129247 -0.00797105 0)
(0.00945596 -0.0174082 0)
(0.00362709 -0.0319325 0)
(-0.00404038 -0.0404549 0)
(-0.00639031 -0.0350376 0)
(0.00159307 -0.0215859 0)
(0.00929317 -0.0241475 0)
(0.00382842 0.00631959 0)
(0.0102404 0.0114946 0)
(0.0154261 0.0120825 0)
(0.0180226 0.0108811 0)
(0.0182541 0.0108042 0)
(0.0171692 0.0129402 0)
(0.0165274 0.0174091 0)
(0.0173226 0.0217494 0)
(0.0190428 0.0241089 0)
(0.0211219 0.0242984 0)
(0.0227724 0.0219822 0)
(0.0232064 0.0181517 0)
(0.0224263 0.0137738 0)
(0.0208809 0.00945943 0)
(0.0191013 0.00524305 0)
(0.0173659 0.000388782 0)
(0.0157657 -0.00577933 0)
(0.0138379 -0.0143676 0)
(0.00985859 -0.0251837 0)
(0.00341786 -0.0336761 0)
(-0.00258637 -0.0340461 0)
(-0.00352884 -0.0267283 0)
(-0.00291727 -0.0228963 0)
(0.00174128 0.00162124 0)
(0.00482384 0.00725325 0)
(0.00712238 0.00942189 0)
(0.0079927 0.0102428 0)
(0.00758199 0.0114454 0)
(0.00669185 0.0137933 0)
(0.00639879 0.0171966 0)
(0.00729747 0.0203327 0)
(0.00909103 0.0220737 0)
(0.0112556 0.0221945 0)
(0.0131979 0.0205707 0)
(0.0144299 0.0177021 0)
(0.0148875 0.0141453 0)
(0.0147821 0.0102905 0)
(0.0144183 0.00615526 0)
(0.0139502 0.00132897 0)
(0.0132761 -0.00463079 0)
(0.0118374 -0.0120873 0)
(0.00849864 -0.0204167 0)
(0.00299697 -0.0269491 0)
(-0.00294545 -0.0284126 0)
(-0.00668552 -0.0247889 0)
(-0.00888974 -0.0206025 0)
(-0.000480738 0.000289958 0)
(-7.65897e-05 0.00595962 0)
(-2.7213e-05 0.00881047 0)
(-0.00047214 0.0105301 0)
(-0.00134882 0.012209 0)
(-0.00216433 0.0143408 0)
(-0.0023156 0.0168389 0)
(-0.00149379 0.0189922 0)
(0.000101779 0.0201443 0)
(0.00208979 0.0200994 0)
(0.00406641 0.0187959 0)
(0.00569572 0.0164765 0)
(0.00685897 0.0134606 0)
(0.00761377 0.00998733 0)
(0.0080832 0.00607674 0)
(0.00828656 0.0015349 0)
(0.00803917 -0.00383064 0)
(0.00687485 -0.0100264 0)
(0.00411189 -0.0164439 0)
(-0.000387099 -0.0214937 0)
(-0.00553667 -0.0231246 0)
(-0.00972324 -0.0212367 0)
(-0.0127578 -0.0178932 0)
(-0.00226129 0.0020487 0)
(-0.00388543 0.00696778 0)
(-0.00549613 0.00975709 0)
(-0.00696474 0.011602 0)
(-0.00828515 0.0131968 0)
(-0.00920337 0.0148623 0)
(-0.00942016 0.0165471 0)
(-0.00880369 0.0178739 0)
(-0.00749601 0.0184696 0)
(-0.00576748 0.0181727 0)
(-0.00391211 0.0169427 0)
(-0.00218157 0.0149024 0)
(-0.00071048 0.0122334 0)
(0.000468912 0.00908011 0)
(0.00135886 0.005477 0)
(0.00189501 0.00136627 0)
(0.00188481 -0.00327712 0)
(0.000996335 -0.00830924 0)
(-0.00116428 -0.013232 0)
(-0.00468322 -0.0170927 0)
(-0.00887858 -0.0186369 0)
(-0.012683 -0.0176377 0)
(-0.0157116 -0.0151087 0)
(-0.00347819 0.00602675 0)
(-0.00658866 0.00969695 0)
(-0.009387 0.0118761 0)
(-0.0116302 0.0133311 0)
(-0.0133625 0.0144781 0)
(-0.014483 0.0155255 0)
(-0.0148769 0.0164479 0)
(-0.0145169 0.0170431 0)
(-0.0135211 0.0170957 0)
(-0.012091 0.0164878 0)
(-0.0104499 0.0151881 0)
(-0.00879739 0.0132586 0)
(-0.00727059 0.0108037 0)
(-0.0059503 0.00791583 0)
(-0.0049003 0.0046425 0)
(-0.00422257 0.00100234 0)
(-0.00408744 -0.00294192 0)
(-0.00472209 -0.00700123 0)
(-0.00633879 -0.0107804 0)
(-0.00895684 -0.0136688 0)
(-0.0121856 -0.0149765 0)
(-0.0153391 -0.0144442 0)
(-0.0179765 -0.0125575 0)
(-0.00425569 0.0114904 0)
(-0.0083596 0.0136082 0)
(-0.0119612 0.0148331 0)
(-0.0147588 0.0155799 0)
(-0.0168331 0.0160592 0)
(-0.0181754 0.0163994 0)
(-0.0187791 0.0165864 0)
(-0.0186783 0.0165064 0)
(-0.0179823 0.0160316 0)
(-0.0168516 0.0150808 0)
(-0.0154637 0.0136285 0)
(-0.0139839 0.0117057 0)
(-0.0125449 0.0093747 0)
(-0.0112487 0.00670125 0)
(-0.0101879 0.00373958 0)
(-0.00947326 0.000545369 0)
(-0.00924484 -0.0027834 0)
(-0.00965504 -0.00606192 0)
(-0.0108157 -0.0089865 0)
(-0.0127031 -0.0111509 0)
(-0.0150632 -0.0121598 0)
(-0.0174626 -0.0118536 0)
(-0.0195213 -0.0104735 0)
(-0.00469887 0.0178507 0)
(-0.00938645 0.0182689 0)
(-0.0134826 0.0183458 0)
(-0.0166393 0.0182048 0)
(-0.0189598 0.0178941 0)
(-0.0204896 0.0174825 0)
(-0.0212841 0.0169547 0)
(-0.0214128 0.0162402 0)
(-0.0209815 0.0152584 0)
(-0.0201259 0.0139529 0)
(-0.0189928 0.0123029 0)
(-0.0177233 0.0103237 0)
(-0.016441 0.00805516 0)
(-0.0152523 0.0055478 0)
(-0.0142563 0.00285687 0)
(-0.0135571 5.0976e-05 0)
(-0.0132652 -0.00276605 0)
(-0.0134811 -0.00543369 0)
(-0.0142604 -0.00772571 0)
(-0.0155619 -0.00937306 0)
(-0.0172057 -0.0101385 0)
(-0.0189033 -0.00993891 0)
(-0.0203812 -0.00892622 0)
(-0.00487536 0.024666 0)
(-0.00983309 0.0233365 0)
(-0.0141767 0.0221796 0)
(-0.0175183 0.0210612 0)
(-0.0199764 0.0199049 0)
(-0.0216296 0.0187304 0)
(-0.0225671 0.017513 0)
(-0.0228771 0.0162007 0)
(-0.0226631 0.0147369 0)
(-0.0220437 0.01308 0)
(-0.0211442 0.011212 0)
(-0.0200868 0.00914012 0)
(-0.0189834 0.00689118 0)
(-0.017935 0.00450561 0)
(-0.0170354 0.00203494 0)
(-0.0163752 -0.000453015 0)
(-0.0160391 -0.00286356 0)
(-0.0160929 -0.00506652 0)
(-0.0165609 -0.00689766 0)
(-0.0173986 -0.0081799 0)
(-0.0184753 -0.00877133 0)
(-0.0195964 -0.00863259 0)
(-0.0205726 -0.00786552 0)
(-0.0048393 0.0316019 0)
(-0.00982691 0.0285449 0)
(-0.0142161 0.0261379 0)
(-0.0175879 0.0240106 0)
(-0.0200749 0.0220003 0)
(-0.0217761 0.0200784 0)
(-0.0227968 0.0182057 0)
(-0.0232331 0.0163346 0)
(-0.0231844 0.014419 0)
(-0.0227566 0.0124248 0)
(-0.0220583 0.0103349 0)
(-0.0211954 0.00815123 0)
(-0.0202669 0.00589209 0)
(-0.0193635 0.00358953 0)
(-0.0185681 0.00128823 0)
(-0.0179562 -0.000951972 0)
(-0.0175915 -0.00305185 0)
(-0.017517 -0.00491089 0)
(-0.0177404 -0.00641256 0)
(-0.018221 -0.00744151 0)
(-0.0188637 -0.00791408 0)
(-0.0195352 -0.00781519 0)
(-0.0201057 -0.00721661 0)
(-0.00463046 0.0383975 0)
(-0.0094603 0.0336847 0)
(-0.0137256 0.0300494 0)
(-0.0169907 0.0269274 0)
(-0.0194076 0.0240896 0)
(-0.021083 0.0214575 0)
(-0.0221265 0.0189738 0)
(-0.022635 0.0165877 0)
(-0.0227019 0.0142559 0)
(-0.0224218 0.0119465 0)
(-0.021889 0.00964157 0)
(-0.0211949 0.00733858 0)
(-0.0204251 0.00504908 0)
(-0.019658 0.00279726 0)
(-0.018964 0.000619296 0)
(-0.0184039 -0.00143606 0)
(-0.0180253 -0.00330655 0)
(-0.0178559 -0.00491771 0)
(-0.0178957 -0.00618891 0)
(-0.0181102 -0.00704627 0)
(-0.01843 -0.00744202 0)
(-0.018763 -0.00737498 0)
(-0.0190189 -0.00689908 0)
(-0.00430163 0.0448296 0)
(-0.00879866 0.0385761 0)
(-0.0127899 0.0337653 0)
(-0.0158348 0.0297039 0)
(-0.0180972 0.0260914 0)
(-0.0196811 0.0228033 0)
(-0.0206935 0.0197624 0)
(-0.0212263 0.0169107 0)
(-0.0213653 0.0142031 0)
(-0.0211937 0.0116064 0)
(-0.0207931 0.00910073 0)
(-0.0202411 0.00667897 0)
(-0.0196103 0.00434654 0)
(-0.0189667 0.00212008 0)
(-0.0183679 2.66761e-05 0)
(-0.0178618 -0.00189661 0)
(-0.0174837 -0.00360357 0)
(-0.0172514 -0.00504132 0)
(-0.0171613 -0.00615585 0)
(-0.0171853 -0.0069014 0)
(-0.0172729 -0.00725276 0)
(-0.017359 -0.00721694 0)
(-0.01738 -0.00683737 0)
(-0.00388437 0.0507163 0)
(-0.0078932 0.0430534 0)
(-0.0114825 0.0371635 0)
(-0.0142136 0.0322489 0)
(-0.0162494 0.027936 0)
(-0.0176864 0.02406 0)
(-0.0186224 0.0205242 0)
(-0.0191405 0.0172616 0)
(-0.0193163 0.0142225 0)
(-0.0192215 0.011371 0)
(-0.0189251 0.00868394 0)
(-0.018492 0.00614975 0)
(-0.0179823 0.00376799 0)
(-0.0174498 0.00154811 0)
(-0.0169406 -0.000491608 0)
(-0.0164916 -0.00232512 0)
(-0.0161284 -0.00392023 0)
(-0.0158624 -0.00524132 0)
(-0.0156884 -0.00625398 0)
(-0.0155842 -0.00693172 0)
(-0.0155123 -0.00726385 0)
(-0.0154262 -0.00726241 0)
(-0.01528 -0.0069645 0)
(-0.00337744 0.0559113 0)
(-0.0067863 0.0469828 0)
(-0.0098739 0.0401432 0)
(-0.0122103 0.0344844 0)
(-0.013959 0.0295648 0)
(-0.0152049 0.0251823 0)
(-0.0160302 0.0212218 0)
(-0.0165044 0.0176073 0)
(-0.0166908 0.0142843 0)
(-0.0166491 0.0112135 0)
(-0.0164357 0.00836791 0)
(-0.0161036 0.00573181 0)
(-0.0157009 0.00329927 0)
(-0.0152702 0.0010731 0)
(-0.0148472 -0.000936385 0)
(-0.0144596 -0.00271283 0)
(-0.0141256 -0.00423568 0)
(-0.013852 -0.00548279 0)
(-0.0136331 -0.00643415 0)
(-0.0134513 -0.00707661 0)
(-0.0132783 -0.00740905 0)
(-0.0130802 -0.0074467 0)
(-0.0128232 -0.0072227 0)
(-0.00279348 0.0602861 0)
(-0.0055145 0.0502646 0)
(-0.00802049 0.0426182 0)
(-0.00989656 0.036346 0)
(-0.0113133 0.0309328 0)
(-0.012338 0.0261372 0)
(-0.0130298 0.0218287 0)
(-0.013441 0.0179249 0)
(-0.0136208 0.0143677 0)
(-0.0136162 0.0111148 0)
(-0.0134716 0.00813593 0)
(-0.013228 0.00541134 0)
(-0.0129227 0.00293031 0)
(-0.0125878 0.00068992 0)
(-0.01225 -0.00130639 0)
(-0.0119294 -0.00305036 0)
(-0.0116381 -0.00453074 0)
(-0.0113796 -0.00573572 0)
(-0.0111483 -0.00665576 0)
(-0.0109298 -0.00728708 0)
(-0.0107025 -0.00763499 0)
(-0.0104411 -0.00771677 0)
(-0.0101203 -0.00756294 0)
(-0.00214567 0.0637346 0)
(-0.00410566 0.0528216 0)
(-0.00597101 0.0445175 0)
(-0.00733993 0.0377856 0)
(-0.00839846 0.0320114 0)
(-0.00918731 0.0269055 0)
(-0.00973462 0.0223297 0)
(-0.0100728 0.0182011 0)
(-0.0102363 0.0144604 0)
(-0.0102595 0.0110635 0)
(-0.0101748 0.00797762 0)
(-0.0100121 0.00517982 0)
(-0.00979819 0.00265539 0)
(-0.00955615 0.000396688 0)
(-0.00930457 -0.00159841 0)
(-0.00905685 -0.00332802 0)
(-0.0088205 -0.00478812 0)
(-0.00859656 -0.00597459 0)
(-0.00837936 -0.00688552 0)
(-0.00815701 -0.00752366 0)
(-0.00791275 -0.00789876 0)
(-0.00762703 -0.00802941 0)
(-0.00728073 -0.00794427 0)
(-0.00139161 0.0661535 0)
(-0.00254675 0.0546024 0)
(-0.00376393 0.0458057 0)
(-0.0046146 0.038776 0)
(-0.0053085 0.0327901 0)
(-0.00586019 0.0274805 0)
(-0.00626062 0.0227188 0)
(-0.00652216 0.0184296 0)
(-0.00666533 0.014556 0)
(-0.00671177 0.0110533 0)
(-0.00668231 0.00788731 0)
(-0.00659624 0.00503269 0)
(-0.00647074 0.00247184 0)
(-0.0063204 0.000193575 0)
(-0.00615673 -0.00180835 0)
(-0.00598756 -0.0035368 0)
(-0.00581662 -0.00499303 0)
(-0.00564298 -0.0061785 0)
(-0.00546102 -0.00709672 0)
(-0.00526077 -0.00775505 0)
(-0.00502886 -0.00816629 0)
(-0.00474998 -0.00834986 0)
(-0.0044092 -0.00833306 0)
(-0.000409004 0.0674727 0)
(-0.00077369 0.0555932 0)
(-0.00141802 0.0465158 0)
(-0.00180141 0.0393353 0)
(-0.00215476 0.0332721 0)
(-0.00247204 0.0278628 0)
(-0.00272597 0.0229947 0)
(-0.00291055 0.0186085 0)
(-0.0030324 0.0146519 0)
(-0.00310057 0.0110813 0)
(-0.00312441 0.00786209 0)
(-0.00311289 0.00496754 0)
(-0.00307416 0.0023784 0)
(-0.00301513 8.13095e-05 0)
(-0.00294103 -0.00193258 0)
(-0.00285496 -0.00366933 0)
(-0.00275751 -0.00513377 0)
(-0.00264628 -0.00633114 0)
(-0.00251575 -0.00726871 0)
(-0.00235742 -0.00795702 0)
(-0.00216043 -0.00841099 0)
(-0.00191257 -0.00865062 0)
(-0.00160187 -0.00870214 0)
(0.000741248 0.0672542 0)
(0.00115145 0.0559144 0)
(0.00101487 0.0467361 0)
(0.00102274 0.0395295 0)
(0.000964172 0.0334762 0)
(0.000868058 0.0280571 0)
(0.000756928 0.0231588 0)
(0.000646838 0.0187381 0)
(0.000544712 0.0147479 0)
(0.000454309 0.0111467 0)
(0.000377662 0.00790048 0)
(0.000315722 0.00498285 0)
(0.000268835 0.00237414 0)
(0.000237147 6.02855e-05 0)
(0.000220939 -0.00196872 0)
(0.000221105 -0.00372052 0)
(0.000239635 -0.00520197 0)
(0.000280013 -0.00642064 0)
(0.000347558 -0.0073862 0)
(0.000449522 -0.00811139 0)
(0.00059484 -0.00861262 0)
(0.000793457 -0.00891034 0)
(0.0010552 -0.00902995 0)
(0.00185028 0.0654682 0)
(0.00301709 0.0555395 0)
(0.00340283 0.0465144 0)
(0.00375985 0.0394157 0)
(0.00396384 0.0334345 0)
(0.0040674 0.0280749 0)
(0.00408831 0.0232176 0)
(0.00404562 0.0188225 0)
(0.00395882 0.0148461 0)
(0.00384407 0.0112498 0)
(0.00371427 0.00800187 0)
(0.00357974 0.00507735 0)
(0.00344868 0.00245781 0)
(0.00332759 0.000129941 0)
(0.00322166 -0.00191597 0)
(0.00313519 -0.00368762 0)
(0.00307219 -0.00519245 0)
(0.00303683 -0.00643909 0)
(0.00303405 -0.00743859 0)
(0.00306993 -0.00820513 0)
(0.00315185 -0.00875628 0)
(0.00328807 -0.00911295 0)
(0.00348694 -0.00929995 0)
(0.00268519 0.062404 0)
(0.00460167 0.0543764 0)
(0.0055748 0.0458476 0)
(0.00628952 0.0390048 0)
(0.00675495 0.0331672 0)
(0.00704369 0.0279329 0)
(0.00718033 0.0231829 0)
(0.0071938 0.0188693 0)
(0.00711569 0.0149509 0)
(0.00697341 0.0113926 0)
(0.00678979 0.00816613 0)
(0.00658368 0.00524976 0)
(0.00637043 0.0026276 0)
(0.00616228 0.000288563 0)
(0.00596872 -0.00177524 0)
(0.00579696 -0.0035702 0)
(0.00565249 -0.00510299 0)
(0.00553976 -0.00638217 0)
(0.00546303 -0.00741932 0)
(0.00542718 -0.00822962 0)
(0.00543822 -0.00883167 0)
(0.00550318 -0.00924701 0)
(0.00562949 -0.00950012 0)
(0.00315613 0.0584006 0)
(0.00578026 0.0524165 0)
(0.00739357 0.0446942 0)
(0.0085169 0.0382651 0)
(0.00925862 0.0326766 0)
(0.00971961 0.0276479 0)
(0.0099552 0.0230693 0)
(0.0100129 0.0188884 0)
(0.00993626 0.0150677 0)
(0.00976295 0.0115772 0)
(0.00952477 0.00839327 0)
(0.00924828 0.00549853 0)
(0.0089553 0.0028811 0)
(0.00866325 0.000533482 0)
(0.00838543 -0.00154897 0)
(0.00813148 -0.00336993 0)
(0.00790791 -0.00493405 0)
(0.007719 -0.00624873 0)
(0.00756791 -0.0073254 0)
(0.00745808 -0.00818001 0)
(0.00739424 -0.00883239 0)
(0.00738259 -0.009305 0)
(0.00743019 -0.00962239 0)
(0.00335259 0.0537948 0)
(0.00660691 0.0497335 0)
(0.00884424 0.0430128 0)
(0.0103893 0.0371657 0)
(0.0114058 0.0319636 0)
(0.0120281 0.0272327 0)
(0.0123502 0.022889 0)
(0.0124418 0.0188887 0)
(0.0123597 0.015202 0)
(0.0121517 0.011806 0)
(0.011858 0.00868322 0)
(0.0115121 0.00582193 0)
(0.0111419 0.00321545 0)
(0.0107694 0.000861197 0)
(0.0104114 -0.00124087 0)
(0.0100796 -0.00309033 0)
(0.00978105 -0.00468847 0)
(0.00951941 -0.00604043 0)
(0.00929615 -0.0071569 0)
(0.0091128 -0.00805465 0)
(0.00897284 -0.00875527 0)
(0.00888205 -0.00928274 0)
(0.00884775 -0.0096621 0)
(0.00342124 0.0488289 0)
(0.00720534 0.0464338 0)
(0.00998416 0.0408289 0)
(0.011906 0.035721 0)
(0.0131698 0.0310407 0)
(0.0139355 0.0266997 0)
(0.0143293 0.0226536 0)
(0.0144429 0.018879 0)
(0.0143471 0.0153594 0)
(0.0140994 0.0120817 0)
(0.0137481 0.00903634 0)
(0.013333 0.00621848 0)
(0.0128874 0.00362782 0)
(0.0124376 0.00126792 0)
(0.0120033 -0.000855396 0)
(0.0115983 -0.00273618 0)
(0.01123 -0.00437089 0)
(0.0109007 -0.00576118 0)
(0.0106094 -0.00691636 0)
(0.0103551 -0.0078544 0)
(0.0101398 -0.00859969 0)
(0.00996943 -0.00917875 0)
(0.00985245 -0.00961752 0)
(0.00347242 0.0436149 0)
(0.00767295 0.0426318 0)
(0.0108857 0.0382266 0)
(0.0131114 0.0339861 0)
(0.0145713 0.0299402 0)
(0.0154455 0.026071 0)
(0.0158861 0.0223798 0)
(0.0160036 0.0188715 0)
(0.0158816 0.0155479 0)
(0.0155869 0.0124088 0)
(0.0151741 0.00945425 0)
(0.0146887 0.00668767 0)
(0.0141683 0.00411617 0)
(0.013643 0.00175039 0)
(0.0131355 -0.000396843 0)
(0.0126614 -0.00231266 0)
(0.0122286 -0.00398707 0)
(0.0118377 -0.00541656 0)
(0.011484 -0.00660813 0)
(0.0111624 -0.00758181 0)
(0.0108737 -0.00836678 0)
(0.0106249 -0.00899351 0)
(0.0104265 -0.00948933 0)
(0.00355603 0.0381801 0)
(0.00806609 0.0384377 0)
(0.011611 0.0353062 0)
(0.0140604 0.0320363 0)
(0.015651 0.0287144 0)
(0.0165839 0.0253837 0)
(0.0170346 0.0220941 0)
(0.0171307 0.0188844 0)
(0.0169662 0.0157793 0)
(0.0166145 0.012794 0)
(0.0161352 0.00994013 0)
(0.0155774 0.00723033 0)
(0.0149816 0.00467978 0)
(0.014381 0.00230673 0)
(0.0138014 0.000131713 0)
(0.0132605 -0.00182429 0)
(0.0127672 -0.00354288 0)
(0.0123207 -0.00501302 0)
(0.0119106 -0.00623763 0)
(0.0115262 -0.0072403 0)
(0.0111663 -0.00805861 0)
(0.010841 -0.00872902 0)
(0.0105643 -0.00928038 0)