/*--------------------------------*- C++ -*----------------------------------*\
  =========                 |
  \\      /  F ield         | OpenFOAM: The Open Source CFD Toolbox
   \\    /   O peration     | Website:  https://openfoam.org
    \\  /    A nd           | Version:  9
     \\/     M anipulation  |
\*---------------------------------------------------------------------------*/
FoamFile
{
    format      ascii;
    class       volScalarField;
    location    "0.9";
    object      p;
}
// * * * * * * * * * * * * * * * * * * * * * * * * * * * * * * * * * * * * * //

dimensions      [0 2 -2 0 0 0 0];

internalField   nonuniform List<scalar> 
400
(
-2.79845e-08
-0.00060271
-0.00128095
-0.00179732
-0.00203452
-0.00193974
-0.0014915
-0.000684036
0.000468827
0.0019188
0.00356804
0.00526123
0.0067993
0.0079691
0.00859525
0.00859789
0.00803738
0.007126
0.0062015
0.00565352
0.000596182
-3.25593e-05
-0.000557485
-0.000906718
-0.00104768
-0.000946552
-0.000582691
5.45099e-05
0.000960956
0.00210454
0.00341185
0.00476554
0.00600405
0.00695571
0.00747846
0.007508
0.00709321
0.00639992
0.00566666
0.00511181
0.0013152
0.000445344
-0.000109928
-0.000419219
-0.000544476
-0.000477732
-0.000203206
0.000296009
0.00103087
0.0019899
0.00312246
0.00432877
0.00546233
0.00635467
0.00685661
0.00688887
0.00648176
0.00577715
0.00495411
0.0041646
0.00185961
0.000677982
7.43493e-06
-0.000337999
-0.000507419
-0.000516373
-0.000351903
1.31411e-05
0.000610126
0.00145255
0.00251243
0.00370408
0.00487932
0.00584968
0.00642949
0.00649631
0.00604664
0.00520696
0.0041303
0.00294853
0.00198464
0.000497715
-0.000308783
-0.00072723
-0.000983983
-0.00111206
-0.0010959
-0.000892269
-0.000442872
0.000297407
0.00132904
0.0025888
0.00392117
0.00510626
0.00589861
0.00610119
0.00564823
0.00464065
0.00321983
0.00153138
0.00147891
-0.000279834
-0.00122511
-0.00174527
-0.00213313
-0.00243318
-0.00262171
-0.00263347
-0.00237575
-0.00176182
-0.000751743
0.00063987
0.00224539
0.00381272
0.00501473
0.00553846
0.00520806
0.00406585
0.00223644
-9.2195e-05
0.000164369
-0.00181899
-0.00289921
-0.00354935
-0.00411818
-0.00465756
-0.00513209
-0.00544972
-0.00547539
-0.0050624
-0.00409526
-0.00257752
-0.000603733
0.00153925
0.00342234
0.0045652
0.00460714
0.00346163
0.00119466
-0.00194669
-0.00210023
-0.00425165
-0.00545936
-0.00626848
-0.00707432
-0.00793539
-0.0088045
-0.00956072
-0.0100195
-0.00996315
-0.00918847
-0.00758427
-0.00519026
-0.00227951
0.000622756
0.00281803
0.00365688
0.00279785
0.000140057
-0.00402318
-0.00540878
-0.00766617
-0.00898951
-0.0099822
-0.0110792
-0.0123494
-0.0137386
-0.0150995
-0.016195
-0.0167227
-0.0163605
-0.0148463
-0.0120865
-0.00827596
-0.00399608
-0.000189704
0.00208602
0.00204003
-0.000812772
-0.00621761
-0.00979566
-0.0120964
-0.0135125
-0.0146934
-0.016113
-0.0178605
-0.0198848
-0.0220204
-0.0239812
-0.0253736
-0.0257305
-0.0245917
-0.0216706
-0.0169681
-0.0110261
-0.00499596
-0.000434658
0.00116647
-0.00142968
-0.00824
-0.0152308
-0.0175195
-0.0189799
-0.0203052
-0.0220211
-0.0242555
-0.0269755
-0.03001
-0.0330327
-0.035561
-0.0369713
-0.0365601
-0.0338449
-0.0284548
-0.0207546
-0.011974
-0.0041639
0.000238141
-0.00127798
-0.00946666
-0.0216327
-0.0238696
-0.0252757
-0.0266112
-0.0284935
-0.0311189
-0.0344912
-0.0384456
-0.0426262
-0.0464705
-0.0492231
-0.0500028
-0.047806
-0.0420762
-0.0327734
-0.0209584
-0.00900392
-0.000423332
0.000409638
-0.00870134
-0.0289125
-0.0310773
-0.032236
-0.0333006
-0.0350686
-0.0378464
-0.0416889
-0.0464426
-0.0517253
-0.0569023
-0.0610832
-0.0631612
-0.0618961
-0.0562372
-0.0456715
-0.030839
-0.0140949
7.94576e-05
0.00497909
-0.00381197
-0.037075
-0.0391391
-0.03968
-0.0399761
-0.041165
-0.0437069
-0.0477066
-0.0530074
-0.0591862
-0.0655306
-0.071024
-0.0743674
-0.0740652
-0.0686544
-0.0570957
-0.0394054
-0.0175028
0.00357492
0.0147203
0.0087221
-0.0464343
-0.0482267
-0.047434
-0.0461686
-0.0461326
-0.0479451
-0.0517193
-0.0572497
-0.0640297
-0.0712403
-0.0777279
-0.082012
-0.0823568
-0.0769531
-0.0642823
-0.0436828
-0.0162987
0.0129555
0.0331321
0.034042
-0.0580874
-0.0588576
-0.0553209
-0.0513373
-0.049317
-0.0499046
-0.0531069
-0.0585859
-0.0656785
-0.0734092
-0.0804521
-0.0851303
-0.085474
-0.0793551
-0.0648439
-0.0406734
-0.00708011
0.0319391
0.064741
0.0785362
-0.0750678
-0.0722096
-0.0632215
-0.0549978
-0.050241
-0.0492245
-0.0516439
-0.0568949
-0.0640821
-0.0720098
-0.079142
-0.0835783
-0.0830939
-0.0752096
-0.057564
-0.0283105
0.0131728
0.0645624
0.114971
0.151003
-0.105996
-0.0904249
-0.0711693
-0.056923
-0.0487489
-0.045914
-0.0475214
-0.0525253
-0.0596974
-0.0675853
-0.0744355
-0.0781258
-0.076166
-0.065672
-0.0437281
-0.00754267
0.0448835
0.113048
0.190904
0.271431
-0.177657
-0.114037
-0.0744663
-0.0530726
-0.0419967
-0.0380593
-0.0395547
-0.0448651
-0.0523815
-0.0604441
-0.067175
-0.0703383
-0.0672637
-0.0547151
-0.0292343
0.0134815
0.0784107
0.171057
0.298806
0.473032
-0.344427
-0.135298
-0.0552134
-0.0317539
-0.0229161
-0.0210343
-0.0246329
-0.0318982
-0.0410139
-0.050307
-0.057969
-0.061849
-0.0594149
-0.0476845
-0.022273
0.0219388
0.0937453
0.211052
0.409102
0.738391
)
;

boundaryField
{
    movingWall
    {
        type            zeroGradient;
    }
    fixedWalls
    {
        type            zeroGradient;
    }
    frontAndBack
    {
        type            empty;
    }
}


// ************************************************************************* //
