/*--------------------------------*- C++ -*----------------------------------*\
  =========                 |
  \\      /  F ield         | OpenFOAM: The Open Source CFD Toolbox
   \\    /   O peration     | Website:  https://openfoam.org
    \\  /    A nd           | Version:  9
     \\/     M anipulation  |
\*---------------------------------------------------------------------------*/
FoamFile
{
    format      ascii;
    class       volScalarField;
    location    "6.98";
    object      p;
}
// * * * * * * * * * * * * * * * * * * * * * * * * * * * * * * * * * * * * * //

dimensions      [1 -1 -2 0 0 0 0];

internalField   nonuniform List<scalar> 
2268
(
735.025
734.861
734.63
734.339
733.998
733.615
733.196
732.748
732.276
731.786
731.286
730.778
730.262
729.733
729.178
728.591
728.005
727.484
727.133
726.843
726.734
726.736
726.689
676.205
676.05
675.822
675.535
675.193
674.805
674.379
673.92
673.435
672.933
672.416
671.888
671.348
670.793
670.219
669.636
669.105
668.686
668.447
668.209
667.925
667.774
667.739
617.403
617.253
617.028
616.743
616.4
616.008
615.573
615.103
614.605
614.086
613.552
613.004
612.442
611.866
611.28
610.705
610.204
609.823
609.63
609.424
609.029
608.798
608.78
558.619
558.467
558.241
557.956
557.611
557.214
556.772
556.291
555.78
555.246
554.694
554.128
553.551
552.964
552.376
551.814
551.32
550.881
550.693
550.487
550.065
549.82
549.827
499.853
499.693
499.462
499.174
498.825
498.422
497.972
497.481
496.958
496.409
495.842
495.261
494.672
494.082
493.504
492.965
492.513
491.956
491.676
491.46
491.043
490.877
490.886
441.103
440.933
440.692
440.398
440.043
439.633
439.175
438.674
438.139
437.576
436.993
436.397
435.801
435.214
434.653
434.156
433.816
433.503
432.973
432.645
432.353
432.06
431.953
382.368
382.186
381.934
381.631
381.268
380.85
380.383
379.871
379.324
378.747
378.146
377.535
376.932
376.35
375.812
375.362
375.156
375.307
374.811
374.406
374.158
373.319
373.014
323.647
323.458
323.195
322.88
322.507
322.079
321.602
321.079
320.52
319.925
319.304
318.675
318.063
317.486
316.968
316.556
316.419
316.764
316.658
316.303
315.73
314.667
314.135
728.986
729.779
730.537
731.099
731.559
731.963
732.35
732.708
733.008
733.29
733.746
734.431
735.086
735.569
736.116
736.867
737.274
737.606
737.724
670.496
670.788
671.526
672.097
672.606
673.112
673.55
673.914
674.223
674.585
675.235
676.013
676.761
677.081
677.336
678.035
678.491
678.808
678.992
611.958
612.022
612.562
613.095
613.619
614.14
614.601
614.989
615.339
615.771
616.548
617.387
618.197
618.471
618.63
619.31
619.768
620.124
620.398
553.297
553.311
553.669
554.142
554.665
555.194
555.678
556.107
556.526
556.97
557.758
558.635
559.432
559.691
560.012
560.671
561.09
561.608
561.956
494.365
494.455
494.766
495.21
495.733
496.273
496.803
497.289
497.775
498.245
498.922
499.838
500.602
500.765
501.54
502.117
502.463
503.206
503.54
435.227
435.459
435.82
436.275
436.81
437.366
437.936
438.5
439.078
439.648
440.005
441.02
441.758
442.22
443.185
443.716
444.079
444.688
445.038
376.029
376.404
376.837
377.33
377.89
378.458
379.07
379.732
380.462
381.367
381.93
382.466
383.337
384.702
384.977
385.372
385.867
386.065
386.452
316.751
317.361
317.84
318.382
318.975
319.54
320.191
320.982
321.932
323.484
324.793
324.826
325.895
327.519
326.859
327.009
327.619
327.473
327.901
231.883
231.676
231.39
231.053
230.658
230.212
229.717
229.177
228.597
227.974
227.312
226.644
226.011
225.437
224.939
224.561
224.402
224.554
224.542
224.193
223.649
222.99
222.522
107.692
107.471
107.205
106.805
106.34
105.882
105.408
104.886
104.339
103.791
103.235
102.664
102.082
101.516
101.005
100.599
100.363
100.304
100.264
99.9993
99.5304
99.1602
98.8835
22.6928
22.5501
22.4133
22.2454
22.0556
21.8497
21.6226
21.3802
21.1247
20.8908
20.6837
20.4736
20.2217
19.9359
19.6568
19.4319
19.3201
19.3184
19.3098
19.2028
18.9987
18.8507
18.7461
-0.659691
-0.670464
-0.710026
-0.597204
-0.493221
-0.460506
-0.457018
-0.413008
-0.401855
-0.412567
-0.424073
-0.429002
-0.434191
-0.44739
-0.476982
-0.514834
-0.576246
-0.644959
-0.715332
-0.717626
-0.691331
-0.675169
-0.690992
-0.912865
-0.912825
-0.923448
-0.90245
-0.884257
-0.872516
-0.858782
-0.83541
-0.820953
-0.815681
-0.813177
-0.810239
-0.811606
-0.819839
-0.832827
-0.84595
-0.86248
-0.875407
-0.886823
-0.890828
-0.886607
-0.887569
-0.892013
-1.12742
-1.12931
-1.12303
-1.13375
-1.14125
-1.14484
-1.14605
-1.15228
-1.15474
-1.15491
-1.15423
-1.15365
-1.15325
-1.1506
-1.14483
-1.13903
-1.13238
-1.1255
-1.11541
-1.11303
-1.11092
-1.10584
-1.09509
-1.28431
-1.28435
-1.27945
-1.28473
-1.28258
-1.28284
-1.28444
-1.28497
-1.28451
-1.28389
-1.28302
-1.28196
-1.27973
-1.27626
-1.27219
-1.2696
-1.26909
-1.26971
-1.2702
-1.26973
-1.2716
-1.26954
-1.26544
-1.40952
-1.40955
-1.40901
-1.40999
-1.4093
-1.40901
-1.40918
-1.40948
-1.40922
-1.40872
-1.40811
-1.40742
-1.40621
-1.40467
-1.40331
-1.40273
-1.40193
-1.40097
-1.40154
-1.40212
-1.40213
-1.4031
-1.40652
-1.53463
-1.53458
-1.53432
-1.53474
-1.53447
-1.53433
-1.5343
-1.53432
-1.5341
-1.53376
-1.53337
-1.53295
-1.53252
-1.53257
-1.53321
-1.53288
-1.53159
-1.53053
-1.53042
-1.52989
-1.52938
-1.52981
-1.53098
-1.65978
-1.65972
-1.65965
-1.65976
-1.65961
-1.65953
-1.65949
-1.6594
-1.6592
-1.65898
-1.65875
-1.65852
-1.6583
-1.65852
-1.65897
-1.65864
-1.6579
-1.65742
-1.65686
-1.65611
-1.65574
-1.65588
-1.65638
-1.78491
-1.78491
-1.78486
-1.78486
-1.78477
-1.7847
-1.78463
-1.78451
-1.78436
-1.78427
-1.78416
-1.784
-1.78377
-1.78381
-1.7839
-1.78365
-1.78311
-1.78268
-1.78231
-1.78196
-1.78175
-1.78181
-1.78205
-1.91007
-1.91008
-1.91003
-1.91
-1.90993
-1.90986
-1.90977
-1.90966
-1.90958
-1.90956
-1.90949
-1.90931
-1.90915
-1.90911
-1.90909
-1.9089
-1.90852
-1.90819
-1.9079
-1.9077
-1.90762
-1.90767
-1.90784
-2.03528
-2.03521
-2.03519
-2.03516
-2.0351
-2.03504
-2.03497
-2.03489
-2.03486
-2.03484
-2.03474
-2.0346
-2.03449
-2.03444
-2.0344
-2.03432
-2.03421
-2.03398
-2.03373
-2.03353
-2.03344
-2.03347
-2.03361
-2.16045
-2.16037
-2.16035
-2.16032
-2.16029
-2.16024
-2.16021
-2.16018
-2.16015
-2.16009
-2.15998
-2.15988
-2.1598
-2.15975
-2.15973
-2.15973
-2.15978
-2.15971
-2.15954
-2.15933
-2.15915
-2.15915
-2.15927
-2.28558
-2.28556
-2.28553
-2.28551
-2.28548
-2.28545
-2.28544
-2.28544
-2.2854
-2.28532
-2.28523
-2.28515
-2.28509
-2.28505
-2.28504
-2.28504
-2.28509
-2.28514
-2.28505
-2.28483
-2.2847
-2.28471
-2.28481
-2.41071
-2.41076
-2.41073
-2.4107
-2.41067
-2.41065
-2.41065
-2.41064
-2.4106
-2.41053
-2.41047
-2.41041
-2.41036
-2.41033
-2.41032
-2.41032
-2.41034
-2.41034
-2.41029
-2.4102
-2.41014
-2.41016
-2.41025
-2.5359
-2.53595
-2.53592
-2.5359
-2.53588
-2.53586
-2.53584
-2.53583
-2.53579
-2.53575
-2.5357
-2.53566
-2.53562
-2.5356
-2.53559
-2.53558
-2.53559
-2.53559
-2.53557
-2.53553
-2.53551
-2.53554
-2.53562
-2.66113
-2.66114
-2.66112
-2.6611
-2.66108
-2.66107
-2.66105
-2.66103
-2.661
-2.66097
-2.66093
-2.6609
-2.66088
-2.66086
-2.66085
-2.66084
-2.66085
-2.66085
-2.66084
-2.66083
-2.66084
-2.66088
-2.66096
-2.78637
-2.78633
-2.78632
-2.78631
-2.7863
-2.78628
-2.78626
-2.78624
-2.78622
-2.78619
-2.78617
-2.78614
-2.78612
-2.78611
-2.7861
-2.7861
-2.78611
-2.78611
-2.78612
-2.78612
-2.78615
-2.78619
-2.78626
-2.91155
-2.91156
-2.91155
-2.91153
-2.91152
-2.9115
-2.91148
-2.91146
-2.91144
-2.91142
-2.9114
-2.91138
-2.91137
-2.91136
-2.91135
-2.91136
-2.91136
-2.91137
-2.91138
-2.9114
-2.91143
-2.91148
-2.91154
-3.03673
-3.03679
-3.03677
-3.03675
-3.03674
-3.03672
-3.0367
-3.03668
-3.03667
-3.03665
-3.03663
-3.03662
-3.03661
-3.0366
-3.0366
-3.03661
-3.03662
-3.03663
-3.03665
-3.03667
-3.03671
-3.03675
-3.03681
-3.16197
-3.162
-3.16199
-3.16198
-3.16196
-3.16194
-3.16192
-3.16191
-3.16189
-3.16188
-3.16187
-3.16186
-3.16185
-3.16185
-3.16185
-3.16186
-3.16187
-3.16188
-3.1619
-3.16193
-3.16197
-3.16202
-3.16207
-3.28721
-3.28723
-3.28721
-3.2872
-3.28718
-3.28716
-3.28715
-3.28713
-3.28712
-3.28711
-3.2871
-3.28709
-3.28709
-3.28709
-3.28709
-3.2871
-3.28711
-3.28713
-3.28715
-3.28718
-3.28722
-3.28727
-3.28732
-3.41245
-3.41244
-3.41243
-3.41242
-3.4124
-3.41239
-3.41237
-3.41236
-3.41234
-3.41233
-3.41233
-3.41232
-3.41232
-3.41232
-3.41233
-3.41234
-3.41235
-3.41237
-3.4124
-3.41243
-3.41247
-3.41251
-3.41257
-3.53765
-3.53767
-3.53766
-3.53764
-3.53762
-3.53761
-3.53759
-3.53758
-3.53757
-3.53756
-3.53755
-3.53755
-3.53755
-3.53756
-3.53756
-3.53757
-3.53759
-3.53761
-3.53764
-3.53767
-3.53771
-3.53775
-3.5378
-3.66284
-3.6629
-3.66287
-3.66285
-3.66284
-3.66282
-3.66281
-3.6628
-3.66279
-3.66278
-3.66278
-3.66278
-3.66278
-3.66279
-3.66279
-3.66281
-3.66282
-3.66284
-3.66287
-3.6629
-3.66294
-3.66298
-3.66303
-3.78807
-3.78809
-3.78808
-3.78806
-3.78805
-3.78803
-3.78802
-3.78801
-3.78801
-3.788
-3.788
-3.788
-3.78801
-3.78801
-3.78802
-3.78803
-3.78805
-3.78807
-3.7881
-3.78813
-3.78817
-3.78821
-3.78826
-3.91329
-3.9133
-3.91328
-3.91327
-3.91325
-3.91324
-3.91323
-3.91323
-3.91322
-3.91322
-3.91322
-3.91322
-3.91323
-3.91323
-3.91324
-3.91326
-3.91328
-3.9133
-3.91332
-3.91335
-3.91339
-3.91343
-3.91348
-4.03853
-4.03849
-4.03848
-4.03847
-4.03846
-4.03845
-4.03844
-4.03844
-4.03844
-4.03844
-4.03844
-4.03844
-4.03845
-4.03846
-4.03847
-4.03848
-4.0385
-4.03852
-4.03854
-4.03857
-4.03861
-4.03865
-4.03869
-4.16372
-4.16372
-4.16369
-4.16367
-4.16366
-4.16365
-4.16365
-4.16365
-4.16365
-4.16365
-4.16366
-4.16366
-4.16367
-4.16367
-4.16368
-4.1637
-4.16371
-4.16374
-4.16376
-4.16379
-4.16382
-4.16386
-4.16391
-4.28892
-4.28895
-4.28889
-4.28886
-4.28885
-4.28885
-4.28886
-4.28886
-4.28886
-4.28887
-4.28887
-4.28888
-4.28888
-4.28889
-4.2889
-4.28891
-4.28893
-4.28895
-4.28897
-4.289
-4.28904
-4.28907
-4.28912
-4.41416
-4.41413
-4.41407
-4.41404
-4.41405
-4.41406
-4.41406
-4.41407
-4.41408
-4.41408
-4.41409
-4.41409
-4.4141
-4.41411
-4.41412
-4.41413
-4.41414
-4.41416
-4.41419
-4.41421
-4.41425
-4.41428
-4.41432
-4.53941
-4.53933
-4.53928
-4.53925
-4.53925
-4.53927
-4.53928
-4.53928
-4.53929
-4.5393
-4.5393
-4.53931
-4.53931
-4.53932
-4.53933
-4.53934
-4.53936
-4.53937
-4.5394
-4.53942
-4.53945
-4.53949
-4.53953
-4.66461
-4.66455
-4.66451
-4.66448
-4.66448
-4.66448
-4.66449
-4.6645
-4.6645
-4.66451
-4.66452
-4.66452
-4.66453
-4.66454
-4.66454
-4.66455
-4.66457
-4.66458
-4.6646
-4.66463
-4.66466
-4.66469
-4.66473
-4.78979
-4.78976
-4.78972
-4.78971
-4.78971
-4.7897
-4.78971
-4.78971
-4.78972
-4.78973
-4.78973
-4.78974
-4.78975
-4.78975
-4.78976
-4.78977
-4.78978
-4.78979
-4.78981
-4.78983
-4.78986
-4.7899
-4.78994
-4.91499
-4.91491
-4.91489
-4.9149
-4.91491
-4.91491
-4.91492
-4.91493
-4.91494
-4.91494
-4.91495
-4.91496
-4.91496
-4.91497
-4.91497
-4.91498
-4.91499
-4.915
-4.91502
-4.91504
-4.91506
-4.9151
-4.91514
-5.04014
-5.04003
-5.04003
-5.04007
-5.04009
-5.04011
-5.04013
-5.04014
-5.04016
-5.04016
-5.04017
-5.04018
-5.04018
-5.04018
-5.04019
-5.04019
-5.0402
-5.04021
-5.04022
-5.04024
-5.04026
-5.0403
-5.04034
-5.16524
-5.16514
-5.16518
-5.16524
-5.16529
-5.16532
-5.16535
-5.16536
-5.16538
-5.16539
-5.16539
-5.1654
-5.1654
-5.1654
-5.16541
-5.16541
-5.16541
-5.16542
-5.16542
-5.16544
-5.16546
-5.1655
-5.16554
-5.29027
-5.29023
-5.29035
-5.29044
-5.2905
-5.29054
-5.29057
-5.29059
-5.29061
-5.29061
-5.29062
-5.29062
-5.29063
-5.29063
-5.29063
-5.29063
-5.29063
-5.29063
-5.29063
-5.29064
-5.29065
-5.29069
-5.29074
-5.41532
-5.41537
-5.41557
-5.41568
-5.41575
-5.41579
-5.41581
-5.41583
-5.41584
-5.41584
-5.41585
-5.41585
-5.41585
-5.41585
-5.41585
-5.41585
-5.41584
-5.41584
-5.41583
-5.41583
-5.41584
-5.41588
-5.41595
-5.54033
-5.54062
-5.54084
-5.54095
-5.54101
-5.54103
-5.54104
-5.54105
-5.54105
-5.54105
-5.54105
-5.54105
-5.54105
-5.54105
-5.54105
-5.54105
-5.54104
-5.54103
-5.54102
-5.541
-5.54098
-5.54103
-5.54115
-5.66573
-5.66635
-5.66628
-5.66628
-5.66629
-5.66628
-5.66628
-5.66628
-5.66627
-5.66627
-5.66627
-5.66627
-5.66627
-5.66627
-5.66627
-5.66626
-5.66626
-5.66624
-5.66622
-5.66618
-5.66609
-5.66615
-5.66635
223.867
223.934
224.22
224.504
99.4448
99.6234
99.8192
99.9878
18.8811
18.9471
19.0267
19.114
-0.712795
-0.718109
-0.716975
-0.711935
-0.89146
-0.891668
-0.891818
-0.891351
-1.09115
-1.09115
-1.09119
-1.09064
-1.26601
-1.2661
-1.26603
-1.26596
-1.40611
-1.40529
-1.40509
-1.40541
-1.53092
-1.53077
-1.53064
-1.53056
-1.65635
-1.65627
-1.65616
-1.65599
-1.78205
-1.78203
-1.78198
-1.78188
-1.90794
-1.90801
-1.90811
-1.90825
-2.03379
-2.03393
-2.03411
-2.0344
-2.15945
-2.15959
-2.15976
-2.15999
-2.28496
-2.28507
-2.28521
-2.28536
-2.41037
-2.41046
-2.41056
-2.41068
-2.53572
-2.5358
-2.53587
-2.53596
-2.66104
-2.6611
-2.66116
-2.66123
-2.78633
-2.78638
-2.78643
-2.78649
-2.9116
-2.91164
-2.91169
-2.91174
-3.03687
-3.0369
-3.03694
-3.03699
-3.16212
-3.16215
-3.16219
-3.16223
-3.28737
-3.2874
-3.28743
-3.28747
-3.41261
-3.41264
-3.41267
-3.4127
-3.53784
-3.53787
-3.5379
-3.53793
-3.66307
-3.6631
-3.66313
-3.66316
-3.7883
-3.78832
-3.78835
-3.78838
-3.91351
-3.91354
-3.91357
-3.91359
-4.03873
-4.03875
-4.03878
-4.03881
-4.16394
-4.16396
-4.16399
-4.16402
-4.28915
-4.28917
-4.2892
-4.28922
-4.41436
-4.41438
-4.4144
-4.41443
-4.53956
-4.53958
-4.53961
-4.53963
-4.66477
-4.66479
-4.66481
-4.66483
-4.78997
-4.78999
-4.79001
-4.79003
-4.91517
-4.91519
-4.91521
-4.91523
-5.04037
-5.04039
-5.04041
-5.04043
-5.16557
-5.16559
-5.16561
-5.16563
-5.29078
-5.2908
-5.29082
-5.29084
-5.41598
-5.41601
-5.41602
-5.41604
-5.5412
-5.54122
-5.54124
-5.54125
-5.6664
-5.66642
-5.66644
-5.66645
224.449
225.06
225.584
226.218
226.954
227.742
228.53
229.388
230.548
232.418
234.123
235.098
235.847
236.382
235.797
235.825
236.452
236.272
236.534
100.242
101.002
101.74
102.552
103.522
104.647
105.725
106.663
107.564
108.714
110.282
111.539
112.098
112.014
111.676
111.944
112.745
112.812
113.151
19.2798
19.6215
20.0349
20.5079
21.0504
21.6824
22.3461
22.8874
23.1715
23.2763
23.869
24.4469
24.7181
24.7192
24.5032
24.7659
25.2514
25.393
25.7449
-0.702654
-0.704486
-0.68051
-0.629541
-0.621917
-0.631095
-0.640173
-0.642182
-0.635788
-0.629323
-0.656723
-0.709135
-0.77314
-0.702955
-0.635152
-0.625546
-0.630667
-0.633253
-0.6262
-0.890706
-0.891419
-0.88497
-0.874341
-0.868018
-0.871163
-0.874083
-0.877099
-0.881519
-0.888122
-0.898059
-0.910575
-0.921992
-0.912267
-0.907135
-0.904464
-0.903395
-0.903974
-0.907779
-1.08918
-1.08806
-1.09205
-1.10628
-1.10975
-1.11269
-1.11416
-1.11556
-1.11767
-1.12151
-1.12736
-1.13214
-1.12453
-1.12609
-1.12528
-1.12372
-1.12403
-1.12297
-1.12288
-1.26569
-1.26494
-1.26728
-1.27011
-1.27322
-1.27316
-1.27216
-1.27163
-1.27156
-1.27162
-1.27085
-1.27054
-1.27293
-1.27853
-1.2806
-1.282
-1.2827
-1.28269
-1.28134
-1.40556
-1.40505
-1.40456
-1.40312
-1.40121
-1.39967
-1.39817
-1.39822
-1.3985
-1.3986
-1.39849
-1.39876
-1.40114
-1.40423
-1.40621
-1.40764
-1.40862
-1.40941
-1.40908
-1.53039
-1.52984
-1.52952
-1.52893
-1.52806
-1.527
-1.52674
-1.52797
-1.52909
-1.52928
-1.52885
-1.52855
-1.52898
-1.53006
-1.5317
-1.53303
-1.53392
-1.5344
-1.53405
-1.6556
-1.65512
-1.65493
-1.65498
-1.65505
-1.65543
-1.65687
-1.65829
-1.6588
-1.65895
-1.65884
-1.65812
-1.65662
-1.65629
-1.65714
-1.65829
-1.65897
-1.6593
-1.65918
-1.78162
-1.78135
-1.78113
-1.78117
-1.78199
-1.78362
-1.78522
-1.78557
-1.78514
-1.78528
-1.78583
-1.7855
-1.78379
-1.78302
-1.7831
-1.78348
-1.78391
-1.78419
-1.78424
-1.90851
-1.9084
-1.90817
-1.90802
-1.90872
-1.90996
-1.91081
-1.91072
-1.91062
-1.91071
-1.91091
-1.91091
-1.91059
-1.90988
-1.90899
-1.9085
-1.90876
-1.90907
-1.90934
-2.03496
-2.03529
-2.03529
-2.03518
-2.03505
-2.03539
-2.03581
-2.03589
-2.03594
-2.03602
-2.03609
-2.03614
-2.03624
-2.03573
-2.03453
-2.03385
-2.03377
-2.03393
-2.03441
-2.16045
-2.1611
-2.16131
-2.16109
-2.16073
-2.16078
-2.16098
-2.16106
-2.16111
-2.16117
-2.16119
-2.1612
-2.16116
-2.16091
-2.16042
-2.15982
-2.15941
-2.15934
-2.1597
-2.28566
-2.28606
-2.28625
-2.28617
-2.28604
-2.28607
-2.28617
-2.28624
-2.28628
-2.28632
-2.28634
-2.28634
-2.28631
-2.28625
-2.28611
-2.28572
-2.28532
-2.285
-2.28531
-2.41088
-2.41115
-2.4113
-2.41131
-2.41128
-2.41131
-2.41138
-2.41144
-2.41148
-2.41151
-2.41153
-2.41153
-2.4115
-2.41144
-2.41132
-2.41107
-2.41067
-2.41019
-2.41049
-2.53611
-2.53631
-2.53644
-2.53649
-2.5365
-2.53655
-2.53661
-2.53666
-2.5367
-2.53674
-2.53676
-2.53677
-2.53676
-2.5367
-2.53659
-2.53636
-2.53603
-2.53562
-2.53579
-2.66135
-2.66151
-2.66163
-2.66169
-2.66174
-2.66178
-2.66184
-2.66189
-2.66194
-2.66199
-2.66203
-2.66206
-2.66208
-2.66209
-2.66206
-2.66199
-2.66192
-2.6619
-2.66202
-2.78658
-2.78672
-2.78683
-2.78691
-2.78697
-2.78703
-2.78708
-2.78714
-2.7872
-2.78726
-2.78732
-2.78738
-2.78745
-2.78754
-2.78765
-2.78782
-2.7881
-2.78872
-2.78857
-2.91182
-2.91193
-2.91204
-2.91212
-2.9122
-2.91226
-2.91232
-2.91239
-2.91246
-2.91254
-2.91262
-2.91271
-2.91283
-2.91299
-2.91322
-2.91355
-2.91402
-2.91506
-2.91488
-3.03706
-3.03716
-3.03725
-3.03734
-3.03742
-3.03749
-3.03756
-3.03764
-3.03772
-3.03781
-3.03791
-3.03803
-3.03818
-3.03838
-3.03866
-3.03907
-3.0396
-3.04036
-3.04044
-3.1623
-3.16239
-3.16248
-3.16256
-3.16264
-3.16272
-3.1628
-3.16288
-3.16297
-3.16307
-3.16319
-3.16332
-3.16349
-3.1637
-3.16398
-3.16436
-3.16481
-3.16524
-3.16521
-3.28753
-3.28761
-3.2877
-3.28778
-3.28787
-3.28795
-3.28803
-3.28812
-3.28822
-3.28832
-3.28844
-3.28859
-3.28876
-3.28896
-3.28921
-3.28951
-3.28983
-3.29004
-3.2899
-3.41276
-3.41284
-3.41292
-3.41301
-3.41309
-3.41317
-3.41326
-3.41335
-3.41345
-3.41356
-3.41369
-3.41383
-3.41399
-3.41418
-3.41439
-3.41461
-3.4148
-3.41487
-3.41468
-3.53799
-3.53806
-3.53814
-3.53823
-3.53831
-3.53839
-3.53848
-3.53858
-3.53868
-3.53879
-3.53891
-3.53905
-3.5392
-3.53936
-3.53953
-3.53969
-3.53979
-3.53977
-3.53953
-3.66321
-3.66328
-3.66336
-3.66344
-3.66352
-3.66361
-3.6637
-3.6638
-3.6639
-3.66401
-3.66413
-3.66426
-3.66439
-3.66454
-3.66467
-3.66479
-3.66483
-3.66477
-3.66452
-3.78843
-3.7885
-3.78858
-3.78865
-3.78874
-3.78882
-3.78891
-3.78901
-3.78911
-3.78922
-3.78933
-3.78945
-3.78958
-3.7897
-3.78982
-3.7899
-3.78993
-3.78986
-3.78965
-3.91364
-3.91371
-3.91379
-3.91386
-3.91394
-3.91403
-3.91412
-3.91421
-3.91431
-3.91442
-3.91453
-3.91464
-3.91476
-3.91487
-3.91496
-3.91503
-3.91505
-3.91499
-3.91481
-4.03885
-4.03892
-4.03899
-4.03907
-4.03915
-4.03923
-4.03932
-4.03941
-4.03951
-4.03961
-4.03972
-4.03982
-4.03993
-4.04003
-4.04011
-4.04016
-4.04018
-4.04012
-4.03997
-4.16406
-4.16413
-4.1642
-4.16427
-4.16435
-4.16443
-4.16452
-4.16461
-4.1647
-4.1648
-4.1649
-4.165
-4.1651
-4.16519
-4.16525
-4.16529
-4.16527
-4.16519
-4.16503
-4.28927
-4.28933
-4.2894
-4.28947
-4.28955
-4.28963
-4.28971
-4.2898
-4.28989
-4.28998
-4.29008
-4.29018
-4.29027
-4.29034
-4.2904
-4.29041
-4.29035
-4.29022
-4.28997
-4.41447
-4.41453
-4.4146
-4.41467
-4.41474
-4.41482
-4.4149
-4.41498
-4.41507
-4.41516
-4.41526
-4.41535
-4.41544
-4.41551
-4.41555
-4.41555
-4.41547
-4.4153
-4.41501
-4.53967
-4.53973
-4.53979
-4.53986
-4.53993
-4.54
-4.54008
-4.54016
-4.54025
-4.54034
-4.54043
-4.54053
-4.54061
-4.54069
-4.54073
-4.54073
-4.54064
-4.54047
-4.54019
-4.66487
-4.66493
-4.66499
-4.66505
-4.66512
-4.66519
-4.66526
-4.66534
-4.66543
-4.66551
-4.66561
-4.6657
-4.66579
-4.66587
-4.66593
-4.66594
-4.66587
-4.6657
-4.66541
-4.79007
-4.79013
-4.79018
-4.79024
-4.7903
-4.79037
-4.79044
-4.79052
-4.7906
-4.79068
-4.79077
-4.79087
-4.79097
-4.79106
-4.79114
-4.79117
-4.79113
-4.79096
-4.79065
-4.91527
-4.91532
-4.91537
-4.91543
-4.91549
-4.91555
-4.91561
-4.91568
-4.91576
-4.91584
-4.91594
-4.91604
-4.91614
-4.91625
-4.91635
-4.91643
-4.91642
-4.91625
-4.91591
-5.04047
-5.04052
-5.04056
-5.04061
-5.04067
-5.04072
-5.04078
-5.04084
-5.04091
-5.04099
-5.04109
-5.04119
-5.04131
-5.04144
-5.04157
-5.04169
-5.04173
-5.04156
-5.04118
-5.16567
-5.16571
-5.16575
-5.1658
-5.16584
-5.16589
-5.16594
-5.166
-5.16606
-5.16614
-5.16622
-5.16633
-5.16645
-5.1666
-5.16678
-5.16696
-5.16708
-5.1669
-5.16646
-5.29087
-5.2909
-5.29094
-5.29098
-5.29101
-5.29105
-5.29109
-5.29114
-5.2912
-5.29126
-5.29134
-5.29144
-5.29157
-5.29173
-5.29195
-5.29223
-5.29248
-5.29232
-5.29185
-5.41606
-5.41609
-5.41612
-5.41615
-5.41618
-5.41621
-5.41624
-5.41628
-5.41632
-5.41637
-5.41644
-5.41652
-5.41664
-5.4168
-5.41705
-5.41745
-5.41794
-5.41788
-5.41749
-5.54126
-5.54128
-5.5413
-5.54132
-5.54134
-5.54136
-5.54138
-5.54141
-5.54144
-5.54147
-5.54151
-5.54157
-5.54165
-5.54177
-5.542
-5.54248
-5.54337
-5.54365
-5.54361
-5.66646
-5.66647
-5.66648
-5.66649
-5.6665
-5.66651
-5.66652
-5.66654
-5.66655
-5.66656
-5.66658
-5.6666
-5.66664
-5.6667
-5.66683
-5.66718
-5.66818
-5.66933
-5.67037
)
;

boundaryField
{
    leftWall
    {
        type            calculated;
        value           nonuniform List<scalar> 
50
(
735.025
676.205
617.403
558.619
499.853
441.103
382.368
323.647
231.883
107.692
22.6928
-0.659691
-0.912865
-1.12742
-1.28431
-1.40952
-1.53463
-1.65978
-1.78491
-1.91007
-2.03528
-2.16045
-2.28558
-2.41071
-2.5359
-2.66113
-2.78637
-2.91155
-3.03673
-3.16197
-3.28721
-3.41245
-3.53765
-3.66284
-3.78807
-3.91329
-4.03853
-4.16372
-4.28892
-4.41416
-4.53941
-4.66461
-4.78979
-4.91499
-5.04014
-5.16524
-5.29027
-5.41532
-5.54033
-5.66573
)
;
    }
    rightWall
    {
        type            calculated;
        value           nonuniform List<scalar> 
50
(
737.724
678.992
620.398
561.956
503.54
445.038
386.452
327.901
236.534
113.151
25.7449
-0.6262
-0.907779
-1.12288
-1.28134
-1.40908
-1.53405
-1.65918
-1.78424
-1.90934
-2.03441
-2.1597
-2.28531
-2.41049
-2.53579
-2.66202
-2.78857
-2.91488
-3.04044
-3.16521
-3.2899
-3.41468
-3.53953
-3.66452
-3.78965
-3.91481
-4.03997
-4.16503
-4.28997
-4.41501
-4.54019
-4.66541
-4.79065
-4.91591
-5.04118
-5.16646
-5.29185
-5.41749
-5.54361
-5.67037
)
;
    }
    lowerWall
    {
        type            calculated;
        value           nonuniform List<scalar> 
62
(
764.454
764.29
764.059
763.769
763.428
763.045
762.625
762.177
761.705
761.216
760.715
760.207
759.692
759.163
758.607
758.02
757.434
756.913
756.52
756.186
756.087
756.15
756.101
726.689
667.739
608.78
549.827
490.886
431.953
373.014
314.135
286.46
286.524
286.811
287.097
728.986
670.496
611.958
553.297
494.365
435.227
376.029
316.751
758.18
759.161
759.919
760.481
760.931
761.224
761.579
761.937
762.246
762.498
762.945
763.631
764.294
764.922
765.506
766.256
766.664
766.989
767.107
)
;
    }
    atmosphere
    {
        type            calculated;
        value           nonuniform List<scalar> 
46
(
-5.72912
-5.72904
-5.72904
-5.72904
-5.72904
-5.72904
-5.72904
-5.72904
-5.72904
-5.72904
-5.72904
-5.72904
-5.72904
-5.72904
-5.72904
-5.72904
-5.72904
-5.72904
-5.72904
-5.72904
-5.72904
-5.72904
-5.72904
-5.72904
-5.72905
-5.72905
-5.72905
-5.72905
-5.72906
-5.72907
-5.72907
-5.72908
-5.72909
-5.7291
-5.72911
-5.72911
-5.72912
-5.72913
-5.72913
-5.72914
-5.72914
-5.72913
-5.72913
-5.72911
-5.72906
-5.73516
)
;
    }
    defaultFaces
    {
        type            empty;
    }
}


// ************************************************************************* //
