/*--------------------------------*- C++ -*----------------------------------*\
  =========                 |
  \\      /  F ield         | OpenFOAM: The Open Source CFD Toolbox
   \\    /   O peration     | Website:  https://openfoam.org
    \\  /    A nd           | Version:  9
     \\/     M anipulation  |
\*---------------------------------------------------------------------------*/
FoamFile
{
    format      ascii;
    class       surfaceScalarField;
    location    "13.7";
    object      phi;
}
// * * * * * * * * * * * * * * * * * * * * * * * * * * * * * * * * * * * * * //

dimensions      [0 3 -1 0 0 0 0];

internalField   nonuniform List<scalar> 
1300
(
11.2529
1.87548
-4.35476
11.2529
-4.88005
1.87548
-4.18997
4.18997
-1.20347
1.20347
5.71233
5.54053
-2.39284
2.39284
-2.87377
2.87377
-2.86445
2.86445
-1.06194
1.06194
-1.02828
1.02828
0.697512
-0.697512
-3.34622
3.34622
-1.46634
1.46634
-2.90136
2.90136
6.12819
-6.12819
-3.34626
3.34626
-0.754136
0.754136
-4.26324
15.5161
6.98962
6.98962
-2.378
2.378
-1.25464
1.25464
1.41034
-1.41034
9.3826
-9.3826
-5.02783
-6.05086
1.86479
-13.7308
-3.01526
-3.01526
-2.7054
2.7054
-0.829928
1.04555
3.4757
-3.4757
-0.770242
0.770242
-4.26701
0.077036
-4.26701
3.98423
0.205745
3.98423
-1.34494
0.141473
-1.34494
4.61997
-4.61997
1.09216
0.111305
1.09216
3.92776
-3.92776
-5.71004
11.4224
5.54282
-5.32061
20.8367
-5.93225
11.4728
-3.91992
3.91992
-2.30388
-0.0889617
-2.30388
2.40362
-0.0107801
2.40362
-3.96478
3.96478
-2.65482
-0.218958
-2.65482
2.98573
-0.111956
2.98573
3.66198
-3.66198
-2.91943
0.0549784
-2.91943
2.71342
0.151038
2.71342
0.771042
1.10443
-2.64652
3.69207
-1.10443
0.0424987
1.02614
0.0357986
1.02614
-1.01454
-0.0137439
-1.01454
1.04992
-0.0216355
1.04992
0.737629
-0.0401165
0.737629
-0.756889
0.0593766
-0.756889
-8.52598
-8.92495
-3.4757
0.12948
-3.4757
-1.48256
0.0162189
-1.48256
1.50459
-0.0382493
1.50459
-2.56282
2.56282
-3.23104
0.329679
-3.23104
4.80655
1.32165
4.80655
5.04614
6.20672
16.299
-16.299
10.1708
-3.05646
-0.289804
-3.05646
-3.52985
-5.85274
3.52985
-0.183592
-0.817943
0.063807
-0.817943
5.62648
1.36314
5.62648
2.59237
0.12105
-2.59237
0.214362
4.60963
-4.60963
1.42754
0.950461
1.42754
-1.19131
1.19131
1.12363
-0.0737072
-1.12363
-0.131012
1.38601
0.0243349
1.38601
-1.40975
-0.000595346
-1.40975
7.42992
-13.4808
-7.89545
3.15712
0.189106
-3.15712
0.141859
3.5619
-0.0861971
3.5619
-3.31078
3.31078
-3.61017
0.13447
-3.61017
-0.693393
-0.0768486
-0.693393
0.857137
-0.0868952
0.857137
-4.51061
0.243599
-4.51061
-3.66023
0.429189
3.66023
0.323998
1.27421
-1.27421
-1.45136
0.106417
-1.45136
-4.59645
0.0858481
4.59645
0.0235163
-4.72085
0.10088
-4.72085
-3.71198
0.101805
3.71198
0.215783
4.58914
1.03734
-4.58914
0.661376
-5.36951
11.5762
-5.88335
11.4262
-3.54828
-0.371642
-3.54828
4.09944
-0.17952
4.09944
2.57421
0.327152
-2.57421
0.270328
2.53832
-0.134698
2.53832
-3.922
-0.0427769
-3.922
3.7626
0.202179
3.7626
2.58582
-0.0475002
-2.58582
-0.0689947
2.97092
0.0148072
2.97092
3.66653
-0.00455521
3.66653
-3.53631
-0.125672
-3.53631
3.18098
-3.18098
3.08324
0.0977411
-3.08324
0.163806
-5.07402
5.07343
-0.00799931
-5.06602
1.01814
1.01814
0.7806
-0.0429716
0.7806
-0.862085
0.105196
-0.862085
8.35974
-16.2552
8.81368
-17.3397
7.42508
-21.1558
7.97051
-16.8955
3.7666
-3.7666
3.69471
0.0718857
-3.69471
0.21901
-1.46264
-0.0199168
-1.46264
-2.32417
-0.238651
-2.32417
2.89766
-0.334836
2.89766
-3.74265
3.74265
-4.12512
0.382464
4.12512
0.68143
3.03799
-0.0670644
-3.03799
-0.0184712
0.93902
0.153144
-0.93902
0.121077
4.8399
-0.230262
4.8399
-4.07346
-0.536173
-4.07346
-1.48008
0.0174401
1.48008
-0.0525378
-1.25887
0.0675573
-1.25887
-5.0745
0.00847751
-5.0387
-1.40127
-1.40127
1.30414
4.9962
-3.58327
0.0469619
3.58327
-0.0213687
3.52785
0.214808
-3.52785
0.217067
-3.26481
0.0838334
3.26481
0.0459665
-0.670403
-0.0229904
-0.670403
-1.05308
1.05308
-0.934067
-0.119017
0.934067
-0.0769296
1.43181
-0.157599
1.43181
1.48395
0.020638
-1.48395
0.0325914
-4.96725
0.246397
-4.96725
4.1004
-0.000955685
4.1004
-3.94077
-0.132687
3.94077
-0.27424
-0.00372211
5.07715
-1.01442
-0.000124251
1.01442
-5.10149
5.10136
-0.675625
0.0052222
0.675625
0.104975
1.02941
0.1619
-1.02941
0.167323
3.79594
-0.0333426
-3.79594
0.0293408
-2.03978
-0.284385
-2.03978
-3.22208
-0.326201
3.22208
-0.324424
-5.11512
-0.0779988
5.19312
-5.13676
1.33686
0.049141
-1.33686
5.1505
-1.16493
-0.10928
1.16493
-0.11185
1.63396
-0.202144
1.63396
5.08676
-0.24686
-5.08676
0.119508
-4.10346
0.181461
4.10346
-0.00306238
-1.8067
-0.233085
1.8067
-0.172741
-13.128
14.4911
7.70876
-6.40193
-7.07885
-12.2547
4.44722
7.12901
14.618
-11.5677
-9.58815
-11.4258
2.86047
-2.69314
-3.7578
3.71768
23.424
-23.3232
-18.3998
19.0812
20.7762
-20.5604
5.70866
5.7137
15.8403
-15.9293
-21.0115
20.6399
15.5807
-15.7996
21.9361
-21.9789
-25.5736
25.5403
-16.1092
16.1642
-20.2818
20.1561
-21.0343
20.76
-8.27688
-9.06278
16.2328
-16.1033
20.4084
-20.6982
-19.2245
19.5542
10.0473
4.44378
11.0847
-6.24682
11.9555
-5.22596
12.9347
8.38708
-16.664
7.86812
-14.947
9.31112
11.0973
-9.12752
-3.12715
-17.9661
17.8799
-17.2611
17.3071
23.8555
-23.7785
-6.17274
11.8864
-5.25344
12.3825
-11.4091
-6.99066
10.0874
4.53058
8.80378
7.42901
-8.99288
-2.43294
-24.72
24.4732
-25.615
25.0788
0.0969669
2.42775
-2.52472
1.35161
-0.858706
3.28645
2.00176
2.10696
2.45244
-2.29054
0.240706
-2.76542
-2.89643
-5.4092
5.51561
5.23671
-5.1254
16.3875
7.03648
16.4111
-16.6475
-6.67561
-16.4011
11.3644
7.71674
11.7469
12.0604
8.7158
12.1622
10.3594
-10.3314
-0.0279599
-11.4774
21.8368
1.55501
-18.468
-13.9375
8.88184
6.95851
8.87106
-9.86127
-6.06803
-9.59095
-11.115
-9.8965
-11.4412
12.3721
8.26783
12.1926
-15.2981
15.2951
9.44277
6.13788
9.33082
-9.06883
-6.73079
-9.13782
27.3413
-6.56803
-20.7733
-13.0804
-12.4932
12.8782
9.05791
14.1624
11.3779
14.1917
8.8162
18.5251
-17.8741
5.38087
-9.9545
-6.15473
-9.79069
9.27231
6.8919
9.42334
-11.7615
-8.52027
-11.7146
-11.9768
-9.05749
11.9813
8.17481
-12.5158
-13.0992
12.6485
8.11157
7.78156
-17.3697
9.1139
-18.1767
-10.7853
-5.31797
-10.5663
10.8341
6.57808
-17.4122
-5.82984
23.904
-12.8066
20.7768
-11.139
-9.55924
-11.1575
-14.6442
-4.58028
-14.215
-8.10963
7.82525
-8.93664
8.6018
26.9491
-16.1862
-10.7629
-12.378
-8.1824
11.7166
-0.631973
-12.836
12.8081
-0.880534
12.0542
16.498
15.866
-10.8819
-6.37916
-10.6649
10.2743
7.03271
10.3582
15.9185
7.93702
16.1242
-16.6197
-7.15878
-16.3761
4.92653
-5.00338
5.73936
-5.72192
15.5373
9.54147
-15.3071
-9.41294
22.9726
-10.7848
-12.1878
-5.13211
5.2591
-0.126995
-1.84565
-0.494049
0.260087
-1.93918
-1.81861
1.87981
0.227151
5.48626
3.66764
-2.41418
2.48173
2.77895
2.70524
-0.191195
2.53947
-2.53425
19.07
-11.5393
-7.53076
13.8116
-13.7258
-2.56448
-19.2073
16.6428
2.68531
3.06243
-2.99862
-3.9906
-1.4186
-3.95801
3.00409
2.23262
3.15723
2.12589
3.38972
-8.20473
1.59421
6.61052
-6.07884
-3.53119
-13.3537
-6.33271
19.6864
16.5973
7.87586
-16.7168
0.315658
5.3346
-5.37285
-1.55425
-11.7994
8.45631
-10.0106
-15.2688
-6.4299
21.6987
-9.58166
-1.0832
9.36686
2.38005
-10.8757
-7.09042
10.7412
1.42101
-12.0636
23.972
-11.9084
-18.4427
8.51651
13.3203
16.2333
-17.8629
9.31788
8.54501
-4.54263
7.48503
1.38603
7.35033
-19.8317
13.7637
11.2562
8.29798
-11.5833
1.99239
-17.8393
25.1162
-22.174
-2.94218
12.853
12.2631
13.5913
13.3578
-7.88914
21.4805
-3.52416
-18.6498
21.3635
-13.0655
15.6661
-28.7316
-29.0238
10.374
-18.0207
22.0256
-4.00497
-5.16035
-10.1378
23.181
-2.05382
-21.1272
10.1387
-13.9773
-11.8509
25.8282
-20.5453
18.5816
-6.34903
-12.2326
-12.6244
-9.35449
12.4429
2.85214
-25.7068
31.0876
-7.18165
7.96662
1.36419
7.98143
10.6437
-15.8937
5.25
9.90161
-16.2506
6.8532
-22.7469
-12.0657
23.9722
-11.9065
-17.3837
-15.6589
-1.72477
4.79957
26.2881
-16.1774
11.9617
4.21579
8.46697
1.89121
-8.56471
-1.22598
0.976157
16.1069
-17.083
10.3995
10.5206
11.737
4.36985
10.7664
7.11345
-10.7451
-0.969517
-14.7846
5.72711
-6.60979
-14.5573
20.2845
-16.2652
1.70783
-10.3017
-13.9994
24.3011
-16.4564
11.4292
12.5428
18.4619
-19.6156
5.61618
-9.75136
-9.86423
10.649
-17.2588
7.48588
12.7986
15.5974
2.49825
12.6918
11.2805
-19.2698
1.09316
18.7095
-16.2766
3.87562
10.3161
-15.8373
0.17833
-10.388
2.61811
-15.4247
-14.7941
16.3886
-20.9689
-12.3429
13.4109
2.71333
-13.7349
-0.480111
-5.03436
-3.07527
-5.26744
-3.31007
-5.62657
-11.1992
-1.96002
-9.23918
5.86522
-6.76718
-4.67406
7.09161
1.51019
-5.02694
4.91766
-5.6791
5.47696
-0.210614
13.0187
15.6554
7.47298
-8.47604
15.949
-15.5215
23.4585
-29.6115
14.0899
15.8771
-23.0359
-13.7343
2.75002
2.17652
2.66312
13.6197
-14.5895
0.969805
-13.4461
17.7719
-4.32575
-19.848
6.40187
-6.22826
5.21659
0.522768
5.19668
1.42713
6.86308
-8.29021
-4.29479
-4.34733
-9.14171
-13.8508
22.9925
4.77962
-13.117
8.33737
-12.1089
16.8885
0.110201
-13.2272
17.0412
-10.1782
17.564
-11.9987
5.56533
12.7945
22.3689
-9.57441
16.2276
-6.6861
7.0362
-16.6106
-6.81463
-11.2998
18.1917
-13.0013
14.7091
-1.10872
15.8178
-13.8037
3.01889
-2.06673
8.45382
8.66818
16.8105
-12.4406
11.9879
-18.674
-4.62268
-16.1758
-3.37721
1.04219
-13.9004
12.8582
12.1878
-11.1456
-3.2901
9.12507
-5.83497
5.777
-2.88925
-2.88775
-1.87798
-3.1254
1.90097
0.638503
6.4155
0.499563
-3.38881
-2.03469
-1.92971
10.433
8.63701
-3.90492
3.77793
3.64483
-0.582405
0.972873
2.18436
4.66803
-3.69516
0.693187
3.97484
-2.30543
3.86434
1.47026
-3.88498
-0.073031
-3.42425
11.8806
3.18627
-5.41889
1.72373
2.35924
-13.8985
19.7098
-11.4113
-8.29848
22.069
3.02456
-14.4358
16.1827
-13.4974
8.05248
-14.3852
-6.38336
-19.8808
-12.8443
-10.7387
19.076
-12.2539
20.1297
3.8072
-20.4454
24.2526
-12.7777
6.34777
-9.51622
10.9865
-4.11083
-5.40538
11.3121
10.3866
-11.0653
-0.734076
0.246788
8.49114
-8.24435
-1.51942
-7.59826
-16.4074
17.8284
-8.25743
17.5753
7.69158
-7.63236
25.2077
6.56666
-14.199
-11.8761
-12.9593
-5.65401
10.5792
-1.83586
-7.30196
-14.0685
7.34946
0.000872014
-19.0276
22.079
-3.05147
-12.069
-1.69462
14.5477
-18.141
1.89036
-11.2878
10.7912
12.1772
12.1781
-20.8868
-0.240442
-12.6189
3.233
-15.8519
15.4961
-6.86885
17.2428
-16.1218
11.4478
-14.6116
14.3007
-1.55126
14.6643
-9.41426
6.10901
-15.4635
-12.6114
14.578
-8.44008
15.9422
-10.2064
26.1486
-17.3881
14.6116
11.537
-2.78656
-8.37091
-14.155
11.3684
0.456546
8.43798
17.8326
-10.7192
16.8631
8.91597
-18.6673
-8.34282
-25.8609
7.19353
-13.3181
-7.35455
14.5481
11.1074
12.9986
4.68385
-11.7726
17.719
-19.4438
-5.81252
-8.98156
14.7626
-3.39419
10.2213
-19.2029
-5.2034
13.15
-0.21412
-12.9359
3.0362
-15.3791
5.13618
-20.5153
15.8328
-16.3129
1.80329
-8.03155
-3.22365
-3.3355
-2.20742
-3.47168
-7.69025
5.48283
-1.28839
3.62928
-12.6398
12.4257
-5.1321
10.6149
-4.12835
-1.13909
4.3011
1.17586
11.7908
3.04272
-16.777
-9.33188
14.7357
-5.40385
1.10113
-10.8577
3.87808
8.05402
14.015
-24.6968
1.66092
-15.1161
-4.14131
6.31782
4.98376
17.1716
2.58205
6.66551
-0.347684
9.24756
2.31544
2.23851
-11.2747
12.2445
1.58352
15.6735
-1.88742
7.45275
3.30926
3.32548
2.04737
5.73797
2.93021
8.75686
0.466659
-3.88067
2.09173
-4.02144
-1.29709
-4.06441
-0.34673
3.76677
-4.1135
10.6127
-1.9757
5.20885
-1.9393
-5.01608
6.95538
-9.47006
-5.59848
-1.62364
-5.68935
7.41309
6.19121
-5.78945
-3.68061
2.42684
-15.2712
11.9583
-12.6924
-2.30585
21.9468
-9.53105
1.2867
-3.18329
-6.31156
-7.73016
7.80319
24.1906
1.01706
12.2822
18.8454
11.755
1.03586
12.0739
-16.0788
-10.6731
-16.3193
-0.823123
13.7245
5.66645
20.6216
17.2035
13.8093
-5.39361
-24.8374
20.758
-8.51348
16.4322
-3.49632
-17.019
14.538
8.92055
-17.2513
0.938435
-16.0805
-24.594
-0.358077
12.7837
-11.4327
10.2936
7.21835
2.02083
-2.46914
-0.866358
2.58816
-0.34965
8.89791
-0.177895
-8.31175
8.48964
-3.58887
2.29179
-0.477039
4.25496
6.47834
4.50264
-3.80911
-7.9226
-8.87864
-5.01986
-17.1771
2.50926
-8.70047
5.76768
-3.47589
2.87993
5.01375
10.2226
-1.61322
-9.53242
7.44819
-4.56826
5.65434
)
;

boundaryField
{
    wall-4
    {
        type            calculated;
        value           uniform 0;
    }
    velocity-inlet-5
    {
        type            calculated;
        value           uniform -11.2529;
    }
    velocity-inlet-6
    {
        type            calculated;
        value           uniform -1.87548;
    }
    pressure-outlet-7
    {
        type            calculated;
        value           nonuniform List<scalar> 8(4.35476 4.88005 11.0787 11.866 17.4509 15.3254 17.1734 15.3956);
    }
    wall-8
    {
        type            calculated;
        value           uniform 0;
    }
    frontAndBackPlanes
    {
        type            empty;
        value           nonuniform List<scalar> 0();
    }
}


// ************************************************************************* //
