/*--------------------------------*- C++ -*----------------------------------*\
  =========                 |
  \\      /  F ield         | OpenFOAM: The Open Source CFD Toolbox
   \\    /   O peration     | Website:  https://openfoam.org
    \\  /    A nd           | Version:  9
     \\/     M anipulation  |
\*---------------------------------------------------------------------------*/
FoamFile
{
    format      ascii;
    class       volScalarField;
    location    "0.27";
    object      nut;
}
// * * * * * * * * * * * * * * * * * * * * * * * * * * * * * * * * * * * * * //

dimensions      [0 2 -1 0 0 0 0];

internalField   nonuniform List<scalar> 
2268
(
7.41832e-05
7.25935e-05
9.10139e-05
0.000104613
0.00011536
0.00012469
0.000133243
0.000141262
0.000148794
0.00015579
0.000162141
0.000167703
0.000172299
0.000175715
0.000177692
0.000177831
0.000176082
0.000172899
0.000167773
0.000160651
0.000151682
0.000134765
0.000116801
0.000143725
0.000493087
0.000729771
0.000901608
0.00104223
0.00116263
0.00126875
0.00136322
0.00144671
0.00151899
0.00157936
0.00162687
0.00166036
0.00167855
0.00168022
0.00166306
0.00159766
0.00147042
0.00131029
0.00115027
0.00101119
0.000895631
0.000352429
0.000157018
0.000766023
0.00121859
0.0015954
0.00192556
0.00222209
0.0024911
0.00273433
0.00295113
0.00313992
0.00329888
0.00342607
0.00351937
0.00357635
0.00359407
0.00356599
0.00345792
0.00323011
0.00288349
0.00245115
0.00200468
0.00159137
0.000429264
0.000169287
0.000912803
0.00152843
0.00207527
0.00257777
0.00304445
0.00347711
0.00387372
0.00423066
0.00454421
0.00481119
0.00502887
0.00519467
0.00530569
0.00535769
0.00534077
0.00522011
0.00494386
0.0044815
0.00383557
0.00307438
0.00225246
0.000487963
0.000178671
0.00100219
0.00173183
0.00241178
0.00305976
0.00367654
0.00425714
0.00479429
0.00528071
0.00571038
0.00607893
0.00638334
0.00662124
0.00678993
0.00688461
0.00689305
0.00677926
0.00648318
0.00595417
0.00516472
0.00414069
0.00287298
0.000531875
0.000185671
0.00106301
0.00187382
0.00265808
0.00342706
0.00417275
0.00488228
0.00554249
0.00614225
0.00667336
0.00713069
0.00751145
0.00781412
0.00803691
0.00817511
0.00821505
0.00812001
0.00782118
0.00725677
0.00637234
0.00513783
0.00344509
0.00057228
0.00019083
0.00110643
0.00197918
0.00284803
0.00371856
0.0045742
0.00539416
0.00615938
0.00685501
0.00747106
0.00800208
0.00844606
0.00880298
0.00907255
0.00925074
0.00932307
0.00925178
0.00896302
0.00838499
0.00743808
0.00603797
0.00397869
0.000613082
0.000194429
0.001137
0.00206081
0.00300205
0.00395984
0.00490969
0.0058234
0.00667653
0.007451
0.00813549
0.00872477
0.00921819
0.00961773
0.00992516
0.0101377
0.0102405
0.0101943
0.00992584
0.0093519
0.00836951
0.00685329
0.00452134
0.000660588
0.000294716
8.71499e-05
9.86546e-05
0.000104862
0.000108464
0.000109811
0.000108729
0.000106098
0.0001025
9.84285e-05
9.43471e-05
9.068e-05
8.7522e-05
8.44927e-05
8.13066e-05
7.74334e-05
7.18955e-05
0.000299535
0.000179677
0.000222817
0.000610169
0.000770123
0.000913972
0.00101784
0.00106189
0.00107993
0.00107485
0.00104832
0.00100416
0.000948996
0.000890222
0.000833164
0.000778722
0.000721875
0.000655338
0.000567087
0.000444171
0.000159051
0.000269784
0.00111372
0.00149454
0.00178494
0.00198845
0.00211
0.002181
0.00220029
0.00216469
0.00207857
0.0019561
0.00181613
0.00167456
0.00153676
0.0013943
0.00123069
0.00101867
0.00070699
0.000175484
0.000308011
0.00149651
0.00204801
0.00242559
0.0026921
0.00288685
0.00303093
0.00311024
0.00310773
0.00301945
0.00286007
0.00265655
0.00243662
0.00221396
0.00198117
0.00171586
0.00137978
0.000905679
0.000188099
0.000342958
0.0017714
0.00242809
0.00284832
0.00314701
0.00340029
0.00362344
0.00378721
0.003855
0.00380605
0.00364672
0.00340607
0.00312273
0.00282098
0.00249926
0.00213378
0.0016801
0.00106363
0.0001978
0.000377636
0.0019572
0.00266173
0.0030964
0.00340497
0.0037005
0.00399856
0.00425807
0.00442174
0.00444627
0.00432157
0.00407189
0.00374325
0.00337134
0.00296454
0.00250235
0.00193818
0.00119442
0.000205543
0.000415072
0.00206105
0.00277091
0.00320581
0.00351184
0.00383471
0.00419739
0.00455341
0.00482728
0.00495057
0.0048903
0.0046592
0.0043049
0.00387396
0.00338758
0.00283299
0.00216498
0.00130567
0.000211914
0.000468155
0.00208435
0.00278276
0.00320872
0.0035073
0.00384225
0.00425467
0.00470024
0.00508949
0.0053285
0.00535718
0.0051702
0.00481099
0.00433399
0.00377511
0.00313327
0.00236757
0.00140224
0.000217249
0.000197633
0.00116302
0.00214561
0.00317704
0.00424591
0.00531633
0.00634959
0.00731343
0.00818532
0.00895256
0.00961098
0.0101629
0.0106145
0.010972
0.0112364
0.0113951
0.011408
0.0111916
0.0106516
0.00966151
0.00808087
0.00571208
0.00194188
0.00020051
0.00117131
0.00222251
0.00336501
0.00456245
0.00576081
0.00690897
0.00796789
0.00891306
0.00973346
0.0104291
0.0110082
0.0114836
0.0118683
0.012169
0.0123773
0.0124558
0.0123191
0.0118551
0.0109278
0.00939741
0.00713312
0.00399698
0.000203174
0.00116098
0.00226636
0.00351199
0.00482845
0.00613697
0.0073722
0.0084903
0.00946836
0.0103005
0.0109934
0.0115623
0.0120273
0.0124079
0.0127164
0.0129501
0.0130805
0.0130368
0.0126972
0.0119317
0.010608
0.00865
0.00614427
0.000206846
0.00112986
0.00226801
0.0036118
0.00504755
0.0064599
0.00776608
0.00891998
0.00990432
0.0107217
0.0113875
0.0119247
0.0123596
0.0127161
0.0130109
0.0132471
0.0134072
0.0134394
0.0132442
0.012697
0.0116816
0.0101421
0.00820543
0.00021338
0.00105848
0.00220906
0.00366501
0.00523588
0.00675344
0.00811967
0.00929271
0.010266
0.0110537
0.0116815
0.0121802
0.0125792
0.012904
0.0131729
0.013394
0.0135602
0.0136392
0.013565
0.0132348
0.0125501
0.0114568
0.0100358
0.000228119
0.000932604
0.00209772
0.00371438
0.00544667
0.0070669
0.00847834
0.00965443
0.0106041
0.0113554
0.0119458
0.0124124
0.0127824
0.0130799
0.0133244
0.0135287
0.0136916
0.0137929
0.0137932
0.0136298
0.0132135
0.0124893
0.0114782
0.000260445
0.000812566
0.00203942
0.00387668
0.00577249
0.00747048
0.00890102
0.0100611
0.0109772
0.0116911
0.0122533
0.012704
0.0130552
0.0133344
0.0135683
0.0137748
0.0139514
0.0140792
0.0141309
0.014068
0.0138244
0.0133195
0.0125187
0.000306374
0.000848688
0.00226112
0.00430388
0.00629329
0.00801375
0.00942637
0.0105481
0.0114193
0.012091
0.0126188
0.0130353
0.013362
0.0136248
0.0138472
0.0140454
0.0142154
0.0143398
0.0143944
0.0143499
0.0141694
0.0138093
0.0132253
0.000336107
0.00136031
0.00310779
0.00507089
0.00693455
0.00858919
0.00994221
0.0110056
0.0118228
0.0124393
0.0128971
0.0132348
0.0135057
0.0137323
0.013929
0.0141006
0.0142391
0.0143282
0.0143499
0.014289
0.0141295
0.0138467
0.0134423
0.00035527
0.00214335
0.00411506
0.00586717
0.00760038
0.00915194
0.0104177
0.0114037
0.0121522
0.0127068
0.0131076
0.0133955
0.0136136
0.0137906
0.0139412
0.0140659
0.0141521
0.0141787
0.0141267
0.0139893
0.0137793
0.0135188
0.0132087
0.000342224
0.00240079
0.00461175
0.00652114
0.00826486
0.0097459
0.0109234
0.0118242
0.0124965
0.012985
0.0133277
0.0135618
0.0137244
0.0138437
0.0139337
0.013992
0.0140001
0.0139292
0.0137529
0.0134664
0.0131008
0.0127171
0.012366
0.000332474
0.0024999
0.00496343
0.00707269
0.00884048
0.0102595
0.0113556
0.01218
0.0127864
0.0132198
0.0135167
0.0137097
0.0138288
0.0138972
0.0139256
0.0139073
0.0138171
0.0136174
0.0132754
0.0127885
0.0122031
0.0116076
0.0110932
0.000332534
0.0025716
0.00527799
0.00753026
0.00930586
0.0106696
0.0116965
0.0124571
0.0130096
0.0133988
0.0136597
0.0138207
0.0139059
0.0139322
0.013904
0.0138079
0.0136104
0.0132656
0.0127385
0.0120347
0.0112192
0.0104036
0.00970782
0.000335636
0.00267031
0.00555182
0.00788983
0.00965962
0.0109762
0.0119475
0.0126575
0.0131675
0.0135221
0.0137542
0.0138893
0.0139467
0.0139371
0.0138581
0.0136877
0.0133837
0.0128941
0.0121863
0.0112814
0.0102677
0.00927594
0.00843865
0.000339236
0.0027794
0.00577789
0.00816031
0.00991672
0.0111945
0.0121225
0.0127933
0.0132706
0.0135983
0.0138079
0.0139224
0.0139572
0.0139179
0.0137952
0.0135592
0.0131598
0.0125418
0.0116799
0.0106149
0.0094594
0.00835689
0.00743975
0.000342139
0.00288106
0.00595294
0.00835477
0.0100952
0.0113422
0.0122373
0.0128785
0.013331
0.0136386
0.0138317
0.0139311
0.0139495
0.0138884
0.013733
0.0134468
0.0129741
0.0122595
0.0112869
0.0101165
0.00888082
0.00773081
0.00679113
0.000343917
0.00294832
0.00607106
0.00848168
0.0102076
0.0114315
0.0123027
0.0129226
0.0133575
0.0136512
0.0138332
0.0139235
0.0139327
0.0138595
0.0136856
0.0133706
0.0128561
0.0120878
0.0110564
0.00983485
0.00856892
0.00741361
0.00648284
0.000343584
0.00299705
0.0061491
0.00855622
0.0102663
0.0114718
0.0123256
0.0129306
0.0133536
0.0136385
0.0138147
0.0139013
0.0139081
0.0138329
0.0136562
0.0133371
0.0128174
0.0120424
0.0110027
0.00977434
0.00850756
0.00736119
0.00644063
0.000341099
0.0030238
0.00618457
0.00857947
0.0102744
0.0114664
0.0123089
0.0129047
0.0133208
0.0136012
0.0137754
0.0138627
0.0138731
0.0138053
0.0136411
0.0133412
0.0128484
0.0121073
0.0111034
0.00990241
0.00864921
0.00750803
0.0065867
0.00033662
0.0030268
0.00617527
0.00855009
0.0102306
0.0114138
0.0122506
0.0128424
0.0132559
0.0135354
0.0137109
0.0138022
0.013821
0.0137683
0.01363
0.0133716
0.0129387
0.0122722
0.0113435
0.010197
0.00896418
0.00781541
0.00687491
0.00033039
0.0030053
0.00612011
0.00846711
0.0101336
0.0113119
0.0121477
0.0127402
0.0131551
0.0134369
0.0136162
0.0137141
0.0137441
0.013711
0.0136064
0.0134035
0.013054
0.0124967
0.0116859
0.0106348
0.00944677
0.00828948
0.00730884
0.000322725
0.0029596
0.00601957
0.00833108
0.00998353
0.0111599
0.0119989
0.0125959
0.0130156
0.0133026
0.0134881
0.0135942
0.0136368
0.0136244
0.0135554
0.0134122
0.0131561
0.012729
0.0120715
0.0111627
0.0100629
0.00891829
0.00789201
0.000313999
0.00289107
0.00587598
0.00814458
0.00978236
0.0109591
0.0118044
0.0124092
0.0128368
0.0131316
0.0133251
0.0134409
0.0134963
0.0135036
0.0134674
0.0133799
0.0132142
0.0129213
0.012438
0.011715
0.0107624
0.0096802
0.00862723
0.000304626
0.00280234
0.00569377
0.00791243
0.0095344
0.0107128
0.0115668
0.0121821
0.0126201
0.0129248
0.0131282
0.0132546
0.0133228
0.0133478
0.0133391
0.0132977
0.0132092
0.0130385
0.0127292
0.0122184
0.0114721
0.0105277
0.00950438
0.000295036
0.00269742
0.00547965
0.00764179
0.00924613
0.0104267
0.0112908
0.0119184
0.0123686
0.0126849
0.0128997
0.0130376
0.0131185
0.0131588
0.0131718
0.013165
0.0131352
0.0130624
0.0129051
0.0126037
0.0120998
0.0113722
0.010472
0.000285642
0.00258167
0.00524258
0.00734211
0.00892616
0.0101082
0.0109828
0.0116236
0.0120871
0.0124162
0.0126433
0.0127934
0.0128866
0.0129404
0.0129699
0.0129869
0.0129964
0.0129919
0.0129492
0.0128239
0.0125569
0.012093
0.0114151
0.000276804
0.00246146
0.00499346
0.00702493
0.00858508
0.00976651
0.0106507
0.0113046
0.0117817
0.0121239
0.0123637
0.0125261
0.0126314
0.0126971
0.0127391
0.0127713
0.0128038
0.0128396
0.0128693
0.0128676
0.0127903
0.0125786
0.0121765
0.000268804
0.00234353
0.00474438
0.00670342
0.00823521
0.00941254
0.010304
0.0109694
0.0114592
0.0118141
0.0120662
0.0122405
0.0123573
0.0124338
0.0124856
0.0125271
0.0125709
0.0126252
0.0126909
0.012758
0.0128015
0.0127782
0.0126284
0.000261838
0.00223407
0.00450739
0.0063916
0.00789025
0.00905868
0.00995346
0.0106275
0.0111278
0.0114937
0.0117569
0.0119422
0.0120695
0.0121556
0.0122154
0.0122629
0.0123109
0.0123698
0.0124459
0.0125387
0.012638
0.0127194
0.0127398
0.000256038
0.00213782
0.00429306
0.00610309
0.00756448
0.00871843
0.00961114
0.0102893
0.0107964
0.0111705
0.0114425
0.0116371
0.0117736
0.0118682
0.0119349
0.0119866
0.0120355
0.0120922
0.0121646
0.0122568
0.0123665
0.0124826
0.0125802
0.000251516
0.0020577
0.00410947
0.00584996
0.00727179
0.00840569
0.00928989
0.00996604
0.010475
0.0108531
0.0111308
0.0113321
0.011476
0.0115778
0.0116505
0.0117059
0.0117548
0.0118071
0.0118707
0.0119506
0.0120477
0.0121571
0.0122652
0.000248426
0.00199486
0.00396182
0.00564184
0.00702461
0.00813376
0.00900252
0.00966949
0.0101737
0.0105506
0.0108297
0.0110345
0.0111835
0.011291
0.011369
0.0114279
0.0114774
0.011526
0.0115807
0.0116462
0.011724
0.0118109
0.0118981
0.000247028
0.00194928
0.00385308
0.00548599
0.00683327
0.00791428
0.00876061
0.00941039
0.00990239
0.0102716
0.0105471
0.0107516
0.0109029
0.0110143
0.0110968
0.0111595
0.0112105
0.0112572
0.0113055
0.0113592
0.0114194
0.0114831
0.0115429
0.000247742
0.00192058
0.0037855
0.00538836
0.00670622
0.00775664
0.00857343
0.00919736
0.00966882
0.0100233
0.0102894
0.0104894
0.0106398
0.0107532
0.0108392
0.0109057
0.0109595
0.0110065
0.0110514
0.0110974
0.0111449
0.0111909
0.0112279
0.000251155
0.00190904
0.00376264
0.00535544
0.00665096
0.00766797
0.00844719
0.00903575
0.00947771
0.00980979
0.0100606
0.0102514
0.0103977
0.0105107
0.010599
0.0106692
0.0107268
0.0107763
0.0108212
0.0108638
0.0109039
0.0109383
0.01096
0.000258015
0.00191683
0.00379165
0.00539653
0.00667541
0.00765345
0.00838481
0.00892711
0.00932994
0.00963185
0.00986116
0.010038
0.0101766
0.0102868
0.0103759
0.0104494
0.0105114
0.0105653
0.0106135
0.0106569
0.0106946
0.0107233
0.0107363
0.000269233
0.00194945
0.00388588
0.00552576
0.00678866
0.0077164
0.00838567
0.00886897
0.00922257
0.00948659
0.0096885
0.00984682
0.009974
0.0100785
0.0101663
0.0102418
0.0103082
0.0103678
0.010422
0.0104706
0.0105115
0.0105403
0.0105503
0.000285912
0.00201766
0.00406826
0.00576377
0.00700049
0.00785703
0.00844494
0.00885494
0.00914938
0.00936848
0.0095377
0.00967318
0.00978526
0.00988077
0.0099644
0.0100396
0.0101088
0.010174
0.0102358
0.0102932
0.0103429
0.0103788
0.0103925
0.00030914
0.0021422
0.0043784
0.00613914
0.00731852
0.00806964
0.0085523
0.0088748
0.0091018
0.00927067
0.00940312
0.00951204
0.00960535
0.00968808
0.00976369
0.00983477
0.00990342
0.00997127
0.0100391
0.0101061
0.0101687
0.0102193
0.0102467
0.000339716
0.00236896
0.00489048
0.00668882
0.00774154
0.00833795
0.00869056
0.00891508
0.00907039
0.00918673
0.00928019
0.00935979
0.00943078
0.00949648
0.00955918
0.00962069
0.00968274
0.00974691
0.00981451
0.00988583
0.00995892
0.0100276
0.0100799
0.000378637
0.00282779
0.00576054
0.00745025
0.00824539
0.00862947
0.00883538
0.00896054
0.00904649
0.00911215
0.00916684
0.0092155
0.00926094
0.00930493
0.00934874
0.0093935
0.00944041
0.00949086
0.00954642
0.0096086
0.0096782
0.00975386
0.00983011
0.000429411
0.00411559
0.00734206
0.0084133
0.00875845
0.0088931
0.00895832
0.00899679
0.00902357
0.00904483
0.00906342
0.00908083
0.00909791
0.0091152
0.00913315
0.00915217
0.00917279
0.0091957
0.00922185
0.00925262
0.00929008
0.00933738
0.00939985
0.000745423
0.000692292
0.000621952
0.000551796
0.00248065
0.00198152
0.00176931
0.0016736
0.00475459
0.00390985
0.00333607
0.00294896
0.00700165
0.00610323
0.00533174
0.00468053
0.00902186
0.00819797
0.00739061
0.00660737
0.0106595
0.00996131
0.0092189
0.00843207
0.0118415
0.0112626
0.0106261
0.00992352
0.0126595
0.0121703
0.0116278
0.0110224
0.0130469
0.0126644
0.0122215
0.0117093
0.0129166
0.012614
0.0122531
0.0118185
0.0121369
0.0119015
0.0116197
0.0112803
0.0108215
0.0105885
0.0103634
0.0101317
0.00936269
0.00909501
0.0088669
0.00868952
0.00802879
0.00773224
0.00750473
0.00736774
0.0069911
0.00669423
0.00649436
0.00640884
0.00632847
0.00606521
0.00592522
0.00591532
0.00601007
0.00579093
0.00570978
0.0057682
0.00593537
0.00573776
0.00567332
0.00574782
0.00602483
0.00581262
0.00571527
0.00574995
0.0062498
0.00599566
0.00583599
0.00579009
0.00660984
0.00630632
0.00607507
0.00592919
0.00711433
0.00676138
0.00646492
0.00622787
0.00777154
0.00736666
0.00701034
0.00669924
0.00859316
0.0081365
0.00772202
0.00735002
0.00956947
0.00907845
0.00861244
0.00818197
0.010627
0.0101529
0.00967362
0.00920806
0.011605
0.0112201
0.0108001
0.0103646
0.0123124
0.012068
0.0117749
0.011447
0.0126362
0.0125313
0.0123845
0.0122028
0.0126009
0.0125907
0.0125558
0.0124996
0.0123288
0.012359
0.01238
0.0123945
0.0119567
0.0119902
0.0120226
0.0120573
0.0115799
0.0116012
0.0116235
0.011651
0.011244
0.0112513
0.0112591
0.0112714
0.0109613
0.0109581
0.0109542
0.0109531
0.0107288
0.0107191
0.0107075
0.0106971
0.0105385
0.0105254
0.0105093
0.010493
0.010381
0.0103671
0.0103488
0.0103288
0.0102428
0.0102321
0.0102149
0.0101935
0.0100969
0.0100985
0.010091
0.0100746
0.00988208
0.00991173
0.00993556
0.00994833
0.00946638
0.00952109
0.0096026
0.00975575
0.001047
0.00213219
0.0028311
0.00320841
0.00347637
0.00378887
0.00422797
0.004767
0.00530769
0.00572448
0.00591368
0.00583546
0.00551031
0.00499324
0.00433957
0.00356898
0.00265708
0.00153659
0.000224155
0.00170011
0.00220072
0.00279571
0.00332821
0.00352183
0.003636
0.00395057
0.00450015
0.00518567
0.00582635
0.00627069
0.00641446
0.00621846
0.00571524
0.00497745
0.00406057
0.00297657
0.00167899
0.000231145
0.00255615
0.00258824
0.00294325
0.0034761
0.00382398
0.00380383
0.00379114
0.00410768
0.0047545
0.00554059
0.00624254
0.00666494
0.0066836
0.0062775
0.00551442
0.00448683
0.00325324
0.0017996
0.000236937
0.00375995
0.00329166
0.00325586
0.0035486
0.0039986
0.00424262
0.00403785
0.00390586
0.0042443
0.00499274
0.00587753
0.00659269
0.00689536
0.00667241
0.00595455
0.00486023
0.00350054
0.00190656
0.000242037
0.00532157
0.00436028
0.00386191
0.00379374
0.00405642
0.0044342
0.00452922
0.00416257
0.00400531
0.0044318
0.00529921
0.00623722
0.00685209
0.00688665
0.00629351
0.00518612
0.00372708
0.0020052
0.000246846
0.00703767
0.00573328
0.00479812
0.00430859
0.00425542
0.00450851
0.0047817
0.00465096
0.00418851
0.0041305
0.00471707
0.00569709
0.0065735
0.00691501
0.00652355
0.00546382
0.00393704
0.00209867
0.000251594
0.00863012
0.007217
0.00598474
0.00509777
0.00467181
0.00466794
0.00489337
0.00498932
0.00461091
0.0041817
0.00433662
0.00512322
0.00613078
0.00677254
0.00664041
0.0056892
0.00413085
0.00218892
0.000256312
0.00989264
0.00854426
0.00720434
0.00604507
0.00527165
0.00497129
0.00503166
0.00517402
0.00497854
0.00446076
0.00422866
0.00467479
0.00563826
0.00650563
0.00665184
0.00585864
0.00430592
0.00227575
0.000260976
0.0107451
0.00957615
0.00823063
0.0069404
0.00592584
0.00536187
0.00522796
0.00531239
0.00523419
0.00477
0.00433189
0.00444572
0.00522593
0.00619179
0.00658309
0.00597316
0.00445842
0.00235733
0.000265524
0.0109642
0.0100195
0.00889142
0.00760253
0.00648125
0.00574396
0.00544822
0.00544533
0.00540978
0.00502859
0.00451388
0.00438532
0.00494619
0.00590125
0.00646988
0.00603997
0.00458532
0.00243103
0.000269857
0.0106045
0.00990128
0.00906387
0.0079195
0.00683581
0.00603822
0.00564545
0.00556997
0.00554046
0.00523119
0.00470386
0.00441719
0.00478436
0.00566963
0.00634442
0.00607007
0.00468539
0.00249423
0.000273872
0.00969568
0.0092973
0.0088082
0.00792764
0.00697556
0.0062113
0.00579102
0.00567676
0.00564568
0.00539076
0.00487442
0.00448996
0.00470777
0.00550402
0.00622811
0.00607501
0.00475935
0.0025449
0.000277463
0.0084978
0.00844808
0.00828723
0.00770885
0.00693342
0.00626758
0.00587788
0.00576159
0.00573686
0.00552098
0.00501846
0.00457556
0.0046861
0.00539533
0.00613076
0.00606451
0.00480933
0.00258175
0.000280549
0.00734342
0.00757986
0.00765193
0.00733402
0.00676219
0.00623517
0.00591639
0.00582842
0.00582044
0.00563092
0.00513909
0.00466251
0.00469739
0.0053292
0.00605425
0.00604567
0.00483811
0.00260429
0.000283068
0.00650711
0.00692905
0.00708777
0.00692208
0.00654216
0.00616112
0.00593007
0.00588445
0.00589482
0.0057242
0.00524315
0.00474876
0.00472806
0.00529274
0.00599709
0.00602328
0.00484829
0.00261252
0.000284959
0.00617155
0.00667001
0.00675724
0.00660771
0.00635006
0.00609526
0.00595048
0.00593676
0.00594434
0.00579384
0.00533433
0.00483501
0.00477037
0.00527704
0.0059575
0.00600039
0.00484153
0.00260644
0.000286167
0.00615966
0.00671966
0.00671827
0.00646568
0.00623313
0.00606589
0.00600617
0.00599404
0.00597557
0.0058471
0.00542063
0.00492385
0.00482035
0.00527737
0.00593501
0.00597863
0.00481795
0.00258561
0.000286648
0.00616333
0.00686525
0.00694036
0.00651666
0.00621999
0.00606662
0.00606072
0.00606105
0.00602735
0.00592018
0.00552455
0.0050241
0.00487966
0.00529468
0.00593175
0.00595844
0.00477587
0.00254914
0.000286364
0.00610063
0.00693761
0.00728558
0.00675565
0.00633225
0.00612031
0.00608794
0.0061285
0.00612331
0.00604757
0.00567171
0.00514704
0.00495498
0.0053362
0.00595281
0.0059388
0.00471187
0.002496
0.000285289
0.00600813
0.00683694
0.00746666
0.00712182
0.00657706
0.00626994
0.00617718
0.0062116
0.00625792
0.00623216
0.00586328
0.00529306
0.00505292
0.00541353
0.00600469
0.00591612
0.00462135
0.00242576
0.000283427
0.00596664
0.00653929
0.00741966
0.00755179
0.00697815
0.0065428
0.0063665
0.00636502
0.00643968
0.00645434
0.00607472
0.00544874
0.00517742
0.00554024
0.00609193
0.00588275
0.00449991
0.00233955
0.000280828
0.00609593
0.00632134
0.00709218
0.00773663
0.00747095
0.00692948
0.00666236
0.00660167
0.00666985
0.00669751
0.00628179
0.00560096
0.00533716
0.00573198
0.00621204
0.005826
0.00434563
0.00224079
0.000277601
0.00643647
0.00628798
0.00669082
0.0074347
0.00775378
0.00742692
0.00706252
0.0069115
0.00693139
0.00693617
0.00647189
0.00574954
0.00555639
0.00600408
0.00634846
0.00572961
0.00416188
0.00213526
0.000273905
0.0070032
0.00657025
0.00653234
0.00694976
0.00751125
0.0077525
0.00750302
0.00726366
0.00720247
0.00713929
0.00659663
0.00591046
0.00587579
0.00635519
0.0064639
0.0055804
0.00395929
0.00203015
0.000269925
0.0077654
0.00714381
0.00676835
0.00673546
0.0070512
0.00744258
0.0075893
0.00748922
0.00738748
0.00721571
0.00662046
0.0061309
0.00632375
0.00673695
0.00650711
0.00537965
0.0037547
0.00193209
0.000265836
0.00873031
0.00796343
0.0073605
0.00698555
0.00690381
0.00708113
0.00731543
0.00740794
0.00732479
0.00701116
0.00653244
0.00641548
0.00681786
0.00703353
0.00644048
0.00514977
0.00356544
0.00184113
0.000262071
0.0098797
0.0090257
0.00823458
0.00758092
0.00714263
0.0069789
0.00702083
0.00706864
0.00694636
0.00664079
0.00648984
0.00680169
0.00726546
0.00716722
0.00627672
0.00492223
0.0034025
0.00176053
0.000259077
0.0110511
0.0102522
0.00936578
0.00847467
0.0076819
0.00715088
0.00687365
0.00671612
0.00654694
0.00645988
0.00674011
0.00731491
0.00760321
0.00714477
0.00606725
0.00472128
0.00326976
0.00169456
0.000256667
0.0119704
0.0113914
0.0105953
0.00962409
0.00859754
0.00775248
0.0071607
0.0067949
0.00663447
0.00681226
0.00735643
0.00785308
0.00776978
0.0070103
0.0058582
0.00455783
0.00316653
0.00164384
0.000254689
0.0124316
0.0121434
0.0116024
0.010779
0.00978954
0.00883648
0.00806795
0.00757505
0.00742955
0.00769128
0.00812282
0.0082326
0.00775735
0.0068261
0.00567811
0.00443271
0.00308944
0.00160686
0.000253026
0.0124297
0.0123725
0.0121126
0.0115843
0.0108536
0.0100457
0.00931236
0.00879586
0.00859146
0.00865738
0.00868506
0.00835563
0.00762669
0.00664489
0.00553753
0.00434139
0.00303422
0.00158138
0.000251601
0.0121251
0.012181
0.0121069
0.0118469
0.0114101
0.0108557
0.010284
0.00980519
0.00947987
0.00923848
0.00888192
0.00828031
0.00745831
0.00649524
0.00543535
0.00427775
0.00299672
0.00156531
0.000250365
0.0117074
0.0117824
0.011785
0.0116719
0.0114288
0.0110735
0.0106523
0.0102208
0.00980503
0.00936422
0.00881691
0.00812518
0.0073062
0.00638472
0.00536553
0.00423598
0.00297347
0.00155687
0.000249291
0.011302
0.011352
0.0113624
0.0112979
0.0111411
0.0108914
0.0105629
0.0101762
0.0097409
0.00924297
0.00865742
0.00797289
0.00719066
0.0063097
0.00532121
0.00421135
0.00296164
0.0015546
0.000248362
0.0109597
0.0109771
0.0109681
0.0109063
0.0107769
0.0105737
0.0102976
0.00995328
0.00954316
0.00906263
0.00850267
0.00785509
0.00711195
0.00626303
0.00529648
0.00420017
0.00295899
0.00155731
0.000247569
0.0106861
0.0106764
0.0106456
0.0105744
0.0104517
0.0102706
0.0100276
0.00972098
0.00934863
0.00890581
0.00838453
0.00777439
0.00706312
0.0062378
0.0052867
0.00419962
0.00296374
0.00156403
0.000246908
0.0104698
0.0104402
0.0103925
0.010313
0.0101931
0.0100266
0.00980828
0.00953334
0.00919635
0.00878975
0.00830313
0.00772349
0.00703647
0.00622844
0.00528834
0.00420741
0.00297437
0.00157392
0.000246374
0.0102967
0.0102513
0.0101914
0.0101071
0.00999127
0.00983768
0.00964007
0.00939167
0.00908442
0.008708
0.00824951
0.00769387
0.00702554
0.0062306
0.00529855
0.00422163
0.0029895
0.00158619
0.00024596
0.0101543
0.0100936
0.0100234
0.00993695
0.00982701
0.0096864
0.00950763
0.00928231
0.00900031
0.00864918
0.00821397
0.00767808
0.00702504
0.0062407
0.00531488
0.00424047
0.00300781
0.00160002
0.000245657
0.0100327
0.00995428
0.00987333
0.00978611
0.00968338
0.00955601
0.00939507
0.00919071
0.00893122
0.00860244
0.00818782
0.00766949
0.00703015
0.00625529
0.0053348
0.00426203
0.00302783
0.00161447
0.000245447
0.00992435
0.00982857
0.00973675
0.00964939
0.00955383
0.00943865
0.00929363
0.00910783
0.00886832
0.00855959
0.00816377
0.00766185
0.00703566
0.00627016
0.00535507
0.00428386
0.00304768
0.00162804
0.000245311
0.00982371
0.00973096
0.00963522
0.00954862
0.00945756
0.00934986
0.00921495
0.00904146
0.00881578
0.00852153
0.00813988
0.00765094
0.00703577
0.00627878
0.00536933
0.0043007
0.00306391
0.0016393
0.000245159
)
;

boundaryField
{
    leftWall
    {
        type            nutkWallFunction;
        Cmu             0.09;
        kappa           0.41;
        E               9.8;
        value           nonuniform List<scalar> 
50
(
1.36596e-05
1.6742e-05
1.8211e-05
1.952e-05
2.05056e-05
2.12369e-05
2.17673e-05
2.21398e-05
2.24689e-05
2.27656e-05
2.30356e-05
2.33964e-05
2.40024e-05
2.52856e-05
2.81105e-05
3.31396e-05
3.77652e-05
4.06298e-05
3.97209e-05
3.81865e-05
3.80206e-05
3.83852e-05
3.88784e-05
3.9306e-05
3.95934e-05
3.95953e-05
3.93042e-05
3.87379e-05
3.79269e-05
3.6912e-05
3.57428e-05
3.44753e-05
3.31682e-05
3.18789e-05
3.0658e-05
2.95455e-05
2.85695e-05
2.77483e-05
2.7097e-05
2.66354e-05
2.63977e-05
2.64404e-05
2.68444e-05
2.77132e-05
2.91719e-05
3.13707e-05
3.44662e-05
3.85853e-05
4.38737e-05
5.07812e-05
)
;
    }
    rightWall
    {
        type            nutkWallFunction;
        Cmu             0.09;
        kappa           0.41;
        E               9.8;
        value           nonuniform List<scalar> 
50
(
1.20496e-05
1.4087e-05
1.65164e-05
1.83409e-05
1.97266e-05
2.0822e-05
2.17165e-05
2.24596e-05
2.34022e-05
2.4347e-05
2.51126e-05
2.57739e-05
2.63882e-05
2.69891e-05
2.758e-05
2.81588e-05
2.872e-05
2.92521e-05
2.97448e-05
3.01853e-05
3.05644e-05
3.08735e-05
3.11028e-05
3.12434e-05
3.12888e-05
3.12343e-05
3.10785e-05
3.08246e-05
3.04823e-05
3.00677e-05
2.96022e-05
2.91082e-05
2.86066e-05
2.8151e-05
2.77946e-05
2.75101e-05
2.72767e-05
2.70802e-05
2.69115e-05
2.67654e-05
2.66385e-05
2.65292e-05
2.64365e-05
2.63597e-05
2.62983e-05
2.62514e-05
2.62178e-05
2.61946e-05
2.61797e-05
2.61608e-05
)
;
    }
    lowerWall
    {
        type            nutkWallFunction;
        Cmu             0.09;
        kappa           0.41;
        E               9.8;
        value           nonuniform List<scalar> 
62
(
6.65122e-06
8.77135e-06
1.08772e-05
1.24062e-05
1.35961e-05
1.46242e-05
1.55624e-05
1.64389e-05
1.72599e-05
1.80204e-05
1.87088e-05
1.93097e-05
1.98039e-05
2.01688e-05
2.03774e-05
2.03889e-05
2.0197e-05
1.98548e-05
1.93071e-05
1.8546e-05
1.75864e-05
1.57468e-05
1.37822e-05
1.37822e-05
3.82242e-05
4.58059e-05
5.14289e-05
5.56324e-05
5.94839e-05
6.33525e-05
6.78127e-05
7.56498e-05
7.0638e-05
6.38945e-05
5.76264e-05
0
2.30421e-05
2.96709e-05
3.49308e-05
3.97059e-05
4.44301e-05
4.9524e-05
5.66313e-05
0
2.83742e-06
4.66981e-06
5.62863e-06
6.16917e-06
6.3623e-06
6.18286e-06
5.76962e-06
5.21328e-06
4.58965e-06
3.96888e-06
3.40387e-06
2.91336e-06
2.44229e-06
1.93662e-06
1.31219e-06
4.05288e-07
3.73754e-08
0
)
;
    }
    atmosphere
    {
        type            calculated;
        value           nonuniform List<scalar> 
46
(
0.009
0.009
0.009
0.009
0.009
0.009
0.009
0.009
0.009
0.009
0.009
0.009
0.009
0.009
0.009
0.009
0.009
0.009
0.009
0.009
0.009
0.009
0.009
0.009
0.009
0.009
0.00975575
0.00982371
0.00973096
0.00963522
0.00954862
0.00945756
0.00934986
0.00921495
0.00904146
0.00881578
0.00852153
0.00813988
0.00765094
0.00703577
0.00627878
0.00536933
0.0043007
0.00306391
0.0016393
0.000245159
)
;
    }
    defaultFaces
    {
        type            empty;
    }
}


// ************************************************************************* //
