/*--------------------------------*- C++ -*----------------------------------*\
  =========                 |
  \\      /  F ield         | OpenFOAM: The Open Source CFD Toolbox
   \\    /   O peration     | Website:  https://openfoam.org
    \\  /    A nd           | Version:  9
     \\/     M anipulation  |
\*---------------------------------------------------------------------------*/
FoamFile
{
    format      ascii;
    class       surfaceScalarField;
    location    "95";
    object      phi;
}
// * * * * * * * * * * * * * * * * * * * * * * * * * * * * * * * * * * * * * //

dimensions      [0 3 -1 0 0 0 0];

internalField   nonuniform List<scalar> 
24170
(
3.12888e-06
5.95274e-08
3.0466e-06
8.22817e-08
2.97345e-06
7.31434e-08
2.90473e-06
6.87159e-08
2.8403e-06
6.44302e-08
2.78283e-06
5.74661e-08
2.73333e-06
4.94934e-08
2.69116e-06
4.21711e-08
2.6552e-06
3.59541e-08
2.62438e-06
3.08129e-08
2.59769e-06
2.66864e-08
2.57423e-06
2.34609e-08
2.55323e-06
2.09988e-08
2.53393e-06
1.93e-08
2.5156e-06
1.83267e-08
2.49609e-06
1.95113e-08
2.47515e-06
2.09425e-08
4.17287e-08
2.43342e-06
3.45314e-06
2.36395e-08
3.45701e-06
7.84131e-08
3.45051e-06
7.9637e-08
3.43902e-06
8.02054e-08
3.42419e-06
7.92601e-08
3.40688e-06
7.47781e-08
3.38756e-06
6.8811e-08
3.3669e-06
6.28238e-08
3.34559e-06
5.72677e-08
3.32419e-06
5.22086e-08
3.30317e-06
4.76984e-08
3.2828e-06
4.38344e-08
3.26323e-06
4.05648e-08
3.24443e-06
3.80947e-08
3.22652e-06
3.62423e-08
3.20923e-06
3.68001e-08
3.19314e-06
3.70291e-08
5.04939e-08
3.18438e-06
3.66825e-06
1.79023e-08
3.67916e-06
6.75039e-08
3.68537e-06
7.34317e-08
3.68936e-06
7.62052e-08
3.6909e-06
7.77187e-08
3.68986e-06
7.58179e-08
3.68662e-06
7.20457e-08
3.68165e-06
6.77925e-08
3.67533e-06
6.35859e-08
3.66797e-06
5.95644e-08
3.65984e-06
5.58297e-08
3.65115e-06
5.25187e-08
3.64206e-06
4.96515e-08
3.63268e-06
4.74761e-08
3.62298e-06
4.59356e-08
3.61348e-06
4.63021e-08
3.60322e-06
4.72853e-08
5.4322e-08
3.59939e-06
3.92586e-06
1.74268e-08
3.93589e-06
5.74797e-08
3.9425e-06
6.68171e-08
3.94799e-06
7.07134e-08
3.95234e-06
7.33704e-08
3.9552e-06
7.29559e-08
3.95676e-06
7.04846e-08
3.95725e-06
6.72969e-08
3.95687e-06
6.39734e-08
3.95573e-06
6.06994e-08
3.95397e-06
5.75907e-08
3.95168e-06
5.48029e-08
3.94894e-06
5.23928e-08
3.94583e-06
5.05873e-08
3.94234e-06
4.94194e-08
3.93899e-06
4.96508e-08
3.93556e-06
5.07211e-08
5.43361e-08
3.93554e-06
4.20818e-06
1.63703e-08
4.21595e-06
4.97106e-08
4.22161e-06
6.11551e-08
4.22666e-06
6.56632e-08
4.23133e-06
6.86931e-08
4.23521e-06
6.90763e-08
4.23826e-06
6.74318e-08
4.24059e-06
6.49645e-08
4.2423e-06
6.22616e-08
4.24347e-06
5.95288e-08
4.24417e-06
5.68907e-08
4.24447e-06
5.45015e-08
4.24441e-06
5.24451e-08
4.24409e-06
5.09034e-08
4.24357e-06
4.99439e-08
4.24325e-06
4.99713e-08
4.24328e-06
5.06896e-08
5.24035e-08
4.24521e-06
4.51068e-06
1.47799e-08
4.51685e-06
4.35402e-08
4.52206e-06
5.59466e-08
4.52681e-06
6.09062e-08
4.53145e-06
6.40574e-08
4.5356e-06
6.49256e-08
4.53915e-06
6.38796e-08
4.54216e-06
6.1953e-08
4.5447e-06
5.9722e-08
4.54682e-06
5.74049e-08
4.54857e-06
5.51361e-08
4.55001e-06
5.30594e-08
4.55118e-06
5.1271e-08
4.55218e-06
4.99062e-08
4.5531e-06
4.90277e-08
4.55425e-06
4.8816e-08
4.55588e-06
4.90604e-08
4.95754e-08
4.55871e-06
4.8343e-06
1.32036e-08
4.83959e-06
3.82427e-08
4.84467e-06
5.08621e-08
4.84932e-06
5.62623e-08
4.85387e-06
5.95027e-08
4.85808e-06
6.07077e-08
4.86183e-06
6.01302e-08
4.86514e-06
5.86377e-08
4.86808e-06
5.67866e-08
4.87067e-06
5.48064e-08
4.87297e-06
5.28371e-08
4.87502e-06
5.10107e-08
4.87686e-06
4.94231e-08
4.8786e-06
4.81691e-08
4.88033e-06
4.72896e-08
4.88231e-06
4.68342e-08
4.88475e-06
4.66218e-08
4.63453e-08
4.88798e-06
5.18102e-06
1.17647e-08
5.18572e-06
3.35465e-08
5.19068e-06
4.59019e-08
5.19526e-06
5.16722e-08
5.19977e-06
5.49979e-08
5.20402e-06
5.64499e-08
5.2079e-06
5.62577e-08
5.2114e-06
5.5135e-08
5.21457e-06
5.36075e-08
5.21747e-06
5.19135e-08
5.22011e-06
5.01954e-08
5.22254e-06
4.85732e-08
5.22483e-06
4.71348e-08
5.22705e-06
4.59441e-08
5.22932e-06
4.50178e-08
5.23182e-06
4.43364e-08
5.2347e-06
4.37402e-08
4.29433e-08
5.2381e-06
5.55267e-06
1.04303e-08
5.55685e-06
2.93657e-08
5.56162e-06
4.11342e-08
5.56616e-06
4.71222e-08
5.57065e-06
5.05119e-08
5.57495e-06
5.2143e-08
5.57893e-06
5.22716e-08
5.58259e-06
5.14745e-08
5.58596e-06
5.02331e-08
5.58908e-06
4.87911e-08
5.59199e-06
4.72896e-08
5.59472e-06
4.58379e-08
5.59734e-06
4.45124e-08
5.59993e-06
4.33552e-08
5.60258e-06
4.23645e-08
5.60542e-06
4.14919e-08
5.60856e-06
4.06026e-08
3.94724e-08
5.61203e-06
5.95102e-06
9.18351e-09
5.95475e-06
2.56403e-08
5.95928e-06
3.6601e-08
5.96378e-06
4.26249e-08
5.96825e-06
4.60413e-08
5.97259e-06
4.7793e-08
5.97668e-06
4.81807e-08
5.98049e-06
4.76677e-08
5.98404e-06
4.66812e-08
5.98737e-06
4.54634e-08
5.9905e-06
4.41521e-08
5.99349e-06
4.2846e-08
5.99639e-06
4.16097e-08
5.99928e-06
4.04719e-08
6.00222e-06
3.94205e-08
6.00531e-06
3.84012e-08
6.0086e-06
3.73078e-08
3.59831e-08
6.01209e-06
6.37797e-06
8.02578e-09
6.38131e-06
2.22983e-08
6.3856e-06
3.23086e-08
6.39003e-06
3.81925e-08
6.39448e-06
4.15872e-08
6.39887e-06
4.34069e-08
6.40305e-06
4.39916e-08
6.407e-06
4.3719e-08
6.41072e-06
4.29572e-08
6.41424e-06
4.19383e-08
6.4176e-06
4.07955e-08
6.42083e-06
3.96166e-08
6.42398e-06
3.84571e-08
6.42711e-06
3.73369e-08
6.43029e-06
3.62426e-08
6.43356e-06
3.51257e-08
6.43696e-06
3.39103e-08
3.24911e-08
6.44045e-06
5.74175e-06
7.11002e-09
5.74431e-06
1.97335e-08
5.74775e-06
2.88682e-08
5.75144e-06
3.45066e-08
5.75518e-06
3.78389e-08
5.75891e-06
3.96798e-08
5.76252e-06
4.03832e-08
5.76596e-06
4.02769e-08
5.76923e-06
3.96811e-08
5.77235e-06
3.88118e-08
5.77535e-06
3.77963e-08
5.77825e-06
3.6715e-08
5.78109e-06
3.56157e-08
5.78391e-06
3.45169e-08
5.78674e-06
3.34051e-08
5.78962e-06
3.22441e-08
5.79255e-06
3.09773e-08
2.95394e-08
5.7955e-06
6.99913e-06
6.13873e-09
7.00184e-06
1.7016e-08
7.00558e-06
2.51314e-08
7.0097e-06
3.03808e-08
7.01397e-06
3.35712e-08
7.01826e-06
3.53875e-08
7.02246e-06
3.61772e-08
7.02652e-06
3.62207e-08
7.03041e-06
3.57857e-08
7.03415e-06
3.5067e-08
7.03777e-06
3.41823e-08
7.04127e-06
3.32042e-08
7.04471e-06
3.21751e-08
7.04811e-06
3.1111e-08
7.05151e-06
3.00059e-08
7.05492e-06
2.88341e-08
7.05833e-06
2.75639e-08
2.61526e-08
7.06171e-06
8.53187e-06
5.11767e-09
8.53471e-06
1.41721e-08
8.53872e-06
2.11232e-08
8.54328e-06
2.58169e-08
8.54809e-06
2.87597e-08
8.55299e-06
3.04838e-08
8.55785e-06
3.13095e-08
8.5626e-06
3.14695e-08
8.5672e-06
3.11801e-08
8.57166e-06
3.06053e-08
8.57599e-06
2.98535e-08
8.58021e-06
2.89859e-08
8.58434e-06
2.80423e-08
8.58841e-06
2.70375e-08
8.59244e-06
2.59739e-08
8.59643e-06
2.48387e-08
8.60037e-06
2.36183e-08
2.22907e-08
8.60423e-06
1.04003e-05
4.05538e-09
1.04032e-05
1.12186e-08
1.04075e-05
1.68608e-08
1.04125e-05
2.08186e-08
1.04179e-05
2.33791e-08
1.04234e-05
2.49228e-08
1.0429e-05
2.57127e-08
1.04345e-05
2.59402e-08
1.044e-05
2.57665e-08
1.04452e-05
2.53257e-08
1.04504e-05
2.4704e-08
1.04554e-05
2.39602e-08
1.04603e-05
2.31231e-08
1.04651e-05
2.22142e-08
1.04699e-05
2.12372e-08
1.04745e-05
2.01955e-08
1.0479e-05
1.9085e-08
1.78984e-08
1.04834e-05
1.26779e-05
2.95375e-09
1.2681e-05
8.14811e-09
1.26855e-05
1.23377e-08
1.26909e-05
1.5371e-08
1.26969e-05
1.73927e-08
1.27032e-05
1.86414e-08
1.27096e-05
1.93101e-08
1.2716e-05
1.95388e-08
1.27223e-05
1.94435e-08
1.27285e-05
1.91166e-08
1.27346e-05
1.86284e-08
1.27405e-05
1.80211e-08
1.27463e-05
1.73244e-08
1.2752e-05
1.65528e-08
1.27575e-05
1.57199e-08
1.27628e-05
1.48305e-08
1.2768e-05
1.38943e-08
1.29037e-08
1.2773e-05
1.54543e-05
1.80029e-09
1.54576e-05
4.91023e-09
1.54624e-05
7.48967e-09
1.54684e-05
9.40624e-09
1.54751e-05
1.07141e-08
1.54822e-05
1.15375e-08
1.54895e-05
1.19865e-08
1.54969e-05
1.21459e-08
1.55042e-05
1.20836e-08
1.55115e-05
1.18552e-08
1.55186e-05
1.15031e-08
1.55256e-05
1.10573e-08
1.55323e-05
1.05375e-08
1.55389e-05
9.95718e-09
1.55453e-05
9.32682e-09
1.55515e-05
8.65577e-09
1.55574e-05
7.95413e-09
7.21793e-09
1.55631e-05
1.88389e-05
5.51494e-10
1.88424e-05
1.37881e-09
1.88478e-05
2.13813e-09
1.88544e-05
2.72472e-09
1.8862e-05
3.13578e-09
1.88702e-05
3.398e-09
1.88786e-05
3.53285e-09
1.88872e-05
3.56037e-09
1.88958e-05
3.49859e-09
1.89043e-05
3.36306e-09
1.89126e-05
3.16547e-09
1.89207e-05
2.91632e-09
1.89286e-05
2.62318e-09
1.89363e-05
2.29266e-09
1.89437e-05
1.93036e-09
1.89508e-05
1.54272e-09
1.89576e-05
1.13787e-09
7.103e-10
1.89641e-05
2.29648e-05
-8.98969e-10
2.29689e-05
-2.73613e-09
2.29752e-05
-4.13904e-09
2.29831e-05
-5.15543e-09
2.2992e-05
-5.82567e-09
2.30017e-05
-6.24068e-09
2.30117e-05
-6.48379e-09
2.30218e-05
-6.6147e-09
2.3032e-05
-6.66623e-09
2.3042e-05
-6.67575e-09
2.30519e-05
-6.66438e-09
2.30614e-05
-6.65317e-09
2.30707e-05
-6.64618e-09
2.30796e-05
-6.652e-09
2.30882e-05
-6.66837e-09
2.30965e-05
-6.69975e-09
2.31043e-05
-6.73925e-09
-6.79878e-09
2.31119e-05
1.68118e-05
-2.04153e-09
1.6815e-05
-5.93908e-09
1.68199e-05
-9.0281e-09
1.6826e-05
-1.12391e-08
1.68328e-05
-1.26543e-08
1.68401e-05
-1.3498e-08
1.68476e-05
-1.39645e-08
1.68551e-05
-1.4151e-08
1.68626e-05
-1.41455e-08
1.68699e-05
-1.40105e-08
1.68771e-05
-1.38087e-08
1.6884e-05
-1.35668e-08
1.68906e-05
-1.33135e-08
1.68971e-05
-1.30536e-08
1.69032e-05
-1.28029e-08
1.6909e-05
-1.25587e-08
1.69146e-05
-1.23286e-08
-1.21141e-08
1.69199e-05
1.46357e-05
-3.13844e-09
1.46388e-05
-9.05462e-09
1.46435e-05
-1.37949e-08
1.46494e-05
-1.70626e-08
1.46558e-05
-1.90449e-08
1.46625e-05
-2.01946e-08
1.46693e-05
-2.07782e-08
1.46761e-05
-2.09389e-08
1.46827e-05
-2.0802e-08
1.46892e-05
-2.04884e-08
1.46955e-05
-2.00698e-08
1.47015e-05
-1.95961e-08
1.47073e-05
-1.90935e-08
1.47128e-05
-1.85846e-08
1.47181e-05
-1.80795e-08
1.47231e-05
-1.75887e-08
1.47279e-05
-1.71117e-08
-1.66603e-08
1.47324e-05
1.27412e-05
-4.16541e-09
1.27443e-05
-1.22067e-08
1.27492e-05
-1.86732e-08
1.27549e-05
-2.27793e-08
1.2761e-05
-2.51187e-08
1.27672e-05
-2.64658e-08
1.27736e-05
-2.70846e-08
1.27797e-05
-2.71244e-08
1.27857e-05
-2.67933e-08
1.27915e-05
-2.62557e-08
1.2797e-05
-2.56015e-08
1.28023e-05
-2.48849e-08
1.28074e-05
-2.41381e-08
1.28122e-05
-2.339e-08
1.28167e-05
-2.26502e-08
1.28211e-05
-2.19337e-08
1.28252e-05
-2.12369e-08
-2.05722e-08
1.28291e-05
1.10918e-05
-5.0234e-09
1.1095e-05
-1.54502e-08
1.11002e-05
-2.38426e-08
1.11059e-05
-2.84682e-08
1.11117e-05
-3.09357e-08
1.11176e-05
-3.23777e-08
1.11235e-05
-3.29269e-08
1.11291e-05
-3.27654e-08
1.11345e-05
-3.21944e-08
1.11396e-05
-3.14108e-08
1.11446e-05
-3.0509e-08
1.11492e-05
-2.95433e-08
1.11536e-05
-2.85594e-08
1.11578e-05
-2.75795e-08
1.11618e-05
-2.66258e-08
1.11656e-05
-2.56993e-08
1.11691e-05
-2.48083e-08
-2.39526e-08
1.11725e-05
9.65583e-06
-5.63727e-09
9.65927e-06
-1.88986e-08
9.66466e-06
-2.9227e-08
9.67021e-06
-3.40224e-08
9.67584e-06
-3.65659e-08
9.68148e-06
-3.80223e-08
9.68691e-06
-3.83576e-08
9.69205e-06
-3.79026e-08
9.69691e-06
-3.70586e-08
9.70152e-06
-3.60195e-08
9.70587e-06
-3.48657e-08
9.70998e-06
-3.36556e-08
9.71386e-06
-3.24357e-08
9.71752e-06
-3.12369e-08
9.72097e-06
-3.00724e-08
9.72422e-06
-2.89514e-08
9.72728e-06
-2.78736e-08
-2.68386e-08
9.73016e-06
8.40531e-06
-5.59618e-09
8.40966e-06
-2.32546e-08
8.41493e-06
-3.44984e-08
8.42001e-06
-3.90984e-08
8.42543e-06
-4.19934e-08
8.43091e-06
-4.3504e-08
8.43608e-06
-4.35278e-08
8.44088e-06
-4.27025e-08
8.44535e-06
-4.15292e-08
8.44951e-06
-4.01849e-08
8.45338e-06
-3.87391e-08
8.45698e-06
-3.72541e-08
8.46033e-06
-3.57784e-08
8.46343e-06
-3.43405e-08
8.46631e-06
-3.29552e-08
8.46898e-06
-3.16293e-08
8.47148e-06
-3.03627e-08
-2.91574e-08
8.47379e-06
7.31451e-06
-2.82397e-09
7.32122e-06
-2.99609e-08
7.3268e-06
-4.00824e-08
7.33179e-06
-4.40894e-08
7.33723e-06
-4.74419e-08
7.34262e-06
-4.88875e-08
7.34756e-06
-4.84774e-08
7.35205e-06
-4.71952e-08
7.35612e-06
-4.55938e-08
7.35976e-06
-4.38316e-08
7.36301e-06
-4.19918e-08
7.3659e-06
-4.0142e-08
7.36846e-06
-3.83402e-08
7.37073e-06
-3.66075e-08
7.37273e-06
-3.4959e-08
7.3745e-06
-3.33985e-08
7.37606e-06
-3.19249e-08
-3.05322e-08
7.37744e-06
6.36244e-06
4.79883e-09
6.37192e-06
-3.94382e-08
6.37937e-06
-4.75335e-08
6.38604e-06
-5.0761e-08
6.39236e-06
-5.37681e-08
6.39773e-06
-5.42529e-08
6.40208e-06
-5.28316e-08
6.40562e-06
-5.07421e-08
6.40849e-06
-4.84659e-08
6.41075e-06
-4.60939e-08
6.41246e-06
-4.37016e-08
6.41369e-06
-4.13716e-08
6.4145e-06
-3.91502e-08
6.41495e-06
-3.70575e-08
6.41509e-06
-3.51052e-08
6.41498e-06
-3.32911e-08
6.41467e-06
-3.16163e-08
-3.00563e-08
6.4142e-06
5.5413e-06
8.96303e-09
5.55034e-06
-4.848e-08
5.55837e-06
-5.55654e-08
5.5661e-06
-5.84953e-08
5.5726e-06
-6.02644e-08
5.57696e-06
-5.86208e-08
5.57925e-06
-5.51215e-08
5.57986e-06
-5.13554e-08
5.57916e-06
-4.77718e-08
5.57744e-06
-4.43698e-08
5.57491e-06
-4.11743e-08
5.57176e-06
-3.82265e-08
5.56814e-06
-3.55337e-08
5.56417e-06
-3.30882e-08
5.55995e-06
-3.08837e-08
5.55556e-06
-2.89081e-08
5.55111e-06
-2.71586e-08
-2.55867e-08
5.54664e-06
4.86019e-06
-2.36221e-08
4.86539e-06
-5.3678e-08
4.86525e-06
-5.54272e-08
4.8622e-06
-5.54497e-08
4.85705e-06
-5.51176e-08
4.84958e-06
-5.11505e-08
4.83992e-06
-4.5467e-08
4.82857e-06
-4.00069e-08
4.81604e-06
-3.5244e-08
4.80281e-06
-3.11453e-08
4.78927e-06
-2.76347e-08
4.7757e-06
-2.46527e-08
4.76227e-06
-2.2116e-08
4.74914e-06
-1.99584e-08
4.73638e-06
-1.81274e-08
4.72407e-06
-1.65955e-08
4.71231e-06
-1.53995e-08
-1.50529e-08
4.70178e-06
4.17905e-06
4.12538e-06
4.06995e-06
4.0145e-06
3.95938e-06
3.90823e-06
3.86276e-06
3.82276e-06
3.78751e-06
3.75637e-06
3.72873e-06
3.70408e-06
3.68196e-06
3.662e-06
3.64387e-06
3.62728e-06
3.61188e-06
3.59682e-06
2.0557e-08
-2.06873e-08
4.70735e-08
-2.66266e-08
7.17013e-08
-2.47534e-08
9.18644e-08
-2.02281e-08
1.06197e-07
-1.44395e-08
1.14246e-07
-8.10175e-09
1.15846e-07
-1.70763e-09
1.11406e-07
4.39436e-09
1.01403e-07
9.89989e-09
8.67537e-08
1.46085e-08
6.8109e-08
1.85469e-08
4.62488e-08
2.18211e-08
2.16192e-08
2.45314e-08
-5.07842e-09
2.66571e-08
-3.2907e-08
2.77382e-08
-6.0897e-08
2.79592e-08
-8.91e-08
2.81278e-08
-1.18974e-07
2.98441e-08
-1.53456e-07
3.44146e-08
-1.96821e-07
4.33396e-08
-2.53481e-07
5.65496e-08
-3.12047e-07
5.85123e-08
-3.61018e-07
4.88098e-08
-4.17028e-07
5.59749e-08
-4.79447e-07
6.2273e-08
-5.46531e-07
6.70559e-08
-6.17256e-07
7.05756e-08
-6.90394e-07
7.31081e-08
-7.65341e-07
7.4804e-08
-8.41136e-07
7.57575e-08
-9.17302e-07
7.60145e-08
-9.93001e-07
7.56522e-08
-1.06788e-06
7.47337e-08
-1.1413e-06
7.33564e-08
-1.21305e-06
7.15964e-08
-1.28267e-06
6.95559e-08
-1.35012e-06
6.73037e-08
-1.41512e-06
6.49299e-08
-1.47774e-06
6.24867e-08
-1.53783e-06
6.00455e-08
-1.59559e-06
5.76367e-08
-1.65094e-06
5.5309e-08
-1.70413e-06
5.30723e-08
-1.75513e-06
5.09584e-08
-1.8042e-06
4.89636e-08
-1.85135e-06
4.71079e-08
-1.89683e-06
4.5379e-08
-1.94067e-06
4.379e-08
-1.98309e-06
4.23243e-08
-2.02413e-06
4.09913e-08
-2.06399e-06
3.97713e-08
-2.10272e-06
3.86716e-08
-2.14048e-06
3.76738e-08
-2.17733e-06
3.67847e-08
-2.21342e-06
3.59862e-08
-2.24879e-06
3.52851e-08
-2.28357e-06
3.46653e-08
-2.31781e-06
3.41346e-08
-2.35161e-06
3.36778e-08
-2.38503e-06
3.33014e-08
-2.41815e-06
3.29919e-08
-2.45104e-06
3.27562e-08
-2.48375e-06
3.25834e-08
-2.51637e-06
3.24791e-08
-2.54892e-06
3.24339e-08
-2.58152e-06
3.24511e-08
-2.61416e-06
3.25252e-08
-2.64696e-06
3.26566e-08
-2.6799e-06
3.28419e-08
-2.71311e-06
3.30764e-08
-2.74655e-06
3.336e-08
-2.78037e-06
3.36829e-08
-2.81448e-06
3.40467e-08
-2.84906e-06
3.44329e-08
-2.88397e-06
3.48466e-08
-2.91941e-06
3.52648e-08
-2.9552e-06
3.56954e-08
-2.9915e-06
3.61166e-08
-3.02811e-06
3.6536e-08
-3.06522e-06
3.69192e-08
-3.10257e-06
3.72804e-08
-3.14034e-06
3.7587e-08
-3.17823e-06
3.78526e-08
-3.21643e-06
3.80281e-08
-3.2546e-06
3.81288e-08
-3.29286e-06
3.81061e-08
-3.33082e-06
3.79815e-08
-3.3685e-06
3.77056e-08
-3.4056e-06
3.72837e-08
-3.44195e-06
3.66889e-08
-3.47752e-06
3.58446e-08
-3.51201e-06
3.47332e-08
-3.54516e-06
3.33281e-08
-3.5766e-06
3.16178e-08
-3.60602e-06
2.95575e-08
-3.63293e-06
2.7055e-08
-3.65654e-06
2.37125e-08
-3.67653e-06
2.00706e-08
-3.69343e-06
1.69279e-08
-3.70615e-06
1.26965e-08
-3.71399e-06
7.74832e-09
-3.71702e-06
2.82258e-09
-3.71524e-06
-2.06984e-09
-3.70861e-06
-7.05121e-09
-3.69692e-06
-1.21312e-08
-3.68025e-06
-1.71583e-08
-3.65831e-06
-2.23538e-08
-3.63086e-06
-2.78786e-08
-3.5976e-06
-3.35689e-08
-3.55839e-06
-3.95118e-08
-3.51272e-06
-4.5849e-08
-3.46072e-06
-5.21843e-08
-3.40224e-06
-5.8537e-08
-3.3373e-06
-6.49907e-08
-3.26587e-06
-7.13588e-08
-3.18808e-06
-7.77131e-08
-3.10379e-06
-8.41038e-08
-3.01322e-06
-9.03686e-08
-2.91642e-06
-9.6488e-08
-2.8137e-06
-1.02423e-07
-2.7053e-06
-1.08104e-07
-2.59156e-06
-1.13504e-07
-2.47276e-06
-1.18547e-07
-2.34928e-06
-1.23201e-07
-2.22153e-06
-1.27399e-07
-2.09e-06
-1.31124e-07
-1.9552e-06
-1.34336e-07
-1.81769e-06
-1.37018e-07
-1.67804e-06
-1.39154e-07
-1.5368e-06
-1.40734e-07
-1.39453e-06
-1.41777e-07
-1.25176e-06
-1.42297e-07
-1.109e-06
-1.42339e-07
-9.66699e-07
-1.41908e-07
-8.25318e-07
-1.41058e-07
-6.85224e-07
-1.39809e-07
-5.46817e-07
-1.38201e-07
-4.10428e-07
-1.36247e-07
-2.7603e-07
-1.34363e-07
-1.42991e-07
-1.33082e-07
-1.02439e-08
-1.32846e-07
1.21731e-07
-1.32099e-07
2.50569e-07
-1.28966e-07
3.74938e-07
-1.24507e-07
4.94409e-07
-1.1961e-07
6.08816e-07
-1.1455e-07
7.18149e-07
-1.09471e-07
8.22447e-07
-1.04435e-07
9.21802e-07
-9.94858e-08
1.01635e-06
-9.46697e-08
1.10623e-06
-9.0005e-08
1.1916e-06
-8.54882e-08
1.27263e-06
-8.11449e-08
1.3495e-06
-7.69817e-08
1.4224e-06
-7.30094e-08
1.4915e-06
-6.91921e-08
1.55693e-06
-6.55339e-08
1.61887e-06
-6.20341e-08
1.67749e-06
-5.87054e-08
1.73295e-06
-5.55444e-08
1.78541e-06
-5.25414e-08
1.83501e-06
-4.967e-08
1.88187e-06
-4.69339e-08
1.92613e-06
-4.43261e-08
1.96791e-06
-4.18427e-08
2.00732e-06
-3.9466e-08
2.04446e-06
-3.71965e-08
2.07942e-06
-3.50072e-08
2.11225e-06
-3.28843e-08
2.143e-06
-3.07907e-08
2.17163e-06
-2.86809e-08
2.19807e-06
-2.64785e-08
2.22211e-06
-2.40881e-08
2.24339e-06
-2.13213e-08
2.26115e-06
-1.78024e-08
2.27403e-06
-1.29311e-08
2.2774e-06
-3.41839e-09
2.26221e-06
1.51498e-08
2.20733e-06
5.484e-08
1.21516e-07
2.08579e-06
2.6169e-08
-4.69646e-08
4.60149e-08
-4.65565e-08
5.86983e-08
-3.75103e-08
6.58763e-08
-2.74487e-08
6.83477e-08
-1.69688e-08
6.65224e-08
-6.31154e-09
6.05285e-08
4.22952e-09
5.05087e-08
1.43821e-08
3.64186e-08
2.39332e-08
1.8256e-08
3.27402e-08
-4.01488e-09
4.076e-08
-3.02498e-08
4.80249e-08
-6.03758e-08
5.45988e-08
-9.43229e-08
6.05732e-08
-1.32701e-07
6.60574e-08
-1.76059e-07
7.12871e-08
-2.25013e-07
7.70229e-08
-2.79543e-07
8.43406e-08
-3.39154e-07
9.39676e-08
-4.01599e-07
1.05749e-07
-4.63045e-07
1.17938e-07
-5.30595e-07
1.26022e-07
-6.10973e-07
1.29134e-07
-6.88699e-07
1.33671e-07
-7.64835e-07
1.38357e-07
-8.40126e-07
1.42316e-07
-9.14809e-07
1.45206e-07
-9.8864e-07
1.4691e-07
-1.06133e-06
1.47437e-07
-1.13245e-06
1.4685e-07
-1.20175e-06
1.45258e-07
-1.26893e-06
1.42798e-07
-1.33388e-06
1.39622e-07
-1.39645e-06
1.35886e-07
-1.45665e-06
1.31737e-07
-1.51446e-06
1.27314e-07
-1.56995e-06
1.22736e-07
-1.62317e-06
1.18109e-07
-1.67426e-06
1.13517e-07
-1.72328e-06
1.09035e-07
-1.77041e-06
1.0471e-07
-1.81572e-06
1.00586e-07
-1.85938e-06
9.66849e-08
-1.90148e-06
9.30255e-08
-1.94217e-06
8.96121e-08
-1.98155e-06
8.6449e-08
-2.01975e-06
8.35295e-08
-2.05684e-06
8.08506e-08
-2.09296e-06
7.84003e-08
-2.12818e-06
7.61721e-08
-2.16261e-06
7.41511e-08
-2.1963e-06
7.23301e-08
-2.22937e-06
7.06946e-08
-2.26187e-06
6.92386e-08
-2.29389e-06
6.79484e-08
-2.32547e-06
6.68189e-08
-2.35671e-06
6.58387e-08
-2.38764e-06
6.50048e-08
-2.41834e-06
6.4306e-08
-2.44885e-06
6.37398e-08
-2.47922e-06
6.32971e-08
-2.50952e-06
6.29765e-08
-2.53978e-06
6.27692e-08
-2.57005e-06
6.26732e-08
-2.60037e-06
6.268e-08
-2.63079e-06
6.27873e-08
-2.66132e-06
6.29865e-08
-2.69202e-06
6.32743e-08
-2.72289e-06
6.36416e-08
-2.75396e-06
6.40816e-08
-2.78525e-06
6.45848e-08
-2.81677e-06
6.51399e-08
-2.84852e-06
6.57354e-08
-2.88051e-06
6.63556e-08
-2.91271e-06
6.69857e-08
-2.94514e-06
6.76078e-08
-2.97772e-06
6.82115e-08
-3.01047e-06
6.87747e-08
-3.04328e-06
6.92806e-08
-3.07615e-06
6.9702e-08
-3.10896e-06
7.00244e-08
-3.14167e-06
7.0216e-08
-3.17413e-06
7.02561e-08
-3.20629e-06
7.01059e-08
-3.23796e-06
6.97454e-08
-3.26906e-06
6.91359e-08
-3.29935e-06
6.82572e-08
-3.3287e-06
6.70675e-08
-3.35683e-06
6.55511e-08
-3.38358e-06
6.36316e-08
-3.40883e-06
6.12652e-08
-3.43236e-06
5.84045e-08
-3.45394e-06
5.5014e-08
-3.47331e-06
5.10824e-08
-3.49023e-06
4.65629e-08
-3.50453e-06
4.14237e-08
-3.51638e-06
3.56061e-08
-3.52562e-06
2.93468e-08
-3.53155e-06
2.28406e-08
-3.53458e-06
1.56916e-08
-3.53482e-06
7.88673e-09
-3.53179e-06
-3.65236e-10
-3.52497e-06
-9.14882e-09
-3.51382e-06
-1.84958e-08
-3.49799e-06
-2.83084e-08
-3.47694e-06
-3.85223e-08
-3.45047e-06
-4.91347e-08
-3.41836e-06
-6.02464e-08
-3.38032e-06
-7.18435e-08
-3.33619e-06
-8.38125e-08
-3.28604e-06
-9.61469e-08
-3.22951e-06
-1.08801e-07
-3.16647e-06
-1.21639e-07
-3.09691e-06
-1.34557e-07
-3.02078e-06
-1.47473e-07
-2.93801e-06
-1.60408e-07
-2.84877e-06
-1.73245e-07
-2.7531e-06
-1.8589e-07
-2.65114e-06
-1.98268e-07
-2.54312e-06
-2.10245e-07
-2.42935e-06
-2.21713e-07
-2.31013e-06
-2.32579e-07
-2.18581e-06
-2.4272e-07
-2.0568e-06
-2.52046e-07
-1.92355e-06
-2.6045e-07
-1.78657e-06
-2.67869e-07
-1.64641e-06
-2.74233e-07
-1.50365e-06
-2.79506e-07
-1.35887e-06
-2.83651e-07
-1.21267e-06
-2.86663e-07
-1.06562e-06
-2.8856e-07
-9.18284e-07
-2.89391e-07
-7.71193e-07
-2.89208e-07
-6.24845e-07
-2.88065e-07
-4.7968e-07
-2.8606e-07
-3.36088e-07
-2.83273e-07
-1.94213e-07
-2.7998e-07
-5.39884e-08
-2.76425e-07
8.41732e-08
-2.72519e-07
2.1916e-07
-2.68105e-07
3.49326e-07
-2.63062e-07
4.74099e-07
-2.56935e-07
5.94433e-07
-2.49358e-07
7.10655e-07
-2.40799e-07
8.22687e-07
-2.31709e-07
9.30436e-07
-2.22376e-07
1.03386e-06
-2.12962e-07
1.13294e-06
-2.03596e-07
1.22772e-06
-1.94343e-07
1.31827e-06
-1.8529e-07
1.40466e-06
-1.76473e-07
1.48702e-06
-1.67918e-07
1.56545e-06
-1.5964e-07
1.64006e-06
-1.51669e-07
1.71099e-06
-1.44008e-07
1.77838e-06
-1.36647e-07
1.84237e-06
-1.29587e-07
1.90311e-06
-1.22837e-07
1.96074e-06
-1.1639e-07
2.0154e-06
-1.10255e-07
2.06721e-06
-1.04406e-07
2.11631e-06
-9.88227e-08
2.16282e-06
-9.34932e-08
2.20687e-06
-8.84155e-08
2.24855e-06
-8.35686e-08
2.28798e-06
-7.8936e-08
2.32525e-06
-7.45014e-08
2.36044e-06
-7.02318e-08
2.39361e-06
-6.60816e-08
2.42478e-06
-6.19916e-08
2.45393e-06
-5.78659e-08
2.481e-06
-5.35724e-08
2.50579e-06
-4.89096e-08
2.52799e-06
-4.354e-08
2.54699e-06
-3.68309e-08
2.56171e-06
-2.76786e-08
2.5716e-06
-1.33423e-08
2.57586e-06
1.08579e-08
2.57222e-06
5.84641e-08
1.487e-07
2.54502e-06
1.59296e-08
-6.29838e-08
2.30834e-08
-5.37736e-08
2.4815e-08
-3.92971e-08
2.2228e-08
-2.48921e-08
1.58877e-08
-1.06705e-08
6.14552e-09
3.4062e-09
-6.93388e-09
1.72697e-08
-2.33911e-08
3.08172e-08
-4.34415e-08
4.39448e-08
-6.72789e-08
5.65567e-08
-9.5145e-08
6.85876e-08
-1.2718e-07
8.00395e-08
-1.63598e-07
9.09778e-08
-2.04576e-07
1.0153e-07
-2.5042e-07
1.11862e-07
-3.01298e-07
1.22142e-07
-3.56971e-07
1.32657e-07
-4.16429e-07
1.43773e-07
-4.78075e-07
1.55575e-07
-5.39988e-07
1.67635e-07
-6.01013e-07
1.78925e-07
-6.63124e-07
1.88106e-07
-7.28811e-07
1.94786e-07
-7.95293e-07
2.0013e-07
-8.61333e-07
2.04363e-07
-9.26411e-07
2.0737e-07
-9.90284e-07
2.09045e-07
-1.05274e-06
2.09346e-07
-1.11365e-06
2.08314e-07
-1.17289e-06
2.06061e-07
-1.23041e-06
2.0274e-07
-1.28615e-06
1.98523e-07
-1.34016e-06
1.93589e-07
-1.39241e-06
1.88111e-07
-1.44296e-06
1.82253e-07
-1.49183e-06
1.76164e-07
-1.53911e-06
1.69973e-07
-1.58481e-06
1.63789e-07
-1.62903e-06
1.57703e-07
-1.6718e-06
1.51786e-07
-1.71322e-06
1.46095e-07
-1.75332e-06
1.40669e-07
-1.7922e-06
1.35534e-07
-1.8299e-06
1.30709e-07
-1.86652e-06
1.26199e-07
-1.9021e-06
1.22008e-07
-1.93673e-06
1.18131e-07
-1.97047e-06
1.14561e-07
-2.00339e-06
1.11288e-07
-2.03554e-06
1.08301e-07
-2.06701e-06
1.05588e-07
-2.09784e-06
1.03135e-07
-2.12811e-06
1.0093e-07
-2.15787e-06
9.89617e-08
-2.18717e-06
9.72173e-08
-2.21608e-06
9.56867e-08
-2.24464e-06
9.43595e-08
-2.2729e-06
9.32271e-08
-2.30092e-06
9.22798e-08
-2.32873e-06
9.15102e-08
-2.35639e-06
9.09097e-08
-2.38394e-06
9.0472e-08
-2.4114e-06
9.01888e-08
-2.43883e-06
9.00536e-08
-2.46626e-06
9.00577e-08
-2.49372e-06
9.01936e-08
-2.52124e-06
9.04521e-08
-2.54884e-06
9.08243e-08
-2.57654e-06
9.12992e-08
-2.60437e-06
9.18648e-08
-2.63233e-06
9.25072e-08
-2.66045e-06
9.32114e-08
-2.68871e-06
9.39598e-08
-2.71713e-06
9.47314e-08
-2.7457e-06
9.55057e-08
-2.7744e-06
9.62601e-08
-2.8032e-06
9.69717e-08
-2.83209e-06
9.7614e-08
-2.86102e-06
9.81584e-08
-2.88994e-06
9.85726e-08
-2.91878e-06
9.88261e-08
-2.9475e-06
9.88816e-08
-2.97598e-06
9.87014e-08
-3.00417e-06
9.82429e-08
-3.03193e-06
9.7468e-08
-3.05917e-06
9.63315e-08
-3.08573e-06
9.47937e-08
-3.11146e-06
9.28121e-08
-3.13618e-06
9.03342e-08
-3.15973e-06
8.73114e-08
-3.18203e-06
8.36646e-08
-3.2029e-06
7.93443e-08
-3.22215e-06
7.43234e-08
-3.23959e-06
6.85596e-08
-3.25503e-06
6.20366e-08
-3.26831e-06
5.4719e-08
-3.2793e-06
4.66156e-08
-3.28776e-06
3.77834e-08
-3.29324e-06
2.82925e-08
-3.29563e-06
1.80209e-08
-3.29474e-06
6.88678e-09
-3.29017e-06
-5.09436e-09
-3.28159e-06
-1.79484e-08
-3.26868e-06
-3.16468e-08
-3.25111e-06
-4.61486e-08
-3.22849e-06
-6.13832e-08
-3.20055e-06
-7.73104e-08
-3.16702e-06
-9.39471e-08
-3.12774e-06
-1.11301e-07
-3.08247e-06
-1.29196e-07
-3.03113e-06
-1.47598e-07
-2.97351e-06
-1.66475e-07
-2.90951e-06
-1.85689e-07
-2.83902e-06
-2.0505e-07
-2.76199e-06
-2.24485e-07
-2.67842e-06
-2.43929e-07
-2.58837e-06
-2.63223e-07
-2.49192e-06
-2.82218e-07
-2.38927e-06
-3.00793e-07
-2.28063e-06
-3.18746e-07
-2.16631e-06
-3.35922e-07
-2.04663e-06
-3.52155e-07
-1.92198e-06
-3.67282e-07
-1.79276e-06
-3.81143e-07
-1.65947e-06
-3.93601e-07
-1.52263e-06
-4.04542e-07
-1.38281e-06
-4.13874e-07
-1.24059e-06
-4.21533e-07
-1.09657e-06
-4.27478e-07
-9.51348e-07
-4.31698e-07
-8.05506e-07
-4.3422e-07
-6.59616e-07
-4.35118e-07
-5.14201e-07
-4.34472e-07
-3.6976e-07
-4.3238e-07
-2.26689e-07
-4.29021e-07
-8.52504e-08
-4.24629e-07
5.41464e-08
-4.1932e-07
1.9078e-07
-4.1303e-07
3.23976e-07
-4.05714e-07
4.53253e-07
-3.97396e-07
5.78176e-07
-3.8801e-07
6.9861e-07
-3.77386e-07
8.14786e-07
-3.65554e-07
9.26807e-07
-3.52833e-07
1.03464e-06
-3.39565e-07
1.13827e-06
-3.26015e-07
1.23767e-06
-3.12377e-07
1.33286e-06
-2.98799e-07
1.42389e-06
-2.85388e-07
1.51083e-06
-2.72238e-07
1.59376e-06
-2.59417e-07
1.67279e-06
-2.46959e-07
1.74803e-06
-2.34893e-07
1.81959e-06
-2.23245e-07
1.88761e-06
-2.12044e-07
1.95224e-06
-2.01292e-07
2.01363e-06
-1.90988e-07
2.0719e-06
-1.81125e-07
2.1272e-06
-1.71702e-07
2.17964e-06
-1.62716e-07
2.22937e-06
-1.54151e-07
2.27651e-06
-1.45979e-07
2.32119e-06
-1.38183e-07
2.36351e-06
-1.30749e-07
2.40358e-06
-1.23657e-07
2.44151e-06
-1.16879e-07
2.47739e-06
-1.10393e-07
2.5113e-06
-1.04149e-07
2.54328e-06
-9.80815e-08
2.57338e-06
-9.2101e-08
2.60158e-06
-8.60774e-08
2.62782e-06
-7.98212e-08
2.65194e-06
-7.30489e-08
2.67369e-06
-6.52992e-08
2.69262e-06
-5.57745e-08
2.70802e-06
-4.3091e-08
2.71917e-06
-2.45151e-08
2.72541e-06
4.60393e-09
2.72849e-06
5.53663e-08
1.45865e-07
2.73132e-06
1.44189e-09
-6.45051e-08
-3.70533e-09
-4.86773e-08
-1.18262e-08
-3.12204e-08
-2.27406e-08
-1.4002e-08
-3.63574e-08
2.91417e-09
-5.26194e-08
1.96505e-08
-7.16166e-08
3.62376e-08
-9.34652e-08
5.26505e-08
-1.1838e-07
6.88315e-08
-1.46547e-07
8.47091e-08
-1.78205e-07
1.00218e-07
-2.13504e-07
1.15323e-07
-2.52579e-07
1.30025e-07
-2.95421e-07
1.44356e-07
-3.41944e-07
1.58357e-07
-3.91875e-07
1.72057e-07
-4.44744e-07
1.85498e-07
-4.99685e-07
1.98695e-07
-5.55661e-07
2.11522e-07
-6.11689e-07
2.23643e-07
-6.67339e-07
2.34546e-07
-7.22966e-07
2.43713e-07
-7.79135e-07
2.50926e-07
-8.35369e-07
2.56344e-07
-8.91125e-07
2.6009e-07
-9.45999e-07
2.62224e-07
-9.99772e-07
2.62789e-07
-1.05231e-06
2.61859e-07
-1.10356e-06
2.59544e-07
-1.15352e-06
2.55995e-07
-1.20219e-06
2.51385e-07
-1.24958e-06
2.45895e-07
-1.29573e-06
2.39709e-07
-1.34063e-06
2.33002e-07
-1.38434e-06
2.25936e-07
-1.42686e-06
2.18661e-07
-1.46821e-06
2.11304e-07
-1.50842e-06
2.03979e-07
-1.54751e-06
1.96776e-07
-1.58551e-06
1.8977e-07
-1.62246e-06
1.83018e-07
-1.65837e-06
1.76562e-07
-1.69329e-06
1.70434e-07
-1.72725e-06
1.64652e-07
-1.7603e-06
1.59228e-07
-1.79247e-06
1.54165e-07
-1.82383e-06
1.49463e-07
-1.8544e-06
1.45114e-07
-1.88425e-06
1.41111e-07
-1.91341e-06
1.37443e-07
-1.94195e-06
1.34099e-07
-1.9699e-06
1.31064e-07
-1.99732e-06
1.28326e-07
-2.02426e-06
1.25873e-07
-2.05076e-06
1.23691e-07
-2.07687e-06
1.21769e-07
-2.10264e-06
1.20096e-07
-2.12811e-06
1.1866e-07
-2.15331e-06
1.17453e-07
-2.1783e-06
1.16464e-07
-2.20311e-06
1.15683e-07
-2.22778e-06
1.15103e-07
-2.25234e-06
1.14714e-07
-2.27683e-06
1.14507e-07
-2.30128e-06
1.14472e-07
-2.32573e-06
1.146e-07
-2.3502e-06
1.14878e-07
-2.37471e-06
1.15296e-07
-2.39928e-06
1.15839e-07
-2.42395e-06
1.16492e-07
-2.44871e-06
1.17238e-07
-2.47359e-06
1.18057e-07
-2.49859e-06
1.18928e-07
-2.52372e-06
1.19827e-07
-2.54897e-06
1.20726e-07
-2.57434e-06
1.21597e-07
-2.59982e-06
1.2241e-07
-2.62537e-06
1.23131e-07
-2.65097e-06
1.23723e-07
-2.67657e-06
1.24146e-07
-2.70214e-06
1.24359e-07
-2.72761e-06
1.24317e-07
-2.75291e-06
1.2397e-07
-2.77797e-06
1.23268e-07
-2.8027e-06
1.22159e-07
-2.82699e-06
1.20591e-07
-2.85072e-06
1.18508e-07
-2.87377e-06
1.15855e-07
-2.89596e-06
1.12579e-07
-2.91717e-06
1.08593e-07
-2.93729e-06
1.03848e-07
-2.95617e-06
9.8266e-08
-2.97364e-06
9.18045e-08
-2.98949e-06
8.44169e-08
-3.00352e-06
7.60709e-08
-3.01554e-06
6.67297e-08
-3.02533e-06
5.63825e-08
-3.03262e-06
4.50312e-08
-3.03707e-06
3.26864e-08
-3.03842e-06
1.92866e-08
-3.03642e-06
4.75747e-09
-3.03076e-06
-1.09259e-08
-3.02114e-06
-2.77742e-08
-3.00727e-06
-4.57488e-08
-2.98883e-06
-6.48187e-08
-2.96552e-06
-8.4911e-08
-2.93703e-06
-1.05983e-07
-2.90313e-06
-1.28001e-07
-2.86363e-06
-1.50937e-07
-2.8183e-06
-1.74628e-07
-2.76697e-06
-1.99009e-07
-2.70951e-06
-2.2399e-07
-2.64579e-06
-2.49439e-07
-2.57568e-06
-2.75154e-07
-2.49914e-06
-3.01016e-07
-2.41615e-06
-3.26865e-07
-2.32679e-06
-3.52516e-07
-2.23116e-06
-3.77754e-07
-2.12944e-06
-4.02404e-07
-2.02186e-06
-4.26214e-07
-1.90872e-06
-4.48977e-07
-1.79035e-06