/*--------------------------------*- C++ -*----------------------------------*\
  =========                 |
  \\      /  F ield         | OpenFOAM: The Open Source CFD Toolbox
   \\    /   O peration     | Website:  https://openfoam.org
    \\  /    A nd           | Version:  9
     \\/     M anipulation  |
\*---------------------------------------------------------------------------*/
FoamFile
{
    format      ascii;
    class       volScalarField::Internal;
    location    "95";
    object      tmp<kEpsilon:G>;
}
// * * * * * * * * * * * * * * * * * * * * * * * * * * * * * * * * * * * * * //

dimensions      [0 2 -3 0 0 0 0];

value           nonuniform List<scalar> 
12225
(
0
0
0
0
0
0
0
0
0
0
0
0
0
0
0
0
0
0
947.559
499.268
262.424
277.672
380.072
495.593
605.423
716.727
803.433
891.426
952.361
1014.04
1053.89
1095.29
1126.15
1156.08
1221.09
1196.74
85.4611
123.056
55.5017
17.2125
5.16818
4.37793
8.77733
16.6666
26.5945
38.3928
50.9329
64.1691
77.7859
90.7698
105.189
116.791
135.252
139.792
5.0336
1.73963
0.640755
0.704589
0.467828
0.187208
0.0288243
0.192282
0.797507
1.8977
3.48226
5.49451
7.99432
10.7121
14.1203
17.473
22.2059
25.7678
0.224844
0.131513
0.146103
0.30962
0.419291
0.397737
0.279742
0.143751
0.0483672
0.0197283
0.0765769
0.229986
0.498224
0.87428
1.42363
2.08504
3.00169
3.83571
0.177937
0.187583
0.260448
0.313712
0.314246
0.306885
0.277181
0.224261
0.165618
0.108728
0.0608464
0.0277384
0.0166003
0.034703
0.0944406
0.202893
0.370383
0.567202
0.127231
0.210312
0.227105
0.20723
0.204422
0.220155
0.225251
0.210996
0.18796
0.160009
0.129729
0.0984993
0.0703766
0.049619
0.0426124
0.0597191
0.108356
0.191804
0.0980909
0.148067
0.156726
0.152273
0.160647
0.178426
0.187713
0.184051
0.174534
0.161814
0.146511
0.128804
0.111166
0.096597
0.0902889
0.100453
0.135712
0.197267
0.0747949
0.10418
0.119842
0.126346
0.135955
0.149314
0.157615
0.157832
0.154076
0.148495
0.141308
0.132839
0.124686
0.119532
0.121484
0.136268
0.170494
0.221072
0.0568714
0.0773818
0.0956316
0.105567
0.114466
0.125264
0.133199
0.135667
0.134957
0.133019
0.130346
0.127338
0.125424
0.126711
0.134337
0.151613
0.182767
0.222275
0.0431227
0.058436
0.0759821
0.0872844
0.0962813
0.105935
0.113642
0.117397
0.118526
0.118722
0.118707
0.118983
0.120724
0.125521
0.135498
0.152294
0.178161
0.207228
0.0331709
0.0453475
0.0614703
0.0734398
0.0826599
0.0916065
0.0990018
0.103427
0.105688
0.107183
0.108713
0.110807
0.114382
0.12058
0.130739
0.145512
0.16603
0.187031
0.0252499
0.035105
0.0496888
0.061941
0.071407
0.079954
0.0871551
0.0920766
0.0951926
0.0976092
0.100112
0.103227
0.107624
0.114057
0.123277
0.135415
0.151019
0.165638
0.0182246
0.0261378
0.0389842
0.0509787
0.0606046
0.0689535
0.0760576
0.081405
0.0852654
0.0884401
0.0916198
0.0952852
0.0998934
0.105864
0.113525
0.12271
0.133714
0.142963
0.0122235
0.0186596
0.0298536
0.0412262
0.0508084
0.0590129
0.066045
0.0716827
0.0760912
0.0798058
0.0833603
0.0871432
0.0914633
0.0965074
0.10234
0.108699
0.11579
0.120949
0.00734483
0.0126726
0.0223838
0.0329306
0.0422701
0.050317
0.0572468
0.0629977
0.0676817
0.0716471
0.075248
0.0787629
0.0824061
0.0862717
0.0903083
0.0942732
0.098334
0.100704
0.00367818
0.0082157
0.0167131
0.026412
0.0353723
0.0432025
0.0499679
0.0556485
0.0603265
0.0642386
0.0676018
0.0705924
0.0733731
0.0760309
0.0785213
0.0806711
0.0825846
0.0832487
0.00134533
0.00538725
0.0130266
0.0220278
0.0305539
0.038065
0.0445386
0.0499482
0.0543454
0.0579108
0.0608002
0.0631246
0.0650171
0.0665938
0.0678618
0.0687452
0.069237
0.0690095
0.000656227
0.0045376
0.0118507
0.0205682
0.0288147
0.0359998
0.0421011
0.0470856
0.0509867
0.0539647
0.0561866
0.0577582
0.0588111
0.0594759
0.0598078
0.0598174
0.0593763
0.0587728
0.00191483
0.00608105
0.0138766
0.0229527
0.0311728
0.0380989
0.0438629
0.0484242
0.0517806
0.0541112
0.0556407
0.0565163
0.0568904
0.0568955
0.0565951
0.056044
0.055041
0.0542586
0.00453504
0.00939275
0.0183532
0.0281435
0.0362929
0.0428554
0.0482573
0.0524068
0.0552262
0.0569652
0.057903
0.0582405
0.0581102
0.0576551
0.0569115
0.055997
0.0546473
0.053781
0.00848811
0.0148258
0.025532
0.0359707
0.04402
0.0503175
0.0553268
0.0588073
0.0608055
0.0618042
0.0621647
0.0620429
0.0615198
0.0607044
0.0596391
0.0584565
0.0568898
0.0559608
0.0137406
0.0239129
0.0365636
0.0453233
0.0523081
0.0592012
0.0648715
0.0679636
0.068908
0.0688646
0.0684172
0.0676336
0.0665475
0.0652254
0.0637157
0.0621543
0.0602741
0.0590702
0.0212081
0.0424222
0.0599401
0.061668
0.0613855
0.0659456
0.0724344
0.0767461
0.0783708
0.0786315
0.0780773
0.0767452
0.074712
0.0722113
0.0693543
0.0664024
0.0630723
0.0604832
0.042999
0.0760188
0.0945626
0.106443
0.0994195
0.0928026
0.0906139
0.0896515
0.0884317
0.0867862
0.0839686
0.0795654
0.0737381
0.0671232
0.0601101
0.0533167
0.0466916
0.0413119
0.0801285
0.212622
0.0682237
0.0801535
0.170163
0.218444
0.218096
0.193308
0.162129
0.131393
0.102098
0.0755588
0.0534545
0.0375412
0.0288976
0.0284005
0.0360241
0.0517596
0.660559
0.125296
0.314956
0.50401
0.371501
0.294232
0.228492
0.140945
0.0601592
0.0116518
0.0110655
0.0692032
0.190896
0.377489
0.624099
0.928796
1.2776
1.6677
31.8817
71.0784
43.2605
18.2849
7.078
2.67955
1.12093
1.01474
1.82521
3.29548
5.27062
7.64967
10.2941
13.1768
16.1524
19.2504
22.2719
25.3179
455.403
257.641
100.972
70.5321
91.5873
127.996
167.913
205.705
241.051
273.666
302.721
329.335
352.601
373.953
392.445
409.865
425.213
440.244
0
0
0
0
0
0
0
0
0
0
0
0
0
0
0
0
0
0
0
0
0
0
0
0
0
0
0
0
0
0.954765
0.716494
0.531288
0.57694
0.874917
1.33753
1.95119
2.7248
3.62956
4.41363
4.42822
5.77322
7.02685
8.73808
10.7841
13.1674
15.8928
18.9619
22.3692
26.1017
30.1392
34.4567
39.0255
43.814
48.7914
53.9255
59.1892
64.5541
70.0005
75.506
81.0574
86.6378
92.2404
97.8531
103.475
109.096
114.72
120.339
125.961
131.578
137.201
142.822
148.453
154.088
159.74
165.401
171.085
176.785
182.515
188.266
194.055
199.873
205.742
211.65
217.623
223.646
229.751
235.921
242.19
248.541
255.011
261.581
268.288
275.114
282.096
289.21
296.496
303.925
311.541
319.307
327.265
335.374
343.673
352.11
360.724
369.452
378.323
387.266
396.28
405.318
414.31
423.157
431.678
439.584
446.276
449.98
457.338
469.342
474.148
482.596
485.747
490.45
491.666
494.465
497.347
501.941
499.549
498.86
494.77
491.082
486.286
480.449
473.765
466.993
456.079
444.652
431.667
417.395
401.928
385.328
367.694
349.117
329.715
309.613
288.956
267.901
246.608
225.244
203.976
182.901
162.138
141.899
122.289
103.416
85.3705
68.2289
52.0926
37.0509
23.3943
12.1036
10.403
19.7474
30.5504
40.9896
50.7527
59.7778
68.0609
75.6372
82.515
88.728
94.3501
99.3973
103.926
107.987
111.605
114.823
117.685
120.235
122.506
124.518
126.298
127.875
129.272
130.509
131.603
132.571
133.428
134.184
134.846
135.419
135.89
136.275
136.481
136.628
136.259
135.983
133.858
131.494
119.142
0
0.304581
0.257744
0.133889
0.0251049
0.0392485
0.206138
0.531187
1.01673
1.66563
2.46668
3.4068
4.48403
5.75496
7.32796
9.30461
11.4842
13.4251
14.4885
14.0564
13.4339
14.7442
19.1429
20.9603
21.7425
22.485
23.0892
23.4259
23.4391
23.1323
22.5306
21.6774
20.6269
19.4358
18.1593
16.8463
15.5391
14.27
13.0645
11.9382
10.9038
9.96501
9.12304
8.37423
7.71459
7.13736
6.63672
6.20521
5.83725
5.52616
5.26718
5.05451
4.88428
4.75196
4.65469
4.58871
4.55191
4.54148
4.5563
4.59436
4.65463
4.73532
4.83604
4.95558
5.09376
5.2498
5.42356
5.61465
5.82312
6.04937
6.2935
6.55614
6.83762
7.13963
7.46331
7.81024
8.1811
8.5781
9.00372
9.46246
9.95716
10.4926
11.0732
11.707
12.4009
13.164
14.0009
14.9164
15.9184
17.0163
18.2331
19.5761
21.051
22.6613
24.4118
26.3048
28.3016
30.2923
32.1903
34.1153
36.1319
37.9438
39.7402
41.5219
43.5829
45.7577
48.0472
50.8601
53.7337
56.5446
59.974
63.6757
67.3931
71.3498
75.8895
80.4808
85.1155
90.13
95.0923
100.075
104.996
109.794
114.402
118.734
122.701
126.235
129.272
131.764
133.682
135.012
135.791
135.995
135.647
134.786
133.459
131.748
129.813
127.63
124.87
121.678
117.25
111.137
104.608
98.1822
92.0298
86.2818
80.9775
76.119
71.6852
67.6565
63.986
60.6575
57.656
54.944
52.484
50.2352
48.1923
46.3398
44.6618
43.1373
41.7461
40.4788
39.3272
38.2813
37.331
36.4682
35.6881
34.9849
34.3516
33.7844
33.2806
32.8409
32.4636
32.1785
31.9896
32.1075
32.6232
35.0441
39.8486
60.4787
0
0.0949726
0.0949469
0.0675202
0.166227
0.437478
0.892494
1.55157
2.43612
3.55853
4.92069
6.51574
8.34297
10.4183
12.7908
15.497
18.2995
20.7241
22.3005
22.8876
23.0232
23.6319
24.9257
25.4667
25.4703
25.2119
24.7676
24.1618
23.4461
22.646
21.8022
20.9527
20.1337
19.3732
18.6935
18.1074
17.624
17.2441
16.9687
16.7936
16.7153
16.7274
16.8256
17.0033
17.2569
17.5811
17.9734
18.4295
18.9481
19.5259
20.1629
20.857
21.6086
22.4165
23.2818
24.204
25.1844
26.2229
27.3215
28.4804
29.7019
30.9864
32.336
33.7515
35.235
36.7871
38.4093
40.1014
41.8637
43.6961
45.5981
47.5683
49.6042
51.7041
53.8661
56.0875
58.3616
60.6811
63.0392
65.4303
67.8442
70.2697
72.6941
75.1068
77.4942
79.8437
82.1399
84.3557
86.464
88.4458
90.3035
92.0369
93.6315
95.0695
96.3367
97.4323
98.4838
99.6167
100.611
101.552
102.874
104.564
106.713
109.084
111.903
114.942
118.185
121.857
125.72
129.829
134.645
139.958
145.648
151.669
158.197
164.844
171.714
178.829
185.964
192.981
199.741
206.09
211.884
216.949
221.132
224.294
226.339
227.196
226.838
225.271
222.543
218.706
213.859
208.129
201.719
194.751
187.105
178.47
168.599
157.912
147.529
138.29
129.904
121.84
114.012
106.498
99.3647
92.6547
86.385
80.5662
75.1868
70.2287
65.6841
61.533
57.7352
54.2389
51.0458
48.1303
45.4724
43.0456
40.8262
38.8011
36.9553
35.271
33.7323
32.33
31.0538
29.8919
28.8366
27.8809
27.019
26.2533
25.588
25.0504
24.6847
24.646
25.1926
26.7872
29.5554
37.7717
0
0.213877
0.501892
0.714585
1.04986
1.54203
2.20516
3.06144
4.1333
5.43723
6.98123
8.75767
10.7413
12.8889
15.1425
17.4182
19.5417
21.2369
22.2972
22.7436
22.9316
23.4184
24.232
24.7412
24.8701
24.7262
24.4126
24.012
23.5734
23.1414
22.7494
22.4194
22.1686
22.0086
21.9477
21.9903
22.1402
22.3962
22.7588
23.2261
23.7966
24.4675
25.2367
26.1015
27.0596
28.1086
29.2467
30.4719
31.7831
33.1788
34.6589
36.223
37.8718
39.6053
41.4248
43.3313
45.3263
47.4109
49.5867
51.8553
54.2182
56.6764
59.231
61.8825
64.6313
67.4773
70.4194
73.4558
76.5834
79.7985
83.0964
86.4715
89.9166
93.4241
96.9868
100.596
104.239
107.902
111.57
115.231
118.867
122.461
125.994
129.451
132.813
136.063
139.183
142.145
144.917
147.487
149.866
152.069
154.099
155.963
157.674
159.275
160.855
162.472
164.025
165.558
167.283
169.199
171.373
173.805
176.627
179.754
183.175
187.002
191.176
195.785
201.041
206.907
213.348
220.28
227.638
235.29
243.227
251.422
259.607
267.631
275.297
282.413
288.775
294.168
298.391
301.274
302.689
302.557
300.845
297.573
292.806
286.654
279.256
270.842
261.416
250.813
238.897
226.09
213.041
200.064
187.402
175.345
163.921
152.982
142.505
132.536
123.125
114.301
106.076
98.4457
91.3966
84.905
78.9462
73.4923
68.5085
63.9507
59.8
56.0113
52.5569
49.4041
46.5178
43.8863
41.4876
39.2992
37.3013
35.4806
33.8232
32.3143
30.9435
29.7027
28.5874
27.6003
26.7503
26.0736
25.6335
25.5912
26.2105
28.1553
31.9492
38.8999
0
0.767358
1.58088
2.203
2.80897
3.49135
4.28483
5.21356
6.29901
7.55602
8.9898
10.5891
12.3205
14.1298
15.947
17.6891
19.2399
20.4627
21.2698
21.6863
21.8691
22.037
22.2676
22.438
22.4892
22.4361
22.3234
22.2006
22.1093
22.0788
22.1294
22.2777
22.5364
22.9152
23.4219
24.0623
24.8403
25.758
26.8165
28.0147
29.3511
30.8231
32.4274
34.1608
36.0197
38.0008
40.1013
42.3187
44.651
47.0971
49.6564
52.329
55.1157
58.0174
61.036
64.1732
67.4311
70.8117
74.3172
77.9493
81.7098
85.5994
89.6187
93.7671
98.0436
102.446
106.971
111.613
116.367
121.225
126.176
131.212
136.318
141.482
146.69
151.927
157.172
162.405
167.606
172.751
177.819
182.784
187.624
192.317
196.84
201.173
205.294
209.172
212.784
216.111
219.166
221.968
224.526
226.856
228.975
230.92
232.739
234.468
236.071
237.565
239.036
240.562
242.235
244.121
246.301
248.781
251.576
254.76
258.37
262.504
267.292
272.753
278.91
285.57
292.745
300.361
308.387
316.685
325.047
333.299
341.212
348.569
355.114
360.598
364.773
367.44
368.432
367.652
365.044
360.631
354.476
346.767
337.541
326.748
314.276
300.345
285.482
270.11
254.568
239.161
224.151
209.733
195.927
182.696
170.051
158.04
146.707
136.082
126.171
116.971
108.465
100.63
93.4321
86.8363
80.7997
75.2744
70.228
65.6209
61.4232
57.5986
54.1083
50.9252
48.0231
45.3744
42.9524
40.7448
38.7349
36.9052
35.2449
33.7456
32.4031
31.2241
30.2231
29.4444
28.9663
28.9572
29.6691
31.7193
35.6164
41.652
0
1.62808
3.1482
4.32539
5.23713
6.08316
6.93628
7.83203
8.79687
9.84639
10.9839
12.1989
13.4647
14.7397
15.9719
17.103
18.0688
18.8079
19.2868
19.5233
19.5895
19.5832
19.5708
19.5633
19.5608
19.575
19.628
19.7452
19.9507
20.2656
20.7081
21.2935
22.0351
22.9438
24.0282
25.2943
26.7463
28.3857
30.212
32.2236
34.4172
36.7887
39.3335
42.0464
44.9224
47.9569
51.1457
54.4855
57.9739
61.6094
65.3914
69.3204
73.3977
77.625
82.0048
86.5401
91.2339
96.0891
101.109
106.295
111.65
117.175
122.869
128.731
134.758
140.947
147.29
153.781
160.408
167.159
174.021
180.976
188.007
195.092
202.211
209.339
216.451
223.517
230.509
237.395
244.145
250.727
257.111
263.267
269.167
274.784
280.091
285.059
289.658
293.864
297.691
301.142
304.231
306.969
309.37
311.459
313.266
314.816
316.095
317.133
317.979
318.748
319.539
320.443
321.532
322.854
324.455
326.421
328.823
331.816
335.48
339.795
344.774
350.4
356.674
363.523
370.872
378.58
386.462
394.327
401.942
409.053
415.377
420.617
424.498
426.779
427.259
425.815
422.372
416.982
409.655
400.308
388.843
375.336
360.193
343.871
326.762
309.243
291.64
274.24
257.271
240.885
225.124
210.003
195.556
181.836
168.887
156.735
145.389
134.845
125.085
116.084
107.803
100.2
93.2298
86.8456
81.0102
75.6773
70.8071
66.3607
62.3045
58.6072
55.2367
52.1626
49.3568
46.7978
44.4667
42.3414
40.4138
38.6763
37.1265
35.7748
34.6412
33.7769
33.2686
33.284
34.0526
36.0787
39.7369
44.8342
0
2.57506
4.82522
6.61086
7.82593
8.80574
9.6679
10.4627
11.2253
11.9781
12.7299
13.4782
14.2108
14.9066
15.5396
16.0821
16.507
16.7938
16.937
16.9536
16.8837
16.78
16.6902
16.6463
16.6705
16.7817
16.9985
17.3397
17.8234
18.4669
19.2865
20.2973
21.5128
22.9441
24.6004
26.4885
28.6123
30.9733
33.5707
36.4017
39.4619
42.7457
46.2469
49.9589
53.8754
57.9905
62.2992
66.7975
71.4827
76.3533
81.4093
86.6516
92.0824
97.7046
103.522
109.538
115.759
122.188
128.828
135.685
142.76
150.054
157.566
165.295
173.237
181.385
189.73
198.26
206.962
215.818
224.808
233.908
243.094
252.337
261.607
270.871
280.094
289.238
298.264
307.132
315.801
324.23
332.38
340.214
347.693
354.784
361.452
367.666
373.383
378.581
383.252
387.4
391.034
394.155
396.775
398.907
400.577
401.795
402.575
402.946
402.981
402.789
402.487
402.158
401.885
401.739
401.785
402.166
403.021
404.373
406.322
408.955
412.309
416.401
421.245
426.781
432.935
439.564
446.512
453.57
460.512
467.044
472.864
477.628
481.032
482.797
482.69
480.582
476.334
469.779
460.771
449.206
435.34
419.598
402.361
384.025
364.974
345.568
326.126
306.917
288.162
269.999
252.497
235.697
219.653
204.416
190.031
176.522
163.899
152.155
141.273
131.223
121.965
113.452
105.634
98.467
91.9062
85.903
80.4138
75.3957
70.8106
66.6247
62.8122
59.3356
56.1638
53.2702
50.633
48.2319
46.0548
44.0944
42.3494
40.835
39.5764
38.6284
38.0796
38.0884
38.8523
40.7603
44.0081
48.2072
0
3.43193
6.28299
8.57967
10.0383
11.1073
11.9413
12.6036
13.1401
13.584
13.9543
14.2606
14.5064
14.6918
14.8145
14.8721
14.8637
14.7922
14.6669
14.5065
14.3383
14.1952
14.1104
14.1128
14.2262
14.4716
14.8677
15.4327
16.1837
17.138
18.3118
19.721
21.3796
23.2998
25.4915
27.9618
30.715
33.7524
37.073
40.6733
44.5481
48.6911
53.0952
57.753
62.6576
67.8025
73.1825
78.7938
84.634
90.7025
97.0002
103.53
110.294
117.298
124.548
132.049
139.808
147.832
156.125
164.693
173.54
182.666
192.071
201.753
211.706
221.922
232.39
243.093
254.013
265.128
276.411
287.831
299.356
310.947
322.566
334.169
345.71
357.14
368.41
379.469
390.265
400.745
410.86
420.562
429.805
438.543
446.736
454.343
461.312
467.616
473.233
478.167
482.413
485.967
488.832
491.019
492.545
493.417
493.671
493.339
492.526
491.331
489.883
488.229
486.489
484.761
483.123
481.726
480.678
480.092
480.073
480.711
482.088
484.28
487.309
491.14
495.693
500.86
506.497
512.41
518.343
523.998
529.039
533.1
535.837
536.946
536.086
532.977
527.349
518.937
507.79
494.17
478.373
460.754
441.689
421.567
400.774
379.658
358.534
337.661
317.256
297.465
278.377
260.055
242.561
225.95
210.265
195.53
181.75
168.92
157.018
146.014
135.864
126.518
117.924
110.035
102.803
96.1773
90.1105
84.5566
79.4759
74.8318
70.5913
66.7279
63.2066
59.9938
57.064
54.3957
51.9766
49.8009
47.8701
46.1992
44.815
43.7747
43.1642
43.1251
43.817
45.5278
48.2822
51.6427
0
4.07324
7.2774
9.87389
11.4719
12.5685
13.3423
13.8667
14.1976
14.3796
14.442
14.4063
14.2895
14.1074
13.8748
13.6066
13.3178
13.0241
12.7426
12.4927
12.2959
12.1755
12.1547
12.256
12.5001
12.9068
13.4948
14.2828
15.2892
16.5322
18.0295
19.798
21.8531
24.2079
26.8731
29.8564
33.1625
36.7931
40.7472
45.0215
49.6108
54.5089
59.7088
65.2032
70.9855
77.0497
83.3914
90.0079
96.8984
104.064
111.507
119.234
127.248
135.559
144.173
153.099
162.347
171.926
181.842
192.104
202.715
213.679
224.994
236.657
248.663
261
273.654
286.607
299.835
313.308
326.995
340.856
354.849
368.928
383.041
397.135
411.15
425.028
438.704
452.117
465.201
477.892
490.128
501.851
513.002
523.527
533.376
542.493
550.835
558.351
565.024
570.846
575.801
579.882
583.084
585.415
586.878
587.504
587.316
586.378
584.795
582.698
580.182
577.294
574.158
570.868
567.544
564.324
561.34
558.722
556.593
555.093
554.337
554.434
555.414
557.268
559.934
563.345
567.377
571.847
576.472
580.951
584.925
587.978
589.674
589.625
587.391
582.565
574.955
564.604
551.628
536.229
518.695
499.37
478.632
456.87
434.463
411.761
389.067
366.644
344.705
323.408
302.86
283.142
264.321
246.455
229.584
213.731
198.899
185.079
172.247
160.371
149.403
139.292
129.984
121.429
113.576
106.372
99.7674
93.7132
88.167
83.0897
78.4468
74.2094
70.3506
66.8291
63.6159
60.6893
58.0363
55.651
53.5363
51.708
50.1955
49.0514
48.3541
48.225
48.7838
50.2375
52.4688
55.084
0
4.40824
7.67273
10.3337
11.9414
12.9911
13.6752
14.0696
14.2399
14.2386
14.1036
13.8641
13.5461
13.1738
12.7708
12.3603
11.9642
11.6033
11.2973
11.065
10.9243
10.8931
10.9891
11.2299
11.6336
12.2182
13.0026
14.0061
15.2487
16.75
18.5294
20.6053
22.9943
25.7111
28.7673
32.1716
35.9296
40.0439
44.5142
49.3379
54.5111
60.0284
65.8838
72.0713
78.5856
85.4224
92.5793
100.056
107.854
115.977
124.431
133.225
142.367
151.867
161.737
171.99
182.637
193.69
205.16
217.056
229.383
242.146
255.343
268.972
283.026
297.49
312.349
327.579
343.152
359.033
375.18
391.549
408.085
424.731
441.426
458.102
474.688
491.112
507.296
523.164
538.637
553.638
568.094
581.931
595.081
607.479
619.063
629.778
639.571
648.384
656.201
662.999
668.763
673.479
677.135
679.735
681.263
681.772
681.31
679.965
677.833
675.028
671.608
667.671
663.311
658.641
653.783
648.875
644.059
639.488
635.321
631.719
628.839
626.788
625.629
625.362
625.969
627.393
629.542
632.255
635.226
638.114
640.553
642.067
642.131
640.248
636.042
629.276
619.829
607.696
592.986
575.886
556.689
535.735
513.403
490.08
466.14
441.932
417.755
393.872
370.499
347.803
325.907
304.903
284.865
265.849
247.896
231.025
215.235
200.515
186.838
174.167
162.453
151.643
141.681
132.514
124.089
116.351
109.248
102.728
96.7481
91.2656
86.2442
81.6536
77.47
73.6495
70.1614
66.9837
64.1027
61.5126
59.2165
57.2297
55.5806
54.3181
53.5101
53.2535
53.6303
54.7868
56.4981
58.4666
0
4.42236
7.47617
9.98031
11.469
12.4001
12.9633
13.2394
13.2992
13.1996
12.9832
12.6832
12.3278
11.9429
11.5528
11.1806
10.8478
10.574
10.3772
10.2734
10.2776
10.4043
10.6681
11.0843
11.6692
12.4406
13.4179
14.6214
16.0726
17.7931
19.8039
22.1252
24.7756
27.7711
31.1252
34.8479
38.9464
43.4245
48.2834
53.5224
59.139
65.1297
71.4907
78.218
85.3088
92.7618
100.578
108.759
117.311
126.243
135.562
145.283
155.418
165.981
176.987
188.453
200.394
212.825
225.761
239.212
253.186
267.686
282.714
298.264
314.33
330.894
347.938
365.434
383.347
401.637
420.253
439.141
458.237
477.473
496.773
516.058
535.244
554.242
572.962
591.313
609.203
626.54
643.236
659.208
674.376
688.663
702.003
714.337
725.597
735.741
744.733
752.555
759.196
764.63
768.848
771.81
773.556
774.123
773.599
772.057
769.598
766.296
762.238
757.502
752.188
746.399
740.265
733.92
727.517
721.217
715.174
709.566
704.592
700.375
697.005
694.519
692.916
692.16
692.23
692.958
694.021
695.003
695.448
694.838
692.735
688.732
682.502
673.787
662.482
648.562
632.124
613.338
592.512
569.96
546.059
521.203
495.77
470.101
444.501
419.228
394.506
370.505
347.364
325.182
304.033
283.972
265.038
247.246
230.592
215.063
200.625
187.238
174.851
163.409
152.855
143.134
134.188
125.963
118.403
111.456
105.076
99.2182
93.846
88.9266
84.4346
80.3274
76.5746
73.1542
70.0522
67.2621
64.7867
62.6397
60.8472
59.4518
58.51
58.0963
58.2565
59.0941
60.3086
61.7224
0
4.1624
6.79722
8.96949
10.2315
10.982
11.3981
11.5648
11.5564
11.4321
11.2354
10.9989
10.7482
10.5045
10.2863
10.1102
9.99106
9.94255
9.97694
10.1058
10.3402
10.6918
11.1733
11.7988
12.5848
13.5495
14.7134
16.0987
17.7288
19.6275
21.8181
24.3232
27.1634
30.3571
33.9195
37.8632
42.1973
46.9276
52.0577
57.589
63.5215
69.8544
76.5867
83.718
91.2488
99.1817
107.521
116.274
125.451
135.063
145.125
155.654
166.667
178.185
190.225
202.807
215.953
229.679
244.002
258.935
274.486
290.662
307.463
324.885
342.916
361.54
380.731
400.458
420.68
441.349
462.406
483.785
505.412
527.207
549.081
570.941
592.687
614.218
635.428
656.21
676.46
696.071
714.942
732.979
750.089
766.191
781.21
795.081
807.738
819.138
829.245
838.055
845.55
851.704
856.49
859.87
861.905
862.63
862.173
860.573
857.94
854.329
849.822
844.49
838.429
831.738
824.546
816.99
809.224
801.415
793.733
786.39
779.567
773.396
767.972
763.374
759.659
756.829
754.769
753.219
751.789
750.194
748.013
744.867
740.358
734.116
725.842
715.261
702.163
686.504
668.359
647.897
625.468
601.371
575.981
549.683
522.853
495.83
468.916
442.374
416.429
391.255
366.996
343.749
321.599
300.601
280.789
262.178
244.758
228.518
213.41
199.391
186.409
174.408
163.329
153.115
143.706
135.045
127.075
119.742
112.999
106.801
101.109
95.8886
91.1095
86.7326
82.7294
79.0783
75.7649
72.7819
70.1308
67.8232
65.8816
64.3417
63.248
62.6545
62.5774
63.0905
63.8425
64.7855
0
3.70886
5.8006
7.53186
8.49513
9.02044
9.26903
9.33151
9.28523
9.18985
9.08796
9.0082
8.96949
8.98411
9.0601
9.20308
9.41733
9.70665
10.075
10.5271
11.0691
11.7093
12.4583
13.3299
14.3408
15.5107
16.8617
18.4184
20.2067
22.2532
24.5843
27.2261
30.2009
33.5304
37.2327
41.3233
45.8145
50.7153
56.0322
61.7693
67.9303
74.5175
81.5338
88.983
96.8702
105.202
113.988
123.239
132.97
143.197
153.939
165.219
177.057
189.478
202.507
216.166
230.478
245.462
261.139
277.52
294.618
312.436
330.977
350.233
370.189
390.825
412.114
434.018
456.491
479.476
502.906
526.704
550.784
575.053
599.409
623.744
647.944
671.894
695.472
718.559
741.034
762.777
783.678
803.627
822.525
840.28
856.816
872.058
885.951
898.448
909.529
919.199
927.439
934.225
939.512
943.274
945.574
946.495
946.142
944.564
941.852
938.057
933.246
927.491
920.875
913.503
905.491
896.978
888.118
879.079
870.069
861.286
852.869
844.964
837.67
831.047
825.065
819.698
814.918
810.534
806.454
802.264
797.721
792.384
785.801
777.577
767.332
754.718
739.671
722.138
702.193
679.965
655.848
630.137
603.208
575.451
547.23
518.883
490.709
462.971
435.892
409.642
384.399
360.238
337.235
315.442
294.888
275.582
257.508
240.657
224.975
210.415
196.923
184.443
172.912
162.276
152.468
143.428
135.1
127.428
120.365
113.864
107.887
102.398
97.3586
92.7355
88.5019
84.6371
81.1259
77.9604
75.1403
72.6745
70.5815
68.8893
67.6311
66.8437
66.5204
66.7159
67.0461
67.5927
0
3.15522
4.6694
5.92013
6.55144
6.82808
6.8989
6.86157
6.7973
6.76638
6.80883
6.94741
7.19198
7.54337
7.99682
8.54475
9.17859
9.89034
10.6737
11.5252
12.4445
13.4353
14.5058
15.6688
16.9413
18.344
19.9016
21.6421
23.5941
25.7884
28.255
31.0243
34.1219
37.5729
41.3989
45.6187
50.2478
55.2986
60.7812
66.7039
73.0743
79.8998
87.1878
94.9465
103.185
111.915
121.148
130.902
141.195
152.048
163.485
175.532
188.214
201.565
215.605
230.361
245.858
262.115
279.153
296.983
315.62
335.067
355.322
376.376
398.212
420.807
444.129
468.137
492.776
517.982
543.679
569.778
596.182
622.783
649.468
676.116
702.598
728.785
754.543
779.736
804.231
827.9
850.615
872.261
892.726
911.923
929.752
946.146
961.06
974.437
986.299
996.653
1005.49
1012.78
1018.46
1022.5
1025.04
1026.13
1025.89
1024.36
1021.61
1017.7
1012.67
1006.59
999.55
991.638
982.967
973.666
963.881
953.767
943.523
933.296
923.233
913.396
903.866
894.794
886.294
878.451
871.156
864.463
857.939
851.369
844.288
836.383
827.333
816.74
804.186
789.565
772.598
753.227
731.522
707.663
681.962
654.76
626.437
597.374
567.932
538.437
509.186
480.438
452.416
425.304
399.225
374.294
350.582
328.135
306.977
287.111
268.513
251.2
235.07
220.083
206.186
193.32
181.419
170.434
160.294
150.938
142.309
134.351
127.016
120.26
114.041
108.316
103.051
98.2116
93.774
89.7178
86.0275
82.6941
79.7155
77.0979
74.8552
73.0082
71.5799
70.5928
70.0246
69.9181
69.8697
70.0853
0
2.58722
3.55307
4.34398
4.64764
4.67783
4.57756
4.45411
4.393
4.45502
4.67669
5.07377
5.64588
6.38232
7.26526
8.2738
9.38634
10.5828
11.846
13.1635
14.5278
15.9372
17.3961
18.9161
20.5138
22.2126
24.0392
26.0255
28.2013
30.6015
33.2593
36.2077
39.4772
43.0985
47.0976
51.4981
56.3202
61.5814
67.2965
73.4791
80.1416
87.2961
94.9544
103.129
111.834
121.083
130.896
141.29
152.287
163.911
176.188
189.145
202.811
217.212
232.374
248.326
265.092
282.694
301.151
320.478
340.689
361.781
383.751
406.589
430.267
454.766
480.046
506.061
532.75
560.04
587.845
616.065
644.591
673.303
702.077
730.776
759.264
787.394
815.022
842.003
868.191
893.448
917.638
940.637
962.341
982.627
1001.4
1018.61
1034.18
1048.11
1060.44
1071.2
1080.38
1087.93
1093.8
1097.93
1100.56
1101.69
1101.45
1099.85
1096.99
1092.86
1087.53
1081.07
1073.53
1065.03
1055.65
1045.53
1034.77
1023.52
1011.87
999.99
988.035
976.181
964.595
953.357
942.743
932.639
923.069
913.769
904.544
895.259
885.538
875.279
863.951
851.15
836.518
819.79
800.814
779.537
756.048
730.537
703.311
674.71
645.111
614.885
584.381
553.916
523.777
494.216
465.451
437.653
410.967
385.485
361.274
338.372
316.794
296.537
277.566
259.903
243.445
228.15
213.958
200.808
188.637
177.405
167.018
157.42
148.557
140.374
132.822
125.855
119.436
113.518
108.065
103.046
98.4366
94.2175
90.3717
86.8894
83.7671
81.0083
78.6226
76.6242
75.0269
73.8426
73.0383
72.651
72.2673
72.2102
0
2.07161
2.55499
2.94027
2.9431
2.7479
2.50082
2.31985
2.29583
2.48903
2.93095
3.62939
4.57422
5.7438
7.10856
8.63588
10.2927
12.0479
13.8748
15.7519
17.6647
19.6067
21.5785
23.5889
25.6517
27.7912
30.0357
32.4174
34.973
37.7415
40.7619
44.073
47.7115
51.7116
56.1047
60.9192
66.1809
71.9131
78.1365
84.8701
92.1311
99.9358
108.3
117.239
126.77
136.909
147.676
159.091
171.176
183.954
197.451
211.693
226.707
242.519
259.153
276.633
294.979
314.209
334.339
355.38
377.336
400.207
423.991
448.664
474.212
500.602
527.789
555.722
584.331
613.538
643.245
673.344
703.708
734.213
764.718
795.081
825.143
854.757
883.769
912.022
939.367
965.653
990.746
1014.52
1036.84
1057.6
1076.69
1094.03
1109.61
1123.45
1135.61
1146.14
1155.06
1162.28
1167.74
1171.41
1173.61
1174.26
1173.51
1171.36
1167.87
1163.05
1156.95
1149.63
1141.15
1131.57
1120.98
1109.51
1097.27
1084.44
1071.21
1057.64
1043.91
1030.29
1016.85
1003.76
991.034
978.629
966.666
954.942
943.592
932.223
920.506
908.119
894.677
879.811
863.182
844.565
823.797
800.842
775.794
748.859
720.335
690.56
659.903
628.725
597.36
566.116
535.271
505.071
475.728
447.415
420.264
394.368
369.787
346.552
324.671
304.134
284.917
266.997
250.309
234.794
220.388
207.032
194.653
183.215
172.632
162.846
153.805
145.449
137.729
130.605
124.031
117.959
112.355
107.19
102.437
98.0795
94.1001
90.4876
87.237
84.3491
81.8294
79.6853
77.9247
76.5513
75.5241
74.8804
74.2014
73.9274
0
1.65975
1.7965
1.87446
1.65109
1.29947
0.975734
0.808238
0.88942
1.27535
1.9904
3.03427
4.38886
6.0243
7.9042
9.98881
12.2378
14.613
17.0809
19.6133
22.1901
24.7998
27.4397
30.1147
32.84
35.6399
38.5461
41.5941
44.8241
48.2782
51.9995
56.0308
60.4137
65.1881
70.3907
76.0556
82.2137
88.8931
96.1189
103.914
112.298
121.288
130.903
141.156
152.063
163.639
175.903
188.869
202.558
216.987
232.177
248.142
264.909
282.493
300.913
320.183
340.318
361.33
383.232
406.032
429.732
454.338
479.823
506.186
533.379
561.38
590.141
619.611
649.719
680.383
711.495
742.933
774.57
806.261
837.867
869.229
900.192
930.593
960.281
989.093
1016.87
1043.47
1068.75
1092.57
1114.8
1135.32
1153.99
1170.79
1185.7
1198.76
1210.08
1219.75
1227.76
1234.04
1238.47
1241.17
1242.39
1242.07
1240.25
1237.03
1232.36
1226.27
1218.8
1210.01
1199.96
1188.79
1176.55
1163.36
1149.32
1134.67
1119.41
1103.89
1088.2
1072.49
1056.74
1041.29
1026.12
1011.6
997.549
983.834
970.317
956.797
942.974
928.554
913.157
896.441
878.092
857.886
835.675
811.433
785.259
757.367
728.042
697.614
666.431
634.828
603.121
571.599
540.529
510.149
480.665
452.246
425.019
399.073
374.459
351.2
329.297
308.739
289.498
271.545
254.817
239.254
224.795
211.378
198.936
187.417
176.759
166.892
157.764
149.319
141.505
134.284
127.615
121.448
115.749
110.487
105.638
101.185
97.1075
93.3949
90.0414
87.0449
84.4071
82.1321
80.2218
78.6738
77.443
76.5708
75.6325
75.1993
0
1.3769
1.32546
1.22499
0.878969
0.472812
0.176171
0.12046
0.392815
1.04057
2.08042
3.50684
5.29843
7.42366
9.84494
12.5222
15.415
18.4833
21.6926
25.0121
28.4206
31.9056
35.4644
39.1025
42.8351
46.6864
50.6889
54.8801
59.3021
63.9984
69.0147
74.3961
80.1873
86.4289
93.1614
100.418
108.234
116.634
125.644
135.286
145.577
156.531
168.161
180.477
193.486
207.194
221.609
236.735
252.586
269.17
286.484
304.546
323.357
342.932
363.273
384.387
406.276
428.95
452.415
476.679
501.747
527.615
554.28
581.717
609.9
638.8
668.378
698.584