/*--------------------------------*- C++ -*----------------------------------*\
  =========                 |
  \\      /  F ield         | OpenFOAM: The Open Source CFD Toolbox
   \\    /   O peration     | Website:  https://openfoam.org
    \\  /    A nd           | Version:  9
     \\/     M anipulation  |
\*---------------------------------------------------------------------------*/
FoamFile
{
    format      ascii;
    class       volScalarField;
    location    "7.11";
    object      nut;
}
// * * * * * * * * * * * * * * * * * * * * * * * * * * * * * * * * * * * * * //

dimensions      [0 2 -1 0 0 0 0];

internalField   nonuniform List<scalar> 
2268
(
1.09662e-05
1.27485e-05
1.54431e-05
1.72569e-05
1.86118e-05
1.96788e-05
2.05462e-05
2.12645e-05
2.18654e-05
2.23778e-05
2.28286e-05
2.32294e-05
2.35819e-05
2.38576e-05
2.39704e-05
2.37509e-05
2.29235e-05
2.16952e-05
2.03042e-05
1.90392e-05
1.77367e-05
1.574e-05
1.10192e-05
2.51503e-05
0.000101792
0.000136903
0.000159481
0.000176043
0.000189051
0.000199737
0.000208767
0.000216463
0.000222875
0.000228107
0.000232673
0.00023656
0.00023935
0.000240076
0.000237145
0.000228542
0.000209154
0.000189765
0.000173406
0.000160812
0.000119751
3.46059e-05
3.00306e-05
0.000175267
0.000256136
0.000308735
0.000347244
0.00037729
0.000401705
0.000422046
0.000439163
0.000453407
0.000465141
0.000475126
0.000483302
0.000488782
0.000489666
0.00048284
0.000464003
0.000428924
0.000392098
0.000355047
0.000306216
0.000201947
4.09928e-05
3.36576e-05
0.000228448
0.000352581
0.0004354
0.000496458
0.000544083
0.000582582
0.000614387
0.000640902
0.00066286
0.00068092
0.00069594
0.000707831
0.000715381
0.000716087
0.000705948
0.000679536
0.000633917
0.000582642
0.000522723
0.000432515
0.000269637
4.66178e-05
3.65465e-05
0.000269035
0.000431372
0.000542472
0.000625171
0.000689868
0.000742094
0.000785047
0.000820643
0.000849994
0.00087399
0.000893572
0.000908655
0.000917863
0.000918391
0.000905897
0.000874781
0.000822263
0.000758963
0.000677156
0.000548719
0.000333301
5.22353e-05
3.89835e-05
0.000301662
0.000497196
0.000634039
0.000736923
0.00081778
0.000883111
0.000936743
0.000981035
0.00101744
0.00104702
0.0010708
0.00108876
0.00109947
0.00110005
0.00108615
0.00105253
0.000995831
0.00092308
0.00082263
0.000661573
0.000394872
5.86165e-05
4.11313e-05
0.000329011
0.000553433
0.000713445
0.000834884
0.000930823
0.00100852
0.00107229
0.00112486
0.00116799
0.00120286
0.0012306
0.00125128
0.00126352
0.00126451
0.0012501
0.00121544
0.00115695
0.00107769
0.000963498
0.000776675
0.000458739
6.67246e-05
4.30914e-05
0.000352677
0.000602466
0.000783266
0.000921642
0.00103155
0.00112081
0.00119416
0.00125458
0.00130409
0.00134403
0.00137558
0.00139893
0.00141284
0.00141467
0.00140057
0.00136609
0.00130778
0.00122533
0.00110361
0.000902207
0.000545366
7.83944e-05
1.14587e-05
1.78795e-05
2.08323e-05
2.21209e-05
2.28127e-05
2.31156e-05
2.33297e-05
2.34656e-05
2.32527e-05
2.22189e-05
2.0709e-05
1.89151e-05
1.71032e-05
1.67718e-05
1.75231e-05
1.74257e-05
1.52662e-05
1.2797e-05
1.27904e-05
3.60039e-05
0.00014065
0.000188596
0.000211382
0.000221821
0.000226229
0.00022733
0.000225621
0.000218821
0.000203601
0.000176202
0.000155536
0.00014014
0.000139931
0.000157886
0.000153948
0.000130475
9.47204e-05
2.71009e-05
4.04772e-05
0.000237081
0.000355269
0.00041757
0.000447768
0.000460655
0.000464247
0.000460713
0.000446077
0.000413863
0.000364582
0.000323427
0.00029318
0.000287078
0.000307739
0.000295259
0.000240095
0.000154087
3.07971e-05
4.57811e-05
0.000299199
0.000487381
0.000593048
0.000646515
0.000670393
0.000677879
0.000673436
0.000652934
0.000608569
0.000545457
0.000489658
0.000447462
0.000431125
0.000441812
0.000415024
0.000329785
0.000196151
3.44366e-05
5.17108e-05
0.00034935
0.000598237
0.000744356
0.000820449
0.000855655
0.000867541
0.000862888
0.000838475
0.000786667
0.000715396
0.00064989
0.000597843
0.000569284
0.000563955
0.000519335
0.000408118
0.000234916
3.79389e-05
5.87411e-05
0.000399912
0.000700891
0.000880882
0.000976193
0.0010214
0.00103735
0.00103278
0.0010059
0.000950226
0.000874649
0.000802842
0.000742403
0.000701076
0.000677133
0.000613202
0.000480544
0.000276457
4.12767e-05
6.81742e-05
0.00045931
0.00080595
0.0010103
0.00111948
0.00117227
0.00119133
0.00118675
0.0011583
0.0011012
0.00102397
0.000948008
0.000880243
0.00082641
0.000782787
0.000699195
0.00054793
0.00032027
4.46124e-05
8.25292e-05
0.000545552
0.000922998
0.00113804
0.00125447
0.00131184
0.00133274
0.00132783
0.00129824
0.00124104
0.00116419
0.00108533
0.00101098
0.000945069
0.000881678
0.000778685
0.000608765
0.000360828
4.82775e-05
4.59448e-05
0.000385524
0.000670533
0.00088059
0.00104326
0.00117357
0.00128002
0.00136771
0.00144001
0.00149923
0.00154696
0.00158417
0.00161146
0.0016279
0.0016314
0.00161895
0.001587
0.00153176
0.00144946
0.00132645
0.00113161
0.000819635
0.000395102
4.93564e-05
0.000422429
0.000746292
0.000987995
0.00117737
0.00133061
0.00145685
0.00156127
0.00164753
0.00171843
0.00177586
0.00182097
0.00185418
0.00187533
0.00188319
0.00187582
0.00185085
0.00180531
0.00173454
0.00162969
0.00147367
0.00124819
0.000961236
5.26926e-05
0.00045507
0.000815435
0.0010825
0.00129341
0.00146563
0.00160879
0.00172748
0.00182555
0.00190664
0.00197296
0.00202573
0.00206553
0.00209236
0.00210585
0.00210503
0.00208863
0.00205477
0.002
0.00191933
0.00180591
0.00165763
0.00149081
5.64034e-05
0.000486655
0.000888884
0.00117307
0.00139997
0.00158713
0.0017449
0.0018755
0.00198287
0.00207266
0.00214732
0.00220776
0.00225434
0.0022875
0.00230748
0.0023138
0.00230596
0.00228295
0.00224244
0.00218439
0.00210727
0.00201312
0.00191783
5.88253e-05
0.000525641
0.000961453
0.00124643
0.00148868
0.00168839
0.00185898
0.00200326
0.00212032
0.00221935
0.00230331
0.00237282
0.00242759
0.00246806
0.00249508
0.00250843
0.00250789
0.00249368
0.00246504
0.00242463
0.00237393
0.0023152
0.00226054
6.18123e-05
0.000521734
0.000936401
0.00126014
0.00153512
0.0017522
0.00193811
0.00209926
0.00223208
0.0023439
0.00243864
0.00251773
0.00258159
0.00263144
0.00266719
0.00268654
0.00269171
0.00268498
0.00266651
0.0026404
0.00260989
0.00257661
0.00255078
0.000294392
0.000536234
0.000941839
0.00127165
0.0015642
0.0018019
0.00200801
0.0021844
0.002331
0.00245469
0.00255938
0.00264703
0.00271875
0.00277648
0.00282071
0.00284908
0.00286256
0.00286439
0.00285698
0.00284235
0.00282617
0.00281015
0.00280014
0.000296041
0.000534262
0.000950779
0.00129584
0.00159813
0.00185258
0.0020725
0.00226083
0.00242014
0.00255523
0.00266971
0.00276594
0.00284572
0.00291168
0.00296441
0.00300222
0.00302552
0.00303671
0.00303882
0.00303429
0.00302778
0.00302311
0.00302095
0.00029592
0.000539119
0.000966649
0.00132819
0.00163996
0.00190542
0.00213471
0.00233244
0.00250197
0.00264722
0.00277123
0.00287629
0.00296468
0.00303912
0.00310021
0.00314684
0.00317946
0.00320033
0.00321165
0.00321627
0.00321812
0.00322022
0.00322249
6.9627e-05
0.000540222
0.000986552
0.00136403
0.00168541
0.00195968
0.00219662
0.00240202
0.00257994
0.00273396
0.00286673
0.00298045
0.00307748
0.00316009
0.00322904
0.00328386
0.00332526
0.00335504
0.00337515
0.00338792
0.00339658
0.00340343
0.00340859
6.96199e-05
0.0005468
0.00100819
0.00139955
0.00173081
0.00201362
0.00225799
0.00247054
0.00265596
0.00281781
0.00295858
0.00308042
0.00318551
0.00327568
0.00335178
0.00341411
0.00346348
0.00350133
0.00352926
0.00354917
0.0035636
0.00357434
0.00358169
0.000295252
0.000555776
0.00102832
0.00143221
0.00177376
0.00206553
0.00231777
0.00253767
0.00273035
0.00289947
0.00304759
0.00317684
0.00328926
0.00338641
0.00346909
0.00353817
0.00359459
0.00363948
0.00367419
0.00370028
0.00371969
0.00373384
0.00374303
0.000295214
0.000560571
0.00104585
0.00146137
0.00181337
0.00211453
0.00237515
0.00260275
0.00280268
0.00297876
0.0031337
0.00326974
0.00338876
0.00349223
0.00358111
0.00365625
0.00371878
0.00376974
0.00381026
0.00384162
0.00386531
0.00388241
0.00389317
0.000296272
0.000566954
0.00106115
0.00148763
0.00184998
0.00216064
0.00242991
0.00266538
0.00287254
0.00305533
0.0032167
0.00335896
0.00348397
0.00359315
0.0036876
0.00376827
0.00383615
0.00389229
0.00393772
0.00397352
0.00400082
0.00402041
0.00403246
0.0002953
0.000567696
0.00107493
0.00151202
0.00188444
0.00220447
0.0024823
0.00272556
0.00293977
0.00312902
0.00329644
0.00344442
0.00357484
0.00368917
0.00378857
0.00387406
0.00394663
0.00400721
0.00405676
0.00409623
0.00412649
0.00414815
0.00416127
0.000296369
0.000574171
0.00108881
0.00153565
0.00191765
0.00224668
0.00253278
0.00278351
0.00300445
0.00319983
0.00337287
0.00352606
0.00366133
0.00378021
0.00388393
0.00397357
0.0040501
0.00411443
0.00416742
0.0042099
0.00424259
0.00426594
0.00428
0.000296413
0.000578119
0.00110231
0.00155891
0.00195017
0.0022878
0.00258172
0.00283949
0.00306676
0.00326782
0.003446
0.00360384
0.00374337
0.00386619
0.00397359
0.00406671
0.00414652
0.00421393
0.00426974
0.00431469
0.00434938
0.00437417
0.00438913
6.97344e-05
0.000578748
0.00111616
0.00158227
0.00198236
0.00232811
0.00262938
0.00289371
0.00312681
0.00333305
0.0035158
0.00367772
0.00382089
0.003947
0.00405744
0.00415338
0.00423584
0.00430572
0.00436381
0.00441078
0.00444715
0.00447325
0.00448915
6.973e-05
0.000580335
0.00113031
0.00160578
0.00201433
0.00236776
0.0026759
0.00294627
0.00318466
0.00339549
0.00358221
0.00374757
0.00389374
0.0040225
0.00413534
0.00423348
0.00431801
0.00438984
0.00444976
0.00449841
0.00453629
0.00456368
0.00458069
0.000295602
0.000591187
0.00114528
0.00162937
0.00204606
0.00240677
0.00272128
0.00299716
0.00324024
0.00345504
0.0036451
0.00381324
0.00396177
0.00409256
0.00420718
0.00430697
0.00439306
0.00446641
0.00452784
0.00457798
0.00461731
0.0046461
0.0046645
6.97889e-05
0.000593234
0.00115988
0.00165293
0.00207751
0.00244509
0.00276546
0.00304628
0.00329344
0.00351156
0.00370429
0.00387458
0.00402483
0.00415704
0.00427291
0.00437387
0.00446113
0.00453571
0.00459846
0.00465004
0.00469093
0.00472139
0.00474158
0.00029684
0.000601545
0.00117438
0.00167644
0.00210863
0.00248262
0.00280832
0.00309347
0.00334408
0.00356487
0.00375962
0.00393141
0.00408279
0.00421591
0.00433257
0.00443433
0.0045225
0.00459817
0.00466224
0.00471539
0.00475811
0.00479066
0.00481318
6.98387e-05
0.000602617
0.00118946
0.00169997
0.0021393
0.00251921
0.00284969
0.00313857
0.00339198
0.00361478
0.00381091
0.00398362
0.00413562
0.0042692
0.00438633
0.00448868
0.00457766
0.00465447
0.00472004
0.00477509
0.00482009
0.0048553
0.00488082
6.96731e-05
0.000608175
0.00120472
0.00172329
0.00216935
0.00255468
0.00288937
0.00318136
0.00343693
0.00366113
0.00385807
0.00403119
0.00418338
0.00431712
0.00443453
0.00453743
0.00462734
0.00470553
0.00477299
0.00483044
0.00487837
0.00491699
0.00494634
6.99265e-05
0.000615638
0.00121992
0.00174617
0.00219856
0.00258882
0.00292714
0.00322164
0.00347877
0.0037038
0.00390105
0.00407418
0.00422628
0.00436003
0.00447773
0.00458133
0.00467248
0.00475251
0.00482246
0.00488305
0.00493472
0.00497764
0.00501176
6.97348e-05
0.000620849
0.00123476
0.00176847
0.00222675
0.00262141
0.00296279
0.00325921
0.00351736
0.00374273
0.00393991
0.00411278
0.00426468
0.00439848
0.00451667
0.00462135
0.00471427
0.00479683
0.00487008
0.00493471
0.00499112
0.00503937
0.00507932
0.000296403
0.000630512
0.00124937
0.00179004
0.0022537
0.0026522
0.00299609
0.0032939
0.0035526
0.00377795
0.00397482
0.00414735
0.00429911
0.00443322
0.00455232
0.00465867
0.00475412
0.0048401
0.00491764
0.00498741
0.00504969
0.00510442
0.00515135
6.97893e-05
0.000633446
0.00126344
0.00181065
0.00227914
0.00268091
0.00302675
0.0033255
0.00358442
0.00380956
0.00400606
0.00417835
0.00433026
0.00446513
0.0045858
0.00469464
0.00479357
0.00488405
0.00496707
0.00504321
0.00511262
0.00517508
0.00523016
7.00837e-05
0.000640963
0.00127703
0.00182997
0.00230259
0.0027071
0.0030545
0.0033539
0.00361286
0.00383775
0.00403401
0.00420637
0.00435893
0.00449525
0.00461833
0.00473067
0.00483424
0.00493048
0.00502032
0.00510419
0.00518208
0.00525358
0.00531803
0.000296738
0.000648802
0.00128931
0.00184735
0.0023236
0.00273044
0.00307909
0.00337898
0.00363797
0.00386277
0.00405913
0.00423208
0.00438599
0.00452461
0.00465115
0.00476818
0.0048777
0.0049811
0.00507921
0.00517229
0.00526011
0.00534201
0.00541709
6.98657e-05
0.000650337
0.00129979
0.0018623
0.00234164
0.00275043
0.00310017
0.00340057
0.00365981
0.0038849
0.00408191
0.00425616
0.00441228
0.00455425
0.00468543
0.00480847
0.00492537
0.00503747
0.00514543
0.0052493
0.00534859
0.00544232
0.00552927
6.99134e-05
0.00065426
0.0013079
0.00187401
0.00235591
0.0027664
0.00311727
0.00341845
0.00367841
0.0039044
0.00410281
0.00427923
0.00443857
0.00458504
0.00472213
0.00485259
0.00497842
0.00510084
0.00522036
0.00533675
0.00544916
0.00555625
0.0056564
7.01834e-05
0.000656885
0.00131253
0.0018813
0.00236527
0.00277742
0.00312974
0.00343231
0.00369373
0.00392149
0.00412221
0.0043018
0.00446544
0.00461759
0.00476191
0.00490126
0.00503762
0.00517213
0.00530507
0.00543589
0.00556331
0.00568546
0.00580023
6.99576e-05
0.000654887
0.00131231
0.00188248
0.00236802
0.0027821
0.00313666
0.00344167
0.00370567
0.00393627
0.00414037
0.00432418
0.00449321
0.0046522
0.00480504
0.00495472
0.00510328
0.00525178
0.00540025
0.00554774
0.00569238
0.00583161
0.00596259
7.01877e-05
0.000651444
0.00130552
0.00187485
0.00236151
0.00277842
0.00313676
0.00344587
0.00371399
0.00394877
0.00415739
0.00434644
0.00452185
0.00468872
0.00485125
0.00501267
0.00517514
0.0053397
0.00550616
0.00567307
0.00583774
0.00599658
0.00614569
6.9931e-05
0.000642026
0.00128836
0.00185357
0.00234153
0.00276347
0.0031284
0.00344416
0.00371843
0.0039589
0.00417317
0.00436837
0.00455095
0.00472652
0.00489971
0.00507412
0.00525221
0.00543515
0.00562258
0.00581244
0.00600091
0.00618277
0.00635246
6.98612e-05
0.000625101
0.00125207
0.00180964
0.00230149
0.00273337
0.00310967
0.00343579
0.00371873
0.00396652
0.00418745
0.00438946
0.00457971
0.00476445
0.00494893
0.00513732
0.00533265
0.00553649
0.00574857
0.00596618
0.00618383
0.00639366
0.00658716
0.000296766
0.000591532
0.0011774
0.00172731
0.00223193
0.00268364
0.00307894
0.00342038
0.00371489
0.00397154
0.00419988
0.00440898
0.00460695
0.00480088
0.00499678
0.00519968
0.00541353
0.00564087
0.00588203
0.00613401
0.00638909
0.00663465
0.00685638
6.97877e-05
0.000493714
0.00102588
0.00158312
0.00212212
0.00261081
0.00303591
0.00339852
0.00370741
0.00397405
0.00421005
0.00442603
0.00463127
0.0048338
0.00504056
0.0052577
0.00549058
0.00574352
0.00601873
0.00631418
0.00661999
0.006915
0.00717084
8.74058e-05
0.000291419
0.000756439
0.00135694
0.0019672
0.00251669
0.00298369
0.00337264
0.00369763
0.00397446
0.00421765
0.0044397
0.00465115
0.004861
0.00507719
0.00530712
0.00555802
0.00583703
0.00615041
0.00650076
0.00687968
0.00725284
0.00754866
0.000189564
0.00013279
0.000421911
0.0010674
0.00178446
0.00241546
0.00293153
0.00334785
0.00368798
0.0039736
0.00422254
0.00444919
0.00466521
0.00488043
0.00510363
0.00534339
0.0056089
0.00591081
0.00626202
0.00667704
0.00716475
0.00769134
0.0080205
0.000413199
0.000139364
0.000204872
0.000815814
0.00163501
0.00234084
0.00289603
0.00333174
0.00368169
0.00397261
0.00422483
0.00445398
0.00467243
0.0048905
0.00511746
0.0053626
0.00563641
0.00595233
0.00632993
0.00680177
0.00743093
0.00835834
0.00863144
8.13079e-05
7.59876e-05
7.55337e-05
7.9803e-05
0.000747067
0.000711847
0.000710161
0.000741305
0.00139366
0.00136269
0.00135884
0.00138171
0.00186934
0.00185124
0.00184714
0.00185693
0.00223439
0.00222479
0.00222285
0.0022279
0.00253775
0.00253239
0.00253131
0.00253412
0.00279471
0.0027925
0.00279233
0.00279397
0.00301988
0.00301971
0.00302023
0.0030212
0.00322354
0.00322417
0.00322476
0.0032251
0.00341076
0.00341164
0.00341199
0.00341161
0.00358436
0.00358519
0.00358512
0.00358396
0.00374592
0.00374656
0.00374597
0.00374399
0.00389618
0.0038966
0.0038955
0.00389276
0.00403556
0.00403579
0.00403428
0.00403091
0.00416446
0.00416457
0.00416276
0.00415894
0.00428336
0.00428345
0.00428147
0.00427739
0.00439277
0.00439295
0.00439099
0.00438684
0.00449326
0.00449369
0.00449192
0.00448793
0.0045855
0.00458637
0.00458501
0.00458141
0.00467032
0.00467185
0.00467116
0.00466823
0.00474879
0.00475126
0.00475153
0.00474958
0.00482225
0.00482599
0.00482755
0.00482693
0.00489233
0.00489769
0.00490094
0.00490203
0.0049609
0.00496832
0.00497366
0.00497689
0.00503009
0.00504001
0.00504791
0.00505373
0.00510219
0.0051151
0.00512601
0.00513488
0.00517954
0.00519593
0.00521036
0.00522274
0.00526451
0.00528489
0.00530329
0.00531964
0.00535934
0.0053842
0.00540706
0.0054278
0.00546616
0.00549597
0.00552371
0.00554923
0.00558688
0.0056221
0.00565511
0.00568577
0.00572332
0.00576435
0.00580299
0.00583907
0.0058772
0.00592445
0.00596902
0.00601072
0.0060504
0.00610422
0.00615494
0.00620237
0.00624513
0.00630583
0.00636282
0.00641591
0.00646431
0.0065321
0.00659527
0.00665369
0.00671209
0.00678689
0.00685577
0.00691873
0.00699455
0.0070757
0.00714904
0.00721486
0.00732077
0.00740616
0.00748115
0.00754666
0.00770405
0.00778828
0.00785907
0.00791858
0.00816187
0.00823251
0.00828808
0.00833235
0.00870813
0.00874094
0.0087641
0.00878121
0.000414862
0.000817956
0.00113522
0.00133839
0.00145615
0.00151665
0.00153873
0.00153255
0.00150141
0.0014461
0.00137131
0.00128935
0.00120508
0.00112034
0.00102635
0.000892804
0.000694421
0.000409526
5.27832e-05
0.000953647
0.00123067
0.00145635
0.00161525
0.00171489
0.00176817
0.00178628
0.00177656
0.00174279
0.00168739
0.00161344
0.00152741
0.00142948
0.0013203
0.00119141
0.00102125
0.000784643
0.000452714
5.63135e-05
0.00146906
0.00162774
0.00177397
0.00188687
0.00196196
0.00200235
0.00201313
0.00199846
0.00196095
0.00190313
0.00182896
0.00173843
0.00162521
0.00149015
0.00132825
0.00112399
0.00085204
0.000482395
5.73394e-05
0.00189425
0.00198035
0.00207037
0.00214531
0.00219622
0.00222161
0.00222313
0.00220244
0.00216049
0.0020989
0.0020208
0.00192378
0.00179247
0.001632
0.0014389
0.00120212
0.000897422
0.000494406
5.9326e-05
0.00224557
0.00229071
0.00234291
0.00238826
0.00241664
0.00242529
0.00241555
0.0023872
0.00233861
0.00226831
0.00217812
0.00206921
0.0019282
0.00174685
0.00153024
0.00126284
0.000925748
0.00049918
6.0871e-05
0.00254302
0.00256512
0.00259085
0.00260902
0.00261752
0.00261124
0.00258891
0.00254847
0.00248857
0.00240711
0.00230435
0.00218449
0.00202914
0.00184012
0.0016096
0.00132105
0.000954995
0.000493527
6.05675e-05
0.00279852
0.00280756
0.00281331
0.00281261
0.00280404
0.00278388
0.00274874
0.00269388
0.00261886
0.00252364
0.00240749
0.00227123
0.00210827
0.0019146
0.0016794
0.00138362
0.00100947
0.000533151
0.000282637
0.0030228
0.00302198
0.00301465
0.00299953
0.00297629
0.00294288
0.00289371
0.00282344
0.00273298
0.00262305
0.002493
0.00234297
0.00216766
0.00196408
0.00172092
0.00142174
0.00104478
0.000564662
6.99122e-05
0.00322451
0.00321685
0.00320003
0.00317346
0.00313735
0.00309048
0.0030263
0.00294065
0.0028348
0.00270923
0.00256327
0.00239682
0.00220735
0.00199119
0.00173783
0.00143297
0.00105218
0.000564587
6.98845e-05
0.00340912
0.00339642
0.00337253
0.00333677
0.00328935
0.00322921
0.0031506
0.00305056
0.00292951
0.00278737
0.00262291
0.0024362
0.00222956
0.00199822
0.00173108
0.00141876
0.00103735
0.000558754
0.000296332
0.00357965
0.00356272
0.00353309
0.00348984
0.00343274
0.00336075
0.00326948
0.00315636
0.00302119
0.00286313
0.00268043
0.00247255
0.00224224
0.00198801
0.00170455
0.00138329
0.0010037
0.000542518
0.000295729
0.0037379
0.00371728
0.0036827
0.00363318
0.00356813
0.00348637
0.0033846
0.00326048
0.00311304
0.0029408
0.00274173
0.00251442
0.00225917
0.00197663
0.00166776
0.00132982
0.000949664
0.000513391
0.000295334
0.00388508
0.0038613
0.00382261
0.00376798
0.00369667
0.0036073
0.00349732
0.00336451
0.00320719
0.00302335
0.00281063
0.00256678
0.00229022
0.00198114
0.00164334
0.00128045
0.000894257
0.000484006
6.96624e-05
0.00402192
0.00399564
0.00395382
0.00389537
0.00381939
0.00372447
0.00360849
0.00346925
0.00330461
0.00311219
0.00288924
0.00263288
0.00234057
0.00201119
0.00164741
0.00125717
0.000855572
0.000462793
6.94852e-05
0.004149
0.0041209
0.00407692
0.00401591
0.00393682
0.00383825
0.00371831
0.00357481
0.00340542
0.00320749
0.002978
0.00271365
0.00241115
0.00206808
0.00168512
0.00127024
0.000845606
0.000454028
0.000294784
0.00426687
0.00423766
0.00419242
0.00412999
0.0040492
0.00394867
0.00382661
0.0036809
0.00350913
0.00330855
0.00307595
0.00280774
0.00250004
0.00214925
0.00175371
0.00131815
0.000864589
0.000446739
0.000294508
0.00437613
0.0043465
0.00430085
0.004238
0.00415676
0.00405572
0.00393317
0.00378705
0.00361497
0.00341414
0.00318132
0.00291275
0.00260415
0.00225095
0.00184921
0.0013986
0.000912187
0.000440508
6.90489e-05
0.00447744
0.0044481
0.00440283
0.00434049
0.00425987
0.00415956
0.00403788
0.00389283
0.00372208
0.00352287
0.00329198
0.00302563
0.00271939
0.00236822
0.00196688
0.00151132
0.00100486
0.000481566
7.0554e-05
0.00457158
0.00454325
0.00449916
0.0044382
0.00435915
0.0042606
0.00414088
0.00399806
0.00382982
0.00363348
0.00340586
0.00314317
0.00284094
0.00249396
0.00209638
0.00164226
0.00112787
0.000563339
7.6131e-05
0.00465956
0.00463298
0.00459087
0.00453212
0.0044555
0.00435956
0.00424267
0.00410288
0.00393792
0.00374511
0.00352126
0.00326254
0.0029643
0.00262088
0.00222541
0.00176947
0.00124251
0.000641441
8.15725e-05
0.00474261
0.00471859
0.00467927
0.00462354
0.0045501
0.00445752
0.0043441
0.00420788
0.00404659
0.0038575
0.00363733
0.00338204
0.00308657
0.0027444
0.00234679
0.00188122
0.001334
0.000694716
8.62552e-05
0.00482225
0.00480165
0.00476596
0.00471402
0.0046445
0.00455589
0.00444644
0.00431414
0.00415664
0.00397112
0.00375411
0.00350128
0.00320696
0.00286353
0.00246011
0.00198343
0.00141498
0.000738933
8.93597e-05
0.0049003
0.00488402
0.00485282
0.00480545
0.00474052
0.00465642
0.00455132
0.00442314
0.00426938
0.00408709
0.00387257
0.00362108
0.00332629
0.0029797
0.00256986
0.00208073
0.00149064
0.000779936
9.18657e-05
0.00497881
0.00496779
0.00494195
0.00489992
0.00484022
0.00476111
0.00466069
0.00453672
0.00438658
0.00420711
0.00399432
0.00374311
0.00344683
0.00309625
0.00267863
0.00217605
0.00156408
0.000819753
9.44329e-05
0.00506003
0.00505525
0.00503562
0.00499968
0.00494579
0.00487214
0.00477666
0.00465696
0.00451026
0.0043332
0.00412159
0.00386999
0.00357124
0.00321547
0.00278889
0.00227189
0.00163753
0.000859681
9.73791e-05
0.00514633
0.00514873
0.00513616
0.005107
0.0050595
0.0049917
0.0049014
0.00478607
0.00464274
0.00446782
0.00425684
0.00400406
0.00370185
0.00333974
0.00290298
0.00237049
0.00171288
0.000900737
0.000100912
0.00524007
0.00525059
0.00524586
0.00522414
0.00518355
0.00512199
0.00503713
0.00492628
0.00478625
0.00461322
0.00440241
0.00414773
0.00384109
0.00347146
0.00302323
0.00247394
0.00179183
0.000943985
0.000105013
0.00534358
0.00536307
0.00536689
0.00535318
0.00531994
0.00526497
0.0051858
0.00507957
0.00494287
0.00477158
0.00456059
0.00430338
0.00399142
0.00361307
0.00315193
0.00258427
0.00187602
0.000990531
0.000109544
0.00545901
0.00548822
0.00550118
0.00549593
0.00547041
0.00542233
0.0053491
0.00524769
0.00511444
0.0049449
0.00473355
0.00447338
0.0041553
0.00376704
0.00329143
0.00270349
0.00196695
0.00104126
0.000114449
0.00558831
0.00562784
0.00565038
0.00565392
0.00563637
0.00559542
0.00552839
0.00543207
0.00530256
0.005135
0.00492338
0.00466007
0.00433528
0.00393601
0.00344421
0.00283374
0.00206619
0.00109699
0.000119703
0.00573318
0.00578348
0.00581584
0.00582831
0.00581885
0.00578519
0.00572462
0.00563378
0.00550849
0.00534344
0.005132
0.00486577
0.00453404
0.00412283
0.00361309
0.00297743
0.00217538
0.00115837
0.00012553
0.00589518
0.00595645
0.00599863
0.00601993
0.0060185
0.00599219
0.00593834
0.00585348
0.00573314
0.00557153
0.00536122
0.00509284
0.00475447
0.0043308
0.0038014
0.00313748
0.00229654
0.00122604
0.000132315
0.00607573
0.00614786
0.00619954
0.00622929
0.00623559
0.00621657
0.00616967
0.00609141
0.00597704
0.00582022
0.00561265
0.00534368
0.00499978
0.00456375
0.00401325
0.00331768
0.0024325
0.00130153
0.000140203
0.00627625
0.00635874
0.00641916
0.00645659
0.00647004
0.00645804
0.00641828
0.00634734
0.00624024
0.0060901
0.00588764
0.00562067
0.00527352
0.00482635
0.00425396
0.00352314
0.00258719
0.00138707
0.000149217
0.0064983
0.00659006
0.0066579
0.00670177
0.0067214
0.0067159
0.00668335
0.00662049
0.00652225
0.00638123
0.00618715
0.00592606
0.00557962
0.0051243
0.00453054
0.00376098
0.00276614
0.00148542
0.000159503
0.0067437
0.00684282
0.00691602
0.00696447
0.00698887
0.00698905
0.00696361
0.00690958
0.00682193
0.00669296
0.00651149
0.00626176
0.00592224
0.00546452
0.00485244
0.0040416
0.00297777
0.00160048
0.000171376
0.00701458
0.00711797
0.00719354
0.00724404
0.0072713
0.00727599
0.0072573
0.0072127
0.00713742
0.00702376
0.00685998
0.00662878
0.00630532
0.0058551
0.00523244
0.00438081
0.00323602
0.00173882
0.000185283
0.00731334
0.00741631
0.00749014
0.00753943
0.0075672
0.00757488
0.00756228
0.00752742
0.00746607
0.00737096
0.00723046
0.00702652
0.00673162
0.00630474
0.00568745
0.00480308
0.00356556
0.00191291
0.000202015
0.00764227
0.00773805
0.0078049
0.00784915
0.00787471
0.00788359
0.00787612
0.00785091
0.00780451
0.00773066
0.00761882
0.00745168
0.00720096
0.00682072
0.00623827
0.00534648
0.00401292
0.00215007
0.000223041
0.00800249
0.00808216
0.00813597
0.0081711
0.00819171
0.00819992
0.00819633
0.00818012
0.00814885
0.0080978
0.00801867
0.00789701
0.00770746
0.00740451
0.00690594
0.00606795
0.00467061
0.00252095
0.000251169
0.00839206
0.0084454
0.00848022
0.00850264
0.00851593
0.00852173
0.00852061
0.0085122
0.00849514
0.00846662
0.00842155
0.00835059
0.00823617
0.0080434
0.00769875
0.00704127
0.00572997
0.00324445
0.000290537
0.00880306
0.0088215
0.00883322
0.00884072
0.00884521
0.00884732
0.00884726
0.00884497
0.00884004
0.00883164
0.00881819
0.00879672
0.0087614
0.00869954
0.0085798
0.0083104
0.0075718
0.00520309
0.000343622
)
;

boundaryField
{
    leftWall
    {
        type            nutkWallFunction;
        Cmu             0.09;
        kappa           0.41;
        E               9.8;
        value           nonuniform List<scalar> 
50
(
1.84483e-06
2.93421e-06
3.57046e-06
4.03488e-06
4.40044e-06
4.70613e-06
4.97367e-06
5.21638e-06
5.5676e-06
5.98372e-06
6.38933e-06
4.58148e-06
3.253e-06
2.36578e-06
6.62983e-09
6.20384e-09
6.25616e-09
0
0
0
0
1.11534e-08
0
1.17594e-08
1.31516e-08
0
0
5.39309e-10
0
1.71127e-08
0
0
7.22672e-09
0
9.01735e-09
0
1.82205e-08
1.29012e-08
0
5.73459e-09
2.33763e-08
1.07367e-08
2.35342e-08
8.99659e-09
1.56769e-09
1.52261e-08
1.91992e-09
2.85562e-06
1.83147e-05
4.8737e-05
)
;
    }
    rightWall
    {
        type            nutkWallFunction;
        Cmu             0.09;
        kappa           0.41;
        E               9.8;
        value           nonuniform List<scalar> 
50
(
2.44065e-06
3.1915e-06
3.66764e-06
4.13083e-06
4.57131e-06
4.98637e-06
5.39718e-06
5.84578e-06
6.39353e-06
6.81909e-06
6.94536e-06
6.3882e-06
3.8881e-06
1.79119e-06
7.24771e-09
5.50363e-09
1.97399e-10
1.21843e-08
5.84759e-09
1.18749e-09
0
0
3.17505e-09
0
0
2.432e-07
1.16459e-06
2.01958e-06
2.67677e-06
3.17979e-06
3.58176e-06
3.99097e-06
4.46658e-06
5.04062e-06
5.68475e-06
6.39253e-06
7.1467e-06
7.94127e-06
8.83512e-06
9.8855e-06
1.1081e-05
1.24299e-05
1.39555e-05
1.56991e-05
1.77119e-05
2.01118e-05
2.30976e-05
2.70321e-05
3.24411e-05
3.95859e-05
)
;
    }
    lowerWall
    {
        type            nutkWallFunction;
        Cmu             0.09;
        kappa           0.41;
        E               9.8;
        value           nonuniform List<scalar> 
62
(
5.35878e-07
1.23116e-06
1.61504e-06
1.86829e-06
2.05513e-06
2.20101e-06
2.31882e-06
2.41589e-06
2.49667e-06
2.56531e-06
2.62564e-06
2.67912e-06
2.72589e-06
2.76206e-06
2.7766e-06
2.74724e-06
2.63678e-06
2.47186e-06
2.28478e-06
2.11285e-06
1.93376e-06
1.65646e-06
9.78594e-07
9.78594e-07
4.15523e-06
4.95662e-06
5.64973e-06
6.33204e-06
7.09676e-06
8.05755e-06
9.41678e-06
9.75069e-06
9.13738e-06
9.08271e-06
9.57099e-06
1.04076e-06
4.32763e-06
4.89256e-06
5.5487e-06
6.27204e-06
7.11802e-06
8.23734e-06
9.9016e-06
1.04076e-06
1.9531e-06
2.35679e-06
2.53038e-06
2.62308e-06
2.66364e-06
2.69233e-06
2.71056e-06
2.68235e-06
2.54432e-06
2.34094e-06
2.09662e-06
1.84662e-06
1.79922e-06
1.90442e-06
1.89124e-06
1.58929e-06
1.23741e-06
6.95793e-07
)
;
    }
    atmosphere
    {
        type            calculated;
        value           nonuniform List<scalar> 
46
(
0.009
0.000139364
0.000204872
0.000815814
0.00163501
0.00234084
0.00289603
0.00333174
0.00368169
0.00397261
0.00422483
0.00445398
0.00467243
0.0048905
0.00511746
0.0053626
0.00563641
0.00595233
0.00632993
0.00680177
0.00743093
0.009
0.009
0.009
0.009
0.009
0.009
0.009
0.009
0.009
0.009
0.009
0.009
0.009
0.009
0.009
0.009
0.009
0.009
0.009
0.009
0.009
0.009
0.009
0.009
0.000343622
)
;
    }
    defaultFaces
    {
        type            empty;
    }
}


// ************************************************************************* //
