/*--------------------------------*- C++ -*----------------------------------*\
  =========                 |
  \\      /  F ield         | OpenFOAM: The Open Source CFD Toolbox
   \\    /   O peration     | Website:  https://openfoam.org
    \\  /    A nd           | Version:  9
     \\/     M anipulation  |
\*---------------------------------------------------------------------------*/
FoamFile
{
    format      ascii;
    class       volVectorField;
    location    "6.29";
    object      U;
}
// * * * * * * * * * * * * * * * * * * * * * * * * * * * * * * * * * * * * * //

dimensions      [0 1 -1 0 0 0 0];

internalField   nonuniform List<vector> 
2268
(
(-0.000445098 0.000233549 0)
(-0.00140936 0.00034039 0)
(-0.00279671 0.000403515 0)
(-0.00425074 0.000404388 0)
(-0.00565066 0.000385857 0)
(-0.00695157 0.000346798 0)
(-0.00805619 0.000277348 0)
(-0.00886912 0.000181866 0)
(-0.00932287 6.87159e-05 0)
(-0.00938541 -5.64629e-05 0)
(-0.0090039 -0.000203333 0)
(-0.00809181 -0.000398464 0)
(-0.00644467 -0.000670748 0)
(-0.00384939 -0.0010054 0)
(-0.000237726 -0.00129951 0)
(0.00381573 -0.00133213 0)
(0.00730495 -0.000396363 0)
(0.00550824 0.00168038 0)
(-0.00236823 0.00299935 0)
(-0.0123535 0.00300479 0)
(-0.0187873 0.000318265 0)
(-0.0148732 -0.00283023 0)
(-0.00532455 -0.00267084 0)
(-0.00061393 0.000639965 0)
(-0.00175917 0.000898605 0)
(-0.00315962 0.00104133 0)
(-0.00465702 0.0010442 0)
(-0.00609037 0.000986897 0)
(-0.00740399 0.000873887 0)
(-0.0085121 0.000696083 0)
(-0.00933888 0.000463118 0)
(-0.00983054 0.000195206 0)
(-0.0099625 -9.82073e-05 0)
(-0.00970891 -0.000439469 0)
(-0.00898128 -0.000884464 0)
(-0.00765086 -0.00146901 0)
(-0.00561655 -0.00213855 0)
(-0.0029198 -0.00266736 0)
(5.37895e-06 -0.00254976 0)
(0.00231822 -0.000563837 0)
(0.00125473 0.00339069 0)
(-0.00361143 0.00569235 0)
(-0.00907216 0.00539974 0)
(-0.0125348 0.00126617 0)
(-0.0117131 -0.00455641 0)
(-0.0061331 -0.00699859 0)
(-0.000719813 0.00122909 0)
(-0.00198105 0.00152158 0)
(-0.00336927 0.0017052 0)
(-0.00485229 0.0017153 0)
(-0.00627947 0.00162123 0)
(-0.00759454 0.00143389 0)
(-0.00871878 0.0011473 0)
(-0.00958316 0.000778076 0)
(-0.0101383 0.000357105 0)
(-0.0103607 -9.99305e-05 0)
(-0.0102302 -0.000627858 0)
(-0.00968843 -0.00129918 0)
(-0.00865437 -0.00214632 0)
(-0.00708765 -0.00307687 0)
(-0.00506131 -0.00378535 0)
(-0.00285803 -0.00356901 0)
(-0.000957916 -0.000897404 0)
(-0.00126224 0.00442029 0)
(-0.00390166 0.00726563 0)
(-0.00648621 0.00667321 0)
(-0.00848451 0.00201794 0)
(-0.0085537 -0.00560334 0)
(-0.00470934 -0.0107826 0)
(-0.000799074 0.00187342 0)
(-0.00215261 0.00218277 0)
(-0.00356982 0.00238068 0)
(-0.00505481 0.00239133 0)
(-0.00648571 0.00226314 0)
(-0.00781253 0.00200715 0)
(-0.00896117 0.00161874 0)
(-0.0098648 0.00112138 0)
(-0.010478 0.000556736 0)
(-0.0107843 -5.25322e-05 0)
(-0.0107765 -0.000747529 0)
(-0.0104214 -0.00161066 0)
(-0.00967178 -0.00266842 0)
(-0.00852522 -0.00379534 0)
(-0.00706887 -0.00463714 0)
(-0.00546338 -0.00441503 0)
(-0.00376131 -0.00140521 0)
(-0.00316748 0.004871 0)
(-0.00402222 0.00800273 0)
(-0.00478744 0.00725841 0)
(-0.00543725 0.00249377 0)
(-0.00519756 -0.00641134 0)
(-0.0023051 -0.0133674 0)
(-0.000849632 0.00256117 0)
(-0.00228752 0.00288444 0)
(-0.00376273 0.00307819 0)
(-0.00526772 0.00308076 0)
(-0.00671458 0.00291903 0)
(-0.00806333 0.00259793 0)
(-0.00924284 0.00211154 0)
(-0.0101861 0.00149082 0)
(-0.0108525 0.000790215 0)
(-0.0112365 4.23388e-05 0)
(-0.0113481 -0.000796838 0)
(-0.0111758 -0.00181763 0)
(-0.0106953 -0.00303858 0)
(-0.0099289 -0.00430374 0)
(-0.0089795 -0.00523162 0)
(-0.0079721 -0.0050539 0)
(-0.00661943 -0.00207907 0)
(-0.00508754 0.00465 0)
(-0.0041334 0.00799209 0)
(-0.00348109 0.00722358 0)
(-0.0026142 0.00236998 0)
(-0.00143667 -0.0071231 0)
(0.000438865 -0.0144091 0)
(-0.00087968 0.00328788 0)
(-0.0024036 0.00362003 0)
(-0.00394883 0.00379514 0)
(-0.00548247 0.00378012 0)
(-0.00695207 0.00358518 0)
(-0.00832849 0.00320242 0)
(-0.0095408 0.00262103 0)
(-0.0105202 0.00188086 0)
(-0.0112317 0.00105237 0)
(-0.0116836 0.000181409 0)
(-0.011905 -0.000777019 0)
(-0.0119021 -0.00192188 0)
(-0.0116642 -0.00326358 0)
(-0.0112273 -0.00461626 0)
(-0.0107063 -0.00558083 0)
(-0.0102388 -0.00544397 0)
(-0.00943016 -0.00275733 0)
(-0.00726967 0.00368306 0)
(-0.00457396 0.00723093 0)
(-0.00242169 0.00653654 0)
(0.000154985 0.00145069 0)
(0.00227867 -0.0076996 0)
(0.00277622 -0.0138806 0)
(-0.00091106 0.0040511 0)
(-0.00251636 0.00438729 0)
(-0.00412888 0.00453032 0)
(-0.00568762 0.00448821 0)
(-0.00717868 0.00426079 0)
(-0.00858234 0.00381929 0)
(-0.00982371 0.00314393 0)
(-0.0108306 0.00228619 0)
(-0.0115757 0.00133688 0)
(-0.0120822 0.000358264 0)
(-0.0123975 -0.000695243 0)
(-0.012541 -0.00193444 0)
(-0.0125082 -0.00336369 0)
(-0.0123371 -0.00476751 0)
(-0.0121377 -0.00573334 0)
(-0.0120304 -0.00562313 0)
(-0.0116374 -0.0033222 0)
(-0.00929551 0.0021844 0)
(-0.00535842 0.00573617 0)
(-0.00152196 0.00509013 0)
(0.00241249 -6.25392e-05 0)
(0.00476225 -0.00791284 0)
(0.00391115 -0.0121312 0)
(-0.00098388 0.00467966 0)
(-0.00265452 0.00519837 0)
(-0.00429964 0.00529047 0)
(-0.00586916 0.00520998 0)
(-0.00737283 0.00495127 0)
(-0.00879649 0.00445247 0)
(-0.0100571 0.00368101 0)
(-0.0110791 0.00270478 0)
(-0.0118444 0.00163977 0)
(-0.0123904 0.000567441 0)
(-0.0127788 -0.000559389 0)
(-0.0130378 -0.00186752 0)
(-0.0131645 -0.00336077 0)
(-0.0131907 -0.00479691 0)
(-0.0132006 -0.00575864 0)
(-0.0132531 -0.00569849 0)
(-0.0129561 -0.00382606 0)
(-0.0106398 0.000482788 0)
(-0.00608529 0.00359838 0)
(-0.000924753 0.00294958 0)
(0.00361203 -0.00171768 0)
(0.00559057 -0.00775731 0)
(0.00368617 -0.00967841 0)
(-0.0129535 0.00265237 0)
(-0.00482901 -0.00348046 0)
(0.0069181 -0.00337924 0)
(0.015684 -0.0022723 0)
(0.0218019 -0.00152583 0)
(0.0258506 -0.000833787 0)
(0.0287158 -0.00079527 0)
(0.0320677 -0.00118473 0)
(0.0369781 -0.00174997 0)
(0.0426982 -0.000890152 0)
(0.0414348 0.00196959 0)
(0.0301904 0.00310113 0)
(0.0182744 0.00536301 0)
(-0.0106419 0.0051887 0)
(-0.0170876 -0.00219513 0)
(-0.00131596 -0.0043249 0)
(0.00664728 -0.00163034 0)
(0.00908329 -0.000222677 0)
(0.00939044 0.00280466 0)
(-0.00451719 0.00513123 0)
(0.00303768 -0.00608453 0)
(0.00948316 -0.00615726 0)
(0.0150919 -0.00445389 0)
(0.0193737 -0.00312367 0)
(0.0226606 -0.00211153 0)
(0.0253827 -0.00199727 0)
(0.0282841 -0.00269161 0)
(0.0319716 -0.00340535 0)
(0.0355635 -0.00143621 0)
(0.0353369 0.00427511 0)
(0.0267497 0.00746321 0)
(0.0172497 0.0116966 0)
(-0.00303335 0.011596 0)
(-0.00800346 -0.00240482 0)
(-0.00104086 -0.00693907 0)
(0.00235261 -0.0025949 0)
(0.00273902 -0.0014961 0)
(0.00853975 0.00547837 0)
(0.00413276 0.00353867 0)
(0.00768891 -0.00798444 0)
(0.011023 -0.00800192 0)
(0.0146546 -0.00608839 0)
(0.0178077 -0.00443694 0)
(0.0203828 -0.0032428 0)
(0.0225222 -0.00302641 0)
(0.0246663 -0.00388449 0)
(0.0272006 -0.00466868 0)
(0.0295852 -0.00190154 0)
(0.0284754 0.00605131 0)
(0.021146 0.011061 0)
(0.013761 0.0161218 0)
(0.00160593 0.0159345 0)
(-0.00259844 -0.00234484 0)
(0.000503462 -0.00824392 0)
(0.000534821 -0.00270529 0)
(-0.00162487 -0.00275612 0)
(0.00450906 0.00706393 0)
(0.00742612 -1.52274e-05 0)
(0.00979516 -0.00908441 0)
(0.0116716 -0.00916221 0)
(0.0141026 -0.00728479 0)
(0.0164237 -0.00546855 0)
(0.0183533 -0.00409649 0)
(0.0198341 -0.00376082 0)
(0.0211148 -0.00467457 0)
(0.0225468 -0.00551702 0)
(0.024137 -0.00207109 0)
(0.0229037 0.00786866 0)
(0.0168211 0.0140177 0)
(0.0108819 0.0191015 0)
(0.00399742 0.0187006 0)
(0.00196118 -0.00202188 0)
(0.00272946 -0.00843275 0)
(-2.31316e-05 -0.00160818 0)
(-0.0049373 -0.00309622 0)
(-0.000438103 0.00688357 0)
(0.0069096 -0.00379903 0)
(0.0100511 -0.0100904 0)
(0.0116106 -0.0099643 0)
(0.0133406 -0.00815177 0)
(0.0150237 -0.00623938 0)
(0.0163615 -0.00468673 0)
(0.0171838 -0.00418458 0)
(0.0175969 -0.00504084 0)
(0.0178464 -0.00593794 0)
(0.0186358 -0.00223908 0)
(0.0179063 0.00941848 0)
(0.0133923 0.0163457 0)
(0.00831193 0.0211874 0)
(0.00587033 0.0197114 0)
(0.00675644 -0.00170581 0)
(0.00531456 -0.00766486 0)
(0.000325932 0.000719278 0)
(-0.0066757 -0.00250681 0)
(-0.00470707 0.0048496 0)
(0.00555404 -0.00691959 0)
(0.00966641 -0.0113243 0)
(0.0111554 -0.0106264 0)
(0.01238 -0.00877186 0)
(0.0135383 -0.00677456 0)
(0.0143579 -0.00501781 0)
(0.014581 -0.0042917 0)
(0.014184 -0.00496934 0)
(0.0132129 -0.00583441 0)
(0.0127212 -0.00233057 0)
(0.0127294 0.0103337 0)
(0.0105507 0.0180031 0)
(0.00696318 0.0224353 0)
(0.00862644 0.0188628 0)
(0.0114449 -0.001259 0)
(0.00771621 -0.00606306 0)
(0.00143195 0.00380283 0)
(-0.00619226 -0.00111475 0)
(-0.007047 0.00177657 0)
(0.00589592 -0.0101438 0)
(0.00945019 -0.0126254 0)
(0.010556 -0.0111414 0)
(0.0112591 -0.00917834 0)
(0.0119356 -0.0071061 0)
(0.0123227 -0.00512592 0)
(0.0120671 -0.00411567 0)
(0.0110012 -0.00449512 0)
(0.00899844 -0.00518559 0)
(0.00697536 -0.00208816 0)
(0.00747887 0.0102946 0)
(0.00823797 0.0186919 0)
(0.00764667 0.0224946 0)
(0.0124096 0.0168368 0)
(0.01522 -0.00037773 0)
(0.00945599 -0.00381824 0)
(0.00309478 0.00684445 0)
(-0.0035051 0.000988002 0)
(-0.00712904 -0.000697598 0)
(0.0101472 -0.0150381 0)
(0.00960272 -0.0133145 0)
(0.00992325 -0.0113072 0)
(0.00999753 -0.00932889 0)
(0.0101804 -0.00724008 0)
(0.0102159 -0.00506589 0)
(0.00966768 -0.00373639 0)
(0.00819956 -0.00370522 0)
(0.00557866 -0.00409515 0)
(0.00244203 -0.00145509 0)
(0.00309759 0.00940036 0)
(0.00639474 0.0180527 0)
(0.00921829 0.0211512 0)
(0.0154702 0.0145451 0)
(0.0171938 0.00103357 0)
(0.0105036 -0.00127016 0)
(0.00487917 0.00922184 0)
(0.000236778 0.00325747 0)
(-0.00465606 -0.00321884 0)
(-0.000981197 0.00675436 0)
(-0.00280054 0.00665294 0)
(-0.00452324 0.00655598 0)
(-0.00609202 0.0063879 0)
(-0.00759494 0.00608286 0)
(-0.00902494 0.00549162 0)
(-0.0102885 0.00455988 0)
(-0.0113124 0.00339243 0)
(-0.0120941 0.00214911 0)
(-0.0126834 0.000945447 0)
(-0.0131491 -0.000270944 0)
(-0.0135261 -0.0016541 0)
(-0.0138223 -0.0032222 0)
(-0.0140587 -0.00470227 0)
(-0.014255 -0.0056983 0)
(-0.0143291 -0.00582441 0)
(-0.0137755 -0.00474057 0)
(-0.0113406 -0.002338 0)
(-0.00660195 -0.000506573 0)
(-0.000865213 -0.00115149 0)
(0.00374363 -0.00428837 0)
(0.00552962 -0.00757952 0)
(0.00389377 -0.00804729 0)
(-0.00145043 0.00781743 0)
(-0.00300819 0.00891572 0)
(-0.0046466 0.00872078 0)
(-0.00616774 0.00836123 0)
(-0.00759135 0.00789975 0)
(-0.008868 0.00710566 0)
(-0.00998625 0.0059262 0)
(-0.0109653 0.00452184 0)
(-0.0118164 0.00303429 0)
(-0.0124868 0.00160024 0)
(-0.0129397 0.000193364 0)
(-0.0132302 -0.00133958 0)
(-0.0135075 -0.00299107 0)
(-0.0138654 -0.00456398 0)
(-0.0141919 -0.00578127 0)
(-0.0141528 -0.00644546 0)
(-0.0131804 -0.00653398 0)
(-0.0105416 -0.00615188 0)
(-0.00611603 -0.00595281 0)
(-0.000894016 -0.00658486 0)
(0.00348959 -0.00797022 0)
(0.00601237 -0.00919394 0)
(0.00707552 -0.00962365 0)
(-0.00168569 0.0122338 0)
(-0.00176564 0.0110323 0)
(-0.00409408 0.00989142 0)
(-0.00668646 0.00935891 0)
(-0.00809917 0.00901345 0)
(-0.00836927 0.00814217 0)
(-0.0086155 0.00675301 0)
(-0.00917808 0.00522682 0)
(-0.00993726 0.00362285 0)
(-0.0105814 0.00202522 0)
(-0.0108308 0.000449732 0)
(-0.0108674 -0.00114839 0)
(-0.0110267 -0.00272509 0)
(-0.0114637 -0.0042191 0)
(-0.0120414 -0.00558209 0)
(-0.0122018 -0.00672312 0)
(-0.0112501 -0.00764574 0)
(-0.00858623 -0.00843861 0)
(-0.0043733 -0.00912669 0)
(0.000492695 -0.00969899 0)
(0.00472123 -0.0101376 0)
(0.00743377 -0.0104194 0)
(0.00904893 -0.0104801 0)
(-0.0059335 0.00967459 0)
(0.00346881 0.00927844 0)
(-0.00278939 0.00972403 0)
(-0.0121598 0.00976641 0)
(-0.014253 0.00834453 0)
(-0.0102311 0.00719384 0)
(-0.00837063 0.00646078 0)
(-0.00837505 0.00522538 0)
(-0.0085354 0.00386854 0)
(-0.00886766 0.00214249 0)
(-0.00851534 0.000324842 0)
(-0.00846423 -0.000756303 0)
(-0.0089149 -0.00235689 0)
(-0.00887068 -0.00368783 0)
(-0.0090173 -0.00499291 0)
(-0.00899734 -0.00650408 0)
(-0.00785685 -0.00809078 0)
(-0.00473638 -0.00985565 0)
(-0.00195529 -0.0106468 0)
(0.000450189 -0.0115353 0)
(0.00400722 -0.0112248 0)
(0.00710985 -0.0108298 0)
(0.00955304 -0.0105568 0)
(-0.000280828 0.0130139 0)
(0.0096037 0.00683676 0)
(-0.0156173 0.0353953 0)
(-0.0483588 0.0313366 0)
(-0.0435682 0.00115462 0)
(-0.0356069 -0.000232477 0)
(-0.0307402 0.00561024 0)
(-0.0270493 0.00450651 0)
(-0.023477 0.00446439 0)
(-0.0200555 0.00218001 0)
(-0.0164891 -0.00103064 0)
(-0.0119384 -0.000365493 0)
(-0.00658453 -0.00306313 0)
(-0.00253398 -0.00396679 0)
(-0.000762941 -0.00497519 0)
(-0.000611111 -0.00886038 0)
(-0.000981423 -0.0152849 0)
(-0.000696218 -0.0225821 0)
(-0.00107808 -0.0187761 0)
(-0.00760131 -0.0227571 0)
(-0.0111189 -0.0232647 0)
(-0.0100095 -0.0207595 0)
(-0.00946882 -0.016354 0)
(-0.000461252 0.006488 0)
(-0.0104982 0.0191147 0)
(-0.0141329 0.0560897 0)
(-0.0013936 0.0349993 0)
(0.00286173 -0.00758821 0)
(-0.0116881 -0.00287338 0)
(-0.0187846 0.00281119 0)
(-0.0212284 -0.001009 0)
(-0.0216498 -0.00144992 0)
(-0.0195794 -0.0033965 0)
(-0.0171108 -0.00622137 0)
(-0.0138369 -0.00812925 0)
(-0.0109626 -0.00956645 0)
(-0.0110295 -0.00693081 0)
(-0.0134366 -0.00478605 0)
(-0.0164811 -0.00496106 0)
(-0.0193603 -0.00808039 0)
(-0.0231243 -0.0124698 0)
(-0.0225389 -0.00835311 0)
(-0.0211604 -0.00446966 0)
(-0.0229252 -0.0136296 0)
(-0.0260598 -0.0139078 0)
(-0.0328118 -0.00955264 0)
(-0.000861955 0.018832 0)
(-0.0155898 0.0254446 0)
(-0.00602178 0.040216 0)
(0.0126342 0.0197876 0)
(0.0100229 0.00790589 0)
(-0.00135216 0.0150743 0)
(-0.00599491 0.00995027 0)
(-0.0102182 0.00528827 0)
(-0.0134886 0.000610006 0)
(-0.0154254 -0.00387919 0)
(-0.0171199 -0.00758012 0)
(-0.0190794 -0.00942994 0)
(-0.0220033 -0.0088174 0)
(-0.0256907 -0.00408856 0)
(-0.028568 -0.00152984 0)
(-0.0279608 -0.00454383 0)
(-0.0237214 -0.00949535 0)
(-0.0220918 -0.0107487 0)
(-0.0240735 -0.0140144 0)
(-0.0227742 -0.00901149 0)
(-0.0213499 -0.013966 0)
(-0.0258496 -0.0079348 0)
(-0.0315985 -0.00558224 0)
(-0.000391462 0.022845 0)
(-0.00192744 0.0268926 0)
(0.00531534 0.0245769 0)
(0.0105737 0.0139012 0)
(0.00630729 0.0138266 0)
(0.00199615 0.0175111 0)
(0.000154935 0.0139109 0)
(-0.00271385 0.0089223 0)
(-0.00603061 0.00423105 0)
(-0.00935541 -7.05392e-05 0)
(-0.0128349 -0.00340388 0)
(-0.0165495 -0.00458109 0)
(-0.0205273 -0.00337185 0)
(-0.0237863 -0.000523616 0)
(-0.0248808 -0.000686506 0)
(-0.0233188 -0.00831999 0)
(-0.0215461 -0.0134011 0)
(-0.0212549 -0.0112285 0)
(-0.0208565 -0.0122398 0)
(-0.0188631 -0.0126214 0)
(-0.0191513 -0.0119569 0)
(-0.0211288 -0.00470462 0)
(-0.0191899 -0.00615969 0)
(0.00107911 0.0208538 0)
(0.00332841 0.0232385 0)
(0.00695767 0.020735 0)
(0.00770247 0.0165766 0)
(0.00511573 0.0170519 0)
(0.00352971 0.0182602 0)
(0.00277889 0.0154817 0)
(0.00101894 0.0114 0)
(-0.00150712 0.00736188 0)
(-0.00453249 0.00348046 0)
(-0.00793165 0.000398681 0)
(-0.01147 -0.000720892 0)
(-0.0146682 -9.14082e-05 0)
(-0.0165078 0.000875705 0)
(-0.016462 -0.00136481 0)
(-0.0164377 -0.00907337 0)
(-0.0180219 -0.012673 0)
(-0.019037 -0.0116218 0)
(-0.0186073 -0.0131867 0)
(-0.0184654 -0.013518 0)
(-0.0194513 -0.0100803 0)
(-0.0193063 -0.00622099 0)
(-0.0169135 -0.00874235 0)
(0.00133364 0.0186287 0)
(0.00347632 0.020465 0)
(0.00523169 0.0195685 0)
(0.0051366 0.0181369 0)
(0.00398737 0.0184352 0)
(0.00358517 0.0185404 0)
(0.00337049 0.0163333 0)
(0.00237367 0.0131036 0)
(0.000712407 0.00969665 0)
(-0.00149659 0.00634708 0)
(-0.00418614 0.00355317 0)
(-0.00704099 0.00229671 0)
(-0.00940925 0.00203442 0)
(-0.010571 0.00146 0)
(-0.0107711 -0.00154354 0)
(-0.0119654 -0.00722581 0)
(-0.0144172 -0.0103127 0)
(-0.0159973 -0.011206 0)
(-0.0168735 -0.0128423 0)
(-0.0181422 -0.0124121 0)
(-0.0191318 -0.00947901 0)
(-0.0188296 -0.00755741 0)
(-0.0179354 -0.00933839 0)
(0.000894899 0.01684 0)
(0.00228173 0.0188779 0)
(0.00314606 0.018958 0)
(0.00310363 0.0186806 0)
(0.00276825 0.0188352 0)
(0.00283208 0.0184849 0)
(0.00289132 0.0167224 0)
(0.00244226 0.0140973 0)
(0.00148244 0.0112126 0)
(1.17447e-05 0.00839516 0)
(-0.0019941 0.00600208 0)
(-0.00420366 0.00461705 0)
(-0.00600573 0.00362425 0)
(-0.00705848 0.00214984 0)
(-0.00779044 -0.00080152 0)
(-0.00932872 -0.0049016 0)
(-0.0116585 -0.0079634 0)
(-0.0135493 -0.00994559 0)
(-0.0150541 -0.0113502 0)
(-0.0166198 -0.0109109 0)
(-0.0177419 -0.00897032 0)
(-0.0180734 -0.00778295 0)
(-0.018289 -0.00871167 0)
(0.000447085 0.0157617 0)
(0.00117662 0.018027 0)
(0.00158544 0.0186095 0)
(0.00164607 0.0187699 0)
(0.00166883 0.018804 0)
(0.00188874 0.0182758 0)
(0.00206159 0.0167967 0)
(0.00192766 0.0145661 0)
(0.00140076 0.0121373 0)
(0.000400954 0.00983006 0)
(-0.001087 0.00785477 0)
(-0.00272906 0.0063678 0)
(-0.00408587 0.00492896 0)
(-0.00507761 0.00306885 0)
(-0.00603926 0.000377469 0)
(-0.00755588 -0.00288307 0)
(-0.00959651 -0.00579716 0)
(-0.0115337 -0.00825509 0)
(-0.0132788 -0.00961764 0)
(-0.0149023 -0.00944439 0)
(-0.0161189 -0.00809901 0)
(-0.0168497 -0.00724588 0)
(-0.0175248 -0.00768083 0)
(7.53849e-05 0.0153087 0)
(0.000431413 0.0176276 0)
(0.000585378 0.0184165 0)
(0.000669166 0.0186951 0)
(0.000804056 0.0186286 0)
(0.00104974 0.0180321 0)
(0.00125138 0.0167285 0)
(0.00123048 0.0147784 0)
(0.000871493 0.0127548 0)
(0.00011704 0.01088 0)
(-0.000953961 0.00919957 0)
(-0.00209481 0.00763594 0)
(-0.00309921 0.00598588 0)
(-0.00396978 0.00401767 0)
(-0.00491342 0.00157072 0)
(-0.00621998 -0.00119274 0)
(-0.00790079 -0.00388359 0)
(-0.00974899 -0.00639611 0)
(-0.0116048 -0.00783971 0)
(-0.0132785 -0.0079603 0)
(-0.0145515 -0.00705779 0)
(-0.0153861 -0.00647576 0)
(-0.0160716 -0.00675071 0)
(-0.000142903 0.0152541 0)
(-2.47557e-05 0.0174957 0)
(-2.87381e-05 0.0183334 0)
(2.29096e-05 0.0185938 0)
(0.000153589 0.0184392 0)
(0.000365449 0.0178096 0)
(0.000543506 0.0166295 0)
(0.000508054 0.0149509 0)
(0.000178587 0.0132468 0)
(-0.000402809 0.0116588 0)
(-0.00113701 0.0101167 0)
(-0.00190313 0.0085279 0)
(-0.0026349 0.0068118 0)
(-0.0033499 0.00485653 0)
(-0.00416706 0.00260777 0)
(-0.00523153 0.000169544 0)
(-0.00658741 -0.00225985 0)
(-0.00823333 -0.00454757 0)
(-0.0100377 -0.00604646 0)
(-0.0117111 -0.00644127 0)
(-0.0129785 -0.00599811 0)
(-0.013775 -0.00575666 0)
(-0.014344 -0.00606591 0)
(-0.000250239 0.0154365 0)
(-0.000302101 0.0175374 0)
(-0.000429035 0.0183451 0)
(-0.000439439 0.0185318 0)
(-0.000361721 0.0182961 0)
(-0.000221047 0.0176452 0)
(-0.000109073 0.0165683 0)
(-0.00017503 0.0151428 0)
(-0.000463566 0.0136565 0)
(-0.000886438 0.0122108 0)
(-0.00137624 0.0107252 0)
(-0.00189597 0.00915047 0)
(-0.00242833 0.00744146 0)
(-0.00299802 0.00554895 0)
(-0.00367877 0.00346546 0)
(-0.00455422 0.00126799 0)
(-0.00566811 -0.000905459 0)
(-0.00705115 -0.0029015 0)
(-0.00863959 -0.00434689 0)
(-0.0101685 -0.00497957 0)
(-0.0113224 -0.00501465 0)
(-0.0120565 -0.00511904 0)
(-0.0125681 -0.00554345 0)
(-0.000332997 0.015761 0)
(-0.000494545 0.0177252 0)
(-0.000729759 0.0184422 0)
(-0.000804564 0.0185346 0)
(-0.000792649 0.0182242 0)
(-0.000728853 0.0175573 0)
(-0.000687874 0.0165616 0)
(-0.000759047 0.0153122 0)
(-0.000965156 0.0139651 0)
(-0.0012539 0.0125845 0)
(-0.0015832 0.0111359 0)
(-0.00194043 0.00958976 0)
(-0.00232979 0.00792011 0)
(-0.00277884 0.00611002 0)
(-0.00333886 0.00417358 0)
(-0.0040648 0.00217539 0)
(-0.00499227 0.000223805 0)
(-0.00613615 -0.00153922 0)
(-0.0074322 -0.0028949 0)
(-0.00868674 -0.00371201 0)
(-0.00968398 -0.00413214 0)
(-0.0103758 -0.00451589 0)
(-0.0108735 -0.00507212 0)
(-0.000403483 0.016203 0)
(-0.000665444 0.0180265 0)
(-0.000974537 0.0186138 0)
(-0.00110725 0.0186018 0)
(-0.0011531 0.0182197 0)
(-0.00114812 0.0175334 0)
(-0.00114755 0.0165847 0)
(-0.00120585 0.0154349 0)
(-0.00133891 0.0141696 0)
(-0.00152287 0.0128317 0)
(-0.00173698 0.0114138 0)
(-0.00197944 0.00990133 0)
(-0.00226231 0.00828344 0)
(-0.00261171 0.00656041 0)
(-0.00306525 0.00475573 0)
(-0.00366011 0.00292551 0)
(-0.00441897 0.00115595 0)
(-0.00534036 -0.000443244 0)
(-0.00636621 -0.0017428 0)
(-0.00736558 -0.00268127 0)
(-0.00820157 -0.00334652 0)
(-0.00883366 -0.00393798 0)
(-0.00932044 -0.00460714 0)
(-0.000488346 0.016761 0)
(-0.000824143 0.0184107 0)
(-0.00117623 0.0188424 0)
(-0.00135507 0.0187196 0)
(-0.00144305 0.0182639 0)
(-0.00147397 0.0175475 0)
(-0.0014898 0.0166144 0)
(-0.00152738 0.0155118 0)
(-0.00160134 0.0142918 0)
(-0.00170534 0.0129845 0)
(-0.00183328 0.0115941 0)
(-0.00198978 0.0101175 0)
(-0.0021891 0.00855453 0)
(-0.00245393 0.00691487 0)
(-0.00281197 0.00522496 0)
(-0.00328798 0.00353267 0)
(-0.00389399 0.00190501 0)
(-0.00462029 0.000420891 0)
(-0.00541986 -0.000842129 0)
(-0.00620677 -0.00185395 0)
(-0.00689583 -0.00266809 0)
(-0.00745671 -0.00339925 0)
(-0.00792 -0.00414905 0)
(-0.000529249 0.017426 0)
(-0.00096074 0.0188499 0)
(-0.00133014 0.0191143 0)
(-0.00154596 0.0188742 0)
(-0.00166172 0.0183382 0)
(-0.00171068 0.0175785 0)
(-0.00172791 0.0166367 0)
(-0.00174216 0.0155494 0)
(-0.00176878 0.0143515 0)
(-0.00181158 0.0130651 0)
(-0.00187347 0.0116994 0)
(-0.00196281 0.0102584 0)
(-0.00209383 0.00874874 0)
(-0.00228534 0.00718459 0)
(-0.00255759 0.00559199 0)
(-0.00292669 0.00401077 0)
(-0.00339788 0.00249212 0)
(-0.00395923 0.00109172 0)
(-0.00457518 -0.000142387 0)
(-0.00518983 -0.00119399 0)
(-0.0057502 -0.00209509 0)
(-0.00623491 -0.00291292 0)
(-0.00665992 -0.00371297 0)
(-0.000565583 0.0181754 0)
(-0.00106703 0.01932 0)
(-0.00144187 0.0194195 0)
(-0.00168153 0.0190531 0)
(-0.00181127 0.0184278 0)
(-0.00186492 0.0176128 0)
(-0.00187457 0.0166452 0)
(-0.00186549 0.0155536 0)
(-0.00185406 0.0143627 0)
(-0.00184961 0.0130899 0)
(-0.00186004 0.0117457 0)
(-0.00189563 0.0103382 0)
(-0.00196962 0.00887753 0)
(-0.00209727 0.00737944 0)
(-0.00229333 0.00586787 0)
(-0.00256814 0.00437548 0)
(-0.00292325 0.00294115 0)
(-0.00334761 0.00160443 0)
(-0.00381543 0.000396608 0)
(-0.00429028 -0.000672216 0)
(-0.00473881 -0.0016205 0)
(-0.00514628 -0.00248771 0)
(-0.00552088 -0.00331505 0)
(-0.000602683 0.0189862 0)
(-0.00113764 0.019813 0)
(-0.0015222 0.0197428 0)
(-0.00176583 0.0192415 0)
(-0.00189455 0.0185196 0)
(-0.00194215 0.0176409 0)
(-0.00193874 0.0166367 0)
(-0.00190765 0.0155291 0)
(-0.00186563 0.014336 0)
(-0.00182461 0.0130712 0)
(-0.00179485 0.0117453 0)
(-0.00178718 0.0103679 0)
(-0.00181352 0.00895051 0)
(-0.00188611 0.00750883 0)
(-0.00201577 0.00606405 0)
(-0.00220917 0.00464271 0)
(-0.00246615 0.00327456 0)
(-0.00277766 0.00198832 0)
(-0.00312542 0.000805623 0)
(-0.00348551 -0.000265993 0)
(-0.00383653 -0.00123644 0)
(-0.00416819 -0.00212865 0)
(-0.00448435 -0.002968 0)
(-0.00060332 0.0198332 0)
(-0.00117718 0.0203331 0)
(-0.00156718 0.0200643 0)
(-0.00179602 0.0194226 0)
(-0.00191087 0.0186018 0)
(-0.0019447 0.0176561 0)
(-0.00192548 0.0166102 0)
(-0.00187464 0.0154803 0)
(-0.00180846 0.0142795 0)
(-0.00173959 0.0130189 0)
(-0.00167894 0.011708 0)
(-0.00163699 0.0103566 0)
(-0.0016242 0.00897647 0)
(-0.0016504 0.0075821 0)
(-0.00172357 0.00619191 0)
(-0.00184817 0.00482753 0)
(-0.00202341 0.00351206 0)
(-0.00224234 0.00226698 0)
(-0.00249217 0.00110825 0)
(-0.00275697 4.23444e-05 0)
(-0.0030226 -0.000935291 0)
(-0.00328168 -0.00183762 0)
(-0.00353548 -0.00267998 0)
(-0.000613444 0.0206947 0)
(-0.00118962 0.0208694 0)
(-0.001561 0.0203657 0)
(-0.00176252 0.0195832 0)
(-0.001856 0.0186663 0)
(-0.00187237 0.0176548 0)
(-0.00183719 0.0165662 0)
(-0.00176989 0.0154117 0)
(-0.00168559 0.0142005 0)
(-0.00159651 0.0129412 0)
(-0.00151315 0.0116423 0)
(-0.00144512 0.0103128 0)
(-0.00140136 0.00896382 0)
(-0.00138976 0.00760847 0)
(-0.00141633 0.00626257 0)
(-0.00148413 0.00494386 0)
(-0.00159231 0.00367062 0)
(-0.0017357 0.00245952 0)
(-0.00190538 0.00132301 0)
(-0.00209052 0.000267088 0)
(-0.00228148 -0.000709508 0)
(-0.00247267 -0.00161373 0)
(-0.00266378 -0.00245465 0)
(-0.000619883 0.0215571 0)
(-0.00115108 0.0213835 0)
(-0.00148199 0.0206358 0)
(-0.00165475 0.0197177 0)
(-0.00172583 0.0187103 0)
(-0.00172498 0.0176369 0)
(-0.00167595 0.0165073 0)
(-0.00159633 0.0153282 0)
(-0.00149981 0.0141056 0)
(-0.00139753 0.0128458 0)
(-0.00129898 0.011556 0)
(-0.00121258 0.0102444 0)
(-0.0011458 0.00892084 0)
(-0.00110493 0.00759711 0)
(-0.00109454 0.00628672 0)
(-0.00111681 0.00500439 0)
(-0.00117102 0.00376495 0)
(-0.00125341 0.00258175 0)
(-0.00135768 0.00146502 0)
(-0.00147634 0.000420411 0)
(-0.00160251 -0.000551383 0)
(-0.00173173 -0.00145372 0)
(-0.00186272 -0.00229187 0)
(-0.000569102 0.0223751 0)
(-0.00103975 0.0218424 0)
(-0.001327 0.020873 0)
(-0.00147268 0.0198268 0)
(-0.00152211 0.0187351 0)
(-0.0015055 0.0176045 0)
(-0.00144548 0.0164371 0)
(-0.00135794 0.0152349 0)
(-0.00125488 0.014001 0)
(-0.00114594 0.0127396 0)
(-0.00103924 0.0114565 0)
(-0.000941812 0.010159 0)
(-0.000859727 0.00885567 0)
(-0.000797918 0.00755697 0)
(-0.000759844 0.00627453 0)
(-0.000747092 0.00502076 0)
(-0.000759091 0.00380797 0)
(-0.000793113 0.00264723 0)
(-0.000844681 0.0015472 0)
(-0.000908432 0.000513243 0)
(-0.000979274 -0.000452872 0)
(-0.00105348 -0.00135243 0)
(-0.00112917 -0.00218847 0)
(-0.000480052 0.0230917 0)
(-0.000881827 0.0222347 0)
(-0.00111942 0.0210738 0)
(-0.0012297 0.0199094 0)
(-0.00125355 0.0187407 0)
(-0.00122078 0.0175594 0)
(-0.00115192 0.016359 0)
(-0.00106045 0.0151367 0)
(-0.000956103 0.0138926 0)
(-0.000846583 0.0126292 0)
(-0.000738331 0.0113509 0)
(-0.000636882 0.010064 0)
(-0.000546929 0.00877624 0)
(-0.000472209 0.00749673 0)
(-0.000415275 0.00623565 0)
(-0.000377249 0.00500366 0)
(-0.000357678 0.00381126 0)
(-0.000354568 0.00266787 0)
(-0.000364676 0.00158104 0)
(-0.000384069 0.000555799 0)
(-0.000408834 -0.000405563 0)
(-0.000435764 -0.00130322 0)
(-0.000462659 -0.00213896 0)
(-0.000392334 0.0236829 0)
(-0.000709513 0.0225525 0)
(-0.000880065 0.021225 0)
(-0.000940155 0.0199564 0)
(-0.000930375 0.0187233 0)
(-0.00087913 0.0175016 0)
(-0.000802866 0.0162758 0)
(-0.000711083 0.0150381 0)
(-0.000610352 0.013786 0)
(-0.000505931 0.0125207 0)
(-0.000402332 0.0112458 0)
(-0.000303494 0.0099666 0)
(-0.000212766 0.00869016 0)
(-0.000132785 0.00742466 0)
(-6.53062e-05 0.00617911 0)
(-1.1047e-05 0.00496293 0)
(3.03926e-05 0.00378526 0)
(6.04967e-05 0.00265439 0)
(8.16519e-05 0.00157701 0)
(9.67978e-05 0.000557803 0)
(0.00010901 -0.000400778 0)
(0.000121077 -0.00129839 0)
(0.000135326 -0.00213625 0)
(-0.000313676 0.0241496 0)
(-0.00053548 0.0227818 0)
(-0.000620403 0.0213077 0)
(-0.000613223 0.0199545 0)
(-0.000560324 0.0186769 0)
(-0.000488318 0.0174307 0)
(-0.000406447 0.01619 0)
(-0.00031812 0.0149432 0)
(-0.000225779 0.0136864 0)
(-0.000131846 0.0124201 0)
(-3.87475e-05 0.0111474 0)
(5.12136e-05 0.00987347 0)
(0.000136003 0.00860467 0)
(0.000214026 0.00734855 0)
(0.000284266 0.00611336 0)
(0.000346389 0.00490759 0)
(0.00040081 0.00373951 0)
(0.000448668 0.00261654 0)
(0.000491725 0.00154478 0)
(0.000532184 0.000528573 0)
(0.000572467 -0.000429721 0)
(0.000614977 -0.00132963 0)
(0.000662022 -0.00217218 0)
(-0.000245545 0.0244966 0)
(-0.000364743 0.0229085 0)
(-0.000344964 0.0213011 0)
(-0.000252191 0.0198885 0)
(-0.000147814 0.0185963 0)
(-5.51396e-05 0.0173471 0)
(2.8896e-05 0.0161048 0)
(0.000109338 0.0148565 0)
(0.000188456 0.0135987 0)
(0.000266742 0.0123327 0)
(0.00034383 0.0110618 0)
(0.000419015 0.00979096 0)
(0.000491549 0.00852656 0)
(0.000560842 0.00727572 0)
(0.000626587 0.00604621 0)
(0.00068885 0.00484597 0)
(0.000748112 0.00368269 0)
(0.000805271 0.00256328 0)
(0.000861608 0.00149338 0)
(0.000918721 0.000477011 0)
(0.000978466 -0.000483655 0)
(0.00104285 -0.00138827 0)
(0.00111404 -0.002238 0)
(-0.000185542 0.02473 0)
(-0.000192339 0.0229188 0)
(-4.90424e-05 0.0211837 0)
(0.000145831 0.0197437 0)
(0.000304799 0.0184799 0)
(0.000413278 0.0172547 0)
(0.000493775 0.0160251 0)
(0.000561316 0.0147828 0)
(0.000622473 0.0135281 0)
(0.000680248 0.0122638 0)
(0.000736161 0.0109943 0)
(0.000791039 0.00972501 0)
(0.000845396 0.00846219 0)
(0.000899633 0.00721296 0)
(0.000954157 0.00598489 0)
(0.00100945 0.00478569 0)
(0.00106611 0.00362278 0)
(0.00112487 0.00250279 0)
(0.00118658 0.00143113 0)
(0.00125231 0.000411533 0)
(0.00132334 -0.00055409 0)
(0.00140124 -0.0014657 0)
(0.00148797 -0.00232479 0)
(-0.000101353 0.0248559 0)
(2.8292e-05 0.022801 0)
(0.000297334 0.0209436 0)
(0.000587227 0.0195174 0)
(0.000789807 0.0183324 0)
(0.000906111 0.0171604 0)
(0.000976949 0.0159562 0)
(0.0010272 0.0147269 0)
(0.00106624 0.013479 0)
(0.00109906 0.0122183 0)
(0.00112895 0.0109503 0)
(0.0011583 0.00968119 0)
(0.00118891 0.0084175 0)
(0.0012222 0.00716656 0)
(0.00125929 0.00593604 0)
(0.00130111 0.00473371 0)
(0.00134841 0.00356699 0)
(0.00140178 0.00244254 0)
(0.00146172 0.00136566 0)
(0.00152871 0.000339963 0)
(0.00160346 -0.000632972 0)
(0.001687 -0.00155355 0)
(0.00178098 -0.0024238 0)
(9.31657e-05 0.0247751 0)
(0.000401277 0.0225544 0)
(0.000751574 0.0206098 0)
(0.00107323 0.0192425 0)
(0.00128899 0.0181647 0)
(0.00140756 0.0170694 0)
(0.00146711 0.0159015 0)
(0.0014976 0.014692 0)
(0.00151093 0.0134554 0)
(0.00151441 0.0122006 0)
(0.00151348 0.0109347 0)
(0.00151224 0.00966475 0)
(0.00151382 0.00839806 0)
(0.00152065 0.00714238 0)
(0.0015346 0.00590578 0)
(0.00155704 0.00469635 0)
(0.00158891 0.00352186 0)
(0.00163068 0.0023892 0)
(0.00168248 0.00130386 0)
(0.00174419 0.000269418 0)
(0.0018158 -0.000712861 0)
(0.00189774 -0.00164399 0)
(0.0019913 -0.00252676 0)
(0.000437495 0.024342 0)
(0.000940875 0.0221715 0)
(0.00132756 0.0202445 0)
(0.00162395 0.0189761 0)
(0.00181321 0.0180003 0)
(0.00191807 0.0169858 0)
(0.00196258 0.0158632 0)
(0.00196866 0.0146816 0)
(0.00195073 0.0134617 0)
(0.0019193 0.0122156 0)
(0.00188216 0.0109525 0)
(0.00184513 0.00968088 0)
(0.00181261 0.00840913 0)
(0.00178791 0.00714581 0)
(0.00177354 0.00589963 0)
(0.00177131 0.00467931 0)
(0.00178234 0.00349318 0)
(0.00180705 0.0023487 0)
(0.00184518 0.00125179 0)
(0.00189594 0.000206189 0)
(0.00195846 -0.000787097 0)
(0.00203238 -0.00172989 0)
(0.00211858 -0.00262605 0)
(0.000856551 0.0234297 0)
(0.00158875 0.0216343 0)
(0.00201115 0.0198891 0)
(0.00226214 0.0187585 0)
(0.00239615 0.0178717 0)
(0.0024616 0.0169222 0)
(0.00247357 0.0158509 0)
(0.0024418 0.014704 0)
(0.00238226 0.0135051 0)
(0.00230792 0.0122696 0)