/*--------------------------------*- C++ -*----------------------------------*\
  =========                 |
  \\      /  F ield         | OpenFOAM: The Open Source CFD Toolbox
   \\    /   O peration     | Website:  https://openfoam.org
    \\  /    A nd           | Version:  9
     \\/     M anipulation  |
\*---------------------------------------------------------------------------*/
FoamFile
{
    format      ascii;
    class       volVectorField;
    location    "0.3";
    object      U;
}
// * * * * * * * * * * * * * * * * * * * * * * * * * * * * * * * * * * * * * //

dimensions      [0 1 -1 0 0 0 0];

internalField   nonuniform List<vector> 
6400
(
(5.95392e-05 -5.91862e-05 3.72783e-08)
(0.000149935 -5.25737e-05 4.71195e-05)
(0.00014027 -3.70005e-06 0.000154319)
(-2.20375e-05 5.19491e-05 0.000294931)
(-0.000339643 0.000102572 0.000443415)
(-0.000793485 0.000144194 0.000581562)
(-0.00135817 0.000176094 0.000696512)
(-0.00200692 0.000198781 0.000779556)
(-0.00271375 0.000213165 0.000825186)
(-0.00345432 0.000220177 0.000830284)
(-0.00420626 0.000220671 0.000793522)
(-0.00494921 0.00021538 0.000714922)
(-0.00566469 0.000204926 0.00059556)
(-0.00633588 0.000189829 0.00043737)
(-0.00694758 0.000170533 0.000243025)
(-0.00748604 0.000147443 1.58623e-05)
(-0.00793896 0.000120949 -0.000240144)
(-0.00829555 9.14603e-05 -0.00052039)
(-0.00854668 5.94396e-05 -0.000819656)
(-0.00868504 2.54263e-05 -0.00113215)
(-0.00870539 -9.95215e-06 -0.00145154)
(-0.0086049 -4.59687e-05 -0.00177104)
(-0.00838345 -8.17809e-05 -0.00208349)
(-0.00804387 -0.000116436 -0.00238154)
(-0.00759225 -0.0001489 -0.00265783)
(-0.00703815 -0.000178083 -0.0029053)
(-0.00639462 -0.000202871 -0.00311741)
(-0.00567816 -0.000222158 -0.00328849)
(-0.00490861 -0.000234906 -0.00341405)
(-0.00410878 -0.000240182 -0.00349103)
(-0.00330399 -0.000237192 -0.00351817)
(-0.00252143 -0.000225323 -0.00349628)
(-0.0017894 -0.000204185 -0.00342857)
(-0.00113634 -0.000173656 -0.00332091)
(-0.000589628 -0.000133986 -0.0031821)
(-0.000173803 -8.6077e-05 -0.00302432)
(9.1915e-05 -3.22959e-05 -0.00286333)
(0.00019877 2.17668e-05 -0.0027191)
(0.000164206 6.28246e-05 -0.00261698)
(5.80852e-05 5.78662e-05 -0.00223199)
(5.51161e-05 -0.000151212 -4.70755e-05)
(5.42506e-05 -5.02824e-05 -1.57833e-08)
(-0.000220404 0.000202458 0.000100491)
(-0.000836526 0.000489268 0.000227067)
(-0.00180004 0.000760304 0.000360256)
(-0.0030793 0.000992762 0.000484266)
(-0.00462352 0.0011778 0.000587083)
(-0.00637375 0.00131367 0.000659966)
(-0.00826886 0.00140191 0.000696938)
(-0.0102489 0.00144553 0.000694291)
(-0.0122569 0.00144798 0.000650122)
(-0.0142396 0.00141279 0.000563969)
(-0.0161478 0.00134332 0.000436545)
(-0.0179363 0.00124269 0.000269552)
(-0.0195642 0.00111387 6.55416e-05)
(-0.0209943 0.000959724 -0.000172167)
(-0.0221939 0.000783189 -0.000439526)
(-0.0231343 0.000587373 -0.000731785)
(-0.0237918 0.000375714 -0.00104353)
(-0.0241478 0.00015208 -0.00136875)
(-0.0241895 -7.91539e-05 -0.00170088)
(-0.0239108 -0.000313048 -0.00203288)
(-0.0233127 -0.000544091 -0.00235741)
(-0.0224039 -0.000766258 -0.00266691)
(-0.0212016 -0.000973127 -0.0029539)
(-0.0197319 -0.00115804 -0.00321125)
(-0.0180295 -0.00131431 -0.00343245)
(-0.0161376 -0.00143549 -0.00361197)
(-0.0141077 -0.0015156 -0.00374549)
(-0.0119983 -0.0015495 -0.00383027)
(-0.00987347 -0.0015331 -0.00386542)
(-0.00780136 -0.00146373 -0.00385221)
(-0.00585171 -0.00134048 -0.00379434)
(-0.004093 -0.00116465 -0.00369807)
(-0.00258886 -0.000940512 -0.00357246)
(-0.00139323 -0.000676723 -0.00342938)
(-0.000543763 -0.000389472 -0.00328348)
(-5.16329e-05 -0.000108187 -0.00315208)
(0.000117001 0.000113069 -0.00305552)
(6.41231e-05 0.000164191 -0.0025427)
(8.46886e-06 -0.000147464 -0.000155747)
(-0.00019454 0.000221648 -0.00010055)
(-0.000858454 0.000861939 1.62126e-06)
(-0.00201067 0.00157138 0.000116251)
(-0.00364406 0.00224838 0.000232393)
(-0.00571648 0.00283832 0.000338042)
(-0.0081599 0.00331501 0.000423928)
(-0.0108934 0.00366918 0.000483119)
(-0.0138312 0.0039006 0.000510659)
(-0.016887 0.00401395 0.000503339)
(-0.0199774 0.00401628 0.000459405)
(-0.0230231 0.00391563 0.000378317)
(-0.0259501 0.00372025 0.000260566)
(-0.0286901 0.00343837 0.000107528)
(-0.0311806 0.00307809 -7.86441e-05)
(-0.0333653 0.0026476 -0.000295085)
(-0.0351944 0.00215534 -0.000538238)
(-0.0366247 0.00161038 -0.000803884)
(-0.0376207 0.00102267 -0.00108719)
(-0.038155 0.000403267 -0.00138275)
(-0.0382091 -0.000235445 -0.00168467)
(-0.0377749 -0.000879693 -0.00198659)
(-0.0368547 -0.00151434 -0.00228188)
(-0.035463 -0.00212303 -0.00256372)
(-0.0336264 -0.00268851 -0.00282536)
(-0.0313847 -0.00319307 -0.00306037)
(-0.0287901 -0.0036191 -0.00326293)
(-0.0259075 -0.00394972 -0.00342811)
(-0.0228132 -0.00416959 -0.00355211)
(-0.0195938 -0.00426567 -0.00363255)
(-0.0163432 -0.0042281 -0.00366872)
(-0.0131608 -0.00405109 -0.00366187)
(-0.0101472 -0.00373397 -0.00361533)
(-0.00740045 -0.00328252 -0.00353463)
(-0.00501005 -0.0027108 -0.00342752)
(-0.00305082 -0.00204439 -0.00330386)
(-0.00157426 -0.00132605 -0.00317548)
(-0.000596679 -0.000624855 -0.00305603)
(-8.88178e-05 -5.06632e-05 -0.00295863)
(2.71961e-05 0.000204337 -0.00244109)
(-4.68188e-05 7.88061e-06 -0.000301541)
(-0.000489234 0.000840515 -0.000228943)
(-0.00159914 0.00201871 -0.000109652)
(-0.00333177 0.00327906 8.12148e-06)
(-0.00565196 0.00447452 0.000121104)
(-0.00850235 0.0055187 0.000220055)
(-0.0117981 0.00636609 0.000298179)
(-0.0154404 0.00699716 0.000350424)
(-0.0193241 0.00740817 0.000373067)
(-0.023343 0.00760451 0.000363658)
(-0.0273928 0.00759666 0.000320844)
(-0.0313741 0.0073977 0.000244238)
(-0.035193 0.00702185 0.000134295)
(-0.0387623 0.00648384 -7.79384e-06)
(-0.0420022 0.00579867 -0.000180165)
(-0.0448408 0.00498179 -0.000380307)
(-0.0472141 0.00404941 -0.000605072)
(-0.0490673 0.00301895 -0.0008507)
(-0.0503552 0.0019095 -0.00111284)
(-0.0510433 0.000742201 -0.00138659)
(-0.0511089 -0.000459491 -0.00166656)
(-0.050542 -0.00166969 -0.00194693)
(-0.0493464 -0.00286016 -0.00222155)
(-0.0475411 -0.00400064 -0.0024841)
(-0.0451606 -0.0050594 -0.00272829)
(-0.0422553 -0.00600408 -0.00294813)
(-0.0388918 -0.00680262 -0.00313815)
(-0.035152 -0.00742458 -0.00329372)
(-0.031132 -0.00784246 -0.00341123)
(-0.0269401 -0.00803319 -0.00348837)
(-0.022694 -0.00797977 -0.00352439)
(-0.0185175 -0.00767297 -0.0035203)
(-0.0145357 -0.00711322 -0.00347892)
(-0.0108696 -0.00631291 -0.00340501)
(-0.00763019 -0.00529942 -0.00330511)
(-0.0049106 -0.00411962 -0.00318734)
(-0.00277768 -0.00284723 -0.00306133)
(-0.00125967 -0.00159317 -0.00293837)
(-0.00034784 -0.00051992 -0.00282513)
(-2.03179e-05 0.000115178 -0.00229539)
(-0.000100169 0.000325879 -0.000460844)
(-0.000788079 0.00183463 -0.000366888)
(-0.00236217 0.00370067 -0.000223142)
(-0.00469172 0.00562452 -9.45397e-05)
(-0.00770383 0.00742613 2.26575e-05)
(-0.0113201 0.00899339 0.000121388)
(-0.0154369 0.0102633 0.000197057)
(-0.0199379 0.0112065 0.00024644)
(-0.0247016 0.0118151 0.000267082)
(-0.029605 0.0120949 0.000257369)
(-0.0345274 0.0120595 0.000216471)
(-0.0393529 0.0117275 0.000144262)
(-0.0439718 0.0111196 4.12485e-05)
(-0.0482821 0.010258 -9.1486e-05)
(-0.0521897 0.00916589 -0.000252298)
(-0.05561 0.00786751 -0.000438977)
(-0.0584677 0.00638853 -0.000648744)
(-0.0606984 0.00475666 -0.000878247)
(-0.0622489 0.00300221 -0.00112357)
(-0.0630789 0.00115866 -0.00138024)
(-0.0631616 -0.000737045 -0.00164329)
(-0.0624857 -0.00264434 -0.00190732)
(-0.0610558 -0.00451924 -0.00216657)
(-0.0588941 -0.00631483 -0.00241505)
(-0.0560409 -0.00798211 -0.00264678)
(-0.052555 -0.00947129 -0.00285599)
(-0.0485141 -0.0107333 -0.00303741)
(-0.0440133 -0.0117215 -0.00318648)
(-0.0391646 -0.0123943 -0.00329958)
(-0.0340937 -0.0127168 -0.00337432)
(-0.0289377 -0.0126638 -0.00340972)
(-0.0238405 -0.012222 -0.00340642)
(-0.0189476 -0.0113935 -0.0033667)
(-0.0144008 -0.0101981 -0.00329451)
(-0.0103306 -0.008678 -0.0031953)
(-0.00684937 -0.00690281 -0.00307567)
(-0.00404288 -0.00497717 -0.0029435)
(-0.0019578 -0.00305083 -0.00280843)
(-0.000616237 -0.00133047 -0.0026713)
(-6.69634e-05 -0.000118817 -0.00212621)
(-0.000148763 0.000799797 -0.000616696)
(-0.00107467 0.00320431 -0.000498987)
(-0.00310953 0.00591444 -0.00032667)
(-0.00603429 0.00861426 -0.000182003)
(-0.00973308 0.0111034 -5.51692e-05)
(-0.0141022 0.0132519 4.83889e-05)
(-0.0190163 0.0149838 0.000125949)
(-0.0243412 0.0162617 0.000175931)
(-0.0299392 0.0170749 0.00019708)
(-0.0356727 0.0174299 0.000188631)
(-0.041407 0.017344 0.00015032)
(-0.0470128 0.0168416 8.23322e-05)
(-0.0523675 0.0159505 -1.47158e-05)
(-0.0573569 0.0147013 -0.000139786)
(-0.0618758 0.0131262 -0.000291397)
(-0.065829 0.0112595 -0.000467591)
(-0.0691322 0.0091377 -0.000665911)
(-0.0717127 0.00680018 -0.000883366)
(-0.073511 0.00429019 -0.0011164)
(-0.0744812 0.0016553 -0.0013609)
(-0.0745932 -0.00105215 -0.00161226)
(-0.0738336 -0.0037749 -0.00186537)
(-0.0722069 -0.00645108 -0.00211473)
(-0.0697372 -0.00901488 -0.00235456)
(-0.0664686 -0.0113978 -0.00257901)
(-0.062466 -0.0135302 -0.00278238)
(-0.0578153 -0.0153437 -0.0029594)
(-0.052622 -0.0167736 -0.00310538)
(-0.0470107 -0.0177617 -0.00321653)
(-0.0411217 -0.0182597 -0.00329019)
(-0.0351084 -0.0182328 -0.00332503)
(-0.0291325 -0.0176629 -0.00332123)
(-0.0233587 -0.0165527 -0.00328046)
(-0.0179484 -0.0149298 -0.00320593)
(-0.0130527 -0.0128508 -0.00310213)
(-0.00880559 -0.0104074 -0.00297445)
(-0.00531555 -0.00773335 -0.00282947)
(-0.00265315 -0.00501269 -0.00267589)
(-0.000876942 -0.00248816 -0.00250971)
(-0.000109539 -0.000493288 -0.00194816)
(-0.000192576 0.00141934 -0.000756335)
(-0.00134453 0.00493756 -0.000612499)
(-0.00382661 0.00865045 -0.000409707)
(-0.00733454 0.0122395 -0.000245815)
(-0.0117079 0.015495 -0.000105766)
(-0.0168149 0.0182772 6.15433e-06)
(-0.0225064 0.0205025 8.87768e-05)
(-0.0286288 0.0221297 0.00014196)
(-0.0350286 0.0231469 0.000165537)
(-0.0415541 0.0235629 0.000159551)
(-0.0480582 0.0233998 0.000124289)
(-0.0544001 0.0226881 6.02593e-05)
(-0.0604466 0.0214638 -3.17835e-05)
(-0.0660736 0.0197665 -0.000150806)
(-0.0711668 0.0176383 -0.000295451)
(-0.0756225 0.0151242 -0.000463984)
(-0.0793488 0.0122726 -0.000654229)
(-0.0822662 0.00913586 -0.0008635)
(-0.0843091 0.00577113 -0.00108855)
(-0.0854272 0.0022414 -0.00132558)
(-0.0855863 -0.0013842 -0.00157024)
(-0.0847704 -0.00503022 -0.00181762)
(-0.082983 -0.00861526 -0.00206238)
(-0.0802482 -0.0120529 -0.00229882)
(-0.0766122 -0.015253 -0.00252109)
(-0.0721437 -0.0181245 -0.0027234)
(-0.0669342 -0.0205773 -0.00290029)
(-0.0610974 -0.0225263 -0.0030468)
(-0.0547677 -0.023895 -0.00315879)
(-0.0480983 -0.0246195 -0.00323319)
(-0.041257 -0.0246535 -0.0032682)
(-0.0344224 -0.0239722 -0.00326344)
(-0.0277783 -0.022578 -0.00321995)
(-0.0215065 -0.0205043 -0.00314025)
(-0.0157807 -0.0178212 -0.00302803)
(-0.0107594 -0.0146406 -0.00288774)
(-0.00657766 -0.0111223 -0.00272513)
(-0.003334 -0.00748057 -0.00254856)
(-0.00112587 -0.00398775 -0.00235007)
(-0.000147818 -0.000999916 -0.00177101)
(-0.000232488 0.0021746 -0.000869817)
(-0.0015983 0.00701855 -0.000696656)
(-0.00451064 0.0118928 -0.00046288)
(-0.00858508 0.0164851 -0.000278124)
(-0.0136172 0.0205852 -0.000122758)
(-0.0194455 0.0240512 -2.36048e-07)
(-0.025896 0.0267981 8.95487e-05)
(-0.0327947 0.0287844 0.000147703)
(-0.0399715 0.0300008 0.000175032)
(-0.0472615 0.0304602 0.000172306)
(-0.0545058 0.0301907 0.000140314)
(-0.0615535 0.0292307 7.98747e-05)
(-0.0682625 0.0276247 -8.10982e-06)
(-0.0745004 0.0254222 -0.0001226)
(-0.0801454 0.0226758 -0.000262355)
(-0.0850869 0.0194422 -0.000425839)
(-0.0892265 0.015782 -0.000611124)
(-0.092479 0.0117612 -0.000815793)
(-0.0947734 0.00745186 -0.00103687)
(-0.0960544 0.00293303 -0.00127081)
(-0.0962839 -0.00170843 -0.00151345)
(-0.0954422 -0.00637783 -0.00176004)
(-0.0935304 -0.010973 -0.00200527)
(-0.0905712 -0.0153855 -0.00224342)
(-0.0866106 -0.0195023 -0.00246852)
(-0.0817191 -0.0232085 -0.00267457)
(-0.0759914 -0.0263906 -0.00285574)
(-0.0695472 -0.0289408 -0.00300666)
(-0.0625291 -0.0307617 -0.0031227)
(-0.0551012 -0.0317715 -0.00320024)
(-0.0474454 -0.0319096 -0.00323687)
(-0.0397569 -0.0311426 -0.00323156)
(-0.0322389 -0.0294696 -0.00318473)
(-0.025096 -0.0269279 -0.00309822)
(-0.0185267 -0.0235987 -0.00297509)
(-0.0127172 -0.0196116 -0.0028191)
(-0.00783304 -0.0151497 -0.0026355)
(-0.00400331 -0.0104539 -0.00243283)
(-0.00136552 -0.0058227 -0.00219989)
(-0.000182876 -0.00163159 -0.00160163)
(-0.000269451 0.00305713 -0.000949078)
(-0.00183831 0.0094316 -0.000742178)
(-0.00516401 0.0156239 -0.000477657)
(-0.00978713 0.0213335 -0.000271359)
(-0.0154606 0.0263569 -9.95724e-05)
(-0.0219932 0.0305567 3.48464e-05)
(-0.0291851 0.0338518 0.000133078)
(-0.0368412 0.0362055 0.000197317)
(-0.0447752 0.0376141 0.000229215)
(-0.0528083 0.0380976 0.000230179)
(-0.0607711 0.0376922 0.000201446)
(-0.0685033 0.0364453 0.000144119)
(-0.075855 0.0344112 5.92282e-05)
(-0.0826871 0.0316499 -5.2195e-05)
(-0.0888714 0.0282253 -0.000189025)
(-0.0942919 0.024206 -0.000349913)
(-0.0988445 0.0196654 -0.000533159)
(-0.102439 0.0146834 -0.000736597)
(-0.104999 0.00934722 -0.000957501)
(-0.106465 0.00375246 -0.00119252)
(-0.106793 -0.00199585 -0.00143766)
(-0.105959 -0.00778319 -0.00168822)
(-0.103961 -0.0134859 -0.00193889)
(-0.100819 -0.0189723 -0.00218384)
(-0.0965747 -0.0241051 -0.00241688)
(-0.0912994 -0.0287438 -0.00263163)
(-0.0850891 -0.0327495 -0.00282179)
(-0.0780669 -0.0359891 -0.00298144)
(-0.070382 -0.0383416 -0.00310529)
(-0.0622084 -0.0397041 -0.00318901)
(-0.0537412 -0.0399986 -0.00322949)
(-0.045193 -0.0391795 -0.00322495)
(-0.0367878 -0.0372396 -0.00317513)
(-0.0287545 -0.034217 -0.00308124)
(-0.0213199 -0.0302008 -0.00294579)
(-0.0147013 -0.0253356 -0.00277208)
(-0.00909759 -0.0198255 -0.00256516)
(-0.00467149 -0.0139359 -0.0023341)
(-0.00160119 -0.00798997 -0.00206499)
(-0.000216134 -0.00238383 -0.00144472)
(-0.000304272 0.00406018 -0.000987227)
(-0.0020672 0.0121627 -0.000740823)
(-0.00579095 0.0198266 -0.000446167)
(-0.0109455 0.0267673 -0.000218254)
(-0.0172428 0.0327929 -2.96264e-05)
(-0.0244623 0.0377764 0.000117306)
(-0.0323782 0.041646 0.000224655)
(-0.0407743 0.0443746 0.000295567)
(-0.0494474 0.0459681 0.000332427)
(-0.0582057 0.0464563 0.000337197)
(-0.0668692 0.0458859 0.000311513)
(-0.0752695 0.0443149 0.000256717)
(-0.0832499 0.0418089 0.00017393)
(-0.0906654 0.0384391 6.41492e-05)
(-0.097383 0.0342811 -7.16215e-05)
(-0.103282 0.0294158 -0.000232221)
(-0.108253 0.0239297 -0.000416177)
(-0.112202 0.0179164 -0.000621572)
(-0.115048 0.0114782 -0.000845909)
(-0.116725 0.00472733 -0.00108602)
(-0.117185 -0.00221311 -0.00133802)
(-0.116397 -0.00920852 -0.00159725)
(-0.114355 -0.0161133 -0.00185834)
(-0.111072 -0.0227719 -0.00211528)
(-0.106587 -0.0290212 -0.00236152)
(-0.100968 -0.034694 -0.00259022)
(-0.0943103 -0.0396233 -0.0027945)
(-0.0867376 -0.0436482 -0.00296771)
(-0.0784045 -0.0466207 -0.00310378)
(-0.0694936 -0.0484129 -0.00319752)
(-0.060213 -0.0489258 -0.00324493)
(-0.0507928 -0.0480968 -0.00324341)
(-0.0414796 -0.0459087 -0.00319192)
(-0.0325292 -0.0423962 -0.00309105)
(-0.0241993 -0.037653 -0.00294284)
(-0.0167421 -0.0318356 -0.00275023)
(-0.0103936 -0.0251672 -0.00251833)
(-0.0053525 -0.0179365 -0.00225705)
(-0.00183924 -0.0104926 -0.00195012)
(-0.000249021 -0.00325562 -0.00130366)
(-0.00033757 0.00517854 -0.000978046)
(-0.00228735 0.0151998 -0.000685024)
(-0.00639583 0.0244855 -0.000361012)
(-0.0120659 0.0327694 -0.000111785)
(-0.0189701 0.0398757 9.36438e-05)
(-0.0268591 0.0456928 0.000253227)
(-0.0354813 0.0501635 0.000369902)
(-0.0445996 0.0532746 0.000447655)
(-0.0539941 0.0550456 0.000489526)
(-0.0634602 0.0555195 0.000497969)
(-0.0728079 0.0547562 0.000474961)
(-0.0818614 0.0528261 0.000422026)
(-0.0904583 0.0498074 0.000340332)
(-0.0984488 0.0457834 0.00023082)
(-0.105696 0.0408421 9.4351e-05)
(-0.112076 0.0350768 -6.812e-05)
(-0.117475 0.0285866 -0.000255366)
(-0.121795 0.0214789 -0.000465724)
(-0.12495 0.0138705 -0.000696925)
(-0.126868 0.0058897 -0.000945978)
(-0.127497 -0.00232256 -0.0012091)
(-0.126798 -0.010612 -0.00148167)
(-0.124757 -0.0188109 -0.00175819)
(-0.121381 -0.0267395 -0.00203241)
(-0.116703 -0.0342081 -0.00229738)
(-0.110784 -0.0410207 -0.00254568)
(-0.103716 -0.0469804 -0.00276972)
(-0.0956234 -0.0518951 -0.00296199)
(-0.0866622 -0.055586 -0.00311546)
(-0.0770227 -0.0578962 -0.00322391)
(-0.0669253 -0.0587001 -0.00328228)
(-0.0566183 -0.0579137 -0.00328701)
(-0.0463718 -0.055504 -0.00323619)
(-0.0364712 -0.0514978 -0.00312972)
(-0.0272085 -0.0459891 -0.00296916)
(-0.0188746 -0.0391435 -0.00275721)
(-0.0117462 -0.0312012 -0.00249919)
(-0.0060618 -0.0224748 -0.00220611)
(-0.00208632 -0.0133409 -0.00185948)
(-0.000282884 -0.00424958 -0.00118118)
(-0.000369788 0.0064082 -0.000915687)
(-0.00250064 0.018533 -0.000567634)
(-0.00698247 0.029587 -0.000215105)
(-0.0131535 0.0393239 5.49193e-05)
(-0.0206482 0.0475882 0.000276811)
(-0.0291891 0.0542883 0.000448841)
(-0.0384992 0.0593862 0.000574695)
(-0.0483206 0.0628872 0.000659138)
(-0.0584171 0.0648286 0.000705808)
(-0.0685718 0.0652701 0.000717597)
(-0.0785857 0.0642872 0.000696757)
(-0.0882761 0.0619654 0.000644946)
(-0.0974759 0.0583966 0.000563342)
(-0.106032 0.0536773 0.000452795)
(-0.113805 0.0479083 0.000313991)
(-0.120667 0.0411951 0.000147646)
(-0.126504 0.0336495 -4.52874e-05)
(-0.131211 0.0253917 -0.000263419)
(-0.1347 0.0165524 -0.000504726)
(-0.136894 0.00727504 -0.000766416)
(-0.137731 -0.00228266 -0.00104483)
(-0.137167 -0.0119473 -0.00133536)
(-0.135178 -0.0215295 -0.0016324)
(-0.131763 -0.0308253 -0.0019294)
(-0.126945 -0.0396176 -0.00221894)
(-0.120777 -0.0476804 -0.00249295)
(-0.113344 -0.054784 -0.002743)
(-0.104768 -0.0607025 -0.00296057)
(-0.0952047 -0.0652217 -0.0031375)
(-0.0848498 -0.0681504 -0.00326633)
(-0.0739351 -0.0693309 -0.00334078)
(-0.0627268 -0.0686513 -0.0033561)
(-0.0515201 -0.0660567 -0.00330936)
(-0.0406319 -0.0615602 -0.00319965)
(-0.0303923 -0.0552511 -0.00302803)
(-0.0211348 -0.0473006 -0.00279698)
(-0.0131817 -0.0379644 -0.00251211)
(-0.00681521 -0.0275792 -0.00218577)
(-0.00234903 -0.0165529 -0.00179724)
(-0.000318983 -0.00537193 -0.0010799)
(-0.000401238 0.00774606 -0.000794488)
(-0.00270851 0.0221541 -0.000381742)
(-0.00755385 0.0351187 -1.53067e-06)
(-0.0142125 0.0464158 0.000288649)
(-0.0222818 0.0559136 0.000526465)
(-0.0314563 0.0635444 0.000710484)
(-0.0414341 0.0692945 0.000845112)
(-0.0519371 0.0731922 0.000935858)
(-0.0627131 0.0752966 0.000986917)
(-0.0735336 0.0756879 0.00100156)
(-0.0841911 0.0744603 0.00098228)
(-0.0944978 0.0717164 0.00093082)
(-0.104283 0.0675636 0.000848334)
(-0.113391 0.0621128 0.000735539)
(-0.121681 0.0554775 0.000592902)
(-0.129025 0.0477757 0.000420857)
(-0.135305 0.0391311 0.000220048)
(-0.140415 0.0296759 -8.44689e-06)
(-0.144262 0.0195535 -0.000262895)
(-0.146763 0.00892084 -0.000540751)
(-0.147851 -0.00204855 -0.000838517)
(-0.147472 -0.0131635 -0.00115162)
(-0.145592 -0.0242142 -0.00147434)
(-0.142197 -0.0349724 -0.00179981)
(-0.1373 -0.0451936 -0.00212011)
(-0.130944 -0.0546206 -0.00242646)
(-0.123202 -0.0629889 -0.00270946)
(-0.11419 -0.0700348 -0.00295945)
(-0.104061 -0.0755045 -0.0031669)
(-0.0930127 -0.0791663 -0.00332292)
(-0.0812872 -0.0808239 -0.00341976)
(-0.0691677 -0.0803298 -0.00345124)
(-0.056975 -0.0775999 -0.00341318)
(-0.0450602 -0.0726264 -0.00330371)
(-0.0337943 -0.065488 -0.00312325)
(-0.0235586 -0.0563574 -0.00287401)
(-0.0147261 -0.0455035 -0.00256199)
(-0.00762844 -0.0332884 -0.002201)
(-0.00263382 -0.0201545 -0.00176797)
(-0.000358501 -0.00663236 -0.00100278)
(-0.000432126 0.00918969 -0.000608837)
(-0.002912 0.0260561 -0.000120528)
(-0.00811225 0.0410697 0.00028656)
(-0.0152461 0.0540309 0.000596174)
(-0.0238738 0.0648345 0.00084923)
(-0.0336625 0.0734414 0.0010446)
(-0.0442856 0.0798664 0.0011874)
(-0.0554448 0.0841658 0.00128387)
(-0.0668729 0.0864247 0.00133874)
(-0.0783304 0.0867479 0.00135561)
(-0.0896027 0.0852512 0.00133719)
(-0.100498 0.0820569 0.0012853)
(-0.110842 0.0772899 0.001201)
(-0.120481 0.0710759 0.00108485)
(-0.129273 0.0635422 0.000937034)
(-0.13709 0.0548187 0.000757669)
(-0.143813 0.0450402 0.000547036)
(-0.149336 0.0343497 0.000305839)
(-0.153562 0.0229015 3.54502e-05)
(-0.156403 0.0108649 -0.000261896)
(-0.157783 -0.00157327 -0.000582925)
(-0.157641 -0.0142058 -0.000923146)
(-0.15593 -0.0268036 -0.00127675)
(-0.152624 -0.0391156 -0.00163659)
(-0.147721 -0.0508702 -0.00199423)
(-0.141247 -0.0617779 -0.0023401)
(-0.133266 -0.0715375 -0.00266374)
(-0.123879 -0.0798441 -0.00295418)
(-0.113234 -0.0863993 -0.00320034)
(-0.101528 -0.0909246 -0.00339163)
(-0.0890101 -0.0931768 -0.00351853)
(-0.0759782 -0.0929646 -0.00357315)
(-0.062779 -0.0901655 -0.00354977)
(-0.0497993 -0.084742 -0.00344527)
(-0.0374551 -0.0767549 -0.00325925)
(-0.0261801 -0.0663727 -0.00299355)
(-0.0164047 -0.0538753 -0.00265453)
(-0.0085168 -0.0396504 -0.00225759)
(-0.00294693 -0.0241794 -0.00177708)
(-0.000402578 -0.00804391 -0.000953469)
(-0.000462592 0.0107371 -0.00035311)
(-0.00311188 0.0302329 0.000222821)
(-0.00865941 0.04743 0.00065601)
(-0.0162565 0.0621549 0.000984291)
(-0.0254262 0.0743327 0.0012518)
(-0.0358079 0.083957 0.00145773)
(-0.0470504 0.0910761 0.00160793)
(-0.0588356 0.095779 0.00170937)
(-0.0708818 0.0981817 0.00176728)
(-0.0829396 0.0984173 0.00178563)
(-0.0947884 0.0966272 0.00176731)
(-0.106233 0.0929558 0.00171417)
(-0.117102 0.0875472 0.00162718)
(-0.127239 0.0805436 0.00150666)
(-0.136506 0.0720859 0.0013525)
(-0.144776 0.0623157 0.00116442)
(-0.151934 0.051378 0.000942281)
(-0.157872 0.0394252 0.000686325)
(-0.16249 0.0266206 0.000397476)
(-0.165697 0.0131431 7.75671e-05)
(-0.167411 -0.000809304 -0.00027043)
(-0.167559 -0.0150158 -0.000642191)
(-0.166082 -0.0292305 -0.0010319)
(-0.162939 -0.0431812 -0.00143216)
(-0.158111 -0.0565698 -0.00183405)
(-0.151606 -0.0690748 -0.00222716)
(-0.14347 -0.0803568 -0.00259992)
(-0.133788 -0.0900663 -0.00293986)
(-0.122697 -0.0978551 -0.00323414)
(-0.110388 -0.103391 -0.0034702)
(-0.0971111 -0.106375 -0.0036364)
(-0.0831791 -0.106562 -0.00372276)
(-0.0689626 -0.10378 -0.00372164)
(-0.0548849 -0.0979517 -0.00362832)
(-0.0414104 -0.08911 -0.00344129)
(-0.0290309 -0.0774122 -0.00316181)
(-0.0182416 -0.0631454 -0.00279652)
(-0.00949513 -0.0467229 -0.00236251)
(-0.00329452 -0.0286683 -0.00183119)
(-0.000452329 -0.00962289 -0.000936688)
(-0.00049275 0.0123867 -2.16411e-05)
(-0.00330887 0.0346792 0.000655163)
(-0.00919698 0.0541901 0.00111373)
(-0.0172458 0.0707737 0.00145988)
(-0.0269405 0.0843887 0.00174095)
(-0.0378919 0.0950663 0.0019565)
(-0.0497237 0.102893 0.00211314)
(-0.0620984 0.107996 0.00221857)
(-0.0747203 0.110528 0.00227857)
(-0.0873313 0.110654 0.00229748)
(-0.0997065 0.108545 0.00227839)
(-0.11165 0.10437 0.00222314)
(-0.122992 0.0982951 0.00213259)
(-0.133581 0.0904799 0.0020068)
(-0.143281 0.0810795 0.00184529)
(-0.151973 0.0702466 0.00164735)
(-0.159542 0.0581354 0.0014123)
(-0.165883 0.0449056 0.00113984)
(-0.170897 0.0307274 0.00083034)
(-0.17449 0.0157865 0.000485119)
(-0.176573 0.000289128 0.00010673)
(-0.177062 -0.0155337 -0.000300788)
(-0.175887 -0.0314224 -0.000731722)
(-0.172989 -0.047086 -0.00117855)
(-0.168329 -0.0622022 -0.00163187)
(-0.161894 -0.0764182 -0.00208048)
(-0.153706 -0.0893553 -0.00251159)
(-0.14383 -0.100617 -0.00291112)
(-0.132385 -0.1098 -0.00326426)
(-0.119549 -0.116511 -0.00355614)
(-0.105571 -0.120387 -0.00377263)
(-0.090771 -0.121115 -0.00390119)
(-0.0755415 -0.118461 -0.00393177)
(-0.0603426 -0.112296 -0.0038576)
(-0.0456897 -0.102612 -0.00367565)
(-0.0321391 -0.0895467 -0.00338626)
(-0.0202594 -0.0733874 -0.0029962)
(-0.0105778 -0.0545718 -0.0025243)
(-0.00368262 -0.0336694 -0.00193859)
(-0.000508888 -0.0113888 -0.000958591)
(-0.00052276 0.0141372 0.000391299)
(-0.00350388 0.0393907 0.00118348)
(-0.00972701 0.0613413 0.00166679)
(-0.0182169 0.0798729 0.00202998)
(-0.0284188 0.0949817 0.00232361)
(-0.0399137 0.106741 0.00254764)
(-0.0522998 0.115282 0.00270948)
(-0.0652198 0.120775 0.00281765)
(-0.0783648 0.123414 0.00287852)
(-0.0914693 0.123403 0.00289685)
(-0.104306 0.120946 0.00287591)
(-0.116681 0.116241 0.00281758)
(-0.128428 0.109477 0.00272257)
(-0.139402 0.100832 0.00259066)
(-0.149477 0.0904775 0.00242094)
(-0.158537 0.0785755 0.00221219)
(-0.166477 0.0652883 0.00196311)
(-0.173196 0.050781 0.00167275)
(-0.178596 0.035228 0.00134079)
(-0.182582 0.0188185 0.000967905)
(-0.18506 0.00176323 0.000556071)
(-0.185938 -0.0157005 0.000108876)
(-0.185132 -0.033303 -0.000368228)
(-0.182565 -0.0507389 -0.000867711)
(-0.178176 -0.0676644 -0.00137983)
(-0.171927 -0.0836972 -0.00189261)
(-0.163811 -0.0984199 -0.00239202)
(-0.153867 -0.111387 -0.00286228)
(-0.142188 -0.122136 -0.00328637)
(-0.128933 -0.130205 -0.0036468)
(-0.114339 -0.135155 -0.00392648)
(-0.0987286 -0.136594 -0.00410981)
(-0.0825122 -0.134211 -0.0041837)
(-0.0661847 -0.127806 -0.00413874)
(-0.0503148 -0.117317 -0.00396982)
(-0.0355289 -0.102849 -0.0036759)
(-0.0224787 -0.0846806 -0.0032636)
(-0.0117786 -0.0632711 -0.00275349)
(-0.00411732 -0.0392378 -0.00210967)
(-0.000573434 -0.0133644 -0.00102714)
(-0.000552814 0.0159879 0.000891537)
(-0.0036982 0.0443641 0.00181497)
(-0.0102527 0.0688761 0.00232247)
(-0.0191741 0.0894385 0.00270184)
(-0.0298651 0.106089 0.00300684)
(-0.0418748 0.118948 0.00323792)
(-0.0547742 0.128198 0.00340338)
(-0.0681861 0.13406 0.00351264)
(-0.0817893 0.136777 0.00357277)
(-0.0953125 0.136594 0.00358899)
(-0.108528 0.133755 0.00356482)
(-0.121247 0.128491 0.00350221)
(-0.133309 0.121015 0.00340171)
(-0.144582 0.111528 0.00326279)
(-0.154948 0.100214 0.00308409)
(-0.164303 0.0872461 0.00286376)
(-0.172551 0.0727934 0.00259981)
(-0.179599 0.0570239 0.00229049)
(-0.185356 0.0401131 0.00193468)
(-0.189726 0.0222503 0.00153223)
(-0.192614 0.00364603 0.00108435)
(-0.193921 -0.0154605 0.000593969)
(-0.193548 -0.0347948 6.60775e-05)
(-0.191401 -0.0540417 -0.000491976)
(-0.187395 -0.0728403 -0.00107025)
(-0.181463 -0.0907825 -0.00165614)
(-0.173565 -0.107414 -0.0022344)
(-0.163706 -0.12224 -0.00278748)
(-0.151945 -0.134735 -0.00329597)
(-0.138412 -0.144361 -0.00373943)
(-0.123323 -0.150592 -0.00409733)
(-0.106995 -0.152943 -0.00435035)
(-0.0898478 -0.151008 -0.00448167)
(-0.0724074 -0.144496 -0.00447846)
(-0.0552971 -0.133273 -0.00433278)
(-0.0392189 -0.11739 -0.0040416)
(-0.0249182 -0.0971087 -0.00361093)
(-0.0131109 -0.0729016 -0.00306303)
(-0.00460476 -0.0454352 -0.0023574)
(-0.000647227 -0.0155755 -0.00115253)
(-0.000583266 0.0179389 0.00148502)
(-0.00389398 0.0495984 0.00255709)
(-0.010779 0.0767889 0.00308842)
(-0.0201248 0.099457 0.003483)
(-0.0312872 0.117686 0.00379793)
(-0.04378 0.131651 0.00403421)
(-0.057145 0.141592 0.00420118)
(-0.0709849 0.147789 0.0043093)
(-0.0849669 0.150539 0.00436647)
(-0.0988156 0.15014 0.00437848)
(-0.112306 0.146879 0.00434922)
(-0.125257 0.141021 0.00428072)
(-0.137521 0.132811 0.00417343)
(-0.148977 0.122469 0.00402647)
(-0.159524 0.110197 0.00383796)
(-0.169072 0.0961777 0.00360538)
(-0.177539 0.080584 0.00332593)
(-0.184845 0.0635851 0.00299696)
(-0.190905 0.0453542 0.00261634)
(-0.195631 0.0260766 0.00218293)
(-0.198927 0.00595811 0.00169693)
(-0.200689 -0.0147659 0.00116038)
(-0.200806 -0.0358222 0.000577572)
(-0.199168 -0.0568917 -4.45899e-05)
(-0.195662 -0.0776028 -0.000696203)
(-0.190192 -0.0975266 -0.00136419)
(-0.18268 -0.116176 -0.00203226)
(-0.173088 -0.133007 -0.00268108)
(-0.161433 -0.147431 -0.00328872)
(-0.147805 -0.158828 -0.00383144)
(-0.132387 -0.166573 -0.00428479)
(-0.115475 -0.170072 -0.00462503)
(-0.0974919 -0.168802 -0.00483076)
(-0.0789869 -0.16236 -0.00488475)
(-0.0606357 -0.150512 -0.0047753)
(-0.0432214 -0.133236 -0.00449648)
(-0.0275941 -0.110757 -0.00405311)
(-0.0145877 -0.0835498 -0.00346891)
(-0.00515129 -0.0523297 -0.00269795)
(-0.000731642 -0.0180516 -0.00134771)
(-0.000614696 0.0199915 0.00217788)
(-0.00409459 0.0550953 0.00341777)
(-0.0113142 0.0850774 0.00397276)
(-0.0210812 0.109917 0.00438149)
(-0.0326985 0.129748 0.00470451)
(-0.0456398 0.144807 0.00494351)
(-0.0594154 0.155402 0.00510908)
(-0.0736069 0.161881 0.00521295)
(-0.0878708 0.164606 0.00526405)
(-0.101931 0.163932 0.00526894)
(-0.115568 0.160195 0.00523196)
(-0.128612 0.153704 0.00515536)
(-0.140932 0.144734 0.00503948)
(-0.152427 0.133529 0.00488311)
(-0.163013 0.120307 0.00468381)
(-0.172622 0.105261 0.0044383)
(-0.181188 0.0885651 0.00414287)
(-0.188649 0.0703886 0.00379382)
(-0.194932 0.0508983 0.00338786)
(-0.199959 0.0302711 0.0029226)
(-0.203638 0.00870283 0.00239701)
(-0.205863 -0.0135812 0.00181197)
(-0.206516 -0.0363157 0.00117075)
(-0.205468 -0.0591855 0.00047951)
(-0.202585 -0.0818158 -0.000252191)
(-0.197733 -0.103765 -0.00101111)
(-0.190794 -0.124517 -0.0017801)
(-0.181683 -0.143486 -0.00253817)
(-0.170361 -0.160019 -0.00326081)
(-0.156866 -0.173408 -0.00392074)
(-0.141335 -0.182923 -0.00448906)
(-0.124028 -0.187841 -0.00493686)
(-0.105353 -0.1875 -0.00523717)
(-0.0858739 -0.181356 -0.00536722)
(-0.0663143 -0.169045 -0.00531029)
(-0.0475407 -0.150442 -0.00505639)
(-0.0305196 -0.125707 -0.00460827)
(-0.0162216 -0.0953063 -0.00399074)
(-0.00576358 -0.0599955 -0.00315139)
(-0.000828216 -0.0208254 -0.00162896)
(-0.000648021 0.0221494 0.00297656)
(-0.00430526 0.0608617 0.00440562)
(-0.0118705 0.0937448 0.00498441)
(-0.0220618 0.12081 0.00540601)
(-0.0341201 0.142248 0.00573465)
(-0.047473 0.158368 0.00597297)
(-0.0615955 0.169557 0.00613308)
(-0.0760473 0.176243 0.00622834)
(-0.0904761 0.178861 0.00626902)
(-0.104607 0.177835 0.00626266)
(-0.118233 0.173558 0.00621429)
(-0.1312 0.166383 0.00612643)
(-0.143398 0.156623 0.00599941)
(-0.154751 0.144548 0.00583169)
(-0.165199 0.13039 0.00562024)
(-0.174699 0.114351 0.00536096)
(-0.18321 0.0966093 0.00504911)
(-0.190689 0.0773272 0.00467976)
(-0.197082 0.0566633 0.00424827)
(-0.202326 0.0347812 0.00375077)
(-0.206336 0.0118611 0.00318476)
(-0.20901 -0.0118881 0.00254963)
(-0.210226 -0.0362172 0.00184729)
(-0.209841 -0.0608235 0.00108278)
(-0.207696 -0.0853385 0.000264915)
(-0.203626 -0.109317 -0.000593286)
(-0.197468 -0.132225 -0.00147416)