/*--------------------------------*- C++ -*----------------------------------*\
  =========                 |
  \\      /  F ield         | OpenFOAM: The Open Source CFD Toolbox
   \\    /   O peration     | Website:  https://openfoam.org
    \\  /    A nd           | Version:  9
     \\/     M anipulation  |
\*---------------------------------------------------------------------------*/
FoamFile
{
    format      ascii;
    class       volVectorField;
    location    "14.8";
    object      U;
}
// * * * * * * * * * * * * * * * * * * * * * * * * * * * * * * * * * * * * * //

dimensions      [0 1 -1 0 0 0 0];

internalField   nonuniform List<vector> 
918
(
(2.47629 -0.138943 0)
(0.108704 0.722546 0)
(0.173895 1.09174 0)
(2.31834 0.153729 0)
(-0.0587 1.24225 -1.20428e-19)
(-0.0924034 0.643931 -5.32191e-18)
(0.523382 0.840267 -2.99448e-19)
(0.276358 0.153851 -2.99116e-20)
(3.00615 -0.0195636 0)
(-0.00887772 0.478395 0)
(-0.0180821 0.597404 0)
(0.60578 0.0066996 0)
(0.0107054 0.439105 0)
(-0.00288712 0.421697 0)
(0.0138643 0.342272 -1.30887e-18)
(-0.00539485 0.755341 -9.20595e-20)
(0.313484 0.0744396 2.15131e-18)
(0.0785416 0.639825 -2.25935e-19)
(1.52886 0.128622 0)
(-0.0282889 0.700944 0)
(0.196474 0.15895 -1.26855e-18)
(3.08302 -0.397377 0)
(2.92445 -0.505985 0)
(1.86116 -0.181103 0)
(0.512297 0.0401035 0)
(-0.0253396 0.521557 0)
(-0.00135328 0.494038 1.86574e-18)
(-0.0243628 1.43989 0)
(0.0727717 2.94976 0)
(0.169505 1.78646 0)
(-0.0415271 3.10465 0)
(0.0258533 1.60486 9.25919e-20)
(0.0220745 0.672937 0)
(-0.147425 0.775094 -2.0341e-22)
(-0.193914 1.0291 4.42796e-18)
(-0.0415772 1.04471 0)
(0.74442 -0.00602547 0)
(0.163094 0.249362 6.67132e-19)
(0.981055 1.49656 6.59317e-19)
(0.641498 0.774851 -5.20893e-19)
(0.789958 1.5587 6.29659e-20)
(0.412145 0.843064 -3.25189e-19)
(0.556709 0.308842 2.94176e-20)
(0.298919 0.154482 0)
(0.953973 0.560803 0)
(0.537531 0.306467 1.3218e-19)
(0.260283 0.164061 -1.35636e-19)
(0.871546 -0.0554878 0)
(3.02784 -0.00171078 0)
(3.00685 0.0178626 0)
(3.20086 -0.41774 0)
(3.04288 -0.0742183 0)
(3.03116 -0.0388449 0)
(0.0178001 0.909018 -1.14549e-18)
(-0.0540024 0.975206 0)
(0.00257418 0.455472 0)
(-0.0292857 0.984542 0)
(-0.0119813 0.484243 0)
(-0.00215795 0.864695 0)
(-0.052852 1.12437 0)
(-0.012916 0.548122 0)
(-0.026721 1.17989 0)
(-0.00674867 0.631867 0)
(0.789859 0.0115333 0)
(1.17042 -0.00164482 0)
(0.618687 0.0123352 0)
(1.12703 0.0175821 0)
(0.570409 0.00863453 0)
(0.225406 0.921982 1.96288e-18)
(0.0985379 1.2081 0)
(0.176302 1.06604 0)
(0.0331901 0.755774 2.20291e-23)
(0.0372233 0.498055 -2.93565e-18)
(0.0194616 0.747943 0)
(0.0059542 0.422033 0)
(-0.000699955 0.734554 4.52641e-24)
(0.000701306 0.414827 0)
(-0.0169383 0.7432 0)
(-0.0129526 0.428006 0)
(0.0505304 0.653691 0)
(0.0493644 0.461506 0)
(0.00862258 0.623875 1.23751e-18)
(0.00105995 0.345446 0)
(-0.0792714 4.66604 0)
(0.00788307 1.4345 9.13959e-20)
(-0.0105033 0.773477 -1.17465e-19)
(0.638512 0.152645 -7.50605e-19)
(0.322565 0.0657818 -7.28278e-19)
(0.647672 0.170397 -2.25387e-18)
(0.31883 0.0958902 -1.45138e-18)
(0.0794373 0.626421 0)
(0.176409 1.30589 1.87871e-19)
(0.177749 0.725283 -2.99766e-19)
(2.06035 0.260929 0)
(1.10707 0.118441 0)
(3.03313 0.103884 0)
(3.10392 0.446056 0)
(2.8392 0.377451 -1.01193e-17)
(2.57811 0.361307 7.76473e-18)
(-0.0717677 1.29095 0)
(-0.0115719 0.637573 0)
(-0.0170158 1.95253 0)
(-0.0532589 1.38085 0)
(-0.0498171 0.696407 0)
(0.444244 0.298759 4.01561e-19)
(0.227372 0.164857 0)
(2.29608 -0.266404 0)
(1.32371 -0.11928 0)
(1.07781 0.0125646 0)
(1.01378 0.0187012 0)
(0.541699 0.0107535 0)
(1.01751 0.0560552 0)
(0.822821 0.0704846 0)
(0.344217 0.0287372 3.35981e-18)
(-0.00545357 0.45153 1.77756e-18)
(-0.0270817 0.7847 0)
(-0.0474902 0.847736 0)
(-0.0153083 0.460547 0)
(0.000131776 0.839724 1.81936e-18)
(7.21387e-05 0.487529 0)
(-0.00547901 0.845554 -5.60042e-18)
(-0.00488636 0.496761 1.88969e-18)
(0.0482171 3.63063 0)
(0.0352488 4.07721 0)
(-0.0165827 1.38513 -2.06491e-21)
(-0.0143765 1.33695 0)
(-0.0099946 0.727911 0)
(1.40983 0.0348278 0)
(0.760316 0.0153948 0)
(0.709668 0.0142483 0)
(1.41593 -0.0328824 0)
(0.773399 -0.00876295 0)
(0.32631 0.486387 -8.37627e-19)
(0.158693 0.235434 0)
(0.329399 0.515974 9.38864e-20)
(0.16556 0.27197 0)
(1.22641 1.36958 1.67933e-19)
(0.769614 0.731819 -3.95174e-19)
(0.408085 1.41066 0)
(0.600713 1.51966 0)
(0.300343 0.808235 0)
(0.147533 0.358652 -4.4433e-19)
(0.611531 0.282422 0)
(0.315166 0.135201 3.98939e-19)
(1.41214 1.29106 0)
(1.57176 1.15593 0)
(0.865896 0.656416 4.64044e-19)
(1.71973 0.944185 0)
(1.06041 0.434893 2.30241e-20)
(1.4728 0.00810225 0)
(1.50089 -0.0292617 0)
(0.801818 -0.00443178 0)
(1.95038 -0.199793 0)
(1.65075 -0.148197 0)
(1.05212 -0.0889781 0)
(3.06126 0.164848 0)
(3.03105 0.0687809 0)
(3.01022 0.0531552 0)
(0.0337898 1.61779 6.07895e-19)
(0.0170707 0.835318 0)
(0.0166163 1.70524 1.07885e-18)
(0.0021898 0.942784 -9.69859e-19)
(0.0638712 1.14811 1.90307e-19)
(0.0473809 0.987954 0)
(0.0393384 0.528362 0)
(-0.0295851 1.01146 0)
(-0.00758412 0.521363 0)
(0.0166226 1.60821 -4.42005e-21)
(-0.0188095 0.863457 0)
(-0.0541915 1.57311 -2.24988e-19)
(-0.0163951 0.814413 4.35662e-19)
(-0.00274839 1.03852 0)
(0.00966226 1.055 0)
(-0.000511141 0.536807 0)
(0.00923075 1.19186 0)
(0.000223317 0.62448 0)
(1.46695 -0.00392949 0)
(0.788392 0.00794376 0)
(1.43958 0.0330533 0)
(0.76135 -0.000603973 0)
(0.675662 0.00530742 0)
(1.26257 0.0166174 0)
(1.20317 0.0472726 0)
(0.660053 0.0155151 0)
(-0.00580072 1.42077 -1.70514e-20)
(0.000184261 1.37708 0)
(0.00482009 0.732923 0)
(0.00172887 0.417221 0)
(0.287982 0.836171 0)
(0.256557 0.403856 -2.87546e-19)
(-0.00180145 0.635976 0)
(-0.00876369 0.367657 0)
(0.000103247 4.37054 0)
(-0.0597096 4.65413 0)
(-0.0310197 4.57896 0)
(-0.0765251 3.31146 2.07294e-20)
(-0.0706707 4.56393 0)
(-0.0610846 4.12704 0)
(0.00406014 0.808947 1.07063e-20)
(0.013256 1.5418 1.64943e-19)
(-0.0356772 1.48092 1.2069e-19)
(-0.00794918 0.814432 0)
(0.666518 0.105988 1.15249e-18)
(0.326482 0.0441914 -1.12948e-18)
(0.151341 1.14848 0)
(0.10228 0.581036 -2.70122e-19)
(0.119801 1.2491 -8.76712e-19)
(0.0523757 0.695985 8.72212e-19)
(0.809282 0.0240454 0)
(1.55689 0.0476497 0)
(1.70977 0.127636 0)
(0.919894 0.0445119 0)
(0.00705634 1.20563 0)
(0.0247974 1.21589 0)
(0.00390898 0.640984 0)
(0.487035 0.318195 1.20531e-18)
(0.441286 0.312429 -1.38898e-18)
(0.236981 0.1657 0)
(1.93011 0.151714 1.15106e-19)
(1.13278 0.0925154 0)
(1.72068 0.117944 0)
(0.882077 0.0224578 0)
(0.679916 0.0858452 0)
(0.70121 0.0461555 -5.40255e-18)
(0.347372 0.0326118 1.99727e-18)
(0.00910444 0.807215 1.69734e-18)
(0.00220954 0.462484 4.08137e-20)
(-0.0108777 1.40842 -3.58621e-20)
(0.00613615 1.38675 1.36816e-18)
(-0.0149832 0.848955 6.30521e-20)
(-0.0119261 0.524486 -2.53332e-22)
(-0.107514 1.00068 -1.16676e-18)
(-0.0529602 1.3532 8.35338e-19)
(-0.0175323 1.35275 -1.36004e-18)
(1.42201 -0.0171592 0)
(1.44183 0.0202286 0)
(0.769533 -0.000234495 0)
(1.45235 0.0253546 0)
(1.36344 0.0462072 0)
(0.761653 0.0202884 0)
(1.30108 -0.00219977 0)
(1.31901 -0.00589932 0)
(0.695269 -0.00102207 0)
(0.308539 0.479186 -9.16877e-19)
(0.163259 0.245497 0)
(0.15931 0.312525 1.37367e-19)
(0.313802 0.593978 1.12539e-18)
(0.311621 0.556136 -6.66223e-19)
(0.158903 0.285667 1.3018e-18)
(0.282509 0.728561 2.18881e-18)
(0.150415 0.38641 3.95006e-19)
(0.6393 0.214175 1.53736e-18)
(0.629609 0.25502 3.99311e-19)
(0.318018 0.11546 7.49353e-19)
(1.90848 0.708189 -6.00265e-19)
(1.16079 0.333298 -7.02133e-19)
(-0.0366264 1.7086 4.63677e-19)
(-0.0124428 0.927252 0)
(1.60122 0.0234413 0)
(1.52008 0.0651013 0)
(0.851794 0.0266446 0)
(-0.0035592 1.38473 0)
(0.00507313 0.729575 2.49982e-18)
(0.00465013 0.731252 0)
(0.00207052 0.415097 -2.44676e-18)
(-0.0102771 1.38627 5.96809e-19)
(-0.00947377 1.4225 0)
(0.340544 0.493859 2.58387e-19)
(0.364148 0.552551 -8.64375e-19)
(0.173823 0.260731 7.82329e-19)
(-0.0256963 0.767333 -1.66641e-18)
(-0.0260692 0.689699 0)
(-0.0154164 0.412842 0)
(0.029323 1.53412 -1.26347e-20)
(0.0302408 1.56275 -3.63694e-19)
(0.0171105 0.814292 -1.54555e-20)
(0.216181 1.05812 8.92935e-19)
(0.121123 0.515834 -5.94204e-19)
(0.0110638 1.49977 7.31664e-19)
(0.055548 1.36685 -8.16957e-19)
(0.0264777 0.769038 3.56835e-20)
(0.00748611 1.36614 -3.81546e-18)
(-0.000238385 1.39327 4.41852e-18)
(0.00376973 0.829772 1.73638e-18)
(-0.0138439 0.805077 -1.72902e-18)
(-0.00431268 0.481393 -1.74203e-18)
(-0.0106568 1.41685 -4.50866e-18)
(-0.0152262 1.40032 4.59804e-18)
(0.2908 0.68479 0)
(0.30419 0.643572 -2.29493e-18)
(0.154198 0.33639 9.93541e-19)
(0.285573 0.807827 1.1892e-18)
(0.140904 0.4339 -1.83486e-18)
(2.04918 0.320102 4.15473e-19)
(2.04106 0.543272 0)
(1.21331 0.219402 -4.01603e-19)
(-0.0745683 1.632 -4.79213e-21)
(-0.0160311 1.69155 0)
(-0.0166772 0.921531 0)
(0.22977 0.957729 -3.23801e-19)
(0.251654 0.879405 -7.09236e-19)
(0.130475 0.470029 1.32919e-18)
(3.16441 -0.442887 0)
(3.34728 -0.414701 1.81125e-18)
(0.0554402 3.53905 0)
(0.0443517 2.87047 0)
(3.15926 0.249899 1.41896e-20)
(3.12355 0.50628 3.70895e-18)
(0.0186264 3.3786 -2.78218e-20)
(0.00780714 2.6163 0)
(-0.0412862 1.19621 1.5588e-18)
(0.193645 1.32314 0)
(3.45435 1.61246 -3.24941e-19)
(3.17433 0.272529 -2.96109e-20)
(3.14827 -0.118763 0)
(3.10047 -0.000423847 3.71225e-22)
(0.0399007 2.5824 0)
(0.153007 3.32336 0)
(-0.0599201 2.55493 0)
(-0.0300043 3.47815 3.1563e-19)
(-0.0309463 3.54617 1.9921e-19)
(2.63519 0.0484237 -1.36342e-20)
(3.04617 0.0306823 0)
(3.15542 0.0860328 0)
(-0.0634203 4.61063 0)
(-0.0492107 3.0402 0)
(-0.0766663 2.98277 0)
(0.643598 3.07954 2.67544e-19)
(3.33883 -0.422486 0)
(3.01136 -0.34583 0)
(3.1699 -0.0530615 2.27522e-18)
(3.2927 -0.328719 -2.73965e-18)
(3.10381 -0.12579 0)
(-0.0702567 4.52568 0)
(0.00565801 3.98106 0)
(-0.00331065 4.29502 0)
(-0.0327985 3.14615 0)
(-0.0181199 2.90814 0)
(-0.0355895 2.48423 0)
(2.9738 -0.00332886 0)
(2.85087 0.0484875 -1.80474e-20)
(2.22355 3.01936 -3.24802e-19)
(3.15695 0.0444315 -2.27628e-18)
(3.19037 0.278161 2.76699e-18)
(3.0828 0.117324 0)
(3.39543 0.32887 2.0853e-18)
(3.35697 0.484343 -2.70418e-18)
(3.07114 0.418411 0)
(-0.0573799 3.30048 0)
(0.0033292 3.22442 8.56385e-20)
(-0.0316286 2.53008 -6.06462e-20)
(3.6998 0.551357 2.26364e-18)
(3.46651 0.206666 0)
(-0.151045 1.27141 -2.17118e-18)
(-0.0612799 0.882031 -1.35375e-19)
(-0.0828508 1.33774 2.99291e-18)
(-0.0340591 1.27116 -9.01784e-19)
(0.000606341 1.08949 0)
(-0.0266865 1.23944 6.96495e-19)
(-0.114676 1.38788 2.15173e-18)
(-0.0587408 1.34058 -1.31723e-18)
(-0.0768585 1.32061 0)
(1.29974 0.600755 0)
(1.18964 0.688085 0)
(3.54065 2.01483 9.54211e-19)
(3.02739 1.91943 -1.19165e-18)
(3.82648 1.69484 0)
(3.36712 1.14847 0)
(3.34941 0.280427 -3.91298e-18)
(2.89896 0.17307 4.83495e-18)
(3.35133 -0.155573 0)
(2.85458 -0.0762015 0)
(3.43642 0.0429486 0)
(3.59381 0.144975 0)
(3.28683 0.119834 0)
(3.55035 0.298513 0)
(3.40842 0.293019 0)
(3.32756 0.21803 0)
(0.0914584 2.78739 0)
(0.0319867 2.08024 0)
(0.119283 3.04131 0)
(0.0901991 2.19631 0)
(0.208555 3.61728 0)
(0.138627 2.69902 -5.5936e-19)
(0.0465717 3.63038 0)
(0.00754451 3.03454 4.05512e-19)
(-0.0298891 3.20809 -5.16447e-19)
(-0.0645016 2.82556 0)
(-0.0268221 2.23021 0)
(-0.0789106 2.92707 0)
(-0.0576427 2.06632 0)
(-0.123197 4.73939 -2.45501e-19)
(-0.0879361 3.91938 2.77436e-19)
(-0.0817549 3.78845 3.08949e-19)
(-0.0554746 2.99981 0)
(-0.111488 3.77803 -4.58436e-19)
(-0.0412579 3.18436 -2.94846e-19)
(-0.0970824 4.77034 1.92372e-19)
(-0.106831 4.44524 -3.50667e-19)
(-0.080914 4.31985 -3.78796e-19)
(3.033 0.0877993 3.35461e-18)
(2.29087 0.032016 -4.22479e-18)
(2.89337 0.132275 -3.32355e-18)
(2.21188 0.0732368 4.15133e-18)
(3.36759 0.0271187 0)
(2.64204 -0.00282472 0)
(3.45231 0.0903206 0)
(3.31887 0.0186549 0)
(2.70472 0.00885634 0)
(3.67728 0.237496 0)
(3.43642 0.0947442 0)
(2.85987 0.0557596 0)
(-0.0313513 4.28307 -1.2099e-20)
(-0.0664818 4.63443 0)
(-0.0721734 4.50977 0)
(-0.0795226 3.46064 8.78908e-20)
(-0.0390996 2.73962 -3.4656e-21)
(-0.0923652 4.6611 1.14437e-19)
(-0.104961 4.46787 -1.15639e-19)
(-0.0866933 3.98758 0)
(-0.0650212 3.91507 0)
(-0.0319207 4.03001 0)
(-0.076916 3.30312 0)
(-0.0449931 2.34419 0)
(0.935857 3.63197 -6.11585e-19)
(0.909467 2.82494 -1.7764e-19)
(0.435721 2.0797 -2.28922e-19)
(0.254335 2.327 6.98786e-19)
(1.02082 4.21621 2.63776e-19)
(3.43301 -0.167506 0)
(3.3221 -0.256595 0)
(2.88319 -0.189543 0)
(3.47032 -0.0644196 0)
(3.34581 -0.147904 0)
(3.44893 -0.261065 0)
(3.51949 -0.283645 0)
(3.57947 -0.281194 0)
(3.22452 0.0931935 3.61498e-18)
(2.55553 0.0644346 -4.57113e-18)
(3.09701 0.106355 -3.55842e-18)
(2.50977 0.0565362 4.42761e-18)
(2.21974 3.38857 0)
(1.7186 2.91723 -4.47988e-19)
(2.54957 3.32468 -4.05062e-19)
(2.34307 2.50204 5.38237e-19)
(0.785287 1.2289 2.72817e-18)
(1.45102 0.216618 1.34198e-18)
(3.7184 0.301715 0)
(3.88787 0.568806 -1.84453e-18)
(3.29254 0.242079 -8.22466e-20)
(3.72479 0.437634 0)
(0.244533 1.31599 1.80067e-18)
(-0.0127068 1.2036 -2.88349e-18)
(0.0629769 0.77106 1.61882e-18)
(0.281362 0.467678 -7.49749e-19)
(0.191373 1.38985 8.73156e-19)
(0.0531012 1.23983 0)
(0.0594743 1.08977 -1.13509e-18)
(0.197653 1.44738 -4.1025e-18)
(0.336743 1.56373 0)
(0.0086094 1.29016 1.19844e-19)
(-0.00977583 1.45729 -1.34306e-18)
(-0.0410859 1.30286 1.95252e-18)
(-0.0575571 1.41766 0)
(-0.0205652 1.38221 0)
(0.689547 1.06222 0)
(2.47755 2.46677 -1.06696e-18)
(2.61899 2.15105 3.95872e-19)
(2.77201 2.85948 0)
(3.20004 3.04675 -3.94336e-19)
(3.14685 2.39258 2.82338e-20)
(0.813999 0.596863 -1.82602e-18)
(1.56787 0.694785 -1.62922e-20)
(1.24122 0.453397 8.72202e-19)
(1.28924 0.851033 5.95773e-20)
(0.949639 0.64027 -2.37274e-18)
(1.47695 0.718792 0)
(2.00821 1.10542 1.45669e-18)
(2.04921 1.0208 0)
(1.42598 0.796535 0)
(1.07165 0.553847 0)
(3.38583 2.17535 1.00702e-18)
(3.94059 0.755404 -1.86137e-18)
(3.83822 1.20808 0)
(3.5214 0.752325 0)
(1.3982 0.365853 1.33202e-18)
(3.27275 1.84176 -8.51322e-19)
(2.85322 1.65686 1.54611e-18)
(3.76271 1.37249 -1.83352e-18)
(3.09817 0.114607 2.46128e-18)
(3.16869 0.180725 -2.57626e-18)
(2.66205 0.0915868 0)
(3.30696 -0.0397054 0)
(3.20119 -0.0843774 -2.36402e-18)
(2.6321 -0.0321746 2.3432e-18)
(3.95642 0.0928007 0)
(3.75998 0.145355 0)
(3.69371 0.155266 0)
(3.58835 0.204644 0)
(3.83263 0.0588633 0)
(3.7261 0.0521253 0)
(-0.04463 2.51607 0)
(-0.0408023 2.01883 0)
(0.344237 3.97102 -4.11408e-19)
(0.651908 3.30893 -1.60808e-19)
(0.252538 3.0113 -3.59653e-19)
(0.337992 2.53055 5.76155e-19)
(0.446072 3.99425 0)
(0.456558 4.66216 -5.09716e-19)
(0.37076 4.71937 0)
(0.906479 4.38631 -3.79434e-19)
(0.673063 3.84215 9.6954e-19)
(0.585196 4.64 4.46708e-19)
(0.728155 4.17757 -1.88038e-19)
(0.588685 4.30493 1.51265e-19)
(0.904171 4.63997 -6.63665e-19)
(0.736607 4.65485 0)
(0.848794 4.58122 5.04696e-19)
(-0.00816356 4.56939 -1.81162e-19)
(-0.0265816 3.6532 0)
(0.0885496 4.29302 5.48937e-19)
(-0.0153019 4.39292 0)
(-0.010349 3.47322 -4.50936e-19)
(-0.0193992 2.92391 0)
(-0.114469 4.31147 -2.90039e-19)
(-0.121936 4.67402 0)
(-0.0645437 3.8112 0)
(-0.0518465 3.74191 3.26158e-19)
(-0.0566762 3.87857 1.03611e-20)
(-0.0428419 3.70899 6.25173e-19)
(-0.0447125 2.94599 4.06076e-21)
(-0.128367 4.69977 1.80429e-19)
(-0.11833 4.73372 1.03299e-19)
(-0.021289 2.65677 0)
(-0.00161141 2.16821 0)
(-0.0583842 4.77943 4.8646e-19)
(-0.0640923 4.3069 4.24934e-19)
(-0.0991776 4.57981 -5.55194e-19)
(-0.000318889 4.74839 0)
(-0.0883592 4.50527 -3.09736e-19)
(-0.125396 4.12804 1.27776e-19)
(-0.0922611 4.21868 -4.13812e-20)
(-0.0845214 4.71709 -2.19179e-19)
(-0.0956422 4.24425 -6.8561e-20)
(-0.0929986 4.19273 3.06348e-19)
(2.87227 0.0607708 -2.36089e-18)
(2.86009 0.049344 2.27034e-18)
(2.33951 0.0343966 0)
(3.51274 0.190809 3.04278e-18)
(2.70662 0.126034 -3.30088e-18)
(2.25732 0.0641208 3.60542e-18)
(3.68568 0.333589 -4.01137e-19)
(3.20943 -0.0487606 0)
(3.17144 -0.0139087 2.23462e-18)
(2.69024 -0.0125276 -2.21701e-18)
(3.87722 0.120922 -1.25096e-19)
(3.77067 0.100892 1.07711e-18)
(4.15876 0.171693 0)
(4.22792 0.179323 -3.74689e-19)
(4.01451 0.144015 0)
(3.69621 0.154517 0)
(4.03243 0.0945802 0)
(3.71218 0.0869038 0)
(4.18472 0.11268 7.84564e-19)
(4.13742 0.0781997 -1.74593e-18)
(4.14009 0.112744 -8.4705e-19)
(4.18596 0.115322 -9.23414e-19)
(4.21473 0.226925 1.77199e-18)
(3.85313 0.187254 0)
(4.05913 0.299156 0)
(-0.0839235 4.5493 -1.36422e-19)
(-0.0410709 4.61911 -1.17251e-20)
(-0.0763027 4.64181 0)
(-0.0634993 4.15658 1.38874e-19)
(-0.0617161 4.18029 2.26154e-20)
(-0.0645801 4.04243 -2.19805e-20)
(-0.0846642 3.49477 2.60898e-19)
(-0.150564 3.97172 -1.45087e-20)
(-0.111313 4.10513 7.47604e-20)
(-0.0782012 3.36537 -1.32142e-19)
(-0.0270009 2.89066 1.58259e-19)
(-0.0859667 4.4466 5.18054e-21)
(-0.101148 4.6394 1.71425e-19)
(1.23031 4.33343 3.48464e-19)
(1.14732 4.51106 7.2497e-19)
(1.71786 3.43516 4.33174e-19)
(1.29239 3.52697 1.70764e-19)
(1.26996 2.85842 0)
(0.554778 2.34843 2.75617e-19)
(0.468824 1.76493 3.3172e-19)
(0.347289 2.59786 1.53454e-20)
(0.494647 3.20879 -1.16186e-18)
(0.637131 3.16637 8.78206e-19)
(0.437239 2.43415 0)
(0.296982 1.99739 -5.58746e-19)
(0.257343 3.1047 1.39681e-18)
(0.272758 2.74789 -3.19084e-20)
(0.15751 2.30154 -1.75127e-18)
(0.600497 1.43156 1.46785e-18)
(0.584829 1.64019 0)
(3.58364 -0.0752325 8.63521e-20)
(3.61859 -0.254173 -7.25284e-20)
(3.72131 -0.217819 -1.26533e-18)
(3.75924 -0.126142 1.2812e-18)
(3.67615 -0.0489769 0)
(2.43363 3.85347 0)
(2.61293 3.89964 0)
(2.88189 3.60744 0)
(2.73292 3.63184 0)
(0.866058 1.41268 -3.40385e-21)
(0.620203 1.05311 0)
(1.72732 3.41438 1.50336e-20)
(1.43119 3.48989 0)
(1.34272 2.98501 -1.28646e-18)
(1.42358 2.9232 8.26031e-19)
(1.79689 0.310748 0)
(1.4353 0.262473 3.51827e-19)
(2.4174 0.358658 2.18962e-18)
(1.79102 0.284784 -7.84788e-19)
(1.42986 0.112192 -2.49262e-18)
(4.26524 0.784954 -2.56196e-18)
(3.8593 0.990951 -3.65665e-20)
(3.30714 0.842186 2.06544e-18)
(3.88193 0.742107 1.81106e-18)
(3.12953 0.464541 -3.04161e-18)
(2.917 0.451336 3.74593e-19)
(3.2013 0.681336 -8.17797e-19)
(2.98415 0.681766 0)
(3.76428 0.561459 1.53577e-18)
(4.09935 0.625844 0)
(4.09515 0.771989 0)
(4.04261 0.412999 8.22716e-19)
(4.29565 0.638418 -3.03494e-20)
(4.2454 0.710613 -4.52273e-19)
(4.17255 0.638166 0)
(3.61743 0.129373 1.71606e-18)
(4.1903 0.181755 2.14147e-18)
(4.09151 0.150293 -1.67735e-18)
(4.1378 0.23885 -1.44101e-18)
(3.74779 0.236678 -2.15372e-18)
(3.30813 0.374962 0)
(3.40694 0.301016 0)
(2.56194 0.190214 -1.26461e-18)
(2.11238 0.118898 4.76246e-19)
(4.03888 0.350586 1.93774e-18)
(4.28661 0.429514 -2.34383e-18)
(4.2859 0.486 2.06644e-18)
(4.15899 0.489941 0)
(4.25584 0.33421 0)
(4.2654 0.320744 -9.79659e-19)
(4.21456 0.313832 -1.59437e-18)
(2.24151 3.50216 6.20143e-19)
(1.95665 3.25491 -6.83833e-19)
(1.46516 2.38182 -1.03372e-18)
(1.20291 2.01861 2.67322e-19)
(0.896196 1.39596 -2.6345e-18)
(0.804024 1.23012 9.23711e-19)
(0.608577 0.915216 -1.8924e-21)
(1.12984 1.80566 -1.13999e-18)
(1.1579 1.90479 1.70179e-18)
(0.987372 1.71848 5.0694e-19)
(0.795848 1.30315 -5.13572e-19)
(0.642918 1.08601 0)
(2.46716 2.61959 -1.15404e-19)
(0.719468 1.15247 8.59302e-19)
(0.941579 0.900672 1.15837e-18)
(0.767584 0.822109 1.34101e-18)
(1.09613 0.754607 1.34306e-18)
(1.48485 1.05506 -2.27339e-18)
(1.40077 1.08301 1.8421e-18)
(1.01483 0.774866 -6.78021e-19)
(0.826788 0.574587 1.49711e-18)
(1.6242 0.492473 -7.77742e-19)
(1.56884 0.510782 0)
(1.24663 0.409147 4.71764e-21)
(2.52955 1.52194 7.75914e-19)
(2.09995 1.27774 -2.81003e-18)
(1.70604 1.19498 9.43652e-21)
(1.67887 1.10089 0)
(2.87914 2.59918 8.73327e-19)
(3.44705 2.74259 1.03569e-18)
(3.25764 2.92434 -1.19391e-18)
(3.54918 2.75132 -4.2765e-19)
(3.47266 2.58506 -1.34768e-19)
(3.50333 2.77803 1.38597e-19)
(3.68036 2.25725 -1.67719e-18)
(3.70167 2.48219 4.00749e-19)
(3.77624 2.42132 0)
(3.77601 2.17768 -5.79006e-19)
(4.05231 1.06852 5.7978e-19)
(4.27332 0.986831 1.00098e-18)
(4.29906 0.960525 1.01034e-18)
(4.05774 1.32283 -1.14818e-18)
(4.09896 1.34078 0)
(4.14766 1.2251 0)
(3.34045 1.23373 -1.5308e-20)
(2.42944 0.667269 0)
(2.7333 0.743864 9.3003e-19)
(3.24906 0.883638 -2.6213e-20)
(3.78069 1.52952 5.10099e-18)
(3.5799 1.75736 1.3096e-18)
(3.49276 1.53775 -1.33958e-18)
(3.05321 1.36983 1.43631e-18)
(2.77841 1.37155 8.2363e-19)
(2.32454 1.16 -7.97677e-19)
(3.67205 -0.0857405 1.98261e-18)
(3.89467 -0.0291424 0)
(3.85891 -0.066747 1.34071e-18)
(3.74285 -0.0595978 -2.98473e-18)
(3.98056 0.0370915 1.46045e-18)
(3.90451 0.113153 -3.07975e-18)
(3.73997 0.127743 0)
(3.55643 0.1733 -6.27894e-19)
(3.81202 0.122809 1.60364e-18)
(3.69202 0.19123 -8.21722e-19)
(3.60039 0.170931 5.90101e-19)
(-0.0850005 2.60719 0)
(-0.0553771 3.40774 0)
(-0.0363957 2.47241 0)
(-0.0243623 1.98347 0)
(0.0343035 3.93258 6.72157e-19)
(0.129752 3.71233 -1.73761e-19)
(0.302981 4.63126 -2.29773e-19)
(0.238576 4.44376 2.42464e-19)
(-0.0393884 4.28855 -4.985e-19)
(-0.00274311 4.31959 3.74334e-19)
(0.0833184 3.86278 2.23724e-20)
(3.58353e-05 3.5539 -4.67897e-19)
(-0.0203152 3.3126 -6.24235e-20)
(-0.0498342 3.67313 -5.68709e-20)
(0.140443 4.48002 -5.86265e-19)
(0.16737 4.29894 0)
(0.262338 4.63688 2.96085e-19)
(0.25378 4.70343 2.52967e-19)
(0.586245 4.45077 -2.25845e-19)
(0.405207 3.80895 0)
(0.45483 3.6557 -1.11589e-18)
(0.558783 4.02433 7.90679e-19)
(0.469762 4.56566 -6.14526e-19)
(0.359343 4.44261 3.30638e-19)
(0.291761 4.1759 0)
(-0.0510341 4.75329 -5.53312e-19)
(-0.0883497 4.51757 -6.411e-19)
(-0.0913881 4.72901 0)
(-0.0415425 4.35677 -6.19746e-21)
(-0.0338762 4.63713 2.74248e-19)
(-0.129078 3.89615 4.49119e-20)
(-0.0626665 3.51117 -6.56915e-19)
(-0.106303 3.94482 1.75219e-19)
(-0.151519 4.52122 2.33251e-19)
(-0.0903006 4.33229 0)
(-0.0714953 3.91125 0)
(-0.0870327 2.94248 2.02313e-19)
(-0.0555681 3.6699 -6.31242e-20)
(-0.0810411 3.65377 0)
(-0.0911683 2.72602 1.59406e-19)
(-0.0483059 2.23091 -3.08754e-19)
(3.7606 0.0318518 0)
(3.73142 0.00723693 -2.03059e-19)
(4.17936 0.0670953 -1.43837e-18)
(4.08867 0.045455 0)
(3.87558 0.0170343 0)
(4.14969 0.0364212 -1.24886e-20)
(4.10026 0.0343968 2.37637e-18)
(4.00034 0.0795562 2.84248e-18)
(3.75637 0.118128 0)
(3.55868 0.109561 0)
(4.01372 0.0930729 1.41588e-18)
(3.70401 0.115444 0)
(3.47304 0.128355 0)
(-0.0933047 4.67964 0)
(-0.117149 4.6539 1.07774e-20)
(-0.090406 4.70208 6.34983e-20)
(-0.0698074 3.86489 0)
(-0.122547 4.5382 1.113e-19)
(-0.0791371 4.26482 -6.36456e-20)
(-0.0645012 3.96958 0)
(1.41284 4.20177 0)
(1.19937 4.56898 -1.29693e-18)
(1.21743 4.48677 0)
(1.56469 4.4726 1.48445e-18)
(1.57868 4.09084 0)
(1.48779 4.3492 -6.06797e-19)
(1.02543 2.27182 -3.40454e-20)
(0.720284 1.66874 -1.75006e-18)
(0.599734 1.24488 2.13505e-18)
(0.718658 1.86131 3.98064e-19)
(0.987429 2.45639 0)
(1.05039 2.4107 0)
(0.728457 1.71168 0)
(0.540035 1.34986 -1.39972e-18)
(1.21713 3.8008 -9.84447e-19)
(1.13994 3.02269 -2.35889e-19)
(1.33824 3.43499 1.92921e-19)
(0.605779 2.06841 0)
(0.628252 1.9696 0)
(0.468348 1.59376 -3.94025e-19)
(0.9677 2.75328 0)
(2.68959 3.56795 0)
(2.39916 3.02248 -1.45462e-18)
(2.56144 3.03595 -8.58357e-20)
(2.43301 3.4146 0)
(2.30502 3.16674 2.22128e-18)
(3.27939 3.078 -3.89442e-19)
(3.12583 3.3079 0)
(3.109 3.13349 6.29995e-19)
(2.8696 3.40665 0)
(2.88682 3.19976 0)
(1.22613 2.03251 -9.32442e-19)
(1.43304 2.43204 -7.00575e-19)
(1.77253 3.00944 1.20719e-18)
(1.71473 2.98917 -3.62844e-19)
(1.07729 1.84649 0)
(1.2222 2.2363 4.71911e-19)
(0.72864 1.30614 -7.17075e-19)
(0.589784 1.05799 -6.21536e-22)
(1.94959 3.71593 0)
(2.20841 3.75329 -5.42326e-19)
(2.34077 3.98275 0)
(2.2921 0.528742 0)
(1.62346 0.342421 0)
(1.21423 0.277277 0)
(2.21825 0.554417 -1.46425e-18)
(1.64291 0.403053 8.16872e-19)
(2.14974 0.128903 -9.84078e-19)
(2.63172 0.297039 0)
(2.47088 0.301326 4.13074e-19)
(1.77402 0.13564 1.63136e-18)
(1.53355 0.081267 -1.03597e-18)
(0.754895 1.57077 8.59584e-19)
(0.97286 1.83821 0)
(0.544486 1.45268 1.5642e-18)
(0.532333 1.62575 -1.42812e-18)
(0.769461 1.82786 -9.90844e-19)
(2.09716 2.48052 1.33929e-18)
(2.12042 2.73169 0)
(1.60655 1.69542 -2.76812e-19)
(2.03405 2.00589 1.74635e-18)
(1.37986 1.30726 -4.24214e-19)
(1.60962 1.32716 4.5146e-19)
(2.13195 1.52351 1.02414e-18)
(2.46535 1.67915 0)
(2.29938 1.86821 0)
(2.03288 1.61898 0)
(3.95489 2.06811 3.8423e-19)
(3.7664 1.88283 -1.26207e-18)
(3.82213 2.0194 1.04511e-18)
(3.90507 1.76307 -1.00703e-18)
(4.15434 1.66424 0)
(4.11151 1.8296 -2.97518e-19)
(2.85651 1.16402 -1.89649e-18)
(2.98524 1.16301 -2.41105e-18)
(2.3482 1.04609 1.45588e-18)
(2.15314 0.937234 -1.41987e-18)
(2.47702 0.847043 -1.17768e-18)
(2.19187 0.779164 1.44824e-18)
(4.00842 0.0331615 -1.52727e-18)
(4.05273 0.0403064 3.12686e-18)
(3.76779 -0.0661602 1.89892e-18)
(3.79099 -0.0740692 -2.28439e-18)
(3.95931 0.0100899 0)
(4.05591 0.0223769 -3.72577e-18)
(0.0799066 4.75289 1.0669e-19)
(0.0509323 4.72166 0)
(0.173929 4.72451 9.52708e-19)
(0.195366 4.74087 -8.66756e-19)
(0.215131 4.70523 4.2845e-19)
(0.106349 4.64626 0)
(-0.115174 4.75949 0)
(-0.119739 4.40858 -6.21017e-20)
(-0.118713 4.34624 5.56707e-20)
(-0.127302 4.48602 7.4795e-21)
(-0.118211 4.70501 -1.01455e-19)
(-0.0958072 4.69343 5.50919e-20)
(1.88104 4.01812 -1.64237e-18)
(1.81979 4.02715 1.73986e-18)
(1.67629 4.39549 -8.53925e-19)
(1.69529 4.2843 7.61376e-20)
(2.24744 4.06146 0)
(1.84214 4.19377 -6.3705e-19)
(1.96961 3.93146 6.17826e-19)
(1.81268 4.36107 8.34118e-19)
(2.06779 4.20966 0)
(2.22128 4.08959 0)
(1.14644 3.65916 1.49654e-18)
(0.835403 2.84473 2.02819e-18)
(0.963343 3.02312 -1.39284e-18)
(0.754633 3.00613 -2.32534e-19)
(0.908111 3.76236 4.67092e-19)
(0.727889 3.39793 -1.13609e-18)
(0.756941 1.486 -1.21834e-18)
(0.756387 1.33518 0)
(0.610953 1.12988 -1.33902e-18)
(1.12558 2.09094 0)
(1.10308 2.1782 0)
(1.37902 2.20935 -1.09264e-18)
(1.07943 2.03283 -1.03792e-18)
(1.03187 2.05217 1.10091e-18)
(1.05042 1.53291 0)
(1.43305 1.77908 -6.02285e-19)
(1.65015 2.13887 -8.56096e-19)
(1.43212 2.10053 0)
(0.882888 1.83124 7.14195e-19)
(0.794655 1.69015 0)
(2.92555 2.29415 -1.84545e-18)
(3.32907 2.46797 2.60605e-18)
(3.29136 2.19131 -2.59028e-18)
(2.63217 2.02935 -2.3112e-19)
(2.74564 1.94599 -9.73753e-19)
(1.27964 2.21075 7.9766e-19)
(1.33427 2.26765 -1.36213e-18)
(1.47486 2.35065 1.79543e-18)
(1.81266 2.58103 -1.16687e-18)
(1.90996 2.95707 -1.56836e-18)
(1.58362 2.513 -1.1883e-19)
(1.6537 2.65463 1.37331e-18)
(1.8325 2.71678 9.67528e-20)
(2.03878 3.0209 6.50773e-19)
)
;

boundaryField
{
    wall-4
    {
        type            noSlip;
    }
    velocity-inlet-5
    {
        type            fixedValue;
        value           uniform (3 0 0);
    }
    velocity-inlet-6
    {
        type            fixedValue;
        value           uniform (0 1 0);
    }
    pressure-outlet-7
    {
        type            zeroGradient;
    }
    wall-8
    {
        type            noSlip;
    }
    frontAndBackPlanes
    {
        type            empty;
    }
}


// ************************************************************************* //
