/*--------------------------------*- C++ -*----------------------------------*\
  =========                 |
  \\      /  F ield         | OpenFOAM: The Open Source CFD Toolbox
   \\    /   O peration     | Website:  https://openfoam.org
    \\  /    A nd           | Version:  9
     \\/     M anipulation  |
\*---------------------------------------------------------------------------*/
FoamFile
{
    format      ascii;
    class       volVectorField;
    location    "39.95";
    object      U;
}
// * * * * * * * * * * * * * * * * * * * * * * * * * * * * * * * * * * * * * //

dimensions      [0 1 -1 0 0 0 0];

internalField   nonuniform List<vector> 
918
(
(2.47629 -0.138943 0)
(0.108704 0.722546 0)
(0.17182 1.05424 0)
(2.31834 0.153728 0)
(-0.0596604 1.27056 -1.2231e-19)
(-0.0924034 0.643931 -5.31367e-18)
(0.530077 0.849729 -2.95284e-19)
(0.274313 0.152868 -2.98829e-20)
(3.00615 -0.0195607 0)
(-0.00827585 0.477073 0)
(-0.017245 0.589788 0)
(0.60521 0.0067664 0)
(0.0107054 0.439105 0)
(-0.00288245 0.421689 0)
(0.0134369 0.340813 -1.30506e-18)
(-0.00469392 0.768449 -9.20414e-20)
(0.312396 0.0742683 2.15201e-18)
(0.0797495 0.642631 -2.2287e-19)
(1.52884 0.128628 0)
(-0.0267318 0.685726 0)
(0.194582 0.157717 -1.26547e-18)
(3.08302 -0.397373 0)
(2.92445 -0.50598 0)
(1.86116 -0.1811 0)
(0.51138 0.0400857 0)
(-0.0253686 0.52155 0)
(-0.00135314 0.494038 1.86233e-18)
(-0.0223921 1.40108 0)
(0.074982 2.88473 0)
(0.168325 1.73723 0)
(-0.0381964 3.16444 0)
(0.0273556 1.63977 9.40453e-20)
(0.0233415 0.68637 0)
(-0.147424 0.775093 -2.03079e-22)
(-0.193914 1.0291 4.42111e-18)
(-0.0415771 1.04471 0)
(0.744579 -0.00600496 0)
(0.160997 0.246298 6.6549e-19)
(0.993596 1.51321 6.52701e-19)
(0.650002 0.784456 -5.15897e-19)
(0.798686 1.57541 6.19798e-20)
(0.416864 0.851534 -3.20006e-19)
(0.552302 0.306553 2.93894e-20)
(0.296959 0.15364 0)
(0.963036 0.566596 0)
(0.53258 0.303935 1.32007e-19)
(0.257965 0.162784 -1.35458e-19)
(0.871596 -0.0554787 0)
(3.02784 -0.00170478 0)
(3.00685 0.0178656 0)
(3.20086 -0.417733 0)
(3.04288 -0.0742117 0)
(3.03116 -0.0388406 0)
(0.0185897 0.902869 -1.14615e-18)
(-0.0542677 0.974555 0)
(0.00283707 0.455194 0)
(-0.029175 0.981688 0)
(-0.0114162 0.481473 0)
(-0.00136403 0.86959 0)
(-0.0521435 1.11149 0)
(-0.0125631 0.542053 0)
(-0.0253932 1.16294 0)
(-0.00593606 0.622106 0)
(0.79048 0.0116245 0)
(1.16942 -0.00156161 0)
(0.618247 0.0123698 0)
(1.12578 0.0175987 0)
(0.569758 0.00867948 0)
(0.225406 0.921982 1.9597e-18)
(0.0985378 1.2081 0)
(0.176302 1.06604 0)
(0.0331901 0.755774 2.19922e-23)
(0.0372233 0.498055 -2.9309e-18)
(0.0194616 0.747943 0)
(0.0059542 0.422033 0)
(-0.000695379 0.734548 4.51717e-24)
(0.000702442 0.414825 0)
(-0.0169204 0.74318 0)
(-0.0129373 0.42798 0)
(0.0494332 0.649971 0)
(0.0484365 0.458217 0)
(0.00800448 0.621948 1.23391e-18)
(0.000744366 0.344903 0)
(-0.0675975 4.69157 0)
(0.00895562 1.4576 9.1378e-20)
(-0.0104488 0.78512 -1.17635e-19)
(0.636081 0.152145 -7.50902e-19)
(0.321612 0.0656843 -7.28665e-19)
(0.644786 0.169721 -2.25452e-18)
(0.317529 0.0955703 -1.45147e-18)
(0.0785167 0.618333 0)
(0.178561 1.31399 1.84808e-19)
(0.179721 0.730344 -2.94863e-19)
(2.06031 0.260946 0)
(1.10704 0.11845 0)
(3.03313 0.103887 0)
(3.10392 0.446059 0)
(2.83919 0.377459 -1.01274e-17)
(2.5781 0.361309 7.77095e-18)
(-0.0706646 1.26362 0)
(-0.0113337 0.623522 0)
(-0.0138152 1.90112 0)
(-0.0507434 1.34714 0)
(-0.048019 0.679301 0)
(0.440307 0.295624 4.00644e-19)
(0.225461 0.163358 0)
(2.2961 -0.266393 0)
(1.32372 -0.119273 0)
(1.07632 0.012669 0)
(1.01198 0.018765 0)
(0.540921 0.0108513 0)
(1.01987 0.0563999 0)
(0.821213 0.0703254 0)
(0.343621 0.0286956 3.3628e-18)
(-0.00543498 0.451601 1.77338e-18)
(-0.0270312 0.784627 0)
(-0.0473173 0.847507 0)
(-0.0152739 0.460435 0)
(0.000132398 0.839725 1.81587e-18)
(7.29678e-05 0.48753 0)
(-0.00547892 0.845554 -5.59002e-18)
(-0.00488634 0.496761 1.88623e-18)
(0.0547434 3.56693 0)
(0.0434599 4.02587 0)
(-0.0162253 1.41026 -2.05145e-21)
(-0.0130616 1.3629 0)
(-0.00977409 0.741237 0)
(1.41018 0.0348844 0)
(0.76055 0.0154388 0)
(0.709514 0.0142644 0)
(1.41618 -0.0328481 0)
(0.773515 -0.00873969 0)
(0.32205 0.480339 -8.35547e-19)
(0.156803 0.232716 0)
(0.324951 0.509154 9.36405e-20)
(0.163356 0.268426 0)
(1.24083 1.38693 1.66421e-19)
(0.778703 0.740876 -3.92376e-19)
(0.411613 1.42226 0)
(0.607216 1.53413 0)
(0.303562 0.814856 0)
(0.145324 0.353365 -4.42805e-19)
(0.607299 0.280716 0)
(0.313508 0.134638 3.988e-19)
(1.42735 1.30677 0)
(1.5867 1.16856 0)
(0.874923 0.663932 4.61669e-19)
(1.73393 0.953112 0)
(1.06861 0.438782 2.32223e-20)
(1.47298 0.00813855 0)
(1.501 -0.029239 0)
(0.801896 -0.00441616 0)
(1.95042 -0.199779 0)
(1.65082 -0.14818 0)
(1.05215 -0.0889696 0)
(3.06126 0.164853 0)
(3.03105 0.0687875 0)
(3.01022 0.0531594 0)
(0.0357028 1.60536 6.08149e-19)
(0.0178634 0.826889 0)
(0.0179192 1.69596 1.07965e-18)
(0.0030186 0.938693 -9.70639e-19)
(0.0646794 1.1525 1.87731e-19)
(0.0477106 0.989365 0)
(0.040184 0.528786 0)
(-0.0286883 1.00577 0)
(-0.00699486 0.517648 0)
(0.0181279 1.61521 -4.43266e-21)
(-0.018061 0.865372 0)
(-0.0539572 1.58371 -2.25769e-19)
(-0.016124 0.820523 4.37254e-19)
(-0.00179212 1.03007 0)
(0.0102733 1.0443 0)
(4.89405e-05 0.531725 0)
(0.0106525 1.17145 0)
(0.00090396 0.612634 0)
(1.46831 -0.00370318 0)
(0.789219 0.00805998 0)
(1.44055 0.0331663 0)
(0.761793 -0.000557469 0)
(0.675382 0.00534462 0)
(1.26195 0.0166822 0)
(1.20239 0.0473083 0)
(0.65969 0.0155561 0)
(-0.00580053 1.42077 -1.70199e-20)
(0.000184307 1.37708 0)
(0.00482009 0.732923 0)
(0.00172892 0.417221 0)
(0.284433 0.828747 0)
(0.253613 0.399729 -2.87111e-19)
(-0.00223284 0.635408 0)
(-0.00889724 0.367611 0)
(0.0118066 4.33832 0)
(-0.0484553 4.66412 0)
(-0.0179001 4.5662 0)
(-0.0718488 3.36694 2.04061e-20)
(-0.0577498 4.60252 0)
(-0.0515537 4.17951 0)
(0.00483293 0.818867 1.08129e-20)
(0.0141991 1.56193 1.65372e-19)
(-0.0358523 1.50244 1.20859e-19)
(-0.0074521 0.825659 0)
(0.664425 0.105708 1.15323e-18)
(0.325684 0.0441634 -1.13018e-18)
(0.149646 1.13325 0)
(0.10093 0.573354 -2.6921e-19)
(0.118094 1.23306 -8.74204e-19)
(0.0518366 0.687037 8.69705e-19)
(0.809201 0.0240635 0)
(1.55677 0.0476796 0)
(1.7097 0.127652 0)
(0.919845 0.0445228 0)
(0.0079293 1.18263 0)
(0.025825 1.19071 0)
(0.00449683 0.628086 0)
(0.482102 0.315076 1.20354e-18)
(0.436838 0.309076 -1.3866e-18)
(0.234763 0.164172 0)
(1.93551 0.153004 1.15231e-19)
(1.13643 0.0932528 0)
(1.72437 0.118445 0)
(0.883732 0.0226955 0)
(0.67817 0.0857386 0)
(0.699712 0.0460597 -5.40725e-18)
(0.346727 0.0325964 1.99892e-18)
(0.00914744 0.807284 1.69356e-18)
(0.00222281 0.46251 4.08165e-20)
(-0.0108777 1.40842 -3.57986e-20)
(0.00613613 1.38675 1.3658e-18)
(-0.0149832 0.848955 6.29404e-20)
(-0.0119261 0.524486 -2.52893e-22)
(-0.107514 1.00068 -1.16482e-18)
(-0.0529602 1.3532 8.33952e-19)
(-0.0175323 1.35275 -1.35769e-18)
(1.42274 -0.0170845 0)
(1.44236 0.0203187 0)
(0.769872 -0.000177511 0)
(1.45218 0.0253834 0)
(1.36319 0.0462298 0)
(0.761541 0.0203071 0)
(1.30062 -0.00215351 0)
(1.31867 -0.00584861 0)
(0.695054 -0.000986377 0)
(0.304847 0.473391 -9.15151e-19)
(0.161353 0.242673 0)
(0.157148 0.308419 1.36926e-19)
(0.309577 0.585871 1.12206e-18)
(0.307393 0.548559 -6.64272e-19)
(0.156815 0.28189 1.29808e-18)
(0.278465 0.717656 2.18135e-18)
(0.148252 0.380831 3.93592e-19)
(0.636084 0.213091 1.53738e-18)
(0.625987 0.253602 3.99297e-19)
(0.316618 0.115045 7.49229e-19)
(1.92133 0.714644 -5.99614e-19)
(1.1677 0.33611 -7.01834e-19)
(-0.0351292 1.70289 4.6407e-19)
(-0.0114114 0.924666 0)
(1.6039 0.0239538 0)
(1.52191 0.065373 0)
(0.852935 0.026859 0)
(-0.00355875 1.38473 0)
(0.00507421 0.729574 2.49498e-18)
(0.0046504 0.731252 0)
(0.00207081 0.415097 -2.44202e-18)
(-0.0102751 1.38626 5.95619e-19)
(-0.00947265 1.4225 0)
(0.336539 0.488125 2.57938e-19)
(0.360028 0.546388 -8.62934e-19)
(0.17183 0.257811 7.81085e-19)
(-0.0256692 0.767468 -1.66251e-18)
(-0.0261519 0.689734 0)
(-0.0154343 0.412938 0)
(0.0302147 1.54762 -1.27012e-20)
(0.0313952 1.58021 -3.64858e-19)
(0.0178845 0.822363 -1.55884e-20)
(0.213317 1.04391 8.89893e-19)
(0.11963 0.508955 -5.92178e-19)
(0.0118588 1.48453 7.30474e-19)
(0.0557927 1.35054 -8.15289e-19)
(0.0267966 0.760229 3.53023e-20)
(0.00751367 1.36614 -3.80731e-18)
(-0.000214797 1.39326 4.40908e-18)
(0.00377348 0.829776 1.7328e-18)
(-0.0138288 0.805094 -1.72527e-18)
(-0.004309 0.481399 -1.73844e-18)
(-0.0106511 1.41685 -4.4995e-18)
(-0.0152178 1.40032 4.58869e-18)
(0.286339 0.674739 0)
(0.29975 0.634584 -2.28747e-18)
(0.151926 0.331695 9.90247e-19)
(0.281179 0.795879 1.18488e-18)
(0.138786 0.427466 -1.82827e-18)
(2.05701 0.322588 4.15805e-19)
(2.05157 0.547737 0)
(1.21866 0.220986 -4.01755e-19)
(-0.0738472 1.63484 -4.80108e-21)
(-0.0141401 1.69023 0)
(-0.0157275 0.921679 0)
(0.227041 0.944346 -3.22737e-19)
(0.248188 0.866374 -7.06788e-19)
(0.128781 0.463208 1.32457e-18)
(3.16442 -0.442872 0)
(3.34728 -0.414685 1.81276e-18)
(0.0623637 3.48511 0)
(0.0488378 2.80907 0)
(3.15925 0.249915 1.4192e-20)
(3.12355 0.506296 3.71202e-18)
(0.0234361 3.43175 -2.7386e-20)
(0.00931357 2.66345 0)
(-0.0416469 1.19604 1.55488e-18)
(0.190057 1.31637 0)
(3.47264 1.62513 -3.24714e-19)
(3.17427 0.272573 -2.96098e-20)
(3.14838 -0.118696 0)
(3.10047 -0.000403965 3.7312e-22)
(0.0438941 2.59062 0)
(0.157409 3.30032 0)
(-0.0549731 2.53489 0)
(-0.0230625 3.48778 3.15748e-19)
(-0.024887 3.56867 1.99231e-19)
(2.63343 0.0488322 -1.36492e-20)
(3.04751 0.0311536 0)
(3.15793 0.0868419 0)
(-0.0508054 4.6173 0)
(-0.0457382 3.08242 0)
(-0.0718416 2.93675 0)
(0.652567 3.10619 2.65591e-19)
(3.33884 -0.422458 0)
(3.0114 -0.345809 0)
(3.1699 -0.0530367 2.27714e-18)
(3.2927 -0.3287 -2.74193e-18)
(3.1038 -0.125776 0)
(-0.0566948 4.51588 0)
(0.0167914 3.93612 0)
(0.00875277 4.26646 0)
(-0.0265697 3.09728 0)
(-0.012907 2.85256 0)
(-0.0305328 2.42559 0)
(2.97423 -0.00316917 0)
(2.85043 0.0486289 -1.805e-20)
(2.24694 3.04947 -3.21466e-19)
(3.15695 0.0444553 -2.27821e-18)
(3.19037 0.278179 2.76928e-18)
(3.0828 0.117338 0)
(3.3954 0.328926 2.08723e-18)
(3.35695 0.484366 -2.70648e-18)
(3.07111 0.418429 0)
(-0.0547388 3.34582 0)
(0.0058418 3.27591 8.51762e-20)
(-0.0302759 2.57478 -6.03459e-20)
(3.70792 0.555325 2.26533e-18)
(3.47099 0.208502 0)
(-0.151984 1.27126 -2.16576e-18)
(-0.062434 0.88216 -1.35024e-19)
(-0.0848398 1.33672 2.98536e-18)
(-0.0352375 1.27045 -8.99545e-19)
(-0.000496731 1.08841 0)
(-0.0266645 1.23955 6.94803e-19)
(-0.115054 1.38786 2.14638e-18)
(-0.0590501 1.34056 -1.31403e-18)
(-0.0767368 1.32063 0)
(1.28928 0.597212 0)
(1.17725 0.682375 0)
(3.55666 2.02952 9.53433e-19)
(3.04991 1.93602 -1.19047e-18)
(3.83775 1.70663 0)
(3.38429 1.15687 0)
(3.34934 0.280496 -3.91671e-18)
(2.89884 0.173121 4.83962e-18)
(3.35145 -0.155478 0)
(2.85479 -0.0761355 0)
(3.43642 0.0430265 0)
(3.5938 0.145057 0)
(3.28683 0.119875 0)
(3.55033 0.298581 0)
(3.40841 0.293059 0)
(3.32755 0.218074 0)
(0.0972579 2.79222 0)
(0.0343151 2.08071 0)
(0.12655 3.05299 0)
(0.0927627 2.20669 0)
(0.214697 3.59346 0)
(0.140079 2.67359 -5.58518e-19)
(0.0532576 3.60973 0)
(0.0112578 3.01323 4.05574e-19)
(-0.0244479 3.20221 -5.16978e-19)
(-0.0590158 2.79966 0)
(-0.0228893 2.20221 0)
(-0.0719393 2.90729 0)
(-0.0555264 2.04998 0)
(-0.106837 4.7491 -2.45531e-19)
(-0.0791205 3.93975 2.77268e-19)
(-0.0743286 3.80063 3.09063e-19)
(-0.05268 3.0147 0)
(-0.104445 3.80204 -4.58638e-19)
(-0.0371074 3.21316 -2.95042e-19)
(-0.0809382 4.78144 1.9253e-19)
(-0.0934405 4.46431 -3.50461e-19)
(-0.0686493 4.33408 -3.78916e-19)
(3.03133 0.0883891 3.35847e-18)
(2.28959 0.0321831 -4.22961e-18)
(2.89131 0.132847 -3.32739e-18)
(2.20957 0.0734902 4.15611e-18)
(3.36858 0.0277293 0)
(2.64307 -0.00265016 0)
(3.45416 0.0913608 0)
(3.32025 0.0192926 0)
(2.70666 0.00922913 0)
(3.68031 0.239652 0)
(3.43884 0.0960083 0)
(2.8637 0.0565213 0)
(-0.0210838 4.3347 -1.20277e-20)
(-0.0538714 4.65315 0)
(-0.0592151 4.54863 0)
(-0.0747046 3.50331 8.77094e-20)
(-0.0373328 2.77676 -3.46492e-21)
(-0.0792063 4.66996 1.13489e-19)
(-0.0932373 4.45876 -1.14687e-19)
(-0.077085 3.95707 0)
(-0.0552378 3.87731 0)
(-0.0187746 3.99399 0)
(-0.0707562 3.25769 0)
(-0.0425901 2.3023 0)
(0.948797 3.66264 -6.08553e-19)
(0.921368 2.85398 -1.76258e-19)
(0.430099 2.05233 -2.28144e-19)
(0.252088 2.29851 6.96812e-19)
(1.02328 4.19963 2.6378e-19)
(3.43308 -0.167421 0)
(3.32213 -0.256546 0)
(2.88327 -0.189515 0)
(3.47032 -0.0643455 0)
(3.34581 -0.147864 0)
(3.44893 -0.261022 0)
(3.5195 -0.283601 0)
(3.57949 -0.281129 0)
(3.22413 0.0933887 3.61876e-18)
(2.55519 0.0645188 -4.57587e-18)
(3.09649 0.106579 -3.56222e-18)
(2.50909 0.0566757 4.43239e-18)
(2.24001 3.41735 0)
(1.73986 2.94887 -4.45433e-19)
(2.56699 3.34918 -4.03087e-19)
(2.36975 2.52984 5.35745e-19)
(0.774408 1.2129 2.7219e-18)
(1.44675 0.216477 1.34308e-18)
(3.72258 0.304264 0)
(3.89316 0.572842 -1.84584e-18)
(3.29902 0.243967 -8.23336e-20)
(3.72079 0.44016 0)
(0.23657 1.31232 1.79588e-18)
(-0.0166678 1.20198 -2.87604e-18)
(0.0587894 0.769956 1.61435e-18)
(0.275914 0.46489 -7.47758e-19)
(0.187223 1.38373 8.70896e-19)
(0.0506325 1.23715 0)
(0.0577267 1.08615 -1.13215e-18)
(0.191685 1.44296 -4.09167e-18)
(0.32896 1.55694 0)
(0.00867328 1.2902 1.19575e-19)
(-0.0097174 1.45729 -1.3401e-18)
(-0.0410143 1.30282 1.94822e-18)
(-0.0574433 1.41766 0)
(-0.0204757 1.38228 0)
(0.681024 1.0498 0)
(2.45662 2.45508 -1.06609e-18)
(2.64423 2.17395 3.95148e-19)
(2.79266 2.88279 0)
(3.21305 3.06785 -3.94507e-19)
(3.16607 2.41195 2.84649e-20)
(0.803622 0.589292 -1.82218e-18)
(1.55578 0.691423 -1.6218e-20)
(1.23283 0.450977 8.72065e-19)
(1.27491 0.843562 5.94989e-20)
(0.938713 0.633767 -2.36923e-18)
(1.46412 0.7141 0)
(1.98967 1.09965 1.45578e-18)
(2.03182 1.0156 0)
(1.41166 0.790623 0)
(1.06186 0.549629 0)
(3.37537 2.18024 1.00839e-18)
(3.94759 0.760959 -1.86317e-18)
(3.84795 1.21615 0)
(3.5339 0.757834 0)
(1.3913 0.364748 1.33236e-18)
(3.25789 1.84223 -8.5142e-19)
(2.83419 1.65438 1.54669e-18)
(3.75521 1.37711 -1.83571e-18)
(3.09793 0.114762 2.46382e-18)
(3.16856 0.180818 -2.57877e-18)
(2.66183 0.0916429 0)
(3.30731 -0.039495 0)
(3.20141 -0.0842556 -2.36636e-18)
(2.63244 -0.0321093 2.34552e-18)
(3.95629 0.0932081 0)
(3.75968 0.145656 0)
(3.69369 0.155374 0)
(3.5883 0.204749 0)
(3.83261 0.0590328 0)
(3.72611 0.0522539 0)
(-0.040155 2.51436 0)
(-0.0377624 2.01325 0)
(0.356984 3.99035 -4.11299e-19)
(0.662942 3.33555 -1.59942e-19)
(0.259709 3.02967 -3.57855e-19)
(0.3439 2.5497 5.732e-19)
(0.458306 4.01626 0)
(0.469789 4.672 -5.0982e-19)
(0.382961 4.73044 0)
(0.910871 4.37496 -3.79455e-19)
(0.672868 3.81357 9.68699e-19)
(0.597134 4.65377 4.46892e-19)
(0.740812 4.20246 -1.87471e-19)
(0.602661 4.32785 1.50835e-19)
(0.916396 4.65789 -6.63674e-19)
(0.749815 4.66205 0)
(0.858418 4.5899 5.04468e-19)
(0.00696885 4.57123 -1.8113e-19)
(-0.0185705 3.64528 0)
(0.101481 4.28618 5.49591e-19)
(-0.00287286 4.38886 0)
(-0.0036451 3.45709 -4.50991e-19)
(-0.0152677 2.91043 0)
(-0.100073 4.30985 -2.89105e-19)
(-0.105692 4.68191 0)
(-0.0530575 3.80768 0)
(-0.0398719 3.73014 3.25165e-19)
(-0.0469203 3.88612 1.03823e-20)
(-0.0346043 3.7074 6.25848e-19)
(-0.0410296 2.94753 4.06831e-21)
(-0.113615 4.71013 1.80193e-19)
(-0.102494 4.74193 1.0322e-19)
(-0.0166313 2.62486 0)
(0.00132088 2.13687 0)
(-0.0415046 4.78931 4.8624e-19)
(-0.0483325 4.31033 4.23925e-19)
(-0.0829024 4.58589 -5.5417e-19)
(0.0163941 4.75858 0)
(-0.0774516 4.53431 -3.08906e-19)
(-0.116871 4.16716 1.27637e-19)
(-0.0840545 4.24799 -4.12793e-20)
(-0.069753 4.72903 -2.18905e-19)
(-0.0849509 4.26911 -6.85569e-20)
(-0.0833575 4.21403 3.06631e-19)
(2.87141 0.0610253 -2.36344e-18)
(2.85887 0.0497085 2.27291e-18)
(2.33859 0.0345588 0)
(3.51008 0.192041 3.04637e-18)
(2.70366 0.126547 -3.3046e-18)
(2.25448 0.0644882 3.6094e-18)
(3.68247 0.335347 -4.0162e-19)
(3.2099 -0.0485193 0)
(3.17213 -0.0135462 2.23691e-18)
(2.69091 -0.0123738 -2.21927e-18)
(3.87877 0.122256 -1.25232e-19)
(3.77177 0.101866 1.07828e-18)
(4.15977 0.173506 0)
(4.22847 0.181166 -3.75114e-19)
(4.01369 0.145247 0)
(3.69489 0.155415 0)
(4.0323 0.0950925 0)
(3.71179 0.0873371 0)
(4.18472 0.113898 7.85464e-19)
(4.1372 0.0791472 -1.74783e-18)
(4.14067 0.1139 -8.47969e-19)
(4.1864 0.116542 -9.24445e-19)
(4.2157 0.229033 1.77398e-18)
(3.85475 0.188643 0)
(4.06129 0.301941 0)
(-0.0713213 4.57962 -1.35715e-19)
(-0.0312987 4.6441 -1.16769e-20)
(-0.0645194 4.66071 0)
(-0.0541017 4.19563 1.38098e-19)
(-0.0522837 4.22333 2.25276e-20)
(-0.0571557 4.09115 -2.18338e-20)
(-0.0798517 3.52549 2.61145e-19)
(-0.14284 4.00559 -1.45126e-20)
(-0.101692 4.13312 7.47536e-20)
(-0.0737494 3.40143 -1.32247e-19)
(-0.0245538 2.92391 1.58379e-19)
(-0.0744487 4.4294 5.20855e-21)
(-0.0874373 4.64258 1.72188e-19)
(1.24331 4.36023 3.47343e-19)
(1.15946 4.52898 7.25995e-19)
(1.73682 3.46683 4.30723e-19)
(1.30883 3.5613 1.69437e-19)
(1.28661 2.89011 0)
(0.548277 2.31818 2.74843e-19)
(0.463412 1.74112 3.30632e-19)
(0.344903 2.56656 1.50874e-20)
(0.491846 3.1723 -1.16114e-18)
(0.631291 3.13136 8.76373e-19)
(0.432549 2.40379 0)
(0.293432 1.97136 -5.5717e-19)
(0.259625 3.07664 1.39447e-18)
(0.273167 2.7186 -3.13785e-20)
(0.157789 2.27535 -1.7477e-18)
(0.591296 1.41083 1.46316e-18)
(0.576221 1.61653 0)
(3.58364 -0.0751493 8.64305e-20)
(3.61861 -0.254101 -7.25943e-20)
(3.72135 -0.217712 -1.26651e-18)
(3.75927 -0.126018 1.28238e-18)
(3.67616 -0.0488552 0)
(2.4463 3.87168 0)
(2.6178 3.91475 0)
(2.88945 3.62564 0)
(2.73611 3.64273 0)
(0.85408 1.39426 -3.3397e-21)
(0.611421 1.03896 0)
(1.70873 3.38389 1.50198e-20)
(1.42061 3.46286 0)
(1.32625 2.95005 -1.28358e-18)
(1.40675 2.89278 8.24321e-19)
(1.79125 0.310396 0)
(1.43043 0.262015 3.52045e-19)
(2.41163 0.358828 2.19166e-18)
(1.78605 0.284835 -7.85383e-19)
(1.4263 0.112198 -2.49485e-18)
(4.26631 0.79011 -2.56532e-18)
(3.85195 0.995216 -3.67211e-20)
(3.29688 0.844639 2.06772e-18)
(3.87577 0.745476 1.81318e-18)
(3.12305 0.46569 -3.04487e-18)
(2.91021 0.452162 3.74968e-19)
(3.19247 0.682316 -8.18672e-19)
(2.97607 0.683406 0)
(3.75865 0.563998 1.53757e-18)
(4.09565 0.629412 0)
(4.09117 0.776488 0)
(4.04578 0.415932 8.23625e-19)
(4.29665 0.6426 -3.02466e-20)
(4.24947 0.715924 -4.52853e-19)
(4.1766 0.643307 0)
(3.61567 0.130421 1.7181e-18)
(4.19 0.183608 2.14409e-18)
(4.09068 0.151666 -1.67933e-18)
(4.13651 0.240886 -1.44278e-18)
(3.74573 0.238222 -2.15627e-18)
(3.30287 0.375971 0)
(3.40342 0.302415 0)
(2.55811 0.190652 -1.26599e-18)
(2.10845 0.119116 4.76743e-19)
(4.03722 0.352635 1.94024e-18)
(4.28774 0.432863 -2.34636e-18)
(4.28488 0.489492 2.06879e-18)
(4.15712 0.493549 0)
(4.25664 0.337318 0)
(4.26651 0.322403 -9.81891e-19)
(4.2143 0.316174 -1.59644e-18)
(2.22658 3.48711 6.20431e-19)
(1.93733 3.2307 -6.83305e-19)
(1.44555 2.35528 -1.0318e-18)
(1.18627 1.99615 2.66822e-19)
(0.883687 1.37804 -2.62844e-18)
(0.793603 1.21535 9.22046e-19)
(0.600723 0.903872 -1.97211e-21)
(1.11445 1.7846 -1.13776e-18)
(1.14176 1.88169 1.69845e-18)
(0.974283 1.70003 5.0603e-19)
(0.785889 1.28856 -5.12646e-19)
(0.635373 1.07435 0)
(2.44547 2.60672 -1.15427e-19)
(0.705124 1.14417 8.57172e-19)
(0.927701 0.889675 1.15611e-18)
(0.755232 0.813583 1.33765e-18)
(1.08305 0.746495 1.34107e-18)
(1.46685 1.04428 -2.27013e-18)
(1.38288 1.07117 1.8393e-18)
(1.00176 0.765483 -6.76707e-19)
(0.817002 0.567989 1.49454e-18)
(1.61547 0.490747 -7.7807e-19)
(1.55893 0.50832 0)
(1.23952 0.407329 4.60571e-21)
(2.50912 1.51586 7.75513e-19)
(2.07974 1.27012 -2.80842e-18)
(1.68658 1.18436 9.08662e-21)
(1.66064 1.09231 0)
(2.86198 2.59507 8.73744e-19)
(3.44674 2.75291 1.03739e-18)
(3.25575 2.9308 -1.19587e-18)
(3.5542 2.76347 -4.28351e-19)
(3.4843 2.60378 -1.34879e-19)
(3.51246 2.79522 1.38771e-19)
(3.6742 2.26707 -1.67931e-18)
(3.70518 2.49212 4.00709e-19)
(3.78367 2.43591 0)
(3.78446 2.19166 -5.79662e-19)
(4.04895 1.07334 5.80523e-19)
(4.27597 0.993192 1.00208e-18)
(4.30041 0.966901 1.0116e-18)
(4.05502 1.32937 -1.14955e-18)
(4.10288 1.3498 0)
(4.15253 1.23376 0)
(3.32765 1.23573 -1.56067e-20)
(2.41769 0.666488 0)
(2.72182 0.744042 9.30602e-19)
(3.23823 0.885954 -2.64568e-20)
(3.77285 1.53469 5.10713e-18)
(3.56976 1.76191 1.31104e-18)
(3.48089 1.54048 -1.34058e-18)
(3.0373 1.36977 1.43734e-18)
(2.76059 1.36964 8.23716e-19)
(2.3065 1.15587 -7.97751e-19)
(3.67221 -0.0855425 1.98454e-18)
(3.8947 -0.028932 0)
(3.85894 -0.0665485 1.34201e-18)
(3.74291 -0.0594081 -2.98761e-18)
(3.98056 0.0373782 1.4619e-18)
(3.90444 0.113428 -3.0828e-18)
(3.73986 0.128037 0)
(3.55625 0.173471 -6.28519e-19)
(3.81197 0.122982 1.60521e-18)
(3.69195 0.191385 -8.22522e-19)
(3.6003 0.171079 5.90689e-19)
(-0.0801911 2.59292 0)
(-0.0467792 3.40014 0)
(-0.0319326 2.46375 0)
(-0.021587 1.97222 0)
(0.0462473 3.94241 6.7062e-19)
(0.140124 3.72388 -1.72923e-19)
(0.317195 4.64496 -2.29732e-19)
(0.252973 4.46245 2.4263e-19)
(-0.0248041 4.29518 -4.97547e-19)
(0.0121821 4.32722 3.73615e-19)
(0.0958212 3.87122 2.22708e-20)
(0.00992279 3.55872 -4.67069e-19)
(-0.0123186 3.31051 -6.22644e-20)
(-0.0391051 3.67272 -5.67388e-20)
(0.153211 4.47416 -5.8696e-19)
(0.178414 4.28753 0)
(0.275706 4.63461 2.96407e-19)
(0.268932 4.70946 2.52973e-19)
(0.595841 4.44407 -2.26016e-19)
(0.407993 3.77963 0)
(0.457144 3.62749 -1.11476e-18)
(0.559778 3.99637 7.899e-19)
(0.480012 4.56159 -6.14779e-19)
(0.370417 4.4318 3.30759e-19)
(0.29936 4.15322 0)
(-0.034278 4.76161 -5.53261e-19)
(-0.0740889 4.52575 -6.41445e-19)
(-0.075235 4.73916 0)
(-0.0284745 4.35872 -6.24735e-21)
(-0.0185746 4.64064 2.74267e-19)
(-0.118081 3.88342 4.47126e-20)
(-0.0549313 3.48819 -6.53874e-19)
(-0.095115 3.92626 1.74193e-19)
(-0.135015 4.51889 2.32418e-19)
(-0.0756037 4.32932 0)
(-0.0593517 3.88836 0)
(-0.0819026 2.90025 2.00913e-19)
(-0.0472477 3.6339 -6.26943e-20)
(-0.0724211 3.62132 0)
(-0.0879596 2.68915 1.58187e-19)
(-0.0462176 2.19545 -3.06497e-19)
(3.76103 0.0323496 0)
(3.7319 0.00775177 -2.03269e-19)
(4.1795 0.0679726 -1.43989e-18)
(4.08911 0.0463228 0)
(3.87634 0.0178335 0)
(4.14973 0.0370673 -1.2525e-20)
(4.1003 0.0349606 2.37884e-18)
(4.0001 0.0802233 2.84557e-18)
(3.75586 0.118678 0)
(3.55801 0.110064 0)
(4.01332 0.0939753 1.41742e-18)
(3.70324 0.116151 0)
(3.47209 0.128887 0)
(-0.0807327 4.69935 0)
(-0.106136 4.66796 1.06728e-20)
(-0.0766158 4.71949 6.29635e-20)
(-0.0604186 3.83407 0)
(-0.111775 4.53644 1.11254e-19)
(-0.0674941 4.2421 -6.33841e-20)
(-0.053662 3.93152 0)
(1.41001 4.18543 0)
(1.20927 4.58053 -1.29797e-18)
(1.22457 4.48824 0)
(1.57389 4.48727 1.48433e-18)
(1.59328 4.12151 0)
(1.50163 4.37177 -6.06504e-19)
(1.01129 2.24234 -3.39443e-20)
(0.709035 1.64518 -1.74447e-18)
(0.590583 1.22734 2.12841e-18)
(0.708588 1.83468 3.96764e-19)
(0.974842 2.42379 0)
(1.03622 2.37889 0)
(0.718247 1.68709 0)
(0.532237 1.32992 -1.39506e-18)
(1.20848 3.77448 -9.83376e-19)
(1.12858 2.9885 -2.35476e-19)
(1.32667 3.40456 1.92579e-19)
(0.599129 2.0405 0)
(0.620083 1.94231 0)
(0.462134 1.57086 -3.92667e-19)
(0.957465 2.72004 0)
(2.68709 3.571 0)
(2.38111 3.00845 -1.45449e-18)
(2.54575 3.02685 -8.58701e-20)
(2.41958 3.40425 0)
(2.28548 3.14924 2.22098e-18)
(3.27797 3.08683 -3.89676e-19)
(3.13405 3.32509 0)
(3.11645 3.15146 6.30403e-19)
(2.8704 3.4127 0)
(2.88188 3.20076 0)
(1.20908 2.00605 -9.30351e-19)
(1.41385 2.40304 -6.99476e-19)
(1.75333 2.98148 1.20591e-18)
(1.69551 2.95946 -3.62219e-19)
(1.06225 1.82198 0)
(1.20666 2.20819 4.71074e-19)
(0.718329 1.28853 -7.15145e-19)
(0.581548 1.04333 -5.60133e-22)
(1.93702 3.69544 0)
(2.19887 3.74283 -5.42573e-19)
(2.33811 3.98622 0)
(2.28407 0.529021 0)
(1.61734 0.34191 0)
(1.20901 0.276587 0)
(2.20911 0.554268 -1.46517e-18)
(1.63527 0.402197 8.17196e-19)
(2.14561 0.129125 -9.8511e-19)
(2.62659 0.297533 0)
(2.46566 0.30165 4.13464e-19)
(1.76987 0.13572 1.6329e-18)
(1.53025 0.0812685 -1.03698e-18)
(0.745486 1.55581 8.57978e-19)
(0.959697 1.82027 0)
(0.537612 1.43995 1.56076e-18)
(0.523801 1.61476 -1.42512e-18)
(0.757109 1.8144 -9.8827e-19)
(2.07323 2.46253 1.33761e-18)
(2.09657 2.71191 0)
(1.58335 1.67801 -2.76327e-19)
(2.00955 1.98935 1.74495e-18)
(1.35976 1.29252 -4.23551e-19)
(1.58856 1.31337 4.50656e-19)
(2.10949 1.51317 1.02311e-18)
(2.44262 1.67093 0)
(2.27591 1.85603 0)
(2.00981 1.60596 0)
(3.9568 2.07993 3.84466e-19)
(3.75979 1.8898 -1.26347e-18)
(3.8172 2.02813 1.0467e-18)
(3.90105 1.77152 -1.00825e-18)
(4.15789 1.67394 0)
(4.11697 1.84115 -2.97813e-19)
(2.84042 1.16333 -1.89718e-18)
(2.97078 1.16344 -2.41286e-18)
(2.33193 1.04356 1.45634e-18)
(2.13822 0.93443 -1.41974e-18)
(2.46346 0.846176 -1.17805e-18)
(2.17853 0.776945 1.44875e-18)
(4.00845 0.0334779 -1.52882e-18)
(4.05276 0.0406922 3.13006e-18)
(3.76797 -0.0658789 1.90081e-18)
(3.79119 -0.0737696 -2.28667e-18)
(3.95955 0.010577 0)
(4.05604 0.0228816 -3.72963e-18)
(0.0965066 4.76147 1.06541e-19)
(0.0673259 4.73216 0)
(0.189367 4.73146 9.53508e-19)
(0.210947 4.74924 -8.6747e-19)
(0.230841 4.71912 4.28428e-19)
(0.121833 4.65924 0)
(-0.100798 4.77111 0)
(-0.10659 4.40462 -6.18474e-20)
(-0.105493 4.33397 5.54358e-20)
(-0.114223 4.48268 7.18834e-21)
(-0.104901 4.72116 -1.01163e-19)
(-0.0820314 4.7088 5.50863e-20)
(1.87526 4.00953 -1.64314e-18)
(1.81622 4.01601 1.74007e-18)
(1.68392 4.40662 -8.54176e-19)
(1.69261 4.27726 7.61189e-20)
(2.25267 4.08667 0)
(1.85455 4.22028 -6.35412e-19)
(1.98181 3.96012 6.16256e-19)
(1.82383 4.38117 8.34372e-19)
(2.07656 4.21941 0)
(2.22801 4.10041 0)
(1.13804 3.63048 1.4949e-18)
(0.8264 2.81091 2.02308e-18)
(0.954111 2.98929 -1.38944e-18)
(0.746323 2.9709 -2.31869e-19)
(0.90214 3.72997 4.66257e-19)
(0.721856 3.36244 -1.13389e-18)
(0.745607 1.46548 -1.21463e-18)
(0.746088 1.31671 0)
(0.602445 1.11431 -1.33506e-18)
(1.11071 2.06367 0)
(1.08767 2.1506 0)
(1.35836 2.19065 -1.09047e-18)
(1.0643 2.01401 -1.03589e-18)
(1.01667 2.0349 1.09857e-18)
(1.03094 1.51905 0)
(1.41013 1.76162 -6.01165e-19)
(1.62703 2.1188 -8.55358e-19)
(1.41057 2.08241 0)
(0.867659 1.81829 7.12379e-19)
(0.779576 1.67937 0)
(2.90583 2.2888 -1.84695e-18)
(3.31875 2.47056 2.60913e-18)
(3.27745 2.19306 -2.59322e-18)
(2.61011 2.02076 -2.31164e-19)
(2.72471 1.94024 -9.74092e-19)
(1.26166 2.18953 7.96077e-19)
(1.31579 2.24434 -1.35976e-18)
(1.45381 2.3293 1.79259e-18)
(1.78999 2.55929 -1.1651e-18)
(1.88855 2.93198 -1.56705e-18)
(1.56284 2.48836 -1.18788e-19)
(1.63257 2.62787 1.37111e-18)
(1.80966 2.69275 9.66062e-20)
(2.01753 2.99846 6.49928e-19)
)
;

boundaryField
{
    wall-4
    {
        type            noSlip;
    }
    velocity-inlet-5
    {
        type            fixedValue;
        value           uniform (3 0 0);
    }
    velocity-inlet-6
    {
        type            fixedValue;
        value           uniform (0 1 0);
    }
    pressure-outlet-7
    {
        type            zeroGradient;
    }
    wall-8
    {
        type            noSlip;
    }
    frontAndBackPlanes
    {
        type            empty;
    }
}


// ************************************************************************* //
