/*--------------------------------*- C++ -*----------------------------------*\
  =========                 |
  \\      /  F ield         | OpenFOAM: The Open Source CFD Toolbox
   \\    /   O peration     | Website:  https://openfoam.org
    \\  /    A nd           | Version:  9
     \\/     M anipulation  |
\*---------------------------------------------------------------------------*/
FoamFile
{
    format      ascii;
    class       volScalarField;
    location    "3.14";
    object      p_rgh;
}
// * * * * * * * * * * * * * * * * * * * * * * * * * * * * * * * * * * * * * //

dimensions      [1 -1 -2 0 0 0 0];

internalField   nonuniform List<scalar> 
2268
(
760.633
760.385
760.356
760.601
761.118
761.909
762.968
764.276
765.809
767.539
769.417
771.393
773.405
775.383
777.244
778.88
780.222
780.957
781.033
782.832
784.71
785.805
786.212
760.713
760.489
760.448
760.69
761.192
761.965
763.001
764.282
765.784
767.474
769.312
771.244
773.212
775.146
776.972
778.595
780.012
780.351
781.092
782.284
784.796
786.127
786.345
760.752
760.563
760.518
760.762
761.252
762.008
763.019
764.268
765.734
767.385
769.181
771.072
773.001
774.906
776.726
778.394
779.982
779.547
780.917
782.02
783.993
786.304
787.034
760.747
760.561
760.512
760.758
761.244
761.987
762.98
764.206
765.644
767.267
769.035
770.902
772.814
774.717
776.565
778.321
780.109
781.225
780.499
781.691
785.052
786.532
787.288
760.694
760.483
760.421
760.667
761.151
761.887
762.87
764.084
765.508
767.116
768.875
770.739
772.656
774.579
776.472
778.318
780.218
782.643
783.458
785.303
786.232
786.825
787.645
760.586
760.335
760.252
760.491
760.975
761.707
762.687
763.9
765.321
766.929
768.696
770.577
772.516
774.475
776.421
778.345
780.304
782.582
784.769
785.96
786.314
787.131
788.16
760.418
760.121
760.013
760.246
760.729
761.456
762.439
763.659
765.087
766.704
768.493
770.405
772.381
774.385
776.386
778.37
780.364
782.511
784.482
785.677
786.196
787.26
788.202
760.193
759.861
759.733
759.959
760.44
761.159
762.143
763.375
764.812
766.441
768.254
770.204
772.222
774.272
776.318
778.342
780.348
782.38
784.163
785.267
785.732
786.818
790.184
754.169
756.433
756.862
756.352
755.212
753.852
752.696
751.935
750.855
750.118
749.124
746.612
745.34
745.355
745.97
744.431
742.766
742.675
743.745
753.735
755.667
756.036
756.058
755.242
754.125
753.113
752.435
751.401
750.812
749.571
746.071
745.635
745.278
746.544
743.767
743.388
744.277
744.804
754.196
756.091
756.149
755.615
754.876
754.033
753.29
752.183
751.68
751.764
750.013
745.931
745.647
746.698
749.194
747.125
739.509
744.206
745.397
753.384
755.541
755.744
755.314
754.634
753.987
753.38
752.555
751.791
752.297
751.515
745.845
745.333
750.35
750.027
747.498
736.302
737.737
745.292
752.424
755.179
755.5
755.194
754.536
753.983
753.35
753.408
753.277
753.078
752.619
751.449
750.045
751.792
751
751.078
739.996
730.02
745.018
751.423
755.278
755.516
755.146
754.494
753.872
753.192
753.127
753.617
753.256
753.449
754.524
754.478
752.944
751.911
752.299
754.386
728.544
732.644
749.757
756.097
755.958
755.236
754.516
752.978
749.935
747.105
753.228
753.185
750.404
752.819
754.339
753.277
752.694
753.438
755.327
745.725
714.358
747.67
757.694
756.994
755.489
754.388
754.599
727.272
723.921
729.595
732.555
742.946
754.641
754.328
753.534
753.244
754.474
756.609
751.268
713.274
759.815
759.399
759.221
759.424
759.893
760.585
761.569
762.834
764.299
765.968
767.81
769.833
771.93
774.052
776.157
778.209
780.199
782.067
783.558
784.359
784.326
783.452
781.548
739.796
739.021
736.688
734.435
735.154
738.107
741.073
743.895
747.297
751.328
756.204
761.444
765.371
769.338
773.296
776.818
779.856
782.328
783.908
784.495
784.09
782.613
779.843
270.313
259.419
257.132
259.28
260.367
260.927
267.792
278.172
289.902
302.492
317.358
333.873
352.651
372.558
392.659
413.099
433.375
452.736
466.533
473.448
472.577
462.023
439.979
2.78587
4.42143
3.28657
2.07636
2.56405
4.1754
3.70088
3.18085
3.16687
3.48798
3.54566
3.48923
3.42732
3.24198
3.09169
2.9662
2.69036
2.12591
1.74737
1.62238
1.46113
1.24898
1.32275
2.49769
4.4861
3.19119
2.05192
2.4064
6.59004
5.53546
3.53667
6.9914
10.6708
10.0949
9.13252
10.1616
8.90371
8.57459
9.07939
8.75619
5.35258
5.65707
6.33895
4.78744
1.52399
1.54118
2.4322
5.08994
5.14647
1.93548
2.43615
7.46486
7.55811
7.64501
7.29603
10.8376
10.8075
10.7853
10.7277
10.6804
10.6156
10.5262
10.1387
4.95428
1.3611
1.83847
2.93647
1.33891
1.93178
4.61361
4.86907
4.84048
1.79108
1.78617
1.75195
4.20175
6.31433
5.18839
2.4076
2.20346
2.51651
2.16679
2.07002
1.70198
1.18367
0.700673
2.61276
0.972061
0.540531
0.51055
0.516914
1.97919
1.74375
0.811284
2.3224
3.09161
3.12301
3.06241
1.63239
0.0302981
0.00875273
0.00717759
0.001866
-0.00614165
-0.00827567
-0.00738301
0.0722794
0.212761
0.693056
1.17629
1.71929
1.09575
0.502129
0.545399
0.610452
0.0217436
0.0274162
0.0139481
0.953976
1.70332
1.07335
0.169392
0.0098941
0.00614922
0.00331589
0.000217511
-0.00348217
0.0112671
0.0350536
-0.00598259
-0.00147283
-0.00582466
0.0651122
1.2464
1.46412
1.46401
0.373245
0.0111613
0.0177251
0.0202832
0.014148
0.00622349
-0.00148248
-0.00330431
0.00157038
0.00457914
0.0039116
0.0026139
0.00514082
0.00318504
-0.00172222
-0.00650218
-0.00706638
-0.00791217
-0.00992536
-0.01414
-0.0244881
0.583704
0.260328
-0.00495395
0.00117413
0.0135818
0.0162459
0.0122494
0.00701154
0.000911054
-0.00121476
0.000385524
0.00198174
0.00185717
0.00629007
0.00546366
0.00250314
-0.00440719
-0.00578809
-0.00689457
-0.00816948
-0.0105531
-0.0144296
-0.0201018
-0.0255617
-0.0165909
-0.0078507
0.00135004
0.00988948
0.0101627
0.00843723
0.00531616
0.00168997
-0.000142083
4.04983e-05
0.000517256
0.000932292
0.00257032
0.00129614
-0.00243865
-0.00396263
-0.00521114
-0.00644241
-0.00791901
-0.00991273
-0.0126917
-0.0158722
-0.0166073
-0.012766
0.00363229
0.00761604
0.00731947
0.00647495
0.00519167
0.00321696
0.00104277
-0.00024994
-0.000555665
-0.000554494
-0.000733507
-0.00132033
-0.0020972
-0.00302504
-0.00403896
-0.00510652
-0.00621313
-0.00747232
-0.00901583
-0.0108721
-0.0128151
-0.0133846
-0.00227562
0.00501543
0.00764357
0.00571077
0.00435323
0.00304054
0.00135682
-9.67161e-06
-0.0009197
-0.0013103
-0.00147892
-0.00170486
-0.0020856
-0.00264286
-0.00334585
-0.00414551
-0.00501945
-0.00596103
-0.0070013
-0.00816438
-0.00940153
-0.0105163
-0.0110056
-0.0103264
-0.00700668
0.0057954
0.00479222
0.00324973
0.00193125
-7.34362e-05
-0.00104817
-0.0017046
-0.0020583
-0.00226019
-0.00246612
-0.00275892
-0.00316987
-0.00369382
-0.00431089
-0.00500328
-0.0057573
-0.00656751
-0.00741482
-0.00823173
-0.00887218
-0.00907409
-0.00860019
-0.00761868
-0.00578997
0.00419595
0.00255258
0.000872319
-0.000900747
-0.0019042
-0.00241653
-0.00272222
-0.00291738
-0.00309781
-0.00332526
-0.00362957
-0.00401769
-0.00448214
-0.00500839
-0.00557924
-0.00617519
-0.00676277
-0.00727871
-0.00762103
-0.00764954
-0.00726601
-0.00655096
-0.0056991
0.00360821
0.00196678
0.000158897
-0.00129721
-0.00255867
-0.00299556
-0.00326656
-0.00344628
-0.00360078
-0.00377663
-0.00400062
-0.00428248
-0.00461931
-0.00499955
-0.00540548
-0.00581425
-0.00619175
-0.00648641
-0.00663003
-0.00654635
-0.00619246
-0.00560874
-0.00489282
0.00288579
0.00116926
-0.000359894
-0.00192375
-0.00303335
-0.0034265
-0.0036731
-0.00383709
-0.00396829
-0.00410318
-0.00426429
-0.00446149
-0.00469379
-0.00495147
-0.00521789
-0.0054716
-0.00568342
-0.00581461
-0.00582044
-0.00565865
-0.00530976
-0.00479514
-0.00416639
0.0020485
3.90137e-05
-0.00114876
-0.0026691
-0.0033536
-0.00371217
-0.00393963
-0.00408804
-0.004198
-0.00429926
-0.0044103
-0.00453999
-0.00468827
-0.00484681
-0.00500084
-0.00513189
-0.00521702
-0.00522863
-0.00513796
-0.00492138
-0.00456999
-0.00409594
-0.00352784
0.00114781
-0.000760716
-0.00213507
-0.00301343
-0.003536
-0.00386226
-0.00406965
-0.00420248
-0.00429293
-0.00436612
-0.00443709
-0.00451328
-0.00459499
-0.00467538
-0.00474203
-0.00477992
-0.00477184
-0.00469891
-0.00454307
-0.00429122
-0.00393967
-0.00349601
-0.00297719
0.000237922
-0.00131123
-0.00241525
-0.00313991
-0.00359105
-0.00387973
-0.00406509
-0.00418133
-0.004255
-0.00430599
-0.00434632
-0.00438183
-0.00441286
-0.00443416
-0.004436
-0.00440683
-0.00433431
-0.00420591
-0.00401058
-0.00374132
-0.00339703
-0.00298316
-0.00251058
-0.000592224
-0.00178036
-0.00258335
-0.00314598
-0.00351942
-0.00376684
-0.00392769
-0.0040283
-0.00408901
-0.00412464
-0.00414424
-0.00415195
-0.00414792
-0.00412832
-0.00408611
-0.004013
-0.00390054
-0.00374073
-0.003527
-0.00325587
-0.0029276
-0.00254665
-0.00212075
-0.00127637
-0.00191672
-0.00229763
-0.00302493
-0.00332519
-0.00353162
-0.00366897
-0.00375658
-0.00380888
-0.00383622
-0.00384478
-0.00383702
-0.00381272
-0.00376913
-0.00370147
-0.00360422
-0.00347199
-0.00329988
-0.00308422
-0.00282358
-0.00251903
-0.00217469
-0.00179671
-0.0017653
-0.00148281
0.000362386
-0.00115225
-0.00300078
-0.00319111
-0.00330758
-0.00338576
-0.00343454
-0.00346023
-0.00346634
-0.00345384
-0.00342206
-0.00336898
-0.00329154
-0.00318632
-0.0030502
-0.00288041
-0.00267519
-0.00243434
-0.0021595
-0.00185478
-0.00152557
-0.00203497
-0.00152879
0.000724094
0.000573195
-0.00219335
-0.00276396
-0.00286281
-0.00293571
-0.00298595
-0.00301597
-0.00302689
-0.00301842
-0.00298954
-0.00293871
-0.00286403
-0.00276359
-0.00263583
-0.00247944
-0.00229385
-0.00207969
-0.00183894
-0.00157579
-0.0012952
-0.00210707
-0.00180743
0.00115476
0.00108478
-0.001429
-0.00226973
-0.00235531
-0.00242722
-0.00248338
-0.00252271
-0.00254421
-0.00254665
-0.00252868
-0.00248912
-0.00242681
-0.00234081
-0.00223054
-0.00209563
-0.00193627
-0.00175354
-0.00154959
-0.00132861
-0.00109515
-0.00204601
-0.00179471
0.00129361
0.000864018
-0.00127568
-0.00173464
-0.001812
-0.00188627
-0.00195128
-0.00200307
-0.00203896
-0.00205692
-0.00205527
-0.00203314
-0.00198974
-0.00192464
-0.00183785
-0.00172954
-0.00160033
-0.0014515
-0.00128523
-0.0011056
-0.000916664
-0.00191002
-0.00145051
-0.000866066
-0.00100383
-0.0011227
-0.00119363
-0.00126577
-0.00134353
-0.00141789
-0.00148279
-0.0015342
-0.00156934
-0.00158665
-0.00158494
-0.00156366
-0.00152264
-0.00146214
-0.00138262
-0.00128493
-0.00117038
-0.00104107
-0.000900868
-0.000753351
-0.00173539
-0.00113656
-0.000791402
-0.000666034
-0.000648072
-0.000683913
-0.000749459
-0.000828604
-0.000909985
-0.000985905
-0.00105128
-0.00110277
-0.0011384
-0.00115701
-0.00115802
-0.00114133
-0.0011073
-0.00105651
-0.000989839
-0.000908533
-0.000814512
-0.000711362
-0.000602182
-0.00155286
-0.000880195
-0.000467029
-0.000276213
-0.000218745
-0.000233071
-0.000287807
-0.000363766
-0.000447643
-0.00053037
-0.000605949
-0.000670504
-0.000721694
-0.000758221
-0.000779463
-0.000785369
-0.000776344
-0.000752948
-0.000715934
-0.000666279
-0.000605581
-0.000537043
-0.000463254
-0.00137774
-0.000677977
-0.00020938
3.84689e-05
0.000134878
0.000145118
0.000105517
3.78049e-05
-4.32291e-05
-0.000127474
-0.000208218
-0.000281113
-0.000343504
-0.000394002
-0.000432029
-0.000457685
-0.000471438
-0.000473695
-0.000464802
-0.000445181
-0.000415868
-0.000379499
-0.000338074
-0.00121068
-0.000510747
-5.80408e-06
0.00028488
0.000413532
0.000447368
0.000425198
0.000369827
0.000296677
0.000216369
0.000136038
6.03757e-05
-7.77394e-06
-6.7289e-05
-0.000117732
-0.000159624
-0.000193623
-0.000219799
-0.000237647
-0.000246589
-0.000246762
-0.000240013
-0.00022768
-0.00105482
-0.00036005
0.000159782
0.000473237
0.000623105
0.000676157
0.000671319
0.000630813
0.000569624
0.000498274
0.000424013
0.000351664
0.000284169
0.000221315
0.000163658
0.000109593
5.79526e-05
9.29149e-06
-3.43029e-05
-7.06062e-05
-9.84497e-05
-0.0001187
-0.000132048
-0.000912346
-0.000220822
0.000298372
0.000614675
0.000772219
0.000837715
0.000848081
0.000823268
0.000776838
0.000718726
0.00065598
0.000593104
0.000532045
0.000473807
0.000415269
0.000353604
0.000286637
0.00021603
0.000146775
8.36829e-05
2.96442e-05
-1.51489e-05
-5.09149e-05
-0.000778454
-8.51511e-05
0.000420214
0.000720118
0.00087082
0.000940641
0.000962597
0.000952791
0.000922651
0.000881246
0.000835247
0.000788718
0.000742856
0.000696075
0.000643622
0.000579313
0.000498303
0.000404192
0.000307483
0.000216958
0.000137526
7.02691e-05
1.5035e-05
-0.000645293
5.90138e-05
0.000537783
0.00080019
0.000928161
0.000993261
0.00102219
0.0010256
0.00101233
0.000990537
0.000966437
0.000943408
0.000921254
0.000895694
0.000858254
0.000797144
0.000701289
0.000577898
0.000448635
0.000328239
0.000223455
0.000135567
6.37392e-05
-0.000506902
0.000225846
0.000665032
0.000863612
0.000949444
0.000999288
0.00102996
0.0010445
0.00104863
0.00104956
0.00105308
0.00106176
0.00107378
0.00108171
0.00107162
0.00102207
0.000907029
0.0007408
0.000568774
0.000414029
0.000283624
0.000177358
9.24228e-05
-0.00036636
0.000422283
0.000811512
0.000912441
0.00093095
0.000953253
0.000980899
0.0010055
0.00102853
0.00105614
0.00109369
0.00114321
0.00120173
0.00125912
0.00129494
0.00127172
0.00112785
0.000892851
0.000662094
0.000467642
0.000312497
0.000191821
9.88603e-05
-0.000243126
0.000622878
0.000957086
0.000923198
0.000849948
0.000836795
0.000861235
0.00089817
0.000943651
0.00100268
0.00108041
0.00117905
0.00129576
0.00141972
0.00152762
0.00156108
0.00137028
0.00101926
0.000710156
0.00047531
0.000301782
0.000174923
8.20437e-05
-0.0001739
0.000744223
0.000978982
0.000783936
0.000627444
0.000598751
0.000639942
0.00070725
0.000792028
0.000898306
0.00103141
0.00119429
0.00138379
0.00158812
0.00180085
0.00197586
0.00170278
0.00109785
0.000671355
0.000408964
0.000237346
0.00012105
4.1188e-05
-6.50868e-05
0.000592388
0.000428626
0.000167808
5.84312e-05
0.000109826
0.000244749
0.000411233
0.000599384
0.000812962
0.00105924
0.00134262
0.00165866
0.0019952
0.00238949
0.00299429
0.00258283
0.00120041
0.000525577
0.000253257
0.000114765
3.16448e-05
-2.1071e-05
0.000761305
-0.00261085
-0.00195501
-0.00134815
-0.000936171
-0.000581658
-0.000254113
4.73726e-05
0.000342027
0.000655033
0.00100442
0.00140694
0.00188806
0.00253664
0.00362419
0.00520755
0.00459032
0.0014864
0.000455003
0.000144204
2.15229e-05
-3.53238e-05
-6.42668e-05
777.324
775.466
773.816
771.105
775.047
771.366
767.608
763.414
412.412
390.257
368.154
347.072
1.68975
1.95408
2.11685
2.19491
1.7975
7.4694
8.83784
8.75206
4.09148
7.73681
5.35463
2.49436
1.38852
0.118103
0.127697
2.26719
0.328119
0.0781557
0.0458025
0.673669
0.0131962
0.0163817
0.01161
0.00178653
0.00348113
0.00393653
0.00265378
-0.000924145
0.00274462
-0.00156476
-0.00187169
-0.00316138
0.0090556
0.00966198
0.00918224
-0.00114854
0.00872035
0.00928465
0.00967291
0.00990289
0.00926201
0.0094411
-0.00288376
-0.00478652
-0.00416099
-0.00480241
-0.00485661
-0.00437787
-0.0051124
-0.00468898
-0.00424007
-0.00378536
-0.00436266
-0.00398835
-0.00359042
-0.0031791
-0.00368053
-0.00334336
-0.00298877
-0.0026219
-0.00307989
-0.00277516
-0.00245969
-0.00213592
-0.00256562
-0.0022909
-0.00201121
-0.00172755
-0.00213629
-0.00189015
-0.00164319
-0.00139585
-0.00178514
-0.00156665
-0.00134969
-0.00113481
-0.00150077
-0.00130911
-0.00111974
-0.000933807
-0.00126945
-0.00110345
-0.000939424
-0.000779394
-0.00107782
-0.000935797
-0.000794946
-0.000658213
-0.000914179
-0.000794311
-0.00067469
-0.000559159
-0.000769144
-0.000669854
-0.000569966
-0.000474128
-0.000636488
-0.000556561
-0.000475304
-0.000398027
-0.000513592
-0.000451868
-0.000388222
-0.000328354
-0.000400659
-0.000355699
-0.000308339
-0.000264414
-0.000298951
-0.000268954
-0.000236173
-0.000206386
-0.000209167
-0.000192185
-0.000172128
-0.00015458
-0.000131211
-0.000125433
-0.000116375
-0.000109323
-6.5106e-05
-6.89828e-05
-6.942e-05
-7.13201e-05
-1.19579e-05
-2.4085e-05
-3.25792e-05
-4.18992e-05
2.60011e-05
7.16321e-06
-7.7412e-06
-2.2709e-05
4.63796e-05
2.27876e-05
3.53951e-06
-1.49258e-05
4.79358e-05
2.20938e-05
1.01105e-06
-1.84778e-05
3.14072e-05
6.39623e-06
-1.3713e-05
-3.16642e-05
-1.04518e-06
-2.12805e-05
-3.74474e-05
-5.16175e-05
-4.93831e-05
-6.15306e-05
-7.03866e-05
-7.76623e-05
-7.91855e-05
-8.51088e-05
-8.89756e-05
-9.16144e-05
760.255
761.1
758.113
742.222
727.63
732.735
726.486
718.71
723.891
733.987
751.672
754.875
754.361
751.438
747.334
755.875
758.593
761.466
746.193
741.053
696.199
667.953
670.286
683.106
696.098
700.216
694.931
682.24
674.265
667.33
662.812
662.973
662.813
669.744
685.533
706.495
730.201
735.423
314.681
329.445
350.945
366.704
369.47
369.092
383.864
398.739
400.931
390.618
370.95
355.14
344.767
336.081
325.147
310.687
305.268
309.427
327.618
2.03636
4.5711
6.87015
4.43553
1.81518
1.66443
1.55264
2.14489
3.88852
5.30134
5.84752
6.04607
5.37358
4.07136
2.54303
1.8066
1.78293
1.66099
1.79641
2.46329
1.38694
1.3726
1.38386
2.04788
2.2008
1.5803
1.61062
2.11274
1.57606
1.5539
1.55859
1.96271
2.02664
1.70916
1.66203
1.6046
1.64412
1.76277
1.3874
1.36054
1.35874
1.45945
3.0933
3.07699
3.0585
3.03454
3.0168
3.01669
2.63711
2.67349
2.70073
2.69616
2.6983
2.63893
1.60489
1.61656
1.64386
2.80408
2.36708
2.86962
2.84951
2.79345
2.602
2.09164
1.83573
1.72554
1.96212
1.5525
1.69789
1.76261
1.54313
1.63216
1.77384
1.54345
1.40961
1.25212
2.02322
1.58329
1.73085
1.4094
0.353733
0.142815
0.252775
0.13191
0.0375437
0.0531375
0.0456129
0.0650702
0.0732777
0.0857379
0.0927943
0.187516
0.406363
0.361551
0.300706
-0.0155045
0.0613442
-0.0156997
-0.0113518
-0.00185784
0.00381736
0.00910093
0.015375
0.020348
0.0240685
0.0306759
0.0362546
0.0558743
0.115128
0.096908
0.0458524
0.0431446
0.0435745
0.0437476
-0.00849132
-0.00931875
-0.00933537
-0.00672739
-0.00165975
0.00284469
0.00724593
0.021246
0.0271576
0.0236444
0.0289654
0.0402481
0.148759
0.16446
0.16563
0.127833
0.0404522
0.0408423
0.0403248
-0.00614874
-0.0067098
-0.00639073
-0.00432673
-0.000599267
0.00821952
0.040717
0.0532485
0.0561298
0.0365223
0.070975
0.163694
0.164279
0.165421
0.0804172
0.049715
0.0432501
0.040235
0.037371
-0.00407241
-0.00507276
-0.00441145
-0.00264868
0.000110814
0.0281281
0.0512062
0.0537897
0.0539512
0.0220504
0.0653896
0.129313
0.105565
0.0358045
0.0296601
0.0430419
0.106855
0.108332
0.0629613
0.000599125
-0.00400731
-0.00308858
-0.00154717
0.000619681
0.0141713
0.0354046
0.0379514
0.0159331
0.0106372
0.0172357
0.014636
0.0138618
0.0160215
0.0367796
0.118716
0.120543
0.121291
0.121623
-0.00286737
-0.00320813
-0.00217101
-0.000376948
0.0013142
0.00269489
0.00399441
0.00579278
0.00717841
0.00873443
0.00949452
0.0100288
0.0110492
0.0125973
0.0688348
0.117251
0.114632
0.0786477
0.119594
-0.00357996
-0.00252255
-0.00138377
-7.2832e-05
0.00134249
0.00256895
0.00382054
0.00514284
0.0065204
0.00764704
0.00830027
0.00871495
0.00921739
0.0098864
0.0428747
0.0683361
0.0155996
0.0124284
0.0554372
-0.00302823
-0.00202032
-0.000963564
0.000166672
0.00138529
0.00305932
0.00445912
0.00535129
0.00589121
0.00671745
0.00721532
0.00748453
0.0076544
0.00797707
0.0091218
0.00661154
0.00723777
0.00940002
0.0455573
-0.00248081
-0.00153797
-0.00055731
0.000470923
0.00155358
0.00317277
0.00432711
0.00525754
0.0059085
0.00588503
0.00625045
0.00640373
0.00639589
0.00619026
0.00567627
0.00529229
0.0052292
0.00894538
0.0850798
-0.00199329
-0.0011278
-0.000236691
0.00067509
0.00158508
0.00256639
0.00381063
0.00487033
0.00535664
0.00516609
0.00539085
0.00546072
0.00536176
0.00508312
0.00462374
0.00413064
0.00369082
0.00297299
0.0862812
-0.00158022
-0.000801662
-6.91587e-06
0.000792377
0.00157512
0.00231492
0.00300609
0.00367976
0.00419765
0.00457129
0.00487515
0.0048655
0.00454117
0.00422454
0.00382282
0.00336476
0.00289178
0.00245978
0.0225307
-0.00124182
-0.000552645
0.000145374
0.000838223
0.00150653
0.00212937
0.00268931
0.00316924
0.00354873
0.00388141
0.0042231
0.0042087
0.0039381
0.00354455
0.00323978
0.0029407
0.00273702
0.002792
0.00320597
-0.000974374
-0.000372697
0.000232333
0.000826194
0.00139138
0.00191067
0.00236893
0.0027515
0.00304284
0.00323075
0.00338626
0.00346038
0.0032399
0.00297765
0.00277871
0.00265782
0.00274562
0.00315277
0.020302
-0.000771174
-0.000252122
0.000266298
0.000769879
0.00124338
0.00167246
0.00204434
0.00234704
0.00256935
0.00270285
0.00274525
0.00270711
0.00260466
0.00247068
0.00235266
0.00234074
0.00256556
0.00307754
0.0634028
-0.000621833
-0.000178698
0.000260834
0.000683569
0.00107648
0.00142778
0.00172682
0.00196414
0.00213189
0.00222564
0.00224646
0.00220384
0.00211594
0.00201087
0.00193366
0.00195815
0.00218795
0.00276253
0.0651122
-0.000513462
-0.000139041
0.000229541
0.000580702
0.000903337
0.00118775
0.0014254
0.00160899
0.00173333
0.00179655
0.00180148
0.00175729
0.00168032
0.00159509
0.00153798
0.00156375
0.00175587
0.00219998
0.0668526
-0.000433504
-0.000121086
0.000184009
0.000472042
0.000733515
0.00096051
0.00114639
0.00128577
0.00137547
0.00141534
0.00140913
0.00136554
0.00129887
0.00122952
0.00118464
0.00120024
0.00134346
0.00176939
0.0687616
-0.00037187
-0.000115558
0.000132796
0.000365185
0.000573449
0.000751255
0.000893569
0.000996643
0.00105878
0.00108113
0.0010681
0.00102812
0.000974014
0.000922882
0.00089394
0.000905593
0.00100534
0.00139687
0.0705997
-0.000321398
-0.000115925
8.18088e-05
0.00026521
0.000427297
0.000563067
0.000668813
0.000742087
0.000782406
0.000791952
0.000775941
0.000743267
0.000706846
0.000683188
0.000688839
0.00073526
0.000860623
0.00126367
0.0470834
-0.000277413
-0.000117814
3.4983e-05
0.000175486
0.000297668
0.000397604
0.000472634
0.00052131
0.000544138
0.000544276
0.000528061
0.000505862
0.000492849
0.000509189
0.000578305
0.000726531
0.00101251
0.00159152
0.0023157
-0.000237247
-0.000118565
-5.26347e-06
9.79795e-05
0.000185873
0.000255293
0.000304336
0.000332293
0.00034045
0.000332875
0.000317213
0.000305942
0.000317874
0.000379718
0.000528618
0.0008217
0.0013576
0.00220947
0.00331102
-0.00019977
-0.000116938
-3.78662e-05
3.3342e-05
9.19409e-05
0.000135336
0.000162108
0.000172034
0.000166936
0.000151566
0.000134664
0.000130561
0.000161268
0.00025915
0.000472976
0.000884659
0.00161737
0.00265809
0.0196481
-0.000164831
-0.000112796
-6.29296e-05
-1.89414e-05
1.47967e-05
3.59858e-05
4.34432e-05
3.71681e-05
1.92192e-05
-5.36179e-06
-2.7346e-05
-3.15675e-05
5.28222e-06
0.000117455
0.00035648
0.00080747
0.00158642
0.00263386
0.0726206
-0.000132775
-0.000106728
-8.13715e-05
-6.01728e-05
-4.72857e-05
-4.49151e-05
-5.4233e-05
-7.52767e-05
-0.00010609
-0.000141819
-0.000173481
-0.000186265
-0.000157526
-5.45935e-05
0.000169371
0.000586382
0.00129005
0.0022293
0.0739852
-0.000104232
-9.97348e-05
-9.45191e-05
-9.19672e-05
-9.61612e-05
-0.000109387
-0.000133006
-0.000167336
-0.000210862
-0.000259383
-0.000304808
-0.000333559
-0.000324729
-0.000248409
-6.3867e-05
0.000286397
0.000883436
0.00174462
0.0753553
-8.01289e-05
-9.30278e-05
-0.000103788
-0.000115873
-0.00013343
-0.000158971
-0.000194208
-0.000239959
-0.000295457
-0.000357566
-0.000419612
-0.000469802
-0.000489343
-0.000450866
-0.000318377
-4.5422e-05
0.000446403
0.00124965
0.076792
-6.1686e-05
-8.78632e-05
-0.000110451
-0.000133151
-0.000160278
-0.000194657
-0.000238466
-0.000293187
-0.00035907
-0.000434407
-0.000514385
-0.000589393
-0.000642754
-0.000648575
-0.000572361
-0.000373932
2.67195e-05
0.000785924
0.0700389
-5.01295e-05
-8.52638e-05
-0.000115431
-0.00014466
-0.000177462
-0.000216982
-0.000265904
-0.000326481
-0.000400179
-0.000487058
-0.000584644
-0.000686025
-0.000776684
-0.000830547
-0.000808805
-0.000671235
-0.000328686
0.000437023
0.0496177
-4.61653e-05
-8.56677e-05
-0.000119105
-0.000150797
-0.000185368
-0.000226198
-0.000276419
-0.000339072
-0.000416971
-0.000512269
-0.000625512
-0.000753564
-0.000884891
-0.000992085
-0.00102343
-0.000933807
-0.000630412
0.000170522
0.0441714
-4.95046e-05
-8.86788e-05
-0.000121224
-0.000151542
-0.000184152
-0.000222482
-0.000269942
-0.000330258
-0.000407606
-0.000506542
-0.000631551
-0.00078507
-0.000961189
-0.00113236
-0.0012185
-0.00116823
-0.000934504
-0.00015413
0.0449981
-5.87731e-05
-9.31454e-05
-0.000121023
-0.000146541
-0.000173772
-0.000205923
-0.000246392
-0.000299297
-0.000369949
-0.000465357
-0.000594624
-0.000768006
-0.000992274
-0.00124984
-0.00138469
-0.00138952
-0.00128394
-0.000605355
0.0455049
-7.20948e-05
-9.75877e-05
-0.000117449
-0.000135132
-0.000153857
-0.000176246
-0.000205269
-0.000244871
-0.000300789
-0.000381654
-0.000500618
-0.000679885
-0.000963393
-0.00138371
-0.00160979
-0.00161772
-0.0016933
-0.00119416
0.0382147
-8.73068e-05
-0.000100403
-0.000109783
-0.000117338
-0.000125056
-0.000134622
-0.000148086
-0.000168444
-0.000200669
-0.000253345
-0.000341957
-0.000510122
-0.000911764
-0.00177595
-0.00222062
-0.00184536
-0.00221525
-0.00211206
0.0251605
-9.42535e-05
-9.82417e-05
-9.96989e-05
-9.91953e-05
-9.74197e-05
-9.50556e-05
-9.30984e-05
-9.33164e-05
-9.95593e-05
-0.000120978
-0.000178816
-0.000340895
-0.000933756
-0.00302632
-0.00318129
-0.00233545
-0.00237977
-0.00267243
0.00402106
)
;

boundaryField
{
    leftWall
    {
        type            fixedFluxPressure;
        gradient        uniform 0;
        value           nonuniform List<scalar> 
50
(
760.633
760.713
760.752
760.747
760.694
760.586
760.418
760.193
759.815
739.796
270.313
2.78587
2.49769
2.4322
4.61361
1.74375
0.0217436
0.0177251
0.0135818
0.00988948
0.00731947
0.00571077
0.00479222
0.00419595
0.00360821
0.00288579
0.0020485
0.00114781
0.000237922
-0.000592224
-0.00127637
-0.0017653
-0.00203497
-0.00210707
-0.00204601
-0.00191002
-0.00173539
-0.00155286
-0.00137774
-0.00121068
-0.00105482
-0.000912346
-0.000778454
-0.000645293
-0.000506902
-0.00036636
-0.000243126
-0.0001739
-6.50868e-05
0.000761305
)
;
    }
    rightWall
    {
        type            fixedFluxPressure;
        gradient        uniform 0;
        value           nonuniform List<scalar> 
50
(
743.745
744.804
745.397
745.292
745.018
732.644
714.358
713.274
746.193
735.423
327.618
1.79641
1.76277
1.64386
1.25212
0.300706
0.0437476
0.0403248
0.037371
0.0629613
0.121623
0.119594
0.0554372
0.0455573
0.0850798
0.0862812
0.0225307
0.00320597
0.020302
0.0634028
0.0651122
0.0668526
0.0687616
0.0705997
0.0470834
0.0023157
0.00331102
0.0196481
0.0726206
0.0739852
0.0753553
0.076792
0.0700389
0.0496177
0.0441714
0.0449981
0.0455049
0.0382147
0.0251605
0.00402106
)
;
    }
    lowerWall
    {
        type            fixedFluxPressure;
        gradient        uniform 0;
        value           nonuniform List<scalar> 
62
(
760.633
760.385
760.356
760.601
761.118
761.909
762.968
764.276
765.809
767.539
769.417
771.393
773.405
775.383
777.244
778.88
780.222
780.957
781.033
782.832
784.71
785.805
786.212
786.212
786.345
787.034
787.288
787.645
788.16
788.202
790.184
777.324
775.466
773.816
771.105
754.169
753.735
754.196
753.384
752.424
751.423
749.757
747.67
754.169
756.433
756.862
756.352
755.212
753.852
752.696
751.935
750.855
750.118
749.124
746.612
745.34
745.355
745.97
744.431
742.766
742.675
743.745
)
;
    }
    atmosphere
    {
        type            totalPressure;
        rho             rho;
        psi             none;
        gamma           1;
        p0              uniform 0;
        value           nonuniform List<scalar> 
46
(
-0.000111607
-3.76123e-05
0
0
0
0
0
0
0
0
0
0
0
0
0
0
-6.57743e-07
-4.01406e-06
-1.20367e-05
-2.3577e-05
-3.67414e-05
-5.00222e-05
-6.23832e-05
-7.02141e-05
-7.48289e-05
-7.8942e-05
-8.25383e-05
-8.77324e-05
-9.2189e-05
-9.38155e-05
-9.26968e-05
-8.90212e-05
-8.30504e-05
-7.51021e-05
-6.55457e-05
-5.48158e-05
-4.34351e-05
-3.20104e-05
-2.1122e-05
-1.10696e-05
-2.48059e-06
0
0
0
0
0
)
;
    }
    defaultFaces
    {
        type            empty;
    }
}


// ************************************************************************* //
