/*--------------------------------*- C++ -*----------------------------------*\
  =========                 |
  \\      /  F ield         | OpenFOAM: The Open Source CFD Toolbox
   \\    /   O peration     | Website:  https://openfoam.org
    \\  /    A nd           | Version:  9
     \\/     M anipulation  |
\*---------------------------------------------------------------------------*/
FoamFile
{
    format      ascii;
    class       volScalarField;
    location    "20.85";
    object      p;
}
// * * * * * * * * * * * * * * * * * * * * * * * * * * * * * * * * * * * * * //

dimensions      [0 2 -2 0 0 0 0];

internalField   nonuniform List<scalar> 
918
(
23.4683
23.5799
0.960581
22.8857
1.01046
23.0964
3.28042
13.7866
19.2415
2.93449
2.62431
14.4076
20.6394
16.8808
12.9973
0.924122
14.052
2.2542
18.4591
1.39967
12.9956
20.447
21.5357
19.2832
14.1206
14.3758
18.6017
1.1522
0.10972
0.259252
0.976581
0.408839
0.148255
21.6333
22.3099
22.2483
15.4941
10.4074
3.60402
3.80792
2.99069
2.81459
13.829
13.9288
5.87015
13.7657
13.7616
16.643
19.1095
19.2531
19.5464
19.3354
19.7217
5.97756
2.78707
2.60797
2.87558
2.94893
2.9793
2.69692
2.67812
2.48257
2.3366
13.887
14.4806
14.5358
14.267
14.2147
22.456
21.699
22.0338
21.1401
21.2855
20.2155
19.8299
17.2564
17.6089
16.4827
16.1018
12.7877
12.7488
13.2172
13.4669
0.146152
1.07383
1.22179
14.0589
14.0953
14.0957
14.1102
8.2943
2.19603
2.19939
17.8995
17.476
20.4809
20.7481
20.1951
20.0096
1.53247
1.52765
1.15498
1.18376
0.952523
13.3365
13.4904
19.2346
18.4016
14.154
14.0541
14.129
11.4994
13.9095
13.9829
15.3255
15.781
14.9702
15.4067
18.1717
17.7537
19.0382
19.4755
0.395365
0.15591
0.686869
0.317823
0.516159
15.3625
15.157
15.61
15.6608
15.892
10.4119
10.3419
10.3866
10.3067
4.15438
4.46878
2.26359
2.57885
2.42989
9.87454
13.945
13.9915
4.81517
5.51877
5.18267
6.35202
6.72614
16.0087
16.4453
16.1841
17.7304
16.9353
17.2834
19.8125
19.3017
19.6022
6.37378
6.60949
5.61154
5.25242
2.24497
2.49181
2.43479
2.98023
2.95799
3.21427
3.34407
2.6952
2.55231
2.89158
2.77548
2.82706
2.16661
2.03675
13.6111
13.3972
14.1501
14.3286
15.0957
14.9474
14.654
14.8228
19.025
19.4284
19.4619
19.0777
11.5489
10.1581
13.7214
13.9968
0.302311
0.265598
0.137939
0.380455
0.40011
0.141549
2.01317
1.82475
1.40391
1.67946
14.0563
14.016
8.53511
8.7548
8.13085
7.87396
16.3136
16.4639
17.098
16.6978
1.96376
1.67781
1.80739
13.6529
13.5257
13.6324
10.9346
10.3682
11.9771
12.2468
13.9912
14.0349
14.0309
15.6851
16.0036
19.8263
20.097
19.9239
20.3096
21.3725
21.0237
20.6389
14.5383
14.9467
14.7851
16.1273
15.7609
15.9804
15.1883
15.493
15.3509
10.3734
10.4194
10.1265
10.2041
10.2517
10.1991
9.81226
9.68551
14.0777
14.033
14.0569
7.25372
7.75158
4.87111
4.54174
12.543
13.2163
12.8918
18.6547
17.9771
18.71
18.3392
17.8892
18.2127
10.43
10.3912
10.4247
14.9211
14.259
14.6109
2.4369
2.07309
2.23585
8.95096
9.04374
6.97885
7.59736
7.25962
16.3052
16.6456
17.3257
16.4375
16.9051
17.4124
17.1905
9.94752
10.0796
9.99671
9.66981
9.56354
9.7352
8.33639
8.94946
3.61077
4.26908
3.96413
9.21165
9.44097
9.28832
18.6293
19.1641
0.768625
1.15847
19.5941
19.3178
0.140628
0.241799
14.2574
12.5548
7.2643
17.1965
16.6291
18.9689
3.19195
6.10528
2.80655
3.37983
2.68586
14.6147
14.2488
13.34
0.455021
1.25693
1.70849
2.90321
18.4097
17.7345
18.8506
19.1707
19.2251
0.6888
0.915523
0.584622
1.24328
1.03211
1.2761
15.5502
15.6482
4.32918
18.8576
19.1619
19.1796
17.6564
18.6091
17.6666
0.935768
0.642433
0.708241
10.0806
12.1212
14.2176
13.7702
13.9672
13.9894
13.7403
14.8735
14.5431
14.508
14.9928
13.9673
13.8227
7.73502
6.38512
8.06985
7.71007
17.0978
16.6857
16.4926
16.2383
18.0841
17.6101
18.4605
17.8489
18.3107
18.5976
2.9407
3.13107
3.01276
2.52299
6.14523
6.61261
5.48971
5.63709
4.25969
2.42663
2.52532
2.75103
2.58261
2.93021
2.67839
2.94209
2.57757
2.32341
2.31991
2.92897
2.73695
2.60234
14.593
14.5315
14.3324
14.3704
14.353
14.4687
13.5344
13.9391
13.5668
12.3982
12.9792
12.5064
0.826186
0.660817
0.525746
1.32472
1.35175
1.11109
0.836029
1.17544
1.20214
0.816036
1.54403
1.44596
3.16009
2.65051
8.85111
7.9793
6.90088
16.7997
17.6015
16.7712
18.0119
18.4288
18.5342
18.1546
17.6465
15.7289
15.724
15.3842
15.3376
4.77299
3.73767
4.97003
4.53935
10.482
14.065
11.8422
10.8036
11.0997
13.4233
13.933
13.585
13.7223
13.297
12.8253
13.5174
13.051
13.1523
12.9311
15.7218
16.197
15.8034
15.224
15.2439
10.602
12.0162
5.46823
5.64164
7.24378
6.53872
13.5127
13.9335
13.9181
13.5577
13.7459
13.7459
13.6067
13.7807
13.8612
13.7555
11.8237
10.1437
9.04543
9.03906
14.0768
12.3458
12.9304
12.4127
16.1196
16.6361
16.2508
15.6453
16.1303
15.6021
15.6293
15.8425
17.2007
16.9503
16.72
17.1069
3.05263
3.00098
3.64446
3.13564
3.03729
2.82341
3.48324
4.75674
4.41447
6.72017
7.26911
4.57796
3.37232
3.79091
4.80459
5.54072
5.51303
3.96914
4.502
4.92874
4.44048
5.22748
4.73119
2.71749
3.022
2.8604
2.83472
3.38123
3.87963
3.37498
2.479
2.58988
2.25557
2.11852
3.53288
2.99143
3.02785
3.67604
1.10594
1.3287
1.44153
2.41294
1.91141
1.9774
15.1817
14.8257
14.9594
14.2386
14.3061
14.2472
13.8716
15.2392
14.9612
15.0606
13.7092
13.7959
13.6092
13.9045
14.3203
14.6196
15.4515
15.1726
14.4117
14.5627
14.2136
14.1419
13.464
12.9009
12.8404
1.11254
0.8224
0.983778
0.912551
0.608511
0.800849
2.18266
1.57199
1.96913
1.72699
1.95964
1.40455
1.30198
4.25229
5.05847
3.96757
3.36855
3.07034
8.90837
9.02032
8.16865
7.86361
8.20556
8.43697
8.38703
7.14168
7.57136
7.3836
9.92327
9.58926
17.5859
17.53
17.2012
17.0423
17.2687
5.76
7.66379
6.79904
7.91628
10.2107
10.5074
9.3125
8.70814
9.46139
9.53782
14.0467
14.1229
13.5636
14.0495
14.0779
11.8343
12.8817
13.4963
13.3107
13.8308
13.9118
12.9731
13.5616
13.4765
12.759
12.8121
12.1272
12.4656
11.9936
11.7928
14.0552
13.95
14.2197
13.7705
14.1498
13.7142
14.0294
14.0275
14.3081
13.4099
12.8314
12.8499
13.2761
12.976
13.322
13.486
9.30806
9.94989
10.3904
10.9264
10.6344
10.4156
10.2829
10.5845
10.5618
10.8325
10.752
10.6024
11.561
13.4196
13.7044
13.8063
13.6017
13.6479
13.3405
13.6139
13.5428
13.9198
14.008
14.0575
13.1383
13.2951
13.4906
13.3739
11.6749
10.0947
9.94786
9.5079
7.57636
8.04654
11.0239
9.90163
8.91752
8.98912
12.168
10.8054
11.6185
12.0416
10.6932
10.3054
12.9707
13.7592
13.979
13.7028
12.0593
12.1852
12.635
13.0787
13.2682
13.7245
15.8595
16.4351
16.513
16.2371
16.0991
16.1989
15.949
16.0521
16.5261
16.6527
16.484
2.87805
2.99106
2.92129
2.84701
3.08315
2.8583
3.95159
3.94151
3.15347
3.33408
3.3538
3.46055
2.92796
2.97131
4.82419
5.06004
5.33222
4.83123
6.17385
6.82134
7.40392
7.08585
5.78822
5.86962
6.18656
3.50418
3.53236
3.25038
3.70639
3.7596
2.60981
2.23774
2.04236
2.56045
2.66362
2.04902
1.76842
1.81743
2.33027
2.05085
1.80523
14.9742
14.7326
14.7539
14.5337
14.5883
14.9831
15.204
15.014
15.1524
15.2034
14.8026
14.6915
14.8626
1.81816
1.4918
1.6228
1.58032
1.64134
1.54848
1.73567
7.60867
6.41412
6.80122
5.97827
4.1209
4.64114
9.54508
9.96747
10.0057
9.71874
9.50773
9.87315
9.72424
9.71759
8.26574
9.3384
8.87146
9.27107
9.29134
9.35998
9.07181
9.0802
10.5845
10.6177
9.48239
10.1231
9.33069
7.93146
8.0986
9.11204
10.0857
10.409
10.2531
9.98165
9.75322
10.1188
10.1736
10.2341
10.2238
8.75215
8.71051
8.31033
13.9684
13.8751
14.0217
14.0267
14.1538
13.9781
13.8151
14.0924
14.1467
13.9309
11.0805
11.1397
11.3854
12.1329
12.1848
12.0934
11.3381
13.1033
12.7582
13.3971
13.3434
13.4149
13.0044
12.828
13.099
10.08
11.4526
10.9851
11.249
10.0627
9.30671
13.2233
13.2773
13.3432
13.6164
13.5738
14.1576
15.8294
15.6993
15.7466
15.7897
15.4013
15.4386
4.1734
3.82661
4.54615
4.5033
4.06186
3.76239
2.28708
1.969
1.78181
1.6558
1.88874
1.94885
8.16098
8.19066
6.33213
7.35599
5.87623
4.93585
4.79229
5.9534
7.13503
7.19535
8.5174
9.19736
8.75511
8.58144
7.92323
8.25454
10.1228
10.2164
10.1173
10.4359
9.96864
11.7154
11.2977
11.6467
13.2612
12.97
12.3718
12.2586
12.2236
12.8171
11.9468
11.1779
11.8909
12.5475
12.5056
11.1209
10.876
11.3025
11.2857
10.1996
10.7206
10.4826
10.8346
10.5491
)
;

boundaryField
{
    wall-4
    {
        type            zeroGradient;
    }
    velocity-inlet-5
    {
        type            zeroGradient;
    }
    velocity-inlet-6
    {
        type            zeroGradient;
    }
    pressure-outlet-7
    {
        type            fixedValue;
        value           uniform 0;
    }
    wall-8
    {
        type            zeroGradient;
    }
    frontAndBackPlanes
    {
        type            empty;
    }
}


// ************************************************************************* //
