/*--------------------------------*- C++ -*----------------------------------*\
  =========                 |
  \\      /  F ield         | OpenFOAM: The Open Source CFD Toolbox
   \\    /   O peration     | Website:  https://openfoam.org
    \\  /    A nd           | Version:  9
     \\/     M anipulation  |
\*---------------------------------------------------------------------------*/
FoamFile
{
    format      ascii;
    class       volScalarField::Internal;
    location    "245";
    object      tmp<kEpsilon:G>;
}
// * * * * * * * * * * * * * * * * * * * * * * * * * * * * * * * * * * * * * //

dimensions      [0 2 -3 0 0 0 0];

value           nonuniform List<scalar> 
12225
(
0
0
0
0
0
0
0
0
0
0
0
0
0
0
0
0
0
0
947.462
499.33
262.327
277.592
379.751
495.303
604.983
715.172
802.527
888.464
950.132
1008.76
1048.7
1085.22
1113.05
1130.75
1168.93
1136.13
85.4718
123.103
55.5164
17.2363
5.18619
4.39827
8.79959
16.6834
26.6105
38.374
50.8926
64.0681
77.5181
90.404
104.009
115.43
129.733
136.405
5.03691
1.74491
0.640971
0.702293
0.465328
0.185362
0.0270311
0.189231
0.790691
1.88042
3.44382
5.41628
7.82748
10.4066
13.458
16.3355
19.8248
22.6555
0.224416
0.131561
0.147781
0.313887
0.42579
0.406079
0.288811
0.15289
0.0565108
0.0248554
0.0744237
0.21261
0.448277
0.764611
1.18739
1.65452
2.22626
2.78459
0.177125
0.188641
0.264672
0.320124
0.322504
0.317294
0.289438
0.23836
0.181612
0.126437
0.0794747
0.0449095
0.02737
0.0289023
0.0514121
0.0934983
0.152677
0.224982
0.12657
0.211557
0.23088
0.212795
0.211963
0.230318
0.238226
0.227043
0.207604
0.183838
0.158288
0.131652
0.10713
0.0858631
0.0695278
0.0595084
0.0556083
0.0566601
0.0974204
0.148836
0.159579
0.156956
0.167382
0.187858
0.200257
0.200049
0.194619
0.186775
0.177172
0.165571
0.15376
0.142327
0.132757
0.125832
0.123142
0.121837
0.0740682
0.104528
0.121981
0.130277
0.141824
0.157677
0.168938
0.172478
0.172595
0.171576
0.169585
0.166549
0.163212
0.160227
0.158503
0.158518
0.161601
0.164959
0.056115
0.0774418
0.0971528
0.108705
0.119346
0.132319
0.142842
0.148219
0.150822
0.152646
0.154031
0.154908
0.155835
0.157222
0.159758
0.163486
0.16945
0.175034
0.0423737
0.0583452
0.0770251
0.089706
0.100199
0.111657
0.121492
0.127617
0.131354
0.134338
0.137073
0.139584
0.142253
0.145385
0.149427
0.154261
0.160515
0.166139
0.0324498
0.0451222
0.0621139
0.0752447
0.0857334
0.0961645
0.105279
0.111568
0.115772
0.119176
0.122334
0.125343
0.128473
0.131953
0.136058
0.140619
0.14602
0.150648
0.0245661
0.034751
0.049959
0.0631505
0.0736609
0.0833918
0.0919229
0.0982179
0.10266
0.106223
0.109449
0.112493
0.115549
0.118785
0.122361
0.126115
0.130281
0.133678
0.017591
0.0257315
0.0389747
0.0516487
0.0620495
0.0712396
0.079239
0.08544
0.0900048
0.0936103
0.0967413
0.0995935
0.10231
0.105007
0.107772
0.110472
0.113268
0.115354
0.0116715
0.0182511
0.0296335
0.0414197
0.0514852
0.0601799
0.067676
0.0736743
0.078226
0.0817679
0.0846988
0.0872253
0.0894654
0.0915004
0.0933862
0.0950316
0.0965783
0.0975163
0.00690611
0.0123092
0.022046
0.0327697
0.042315
0.0505267
0.0575442
0.0632437
0.0676407
0.0710098
0.0736596
0.0757869
0.0775043
0.0788814
0.0799708
0.0807319
0.0812958
0.0813903
0.00337948
0.0079344
0.0163465
0.0260283
0.0349552
0.0426756
0.049226
0.0545548
0.0586742
0.0617665
0.06407
0.0657666
0.0669727
0.0677653
0.0682068
0.0683047
0.06817
0.0677165
0.00120334
0.00521003
0.0126997
0.0215336
0.0298387
0.0370337
0.0430839
0.0479631
0.0516877
0.0543982
0.0562943
0.057548
0.0582822
0.0585867
0.0585351
0.0581721
0.0575772
0.0568007
0.000670796
0.00446675
0.0115976
0.0200319
0.0279125
0.0346423
0.0402018
0.0445854
0.0478148
0.0500302
0.0514357
0.0522113
0.0524884
0.0523671
0.0519293
0.0512462
0.0503555
0.0494182
0.00203933
0.00607927
0.013667
0.0223722
0.0301324
0.0365319
0.0417171
0.0456792
0.0484129
0.0500955
0.050985
0.0512871
0.0511378
0.0506415
0.0498826
0.0489414
0.0478281
0.0467431
0.00472032
0.00942119
0.0181352
0.0274766
0.0351099
0.0411172
0.0459462
0.0495231
0.051782
0.0529692
0.0534113
0.0533212
0.052823
0.0520247
0.051017
0.049886
0.0486223
0.0474354
0.00870614
0.0148666
0.0252687
0.0351769
0.0426582
0.0483859
0.0528433
0.0557985
0.0573008
0.0578381
0.0578084
0.0573609
0.0565624
0.0555153
0.0543092
0.0530286
0.0516414
0.0503673
0.013971
0.0239391
0.0362068
0.0443867
0.0507861
0.057082
0.0621835
0.0647907
0.0653161
0.0649195
0.0641743
0.0631473
0.0618457
0.0603802
0.0588232
0.057249
0.0555904
0.0540412
0.0214532
0.042395
0.0593632
0.0605001
0.0597317
0.0637437
0.0696541
0.0734595
0.0746915
0.0746704
0.0739072
0.0724021
0.0702345
0.0676799
0.0648736
0.0619744
0.0589135
0.056009
0.0433317
0.0760697
0.0937643
0.104795
0.0972629
0.090251
0.0877047
0.0864151
0.0849361
0.0831337
0.0802383
0.0758011
0.0699899
0.0634435
0.0565734
0.0498648
0.0434811
0.0378727
0.080523
0.213167
0.0681044
0.0787401
0.167458
0.214878
0.214248
0.189449
0.158344
0.127757
0.0986576
0.07233
0.0504396
0.0347021
0.0261863
0.0256726
0.0332683
0.0488653
0.660012
0.12489
0.315946
0.505859
0.373326
0.295687
0.229536
0.141677
0.060551
0.0116318
0.0105705
0.0681491
0.189113
0.374817
0.620327
0.923712
1.27104
1.66031
31.8776
71.0684
43.248
18.2733
7.0691
2.67251
1.11425
1.00761
1.81673
3.28525
5.25784
7.6347
10.2759
13.1574
16.1295
19.2252
22.2423
25.2878
455.413
257.652
100.986
70.5602
91.6349
128.076
168.027
205.866
241.265
273.943
303.052
329.729
353.048
374.462
393.006
410.481
425.877
440.951
0
0
0
0
0
0
0
0
0
0
0
0
0
0
0
0
0
0
0
0
0
0
0
0
0
0
0
0
0
0
0
0
0
0
0
0
0
0
0
0
0
0
0
0
0
0
0
0
0
8.80909
9.57705
10.2565
10.8704
11.415
11.8516
0
0
0
14.6949
15.9713
17.2615
18.804
20.349
22.025
23.7677
25.6066
27.5256
29.5336
31.6263
33.8074
36.0761
38.4341
40.8817
43.4201
46.0494
48.7705
51.5831
54.4878
57.4836
60.5708
63.7477
67.0138
70.367
73.8061
77.3281
80.9311
84.6112
88.3658
92.1901
96.0807
100.032
104.04
108.097
112.199
116.339
120.509
124.703
128.914
133.131
137.348
141.556
145.745
149.904
154.026
158.098
162.111
166.051
169.907
173.665
177.31
180.827
184.199
187.409
190.446
193.303
195.987
198.499
200.842
203.007
204.991
206.785
208.384
209.781
210.97
211.948
212.708
213.247
213.561
213.648
213.506
213.134
212.529
211.693
210.626
209.328
207.802
206.05
204.076
201.882
199.473
196.853
194.027
191
187.776
184.354
180.752
177.017
173.139
169.045
164.797
160.406
155.891
151.243
146.489
141.624
136.661
131.606
126.471
121.264
115.996
110.674
105.302
99.8886
94.4408
88.9658
83.47
77.9602
72.4426
66.9233
61.408
55.9026
50.4125
44.9433
39.5005
34.09
28.7183
23.3936
18.1291
12.952
7.94709
3.63265
3.97193
8.37535
13.2984
18.3312
23.4032
28.491
33.5808
38.6612
43.7189
48.7379
53.694
58.556
63.2522
67.7267
71.5117
75.0262
71.7739
0
0.00262766
0.0115348
0.0320969
0.0782184
0.153558
0.256486
0.381383
0.521617
0.671571
0.828245
0.991119
1.16087
1.33867
1.52567
1.72281
1.93077
2.15016
2.38166
2.62647
2.88657
3.16428
3.46143
3.7787
4.11668
4.47063
4.84012
5.22361
5.57785
5.92491
6.31171
6.54638
6.61766
6.53866
5.98699
5.26303
4.38594
4.52291
4.96777
4.44622
5.43087
5.28627
5.09496
4.99022
4.8959
4.77888
4.65367
4.52117
4.38315
4.24081
4.0957
3.94891
3.80146
3.65422
3.50795
3.36336
3.22114
3.082
2.94667
2.81594
2.69062
2.57159
2.45982
2.3563
2.2621
2.17834
2.10618
2.04682
2.0015
1.9715
1.95808
1.96252
1.98611
2.0301
2.0957
2.18408
2.29634
2.4335
2.5965
2.78622
3.00337
3.24854
3.52218
3.82458
4.15575
4.51545
4.90311
5.31779
5.75808
6.22189
6.70609
7.20601
7.71491
8.22424
8.72545
9.21186
9.67291
10.0968
10.5255
10.9527
11.3889
11.8347
12.2911
12.7574
13.2331
13.7172
14.2089
14.7072
15.2109
15.719
16.2304
16.7439
17.2583
17.7725
18.2853
18.7957
19.3026
19.8048
20.3015
20.7917
21.2747
21.7498
22.2164
22.6738
23.1217
23.5596
23.987
24.4031
24.8065
25.2018
25.5883
25.9593
26.3205
26.6712
27.0101
27.3402
27.6615
27.9736
28.277
28.5719
28.8596
29.141
29.418
29.6914
29.962
30.2304
30.4977
30.7645
31.032
31.3008
31.5719
31.8462
32.1246
32.408
32.6973
32.9932
33.2962
33.6056
33.9228
34.2499
34.5871
34.9407
35.3297
35.7365
36.1046
36.4256
36.7221
36.9917
37.2282
37.4255
37.5783
37.6824
37.7341
37.7352
37.6849
37.6448
37.5989
38.4477
39.8707
50.251
0
0.0506572
0.141781
0.216181
0.294622
0.391875
0.519354
0.678792
0.864242
1.067
1.2796
1.4975
1.71892
1.94403
2.17387
2.40966
2.65235
2.90243
3.15995
3.42454
3.69544
3.97104
4.24809
4.52135
4.78233
5.02759
5.25685
5.45965
5.62962
5.77229
5.89035
5.9432
5.87652
5.69616
5.4824
5.26375
5.10369
5.11979
5.21542
5.09194
5.12887
5.13078
5.10579
5.13366
5.22713
5.35691
5.51717
5.70399
5.91473
6.14702
6.39918
6.66985
6.95799
7.26274
7.58338
7.91927
8.26984
8.63456
9.01291
9.40444
9.80868
10.2252
10.6535
11.0933
11.5442
12.0058
12.4778
12.9599
13.4517
13.9531
14.4637
14.9834
15.512
16.0492
16.5952
17.1496
17.7124
18.2834
18.8626
19.4497
20.0447
20.6474
21.2575
21.8748
22.4989
23.1292
23.7649
24.405
25.0485
25.695
26.3443
26.9974
27.6566
28.3279
29.0217
29.7528
30.5391
31.4004
32.277
33.1691
34.0705
34.9788
35.8923
36.8092
37.7276
38.6454
39.5605
40.4706
41.3735
42.2666
43.1477
44.0144
44.8642
45.6949
46.504
47.2897
48.05
48.7829
49.4864
50.1589
50.7991
51.4061
51.9789
52.5169
53.019
53.4845
53.9127
54.3033
54.657
54.9769
55.2658
55.5135
55.7233
55.8989
56.0425
56.1548
56.2375
56.2908
56.3156
56.3126
56.2839
56.2321
56.1597
56.069
55.9612
55.8377
55.6998
55.5489
55.3863
55.2134
55.031
54.8405
54.6424
54.4378
54.2263
54.0071
53.7809
53.5485
53.3092
53.0654
52.8176
52.552
52.2418
51.8821
51.5064
51.1172
50.7015
50.2565
49.7782
49.262
48.7037
48.1006
47.453
46.7695
46.067
45.4417
44.9921
45.6655
47.8934
55.8491
0
0.189156
0.383423
0.524036
0.629935
0.730062
0.849315
0.998539
1.17855
1.38441
1.60899
1.84568
2.08971
2.33832
2.59016
2.84463
3.1012
3.35903
3.61667
3.87193
4.12189
4.36273
4.58963
4.79716
4.97994
5.13407
5.2587
5.35512
5.4269
5.48395
5.53295
5.55629
5.53856
5.47513
5.38637
5.32133
5.32843
5.53638
5.81847
6.0814
6.4535
6.79336
7.1027
7.41682
7.75194
8.10901
8.48927
8.89282
9.31923
9.76761
10.237
10.7265
11.235
11.762
12.3066
12.8682
13.4464
14.0405
14.6501
15.2749
15.9146
16.5688
17.2373
17.92
18.6167
19.3275
20.0522
20.791
21.5438
22.3109
23.0924
23.8886
24.6995
25.5257
26.3672
27.2246
28.0979
28.9876
29.8939
30.817
31.7571
32.7144
33.689
34.681
35.6904
36.7171
37.761
38.8219
39.9002
40.9962
42.1117
43.2492
44.4128
45.6085
46.8432
48.1187
49.4279
50.76
52.1058
53.4664
54.8374
56.2146
57.5946
58.9742
60.3499
61.7187
63.077
64.4215
65.7484
67.0543
68.3355
69.5885
70.8096
71.9953
73.1424
74.2477
75.3084
76.3215
77.2842
78.1941
79.0493
79.8485
80.5906
81.2742
81.8982
82.4609
82.9612
83.3993
83.7765
84.0994
84.3662
84.5686
84.7113
84.7956
84.8261
84.8046
84.7328
84.612
84.443
84.2273
83.9674
83.6674
83.3307
82.9606
82.5591
82.1285
81.6705
81.1873
80.6808
80.1529
79.6052
79.039
78.4541
77.8522
77.2338
76.5997
75.9474
75.2792
74.592
73.8817
73.1442
72.3742
71.5602
70.6835
69.7584
68.7963
67.7972
66.7641
65.6977
64.5973
63.464
62.299
61.1103
59.9201
58.7721
57.8105
57.2192
57.9926
60.5877
66.8826
0
0.37456
0.674543
0.89749
1.04085
1.14743
1.25596
1.3843
1.53921
1.72083
1.92518
2.1465
2.37914
2.61846
2.86096
3.10395
3.34511
3.58214
3.81244
4.03309
4.2409
4.43254
4.60488
4.75557
4.88409
4.99284
5.08688
5.1728
5.2583
5.35186
5.45827
5.57131
5.67903
5.77636
5.87494
6.0027
6.19189
6.47934
6.84478
7.24667
7.69958
8.16935
8.64318
9.1298
9.63562
10.1631
10.714
11.2894
11.8898
12.5152
13.1653
13.8397
14.538
15.2596
16.0044
16.7718
17.5618
18.3739
19.2082
20.0644
20.9427
21.843
22.7655
23.7103
24.6779
25.6684
26.6823
27.7201
28.7821
29.869
30.9812
32.1193
33.2839
34.4755
35.6948
36.9423
38.2184
39.5236
40.8583
42.2229
43.6175
45.0424
46.4976
47.9833
49.4995
51.0459
52.6227
54.2299
55.8677
57.5367
59.2382
60.9735
62.7445
64.5531
66.3992
68.2782
70.1792
72.0942
74.0213
75.9602
77.9066
79.8557
81.8027
83.7426
85.6709
87.5826
89.4729
91.3369
93.1695
94.9657
96.7205
98.429
100.086
101.687
103.228
104.703
106.11
107.443
108.7
109.877
110.972
111.983
112.907
113.745
114.493
115.151
115.715
116.187
116.572
116.874
117.09
117.211
117.249
117.2
117.071
116.865
116.583
116.228
115.801
115.305
114.744
114.123
113.447
112.719
111.945
111.125
110.265
109.365
108.431
107.461
106.461
105.432
104.375
103.292
102.184
101.05
99.89
98.7017
97.4822
96.2317
94.9501
93.6334
92.2725
90.8536
89.3806
87.8603
86.2975
84.6999
83.0727
81.4204
79.7483
78.0658
76.3924
74.768
73.265
72.0702
71.4215
72.2764
74.9017
79.7919
0
0.56187
0.948274
1.25661
1.44618
1.5672
1.66968
1.77691
1.90039
2.04486
2.21003
2.39243
2.58727
2.78967
2.99522
3.20014
3.40117
3.59541
3.78026
3.95335
4.11282
4.25747
4.38715
4.50314
4.60854
4.70835
4.80898
4.91735
5.04029
5.18368
5.35056
5.53885
5.74346
5.96158
6.19791
6.46553
6.78025
7.15636
7.5947
8.0842
8.62047
9.19129
9.78797
10.4095
11.0571
11.7319
12.4349
13.1672
13.9294
14.7219
15.5449
16.3986
17.283
18.1981
19.1439
20.1205
21.1279
22.1665
23.2365
24.3383
25.4724
26.6392
27.8395
29.074
30.3434
31.6487
32.9906
34.3702
35.7884
37.2462
38.7444
40.2841
41.8661
43.4914
45.1607
46.8747
48.6341
50.4394
52.2909
54.1889
56.1337
58.1251
60.163
62.2473
64.3775
66.5531
68.7737
71.0387
73.3475
75.7
78.0956
80.5339
83.0138
85.5332
88.088
90.6705
93.2713
95.8834
98.5046
101.132
103.762
106.387
109.003
111.601
114.176
116.722
119.231
121.697
124.114
126.475
128.772
131.001
133.154
135.225
137.207
139.097
140.887
142.574
144.151
145.617
146.966
148.198
149.309
150.298
151.163
151.901
152.512
152.995
153.36
153.603
153.724
153.722
153.605
153.371
153.025
152.57
152.011
151.35
150.59
149.736
148.793
147.768
146.666
145.494
144.256
142.955
141.597
140.185
138.723
137.215
135.665
134.075
132.448
130.785
129.085
127.348
125.574
123.766
121.923
120.048
118.14
116.196
114.211
112.178
110.096
107.97
105.805
103.611
101.397
99.1736
96.9522
94.7515
92.6015
90.56
88.7231
87.3033
86.5552
87.3391
89.6621
93.3083
0
0.726887
1.16494
1.54334
1.77741
1.91678
2.01783
2.10728
2.20007
2.30453
2.42373
2.55689
2.70106
2.8524
3.00698
3.16123
3.31215
3.45732
3.595
3.72409
3.84436
3.95651
4.0624
4.16506
4.26875
4.37874
4.50085
4.64092
4.80422
4.9949
5.21532
5.46537
5.74323
6.04763
6.38055
6.74796
7.15794
7.6182
8.13251
8.69914
9.31487
9.97408
10.6716
11.4049
12.1732
12.9767
13.8158
14.6912
15.6036
16.5535
17.5415
18.5682
19.6342
20.7399
21.886
23.073
24.3019
25.5733
26.8883
28.2479
29.6532
31.1054
32.606
34.1563
35.7578
37.412
39.1204
40.8846
42.706
44.5862
46.5265
48.5284
50.593
52.7215
54.9149
57.1739
59.4992
61.8912
64.3502
66.8761
69.4687
72.1276
74.8521
77.6412
80.494
83.409
86.3847
89.4195
92.5114
95.6584
98.8581
102.108
105.403
108.74
112.111
115.508
118.922
122.344
125.77
129.195
132.614
136.019
139.401
142.753
146.067
149.333
152.545
155.692
158.768
161.762
164.668
167.476
170.179
172.769
175.238
177.579
179.786
181.853
183.773
185.543
187.157
188.613
189.909
191.043
192.011
192.813
193.446
193.917
194.224
194.371
194.353
194.18
193.855
193.378
192.753
191.985
191.079
190.039
188.871
187.58
186.173
184.659
183.044
181.336
179.542
177.667
175.717
173.699
171.616
169.475
167.278
165.029
162.73
160.383
157.99
155.555
153.078
150.564
148.014
145.43
142.813
140.162
137.475
134.751
131.991
129.197
126.376
123.539
120.699
117.869
115.07
112.327
109.682
107.206
105.013
103.322
102.374
102.911
104.667
107.181
0
0.855083
1.30217
1.72352
1.99012
2.14514
2.24618
2.32112
2.38689
2.4543
2.52909
2.61304
2.70541
2.80414
2.90668
3.01058
3.11381
3.215
3.3135
3.40941
3.50365
3.59797
3.69499
3.79807
3.91129
4.03919
4.18654
4.35797
4.55759
4.78871
5.05352
5.35285
5.6866
6.05473
6.45847
6.90087
7.38633
7.91949
8.50373
9.14012
9.82786
10.5648
11.3482
12.1766
13.0491
13.9656
14.9264
15.9322
16.9836
18.0817
19.2273
20.4217
21.6658
22.961
24.3086
25.7099
27.1665
28.6801
30.2524
31.8854
33.5811
35.3416
37.1691
39.0659
41.0343
43.0766
45.195
47.3918
49.6692
52.0291
54.4735
57.0041
59.6225
62.3298
65.1273
68.0156
70.9953
74.0664
77.2288
80.4821
83.8252
87.2571
90.7761
94.3803
98.0674
101.835
105.68
109.598
113.587
117.642
121.759
125.932
130.154
134.419
138.717
143.039
147.374
151.713
156.049
160.374
164.68
168.958
173.198
177.39
181.524
185.589
189.574
193.47
197.266
200.952
204.517
207.952
211.246
214.391
217.377
220.196
222.84
225.301
227.572
229.649
231.525
233.199
234.666
235.925
236.974
237.811
238.436
238.855
239.062
239.063
238.856
238.457
237.865
237.081
236.11
234.959
233.632
232.135
230.476
228.663
226.707
224.616
222.4
220.067
217.627
215.086
212.453
209.733
206.933
204.058
201.113
198.104
195.035
191.912
188.738
185.517
182.253
178.951
175.613
172.243
168.843
165.413
161.956
158.474
154.973
151.454
147.925
144.399
140.892
137.421
134.013
130.7
127.533
124.594
122.004
119.976
118.715
118.849
119.862
121.312
0
0.944283
1.35551
1.78786
2.06837
2.23122
2.33
2.39215
2.43516
2.47128
2.50812
2.54956
2.59693
2.65007
2.70815
2.77014
2.83532
2.90338
2.97464
3.04986
3.13047
3.21851
3.31657
3.42773
3.55541
3.70329
3.87502
4.07446
4.30496
4.56947
4.87023
5.2087
5.58578
6.00226
6.45938
6.95918
7.50456
8.09834
8.74348
9.44181
10.1941
11.0001
11.8595
12.7715
13.7364
14.7542
15.8259
16.9523
18.1346
19.3743
20.6729
22.0323
23.4545
24.9415
26.4956
28.1192
29.8147
31.585
33.4328
35.3611
37.3731
39.472
41.661
43.9433
46.3224
48.8012
51.383
54.0708
56.8673
59.7751
62.7965
65.9336
69.1881
72.5612
76.054
79.667
83.4001
87.2531
91.225
95.3144
99.5195
103.838
108.267
112.802
117.441
122.179
127.01
131.93
136.933
142.011
147.158
152.366
157.625
162.926
168.258
173.609
178.967
184.321
189.661
194.976
200.255
205.488
210.661
215.764
220.783
225.706
230.521
235.215
239.776
244.191
248.449
252.537
256.445
260.161
263.676
266.978
270.059
272.91
275.523
277.891
280.011
281.876
283.486
284.837
285.928
286.758
287.33
287.643
287.696
287.492
287.038
286.348
285.42
284.258
282.866
281.253
279.424
277.39
275.158
272.741
270.15
267.396
264.491
261.445
258.268
254.967
251.553
248.033
244.418
240.713
236.928
233.069
229.144
225.158
221.12
217.032
212.903
208.736
204.538
200.312
196.062
191.792
187.505
183.208
178.91
174.615
170.332
166.075
161.863
157.717
153.668
149.754
146.035
142.595
139.557
137.119
135.439
135.046
135.213
135.676
0
0.998169
1.33339
1.74572
2.02027
2.1801
2.27182
2.32114
2.34507
2.35632
2.36357
2.37222
2.38529
2.40436
2.43008
2.46264
2.50227
2.54933
2.60477
2.66983
2.74616
2.83573
2.94081
3.06397
3.20797
3.37575
3.57033
3.79473
4.05185
4.34439
4.67467
5.04456
5.45564
5.90935
6.40726
6.95133
7.54393
8.18773
8.88519
9.63847
10.4492
11.3186
12.247
13.2358
14.286
15.3988
16.5757
17.8184
19.1289
20.5095
21.9629
23.4918
25.0993
26.7886
28.5631
30.4264
32.3822
34.4345
36.5876
38.8456
41.213
43.6943
46.2939
49.0161
51.8653
54.8456
57.9609
61.215
64.6111
68.1523
71.8412
75.6799
79.6701
83.8127
88.1085
92.5572
97.1581
101.91
106.81
111.857
117.047
122.375
127.837
133.428
139.142
144.972
150.911
156.951
163.083
169.298
175.586
181.936
188.336
194.775
201.237
207.71
214.18
220.631
227.052
233.429
239.748
245.996
252.158
258.219
264.166
269.984
275.659
281.175
286.518
291.675
296.632
301.375
305.892
310.17
314.198
317.964
321.457
324.669
327.589
330.212
332.531
334.542
336.243
337.632
338.708
339.472
339.925
340.066
339.895
339.416
338.642
337.586
336.245
334.625
332.731
330.574
328.161
325.505
322.617
319.51
316.197
312.692
309.007
305.154
301.144
296.991
292.704
288.296
283.777
279.158
274.449
269.66
264.799
259.875
254.897
249.871
244.806
239.709
234.585
229.443
224.285
219.12
213.952
208.792
203.65
198.535
193.456
188.431
183.479
178.626
173.905
169.36
165.052
161.071
157.531
154.609
152.416
151.402
150.673
150.223
0
1.02399
1.25197
1.61853
1.86938
2.01499
2.09374
2.12876
2.13599
2.12803
2.11414
2.10047
2.09103
2.08818
2.09381
2.10919
2.13538
2.17343
2.22447
2.28968
2.37052
2.4686
2.58575
2.72401
2.88559
3.07287
3.28839
3.53476
3.81465
4.13061
4.48513
4.88048
5.31878
5.80204
6.33233
6.91182
7.54298
8.22843
8.97087
9.77293
10.6372
11.5659
12.5617
13.6265
14.7622
15.9712
17.2561
18.6198
20.0656
21.5973
23.2187
24.9342
26.748
28.6647
30.6892
32.8264
35.0816
37.4605
39.9686
42.6117
45.3957
48.3263
51.4093
54.6501
58.054
61.6261
65.3709
69.2926
73.3948
77.6809
82.1531
86.8134
91.663
96.7023
101.931
107.347
112.95
118.736
124.701
130.841
137.15
143.622
150.251
157.028
163.944
170.991
178.158
185.434
192.808
200.267
207.798
215.387
223.019
230.68
238.353
246.021
253.668
261.277
268.831
276.316
283.713
291.007
298.182
305.22
312.105
318.821
325.351
331.68
337.79
343.666
349.293
354.657
359.744
364.54
369.032
373.209
377.058
380.569
383.733
386.542
388.99
391.072
392.787
394.134
395.114
395.727
395.976
395.858
395.376
394.536
393.356
391.846
390.001
387.833
385.349
382.558
379.472
376.103
372.466
368.576
364.449
360.101
355.545
350.796
345.87
340.779
335.538
330.161
324.661
319.052
313.345
307.552
301.687
295.758
289.776
283.752
277.693
271.608
265.507
259.397
253.285
247.18
241.09
235.027
229.004
223.031
217.124
211.298
205.577
199.986
194.564
189.356
184.426
179.86
175.764
172.291
169.51
167.806
166.165
164.87
0
1.03088
1.13095
1.43369
1.64702
1.76854
1.82842
1.84708
1.83922
1.81679
1.78859
1.76145
1.73991
1.72727
1.7257
1.73671
1.76155
1.8013
1.85699
1.92974
2.02072
2.13122
2.26272
2.41685
2.59549
2.80072
3.03479
3.30017
3.59943
3.93519
4.31013
4.72692
5.1882
5.69659
6.25471
6.86533
7.53144
8.25625
9.04312
9.89517
10.8161
11.8095
12.8796
14.029
15.2615
16.5808
17.9907
19.4959
21.1016
22.8133
24.6367
26.5778
28.6424
30.8368
33.1673
35.6408
38.2644
41.0452
43.9906
47.108
50.4046
53.8875
57.5634
61.4389
65.5198
69.8119
74.3198
79.0479
83.9996
89.1777
94.584
100.219
106.084
112.177
118.496
125.038
131.799
138.775
145.957
153.341
160.917
168.676
176.609
184.705
192.951
201.335
209.843
218.462
227.177
235.971
244.828
253.732
262.664
271.607
280.541
289.446
298.303
307.092
315.796
324.394
332.868
341.199
349.368
357.357
365.148
372.721
380.059
387.145
393.961
400.49
406.715
412.622
418.196
423.422
428.288
432.78
436.886
440.595
443.898
446.787
449.255
451.3
452.92
454.114
454.886
455.239
455.171
454.688
453.787
452.482
450.794
448.723
446.27
443.45
440.27
436.743
432.882
428.702
424.221
419.457
414.426
409.147
403.635
397.909
391.985
385.88
379.611
373.193
366.643
359.977
353.209
346.354
339.426
332.438
325.403
318.33
311.231
304.117
296.997
289.882
282.781
275.703
268.661
261.666
254.734
247.878
241.115
234.464
227.948
221.597
215.448
209.549
203.964
198.774
194.074
189.993
186.561
184.125
181.576
179.501
0
1.02722
0.989768
1.21877
1.38566
1.47605
1.51255
1.51264
1.49007
1.45626
1.42014
1.38792
1.36404
1.35162
1.35275
1.36899
1.40134
1.45068
1.5178
1.60348
1.7086
1.83418
1.98145
2.15185
2.34712
2.56923
2.82045
3.10327
3.42035
3.77458
4.169
4.60681
5.09126
5.62572
6.21355
6.85831
7.56407
8.33509
9.17579
10.0913
11.0858
12.1639
13.3304
14.5907
15.9506
17.416
18.993
20.6881
22.5088
24.4625
26.5571
28.8003
31.1998
33.7637
36.5004
39.4185
42.5271
45.8352
49.3517
53.0854
57.0446
61.2373
65.6709
70.3523
75.2874
80.4815
85.9392
91.6638
97.6577
103.922
110.458
117.263
124.337
131.675
139.273
147.126
155.226
163.564
172.132
180.919
189.914
199.103
208.474
218.012
227.701
237.526
247.469
257.512
267.637
277.825
288.057
298.312
308.57
318.808
329.006
339.14
349.189
359.131
368.943
378.606
388.098
397.398
406.485
415.339
423.941
432.27
440.309
448.038
455.439
462.494
469.188
475.503
481.425
486.94
492.034
496.695
500.911
504.67
507.963
510.785
513.127
514.989
516.367
517.266
517.689
517.639
517.121
516.137
514.686
512.786
510.466
507.706
504.524
500.933
496.945
492.572
487.831
482.74
477.318
471.585
465.562
459.266
452.719
445.939
438.945
431.756
424.393
416.873
409.216
401.439
393.561
385.596
377.563
369.476
361.349
353.195
345.025
336.853
328.689
320.546
312.435
304.366
296.353
288.41
280.553
272.799
265.165
257.674
250.348
243.219
236.324
229.712
223.445
217.597
212.252
207.517
203.392
200.197
196.758
193.963
0
1.02024
0.845273
0.998609
1.11546
1.1702
1.17978
1.15997
1.12356
1.08132
1.04152
1.01009
0.991007
0.986757
0.998835
1.02815
1.07519
1.14036
1.22405
1.32675
1.44912
1.59205
1.75668
1.94449
2.15729
2.39725
2.66683
2.96877
3.30615
3.68215
4.10059
4.56542
5.08089
5.65151
6.28204
6.97814
7.74459
8.58699
9.51102
10.5225
11.6282
12.8351
14.1505
15.5826
17.1395
18.8298
20.6619
22.6454
24.7896
27.1044
29.5997
32.285
35.1701
38.2649
41.5801
45.1263
48.9143
52.9543
57.2563
61.8297
66.683
71.8242
77.2602
82.9968
89.0391
95.3907
102.054
109.031
116.321
123.922
131.833
140.048
148.563
157.37
166.462
175.828
185.458
195.339
205.458
215.8
226.35
237.092
248.008
259.08
270.289
281.614
293.036
304.532
316.082
327.664
339.254
350.83
362.368
373.845
385.235
396.514
407.658
418.643
429.446
440.043
450.413
460.532
470.379
479.934
489.175
498.083
506.637
514.819
522.612
529.998
536.959
543.48
549.547
555.149
560.27
564.899
569.025
572.637
575.725
578.287
580.311
581.802
582.753
583.177
583.07
582.446
581.314
579.662
577.505
574.866
571.764
568.171
564.125
559.636
554.716
549.38
543.649
537.542
531.081
524.288
517.186
509.794
502.136
494.233
486.105
477.775
469.265
460.595
451.786
442.859
433.834
424.73
415.564
406.355
397.116
387.863
378.609
369.367
360.151
350.974
341.847
332.785
323.8
314.907
306.124
297.469
288.963
280.627
272.486
264.572
256.921
249.582
242.613
236.083
230.063
224.642
219.798
215.835
211.533
208.075
0
1.01649
0.710832
0.792265
0.859116
0.877225
0.858883
0.818719
0.769433
0.721569
0.682759
0.657964
0.650072
0.660518
0.689811
0.737957
0.804768
0.890109
0.994011
1.11678
1.25904
1.42172
1.60612
1.81401
2.04767
2.30974
2.6033
2.93188
3.29945
3.71076
4.1707
4.6845
5.25784
5.89671
6.60753
7.39707
8.27338
9.24416
10.3181
11.5028
12.8088
14.2459
15.8249
17.5571
19.4537
21.5263
23.7868
26.247
28.9187
31.8138
34.9438
38.3199
41.9537
45.8572
50.0426
54.5218
59.306
64.4055
69.8296
75.5864
81.6828
88.1244
94.9156
102.059
109.558
117.41
125.615
134.171
143.072
152.313
161.885
171.782
181.991
192.502
203.301
214.375
225.707
237.28
249.077
261.079
273.267
285.62
298.118
310.74
323.463
336.263
349.119
362.006
374.9
387.775
400.606
413.368
426.036
438.584
450.985
463.215
475.248
487.059
498.624
509.92
520.923
531.61
541.96
551.953
561.567
570.781
579.578
587.937
595.844
603.283
610.235
616.686
622.625
628.041
632.919
637.251
641.025
644.234
646.866
648.923
650.389
651.276
651.578
651.295
650.452
649.057
647.103
644.597
641.556
638.016
633.955
629.379
624.322
618.795
612.812
606.393
599.558
592.331
584.736
576.795
568.532
559.972
551.137
542.052
532.738
523.221
513.524
503.67
493.682
483.582
473.393
463.135
452.829
442.492
432.141
421.791
411.457
401.154
390.894
380.694
370.567
360.525
350.583
340.756
331.062
321.519
312.151
302.981
294.034
285.338
276.933
268.863
261.184
253.959
247.247
241.123
235.546
230.821
225.69
221.632
0
1.01816
0.590687
0.607547
0.626926
0.608149
0.562031
0.50321
0.444464
0.395683
0.363401
0.351222
0.360609
0.391656
0.443698
0.515757
0.606995
0.716917
0.845501
0.993218
1.16105
1.35049
1.56369
1.80347
2.07309
2.37646
2.71797
3.10254
3.53585
4.02425
4.57538
5.19744
5.89903
6.68918
7.57741
8.57417
9.69036
10.9388
12.3326
13.8855
15.6108
17.5226
19.6357
21.965
24.5253
27.3312
30.3971
33.7368
37.3636
41.2902
45.5279
50.0879
54.983
60.2257
65.8274
71.7979
78.1457
84.8771
91.997
99.5085
107.413
115.71
124.398
133.474
142.932
152.767
162.971
173.533
184.443
195.689
207.256
219.13
231.296
243.736
256.432
269.365
282.515
295.859
309.378
323.049
336.849
350.756
364.748
378.8
392.887
406.985
421.07
435.117
449.097
462.987
476.759
490.39
503.854
517.126
530.179
542.989
555.53
567.777
579.708
591.298
602.527
613.371
623.81
633.826
643.399
652.508
661.134
669.26
676.875
683.962
690.508
696.497
701.921
706.77
711.033
714.702
717.766
720.225
722.06
723.283
723.872
723.855
723.185
721.944
720.094
717.655
714.633
711.037
706.892
702.236
697.002
691.249
684.997
678.26
671.053
663.399
655.322
646.846
637.997
628.801
619.281
609.465
599.376
589.04
578.482
567.727
556.8
545.727
534.532
523.239
511.872
500.452
489.001
477.537
466.08
454.643
443.242
431.892
420.608
409.405
398.299
387.301
376.425
365.687
355.102
344.693
334.481
324.492
314.749
305.282
296.124
287.322
278.927
270.997
263.58
256.739
250.427
244.947
239.015
234.43
0
1.01737
0.491266
0.457794
0.438204
0.389529
0.322616
0.25262
0.19226
0.150395
0.13196
0.138762
0.170653
0.226477
0.304706
0.403948
0.523264
0.662474
0.822263
1.00403
1.2098
1.44235
1.7054
2.00384
2.34372
2.73197
3.17582
3.68331
4.26381
4.92816
5.68877
6.5586
7.55248
8.68468
9.97057
11.4271
13.0734
14.9285
17.0114
19.3401
21.9324
24.8061
27.9796
31.4707
35.2957
39.4685
44.0024
48.9103
54.2035
59.893
65.983
72.4839
79.4054
86.7539
94.5329
102.744
111.385
120.454
129.945
139.851
150.165
160.874
171.97
183.439
195.268
207.442
219.946
232.762
245.873
259.26
272.904
286.786
300.885
315.181
329.652
344.278
359.035
373.9
388.851
403.865
418.92
433.993
449.061
464.1
479.086
493.994
508.8
523.479
538.009
552.365
566.524
580.462
594.156
607.581
620.715
633.535
646.017
658.138
669.875
681.207
692.114
702.576
712.575
722.095
731.119
739.627
747.602
755.03
761.908
768.217
773.943
779.071
783.596
787.508
790.799
793.462
795.484
796.881
797.617
797.73
797.149
795.951
794.099
791.614
788.51
784.801
780.496
775.615
770.21
764.236
757.685
750.613
743.039
734.976
726.445
717.47
708.076
698.289
688.137
677.646
666.842
655.753
644.404
632.821
621.03
609.057
596.93
584.675
572.317
559.882
547.393
534.874
522.345
509.828
497.34
484.897
472.511
460.199
447.977
435.861
423.865
412.001
400.281
388.719
377.33
366.135
355.158
344.423
333.954
323.775
313.921
304.435
295.367
286.767
278.677
271.15
264.128
257.933
251.239
246.239
0
1.0077
0.416807
0.355128
0.311908
0.24596
0.170179
0.100426
0.0486497
0.0219705
0.0232648
0.0526166
0.108824
0.190383
0.295889
0.424315
0.575715
0.751715
0.955441
1.19094
1.46302
1.77744
2.14218
2.56765
3.06615
3.65065
4.33512
5.13469
6.06717
7.15356
8.41739
9.884
11.5772
13.5194
15.7336
18.2449
21.0799
24.2639
27.8201
31.7685
36.1252
40.9048
46.1212
51.7875
57.9135
64.5077
71.5738
79.1172
87.1309
95.6065
104.543
113.948
123.813
134.127
144.877
156.048
167.625
179.59
191.927
204.616
217.639
230.976
244.607
258.514
272.677
287.077
301.692
316.503
331.49
346.632
361.91
377.303
392.793
408.359
423.982
439.642
455.319
470.992