/*--------------------------------*- C++ -*----------------------------------*\
  =========                 |
  \\      /  F ield         | OpenFOAM: The Open Source CFD Toolbox
   \\    /   O peration     | Website:  https://openfoam.org
    \\  /    A nd           | Version:  9
     \\/     M anipulation  |
\*---------------------------------------------------------------------------*/
FoamFile
{
    format      ascii;
    class       volScalarField;
    location    "7.15";
    object      p;
}
// * * * * * * * * * * * * * * * * * * * * * * * * * * * * * * * * * * * * * //

dimensions      [1 -1 -2 0 0 0 0];

internalField   nonuniform List<scalar> 
2268
(
743.323
743.112
742.686
742.045
741.205
740.183
738.996
737.666
736.217
734.677
733.076
731.441
729.796
728.161
726.55
724.988
723.534
722.267
721.231
720.376
719.819
719.523
719.357
684.509
684.297
683.871
683.228
682.386
681.359
680.166
678.828
677.37
675.82
674.206
672.556
670.891
669.235
667.61
666.057
664.66
663.476
662.55
661.754
661.008
660.569
660.413
625.744
625.528
625.1
624.453
623.604
622.569
621.366
620.015
618.543
616.977
615.346
613.676
611.992
610.317
608.682
607.137
605.772
604.618
603.72
602.97
602.084
601.579
601.437
567.029
566.81
566.378
565.723
564.864
563.817
562.599
561.231
559.739
558.151
556.498
554.806
553.102
551.413
549.773
548.23
546.868
545.657
544.737
544.012
543.057
542.547
542.436
508.365
508.143
507.704
507.038
506.165
505.102
503.866
502.476
500.958
499.343
497.662
495.945
494.221
492.519
490.877
489.336
488.013
486.634
485.672
484.896
483.924
483.526
483.411
449.753
449.527
449.079
448.398
447.508
446.426
445.167
443.75
442.201
440.551
438.835
437.088
435.341
433.628
431.988
430.445
429.273
427.995
426.786
425.875
425.063
424.581
424.358
391.194
390.963
390.505
389.806
388.895
387.789
386.504
385.055
383.468
381.775
380.017
378.233
376.46
374.733
373.097
371.605
370.513
369.764
368.437
367.392
366.697
365.648
365.254
332.689
332.451
331.98
331.259
330.322
329.189
327.874
326.388
324.756
323.013
321.205
319.379
317.577
315.833
314.197
312.731
311.689
311.172
310.194
309.135
308.076
306.757
306.117
722.944
723.678
724.603
725.617
726.738
727.948
729.26
730.62
731.973
733.312
734.79
736.413
737.956
739.319
740.587
741.845
742.697
743.229
743.448
664.423
664.693
665.622
666.641
667.802
669.104
670.465
671.832
673.196
674.625
676.293
678.025
679.668
680.81
681.811
683.017
683.894
684.435
684.727
605.835
605.919
606.681
607.654
608.831
610.142
611.522
612.912
614.317
615.809
617.608
619.44
621.143
622.239
623.141
624.301
625.175
625.771
626.167
547.143
547.172
547.768
548.679
549.865
551.182
552.591
554.022
555.496
557.006
558.829
560.714
562.424
563.549
564.53
565.688
566.534
567.324
567.78
488.152
488.258
488.802
489.681
490.894
492.218
493.687
495.178
496.725
498.27
500.017
501.967
503.674
504.763
506.054
507.189
507.969
508.957
509.411
428.895
429.167
429.749
430.662
431.88
433.246
434.763
436.347
437.996
439.637
441.132
443.226
444.945
445.983
447.736
448.879
449.681
450.5
450.993
369.547
369.968
370.613
371.591
372.844
374.249
375.823
377.524
379.341
381.276
382.855
384.518
386.297
388.111
389.587
390.624
391.605
391.972
392.545
310.089
310.664
311.416
312.481
313.789
315.22
316.858
318.709
320.772
323.367
325.512
326.522
328.29
331.038
331.588
332.397
333.55
333.538
334.182
241.307
241.053
240.555
239.791
238.805
237.623
236.255
234.705
232.993
231.158
229.259
227.359
225.501
223.729
222.077
220.608
219.487
218.795
217.976
216.827
215.751
214.817
214.212
117.283
117.027
116.537
115.688
114.607
113.345
111.894
110.279
108.594
106.836
105.096
103.319
101.559
99.846
98.2465
96.8105
95.6023
94.6548
93.8451
92.9474
92.0422
91.3651
91.185
27.6945
27.5309
27.2629
26.8413
26.2832
25.6084
24.8318
23.9843
23.1589
22.3513
21.5626
20.7737
19.9547
19.1344
18.3547
17.6496
17.0601
16.5936
16.1944
15.8427
15.5422
15.4111
15.3808
-0.66321
-0.659514
-0.684361
-0.574162
-0.508541
-0.497764
-0.465411
-0.422973
-0.424647
-0.427842
-0.427483
-0.426441
-0.430059
-0.451503
-0.482993
-0.519992
-0.574918
-0.635448
-0.691594
-0.696364
-0.66868
-0.658987
-0.673829
-0.920714
-0.919349
-0.92829
-0.900705
-0.885854
-0.876168
-0.856886
-0.83588
-0.827841
-0.824918
-0.822628
-0.82168
-0.82486
-0.835241
-0.846356
-0.858604
-0.872811
-0.884742
-0.894205
-0.897416
-0.893199
-0.893423
-0.895407
-1.13915
-1.14011
-1.13949
-1.14878
-1.15331
-1.15355
-1.15524
-1.16119
-1.16112
-1.15925
-1.15722
-1.15518
-1.15209
-1.14592
-1.13895
-1.13307
-1.12741
-1.11971
-1.10976
-1.106
-1.10459
-1.09911
-1.09019
-1.29407
-1.29501
-1.29012
-1.29588
-1.29259
-1.29251
-1.29309
-1.29124
-1.28937
-1.28746
-1.28517
-1.2824
-1.27888
-1.27418
-1.26951
-1.2661
-1.26382
-1.26353
-1.26341
-1.26272
-1.26339
-1.26114
-1.25894
-1.41907
-1.41941
-1.41811
-1.42014
-1.41787
-1.41725
-1.41675
-1.4154
-1.41385
-1.41217
-1.41026
-1.40812
-1.40567
-1.40313
-1.401
-1.39895
-1.39686
-1.39523
-1.39491
-1.39449
-1.39396
-1.39505
-1.39652
-1.54312
-1.54316
-1.54239
-1.5433
-1.54211
-1.54153
-1.54077
-1.53965
-1.53834
-1.53691
-1.53536
-1.53375
-1.53229
-1.53156
-1.53083
-1.52923
-1.527
-1.52517
-1.52414
-1.52284
-1.52205
-1.52222
-1.5228
-1.66722
-1.66722
-1.66686
-1.66698
-1.66632
-1.66577
-1.66508
-1.66411
-1.66299
-1.66181
-1.66058
-1.65933
-1.6582
-1.65753
-1.6568
-1.65541
-1.6538
-1.65252
-1.65119
-1.64997
-1.64926
-1.64913
-1.64927
-1.7915
-1.79146
-1.79124
-1.7911
-1.79063
-1.79012
-1.78949
-1.78865
-1.78772
-1.78679
-1.78581
-1.78476
-1.78373
-1.78292
-1.78207
-1.78091
-1.77958
-1.77844
-1.77746
-1.77665
-1.7761
-1.77589
-1.77589
-1.91588
-1.91583
-1.91566
-1.91545
-1.91507
-1.9146
-1.91401
-1.91329
-1.91254
-1.9118
-1.91098
-1.91004
-1.90914
-1.90834
-1.90753
-1.90657
-1.9055
-1.90455
-1.90372
-1.9031
-1.9027
-1.90251
-1.90251
-2.04034
-2.04031
-2.04016
-2.03994
-2.03961
-2.03919
-2.03868
-2.03807
-2.03746
-2.03683
-2.03608
-2.03528
-2.0345
-2.03378
-2.03307
-2.03235
-2.03162
-2.03084
-2.03011
-2.02954
-2.02915
-2.02896
-2.02898
-2.16492
-2.16484
-2.16473
-2.16453
-2.16425
-2.16389
-2.16346
-2.16298
-2.16245
-2.16186
-2.16119
-2.16051
-2.15984
-2.15921
-2.1586
-2.15805
-2.15757
-2.15701
-2.15641
-2.15584
-2.15542
-2.15523
-2.15524
-2.28954
-2.28947
-2.28937
-2.2892
-2.28896
-2.28866
-2.28831
-2.28792
-2.28745
-2.2869
-2.28632
-2.28573
-2.28516
-2.2846
-2.28408
-2.2836
-2.2832
-2.28282
-2.28234
-2.28181
-2.28146
-2.2813
-2.2813
-2.41419
-2.41419
-2.4141
-2.41395
-2.41374
-2.41348
-2.41318
-2.41284
-2.41242
-2.41194
-2.41145
-2.41095
-2.41045
-2.40997
-2.40951
-2.40909
-2.40871
-2.40835
-2.40797
-2.4076
-2.40734
-2.40721
-2.40721
-2.53897
-2.53896
-2.53889
-2.53876
-2.53858
-2.53835
-2.53808
-2.53777
-2.53741
-2.53701
-2.53659
-2.53616
-2.53573
-2.53531
-2.53491
-2.53454
-2.5342
-2.53388
-2.53357
-2.53329
-2.53309
-2.53299
-2.53298
-2.6638
-2.6638
-2.66374
-2.66362
-2.66346
-2.66326
-2.66303
-2.66275
-2.66244
-2.6621
-2.66173
-2.66136
-2.66099
-2.66063
-2.66028
-2.65996
-2.65966
-2.65938
-2.65913
-2.65891
-2.65876
-2.65867
-2.65867
-2.78868
-2.78871
-2.78864
-2.78854
-2.7884
-2.78822
-2.78801
-2.78777
-2.78749
-2.7872
-2.78689
-2.78657
-2.78625
-2.78593
-2.78563
-2.78535
-2.78509
-2.78485
-2.78464
-2.78447
-2.78435
-2.78428
-2.78428
-2.91363
-2.91362
-2.91357
-2.91349
-2.91336
-2.91321
-2.91302
-2.91281
-2.91257
-2.91232
-2.91205
-2.91177
-2.91149
-2.91122
-2.91097
-2.91072
-2.9105
-2.91029
-2.91012
-2.90998
-2.90988
-2.90983
-2.90982
-3.03862
-3.03857
-3.03854
-3.03847
-3.03836
-3.03823
-3.03806
-3.03788
-3.03767
-3.03745
-3.03721
-3.03697
-3.03674
-3.0365
-3.03628
-3.03607
-3.03588
-3.03571
-3.03556
-3.03544
-3.03536
-3.03532
-3.03532
-3.16361
-3.16357
-3.16355
-3.16349
-3.16339
-3.16327
-3.16313
-3.16296
-3.16278
-3.16259
-3.16239
-3.16218
-3.16197
-3.16177
-3.16158
-3.1614
-3.16124
-3.16109
-3.16097
-3.16087
-3.16081
-3.16078
-3.16078
-3.28861
-3.28863
-3.28859
-3.28853
-3.28845
-3.28834
-3.28821
-3.28806
-3.28791
-3.28774
-3.28756
-3.28739
-3.28721
-3.28704
-3.28687
-3.28672
-3.28658
-3.28645
-3.28635
-3.28627
-3.28622
-3.2862
-3.2862
-3.41363
-3.41371
-3.41366
-3.4136
-3.41352
-3.41342
-3.41331
-3.41318
-3.41304
-3.4129
-3.41275
-3.41259
-3.41244
-3.41229
-3.41215
-3.41202
-3.4119
-3.4118
-3.41171
-3.41165
-3.4116
-3.41159
-3.4116
-3.53871
-3.53878
-3.53874
-3.53868
-3.53861
-3.53852
-3.53842
-3.53831
-3.53819
-3.53806
-3.53793
-3.5378
-3.53767
-3.53754
-3.53742
-3.53731
-3.53721
-3.53712
-3.53705
-3.53699
-3.53696
-3.53695
-3.53696
-3.66382
-3.66385
-3.66382
-3.66377
-3.6637
-3.66363
-3.66354
-3.66344
-3.66334
-3.66323
-3.66312
-3.663
-3.66289
-3.66278
-3.66268
-3.66258
-3.6625
-3.66242
-3.66237
-3.66232
-3.6623
-3.66229
-3.6623
-3.78892
-3.78893
-3.78891
-3.78887
-3.78881
-3.78874
-3.78867
-3.78859
-3.7885
-3.7884
-3.78831
-3.78821
-3.78811
-3.78802
-3.78793
-3.78785
-3.78778
-3.78771
-3.78767
-3.78763
-3.78761
-3.78761
-3.78763
-3.91403
-3.91404
-3.91401
-3.91397
-3.91392
-3.91387
-3.9138
-3.91373
-3.91366
-3.91358
-3.9135
-3.91341
-3.91333
-3.91325
-3.91317
-3.9131
-3.91304
-3.91299
-3.91295
-3.91292
-3.91291
-3.91291
-3.91293
-4.03916
-4.03916
-4.03913
-4.03909
-4.03905
-4.039
-4.03895
-4.03889
-4.03882
-4.03875
-4.03868
-4.03861
-4.03854
-4.03847
-4.03841
-4.03835
-4.0383
-4.03826
-4.03822
-4.0382
-4.03819
-4.0382
-4.03822
-4.16432
-4.16427
-4.16425
-4.16421
-4.16418
-4.16414
-4.16409
-4.16404
-4.16399
-4.16393
-4.16387
-4.16381
-4.16375
-4.1637
-4.16364
-4.16359
-4.16355
-4.16351
-4.16349
-4.16347
-4.16347
-4.16347
-4.16349
-4.28944
-4.28943
-4.28938
-4.28934
-4.28931
-4.28928
-4.28925
-4.28921
-4.28916
-4.28912
-4.28907
-4.28901
-4.28896
-4.28891
-4.28887
-4.28882
-4.28879
-4.28876
-4.28874
-4.28873
-4.28873
-4.28874
-4.28876
-4.41457
-4.41459
-4.41451
-4.41446
-4.41444
-4.41443
-4.4144
-4.41437
-4.41434
-4.4143
-4.41426
-4.41422
-4.41417
-4.41413
-4.41409
-4.41405
-4.41402
-4.414
-4.41399
-4.41398
-4.41398
-4.41399
-4.41402
-4.53975
-4.53972
-4.53965
-4.53961
-4.53959
-4.53959
-4.53957
-4.53955
-4.53952
-4.53949
-4.53945
-4.53942
-4.53938
-4.53934
-4.53931
-4.53928
-4.53926
-4.53924
-4.53922
-4.53922
-4.53923
-4.53924
-4.53926
-4.66493
-4.66487
-4.66482
-4.66479
-4.66477
-4.66476
-4.66475
-4.66473
-4.6647
-4.66468
-4.66465
-4.66462
-4.66459
-4.66456
-4.66453
-4.66451
-4.66448
-4.66447
-4.66446
-4.66446
-4.66446
-4.66448
-4.66451
-4.79009
-4.79002
-4.78998
-4.78997
-4.78996
-4.78994
-4.78993
-4.78991
-4.78989
-4.78987
-4.78985
-4.78982
-4.7898
-4.78977
-4.78975
-4.78973
-4.78971
-4.7897
-4.78969
-4.78969
-4.7897
-4.78972
-4.78974
-4.91523
-4.91514
-4.91512
-4.91513
-4.91513
-4.91512
-4.91511
-4.9151
-4.91508
-4.91507
-4.91505
-4.91503
-4.91501
-4.91499
-4.91497
-4.91495
-4.91493
-4.91492
-4.91492
-4.91492
-4.91493
-4.91495
-4.91498
-5.04037
-5.04022
-5.04024
-5.04027
-5.04028
-5.04029
-5.04029
-5.04029
-5.04028
-5.04027
-5.04025
-5.04024
-5.04022
-5.0402
-5.04019
-5.04017
-5.04016
-5.04014
-5.04014
-5.04014
-5.04015
-5.04017
-5.04021
-5.16543
-5.16531
-5.16535
-5.1654
-5.16544
-5.16547
-5.16548
-5.16548
-5.16548
-5.16547
-5.16546
-5.16545
-5.16544
-5.16542
-5.16541
-5.16539
-5.16538
-5.16537
-5.16536
-5.16536
-5.16537
-5.1654
-5.16543
-5.29038
-5.29039
-5.29049
-5.29057
-5.29063
-5.29066
-5.29068
-5.29068
-5.29068
-5.29068
-5.29067
-5.29066
-5.29065
-5.29064
-5.29063
-5.29061
-5.2906
-5.29059
-5.29058
-5.29058
-5.29059
-5.29062
-5.29066
-5.4154
-5.41547
-5.41566
-5.41577
-5.41584
-5.41587
-5.41589
-5.41589
-5.41589
-5.41589
-5.41589
-5.41588
-5.41587
-5.41586
-5.41585
-5.41584
-5.41583
-5.41581
-5.4158
-5.41579
-5.41579
-5.41583
-5.41589
-5.5404
-5.54068
-5.5409
-5.541
-5.54106
-5.54108
-5.54109
-5.54109
-5.54109
-5.54108
-5.54108
-5.54108
-5.54107
-5.54106
-5.54105
-5.54104
-5.54103
-5.54102
-5.541
-5.54098
-5.54095
-5.541
-5.54112
-5.66575
-5.66638
-5.66629
-5.6663
-5.66631
-5.6663
-5.6663
-5.66629
-5.66629
-5.66629
-5.66629
-5.66628
-5.66628
-5.66628
-5.66627
-5.66627
-5.66626
-5.66625
-5.66623
-5.66618
-5.6661
-5.66615
-5.66634
214.659
214.753
215.019
215.471
91.3901
91.5595
91.7865
92.1518
15.3896
15.4352
15.5365
15.7055
-0.685352
-0.6869
-0.685903
-0.68489
-0.895113
-0.895034
-0.894609
-0.894121
-1.08688
-1.08649
-1.08661
-1.08725
-1.25935
-1.25938
-1.25955
-1.25984
-1.39579
-1.39529
-1.3953
-1.39565
-1.5225
-1.52222
-1.52215
-1.52214
-1.64909
-1.64897
-1.64888
-1.64875
-1.77583
-1.7758
-1.77579
-1.77576
-1.90259
-1.90268
-1.90285
-1.9031
-2.02914
-2.0293
-2.02954
-2.0299
-2.1554
-2.15554
-2.15574
-2.15601
-2.28143
-2.28154
-2.28169
-2.28188
-2.40731
-2.40739
-2.4075
-2.40763
-2.53306
-2.53313
-2.53321
-2.53331
-2.65873
-2.65878
-2.65884
-2.65892
-2.78432
-2.78436
-2.78442
-2.78448
-2.90986
-2.9099
-2.90994
-2.90999
-3.03535
-3.03538
-3.03542
-3.03547
-3.16081
-3.16083
-3.16087
-3.16091
-3.28623
-3.28625
-3.28628
-3.28632
-3.41162
-3.41164
-3.41167
-3.4117
-3.53699
-3.53701
-3.53703
-3.53706
-3.66233
-3.66235
-3.66237
-3.6624
-3.78765
-3.78767
-3.78769
-3.78772
-3.91295
-3.91297
-3.91299
-3.91302
-4.03824
-4.03826
-4.03828
-4.0383
-4.16352
-4.16354
-4.16356
-4.16358
-4.28878
-4.2888
-4.28882
-4.28884
-4.41404
-4.41406
-4.41408
-4.4141
-4.53929
-4.53931
-4.53932
-4.53935
-4.66453
-4.66455
-4.66457
-4.66459
-4.78977
-4.78979
-4.7898
-4.78982
-4.915
-4.91502
-4.91504
-4.91506
-5.04023
-5.04025
-5.04027
-5.04029
-5.16546
-5.16548
-5.1655
-5.16552
-5.29069
-5.29071
-5.29073
-5.29075
-5.41592
-5.41594
-5.41596
-5.41597
-5.54116
-5.54118
-5.54119
-5.5412
-5.66639
-5.66641
-5.66642
-5.66643
216.729
217.637
218.783
220.013
221.512
223.217
225.043
227.005
229.33
232.316
235.01
236.976
238.675
240.222
240.703
241.465
242.65
242.697
243.09
93.1395
94.1646
95.2916
96.716
98.3769
100.291
102.294
104.3
106.304
108.669
111.375
113.742
115.485
116.379
117.049
117.929
119.218
119.444
119.739
16.0999
16.5825
17.1634
17.8406
18.6407
19.5977
20.6548
21.6612
22.491
23.2588
24.575
25.822
26.7433
27.3193
27.5711
28.0497
28.8134
29.0589
29.3019
-0.689917
-0.699545
-0.664672
-0.621778
-0.620324
-0.633942
-0.647371
-0.653007
-0.650096
-0.655943
-0.694987
-0.742989
-0.795844
-0.739082
-0.642645
-0.585084
-0.581601
-0.529663
-0.498223
-0.892855
-0.8928
-0.887441
-0.882238
-0.879182
-0.881844
-0.88511
-0.888759
-0.892691
-0.898413
-0.90738
-0.919232
-0.926457
-0.918342
-0.913485
-0.912582
-0.912155
-0.914441
-0.91657
-1.08823
-1.08751
-1.09322
-1.10243
-1.10727
-1.11142
-1.11512
-1.11815
-1.12125
-1.12601
-1.13268
-1.1384
-1.13662
-1.13519
-1.13431
-1.13364
-1.13332
-1.13246
-1.13454
-1.26033
-1.26032
-1.26338
-1.26597
-1.26866
-1.26834
-1.2679
-1.26884
-1.27076
-1.27245
-1.27327
-1.27341
-1.27634
-1.28391
-1.28795
-1.29015
-1.29088
-1.29052
-1.28955
-1.3961
-1.39645
-1.39664
-1.39586
-1.39561
-1.39502
-1.39481
-1.39627
-1.39792
-1.39937
-1.40061
-1.40214
-1.40612
-1.41021
-1.41288
-1.41461
-1.41567
-1.41633
-1.41611
-1.52217
-1.52229
-1.52273
-1.52294
-1.52311
-1.52311
-1.52419
-1.52669
-1.5287
-1.52992
-1.53067
-1.53152
-1.53314
-1.53504
-1.5373
-1.53897
-1.54001
-1.54052
-1.54028
-1.64853
-1.64864
-1.64908
-1.64987
-1.65091
-1.65245
-1.65483
-1.65686
-1.65818
-1.65932
-1.66022
-1.66051
-1.65995
-1.66044
-1.66202
-1.66342
-1.66431
-1.66472
-1.66454
-1.7757
-1.77588
-1.77612
-1.77681
-1.77844
-1.78088
-1.78299
-1.78373
-1.78425
-1.78537
-1.7868
-1.78732
-1.78643
-1.7865
-1.78724
-1.78793
-1.78863
-1.78901
-1.78903
-1.90355
-1.90368
-1.90384
-1.90429
-1.90547
-1.90714
-1.90841
-1.9091
-1.9098
-1.9107
-1.91167
-1.91243
-1.91279
-1.91271
-1.91237
-1.91237
-1.91294
-1.91334
-1.91359
-2.03059
-2.03112
-2.03144
-2.03171
-2.03196
-2.03284
-2.03376
-2.03447
-2.03519
-2.03595
-2.03671
-2.03745
-2.03814
-2.03805
-2.03731
-2.03712
-2.03734
-2.03768
-2.03811
-2.15655
-2.15735
-2.15779
-2.15781
-2.15792
-2.15849
-2.15918
-2.15981
-2.16044
-2.16109
-2.16172
-2.16231
-2.16279
-2.163
-2.16284
-2.16258
-2.16239
-2.16247
-2.16282
-2.28224
-2.28276
-2.28313
-2.28334
-2.28359
-2.28405
-2.28459
-2.28514
-2.28569
-2.28625
-2.28679
-2.28729
-2.28772
-2.2881
-2.28821
-2.28807
-2.28783
-2.28754
-2.28789
-2.40789
-2.40826
-2.40859
-2.40884
-2.40913
-2.40954
-2.41
-2.41047
-2.41096
-2.41144
-2.41191
-2.41234
-2.41271
-2.413
-2.41315
-2.41309
-2.41282
-2.41237
-2.41275
-2.5335
-2.5338
-2.53408
-2.53434
-2.53463
-2.53499
-2.53539
-2.53581
-2.53623
-2.53666
-2.53708
-2.53746
-2.5378
-2.53806
-2.53819
-2.53817
-2.53801
-2.53772
-2.538
-2.65907
-2.65932
-2.65957
-2.65983
-2.6601
-2.66042
-2.66077
-2.66114
-2.66152
-2.66191
-2.66229
-2.66265
-2.66298
-2.66326
-2.66348
-2.66365
-2.66381
-2.66401
-2.66418
-2.7846
-2.78481
-2.78504
-2.78528
-2.78554
-2.78583
-2.78614
-2.78647
-2.78682
-2.78718
-2.78753
-2.78788
-2.78821
-2.78855
-2.78889
-2.78927
-2.78977
-2.79063
-2.79047
-2.9101
-2.91027
-2.91048
-2.9107
-2.91094
-2.91121
-2.91149
-2.9118
-2.91212
-2.91245
-2.91278
-2.91312
-2.91346
-2.91383
-2.91424
-2.91475
-2.91538
-2.91636
-2.91628
-3.03556
-3.03571
-3.03589
-3.0361
-3.03632
-3.03657
-3.03683
-3.03711
-3.03741
-3.03771
-3.03803
-3.03835
-3.0387
-3.03907
-3.03949
-3.03999
-3.04057
-3.04118
-3.04121
-3.16099
-3.16112
-3.16129
-3.16147
-3.16168
-3.16191
-3.16215
-3.16241
-3.16268
-3.16297
-3.16327
-3.16358
-3.1639
-3.16425
-3.16464
-3.16506
-3.1655
-3.16584
-3.16573
-3.28639
-3.28651
-3.28666
-3.28683
-3.28702
-3.28723
-3.28745
-3.2877
-3.28795
-3.28822
-3.28849
-3.28878
-3.28908
-3.2894
-3.28973
-3.29007
-3.29037
-3.29052
-3.29036
-3.41176
-3.41188
-3.41201
-3.41217
-3.41234
-3.41254
-3.41274
-3.41297
-3.4132
-3.41345
-3.4137
-3.41397
-3.41424
-3.41452
-3.4148
-3.41505
-3.41524
-3.41528
-3.41508
-3.53712
-3.53722
-3.53734
-3.53749
-3.53765
-3.53783
-3.53802
-3.53823
-3.53844
-3.53867
-3.53891
-3.53915
-3.53939
-3.53963
-3.53986
-3.54005
-3.54016
-3.54013
-3.5399
-3.66245
-3.66254
-3.66266
-3.66279
-3.66294
-3.66311
-3.66328
-3.66347
-3.66368
-3.66388
-3.6641
-3.66432
-3.66454
-3.66475
-3.66494
-3.66508
-3.66515
-3.6651
-3.66488
-3.78776
-3.78785
-3.78796
-3.78808
-3.78822
-3.78837
-3.78854
-3.78871
-3.7889
-3.78909
-3.78929
-3.78949
-3.78968
-3.78986
-3.79002
-3.79014
-3.79019
-3.79014
-3.78996
-3.91306
-3.91315
-3.91324
-3.91336
-3.91349
-3.91363
-3.91378
-3.91394
-3.91412
-3.91429
-3.91447
-3.91465
-3.91483
-3.91499
-3.91512
-3.91522
-3.91527
-3.91522
-3.91506
-4.03835
-4.03843
-4.03852
-4.03863
-4.03874
-4.03888
-4.03902
-4.03917
-4.03933
-4.03949
-4.03966
-4.03982
-4.03997
-4.04011
-4.04023
-4.04031
-4.04034
-4.04029
-4.04015
-4.16362
-4.1637
-4.16378
-4.16388
-4.16399
-4.16412
-4.16425
-4.16439
-4.16453
-4.16468
-4.16484
-4.16498
-4.16512
-4.16525
-4.16534
-4.1654
-4.16539
-4.1653
-4.16513
-4.28888
-4.28895
-4.28904
-4.28913
-4.28923
-4.28935
-4.28947
-4.2896
-4.28973
-4.28987
-4.29001
-4.29015
-4.29028
-4.29039
-4.29046
-4.29049
-4.29044
-4.2903
-4.29005
-4.41414
-4.4142
-4.41428
-4.41437
-4.41447
-4.41457
-4.41469
-4.41481
-4.41493
-4.41506
-4.41519
-4.41532
-4.41544
-4.41554
-4.4156
-4.41561
-4.41554
-4.41538
-4.4151
-4.53938
-4.53945
-4.53952
-4.5396
-4.53969
-4.53979
-4.5399
-4.54001
-4.54012
-4.54025
-4.54037
-4.54049
-4.54061
-4.5407
-4.54077
-4.54078
-4.54071
-4.54055
-4.54028
-4.66462
-4.66469
-4.66475
-4.66483
-4.66491
-4.665
-4.6651
-4.6652
-4.66531
-4.66543
-4.66555
-4.66566
-4.66578
-4.66588
-4.66595
-4.66598
-4.66592
-4.66576
-4.66549
-4.78986
-4.78992
-4.78998
-4.79005
-4.79013
-4.79021
-4.7903
-4.79039
-4.79049
-4.7906
-4.79072
-4.79083
-4.79095
-4.79106
-4.79115
-4.7912
-4.79117
-4.79101
-4.7907
-4.91509
-4.91515
-4.9152
-4.91527
-4.91533
-4.91541
-4.91549
-4.91558
-4.91567
-4.91577
-4.91588
-4.916
-4.91612
-4.91624
-4.91635
-4.91644
-4.91644
-4.91628
-4.91595
-5.04032
-5.04037
-5.04042
-5.04048
-5.04054
-5.0406
-5.04068
-5.04075
-5.04084
-5.04093
-5.04104
-5.04115
-5.04128
-5.04142
-5.04156
-5.04169
-5.04174
-5.04157
-5.04121
-5.16555
-5.16559
-5.16564
-5.16569
-5.16574
-5.16579
-5.16585
-5.16592
-5.166
-5.16608
-5.16618
-5.16629
-5.16642
-5.16658
-5.16676
-5.16694
-5.16706
-5.16689
-5.16646
-5.29077
-5.29081
-5.29085
-5.29089
-5.29093
-5.29098
-5.29103
-5.29108
-5.29115
-5.29122
-5.2913
-5.29141
-5.29154
-5.29171
-5.29193
-5.2922
-5.29243
-5.29228
-5.29183
-5.416
-5.41603
-5.41606
-5.41609
-5.41612
-5.41615
-5.41619
-5.41623
-5.41628
-5.41634
-5.41641
-5.4165
-5.41661
-5.41678
-5.41702
-5.4174
-5.41787
-5.41781
-5.41743
-5.54122
-5.54124
-5.54126
-5.54128
-5.5413
-5.54132
-5.54135
-5.54138
-5.54141
-5.54145
-5.54149
-5.54155
-5.54163
-5.54176
-5.54198
-5.54244
-5.54328
-5.54354
-5.54351
-5.66644
-5.66645
-5.66646
-5.66647
-5.66648
-5.66649
-5.66651
-5.66652
-5.66654
-5.66656
-5.66658
-5.6666
-5.66663
-5.66669
-5.66681
-5.66715
-5.6681
-5.66918
-5.67016
)
;

boundaryField
{
    leftWall
    {
        type            calculated;
        value           nonuniform List<scalar> 
50
(
743.323
684.509
625.744
567.029
508.365
449.753
391.194
332.689
241.307
117.283
27.6945
-0.66321
-0.920714
-1.13915
-1.29407
-1.41907
-1.54312
-1.66722
-1.7915
-1.91588
-2.04034
-2.16492
-2.28954
-2.41419
-2.53897
-2.6638
-2.78868
-2.91363
-3.03862
-3.16361
-3.28861
-3.41363
-3.53871
-3.66382
-3.78892
-3.91403
-4.03916
-4.16432
-4.28944
-4.41457
-4.53975
-4.66493
-4.79009
-4.91523
-5.04037
-5.16543
-5.29038
-5.4154
-5.5404
-5.66575
)
;
    }
    rightWall
    {
        type            calculated;
        value           nonuniform List<scalar> 
50
(
743.448
684.727
626.167
567.78
509.411
450.993
392.545
334.182
243.09
119.739
29.3019
-0.498223
-0.91657
-1.13454
-1.28955
-1.41611
-1.54028
-1.66454
-1.78903
-1.91359
-2.03811
-2.16282
-2.28789
-2.41275
-2.538
-2.66418
-2.79047
-2.91628
-3.04121
-3.16573
-3.29036
-3.41508
-3.5399
-3.66488
-3.78996
-3.91506
-4.04015
-4.16513
-4.29005
-4.4151
-4.54028
-4.66549
-4.7907
-4.91595
-5.04121
-5.16646
-5.29183
-5.41743
-5.54351
-5.67016
)
;
    }
    lowerWall
    {
        type            calculated;
        value           nonuniform List<scalar> 
62
(
772.752
772.541
772.115
771.474
770.634
769.612
768.425
767.095
765.646
764.107
762.505
760.87
759.226
757.59
755.979
754.417
752.964
751.696
750.612
749.722
749.178
748.943
748.772
719.357
660.413
601.437
542.436
483.411
424.358
365.254
306.117
277.25
277.342
277.61
278.065
722.944
664.423
605.835
547.143
488.152
428.895
369.547
310.089
752.149
753.081
753.992
755.006
756.122
757.231
758.498
759.858
761.219
762.528
763.989
765.612
767.155
768.682
769.977
771.235
772.087
772.613
772.833
)
;
    }
    atmosphere
    {
        type            calculated;
        value           nonuniform List<scalar> 
46
(
-5.72912
-5.72904
-5.72904
-5.72904
-5.72904
-5.72904
-5.72904
-5.72904
-5.72904
-5.72904
-5.72904
-5.72904
-5.72904
-5.72904
-5.72904
-5.72904
-5.72904
-5.72904
-5.72904
-5.72904
-5.72904
-5.72904
-5.72904
-5.72904
-5.72904
-5.72905
-5.72905
-5.72905
-5.72906
-5.72906
-5.72907
-5.72908
-5.72909
-5.7291
-5.7291
-5.72911
-5.72912
-5.72913
-5.72913
-5.72914
-5.72914
-5.72914
-5.72913
-5.72911
-5.72907
-5.73484
)
;
    }
    defaultFaces
    {
        type            empty;
    }
}


// ************************************************************************* //
