/*--------------------------------*- C++ -*----------------------------------*\
  =========                 |
  \\      /  F ield         | OpenFOAM: The Open Source CFD Toolbox
   \\    /   O peration     | Website:  https://openfoam.org
    \\  /    A nd           | Version:  9
     \\/     M anipulation  |
\*---------------------------------------------------------------------------*/
FoamFile
{
    format      ascii;
    class       volScalarField;
    location    "29.05";
    object      p;
}
// * * * * * * * * * * * * * * * * * * * * * * * * * * * * * * * * * * * * * //

dimensions      [0 2 -2 0 0 0 0];

internalField   nonuniform List<scalar> 
918
(
23.4694
23.5763
0.953319
22.8868
1.0169
23.0928
3.27307
13.7853
19.2426
2.9344
2.6248
14.4087
20.6357
16.8771
12.9933
0.925047
14.0522
2.24714
18.4603
1.39804
12.9925
20.4481
21.5368
19.2844
14.1215
14.3723
18.5981
1.14498
0.107923
0.255051
0.979207
0.410715
0.147572
21.6297
22.3063
22.2446
15.4952
10.4029
3.59819
3.80271
2.98354
2.80659
13.8279
13.9279
5.86755
13.7641
13.7599
16.6441
19.1106
19.2543
19.5475
19.3365
19.7228
5.97451
2.78565
2.6058
2.87626
2.95056
2.98315
2.69719
2.67885
2.48238
2.33641
13.888
14.4817
14.5369
14.2681
14.2158
22.4523
21.6954
22.0301
21.1365
21.2819
20.2118
19.8262
17.2528
17.6053
16.479
16.0982
12.7837
12.7449
13.2132
13.4631
0.145388
1.07611
1.22336
14.0592
14.0957
14.0957
14.1102
8.28353
2.18895
2.19176
17.9006
17.4771
20.482
20.7492
20.1962
20.0107
1.52988
1.52572
1.15067
1.18122
0.950409
13.3338
13.488
19.2358
18.4027
14.155
14.055
14.13
11.5002
13.9104
13.9837
15.3219
15.7774
14.9667
15.4031
18.168
17.75
19.0346
19.4719
0.393062
0.154614
0.687623
0.318283
0.516738
15.3635
15.1581
15.6111
15.6619
15.8931
10.4078
10.3383
10.3818
10.3017
4.14999
4.46458
2.25596
2.57055
2.42145
9.86645
13.9442
13.9909
4.81151
5.51583
5.17917
6.35025
6.72463
16.0098
16.4464
16.1851
17.7315
16.9364
17.2845
19.8137
19.3029
19.6033
6.36917
6.60355
5.60871
5.24994
2.23907
2.48845
2.4306
2.98184
2.95979
3.21799
3.34639
2.69865
2.55534
2.89312
2.7764
2.82856
2.1657
2.03589
13.6121
13.3982
14.1511
14.3296
15.0968
14.9485
14.6551
14.8239
19.0213
19.4248
19.4583
19.0741
11.5454
10.1559
13.7176
13.9931
0.302096
0.264571
0.138287
0.380977
0.400649
0.142545
2.01579
1.82731
1.40573
1.68112
14.0568
14.0166
8.52413
8.74374
8.12003
7.86384
16.3148
16.465
17.0991
16.6989
1.96231
1.67608
1.80594
13.651
13.5234
13.6303
10.9353
10.3687
11.9779
12.2477
13.9918
14.0356
14.0316
15.6815
16
19.8227
20.0934
19.9202
20.306
21.3688
21.0201
20.6353
14.5394
14.9478
14.7862
16.1284
15.7621
15.9816
15.1894
15.4941
15.352
10.37
10.4163
10.12
10.1978
10.2464
10.1934
9.80368
9.67672
14.0775
14.0326
14.0567
7.2527
7.75074
4.86965
4.54082
12.544
13.2172
12.8927
18.6511
17.9734
18.7064
18.3355
17.8855
18.2091
10.4271
10.3887
10.4221
14.9174
14.2553
14.6072
2.44129
2.07703
2.24003
8.93971
9.03307
6.97167
7.58833
7.25141
16.3016
16.642
17.3221
16.4339
16.9015
17.4088
17.1869
9.93968
10.0725
9.98936
9.66018
9.55375
9.73544
8.33598
8.94929
3.61298
4.26962
3.96547
9.20105
9.43096
9.27823
18.6304
19.1652
0.765673
1.1529
19.5952
19.3189
0.139413
0.242294
14.2538
12.5514
7.26295
17.1976
16.6302
18.97
3.19285
6.10291
2.80958
3.38088
2.6866
14.6158
14.2497
13.3409
0.452856
1.25678
1.70902
2.89693
18.4108
17.7356
18.8517
19.1719
19.2262
0.687496
0.912582
0.584048
1.24203
1.03079
1.27574
15.5512
15.6494
4.32414
18.8587
19.163
19.1808
17.6575
18.6102
17.6677
0.93576
0.642797
0.707624
10.0809
12.1218
14.214
13.7666
13.9636
13.9857
13.7366
14.8699
14.5394
14.5044
14.9892
13.9666
13.8213
7.73472
6.38366
8.06919
7.70954
17.0989
16.6868
16.4937
16.2394
18.0852
17.6112
18.4616
17.85
18.3119
18.5987
2.94355
3.13327
3.01246
2.52115
6.14361
6.60662
5.48843
5.63415
4.25973
2.42834
2.52699
2.75338
2.58414
2.93151
2.67906
2.94314
2.5795
2.32389
2.32189
2.93116
2.73887
2.6046
14.5942
14.5326
14.3335
14.3716
14.354
14.4697
13.5353
13.9401
13.5678
12.3989
12.9801
12.5074
0.825881
0.663458
0.524964
1.32422
1.35135
1.1108
0.834427
1.17349
1.20176
0.813873
1.54527
1.44495
3.1562
2.64477
8.8409
7.96871
6.90137
16.8008
17.6026
16.7723
18.013
18.43
18.5354
18.1558
17.6476
15.73
15.7252
15.3853
15.3387
4.77138
3.73222
4.96748
4.53656
10.4782
14.0656
11.8429
10.8041
11.1004
13.4245
13.9292
13.5816
13.7185
13.2936
12.8217
13.5136
13.0474
13.1487
12.9277
15.7182
16.1933
15.7998
15.2203
15.2403
10.5992
12.0158
5.46597
5.63994
7.2444
6.53828
13.5101
13.9331
13.9178
13.5563
13.744
13.7451
13.606
13.7801
13.86
13.7546
11.8248
10.1442
9.0455
9.03909
14.077
12.3464
12.9306
12.414
16.1207
16.6372
16.2519
15.6463
16.1314
15.6032
15.6304
15.8436
17.2018
16.9514
16.7211
17.108
3.05485
3.00355
3.64735
3.13388
3.03693
2.82018
3.48412
4.75856
4.41626
6.71871
7.26924
4.58027
3.373
3.79315
4.80812
5.54166
5.51158
3.96953
4.50148
4.93027
4.44084
5.22481
4.72927
2.71801
3.02513
2.86335
2.83701
3.38205
3.88055
3.37603
2.48055
2.59234
2.25639
2.11866
3.5362
2.99581
3.03254
3.67884
1.10705
1.32918
1.44136
2.41396
1.91335
1.97933
15.1828
14.8269
14.9605
14.2397
14.3072
14.2483
13.8728
15.2402
14.9622
15.0617
13.7101
13.7969
13.6102
13.9055
14.3215
14.6207
15.4526
15.1737
14.4128
14.5638
14.2147
14.143
13.4649
12.902
12.8414
1.1128
0.824858
0.98419
0.910896
0.606279
0.798529
2.18358
1.57312
1.97065
1.72699
1.96021
1.40324
1.30242
4.25348
5.06403
3.96434
3.3658
3.06297
8.89926
9.0108
8.15948
7.8573
8.19886
8.4277
8.37746
7.13517
7.56237
7.37538
9.91607
9.58043
17.587
17.5311
17.2023
17.0434
17.2698
5.76268
7.66554
6.79948
7.91565
10.2071
10.5027
9.31124
8.70544
9.45684
9.53473
14.0473
14.1234
13.5643
14.0502
14.0787
11.8353
12.8826
13.4975
13.3119
13.8318
13.9127
12.9737
13.5624
13.4777
12.7604
12.8133
12.1281
12.4667
11.9948
11.7938
14.0564
13.9511
14.2208
13.7717
14.151
13.7152
14.0305
14.0285
14.3091
13.4111
12.8324
12.8508
13.2771
12.9772
13.3231
13.4872
9.30879
9.94894
10.3877
10.9234
10.6308
10.4127
10.28
10.5817
10.5586
10.8298
10.7492
10.6001
11.5609
13.4163
13.7013
13.8028
13.5998
13.6459
13.3386
13.6114
13.5407
13.9199
14.0078
14.0575
13.1382
13.2942
13.489
13.3728
11.6755
10.0973
9.94949
9.5095
7.57717
8.04688
11.0257
9.90258
8.91783
8.98976
12.1689
10.8063
11.6196
12.0428
10.6944
10.3063
12.9715
13.7596
13.9795
13.7037
12.0605
12.1863
12.636
13.0792
13.2685
13.7242
15.8605
16.4362
16.5141
16.2382
16.1002
16.2
15.9501
16.0532
16.5273
16.6538
16.4851
2.88001
2.9937
2.92379
2.84912
3.08592
2.8614
3.95641
3.94722
3.15662
3.33698
3.35701
3.46247
2.93123
2.97436
4.82654
5.06223
5.33391
4.83244
6.17557
6.81694
7.39834
7.08361
5.78994
5.86941
6.18486
3.50737
3.53365
3.25192
3.70935
3.76201
2.6113
2.23878
2.044
2.56463
2.6662
2.05089
1.76799
1.81712
2.33162
2.05036
1.80447
14.9753
14.7336
14.755
14.5348
14.5894
14.9842
15.2051
15.0152
15.1536
15.2046
14.8037
14.6926
14.8637
1.81853
1.49379
1.62259
1.58057
1.64362
1.54964
1.73766
7.60618
6.41602
6.80349
5.97898
4.12109
4.64196
9.53938
9.96085
9.99932
9.71054
9.50044
9.8662
9.71699
9.70976
8.26371
9.33261
8.86839
9.26151
9.28284
9.35061
9.06513
9.08106
10.5848
10.6183
9.48328
10.1229
9.33167
7.93247
8.09948
9.11312
10.0867
10.4051
10.2501
9.98016
9.75155
10.1147
10.1694
10.2295
10.2188
8.75206
8.71193
8.31141
13.969
13.8755
14.0221
14.0272
14.1541
13.979
13.8161
14.0933
14.1476
13.9318
11.0779
11.1369
11.3827
12.1294
12.1814
12.0922
11.3369
13.1011
12.7567
13.3946
13.3414
13.4138
13.004
12.8272
13.0976
10.0811
11.454
10.9869
11.2501
10.0636
9.30715
13.2237
13.2779
13.3432
13.6162
13.5742
14.1576
15.8305
15.7004
15.7477
15.7907
15.4024
15.4397
4.17563
3.82946
4.5509
4.50656
4.06483
3.76489
2.28666
1.96871
1.78072
1.65586
1.8894
1.95056
8.16276
8.18993
6.33424
7.35585
5.87669
4.935
4.79046
5.95589
7.13715
7.19609
8.51379
9.19007
8.74916
8.57445
7.91866
8.24831
10.1166
10.2109
10.1115
10.4304
9.96313
11.7127
11.2949
11.6438
13.2578
12.9674
12.3693
12.2559
12.2207
12.8138
11.9479
11.1796
11.892
12.5475
12.5057
11.1184
10.8734
11.3001
11.2841
10.1982
10.7183
10.4803
10.8328
10.5482
)
;

boundaryField
{
    wall-4
    {
        type            zeroGradient;
    }
    velocity-inlet-5
    {
        type            zeroGradient;
    }
    velocity-inlet-6
    {
        type            zeroGradient;
    }
    pressure-outlet-7
    {
        type            fixedValue;
        value           uniform 0;
    }
    wall-8
    {
        type            zeroGradient;
    }
    frontAndBackPlanes
    {
        type            empty;
    }
}


// ************************************************************************* //
