/*--------------------------------*- C++ -*----------------------------------*\
  =========                 |
  \\      /  F ield         | OpenFOAM: The Open Source CFD Toolbox
   \\    /   O peration     | Website:  https://openfoam.org
    \\  /    A nd           | Version:  9
     \\/     M anipulation  |
\*---------------------------------------------------------------------------*/
FoamFile
{
    format      ascii;
    class       volScalarField;
    location    "1.5";
    object      p;
}
// * * * * * * * * * * * * * * * * * * * * * * * * * * * * * * * * * * * * * //

dimensions      [0 2 -2 0 0 0 0];

internalField   nonuniform List<scalar> 
918
(
31.1459
28.3276
1.41734
30.5112
0.983713
27.8459
7.60985
18.848
26.8944
5.97575
4.26853
21.1824
25.3849
21.6148
17.9064
1.60487
19.9756
5.47646
26.0885
1.636
17.7758
28.1178
29.1938
26.9232
20.4598
18.9427
23.3438
1.2709
0.185189
0.600512
0.882396
0.486497
0.567754
26.3841
27.0584
26.9958
23.3199
14.4104
8.34585
8.75322
7.2993
6.84797
18.9109
19.0697
11.4366
18.7328
18.6458
24.6825
26.7608
26.8992
27.2365
26.9795
27.3743
8.21104
6.05464
6.05325
5.98989
5.95459
4.83563
4.57527
4.83502
4.08696
3.87638
21.0077
21.4102
21.6274
21.0385
20.9338
27.2034
26.4468
26.7813
25.8852
26.0323
24.9601
24.5736
21.9926
22.3463
21.214
20.8304
17.6508
17.5292
18.1833
18.3548
0.187206
1.93027
2.22254
20.0285
20.1245
19.8652
19.7694
11.341
5.74806
5.85114
25.6117
25.2732
28.1045
28.375
27.8135
27.6329
2.01778
2.33818
1.11942
1.47375
1.19418
18.0659
18.2554
26.8772
26.1216
20.7584
20.4833
20.6196
17.9199
20.2806
20.2738
20.0654
20.5046
19.6518
20.122
22.9113
22.4911
23.7817
24.2212
0.550528
0.21099
1.35349
0.841915
1.13686
23.0301
22.7014
23.3745
23.5394
23.7942
14.4137
14.2979
14.4411
14.3729
9.33834
9.67548
6.11914
6.61502
6.26803
13.632
19.1758
19.3122
10.239
11.1236
10.5668
12.1424
12.6414
23.9822
24.4492
24.1385
25.4972
24.897
25.1434
27.4478
26.9439
27.2419
8.71457
9.17477
7.91389
7.56357
5.60373
5.93265
5.76367
5.83357
5.69745
5.2039
5.54029
4.61155
4.41765
5.49842
5.05953
5.29978
3.63121
3.38841
20.792
20.5679
21.3933
21.7418
22.4815
22.2586
21.818
22.0549
23.7688
24.1728
24.2043
23.8194
15.8701
13.8415
18.6137
18.8386
0.360139
0.332309
0.182024
0.616437
0.426224
0.223636
3.26907
3.00579
2.47734
2.7735
20.1691
20.2125
11.5793
11.8226
11.095
10.7744
24.249
24.4057
24.9436
24.5922
3.11621
2.59321
2.86701
18.5112
18.3012
18.4647
17.391
16.7376
18.5553
19.1255
20.2489
20.2994
20.2735
20.4176
20.7349
24.5732
24.844
24.6703
25.0589
26.1218
25.7727
25.3872
21.9991
22.5028
22.2888
24.0426
23.5924
23.843
22.6636
23.1132
22.8327
14.289
14.3144
14.0677
14.176
14.3082
14.2257
13.4978
13.3485
19.6341
19.403
19.5532
13.2958
13.7685
7.19029
6.86258
19.4512
20.1661
19.7189
23.396
22.7157
23.4504
23.0787
22.6274
22.9526
14.3038
14.1711
14.2677
19.671
19.0594
19.382
4.04065
3.48528
3.65816
12.0834
12.2754
9.61133
10.4171
10.0619
21.0356
21.3788
22.0608
21.1693
21.6375
22.1479
21.9257
13.7907
13.9976
13.8722
13.2313
13.0452
15.9384
14.4566
14.9454
5.81365
6.4925
6.13053
12.4849
12.8693
12.6817
26.3274
26.8416
0.924615
1.36394
27.2088
26.9554
0.407436
0.725815
19.0071
17.1599
13.1939
24.9819
24.4716
26.6338
6.35123
8.42422
4.5471
5.13642
3.99219
21.3776
21.3668
20.1892
0.720003
1.93849
2.02379
6.57834
26.1024
25.4935
26.5251
26.8616
26.869
0.916283
1.02173
0.717719
1.78861
1.25133
1.56054
23.0524
23.0878
9.30928
26.5045
26.8005
26.8252
25.3602
26.2441
25.4159
1.65695
1.15184
1.38886
16.438
18.6752
18.9584
18.4121
18.7261
18.756
18.5492
19.6169
19.3228
19.2531
19.7114
19.1056
18.7078
13.6754
12.1076
14.2279
13.9896
24.8416
24.5611
24.2731
24.0962
25.7258
25.3264
26.1
25.5388
25.9836
26.26
6.38114
6.20226
6.46634
6.20756
8.6423
9.33171
7.99333
7.9037
6.39635
4.31785
4.17329
4.7292
4.96319
5.04575
4.22946
4.84987
4.57426
3.75653
3.60995
4.7744
4.40803
4.65354
21.5048
21.7197
21.132
21.0702
21.5727
21.9269
20.484
21.154
20.7949
19.0753
19.9449
19.4686
0.900142
0.927012
0.728969
2.16159
2.42234
1.5919
1.28374
1.67091
1.44201
1.25758
2.15582
2.45396
7.28758
6.82524
11.9569
10.9115
10.2645
24.6376
25.3259
24.7618
25.6587
26.1144
26.247
25.9009
25.44
23.2826
23.5412
22.8564
22.7325
9.806
8.27884
10.2572
9.98058
14.5186
20.2116
18.4677
17.1852
17.6113
19.5839
18.5765
18.2751
18.5906
17.9644
17.4694
18.4008
17.8208
17.9119
17.495
20.4519
20.9244
20.5314
19.9462
19.9749
14.5796
16.2424
11.0795
11.1528
12.7187
12.2707
18.197
19.1029
19.2646
18.4272
18.5506
18.8306
18.3968
18.5767
18.7245
18.7854
16.6334
16.4823
15.2864
15.2706
19.7826
17.1911
17.6932
17.7986
23.875
24.4096
24.1084
23.2354
23.8974
23.5048
23.2636
23.4446
24.9177
24.7295
24.4324
24.7936
6.13239
5.95875
7.1348
7.1278
6.81028
6.37221
7.10314
8.07482
7.59833
9.88045
10.2629
8.09865
7.65563
7.56493
8.60453
8.92597
9.16165
6.53019
6.69869
7.26937
6.8343
7.51812
7.13004
4.81653
5.06501
5.29155
4.9761
5.36324
6.05296
5.70522
4.13623
4.39175
3.92731
3.66656
5.80698
5.55222
5.44587
6.13855
2.09285
2.29575
2.53638
3.73372
3.33641
3.59385
22.5303
22.0264
22.2834
20.6839
20.9064
20.8066
20.2532
22.8177
22.3807
22.595
20.7369
21.0615
20.5545
20.8266
21.3708
21.613
22.984
22.7256
21.467
21.7961
21.3544
21.2355
20.2294
19.9224
19.5544
1.7891
1.27385
1.5556
1.5412
1.16241
1.31312
3.39965
2.76007
3.16896
2.80772
3.08719
1.97922
1.94318
8.4776
9.04793
8.66356
7.78701
7.44828
12.0305
12.3121
11.0729
10.8441
11.1957
11.5127
11.4192
9.73739
10.4063
10.2162
13.7222
13.1391
25.2208
25.2712
24.9649
24.7704
24.913
10.6807
12.1191
11.8994
12.7327
14.231
14.562
13.0723
12.3755
12.997
13.1408
20.0414
20.1472
19.9032
20.1486
20.2745
18.1159
18.4898
18.9851
18.9614
19.6724
19.665
19.0571
19.389
19.4285
18.9705
18.7689
18.7667
18.7289
18.4012
18.2596
20.9396
20.8378
21.0888
20.4992
20.7636
19.8968
20.2423
20.5644
20.5634
19.8663
19.283
19.1946
19.5316
19.5929
19.9764
20.0705
13.363
13.8073
14.31
14.8628
14.5698
14.3756
14.1774
14.5126
14.6271
14.8521
14.724
14.4506
15.734
18.1142
18.2713
18.5296
18.3926
18.2296
18.0062
18.2905
18.2852
19.505
19.3931
19.5627
17.7746
18.0809
18.098
18.1174
16.0583
15.1666
14.7739
14.7989
13.305
13.5701
16.1457
15.2886
14.5409
14.7473
18.1123
16.9397
17.7276
17.6954
16.7112
16.4465
18.285
19.1283
19.2945
18.9599
17.3627
17.2751
17.7036
18.0263
18.0865
18.5338
23.7012
24.1306
24.2807
24.0575
23.7828
23.8817
23.6567
23.8608
24.245
24.4093
24.2381
5.28683
5.43865
5.76876
5.51513
6.44182
6.50159
7.17487
7.131
5.85566
6.12313
6.26686
6.11488
5.8169
5.71283
7.41287
7.79703
8.00248
7.68883
9.28616
9.50902
10.0446
9.9068
8.76465
8.6143
8.87016
5.79592
5.60399
5.45058
5.92223
6.0962
4.24763
3.89082
3.72212
4.27097
4.51318
3.44664
2.82223
2.99865
3.34026
3.40864
3.1013
22.5995
22.2849
21.9965
21.7907
21.9156
22.3668
22.6887
22.3605
22.5221
22.418
22.0466
21.8995
22.1044
2.70497
2.33037
2.39333
2.7903
2.52444
2.25609
2.43707
11.1093
10.0186
10.3367
9.92032
8.6996
9.01437
13.506
13.7235
13.8621
13.2299
13.0374
13.2644
13.4067
13.3845
11.6779
12.6931
12.3383
12.5414
12.7681
12.7793
12.4545
13.4819
14.8067
14.9612
13.6833
14.2697
14.1365
13.0271
13.3512
13.7654
14.5215
14.2378
14.2022
13.8177
13.593
14.0621
13.9139
14.2939
14.2945
12.6271
12.7709
12.4147
19.646
19.8767
19.9351
19.5917
19.8273
20.3336
20.0228
20.1546
20.3308
20.2076
15.1722
15.2581
15.5749
16.5124
16.7376
16.0867
15.4539
17.3492
16.9807
17.8395
17.8173
17.7992
17.5195
17.1951
17.5497
15.6449
16.8008
16.331
16.7676
15.8358
15.1409
18.3411
18.4787
18.5095
18.8144
18.8651
19.1746
23.4734
23.2869
23.4402
23.3157
22.89
22.8955
6.73513
6.49584
7.23522
7.32372
7.0129
6.68291
3.46127
3.32027
3.01457
2.87733
2.99161
3.28334
12.1004
11.8692
10.379
11.0875
10.5404
9.50258
9.50775
10.2901
11.2832
11.5489
11.747
12.2805
12.0794
11.8164
11.1671
11.406
13.9985
14.1826
14.0735
14.1995
13.8661
15.9054
15.4745
15.9112
17.5935
17.2033
16.5313
16.3833
16.6876
17.2624
16.4548
15.9086
16.5181
17.0027
17.0651
15.2185
14.9101
15.4715
15.3421
14.2157
14.7257
14.4407
14.8367
14.5223
)
;

boundaryField
{
    wall-4
    {
        type            zeroGradient;
    }
    velocity-inlet-5
    {
        type            zeroGradient;
    }
    velocity-inlet-6
    {
        type            zeroGradient;
    }
    pressure-outlet-7
    {
        type            fixedValue;
        value           uniform 0;
    }
    wall-8
    {
        type            zeroGradient;
    }
    frontAndBackPlanes
    {
        type            empty;
    }
}


// ************************************************************************* //
