/*--------------------------------*- C++ -*----------------------------------*\
  =========                 |
  \\      /  F ield         | OpenFOAM: The Open Source CFD Toolbox
   \\    /   O peration     | Website:  https://openfoam.org
    \\  /    A nd           | Version:  9
     \\/     M anipulation  |
\*---------------------------------------------------------------------------*/
FoamFile
{
    format      ascii;
    class       volVectorField;
    location    "4.94";
    object      U;
}
// * * * * * * * * * * * * * * * * * * * * * * * * * * * * * * * * * * * * * //

dimensions      [0 1 -1 0 0 0 0];

internalField   nonuniform List<vector> 
2268
(
(0.00145207 -0.000691904 0)
(0.00414219 -0.000638979 0)
(0.00629335 -0.000538715 0)
(0.00824994 -0.000463856 0)
(0.00990713 -0.000386269 0)
(0.0112568 -0.000302815 0)
(0.0123325 -0.000232391 0)
(0.013204 -0.000193224 0)
(0.0139717 -0.000187042 0)
(0.0147217 -0.000202908 0)
(0.0155301 -0.000252203 0)
(0.0164813 -0.000331469 0)
(0.017684 -0.000463792 0)
(0.0192957 -0.000681369 0)
(0.0215553 -0.00098805 0)
(0.0243737 -0.00125547 0)
(0.0274463 -0.000489015 0)
(0.0250423 0.00273094 0)
(0.0118567 0.00499036 0)
(-0.00374623 0.00377072 0)
(-0.0108748 0.000441424 0)
(-0.00859581 -0.00215773 0)
(-0.00261103 -0.00139675 0)
(0.00137046 -0.0019692 0)
(0.00387685 -0.00175858 0)
(0.00595109 -0.00152216 0)
(0.00787132 -0.00130736 0)
(0.00951042 -0.00109489 0)
(0.0108783 -0.00088598 0)
(0.012004 -0.00071453 0)
(0.0129535 -0.000609184 0)
(0.0138083 -0.000568202 0)
(0.0146191 -0.000573623 0)
(0.0154218 -0.000630026 0)
(0.0162636 -0.000747751 0)
(0.0172008 -0.000954195 0)
(0.0182872 -0.00128235 0)
(0.0195667 -0.0017024 0)
(0.0208661 -0.00187954 0)
(0.0217412 -0.000195598 0)
(0.0197498 0.00555712 0)
(0.0117675 0.00954833 0)
(0.00180514 0.00775042 0)
(-0.0039676 0.00224697 0)
(-0.00535067 -0.00255403 0)
(-0.0039276 -0.00391559 0)
(0.00131177 -0.00312133 0)
(0.00371929 -0.00277462 0)
(0.00574212 -0.00243603 0)
(0.00765103 -0.00211184 0)
(0.0093089 -0.00178422 0)
(0.0107194 -0.00146461 0)
(0.0119036 -0.00120341 0)
(0.0129216 -0.00103853 0)
(0.0138389 -0.000962119 0)
(0.0146816 -0.000944476 0)
(0.0154565 -0.000988134 0)
(0.0161814 -0.00110757 0)
(0.0168718 -0.00132571 0)
(0.0175118 -0.00166037 0)
(0.0180383 -0.00204616 0)
(0.0182304 -0.00203976 0)
(0.0178638 0.000187107 0)
(0.0160325 0.00734953 0)
(0.0118245 0.0123274 0)
(0.0062146 0.0106133 0)
(0.0014381 0.00410738 0)
(-0.00145264 -0.00199914 0)
(-0.00241184 -0.00558952 0)
(0.00126289 -0.00428953 0)
(0.00359706 -0.00380939 0)
(0.00560486 -0.00337493 0)
(0.00753334 -0.0029533 0)
(0.00923968 -0.00251686 0)
(0.0107132 -0.0020885 0)
(0.0119658 -0.00173672 0)
(0.0130528 -0.00150811 0)
(0.0140283 -0.00138533 0)
(0.0148959 -0.00132267 0)
(0.0156366 -0.00132052 0)
(0.0162443 -0.001395 0)
(0.0167039 -0.00155861 0)
(0.0169522 -0.00180519 0)
(0.0168617 -0.00203374 0)
(0.0161785 -0.00174825 0)
(0.014865 0.000833537 0)
(0.0135152 0.00838221 0)
(0.0120497 0.0136969 0)
(0.00952284 0.0125401 0)
(0.00627941 0.00581929 0)
(0.00299342 -0.000801546 0)
(0.000305888 -0.00576951 0)
(0.00122868 -0.0054102 0)
(0.00350501 -0.00483316 0)
(0.00552778 -0.00432468 0)
(0.00750597 -0.00382235 0)
(0.00928714 -0.00328542 0)
(0.0108414 -0.0027502 0)
(0.0121714 -0.0023068 0)
(0.0133301 -0.00201064 0)
(0.0143638 -0.00183087 0)
(0.0152548 -0.00170133 0)
(0.0159594 -0.00162116 0)
(0.0164538 -0.00160792 0)
(0.0167047 -0.00165988 0)
(0.0166225 -0.00174219 0)
(0.0160555 -0.00172485 0)
(0.0147696 -0.00110602 0)
(0.0127982 0.00163088 0)
(0.0118429 0.00867242 0)
(0.0122159 0.0140111 0)
(0.0120307 0.0134311 0)
(0.0104628 0.00715941 0)
(0.00719596 0.000962637 0)
(0.00297638 -0.0041795 0)
(0.00120858 -0.00650367 0)
(0.00345095 -0.00585227 0)
(0.00551626 -0.00529169 0)
(0.00757217 -0.00472445 0)
(0.00945116 -0.00409305 0)
(0.0111013 -0.00344977 0)
(0.012516 -0.00291132 0)
(0.0137491 -0.00254272 0)
(0.0148419 -0.00229506 0)
(0.0157561 -0.00207659 0)
(0.016425 -0.00188748 0)
(0.0168144 -0.00174934 0)
(0.0168855 -0.00164573 0)
(0.0165431 -0.00151398 0)
(0.0156474 -0.0012098 0)
(0.0140513 -0.000269622 0)
(0.0118761 0.00249309 0)
(0.0110568 0.00853561 0)
(0.0124332 0.0135423 0)
(0.0140082 0.0133826 0)
(0.0136477 0.0081813 0)
(0.010457 0.00317279 0)
(0.00508036 -0.00096263 0)
(0.00119087 -0.00759273 0)
(0.00344276 -0.00688382 0)
(0.00557889 -0.00629228 0)
(0.00773627 -0.00567396 0)
(0.00973097 -0.00495052 0)
(0.0114879 -0.00419377 0)
(0.0129928 -0.00355381 0)
(0.0143017 -0.00310646 0)
(0.0154528 -0.0027797 0)
(0.0163885 -0.00244964 0)
(0.017022 -0.00212207 0)
(0.0173159 -0.00182832 0)
(0.0172386 -0.00153987 0)
(0.0167056 -0.00117032 0)
(0.0156119 -0.000581975 0)
(0.0139218 0.000615387 0)
(0.0118908 0.00329015 0)
(0.0112006 0.00829175 0)
(0.0129194 0.0125942 0)
(0.0153318 0.0127508 0)
(0.0156789 0.00897772 0)
(0.0130162 0.00549789 0)
(0.00707134 0.0023531 0)
(0.00118477 -0.00871576 0)
(0.00348603 -0.00795852 0)
(0.00571938 -0.00735848 0)
(0.00799366 -0.00669937 0)
(0.0101141 -0.00588273 0)
(0.0119838 -0.00500301 0)
(0.0135822 -0.00425144 0)
(0.0149665 -0.0037152 0)
(0.0161713 -0.00329551 0)
(0.0171221 -0.00282617 0)
(0.0177178 -0.00232784 0)
(0.0179245 -0.0018511 0)
(0.0177271 -0.00135962 0)
(0.017065 -0.000745573 0)
(0.0158766 9.49713e-05 0)
(0.014224 0.00146585 0)
(0.0124727 0.00395344 0)
(0.0119973 0.00801925 0)
(0.0137147 0.0115138 0)
(0.0162123 0.0119129 0)
(0.0169364 0.0094821 0)
(0.0149554 0.00762064 0)
(0.0100149 0.00938968 0)
(-0.0130719 0.00330076 0)
(-0.00868608 -0.00287074 0)
(-0.000326259 -0.00265178 0)
(0.00541304 -0.00162297 0)
(0.00866274 -0.000687634 0)
(0.00963863 -9.51123e-05 0)
(0.00915 0.00024488 0)
(0.00838235 8.4909e-05 0)
(0.00943461 -0.00113988 0)
(0.016477 -0.00261876 0)
(0.0221248 -0.000331249 0)
(0.019616 0.00319163 0)
(-0.00448349 0.00860751 0)
(-0.0366464 0.00363961 0)
(-0.0211447 -0.00823539 0)
(0.00770545 -0.00877153 0)
(0.0316618 -0.00521472 0)
(0.0391974 0.00197274 0)
(0.0232486 0.0079263 0)
(-0.00332592 0.00621422 0)
(-0.00188971 -0.00342655 0)
(0.00132431 -0.00386309 0)
(0.00379452 -0.00258945 0)
(0.00537125 -0.00116231 0)
(0.00576177 -0.000105943 0)
(0.00539241 0.00037804 0)
(0.00512407 -0.000169718 0)
(0.00618274 -0.00240644 0)
(0.0101009 -0.00430439 0)
(0.0121781 0.000229249 0)
(0.00837843 0.00775799 0)
(-0.00722445 0.0161895 0)
(-0.0181934 0.00531921 0)
(-0.00487717 -0.0139738 0)
(0.0110485 -0.0160463 0)
(0.0265251 -0.0094223 0)
(0.0313892 0.00344449 0)
(0.0284299 0.0186264 0)
(0.00227076 0.00573234 0)
(0.00107577 -0.00382568 0)
(0.00180341 -0.00441041 0)
(0.00243142 -0.00305303 0)
(0.00288988 -0.00136277 0)
(0.0026978 -1.51939e-05 0)
(0.00207969 0.00053353 0)
(0.00160265 -0.000266064 0)
(0.00182774 -0.00305728 0)
(0.00344975 -0.0051503 0)
(0.00361861 0.00125297 0)
(-0.00128246 0.0109667 0)
(-0.00816247 0.0185773 0)
(-0.00636241 0.00317201 0)
(0.00271984 -0.0184864 0)
(0.0118943 -0.0212813 0)
(0.0223298 -0.0128404 0)
(0.0239379 0.0035962 0)
(0.0258017 0.0296326 0)
(0.00267678 0.00467059 0)
(0.00185188 -0.00369513 0)
(0.00145169 -0.00440746 0)
(0.000926859 -0.00307963 0)
(0.000561854 -0.0012682 0)
(-0.000135907 0.000256355 0)
(-0.00110903 0.000855216 0)
(-0.00205042 -7.08021e-05 0)
(-0.0027813 -0.00307844 0)
(-0.00333708 -0.00518826 0)
(-0.00431461 0.00233682 0)
(-0.00739352 0.012725 0)
(-0.00744328 0.0177197 0)
(-4.10373e-05 0.000331131 0)
(0.00625872 -0.0212249 0)
(0.0112694 -0.0248612 0)
(0.0182348 -0.0148671 0)
(0.0176648 0.00369673 0)
(0.0221903 0.0388684 0)
(0.00171625 0.00388533 0)
(0.00166492 -0.00355848 0)
(0.000553084 -0.00402587 0)
(-0.000816365 -0.00274324 0)
(-0.0018301 -0.000921895 0)
(-0.00297393 0.000704371 0)
(-0.0043172 0.001362 0)
(-0.00572624 0.00042537 0)
(-0.00729791 -0.00252642 0)
(-0.00970946 -0.00445274 0)
(-0.011204 0.00278948 0)
(-0.0111026 0.012751 0)
(-0.00626041 0.0149863 0)
(0.003064 -0.00274498 0)
(0.0070901 -0.0226988 0)
(0.00894626 -0.0271003 0)
(0.0135334 -0.0158638 0)
(0.0111272 0.00349617 0)
(0.0185438 0.0457997 0)
(0.00188386 0.00307622 0)
(0.00125593 -0.003301 0)
(-0.000670702 -0.00331813 0)
(-0.00279228 -0.00211091 0)
(-0.00435407 -0.000363776 0)
(-0.00586809 0.00131746 0)
(-0.00751033 0.00203408 0)
(-0.00926151 0.00116376 0)
(-0.0114018 -0.00154895 0)
(-0.0147948 -0.00321199 0)
(-0.0165766 0.00266668 0)
(-0.0140613 0.0111533 0)
(-0.00574828 0.011194 0)
(0.00364296 -0.00550291 0)
(0.00542251 -0.0231202 0)
(0.00456724 -0.0282241 0)
(0.0076789 -0.0161919 0)
(0.00387301 0.00292192 0)
(0.0142213 0.0505313 0)
(0.00427991 0.00345927 0)
(0.000933343 -0.00247992 0)
(-0.00210236 -0.00224789 0)
(-0.00496562 -0.00122918 0)
(-0.00702029 0.000366076 0)
(-0.00881707 0.00205391 0)
(-0.0106194 0.00281805 0)
(-0.0125234 0.00204538 0)
(-0.0148997 -0.00037105 0)
(-0.0183431 -0.00188871 0)
(-0.019951 0.0022819 0)
(-0.0160742 0.00848595 0)
(-0.00641816 0.00708602 0)
(0.00177282 -0.00755846 0)
(0.00165337 -0.0227041 0)
(-0.00159341 -0.0283433 0)
(8.38112e-05 -0.0160216 0)
(-0.00540771 0.00169972 0)
(0.00616717 0.0532742 0)
(0.00684655 -0.00012352 0)
(0.000106004 -0.000956929 0)
(-0.00371463 -0.000800632 0)
(-0.00727788 -8.65344e-05 0)
(-0.00981561 0.00126647 0)
(-0.0118206 0.00286352 0)
(-0.0136076 0.00361632 0)
(-0.0154308 0.00295039 0)
(-0.0177251 0.000798379 0)
(-0.0206976 -0.000788566 0)
(-0.0217043 0.0016979 0)
(-0.017383 0.005485 0)
(-0.00830587 0.00328207 0)
(-0.0018263 -0.0088488 0)
(-0.00335635 -0.0215176 0)
(-0.00874955 -0.0272423 0)
(-0.00954187 -0.0153408 0)
(-0.0161662 0.00172447 0)
(-0.00653885 0.051486 0)
(0.00121254 -0.0102532 0)
(0.00364481 -0.00976637 0)
(0.00603972 -0.00918908 0)
(0.00850173 -0.00847194 0)
(0.010816 -0.0075068 0)
(0.012863 -0.00641948 0)
(0.014614 -0.0054736 0)
(0.0161159 -0.0047706 0)
(0.0173876 -0.00417311 0)
(0.0183387 -0.00342804 0)
(0.0188635 -0.00260373 0)
(0.0189409 -0.0017985 0)
(0.0185905 -0.000969391 0)
(0.0178014 3.33489e-05 0)
(0.0165872 0.00120093 0)
(0.0151131 0.00269313 0)
(0.0138262 0.00475973 0)
(0.0136654 0.0075275 0)
(0.0151482 0.00987258 0)
(0.0172924 0.0105178 0)
(0.0183726 0.0097048 0)
(0.0178966 0.00946526 0)
(0.0181502 0.0113033 0)
(0.000970572 -0.0129532 0)
(0.00386939 -0.0120119 0)
(0.00657068 -0.0112866 0)
(0.00920472 -0.010467 0)
(0.0116573 -0.00936039 0)
(0.0139177 -0.00805613 0)
(0.0159445 -0.00687021 0)
(0.0176409 -0.00590154 0)
(0.0189113 -0.00498822 0)
(0.0197213 -0.00388873 0)
(0.0200817 -0.00270792 0)
(0.0199863 -0.00156576 0)
(0.0194921 -0.00041046 0)
(0.0186609 0.000847074 0)
(0.0175808 0.00213029 0)
(0.0164677 0.00344766 0)
(0.0156675 0.00485421 0)
(0.0157028 0.00638014 0)
(0.0167862 0.00766759 0)
(0.0182758 0.00830241 0)
(0.0190659 0.00837079 0)
(0.0187441 0.00838012 0)
(0.0182125 0.00831686 0)
(0.00247477 -0.0123752 0)
(0.00516801 -0.0131953 0)
(0.00751978 -0.0128498 0)
(0.00940385 -0.0121961 0)
(0.0111502 -0.0109814 0)
(0.0135922 -0.0094342 0)
(0.0165211 -0.00804772 0)
(0.0189311 -0.00693022 0)
(0.0204719 -0.00571229 0)
(0.0213058 -0.00427879 0)
(0.0216901 -0.00277017 0)
(0.021656 -0.00128942 0)
(0.0211569 0.000204 0)
(0.0203351 0.00164799 0)
(0.0194913 0.00304674 0)
(0.0188359 0.00428136 0)
(0.0184509 0.005327 0)
(0.0184183 0.00625652 0)
(0.0189642 0.00717238 0)
(0.0199174 0.00805371 0)
(0.0203817 0.00896561 0)
(0.0196449 0.00991979 0)
(0.0174587 0.0110633 0)
(0.0116609 -0.0225459 0)
(0.00645222 -0.0157553 0)
(0.00776378 -0.0149063 0)
(0.00670792 -0.0136862 0)
(0.00422227 -0.0119524 0)
(0.00642945 -0.0113908 0)
(0.0126698 -0.00979609 0)
(0.0164823 -0.00810839 0)
(0.0181909 -0.00633328 0)
(0.0191207 -0.00458437 0)
(0.0197189 -0.00280811 0)
(0.0200258 -0.00100857 0)
(0.0199596 0.000766566 0)
(0.0195903 0.00238894 0)
(0.0194061 0.00387931 0)
(0.020592 0.0045457 0)
(0.0223649 0.00571576 0)
(0.0216279 0.00687067 0)
(0.0192102 0.00743216 0)
(0.0183351 0.00797609 0)
(0.0189981 0.00927525 0)
(0.019728 0.0107902 0)
(0.0147933 0.0140203 0)
(-0.00832059 -0.0301857 0)
(-0.00689919 -0.0195458 0)
(-0.0132822 -0.016463 0)
(-0.0317755 -0.00697556 0)
(-0.043822 -0.0120986 0)
(-0.0319405 -0.0298534 0)
(-0.0197986 -0.0260227 0)
(-0.00943579 -0.0177969 0)
(-0.00235069 -0.0120147 0)
(0.00347979 -0.00822645 0)
(0.00923569 -0.0050786 0)
(0.0149203 -0.00220046 0)
(0.0199663 0.000725733 0)
(0.023529 0.00269323 0)
(0.0257566 0.00265619 0)
(0.0264973 0.000942344 0)
(0.0280001 0.00288242 0)
(0.0299001 0.0113066 0)
(0.0250726 0.01205 0)
(0.0179174 0.00789431 0)
(0.0123319 0.00891236 0)
(0.00798018 0.0146748 0)
(-0.00376465 0.0388566 0)
(-0.0130148 -0.0102345 0)
(-0.00836001 -0.0113517 0)
(-0.00763909 0.0023129 0)
(-0.00783514 0.0129007 0)
(0.00337598 -0.00811198 0)
(0.00637333 -0.031465 0)
(-0.00453328 -0.0269737 0)
(-0.00803787 -0.0200076 0)
(-0.00642051 -0.0159213 0)
(-0.0026943 -0.0136588 0)
(0.00206547 -0.0115807 0)
(0.00724055 -0.00961091 0)
(0.0120139 -0.00603133 0)
(0.0150935 -0.00174156 0)
(0.0139427 0.00186239 0)
(0.00328951 0.00491395 0)
(-0.00648903 0.000153282 0)
(-0.0056012 0.0100957 0)
(-0.00144437 0.0158591 0)
(-0.00180396 0.0171812 0)
(-0.0110029 0.0189614 0)
(-0.0234736 0.0235941 0)
(-0.0242981 0.0363105 0)
(-0.00336572 -0.00318466 0)
(-0.00547317 -0.0187212 0)
(-0.00293201 -0.0097214 0)
(0.00746085 -0.00601484 0)
(0.0177321 -0.0230194 0)
(0.0156497 -0.0252754 0)
(0.00439411 -0.0170194 0)
(-0.00381793 -0.0170572 0)
(-0.00785429 -0.017294 0)
(-0.00956472 -0.0170588 0)
(-0.00990658 -0.0156632 0)
(-0.0101245 -0.0134804 0)
(-0.0111312 -0.00835495 0)
(-0.0132856 -0.000711236 0)
(-0.0169676 0.00957575 0)
(-0.0213564 0.0191969 0)
(-0.0268299 0.00863851 0)
(-0.0313234 0.0090295 0)
(-0.0303584 0.0139423 0)
(-0.0307332 0.0206007 0)
(-0.0333614 0.0271563 0)
(-0.0324845 0.0276482 0)
(-0.0167844 0.0216755 0)
(0.00628324 -0.00427501 0)
(0.00188317 -0.0160051 0)
(-1.68081e-05 -0.013471 0)
(0.00378314 -0.0132793 0)
(0.00277226 -0.0220898 0)
(-0.00405142 -0.0162372 0)
(-0.00785104 -0.00857431 0)
(-0.0104687 -0.0101811 0)
(-0.0141027 -0.0125178 0)
(-0.0178474 -0.0137691 0)
(-0.0213461 -0.0130867 0)
(-0.024752 -0.0103523 0)
(-0.0281353 -0.00467378 0)
(-0.031271 0.00362802 0)
(-0.0335669 0.0129739 0)
(-0.0345482 0.018947 0)
(-0.0367502 0.0151272 0)
(-0.0391747 0.0100184 0)
(-0.0384392 0.0123867 0)
(-0.0355987 0.0184575 0)
(-0.0302348 0.0229705 0)
(-0.020944 0.0162621 0)
(-0.0098712 0.00613591 0)
(0.00473296 -0.00988094 0)
(0.00311688 -0.0121949 0)
(0.000816632 -0.0112658 0)
(0.000353323 -0.0119821 0)
(-0.00340343 -0.0146712 0)
(-0.00910712 -0.0113911 0)
(-0.01224 -0.00772631 0)
(-0.0145253 -0.00754685 0)
(-0.0177371 -0.00852762 0)
(-0.0215948 -0.0091807 0)
(-0.0257348 -0.00841317 0)
(-0.0298183 -0.00587503 0)
(-0.0334354 -0.000994735 0)
(-0.0359878 0.00591846 0)
(-0.036669 0.0131558 0)
(-0.0352053 0.0174145 0)
(-0.0336005 0.0159442 0)
(-0.0337859 0.0110013 0)
(-0.0336237 0.0103551 0)
(-0.0300549 0.0130658 0)
(-0.0226051 0.0136737 0)
(-0.0147336 0.00739496 0)
(-0.0108866 0.00130155 0)
(0.00203106 -0.012549 0)
(0.00159754 -0.0112861 0)
(-7.83423e-05 -0.00948951 0)
(-0.00180482 -0.00912392 0)
(-0.0054944 -0.00957337 0)
(-0.00997798 -0.00759948 0)
(-0.0130952 -0.00535443 0)
(-0.0156299 -0.0047861 0)
(-0.0186342 -0.00507831 0)
(-0.0221304 -0.00522183 0)
(-0.0258924 -0.00433397 0)
(-0.0295931 -0.00209873 0)
(-0.0327067 0.00183033 0)
(-0.0344881 0.00708998 0)
(-0.0342555 0.0121477 0)
(-0.0320938 0.0148572 0)
(-0.0294855 0.0139041 0)
(-0.0279036 0.0105932 0)
(-0.0266109 0.00838104 0)
(-0.0236467 0.00804272 0)
(-0.0188298 0.00679386 0)
(-0.0148067 0.00330731 0)
(-0.0141161 0.00149496 0)
(0.00075621 -0.0134731 0)
(-4.86238e-05 -0.0101946 0)
(-0.00160329 -0.00777286 0)
(-0.00356564 -0.00649424 0)
(-0.00661396 -0.00573345 0)
(-0.0100608 -0.00419253 0)
(-0.0129122 -0.00265718 0)
(-0.0154323 -0.00203459 0)
(-0.0181261 -0.0020131 0)
(-0.0210982 -0.00185528 0)
(-0.0242334 -0.000924855 0)
(-0.0272494 0.000999012 0)
(-0.0296497 0.0039625 0)
(-0.0307691 0.00758871 0)
(-0.0302061 0.0107944 0)
(-0.0282142 0.0123034 0)
(-0.0258008 0.0114471 0)
(-0.0239353 0.00896194 0)
(-0.0223665 0.00641802 0)
(-0.0201824 0.00477412 0)
(-0.0174446 0.00332252 0)
(-0.0155572 0.00186268 0)
(-0.0155869 0.0019447 0)
(-0.000170866 -0.0132208 0)
(-0.00147003 -0.00885073 0)
(-0.00313367 -0.00599875 0)
(-0.00509416 -0.00414038 0)
(-0.00757925 -0.00277863 0)
(-0.0102526 -0.00136311 0)
(-0.0126732 -0.000159499 0)
(-0.0149148 0.000438739 0)
(-0.0172217 0.000600824 0)
(-0.0196952 0.000934253 0)
(-0.0222292 0.00181715 0)
(-0.0245295 0.00336042 0)
(-0.0261912 0.00542177 0)
(-0.0268124 0.00770675 0)
(-0.0262074 0.00955686 0)
(-0.0246123 0.0102315 0)
(-0.0226803 0.00937474 0)
(-0.021042 0.00733769 0)
(-0.0197217 0.00482676 0)
(-0.0183769 0.00294209 0)
(-0.0170476 0.00176095 0)
(-0.0163217 0.00138639 0)
(-0.0165425 0.00229676 0)
(-0.000942552 -0.0119024 0)
(-0.00265405 -0.00715982 0)
(-0.00448601 -0.0041351 0)
(-0.00642586 -0.00202288 0)
(-0.00853947 -0.000430347 0)
(-0.010682 0.00091856 0)
(-0.0126727 0.00195379 0)
(-0.0145565 0.00252336 0)
(-0.0164919 0.00278407 0)
(-0.0185091 0.00318502 0)
(-0.0204609 0.00392331 0)
(-0.0221013 0.00501348 0)
(-0.0231747 0.00631748 0)
(-0.0234707 0.0076296 0)
(-0.0229143 0.00854919 0)
(-0.0216913 0.00865825 0)
(-0.020217 0.00776734 0)
(-0.0189179 0.00604018 0)
(-0.0180094 0.00382402 0)
(-0.017391 0.00207752 0)
(-0.0169705 0.00119524 0)
(-0.0169218 0.00137675 0)
(-0.0171986 0.00256157 0)
(-0.00150659 -0.00976165 0)
(-0.00359095 -0.0051355 0)
(-0.00561045 -0.00216566 0)
(-0.00756598 -5.20226e-05 0)
(-0.00947005 0.00154386 0)
(-0.0112763 0.00279414 0)
(-0.0129378 0.00370471 0)
(-0.0145085 0.00424609 0)
(-0.0160857 0.00456487 0)
(-0.0176537 0.00492376 0)
(-0.0190767 0.00544295 0)
(-0.0201919 0.00610668 0)
(-0.0208527 0.00682859 0)
(-0.0209489 0.00745714 0)
(-0.0204668 0.00775332 0)
(-0.0195481 0.00748761 0)
(-0.0184638 0.00656795 0)
(-0.0175131 0.00509904 0)
(-0.0169451 0.00333299 0)
(-0.0167846 0.00187217 0)
(-0.0168968 0.00123754 0)
(-0.0171788 0.00163421 0)
(-0.0174203 0.00270502 0)
(-0.00189537 -0.00701694 0)
(-0.00429978 -0.00280536 0)
(-0.0065044 -7.88087e-05 0)
(-0.00850011 0.00185831 0)
(-0.0102984 0.00331114 0)
(-0.0119072 0.00440641 0)
(-0.0133426 0.00518075 0)
(-0.0146584 0.00566013 0)
(-0.0159087 0.00595323 0)
(-0.017077 0.00620342 0)
(-0.0180779 0.0064891 0)
(-0.0188101 0.00680445 0)
(-0.0191896 0.00709103 0)
(-0.0191673 0.00724726 0)
(-0.0187608 0.00713537 0)
(-0.0180813 0.00663638 0)
(-0.0173159 0.00571857 0)
(-0.0166741 0.00447446 0)
(-0.0163356 0.00311883 0)
(-0.0163725 0.00201089 0)
(-0.0166806 0.00156706 0)
(-0.0170179 0.001925 0)
(-0.0171787 0.00275316 0)
(-0.00215649 -0.00383948 0)
(-0.00480678 -0.000216741 0)
(-0.00716698 0.00212151 0)
(-0.00920936 0.00376019 0)
(-0.0109593 0.00496862 0)
(-0.0124514 0.00585183 0)
(-0.0137289 0.00645467 0)
(-0.0148428 0.00681615 0)
(-0.0158321 0.00700881 0)
(-0.0166922 0.00711665 0)
(-0.0173789 0.00718893 0)
(-0.0178377 0.00722629 0)
(-0.0180274 0.00719301 0)
(-0.0179345 0.00702789 0)
(-0.0175909 0.0066571 0)
(-0.0170848 0.00602696 0)
(-0.0165484 0.0051422 0)
(-0.0161258 0.00408849 0)
(-0.0159363 0.00303463 0)
(-0.0160199 0.0022246 0)
(-0.0162847 0.00190464 0)
(-0.0165391 0.00213898 0)
(-0.0166214 0.00273928 0)
(-0.00232426 -0.000373867 0)
(-0.00513741 0.00256062 0)
(-0.00760567 0.00441325 0)
(-0.00968466 0.00566908 0)
(-0.011409 0.00656465 0)
(-0.0128258 0.00718699 0)
(-0.0139899 0.00757769 0)
(-0.0149513 0.00777179 0)
(-0.015746 0.00781695 0)
(-0.0163825 0.00776354 0)
(-0.0168461 0.00764263 0)
(-0.0171157 0.00745775 0)
(-0.0171786 0.0071903 0)
(-0.0170422 0.00680809 0)
(-0.0167429 0.00627699 0)
(-0.0163505 0.0055811 0)
(-0.0159581 0.00474413 0)
(-0.0156616 0.00384172 0)
(-0.0155327 0.00300022 0)
(-0.0155842 0.0023809 0)
(-0.0157428 0.00212319 0)
(-0.0158741 0.00225382 0)
(-0.0158613 0.00266074 0)
(-0.00242595 0.00326801 0)
(-0.00532318 0.00545219 0)
(-0.00784333 0.00675922 0)
(-0.00993242 0.00757985 0)
(-0.0116301 0.00811752 0)
(-0.0129879 0.00844242 0)
(-0.0140654 0.00858783 0)
(-0.0149126 0.00857993 0)
(-0.0155662 0.00844891 0)
(-0.0160457 0.00822485 0)
(-0.0163561 0.00792739 0)
(-0.0164981 0.00756137 0)
(-0.0164774 0.00711957 0)
(-0.0163125 0.00658877 0)
(-0.0160397 0.00595843 0)
(-0.0157135 0.00523292 0)
(-0.0153992 0.00444323 0)
(-0.0151585 0.00365249 0)
(-0.0150316 0.00295195 0)
(-0.0150164 0.00244504 0)
(-0.0150573 0.00221044 0)
(-0.015063 0.00225591 0)
(-0.0149524 0.00250751 0)
(-0.0024759 0.00700028 0)
(-0.00538641 0.0083846 0)
(-0.00790351 0.00911398 0)
(-0.0099679 0.0094716 0)
(-0.0116234 0.00962594 0)
(-0.0129231 0.00963108 0)
(-0.0139275 0.00951012 0)
(-0.0146862 0.00927955 0)
(-0.0152376 0.0089569 0)
(-0.0156082 0.00855932 0)
(-0.0158153 0.00809896 0)
(-0.015873 0.00758084 0)
(-0.0157977 0.00700445 0)
(-0.0156133 0.00636779 0)
(-0.0153532 0.00567323 0)
(-0.0150599 0.00493457 0)
(-0.014779 0.00418307 0)
(-0.0145496 0.00346899 0)
(-0.0143927 0.00285657 0)
(-0.0143002 0.00241104 0)
(-0.0142306 0.0021759 0)
(-0.0141227 0.00214892 0)
(-0.0139211 0.00227785 0)
(-0.00246792 0.010742 0)
(-0.00533687 0.0112966 0)
(-0.00780386 0.0114318 0)
(-0.009807 0.0113153 0)
(-0.0113988 0.0110776 0)
(-0.012633 0.0107546 0)
(-0.0135689 0.0103583 0)
(-0.014255 0.00989626 0)
(-0.0147301 0.00937635 0)
(-0.0150247 0.00880707 0)
(-0.0151627 0.00819524 0)
(-0.0151656 0.00754517 0)
(-0.0150553 0.00685963 0)
(-0.0148572 0.0061424 0)
(-0.0146012 0.00540184 0)
(-0.0143201 0.00465475 0)
(-0.0140462 0.00392903 0)
(-0.0138041 0.00326318 0)
(-0.013604 0.00270149 0)
(-0.0134362 0.0022844 0)
(-0.0132707 0.00203474 0)
(-0.0130659 0.00194512 0)
(-0.0127847 0.00197678 0)
(-0.00241456 0.0144215 0)
(-0.00518693 0.0141361 0)
(-0.00755635 0.0136678 0)
(-0.00946247 0.0130806 0)
(-0.0109691 0.0124563 0)
(-0.012128 0.0118088 0)
(-0.0129955 0.0111389 0)
(-0.0136179 0.010446 0)
(-0.0140332 0.00973052 0)
(-0.0142734 0.00899479 0)
(-0.0143652 0.00824154 0)
(-0.0143333 0.0074737 0)
(-0.0142015 0.00669498 0)
(-0.0139945 0.00591133 0)
(-0.0137384 0.00513289 0)
(-0.0134589 0.00437587 0)
(-0.0131788 0.0036633 0)
(-0.0129141 0.00302364 0)
(-0.0126693 0.00248671 0)
(-0.0124354 0.00207687 0)
(-0.0121907 0.00180463 0)
(-0.011907 0.00166012 0)
(-0.0115594 0.0016133 0)
(-0.00229334 0.0179634 0)
(-0.00492425 0.016855 0)
(-0.00716023 0.0157837 0)
(-0.00894372 0.014743 0)
(-0.0103485 0.0137475 0)
(-0.0114231 0.0127882 0)
(-0.0122206 0.0118546 0)
(-0.0127843 0.0109386 0)
(-0.0131505 0.0100348 0)
(-0.0133504 0.00914055 0)
(-0.0134114 0.00825533 0)
(-0.0133583 0.00738025 0)
(-0.0132147 0.00651849 0)
(-0.0130035 0.00567595 0)
(-0.0127468 0.00486216 0)
(-0.0124651 0.00409091 0)
(-0.012175 0.00338004 0)
(-0.0118869 0.00274983 0)
(-0.0116027 0.00221964 0)
(-0.011315 0.00180326 0)
(-0.0110082 0.00150379 0)
(-0.0106632 0.00131021 0)
(-0.010263 0.00119831 0)
(-0.00211571 0.021282 0)
(-0.00455136 0.0194029 0)
(-0.00662235 0.0177542 0)
(-0.00826599 0.0162848 0)
(-0.00955561 0.01494 0)
(-0.0105382 0.0136877 0)
(-0.0112633 0.0125063 0)
(-0.0117712 0.0113803 0)
(-0.0120952 0.0102993 0)
(-0.0122646 0.00925672 0)
(-0.0123052 0.00824898 0)
(-0.0122407 0.00727524 0)
(-0.0120929 0.00633731 0)
(-0.0118823 0.0054398 0)
(-0.0116274 0.0045904 0)
(-0.0113446 0.00379978 0)
(-0.0110463 0.00308091 0)
(-0.0107395 0.00244748 0)
(-0.010425 0.00191132 0)
(-0.0100971 0.00147918 0)
(-0.00974468 0.00114958 0)
(-0.00935478 0.000911051 0)
(-0.00891592 0.000743329 0)
(-0.00191401 0.0243106 0)
(-0.0041049 0.0217292 0)
(-0.00597417 0.0195556 0)
(-0.00745513 0.0176892 0)
(-0.0086144 0.0160229 0)
(-0.0094967 0.0145022 0)
(-0.0101469 0.0130936 0)
(-0.0106006 0.0117749 0)
(-0.0108873 0.010531 0)
(-0.0110331 0.00935186 0)
(-0.0110612 0.00823137 0)
(-0.0109929 0.00716664 0)
(-0.0108475 0.00615774 0)
(-0.0106426 0.00520746 0)
(-0.0103938 0.00432113 0)
(-0.010114 0.00350622 0)
(-0.00981261 0.00277141 0)
(-0.00949478 0.00212523 0)
(-0.00916081 0.00157402 0)
(-0.00880642 0.00111973 0)
(-0.00842398 0.000758012 0)
(-0.00800454 0.000477283 0)
(-0.00754038 0.000260018 0)
(-0.00169422 0.027013 0)
(-0.00361142 0.0237955 0)
(-0.00524634 0.0211571 0)
(-0.0065378 0.0189356 0)
(-0.00755004 0.016984 0)
(-0.0083239 0.0152258 0)
(-0.00889677 0.0136156 0)
(-0.00929769 0.012125 0)
(-0.0095511 0.0107347 0)
(-0.00967887 0.00943221 0)
(-0.00970085 0.00820916 0)
(-0.00963515 0.00706083 0)
(-0.00949821 0.0059855 0)
(-0.00930472 0.004984 0)
(-0.00906739 0.00405929 0)
(-0.00879644 0.00321589 0)
(-0.00849914 0.00245892 0)
(-0.00817931 0.00179284 0)
(-0.00783716 0.00122001 0)
(-0.00746968 0.00073907 0)
(-0.00707156 0.000343798 0)
(-0.0066367 2.26842e-05 0)
(-0.00615997 -0.00023986 0)
(-0.00146459 0.0293652 0)
(-0.00308645 0.0255748 0)
(-0.00445826 0.0225278 0)
(-0.00553511 0.0200019 0)
(-0.00638549 0.0178115 0)
(-0.00704497 0.0158539 0)
(-0.00753974 0.0140722 0)
(-0.00789003 0.012433 0)
(-0.00811402 0.0109147 0)
(-0.00822879 0.009503 0)
(-0.00825023 0.00818801 0)
(-0.008193 0.0069635 0)
(-0.00807039 0.00582612 0)
(-0.0078942 0.00477491 0)
(-0.00767447 0.00381073 0)
(-0.00741916 0.00293557 0)
(-0.00713387 0.00215166 0)
(-0.00682149 0.0014604 0)
(-0.00648229 0.000861218 0)
(-0.00611418 0.000350438 0)
(-0.00571352 -7.94052e-05 0)
(-0.00527617 -0.000439708 0)
(-0.00479879 -0.000744638 0)
(-0.00123366 0.0313498 0)
(-0.0025417 0.0270435 0)
(-0.003624 0.0236378 0)
(-0.0044637 0.0208676 0)
(-0.00514168 0.0184972 0)
(-0.00568521 0.0163851 0)
(-0.00610371 0.0144649 0)
(-0.0064066 0.0127022 0)
(-0.00660531 0.0110754 0)
(-0.0067119 0.00956932 0)
(-0.00673813 0.0081734 0)
(-0.00669499 0.00688029 0)
(-0.00659253 0.00568538 0)
(-0.00643967 0.00458623 0)
(-0.00624396 0.00358199 0)
(-0.0060114 0.00267267 0)
(-0.00574616 0.00185831 0)
(-0.00545049 0.00113801 0)
(-0.00512467 0.000509064 0)
(-0.00476735 -3.38243e-05 0)
(-0.00437605 -0.000498978 0)
(-0.003948 -0.000897693 0)
(-0.00348099 -0.00124309 0)
(-0.00100495 0.0329613 0)
(-0.00197802 0.0281829 0)
(-0.00274937 0.0244587 0)
(-0.00333659 0.0215163 0)
(-0.00383993 0.0190393 0)
(-0.00427163 0.0168217 0)
(-0.00461809 0.0147973 0)
(-0.00487755 0.0129369 0)
(-0.00505525 0.0112214 0)
(-0.00515845 0.00963632 0)
(-0.00519469 0.00817086 0)
(-0.0051712 0.00681702 0)
(-0.00509471 0.00556934 0)
(-0.00497125 0.00442437 0)
(-0.00480603 0.00338003 0)
(-0.00460322 0.00243493 0)
(-0.00436582 0.00158754 0)
(-0.0040955 0.00083537 0)
(-0.00379261 0.000174205 0)
(-0.00345634 -0.000402413 0)
(-0.00308505 -0.000903436 0)
(-0.00267689 -0.00134008 0)
(-0.00223039 -0.00172476 0)
(-0.000719812 0.0341783 0)
(-0.00133402 0.0289804 0)
(-0.00181257 0.0249924 0)
(-0.00217162 0.0219509 0)
(-0.00251169 0.0194415 0)
(-0.0028357 0.0171684 0)
(-0.00311362 0.0150733 0)
(-0.00333305 0.0131411 0)
(-0.00349386 0.0113574 0)
(-0.00359853 0.0097092 0)
(-0.00365016 0.008186 0)
(-0.00365203 0.00677962 0)
(-0.0036074 0.00548421 0)
(-0.00351942 0.00429583 0)
(-0.00339102 0.00321177 0)
(-0.00322468 0.00222984 0)
(-0.00302236 0.00134758 0)
(-0.00278526 0.000561463 0)
(-0.0025138 -0.000133715 0)
(-0.00220762 -0.000745234 0)
(-0.00186574 -0.00128254 0)
(-0.00148692 -0.00175687 0)
(-0.00107012 -0.00218019 0)
(-0.000284229 0.0349153 0)
(-0.000541533 0.0294379 0)
(-0.00078842 0.0252898 0)
(-0.000978149 0.0222102 0)
(-0.00118507 0.0197138 0)
(-0.00140684 0.0174283 0)
(-0.00161768 0.0152953 0)
(-0.00180023 0.0133182 0)
(-0.00194889 0.0114879 0)
(-0.0020607 0.00979337 0)
(-0.00213382 0.00822469 0)
(-0.00216721 0.00677415 0)
(-0.00216058 0.00543618 0)
(-0.00211419 0.00420696 0)
(-0.00202874 0.0030838 0)
(-0.00190516 0.00206435 0)
(-0.00174445 0.00114581 0)
(-0.00154751 0.000324175 0)
(-0.00131485 -0.000406324 0)
(-0.00104657 -0.00105356 0)
(-0.000742224 -0.0016274 0)
(-0.000401032 -0.00213927 0)
(-2.21292e-05 -0.00260096 0)
(0.000270891 0.034959 0)
(0.000363272 0.0295902 0)
(0.000309053 0.0254098 0)
(0.000246737 0.0223472 0)
(0.000138567 0.019878 0)
(3.61182e-06 0.0176063 0)
(-0.000146599 0.0154673 0)
(-0.000299558 0.0134736 0)
(-0.000444074 0.0116193 0)
(-0.000570982 0.00989544 0)
(-0.00067311 0.00829352 0)
(-0.000745056 0.00680705 0)
(-0.000782962 0.00543148 0)
(-0.0007843 0.00416385 0)
(-0.000747671 0.00300216 0)
(-0.000672595 0.00194457 0)
(-0.000559287 0.000988549 0)
(-0.000408398 0.00013013 0)
(-0.000220714 -0.000636661 0)
(3.16953e-06 -0.00132009 0)
(0.000263138 -0.00193051 0)
(0.000559625 -0.00247974 0)
(0.000893481 -0.0029797 0)
(0.000824818 0.034262 0)
(0.00129917 0.029427 0)
(0.00144789 0.0253778 0)
(0.0014956 0.0223936 0)
(0.00146874 0.0199581 0)
(0.0014013 0.0177159 0)
(0.00129336 0.0156011 0)
(0.00115407 0.0136181 0)
(0.00100027 0.0117615 0)
(0.000847033 0.0100244 0)
(0.000706475 0.00840046 0)
(0.000587998 0.00688539 0)
(0.000498664 0.00547646 0)
(0.000443503 0.00417233 0)
(0.000425774 0.00297234 0)
(0.000447203 0.0018758 0)
(0.000508217 0.000881046 0)
(0.000608239 -1.53386e-05 0)
(0.000746071 -0.000819169 0)
(0.000920424 -0.00153897 0)
(0.00113053 -0.00218572 0)
(0.0013765 -0.00277193 0)
(0.00165932 -0.00331002 0)
(0.00128124 0.0328966 0)
(0.00217455 0.0288924 0)
(0.00257607 0.0251764 0)
(0.00275927 0.0223444 0)
(0.00281399 0.0199683 0)
(0.00278983 0.0177819 0)
(0.0026947 0.0157191 0)
(0.00254541 0.0137701 0)
(0.00236424 0.0119291 0)
(0.00217086 0.0101917 0)
(0.00198119 0.00855476 0)
(0.00180774 0.00701677 0)
(0.00166011 0.00557754 0)
(0.00154533 0.00423793 0)
(0.00146822 0.00299925 0)
(0.00143156 0.0018625 0)
(0.0014363 0.000827466 0)
(0.0014818 -0.000108182 0)
(0.00156626 -0.000949701 0)
(0.00168741 -0.00170574 0)
(0.00184359 -0.00238817 0)
(0.00203457 -0.0030107 0)
(0.00226165 -0.00358664 0)
(0.0016673 0.0309383 0)
(0.00299379 0.0279679 0)
(0.00368689 0.0247578 0)
(0.00403773 0.0221751 0)
(0.00416573 0.0199252 0)
(0.00415251 0.0178361 0)
(0.00403817 0.0158498 0)
(0.00385344 0.0139521 0)
(0.00362582 0.0121391 0)
(0.00337824 0.0104102 0)
(0.00312907 0.0087661 0)
(0.00289283 0.0072087 0)
(0.00268074 0.00574076 0)
(0.0025013 0.0043657 0)
(0.0023605 0.00308717 0)
(0.00226206 0.00190834 0)
(0.00220742 0.000830978 0)
(0.00219589 -0.000145589 0)
(0.00222486 -0.00102552 0)
(0.00229067 -0.00181738 0)
(0.00239032 -0.00253435 0)
(0.00252322 -0.00319214 0)
(0.00269123 -0.00380548 0)
(0.0020929 0.0283983 0)
(0.00387478 0.0266551 0)
(0.00483968 0.0241035 0)
(0.0053257 0.0218919 0)
(0.00549 0.019857 0)