/*--------------------------------*- C++ -*----------------------------------*\
  =========                 |
  \\      /  F ield         | OpenFOAM: The Open Source CFD Toolbox
   \\    /   O peration     | Website:  https://openfoam.org
    \\  /    A nd           | Version:  9
     \\/     M anipulation  |
\*---------------------------------------------------------------------------*/
FoamFile
{
    format      ascii;
    class       volScalarField;
    location    "5.72";
    object      epsilon;
}
// * * * * * * * * * * * * * * * * * * * * * * * * * * * * * * * * * * * * * //

dimensions      [0 2 -3 0 0 0 0];

internalField   nonuniform List<scalar> 
2268
(
0.000342305
0.00173029
0.00301659
0.00417245
0.00520649
0.00613404
0.00697402
0.00773912
0.00843723
0.00907388
0.00965844
0.0102044
0.0107152
0.0111665
0.0114641
0.011374
0.0104662
0.00895097
0.00739012
0.00634105
0.00532082
0.00375065
0.00108802
0.000683434
0.00118393
0.00173889
0.00225296
0.00271571
0.00312971
0.00350007
0.00383179
0.00412934
0.00439692
0.00463965
0.00486094
0.0050567
0.00521444
0.00530272
0.00525688
0.00499299
0.0046204
0.00412681
0.00361283
0.00303681
0.0024256
0.0017839
0.00114698
0.00125116
0.00162097
0.00198995
0.00232888
0.00263353
0.00290528
0.00314709
0.0033624
0.00355478
0.0037279
0.00388348
0.00401787
0.00412209
0.00417739
0.00415162
0.00401637
0.00381879
0.00354521
0.00323738
0.00292751
0.00270099
0.00294552
0.00159897
0.00139406
0.00165698
0.00195247
0.00223241
0.00248678
0.00271439
0.00291693
0.00309715
0.00325811
0.0034027
0.00353202
0.00364332
0.00372979
0.00377875
0.00377146
0.00369636
0.00357708
0.00341337
0.00324383
0.0031302
0.00320259
0.00424326
0.00202926
0.00155936
0.00174241
0.00198794
0.00222978
0.00245268
0.00265342
0.00283269
0.00299269
0.00313608
0.00326528
0.00338122
0.00348191
0.00356228
0.00361351
0.00362421
0.00358943
0.00352391
0.00343878
0.00337911
0.00343524
0.0038146
0.00585091
0.0024417
0.00173368
0.00185093
0.00205796
0.00227134
0.00247121
0.00265263
0.00281554
0.00296175
0.00309359
0.00321325
0.00332166
0.00341752
0.00349712
0.00355442
0.00358254
0.00357972
0.00355787
0.00353678
0.00356958
0.0037821
0.00451917
0.00796272
0.00284255
0.0019129
0.001973
0.00214844
0.00233878
0.00252001
0.00268588
0.00283582
0.00297138
0.00309471
0.00320786
0.00331189
0.00340605
0.00348773
0.00355288
0.0035975
0.00362157
0.00363647
0.00366828
0.00377715
0.00412684
0.0052807
0.0110976
0.00324639
0.00209716
0.00210507
0.00225358
0.00242423
0.00258919
0.00274128
0.00287981
0.00300623
0.00312258
0.00323088
0.00333234
0.00342665
0.00351201
0.00358569
0.00364535
0.00369218
0.00373752
0.00381048
0.0039749
0.0044181
0.0059464
0.0177122
0.000932173
0.00408103
0.00649027
0.00781803
0.00849687
0.00878935
0.00895963
0.00916371
0.00938546
0.00899508
0.00740032
0.00576465
0.00424727
0.00481778
0.00680986
0.00649645
0.00431697
0.0024495
0.000929178
0.00108813
0.00235572
0.00325171
0.00377438
0.00405775
0.00419073
0.00425211
0.00429295
0.00429983
0.00413191
0.0037374
0.003313
0.00289875
0.00289824
0.00307708
0.00287696
0.00222493
0.00158692
0.00111594
0.00174585
0.00234633
0.00284135
0.00312917
0.00328709
0.00336182
0.00339236
0.00340222
0.00337465
0.00324208
0.00302254
0.00279192
0.0025622
0.00247275
0.00245492
0.0022729
0.00188345
0.00148091
0.00144741
0.00263094
0.00264476
0.00285595
0.00298675
0.00305976
0.00309065
0.0030969
0.00308755
0.00304316
0.0029214
0.00275351
0.00258789
0.0024284
0.00235076
0.00227058
0.00208483
0.00178275
0.00147271
0.00163201
0.00373948
0.00309149
0.00301652
0.00300848
0.00300903
0.00300053
0.00298315
0.00295587
0.00289818
0.00277962
0.00263491
0.00250232
0.00239267
0.00233898
0.0022236
0.00202774
0.00175671
0.00149454
0.00175847
0.00529154
0.00363217
0.00323902
0.00310102
0.00303681
0.00299177
0.00295075
0.00290533
0.00283519
0.00271687
0.00258902
0.00248518
0.00241535
0.00236885
0.00223443
0.00202524
0.00175932
0.00152454
0.00184575
0.00791907
0.00422919
0.00347605
0.00322333
0.00310353
0.00302537
0.00296116
0.00289747
0.00281539
0.0026975
0.00258584
0.00251121
0.00246684
0.00241065
0.00226862
0.00204595
0.00177414
0.00155335
0.00190083
0.0139193
0.0047671
0.00368802
0.00335264
0.00318937
0.00308242
0.00299639
0.00291493
0.00282192
0.00270623
0.0026089
0.00255735
0.00252298
0.00245155
0.00230702
0.00207697
0.00180056
0.00158212
0.00193716
0.00384749
0.0023796
0.0023182
0.00243326
0.00257811
0.00272029
0.00285218
0.00297373
0.00308687
0.00319358
0.00329582
0.00339497
0.00349111
0.00358343
0.00367051
0.00375128
0.00382782
0.00391134
0.00403027
0.00424378
0.00470603
0.00584757
0.00916069
0.00462103
0.00276746
0.00264046
0.00273122
0.00284833
0.00295907
0.00305872
0.00315264
0.00324517
0.00333824
0.00343284
0.0035299
0.00362965
0.0037321
0.00383618
0.00393989
0.00404278
0.00415226
0.00428957
0.00449356
0.00484373
0.00548015
0.00657571
0.00538237
0.00319393
0.00302493
0.00312427
0.00321533
0.00328182
0.00332718
0.00337646
0.00343877
0.00351309
0.0035969
0.0036896
0.00379153
0.0039034
0.00402453
0.0041506
0.00427434
0.00439615
0.00453428
0.00470486
0.00494178
0.00528023
0.00569676
0.00632457
0.00367736
0.00350501
0.0036949
0.00373452
0.00372775
0.00367432
0.00365167
0.0036717
0.00371981
0.00378613
0.00386952
0.00397077
0.00409173
0.00423297
0.00438777
0.00453322
0.0046536
0.00479952
0.00493427
0.00507853
0.00525203
0.00543153
0.00779105
0.00406885
0.004016
0.00417201
0.00395414
0.00392886
0.00387255
0.00384327
0.00386141
0.00391071
0.00397525
0.00405702
0.00416209
0.00429873
0.00447423
0.00468498
0.00487216
0.00494492
0.00505418
0.00518023
0.00522674
0.00526766
0.0053242
0.00812356
0.00421027
0.00401893
0.00400869
0.0039517
0.00403807
0.0039683
0.00392866
0.0039538
0.00401725
0.0041042
0.00421089
0.00434009
0.00450597
0.00471776
0.00496187
0.00512724
0.00509755
0.00512393
0.00519215
0.00524414
0.00527986
0.00528376
0.00719852
0.00419256
0.00399351
0.00405723
0.00398569
0.00403694
0.00399969
0.00398445
0.00401201
0.00407942
0.00417463
0.00429149
0.00442772
0.00458134
0.00473883
0.0048778
0.00497921
0.00499886
0.0050484
0.00511487
0.00517211
0.00518456
0.00519266
0.00748796
0.00408263
0.00383502
0.00385284
0.003901
0.00393456
0.00396205
0.00400041
0.0040543
0.00412948
0.00422344
0.00433175
0.00444984
0.00456868
0.00467687
0.00477178
0.00485367
0.00490609
0.00498308
0.00506121
0.00508661
0.00507404
0.00508832
0.00750178
0.00407289
0.00375539
0.00373339
0.00379083
0.00384526
0.00390681
0.00397864
0.00405751
0.00414661
0.00424585
0.0043518
0.00445845
0.00455637
0.00463821
0.00470448
0.00476229
0.0048212
0.00489049
0.00494464
0.00495447
0.00495241
0.0049546
0.00748237
0.00417002
0.00374574
0.00367938
0.00371886
0.00378249
0.00385942
0.00394544
0.00403647
0.00413327
0.00423497
0.00433761
0.00443473
0.00451901
0.00458644
0.00463912
0.00468675
0.00473894
0.00479121
0.00482685
0.00484081
0.00484427
0.00483534
0.00774157
0.00428571
0.00377041
0.00366637
0.00368472
0.00374494
0.00382409
0.00391282
0.0040063
0.00410331
0.00420183
0.00429791
0.00438642
0.0044628
0.00452522
0.00457622
0.0046226
0.00466902
0.00471105
0.00474061
0.00475626
0.00475832
0.00474286
0.00815153
0.00439583
0.0038141
0.00367779
0.00367632
0.00372721
0.00380169
0.00388723
0.00397786
0.00407072
0.00416314
0.004252
0.0043341
0.00440681
0.00446917
0.00452274
0.00457088
0.00461514
0.00465278
0.00467996
0.00469486
0.00469526
0.00467877
0.00852001
0.00450671
0.003867
0.0037023
0.00368282
0.0037226
0.00378976
0.00386985
0.00395563
0.00404315
0.00412962
0.00421283
0.00429085
0.00436209
0.00442575
0.00448224
0.00453255
0.00457674
0.00461308
0.00463937
0.00465383
0.00465443
0.00464012
0.00883058
0.00460858
0.00392076
0.00373188
0.00369657
0.00372552
0.00378495
0.0038592
0.00394005
0.00402294
0.00410515
0.00418489
0.0042608
0.00433171
0.0043968
0.00445566
0.00450804
0.00455329
0.00459011
0.00461698
0.00463243
0.00463518
0.00462487
0.00909536
0.00469891
0.00397113
0.00376191
0.00371304
0.00373229
0.00378461
0.00385355
0.00393032
0.00401004
0.0040899
0.00416816
0.0042436
0.00431517
0.00438194
0.0044431
0.00449782
0.00454514
0.00458394
0.00461303
0.00463133
0.00463806
0.00463313
0.00932599
0.00477867
0.00401662
0.00379017
0.00372986
0.00374087
0.00378719
0.00385185
0.00392578
0.00400385
0.00408306
0.00416157
0.00423807
0.00431146
0.00438073
0.00444486
0.00450283
0.00455356
0.00459602
0.0046292
0.0046523
0.00466478
0.00466658
0.00953296
0.00484931
0.0040569
0.00381572
0.0037459
0.00375024
0.00379193
0.00385364
0.00392611
0.00400402
0.00408416
0.00416452
0.00424362
0.00432029
0.00439342
0.00446189
0.00452462
0.00458053
0.0046286
0.00466794
0.00469785
0.00471785
0.00472781
0.00972018
0.00491152
0.00409191
0.00383816
0.00376067
0.00375999
0.00379859
0.00385886
0.00393137
0.00401065
0.00409333
0.00417718
0.00426062
0.00434232
0.0044211
0.00449581
0.0045653
0.0046285
0.0046844
0.00473212
0.00477093
0.00480032
0.00482001
0.00988718
0.00496531
0.00412159
0.00385735
0.00377403
0.00377006
0.00380724
0.00386771
0.00394191
0.00402425
0.00411121
0.00420041
0.00429013
0.00437894
0.00446556
0.00454878
0.00462743
0.00470037
0.00476656
0.00482505
0.00487502
0.00491584
0.00494707
0.0100323
0.00501039
0.00414589
0.0038733
0.00378603
0.00378057
0.00381813
0.00388062
0.00395835
0.00404563
0.00413885
0.00423551
0.00433376
0.00443207
0.00452907
0.00462347
0.00471401
0.00479948
0.00487872
0.00495065
0.00501433
0.00506893
0.00511382
0.0101549
0.00504657
0.00416483
0.00388616
0.0037969
0.00379187
0.00383173
0.00389819
0.00398148
0.00407585
0.00417759
0.00428412
0.00439349
0.00450406
0.00461436
0.004723
0.00482858
0.00492976
0.00502521
0.00511367
0.00519398
0.00526513
0.00532624
0.0102554
0.00507384
0.00417861
0.00389624
0.00380704
0.00380444
0.00384865
0.00392122
0.00401233
0.00411617
0.00422899
0.00434816
0.00447162
0.00459764
0.00472462
0.00485102
0.0049753
0.00509589
0.00521124
0.00531987
0.00542033
0.00551135
0.00559178
0.0103306
0.00509209
0.00418752
0.00390396
0.00381698
0.00381892
0.00386965
0.00395064
0.00405204
0.00416804
0.00429485
0.00442981
0.00457078
0.00471594
0.00486354
0.00501186
0.00515913
0.00530352
0.0054432
0.00557635
0.0057012
0.00581612
0.00591967
0.0103775
0.00510146
0.00419204
0.0039099
0.00382737
0.00383605
0.00389562
0.00398753
0.00410195
0.00423308
0.00437719
0.00453155
0.004694
0.00486261
0.00503546
0.00521061
0.00538602
0.00555952
0.00572888
0.00589185
0.00604626
0.00619004
0.00632136
0.0103991
0.00510287
0.00419283
0.00391471
0.00383891
0.00385664
0.00392753
0.00403306
0.00416348
0.0043131
0.00447822
0.00465615
0.0048447
0.00504182
0.00524544
0.00545335
0.00566314
0.00587221
0.00607781
0.00627716
0.0064675
0.00664624
0.00681103
0.0104013
0.00509767
0.00419071
0.00391912
0.00385238
0.00388158
0.0039664
0.00408847
0.00423819
0.00441002
0.00460038
0.00480668
0.00502673
0.00525841
0.00549945
0.00574731
0.00599913
0.00625175
0.00650173
0.00674556
0.00697974
0.00720095
0.00740623
0.0103877
0.00508699
0.00418644
0.00392387
0.00386857
0.00391174
0.00401328
0.00415504
0.00432767
0.00452587
0.00474631
0.00498654
0.00524446
0.00551791
0.00580441
0.00610105
0.00640439
0.00671049
0.00701504
0.00731349
0.00760135
0.00787435
0.00812875
0.0103606
0.00507161
0.00418071
0.00392964
0.00388822
0.00394801
0.0040692
0.00423402
0.00443351
0.00466274
0.00491874
0.00519936
0.00550269
0.00582659
0.00616839
0.00652472
0.00689139
0.00726346
0.00763538
0.00800121
0.00835509
0.00869136
0.00900509
0.0103193
0.00505163
0.00417396
0.00393705
0.00391207
0.00399119
0.00413513
0.00432662
0.00455725
0.00482267
0.00512047
0.00544898
0.00580665
0.00619147
0.00660062
0.00703019
0.00747504
0.00792884
0.00838436
0.0088337
0.00926896
0.00968289
0.0100685
0.0102553
0.00502623
0.00416655
0.00394674
0.00394083
0.00404208
0.00421193
0.00443387
0.00470025
0.00500756
0.00535418
0.00573926
0.00616182
0.00662019
0.00711146
0.00763113
0.00817286
0.00872841
0.00928809
0.00984136
0.0103776
0.010887
0.0113602
0.0101525
0.00499544
0.00415928
0.00395947
0.00397523
0.00410135
0.00430033
0.0045566
0.00486359
0.00521893
0.00562224
0.00607379
0.00657363
0.00712069
0.00771216
0.00834287
0.00900491
0.00968764
0.010378
0.0110617
0.0117239
0.012351
0.0129309
0.010038
0.00496692
0.00415439
0.00397631
0.00401602
0.00416967
0.00440088
0.00469532
0.00504787
0.00545775
0.00592628
0.00645545
0.00704681
0.00770044
0.00841397
0.00918165
0.00999376
0.0108364
0.0116919
0.0125402
0.0133607
0.0141338
0.0148438
0.00989776
0.00493622
0.00415081
0.00399727
0.0040636
0.00424744
0.00451381
0.00485005
0.00525295
0.00572394
0.0062667
0.00688565
0.00758466
0.0083657
0.00922746
0.010164
0.0111636
0.0122082
0.0132737
0.0143317
0.0153526
0.0163082
0.0171773
0.00971975
0.00489704
0.00414734
0.00402295
0.00411898
0.00433541
0.0046393
0.00502029
0.00547777
0.00601605
0.00664202
0.00736348
0.00818771
0.00911969
0.0101603
0.0113043
0.0125383
0.0138392
0.0151742
0.0165024
0.0177801
0.0189659
0.0200302
0.00949282
0.00484683
0.00414518
0.00405603
0.00418481
0.00443531
0.00477779
0.0052051
0.00572004
0.00633067
0.00704799
0.00788439
0.00885188
0.00996022
0.0112144
0.0126116
0.0141381
0.0157659
0.0174505
0.0191324
0.0207446
0.0222239
0.0235281
0.00918918
0.00478604
0.00415069
0.004104
0.00426714
0.00455075
0.00493023
0.00540291
0.00597589
0.00666177
0.00747662
0.00843862
0.00956633
0.0108766
0.0123815
0.0140844
0.0159748
0.0180213
0.0201655
0.0223196
0.0243769
0.0262357
0.0278344
0.00875975
0.00472365
0.00418381
0.00418509
0.00437863
0.00468845
0.00509829
0.00561128
0.00623935
0.00700003
0.00791514
0.00900979
0.010311
0.0118459
0.0136381
0.0157037
0.0180425
0.0206267
0.0233838
0.026185
0.0288523
0.0312093
0.0331662
0.00813821
0.0047158
0.00430525
0.00434181
0.00454339
0.00485913
0.00528385
0.00582611
0.00650167
0.00733226
0.00834534
0.00957373
0.0110548
0.0128294
0.0149393
0.0174227
0.0203045
0.0235762
0.0271624
0.0308791
0.034418
0.0374378
0.0398167
0.0076269
0.00508686
0.00470522
0.00466891
0.00480213
0.00507604
0.00548672
0.00604005
0.00675047
0.00764107
0.00874361
0.0100985
0.0117548
0.0137704
0.0162123
0.0191547
0.0226705
0.0268057
0.0315203
0.0365824
0.041448
0.0453521
0.0481854
0.0154511
0.00788681
0.0060008
0.00535967
0.00520778
0.0053459
0.0056988
0.00623973
0.00696901
0.00790534
0.00908209
0.010546
0.0123578
0.0145945
0.0173539
0.0207603
0.0249657
0.030132
0.0363571
0.0434686
0.0505748
0.0556121
0.0588083
0.154091
0.0268996
0.0101441
0.00671146
0.00577816
0.00564376
0.0058942
0.00640281
0.00713612
0.00810171
0.00933143
0.0108762
0.0128063
0.0152163
0.0182349
0.022043
0.0268966
0.0331506
0.0412439
0.0514957
0.0630754
0.0692476
0.0723562
1.53852
0.129671
0.0209058
0.00866515
0.00633965
0.00587321
0.00602175
0.00649854
0.00722877
0.00820789
0.00946511
0.0110532
0.0130479
0.0155545
0.0187225
0.022774
0.0280542
0.0351254
0.044959
0.0593786
0.0821836
0.0877448
0.0895008
0.0203512
0.0168058
0.0171557
0.0213163
0.00768817
0.00772152
0.00762347
0.00736643
0.00590882
0.00592583
0.00584133
0.0056564
0.00543805
0.00541768
0.00537338
0.0052777
0.00529118
0.0052536
0.00520988
0.00514578
0.00522079
0.0051905
0.00517058
0.00514581
0.00516093
0.0051342
0.0051153
0.00506842
0.00506769
0.00504088
0.00499445
0.00493405
0.00493396
0.00490645
0.00486502
0.00481569
0.00480862
0.00478357
0.00475091
0.00471278
0.00471557
0.00469318
0.00466591
0.00463453
0.00465391
0.00463427
0.00461074
0.00458372
0.00461896
0.00460221
0.004582
0.00455859
0.00460803
0.00459438
0.00457751
0.00455762
0.00462118
0.00461088
0.00459753
0.00458127
0.0046602
0.00465359
0.00464403
0.00463163
0.00472778
0.00472531
0.00471993
0.00471171
0.00482729
0.00482951
0.0048288
0.00482522
0.00496281
0.0049704
0.00497501
0.00497665
0.0051394
0.00515322
0.00516393
0.00517154
0.00536338
0.00538445
0.00540226
0.00541677
0.00564257
0.00567219
0.00569831
0.0057209
0.00598667
0.00602643
0.00606239
0.00609446
0.00640774
0.00645956
0.00650717
0.00655043
0.00692063
0.00698685
0.00704829
0.00710484
0.0075437
0.0076271
0.00770505
0.00777741
0.00829952
0.00840349
0.00850115
0.00859231
0.00921596
0.00934461
0.00946577
0.00957924
0.0103276
0.0104857
0.0106348
0.0107746
0.0116771
0.0118703
0.0120524
0.0122231
0.013317
0.013552
0.0137728
0.0139794
0.0153125
0.0155966
0.0158625
0.0161105
0.0177443
0.0180858
0.0184038
0.0186985
0.0207132
0.0211213
0.0214983
0.0218449
0.0243468
0.0248308
0.025273
0.0256754
0.0288088
0.0293765
0.0298879
0.0303469
0.0343118
0.0349664
0.0355453
0.0360555
0.0411339
0.0418674
0.0425003
0.0430456
0.0496368
0.0504174
0.05107
0.0516163
0.0602755
0.0610287
0.0616333
0.0621217
0.0735758
0.0741636
0.0746121
0.0749597
0.0900309
0.0902629
0.0904283
0.0905505
0.00770005
0.00482126
0.00392574
0.00354585
0.00333639
0.00319231
0.00307558
0.00296867
0.00286086
0.00275034
0.00266884
0.0026324
0.00259375
0.00250249
0.00235815
0.00213413
0.00187004
0.0016468
0.0020076
0.00584375
0.00469444
0.00410371
0.00376765
0.00354211
0.00337024
0.00322509
0.00309428
0.00297339
0.0028647
0.00278108
0.0027256
0.00266529
0.00256916
0.00244174
0.00227081
0.00208145
0.00190774
0.00237259
0.00520354
0.00464057
0.00425297
0.00397643
0.00374902
0.00356553
0.00340396
0.00325897
0.00313166
0.00302085
0.00293048
0.00286079
0.00278977
0.00269735
0.00259932
0.0025117
0.00245504
0.00245425
0.00337142
0.00502648
0.00468608
0.00443509
0.00421539
0.00397134
0.00379521
0.0036241
0.00346552
0.0033342
0.00322447
0.00313571
0.00307459
0.00301519
0.00292257
0.0028462
0.00285169
0.00297356
0.00330322
0.00549994
0.00499494
0.00476757
0.00461678
0.00443304
0.00420625
0.00406188
0.00384955
0.00365048
0.00350113
0.00338142
0.00327419
0.00319772
0.00315218
0.00309049
0.00302785
0.00306334
0.00329056
0.00398096
0.00949161
0.00502757
0.00484675
0.00473982
0.00458553
0.00434738
0.00418391
0.00395809
0.0037446
0.00357696
0.00344399
0.00332566
0.0032152
0.00313184
0.00306659
0.003031
0.00310682
0.00340817
0.00405366
0.00903059
0.00495028
0.0048036
0.00472215
0.00463745
0.00439089
0.00422596
0.00402461
0.00382915
0.00366286
0.00352068
0.00338495
0.00325013
0.0031443
0.0030779
0.00304673
0.00314604
0.00346514
0.00400868
0.00692038
0.0048319
0.00470869
0.00461532
0.00452316
0.00435556
0.00420676
0.00405822
0.0039003
0.00373969
0.003586
0.00343543
0.00328451
0.00315432
0.00306239
0.00302113
0.00308705
0.00333008
0.00393991
0.00601954
0.0047311
0.004618
0.0045126
0.00440382
0.00427537
0.00415567
0.0040449
0.00391398
0.00375551
0.00360079
0.0034525
0.00330161
0.00316254
0.00304803
0.00297249
0.00297417
0.00311563
0.00358545
0.00563913
0.00464436
0.00454213
0.00443751
0.00433045
0.0042199
0.00411197
0.00400965
0.00388336
0.00373074
0.0035859
0.00344006
0.00328745
0.00314754
0.0030228
0.00292066
0.0028723
0.00293403
0.00327824
0.00554981
0.00457731
0.00448644
0.00438945
0.00429052
0.00418942
0.00408354
0.00397524
0.00384712
0.00370608
0.00356824
0.00342011
0.00326374
0.00312034
0.00299146
0.00287944
0.00280593
0.00282129
0.00308116
0.00516029
0.00453404
0.00445322
0.00436473
0.00427256
0.00417588
0.00407045
0.00395739
0.00383207
0.00369788
0.003562
0.00341773
0.0032658
0.00312004
0.00298261
0.00285752
0.00276633
0.00275605
0.00291677
0.00489784
0.00451504
0.00444289
0.00436188
0.00427425
0.00417947
0.00407568
0.00396367
0.00384244
0.00371334
0.00358318
0.00344883
0.00330571
0.00316034
0.00301799
0.00288476
0.00277735
0.00273796
0.00280504
0.00113173
0.00451997
0.00445605
0.0043823
0.00429932
0.00420719
0.00410617
0.00399748
0.00388113
0.00375886
0.00363559
0.00351008
0.00337606
0.00323611
0.00309946
0.00297498
0.00287767
0.00284805
0.00295068
0.00469292
0.00454969
0.00449419
0.0044281
0.00435123
0.00426379
0.00416697
0.00406241
0.00395122
0.00383505
0.00371688
0.00359667
0.00347087
0.00334148
0.0032182
0.0031131
0.00304586
0.00306543
0.00332117
0.00497596
0.00460645
0.00455971
0.00450175
0.00443218
0.00435114
0.00425989
0.00416027
0.00405391
0.00394244
0.00382791
0.00371114
0.00359156
0.00347232
0.00336291
0.00327794
0.00324188
0.00331092
0.00368677
0.00596094
0.00469344
0.00465596
0.00460667
0.00454515
0.00447149
0.00438674
0.0042926
0.00419084
0.00408316
0.0039714
0.00385709
0.00374173
0.00362975
0.00353097
0.00346205
0.00345225
0.00356726
0.00404424
0.00684764
0.00481454
0.00478712
0.00474716
0.00469428
0.00462854
0.00455074
0.00446234
0.00436503
0.00426061
0.00415099
0.00403831
0.00392541
0.00381777
0.00372595
0.00366843
0.00367915
0.00383469
0.00440387
0.00760199
0.00497448
0.00495818
0.00492842
0.00488484
0.00482746
0.00475687
0.00467429
0.00458131
0.00447973
0.00437166
0.00425973
0.00414768
0.0040419
0.00395382
0.00390375
0.00393045
0.00412339
0.00478921
0.00830415
0.00517909
0.00517529
0.00515687
0.00512343
0.00507492
0.00501183
0.00493515
0.00484633
0.00474721
0.00464005
0.00452788
0.00441513
0.00430898
0.00422183
0.0041759
0.00421515
0.00444502
0.00522591
0.00909614
0.00543552
0.00544601
0.00544038
0.00541819
0.00537932
0.00532413
0.00525349
0.00516872
0.00507166
0.0049647
0.00485121
0.00473616
0.00462749
0.00453861
0.00449374
0.00454216
0.0048068
0.00571668
0.0101408
0.00575266
0.00577966
0.00578867
0.00577916
0.00575095
0.00570432
0.00564001
0.00555926
0.00546388
0.00535638
0.0052404
0.00512139
0.00500801
0.00491478
0.00486805
0.00492227
0.00521705
0.00625802
0.0115195
0.00614147
0.00618772
0.00621365
0.00621864
0.00620245
0.00616528
0.0061078
0.00603116
0.00593716
0.00582838
0.00570869
0.00558398
0.00546369
0.00536361
0.00531257
0.00537066
0.00569421
0.00686905
0.0131969
0.00661546
0.00668427
0.00672989
0.00675161
0.00674915
0.00672266
0.00667275
0.00660051
0.0065077
0.00639695
0.00627232
0.00614014
0.00601066
0.00590131
0.00584413
0.00590651
0.0062652
0.00759413
0.0152072
0.00719121
0.00728655
0.00735514
0.00739628
0.00740966
0.00739541
0.00735411
0.00728681
0.00719518
0.00708189
0.00695111
0.00680957
0.0066684
0.00654684
0.00648081
0.00654656
0.00694542
0.00845568
0.0174777
0.00788908
0.00801558
0.00811103
0.00817473
0.00820644
0.00820635
0.00817503
0.00811346
0.00802328
0.00790705
0.007769
0.00761612
0.00746034
0.00732272
0.00724313
0.00730676
0.0077383
0.00940776
0.0197031
0.00873394
0.00889701
0.00902374
0.00911358
0.00916649
0.00918279
0.00916312
0.00910845
0.00902029
0.00890104
0.00875481
0.00858866
0.00841504
0.00825655
0.0081566
0.00820834
0.00865631
0.0104437
0.0217239
0.00975622
0.00996199
0.0101249
0.0102448
0.010322
0.0103572
0.0103512
0.010305
0.0102199
0.010098
0.00994316
0.00976215
0.00956756
0.009383
0.00925471
0.0092827
0.00972876
0.0115988
0.0236611
0.0109931
0.0112483
0.0114526
0.0116066
0.0117114
0.0117682
0.0117781
0.0117423
0.0116618
0.0115385
0.0113755
0.011179
0.0109611
0.010746
0.010582
0.0105758
0.0110087
0.0129664
0.0260164
0.0124899
0.0128016
0.0130526
0.0132447
0.0133802
0.0134613
0.0134896
0.0134665
0.0133931
0.0132706
0.0131012
0.0128902
0.0126489
0.0124008
0.0121963
0.0121494
0.0125669
0.0146474
0.0290756
0.0143018
0.0146771
0.0149796
0.0152134
0.0153823
0.0154901
0.0155394
0.0155319
0.0154688
0.0153506
0.0151788
0.0149572
0.0146954
0.014416
0.0141707
0.0140818
0.014488
0.0167318
0.0328979
0.0164959
0.0169414
0.0172994
0.0175772
0.0177814
0.0179178
0.0179903
0.0180017
0.0179531
0.0178448
0.0176772
0.0174525
0.0171785
0.0168761
0.0165972
0.0164728
0.0168784
0.0193264
0.0375349
0.0191542
0.0196749
0.0200906
0.0204131
0.020653
0.0208188
0.0209166
0.0209501
0.0209212
0.02083
0.0206764
0.0204613
0.0201906
0.0198832
0.0195906
0.0194517
0.0198834
0.0226021
0.0433147
0.0223768
0.0229751
0.0234476
0.0238128
0.0240866
0.0242812
0.0244052
0.0244639
0.0244603
0.0243953
0.0242689
0.0240818
0.0238393
0.023559
0.0232922
0.0231862
0.0237058
0.0268307
0.050971
0.0262866
0.0269601
0.027484
0.0278863
0.0281894
0.0284099
0.0285594
0.0286454
0.0286727
0.0286437
0.0285602
0.0284251
0.0282458
0.0280425
0.0278701
0.0278872
0.0286161
0.0323763
0.061254
0.0310348
0.0317733
0.0323371
0.0327659
0.0330899
0.0333305
0.0335026
0.0336162
0.0336784
0.0336944
0.0336701
0.0336139
0.0335414
0.0334837
0.0335109
0.0338066
0.0349681
0.0397398
0.0750701
0.0368076
0.0375894
0.0381728
0.0386116
0.0389437
0.0391953
0.039384
0.0395224
0.0396202
0.0396868
0.0397342
0.0397813
0.0398602
0.0400289
0.0403986
0.0412167
0.0432094
0.0496746
0.0940123
0.0438325
0.0446199
0.0451927
0.0456183
0.0459412
0.0461907
0.0463864
0.0465426
0.0466714
0.0467869
0.046909
0.0470712
0.0473321
0.0477982
0.0486675
0.0503423
0.0538399
0.0633293
0.120989
0.0523843
0.0531204
0.0536418
0.054025
0.0543172
0.054548
0.0547368
0.0548982
0.0550461
0.055198
0.0553814
0.0556452
0.0560799
0.0568592
0.0583255
0.0611935
0.0671771
0.082328
0.162153
0.0627877
0.0633976
0.0638192
0.0641273
0.0643646
0.0645567
0.0647205
0.0648689
0.0650151
0.0651776
0.0653873
0.0657019
0.0662351
0.0672215
0.0691699
0.0732624
0.0826003
0.107938
0.231083
0.0754179
0.0758204
0.0760941
0.0762948
0.0764523
0.0765838
0.0767006
0.0768117
0.0769271
0.0770615
0.077241
0.0775161
0.0779921
0.0789023
0.0808095
0.0852228
0.0968914
0.135815
0.35474
0.0907062
0.0908388
0.0909288
0.090996
0.0910505
0.091098
0.0911422
0.0911866
0.091235
0.0912937
0.0913738
0.0914974
0.0917117
0.0921275
0.0930397
0.0953857
0.102981
0.139415
0.58192
)
;

boundaryField
{
    leftWall
    {
        type            epsilonWallFunction;
        value           nonuniform List<scalar> 
50
(
0.000342305
0.000683434
0.00114698
0.00159897
0.00202926
0.0024417
0.00284255
0.00324639
0.00384749
0.00462103
0.00538237
0.00632457
0.00779105
0.00812356
0.00719852
0.00748796
0.00750178
0.00748237
0.00774157
0.00815153
0.00852001
0.00883058
0.00909536
0.00932599
0.00953296
0.00972018
0.00988718
0.0100323
0.0101549
0.0102554
0.0103306
0.0103775
0.0103991
0.0104013
0.0103877
0.0103606
0.0103193
0.0102553
0.0101525
0.010038
0.00989776
0.00971975
0.00949282
0.00918918
0.00875975
0.00813821
0.0076269
0.0154511
0.154091
1.53852
)
;
    }
    rightWall
    {
        type            epsilonWallFunction;
        value           nonuniform List<scalar> 
50
(
0.000929178
0.00111594
0.00144741
0.00163201
0.00175847
0.00184575
0.00190083
0.00193716
0.0020076
0.00237259
0.00337142
0.00549994
0.00949161
0.00903059
0.00692038
0.00601954
0.00563913
0.00554981
0.00516029
0.00489784
0.00113173
0.00469292
0.00497596
0.00596094
0.00684764
0.00760199
0.00830415
0.00909614
0.0101408
0.0115195
0.0131969
0.0152072
0.0174777
0.0197031
0.0217239
0.0236611
0.0260164
0.0290756
0.0328979
0.0375349
0.0433147
0.050971
0.061254
0.0750701
0.0940123
0.120989
0.162153
0.231083
0.35474
0.58192
)
;
    }
    lowerWall
    {
        type            epsilonWallFunction;
        value           nonuniform List<scalar> 
62
(
0.000342305
0.00173029
0.00301659
0.00417245
0.00520649
0.00613404
0.00697402
0.00773912
0.00843723
0.00907388
0.00965844
0.0102044
0.0107152
0.0111665
0.0114641
0.011374
0.0104662
0.00895097
0.00739012
0.00634105
0.00532082
0.00375065
0.00108802
0.00108802
0.0017839
0.00294552
0.00424326
0.00585091
0.00796272
0.0110976
0.0177122
0.0203512
0.0168058
0.0171557
0.0213163
0.000932173
0.00108813
0.00174585
0.00263094
0.00373948
0.00529154
0.00791907
0.0139193
0.000932173
0.00408103
0.00649027
0.00781803
0.00849687
0.00878935
0.00895963
0.00916371
0.00938546
0.00899508
0.00740032
0.00576465
0.00424727
0.00481778
0.00680986
0.00649645
0.00431697
0.0024495
0.000929178
)
;
    }
    atmosphere
    {
        type            inletOutlet;
        inletValue      uniform 0.1;
        value           nonuniform List<scalar> 
46
(
0.1
0.129671
0.0209058
0.00866515
0.00633965
0.00587321
0.00602175
0.00649854
0.00722877
0.00820789
0.00946511
0.0110532
0.0130479
0.0155545
0.0187225
0.022774
0.0280542
0.0351254
0.044959
0.0593786
0.1
0.1
0.1
0.1
0.1
0.1
0.1
0.1
0.1
0.1
0.1
0.1
0.1
0.1
0.1
0.1
0.1
0.1
0.1
0.1
0.1
0.1
0.1
0.1
0.1
0.58192
)
;
    }
    defaultFaces
    {
        type            empty;
    }
}


// ************************************************************************* //
