/*--------------------------------*- C++ -*----------------------------------*\
  =========                 |
  \\      /  F ield         | OpenFOAM: The Open Source CFD Toolbox
   \\    /   O peration     | Website:  https://openfoam.org
    \\  /    A nd           | Version:  9
     \\/     M anipulation  |
\*---------------------------------------------------------------------------*/
FoamFile
{
    format      ascii;
    class       volScalarField;
    location    "0.6";
    object      p;
}
// * * * * * * * * * * * * * * * * * * * * * * * * * * * * * * * * * * * * * //

dimensions      [0 2 -2 0 0 0 0];

internalField   nonuniform List<scalar> 
1681
(
2.01855e-07
-0.00110729
-0.00371276
-0.00726243
-0.0111172
-0.0148021
-0.0179706
-0.020375
-0.0218476
-0.0222847
-0.021634
-0.0198847
-0.0170598
-0.0132105
-0.0084112
-0.00275603
0.0036444
0.0106654
0.0181707
0.0260142
0.0340425
0.0420968
0.0500156
0.0576369
0.0648017
0.0713574
0.0771609
0.0820838
0.0860161
0.0888717
0.0905933
0.0911585
0.0905864
0.0889444
0.0863571
0.0830166
0.0791953
0.0752595
0.0716957
0.0691374
0.0681033
0.00110626
-5.41514e-07
-0.00212002
-0.00488376
-0.00786768
-0.0107214
-0.0131697
-0.0150039
-0.016074
-0.0162815
-0.0155711
-0.0139239
-0.011352
-0.00789352
-0.00360845
0.00142441
0.00711035
0.0133413
0.0199978
0.0269516
0.0340673
0.0412046
0.048221
0.0549743
0.061325
0.0671404
0.0722971
0.0766859
0.0802147
0.0828141
0.0844408
0.0850835
0.0847677
0.0835608
0.0815783
0.0789894
0.0760221
0.0729673
0.0701843
0.0680998
0.0670711
0.0037238
0.00211254
-3.38429e-05
-0.00251609
-0.00509723
-0.0075179
-0.0095614
-0.0110589
-0.0118851
-0.0119536
-0.011214
-0.00964682
-0.00725961
-0.00408333
-0.000169032
0.00441484
0.00958491
0.0152452
0.0212891
0.0276014
0.0340601
0.040539
0.0469096
0.0530436
0.0588159
0.0641074
0.0688083
0.0728216
0.0760668
0.0784839
0.0800371
0.0807191
0.0805551
0.0796064
0.0779741
0.0758012
0.0732741
0.0706243
0.0681214
0.0660157
0.0645115
0.00735424
0.00490436
0.00238415
-0.000161759
-0.00266742
-0.00493974
-0.00680908
-0.00814515
-0.00884886
-0.00885078
-0.00810986
-0.00661098
-0.00436198
-0.00139104
0.00225571
0.00651644
0.0113157
0.0165662
0.0221707
0.0280239
0.034014
0.0400251
0.0459388
0.051637
0.0570045
0.0619313
0.0663164
0.0700702
0.0731187
0.075406
0.0768987
0.0775886
0.0774959
0.076672
0.0752008
0.0731991
0.0708158
0.0682367
0.0656683
0.0631997
0.0608885
0.0114301
0.00799818
0.00493624
0.00215126
-0.000449478
-0.00272587
-0.00454812
-0.00582157
-0.00647337
-0.00645213
-0.00572851
-0.00429406
-0.00215942
0.000647577
0.0040835
0.00809101
0.0126005
0.0175315
0.0227943
0.0282917
0.03392
0.0395714
0.0451359
0.0505032
0.0555653
0.060219
0.0643689
0.0679302
0.0708321
0.0730203
0.0744603
0.0751404
0.0750736
0.0742992
0.0728836
0.0709182
0.0685184
0.0658328
0.0630187
0.0600148
0.0567485
0.0155422
0.0110835
0.00738911
0.00425068
0.00143577
-0.000956243
-0.00282765
-0.00411509
-0.00477017
-0.0047593
-0.00406564
-0.00268879
-0.00064379
0.00204002
0.00532006
0.00914168
0.0134393
0.0181376
0.0231526
0.0283932
0.0337621
0.039158
0.0444767
0.0496137
0.054466
0.0589348
0.0629278
0.0663625
0.0691685
0.0712906
0.072691
0.0733524
0.0732787
0.0724968
0.0710561
0.0690251
0.0664903
0.063572
0.060391
0.0567546
0.052482
0.0193922
0.0139099
0.00953681
0.00597056
0.0028583
0.000269412
-0.00172309
-0.00308236
-0.00378188
-0.00380477
-0.00314663
-0.00181575
0.000167334
0.00277046
0.0059504
0.00965364
0.0138171
0.0183688
0.0232289
0.0283108
0.0335219
0.0387651
0.0439405
0.0489472
0.0536851
0.0580575
0.0619731
0.0653491
0.0681133
0.0702074
0.0715885
0.0722317
0.0721314
0.0713016
0.0697758
0.0676029
0.0648457
0.0616039
0.0579737
0.0536506
0.0483664
0.0227553
0.0162718
0.0112022
0.007165
0.00370295
0.000863973
-0.00129748
-0.00276678
-0.00353651
-0.00360502
-0.0029798
-0.00167797
0.000273836
0.00283974
0.00597477
0.00962527
0.0137293
0.0182169
0.0230111
0.0280279
0.0331779
0.0383668
0.0434973
0.04847
0.0531861
0.0575488
0.0614658
0.064852
0.0676318
0.0697413
0.0711312
0.0717679
0.0716354
0.0707352
0.0690864
0.0667206
0.0636822
0.060057
0.0559256
0.0508879
0.0446041
0.0254559
0.017998
0.0122285
0.00769756
0.00385529
0.000734532
-0.00162427
-0.00322504
-0.0040769
-0.00419191
-0.0035887
-0.00229307
-0.000338042
0.00223615
0.00538202
0.00904485
0.0131627
0.0176666
0.0224808
0.0275232
0.0327059
0.0379361
0.0431173
0.0481505
0.0529362
0.057376
0.0613747
0.0648431
0.0677002
0.0698756
0.0713114
0.0719646
0.0718082
0.0708316
0.0690404
0.066452
0.0630958
0.0590489
0.054384
0.0486165
0.041346
0.0273504
0.0189404
0.0124736
0.00743868
0.0032008
-0.00021783
-0.00278729
-0.00452714
-0.00546099
-0.00561326
-0.00501299
-0.00369446
-0.00169717
0.000933947
0.00414827
0.00788924
0.0120941
0.0166939
0.0216131
0.0267704
0.0320783
0.0374443
0.0427714
0.0479597
0.0529074
0.057513
0.0616769
0.0653043
0.0683072
0.0706066
0.0721354
0.0728398
0.0726813
0.0716372
0.0697007
0.0668765
0.0631823
0.0586908
0.0534712
0.0469628
0.0387105
0.0283128
0.0189654
0.0118054
0.00626344
0.00162485
-0.0020961
-0.0048775
-0.00675241
-0.00775744
-0.00792838
-0.00730411
-0.00592713
-0.00384348
-0.00110304
0.00223997
0.00612657
0.0104926
0.0152681
0.0203774
0.0257387
0.0312642
0.0368607
0.0424297
0.047869
0.0530736
0.0579374
0.0623549
0.0662243
0.0694488
0.0719398
0.0736192
0.0744216
0.074296
0.0732074
0.0711371
0.0680782
0.0640388
0.0590899
0.0533012
0.0460394
0.0367981
0.028226
0.0179469
0.0100964
0.00404846
-0.000988944
-0.00500775
-0.00799246
-0.00998846
-0.0110443
-0.0112066
-0.0105237
-0.00904616
-0.00682662
-0.00392018
-0.000385003
0.00371709
0.00831991
0.0133522
0.0187374
0.0243926
0.0302291
0.036152
0.0420607
0.0478497
0.0534097
0.0586287
0.0633945
0.0675962
0.0711273
0.0738878
0.0757872
0.0767469
0.0767027
0.0756064
0.0734272
0.0701471
0.0657658
0.0603543
0.0539852
0.0459535
0.0357026
0.0269742
0.0157603
0.00721917
0.000668664
-0.00476057
-0.00906565
-0.0122368
-0.014331
-0.0154085
-0.0155264
-0.0147426
-0.0131155
-0.0107048
-0.00757092
-0.00377627
0.000614136
0.00553181
0.0109038
0.016652
0.0226925
0.0289349
0.0352823
0.0416311
0.0478721
0.0538906
0.059568
0.0647837
0.0694171
0.0733499
0.0764693
0.0786707
0.0798608
0.0799604
0.0789071
0.0766571
0.0731811
0.0684703
0.0625971
0.0556379
0.0468148
0.0355195
0.0244381
0.0122778
0.00304286
-0.00400578
-0.00981577
-0.0143894
-0.0177224
-0.0198836
-0.0209451
-0.0209745
-0.0200395
-0.018207
-0.0155435
-0.0121155
-0.00798974
-0.00323468
0.00207867
0.00787549
0.0140761
0.0205951
0.0273404
0.0342128
0.0411056
0.047905
0.0544906
0.0607364
0.0665123
0.0716864
0.0761276
0.0797082
0.0823076
0.0838159
0.0841369
0.0831921
0.0809232
0.0772883
0.0722697
0.0659408
0.0583829
0.048741
0.0363531
0.0204909
0.00736431
-0.00257077
-0.0101121
-0.0162882
-0.0211068
-0.0245698
-0.0267585
-0.0277572
-0.0276453
-0.0265004
-0.0243987
-0.0214142
-0.0176195
-0.0130861
-0.0078861
-0.00209302
0.0042164
0.010961
0.0180541
0.0254018
0.0329027
0.0404468
0.047916
0.0551834
0.062115
0.0685705
0.0744056
0.0794744
0.0836328
0.0867419
0.0886725
0.0893092
0.0885547
0.0863336
0.0825898
0.0772946
0.0705221
0.0623578
0.0518645
0.0383225
0.0149945
0.00087436
-0.00977031
-0.017798
-0.0243217
-0.0293556
-0.0329087
-0.035076
-0.0359557
-0.0356396
-0.034217
-0.0317738
-0.0283924
-0.0241519
-0.0191289
-0.0133991
-0.00703868
-0.000125955
0.00725675
0.0150216
0.0230736
0.0313094
0.0396161
0.0478711
0.0559414
0.0636844
0.0709489
0.0775771
0.0834068
0.0882753
0.092023
0.0944986
0.095564
0.0950999
0.0930106
0.0892221
0.0836927
0.0764954
0.0677192
0.0563368
0.0415668
0.00779743
-0.00735136
-0.0187181
-0.0272246
-0.0340728
-0.0392851
-0.0428791
-0.0449655
-0.0456585
-0.0450644
-0.0432853
-0.0404185
-0.0365555
-0.0317826
-0.0261819
-0.0198326
-0.0128133
-0.00520357
0.00291364
0.0114502
0.0203106
0.0293903
0.0385743
0.0477359
0.0567363
0.0654245
0.0736378
0.0812039
0.0879429
0.0936713
0.0982059
0.10137
0.102999
0.102946
0.101092
0.0973409
0.0916331
0.0840387
0.0746481
0.062335
0.0462507
-0.00126856
-0.0174896
-0.0295938
-0.0385694
-0.0457134
-0.0510581
-0.0546323
-0.0565655
-0.0569907
-0.056031
-0.053804
-0.0504197
-0.0459802
-0.0405797
-0.034306
-0.0272421
-0.0194683
-0.011065
-0.00211464
0.00729517
0.0170697
0.0271043
0.0372831
0.0474763
0.05754
0.0673151
0.0766275
0.0852896
0.0931026
0.0998596
0.105351
0.10937
0.111721
0.112227
0.110736
0.107124
0.10131
0.093358
0.0833557
0.0700672
0.0525702
-0.0123918
-0.0297385
-0.0425989
-0.0520306
-0.0594336
-0.064853
-0.0683322
-0.0700237
-0.0700829
-0.0686537
-0.0658716
-0.061862
-0.0567389
-0.0506055
-0.0435557
-0.0356758
-0.0270477
-0.0177513
-0.00786762
0.00251802
0.013313
0.0244147
0.0357074
0.0470602
0.0583253
0.0693364
0.0799084
0.0898383
0.0989068
0.106882
0.113524
0.118592
0.121854
0.123093
0.122119
0.118776
0.11295
0.104694
0.0940903
0.0797794
0.0607591
-0.025785
-0.0443226
-0.0579609
-0.0678313
-0.0754458
-0.0808666
-0.0841566
-0.0854968
-0.0850705
-0.083047
-0.0795835
-0.0748237
-0.0688954
-0.0619119
-0.0539735
-0.0451698
-0.0355831
-0.0252917
-0.0143734
-0.00290946
0.00901195
0.021292
0.033818
0.0464599
0.0590679
0.0714702
0.0834717
0.0948543
0.105378
0.114782
0.122796
0.129137
0.13353
0.135712
0.135447
0.132531
0.126815
0.118328
0.107145
0.0917639
0.071096
-0.0416898
-0.061499
-0.0759409
-0.0862253
-0.0939888
-0.0993167
-0.102298
-0.10315
-0.102092
-0.0993226
-0.0950275
-0.0893714
-0.0824988
-0.0745341
-0.0655843
-0.0557417
-0.0450877
-0.0336974
-0.0216433
-0.00900012
0.0041512
0.0177187
0.0315953
0.0456548
0.0597485
0.0737014
0.0873104
0.100343
0.112538
0.123607
0.133241
0.141114
0.146898
0.150274
0.15095
0.148662
0.143209
0.134592
0.122865
0.106369
0.0839139
-0.0603845
-0.0815665
-0.0968416
-0.107505
-0.115334
-0.120446
-0.122966
-0.123157
-0.121284
-0.117585
-0.112278
-0.105554
-0.0975772
-0.088484
-0.078388
-0.0673835
-0.0555495
-0.0429555
-0.0296659
-0.0157457
-0.00126554
0.0136931
0.0290329
0.0446351
0.0603556
0.0760199
0.0914199
0.106311
0.120412
0.133404
0.144938
0.15464
0.16212
0.166992
0.168891
0.16748
0.162491
0.153879
0.141666
0.124009
0.0996116
-0.0821946
-0.104877
-0.12102
-0.132011
-0.139793
-0.144526
-0.146386
-0.145697
-0.14278
-0.137925
-0.131389
-0.123395
-0.114129
-0.103741
-0.092351
-0.0800537
-0.0669234
-0.0530209
-0.0383994
-0.0231104
-0.0072098
0.00923564
0.0261427
0.0434051
0.0608883
0.0784228
0.0957997
0.112766
0.129022
0.14422
0.157969
0.169839
0.179371
0.1861
0.189569
0.189349
0.185079
0.176653
0.164042
0.145187
0.118668
-0.107507
-0.131855
-0.148903
-0.160148
-0.167726
-0.171863
-0.172802
-0.17095
-0.166702
-0.160411
-0.152384
-0.142881
-0.132112
-0.120242
-0.107396
-0.0936675
-0.0791223
-0.0638089
-0.047765
-0.0310239
-0.0136223
0.00439331
0.0229592
0.0419876
0.0613592
0.0809157
0.100453
0.119716
0.13839
0.1561
0.172414
0.186839
0.198841
0.207857
0.213321
0.214684
0.211467
0.203469
0.190589
0.170506
0.141662
-0.13679
-0.163016
-0.181011
-0.192397
-0.199555
-0.2028
-0.202476
-0.199096
-0.193154
-0.185081
-0.175245
-0.163949
-0.151431
-0.137869
-0.123393
-0.108087
-0.0920083
-0.0751867
-0.057639
-0.0393754
-0.0204071
-0.000754795
0.0195441
0.0404268
0.0617967
0.0835146
0.105389
0.127169
0.148532
0.169083
0.188345
0.205766
0.220723
0.232543
0.240524
0.243967
0.242235
0.234994
0.222031
0.200707
0.169299
-0.170627
-0.199008
-0.217989
-0.229347
-0.235775
-0.237726
-0.235682
-0.230302
-0.222206
-0.211923
-0.199896
-0.186474
-0.171926
-0.156439
-0.140143
-0.123113
-0.105384
-0.0869658
-0.0678469
-0.0480075
-0.0274273
-0.0060938
0.0159888
0.0387906
0.0622465
0.0862453
0.110619
0.135129
0.159457
0.183192
0.205824
0.226737
0.245214
0.260455
0.271598
0.277751
0.278068
0.272031
0.259256
0.236703
0.202445
-0.209758
-0.240659
-0.260652
-0.271721
-0.276978
-0.277078
-0.272703
-0.264709
-0.253877
-0.24086
-0.226182
-0.210248
-0.193351
-0.175686
-0.157374
-0.13847
-0.118986
-0.0988971
-0.0781588
-0.0567136
-0.0345022
-0.0114715
0.0124155
0.0371708
0.0627703
0.0891418
0.116152
0.14359
0.171154
0.198431
0.224885
0.249844
0.272496
0.291899
0.306999
0.316665
0.319778
0.315556
0.303365
0.279635
0.242182
-0.255154
-0.289051
-0.310049
-0.320422
-0.323865
-0.321342
-0.313817
-0.302411
-0.288112
-0.271718
-0.253848
-0.234958
-0.215361
-0.195249
-0.174723
-0.153808
-0.132477
-0.110667
-0.0882883
-0.0652377
-0.0414089
-0.0167005
0.00897463
0.0356793
0.0634413
0.0922402
0.121992
0.152529
0.183584
0.214762
0.245519
0.275139
0.302719
0.327166
0.347208
0.361419
0.36832
0.366763
0.355737
0.330958
0.289884
-0.308118
-0.345635
-0.36755
-0.376582
-0.377271
-0.371043
-0.359269
-0.34342
-0.32474
-0.304196
-0.282505
-0.260164
-0.237492
-0.214661
-0.191732
-0.168688
-0.14545
-0.121901
-0.0978963
-0.0732794
-0.0478881
-0.0215643
0.00583737
0.0344406
0.0643362
0.0955689
0.12812
0.161889
0.196662
0.232089
0.267645
0.302596
0.335965
0.366508
0.392711
0.412794
0.424817
0.427121
0.418129
0.392555
0.34733
-0.370461
-0.4124
-0.434979
-0.441637
-0.438174
-0.426725
-0.409228
-0.38761
-0.363425
-0.337819
-0.311594
-0.28527
-0.259142
-0.233333
-0.207846
-0.182593
-0.157429
-0.132168
-0.106601
-0.0805055
-0.0536563
-0.0258309
0.00318262
0.0335779
0.0655201
0.0991336
0.134484
0.171558
0.210229
0.250223
0.291076
0.332072
0.372196
0.410078
0.44395
0.471621
0.490571
0.498439
0.492806
0.466925
0.416893
-0.44478
-0.492144
-0.514789
-0.517395
-0.507697
-0.488895
-0.46371
-0.434644
-0.403594
-0.371878
-0.340347
-0.309497
-0.279555
-0.250558
-0.22241
-0.194931
-0.167884
-0.141001
-0.113995
-0.0865683
-0.0584251
-0.0292717
0.00117733
0.0331934
0.0670268
0.102895
0.140969
0.181346
0.224022
0.268846
0.315462
0.36324
0.411185
0.457852
0.501243
0.538723
0.567058
0.582946
0.582726
0.557461
0.50184
-0.534953
-0.588899
-0.610313
-0.606113
-0.587053
-0.557913
-0.522451
-0.483845
-0.444339
-0.405361
-0.367737
-0.331859
-0.297818
-0.265505
-0.234687
-0.205053
-0.176254
-0.14792
-0.119672
-0.0911325
-0.0619277
-0.0316878
-4.94158e-05
0.0333429
0.0688326
0.106744
0.147369
0.190947
0.237634
0.287453
0.34023
0.395502
0.452399
0.509498
0.564653
0.614795
0.655871
0.683358
0.691794
0.668897
0.606862
-0.647024
-0.708599
-0.726084
-0.710526
-0.677415
-0.633791
-0.584702
-0.534035
-0.484291
-0.436871
-0.392433
-0.351143
-0.312857
-0.277247
-0.243883
-0.212291
-0.18198
-0.152463
-0.123261
-0.0939089
-0.0639516
-0.0329418
-0.000436592
0.0340058
0.0708272
0.110468
0.153358
0.199905
0.250465
0.305297
0.364494
0.42788
0.494853
0.564188
0.633761
0.700188
0.758573
0.802903
0.82519
0.808009
0.739018
-0.790882
-0.860167
-0.86821
-0.83376
-0.779613
-0.715846
-0.648923
-0.583301
-0.521472
-0.464542
-0.412769
-0.365914
-0.323467
-0.284786
-0.249188
-0.215993
-0.184549
-0.154235
-0.124468
-0.0946926
-0.0643741
-0.0329907
-2.25908e-05
0.0350561
0.0727855
0.113725
0.158457
0.207576
0.261678
0.321323
0.386972
0.458878
0.536917
0.620329
0.707327
0.794526
0.876367
0.945215
0.989739
0.984738
0.909541
-0.983679
-1.05724
-1.04465
-0.978889
-0.893473
-0.802077
-0.712312
-0.628678
-0.553113
-0.485959
-0.42673
-0.37454
-0.328353
-0.287117
-0.249835
-0.215589
-0.183546
-0.152952
-0.123117
-0.0934004
-0.0631964
-0.0319161
0.00102825
0.0362385
0.0743462
0.116027
0.162015
0.213107
0.270169
0.33412
0.40589
0.486335
0.576069
0.675182
0.782753
0.896021
1.00937
1.11384
1.19416
1.21396
1.13749
-1.25674
-1.32066
-1.26477
-1.14753
-1.01637
-0.888028
-0.770034
-0.665708
-0.575432
-0.498079
-0.431952
-0.375233
-0.326197
-0.283291
-0.245161
-0.210636
-0.178704
-0.148481
-0.119183
-0.0900999
-0.0605673
-0.0299445
0.00240858
0.0371542
0.075
0.116724
0.163199
0.215423
0.274543
0.341873
0.418902
0.507255
0.608587
0.724338
0.855222
1.00021
1.15501
1.31067
1.44854
1.51799
1.45699
-1.66755
-1.68087
-1.53755
-1.33735
-1.14118
-0.96543
-0.814505
-0.688158
-0.583623
-0.497347
-0.42589
-0.366225
-0.315808
-0.272541
-0.23471
-0.200905
-0.169958
-0.140882
-0.112825
-0.0850276
-0.0567912
-0.0274456
0.00367946
0.0372828
0.0741229
0.115052
0.161056
0.213304
0.273201
0.34246
0.423166
0.517839
0.629456
0.761364
0.916924
1.09856
1.30591
1.53339
1.76229
1.92859
1.92915
-2.32076
-2.17828
-1.86789
-1.54012
-1.25551
-1.02227
-0.83602
-0.688926
-0.5728
-0.480571
-0.406566
-0.346376
-0.296612
-0.25467
-0.21853
-0.186604
-0.157619
-0.130531
-0.104457
-0.0786239
-0.0523277
-0.0248969
0.00434039
0.0360895
0.0711251
0.110334
0.154767
0.205706
0.264757
0.333961
0.415959
0.514186
0.633118
0.778502
0.957487
1.17833
1.44894
1.77314
2.14013
2.48676
2.66217
-3.45062
-2.86289
-2.23634
-1.72627
-1.33263
-1.03786
-0.820307
-0.658897
-0.537477
-0.444639
-0.37237
-0.315
-0.268482
-0.229879
-0.197012
-0.168227
-0.142235
-0.117999
-0.0946566
-0.0714631
-0.0477444
-0.0228601
0.00383048
0.033003
0.0654064
0.101909
0.143557
0.191659
0.247896
0.31449
0.394446
0.491916
0.612734
0.765168
0.960993
1.21694
1.5551
1.99801
2.56127
3.24428
3.89595
-5.67056
-3.7636
-2.50157
-1.76579
-1.28067
-0.951867
-0.728738
-0.573384
-0.461597
-0.378805
-0.315868
-0.266797
-0.227551
-0.195312
-0.16805
-0.144256
-0.122765
-0.102653
-0.0831552
-0.0636118
-0.0434291
-0.0220429
0.00111127
0.02663
0.0551762
0.0875226
0.124608
0.167615
0.218091
0.278119
0.3506
0.439711
0.551657
0.695948
0.887728
1.15215
1.52938
2.07411
2.88251
4.23276
6.24797
-9.44944
-4.64468
-2.37433
-1.46579
-0.990914
-0.707051
-0.531272
-0.416018
-0.335701
-0.277178
-0.233091
-0.19891
-0.171667
-0.149314
-0.130371
-0.113727
-0.0985172
-0.0840435
-0.0697237
-0.0550513
-0.0395662
-0.0228302
-0.00440365
0.0161762
0.0394215
0.0659245
0.0963991
0.131738
0.173096
0.222023
0.280675
0.352183
0.441322
0.555822
0.709298
0.928012
1.2624
1.80477
2.80764
5.19291
10.1183
)
;

boundaryField
{
    movingWall
    {
        type            zeroGradient;
    }
    fixedWalls
    {
        type            zeroGradient;
    }
    frontAndBack
    {
        type            empty;
    }
}


// ************************************************************************* //
