/*--------------------------------*- C++ -*----------------------------------*\
  =========                 |
  \\      /  F ield         | OpenFOAM: The Open Source CFD Toolbox
   \\    /   O peration     | Website:  https://openfoam.org
    \\  /    A nd           | Version:  9
     \\/     M anipulation  |
\*---------------------------------------------------------------------------*/
FoamFile
{
    format      ascii;
    class       volScalarField;
    location    "7.28";
    object      nut;
}
// * * * * * * * * * * * * * * * * * * * * * * * * * * * * * * * * * * * * * //

dimensions      [0 2 -1 0 0 0 0];

internalField   nonuniform List<scalar> 
2268
(
1.06945e-05
1.24654e-05
1.51016e-05
1.68849e-05
1.82204e-05
1.92758e-05
2.0136e-05
2.08504e-05
2.14477e-05
2.19518e-05
2.2387e-05
2.27772e-05
2.31306e-05
2.34173e-05
2.35465e-05
2.33453e-05
2.2658e-05
2.15428e-05
2.01406e-05
1.86729e-05
1.73536e-05
1.51933e-05
1.06166e-05
2.45601e-05
0.000101253
0.000137108
0.00015968
0.000176023
0.00018867
0.000198802
0.000207048
0.000213801
0.000219322
0.000223851
0.000227616
0.000230621
0.000232509
0.000232495
0.000229284
0.000219926
0.000202542
0.000185155
0.000169848
0.000156692
0.000116665
3.34764e-05
2.93654e-05
0.000171749
0.000253749
0.000306423
0.000344601
0.000374109
0.000397723
0.000416933
0.000432638
0.000445454
0.000455916
0.000464514
0.000471302
0.000475581
0.00047572
0.000468937
0.000450481
0.000418673
0.000384552
0.000349083
0.000301848
0.000199446
3.96383e-05
3.29382e-05
0.000222056
0.000346798
0.000429417
0.000489859
0.000536722
0.000574252
0.000604774
0.000629704
0.000650029
0.000666565
0.00067999
0.000690393
0.000696844
0.000697131
0.000687484
0.000662214
0.000620257
0.000571914
0.000514154
0.000427387
0.000267373
4.50439e-05
3.57812e-05
0.000260328
0.000422498
0.000533021
0.000614762
0.000678432
0.000729504
0.000771039
0.000804937
0.000832539
0.000854911
0.00087287
0.000886535
0.000894847
0.000895271
0.000883593
0.000853582
0.000804294
0.000743759
0.000664261
0.000539379
0.000328338
5.04345e-05
3.81778e-05
0.000291007
0.000485612
0.000621577
0.000723232
0.000802826
0.000866812
0.000918875
0.000961343
0.000995881
0.00102378
0.00104597
0.00106262
0.00107261
0.00107329
0.00106037
0.00102731
0.000972809
0.000902219
0.000803577
0.000644946
0.000383945
5.64347e-05
4.0296e-05
0.000316636
0.000539462
0.000698447
0.000818526
0.000913043
0.000989219
0.00105125
0.00110185
0.00114296
0.00117608
0.00120225
0.00122171
0.00123336
0.00123454
0.00122088
0.0011863
0.00112859
0.00105044
0.000936988
0.000751803
0.000443856
6.3445e-05
4.2297e-05
0.000338769
0.000586429
0.000766226
0.000903277
0.00101171
0.00109932
0.00117074
0.001229
0.00127632
0.00131438
0.00134433
0.00136652
0.00137995
0.00138184
0.00136801
0.00133313
0.00127425
0.00119149
0.0010691
0.000868956
0.000524687
7.40227e-05
1.16354e-05
1.75237e-05
2.03089e-05
2.14907e-05
2.21162e-05
2.23891e-05
2.25914e-05
2.27161e-05
2.24577e-05
2.13582e-05
1.98304e-05
1.80791e-05
1.66956e-05
1.67217e-05
1.72721e-05
1.70444e-05
1.50283e-05
1.26321e-05
1.20491e-05
3.63951e-05
0.000136353
0.000182663
0.000205518
0.000216543
0.000221672
0.000223497
0.000222231
0.000215351
0.00019983
0.000173434
0.000154175
0.000141241
0.000143544
0.000156249
0.000152176
0.000129577
9.3224e-05
2.63416e-05
4.02421e-05
0.000235125
0.00034831
0.000407609
0.000437082
0.000450508
0.000455103
0.000452187
0.000437239
0.000404296
0.000357029
0.000320262
0.000295622
0.00029353
0.000306756
0.000292248
0.000237102
0.000150347
3.05618e-05
4.43901e-05
0.000304049
0.000484241
0.000583037
0.000633713
0.000657237
0.000665353
0.000661183
0.000639891
0.000594727
0.000534709
0.000485365
0.000450096
0.00043786
0.000440918
0.000410047
0.000323521
0.000190664
3.45047e-05
4.96457e-05
0.000360689
0.000600511
0.000736115
0.000807323
0.000841093
0.00085297
0.000848097
0.000822529
0.000770184
0.000703047
0.000645136
0.000600248
0.000575255
0.000562894
0.000512831
0.000399206
0.00022835
3.82175e-05
5.58213e-05
0.000420032
0.000708256
0.000874506
0.000963188
0.00100599
0.00102127
0.00101609
0.000987999
0.000932332
0.00086181
0.000798118
0.000744524
0.000705892
0.000675807
0.000605847
0.000470011
0.000268453
4.17443e-05
6.39771e-05
0.000487773
0.000815724
0.00100457
0.00110632
0.0011561
0.0011739
0.00116853
0.00113917
0.0010828
0.00101137
0.000943677
0.000882157
0.000829987
0.000781109
0.000691363
0.000536932
0.000310582
4.51627e-05
7.76287e-05
0.000573492
0.000930576
0.00113101
0.00124034
0.00129463
0.00131411
0.00130844
0.00127855
0.00122299
0.00115225
0.00108161
0.00101281
0.000947601
0.000879394
0.000770271
0.000598393
0.000350736
4.85311e-05
4.4961e-05
0.000368814
0.000650364
0.000859377
0.00102089
0.00114978
0.00125449
0.00134014
0.00141023
0.00146734
0.00151332
0.00154945
0.00157627
0.00159245
0.00159579
0.00158274
0.00154894
0.00149099
0.00140596
0.00127999
0.0010843
0.00078387
0.000381177
4.83363e-05
0.000404583
0.000723428
0.000965003
0.00115414
0.00130661
0.00143117
0.00153323
0.00161703
0.00168569
0.00174127
0.00178505
0.00181729
0.0018375
0.00184408
0.00183448
0.00180566
0.00175474
0.00167828
0.00156755
0.00140662
0.00117874
0.000887976
5.17295e-05
0.000435757
0.000790114
0.00106011
0.00127189
0.0014448
0.001587
0.00170306
0.0017984
0.00187729
0.00194178
0.00199282
0.00203086
0.00205588
0.00206699
0.00206267
0.00204134
0.00200121
0.00193979
0.001852
0.00173095
0.00157377
0.00139642
5.60033e-05
0.000469686
0.000861512
0.00115576
0.00138291
0.00157314
0.00173136
0.00185846
0.00196242
0.00205006
0.0021229
0.00218123
0.00222544
0.00225595
0.00227244
0.00227405
0.00226049
0.00223127
0.00218553
0.00211999
0.002033
0.00192959
0.00182656
6.15036e-05
0.000535873
0.0009409
0.0012365
0.00147843
0.001682
0.00185325
0.00199288
0.00210749
0.00220504
0.00228706
0.00235337
0.00240451
0.00244122
0.00246354
0.00247117
0.00246437
0.00244343
0.00240994
0.00236299
0.00230334
0.0022363
0.00217472
6.12173e-05
0.000518363
0.000932491
0.0012674
0.00152938
0.00174707
0.00193564
0.00209288
0.00222318
0.00233361
0.00242641
0.00250237
0.00256292
0.00260799
0.00263723
0.0026499
0.00264848
0.00263427
0.00260919
0.00257869
0.00254418
0.00250492
0.00247204
0.000295367
0.000539924
0.000939877
0.00128373
0.00156497
0.00180486
0.00201032
0.00218183
0.00232471
0.0024455
0.00254703
0.00263081
0.00269888
0.00275164
0.00278852
0.00280889
0.00281566
0.00281179
0.00279916
0.00278122
0.002763
0.00274455
0.00273115
0.000295188
0.000537217
0.00095264
0.00130695
0.00160462
0.0018596
0.00207721
0.00226064
0.00241506
0.00254571
0.00265577
0.00274739
0.00282276
0.00288411
0.0029304
0.00296112
0.00297835
0.00298497
0.00298352
0.00297673
0.00296924
0.00296425
0.00296216
0.00029485
0.00054619
0.000970419
0.00133493
0.00164473
0.00191054
0.00213814
0.00233183
0.00249658
0.00263687
0.00275582
0.00285587
0.00293963
0.00300974
0.00306558
0.00310677
0.00313459
0.0031517
0.00316026
0.00316309
0.00316424
0.00316645
0.00317005
0.000294916
0.000553649
0.000988672
0.00136358
0.00168361
0.00195853
0.00219486
0.00239768
0.00257183
0.00272137
0.00284927
0.00295795
0.00305046
0.00312921
0.00319402
0.00324478
0.00328262
0.00330952
0.00332724
0.00333834
0.00334615
0.00335312
0.00335981
0.000294737
0.000557706
0.00100606
0.00139166
0.00172107
0.00200431
0.00224877
0.00245999
0.00264282
0.00280107
0.00293754
0.00305482
0.00315578
0.00324253
0.00331548
0.00337484
0.00342167
0.00345738
0.00348338
0.00350176
0.00351528
0.00352601
0.00353461
6.96019e-05
0.000560386
0.00102257
0.00141897
0.00175759
0.0020489
0.00230107
0.00252017
0.00271108
0.00287746
0.00302204
0.00314742
0.00325621
0.00335029
0.00343052
0.00349748
0.00355212
0.00359551
0.00362878
0.00365361
0.00367222
0.00368624
0.00369628
0.000295948
0.000567132
0.00103787
0.00144515
0.00179314
0.00209274
0.00235264
0.00257937
0.00277783
0.00295166
0.00310368
0.00323645
0.00335232
0.00345307
0.0035398
0.00361337
0.00367468
0.0037246
0.0037641
0.00379453
0.00381759
0.00383453
0.00384582
0.000296119
0.000569833
0.00105203
0.00147004
0.00182761
0.00213577
0.00240357
0.00263778
0.00284338
0.0030241
0.00318289
0.00332231
0.00344453
0.00355126
0.00364374
0.00372299
0.00378991
0.0038453
0.00389002
0.00392515
0.00395197
0.00397141
0.00398382
6.96154e-05
0.0005668
0.00106507
0.00149386
0.00186107
0.00217792
0.00245366
0.00269519
0.00290759
0.00309473
0.00325972
0.0034051
0.00353296
0.00364498
0.00374248
0.00382656
0.00389814
0.00395803
0.00400701
0.00404597
0.00407588
0.00409741
0.00411082
6.96386e-05
0.00056947
0.00107796
0.00151705
0.00189375
0.00221921
0.00250274
0.00275132
0.00297017
0.00316332
0.00333396
0.00348465
0.00361747
0.00373411
0.00383592
0.00392405
0.00399947
0.00406299
0.00411538
0.0041574
0.00418979
0.00421306
0.00422742
6.96242e-05
0.000571295
0.00109094
0.00154
0.00192589
0.0022597
0.00255071
0.002806
0.00303093
0.00322963
0.00340535
0.00356072
0.00369782
0.00381839
0.00392382
0.0040153
0.00409382
0.00416025
0.00421533
0.00425977
0.00429416
0.00431893
0.00433422
6.96998e-05
0.000576354
0.00110437
0.00156292
0.00195765
0.00229944
0.00259757
0.00285917
0.0030897
0.00329341
0.00347363
0.00363302
0.00377373
0.00389755
0.00400592
0.00410009
0.00418109
0.00424981
0.00430703
0.0043534
0.00438946
0.00441557
0.0044319
6.97142e-05
0.00058019
0.00111778
0.00158579
0.0019891
0.00233851
0.00264331
0.00291074
0.00314636
0.00335449
0.00353856
0.00370131
0.00384496
0.00397136
0.00408204
0.00417829
0.00426121
0.00433174
0.00439067
0.00443866
0.00447621
0.00450367
0.0045212
6.95602e-05
0.000581989
0.00113105
0.0016087
0.00202032
0.00237692
0.00268792
0.00296065
0.00320076
0.00341269
0.00359995
0.00376538
0.00391131
0.00403966
0.00415205
0.00424986
0.00433425
0.00440622
0.0044666
0.00451604
0.00455506
0.00458401
0.00460305
6.97106e-05
0.000584017
0.00114491
0.00163188
0.00205135
0.00241467
0.00273134
0.00300878
0.00325276
0.00346783
0.00365762
0.00382508
0.00397264
0.00410236
0.00421595
0.00431489
0.00440043
0.00447361
0.00453532
0.00458623
0.00462688
0.00465761
0.00467858
6.9781e-05
0.000591128
0.00115996
0.00165522
0.00208208
0.00245165
0.00277344
0.003055
0.00330221
0.00351976
0.00371142
0.00388028
0.00402891
0.0041595
0.00427388
0.00437365
0.00446014
0.00453448
0.00459758
0.00465016
0.00469276
0.00472571
0.00474916
0.0002967
0.000600605
0.00117438
0.00167829
0.00211235
0.00248771
0.00281408
0.00309914
0.00334894
0.00356833
0.00376125
0.00393095
0.00408017
0.00421124
0.00432615
0.00442659
0.00451402
0.00458962
0.00465436
0.00470899
0.00475404
0.00478982
0.00481645
6.9811e-05
0.000601694
0.00118895
0.00170123
0.00214206
0.00252271
0.00285308
0.00314102
0.00339279
0.00361343
0.00380706
0.00397714
0.00412659
0.0042579
0.00437322
0.00447437
0.0045629
0.00464008
0.00470691
0.00476415
0.00481232
0.0048517
0.00488232
6.98652e-05
0.000607148
0.00120379
0.00172401
0.00217108
0.00255646
0.00289023
0.00318046
0.00343364
0.003655
0.00384891
0.00401904
0.00416849
0.00429997
0.00441577
0.00451785
0.00460786
0.00468712
0.00475669
0.0048173
0.00486943
0.00491329
0.00494886
6.99007e-05
0.000613353
0.00121878
0.00174637
0.00219915
0.00258871
0.00292533
0.00321731
0.00347139
0.00369306
0.00388694
0.00405692
0.00420635
0.00433811
0.00445466
0.0045581
0.00465016
0.00473223
0.00480535
0.00487025
0.00492733
0.00497672
0.00501825
0.000296161
0.000622162
0.00123354
0.00176805
0.00222603
0.00261923
0.00295816
0.00325142
0.003506
0.0037277
0.00392138
0.00409121
0.00424076
0.00437311
0.0044909
0.00459633
0.00469122
0.004777
0.00485468
0.00492495
0.0049881
0.00504414
0.00509275
6.99596e-05
0.000626139
0.00124789
0.00178878
0.00225141
0.00264772
0.0029885
0.00328265
0.00353748
0.00375907
0.00395259
0.00412245
0.00427247
0.00440593
0.00452562
0.00463387
0.00473255
0.0048231
0.00490651
0.00498335
0.00505381
0.00511772
0.00517457
6.99999e-05
0.000632474
0.00126159
0.00180825
0.00227494
0.00267386
0.0030161
0.00331089
0.00356586
0.00378739
0.00398095
0.00415122
0.00430226
0.00443753
0.00455999
0.00467206
0.00477566
0.00487221
0.00496263
0.00504738
0.00512647
0.00519952
0.00526582
6.97903e-05
0.000637363
0.00127427
0.00182604
0.00229616
0.00269722
0.00304066
0.00333601
0.00359119
0.00381293
0.00400694
0.00417818
0.00433095
0.0044689
0.00459514
0.00471217
0.00482195
0.00492586
0.00502471
0.0051188
0.00520793
0.00529147
0.00536844
7.00569e-05
0.000643981
0.00128544
0.00184134
0.00231435
0.00271727
0.00306183
0.00335785
0.00361356
0.00383594
0.004031
0.00420395
0.00435931
0.00450094
0.00463209
0.00475534
0.00487267
0.00498539
0.00509421
0.00519919
0.00529988
0.00539533
0.00548425
0.000296872
0.000650453
0.00129405
0.00185336
0.00232876
0.00273338
0.00307918
0.00337624
0.003633
0.00385668
0.00405356
0.00422907
0.00438799
0.00453438
0.00467163
0.00480243
0.00492877
0.0050519
0.00517235
0.00528993
0.00540385
0.00551274
0.00561493
0.000296885
0.000652304
0.00129908
0.0018609
0.00233828
0.00274461
0.00309207
0.00339082
0.00364944
0.0038753
0.00407489
0.00425393
0.00441742
0.00456967
0.00471424
0.00485397
0.00499087
0.00512612
0.00526005
0.00539217
0.00552121
0.00564529
0.00576219
6.98801e-05
0.000648277
0.00129911
0.00186222
0.00234118
0.00274959
0.00309956
0.0034011
0.0036627
0.00389183
0.00409516
0.00427869
0.00444775
0.00460691
0.00476001
0.00491005
0.00505913
0.00520839
0.00535794
0.00550686
0.0056533
0.00579462
0.00592788
6.98797e-05
0.000644082
0.00129232
0.00185461
0.00233482
0.00274628
0.00310036
0.00340638
0.0036725
0.00390617
0.00411431
0.00430328
0.0044788
0.00464582
0.00480855
0.00497025
0.00513321
0.00529858
0.00546626
0.00563481
0.00580151
0.00596267
0.00611423
6.98816e-05
0.000635826
0.00127498
0.00183327
0.00231501
0.00273179
0.00309278
0.00340582
0.00367845
0.00391813
0.00413214
0.00432736
0.00451004
0.00468567
0.00485893
0.00503353
0.00521211
0.00539597
0.00558485
0.00577665
0.00596747
0.00615194
0.00632428
0.000296667
0.000622058
0.00123863
0.00178934
0.0022752
0.00270221
0.00307488
0.00339861
0.00368022
0.00392746
0.00414829
0.00435034
0.0045406
0.00472526
0.00490966
0.00509817
0.00529403
0.005499
0.00571285
0.00593281
0.00615324
0.00636602
0.00656237
0.000296734
0.000585615
0.00116399
0.00170718
0.00220598
0.00265303
0.00304496
0.00338429
0.00367772
0.003934
0.00416231
0.00437142
0.00456928
0.00476295
0.00495863
0.00516161
0.00537611
0.00560486
0.00584825
0.00610313
0.00636151
0.00661043
0.00683522
6.9739e-05
0.000487222
0.00101262
0.00156334
0.0020966
0.00258074
0.00300264
0.00336336
0.00367136
0.00393776
0.00417377
0.00438968
0.00459466
0.00479675
0.00500318
0.0052204
0.00545412
0.00570886
0.00598686
0.00628589
0.00659567
0.00689455
0.00715361
8.77485e-05
0.000285543
0.000743944
0.00133781
0.00194219
0.0024871
0.002951
0.0033382
0.00366246
0.00393912
0.00418232
0.00440422
0.00461525
0.00482453
0.0050403
0.00527036
0.00552232
0.00580358
0.0061204
0.00647515
0.00685891
0.00723662
0.00753574
0.000190056
0.000130737
0.000412429
0.00104961
0.00176003
0.00238624
0.00289923
0.00331389
0.00365338
0.00393889
0.00418782
0.00441424
0.00462973
0.00484427
0.00506701
0.00530695
0.00557373
0.00587831
0.0062336
0.00665394
0.00714768
0.00768009
0.00801237
0.000413203
0.000139243
0.000199759
0.000800291
0.00161125
0.00231187
0.00286392
0.00329802
0.00364736
0.00393819
0.00419039
0.00441926
0.00463713
0.00485446
0.00508092
0.00532629
0.00560151
0.00592035
0.00630249
0.00678043
0.00741711
0.00835346
0.00862864
7.7693e-05
7.25959e-05
7.32739e-05
7.91242e-05
0.000677046
0.000645496
0.000645211
0.000677141
0.00129717
0.00126931
0.00127095
0.00130193
0.00177668
0.00176079
0.00176194
0.00177965
0.00214818
0.00214039
0.00214233
0.00215324
0.0024595
0.00245626
0.00245831
0.00246522
0.00272697
0.00272676
0.00272931
0.002734
0.00296286
0.00296451
0.00296715
0.00297018
0.0031734
0.00317578
0.00317807
0.00317992
0.00336418
0.0033666
0.00336834
0.0033691
0.00353909
0.00354114
0.0035421
0.00354171
0.00370052
0.00370204
0.00370209
0.00370049
0.00384979
0.00385078
0.00384999
0.00384726
0.0039876
0.0039882
0.00398674
0.00398313
0.00411455
0.00411491
0.00411302
0.00410879
0.00423126
0.00423154
0.00422944
0.00422489
0.00433836
0.00433875
0.00433666
0.00433206
0.00443656
0.00443724
0.0044354
0.00443101
0.00452665
0.00452783
0.00452649
0.00452258
0.00460961
0.00461154
0.00461095
0.00460782
0.00468665
0.00468959
0.00469006
0.00468803
0.00475922
0.00476351
0.00476537
0.00476478
0.00482905
0.00483504
0.00483868
0.00483992
0.00489809
0.0049062
0.00491202
0.0049155
0.00496848
0.00497916
0.00498761
0.00499376
0.00504248
0.0050562
0.00506773
0.00507701
0.00512238
0.00513963
0.00515472
0.00516756
0.00521039
0.00523166
0.00525078
0.00526764
0.00530864
0.0053344
0.00535799
0.00537929
0.00541904
0.00544978
0.00547828
0.0055044
0.00554341
0.00557957
0.00561337
0.00564467
0.00568344
0.00572544
0.00576491
0.00580165
0.00584081
0.00588906
0.00593449
0.00597691
0.0060174
0.00607226
0.00612389
0.00617207
0.00621546
0.00627724
0.00633518
0.00638908
0.006438
0.00650689
0.00657104
0.00663031
0.00668923
0.00676516
0.00683503
0.00689884
0.00697532
0.00705758
0.00713189
0.00719853
0.00730541
0.00739185
0.00746772
0.00753398
0.00769282
0.00777795
0.00784949
0.0079096
0.00815504
0.00822632
0.00828241
0.00832708
0.0087059
0.00873895
0.0087623
0.00877954
0.000391171
0.000820896
0.00113443
0.00132954
0.00144176
0.00149917
0.00151982
0.00151272
0.00148205
0.0014297
0.00136106
0.00128667
0.00120698
0.00112139
0.00102062
0.000880559
0.000680951
0.000396588
5.2282e-05
0.000902221
0.00120517
0.00143926
0.00159836
0.00169623
0.00174802
0.00176588
0.00175729
0.00172573
0.00167505
0.0016091
0.00153058
0.00143679
0.00132424
0.0011833
0.00100413
0.000765855
0.000436924
5.52175e-05
0.00140733
0.00158954
0.00174689
0.00186324
0.00193938
0.00198042
0.00199258
0.00198067
0.00194736
0.00189543
0.00182955
0.00174528
0.001635
0.00149597
0.00132121
0.00110621
0.000830658
0.000463659
5.58648e-05
0.00183246
0.00193796
0.00203746
0.00211622
0.00217006
0.00219832
0.00220317
0.0021869
0.00215051
0.00209541
0.00202586
0.00193307
0.001803
0.00164167
0.00143933
0.00119296
0.000883428
0.000478425
5.77694e-05
0.00218246
0.00224212
0.00230247
0.00235288
0.00238529
0.00239855
0.00239418
0.00237194
0.00232961
0.00226561
0.0021826
0.00207816
0.00193682
0.00175678
0.00153891
0.00127032
0.000935361
0.000505837
6.16755e-05
0.0024822
0.00251318
0.00254557
0.00257052
0.00258315
0.00258129
0.0025646
0.00253077
0.00247716
0.00240167
0.00230605
0.00219127
0.00203909
0.00185424
0.00162634
0.00134297
0.000986079
0.000524745
6.05419e-05
0.00274337
0.0027571
0.00276829
0.00277253
0.00276804
0.00275201
0.00272243
0.00267383
0.00260504
0.00251559
0.00240536
0.00227508
0.00211651
0.00192583
0.00169471
0.00140637
0.00103808
0.00054824
6.68687e-05
0.00297476
0.00297719
0.00297325
0.00296149
0.00294182
0.00291267
0.00286866
0.00280414
0.00271954
0.00261476
0.00248904
0.00234258
0.00216984
0.00196828
0.00172967
0.00143762
0.00106545
0.000576337
6.97914e-05
0.0031814
0.00317612
0.00316165
0.00313794
0.0031057
0.00306367
0.00300428
0.0029242
0.00282392
0.00270287
0.00255954
0.00239343
0.0022036
0.0019869
0.00173632
0.00143697
0.00106096
0.000571994
6.98659e-05
0.00336808
0.00335744
0.00333553
0.0033026
0.00325942
0.00320431
0.00313062
0.00303593
0.00292019
0.00278239
0.00262049
0.00243341
0.00222257
0.00198631
0.00172014
0.00141149
0.00103515
0.000558509
6.99367e-05
0.00353829
0.00352302
0.00349553
0.00345528
0.00340261
0.00333547
0.00324886
0.00314069
0.00301053
0.00285687
0.00267713
0.00246953
0.00223581
0.00197676
0.00169074
0.00136944
0.00099394
0.000539874
6.98176e-05
0.00369466
0.00367496
0.0036424
0.00359609
0.00353534
0.00345809
0.00336069
0.00324121
0.00309861
0.00293092
0.00273537
0.00250965
0.00225332
0.00196793
0.00165655
0.00131791
0.000942312
0.000516028
0.000295151
0.00383921
0.00381562
0.0037785
0.0037268
0.00365944
0.00357425
0.00346844
0.00334005
0.00318743
0.0030083
0.00279976
0.00255892
0.00228373
0.00197451
0.00163592
0.00127292
0.000889532
0.000491859
0.000295439
0.00397332
0.00394659
0.00390577
0.00384974
0.00377718
0.00368606
0.00357404
0.00343904
0.00327903
0.00309146
0.00287326
0.0026211
0.00233205
0.00200479
0.00164217
0.00125259
0.00085303
0.000470766
0.000294901
0.00409776
0.0040688
0.00402534
0.00396619
0.00388996
0.00379479
0.00367857
0.00353919
0.00337436
0.0031814
0.00295706
0.00269776
0.0023999
0.00206072
0.0016807
0.00126746
0.000843817
0.000455617
0.000294427
0.00421316
0.0041829
0.00413787
0.00407686
0.00399848
0.00390099
0.00378244
0.00364072
0.00347346
0.00327788
0.00305071
0.00278816
0.00248616
0.00214089
0.00175038
0.00131854
0.000865909
0.000444493
6.9367e-05
0.00432017
0.00428947
0.00424389
0.00418221
0.00410306
0.0040048
0.00388558
0.00374334
0.00357569
0.00337988
0.00315264
0.00289014
0.00258807
0.00224189
0.00184768
0.00140461
0.000923352
0.000447658
6.90304e-05
0.00441945
0.00438916
0.00434398
0.00428272
0.00420403
0.00410633
0.00398786
0.00384659
0.00368019
0.00348595
0.00326067
0.00300057
0.00270134
0.00235814
0.00196605
0.00152114
0.00102461
0.000499042
7.07957e-05
0.00451185
0.00448278
0.0044389
0.00437905
0.00430188
0.00420587
0.00408928
0.00395014
0.00378617
0.00359469
0.00337256
0.00311606
0.00282083
0.00248184
0.00209344
0.00164961
0.00114494
0.000582916
7.62377e-05
0.00459845
0.00457139
0.00452967
0.00447213
0.00439742
0.00430402
0.00419021
0.00405402
0.0038932
0.00370509
0.00348652
0.0032337
0.00294203
0.00260587
0.00221811
0.00176937
0.0012476
0.000647952
8.15606e-05
0.00468057
0.00465634
0.00461764
0.00456325
0.00449181
0.00440177
0.0042914
0.00415872
0.00400142
0.00381681
0.00360161
0.00335179
0.00306226
0.00272642
0.00233488
0.00187648
0.00133505
0.000696822
8.54908e-05
0.00475983
0.0047393
0.00470444
0.004654
0.00458656
0.00450052
0.00439409
0.00426523
0.00411157
0.00393027
0.00371788
0.00347005
0.00318093
0.00284322
0.00244646
0.00197642
0.0014135
0.000739296
8.82579e-05
0.00483812
0.00482216
0.004792
0.00474628
0.00468351
0.004602
0.00449988
0.00437502
0.00422492
0.00404656
0.0038363
0.00358944
0.00329974
0.00295886
0.00255513
0.00207216
0.00148738
0.000779089
9.07765e-05
0.00491754
0.00490708
0.00488245
0.00484219
0.0047847
0.00470819
0.00461068
0.00448991
0.00434324
0.00416752
0.0039588
0.00371206
0.0034206
0.00307529
0.0026633
0.00216644
0.00155954
0.000818033
9.34728e-05
0.00500036
0.00499632
0.00497805
0.00494396
0.00489234
0.00482126
0.00472863
0.00461204
0.0044687
0.00429523
0.00408746
0.00384
0.00354572
0.00319478
0.00277336
0.00226167
0.00163216
0.000857358
9.66171e-05
0.00508889
0.00509221
0.00508111
0.00505387
0.00500865
0.00494341
0.00485591
0.00474357
0.00460343
0.00443189
0.0042245
0.00397553
0.0036774
0.00331969
0.00288764
0.00236006
0.00170706
0.000898072
0.000100332
0.00518545
0.00519702
0.00519384
0.00517408
0.00513575
0.00507671
0.00499456
0.00488657
0.00474956
0.00457968
0.00437218
0.00412098
0.00381804
0.00345237
0.00300841
0.00246364
0.00178591
0.000941277
0.000104528
0.00529223
0.00531288
0.0053183
0.00530655
0.00527554
0.00522301
0.00514644
0.00504293
0.00490905
0.00474068
0.00453271
0.00427865
0.00397001
0.00359521
0.00313792
0.00257439
0.00187025
0.000987977
0.000109101
0.00541124
0.00544168
0.00545627
0.00545298
0.00542963
0.0053839
0.00531314
0.00521429
0.00508366
0.0049168
0.00470819
0.00445085
0.00413572
0.00375062
0.00327844
0.00269424
0.00196152
0.00103895
0.000114004
0.00554428
0.00558512
0.0056093
0.00561476
0.00559932
0.00556061
0.00549591
0.00540197
0.00527488
0.00510977
0.00490062
0.00463983
0.00431766
0.00392117
0.0034324
0.00282525
0.00206117
0.00109494
0.000119268
0.00569295
0.00574461
0.00577863
0.00579297
0.00578554
0.005754
0.00569561
0.00560698
0.0054839
0.00532108
0.00511186
0.00484786
0.00451844
0.00410966
0.00360256
0.00296979
0.00217079
0.00115644
0.000125184
0.00585871
0.0059214
0.00596523
0.00598836
0.00598887
0.00596457
0.00591274
0.00582991
0.00571159
0.00555197
0.00534364
0.00507724
0.00474088
0.00431931
0.00379217
0.00313073
0.00229242
0.00122424
0.000132087
0.00604294
0.00611655
0.00616988
0.00620141
0.00620955
0.00619239
0.00614736
0.00607095
0.0059584
0.00580336
0.00559754
0.00533031
0.00498815
0.00455392
0.00400534
0.00331186
0.00242889
0.00129994
0.000140064
0.00624706
0.00633109
0.00639314
0.00643228
0.00644746
0.00643717
0.00639912
0.00632984
0.00622436
0.0060758
0.00587487
0.0056094
0.00526375
0.00481811
0.00424731
0.00351822
0.00258411
0.00138576
0.000149121
0.00647265
0.00656597
0.00663542
0.0066809
0.00670212
0.00669819
0.00666717
0.00660578
0.00650896
0.00636931
0.00617656
0.00591677
0.0055716
0.00511755
0.00452509
0.0037569
0.00276356
0.00148435
0.000159444
0.00672154
0.00682223
0.00689697
0.00694691
0.00697275
0.00697432
0.00695022
0.00689747
0.00681104
0.00668325
0.00650291
0.00625426
0.00591581
0.00545913
0.00484809
0.00403832
0.00297563
0.00159959
0.000171346
0.00699592
0.00710083
0.00717781
0.00722965
0.00725818
0.00726407
0.00724653
0.007203
0.00712874
0.00701606
0.00685321
0.00662291
0.00630032
0.00585095
0.0052291
0.00437826
0.00323429
0.00173809
0.00018527
0.0072982
0.00740255
0.00747764
0.00752807
0.00755691
0.00756558
0.00755392
0.00751994
0.00745941
0.00736508
0.00722532
0.00702211
0.00672789
0.00630168
0.00568502
0.00480123
0.00356428
0.00191236
0.000202019
0.00763064
0.00772761
0.00779549
0.00784066
0.00786707
0.00787673
0.00786998
0.00784543
0.00779966
0.0077264
0.00761513
0.00744854
0.00719834
0.00681861
0.00623664
0.00534529
0.00401218
0.00214987
0.000223062
0.00799436
0.00807493
0.0081295
0.0081653
0.00818652
0.00819527
0.00819219
0.00817645
0.00814562
0.00809498
0.00801624
0.00789496
0.00770578
0.00740319
0.00690498
0.00606736
0.0046705
0.00252153
0.000251094
0.00838733
0.00844123
0.00847651
0.00849933
0.00851297
0.0085191
0.00851827
0.00851014
0.00849333
0.00846506
0.00842021
0.00834947
0.00823527
0.00804271
0.00769829
0.00704106
0.00573015
0.00324516
0.000290514
0.00880157
0.00882018
0.00883206
0.00883968
0.00884429
0.0088465
0.00884654
0.00884433
0.00883949
0.00883116
0.00881778
0.00879639
0.00876114
0.00869935
0.00857968
0.00831036
0.00757189
0.00520332
0.000343633
)
;

boundaryField
{
    leftWall
    {
        type            nutkWallFunction;
        Cmu             0.09;
        kappa           0.41;
        E               9.8;
        value           nonuniform List<scalar> 
50
(
1.78462e-06
2.85471e-06
3.48315e-06
3.94198e-06
4.30267e-06
4.60398e-06
4.86827e-06
5.11609e-06
5.44497e-06
5.85729e-06
6.26776e-06
2.33361e-06
3.40191e-06
2.0692e-06
0
0
0
0
0
0
6.40578e-09
9.29033e-09
0
0
0
0
0
0
0
3.51474e-10
1.52839e-08
0
4.31814e-09
4.34403e-09
5.83193e-09
7.08338e-09
1.06858e-08
0
1.37476e-08
1.56147e-08
1.52397e-08
2.70461e-09
3.13924e-09
5.39869e-09
1.2116e-08
1.57687e-08
0
2.90757e-06
1.83863e-05
4.87376e-05
)
;
    }
    rightWall
    {
        type            nutkWallFunction;
        Cmu             0.09;
        kappa           0.41;
        E               9.8;
        value           nonuniform List<scalar> 
50
(
2.27256e-06
3.08966e-06
3.63535e-06
4.13746e-06
4.60424e-06
5.04282e-06
5.46438e-06
5.87738e-06
6.33484e-06
6.6902e-06
6.7694e-06
1.28233e-06
3.60341e-06
1.73286e-06
0
0
1.85901e-09
6.33719e-09
2.66094e-09
0
1.7514e-09
0
0
0
0
2.80731e-07
1.1785e-06
1.92827e-06
2.55346e-06
3.00106e-06
3.40532e-06
3.83639e-06
4.35294e-06
4.94668e-06
5.60676e-06
6.32183e-06
7.06913e-06
7.87345e-06
8.78331e-06
9.85399e-06
1.10591e-05
1.24148e-05
1.39459e-05
1.56941e-05
1.77079e-05
2.01115e-05
2.31003e-05
2.70213e-05
3.24378e-05
3.95872e-05
)
;
    }
    lowerWall
    {
        type            nutkWallFunction;
        Cmu             0.09;
        kappa           0.41;
        E               9.8;
        value           nonuniform List<scalar> 
62
(
5.04289e-07
1.18911e-06
1.56559e-06
1.81512e-06
1.99968e-06
2.14424e-06
2.26131e-06
2.35809e-06
2.43871e-06
2.50656e-06
2.56503e-06
2.61737e-06
2.66468e-06
2.70301e-06
2.72026e-06
2.69341e-06
2.60107e-06
2.45094e-06
2.26126e-06
2.06193e-06
1.88077e-06
1.58027e-06
9.19863e-07
9.19863e-07
4.0133e-06
4.78982e-06
5.45914e-06
6.11686e-06
6.84084e-06
7.67688e-06
8.91566e-06
9.33538e-06
8.74544e-06
8.81936e-06
9.49148e-06
1.06671e-06
4.3752e-06
4.85768e-06
5.376e-06
6.02058e-06
6.76733e-06
7.73806e-06
9.33038e-06
1.06671e-06
1.90427e-06
2.28605e-06
2.44593e-06
2.53026e-06
2.567e-06
2.59401e-06
2.61068e-06
2.57647e-06
2.42935e-06
2.22295e-06
1.98312e-06
1.78881e-06
1.79126e-06
1.86855e-06
1.8378e-06
1.55522e-06
1.21295e-06
6.15424e-07
)
;
    }
    atmosphere
    {
        type            calculated;
        value           nonuniform List<scalar> 
46
(
0.009
0.000139243
0.000199759
0.000800291
0.00161125
0.00231187
0.00286392
0.00329802
0.00364736
0.00393819
0.00419039
0.00441926
0.00463713
0.00485446
0.00508092
0.00532629
0.00560151
0.00592035
0.00630249
0.00678043
0.00741711
0.009
0.009
0.009
0.009
0.009
0.009
0.009
0.009
0.009
0.009
0.009
0.009
0.009
0.009
0.009
0.009
0.009
0.009
0.009
0.009
0.009
0.009
0.009
0.009
0.000343633
)
;
    }
    defaultFaces
    {
        type            empty;
    }
}


// ************************************************************************* //
