/*--------------------------------*- C++ -*----------------------------------*\
  =========                 |
  \\      /  F ield         | OpenFOAM: The Open Source CFD Toolbox
   \\    /   O peration     | Website:  https://openfoam.org
    \\  /    A nd           | Version:  9
     \\/     M anipulation  |
\*---------------------------------------------------------------------------*/
FoamFile
{
    format      ascii;
    class       surfaceScalarField;
    location    "7.56";
    object      alphaPhi0.water;
}
// * * * * * * * * * * * * * * * * * * * * * * * * * * * * * * * * * * * * * //

dimensions      [0 3 -1 0 0 0 0];

internalField   nonuniform List<scalar> 
4432
(
-1.18833e-07
1.18833e-07
-2.0334e-07
8.45049e-08
-2.72875e-07
6.95405e-08
-3.32855e-07
5.998e-08
-3.81617e-07
4.87631e-08
-4.16547e-07
3.49328e-08
-4.35657e-07
1.91097e-08
-4.38355e-07
2.69905e-09
-4.26743e-07
-1.16126e-08
-4.00435e-07
-2.63074e-08
-3.55366e-07
-4.50688e-08
-2.79669e-07
-7.5697e-08
-1.58174e-07
-1.21494e-07
1.89098e-08
-1.77083e-07
2.40089e-07
-2.21178e-07
4.33435e-07
-1.93344e-07
4.42317e-07
-8.87799e-09
1.47942e-07
2.94372e-07
-4.01587e-07
5.50123e-07
-1.08156e-06
6.7938e-07
-1.31191e-06
2.29032e-07
-8.76182e-07
-4.36486e-07
-8.76605e-07
-1.0386e-07
2.227e-07
-1.87667e-07
1.68309e-07
-2.5917e-07
1.41051e-07
-3.19027e-07
1.1984e-07
-3.66797e-07
9.65325e-08
-4.01389e-07
6.95292e-08
-4.21844e-07
3.95633e-08
-4.28818e-07
9.67591e-09
-4.23136e-07
-1.7295e-08
-4.05831e-07
-4.36128e-08
-3.73061e-07
-7.78372e-08
-3.17731e-07
-1.31026e-07
-2.28883e-07
-2.10341e-07
-1.02694e-07
-3.0327e-07
4.79707e-08
-3.7184e-07
1.73782e-07
-3.19157e-07
1.7652e-07
-1.16088e-08
-2.5697e-08
4.96585e-07
-3.51484e-07
8.76718e-07
-6.83413e-07
1.01071e-06
-8.71058e-07
4.16468e-07
-7.37484e-07
-5.70057e-07
-1.61409e-06
-9.36469e-08
3.16353e-07
-1.76593e-07
2.51253e-07
-2.49474e-07
2.13936e-07
-3.10703e-07
1.81072e-07
-3.59958e-07
1.45787e-07
-3.96726e-07
1.06301e-07
-4.20875e-07
6.37119e-08
-4.33162e-07
2.19631e-08
-4.3489e-07
-1.55659e-08
-4.26625e-07
-5.18787e-08
-4.06437e-07
-9.80247e-08
-3.68779e-07
-1.68684e-07
-3.06907e-07
-2.72212e-07
-2.17239e-07
-3.92937e-07
-1.08884e-07
-4.80188e-07
-1.30254e-08
-4.15e-07
-5.11666e-09
-1.95069e-08
-1.45471e-07
6.3694e-07
-3.12604e-07
1.04493e-06
-4.41957e-07
1.14081e-06
-5.89064e-07
5.63335e-07
-5.54434e-07
-6.04684e-07
-2.16852e-06
-8.69616e-08
4.03321e-07
-1.69097e-07
3.33389e-07
-2.43075e-07
2.87916e-07
-3.06361e-07
2.44363e-07
-3.58343e-07
1.97769e-07
-3.98927e-07
1.46888e-07
-4.2816e-07
9.29455e-08
-4.46708e-07
4.05115e-08
-4.56237e-07
-6.03642e-09
-4.5765e-07
-5.04661e-08
-4.50105e-07
-1.05571e-07
-4.30042e-07
-1.88746e-07
-3.92328e-07
-3.09926e-07
-3.33489e-07
-4.51775e-07
-2.56204e-07
-5.57469e-07
-1.7301e-07
-4.98149e-07
-1.42525e-07
-5.00195e-08
-2.2363e-07
7.17962e-07
-2.92646e-07
1.114e-06
-3.11521e-07
1.16049e-06
-3.94942e-07
6.46808e-07
-3.69551e-07
-6.3015e-07
-2.53804e-06
-8.26578e-08
4.85983e-07
-1.6432e-07
4.15053e-07
-2.39875e-07
3.63474e-07
-3.0588e-07
3.10372e-07
-3.61664e-07
2.53553e-07
-4.07417e-07
1.92645e-07
-4.43066e-07
1.28596e-07
-4.69057e-07
6.65031e-08
-4.87081e-07
1.19891e-08
-4.98768e-07
-3.87785e-08
-5.04296e-07
-1.00042e-07
-5.01517e-07
-1.91524e-07
-4.86218e-07
-3.25225e-07
-4.54929e-07
-4.83063e-07
-4.04912e-07
-6.07478e-07
-3.31822e-07
-5.70799e-07
-2.64104e-07
-1.18032e-07
-2.93401e-07
7.47266e-07
-2.89346e-07
1.10995e-06
-2.43814e-07
1.11497e-06
-2.61906e-07
6.64904e-07
-1.83525e-07
-7.07948e-07
-2.72159e-06
-7.97469e-08
5.65733e-07
-1.62034e-07
4.97341e-07
-2.39842e-07
4.41284e-07
-3.09328e-07
3.79862e-07
-3.70055e-07
3.14282e-07
-4.22308e-07
2.44902e-07
-4.65655e-07
1.71946e-07
-5.00111e-07
1.00963e-07
-5.27414e-07
3.92955e-08
-5.49671e-07
-1.65187e-08
-5.68128e-07
-8.15827e-08
-5.81682e-07
-1.77967e-07
-5.87074e-07
-3.1983e-07
-5.81011e-07
-4.89125e-07
-5.57978e-07
-6.30507e-07
-5.0478e-07
-6.23999e-07
-3.9953e-07
-2.19992e-07
-3.61403e-07
7.00818e-07
-3.07329e-07
1.05578e-06
-2.14215e-07
1.0218e-06
-1.53655e-07
5.93985e-07
1.50788e-08
-8.74365e-07
-2.70652e-06
-7.70645e-08
6.428e-07
-1.61739e-07
5.82017e-07
-2.42874e-07
5.22421e-07
-3.16751e-07
4.53741e-07
-3.83488e-07
3.81022e-07
-4.43499e-07
3.04916e-07
-4.958e-07
2.24251e-07
-5.39757e-07
1.44924e-07
-5.7695e-07
7.64922e-08
-6.09816e-07
1.6351e-08
-6.40392e-07
-5.10044e-08
-6.6861e-07
-1.49746e-07
-6.92095e-07
-2.96342e-07
-7.08361e-07
-4.72858e-07
-7.11579e-07
-6.27285e-07
-6.86975e-07
-6.48602e-07
-5.79996e-07
-3.1699e-07
-4.44183e-07
5.56487e-07
-3.3446e-07
9.28003e-07
-2.02823e-07
8.76351e-07
-2.17609e-08
4.10306e-07
1.98113e-07
-1.09627e-06
-2.50818e-06
-7.8074e-08
7.20876e-07
-1.64642e-07
6.68586e-07
-2.48813e-07
6.06593e-07
-3.27635e-07
5.32565e-07
-4.01374e-07
4.5476e-07
-4.70294e-07
3.73834e-07
-5.32696e-07
2.8665e-07
-5.87083e-07
1.99308e-07
-6.34664e-07
1.2407e-07
-6.77811e-07
5.94951e-08
-7.19082e-07
-9.7365e-09
-7.59295e-07
-1.09536e-07
-7.97205e-07
-2.58432e-07
-8.31302e-07
-4.38764e-07
-8.55921e-07
-6.02664e-07
-8.55224e-07
-6.49299e-07
-7.89185e-07
-3.78852e-07
-5.72976e-07
3.55553e-07
-3.88306e-07
7.42204e-07
-1.93293e-07
6.80211e-07
8.16858e-08
1.39248e-07
2.25331e-07
-1.24164e-06
-2.28262e-06
-1.00914e-06
9.99733e-07
-2.40722e-07
-7.68124e-07
5.47217e-07
-7.89009e-07
1.07691e-06
-5.30898e-07
1.46771e-06
-3.92835e-07
1.71257e-06
-2.5041e-07
1.93566e-06
-2.2487e-07
2.20295e-06
-2.69067e-07
2.39852e-06
-1.96993e-07
2.19936e-06
1.97482e-07
1.55519e-06
6.4416e-07
6.42723e-07
9.12466e-07
-4.01904e-07
1.04812e-06
-9.7526e-07
5.73214e-07
-9.57771e-07
-1.75223e-08
-5.82254e-07
-3.75552e-07
-2.97651e-07
-2.84632e-07
1.47302e-07
-4.44962e-07
1.47045e-07
-4.71524e-07
1.47084e-06
1.21864e-07
-1.36099e-06
5.90627e-07
-1.25777e-06
9.32777e-07
-8.73046e-07
1.16938e-06
-6.29439e-07
1.37053e-06
-4.51561e-07
1.56478e-06
-4.19468e-07
1.75064e-06
-4.55179e-07
1.81348e-06
-2.60085e-07
1.58553e-06
4.24919e-07
1.12205e-06
1.10528e-06
5.5289e-07
1.48899e-06
-4.27229e-08
1.64626e-06
-5.29939e-07
1.05875e-06
-6.8275e-07
1.35291e-07
-5.94709e-07
-4.63602e-07
-5.50029e-07
-3.29328e-07
-2.71319e-07
-7.23937e-07
-1.23813e-07
6.58489e-08
1.40491e-06
3.85237e-07
-1.67949e-06
6.31059e-07
-1.50359e-06
8.34741e-07
-1.07674e-06
9.92655e-07
-7.87351e-07
1.13432e-06
-5.9325e-07
1.27333e-06
-5.58484e-07
1.39822e-06
-5.80061e-07
1.40854e-06
-2.70583e-07
1.17077e-06
6.62519e-07
8.14534e-07
1.4612e-06
4.70037e-07
1.83623e-06
1.37453e-07
1.98247e-06
-2.47332e-07
1.44646e-06
-4.55816e-07
3.42556e-07
-5.13276e-07
-4.06197e-07
-6.99227e-07
-1.42935e-07
-6.18041e-07
-8.0069e-07
-7.42425e-07
5.22651e-07
8.82174e-07
5.74735e-07
-1.72876e-06
6.44349e-07
-1.57322e-06
7.45786e-07
-1.17824e-06
8.41547e-07
-8.83115e-07
9.30035e-07
-6.81788e-07
1.0171e-06
-6.45572e-07
1.09751e-06
-6.60581e-07
1.09772e-06
-2.71422e-07
8.97947e-07
8.60259e-07
6.26592e-07
1.73261e-06
4.09411e-07
2.0534e-06
2.13502e-07
2.17839e-06
-7.93532e-08
1.74019e-06
-2.50362e-07
5.10353e-07
-3.65027e-07
-2.91595e-07
-7.03856e-07
1.97217e-07
-7.54857e-07
-7.50243e-07
-1.49786e-06
7.48565e-07
1.37657e-07
6.5512e-07
-1.63365e-06
6.17349e-07
-1.53544e-06
6.50943e-07
-1.21184e-06
6.9842e-07
-9.30626e-07
7.39933e-07
-7.23354e-07
7.79362e-07
-6.85307e-07
8.24634e-07
-7.06167e-07
8.34401e-07
-2.81303e-07
6.94952e-07
9.97374e-07
4.97749e-07
1.92989e-06
3.71464e-07
2.17968e-06
2.54261e-07
2.29559e-06
3.49483e-08
1.95769e-06
-4.10561e-08
5.84863e-07
-1.45529e-07
-1.86327e-07
-5.1734e-07
5.6337e-07
-6.34203e-07
-6.35937e-07
-2.13605e-06
7.24838e-07
-5.87123e-07
6.21397e-07
-1.5302e-06
5.50021e-07
-1.46406e-06
5.46989e-07
-1.20879e-06
5.60391e-07
-9.44042e-07
5.62484e-07
-7.25582e-07
5.56967e-07
-6.79897e-07
5.67477e-07
-7.17e-07
5.9573e-07
-3.10302e-07
5.31672e-07
1.0532e-06
4.07172e-07
2.05438e-06
3.51308e-07
2.23554e-06
3.02672e-07
2.34423e-06
1.50541e-07
2.10982e-06
1.662e-07
5.69477e-07
1.23053e-07
-1.41653e-07
-1.63644e-07
8.4927e-07
-3.56268e-07
-4.4331e-07
-2.49232e-06
5.53031e-07
-1.14015e-06
5.13079e-07
-1.49026e-06
4.54546e-07
-1.40553e-06
4.36614e-07
-1.1909e-06
4.28198e-07
-9.35661e-07
3.99622e-07
-6.9702e-07
3.52368e-07
-6.32657e-07
3.20293e-07
-6.84943e-07
3.5693e-07
-3.48067e-07
3.94062e-07
1.01354e-06
3.51185e-07
2.05471e-06
3.54273e-07
2.23245e-06
3.51087e-07
2.34741e-06
3.24008e-07
2.08601e-06
4.06009e-07
4.93726e-07
3.76453e-07
-1.12018e-07
2.18857e-07
1.00272e-06
1.58589e-08
-2.38036e-07
-2.47645e-06
3.38969e-07
-1.47912e-06
3.84662e-07
-1.53596e-06
3.47746e-07
-1.3686e-06
3.23332e-07
-1.16648e-06
3.02684e-07
-9.15008e-07
2.54315e-07
-6.48624e-07
1.73463e-07
-5.51839e-07
9.45159e-08
-6.06291e-07
1.09504e-07
-3.63638e-07
2.5601e-07
8.50068e-07
3.20063e-07
1.95664e-06
3.82568e-07
2.11223e-06
4.24731e-07
2.22775e-06
5.92543e-07
1.89729e-06
6.66709e-07
4.33519e-07
5.70406e-07
-1.56888e-08
5.82868e-07
9.80158e-07
3.60821e-07
-1.37781e-08
-2.11563e-06
-1.59063e-07
8.79937e-07
-3.5214e-07
8.61663e-07
-5.49138e-07
8.03592e-07
-7.38505e-07
7.21934e-07
-9.22335e-07
6.3859e-07
-1.10187e-06
5.53366e-07
-1.27179e-06
4.56576e-07
-1.42513e-06
3.52646e-07
-1.56221e-06
2.61145e-07
-1.68509e-06
1.82375e-07
-1.80067e-06
1.05843e-07
-1.91479e-06
4.54569e-09
-2.02726e-06
-1.45956e-07
-2.13894e-06
-3.27086e-07
-2.23741e-06
-5.04194e-07
-2.27642e-06
-6.10274e-07
-2.17296e-06
-4.82223e-07
-1.6892e-06
-1.18822e-07
-1.07732e-06
1.42496e-07
-4.55926e-07
6.40895e-08
8.44385e-08
-4.01289e-07
-5.02937e-08
-1.10621e-06
-1.49882e-06
-8.33584e-07
-1.72039e-07
7.26176e-07
-3.57078e-07
7.22129e-07
-5.59895e-07
6.97625e-07
-7.73887e-07
6.53218e-07
-9.85131e-07
5.96867e-07
-1.19614e-06
5.40158e-07
-1.41786e-06
4.83533e-07
-1.63471e-06
4.10663e-07
-1.82602e-06
3.29259e-07
-1.98198e-06
2.48052e-07
-2.10256e-06
1.66901e-07
-2.20263e-06
7.53495e-08
-2.30134e-06
-4.25138e-08
-2.41184e-06
-1.83424e-07
-2.53201e-06
-3.30905e-07
-2.60051e-06
-4.60799e-07
-2.49074e-06
-5.09087e-07
-2.05425e-06
-4.85651e-07
-1.37603e-06
-4.54517e-07
-6.90456e-07
-5.26952e-07
-2.50261e-07
-7.53014e-07
-2.29282e-07
-1.0071e-06
-1.16186e-06
-4.26607e-07
-1.27361e-07
0
-2.04045e-07
0
-2.62602e-07
5.26651e-09
-3.27574e-07
2.18698e-08
-4.06071e-07
1.10005e-08
-4.89472e-07
0
-5.66684e-07
2.50727e-08
-6.48271e-07
1.59727e-08
-7.33318e-07
8.11826e-09
-8.09811e-07
3.20332e-09
-8.67481e-07
7.24415e-10
-9.04951e-07
3.06779e-10
-9.4303e-07
-1.47264e-10
-9.91481e-07
-7.79822e-10
-1.05177e-06
-9.29546e-10
-1.12167e-06
-7.31258e-08
-1.11655e-06
-1.17633e-07
-9.66768e-07
-6.60811e-09
-6.83773e-07
-1.31903e-08
-3.70999e-07
-3.05959e-08
-1.66227e-07
-5.41212e-08
-1.25868e-07
-7.1096e-08
-6.88599e-08
-1.25759e-07
-6.84786e-10
0
-1.73491e-09
0
-2.14985e-09
4.89153e-13
-2.20044e-09
0
-2.69434e-09
1.19049e-12
-4.41946e-09
0
-3.89136e-09
0
-3.16642e-09
0
-2.99136e-09
0
-2.85121e-09
0
-2.69041e-09
0
-2.62854e-09
0
-2.56737e-09
-4.6153e-10
-2.52041e-09
-1.06661e-09
-2.77472e-09
-9.28336e-10
-1.70471e-09
-2.23786e-09
-1.02917e-09
-3.02054e-09
-8.43513e-10
-3.47782e-09
-6.77097e-10
-2.39129e-09
-3.92816e-10
-2.82627e-09
-1.25656e-10
-2.95184e-09
-1.56865e-11
-2.22236e-09
-1.45398e-09
-2.03819e-11
-6.16131e-10
2.36443e-10
-4.89721e-10
1.43228e-10
-1.91122e-09
2.60576e-10
-3.76961e-09
1.21289e-09
-4.4721e-09
1.55943e-09
-5.52559e-09
1.69116e-09
-8.03007e-09
2.66787e-10
-8.6469e-09
-3.41387e-13
-7.93401e-09
6.96562e-11
-7.51225e-09
7.24106e-11
-6.00168e-09
-1.01343e-11
-4.46032e-09
-4.68776e-11
-3.22788e-09
-4.48659e-11
-2.07261e-10
-1.48611e-09
7.26395e-10
-1.32e-09
7.73787e-10
-1.4859e-09
2.09261e-10
-1.96035e-09
8.42283e-11
-2.13073e-09
0
-7.49876e-10
-7.67938e-11
-1.52033e-09
-1.73447e-11
-1.0488e-09
-1.31718e-10
-1.53305e-09
-5.76712e-10
-7.84059e-10
4.86776e-10
1.45518e-10
9.62075e-10
1.04326e-10
7.07697e-10
0
8.83278e-12
0
-2.36133e-10
0
-8.32345e-12
0
-4.46401e-14
0
-3.83593e-13
-7.24649e-15
-3.77429e-13
-1.84204e-14
-5.44973e-14
-4.6008e-15
-1.01817e-11
-7.07692e-15
-4.4864e-13
-2.96814e-13
-4.98521e-11
-2.67758e-13
-1.83744e-10
-6.80736e-11
-8.19851e-11
-3.86806e-10
-2.95901e-11
-2.87263e-10
-1.60702e-10
-1.62852e-10
-3.5209e-10
-2.77678e-10
-5.71517e-10
-6.57862e-11
-1.17149e-09
-1.35906e-10
-1.39762e-09
-4.81363e-10
-1.23361e-09
-6.90602e-10
-6.2251e-10
-1.39231e-09
1.34766e-12
7.52842e-15
2.27573e-13
9.28237e-16
-2.34326e-12
0
-1.22497e-12
0
1.07989e-12
0
2.7915e-15
0
-7.01411e-15
8.89921e-13
-3.0479e-14
1.13567e-14
-3.33555e-14
1.58197e-14
-3.94528e-14
1.49635e-15
-4.85874e-14
2.0575e-15
-3.45408e-13
4.34e-20
0
-5.61101e-12
-4.77163e-11
-1.1059e-10
-1.01157e-10
-4.19454e-10
-3.87133e-11
-2.44121e-10
-3.00206e-11
-4.95426e-11
-7.30666e-11
-2.28848e-11
-8.19915e-11
0
-1.0354e-10
0
-3.92009e-10
-1.72059e-12
-7.87523e-10
-8.1978e-11
-1.47462e-10
-8.71345e-10
-1.05487e-15
7.27745e-15
-8.56124e-15
7.46014e-15
-8.43274e-14
2.40714e-14
-6.54357e-13
0
-2.9704e-13
0
3.64567e-14
5.91325e-12
-1.66208e-13
2.58562e-12
-2.20584e-13
7.31727e-13
-8.8595e-13
2.7311e-13
-1.26052e-12
7.35642e-13
0
6.66838e-13
0
4.77366e-14
-3.43454e-11
-5.01266e-12
-6.73563e-11
-9.64182e-11
-1.84229e-10
-1.48369e-10
-1.2029e-10
-1.04322e-10
-6.66936e-11
-4.02098e-11
-5.18705e-11
-1.0016e-11
-1.54004e-11
0
-5.01673e-13
4.37145e-14
-1.21671e-12
0
-1.21706e-11
-1.82822e-13
-1.83157e-15
-1.11334e-14
-6.43637e-16
7.854e-15
-2.03255e-15
8.25902e-15
-2.44799e-15
2.34683e-14
0
2.25008e-15
-3.44014e-13
0
-5.12713e-13
1.9151e-12
-5.3392e-13
3.56441e-12
-4.65828e-13
1.16951e-12
-2.2273e-12
6.3353e-13
-3.04464e-12
1.55605e-12
0
1.27053e-12
-1.28363e-12
2.11045e-13
-1.23759e-11
-1.2207e-15
-1.63019e-11
-3.05433e-15
-2.10613e-11
-1.67007e-13
-4.88312e-11
-2.74094e-12
-7.13211e-11
-1.20537e-11
-1.46278e-11
-3.21298e-12
-8.40658e-14
0
-4.08919e-14
9.16924e-15
-4.04055e-14
7.03058e-15
-9.56804e-15
0
-3.03183e-15
-1.07441e-14
-5.73552e-16
8.3619e-15
-1.17104e-14
1.933e-14
-6.02273e-15
2.49719e-13
0
1.70335e-14
-2.63387e-14
1.48507e-15
-5.37494e-13
0
-2.42711e-13
7.89407e-13
0
2.3194e-13
-2.67951e-12
1.34943e-12
-3.12994e-12
2.00955e-12
-2.95208e-12
1.09574e-12
-1.1483e-15
2.62386e-13
-1.01648e-15
-2.95232e-16
-1.54976e-15
-1.45199e-15
-8.81317e-15
-1.58664e-13
-2.43576e-12
-3.13645e-13
-6.29149e-12
-7.66923e-13
-2.05508e-12
-2.58331e-13
-8.81624e-14
7.58755e-14
-7.67132e-14
9.02658e-15
-7.4473e-14
8.91622e-15
-7.31952e-14
1.12432e-14
2.46137e-16
-1.2479e-14
-4.1694e-15
1.37535e-14
-3.27688e-14
2.91956e-13
-3.33612e-14
3.3011e-13
-2.1404e-15
5.66381e-14
-1.77843e-15
1.38856e-15
-3.35871e-14
1.04405e-15
-2.23867e-14
7.28641e-14
-5.9156e-13
1.29496e-13
-2.30328e-12
1.40033e-12
-2.43443e-12
2.14377e-12
-2.6456e-13
5.04864e-13
-1.48544e-15
3.6526e-16
-7.31969e-16
-5.91783e-18
-7.74593e-16
-3.36935e-16
-6.84156e-13
-2.43155e-14
-9.69995e-13
-1.09473e-12
-1.06498e-13
-3.29536e-12
-7.04219e-14
-3.95452e-13
-5.49649e-14
1.53709e-14
-1.0244e-13
9.46579e-15
-1.00901e-13
2.08195e-14
-8.9187e-14
1.30036e-14
2.37935e-15
-1.07997e-14
-7.46221e-15
1.78971e-14
-2.23287e-14
3.26529e-13
-9.03179e-15
3.36436e-13
-5.27643e-16
7.41678e-14
-2.5232e-16
1.37779e-15
-1.48798e-16
1.20655e-15
-2.60883e-14
9.88762e-14
-1.17275e-13
1.31556e-12
-1.03772e-12
1.83162e-12
-1.18354e-12
8.17076e-13
-2.57808e-15
8.8047e-14
-1.57841e-15
4.08373e-16
-7.30248e-16
1.80119e-16
0
-4.4123e-17
-1.16761e-12
-4.05844e-14
-1.54076e-11
-1.86497e-12
-1.54966e-11
-2.42849e-12
-5.57783e-12
-9.33811e-13
-1.31511e-13
3.49168e-13
-5.47173e-14
5.80059e-15
-6.7489e-14
2.17698e-15
-5.29134e-14
4.79639e-15
5.59317e-16
-3.50174e-15
-1.03536e-15
5.57547e-15
-1.30068e-14
8.72473e-14
-3.66178e-15
3.46745e-13
-3.85949e-16
3.35857e-14
-1.49779e-16
1.40182e-15
-1.6881e-16
1.48755e-15
-4.25922e-13
1.67912e-12
-9.78023e-13
2.99292e-12
-5.49653e-13
2.48452e-12
-8.97621e-14
3.08239e-13
-1.60107e-15
7.07743e-16
-9.37599e-16
5.5834e-16
-8.16741e-17
3.48758e-16
0
9.28317e-17
-2.35298e-12
1.24044e-15
-1.45765e-11
-3.59358e-13
-1.53417e-11
-8.91367e-13
-1.49067e-11
-5.92052e-13
-3.2775e-14
7.16411e-13
-2.92881e-14
1.87472e-15
-1.57865e-14
2.64494e-15
-1.6917e-14
1.8444e-15
7.19943e-17
-5.92827e-15
-1.16394e-17
3.38268e-15
-2.12885e-15
9.48631e-15
-1.50908e-15
0
-2.51833e-16
2.36983e-15
-6.08095e-17
1.45499e-15
-1.75171e-14
7.91846e-15
-6.46778e-13
1.85406e-12
-8.06486e-13
3.263e-12
-3.07275e-13
1.36779e-12
-8.55401e-16
1.51313e-15
-8.47754e-16
9.61034e-16
-9.8593e-16
7.95056e-16
-3.19551e-16
4.96039e-16
0
6.79795e-17
0
1.51282e-17
-2.6126e-12
0
-1.20859e-11
-3.40133e-14
-1.19584e-11
5.61683e-14
-2.57308e-14
1.23709e-13
-2.57603e-14
1.42419e-15
-2.57634e-14
3.10446e-15
-3.18299e-14
2.15757e-15
-1.21164e-15
-7.36627e-15
-3.05067e-19
6.1335e-15
-6.75465e-18
7.62948e-15
-1.72304e-17
2.35831e-16
-2.78496e-17
7.09426e-16
0
1.6335e-15
0
2.01713e-14
-3.04593e-13
6.01011e-13
-6.25706e-13
1.19826e-12
-1.67066e-15
2.1209e-15
-9.14099e-16
4.53204e-16
-8.91364e-16
1.10298e-15
-6.97466e-16
1.10026e-15
-2.00418e-16
5.25066e-16
-8.86725e-17
5.14797e-17
-1.01424e-16
2.70416e-17
-4.55225e-14
0
-9.96922e-13
0
-5.81324e-13
0
-4.29726e-14
0
-4.31394e-14
1.06227e-15
-3.71326e-14
2.80296e-15
-2.23496e-14
9.08066e-16
-1.35902e-15
-1.84686e-16
1.21741e-17
8.86243e-15
2.25526e-17
3.05803e-13
-5.38547e-18
4.23227e-16
-3.77315e-18
8.13779e-16
0
6.71742e-15
-9.67343e-15
4.52122e-14
-2.83433e-14
1.01995e-16
-2.26435e-15
4.95713e-18
-1.5707e-16
3.9187e-19
-4.94887e-16
4.87333e-16
-6.84303e-16
1.19366e-15
-4.7971e-16
9.56039e-16
-8.90634e-17
1.88136e-16
-7.82017e-17
4.4265e-17
-8.77897e-17
3.82576e-17
-1.39931e-16
2.6709e-17
-1.41902e-16
1.08256e-18
-1.65954e-16
4.41174e-19
-1.73399e-15
0
-1.81578e-14
6.21703e-16
-3.0416e-14
1.42476e-15
-1.63275e-14
-2.433e-16
-6.18708e-16
-3.09555e-15
1.88289e-15
9.14738e-13
1.0791e-15
9.33635e-13
-2.16899e-18
9.33468e-17
-2.834e-17
1.2105e-15
-8.49753e-16
1.06125e-14
-1.0085e-16
1.5131e-14
-2.71115e-17
3.66523e-17
-5.07681e-18
3.8762e-18
-3.9847e-17
2.63935e-17
-2.53126e-16
2.63645e-16
-2.96437e-16
4.34362e-16
-1.00841e-16
2.32944e-16
-3.99896e-17
3.13831e-17
-5.99264e-17
2.85152e-17
-7.95035e-17
4.48663e-17
-8.58293e-17
3.85486e-17
-8.45593e-17
2.67963e-17
-8.9432e-17
1.90833e-17
-3.84119e-16
1.37767e-17
-2.55823e-15
1.53187e-17
-2.67999e-15
0
-1.79457e-15
-2.66516e-17
-9.60775e-17
-2.35151e-15
2.47056e-15
9.13785e-13
3.73233e-16
5.56537e-13
-4.62526e-18
9.47731e-17
-9.62189e-17
1.64218e-15
-2.37173e-16
6.77679e-15
-2.3378e-17
1.45715e-15
-2.9033e-18
3.65155e-17
-3.20576e-18
3.22186e-17
-1.37125e-17
1.86533e-17
-4.33375e-17
3.50102e-17
-3.78483e-17
3.46304e-17
-5.84592e-18
9.05869e-18
-9.10752e-18
1.27244e-18
-3.11307e-17
1.00993e-17
-5.48312e-17
2.86182e-17
-6.76399e-17
3.46714e-17
-7.23077e-17
3.07209e-17
-6.64026e-17
2.24449e-17
-4.89462e-17
8.68506e-18
-1.36508e-17
1.88198e-18
-1.39721e-17
2.70331e-19
-1.14818e-16
-5.44209e-19
-1.69314e-18
-2.74279e-16
1.1473e-15
9.14162e-13
-1.45342e-17
2.02317e-13
-1.0782e-17
9.14246e-17
-6.07245e-17
1.28222e-15
-2.91424e-17
2.05141e-15
-2.25921e-18
4.27363e-17
-2.62024e-18
4.0853e-17
-1.21655e-18
3.67114e-17
-1.28941e-18
4.39247e-18
-1.50335e-18
5.61398e-19
-6.70997e-19
2.39092e-19
-9.59376e-20
1.40718e-18
-4.84035e-19
2.40405e-19
-6.7548e-18
6.07262e-19
-1.92339e-17
5.20269e-18
-2.60934e-17
9.5023e-18
-2.7591e-17
8.73661e-18
-2.29104e-17
5.78559e-18
-1.4046e-17
2.53395e-18
-7.5521e-18
7.71122e-19
-3.75718e-18
1.46062e-19
-2.58979e-18
-7.6963e-20
-1.43684e-19
-1.20718e-18
-1.88267e-15
9.17671e-13
-9.56945e-18
1.01505e-13
-9.90305e-18
9.17494e-17
-1.63411e-17
5.24898e-16
-1.09144e-18
2.81434e-16
-1.23119e-18
1.3736e-17
-1.59849e-18
2.21606e-17
-1.78148e-19
1.57714e-17
-7.36308e-21
1.0666e-18
-4.92735e-21
3.92405e-20
1.82736e-19
9.83141e-21
2.22195e-19
-7.80635e-19
-2.24748e-20
-7.01095e-19
-2.31952e-19
5.24212e-20
-1.67207e-18
1.064e-18
-2.47375e-18
2.85563e-19
-2.42364e-18
2.80895e-19
-1.75292e-18
1.44391e-19
-1.12932e-18
6.04777e-20
-7.88588e-19
2.46884e-20
-4.17282e-19
5.68964e-21
-2.56793e-19
-4.99527e-21
-7.91219e-21
-2.38933e-19
-4.0825e-15
9.2484e-13
-4.18552e-18
2.89783e-13
-4.57106e-18
9.20522e-17
-3.55957e-18
1.33572e-16
-4.30913e-19
8.38792e-17
-3.77103e-19
1.18691e-17
-3.33899e-19
2.85819e-18
5.34197e-20
8.80353e-19
1.70918e-19
-7.61269e-19
2.53976e-19
-1.75714e-18
3.31443e-19
-1.91148e-18
3.45726e-19
-1.84574e-18
2.56958e-19
-1.43255e-18
1.04431e-19
-7.93041e-19
-1.26564e-20
-2.39334e-19
-2.16782e-20
2.13797e-20
-1.78185e-20
2.71935e-20
-9.16714e-21
1.2195e-20
-5.23791e-21
4.18653e-21
-4.17015e-21
1.47013e-21
-2.29967e-21
3.29081e-22
-6.87772e-22
4.69874e-21
7.84213e-21
-1.46396e-21
-9.21266e-15
9.34059e-13
-2.37961e-18
9.20767e-13
-2.72129e-18
9.23108e-17
-1.73658e-18
9.27303e-17
-5.12599e-19
8.20545e-17
-3.1202e-20
1.18368e-17
-1.67724e-20
1.06028e-19
9.23236e-20
5.03736e-20
1.7749e-19
-1.69962e-18
2.38445e-19
-2.41602e-18
2.78097e-19
-2.40733e-18
2.84564e-19
-2.09179e-18
2.52398e-19
-1.59957e-18
1.97665e-19
-1.06082e-18
1.4158e-19
-6.1952e-19
1.10831e-19
-3.28561e-19
9.22355e-20
-1.8768e-19
7.5519e-20
-1.10652e-19
5.82667e-20
-6.02311e-20
4.16502e-20
-2.64226e-20
2.7751e-20
-5.92844e-21
1.7325e-20
3.53148e-21
6.37991e-21
1.00868e-20
-1.03734e-14
9.44439e-13
-2.7585e-18
9.10363e-13
-3.00688e-18
9.24764e-17
-1.73504e-18
9.3032e-17
-4.86349e-19
9.71303e-17
-1.54711e-20
1.27774e-17
1.36559e-20
8.18776e-20
6.33071e-20
-4.52272e-19
1.08038e-19
-1.63069e-18
1.40719e-19
-2.10702e-18
1.60077e-19
-2.05389e-18
1.63659e-19
-1.74294e-18
1.51863e-19
-1.32922e-18
1.30297e-19
-9.2008e-19
1.0577e-19
-5.87727e-19
8.44535e-20
-3.53029e-19
6.62968e-20
-2.05684e-19
5.02269e-20
-1.14399e-19
3.65407e-20
-5.76581e-20
2.55522e-20
-2.39988e-20
1.71359e-20
-5.59853e-21
1.09139e-20
1.77435e-21
3.42702e-21
6.60335e-21
-1.07353e-14
9.5518e-13
-3.69404e-18
8.99604e-13
-3.8057e-18
9.2505e-17
-2.30869e-18
1.51586e-16
-4.80651e-19
1.588e-16
-3.48977e-20
1.78605e-17
-1.04324e-20
1.95541e-18
1.55121e-20
6.08025e-19
3.369e-20
-6.72407e-19
4.94152e-20
-1.12845e-18
6.04714e-20
-1.23255e-18
6.52033e-20
-1.10685e-18
6.34123e-20
-8.73352e-19
5.67999e-20
-6.22561e-19
4.76546e-20
-4.0929e-19
3.80367e-20
-2.51389e-19
2.886e-20
-1.45305e-19
2.08142e-20
-7.77164e-20
1.44017e-20
-3.71915e-20
9.71388e-21
-1.47626e-20
6.39948e-21
-3.44437e-21
4.07563e-21
7.37302e-22
1.47573e-21
2.45613e-21
-4.95393e-15
9.6014e-13
-6.83804e-18
2.6436e-14
-6.7578e-18
9.23537e-17
-3.49878e-18
3.69764e-16
-4.70464e-19
2.72866e-16
-6.66777e-20
3.31819e-17
-3.49114e-20
1.05065e-17
-1.92172e-20
7.5599e-18
-7.95836e-21
4.15889e-18
2.73198e-21
1.70475e-18
8.38916e-21
-2.1021e-19
1.32014e-20
-4.14826e-19
1.56012e-20
-4.26759e-19
1.55422e-20
-3.39071e-19
1.38327e-20
-2.32721e-19
1.13389e-20
-1.44958e-19
8.5438e-21
-8.34202e-20
5.97257e-21
-4.34163e-20
3.9344e-21
-1.98998e-20
2.5099e-21
-7.48982e-21
1.57489e-21
-1.6743e-21
9.79355e-22
2.76167e-22
5.3752e-22
5.90818e-22
-1.10204e-15
2.89375e-16
-1.10182e-17
2.95385e-16
-7.40238e-18
2.8913e-16
-3.5718e-18
6.89545e-16
-1.55974e-19
3.93409e-16
7.34001e-20
6.31855e-17
1.33119e-19
3.15721e-17
1.56424e-19
2.5967e-17
1.09352e-19
1.80569e-17
5.01494e-20
1.00552e-17
1.27988e-20
4.14874e-18
3.865e-21
1.12285e-18
-2.40436e-22
-6.91771e-20
3.87014e-22
-1.38293e-19
9.88895e-22
-1.11634e-19
1.16443e-21
-7.17301e-20
1.02378e-21
-4.16935e-20
7.5017e-22
-2.1326e-20
4.82489e-22
-9.40408e-21
2.85539e-22
-3.33944e-21
1.60813e-22
-6.89979e-22
8.94245e-23
9.95751e-23
1.74906e-22
5.10312e-23
-2.95475e-18
2.79266e-16
-4.34428e-18
2.96641e-16
-3.92936e-18
6.40209e-16
1.09339e-18
7.33012e-16
2.30963e-18
4.19034e-16
8.72761e-19
1.04106e-16
1.00496e-18
6.68496e-17
1.07281e-18
5.69733e-17
8.26391e-19
4.18753e-17
4.85276e-19
2.57476e-17
2.00806e-19
1.22503e-17
4.9409e-20
4.08691e-18
1.98021e-20
7.59091e-19
-9.9682e-22
-2.20963e-20
-2.1875e-21
-4.54942e-20
-1.65909e-21
-3.13775e-20
-1.15047e-21
-1.87415e-20
-7.35511e-22
-9.49717e-21
-4.4715e-22
-4.04635e-21
-2.62695e-22
-1.35558e-21
-1.51984e-22
-2.52682e-22
-8.78799e-23
3.57652e-23
5.57213e-23
-5.22286e-23
-1.48806e-18
2.77365e-16
-1.69378e-18
2.96778e-16
2.71809e-18
6.88251e-16
9.23404e-18
7.34298e-16
5.80825e-18
4.07426e-16
2.97038e-18
1.40905e-16
3.20882e-18
1.09354e-16
3.28274e-18
9.4802e-17
2.5666e-18
7.0776e-17
1.65935e-18
4.61928e-17
7.39447e-19
2.29838e-17
1.99951e-19
7.71393e-18
2.18451e-20
1.35395e-18
4.49293e-21
6.39006e-20
-1.48825e-21
-1.48818e-20
-1.46585e-21
-1.24359e-20
-1.12856e-21
-7.75492e-21
-7.51175e-22
-3.91306e-21
-4.51775e-22
-1.61192e-21
-2.51609e-22
-5.08779e-22
-1.33376e-22
-8.40458e-23
-6.93383e-23
1.30445e-23
1.83362e-23
-3.6857e-23
-2.27022e-19
2.74204e-16
1.51378e-18
2.71424e-16
9.68574e-18
5.84003e-16
1.63234e-17
5.6558e-16
8.58641e-18
2.9932e-16
6.38848e-18
1.52296e-16
6.91017e-18
1.38789e-16
7.00866e-18
1.27323e-16
5.42309e-18
9.82939e-17
3.63187e-18
6.58786e-17
1.65257e-18
3.35677e-17
4.04976e-19
1.05774e-17
3.36538e-20
1.45606e-18
8.32854e-21
6.66247e-20
-3.92924e-22
-2.71547e-21
-7.87674e-22
-4.54937e-21
-6.517e-22
-3.00905e-21
-4.3668e-22
-1.51289e-21
-2.55577e-22
-6.01403e-22
-1.35352e-22
-1.78205e-22
-6.76527e-23
-2.57497e-23
-3.34958e-23
4.57093e-24
5.77031e-24
-1.69594e-23
9.28616e-19
2.92023e-16
2.82317e-18
2.04358e-16
9.39338e-18
2.70938e-16
1.14533e-17
2.45831e-16
9.45438e-18
1.85947e-16
9.89596e-18
1.51217e-16
1.0785e-17
1.43362e-16
1.14951e-17
1.3787e-16
9.13615e-18
1.16092e-16
6.0193e-18
7.92469e-17
2.6926e-18
4.01387e-17
5.59987e-19
1.14763e-17
3.54099e-20
1.45759e-18
2.73397e-21
4.42728e-20
1.04024e-24
1.7457e-23
-3.44899e-22
-1.57499e-21
-3.06445e-22
-1.11432e-21
-2.04306e-22
-5.55064e-22
-1.15427e-22
-2.11661e-22
-5.82438e-23
-5.88283e-23
-2.76525e-23
-7.27433e-24
-1.30123e-23
1.51561e-24
1.72488e-24
-6.31294e-24
3.48421e-18
6.86719e-16
3.71424e-18
2.07147e-16
6.61074e-18
2.69907e-16
9.22504e-18
2.43291e-16
1.11133e-17
1.83386e-16
1.28471e-17
1.47992e-16
1.37812e-17
1.42597e-16
1.44897e-17
1.38183e-16
1.2692e-17
1.19876e-16
8.14689e-18
8.32248e-17
3.43873e-18
4.12627e-17
6.23074e-19
1.15176e-17
2.92049e-20
1.13299e-18
1.26734e-22
1.65921e-20
4.80593e-24
2.01033e-23
-1.37874e-22
-5.39664e-22
-1.28454e-22
-4.00274e-22
-8.41139e-23
-1.95477e-22
-4.55083e-23
-7.10029e-23
-2.17772e-23
-1.83966e-23
-9.77303e-24
-1.88028e-24
-4.37713e-24
4.63912e-25
4.70385e-25
-2.0396e-24
2.18808e-17
1.98521e-15
5.41328e-18
2.2548e-16
9.08199e-18
2.66313e-16
1.22774e-17
2.39861e-16
1.42421e-17
1.81186e-16
1.53099e-17
1.45433e-16
1.60368e-17
1.37634e-16
1.72183e-17
1.38023e-16
1.50212e-17
1.19979e-16
9.56208e-18
8.34908e-17
3.8555e-18
4.1276e-17
5.97725e-19
1.02236e-17
1.54151e-20
6.45289e-19
2.54425e-23
4.34227e-21
2.0111e-24
3.34461e-24
-5.29395e-23
-1.87308e-22
-5.00837e-23
-1.41364e-22
-3.16923e-23
-6.67095e-23
-1.62315e-23
-2.28402e-23
-7.29172e-24
-5.46046e-24
-3.05495e-24
-4.41803e-25
-1.29291e-24
1.27135e-25
1.13992e-25
-5.6762e-25
5.1776e-16
1.95091e-15
1.34745e-14
1.7773e-13
8.22505e-14
2.18803e-12
1.0985e-13
2.34023e-12
3.78256e-16
6.12381e-13
2.15127e-17
4.98452e-16
1.85263e-17
1.35479e-16
1.95937e-17
1.35213e-16
1.68598e-17
1.1772e-16
1.04396e-17
8.09904e-17
3.79354e-18
3.69037e-17
4.21008e-19
7.09083e-18
5.46224e-21
2.69808e-19
3.83313e-24
9.29606e-22
3.87306e-25
2.88144e-25
-2.0085e-23
-6.68326e-23
-1.85761e-23
-4.95105e-23
-1.11345e-23
-2.21691e-23
-5.31262e-24
-7.05228e-24
-2.19941e-24
-1.52951e-24
-8.42311e-25
-9.32398e-26
-3.31629e-25
3.05764e-26
2.40421e-26
-1.34798e-25
5.60067e-16
1.87422e-15
1.6048e-13
5.30691e-13
3.03788e-13
2.55998e-12
2.36662e-13
2.41014e-12
2.27291e-14
2.03595e-12
2.67188e-17
2.62311e-14
1.7938e-17
1.39119e-16
2.09513e-17
1.28506e-16
1.77657e-17
1.10541e-16
1.01881e-17
7.1839e-17
2.98807e-18
2.77331e-17
2.06213e-19
3.70154e-18
1.3107e-21
7.89892e-20
4.19958e-25
1.36497e-22
4.6366e-26
1.76812e-25
-7.64656e-24
-2.47098e-23
-6.61973e-24
-1.72404e-23
-3.66997e-24
-7.1675e-24
-1.59792e-24
-2.07987e-24
-5.94765e-25
-4.00573e-25
-2.03664e-25
-1.76979e-26
-7.3134e-26
6.29795e-27
4.30439e-27
-2.69998e-26
6.12308e-16
1.74565e-15
8.58608e-14
4.52059e-13
3.57719e-13
2.2909e-12
3.86832e-13
2.38381e-12
7.767e-14
1.22339e-12
3.09878e-17
2.77791e-14
1.77375e-17
1.33289e-16
2.168e-17
1.21373e-16
1.71442e-17
9.86378e-17
8.47824e-18
5.67339e-17
1.78548e-18
1.689e-17
6.67344e-20
1.37467e-18
1.87305e-22
1.40209e-20
1.55255e-23
1.05059e-23
-1.63423e-25
-6.15999e-25
-2.95269e-24
-9.52433e-24
-2.26995e-24
-5.95241e-24
-1.13342e-24
-2.24347e-24
-4.39556e-25
-5.81486e-25
-1.42971e-25
-9.71764e-26
-4.25382e-26
-3.06381e-27
-1.35971e-26
1.08538e-27
6.36164e-28
-4.46961e-27
6.77779e-16
1.55479e-15
2.23272e-13
5.01798e-14
3.99545e-13
8.1237e-13
4.57555e-13
2.32858e-12
0
1.216e-13
2.17407e-17
1.64152e-15
2.23459e-17
1.26501e-16
2.22834e-17
1.15265e-16
1.46412e-17
8.16799e-17
5.7467e-18
3.83556e-17
7.52218e-19
7.75302e-18
1.26189e-20
3.16557e-19
1.30454e-23
1.22547e-21
1.18433e-24
4.09092e-25
-5.25478e-25
-2.0007e-24
-1.13893e-24
-3.7566e-24
-7.47004e-25
-2.0266e-24
-3.27209e-25
-6.76929e-25
-1.10002e-25
-1.53184e-25
-3.02848e-26
-2.16739e-26
-7.55336e-27
-5.03072e-28
-2.08508e-27
1.53125e-28
7.52532e-29
-5.95463e-28
1.68197e-15
3.75762e-15
1.23103e-14
4.12311e-16
8.0939e-14
4.52232e-15
8.87285e-14
0
0
1.08648e-16
1.89339e-17
3.37256e-16
2.49847e-17
1.75812e-16
1.89639e-17
1.09074e-16
1.03028e-17
5.92836e-17
2.90598e-18
2.0234e-17
1.92568e-19
2.2788e-18
1.14161e-21
3.5929e-20
3.69891e-25
4.36191e-23
4.95155e-26
7.87378e-27
-3.51898e-25
-1.37835e-24
-4.28252e-25
-1.47506e-24
-2.35995e-25
-6.79037e-25
-8.84586e-26
-1.97024e-25
-2.50357e-26
-3.80293e-26
-5.63091e-27
-4.4387e-27
-1.12733e-27
-8.23164e-29
-2.57697e-28
1.731e-29
6.87083e-30
-6.17878e-29
1.50416e-15
3.94437e-15
8.58896e-16
3.40002e-15
3.78004e-16
4.40491e-16
2.66851e-16
0
8.75438e-17
2.94491e-16
7.41243e-17
3.59133e-16
3.17738e-17
2.06394e-16
1.44304e-17
9.52068e-17
5.55782e-18
3.5066e-17
9.1378e-19
7.00992e-18
2.32998e-20
3.25663e-19
3.87793e-23
1.5148e-21
4.27245e-27
6.03405e-25
1.15579e-27
5.10238e-27
-1.79229e-25
-7.32807e-25
-1.57114e-25
-5.75015e-25
-7.20659e-26
-2.24792e-25
-2.25819e-26
-5.57079e-26
-5.22007e-27
-8.9731e-27
-9.22973e-28
-8.41654e-28
-1.40395e-28
-1.35749e-29
-2.5018e-29
1.55201e-30
4.64324e-31
-4.78717e-30
1.51652e-15
1.12505e-15
1.46809e-15
3.74699e-15
5.18968e-16
2.77763e-15
2.09437e-16
1.30874e-15
1.27283e-16