/*--------------------------------*- C++ -*----------------------------------*\
  =========                 |
  \\      /  F ield         | OpenFOAM: The Open Source CFD Toolbox
   \\    /   O peration     | Website:  https://openfoam.org
    \\  /    A nd           | Version:  9
     \\/     M anipulation  |
\*---------------------------------------------------------------------------*/
FoamFile
{
    format      ascii;
    class       surfaceScalarField;
    location    "6.03";
    object      alphaPhi0.water;
}
// * * * * * * * * * * * * * * * * * * * * * * * * * * * * * * * * * * * * * //

dimensions      [0 3 -1 0 0 0 0];

internalField   nonuniform List<scalar> 
4432
(
-1.16299e-07
1.16299e-07
-1.67992e-07
5.16876e-08
-1.98222e-07
3.02342e-08
-2.24118e-07
2.58919e-08
-2.48467e-07
2.43489e-08
-2.69873e-07
2.14034e-08
-2.82173e-07
1.22976e-08
-2.80535e-07
-1.64041e-09
-2.61313e-07
-1.92235e-08
-2.23867e-07
-3.74467e-08
-1.66627e-07
-5.72418e-08
-8.02908e-08
-8.63384e-08
4.96468e-08
-1.29939e-07
2.46346e-07
-1.967e-07
5.12315e-07
-2.65968e-07
7.90531e-07
-2.78215e-07
8.63147e-07
-7.26134e-08
3.7842e-07
4.84726e-07
-4.72292e-07
8.51716e-07
-1.31247e-06
8.39994e-07
-1.57035e-06
2.57697e-07
-9.57265e-07
-6.15335e-07
-9.59255e-07
-8.56e-08
2.01904e-07
-1.40471e-07
1.06548e-07
-1.7895e-07
6.87164e-08
-2.08158e-07
5.50935e-08
-2.32126e-07
4.83156e-08
-2.49834e-07
3.91066e-08
-2.5835e-07
2.08108e-08
-2.53987e-07
-6.0058e-09
-2.35114e-07
-3.80992e-08
-2.02578e-07
-6.99841e-08
-1.54973e-07
-1.04848e-07
-8.68934e-08
-1.54419e-07
1.25926e-08
-2.29424e-07
1.52486e-07
-3.36592e-07
3.28365e-07
-4.41845e-07
4.97902e-07
-4.47751e-07
5.34139e-07
-1.08859e-07
2.17867e-07
8.00979e-07
-3.33768e-07
1.40418e-06
-8.44073e-07
1.35309e-06
-1.08262e-06
4.9601e-07
-8.28814e-07
-8.69141e-07
-1.78807e-06
-6.69965e-08
2.68904e-07
-1.21975e-07
1.61519e-07
-1.64594e-07
1.11337e-07
-1.97012e-07
8.75073e-08
-2.22551e-07
7.38546e-08
-2.40889e-07
5.74424e-08
-2.50328e-07
3.02491e-08
-2.48105e-07
-8.22843e-09
-2.33648e-07
-5.25559e-08
-2.0853e-07
-9.51005e-08
-1.7223e-07
-1.41147e-07
-1.22275e-07
-2.04373e-07
-5.03992e-08
-3.01297e-07
4.45022e-08
-4.31492e-07
1.58945e-07
-5.56285e-07
2.68576e-07
-5.57396e-07
3.02292e-07
-1.42554e-07
1.04752e-07
9.98499e-07
-2.16747e-07
1.72566e-06
-5.13001e-07
1.64937e-06
-7.06877e-07
6.89879e-07
-5.87683e-07
-9.8834e-07
-2.37576e-06
-5.62032e-08
3.25112e-07
-1.09417e-07
2.14725e-07
-1.5362e-07
1.55543e-07
-1.89342e-07
1.23227e-07
-2.17877e-07
1.02391e-07
-2.39009e-07
7.85745e-08
-2.51287e-07
4.25276e-08
-2.53733e-07
-5.78055e-09
-2.45737e-07
-6.05516e-08
-2.2891e-07
-1.11926e-07
-2.05157e-07
-1.649e-07
-1.72969e-07
-2.36561e-07
-1.29192e-07
-3.45073e-07
-7.24831e-08
-4.88201e-07
-8.36367e-09
-6.20403e-07
5.38331e-08
-6.19594e-07
1.02744e-07
-1.91444e-07
1.78404e-08
1.07803e-06
-1.33514e-07
1.8561e-06
-2.77933e-07
1.7938e-06
-3.90138e-07
8.02094e-07
-3.03134e-07
-1.07468e-06
-2.6789e-06
-5.03198e-08
3.75436e-07
-1.01049e-07
2.65449e-07
-1.46396e-07
2.00894e-07
-1.85122e-07
1.61952e-07
-2.17566e-07
1.34836e-07
-2.43129e-07
1.04138e-07
-2.60722e-07
6.01218e-08
-2.69275e-07
2.77354e-09
-2.68828e-07
-6.09992e-08
-2.61858e-07
-1.18898e-07
-2.5144e-07
-1.75319e-07
-2.37837e-07
-2.50166e-07
-2.19214e-07
-3.63697e-07
-1.96765e-07
-5.10653e-07
-1.76605e-07
-6.40564e-07
-1.63334e-07
-6.32864e-07
-1.24422e-07
-2.28326e-07
-7.95056e-08
1.01809e-06
-7.76312e-08
1.83899e-06
-8.94542e-08
1.77275e-06
-6.64565e-08
7.58889e-07
4.34509e-09
-1.14572e-06
-2.6746e-06
-4.69459e-08
4.22385e-07
-9.62447e-08
3.14744e-07
-1.43133e-07
2.47785e-07
-1.85527e-07
2.04347e-07
-2.22927e-07
1.72237e-07
-2.5423e-07
1.35442e-07
-2.78549e-07
8.44417e-08
-2.94876e-07
1.91015e-08
-3.0331e-07
-5.25656e-08
-3.06995e-07
-1.15215e-07
-3.10115e-07
-1.722e-07
-3.14222e-07
-2.4606e-07
-3.18221e-07
-3.59698e-07
-3.2433e-07
-5.04545e-07
-3.39614e-07
-6.25281e-07
-3.69106e-07
-6.03353e-07
-3.67836e-07
-2.26526e-07
-2.10515e-07
8.75948e-07
-7.11313e-08
1.69959e-06
6.03558e-08
1.64125e-06
2.35128e-07
5.97841e-07
2.51465e-07
-1.16125e-06
-2.42313e-06
-4.39852e-08
4.66373e-07
-9.44303e-08
3.65187e-07
-1.44112e-07
2.97469e-07
-1.91297e-07
2.51533e-07
-2.34632e-07
2.15574e-07
-2.72824e-07
1.73635e-07
-3.05074e-07
1.16694e-07
-3.30513e-07
4.45436e-08
-3.48845e-07
-3.4232e-08
-3.63624e-07
-1.00433e-07
-3.80199e-07
-1.55623e-07
-4.0047e-07
-2.25788e-07
-4.23507e-07
-3.3666e-07
-4.51232e-07
-4.7682e-07
-4.90433e-07
-5.86081e-07
-5.44429e-07
-5.49355e-07
-5.66432e-07
-2.04523e-07
-3.66731e-07
6.89072e-07
-1.07098e-07
1.43994e-06
1.61595e-07
1.37254e-06
4.16855e-07
3.50365e-07
3.8762e-07
-1.132e-06
-2.03552e-06
-4.53389e-08
5.11714e-07
-9.66416e-08
4.16489e-07
-1.49875e-07
3.50703e-07
-2.02495e-07
3.04152e-07
-2.52468e-07
2.65546e-07
-2.98312e-07
2.19477e-07
-3.39239e-07
1.57619e-07
-3.75198e-07
8.05012e-08
-4.04196e-07
-5.23515e-09
-4.30524e-07
-7.41056e-08
-4.59895e-07
-1.26253e-07
-4.94276e-07
-1.91408e-07
-5.32202e-07
-2.98734e-07
-5.74318e-07
-4.34703e-07
-6.25118e-07
-5.35281e-07
-6.84408e-07
-4.90063e-07
-6.99661e-07
-1.89267e-07
-5.14578e-07
5.0722e-07
-1.74401e-07
1.12696e-06
1.83281e-07
1.03671e-06
4.20647e-07
1.14574e-07
3.60822e-07
-1.07217e-06
-1.6747e-06
-5.9944e-07
5.9933e-07
2.05923e-07
-8.09612e-07
8.95033e-07
-6.91537e-07
1.32848e-06
-4.37763e-07
1.60864e-06
-2.86154e-07
1.80287e-06
-1.96137e-07
2.04162e-06
-2.40625e-07
2.44144e-06
-4.01707e-07
3.00485e-06
-5.64706e-07
3.24646e-06
-2.42919e-07
2.6508e-06
6.1404e-07
1.53239e-06
1.11906e-06
-3.1544e-07
1.84937e-06
-1.73539e-06
1.41293e-06
-7.07471e-07
-1.02797e-06
6.4887e-07
-1.3564e-06
1.06604e-06
-4.17232e-07
1.09458e-06
-2.86407e-08
1.09064e-06
-4.09919e-08
6.40196e-07
4.74789e-07
-1.32541e-06
8.34411e-07
-1.05116e-06
1.08761e-06
-6.9096e-07
1.27717e-06
-4.75714e-07
1.45611e-06
-3.75086e-07
1.66652e-06
-4.52382e-07
1.98346e-06
-7.20032e-07
2.35872e-06
-9.40083e-07
2.49505e-06
-3.80113e-07
1.99848e-06
1.11138e-06
1.07064e-06
2.04611e-06
-1.46543e-07
3.07021e-06
-9.40253e-07
2.18556e-06
-3.71637e-07
-1.59559e-06
3.30124e-07
-2.05822e-06
4.91365e-07
-5.78531e-07
6.95392e-07
-2.32726e-07
1.78191e-06
4.50759e-07
1.89326e-07
6.20323e-07
-1.49226e-06
7.78598e-07
-1.20945e-06
9.28948e-07
-8.41313e-07
1.06067e-06
-6.07484e-07
1.18751e-06
-5.01948e-07
1.34262e-06
-6.07516e-07
1.56174e-06
-9.39196e-07
1.80338e-06
-1.18184e-06
1.84357e-06
-4.21152e-07
1.39187e-06
1.56222e-06
6.85838e-07
2.75128e-06
-2.00502e-08
3.77524e-06
-3.81802e-07
2.51584e-06
-8.01948e-08
-1.89856e-06
2.10363e-07
-2.34884e-06
1.17738e-07
-4.85965e-07
2.59058e-07
-3.74105e-07
2.04096e-06
6.50712e-07
-4.60311e-07
6.53652e-07
-1.49446e-06
6.99889e-07
-1.25565e-06
7.85964e-07
-9.27384e-07
8.72174e-07
-6.93727e-07
9.50215e-07
-5.79958e-07
1.03392e-06
-6.91277e-07
1.14725e-06
-1.05385e-06
1.28774e-06
-1.32245e-06
1.2961e-06
-4.30239e-07
9.19234e-07
1.93823e-06
4.30647e-07
3.23901e-06
5.09718e-08
4.15405e-06
4.82903e-08
2.50349e-06
1.87685e-07
-2.03635e-06
1.72932e-07
-2.33414e-06
-1.74752e-07
-1.38343e-07
-1.64928e-07
-3.83454e-07
1.87602e-06
6.04041e-07
-1.06478e-06
5.8581e-07
-1.47625e-06
5.92584e-07
-1.26252e-06
6.43039e-07
-9.77885e-07
6.94027e-07
-7.44762e-07
7.24134e-07
-6.1022e-07
7.37525e-07
-7.05362e-07
7.46759e-07
-1.06379e-06
7.65663e-07
-1.3438e-06
7.56392e-07
-4.27154e-07
5.3006e-07
2.08674e-06
2.25226e-07
3.41771e-06
1.43963e-07
4.07475e-06
4.44397e-07
2.1823e-06
4.16174e-07
-1.99105e-06
1.64289e-07
-2.0802e-06
-3.66192e-07
3.83605e-07
-4.95183e-07
-2.51945e-07
1.38083e-06
4.6063e-07
-1.52544e-06
4.60376e-07
-1.47601e-06
4.66188e-07
-1.26835e-06
4.99489e-07
-1.01119e-06
5.24877e-07
-7.70143e-07
5.13688e-07
-5.99021e-07
4.63594e-07
-6.55696e-07
3.72706e-07
-9.73314e-07
2.55091e-07
-1.22601e-06
2.26132e-07
-4.03494e-07
2.16479e-07
2.09498e-06
1.41045e-07
3.49304e-06
3.47756e-07
3.86794e-06
8.18337e-07
1.79228e-06
5.73998e-07
-1.73984e-06
1.5179e-07
-1.65961e-06
-3.95772e-07
9.10564e-07
-6.6169e-07
1.3865e-08
7.19488e-07
2.7434e-07
-1.7998e-06
3.15323e-07
-1.51701e-06
3.34762e-07
-1.28781e-06
3.59154e-07
-1.03561e-06
3.66944e-07
-7.78026e-07
3.25869e-07
-5.58033e-07
2.25467e-07
-5.55274e-07
4.88316e-08
-7.9666e-07
-1.74391e-07
-1.00257e-06
-2.51987e-07
-3.23254e-07
-5.04308e-08
1.94122e-06
1.59853e-07
3.28266e-06
5.97174e-07
3.43052e-06
1.02791e-06
1.39391e-06
6.33068e-07
-1.34498e-06
1.33677e-07
-1.16375e-06
-2.76241e-07
1.30703e-06
-6.5467e-07
3.92318e-07
6.48239e-08
8.61423e-08
-1.88596e-06
1.90767e-07
-1.62164e-06
2.11838e-07
-1.30888e-06
2.24957e-07
-1.04875e-06
2.1966e-07
-7.72726e-07
1.6308e-07
-5.01402e-07
3.57608e-08
-4.27974e-07
-1.78725e-07
-5.82197e-07
-4.57405e-07
-7.2436e-07
-5.8624e-07
-1.94045e-07
-2.46762e-07
1.62723e-06
1.97497e-07
2.8383e-06
8.19459e-07
2.92099e-06
1.07487e-06
1.14477e-06
6.15182e-07
-8.8528e-07
1.12135e-07
-6.64199e-07
-1.08712e-07
1.52044e-06
-4.57503e-07
7.32416e-07
-3.92673e-07
-8.18384e-08
5.93554e-07
-2.05757e-07
5.40408e-07
-3.42581e-07
4.87529e-07
-4.79223e-07
4.40795e-07
-6.1131e-07
3.97635e-07
-7.35658e-07
3.43826e-07
-8.53949e-07
2.75911e-07
-9.64883e-07
1.91435e-07
-1.06535e-06
9.52291e-08
-1.16132e-06
2.16537e-08
-1.2635e-06
-2.40758e-08
-1.37597e-06
-7.89434e-08
-1.49302e-06
-1.81683e-07
-1.6109e-06
-3.1682e-07
-1.72366e-06
-4.22521e-07
-1.82295e-06
-3.90782e-07
-1.79898e-06
-2.13206e-07
-1.4117e-06
1.19939e-07
-6.63504e-07
3.78758e-07
1.06481e-07
2.66816e-07
4.9641e-07
-2.75244e-07
3.01901e-07
-8.77583e-07
-1.08065e-06
-2.92142e-07
-1.41422e-07
4.8766e-07
-2.81038e-07
4.50223e-07
-4.18316e-07
4.15277e-07
-5.53981e-07
3.85389e-07
-7.04285e-07
3.70881e-07
-8.55543e-07
3.3975e-07
-1.00342e-06
2.94451e-07
-1.1574e-06
2.42181e-07
-1.32237e-06
1.84966e-07
-1.48094e-06
1.30182e-07
-1.61961e-06
8.33305e-08
-1.74763e-06
3.33378e-08
-1.88107e-06
-4.59567e-08
-2.02601e-06
-1.53826e-07
-2.14517e-06
-2.59718e-07
-2.1896e-06
-3.0341e-07
-2.07793e-06
-2.90898e-07
-1.67871e-06
-2.55273e-07
-1.0295e-06
-2.51242e-07
-4.00584e-07
-3.38745e-07
-6.41516e-08
-5.73127e-07
-5.81426e-08
-8.27502e-07
-9.30036e-07
-1.45734e-07
-9.55706e-08
2.92915e-08
-1.52242e-07
1.49418e-08
-2.28421e-07
0
-2.99473e-07
0
-3.50596e-07
1.52033e-08
-3.94436e-07
2.80109e-08
-4.46763e-07
3.90428e-08
-5.05785e-07
4.45063e-08
-5.83937e-07
5.1579e-08
-6.70086e-07
5.60634e-08
-7.49507e-07
4.94095e-08
-8.13896e-07
3.9723e-08
-8.7844e-07
0
-9.6104e-07
-1.20281e-08
-1.05515e-06
-3.11532e-08
-1.08861e-06
-6.69571e-08
-1.03311e-06
-1.02907e-07
-8.67993e-07
-1.37253e-07
-6.0772e-07
-1.63636e-07
-3.24153e-07
-1.82823e-07
-1.40584e-07
-1.91065e-07
-6.30309e-08
-2.0351e-07
-2.32807e-07
3.93107e-08
5.47043e-10
0
3.49684e-10
0
-9.9702e-10
0
-2.77878e-09
0
-2.73765e-09
0
-2.54208e-09
0
-2.81173e-09
0
-2.97209e-09
0
-3.02312e-09
0
-3.13491e-09
0
-3.25106e-09
0
-3.84814e-09
0
-4.07872e-09
0
-4.75129e-09
-1.36295e-10
-5.85243e-09
-1.21987e-09
-7.51112e-09
-3.94812e-09
-4.96517e-09
-8.9935e-09
-2.62919e-09
-7.77234e-09
-3.67554e-09
-1.91389e-09
-2.91454e-09
-6.20165e-09
-9.72965e-10
-7.5854e-09
4.68428e-10
-5.47537e-09
-5.59051e-09
1.70034e-09
-1.22259e-09
4.50321e-10
-1.33293e-09
3.82862e-10
-5.21026e-11
2.25863e-10
-1.32631e-09
1.25307e-09
-2.45631e-09
8.70798e-10
-6.16569e-09
9.73339e-10
-8.97243e-09
2.04818e-09
-1.87445e-08
5.82674e-10
-1.74549e-08
1.41825e-10
-1.56965e-08
-2.5298e-10
-1.28842e-08
-9.99033e-10
-9.52739e-09
-1.56724e-09
-6.54173e-09
-1.22215e-09
-3.61415e-09
-1.29717e-09
-6.20788e-10
-3.0702e-09
1.47154e-09
-4.08291e-09
2.4467e-09
-6.84326e-09
2.07929e-09
-7.12142e-09
7.40144e-10
3.33476e-11
-3.78856e-10
-6.986e-10
-9.03796e-10
-2.1176e-09
-4.56281e-10
-3.38976e-09
-5.73121e-09
6.30701e-10
-9.27744e-10
0
-1.3842e-09
1.49942e-11
8.00853e-10
1.73907e-10
2.84105e-09
1.47516e-10
2.14739e-10
0
-7.2172e-12
0
-3.31905e-10
0
-3.0326e-10
3.9916e-12
-8.09904e-10
2.023e-14
-1.26841e-09
-1.98498e-15
-1.46526e-09
-5.34767e-13
-1.37602e-09
-1.41994e-12
-1.23633e-09
-2.35157e-13
-1.12226e-09
-2.09888e-13
-1.06751e-09
-5.92382e-11
-9.84029e-10
-2.99978e-10
-1.88726e-09
-7.27676e-10
-2.10319e-09
-1.84506e-09
-2.03693e-09
1.31838e-10
-2.44791e-09
2.79373e-11
-2.24182e-09
-4.34289e-10
-3.38666e-09
-3.81752e-09
-2.38891e-09
-4.21652e-09
2.16363e-11
4.6447e-14
-1.18521e-12
0
7.04047e-11
-1.02817e-15
1.85771e-10
-8.796e-15
3.25185e-12
0
1.05614e-11
9.3255e-12
6.83025e-14
0
-1.21422e-14
0
-2.8183e-15
9.49392e-15
-5.21209e-15
-1.49096e-16
-8.09307e-15
-5.32444e-13
-9.84525e-15
-1.41098e-12
-1.35457e-14
-2.19176e-13
-2.1054e-13
-3.30504e-15
-5.94384e-11
0
-2.30853e-10
-7.81098e-11
-5.43419e-10
-4.34212e-10
-9.07122e-10
-4.36523e-10
-3.20795e-10
4.26309e-11
-5.38592e-10
0
-1.54032e-09
-5.00119e-10
-2.04268e-09
-9.62167e-10
-4.68268e-11
-5.52702e-10
3.08556e-14
6.69118e-15
4.81067e-15
0
7.96783e-16
0
-1.09248e-14
0
-5.78559e-14
0
1.09983e-12
0
3.6927e-12
1.56429e-11
2.1576e-13
4.9466e-12
0
8.61295e-15
-6.76986e-14
2.68613e-14
-1.45334e-12
1.333e-13
-2.02661e-12
-5.76893e-14
-7.27183e-16
4.24345e-13
0
8.54556e-15
-2.60832e-11
1.97995e-12
-2.38897e-10
-5.43049e-11
-4.45329e-10
-2.53859e-10
-2.43029e-10
-1.59868e-10
-2.28573e-10
-4.52419e-12
-3.91695e-10
6.67735e-12
-3.33075e-10
-2.23704e-10
-4.82178e-11
-2.03827e-13
0
-1.26308e-13
2.49977e-15
3.97721e-15
1.27616e-14
7.64988e-14
-2.20071e-15
8.99167e-14
0
3.06331e-14
0
2.79243e-15
-1.47248e-13
0
4.9739e-13
0
1.4347e-13
9.28194e-13
-2.87576e-16
1.29422e-14
-6.84611e-13
3.51786e-13
-3.148e-12
1.97559e-12
-4.70757e-12
1.8679e-12
-1.68773e-12
1.62878e-12
-1.70827e-12
1.65629e-14
-4.83852e-11
2.5734e-12
-1.69071e-10
-1.09963e-11
-2.11001e-10
-4.31941e-11
-1.98146e-10
-2.66391e-11
-2.08974e-10
-2.80385e-11
-2.22322e-10
-4.32833e-11
-2.69187e-13
-1.92811e-11
-3.75632e-13
-1.514e-14
-4.65648e-15
-1.04254e-12
5.35598e-16
3.2274e-15
1.65089e-14
1.95274e-13
-2.906e-14
1.75143e-13
-2.50365e-15
6.75282e-14
-1.06489e-15
1.33928e-15
-7.40914e-16
1.64649e-15
-5.65611e-15
3.52952e-15
-8.47737e-16
3.62542e-14
-1.39735e-13
1.21792e-14
-2.53173e-12
1.11511e-12
-3.60706e-12
3.44105e-12
-4.36955e-12
3.03299e-12
-1.09625e-12
8.94552e-13
-1.12275e-12
8.44545e-15
-6.09486e-12
0
-2.05501e-12
0
-2.48636e-12
-2.03232e-13
-3.5143e-11
-9.63077e-13
-7.10935e-11
-5.65829e-12
-1.6187e-11
-7.77587e-12
-2.47136e-13
-2.41564e-13
-1.73091e-13
-9.0128e-15
-1.23895e-14
-1.01528e-13
1.03707e-15
4.48354e-15
-1.58168e-14
1.29706e-13
-2.07084e-14
2.19693e-13
-5.915e-16
7.4143e-14
-6.046e-16
1.34534e-15
-3.95159e-16
1.42534e-15
-2.5733e-16
3.35185e-15
-2.0899e-13
2.4471e-13
-2.0308e-13
2.364e-12
-9.33213e-13
3.05344e-12
-2.98545e-12
9.72641e-13
-8.48348e-13
2.94275e-13
-7.33461e-14
0
-1.07264e-13
7.3651e-15
-1.98542e-14
0
-2.13755e-14
0
-3.40927e-15
-1.74237e-15
-1.45202e-12
-4.09867e-13
-1.42797e-12
-5.97687e-12
-1.12432e-13
-4.44911e-12
-1.52924e-13
0
-7.72783e-14
-5.4844e-15
-6.39314e-15
-3.33325e-13
-1.44908e-16
1.78884e-15
-2.00617e-14
1.72622e-14
-2.81975e-14
4.87364e-14
-4.7654e-16
8.0328e-15
-5.21737e-16
1.38474e-15
-5.64646e-16
1.46246e-15
-9.82829e-14
7.56232e-14
-1.13145e-12
2.8978e-12
-1.99663e-12
3.81768e-12
-1.44082e-12
3.11158e-12
-2.98686e-13
4.65327e-13
-4.41462e-15
1.48627e-15
-4.41938e-15
3.9575e-16
-2.86293e-15
1.70449e-15
-1.14096e-15
1.01363e-16
0
4.05412e-16
-1.53393e-12
2.41672e-14
-1.5888e-11
-1.04825e-12
-1.83114e-11
-3.12833e-12
-1.11842e-11
-3.18868e-12
-1.16879e-13
-1.61854e-12
-1.18694e-13
-4.22395e-15
-3.16054e-15
-1.1843e-13
-1.16036e-16
8.9708e-16
-9.8975e-16
1.71282e-14
-8.65413e-16
0
-5.66091e-16
1.50057e-16
-7.1775e-17
1.97554e-15
-3.21605e-16
1.97494e-15
-1.43277e-12
4.51275e-13
-1.82601e-12
3.87955e-12
-1.49443e-12
4.07459e-12
-4.63487e-13
9.39618e-13
-2.70639e-15
3.37368e-15
-1.94179e-15
2.19149e-15
-2.10115e-15
2.04237e-15
-1.57107e-16
1.07571e-15
-1.31853e-16
8.1017e-17
0
4.04024e-16
-5.61597e-12
2.17304e-13
-1.58642e-11
-6.25579e-14
-1.7052e-11
-1.51538e-12
-1.72037e-11
-2.61181e-12
-5.92895e-14
-8.27026e-13
-6.07352e-14
-3.37392e-15
-2.73519e-15
-6.17156e-14
-6.94213e-15
1.71211e-13
-1.74561e-15
2.87567e-13
-1.56666e-16
4.53828e-16
-2.42181e-16
5.59371e-16
0
2.55277e-15
0
1.22486e-14
-4.94106e-13
2.65887e-13
-1.05148e-12
1.06551e-13
-4.8273e-13
1.84944e-13
-3.97941e-15
0
-3.12187e-15
1.34839e-15
-2.28202e-15
2.8858e-15
-1.33705e-15
2.65209e-15
-1.18878e-16
4.95691e-16
-1.21054e-16
8.46574e-17
0
8.29376e-17
0
0
-5.39689e-12
0
-1.32145e-11
-2.78795e-13
-9.15487e-12
-7.66079e-13
-5.68621e-14
-6.29407e-14
-5.65945e-14
-4.23723e-15
-5.56655e-15
-5.44562e-14
-4.0461e-14
4.96052e-13
-5.10572e-16
4.38408e-13
-1.26583e-16
7.27325e-17
-6.72719e-17
6.05186e-16
-4.64923e-16
5.61072e-15
-3.44209e-14
3.61541e-14
-2.79523e-15
0
-4.53928e-15
3.41536e-16
-2.17761e-16
0
-4.79638e-16
0
-1.68761e-15
1.39551e-15
-1.68637e-15
2.26037e-15
-3.98818e-16
1.12257e-15
-9.74602e-17
1.18671e-16
-9.66425e-17
8.69684e-17
-9.51995e-17
6.7324e-17
-3.829e-16
4.68008e-17
-1.40954e-13
0
-5.064e-13
0
-2.47274e-14
-8.78795e-15
-5.52444e-14
-5.5642e-16
-7.39228e-14
-3.90612e-15
-4.23838e-15
-3.62862e-14
-6.61918e-14
6.17484e-13
-1.37642e-16
4.27692e-13
-1.39281e-16
7.59805e-17
-5.73679e-16
7.20937e-16
-4.92374e-15
7.10324e-15
-3.24544e-15
6.26697e-15
-1.35046e-16
0
-3.1964e-17
8.82481e-17
-3.35569e-17
3.23487e-17
-2.18848e-16
4.14585e-17
-4.84442e-16
2.69579e-16
-3.48922e-16
2.58389e-16
-6.16231e-17
7.53576e-17
-7.04269e-17
3.18981e-17
-8.46668e-17
7.44398e-17
-8.81441e-17
6.56675e-17
-9.6445e-17
4.95918e-17
-1.22872e-16
2.59977e-17
-1.01558e-16
2.79853e-18
-3.66852e-16
1.96051e-19
-1.39313e-14
-7.85279e-18
-4.28169e-14
-5.51656e-16
-1.66004e-15
-1.15011e-14
-6.93504e-14
6.86417e-13
-1.83834e-16
3.35592e-13
-1.87502e-16
8.00438e-17
-9.70584e-16
9.3553e-16
-1.08148e-15
2.36643e-15
-6.94253e-17
4.37521e-16
-3.8573e-17
4.62221e-17
-1.9581e-17
8.89013e-17
-9.12117e-18
2.29037e-17
-2.75579e-17
4.75623e-18
-2.71071e-17
5.67661e-18
-7.83943e-18
2.22808e-18
-8.50754e-18
4.82961e-19
-2.82985e-17
4.94244e-18
-5.505e-17
3.309e-17
-8.25263e-17
5.60425e-17
-9.76043e-17
6.04576e-17
-9.61552e-17
4.37066e-17
-8.0202e-17
2.20479e-17
-8.55923e-17
7.97869e-18
-4.27428e-16
5.44958e-19
-1.10137e-15
-8.43382e-18
-4.21503e-17
-1.54133e-15
-4.06438e-14
7.26888e-13
-1.04612e-16
3.56469e-13
-1.08416e-16
8.38487e-17
-2.78134e-16
3.55476e-16
-1.2829e-16
4.21652e-16
-1.55995e-17
6.03328e-17
-1.76953e-17
2.48195e-17
-6.60051e-18
3.10373e-17
-4.16177e-19
2.784e-18
-3.30103e-19
8.71828e-19
-1.42806e-19
6.76291e-19
-2.42601e-20
2.26388e-19
-8.07009e-20
5.50513e-20
-3.20448e-18
1.21334e-18
-1.94338e-17
3.38052e-18
-4.66217e-17
1.77538e-17
-6.07754e-17
2.9899e-17
-6.37458e-17
2.54797e-17
-5.92188e-17
1.61099e-17
-4.49404e-17
7.15236e-18
-1.84595e-17
9.73083e-19
-1.89209e-17
-5.06223e-19
-9.56023e-19
-1.41681e-16
-7.03323e-14
7.9724e-13
-4.30936e-17
5.15324e-13
-4.69525e-17
8.76742e-17
-4.968e-17
1.04418e-16
-2.03503e-17
9.97454e-17
-4.38552e-18
2.32741e-17
-2.92162e-18
2.6565e-18
-5.41151e-19
8.22176e-19
6.62237e-19
8.45764e-20
9.42404e-19
-1.74218e-18
9.88328e-19
-2.27359e-18
8.47945e-19
-2.17865e-18
3.91865e-19
-1.69116e-18
-3.11777e-19
-6.93884e-19
-1.28018e-18
4.75308e-19
-6.82761e-18
4.57028e-19
-1.10088e-17
1.62994e-18
-1.20626e-17
1.78445e-18
-1.24067e-17
1.35297e-18
-1.12736e-17
8.55605e-19
-6.9013e-18
3.13126e-19
-3.28204e-18
-3.4121e-20
-1.28862e-19
-2.93166e-18
-7.10096e-14
8.68326e-13
-2.55558e-17
9.53768e-13
-2.94674e-17
9.15527e-17
-1.9072e-17
9.03785e-17
-9.09651e-18
8.75328e-17
-1.58987e-19
1.9474e-17
-7.45498e-20
2.97803e-19
6.99988e-19
1.40019e-20
1.19805e-18
-2.10979e-18
1.40427e-18
-3.33498e-18
1.36975e-18
-3.61204e-18
1.18429e-18
-3.24293e-18
8.78636e-19
-2.5557e-18
5.03455e-19
-1.698e-18
-3.4904e-21
-8.47478e-19
-7.8771e-20
4.91998e-21
-2.09644e-19
1.54791e-19
-2.72748e-19
2.01691e-19
-3.20334e-19
1.66292e-19
-3.73969e-19
1.12903e-19
-3.79871e-19
5.21758e-20
-3.59924e-19
3.91758e-22
-7.07913e-21
-3.55204e-19
-7.02645e-14
9.38672e-13
-1.35276e-17
8.83456e-13
-1.72968e-17
9.52891e-17
-1.97847e-17
9.28337e-17
-8.40139e-18
1.01807e-16
7.55209e-20
1.96889e-17
4.24276e-19
-2.8549e-19
8.71549e-19
-1.46525e-18
1.16133e-18
-2.77901e-18
1.25594e-18
-3.43724e-18
1.19254e-18
-3.454e-18
1.03681e-18
-3.03666e-18
8.34276e-19
-2.42232e-18
6.22906e-19
-1.75958e-18
4.22991e-19
-1.15675e-18
2.75056e-19
-6.67679e-19
1.87731e-19
-3.52173e-19
1.29907e-19
-1.83467e-19
8.47197e-20
-8.91779e-20
4.53045e-20
-3.5659e-20
1.04896e-20
-8.36637e-21
-1.5787e-21
1.36688e-21
6.89338e-21
-2.1273e-21
-6.84543e-14
1.0072e-12
-2.94514e-17
8.14703e-13
-3.29512e-17
9.87564e-17
-3.02408e-17
1.52658e-16
-9.16449e-18
1.98546e-16
-3.07985e-19
2.41414e-17
2.61211e-19
5.13058e-19
5.60626e-19
-9.63493e-19
7.49447e-19
-1.91406e-18
8.08544e-19
-2.3832e-18
7.72926e-19
-2.39893e-18
6.80017e-19
-2.13364e-18
5.60898e-19
-1.73243e-18
4.39042e-19
-1.2997e-18
3.29532e-19
-9.04788e-19
2.40688e-19
-5.85087e-19
1.75196e-19
-3.52737e-19
1.27366e-19
-2.00147e-19
9.14802e-20
-1.04603e-19
6.35993e-20
-4.7136e-20
4.1462e-20
-1.46952e-20
2.49357e-20
9.40316e-22
5.41223e-21
1.39156e-20
-7.12606e-14
4.46527e-13
-5.61195e-17
3.18083e-14
-5.93087e-17
1.0195e-16
-5.43602e-17
4.04494e-16
-1.26823e-17
3.8067e-16
-1.60041e-18
4.31198e-17
-6.62137e-19
7.84963e-18
2.39867e-20
3.74404e-18
2.16943e-19
-8.92293e-20
3.26428e-19
-7.53488e-19
3.58467e-19
-1.06126e-18
3.38802e-19
-1.08887e-18
2.9168e-19
-9.54976e-19
2.34895e-19
-7.53232e-19
1.8025e-19
-5.44745e-19
1.33509e-19
-3.64757e-19
9.64253e-20
-2.26573e-19
6.86074e-20
-1.29917e-19
4.84329e-20
-6.77057e-20
3.38303e-20
-3.04267e-20
2.30605e-20
-9.47012e-21
1.49188e-20
6.63524e-22
3.02014e-21
8.95496e-21
-9.983e-16
3.08411e-16
-6.69522e-17
3.29486e-16
-9.63294e-17
4.46013e-16
-9.69525e-17
8.61643e-16
-1.91641e-17
5.18872e-16
-5.03793e-18
8.07023e-17
-3.5201e-18
2.97591e-17
-2.2877e-18
2.1077e-17
-1.04931e-18
1.2404e-17
-2.65505e-19
5.24145e-18
6.0422e-20
1.58813e-18
1.10916e-19
-2.06644e-19
1.15389e-19
-3.53974e-19
1.00188e-19
-3.39943e-19
7.92967e-20
-2.67766e-19
5.92414e-20
-1.87359e-19
4.2125e-20
-1.19273e-19
2.8982e-20
-6.85502e-20
1.96125e-20
-3.51448e-20
1.31786e-20
-1.52829e-20
8.78039e-21
-4.4158e-21
5.67634e-21
4.38701e-22
1.39977e-21
3.39881e-21
-1.59908e-17
3.18404e-16
-5.2893e-17
3.31969e-16
-1.07236e-16
8.67847e-16
-1.04e-16
9.3553e-16
-2.44844e-17
5.53805e-16
-1.0372e-17
1.25024e-16
-8.45757e-18
6.85347e-17
-6.39515e-18
5.38724e-17
-3.80755e-18
3.60451e-17
-1.71502e-18
1.92259e-17
-5.11514e-19
7.83128e-18
-5.51922e-20
2.14725e-18
2.92208e-20
3.12285e-19
3.38816e-20
-1.01766e-19
2.86956e-20
-1.08332e-19
2.19697e-20
-8.23713e-20
1.53663e-20
-5.47609e-20
1.01102e-20
-3.16274e-20
6.40787e-21
-1.58338e-20
3.98569e-21
-6.51369e-21
2.45981e-21
-1.6239e-21
1.50519e-21
2.48202e-22
5.59494e-22
8.67493e-22
-1.30327e-17
3.28968e-16
-5.86043e-17
3.43375e-16
-9.13408e-17
9.09929e-16
-6.31161e-17
9.50403e-16
-2.50225e-17
5.26448e-16
-1.53277e-17
1.60355e-16
-1.32727e-17
1.15093e-16
-1.06363e-17
9.41691e-17
-7.08053e-18
6.6593e-17
-3.61783e-18
3.9706e-17
-1.30819e-18
1.7923e-17
-2.8192e-19
5.66386e-18
-1.5327e-20
1.05001e-18
8.97411e-21
5.64585e-20
8.57582e-21
-3.64248e-20
6.8211e-21
-3.19436e-20
4.64691e-21
-2.26879e-20
2.85811e-21
-1.32045e-20
1.6358e-21
-6.41807e-21
8.87685e-22
-2.45471e-21
4.59642e-22
-4.79608e-22
2.2949e-22
1.21732e-22
1.99182e-22
1.05477e-22
-1.07921e-17
3.37294e-16
-4.18341e-17
3.11968e-16
-6.27096e-17
6.99725e-16
-5.18098e-17
7.0947e-16
-2.01524e-17
3.43696e-16
-1.67774e-17
1.74234e-16
-1.53701e-17
1.51887e-16
-1.26004e-17
1.31327e-16
-8.9485e-18
9.54416e-17
-4.91749e-18
6.08919e-17
-1.82133e-18
2.90131e-17
-3.76173e-19
9.03632e-18
-2.76471e-20
1.44714e-18
1.84055e-21
7.95609e-20
2.08875e-21
-1.05091e-20
1.69285e-21
-1.13929e-20
1.0733e-21
-8.71879e-21
5.71427e-22
-5.10779e-21
2.55497e-22
-2.40346e-21
8.75188e-23
-8.42516e-22
1.05788e-23
-1.07509e-22
-3.14221e-23
5.31798e-23
6.76211e-23
-4.45249e-23
-6.54787e-18
4.01645e-16
-1.55832e-17
2.49855e-16
-2.03905e-17
3.07089e-16
-1.73874e-17
2.90946e-16
-1.30985e-17
2.14871e-16
-1.30457e-17
1.7516e-16
-1.28107e-17
1.61996e-16
-1.11995e-17
1.51285e-16
-8.1873e-18
1.17699e-16
-4.63033e-18
7.66687e-17
-1.6495e-18
3.72563e-17
-2.71347e-19
1.0757e-17
-1.48946e-20
1.45771e-18
2.75491e-22
6.87112e-20
3.68754e-22
-2.75819e-21
2.62402e-22
-3.93572e-21
1.11411e-22
-3.19806e-21
8.86606e-24
-1.86841e-21
-5.97384e-23
-8.40676e-22
-8.05926e-23
-2.6383e-22
-7.28173e-23
-1.11917e-23
-5.51746e-23
2.1774e-23
2.30713e-23
-3.90361e-23
-4.36866e-18
9.29886e-16
-6.34286e-18
2.51549e-16
-6.8263e-18
3.07291e-16
-6.79702e-18
2.90637e-16
-7.031e-18
2.14827e-16
-7.04989e-18
1.70685e-16
-7.15724e-18
1.61982e-16
-6.59278e-18
1.53251e-16
-4.89175e-18
1.2743e-16
-2.68663e-18
8.372e-17
-8.3342e-19
4.00908e-17
-1.04663e-19
1.08438e-17
-2.94639e-21
1.24507e-18
1.42864e-23
2.81037e-20
1.54828e-24
-6.46687e-22
-3.5818e-23
-1.35002e-21
-8.11544e-23
-1.13454e-21
-9.91587e-23
-6.50066e-22
-9.02547e-23
-2.75696e-22
-6.91343e-23
-7.55915e-23
-4.75068e-23
1.62658e-24
-3.03363e-23
8.07607e-24
7.42017e-24
-1.85947e-23
-3.00245e-18
3.78319e-15
-3.53281e-18
2.51799e-16
-2.57661e-18
3.06056e-16
-1.56128e-18
2.89343e-16
-1.09835e-18
2.14084e-16
-8.91775e-19
1.66009e-16
-7.68399e-19
1.5758e-16
-4.82473e-19
1.53376e-16
-1.48908e-19
1.27799e-16
1.49102e-19
8.4192e-17
1.89573e-19
4.00092e-17
5.75794e-20
9.93851e-18
3.11026e-21
7.14443e-19
6.6414e-22
6.25365e-21
-5.97987e-24
-8.0491e-23
-5.4712e-23
-4.69082e-22
-7.36678e-23
-3.95436e-22
-6.82796e-23
-2.17534e-22
-5.16617e-23
-8.58283e-23
-3.46002e-23
-1.99412e-23
-2.13809e-23
1.30681e-24
-1.24349e-23
2.74495e-24
2.25007e-24
-6.98259e-24
0
7.58131e-15
8.86557e-16
5.61758e-13
2.12267e-14
3.3863e-12
2.49755e-14
3.02449e-12
1.54171e-17
4.81455e-13
2.52297e-18
1.75091e-16
5.22929e-18
1.51074e-16
5.77183e-18
1.52221e-16
4.95063e-18
1.25185e-16
3.17118e-18
8.22072e-17
1.24497e-18
3.63711e-17
1.59002e-19
6.95736e-18
2.81878e-21
2.82631e-19
8.06531e-23
1.02572e-21
3.64453e-26
1.25723e-25
-3.4203e-23
-1.68847e-22
-4.03905e-23
-1.36443e-22
-3.33047e-23
-7.07014e-23
-2.27187e-23
-2.56022e-23
-1.39402e-23
-4.81784e-24
-7.96343e-24
5.82038e-25
-4.3275e-24
8.38627e-25
6.12985e-25
-2.26847e-24
3.91876e-15
7.48182e-15
6.05216e-14
1.05701e-12
1.29095e-13
3.32173e-12
1.11913e-13
3.04559e-12
1.10104e-16
1.28968e-12
6.31598e-19
2.91857e-16
1.08418e-17
1.48454e-16
1.16931e-17
1.46269e-16
9.35166e-18
1.1671e-16
5.46449e-18
7.25201e-17
1.67435e-18
2.72986e-17
1.26883e-19
3.65083e-18
9.81812e-22
8.19226e-20
3.41401e-25
1.40405e-22
1.877e-26
8.83833e-26
-1.75625e-23
-6.25758e-23
-1.84594e-23
-4.66681e-23
-1.37869e-23
-2.23874e-23
-8.57753e-24
-7.33742e-24
-4.86449e-24
-1.05686e-24
-2.56779e-24
1.98941e-25
-1.30191e-24
2.24767e-25
1.46613e-25
-6.29242e-25
4.02254e-15
7.27787e-15
5.86453e-14
8.57342e-13
2.2698e-13
3.15732e-12
2.54909e-13
3.02158e-12
0
9.56351e-13
0
4.94368e-16
1.64084e-17
1.47671e-16
1.6697e-17
1.36406e-16
1.21987e-17
1.02694e-16
6.1659e-18
5.67105e-17
1.36279e-18
1.66625e-17
5.63279e-20
1.39252e-18
1.90448e-22
1.55421e-20
1.62718e-23
1.30424e-23
-2.20766e-24
-8.18772e-24
-8.21975e-24
-2.36752e-23
-7.55043e-24
-1.57519e-23
-5.08377e-24
-6.88408e-24
-2.86794e-24
-2.01412e-24
-1.48662e-24
-2.06102e-25
-7.17202e-25
5.59056e-26
-3.35423e-25
5.20637e-26
3.0164e-26
-1.48019e-25
4.12599e-15
6.9695e-15
1.9838e-13
1.11471e-13
3.38475e-13
1.45998e-12
1.5601e-13
1.18831e-12
0
1.32028e-13
0
5.49179e-16
2.10412e-17
1.47608e-16
1.97403e-17
1.24418e-16
1.26808e-17
8.32509e-17
5.15112e-18
3.81999e-17
7.14302e-19
7.71585e-18
1.36356e-20
3.3309e-19
1.78832e-23
1.50659e-21
1.66388e-24
5.86559e-25
-2.09472e-24
-6.63563e-24
-3.55124e-24
-8.90347e-24
-2.81525e-24
-5.19114e-24
-1.6864e-24
-2.03365e-24
-8.50706e-25
-5.24169e-25
-3.95989e-25
-3.54128e-26
-1.73377e-25
1.30144e-26
-7.33786e-26
1.02199e-26
5.21227e-27
-2.91598e-26
1.91074e-15
1.1972e-14
1.34392e-14
0
7.04116e-14
0
2.92314e-14
0
0
2.38849e-16
2.534e-17
3.68108e-16
2.49779e-17
1.7461e-16
1.87226e-17
1.08425e-16
1.04531e-17
5.90167e-17
3.05185e-18
2.00939e-17
2.15434e-19
2.28793e-18
1.51566e-21
3.95363e-20
6.64787e-25
5.93416e-23
8.55297e-26
1.15267e-26
-1.21177e-24
-3.47437e-24
-1.41991e-24
-3.27676e-24
-9.60887e-25
-1.65457e-24
-5.02676e-25
-5.71051e-25
-2.22491e-25
-1.28093e-25
-9.10097e-26
-5.53007e-27
-3.56072e-26
2.49073e-27
-1.33952e-26
1.66181e-27
7.35807e-28
-4.71284e-27
1.27358e-15
1.09262e-14
6.77601e-16
5.0304e-15
3.87504e-16
3.61944e-16
1.85681e-16
1.90843e-16
7.46214e-17
3.03764e-16
6.69991e-17
3.29725e-16
2.86545e-17
1.77063e-16
1.53411e-17
8.20626e-17
6.37304e-18
3.29608e-17
1.08945e-18
6.83667e-18
3.00982e-20
3.33442e-19
6.28609e-23
1.80503e-21
9.44142e-27
8.98873e-25
2.51162e-27
7.90363e-27
-5.93895e-25
-1.61304e-24
-5.31932e-25
-1.18302e-24
-3.02057e-25
-5.09389e-25
-1.34669e-25
-1.51743e-25
-5.08695e-26
-2.91349e-26
-1.78033e-26
-8.74083e-28
-6.08541e-27
3.87188e-28
-1.99371e-27
2.18249e-28
8.21457e-29
-6.07855e-28
1.82874e-15
9.27323e-15
1.27458e-15
7.3511e-15
4.58769e-16
3.44076e-15
2.40547e-16
1.65525e-15
1.27083e-16
9.15758e-16
5.94446e-17
3.71928e-16
2.40294e-17
1.39005e-16
9.27261e-18
4.70177e-17
2.39947e-18
1.17645e-17
1.79329e-19
1.1114e-18
1.49025e-21
1.72921e-20
8.62039e-25
2.67606e-23
1.26994e-25
7.35638e-27
-1.33556e-25
-4.06133e-25
-2.71443e-25
-7.25071e-25
-1.89069e-25
-4.21541e-25
-8.84946e-26
-1.52586e-25
-3.26618e-26
-3.83423e-26
-1.01542e-26
-6.16264e-27
-2.93121e-27
-1.59305e-28
-8.47804e-28
4.82061e-29
-2.35214e-28
2.24876e-29
6.96121e-30
-6.03731e-29
1.42654e-15
2.16239e-15
1.91836e-15
4.71928e-15
9.45474e-16
4.08718e-15
4.64233e-16
2.33571e-15
1.85222e-16
1.09696e-15
5.43095e-17
3.85287e-16
1.46419e-17
9.28102e-17
3.34718e-18
1.7709e-17
4.02105e-19
1.94896e-18
9.6232e-21
5.86198e-20
2.08292e-23
2.43348e-22
4.68986e-27
1.40452e-25
1.47879e-27
4.83935e-27
-1.03332e-25
-3.12813e-25
-1.15742e-25
-3.13633e-25
-6.44577e-26
-1.49062e-25
-2.45497e-26
-4.50198e-26
-7.27975e-27
-9.34027e-27
-1.78332e-27
-1.22258e-27
-4.03854e-28
-3.23526e-29
-9.42205e-29
4.78503e-30
-2.12325e-29
1.7598e-30
4.22738e-31
-4.39846e-30
2.7781e-16
3.15914e-17
1.0355e-15
6.69237e-16
1.03225e-15
1.94477e-15
5.16667e-16
1.77717e-15
1.88521e-16
9.34214e-16
4.40929e-17
2.97912e-16
6.04463e-18
4.57361e-17