/*--------------------------------*- C++ -*----------------------------------*\
  =========                 |
  \\      /  F ield         | OpenFOAM: The Open Source CFD Toolbox
   \\    /   O peration     | Website:  https://openfoam.org
    \\  /    A nd           | Version:  9
     \\/     M anipulation  |
\*---------------------------------------------------------------------------*/
FoamFile
{
    format      ascii;
    class       volScalarField;
    location    "6.03";
    object      epsilon;
}
// * * * * * * * * * * * * * * * * * * * * * * * * * * * * * * * * * * * * * //

dimensions      [0 2 -3 0 0 0 0];

internalField   nonuniform List<scalar> 
2268
(
0.000281265
0.00146737
0.00259106
0.00358942
0.00447493
0.00526361
0.005972
0.00661109
0.00718527
0.00769374
0.00814413
0.00855353
0.00893721
0.00928651
0.00952841
0.00947498
0.0087864
0.00759369
0.00627288
0.00524133
0.00433493
0.00299709
0.000872905
0.00056649
0.000985166
0.00144815
0.00187736
0.00226518
0.00261357
0.00292685
0.00320888
0.00346219
0.00368814
0.00388949
0.0040699
0.00423069
0.00436484
0.00444834
0.00443077
0.00425076
0.003992
0.00359248
0.00310179
0.00255849
0.00196531
0.00143573
0.000952932
0.00104213
0.00134049
0.00163944
0.00191729
0.00217001
0.00239835
0.0026042
0.00278941
0.00295563
0.00310477
0.00323844
0.00335604
0.00345183
0.00351109
0.00350852
0.00342369
0.00329394
0.00307461
0.00277557
0.00245198
0.0021842
0.00237793
0.00132951
0.0011714
0.00137826
0.00161254
0.00183819
0.00204641
0.00223561
0.00240661
0.0025609
0.00270011
0.00282589
0.00293929
0.00303936
0.00312129
0.00317442
0.00318288
0.00313719
0.00305608
0.00291836
0.00273926
0.00258065
0.00256725
0.00343313
0.00168881
0.0013222
0.00146266
0.00165394
0.00184618
0.00202631
0.00219095
0.0023402
0.00247537
0.00259804
0.00270979
0.00281156
0.00290243
0.00297833
0.00303094
0.00304914
0.00302746
0.00297749
0.00289516
0.0028075
0.00278983
0.00302386
0.00470044
0.00203511
0.0014817
0.00156852
0.00172732
0.00189492
0.00205435
0.00220081
0.002334
0.00245517
0.00256594
0.0026679
0.00276201
0.00284754
0.00292096
0.00297551
0.00300291
0.00299981
0.00297664
0.00294051
0.00292929
0.00304015
0.00354832
0.00632177
0.00237531
0.00164566
0.00168663
0.00181937
0.00196736
0.00211005
0.00224156
0.0023615
0.00247124
0.00257247
0.00266687
0.00275546
0.0028377
0.00291053
0.00296827
0.00300457
0.00301778
0.00301932
0.00302466
0.00307864
0.00330255
0.004118
0.00870783
0.00271513
0.00181148
0.00181272
0.00192417
0.00205589
0.00218415
0.00230242
0.00241054
0.00251017
0.00260315
0.00269122
0.0027755
0.00285564
0.00292897
0.0029906
0.00303555
0.00306366
0.00308755
0.0031285
0.0032337
0.00353829
0.00463307
0.0140925
0.000847954
0.0035948
0.00559725
0.00669361
0.00731855
0.00765971
0.00795468
0.00827569
0.00840312
0.00763191
0.00611606
0.00460679
0.00342349
0.00403841
0.00559093
0.00514366
0.00326014
0.00184797
0.000650604
0.000997889
0.00204317
0.00277549
0.00321572
0.0034708
0.00361047
0.00370421
0.00377678
0.00376897
0.00353716
0.00316592
0.00270349
0.00231933
0.00238835
0.00252534
0.0023159
0.00170961
0.00116945
0.000772317
0.00155919
0.00201625
0.00242664
0.0026805
0.00282806
0.00290869
0.00295672
0.00298013
0.00294014
0.0027816
0.002572
0.00231056
0.0020781
0.00203338
0.00200402
0.00182637
0.00145692
0.00110521
0.000977231
0.00230334
0.0022444
0.00242673
0.0025564
0.00263473
0.00267677
0.00269825
0.00269737
0.00264195
0.00250623
0.00234823
0.00216604
0.00200128
0.0019356
0.0018502
0.00167826
0.00139245
0.0011213
0.00111854
0.00325551
0.00258586
0.00254129
0.00256218
0.00258288
0.00259224
0.00259172
0.00257302
0.00250825
0.00238482
0.00225277
0.00211583
0.00199564
0.00192931
0.00181351
0.00164179
0.00139171
0.0011633
0.00125448
0.00452822
0.00299736
0.00270356
0.00262339
0.00259314
0.00257291
0.00255212
0.00251825
0.00244718
0.00233363
0.00222299
0.0021191
0.0020321
0.00196056
0.0018282
0.00165285
0.00141764
0.00121818
0.00137752
0.00664325
0.00345216
0.00287971
0.00270939
0.00263497
0.00258805
0.00254835
0.00250104
0.00242586
0.00232241
0.00223428
0.00215861
0.0020917
0.00200564
0.0018667
0.00168526
0.0014572
0.00128235
0.0015069
0.0116447
0.00386939
0.0030425
0.00280415
0.00269397
0.00262375
0.00256686
0.00250778
0.00243081
0.00233839
0.00227071
0.0022187
0.00215808
0.00205508
0.00191406
0.00172919
0.00151094
0.00135544
0.00166608
0.00320576
0.00206864
0.00201903
0.00210353
0.00221353
0.0023214
0.00242026
0.00251092
0.00259575
0.00267683
0.00275604
0.0028346
0.00291248
0.00298756
0.0030559
0.00311398
0.00316354
0.00321792
0.00330197
0.00345847
0.00379455
0.00459344
0.00682438
0.00388418
0.00243149
0.00232779
0.00238656
0.00247201
0.00255394
0.0026265
0.00269362
0.00275899
0.0028248
0.00289295
0.00296483
0.00304093
0.00311996
0.00319847
0.00327323
0.0033459
0.00342639
0.00353331
0.00369567
0.00397153
0.00446092
0.00528743
0.0046197
0.00282851
0.00266941
0.0027051
0.00276163
0.0028154
0.00285933
0.00290189
0.00294772
0.00299859
0.00305636
0.00312244
0.003198
0.00328269
0.00337327
0.00346597
0.00356014
0.00365649
0.00376423
0.00390276
0.00409518
0.00437042
0.00471002
0.00552513
0.00329664
0.00305105
0.00305076
0.00304862
0.00307989
0.00309469
0.00311232
0.00314035
0.0031794
0.00322977
0.00329253
0.00337004
0.00346345
0.0035697
0.00368465
0.00380456
0.00390849
0.00400047
0.00410708
0.00422348
0.00436289
0.004508
0.00703045
0.00365953
0.00332234
0.00328157
0.00327614
0.00330693
0.00327419
0.0032582
0.00328197
0.00332865
0.00338867
0.00345891
0.00354172
0.00364237
0.0037594
0.00388729
0.00400567
0.00408267
0.00419226
0.00431135
0.00435705
0.00441548
0.00446906
0.00771692
0.0038506
0.00362174
0.00356056
0.00349078
0.00358882
0.00346466
0.00337912
0.00338187
0.00342722
0.00349783
0.00357731
0.00366952
0.00378224
0.00391466
0.00405534
0.00415966
0.00419558
0.00428404
0.00442622
0.00444479
0.00442765
0.00441709
0.00685478
0.00375586
0.00341123
0.00336977
0.00336199
0.00341072
0.00339422
0.00339114
0.00342505
0.00348439
0.00356235
0.00365206
0.00375313
0.00386521
0.00397901
0.00408102
0.00415595
0.00420294
0.00426984
0.00433474
0.00435494
0.00434581
0.00436144
0.00749161
0.00360746
0.00330457
0.00326294
0.00326751
0.0033123
0.00334663
0.00338567
0.00344426
0.00352247
0.0036096
0.00370242
0.00379626
0.00388597
0.00396693
0.00404253
0.00410948
0.00417377
0.00423194
0.00427231
0.00427067
0.00427231
0.00426014
0.00747312
0.00357263
0.0032412
0.00319715
0.00320626
0.00325181
0.00331027
0.0033763
0.00345245
0.00353765
0.00362484
0.00371041
0.00378987
0.00386134
0.00392801
0.00399541
0.00405898
0.00411642
0.00416325
0.00419065
0.00418431
0.00417705
0.00415572
0.00749264
0.00357184
0.00320889
0.00315203
0.00316403
0.00321209
0.00328028
0.00335868
0.00344296
0.00353004
0.00361489
0.00369371
0.00376382
0.00382645
0.00388659
0.00394771
0.00400376
0.00404928
0.00408478
0.00410422
0.00410465
0.00409563
0.0040754
0.007492
0.00362287
0.00321405
0.00313437
0.00314216
0.00318947
0.0032589
0.00333962
0.00342501
0.00351088
0.00359289
0.00366738
0.00373303
0.00379178
0.00384735
0.0039014
0.00394989
0.00398918
0.00401966
0.00403807
0.00404309
0.00403645
0.00401794
0.00176799
0.00371108
0.00324697
0.00313856
0.00313615
0.0031788
0.00324495
0.00332303
0.00340587
0.00348875
0.00356761
0.00363937
0.00370322
0.00376047
0.00381332
0.00386277
0.00390698
0.00394397
0.00397321
0.00399282
0.00400127
0.00399795
0.00398293
0.00750382
0.00383495
0.00329295
0.0031555
0.00314025
0.00317577
0.00323653
0.00331006
0.00338889
0.00346813
0.00354404
0.00361416
0.00367764
0.003735
0.00378735
0.00383535
0.00387842
0.00391543
0.00394546
0.00396713
0.0039789
0.00397967
0.00396955
0.00767356
0.00393835
0.00333816
0.00317814
0.00315042
0.00317796
0.00323266
0.00330119
0.00337584
0.0034517
0.00352543
0.00359487
0.00365903
0.00371779
0.00377156
0.00382067
0.00386496
0.00390379
0.00393614
0.00396082
0.00397644
0.00398206
0.00397769
0.0078767
0.00401556
0.00338141
0.00320337
0.0031644
0.00318422
0.00323308
0.00329697
0.00336803
0.00344143
0.00351404
0.00358383
0.00364963
0.00371093
0.00376765
0.0038198
0.00386721
0.00390939
0.00394545
0.00397429
0.00399476
0.00400611
0.00400819
0.00806474
0.00408595
0.00342263
0.00322947
0.00318081
0.00319385
0.00323771
0.0032979
0.00336647
0.00343864
0.00351137
0.00358263
0.00365113
0.0037161
0.0037771
0.00383385
0.00388602
0.0039331
0.00397432
0.00400868
0.00403524
0.00405335
0.00406273
0.00824029
0.00415061
0.00346136
0.00325542
0.00319875
0.00320635
0.00324646
0.00330427
0.00337175
0.00344411
0.00351833
0.00359234
0.00366476
0.00373462
0.00380123
0.00386406
0.00392261
0.00397626
0.00402427
0.00406576
0.00409988
0.004126
0.00414374
0.00840365
0.0042097
0.00349731
0.00328065
0.00321765
0.00322132
0.0032592
0.00331616
0.0033841
0.00345823
0.00353545
0.0036137
0.00369146
0.00376764
0.00384136
0.00391189
0.00397856
0.00404063
0.00409732
0.00414777
0.00419117
0.00422684
0.00425431
0.00855357
0.0042633
0.00353038
0.00330489
0.00323722
0.00323857
0.00327581
0.00333358
0.00340368
0.00348125
0.00356319
0.00364734
0.00373214
0.00381636
0.00389898
0.00397911
0.0040559
0.0041285
0.00419602
0.00425757
0.00431228
0.00435939
0.00439829
0.00868982
0.00431155
0.00356063
0.00332809
0.0032574
0.00325805
0.00329632
0.00335663
0.00343067
0.00351354
0.00360207
0.00369408
0.0037879
0.00388222
0.00397589
0.00406787
0.00415716
0.00424276
0.00432363
0.00439878
0.00446722
0.00452806
0.00458054
0.00881212
0.00435459
0.00358818
0.00335038
0.0032783
0.0032799
0.00332094
0.0033856
0.00346549
0.00355566
0.00365291
0.00375498
0.00386017
0.00396705
0.00407436
0.00418091
0.00428553
0.00438705
0.00448426
0.00457599
0.00466107
0.00473842
0.00480712
0.00892131
0.00439263
0.00361323
0.00337196
0.00330018
0.00330444
0.00335003
0.00342096
0.00350877
0.00360845
0.00371679
0.00383149
0.00395077
0.00407312
0.00419716
0.00432155
0.00444492
0.00456588
0.00468302
0.00479491
0.00490015
0.00499744
0.00508556
0.00901805
0.0044258
0.00363602
0.00339314
0.00332338
0.00333209
0.00338413
0.00346339
0.00356135
0.00367301
0.00379513
0.00392539
0.00406195
0.00420324
0.00434771
0.00449387
0.00464011
0.0047848
0.00492622
0.00506264
0.00519235
0.00531372
0.00542523
0.00909764
0.00445388
0.00365679
0.00341429
0.00334836
0.00336337
0.00342388
0.00351369
0.00362429
0.00375067
0.00388962
0.00403883
0.00419643
0.00436074
0.00453009
0.00470275
0.00487689
0.00505053
0.00522157
0.00538788
0.00554734
0.00569791
0.00583764
0.00915842
0.00447707
0.0036759
0.00343581
0.0033756
0.00339887
0.00347002
0.00357281
0.00369875
0.00384295
0.00400223
0.00417432
0.00435735
0.00454955
0.00474911
0.00495406
0.00516223
0.00537122
0.00557846
0.00578128
0.00597701
0.00616309
0.00633695
0.00920587
0.00449631
0.00369385
0.00345818
0.00340562
0.00343924
0.00352334
0.00364172
0.00378605
0.00395153
0.00413513
0.00433467
0.00454829
0.0047742
0.00501041
0.00525468
0.00550442
0.0057567
0.00600831
0.00625586
0.00649594
0.00672529
0.00694054
0.00924372
0.00451244
0.00371114
0.00348186
0.00343894
0.00348509
0.00358462
0.00372147
0.00388751
0.00407818
0.00429066
0.00452294
0.00477327
0.00503984
0.00532051
0.00561271
0.00591335
0.00621878
0.00652495
0.00682749
0.00712198
0.00740421
0.00766973
0.00927355
0.00452597
0.00372815
0.00350725
0.00347604
0.00353704
0.00365464
0.00381306
0.00400449
0.00422471
0.00447126
0.00474242
0.00503665
0.0053522
0.00568681
0.00603753
0.00640064
0.00677156
0.00714511
0.00751553
0.00787701
0.00822395
0.00855059
0.00929512
0.00453683
0.00374504
0.00353466
0.00351735
0.00359561
0.00373409
0.00391741
0.00413822
0.00439284
0.00467933
0.00499645
0.00534303
0.00571751
0.00611757
0.00653989
0.00697991
0.00743183
0.00788886
0.00834343
0.00878777
0.00921423
0.0096154
0.00930368
0.00454411
0.00376175
0.00356434
0.00356326
0.0036613
0.00382358
0.00403529
0.00428978
0.0045841
0.0049171
0.00528827
0.00569706
0.00614232
0.0066218
0.00713177
0.00766671
0.00821927
0.00878041
0.00933996
0.00988735
0.0104119
0.0109041
0.00928288
0.00454635
0.00377831
0.00359667
0.00361422
0.00373458
0.0039236
0.00416729
0.00445992
0.00479961
0.0051863
0.0056206
0.00610296
0.00663299
0.00720878
0.0078263
0.00847892
0.00915717
0.00984898
0.0105403
0.0112165
0.0118627
0.0124662
0.00923897
0.00454722
0.00379613
0.00363222
0.00367061
0.00381576
0.00403439
0.00431357
0.00464884
0.00503976
0.00548783
0.00599529
0.00656415
0.00719535
0.0078878
0.00863746
0.00943649
0.0102727
0.0111297
0.0119879
0.0128264
0.0136242
0.014364
0.00917159
0.00454717
0.00381493
0.00367114
0.00373277
0.00390511
0.00415598
0.00447388
0.00485604
0.00530397
0.00582133
0.0064127
0.00708246
0.00783376
0.00866718
0.00957929
0.0105611
0.0115972
0.012665
0.0137365
0.0147812
0.0157691
0.0166763
0.00906441
0.00453958
0.00383361
0.00371396
0.00380158
0.00400322
0.00428837
0.0046475
0.00508011
0.00559029
0.00618462
0.00687091
0.0076571
0.00854983
0.00955279
0.0106644
0.0118752
0.0131658
0.0145052
0.0158528
0.0171629
0.018391
0.0195037
0.00890613
0.00452047
0.00385286
0.00376309
0.00387945
0.00411161
0.00443178
0.00483325
0.00531852
0.00589496
0.00657297
0.00736474
0.00828322
0.00934055
0.0105458
0.0119014
0.0133995
0.0150165
0.0167103
0.0184207
0.0200772
0.0216119
0.0229769
0.0086714
0.0044895
0.00387862
0.00382572
0.00397216
0.00423365
0.004587
0.00502948
0.00556734
0.00621198
0.00697842
0.00788457
0.00895028
0.0101958
0.0116391
0.0132911
0.0151489
0.017187
0.0193492
0.0215456
0.0236634
0.0255934
0.0272667
0.00831143
0.00445605
0.00393071
0.00391972
0.004092
0.00437581
0.00475561
0.00523382
0.00582089
0.00653251
0.00738902
0.00841522
0.00964004
0.0110954
0.0128131
0.0148193
0.0171241
0.0197068
0.0224968
0.02536
0.0281087
0.0305549
0.0326
0.00776256
0.00447698
0.00406955
0.00408685
0.00426243
0.00454845
0.00493948
0.00544252
0.0060711
0.00684452
0.00778833
0.00893509
0.0103249
0.0120052
0.0140285
0.0164467
0.0192974
0.022581
0.0262223
0.0300284
0.0336746
0.0368023
0.0392803
0.00751505
0.00487426
0.00448419
0.00441992
0.00452281
0.0047643
0.00513852
0.00564883
0.00630676
0.00713243
0.00815539
0.00941596
0.0109669
0.0128748
0.0152206
0.0180954
0.0215885
0.0257559
0.0305568
0.0357445
0.0407493
0.0447786
0.0477158
0.0159559
0.00779461
0.00579167
0.00510682
0.00492346
0.00502941
0.00534496
0.00584035
0.0065127
0.00737747
0.00846571
0.00982438
0.0115189
0.0136371
0.0162938
0.0196341
0.0238298
0.029055
0.0354063
0.042691
0.0499777
0.0551513
0.0584452
0.154974
0.026742
0.00987067
0.00642582
0.00547826
0.00531881
0.00553393
0.00599615
0.00666964
0.0075589
0.0086935
0.010125
0.0119293
0.0142134
0.0171259
0.0208714
0.0257299
0.0320717
0.0403366
0.0508229
0.0626471
0.0689499
0.0721333
1.53838
0.1288
0.0203367
0.00830518
0.00601758
0.0055397
0.00565662
0.00608737
0.00675648
0.00765679
0.0088154
0.0102859
0.0121503
0.0145275
0.017588
0.0215803
0.0268757
0.034056
0.0441001
0.058824
0.0820047
0.087647
0.0894327
0.0156787
0.0124465
0.0127581
0.0159204
0.00614596
0.00620328
0.00616252
0.00598658
0.00489783
0.00492876
0.00487706
0.00474324
0.00455931
0.00455608
0.00451479
0.00443738
0.00447504
0.00446562
0.00444207
0.00438312
0.00441581
0.00438769
0.00435078
0.00430742
0.0043302
0.0043212
0.00430102
0.00424889
0.00423084
0.00420863
0.0041733
0.00413109
0.00413166
0.00411091
0.00408149
0.00404592
0.00405205
0.00403363
0.00400982
0.00398082
0.00399591
0.00397907
0.00395876
0.00393501
0.00396386
0.00394925
0.00393186
0.0039118
0.00395454
0.00394265
0.0039282
0.00391133
0.00396737
0.00395856
0.00394725
0.00393361
0.00400302
0.00399755
0.00398963
0.00397939
0.00406321
0.0040614
0.00405715
0.00405055
0.00415054
0.00415279
0.00415258
0.00414996
0.0042683
0.00427514
0.00427947
0.00428132
0.00442062
0.00443274
0.00444227
0.0044492
0.00461264
0.00463092
0.00464648
0.00465931
0.00485076
0.0048763
0.00489896
0.00491868
0.00514295
0.00517711
0.00520816
0.00523602
0.00549906
0.0055435
0.00558453
0.00562205
0.0059312
0.00598795
0.00604089
0.00608992
0.00645426
0.00652577
0.00659298
0.00665573
0.00708647
0.00717573
0.00726003
0.00733917
0.00785016
0.00796078
0.00806557
0.00816429
0.00877269
0.00890899
0.0090383
0.00916034
0.00988776
0.0100549
0.0102135
0.0103632
0.011237
0.011441
0.0116344
0.0118167
0.012872
0.01312
0.0133543
0.0135748
0.0148571
0.0151572
0.0154396
0.0157042
0.0172735
0.0176348
0.0179728
0.0182876
0.0202242
0.0206565
0.0210576
0.0214281
0.0238411
0.024354
0.0248247
0.025255
0.0282946
0.0288957
0.0294397
0.02993
0.0338057
0.0344973
0.0351115
0.0356554
0.0406613
0.041433
0.0421019
0.0426808
0.0492292
0.050046
0.050732
0.0513089
0.0599655
0.0607486
0.0613802
0.061893
0.0733887
0.073996
0.0744615
0.0748243
0.0899747
0.0902129
0.0903836
0.0905105
0.00609557
0.00392274
0.00323319
0.00295022
0.00280027
0.00270027
0.00262016
0.00254574
0.0024682
0.00239292
0.00234795
0.00231848
0.00225433
0.00213202
0.00198839
0.0018104
0.00162415
0.00149146
0.00195668
0.0048241
0.00388747
0.00340138
0.00313424
0.00296561
0.00284371
0.00274433
0.00265752
0.00258017
0.00251491
0.00246882
0.00243025
0.00235844
0.00224112
0.00211219
0.00197792
0.00186082
0.00180494
0.00263296
0.00437808
0.00388725
0.0035466
0.00331633
0.00314774
0.00301751
0.00290778
0.0028143
0.00273406
0.00266696
0.00261324
0.00256467
0.00249228
0.00238771
0.00227986
0.00219321
0.00215585
0.00222028
0.00349356
0.00424789
0.00393918
0.0036984
0.00350804
0.00334581
0.00321383
0.00309263
0.00299262
0.00290972
0.00283866
0.00277809
0.00272223
0.0026478
0.00254758
0.00245763
0.00241547
0.00246629
0.00268771
0.00435871
0.00422019
0.00397957
0.00380126
0.00364356
0.00352079
0.00341622
0.00327383
0.00315502
0.00305984
0.00297002
0.00288306
0.00280778
0.00274694
0.00267399
0.00259692
0.00259456
0.00272617
0.00310401
0.00511026
0.00419122
0.0040226
0.00389214
0.00376073
0.00362404
0.00350392
0.00337001
0.00325863
0.00316262
0.00306838
0.00296101
0.00285547
0.00277379
0.00269628
0.00264885
0.00269671
0.00288194
0.00328228
0.005398
0.00413378
0.00400549
0.00392443
0.00384226
0.00369819
0.0035877
0.0034578
0.00333934
0.00323423
0.00314013
0.00303283
0.00290925
0.00278958
0.00269588
0.00264409
0.00267928
0.00282189
0.00323507
0.00603018
0.00405391
0.00395599
0.00388321
0.00380903
0.00369869
0.00358728
0.00347218
0.00335777
0.00324706
0.00314696
0.00304482
0.00292856
0.00280321
0.00269533
0.00261767
0.00261074
0.002715
0.00318469
0.00662004
0.00398417
0.00390003
0.0038229
0.00374134
0.00364692
0.0035472
0.00345076
0.00334814
0.00323525
0.00312675
0.00302073
0.00290875
0.00279818
0.00269473
0.00259885
0.00255338
0.00261405
0.00303708
0.00628766
0.00392883
0.0038536
0.00377903
0.003702
0.00361977
0.00353025
0.00344098
0.00334028
0.00322914
0.00311811
0.00300335
0.00288272
0.00277364
0.00267502
0.00257888
0.00251022
0.00252473
0.00284744
0.00561634
0.00389174
0.00382519
0.00375707
0.00368758
0.00361336
0.00352948
0.00344149
0.003344
0.00323868
0.00312665
0.00300654
0.00287786
0.00275356
0.00264166
0.00254382
0.00246997
0.00245172
0.00265523
0.00490506
0.00387505
0.00381656
0.00375458
0.00369026
0.00362024
0.0035406
0.00345551
0.00336348
0.00326073
0.00314908
0.00302977
0.00290072
0.002766
0.00263648
0.00252167
0.0024381
0.00241379
0.00253337
0.00115815
0.00388003
0.00382866
0.00377191
0.00371062
0.00364274
0.00356694
0.00348546
0.00339645
0.00329653
0.00318854
0.00307333
0.00294746
0.00281226
0.00267686
0.00255173
0.00245683
0.00242691
0.00251221
0.00483508
0.00390755
0.00386293
0.00381151
0.00375335
0.00368765
0.0036146
0.00353534
0.00344841
0.00335209
0.00324818
0.00313692
0.00301539
0.00288555
0.00275533
0.00263567
0.00254661
0.00252433
0.00263376
0.00469702
0.0039588
0.00392119
0.00387563
0.00382175
0.00375918
0.00368868
0.00361118
0.00352609
0.00343263
0.00333171
0.00322351
0.00310684
0.00298445
0.00286421
0.00275841
0.00268823
0.00269335
0.00286486
0.0048503
0.00403585
0.00400577
0.00396666
0.00391811
0.00385984
0.00379263
0.00371737
0.00363414
0.00354281
0.00344401
0.00333827
0.00322605
0.0031109
0.00300119
0.00291113
0.00286555
0.00291755
0.00324121
0.00510324
0.00414172
0.00411992
0.00408806
0.00404575
0.00399282
0.00392981
0.00385751
0.00377642
0.00368692
0.00358978
0.00348603
0.00337739
0.00326824
0.00316764
0.00309157
0.00306914
0.00316403
0.00358629
0.00584612
0.00428031
0.00426779
0.00424419
0.00420911
0.00416237
0.00410435
0.00403572
0.00395716
0.00386943
0.00377362
0.00367131
0.00356515
0.00346033
0.00336667
0.00330185
0.00329947
0.00343573
0.00395892
0.0065776
0.00445644
0.00445453
0.00444038
0.00441358
0.00437392
0.00432162
0.00425724
0.00418157
0.00409562
0.00400079
0.0038992
0.00379423
0.00369185
0.00360274
0.00354627
0.00356094
0.00373855
0.00438146
0.0074055
0.0046761
0.00468642
0.00468318
0.00466587
0.00463426
0.00458843
0.00452887
0.00445638
0.00437216
0.00427789
0.00417614
0.00407092
0.00396897
0.0038819
0.0038309
0.00385934
0.00407572
0.00485001
0.00847171
0.00494664
0.00497122
0.00498063
0.00497428
0.00495184
0.00491334
0.00485917
0.00479015
0.00470756
0.00461334
0.00451044
0.00440344
0.00429984
0.00421231
0.00416402
0.0042031
0.00445361
0.00536076
0.00982586
0.00527715
0.00531844
0.00534263
0.00534899
0.00533711
0.00530695
0.00525884
0.00519358
0.00511253
0.00501781
0.00491268
0.00480229
0.00469492
0.00460455
0.00455669
0.00460474
0.00488811
0.00592882
0.0114258
0.00567878
0.00573978
0.00578128
0.00580246
0.00580282
0.00578225
0.00574102
0.00567992
0.00560034
0.00550453
0.00539605
0.00528055
0.00516721
0.00507159
0.00502229
0.0050797
0.00540204
0.00659155
0.0133109
0.00616519
0.00624948
0.00631135
0.00634987
0.00636448
0.006355
0.00632168
0.00626527
0.00618717
0.00608971
0.00597667
0.00585417
0.00573238
0.00562872
0.0055755
0.00564114
0.00600575
0.00736203
0.0153687
0.00675308
0.00686492
0.00695076
0.00700958
0.0070408
0.00704422
0.00702008
0.00696908
0.00689258
0.00679296
0.00667413
0.00654264
0.00640947
0.00629383
0.00623163
0.006299
0.0066954
0.00818724
0.0172528
0.00746282
0.00760722
0.00772119
0.00780373
0.00785428
0.00787273
0.0078593
0.00781468
0.00774015
0.00763801
0.00751219
0.00736943
0.00722136
0.0070886
0.00701013
0.00706848
0.00747796
0.00905777
0.0188483
0.00831918
0.0085019
0.00864877
0.00875887
0.00883187
0.00886776
0.00886688
0.00882988
0.00875795
0.00865319
0.00851934
0.00836308
0.00819631
0.00804067
0.00793752
0.00797469
0.0083792
0.0100165
0.0203938
0.00935227
0.0095799
0.00976495
0.00990685
0.0100056
0.0100616
0.0100754
0.0100476
0.0099793
0.00987227
0.00972984
0.00955831
0.00936943
0.00918537
0.00904951
0.00905507
0.00944449
0.0111468
0.0223051
0.0105988
0.0108786
0.0111075
0.0112856
0.0114137
0.0114926
0.0115233
0.0115067
0.0114436
0.0113354
0.0111848
0.0109972
0.010784
0.0105673
0.0103924
0.0103591
0.0107312
0.0125307
0.0248088
0.0121034
0.0124432
0.0127218
0.0129404
0.0131011
0.0132057
0.013256
0.0132529
0.0131973
0.0130901
0.0129331
0.0127307
0.0124931
0.0122421
0.0120246
0.0119486
0.0123058
0.0142396
0.0279699
0.0139207
0.0143285
0.0146622
0.0149252
0.0151214
0.0152543
0.0153265
0.0153397
0.0152948
0.0151922
0.0150328
0.0148196
0.0145611
0.0142782
0.0140193
0.0139009
0.0142481
0.0163495
0.0318025
0.0161176
0.0166009
0.0169942
0.0173044
0.017538
0.017701
0.0177974
0.0178301
0.0178
0.0177074
0.0175522
0.017336
0.0170654
0.0167597
0.0164678
0.0163151
0.0166639
0.0189719
0.0364404
0.0187766
0.0193412
0.0197967
0.0201548
0.0204263
0.02062
0.0207424
0.0207975
0.0207873
0.0207118
0.0205708
0.0203645
0.0200979
0.0197883
0.0194846
0.0193205
0.0197007
0.0222918
0.0423363
0.0219993
0.0226479
0.0231648
0.0235687
0.023876
0.0240995
0.0242484
0.0243287
0.0243436
0.0242943
0.0241805
0.0240027
0.0237654
0.0234849
0.0232102
0.023084
0.0235606
0.0265786
0.0501698
0.0259115
0.0266413
0.0272136
0.027657
0.0279948
0.0282444
0.0284186
0.0285258
0.028571
0.0285572
0.0284863
0.0283609
0.0281882
0.0279871
0.0278109
0.0278142
0.02851
0.0321817
0.0605825
0.0306684
0.0314677
0.0320824
0.0325534
0.032912
0.0331812
0.033377
0.0335105
0.0335895
0.0336198
0.0336075
0.0335613
0.0334964
0.0334435
0.0334713
0.0337599
0.0348975
0.0395927
0.0744533
0.0364607
0.037305
0.0379394
0.0384194
0.0387845
0.0390627
0.0392731
0.0394295
0.0395423
0.0396216
0.03968
0.0397366
0.0398239
0.0399993
0.0403733
0.0411903
0.0431675
0.0495647
0.0934194
0.0435203
0.0443677
0.0449882
0.0454514
0.0458038
0.0460765
0.0462908
0.0464619
0.0466032
0.0467293
0.0468607
0.0470313
0.0473004
0.0477741
0.04865
0.0503277
0.0538154
0.0632399
0.120366
0.0521242
0.0529127
0.0534746
0.0538892
0.0542054
0.0544546
0.0546577
0.0548305
0.0549876
0.0551473
0.0553377
0.0556082
0.0560498
0.0568363
0.0583097
0.0611821
0.0671569
0.0822333
0.161379
0.0625959
0.0632456
0.0636974
0.0640281
0.0642823
0.0644871
0.0646604
0.064816
0.0649679
0.0651352
0.0653492
0.0656682
0.0662062
0.0671983
0.0691526
0.0732488
0.0825762
0.107825
0.230122
0.0753051
0.0757314
0.0760227
0.0762362
0.076403
0.0765412
0.0766626
0.076777
0.0768948
0.0770311
0.0772124
0.0774896
0.0779681
0.0788818
0.080793
0.0852086
0.0968667
0.1357
0.353717
0.090673
0.0908128
0.0909079
0.0909787
0.0910357
0.0910848
0.09113
0.091175
0.0912237
0.0912826
0.0913629
0.0914869
0.0917019
0.0921188
0.0930323
0.0953794
0.102971
0.13937
0.581385
)
;

boundaryField
{
    leftWall
    {
        type            epsilonWallFunction;
        value           nonuniform List<scalar> 
50
(
0.000281265
0.00056649
0.000952932
0.00132951
0.00168881
0.00203511
0.00237531
0.00271513
0.00320576
0.00388418
0.0046197
0.00552513
0.00703045
0.00771692
0.00685478
0.00749161
0.00747312
0.00749264
0.007492
0.00176799
0.00750382
0.00767356
0.0078767
0.00806474
0.00824029
0.00840365
0.00855357
0.00868982
0.00881212
0.00892131
0.00901805
0.00909764
0.00915842
0.00920587
0.00924372
0.00927355
0.00929512
0.00930368
0.00928288
0.00923897
0.00917159
0.00906441
0.00890613
0.0086714
0.00831143
0.00776256
0.00751505
0.0159559
0.154974
1.53838
)
;
    }
    rightWall
    {
        type            epsilonWallFunction;
        value           nonuniform List<scalar> 
50
(
0.000650604
0.000772317
0.000977231
0.00111854
0.00125448
0.00137752
0.0015069
0.00166608
0.00195668
0.00263296
0.00349356
0.00435871
0.00511026
0.005398
0.00603018
0.00662004
0.00628766
0.00561634
0.00490506
0.00115815
0.00483508
0.00469702
0.0048503
0.00510324
0.00584612
0.0065776
0.0074055
0.00847171
0.00982586
0.0114258
0.0133109
0.0153687
0.0172528
0.0188483
0.0203938
0.0223051
0.0248088
0.0279699
0.0318025
0.0364404
0.0423363
0.0501698
0.0605825
0.0744533
0.0934194
0.120366
0.161379
0.230122
0.353717
0.581385
)
;
    }
    lowerWall
    {
        type            epsilonWallFunction;
        value           nonuniform List<scalar> 
62
(
0.000281265
0.00146737
0.00259106
0.00358942
0.00447493
0.00526361
0.005972
0.00661109
0.00718527
0.00769374
0.00814413
0.00855353
0.00893721
0.00928651
0.00952841
0.00947498
0.0087864
0.00759369
0.00627288
0.00524133
0.00433493
0.00299709
0.000872905
0.000872905
0.00143573
0.00237793
0.00343313
0.00470044
0.00632177
0.00870783
0.0140925
0.0156787
0.0124465
0.0127581
0.0159204
0.000847954
0.000997889
0.00155919
0.00230334
0.00325551
0.00452822
0.00664325
0.0116447
0.000847954
0.0035948
0.00559725
0.00669361
0.00731855
0.00765971
0.00795468
0.00827569
0.00840312
0.00763191
0.00611606
0.00460679
0.00342349
0.00403841
0.00559093
0.00514366
0.00326014
0.00184797
0.000650604
)
;
    }
    atmosphere
    {
        type            inletOutlet;
        inletValue      uniform 0.1;
        value           nonuniform List<scalar> 
46
(
0.1
0.1288
0.0203367
0.00830518
0.00601758
0.0055397
0.00565662
0.00608737
0.00675648
0.00765679
0.0088154
0.0102859
0.0121503
0.0145275
0.017588
0.0215803
0.0268757
0.034056
0.0441001
0.058824
0.1
0.1
0.1
0.1
0.1
0.1
0.1
0.1
0.1
0.1
0.1
0.1
0.1
0.1
0.1
0.1
0.1
0.1
0.1
0.1
0.1
0.1
0.1
0.1
0.1
0.581385
)
;
    }
    defaultFaces
    {
        type            empty;
    }
}


// ************************************************************************* //
