/*--------------------------------*- C++ -*----------------------------------*\
  =========                 |
  \\      /  F ield         | OpenFOAM: The Open Source CFD Toolbox
   \\    /   O peration     | Website:  https://openfoam.org
    \\  /    A nd           | Version:  9
     \\/     M anipulation  |
\*---------------------------------------------------------------------------*/
FoamFile
{
    format      ascii;
    class       volScalarField;
    location    "6.94";
    object      nut;
}
// * * * * * * * * * * * * * * * * * * * * * * * * * * * * * * * * * * * * * //

dimensions      [0 2 -1 0 0 0 0];

internalField   nonuniform List<scalar> 
2268
(
1.12576e-05
1.30813e-05
1.58536e-05
1.77114e-05
1.90945e-05
2.01812e-05
2.10627e-05
2.17909e-05
2.2396e-05
2.29027e-05
2.33503e-05
2.37427e-05
2.4085e-05
2.43493e-05
2.44549e-05
2.42474e-05
2.34486e-05
2.21977e-05
2.08389e-05
1.95199e-05
1.81596e-05
1.60859e-05
1.1185e-05
2.57418e-05
0.000103926
0.000140526
0.000163861
0.000180785
0.000193936
0.000204623
0.00021356
0.000221086
0.000227366
0.000232367
0.000236679
0.000240272
0.000242806
0.000243415
0.000240518
0.000231539
0.000210971
0.000190764
0.000174416
0.000162487
0.000123755
3.5216e-05
3.06766e-05
0.000178341
0.00026262
0.000317476
0.000357196
0.000387754
0.000412208
0.000432257
0.000448831
0.000462464
0.000473467
0.000482682
0.000490038
0.000494791
0.00049515
0.00048793
0.000468089
0.000430259
0.000391452
0.000354704
0.000308837
0.000208294
4.1747e-05
3.43403e-05
0.000231306
0.000359855
0.000446332
0.000509641
0.000558413
0.000597264
0.000628852
0.00065473
0.000675855
0.000692859
0.00070675
0.000717436
0.000723868
0.000723636
0.000712626
0.000684816
0.000635773
0.000581835
0.000522547
0.000436606
0.000276991
4.74152e-05
3.72631e-05
0.000271425
0.000438419
0.000554204
0.000640144
0.000706728
0.000759807
0.000802849
0.000837968
0.000866507
0.000889364
0.00090766
0.000921324
0.000929114
0.000928307
0.000914473
0.000881642
0.000825682
0.000759522
0.000678397
0.000554325
0.00034108
5.29786e-05
3.97345e-05
0.000303654
0.000503717
0.000645956
0.000752938
0.000836425
0.000903184
0.000957335
0.00100145
0.00103721
0.00106575
0.00108822
0.00110466
0.00111373
0.00111262
0.00109698
0.00106135
0.00100163
0.000925926
0.00082584
0.000668994
0.000404813
5.92408e-05
4.19193e-05
0.000330775
0.000559492
0.00072539
0.000851646
0.0009509
0.0010306
0.00109536
0.00114813
0.00119085
0.0012249
0.00125133
0.00127048
0.00128095
0.00128
0.00126357
0.00122679
0.00116579
0.00108332
0.000968899
0.000787034
0.000470411
6.75837e-05
4.39142e-05
0.000354467
0.000608303
0.000795332
0.000939109
0.00105293
0.00114475
0.00121954
0.00128053
0.0013299
0.0013692
0.00139953
0.00142145
0.00143358
0.00143337
0.00141715
0.00138058
0.00132015
0.00123406
0.00111136
0.000915465
0.000560309
7.99893e-05
1.14895e-05
1.81279e-05
2.1193e-05
2.24838e-05
2.32012e-05
2.35335e-05
2.38002e-05
2.39905e-05
2.37976e-05
2.27269e-05
2.11137e-05
1.92135e-05
1.73476e-05
1.71774e-05
1.81809e-05
1.80465e-05
1.57441e-05
1.32283e-05
1.34181e-05
3.64724e-05
0.000145472
0.000192945
0.000215488
0.000225967
0.000230696
0.000232174
0.000230571
0.000223296
0.00020683
0.000177886
0.000156959
0.000140416
0.000139852
0.000160862
0.000157057
0.000132009
9.69259e-05
2.8297e-05
4.15354e-05
0.000243251
0.000362431
0.000424028
0.000454031
0.000467427
0.000471786
0.00046859
0.000453277
0.000419123
0.000367242
0.00032523
0.000293976
0.000289304
0.000315096
0.000300975
0.000242368
0.000157236
3.17065e-05
4.70148e-05
0.000308499
0.000497289
0.000601114
0.000653699
0.000677839
0.000686118
0.000682182
0.000661192
0.000614876
0.000548938
0.000492
0.000449498
0.000436101
0.000451737
0.000422227
0.000332689
0.000197851
3.5048e-05
5.32148e-05
0.000362121
0.000611167
0.000754111
0.000828473
0.000863477
0.000875958
0.000871907
0.000847378
0.000794008
0.000720187
0.000653595
0.00060176
0.000576353
0.000574768
0.000526678
0.000411166
0.000234028
3.83946e-05
6.02459e-05
0.000414912
0.000716084
0.000892109
0.000985105
0.00102972
0.00104606
0.0010422
0.00101567
0.000959011
0.00088136
0.000808675
0.000748598
0.000709671
0.000688045
0.000619972
0.000482564
0.000273607
4.15602e-05
7.02208e-05
0.000473444
0.000821627
0.0010224
0.00112925
0.00118132
0.0012007
0.00119701
0.00116939
0.00111188
0.00103301
0.000956422
0.000888829
0.000836414
0.000793766
0.000705431
0.00054768
0.000318324
4.46959e-05
8.54674e-05
0.000555023
0.000937611
0.00115049
0.00126515
0.00132194
0.00134321
0.00133942
0.00131111
0.00125401
0.0011757
0.00109636
0.00102195
0.0009566
0.000892894
0.000784702
0.000607247
0.000358107
4.818e-05
4.678e-05
0.000387853
0.000676539
0.000893171
0.00106192
0.0011969
0.00130662
0.00139643
0.00146986
0.00152936
0.00157665
0.00161278
0.00163863
0.00165313
0.00165431
0.00163943
0.00160527
0.00154854
0.00146363
0.00133837
0.00114491
0.000840411
0.000423714
5.02536e-05
0.000425312
0.000752433
0.00100078
0.00119654
0.001355
0.00148519
0.00159255
0.00168088
0.00175287
0.00181046
0.00185497
0.00188709
0.00190664
0.00191241
0.00190271
0.00187541
0.0018277
0.00175404
0.0016446
0.0014845
0.0012602
0.00097978
5.39138e-05
0.000457876
0.000823043
0.00109597
0.00131266
0.0014902
0.00163762
0.00175975
0.00186079
0.00194373
0.00201073
0.00206341
0.0021026
0.00212845
0.00214048
0.00213785
0.00211931
0.00208311
0.00202476
0.00193892
0.00181882
0.00166449
0.00149598
5.70459e-05
0.000480959
0.000896872
0.00118288
0.00141559
0.00160922
0.00177162
0.00190603
0.00201776
0.00211009
0.00218551
0.00224599
0.00229246
0.00232526
0.00234448
0.0023499
0.00234034
0.00231545
0.00227113
0.00220837
0.00212394
0.00202083
0.00191832
6.0016e-05
0.000491614
0.000954329
0.00124906
0.00150122
0.00171208
0.0018866
0.0020338
0.00215675
0.00225768
0.00234088
0.00240921
0.0024629
0.00250247
0.00252885
0.00254159
0.00253887
0.00252223
0.00248993
0.00244532
0.00238952
0.00232401
0.00226089
6.41231e-05
0.000515898
0.000945744
0.00125988
0.00154535
0.00178317
0.00197353
0.00213766
0.00227558
0.00238758
0.00247947
0.0025555
0.00261617
0.00266305
0.00269756
0.00271737
0.00272131
0.00271247
0.00269172
0.00266276
0.00262782
0.00258658
0.00255087
0.00029542
0.000543802
0.000967405
0.00129275
0.00158719
0.00183555
0.00204507
0.00222523
0.00237628
0.00250044
0.00260314
0.00268818
0.00275711
0.00281184
0.00285434
0.0028818
0.00289338
0.0028922
0.00288185
0.00286419
0.00284346
0.00282141
0.00280463
0.000296318
0.000544045
0.000982743
0.00133668
0.00163946
0.00189651
0.00211634
0.00230549
0.00246656
0.00260212
0.00271555
0.00281017
0.00288793
0.00295158
0.00300229
0.00303767
0.00305769
0.00306546
0.00306453
0.00305703
0.00304705
0.00303842
0.00303272
6.97032e-05
0.000541419
0.001003
0.00138012
0.00169457
0.00196024
0.00218792
0.00238428
0.00255312
0.00269735
0.00281995
0.0029238
0.00301093
0.00308383
0.00314289
0.00318632
0.00321472
0.00323132
0.00323918
0.00324085
0.00324013
0.00324019
0.00324089
0.000295503
0.000551777
0.00102627
0.00141955
0.00174571
0.00202085
0.00225663
0.00246027
0.0026364
0.00278844
0.00291935
0.00303177
0.00312788
0.00320926
0.00327607
0.00332728
0.00336401
0.0033891
0.0034053
0.0034152
0.00342194
0.0034277
0.00343215
0.00029522
0.000559578
0.00104749
0.00145347
0.00179097
0.00207613
0.00232062
0.0025321
0.00271574
0.00287543
0.00301424
0.00313473
0.00323887
0.00332775
0.00340168
0.00346046
0.00350531
0.00353855
0.00356256
0.00357973
0.00359256
0.0036026
0.0036096
6.97381e-05
0.000565004
0.00106451
0.00148208
0.00183075
0.00212612
0.00237973
0.00259948
0.00279092
0.00295822
0.0031046
0.00323257
0.00334397
0.00343968
0.00352032
0.00358634
0.00363888
0.00367973
0.00371092
0.00373451
0.00375249
0.003766
0.00377494
6.95643e-05
0.00056859
0.00107824
0.00150687
0.00186641
0.00217188
0.00243472
0.00266292
0.00286226
0.00303708
0.0031907
0.00332563
0.00344363
0.0035458
0.00363275
0.0037055
0.00376508
0.00381287
0.00385052
0.00387975
0.00390214
0.00391859
0.00392911
6.95671e-05
0.000570658
0.00109039
0.00152952
0.00189943
0.00221471
0.00248662
0.00272322
0.00293037
0.0031125
0.00327299
0.00341438
0.00353847
0.00364659
0.00373958
0.00381842
0.00388424
0.00393816
0.0039815
0.00401562
0.00404181
0.0040608
0.00407264
0.000295907
0.000578347
0.00110237
0.00155126
0.00193102
0.00225572
0.0025364
0.00278114
0.00299583
0.00318494
0.0033519
0.00349927
0.00362902
0.00374261
0.00384108
0.00392535
0.00399657
0.00405575
0.00410394
0.00414226
0.00417171
0.00419287
0.00420583
6.98012e-05
0.000582573
0.00111539
0.00157303
0.00196204
0.00229568
0.00258473
0.00283721
0.00305904
0.00325472
0.0034277
0.0035806
0.00371552
0.00383403
0.00393731
0.00402637
0.00410214
0.0041657
0.00421794
0.00425977
0.00429197
0.004315
0.00432896
0.000295718
0.000587373
0.0011283
0.00159501
0.00199292
0.00233505
0.00263202
0.00289177
0.00312027
0.00332202
0.00350051
0.00365845
0.00379799
0.00392081
0.0040282
0.00412124
0.00420088
0.00426802
0.00432357
0.00436827
0.00440277
0.00442742
0.00444234
0.000296041
0.000592488
0.0011419
0.00161736
0.00202383
0.00237402
0.00267843
0.00294497
0.0031796
0.00338689
0.00357033
0.00373273
0.0038763
0.00400279
0.0041136
0.00420988
0.00429261
0.00436266
0.00442086
0.0044679
0.00450432
0.00453043
0.00454633
0.000295715
0.000595085
0.00115527
0.0016399
0.00205472
0.0024126
0.00272399
0.0029968
0.00323702
0.00344925
0.00363705
0.00380328
0.00395023
0.00407973
0.00419329
0.00429211
0.00437725
0.0044496
0.00450991
0.00455886
0.00459693
0.00462443
0.00464145
0.000295716
0.000599725
0.00116918
0.00166262
0.00208551
0.00245071
0.00276863
0.00304719
0.00329241
0.00350895
0.00370046
0.00386986
0.00401953
0.0041514
0.00426705
0.00436781
0.00445477
0.00452888
0.0045909
0.00464148
0.00468108
0.00471001
0.00472838
0.000296181
0.000605927
0.00118364
0.0016855
0.00211612
0.00248822
0.00281219
0.00309595
0.00334557
0.00356578
0.00376033
0.00393224
0.00408398
0.00421758
0.00433475
0.00443689
0.00452521
0.00460069
0.00466416
0.00471624
0.0047574
0.00478796
0.00480803
6.97112e-05
0.000608438
0.0011982
0.00170833
0.00214639
0.002525
0.00285452
0.0031429
0.00339629
0.00361951
0.00381643
0.00399018
0.00414336
0.00427813
0.00439631
0.00449942
0.00458876
0.00466541
0.00473021
0.00478385
0.00482677
0.0048593
0.00488156
0.000296392
0.000617878
0.00121278
0.00173094
0.00217615
0.00256085
0.0028954
0.00318782
0.00344434
0.0036699
0.00386853
0.00404351
0.00419757
0.00433302
0.00445181
0.00455561
0.00464581
0.00472357
0.00478982
0.00484524
0.00489032
0.00492535
0.00495043
0.000296515
0.000623827
0.00122714
0.00175319
0.00220522
0.00259558
0.00293463
0.00323048
0.00348948
0.00371676
0.00391649
0.00409213
0.00424659
0.00438234
0.0045015
0.00460586
0.00469693
0.00477598
0.00484397
0.00490164
0.00494946
0.00498767
0.00501636
0.000296542
0.000629508
0.00124128
0.00177497
0.00223346
0.002629
0.002972
0.00327065
0.00353151
0.0037599
0.0039602
0.00413604
0.00429055
0.00442637
0.0045458
0.00465078
0.00474296
0.00482367
0.00489395
0.00495452
0.00500584
0.00504811
0.00508134
0.000296817
0.000635528
0.00125513
0.00179614
0.00226069
0.00266093
0.00300726
0.00330812
0.00357027
0.00379925
0.00399966
0.00417538
0.00432972
0.00446555
0.00458536
0.00469124
0.00478497
0.00486795
0.00494126
0.00500561
0.00506141
0.00510877
0.00514759
6.98825e-05
0.000638294
0.0012686
0.00181662
0.00228679
0.00269109
0.00304018
0.00334268
0.00360563
0.00383478
0.00403499
0.00421038
0.00436453
0.00450052
0.00462102
0.00472831
0.00482426
0.00491035
0.00498766
0.00505686
0.00511827
0.00517188
0.00521746
6.98889e-05
0.000643719
0.00128171
0.00183628
0.00231138
0.00271919
0.0030705
0.00337418
0.00363751
0.00386654
0.00406639
0.00424145
0.00439557
0.00453206
0.00465381
0.00476324
0.00486233
0.00495259
0.00503507
0.00511038
0.00517868
0.00523982
0.00529339
7.01393e-05
0.000650055
0.00129429
0.00185462
0.00233411
0.00274489
0.00309796
0.00340245
0.0036659
0.00389467
0.00409417
0.0042691
0.00442356
0.00456113
0.0046849
0.00479744
0.0049008
0.00499649
0.00508551
0.00516832
0.00524493
0.00531496
0.00537779
6.99626e-05
0.000654881
0.00130565
0.00187122
0.00235453
0.00276781
0.00312226
0.00342731
0.00369079
0.00391936
0.00411874
0.00429392
0.00444932
0.00458876
0.00471555
0.00483237
0.00494134
0.00504392
0.00514099
0.00523284
0.00531925
0.00539959
0.00547296
7.00039e-05
0.000659327
0.00131534
0.00188547
0.00237205
0.0027874
0.00314302
0.00344857
0.0037122
0.00394084
0.00414052
0.00431658
0.00447371
0.00461602
0.00474701
0.00486947
0.00498554
0.00509661
0.0052034
0.00530596
0.00540376
0.00549588
0.00558109
0.00029725
0.000664552
0.00132247
0.00189648
0.00238581
0.00280297
0.00315972
0.00346599
0.00373013
0.00395935
0.00416
0.00433772
0.00449756
0.00464389
0.0047804
0.00491
0.00503481
0.00515612
0.00527442
0.00538946
0.00550037
0.00560581
0.00570417
6.99398e-05
0.000661662
0.00132609
0.0019031
0.00239465
0.00281353
0.0031717
0.0034792
0.00374453
0.00397511
0.00417757
0.00435794
0.00452157
0.00467317
0.00481662
0.00495494
0.00509023
0.00522363
0.00535538
0.00548487
0.00561077
0.00573122
0.00584412
6.99724e-05
0.00066015
0.00132531
0.00190373
0.00239688
0.00281768
0.00317801
0.00348774
0.00375531
0.00398828
0.00419359
0.00437766
0.00454624
0.00470436
0.00485617
0.00500481
0.00515237
0.00529985
0.00544722
0.00559339
0.00573645
0.00587387
0.00600285
6.99523e-05
0.000655847
0.00131839
0.00189572
0.00238986
0.0028134
0.00317738
0.00349097
0.00376228
0.00399895
0.00420827
0.00439711
0.00457172
0.00473755
0.00489904
0.00505953
0.00522118
0.0053849
0.00555033
0.00571587
0.00587881
0.00603563
0.00618252
7.00074e-05
0.000648498
0.00130139
0.00187415
0.00236935
0.00279779
0.0031682
0.00348818
0.00376525
0.00400714
0.00422164
0.00441624
0.00459781
0.0047723
0.00494459
0.00511832
0.00529584
0.00547809
0.0056645
0.00585285
0.00603929
0.00621879
0.00638594
6.98628e-05
0.000630718
0.00126501
0.00182982
0.00232868
0.00276696
0.0031486
0.00347869
0.00376406
0.00401284
0.00423361
0.00443474
0.00462387
0.00480764
0.00499147
0.00517951
0.00537452
0.00557778
0.0057887
0.00600446
0.00621963
0.00642661
0.00661716
7.00553e-05
0.000594787
0.00118972
0.0017467
0.0022583
0.00271639
0.00311697
0.00346217
0.0037588
0.00401608
0.00424395
0.00445199
0.00464887
0.00484202
0.0050376
0.00524048
0.00545423
0.00568096
0.00592067
0.00617024
0.00642215
0.00666422
0.00688256
0.000296702
0.000500112
0.00103684
0.00160119
0.00214737
0.00264264
0.00307305
0.00343931
0.00375007
0.00401705
0.00425235
0.00446719
0.00467143
0.00487344
0.00508022
0.00529764
0.00553056
0.00578273
0.00605598
0.00634822
0.00664992
0.00694061
0.00719263
8.8086e-05
0.00029468
0.000765441
0.0013733
0.00199119
0.0025476
0.00302006
0.00341261
0.0037393
0.00401625
0.00425859
0.00447947
0.00469005
0.00489964
0.00511616
0.00534662
0.00559759
0.00587555
0.0061863
0.0065324
0.00690593
0.00727363
0.00756529
0.000189595
0.000134695
0.000429283
0.00108234
0.0018074
0.00244565
0.00296735
0.00338725
0.00372896
0.00401456
0.00426255
0.00448804
0.0047033
0.00491848
0.00514226
0.00538271
0.00564826
0.0059488
0.00629666
0.00670622
0.00718684
0.00770607
0.00803111
0.000413194
0.000139677
0.000209651
0.000829655
0.00165742
0.00237068
0.00293157
0.00337086
0.00372232
0.00401315
0.00426438
0.00449239
0.00471016
0.0049283
0.00515597
0.00540188
0.00567571
0.00599004
0.00636375
0.0068291
0.00744915
0.00836485
0.00863513
8.28032e-05
7.67946e-05
7.61221e-05
8.04144e-05
0.000760413
0.000725383
0.000723119
0.000751448
0.00139903
0.00136783
0.00136268
0.00138262
0.00186735
0.0018482
0.00184311
0.00185144
0.00223048
0.00221868
0.00221477
0.00221834
0.00253247
0.00252456
0.00252197
0.0025242
0.00279445
0.0027896
0.00278778
0.00278897
0.00302793
0.00302532
0.00302402
0.00302411
0.00323945
0.00323827
0.00323736
0.00323672
0.00343293
0.00343275
0.00343215
0.00343108
0.00361162
0.00361193
0.00361144
0.00361002
0.0037776
0.00377808
0.00377747
0.00377563
0.0039321
0.00393255
0.00393168
0.00392932
0.00407579
0.00407613
0.00407493
0.00407203
0.0042091
0.00420932
0.0042078
0.00420442
0.00433237
0.00433252
0.00433079
0.00432705
0.00444599
0.00444617
0.00444436
0.00444044
0.00455039
0.00455076
0.00454905
0.00454517
0.00464614
0.00464688
0.0046455
0.0046419
0.004734
0.00473534
0.00473453
0.0047315
0.00481494
0.00481714
0.0048172
0.00481504
0.00489022
0.00489359
0.00489485
0.00489391
0.00496136
0.00496627
0.0049691
0.00496977
0.00503019
0.00503704
0.00504186
0.00504456
0.00509877
0.00510803
0.00511529
0.00512047
0.0051694
0.00518156
0.00519175
0.00519988
0.00524448
0.00526004
0.00527366
0.00528523
0.00532646
0.00534595
0.0053635
0.00537899
0.00541775
0.00544168
0.00546365
0.0054835
0.00552065
0.00554951
0.00557634
0.00560097
0.00563729
0.00567154
0.00570364
0.00573339
0.00576965
0.0058097
0.00584742
0.00588258
0.0059196
0.00596584
0.00600945
0.00605022
0.00608907
0.00614183
0.00619155
0.006238
0.00628023
0.00633979
0.00639572
0.00644779
0.00649588
0.00656244
0.00662448
0.00668183
0.00674001
0.0068135
0.00688119
0.00694303
0.00701849
0.00709828
0.00717041
0.00723513
0.00734026
0.00742431
0.00749813
0.00756262
0.00771851
0.00780154
0.00787133
0.00792998
0.00817074
0.00824049
0.00829537
0.00833906
0.00871104
0.0087435
0.00876641
0.00878332
0.000402428
0.000821926
0.00114517
0.00134894
0.00146678
0.00152768
0.00155068
0.00154622
0.00151724
0.00146277
0.00138685
0.00130414
0.00121967
0.00113431
0.00103854
0.000899538
0.000692461
0.000408418
5.28037e-05
0.00095466
0.00123212
0.00146185
0.00162432
0.00172639
0.00178128
0.00180076
0.0017928
0.00176125
0.00170704
0.00163185
0.00154437
0.00144638
0.00133666
0.0012052
0.00102847
0.00078337
0.000452411
5.65579e-05
0.00146479
0.00162438
0.00177718
0.00189657
0.00197546
0.00201779
0.00202967
0.00201592
0.00197961
0.00192275
0.00184701
0.00175488
0.00164281
0.00150917
0.00134619
0.00113599
0.000856841
0.000486179
5.79348e-05
0.00188647
0.00197545
0.00207398
0.00215781
0.00221265
0.00223946
0.00224132
0.00222022
0.00217778
0.00211598
0.00203752
0.00193914
0.00181052
0.00165264
0.00146068
0.00122048
0.000908262
0.00050173
6.08409e-05
0.00223531
0.00228553
0.00234799
0.0024039
0.00243722
0.00244762
0.00243814
0.00240891
0.00235911
0.00228931
0.0022003
0.00209002
0.00195049
0.0017675
0.00154645
0.00127395
0.00092389
0.000482642
6.04633e-05
0.00253405
0.00256261
0.00259808
0.00262733
0.00264145
0.00263803
0.00261787
0.00257877
0.00251957
0.00243921
0.00233608
0.00221289
0.00205336
0.00186204
0.00162752
0.00133426
0.000956375
0.000486377
6.23691e-05
0.00279444
0.00280946
0.00282539
0.00283396
0.00283007
0.002812
0.00277893
0.00272681
0.00265448
0.00256129
0.00244519
0.00230658
0.00214051
0.00194132
0.00170116
0.00140308
0.00102323
0.00054456
6.64848e-05
0.00302568
0.00302934
0.00302994
0.00302211
0.0030024
0.00297009
0.00292299
0.00285591
0.00276846
0.00266121
0.00253373
0.00238522
0.00220779
0.00199837
0.00174933
0.00144591
0.00106302
0.000572971
7.03226e-05
0.00323556
0.00323078
0.00321948
0.00319811
0.00316453
0.00311863
0.00305711
0.00297491
0.00287164
0.00274809
0.00260441
0.0024403
0.00225177
0.00203072
0.00177048
0.0014587
0.00107182
0.000577308
7.08987e-05
0.00342812
0.00341742
0.00339735
0.00336525
0.00331976
0.00326091
0.00318518
0.00308835
0.00296938
0.0028284
0.00266512
0.00247956
0.00227263
0.00203761
0.00176517
0.00144233
0.00105305
0.000564417
6.9902e-05
0.00360575
0.00359056
0.00356371
0.0035231
0.00346758
0.00339712
0.00330868
0.00319839
0.00306478
0.00290713
0.00272432
0.00251587
0.00228346
0.00202444
0.0017339
0.00140286
0.00101548
0.000544694
6.97233e-05
0.00377016
0.00375131
0.00371899
0.00367152
0.00360784
0.00352764
0.00342835
0.00330654
0.00316019
0.0029878
0.00278763
0.0025583
0.00229954
0.00201118
0.00169432
0.00134722
0.00095829
0.000514932
0.000295974
0.00392262
0.00390072
0.00386404
0.00381111
0.003741
0.00365303
0.00354498
0.00341385
0.00325719
0.0030728
0.00285838
0.00261173
0.0023311
0.00201622
0.00167074
0.00129943
0.000903589
0.000485327
0.000295048
0.00406413
0.00403966
0.00399964
0.00394264
0.00386771
0.00377388
0.00365921
0.00352098
0.00335653
0.00316321
0.00293827
0.00267888
0.00238252
0.00204806
0.00167791
0.00128011
0.000868537
0.000462587
6.94265e-05
0.00419548
0.00416892
0.00412643
0.00406659
0.00398833
0.0038905
0.00377125
0.00362813
0.00345841
0.00325924
0.00302754
0.00276007
0.00245369
0.00210613
0.00171797
0.00129683
0.000862908
0.000455859
0.000294715
0.00431733
0.00428926
0.0042451
0.00418348
0.00410323
0.00400303
0.00388111
0.00373518
0.00356257
0.00336036
0.00312529
0.00285379
0.0025421
0.00218676
0.0017861
0.00134441
0.000881817
0.000448076
6.96625e-05
0.0044303
0.00440139
0.00435635
0.00429391
0.00421282
0.00411169
0.00398877
0.00384189
0.00366848
0.00346562
0.00323
0.00295781
0.00264478
0.00228633
0.00187834
0.00142015
0.000924329
0.000443968
0.000293365
0.00453501
0.00450597
0.00446088
0.00439853
0.00431765
0.00421681
0.0040943
0.00394802
0.00377551
0.00357389
0.00333985
0.00306949
0.00275827
0.0024009
0.00199168
0.00152606
0.00100786
0.000477314
7.08983e-05
0.00463219
0.00460378
0.00455945
0.00449807
0.00441836
0.00431888
0.00419793
0.00405347
0.00388311
0.00368405
0.00345297
0.00318598
0.00287838
0.00252462
0.0021183
0.00165294
0.0011258
0.000554894
7.64586e-05
0.00472274
0.00469574
0.00465302
0.00459347
0.00451581
0.00441859
0.00430011
0.00415836
0.00399099
0.00379522
0.00356776
0.0033046
0.00300092
0.0026508
0.00224704
0.00178118
0.0012447
0.000639037
8.18222e-05
0.00480778
0.00478303
0.00474276
0.00468588
0.00461109
0.0045169
0.0044016
0.00426318
0.00409928
0.00390709
0.00368324
0.00342357
0.00312289
0.00277456
0.00236989
0.00189698
0.00134032
0.000695846
8.70656e-05
0.00488874
0.00486711
0.00483017
0.00477678
0.00470561
0.00461512
0.00450357
0.00436888
0.00420865
0.00401998
0.00379935
0.00354231
0.00324314
0.0028942
0.00248483
0.0020004
0.001424
0.000742073
9.07841e-05
0.00496735
0.00494975
0.00491701
0.00486792
0.00480109
0.00471491
0.00460754
0.00447684
0.0043203
0.0041349
0.00391688
0.00366145
0.00336225
0.00301061
0.00259466
0.00209866
0.00150124
0.000784165
9.33992e-05
0.00504559
0.00503299
0.00500535
0.00496138
0.00489957
0.00481822
0.0047154
0.00458885
0.00443594
0.00425345
0.00403737
0.00378254
0.00348196
0.00312653
0.00270339
0.00219454
0.00157564
0.000824742
9.58602e-05
0.00512571
0.00511911
0.00509747
0.00505939
0.00500325
0.00492723
0.00482927
0.004707
0.0045576
0.00437765
0.00416284
0.00390774
0.00360507
0.0032449
0.00281328
0.0022905
0.00164958
0.000865149
9.86112e-05
0.00521011
0.00521049
0.00519575
0.00516431
0.00511444
0.00504421
0.00495141
0.0048335
0.0046875
0.00450979
0.00429583
0.00403983
0.00373407
0.00336797
0.00292663
0.00238878
0.00172498
0.000906419
0.000101915
0.00530123
0.00530958
0.00530256
0.00527846
0.00523543
0.00517139
0.00508403
0.00497064
0.00482804
0.00465237
0.00443882
0.0041812
0.00387138
0.00349815
0.00304576
0.00249152
0.00180359
0.000949557
0.000105847
0.0054015
0.00541874
0.00542019
0.00540405
0.00536834
0.00531089
0.00522925
0.00512056
0.0049814
0.00480765
0.00459414
0.0043343
0.00401948
0.00363791
0.00317302
0.00260082
0.00188711
0.000995719
0.00011029
0.00551324
0.00554015
0.00555072
0.00554304
0.00551506
0.00546453
0.0053889
0.00528512
0.00514955
0.00497773
0.00476408
0.00450155
0.00418093
0.00378982
0.00331084
0.00271879
0.00197721
0.00104596
0.000115151
0.00563854
0.00567579
0.00569595
0.00569707
0.00567711
0.00563378
0.00556442
0.00546586
0.00533417
0.00516451
0.0049508
0.00468538
0.00435836
0.00395658
0.00346181
0.00284766
0.00207552
0.00110118
0.00012038
0.0057793
0.00582733
0.00585734
0.00586745
0.00585564
0.00581968
0.00575689
0.00566393
0.00553661
0.00536963
0.00515632
0.00488821
0.00455452
0.00414114
0.00362881
0.0029899
0.00218377
0.00116213
0.000126125
0.00593719
0.0059962
0.00603607
0.00605507
0.00605138
0.00602288
0.00596692
0.00588007
0.00575785
0.00559447
0.00538248
0.00511245
0.00477238
0.00434682
0.0038152
0.00314848
0.00230399
0.00122948
0.000132769
0.00611371
0.00618359
0.006233
0.00626052
0.00626466
0.00624354
0.00619467
0.00611456
0.00599847
0.00584004
0.00563097
0.00536055
0.00501517
0.00457754
0.00402515
0.0033272
0.00243898
0.00130455
0.000140542
0.00631032
0.00639055
0.00644875
0.00648403
0.00649541
0.00648144
0.00643985
0.0063672
0.00625854
0.00610697
0.00590317
0.00563493
0.00528651
0.00483798
0.004264
0.00353119
0.00259268
0.00138958
0.000149492
0.00652855
0.00661805
0.00668371
0.00672552
0.0067432
0.00673588
0.00670166
0.00663726
0.00653761
0.00639532
0.00620007
0.00593788
0.00559035
0.00513388
0.0045388
0.00376761
0.00277067
0.00148745
0.000159723
0.00677015
0.00686701
0.00693812
0.00698463
0.00700723
0.00700576
0.00697882
0.00692342
0.00683454
0.00670447
0.00652199
0.00627131
0.00593087
0.00547218
0.00485903
0.00404689
0.00298139
0.00160208
0.000171546
0.00703716
0.00713837
0.00721197
0.00726069
0.00728635
0.00728959
0.00726959
0.00722382
0.00714749
0.00703289
0.00686827
0.00663627
0.00631204
0.00586102
0.00523748
0.00438482
0.00323876
0.00174001
0.000185413
0.00733193
0.00743286
0.00750493
0.00755267
0.00757906
0.00758552
0.00757184
0.00753602
0.00747381
0.00737794
0.00723675
0.00703217
0.00673663
0.00630909
0.00569108
0.00480589
0.00356743
0.00191368
0.000202104
0.0076567
0.00775072
0.00781609
0.00785907
0.00788353
0.00789146
0.00788314
0.00785719
0.00781014
0.00773571
0.00762334
0.0074557
0.00720448
0.0068237
0.00624066
0.00534818
0.00401386
0.00215026
0.000223089
0.00801265
0.00809096
0.00814366
0.00817787
0.00819769
0.00820521
0.00820103
0.0081843
0.00815258
0.00810114
0.00802163
0.00789963
0.00770971
0.00740635
0.0069073
0.0060687
0.00467059
0.00252013
0.000251298
0.00839796
0.00845045
0.0084846
0.00850647
0.00851929
0.00852469
0.00852323
0.00851452
0.0084972
0.00846846
0.00842317
0.00835201
0.00823738
0.00804434
0.00769936
0.00704141
0.00572946
0.00324334
0.00029058
0.0088049
0.00882307
0.00883458
0.0088419
0.00884625
0.00884823
0.00884806
0.00884568
0.00884067
0.0088322
0.00881868
0.00879715
0.00876175
0.00869981
0.00857995
0.00831037
0.00757153
0.00520263
0.00034361
)
;

boundaryField
{
    leftWall
    {
        type            nutkWallFunction;
        Cmu             0.09;
        kappa           0.41;
        E               9.8;
        value           nonuniform List<scalar> 
50
(
1.90589e-06
3.01023e-06
3.65198e-06
4.11997e-06
4.48888e-06
4.79806e-06
5.06945e-06
5.31578e-06
5.66667e-06
6.08949e-06
6.53296e-06
3.22451e-06
3.56762e-06
2.62077e-06
0
1.15676e-08
0
8.39893e-10
0
0
0
0
6.64468e-09
2.6074e-09
2.9748e-09
8.76877e-09
1.54052e-09
7.67933e-10
9.20491e-09
0
1.16571e-08
1.31232e-08
1.19672e-08
1.59143e-08
6.83403e-09
5.3251e-09
1.95315e-08
1.27805e-08
1.75394e-08
1.95953e-08
2.61712e-09
8.23243e-09
5.46176e-09
1.77609e-08
0
1.26205e-08
1.38423e-08
2.97266e-06
1.83251e-05
4.87364e-05
)
;
    }
    rightWall
    {
        type            nutkWallFunction;
        Cmu             0.09;
        kappa           0.41;
        E               9.8;
        value           nonuniform List<scalar> 
50
(
2.5803e-06
3.3472e-06
3.78718e-06
4.21192e-06
4.63191e-06
5.02553e-06
5.41178e-06
5.83588e-06
6.39375e-06
6.84442e-06
7.01158e-06
4.2336e-06
3.7035e-06
2.22301e-06
0
7.78831e-08
1.6611e-07
2.35556e-09
0
8.50982e-09
0
0
1.91469e-09
0
5.9105e-09
3.02726e-07
1.22104e-06
2.09714e-06
2.86205e-06
3.40947e-06
3.82909e-06
4.22068e-06
4.6579e-06
5.19821e-06
5.81793e-06
6.51099e-06
7.26312e-06
8.04829e-06
8.92665e-06
9.95071e-06
1.11337e-05
1.24726e-05
1.39894e-05
1.57254e-05
1.77337e-05
2.01264e-05
2.31057e-05
2.7051e-05
3.24477e-05
3.95847e-05
)
;
    }
    lowerWall
    {
        type            nutkWallFunction;
        Cmu             0.09;
        kappa           0.41;
        E               9.8;
        value           nonuniform List<scalar> 
62
(
5.67901e-07
1.27812e-06
1.67163e-06
1.93e-06
2.11996e-06
2.26793e-06
2.38719e-06
2.48522e-06
2.56637e-06
2.63413e-06
2.69372e-06
2.7458e-06
2.79117e-06
2.82622e-06
2.84042e-06
2.81341e-06
2.7082e-06
2.5417e-06
2.3584e-06
2.17891e-06
1.99244e-06
1.70385e-06
1.00149e-06
1.00149e-06
4.22982e-06
5.0472e-06
5.74373e-06
6.41711e-06
7.16425e-06
8.14565e-06
9.5844e-06
9.90839e-06
9.21401e-06
9.1353e-06
9.63208e-06
1.04735e-06
4.39174e-06
5.02337e-06
5.69688e-06
6.44614e-06
7.28276e-06
8.45178e-06
1.02111e-05
1.04735e-06
1.98667e-06
2.40374e-06
2.57712e-06
2.67292e-06
2.71719e-06
2.75289e-06
2.77849e-06
2.75302e-06
2.61005e-06
2.39283e-06
2.13448e-06
1.87812e-06
1.85762e-06
1.99746e-06
1.97834e-06
1.65806e-06
1.30064e-06
7.62518e-07
)
;
    }
    atmosphere
    {
        type            calculated;
        value           nonuniform List<scalar> 
46
(
0.009
0.000139677
0.000209651
0.000829655
0.00165742
0.00237068
0.00293157
0.00337086
0.00372232
0.00401315
0.00426438
0.00449239
0.00471016
0.0049283
0.00515597
0.00540188
0.00567571
0.00599004
0.00636375
0.0068291
0.00744915
0.009
0.009
0.009
0.009
0.009
0.009
0.009
0.009
0.009
0.009
0.009
0.009
0.009
0.009
0.009
0.009
0.009
0.009
0.009
0.009
0.009
0.009
0.009
0.009
0.00034361
)
;
    }
    defaultFaces
    {
        type            empty;
    }
}


// ************************************************************************* //
