/*--------------------------------*- C++ -*----------------------------------*\
  =========                 |
  \\      /  F ield         | OpenFOAM: The Open Source CFD Toolbox
   \\    /   O peration     | Website:  https://openfoam.org
    \\  /    A nd           | Version:  9
     \\/     M anipulation  |
\*---------------------------------------------------------------------------*/
FoamFile
{
    format      ascii;
    class       surfaceScalarField;
    location    "6.94";
    object      phi;
}
// * * * * * * * * * * * * * * * * * * * * * * * * * * * * * * * * * * * * * //

dimensions      [0 3 -1 0 0 0 0];

internalField   nonuniform List<scalar> 
4432
(
-2.01794e-07
2.01794e-07
-3.9156e-07
1.89766e-07
-5.74733e-07
1.83174e-07
-7.46875e-07
1.72141e-07
-9.04424e-07
1.5755e-07
-1.04198e-06
1.37553e-07
-1.15286e-06
1.10882e-07
-1.23085e-06
7.79874e-08
-1.27295e-06
4.20915e-08
-1.27708e-06
4.13259e-09
-1.23973e-06
-3.73509e-08
-1.15022e-06
-8.95118e-08
-9.92078e-07
-1.58145e-07
-7.53457e-07
-2.3862e-07
-4.4845e-07
-3.05005e-07
-1.50848e-07
-2.97599e-07
-5.42305e-08
-9.66158e-08
-3.4664e-07
2.9241e-07
-9.31611e-07
5.8497e-07
-1.62044e-06
6.8883e-07
-1.76083e-06
1.4039e-07
-1.08534e-06
-6.75478e-07
-1.08534e-06
-2.01969e-07
4.03763e-07
-3.9334e-07
3.81137e-07
-5.79003e-07
3.68837e-07
-7.53899e-07
3.47034e-07
-9.12999e-07
3.16651e-07
-1.05119e-06
2.7574e-07
-1.16307e-06
2.22757e-07
-1.24454e-06
1.59458e-07
-1.29282e-06
9.03661e-08
-1.30732e-06
1.86292e-08
-1.2846e-06
-6.00736e-08
-1.21738e-06
-1.56728e-07
-1.09567e-06
-2.79849e-07
-9.14318e-07
-4.19973e-07
-6.86301e-07
-5.33017e-07
-4.68616e-07
-5.1528e-07
-3.86922e-07
-1.78308e-07
-5.70029e-07
4.75518e-07
-8.97085e-07
9.12029e-07
-1.19202e-06
9.83769e-07
-1.29151e-06
2.39894e-07
-9.65995e-07
-1.00098e-06
-2.05133e-06
-2.00657e-07
6.04421e-07
-3.92871e-07
5.73351e-07
-5.78299e-07
5.54266e-07
-7.53888e-07
5.22619e-07
-9.14397e-07
4.77161e-07
-1.05489e-06
4.16235e-07
-1.17077e-06
3.38634e-07
-1.25842e-06
2.47105e-07
-1.31551e-06
1.47456e-07
-1.34098e-06
4.41028e-08
-1.33294e-06
-6.81143e-08
-1.28658e-06
-2.03085e-07
-1.19552e-06
-3.70899e-07
-1.0569e-06
-5.58594e-07
-8.79221e-07
-7.10691e-07
-6.97571e-07
-6.96928e-07
-6.01684e-07
-2.74195e-07
-6.84763e-07
5.58596e-07
-8.27798e-07
1.05506e-06
-9.15697e-07
1.07167e-06
-9.7527e-07
2.99471e-07
-7.72341e-07
-1.20391e-06
-2.82367e-06
-2.00459e-07
8.04881e-07
-3.95446e-07
7.68337e-07
-5.83025e-07
7.41848e-07
-7.60912e-07
7.00504e-07
-9.24349e-07
6.40601e-07
-1.06869e-06
5.60573e-07
-1.18975e-06
4.59698e-07
-1.28425e-06
3.41605e-07
-1.35012e-06
2.13332e-07
-1.38678e-06
8.07706e-08
-1.39356e-06
-6.13372e-08
-1.3677e-06
-2.28937e-07
-1.30492e-06
-4.33679e-07
-1.20301e-06
-6.60495e-07
-1.06532e-06
-8.48384e-07
-9.0503e-07
-8.57217e-07
-7.74368e-07
-4.04859e-07
-7.73933e-07
5.58159e-07
-7.87733e-07
1.06886e-06
-7.51719e-07
1.03566e-06
-7.37512e-07
2.85263e-07
-5.53316e-07
-1.38811e-06
-3.37699e-06
-2.00406e-07
1.00529e-06
-3.99634e-07
9.67563e-07
-5.91479e-07
9.33695e-07
-7.73379e-07
8.82402e-07
-9.41255e-07
8.0848e-07
-1.09083e-06
7.10149e-07
-1.21821e-06
5.87082e-07
-1.32032e-06
4.43724e-07
-1.39534e-06
2.88356e-07
-1.44335e-06
1.28784e-07
-1.46494e-06
-3.97482e-08
-1.45904e-06
-2.34833e-07
-1.42275e-06
-4.69963e-07
-1.35428e-06
-7.28956e-07
-1.25339e-06
-9.4928e-07
-1.11759e-06
-9.93009e-07
-9.47324e-07
-5.75129e-07
-8.57756e-07
4.68588e-07
-7.74692e-07
9.85796e-07
-6.42684e-07
9.03648e-07
-5.43041e-07
1.85617e-07
-3.0683e-07
-1.62432e-06
-3.68383e-06
-2.00727e-07
1.20602e-06
-4.05754e-07
1.17259e-06
-6.03262e-07
1.13121e-06
-7.90411e-07
1.06955e-06
-9.63865e-07
9.81935e-07
-1.11969e-06
8.65976e-07
-1.25417e-06
7.21563e-07
-1.36439e-06
5.53946e-07
-1.44867e-06
3.72641e-07
-1.50776e-06
1.87873e-07
-1.54349e-06
-4.01304e-09
-1.55623e-06
-2.22091e-07
-1.54409e-06
-4.82109e-07
-1.50594e-06
-7.67097e-07
-1.44043e-06
-1.01479e-06
-1.33905e-06
-1.09439e-06
-1.16196e-06
-7.52218e-07
-9.55216e-07
2.61846e-07
-7.79362e-07
8.09943e-07
-5.71961e-07
6.96248e-07
-3.39171e-07
-4.71756e-08
-2.91121e-08
-1.93439e-06
-3.71294e-06
-2.02078e-07
1.4081e-06
-4.14153e-07
1.38466e-06
-6.17956e-07
1.33501e-06
-8.10884e-07
1.26248e-06
-9.90527e-07
1.16158e-06
-1.15312e-06
1.02857e-06
-1.29502e-06
8.63453e-07
-1.41343e-06
6.72354e-07
-1.50673e-06
4.65937e-07
-1.57614e-06
2.57279e-07
-1.62465e-06
4.44942e-08
-1.65375e-06
-1.92985e-07
-1.66231e-06
-4.73551e-07
-1.64994e-06
-7.79472e-07
-1.61542e-06
-1.0493e-06
-1.54747e-06
-1.16234e-06
-1.40011e-06
-8.99572e-07
-1.09541e-06
-4.28504e-08
-8.1564e-07
5.30177e-07
-5.16875e-07
3.97488e-07
-1.41756e-07
-4.22294e-07
1.68047e-07
-2.24419e-06
-3.54489e-06
-2.08612e-07
1.61671e-06
-4.25587e-07
1.60163e-06
-6.34365e-07
1.54379e-06
-8.32896e-07
1.461e-06
-1.01886e-06
1.34754e-06
-1.18822e-06
1.19792e-06
-1.33732e-06
1.01255e-06
-1.4636e-06
7.98637e-07
-1.56535e-06
5.67682e-07
-1.64389e-06
3.3582e-07
-1.7031e-06
1.03702e-07
-1.74533e-06
-1.5076e-07
-1.77001e-06
-4.48867e-07
-1.77704e-06
-7.72442e-07
-1.7644e-06
-1.06194e-06
-1.71778e-06
-1.20896e-06
-1.5918e-06
-1.02555e-06
-1.25901e-06
-3.75631e-07
-8.78767e-07
1.49937e-07
-4.78039e-07
-3.23662e-09
-5.43396e-08
-8.45994e-07
1.3154e-07
-2.43007e-06
-3.41335e-06
-9.46016e-07
9.46016e-07
-2.25788e-08
-9.23435e-07
9.32854e-07
-9.55425e-07
1.62155e-06
-6.88691e-07
2.13881e-06
-5.17252e-07
2.47246e-06
-3.33643e-07
2.78089e-06
-3.08427e-07
3.15525e-06
-3.74363e-07
3.52446e-06
-3.6921e-07
3.45529e-06
6.91746e-08
2.71095e-06
7.44344e-07
1.6749e-06
1.03605e-06
2.94969e-07
1.37993e-06
-7.98318e-07
1.09329e-06
-7.5593e-07
-4.23904e-08
-1.70821e-07
-5.85112e-07
1.3642e-07
-3.07243e-07
4.88299e-07
-3.51883e-07
4.88296e-07
-2.42906e-07
1.18893e-06
4.24135e-07
-1.59047e-06
1.02415e-06
-1.55544e-06
1.49897e-06
-1.1635e-06
1.85627e-06
-8.74541e-07
2.1639e-06
-6.41271e-07
2.44216e-06
-5.86689e-07
2.73322e-06
-6.65423e-07
2.95182e-06
-5.87801e-07
2.85378e-06
1.67215e-07
2.35867e-06
1.23946e-06
1.5658e-06
1.82892e-06
6.02924e-07
2.34281e-06
-2.49087e-07
1.9453e-06
-4.29468e-07
1.37986e-07
-2.27532e-07
-7.87053e-07
-1.77767e-07
-3.57013e-07
1.36874e-07
-6.66531e-07
6.25169e-07
3.8314e-07
8.058e-07
7.33729e-07
-1.94106e-06
1.08949e-06
-1.91119e-06
1.42005e-06
-1.49405e-06
1.69633e-06
-1.15082e-06
1.93841e-06
-8.83354e-07
2.15806e-06
-8.06341e-07
2.37226e-06
-8.79617e-07
2.51134e-06
-7.26883e-07
2.36987e-06
3.08685e-07
1.95124e-06
1.65809e-06
1.35382e-06
2.42634e-06
7.26311e-07
2.97031e-06
8.4514e-08
2.58709e-06
-1.52673e-07
3.7517e-07
-1.59482e-07
-7.80247e-07
-3.46153e-07
-1.70343e-07
-2.51811e-07
-7.60878e-07
3.73358e-07
7.68745e-07
3.70587e-08
9.27879e-07
-2.10019e-06
1.12226e-06
-2.10558e-06
1.35099e-06
-1.72278e-06
1.56097e-06
-1.3608e-06
1.74313e-06
-1.06551e-06
1.89941e-06
-9.62628e-07
2.04393e-06
-1.02414e-06
2.14419e-06
-8.2714e-07
2.01391e-06
4.38971e-07
1.6611e-06
2.01089e-06
1.22103e-06
2.86641e-06
7.90274e-07
3.40107e-06
3.02301e-07
3.07506e-06
1.03688e-07
5.73782e-07
-2.12165e-08
-6.55344e-07
-4.23414e-07
2.31856e-07
-5.60579e-07
-6.23716e-07
-1.8722e-07
8.61527e-07
-8.24469e-07
9.93022e-07
-2.23169e-06
1.11465e-06
-2.22721e-06
1.277e-06
-1.88513e-06
1.4334e-06
-1.5172e-06
1.55956e-06
-1.19168e-06
1.65407e-06
-1.05714e-06
1.73267e-06
-1.10274e-06
1.8006e-06
-8.95073e-07
1.7237e-06
5.15874e-07
1.44107e-06
2.29352e-06
1.12745e-06
3.18003e-06
8.47307e-07
3.68121e-06
4.75344e-07
3.44703e-06
3.79181e-07
6.69945e-07
1.99083e-07
-4.75246e-07
-3.46893e-07
7.77833e-07
-6.26458e-07
-3.44153e-07
-8.13676e-07
7.8414e-07
-1.60861e-06
9.71337e-07
-2.41889e-06
1.07372e-06
-2.3296e-06
1.19443e-06
-2.00584e-06
1.30879e-06
-1.63157e-06
1.38589e-06
-1.26877e-06
1.42128e-06
-1.09253e-06
1.43299e-06
-1.11444e-06
1.46012e-06
-9.22208e-07
1.46598e-06
5.10018e-07
1.2599e-06
2.4996e-06
1.06255e-06
3.37738e-06
8.75642e-07
3.86813e-06
7.09208e-07
3.61346e-06
6.87822e-07
6.9133e-07
4.70669e-07
-2.58095e-07
-6.38461e-08
1.31235e-06
-4.60016e-07
5.20154e-08
-1.27369e-06
6.98697e-07
-2.30732e-06
9.19698e-07
-2.63989e-06
1.01273e-06
-2.42264e-06
1.1037e-06
-2.0968e-06
1.18528e-06
-1.71314e-06
1.22261e-06
-1.30611e-06
1.2053e-06
-1.07521e-06
1.14838e-06
-1.05752e-06
1.1135e-06
-8.87327e-07
1.17703e-06
4.46498e-07
1.13951e-06
2.53713e-06
1.01767e-06
3.49922e-06
9.34574e-07
3.95122e-06
1.06143e-06
3.48661e-06
1.01693e-06
7.35827e-07
7.26116e-07
3.27167e-08
3.20512e-07
1.71795e-06
-1.17282e-07
4.89806e-07
-1.39098e-06
7.09331e-07
-3.01665e-06
8.73366e-07
-2.80392e-06
9.41059e-07
-2.49033e-06
1.00409e-06
-2.15983e-06
1.0606e-06
-1.76964e-06
1.06933e-06
-1.31483e-06
1.01315e-06
-1.01903e-06
9.00232e-07
-9.44598e-07
7.81e-07
-7.68092e-07
8.63126e-07
3.64376e-07
1.02548e-06
2.37477e-06
1.01259e-06
3.51211e-06
1.10734e-06
3.85647e-06
1.45925e-06
3.13469e-06
1.31518e-06
8.79898e-07
9.65987e-07
3.81905e-07
6.94562e-07
1.98937e-06
2.73257e-07
9.11108e-07
-1.11772e-06
-4.40156e-07
2.05687e-06
-9.29633e-07
2.09111e-06
-1.39867e-06
2.01282e-06
-1.84012e-06
1.90246e-06
-2.25617e-06
1.76359e-06
-2.6371e-06
1.57886e-06
-2.97555e-06
1.351e-06
-3.26856e-06
1.09165e-06
-3.51048e-06
8.09606e-07
-3.70287e-06
5.28214e-07
-3.85483e-06
2.5566e-07
-3.97463e-06
-3.09489e-08
-4.06245e-06
-3.61051e-07
-4.11705e-06
-7.17832e-07
-4.12907e-06
-1.04992e-06
-4.05087e-06
-1.28717e-06
-3.77135e-06
-1.30507e-06
-3.06975e-06
-1.07723e-06
-2.06663e-06
-8.53194e-07
-1.06576e-06
-1.00412e-06
-3.01206e-07
-1.61055e-06
-3.93987e-07
-2.33729e-06
-2.64621e-06
-1.16113e-06
-5.23772e-07
2.58064e-06
-1.01586e-06
2.5832e-06
-1.44641e-06
2.44337e-06
-1.88915e-06
2.3452e-06
-2.32235e-06
2.19679e-06
-2.71443e-06
1.97094e-06
-3.05967e-06
1.69624e-06
-3.37182e-06
1.40381e-06
-3.64991e-06
1.0877e-06
-3.87351e-06
7.51813e-07
-4.03267e-06
4.14825e-07
-4.13338e-06
6.97603e-08
-4.20161e-06
-2.92817e-07
-4.25132e-06
-6.68119e-07
-4.27097e-06
-1.03027e-06
-4.19534e-06
-1.3628e-06
-3.88987e-06
-1.61054e-06
-3.21357e-06
-1.75353e-06
-2.21229e-06
-1.85448e-06
-1.18344e-06
-2.03297e-06
-4.72624e-07
-2.32137e-06
-2.28488e-07
-2.58143e-06
-2.69508e-06
-1.79619e-07
-6.28136e-07
3.20878e-06
-1.11049e-06
3.06554e-06
-1.68982e-06
3.02267e-06
-2.13815e-06
2.79352e-06
-2.46517e-06
2.52379e-06
-2.77153e-06
2.27729e-06
-3.09208e-06
2.01679e-06
-3.38337e-06
1.69509e-06
-3.66055e-06
1.36487e-06
-3.89737e-06
9.88629e-07
-4.04638e-06
5.63831e-07
-4.0955e-06
1.18871e-07
-4.09982e-06
-2.88502e-07
-4.11731e-06
-6.50635e-07
-4.14252e-06
-1.00505e-06
-4.11477e-06
-1.39055e-06
-3.85578e-06
-1.86953e-06
-3.18331e-06
-2.42599e-06
-2.17838e-06
-2.85939e-06
-1.12694e-06
-3.08441e-06
-3.96254e-07
-3.05204e-06
-8.3297e-08
-2.89434e-06
-2.81448e-06
3.61729e-08
-6.73555e-07
3.88235e-06
-4.1355e-07
2.80564e-06
-3.12347e-06
5.73277e-06
-3.28134e-06
2.95145e-06
-2.74756e-06
1.99005e-06
-2.63438e-06
2.16413e-06
-3.17282e-06
2.55526e-06
-3.26893e-06
1.79121e-06
-3.28301e-06
1.37897e-06
-3.46376e-06
1.1694e-06
-3.64045e-06
7.40528e-07
-3.68004e-06
1.58478e-07
-3.64107e-06
-3.27467e-07
-3.55543e-06
-7.36262e-07
-3.51052e-06
-1.04995e-06
-3.32701e-06
-1.57405e-06
-3.06046e-06
-2.13606e-06
-2.42209e-06
-3.06435e-06
-1.95976e-06
-3.3217e-06
-1.15432e-06
-3.88986e-06
-3.8555e-07
-3.82085e-06
1.20809e-07
-3.40078e-06
-3.05768e-06
3.63863e-07
1.14003e-06
2.74225e-06
-4.46529e-07
4.39194e-06
-5.83233e-06
1.11185e-05
-5.93009e-06
3.04912e-06
-5.44984e-06
1.50981e-06
-5.56766e-06
2.28196e-06
-5.98991e-06
2.97749e-06
-5.27313e-06
1.0744e-06
-4.36633e-06
4.72158e-07
-3.7625e-06
5.65557e-07
-3.37696e-06
3.54993e-07
-2.76369e-06
-4.54784e-07
-1.99958e-06
-1.09156e-06
-1.25717e-06
-1.47866e-06
-5.738e-07
-1.7333e-06
2.17667e-07
-2.36552e-06
4.68476e-07
-2.38688e-06
3.98565e-07
-2.99446e-06
-6.1239e-07
-2.31073e-06
-1.59481e-06
-2.90737e-06
-1.3648e-06
-4.05073e-06
-8.62718e-07
-3.90267e-06
-2.9049e-06
-1.01516e-06
-9.41994e-07
3.68448e-06
-1.1731e-06
4.6233e-06
1.7155e-06
8.23002e-06
1.44298e-06
3.32169e-06
-6.9499e-07
3.64783e-06
-2.14221e-06
3.72925e-06
-2.08552e-06
2.92084e-06
-2.58858e-06
1.57748e-06
-2.94008e-06
8.23666e-07
-2.85705e-06
4.82519e-07
-2.60442e-06
1.0235e-07
-2.32958e-06
-7.29647e-07
-2.3397e-06
-1.08146e-06
-2.55828e-06
-1.26012e-06
-2.29015e-06
-2.00147e-06
-1.96594e-06
-2.68977e-06
-1.86953e-06
-2.48333e-06
-2.5022e-06
-2.36187e-06
-2.18058e-06
-2.63247e-06
-2.75428e-06
-2.33389e-06
-3.65231e-06
-3.15292e-06
-4.52246e-06
-3.03266e-06
-3.6679e-06
-3.75909e-06
-1.26857e-06
4.95276e-06
-1.07923e-06
4.43405e-06
1.98669e-06
5.16395e-06
1.44334e-06
3.86496e-06
8.45175e-07
4.24596e-06
4.26731e-07
4.14767e-06
4.4908e-08
3.30267e-06
-4.99867e-07
2.12227e-06
-1.0051e-06
1.32893e-06
-1.33287e-06
8.10347e-07
-1.57319e-06
3.42754e-07
-2.09076e-06
-2.1197e-07
-2.65102e-06
-5.21068e-07
-2.81791e-06
-1.09308e-06
-2.30561e-06
-2.51359e-06
-1.79516e-06
-3.2e-06
-1.55335e-06
-2.72485e-06
-1.76973e-06
-2.1452e-06
-2.02247e-06
-2.37945e-06
-2.21596e-06
-2.14016e-06
-3.53975e-06
-1.82898e-06
-4.41244e-06
-2.16014e-06
-4.19989e-06
-3.8807e-06
-1.54838e-08
4.96837e-06
2.26321e-07
4.19234e-06
1.07859e-06
4.31175e-06
9.60795e-07
3.98287e-06
9.04681e-07
4.3022e-06
9.64137e-07
4.08832e-06
8.95635e-07
3.37125e-06
5.29053e-07
2.4889e-06
8.13671e-08
1.77664e-06
-2.84759e-07
1.17648e-06
-6.31863e-07
6.89854e-07
-1.11362e-06
2.69774e-07
-1.5136e-06
-1.21125e-07
-1.57398e-06
-1.03275e-06
-1.52185e-06
-2.56578e-06
-1.66558e-06
-3.05633e-06
-1.72214e-06
-2.66832e-06
-1.58339e-06
-2.28395e-06
-1.73281e-06
-2.22993e-06
-2.15386e-06
-1.7189e-06
-2.57081e-06
-1.41168e-06
-2.74143e-06
-1.98926e-06
-3.30432e-06
-3.63684e-06
3.75283e-07
4.5933e-06
4.15698e-07
4.15194e-06
6.50689e-07
4.07689e-06
6.20074e-07
4.0136e-06
7.72947e-07
4.14942e-06
9.50861e-07
3.91045e-06
9.90266e-07
3.33185e-06
8.11302e-07
2.66785e-06
5.3862e-07
2.04929e-06
2.72992e-07
1.44207e-06
9.82216e-09
9.52971e-07
-2.57623e-07
5.37153e-07
-4.31492e-07
5.26565e-08
-5.86774e-07
-8.77582e-07
-1.08739e-06
-2.06533e-06
-1.61313e-06
-2.53079e-06
-1.87172e-06
-2.40998e-06
-1.89554e-06
-2.26045e-06
-2.13521e-06
-1.99068e-06
-2.38913e-06
-1.46545e-06
-2.50413e-06
-1.29711e-06
-2.7841e-06
-1.70963e-06
-2.53326e-06
-3.55542e-06
3.04029e-07
4.28925e-06
3.41534e-07
4.11441e-06
3.96112e-07
4.02237e-06
4.22805e-07
3.98697e-06
5.94388e-07
3.97786e-06
7.70538e-07
3.73432e-06
8.33948e-07
3.26845e-06
7.72202e-07
2.72961e-06
6.41212e-07
2.18032e-06
4.72632e-07
1.61071e-06
2.88638e-07
1.13705e-06
1.06609e-07
7.19277e-07
-3.87957e-08
1.98165e-07
-3.22723e-07
-5.93544e-07
-9.23304e-07
-1.46463e-06
-1.51254e-06
-1.94142e-06
-1.87398e-06
-2.04839e-06
-2.15145e-06
-1.98286e-06
-2.40918e-06
-1.73292e-06
-2.5359e-06
-1.33878e-06
-2.64339e-06
-1.18968e-06
-2.91191e-06
-1.44118e-06
-1.95052e-06
-3.49468e-06
1.99888e-07
4.08925e-06
2.39908e-07
4.07443e-06
2.59827e-07
4.00249e-06
3.0452e-07
3.94229e-06
4.34347e-07
3.84803e-06
5.68276e-07
3.60038e-06
6.33354e-07
3.20337e-06
6.35226e-07
2.72776e-06
5.84287e-07
2.23131e-06
4.62371e-07
1.73271e-06
2.99625e-07
1.2999e-06
1.28756e-07
8.90276e-07
-5.37496e-08
3.80808e-07
-3.79198e-07
-2.67955e-07
-9.10145e-07
-9.33534e-07
-1.46295e-06
-1.38842e-06
-1.86541e-06
-1.64566e-06
-2.1652e-06
-1.68275e-06
-2.39458e-06
-1.50324e-06
-2.53882e-06
-1.19428e-06
-2.66064e-06
-1.06766e-06
-2.89055e-06
-1.21113e-06
-1.5394e-06
-3.3016e-06
1.32039e-07
3.9572e-06
1.70287e-07
4.03631e-06
1.90688e-07
3.98214e-06
2.33482e-07
3.89951e-06
3.21211e-07
3.76029e-06
4.10886e-07
3.51069e-06
4.68463e-07
3.14578e-06
4.90581e-07
2.70564e-06
4.60024e-07
2.26188e-06
3.50956e-07
1.8418e-06
1.95105e-07
1.45579e-06
3.5497e-08
1.04991e-06
-1.64751e-07
5.81072e-07
-4.7497e-07
4.22465e-08
-9.17153e-07
-4.9141e-07
-1.38932e-06
-9.16333e-07
-1.77645e-06
-1.25858e-06
-2.079e-06
-1.3802e-06
-2.29193e-06
-1.29028e-06
-2.42817e-06
-1.05802e-06
-2.55089e-06
-9.44932e-07
-2.71873e-06
-1.04334e-06
-1.28721e-06
-2.97102e-06
9.22419e-08
3.86506e-06
1.33259e-07
3.99542e-06
1.58071e-07
3.95739e-06
1.96235e-07
3.86137e-06
2.56191e-07
3.70035e-06
3.15184e-07
3.4517e-06
3.55e-07
3.10597e-06
3.64737e-07
2.6959e-06
3.20195e-07
2.30641e-06
2.13807e-07
1.94817e-06
8.19023e-08
1.58768e-06
-6.77037e-08
1.1995e-06
-2.57977e-07
7.71322e-07
-5.2531e-07
3.09528e-07
-8.74173e-07
-1.42651e-07
-1.25222e-06
-5.38444e-07
-1.62535e-06
-8.85639e-07
-1.92804e-06
-1.07768e-06
-2.14275e-06
-1.07573e-06
-2.2779e-06
-9.2301e-07
-2.37292e-06
-8.50039e-07
-2.47484e-06
-9.41532e-07
-1.15416e-06
-2.608e-06
7.04385e-08
3.79474e-06
1.13835e-07
3.95208e-06
1.42727e-07
3.92852e-06
1.77602e-07
3.82651e-06
2.21631e-07
3.65634e-06
2.61774e-07
3.41158e-06
2.80428e-07
3.08733e-06
2.59499e-07
2.71683e-06
1.97845e-07
2.36806e-06
1.02963e-07
2.04304e-06
-8.17146e-09
1.6988e-06
-1.40666e-07
1.33201e-06
-3.08344e-07
9.39029e-07
-5.28245e-07
5.29471e-07
-7.99537e-07
1.28669e-07
-1.10025e-06
-2.37733e-07
-1.42968e-06
-5.5624e-07
-1.72647e-06
-7.80911e-07
-1.95439e-06
-8.47826e-07
-2.09158e-06
-7.85819e-07
-2.16035e-06
-7.81234e-07
-2.21974e-06
-8.8207e-07
-1.08219e-06
-2.29158e-06
5.82277e-08
3.73657e-06
9.98529e-08
3.9104e-06
1.29445e-07
3.89889e-06
1.60744e-07
3.79519e-06
1.94193e-07
3.62289e-06
2.20195e-07
3.38558e-06
2.19714e-07
3.08782e-06
1.79321e-07
2.75723e-06
1.11006e-07
2.43637e-06
3.16106e-08
2.12243e-06
-6.3618e-08
1.79403e-06
-1.78629e-07
1.44704e-06
-3.22532e-07
1.083e-06
-5.03562e-07
7.10611e-07
-7.21173e-07
3.46423e-07
-9.6705e-07
8.29798e-09
-1.23441e-06
-2.88725e-07
-1.50538e-06
-5.09765e-07
-1.72844e-06
-6.24571e-07
-1.85419e-06
-6.59856e-07
-1.92186e-06
-7.13321e-07
-1.97004e-06
-8.33612e-07
-1.02664e-06
-2.02527e-06
4.89733e-08
3.68756e-06
8.229e-08
3.87697e-06
1.08742e-07
3.87236e-06
1.35443e-07
3.76845e-06
1.60277e-07
3.59804e-06
1.74506e-07
3.37135e-06
1.63944e-07
3.09839e-06
1.2228e-07
2.7989e-06
6.25901e-08
2.49606e-06
-6.6576e-09
2.19168e-06
-8.85413e-08
1.87592e-06
-1.87912e-07
1.54643e-06
-3.10776e-07
1.20592e-06
-4.61816e-07
8.61763e-07
-6.41107e-07
5.25873e-07
-8.44487e-07
2.11871e-07
-1.0669e-06
-6.60915e-08
-1.28941e-06
-2.87018e-07
-1.4765e-06
-4.37224e-07
-1.59972e-06
-5.36352e-07
-1.6742e-06
-6.38539e-07
-1.7289e-06
-7.78599e-07
-9.66748e-07
-1.78846e-06
3.4718e-08
3.65275e-06
5.6818e-08
3.85474e-06
7.89733e-08
3.85013e-06
1.01263e-07
3.74612e-06
1.19977e-07
3.57931e-06
1.27726e-07
3.3636e-06
1.16276e-07
3.10984e-06
8.31119e-08
2.83207e-06
3.48761e-08
2.5443e-06
-2.32302e-08
2.24979e-06
-9.27973e-08
1.9455e-06
-1.77595e-07
1.63126e-06
-2.81695e-07
1.31007e-06
-4.08004e-07
9.88147e-07
-5.56598e-07
6.74578e-07
-7.24486e-07
3.79898e-07
-9.05686e-07
1.1527e-07
-1.08542e-06
-1.07106e-07
-1.2407e-06
-2.81749e-07
-1.35484e-06
-4.22012e-07
-1.43471e-06
-5.58464e-07
-1.4991e-06
-7.14013e-07
-8.97943e-07
-1.5677e-06
1.4474e-08
3.63819e-06
2.66645e-08
3.84248e-06
4.42119e-08
3.83255e-06
6.30262e-08
3.72729e-06
7.85827e-08
3.56374e-06
8.51293e-08
3.35705e-06
7.75362e-08
3.11743e-06
5.41954e-08
2.85541e-06
1.82261e-08
2.58028e-06
-2.78416e-08
2.29587e-06
-8.49431e-08
2.00261e-06
-1.55541e-07
1.70186e-06
-2.42299e-07
1.39684e-06
-3.4695e-07
1.09282e-06
-4.69248e-07
7.96915e-07
-6.06474e-07
5.17177e-07
-7.52897e-07
2.61753e-07
-8.97758e-07
3.78218e-08
-1.02669e-06
-1.52744e-07
-1.12997e-06
-3.18664e-07
-1.21107e-06
-4.77313e-07
-1.28189e-06
-6.43141e-07
-8.22906e-07
-1.35689e-06
-7.03905e-09
3.64517e-06
-1.67038e-09
3.8371e-06
9.96953e-09
3.82091e-06
2.60422e-08
3.71122e-06
4.04233e-08
3.54936e-06
4.85013e-08
3.34897e-06
4.64721e-08
3.11945e-06
3.28124e-08
2.86907e-06
8.46664e-09
2.60462e-06
-2.5689e-08
2.33002e-06
-7.03572e-08
2.04727e-06
-1.27133e-07
1.75863e-06
-1.97667e-07
1.46735e-06
-2.82861e-07
1.17799e-06
-3.82149e-07
8.96179e-07
-4.93038e-07
6.28039e-07
-6.10718e-07
3.79402e-07
-7.27591e-07
1.54662e-07
-8.34759e-07
-4.56144e-08
-9.2662e-07
-2.26847e-07
-1.00504e-06
-3.98947e-07
-1.07759e-06
-5.70661e-07
-7.4635e-07
-1.15421e-06
-2.58643e-08
3.67103e-06
-2.78962e-08
3.83919e-06
-1.95394e-08
3.81259e-06
-6.22845e-09
3.69794e-06
8.04371e-09
3.53511e-06
1.88281e-08
3.33819e-06
2.27048e-08
3.11558e-06
1.78593e-08
2.87391e-06
3.97287e-09
2.61849e-06
-1.90136e-08
2.35299e-06
-5.18125e-08
2.08005e-06
-9.5484e-08
1.80227e-06
-1.51001e-07
1.52283e-06
-2.18713e-07
1.24566e-06
-2.97869e-07
9.75274e-07
-3.8629e-07
7.16389e-07
-4.80204e-07
4.73237e-07
-5.74346e-07
2.48718e-07
-6.63175e-07
4.31221e-08
-7.4341e-07
-1.46711e-07
-8.1612e-07
-3.26342e-07
-8.86057e-07
-5.00833e-07
-6.72732e-07
-9.5979e-07
-4.18629e-08
3.71292e-06
-4.87632e-08
3.84616e-06
-4.47157e-08
3.8086e-06
-3.25753e-08
3.68583e-06
-1.72734e-08
3.51983e-06
-3.18406e-09
3.32412e-06
6.34506e-09
3.10606e-06
9.25368e-09
2.871e-06
4.52302e-09
2.62322e-06
-8.46986e-09
2.36597e-06
-3.04219e-08
2.10198e-06
-6.20862e-08
1.83391e-06
-1.04012e-07
1.56472e-06
-1.56221e-07
1.29782e-06
-2.17905e-07
1.0369e-06
-2.87242e-07
7.85653e-07
-3.61379e-07
5.4729e-07
-4.3669e-07
3.2394e-07
-5.09655e-07
1.15993e-07
-5.78277e-07
-7.8188e-08
-6.43151e-07
-2.61569e-07
-7.07187e-07
-4.36899e-07
-6.05494e-07
-7.74531e-07
-5.28398e-08
3.76581e-06
-6.73397e-08
3.86075e-06
-6.50394e-08
3.80635e-06
-5.222e-08
3.67305e-06
-3.46968e-08
3.50234e-06
-1.69288e-08
3.30637e-06
-2.18739e-09
3.09134e-06
7.34853e-09
2.86148e-06
1.03739e-08
2.6202e-06
6.01765e-09
2.37033e-06
-6.40572e-09
2.1144e-06
-2.74562e-08
1.85494e-06
-5.74204e-08
1.59466e-06
-9.61401e-08
1.3365e-06
-1.42841e-07
1.08356e-06
-1.96043e-07
8.38806e-07
-2.53618e-07
6.04807e-07
-3.13051e-07
3.8331e-07
-3.72035e-07
1.7491e-07
-4.29271e-07
-2.10223e-08
-4.85026e-07
-2.05887e-07
-5.40988e-07
-3.81009e-07
-5.4693e-07
-5.99627e-07
-5.91486e-08
3.82502e-06
-8.23968e-08
3.88406e-06
-7.91421e-08
3.80315e-06
-6.38262e-08
3.65778e-06
-4.3191e-08
3.48174e-06
-2.16755e-08
3.28489e-06
-2.36159e-09
3.07205e-06
1.26516e-08
2.84649e-06
2.20145e-08
2.61086e-06
2.48034e-08
2.36756e-06
2.0385e-08
2.11883e-06
8.36394e-09
1.86697e-06
-1.13945e-08
1.61442e-06
-3.86496e-08
1.36375e-06
-7.26985e-08
1.11759e-06
-1.12355e-07
8.78443e-07
-1.5603e-07
6.48456e-07
-2.01944e-07
4.29194e-07
-2.48521e-07
2.21453e-07
-2.94837e-07
2.52568e-08
-3.40912e-07
-1.59851e-07
-3.87621e-07
-3.34339e-07
-4.98289e-07
-4.36304e-07
-6.56774e-08
3.89074e-06
-9.07207e-08
3.90915e-06
-8.42067e-08
3.79667e-06
-6.54626e-08
3.63907e-06
-4.15554e-08
3.45786e-06
-1.66946e-08
3.26006e-06
6.31491e-09
3.04907e-06
2.55769e-08
2.82726e-06
3.98078e-08
2.59666e-06
4.81846e-08
2.3592e-06
5.01736e-08
2.11686e-06
4.54895e-08
1.87167e-06
3.4112e-08
1.62581e-06
1.63245e-08
1.38155e-06
-7.25342e-09
1.14118e-06
-3.56732e-08
9.06864e-07
-6.77321e-08
6.80512e-07
-1.02137e-07
4.63595e-07
-1.3775e-07
2.57059e-07
-1.7385e-07
6.13465e-08
-2.10275e-07
-1.23437e-07
-2.47366e-07
-2.97261e-07
-4.59956e-07
-2.85714e-07
-6.897e-08
3.95974e-06
-8.73845e-08
3.9276e-06
-7.73122e-08
3.78662e-06
-5.55342e-08
3.61732e-06
-2.89637e-08
3.43132e-06
-1.58152e-09
3.23271e-06
2.40465e-08
3.02347e-06
4.62261e-08
2.80511e-06
6.38573e-08
2.57905e-06
7.62487e-08
2.34684e-06
8.29984e-08
2.11013e-06
8.39401e-08
1.87075e-06
7.91363e-08
1.63063e-06
6.8888e-08
1.39181e-06
5.37408e-08
1.15634e-06
3.44656e-08
9.26152e-07
1.19924e-08
7.02997e-07
-1.27048e-08
4.88303e-07
-3.87617e-08
2.83126e-07
-6.55681e-08
8.8162e-08
-9.28394e-08
-9.61571e-08
-1.20569e-07
-2.69524e-07
-4.31647e-07
-1.4887e-07
-5.91438e-08
4.0189e-06
-7.10869e-08
3.93956e-06
-5.82474e-08
3.7738e-06
-3.41289e-08
3.59322e-06
-5.59154e-09
3.4028e-06
2.34367e-08
3.2037e-06
5.05758e-08
2.99635e-06
7.4371e-08
2.78133e-06
9.39485e-08
2.55949e-06
1.08806e-07
2.332e-06
1.18699e-07
2.10026e-06
1.2358e-07
1.86589e-06
1.23588e-07
1.63064e-06
1.19038e-07
1.39638e-06
1.10419e-07
1.16498e-06
9.83723e-08
9.38219e-07
8.36345e-08
7.17756e-07
6.69662e-08
5.04993e-07
4.90564e-08
3.01059e-07
3.04435e-08
1.06799e-07
1.14868e-08
-7.71748e-08
-7.59519e-09
-2.50415e-07
-4.12589e-07
-2.66243e-08
-4.33325e-08
4.06224e-06
-4.74958e-08
3.94372e-06
-3.01799e-08
3.75649e-06
-3.05213e-09
3.5661e-06
2.74385e-08
3.37232e-06
5.75431e-08
3.1736e-06
8.52248e-08
2.96868e-06
1.0941e-07
2.75716e-06
1.29546e-07
2.53937e-06
1.45383e-07
2.31617e-06
1.5686e-07
2.0888e-06
1.64062e-07
1.8587e-06
1.67201e-07
1.62752e-06
1.66615e-07
1.39699e-06
1.62755e-07
1.16886e-06
1.56165e-07
9.44836e-07
1.47448e-07
7.26502e-07
1.37218e-07
5.15256e-07
1.2604e-07
3.12272e-07
1.14397e-07
1.18481e-07
1.02677e-07
-6.54138e-08
9.12156e-08
-2.38908e-07
-4.01678e-07
8.03549e-08
-2.6856e-08
4.0891e-06
-2.0467e-08
3.93732e-06
3.72805e-09
3.73229e-06
3.57628e-08
3.53406e-06
6.88329e-08
3.33925e-06
9.96976e-08
3.14274e-06
1.27059e-07
2.94132e-06
1.50473e-07
2.73375e-06
1.6985e-07
2.52e-06
1.85255e-07
2.30078e-06
1.96843e-07
2.07722e-06
2.04839e-07
1.85072e-06
2.09536e-07
1.62285e-06
2.11297e-07
1.39526e-06
2.10552e-07
1.16964e-06
2.0778e-07
9.47643e-07
2.03489e-07
7.30832e-07
1.98181e-07
5.20607e-07
1.92329e-07
3.18172e-07
1.86357e-07
1.24504e-07
1.80652e-07
-5.96524e-08
1.7559e-07
-2.33786e-07
-3.97612e-07
1.71591e-07
-1.16498e-08
4.10074e-06
8.14273e-09
3.9175e-06
4.23266e-08
3.69809e-06
8.13458e-08
3.49502e-06
1.17691e-07
3.30289e-06
1.48926e-07
3.11149e-06
1.75034e-07
2.91521e-06
1.96511e-07
2.71227e-06
2.13857e-07
2.50265e-06
2.27503e-07
2.28714e-06
2.3783e-07
2.06691e-06
2.45205e-07
1.84337e-06
2.50003e-07
1.61808e-06
2.52621e-07
1.39267e-06
2.53479e-07
1.16882e-06
2.53013e-07
9.48152e-07
2.51658e-07
7.32234e-07
2.49836e-07
5.22483e-07
2.47936e-07
3.2013e-07
2.4632e-07
1.26183e-07
2.45337e-07
-5.86031e-08
2.45358e-07
-2.33736e-07
-3.98991e-07
2.46815e-07
2.09328e-09
4.09864e-06
3.63276e-08
3.88323e-06
8.49198e-08
3.64946e-06
1.33582e-07
3.44633e-06
1.73553e-07
3.26289e-06
2.04313e-07
3.08071e-06
2.27997e-07
2.89151e-06
2.46315e-07
2.69394e-06
2.60407e-07
2.48856e-06
2.71062e-07
2.27649e-06
2.78874e-07
2.05911e-06
2.8434e-07
1.83792e-06
2.87914e-07
1.61453e-06
2.90031e-07
1.39059e-06
2.91113e-07
1.16778e-06
2.91566e-07
9.47746e-07
2.91774e-07
7.32079e-07
2.9209e-07
5.22226e-07
2.92827e-07
3.19456e-07
2.94275e-07
1.24803e-07
2.96721e-07
-6.09775e-08
3.00487e-07
-2.37428e-07
-4.04399e-07
3.05975e-07
1.75234e-08
4.08109e-06
6.79908e-08
3.83272e-06
1.33274e-07
3.58414e-06
1.9367e-07
3.3859e-06
2.36009e-07
3.22052e-06
2.64732e-07
3.05197e-06
2.84564e-07
2.87166e-06
2.985e-07
2.67999e-06
3.08218e-07
2.47884e-06
3.14784e-07
2.26993e-06
3.18967e-07
2.05494e-06
3.21379e-07
1.83553e-06
3.22547e-07
1.61339e-06
3.22944e-07
1.39023e-06
3.23003e-07
1.16776e-06
3.23117e-07
9.4768e-07
3.23632e-07
7.31618e-07
3.2484e-07
5.21076e-07
3.26985e-07
3.17374e-07
3.30271e-07
1.21582e-07
3.349e-07
-6.55376e-08
3.41114e-07
-2.43572e-07
-4.12463e-07
3.49253e-07
4.20317e-08
4.03903e-06
1.11316e-07
3.76338e-06
1.93757e-07
3.50165e-06
2.61067e-07
3.31855e-06
3.03776e-07
3.17778e-06
3.28279e-07
3.02743e-06
3.4298e-07
2.85693e-06
3.51544e-07
2.67141e-06
3.55966e-07
2.47441e-06
3.5752e-07
2.26838e-06
3.57118e-07
2.05535e-06
3.5548e-07
1.83719e-06
3.53203e-07
1.61569e-06
3.50806e-07
1.39266e-06
3.48738e-07
1.16986e-06
3.47387e-07
9.49073e-07
3.47074e-07
7.31978e-07
3.48045e-07
5.20156e-07
3.50473e-07
3.15002e-07
3.54468e-07
1.17644e-07
3.60125e-07
-7.11347e-08
3.67576e-07
-2.50965e-07
-4.219e-07
3.77075e-07
9.29204e-08
3.94608e-06
1.84044e-07
3.67219e-06
2.71667e-07
3.41398e-06
3.343e-07
3.25588e-06
3.73705e-07
3.13834e-06
3.92657e-07
3.00845e-06
4.01555e-07
2.84801e-06
4.0409e-07
2.66886e-06
4.0249e-07
2.476e-06
3.98246e-07
2.27262e-06
3.92439e-07
2.06116e-06
3.85896e-07
1.84374e-06
3.79288e-07
1.62232e-06
3.73169e-07
1.3988e-06
3.6801e-07
1.17505e-06
3.64204e-07
9.52913e-07
3.62057e-07
7.34162e-07
3.61782e-07
5.20472e-07
3.63486e-07
3.13341e-07
3.67183e-07
1.13993e-07
3.72832e-07
-7.67384e-08
3.80429e-07
-2.58517e-07
-4.31541e-07
3.90116e-07
1.74996e-07
3.77105e-06
2.89424e-07
3.55771e-06
3.69273e-07
3.33409e-06
4.18317e-07
3.20679e-06
4.45816e-07
3.1108e-06
4.57918e-07
2.99632e-06
4.5997e-07
2.84593e-06
4.55523e-07
2.67329e-06
4.47023e-07
2.48448e-06
4.36178e-07
2.28345e-06
4.24211e-07
2.07312e-06
4.12035e-07
1.85592e-06
4.00356e-07
1.63401e-06
3.89748e-07
1.40942e-06
3.80689e-07
1.18413e-06
3.73575e-07
9.60049e-07
3.68714e-07
7.39048e-07
3.66303e-07
5.22912e-07
3.66399e-07
3.13274e-07
3.68918e-07
1.11504e-07
3.73664e-07
-8.14547e-08
3.80452e-07
-2.65276e-07
-4.40352e-07
3.89292e-07
2.78183e-07
3.49283e-06
4.20962e-07
3.41488e-06
4.87252e-07
3.26776e-06
5.16148e-07
3.17786e-06
5.25757e-07
3.10116e-06
5.2689e-07
2.99516e-06
5.1921e-07
2.85359e-06
5.05806e-07
2.68667e-06
4.89062e-07
2.50121e-06
4.7068e-07
2.30182e-06
4.51859e-07
2.09194e-06
4.33466e-07
1.87431e-06
4.16161e-07
1.65131e-06
4.0048e-07
1.42511e-06
3.86878e-07
1.19774e-06
3.75751e-07
9.71187e-07
3.67417e-07
7.47395e-07
3.62085e-07
5.28258e-07
3.59797e-07
3.15577e-07
3.60385e-07
1.10932e-07
3.63479e-07
-8.45328e-08
3.6865e-07
-2.70433e-07
-4.47433e-07
3.75745e-07
3.90584e-07
3.10222e-06
5.6738e-07
3.23805e-06
6.21656e-07
3.21345e-06
6.26862e-07
3.17263e-06
6.16979e-07
3.11102e-06
6.00859e-07
3.01125e-06
5.79205e-07
2.87522e-06
5.54236e-07
2.71162e-06
5.27745e-07
2.52769e-06
5.00989e-07
2.32857e-06
4.74833e-07
2.11808e-06
4.499e-07
1.89924e-06
4.26673e-07
1.67453e-06
4.05571e-07
1.44621e-06
3.86987e-07
1.21632e-06
3.71295e-07
9.86879e-07
3.58842e-07
7.59851e-07
3.49884e-07
5.37219e-07
3.44506e-07
3.20959e-07
3.42508e-07
1.12934e-07
3.43336e-07
-8.53575e-08
3.46228e-07
-2.73322e-07
-4.52012e-07
3.50809e-07
5.24214e-07
2.57798e-06
7.27284e-07
3.03495e-06
7.68385e-07
3.17232e-06
7.48922e-07
3.19207e-06
7.13982e-07
3.14594e-06
6.75602e-07
3.04962e-06
6.36686e-07
2.91412e-06
5.98392e-07
2.7499e-06
5.61383e-07
2.56468e-06
5.26033e-07
2.36391e-06
4.92579e-07
2.15153e-06
4.61213e-07
1.93059e-06
4.32131e-07
1.70361e-06
4.05563e-07
1.47277e-06
3.81795e-07
1.24008e-06
3.61163e-07
1.0075e-06
3.44046e-07
7.76963e-07
3.30796e-07
5.50464e-07
3.21629e-07
3.30122e-07
3.16422e-07
1.18137e-07
3.14478e-07
-8.3419e-08
3.14549e-07
-2.73399e-07
-4.53423e-07
3.15953e-07
6.89385e-07
1.88858e-06
9.08603e-07
2.81571e-06
9.20539e-07
3.16037e-06
8.68284e-07
3.24431e-06
8.0369e-07
3.21052e-06
7.41888e-07
3.11141e-06
6.85578e-07
2.97042e-06
6.3447e-07
2.801e-06
5.87738e-07
2.6114e-06
5.44649e-07
2.40698e-06
5.04691e-07
2.19148e-06
4.67559e-07
1.96771e-06