/*--------------------------------*- C++ -*----------------------------------*\
  =========                 |
  \\      /  F ield         | OpenFOAM: The Open Source CFD Toolbox
   \\    /   O peration     | Website:  https://openfoam.org
    \\  /    A nd           | Version:  9
     \\/     M anipulation  |
\*---------------------------------------------------------------------------*/
FoamFile
{
    format      ascii;
    class       volVectorField;
    location    "0.15";
    object      U;
}
// * * * * * * * * * * * * * * * * * * * * * * * * * * * * * * * * * * * * * //

dimensions      [0 1 -1 0 0 0 0];

internalField   nonuniform List<vector> 
918
(
(2.21408 -0.63694 0)
(0.134297 0.730397 0)
(-0.283606 2.97307 0)
(1.90289 0.554973 0)
(0.342317 2.87512 -2.51274e-19)
(-0.0988524 0.630373 -1.32343e-17)
(1.91284 2.97352 -2.54944e-18)
(1.34255 0.762115 -9.91835e-20)
(2.66849 -0.0158267 0)
(0.0222395 2.75805 0)
(0.0132232 2.6483 0)
(2.35549 0.0147356 0)
(0.0210735 0.643582 0)
(0.00582029 0.642818 0)
(0.0832166 1.03923 -4.31099e-18)
(-0.0160011 2.57171 -5.05586e-19)
(1.7116 0.413807 7.57252e-18)
(0.313625 3.23827 -2.08821e-18)
(2.47231 -0.0203875 0)
(0.012426 2.64128 0)
(0.920777 0.777305 -4.10845e-18)
(2.07984 -0.347545 0)
(2.78626 -0.102772 0)
(2.64363 0.127522 0)
(2.12988 0.115332 0)
(0.0422636 0.579848 0)
(0.00349054 0.734997 5.00067e-18)
(-0.682487 2.92561 0)
(-0.0275668 3.26047 0)
(-0.237437 3.25835 0)
(0.141609 3.25154 0)
(-0.17589 2.94779 1.9428e-19)
(-0.0588123 2.59943 0)
(-0.178171 0.861342 -5.20529e-22)
(-0.124388 1.09629 1.10085e-17)
(-0.000273678 1.01489 0)
(2.43261 -0.00777067 0)
(0.749191 1.14842 2.2447e-18)
(2.34705 3.38802 5.14253e-18)
(2.23828 2.71349 -4.1406e-18)
(1.88022 3.65317 5.77883e-19)
(1.51812 3.16985 -2.98462e-18)
(1.81761 1.02203 9.75554e-20)
(1.4546 0.733487 0)
(2.91018 1.66117 0)
(1.72342 1.0745 4.33575e-19)
(1.24186 0.791059 -4.44884e-19)
(2.42693 -0.0279547 0)
(3.13731 -0.0189796 0)
(2.66824 -0.0204256 0)
(3.02308 -0.340992 0)
(3.08549 -0.100208 0)
(2.7528 -0.00826319 0)
(0.0303145 2.42197 -3.92536e-18)
(0.0389564 3.32319 0)
(0.048987 2.8037 0)
(-0.0200622 3.28103 0)
(-0.00111829 2.74569 0)
(0.00419006 2.62667 0)
(0.0308115 3.19335 0)
(0.0125414 2.66321 0)
(-0.0333897 3.15865 0)
(-0.0174691 2.62426 0)
(2.49674 0.00657127 0)
(2.85989 0.0399954 0)
(2.37889 0.00865554 0)
(2.81707 -0.0131297 0)
(2.34086 -0.00712157 0)
(0.0919598 0.96845 4.98918e-18)
(0.124716 1.04494 0)
(0.105385 0.870567 0)
(0.0526547 0.968343 5.67373e-23)
(-0.0171193 0.709468 -7.46091e-18)
(-0.0104452 0.949874 0)
(-0.00643609 0.652428 0)
(0.0332351 0.945494 1.2741e-23)
(0.0147888 0.649338 0)
(-0.0334765 0.949263 0)
(-0.0050217 0.653109 0)
(0.147257 1.76339 0)
(0.0879169 1.40131 0)
(0.122183 1.52026 4.0774e-18)
(0.0585135 0.91793 0)
(0.000951428 3.31646 0)
(-0.0353847 3.14406 5.01958e-19)
(-0.006183 2.59293 -6.13318e-19)
(2.1867 0.506185 -2.6586e-18)
(1.77599 0.349949 -2.6088e-18)
(2.14311 0.623991 -7.88645e-18)
(1.66984 0.514532 -4.9985e-18)
(0.24287 1.97021 0)
(0.588433 3.8618 1.90268e-18)
(0.72892 3.34021 -3.03616e-18)
(2.92571 -0.0104875 0)
(2.40029 0.000557093 0)
(2.68434 0.0363638 0)
(3.22723 0.199435 0)
(2.86251 0.236298 -3.67712e-17)
(2.78826 0.462636 2.79923e-17)
(0.0297483 3.18412 0)
(0.0107836 2.64903 0)
(-0.0543934 3.08043 0)
(-0.0359248 3.17089 0)
(0.0171962 2.72822 0)
(1.41199 1.13563 1.31043e-18)
(1.01528 0.779097 0)
(3.02149 0.00428546 0)
(2.45765 -0.018502 0)
(2.76994 0.106736 0)
(2.62266 0.32998 0)
(2.22239 0.0271049 0)
(2.77907 0.0211307 0)
(2.46005 0.0813522 0)
(1.87325 0.057275 1.26411e-17)
(0.00726878 0.703286 5.38006e-18)
(0.0280542 0.952484 0)
(0.00585254 0.952218 0)
(0.0209715 0.641099 0)
(0.0167876 1.02001 4.97358e-18)
(0.0105769 0.733315 0)
(0.00457847 1.01866 -1.51035e-17)
(-0.00518505 0.730083 5.061e-18)
(0.057314 3.30544 0)
(-0.0121415 3.31555 0)
(-0.00488472 3.10889 -1.33116e-20)
(-0.0773005 3.12265 0)
(0.00453835 2.54111 0)
(2.93124 -0.00948853 0)
(2.42917 -0.0112338 0)
(2.4113 0.000125571 0)
(2.92228 -0.0150699 0)
(2.40866 0.0237578 0)
(1.13124 1.69965 -2.81441e-18)
(0.751888 1.09031 0)
(1.11391 1.74958 3.14161e-19)
(0.74258 1.20558 0)
(2.69618 3.04983 1.32574e-18)
(2.49956 2.38998 -2.92225e-18)
(1.02363 3.89642 0)
(1.458 3.82148 0)
(1.13267 3.30065 0)
(0.632763 1.52138 -1.41997e-18)
(1.91743 0.935523 0)
(1.50819 0.657126 1.34667e-18)
(2.97001 2.68085 0)
(3.20816 2.28682 0)
(2.72341 2.04133 3.19321e-18)
(3.47489 1.85797 0)
(3.0915 1.32722 8.79343e-20)
(2.90503 0.0672127 0)
(2.92245 -0.0301939 0)
(2.42979 -0.013675 0)
(2.9128 0.00763051 0)
(2.91071 -0.0734239 0)
(2.39612 0.00477978 0)
(3.07988 0.0615944 0)
(3.01595 0.0259938 0)
(2.66915 0.0549302 0)
(0.0680417 2.91163 2.06137e-18)
(0.0129876 2.28252 0)
(0.0397845 3.00114 3.77511e-18)
(0.0194694 2.47744 -3.47888e-18)
(0.12192 3.67059 1.76056e-18)
(0.110346 3.45853 0)
(0.0292695 3.04758 0)
(0.0198561 3.22338 0)
(0.00927601 2.64166 0)
(0.0104139 3.13293 -1.90305e-20)
(-0.0269429 2.57456 0)
(-0.0216937 3.14706 -1.04652e-18)
(-0.0036522 2.60397 2.01902e-18)
(0.0256348 3.17202 0)
(0.0482221 3.188 0)
(0.00738317 2.6473 0)
(-0.00277992 3.19516 0)
(-0.00339062 2.6906 0)
(3.00756 0.0219858 0)
(2.50327 0.0113655 0)
(2.96765 0.0205771 0)
(2.42516 -0.0101058 0)
(2.39149 -0.0068578 0)
(2.85104 0.0129746 0)
(2.8465 0.0360746 0)
(2.34094 0.00303945 0)
(-0.00295404 1.16268 -4.61656e-20)
(0.00575695 1.16486 0)
(-0.00358509 0.962292 0)
(0.000132599 0.654286 0)
(0.788168 2.18869 0)
(0.892276 1.26764 -9.89863e-19)
(0.0890583 1.31141 0)
(0.0466864 0.800667 0)
(-0.00985907 3.36689 0)
(-0.0253416 3.28755 0)
(-0.00563552 3.32399 0)
(0.184279 3.30931 9.32073e-20)
(0.0513258 3.36445 0)
(-0.0241908 3.4049 0)
(0.0186386 2.6104 6.8265e-20)
(0.0238104 3.12347 7.41143e-19)
(-0.0179925 3.12459 6.29977e-19)
(0.00976756 2.55834 0)
(2.25712 0.435651 4.21524e-18)
(1.79452 0.234135 -4.11087e-18)
(0.370452 2.4824 0)
(0.318058 1.86915 -8.39284e-19)
(0.239414 2.6248 -2.76607e-18)
(0.127339 2.11211 2.7537e-18)
(2.42603 -0.014542 0)
(2.90481 -0.0513131 0)
(2.90564 -0.00451113 0)
(2.40971 0.0062595 0)
(0.0516843 3.18566 0)
(0.0362558 3.15946 0)
(0.0157853 2.61318 0)
(1.62793 1.10002 3.9224e-18)
(1.50516 1.13714 -4.49615e-18)
(1.14478 0.795477 0)
(3.42075 0.215221 5.24971e-19)
(2.95817 0.164169 0)
(3.23545 0.105994 0)
(2.61434 0.0185633 0)
(2.31232 0.270049 0)
(2.37587 0.170308 -2.02295e-17)
(1.80949 0.135799 7.42672e-18)
(-0.00384241 1.00935 4.99943e-18)
(-0.0107063 0.713938 5.79616e-20)
(0.00797767 1.16703 -9.46545e-20)
(-0.0103839 1.19421 3.56235e-18)
(-0.0078279 1.02936 1.66394e-19)
(0.0203161 0.748928 -6.64187e-22)
(-0.0520067 1.01661 -3.01219e-18)
(0.0123323 1.15744 2.16721e-18)
(-0.049748 1.1766 -3.58403e-18)
(2.93284 -0.0212718 0)
(2.91081 0.0914158 0)
(2.41987 0.0342634 0)
(2.88901 -0.0127043 0)
(2.88456 -0.00146182 0)
(2.37082 -0.00301525 0)
(2.88556 -0.0193364 0)
(2.91516 0.0176934 0)
(2.41156 0.00815539 0)
(1.15982 1.64071 -3.17574e-18)
(0.753142 1.04349 0)
(0.66792 1.3311 4.48871e-19)
(0.975271 1.90542 3.70629e-18)
(1.07294 1.83625 -2.20543e-18)
(0.721872 1.29261 4.32898e-18)
(0.805208 2.12588 6.97458e-18)
(0.57892 1.57571 1.24739e-18)
(2.07209 0.726103 5.28521e-18)
(1.97824 0.847425 1.35626e-18)
(1.60775 0.590603 2.54595e-18)
(3.57651 1.45535 -3.5677e-18)
(3.07109 0.925689 -3.90968e-18)
(0.00270799 3.02663 1.68705e-18)
(0.00997499 2.49609 0)
(3.10844 0.0471578 0)
(3.05167 0.0311335 0)
(2.55834 0.00792092 0)
(-0.0167694 1.16877 0)
(0.0233214 0.957523 6.88445e-18)
(0.0104926 0.961411 0)
(0.00795338 0.652206 -6.73874e-18)
(-0.0386489 1.16309 1.67039e-18)
(-0.0289277 1.15968 0)
(1.18561 1.61981 8.95927e-19)
(1.24247 1.61768 -3.03167e-18)
(0.721752 0.979906 2.73489e-18)
(0.0134074 1.04151 -5.03774e-18)
(0.0606155 1.13576 0)
(0.0224364 0.725852 0)
(-0.0107427 3.1395 -5.53093e-20)
(0.0535762 3.13386 -1.69212e-18)
(-0.00888522 2.60437 -5.93688e-20)
(0.462671 2.36718 2.75825e-18)
(0.371899 1.75561 -1.83768e-18)
(0.0270951 2.79816 2.38379e-18)
(0.104217 2.71017 -2.62033e-18)
(0.0389938 2.18601 7.70172e-20)
(0.0357354 1.1605 -1.10594e-17)
(0.0211286 1.16629 1.28041e-17)
(0.0332992 1.02427 4.90649e-18)
(-0.0348161 1.02306 -5.03318e-18)
(0.00727838 0.729895 -4.92238e-18)
(-0.0422394 1.15604 -1.27126e-17)
(-0.0390227 1.16728 1.3025e-17)
(0.894003 2.04301 0)
(0.923526 1.93907 -7.47929e-18)
(0.648994 1.39815 3.23564e-18)
(0.734793 2.194 3.71633e-18)
(0.522296 1.65756 -5.74803e-18)
(3.59418 0.541482 2.01524e-18)
(3.60164 1.02353 0)
(3.12365 0.527066 -2.04389e-18)
(-0.0660199 3.12805 -2.11434e-20)
(0.0301099 3.09547 0)
(0.0157346 2.59005 0)
(0.503365 2.30401 -1.00184e-18)
(0.626697 2.26162 -2.20653e-18)
(0.456648 1.73005 4.1417e-18)
(3.03253 -0.129162 0)
(3.15098 -0.234213 6.78114e-18)
(0.125564 3.28449 0)
(-0.0653924 3.18271 0)
(3.12415 -0.0368497 8.93172e-20)
(2.82489 0.0670726 1.37629e-17)
(0.168815 3.46932 -1.24875e-19)
(0.145482 3.3445 0)
(0.183952 1.31253 4.91306e-18)
(0.492139 2.35273 0)
(3.44027 1.6589 -1.78525e-18)
(3.17336 -0.0251471 -6.61972e-20)
(3.08306 0.0688835 0)
(2.92543 -0.00105034 1.16299e-21)
(0.0344184 3.59539 0)
(0.221183 3.23716 0)
(-0.0189535 3.42058 0)
(0.132587 3.37692 1.30546e-18)
(0.033123 3.35875 8.78741e-19)
(3.06282 -0.0060255 -1.91457e-20)
(3.17364 0.166823 0)
(3.25957 0.101786 0)
(-0.0619269 3.16158 0)
(0.027121 3.3689 0)
(-0.029713 3.40459 0)
(0.574348 3.82294 2.07849e-18)
(3.09011 -0.260552 0)
(3.06559 -0.123506 0)
(2.92069 0.141508 8.46103e-18)
(3.02744 0.0845348 -1.02365e-17)
(3.23953 -0.16382 0)
(0.148387 3.27992 0)
(-0.0699671 3.3368 0)
(-0.00411348 3.43594 0)
(-0.0169176 3.42482 0)
(-0.244599 3.48702 0)
(-0.00161838 3.18374 0)
(3.11127 0.000108161 0)
(3.13558 -0.0238955 -4.03443e-20)
(2.21408 3.33245 -2.56284e-18)
(2.94822 -0.199378 -8.46279e-18)
(3.13796 0.130213 1.01748e-17)
(3.25138 0.0725466 0)
(3.04496 -0.00537331 8.23847e-18)
(3.23276 0.292316 -1.01374e-17)
(3.0381 0.0636237 0)
(0.0133375 3.36723 0)
(0.238496 3.39591 4.62429e-19)
(-0.0340654 3.25419 -3.44014e-19)
(3.48544 0.669639 1.05661e-17)
(3.35345 0.194106 0)
(0.200677 1.001 -6.7456e-18)
(0.367119 0.710028 -4.19997e-19)
(0.437417 1.22726 9.54352e-18)
(0.393266 1.38977 -2.82794e-18)
(0.25629 1.56305 0)
(0.0789862 1.20796 2.14347e-18)
(0.121531 1.12401 6.66299e-18)
(0.194131 1.24103 -4.05567e-18)
(-0.00220853 1.09052 0)
(2.24259 0.96122 0)
(2.0388 1.20407 0)
(3.12124 1.99414 5.4118e-18)
(3.17429 2.20393 -6.93562e-18)
(3.34674 1.353 0)
(3.41122 1.51248 0)
(3.14015 0.086706 -1.53283e-17)
(3.01728 0.0405354 1.92627e-17)
(3.19809 -0.295702 0)
(3.06915 -0.126977 0)
(2.7934 0.180725 0)
(3.19578 -0.11082 0)
(3.08957 0.143038 0)
(3.05483 -0.0531233 0)
(3.08316 -0.248803 0)
(2.94232 -0.0246459 0)
(0.0855322 3.56658 0)
(0.0704199 3.36205 0)
(0.0608196 3.58859 0)
(0.255218 3.59865 0)
(0.41163 3.22248 0)
(0.125924 3.10593 -1.87446e-18)
(0.168654 3.20131 0)
(0.0102623 3.14558 1.43014e-18)
(0.162787 3.36233 -2.03406e-18)
(0.0948514 3.38434 0)
(0.0890409 3.29488 0)
(-0.0774305 3.36908 0)
(-0.0908292 3.29463 0)
(-0.000204198 3.33691 -1.12813e-18)
(0.00603073 3.39847 1.24045e-18)
(-0.0233193 3.39636 1.52209e-18)
(-0.0292724 3.27872 0)
(-0.0838472 3.35313 -2.17321e-18)
(-0.0554896 3.27108 -1.28742e-18)
(0.152811 3.50908 8.90017e-19)
(-0.341981 3.21645 -1.57467e-18)
(-0.0307296 3.17016 -1.87188e-18)
(3.05161 -0.0658089 1.31664e-17)
(3.00778 -0.128719 -1.68111e-17)
(3.03009 0.0876367 -1.31156e-17)
(2.85127 0.0538296 1.64862e-17)
(3.24589 0.252295 0)
(3.16193 0.0362107 0)
(3.23129 0.10311 0)
(3.25635 -0.0578418 0)
(3.11404 -0.0168778 0)
(3.34341 0.204184 0)
(3.27285 0.0436811 0)
(3.17391 0.0676882 0)
(-0.332895 3.26663 -4.91649e-20)
(-0.0633678 3.30714 0)
(0.0695049 3.31754 0)
(0.0737344 3.33138 3.89231e-19)
(0.107533 3.3207 -1.77587e-20)
(-0.0695565 3.3234 5.08366e-19)
(-0.226816 3.20109 -5.09811e-19)
(-0.153812 3.34263 0)
(0.130579 3.34328 0)
(0.163766 3.20638 0)
(-0.0864915 3.37563 0)
(-0.137209 3.36592 0)
(0.743896 3.73624 -4.39836e-18)
(1.00999 3.85455 -1.50416e-18)
(0.604397 2.68323 -7.05423e-19)
(0.375772 2.97489 2.25687e-18)
(0.705577 3.32121 9.47719e-19)
(3.17991 0.0767371 0)
(3.08728 0.137558 0)
(3.10087 0.150367 0)
(2.91315 -0.0879307 0)
(3.08901 -0.0664013 0)
(2.93187 0.122883 0)
(3.01817 0.286931 0)
(3.04304 0.0569626 0)
(3.07863 -0.0794658 1.4511e-17)
(3.06584 -0.0903319 -1.85393e-17)
(3.09788 0.069272 -1.40861e-17)
(3.01112 0.0748372 1.77216e-17)
(2.07942 3.33372 0)
(1.9225 3.4876 -3.36761e-18)
(2.22045 3.21309 -2.77979e-18)
(2.54537 3.09591 3.68595e-18)
(1.5086 2.31771 9.13095e-18)
(2.65809 0.298223 4.89577e-18)
(3.39038 0.221767 0)
(3.51667 0.664443 -8.6394e-18)
(3.4244 0.250667 -3.79665e-19)
(3.02396 0.311904 0)
(1.04504 1.53721 5.76416e-18)
(0.782323 1.33108 -9.15086e-18)
(1.07973 1.05078 5.12459e-18)
(1.2391 1.16877 -2.30721e-18)
(0.568343 2.15346 2.90667e-18)
(0.374641 1.784 0)
(0.273966 1.89979 -3.75973e-18)
(0.825692 1.80123 -1.30905e-17)
(0.897694 1.98007 0)
(0.0113738 1.15694 3.55094e-19)
(0.0226959 1.20835 -3.91343e-18)
(0.0104433 1.11747 5.68992e-18)
(0.0082876 1.15732 0)
(0.0782331 1.19747 0)
(1.61511 2.25017 0)
(1.8492 1.9107 -3.52414e-18)
(2.89557 2.6294 2.46306e-18)
(2.46999 3.03269 0)
(2.34394 2.33302 -1.92066e-18)
(2.86012 2.4787 8.46135e-20)
(1.74329 1.35477 -5.75062e-18)
(2.29253 0.878674 -3.65902e-20)
(2.19222 0.918858 2.93393e-18)
(2.0081 1.34201 1.94533e-19)
(1.85304 1.3 -7.74835e-18)
(2.17508 1.1912 0)
(2.14752 1.41765 4.83274e-18)
(2.23776 1.09237 0)
(2.07469 1.21696 0)
(2.00736 1.1416 0)
(2.33481 1.72619 3.77525e-18)
(3.58794 0.568317 -8.60602e-18)
(3.39994 1.29806 0)
(3.61978 0.78042 0)
(2.43421 0.658869 4.61986e-18)
(2.30487 1.60217 -2.91068e-18)
(2.21738 1.28647 5.39459e-18)
(2.69919 1.02087 -6.81632e-18)
(3.06956 -0.082641 9.98245e-18)
(3.09421 0.317739 -1.02528e-17)
(3.05358 0.113247 0)
(3.15798 -0.0586591 0)
(3.10743 -0.0655193 -9.52688e-18)
(3.07423 0.0727013 9.4075e-18)
(3.01808 0.164551 0)
(2.92181 0.0407586 0)
(3.11234 -0.0330975 0)
(3.0116 -0.0797142 0)
(3.19897 0.00679859 0)
(3.00551 -0.0985569 0)
(0.285101 3.43584 0)
(0.172614 3.40599 0)
(0.476564 3.50727 -2.24802e-18)
(0.607375 3.7994 -1.20971e-18)
(0.545399 3.65712 -2.70398e-18)
(0.429761 3.71779 4.34828e-18)
(0.0745061 3.42202 0)
(0.202421 3.34113 -2.37253e-18)
(-0.0504262 3.37867 0)
(0.536605 3.14505 -1.35394e-18)
(0.363805 3.01044 3.21292e-18)
(0.577611 3.23681 2.074e-18)
(0.357191 3.42826 -1.23957e-18)
(0.220746 3.39748 9.95203e-19)
(0.398186 3.42738 -3.18506e-18)
(0.468121 3.3965 0)
(0.592987 3.20312 2.34128e-18)
(0.172697 3.12517 -7.91686e-19)
(0.286783 3.32994 0)
(-0.000865544 3.3835 2.12223e-18)
(-0.160059 3.20372 0)
(0.0513281 3.22614 -1.58472e-18)
(0.0284525 3.14867 0)
(0.0293465 3.30027 -1.35448e-18)
(0.142182 3.25993 0)
(0.00975981 3.38 0)
(0.0819245 3.33803 1.52033e-18)
(0.206421 3.39255 6.81172e-20)
(0.0323646 3.34113 2.50945e-18)
(0.0219127 3.24827 1.80693e-20)
(0.299835 3.25843 8.0251e-19)
(0.178172 3.07541 4.77868e-19)
(-0.220016 3.32447 0)
(-0.128896 3.34623 0)
(0.0252031 3.19575 2.15954e-18)
(-0.061057 3.32798 2.07803e-18)
(0.131373 3.42176 -2.62957e-18)
(-0.0159048 3.38013 0)
(0.15217 3.41783 -1.52023e-18)
(-0.115881 3.20031 6.38701e-19)
(-0.0836305 3.36348 -1.91761e-19)
(0.222167 3.47863 -9.59329e-19)
(0.278985 3.19815 -3.26074e-19)
(-0.014255 3.20193 1.59399e-18)
(3.05309 0.128463 -9.41727e-18)
(3.05946 -0.266648 9.03722e-18)
(3.02809 0.0822181 0)
(2.9571 -0.143805 1.19316e-17)
(2.85113 0.342377 -1.29761e-17)
(2.96365 0.0829683 1.40088e-17)
(3.00124 -0.0449519 -1.54834e-18)
(3.24303 -0.237616 0)
(3.16741 -0.0125061 9.02823e-18)
(3.10054 -0.111442 -8.96886e-18)
(3.02165 -0.0651417 -5.12068e-19)
(3.03305 0.212952 4.36021e-18)
(2.98915 0.19967 0)
(2.96932 0.230949 -1.51469e-18)
(3.04376 0.0871304 0)
(2.98006 0.177246 0)
(3.1859 0.199532 0)
(2.96124 -0.0118612 0)
(3.09398 0.173638 3.15744e-18)
(3.21691 0.0451415 -7.00197e-18)
(3.09643 -0.0409479 -3.42235e-18)
(3.10124 -0.00106379 -3.71464e-18)
(3.26569 0.128644 7.17184e-18)
(3.06022 0.137623 0)
(3.06353 0.0378577 0)
(0.00456432 3.49627 -6.93807e-19)
(0.350677 3.37145 -6.71616e-20)
(0.129604 3.09353 0)
(0.0238214 3.35981 7.15053e-19)
(-0.300837 3.20793 1.12128e-19)
(-0.156881 3.23411 -1.09221e-19)
(-0.209408 3.3791 1.12121e-18)
(-0.141906 3.3581 -6.55352e-20)
(0.244402 3.2353 3.37858e-19)
(0.134457 3.35373 -5.69216e-19)
(-0.110977 3.35437 6.85542e-19)
(-0.0923398 3.19855 7.3793e-21)
(0.0133347 3.5458 7.66897e-19)
(0.937256 3.3941 2.32006e-18)
(0.560761 3.5294 3.32702e-18)
(1.68037 3.57609 3.25808e-18)
(1.23703 3.74334 1.4457e-18)
(1.48014 3.80643 0)
(0.689652 2.72064 8.71237e-19)
(0.572766 2.55804 1.03311e-18)
(0.487419 2.90156 4.18134e-20)
(0.581058 2.88598 -3.83746e-18)
(0.862637 2.8568 2.8168e-18)
(0.468664 2.81489 0)
(0.390634 2.71072 -1.78217e-18)
(0.185247 3.1228 4.59819e-18)
(0.0911789 3.02317 -6.04172e-20)
(0.0824664 2.90618 -5.7092e-18)
(1.18108 2.41982 4.69779e-18)
(0.904537 2.57269 0)
(3.11885 0.31182 3.28848e-19)
(3.05364 -0.29842 -2.78817e-19)
(3.02876 -0.269784 -4.89466e-18)
(3.17025 0.055391 4.96853e-18)
(3.03485 0.0846444 0)
(1.72394 3.06517 0)
(2.03886 3.0174 0)
(2.29256 2.60094 0)
(1.91924 2.66525 0)
(1.44525 2.39207 -1.31146e-20)
(1.35059 2.27055 0)
(1.16476 2.48313 5.22713e-20)
(0.959299 2.64762 0)
(1.13618 2.73721 -4.24682e-18)
(1.26391 2.54599 2.74404e-18)
(2.58589 0.324593 0)
(2.49636 0.379405 1.27554e-18)
(2.72593 0.360459 8.25373e-18)
(2.6755 0.235292 -2.895e-18)
(2.66424 0.263562 -9.23752e-18)
(3.3027 0.515906 -1.04807e-17)
(2.54025 1.0209 -1.24047e-19)
(2.87091 0.569359 7.33055e-18)
(2.85031 0.389978 7.08336e-18)
(2.71746 0.534035 -1.14424e-17)
(2.76014 0.749217 1.37468e-18)
(2.44039 0.726041 -3.22408e-18)
(2.53322 0.747827 0)
(2.9233 0.360358 5.72298e-18)
(3.09184 0.424973 0)
(3.00745 0.352785 0)
(3.13982 0.482357 3.45711e-18)
(2.98979 0.798264 -5.33493e-20)
(2.8363 0.342153 -1.86528e-18)
(3.05924 0.28899 0)
(3.03058 0.100003 6.91374e-18)
(2.93254 -0.140804 8.56201e-18)
(3.21546 0.14485 -6.6694e-18)
(3.0767 0.302542 -5.75603e-18)
(2.96025 -0.109123 -8.5023e-18)
(2.81422 0.514203 0)
(2.94514 0.081803 0)
(2.80096 0.221771 -4.91944e-18)
(2.78698 -0.106361 1.80605e-18)
(3.10946 0.374251 7.59562e-18)
(3.18036 0.278099 -9.60668e-18)
(2.94294 0.335962 8.40752e-18)
(2.83993 0.451884 0)
(3.12199 0.394871 0)
(2.86644 0.204872 -4.01103e-18)
(2.97564 0.171974 -6.29777e-18)
(1.47956 2.67985 2.32173e-18)
(1.52445 2.4408 -2.33872e-18)
(1.56465 2.35019 -3.50339e-18)
(1.55203 2.39224 8.92208e-19)
(1.53916 2.35966 -8.59848e-18)
(1.62485 2.32587 3.20018e-18)
(1.49989 2.14988 -1.84136e-20)
(1.57963 2.40895 -3.80834e-18)
(1.50407 2.39456 5.7201e-18)
(1.57138 2.43634 1.73417e-18)
(1.65298 2.36413 -1.75016e-18)
(1.58915 2.34203 0)
(1.88587 2.46064 -3.95345e-19)
(1.4648 1.63401 2.67473e-18)
(1.62456 1.44059 3.68976e-18)
(1.62027 1.339 4.19701e-18)
(1.84354 1.42907 4.3338e-18)
(1.92047 1.35775 -7.30358e-18)
(1.85756 1.55007 5.93315e-18)
(1.79154 1.4037 -2.17207e-18)
(1.7632 1.34393 4.82371e-18)
(2.39546 0.819042 -2.7293e-18)
(2.26645 0.945748 0)
(2.24015 0.822164 -3.97892e-21)
(2.25435 1.25391 2.58716e-18)
(1.94118 1.40967 -9.36516e-18)
(2.00056 1.32279 2.69974e-20)
(2.0879 1.26185 0)
(2.14417 1.90215 3.07323e-18)
(2.4452 1.87223 4.10665e-18)
(2.23963 2.2897 -4.71734e-18)
(2.47013 1.96599 -1.80125e-18)
(2.73566 2.08107 -6.67544e-19)
(2.7254 2.35204 6.85162e-19)
(2.51325 1.60295 -6.31345e-18)
(2.52711 2.05433 1.68085e-18)
(2.94138 1.89785 0)
(2.79835 1.78447 -2.5296e-18)
(2.72901 0.753286 2.35466e-18)
(3.04823 1.03317 4.59235e-18)
(3.12216 0.720561 4.20306e-18)
(2.88634 1.06215 -4.54266e-18)
(3.19703 1.00431 0)
(3.21375 0.920562 0)
(2.43119 1.11417 -1.26591e-19)
(2.55016 0.707232 0)
(2.32013 0.74022 3.25252e-18)
(2.70234 0.810076 -8.49773e-20)
(2.80029 1.3581 1.87434e-17)
(2.59705 1.38638 4.90927e-18)
(2.54287 1.26062 -4.67895e-18)
(2.46194 1.13302 5.0149e-18)
(2.37554 1.44148 2.76485e-18)
(2.27265 1.15505 -2.67605e-18)
(3.13139 0.225571 7.93684e-18)
(2.92779 -0.219051 0)
(2.92123 -0.0192308 5.34561e-18)
(2.75983 0.328725 -1.19615e-17)
(3.17026 -0.0428648 5.73155e-18)
(2.96555 0.102716 -1.20929e-17)
(3.17251 -0.031068 0)
(3.06257 -0.0549871 -2.50622e-18)
(3.071 0.16951 6.31194e-18)
(2.99783 -0.0170157 -3.25021e-18)
(2.93481 -0.217992 2.35868e-18)
(-0.184153 3.39444 0)
(0.323867 3.30327 0)
(-0.0913425 3.38168 0)
(-0.0440769 3.3944 0)
(0.0370467 3.47227 3.94663e-18)
(0.00034761 3.48688 -1.14907e-18)
(0.18004 3.06378 -1.11687e-18)
(0.31038 3.0674 1.27334e-18)
(-0.30018 3.44122 -2.58724e-18)
(0.109782 3.17928 1.97069e-18)
(0.0386095 3.43337 1.62303e-20)
(0.008167 3.3115 -2.49858e-18)
(0.13427 3.34685 -3.38934e-19)
(0.409807 3.30442 -3.0585e-19)
(0.0201253 3.2607 -2.27261e-18)
(0.119822 3.16822 0)
(0.00571244 3.29715 1.06736e-18)
(0.139031 3.3075 9.82025e-19)
(0.312683 3.07089 -8.92599e-19)
(0.146741 3.20736 0)
(0.382792 2.99387 -3.70549e-18)
(0.288348 3.03747 2.64988e-18)
(0.520206 3.11127 -2.39246e-18)
(0.35936 2.99523 1.35071e-18)
(0.00847889 2.74867 0)
(0.154901 3.09952 -2.4087e-18)
(-0.0859269 3.08272 -2.68925e-18)
(-0.0241121 3.27611 0)
(0.0362617 3.40532 -1.6807e-20)
(0.0133156 3.45938 1.16597e-18)
(-0.00913573 3.37163 2.05046e-19)
(0.0913054 3.3088 -3.10673e-18)
(-0.143679 3.43866 8.71478e-19)
(-0.104148 2.90061 1.07391e-18)
(0.164535 3.53145 0)
(-0.0669055 3.462 0)
(-0.229485 3.40472 9.01928e-19)
(0.211141 3.34478 -2.76322e-19)
(-0.0796442 3.38996 0)
(0.133165 3.37351 7.25927e-19)
(0.104746 3.32232 -1.40282e-18)
(2.91485 0.514005 0)
(3.28967 0.164595 -8.3171e-19)
(2.92062 0.190269 -5.84728e-18)
(2.80541 0.0345227 0)
(2.83482 -0.298073 0)
(3.19579 -0.171197 -8.00938e-20)
(3.01256 -0.337022 9.46417e-18)
(2.98032 -0.032645 1.14761e-17)
(3.09506 0.0137363 0)
(3.11373 0.00784318 0)
(3.02023 -0.092022 5.65026e-18)
(2.99195 0.0875366 0)
(2.94275 0.238638 0)
(-0.0917535 3.45133 0)
(-0.0521268 3.06686 9.14987e-20)
(-0.101999 3.1087 3.14706e-19)
(-0.0116492 3.3478 0)
(0.356802 3.43148 5.6128e-19)
(0.0817158 3.37515 -2.42877e-19)
(0.0869569 3.20545 0)
(0.771199 2.95071 0)
(0.762564 2.82251 -5.75505e-18)
(0.706244 2.87243 0)
(1.06358 3.36792 7.00132e-18)
(1.19264 3.39752 0)
(1.14185 3.46905 -3.06573e-18)
(0.999671 2.49184 -1.11107e-19)
(1.2623 2.40597 -5.55537e-18)
(1.15153 2.34416 7.01027e-18)
(0.965784 2.54922 1.26022e-18)
(0.873709 2.59021 0)
(1.06959 2.59982 0)
(1.02315 2.52592 0)
(0.886478 2.42277 -4.495e-18)
(0.958531 2.70857 -3.41191e-18)
(0.752451 2.65036 -7.83153e-19)
(1.06796 2.90392 6.33992e-19)
(0.646381 2.67354 0)
(0.890772 2.58195 0)
(0.730412 2.5338 -1.22759e-18)
(0.787247 2.6496 0)
(1.64006 2.6489 0)
(1.92923 2.23168 -5.07151e-18)
(1.68161 2.03272 -3.05817e-19)
(1.88321 2.44021 0)
(1.85173 2.47177 7.73304e-18)
(2.17868 2.59347 -1.68806e-18)
(2.72441 2.29698 0)
(2.30686 1.99142 2.92901e-18)
(1.54255 2.76826 0)
(1.67975 2.28951 0)
(1.46574 2.351 -3.13204e-18)
(1.48875 2.4307 -2.37184e-18)
(1.59798 2.47002 4.11685e-18)
(1.45196 2.63836 -1.22648e-18)
(1.43298 2.41536 0)
(1.40721 2.46435 1.58102e-18)
(1.3745 2.34323 -2.41408e-18)
(1.31098 2.27628 1.66595e-20)
(1.35547 2.6523 0)
(1.3795 2.68956 -2.03952e-18)
(1.50736 2.64489 0)
(2.59685 0.515019 0)
(2.54301 0.556071 0)
(2.34656 0.585935 0)
(2.48759 0.787184 -5.1018e-18)
(2.45983 0.616747 2.82422e-18)
(2.99057 -0.0772444 -3.70599e-18)
(2.79983 0.112081 0)
(2.77586 0.115141 1.5408e-18)
(2.7055 0.333283 6.12611e-18)
(2.60582 0.122002 -3.93535e-18)
(1.52415 2.66083 2.89202e-18)
(1.52151 2.50393 0)
(1.22954 2.63457 5.2666e-18)
(0.981521 2.43259 -4.81044e-18)
(1.13643 2.29907 -3.28942e-18)
(1.62792 2.20708 4.22291e-18)
(1.6141 2.31559 0)
(1.74208 1.61919 -8.64171e-19)
(1.58674 1.93551 5.7728e-18)
(1.66615 1.71462 -1.33883e-18)
(1.87295 1.55764 1.39988e-18)
(2.01064 1.61584 3.29782e-18)
(2.26556 1.50961 0)
(1.90133 1.77543 0)
(1.80007 1.69871 0)
(2.76481 1.73044 2.048e-18)
(2.69208 1.37362 -4.70075e-18)
(2.83814 1.52924 4.22085e-18)
(2.70647 1.1616 -3.80741e-18)
(3.00916 1.60629 0)
(2.88724 1.60199 -1.30083e-18)
(2.54987 0.968712 -6.54761e-18)
(2.5041 0.806219 -8.41591e-18)
(2.2494 1.20255 5.06651e-18)
(2.25677 1.13963 -4.81093e-18)
(2.48982 0.974519 -3.97363e-18)
(2.43198 0.969143 4.92802e-18)
(3.15575 -0.000720646 -6.09555e-18)
(3.26514 0.0914826 1.26238e-17)
(3.20466 0.0799473 7.67571e-18)
(3.2578 -0.211229 -9.27411e-18)
(2.59402 0.0453018 0)
(2.57935 -0.0322929 -1.50431e-17)
(0.186387 3.10574 4.84633e-19)
(-0.111364 3.27921 0)
(0.277743 3.42869 4.07475e-18)
(0.223234 3.33133 -3.72932e-18)
(0.149512 3.45534 2.05331e-18)
(0.219057 3.42803 0)
(-0.085993 3.44893 0)
(0.18952 3.14815 -3.05211e-19)
(0.0440041 3.14467 2.73553e-19)
(0.313327 3.11995 5.48348e-20)
(-0.396346 3.36161 -5.37479e-19)
(-0.180479 3.30737 2.67416e-19)
(1.2647 2.89701 -6.13601e-18)
(1.36161 2.93241 6.4429e-18)
(1.00609 3.31444 -3.91133e-18)
(1.31355 3.00744 2.91508e-19)
(1.38456 3.36455 0)
(1.44302 3.37891 -3.78523e-18)
(1.38192 3.27826 3.67219e-18)
(1.15981 3.18602 3.8584e-18)
(1.36032 3.1936 0)
(1.60588 3.18747 0)
(1.14404 2.67078 5.18052e-18)
(0.619866 2.8699 6.45487e-18)
(0.507787 2.78656 -4.48416e-18)
(0.402397 2.86911 -7.34405e-19)
(0.705846 2.79971 1.57215e-18)
(0.60793 2.5567 -3.73989e-18)
(1.20004 2.44305 -3.99447e-18)
(1.23385 2.40998 0)
(1.14863 2.32429 -4.43532e-18)
(1.40876 2.49171 0)
(1.17387 2.69091 0)
(1.47766 2.35232 -3.5945e-18)
(1.47402 2.45018 -3.48791e-18)
(1.29003 2.47457 3.60892e-18)
(1.24338 1.7617 0)
(1.65555 1.80677 -1.89142e-18)
(1.54261 2.03558 -2.75685e-18)
(1.55411 2.13956 0)
(1.43762 2.16306 2.38158e-18)
(1.37311 1.94079 0)
(2.19957 1.94446 -6.47599e-18)
(2.28749 2.03765 9.35771e-18)
(2.46625 1.78705 -9.21815e-18)
(2.04862 1.65951 -7.957e-19)
(2.11665 1.66473 -3.34034e-18)
(1.57833 2.39644 2.61258e-18)
(1.57399 2.39878 -4.5818e-18)
(1.47463 2.33699 5.93438e-18)
(1.62797 2.29407 -3.87209e-18)
(1.56854 2.6319 -5.39769e-18)
(1.56411 2.4616 -4.24569e-19)
(1.58287 2.39581 4.67247e-18)
(1.59646 2.47704 3.21927e-19)
(1.63951 2.4077 2.24113e-18)
)
;

boundaryField
{
    wall-4
    {
        type            noSlip;
    }
    velocity-inlet-5
    {
        type            fixedValue;
        value           uniform (3 0 0);
    }
    velocity-inlet-6
    {
        type            fixedValue;
        value           uniform (0 1 0);
    }
    pressure-outlet-7
    {
        type            zeroGradient;
    }
    wall-8
    {
        type            noSlip;
    }
    frontAndBackPlanes
    {
        type            empty;
    }
}


// ************************************************************************* //
