/*--------------------------------*- C++ -*----------------------------------*\
  =========                 |
  \\      /  F ield         | OpenFOAM: The Open Source CFD Toolbox
   \\    /   O peration     | Website:  https://openfoam.org
    \\  /    A nd           | Version:  9
     \\/     M anipulation  |
\*---------------------------------------------------------------------------*/
FoamFile
{
    format      ascii;
    class       volScalarField;
    location    "0.6";
    object      epsilon;
}
// * * * * * * * * * * * * * * * * * * * * * * * * * * * * * * * * * * * * * //

dimensions      [0 2 -3 0 0 0 0];

internalField   nonuniform List<scalar> 
2268
(
0.0288072
0.0833754
0.144832
0.206921
0.259849
0.306214
0.349316
0.391948
0.433851
0.473754
0.510879
0.54386
0.571034
0.590208
0.597707
0.592778
0.568764
0.521903
0.452395
0.364639
0.280197
0.199224
0.145254
0.0365043
0.0572919
0.0843672
0.111861
0.135966
0.157066
0.176483
0.194946
0.21274
0.229774
0.245816
0.260472
0.273238
0.283432
0.290113
0.293676
0.292523
0.284952
0.269684
0.244226
0.209618
0.167001
0.168656
0.0450865
0.0525529
0.0736767
0.0950546
0.113771
0.129808
0.144257
0.15784
0.170844
0.183334
0.195232
0.20635
0.216429
0.225122
0.232023
0.237273
0.240248
0.240143
0.236007
0.225926
0.208867
0.190272
0.249612
0.0473529
0.0518936
0.0706682
0.0893113
0.105589
0.119637
0.132229
0.143932
0.15506
0.165756
0.17603
0.185792
0.194895
0.203139
0.210323
0.216471
0.221308
0.224417
0.225162
0.222452
0.216466
0.219131
0.346332
0.0486474
0.0535115
0.0704226
0.0873001
0.102275
0.115343
0.127023
0.137782
0.14795
0.157724
0.167175
0.176275
0.184944
0.193069
0.200544
0.207353
0.213394
0.21849
0.222344
0.224752
0.227918
0.250106
0.448221
0.0502763
0.0566334
0.0721743
0.0877199
0.101794
0.114216
0.125306
0.135466
0.145034
0.154247
0.163216
0.171953
0.180426
0.188576
0.196347
0.203725
0.21072
0.217344
0.223652
0.23032
0.241739
0.283037
0.55924
0.0521098
0.0619301
0.0760852
0.0903383
0.103553
0.115339
0.125875
0.135519
0.144616
0.153423
0.16207
0.170592
0.178986
0.187236
0.19531
0.203225
0.211078
0.21904
0.227499
0.237908
0.256737
0.318124
0.707545
0.0587264
0.0708681
0.0826286
0.095244
0.107355
0.118299
0.12815
0.13723
0.145872
0.154333
0.162738
0.171121
0.179499
0.187884
0.196276
0.204726
0.213402
0.222607
0.233004
0.246585
0.271148
0.350859
1.03914
0.423552
1.03248
1.11372
3.14101
10.4383
19.0656
26.3412
32.5675
37.4737
39.0848
36.8923
32.1664
27.4213
23.889
21.1234
17.4974
12.5404
7.56031
2.23198
0.453358
0.756167
2.08878
9.99599
15.685
17.1285
18.6387
20.6082
22.3947
23.0789
21.6336
18.4787
15.1922
12.5575
10.3438
8.12636
5.91626
4.05091
2.41238
0.623256
0.993819
3.31663
12.9705
16.842
17.3396
19.5064
21.9583
22.6468
21.6812
19.9613
17.5869
13.6733
10.7501
8.4887
6.46866
4.75548
3.53771
2.8342
0.762266
1.31327
3.90823
14.6428
17.9859
18.6555
20.6755
21.5183
20.4429
18.6568
17.1983
15.8653
12.7528
9.67103
7.33332
5.44465
4.07224
3.20599
3.03421
0.880897
1.43181
3.58973
14.3957
18.3071
19.1654
20.5676
19.82
17.9636
15.9299
14.2128
12.6746
11.1281
8.72061
6.2831
4.59117
3.52911
2.91229
3.15641
1.03188
1.33465
3.29221
12.0487
16.8463
17.7929
18.4392
17.44
15.4814
13.4985
11.8722
10.5727
9.51714
7.64347
5.26962
3.89674
3.10195
2.67627
3.26039
1.26512
1.3221
3.54566
9.5669
13.8326
15.0353
15.5484
14.7502
13.1053
11.4192
10.02
9.09334
8.18051
6.46544
4.42106
3.37583
2.78679
2.50912
3.37153
1.64631
1.37287
4.08634
7.96699
10.9344
12.1426
12.5684
12.1205
10.9324
9.64696
8.52141
7.77426
6.96162
5.43854
3.7856
3.01243
2.57193
2.40589
3.50537
0.097164
0.0901408
0.0961609
0.1059
0.11586
0.125119
0.133666
0.141754
0.149666
0.157626
0.16573
0.17397
0.182364
0.190994
0.199908
0.209206
0.219147
0.230181
0.243265
0.260659
0.288928
0.351467
0.545487
0.178306
0.13354
0.126686
0.129198
0.133797
0.139242
0.145137
0.151409
0.15815
0.165467
0.173326
0.181468
0.189865
0.198819
0.208447
0.218891
0.23043
0.243497
0.259064
0.278766
0.305933
0.349031
0.423574
0.269652
0.180653
0.157404
0.152072
0.151453
0.153547
0.157223
0.162066
0.167984
0.17505
0.183149
0.191201
0.19931
0.208538
0.218865
0.230386
0.243337
0.258022
0.275136
0.29534
0.319769
0.35112
0.390822
0.333842
0.193949
0.175058
0.167225
0.164406
0.164622
0.166859
0.170859
0.176633
0.184174
0.19273
0.201181
0.209696
0.21938
0.230236
0.242431
0.256521
0.27257
0.290444
0.310058
0.332202
0.357732
0.386326
0.337676
0.1939
0.175193
0.170482
0.169599
0.170541
0.172837
0.17659
0.182078
0.189401
0.197998
0.207079
0.216898
0.227904
0.240409
0.253967
0.268684
0.285567
0.303385
0.322273
0.343284
0.365995
0.390398
0.33302
0.188221
0.169987
0.167181
0.168301
0.170945
0.174587
0.179296
0.185285
0.19265
0.201084
0.210171
0.220164
0.231728
0.244828
0.259115
0.274327
0.291406
0.310275
0.330235
0.351454
0.373135
0.396094
0.326908
0.181252
0.162978
0.161042
0.163532
0.167744
0.172947
0.179036
0.186095
0.194149
0.20302
0.212473
0.222676
0.234108
0.246884
0.260858
0.276151
0.29322
0.311711
0.331288
0.352604
0.375908
0.401435
0.320395
0.174585
0.155698
0.153857
0.157001
0.162236
0.168654
0.175989
0.184191
0.193222
0.202939
0.213175
0.224004
0.235711
0.248459
0.26222
0.277095
0.293385
0.311238
0.330839
0.352613
0.376395
0.401838
0.31492
0.168322
0.148574
0.146399
0.149658
0.155362
0.162498
0.170686
0.179779
0.189682
0.200272
0.211419
0.223097
0.235437
0.248549
0.26245
0.277213
0.293046
0.310196
0.328917
0.349513
0.372149
0.397128
0.309256
0.162225
0.141673
0.138961
0.14199
0.147735
0.155131
0.163738
0.173351
0.183838
0.195078
0.206954
0.219409
0.232451
0.246108
0.260386
0.275331
0.291099
0.307909
0.326019
0.345758
0.367553
0.392116
0.302374
0.156037
0.134928
0.131646
0.134253
0.139747
0.147051
0.155701
0.165466
0.176201
0.187784
0.200104
0.213078
0.22666
0.240821
0.255536
0.270827
0.286797
0.303631
0.321591
0.34106
0.362625
0.387244
0.293742
0.149629
0.128287
0.124509
0.126607
0.13167
0.138635
0.147039
0.156649
0.16732
0.178937
0.191398
0.204611
0.218505
0.233019
0.248111
0.26378
0.280098
0.297227
0.315436
0.335161
0.357107
0.382454
0.28327
0.142988
0.121757
0.117599
0.119182
0.12371
0.130178
0.138135
0.147357
0.157713
0.169102
0.181436
0.194631
0.20861
0.223306
0.238671
0.254693
0.271428
0.289024
0.307759
0.328111
0.350891
0.37749
0.271212
0.136194
0.115388
0.110972
0.112082
0.116042
0.121915
0.129296
0.137974
0.147833
0.158796
0.170796
0.183767
0.197647
0.212376
0.227913
0.244248
0.261431
0.279603
0.299048
0.320276
0.344183
0.372352
0.258033
0.129387
0.109262
0.1047
0.10539
0.108799
0.114045
0.12077
0.128808
0.138055
0.14846
0.159983
0.172587
0.186233
0.200885
0.21652
0.233138
0.250794
0.269626
0.28992
0.312203
0.337434
0.367333
0.244291
0.122737
0.103473
0.0988582
0.0991824
0.102073
0.106708
0.112761
0.1201
0.128675
0.138447
0.149408
0.161555
0.174883
0.18939
0.205078
0.22197
0.240132
0.259705
0.280973
0.304467
0.331169
0.362864
0.230556
0.116417
0.0981208
0.0935183
0.0935273
0.0959374
0.0999922
0.105397
0.112045
0.119912
0.129021
0.13938
0.151027
0.163994
0.17832
0.194044
0.211221
0.229933
0.250332
0.272696
0.297546
0.325847
0.359365
0.217349
0.110591
0.0932979
0.0887462
0.0884785
0.0904464
0.0939572
0.0987503
0.104741
0.11193
0.120364
0.130115
0.141251
0.153846
0.167982
0.183745
0.201226
0.22054
0.241849
0.265428
0.291773
0.321794
0.357156
0.205112
0.105406
0.089087
0.0845966
0.0840767
0.0856346
0.0886384
0.0928599
0.0982378
0.104794
0.112598
0.121752
0.132379
0.144611
0.158565
0.174381
0.192195
0.21216
0.234459
0.259363
0.287332
0.319189
0.356431
0.194191
0.10098
0.0855562
0.0811118
0.0803483
0.0815189
0.0840485
0.0877383
0.0925478
0.0985188
0.105745
0.114354
0.124505
0.136376
0.150165
0.166051
0.184226
0.204886
0.228243
0.254569
0.284279
0.31809
0.357279
0.184836
0.0974051
0.0827563
0.0783195
0.0773053
0.0781004
0.0801811
0.0833742
0.0876573
0.0930898
0.0997858
0.107901
0.117627
0.129183
0.142812
0.158775
0.177334
0.198722
0.223191
0.25102
0.282578
0.318463
0.359706
0.17721
0.094743
0.080719
0.0762319
0.0749451
0.0753653
0.0770136
0.0797383
0.0835315
0.0884669
0.0946768
0.102342
0.111685
0.122967
0.136479
0.152537
0.171467
0.193605
0.219225
0.248621
0.282123
0.32021
0.363663
0.171391
0.0930248
0.0794548
0.0748444
0.0732509
0.0732866
0.0745104
0.0767874
0.0801198
0.0845924
0.0903526
0.0976027
0.106596
0.117634
0.131058
0.147239
0.166565
0.189426
0.216214
0.247223
0.282756
0.32318
0.369042
0.167392
0.0922518
0.078953
0.0741351
0.0721916
0.0718252
0.0726252
0.074468
0.0773617
0.081398
0.086736
0.0935968
0.102262
0.113071
0.126417
0.142731
0.162465
0.186072
0.213986
0.246631
0.284266
0.327169
0.375678
0.165168
0.0923978
0.0791815
0.0740653
0.0717227
0.0709315
0.0713033
0.0727198
0.0751902
0.078809
0.0837432
0.0902292
0.0985737
0.109154
0.122412
0.138843
0.158971
0.183316
0.212372
0.246598
0.286384
0.331901
0.383323
0.164641
0.0934137
0.0800892
0.0745812
0.0717881
0.0705473
0.0704839
0.0714783
0.0735358
0.0767493
0.0812892
0.0874036
0.0954211
0.105753
0.118892
0.135395
0.155865
0.180903
0.211075
0.246876
0.288763
0.337007
0.391612
0.165719
0.0952333
0.0816094
0.0756161
0.0723226
0.0706086
0.0701029
0.0706781
0.0723299
0.0751448
0.0792923
0.0850276
0.0926966
0.102742
0.115701
0.132198
0.152916
0.178549
0.20975
0.247087
0.291028
0.342002
0.400023
0.168315
0.0977812
0.0836645
0.0770949
0.0732552
0.0710481
0.0700957
0.0702554
0.0715077
0.0739274
0.0776783
0.0830175
0.0903029
0.100002
0.112694
0.129067
0.149886
0.175949
0.208019
0.24676
0.292711
0.346304
0.407857
0.172367
0.100986
0.0861724
0.0789388
0.0745132
0.0717991
0.0704004
0.0701512
0.0710111
0.0730379
0.0763843
0.0813034
0.0881583
0.0974335
0.109744
0.125834
0.146551
0.172803
0.205479
0.245376
0.293148
0.349304
0.414216
0.177905
0.104785
0.0890515
0.08107
0.0760265
0.072799
0.0709602
0.0703137
0.0707913
0.0724287
0.0753617
0.0798329
0.0862027
0.0949635
0.106754
0.122364
0.142718
0.168834
0.201742
0.242398
0.29162
0.350067
0.418215
0.184733
0.10907
0.0922208
0.083417
0.0777317
0.0739923
0.071727
0.0707003
0.0708107
0.0720658
0.0745789
0.078575
0.0844026
0.0925509
0.103667
0.118572
0.138251
0.163825
0.196469
0.237324
0.287413
0.3476
0.418566
0.192811
0.113773
0.0956164
0.0859205
0.0795766
0.0753341
0.0726632
0.0712805
0.0710449
0.0719308
0.0740229
0.0775215
0.0827543
0.0901937
0.100479
0.114439
0.133097
0.157655
0.189429
0.229753
0.279885
0.340952
0.413911
0.202218
0.11887
0.0992002
0.0885389
0.0815225
0.0767924
0.0737442
0.0720372
0.0714846
0.072022
0.0737005
0.076689
0.081285
0.0879311
0.0972398
0.110021
0.127305
0.150339
0.180551
0.219459
0.268576
0.329324
0.402997
0.213186
0.124401
0.10297
0.0912521
0.0835472
0.0783498
0.0749604
0.0729693
0.0721371
0.0723561
0.073639
0.0761181
0.0800523
0.0858426
0.0940558
0.105456
0.121038
0.142049
0.169975
0.206484
0.253323
0.312231
0.384874
0.226285
0.130542
0.106975
0.0940649
0.0856448
0.0800049
0.0763193
0.0740941
0.0730292
0.0729698
0.0738874
0.0758733
0.0791425
0.0840444
0.091084
0.100953
0.114571
0.133126
0.158089
0.191199
0.234388
0.289683
0.359131
0.242686
0.137689
0.111326
0.0970011
0.0878215
0.0817707
0.0778474
0.0754506
0.0742108
0.0739237
0.0745181
0.0760437
0.0786682
0.0826832
0.0885206
0.0967799
0.10827
0.124057
0.145516
0.174345
0.212548
0.262363
0.326166
0.263634
0.146303
0.116162
0.10008
0.0900818
0.0836714
0.0795921
0.0771045
0.0757608
0.0753066
0.0756313
0.0767445
0.0787669
0.0819307
0.086589
0.0932372
0.102548
0.115424
0.133055
0.156976
0.189105
0.231723
0.287411
0.292399
0.157298
0.121626
0.103263
0.0924015
0.085735
0.0816253
0.0791555
0.0777949
0.0772445
0.0773615
0.078122
0.0796039
0.0819816
0.0855299
0.0906374
0.0978327
0.107826
0.121568
0.140324
0.165744
0.199924
0.245409
0.336611
0.172231
0.127661
0.106319
0.0946794
0.0879887
0.0840528
0.0817503
0.0804785
0.0799113
0.0798886
0.0803638
0.0813793
0.0830575
0.0855996
0.0892923
0.0945238
0.101812
0.11185
0.12557
0.144227
0.169495
0.203556
0.41685
0.193071
0.133269
0.108545
0.0966837
0.0904712
0.087039
0.0851048
0.0840457
0.0835464
0.0834535
0.0837128
0.0843421
0.0854193
0.0870794
0.0895162
0.0929904
0.0978445
0.104529
0.113646
0.126011
0.142742
0.165373
0.61709
0.218602
0.134489
0.108415
0.098096
0.0933154
0.0908661
0.0895424
0.0888269
0.0884773
0.0883795
0.08849
0.088813
0.0893903
0.0902986
0.0916489
0.0935893
0.0963107
0.100057
0.105144
0.111992
0.121175
0.133492
1.59952
0.216047
0.120889
0.103943
0.0989466
0.0969732
0.0960375
0.0955474
0.0952833
0.0951498
0.095103
0.0951258
0.0952179
0.0953923
0.095674
0.0960994
0.0967169
0.0975868
0.098783
0.100396
0.102537
0.10535
0.109031
1.47502
1.19888
1.11672
1.26419
0.510814
0.532362
0.550147
0.584913
0.423029
0.443978
0.46809
0.501785
0.409669
0.427428
0.449146
0.477849
0.41118
0.427157
0.446255
0.469999
0.416306
0.431366
0.448668
0.468973
0.422059
0.437085
0.453894
0.472919
0.423169
0.439018
0.456404
0.475849
0.418442
0.434286
0.451948
0.471807
0.413366
0.429196
0.446916
0.467005
0.408892
0.425135
0.443506
0.46459
0.405143
0.422283
0.4419
0.464707
0.401698
0.420067
0.441309
0.466274
0.398311
0.418035
0.440999
0.468167
0.395067
0.416087
0.440616
0.469678
0.392257
0.414396
0.440161
0.470572
0.390235
0.413264
0.439872
0.470997
0.389322
0.413033
0.440126
0.471403
0.38977
0.414018
0.441348
0.472395
0.391747
0.416476
0.443935
0.474583
0.395348
0.42059
0.448203
0.478482
0.400607
0.426467
0.454366
0.484456
0.407494
0.43414
0.46254
0.492728
0.415913
0.443562
0.472738
0.503382
0.425679
0.454579
0.484848
0.516352
0.436459
0.466886
0.498593
0.531392
0.447736
0.47999
0.513487
0.548022
0.458775
0.493123
0.528769
0.565473
0.468599
0.505251
0.543367
0.582623
0.475962
0.515021
0.555819
0.597947
0.479578
0.521008
0.56444
0.609524
0.477728
0.521323
0.567303
0.615325
0.468694
0.513914
0.561986
0.612612
0.451006
0.49693
0.546205
0.598612
0.423741
0.469059
0.518196
0.571045
0.386863
0.429916
0.477143
0.528566
0.341576
0.380473
0.423686
0.471374
0.290558
0.323405
0.3604
0.401824
0.237873
0.263142
0.291988
0.32478
0.188272
0.205261
0.224854
0.247423
0.145816
0.154948
0.165501
0.177733
0.112593
0.115188
0.118146
0.121546
0.853282
1.326
3.74219
6.56319
8.0677
8.55977
8.69386
8.53358
8.34654
7.75382
6.96138
6.30549
5.43545
4.25254
3.22305
2.71687
2.4096
2.34721
3.6876
0.667518
1.20237
3.20574
6.96936
7.84188
7.06678
6.63408
6.35937
6.10157
5.88427
5.46816
4.82491
4.06974
3.33152
2.83891
2.54331
2.34698
2.37064
4.00859
0.587283
0.922453
2.06298
5.93604
8.00974
6.66148
5.76015
5.30329
5.04556
4.87922
4.74941
4.10901
3.47389
3.04885
2.76953
2.55772
2.39254
2.43712
4.243
0.544715
0.747714
1.26286
2.70825
5.20264
5.93082
5.49991
4.94681
4.6223
4.41846
4.54712
4.02962
3.43276
3.1529
2.94565
2.7202
2.50915
2.51155
4.36136
0.521091
0.651645
0.915569
1.47954
2.43678
3.51981
4.06125
4.11068
4.02804
3.85669
4.18279
4.10226
3.66354
3.54929
3.30894
2.96621
2.63667
2.55154
4.34493
0.509796
0.599752
0.756982
1.02856
1.45429
1.99985
2.42652
2.74387
2.97671
3.33004
3.93928
3.92138
4.21647
4.21953
3.77263
3.19244
2.69374
2.50692
4.17137
0.509403
0.581032
0.692905
0.856782
1.09412
1.39969
1.7115
2.02285
2.36482
2.88386
3.72299
4.61946
5.29903
5.06091
4.16853
3.29068
2.638
2.33933
3.66846
0.515026
0.582761
0.686767
0.813367
0.991929
1.21974
1.49691
1.84492
2.35113
3.21649
4.58962
6.06134
6.65347
5.6854
4.27928
3.20566
2.49763
2.09622
2.86331
0.509738
0.580627
0.68753
0.83267
1.03474
1.26866
1.59404
2.05904
2.8204
4.13313
6.02617
7.65764
7.37397
5.67562
4.08203
3.05453
2.41252
1.95445
2.18245
0.505693
0.580433
0.693197
0.858252
1.11043
1.45407
1.93309
2.5848
3.65922
5.41304
7.55412
8.20238
7.03853
5.25189
3.73297
3.00696
2.45249
2.09386
1.95221
0.505722
0.587236
0.713832
0.911653
1.22058
1.6795
2.35245
3.27485
4.65872
6.7815
8.58008
8.14155
6.71439
4.83123
3.34268
2.68356
2.53687
2.17587
2.49705
0.509791
0.602143
0.750258
0.992449
1.38695
2.00204
2.8991
4.04497
5.49937
7.17279
8.38826
8.29864
7.16117
4.68952
3.0372
2.29824
2.18694
2.35314
2.55736
0.516168
0.621667
0.795674
1.08929
1.57962
2.35619
3.42585
4.63603
5.82791
6.97207
7.91619
7.90674
7.01415
4.55566
2.85023
2.12848
1.96192
2.25639
1.79604
0.52281
0.640935
0.839386
1.18134
1.7567
2.62135
3.72493
4.84072
5.75624
6.46664
6.84015
6.49774
5.58104
4.21351
2.77604
2.15464
1.93492
1.94349
1.44595
0.528179
0.65574
0.871194
1.24435
1.84893
2.72077
3.76545
4.7359
5.42074
5.80301
5.83214
5.38553
4.70469
3.86302
2.91847
2.35645
2.1409
2.04609
1.85843
0.531495
0.663595
0.885111
1.25685
1.84124
2.65613
3.59477
4.42517
4.95378
5.1628
5.09017
4.79034
4.43138
3.90606
3.16987
2.69864
2.42689
2.22876
2.35075
0.532717
0.663776
0.878107
1.22418
1.75262
2.47186
3.28523
3.99371
4.43016
4.58793
4.5649
4.49341
4.47136
4.21673
3.52689
3.11969
2.74326
2.38086
2.67925
0.532509
0.6579
0.855021
1.16133
1.61535
2.22206
2.90548
3.5077
3.8925
4.06674
4.16431
4.34631
4.62115
4.54707
3.9084
3.36723
2.83523
2.44874
2.82077
0.531953
0.648831
0.823594
1.08505
1.46045
1.95387
2.51169
3.01813
3.36994
3.58576
3.81634
4.22161
4.72301
4.84128
4.35146
3.39102
2.71405
2.39224
2.81346
0.532209
0.639623
0.791316
1.00902
1.31116
1.70126
2.14483
2.56377
2.88696
3.14102
3.47374
4.02786
4.70833
5.16993
4.67521
3.35775
2.65726
2.37275
2.79954
0.534271
0.632781
0.764102
0.9427
1.18167
1.48422
1.82997
2.17051
2.46266
2.73619
3.12052
3.73781
4.56032
5.3729
4.78387
3.37894
2.69385
2.45366
2.96844
0.538838
0.629821
0.744178
0.891182
1.07944
1.31167
1.57715
1.84976
2.10901
2.38485
2.77657
3.39097
4.29248
5.37826
4.80719
3.47384
2.81398
2.61382
3.41815
0.546355
0.631639
0.73271
0.855105
1.00418
1.18232
1.38522
1.60188
1.82791
2.09318
2.47643
3.07978
4.00833
5.17113
4.92267
3.68708
3.0107
2.83484
4.07137
0.557044
0.638683
0.730148
0.834269
0.954172
1.09205
1.24775
1.41991
1.61464
1.86302
2.23508
2.83941
3.79619
4.92496
4.98904
3.98743
3.26506
3.08817
4.85182
0.570921
0.651041
0.736414
0.827852
0.926918
1.03569
1.15668
1.2944
1.4617
1.69224
2.05598
2.67133
3.65634
4.78244
5.03607
4.2116
3.48096
3.35563
5.73225
0.587775
0.668492
0.751035
0.834651
0.919728
1.00822
1.10428
1.21608
1.36091
1.57574
1.93404
2.559
3.55078
4.66013
5.06705
4.306
3.60905
3.59664
6.58004
0.607132
0.690507
0.773227
0.85325
0.929987
1.00519
1.08401
1.17694
1.3044
1.50652
1.85987
2.48464
3.45393
4.51782
5.04143
4.35182
3.72327
3.79618
7.23414
0.628193
0.716209
0.801902
0.882086
0.955265
1.02287
1.09061
1.17052
1.28518
1.47695
1.82261
2.43192
3.35093
4.35155
4.95922
4.41911
3.8322
3.95621
7.62742
0.649754
0.744287
0.835587
0.919386
0.993253
1.05814
1.12
1.19183
1.29759
1.48028
1.81304
2.3901
3.23657
4.1643
4.8388
4.47184
3.93822
4.07946
7.73881
0.670125
0.772868
0.872271
0.962981
1.04153
1.1082
1.16886
1.23706
1.33738
1.51186
1.82674
2.3586
3.11977
3.96734
4.66173
4.53241
4.07128
4.17816
7.61579
0.687072
0.799385
0.909198
1.01002
1.09718
1.17003
1.23405
1.3029
1.40114
1.56867
1.86317
2.34418
3.01586
3.77053
4.42348
4.5979
4.25675
4.27018
7.33827
0.697889
0.820495
0.942672
1.05665
1.15633
1.23979
1.31175
1.38549
1.48493
1.64698
1.92025
2.34869
2.93007
3.5822
4.17486
4.53324
4.41349
4.38667
7.0728
0.699837
0.832077
0.967944
1.09771
1.2136
1.3121
1.3966
1.47935
1.58285
1.74025
1.99093
2.36491
2.8548
3.39743
3.90285
4.28261
4.51135
4.58755
6.99314
0.689271
0.830183
0.979212
1.12656
1.26178
1.37941
1.4809
1.57656
1.68643
1.83904
2.06485
2.38271
2.78374
3.22647
3.66441
4.07319
4.51959
4.82647
7.25015
0.663022
0.8103
0.970313
1.13527
1.29169
1.43165
1.55405
1.66631
1.78465
1.93208
2.13119
2.39303
2.71144
3.06885
3.4655
3.93461
4.56413
4.92337
7.31313
0.61881
0.768092
0.935455
1.11504
1.29247
1.45622
1.60227
1.73442
1.864
2.0074
2.1806
2.3908
2.63584
2.91743
3.27451
3.79673
4.59612
4.9362
6.71392
0.555982
0.700752
0.869636
1.05761
1.25275
1.43893
1.6091
1.76309
1.90715
2.05105
2.20461
2.37383
2.55833
2.76906
3.06418
3.56388
4.38051
5.01283
7.25893
0.476403
0.608509
0.770187
0.95761
1.16284
1.36634
1.55777
1.7328
1.893
2.04314
2.18797
2.3301
2.46954
2.6196
2.83549
3.22989
3.92249
4.99957
9.17729
0.384999
0.495982
0.639335
0.815017
1.01862
1.23022
1.43611
1.62781
1.80244
1.96077
2.10415
2.23208
2.34385
2.45062
2.59993
2.90143
3.50922
4.72668
9.9106
0.28988
0.371963
0.486317
0.64056
0.829308
1.03644
1.24621
1.44622
1.62904
1.79139
1.93178
2.04825
2.13922
2.21269
2.31049
2.55445
3.17604
4.68678
10.04
0.201304
0.249907
0.328552
0.464786
0.630995
0.821126
1.02224
1.21929
1.40008
1.55641
1.68281
1.7744
1.82623
1.8383
1.84152
1.97519
2.61533
4.20924
9.77864
0.128189
0.14332
0.180428
0.342134
0.494319
0.664486
0.849632
1.03543
1.20661
1.35043
1.45603
1.51114
1.49719
1.38516
1.14265
0.688956
0.790786
1.12171
6.72521
)
;

boundaryField
{
    leftWall
    {
        type            epsilonWallFunction;
        value           nonuniform List<scalar> 
50
(
0.0288072
0.0365043
0.0450865
0.0473529
0.0486474
0.0502763
0.0521098
0.0587264
0.097164
0.178306
0.269652
0.333842
0.337676
0.33302
0.326908
0.320395
0.31492
0.309256
0.302374
0.293742
0.28327
0.271212
0.258033
0.244291
0.230556
0.217349
0.205112
0.194191
0.184836
0.17721
0.171391
0.167392
0.165168
0.164641
0.165719
0.168315
0.172367
0.177905
0.184733
0.192811
0.202218
0.213186
0.226285
0.242686
0.263634
0.292399
0.336611
0.41685
0.61709
1.59952
)
;
    }
    rightWall
    {
        type            epsilonWallFunction;
        value           nonuniform List<scalar> 
50
(
2.23198
2.41238
2.8342
3.03421
3.15641
3.26039
3.37153
3.50537
3.6876
4.00859
4.243
4.36136
4.34493
4.17137
3.66846
2.86331
2.18245
1.95221
2.49705
2.55736
1.79604
1.44595
1.85843
2.35075
2.67925
2.82077
2.81346
2.79954
2.96844
3.41815
4.07137
4.85182
5.73225
6.58004
7.23414
7.62742
7.73881
7.61579
7.33827
7.0728
6.99314
7.25015
7.31313
6.71392
7.25893
9.17729
9.9106
10.04
9.77864
6.72521
)
;
    }
    lowerWall
    {
        type            epsilonWallFunction;
        value           nonuniform List<scalar> 
62
(
0.0288072
0.0833754
0.144832
0.206921
0.259849
0.306214
0.349316
0.391948
0.433851
0.473754
0.510879
0.54386
0.571034
0.590208
0.597707
0.592778
0.568764
0.521903
0.452395
0.364639
0.280197
0.199224
0.145254
0.145254
0.168656
0.249612
0.346332
0.448221
0.55924
0.707545
1.03914
1.47502
1.19888
1.11672
1.26419
0.423552
0.453358
0.623256
0.762266
0.880897
1.03188
1.26512
1.64631
0.423552
1.03248
1.11372
3.14101
10.4383
19.0656
26.3412
32.5675
37.4737
39.0848
36.8923
32.1664
27.4213
23.889
21.1234
17.4974
12.5404
7.56031
2.23198
)
;
    }
    atmosphere
    {
        type            inletOutlet;
        inletValue      uniform 0.1;
        value           nonuniform List<scalar> 
46
(
0.1
0.1
0.1
0.1
0.1
0.1
0.1
0.1
0.1
0.1
0.1
0.1
0.1
0.1
0.1
0.1
0.1
0.1
0.1
0.1
0.1
0.1
0.1
0.1
0.1
0.1
0.1
0.1
0.1
0.1
0.342134
0.494319
0.664486
0.849632
1.03543
1.20661
1.35043
1.45603
1.51114
1.49719
1.38516
1.14265
0.1
0.1
0.1
6.72521
)
;
    }
    defaultFaces
    {
        type            empty;
    }
}


// ************************************************************************* //
