/*--------------------------------*- C++ -*----------------------------------*\
  =========                 |
  \\      /  F ield         | OpenFOAM: The Open Source CFD Toolbox
   \\    /   O peration     | Website:  https://openfoam.org
    \\  /    A nd           | Version:  9
     \\/     M anipulation  |
\*---------------------------------------------------------------------------*/
FoamFile
{
    format      ascii;
    class       surfaceScalarField;
    location    "0.6";
    object      phi;
}
// * * * * * * * * * * * * * * * * * * * * * * * * * * * * * * * * * * * * * //

dimensions      [0 3 -1 0 0 0 0];

internalField   nonuniform List<scalar> 
4432
(
-4.94677e-06
4.94677e-06
-7.67881e-06
2.73204e-06
-7.39499e-06
-2.83814e-07
-5.89248e-06
-1.50251e-06
-4.14932e-06
-1.74316e-06
-2.50862e-06
-1.6407e-06
-1.08037e-06
-1.42825e-06
1.26143e-07
-1.20651e-06
1.13119e-06
-1.00505e-06
1.9746e-06
-8.4341e-07
2.68866e-06
-7.14052e-07
3.28047e-06
-5.91819e-07
3.73537e-06
-4.54887e-07
4.01822e-06
-2.82854e-07
4.04806e-06
-2.98434e-08
3.66847e-06
3.79591e-07
2.66333e-06
1.00514e-06
7.82909e-07
1.88043e-06
-2.12483e-06
2.90774e-06
-6.1714e-06
4.04656e-06
-9.84246e-06
3.67106e-06
-9.49653e-06
-3.45925e-07
-9.49653e-06
-4.08089e-06
9.02766e-06
-4.86255e-06
3.5137e-06
-4.14099e-06
-1.00538e-06
-2.86576e-06
-2.77773e-06
-1.47236e-06
-3.13657e-06
-1.79623e-07
-2.93343e-06
9.32463e-07
-2.54034e-06
1.84459e-06
-2.11864e-06
2.57488e-06
-1.73533e-06
3.15302e-06
-1.42156e-06
3.60534e-06
-1.16636e-06
3.93929e-06
-9.25775e-07
4.14619e-06
-6.61788e-07
4.20961e-06
-3.4627e-07
4.10223e-06
7.75428e-08
3.77341e-06
7.08409e-07
3.10531e-06
1.67324e-06
1.93534e-06
3.05039e-06
1.42359e-07
4.70073e-06
-2.09549e-06
6.28442e-06
-4.1299e-06
5.70546e-06
-4.76783e-06
2.92009e-07
-1.42644e-05
-2.45098e-06
1.14786e-05
-2.42847e-06
3.4912e-06
-1.66531e-06
-1.76855e-06
-6.1462e-07
-3.82842e-06
4.6338e-07
-4.21457e-06
1.43957e-06
-3.90962e-06
2.25879e-06
-3.35955e-06
2.90809e-06
-2.76795e-06
3.40044e-06
-2.22767e-06
3.76051e-06
-1.78163e-06
4.01041e-06
-1.41625e-06
4.15626e-06
-1.07163e-06
4.19283e-06
-6.98363e-07
4.11417e-06
-2.676e-07
3.91921e-06
2.72493e-07
3.59727e-06
1.03035e-06
3.11621e-06
2.1543e-06
2.42945e-06
3.73715e-06
1.5318e-06
5.59838e-06
6.15603e-07
7.20061e-06
-4.95865e-07
6.81693e-06
-8.78629e-07
6.74775e-07
-1.5143e-05
-7.81884e-07
1.22605e-05
-2.12087e-07
2.9214e-06
5.24256e-07
-2.50489e-06
1.3542e-06
-4.65836e-06
2.12848e-06
-4.98886e-06
2.7916e-06
-4.57274e-06
3.32532e-06
-3.89327e-06
3.72276e-06
-3.16539e-06
3.99219e-06
-2.49709e-06
4.15341e-06
-1.94287e-06
4.22515e-06
-1.48799e-06
4.21168e-06
-1.05816e-06
4.1097e-06
-5.96383e-07
3.92266e-06
-8.05577e-08
3.66756e-06
5.27598e-07
3.36514e-06
1.33277e-06
3.03027e-06
2.48917e-06
2.67732e-06
4.0901e-06
2.36655e-06
5.90915e-06
2.21906e-06
7.3481e-06
2.07259e-06
6.9634e-06
1.53052e-06
1.21684e-06
-1.36125e-05
9.40825e-07
1.13197e-05
1.7882e-06
2.07403e-06
2.55249e-06
-3.26918e-06
3.14099e-06
-5.24686e-06
3.59413e-06
-5.44199e-06
3.94593e-06
-4.92454e-06
4.20445e-06
-4.15179e-06
4.36302e-06
-3.32397e-06
4.42318e-06
-2.55724e-06
4.40011e-06
-1.9198e-06
4.31009e-06
-1.39796e-06
4.15581e-06
-9.03894e-07
3.93498e-06
-3.75547e-07
3.65849e-06
1.95931e-07
3.3592e-06
8.26884e-07
3.08191e-06
1.61006e-06
2.8692e-06
2.70189e-06
2.76103e-06
4.19827e-06
2.84236e-06
5.82781e-06
3.18623e-06
7.00423e-06
3.55273e-06
6.5969e-06
3.04074e-06
1.72884e-06
-1.05717e-05
2.46437e-06
8.85534e-06
3.71114e-06
8.27261e-07
4.41648e-06
-3.97453e-06
4.71661e-06
-5.54698e-06
4.83765e-06
-5.56304e-06
4.8913e-06
-4.97819e-06
4.89591e-06
-4.15639e-06
4.8365e-06
-3.26455e-06
4.70581e-06
-2.42655e-06
4.515e-06
-1.72899e-06
4.27919e-06
-1.16215e-06
4.00026e-06
-6.24961e-07
3.67646e-06
-5.17483e-08
3.32445e-06
5.47942e-07
2.99121e-06
1.16012e-06
2.74061e-06
1.86066e-06
2.6309e-06
2.8116e-06
2.70497e-06
4.1242e-06
3.05238e-06
5.4804e-06
3.7152e-06
6.34141e-06
4.41737e-06
5.89473e-06
4.03576e-06
2.11044e-06
-6.53597e-06
3.61654e-06
5.23879e-06
5.44857e-06
-1.00477e-06
6.03399e-06
-4.55994e-06
6.00489e-06
-5.51788e-06
5.80568e-06
-5.36383e-06
5.59631e-06
-4.76882e-06
5.38306e-06
-3.94314e-06
5.1358e-06
-3.0173e-06
4.83875e-06
-2.1295e-06
4.50081e-06
-1.39106e-06
4.13726e-06
-7.98605e-07
3.74947e-06
-2.3717e-07
3.33784e-06
3.59882e-07
2.92274e-06
9.63047e-07
2.56362e-06
1.51923e-06
2.34038e-06
2.08391e-06
2.31839e-06
2.83359e-06
2.5286e-06
3.91399e-06
3.05792e-06
4.95108e-06
3.93534e-06
5.46399e-06
4.89456e-06
4.93551e-06
4.76473e-06
2.24028e-06
-1.77124e-06
4.64374e-06
5.9506e-07
6.89131e-06
-3.25234e-06
7.25158e-06
-4.92022e-06
6.89348e-06
-5.15978e-06
6.43714e-06
-4.90749e-06
6.03132e-06
-4.363e-06
5.65287e-06
-3.5647e-06
5.25741e-06
-2.62183e-06
4.82495e-06
-1.69704e-06
4.36636e-06
-9.32468e-07
3.89568e-06
-3.27921e-07
3.41495e-06
2.43558e-07
2.93131e-06
8.43527e-07
2.46567e-06
1.42869e-06
2.089e-06
1.89591e-06
1.8949e-06
2.278e-06
1.94927e-06
2.77922e-06
2.26043e-06
3.60283e-06
2.91344e-06
4.29807e-06
3.9392e-06
4.43824e-06
5.10806e-06
3.76665e-06
5.31725e-06
2.03109e-06
3.54601e-06
7.5006e-06
-7.5006e-06
1.37082e-05
-6.20748e-06
-4.10483e-06
1.78133e-05
-7.33605e-05
6.92552e-05
-0.000154841
8.14805e-05
-0.000218279
6.34385e-05
-0.000229203
1.09235e-05
-0.00022569
-3.51273e-06
-0.00021578
-9.91061e-06
-0.000203024
-1.27559e-05
-0.000190575
-1.24486e-05
-0.000178407
-1.2168e-05
-0.000165141
-1.32665e-05
-0.000147059
-1.80815e-05
-0.000117274
-2.97854e-05
-7.85463e-05
-3.87275e-05
-4.15695e-05
-3.69769e-05
-1.14338e-05
-3.01356e-05
-1.14338e-05
5.59151e-06
-1.30918e-05
7.85671e-06
-8.47329e-06
-3.42071e-05
5.98774e-05
-0.000142398
0.000177447
-0.000220255
0.000159337
-0.000254486
9.76694e-05
-0.000252471
8.90855e-06
-0.000229036
-2.69473e-05
-0.000203134
-3.58126e-05
-0.000177368
-3.85221e-05
-0.000161342
-2.84749e-05
-0.00015195
-2.15601e-05
-0.000141232
-2.39845e-05
-0.000125981
-3.33325e-05
-0.000102295
-5.34707e-05
-7.28524e-05
-6.81705e-05
-4.49281e-05
-6.49012e-05
-1.96421e-05
-5.54216e-05
-3.10759e-05
5.62158e-06
-1.87131e-05
9.86207e-06
-1.27141e-05
-3.71603e-05
0.0001069
-0.000136138
0.000276424
-0.000204505
0.000227705
-0.000231654
0.000124819
-0.000231647
8.90156e-06
-0.000210894
-4.77001e-05
-0.000176173
-7.05345e-05
-0.000150828
-6.38664e-05
-0.00014081
-3.84932e-05
-0.000130549
-3.18209e-05
-0.000119437
-3.50964e-05
-0.000105927
-4.68429e-05
-8.59599e-05
-7.34379e-05
-6.28418e-05
-9.12886e-05
-4.128e-05
-8.64629e-05
-2.05456e-05
-7.61561e-05
-5.16215e-05
9.30471e-06
-2.80175e-05
2.20697e-05
-2.54793e-05
-1.30813e-05
0.000142051
-9.81201e-05
0.000361462
-0.000155537
0.000285122
-0.000179713
0.000148994
-0.000187185
1.63739e-05
-0.000175537
-5.93483e-05
-0.000154267
-9.18039e-05
-0.000127944
-9.01893e-05
-0.000103857
-6.25802e-05
-9.39151e-05
-4.17634e-05
-9.7181e-05
-3.18305e-05
-8.66697e-05
-5.73542e-05
-6.89038e-05
-9.12037e-05
-5.07077e-05
-0.000109485
-3.43221e-05
-0.000102848
-1.78482e-05
-9.263e-05
-6.94697e-05
1.52836e-05
-4.33007e-05
3.76262e-05
-4.78224e-05
3.05845e-05
0.000149093
-3.6678e-05
0.000428725
-8.76011e-05
0.000336045
-0.000115586
0.000176979
-0.000130925
3.1713e-05
-0.000132066
-5.82071e-05
-0.000123733
-0.000100138
-0.000107035
-0.000106887
-8.31418e-05
-8.64736e-05
-6.45813e-05
-6.03239e-05
-6.92385e-05
-2.71733e-05
-6.80711e-05
-5.85217e-05
-5.14588e-05
-0.000107816
-3.80645e-05
-0.000122879
-2.62593e-05
-0.000114654
-1.40256e-05
-0.000104864
-8.34953e-05
9.04071e-06
-5.23413e-05
2.58798e-05
-6.46613e-05
5.25547e-05
0.000122418
2.67047e-05
0.000454575
-1.91745e-05
0.000381924
-5.03641e-05
0.000208169
-7.33566e-05
5.47055e-05
-8.56395e-05
-4.59243e-05
-8.89015e-05
-9.68757e-05
-8.33863e-05
-0.000112402
-6.83278e-05
-0.000101532
-4.99041e-05
-7.87475e-05
-5.08567e-05
-2.62208e-05
-4.54367e-05
-6.39416e-05
-3.43173e-05
-0.000118935
-2.62678e-05
-0.000130929
-1.84233e-05
-0.000122498
-1.01115e-05
-0.000113176
-9.36068e-05
6.43097e-06
-5.87723e-05
9.26199e-06
-6.74923e-05
5.54577e-05
7.62225e-05
7.03363e-05
0.000439696
4.33518e-05
0.000408908
1.02097e-05
0.000241312
-1.92569e-05
8.41719e-05
-4.08635e-05
-2.43177e-05
-5.36132e-05
-8.41259e-05
-5.79412e-05
-0.000108074
-5.27658e-05
-0.000106708
-3.99097e-05
-9.16036e-05
-3.14324e-05
-3.46982e-05
-2.50061e-05
-7.03679e-05
-1.98355e-05
-0.000124106
-1.6048e-05
-0.000134716
-1.14142e-05
-0.000127132
-6.47937e-06
-0.00011811
-0.000100086
6.68517e-06
-6.54574e-05
2.21087e-06
-6.3018e-05
4.74287e-05
3.10045e-05
8.88304e-05
0.000398295
8.48988e-05
0.00041284
5.81668e-05
0.000268044
2.66632e-05
0.000115675
-6.11051e-07
2.95641e-06
-2.03667e-05
-6.43704e-05
-3.21859e-05
-9.62547e-05
-3.59064e-05
-0.000102987
-3.27679e-05
-9.47419e-05
-1.92613e-05
-4.82049e-05
-1.20336e-05
-7.75957e-05
-8.65422e-06
-0.000127485
-7.48177e-06
-0.000135888
-5.3594e-06
-0.000129254
-3.09857e-06
-0.000120371
-0.000103185
1.34628e-05
-1.28678e-05
1.76989e-05
-7.48843e-06
1.73589e-05
-4.58021e-06
1.59494e-05
-3.75028e-06
1.46126e-05
-3.57066e-06
1.34095e-05
-3.15992e-06
1.22626e-05
-2.41775e-06
1.10779e-05
-1.43715e-06
9.82003e-06
-4.39204e-07
8.54719e-06
3.40371e-07
7.23399e-06
9.85279e-07
5.98537e-06
1.49218e-06
4.77012e-06
2.05877e-06
3.6562e-06
2.54261e-06
2.8324e-06
2.71971e-06
2.52713e-06
2.58327e-06
2.88726e-06
2.41909e-06
3.78635e-06
2.70374e-06
5.44036e-06
2.64406e-06
7.99432e-06
1.88428e-06
1.11056e-05
6.55402e-07
1.44028e-05
-1.26616e-06
-2.78309e-06
2.07319e-05
1.4664e-05
-2.75317e-05
1.6685e-05
-9.5094e-06
1.34795e-05
-1.37472e-06
1.19799e-05
-2.25072e-06
1.15215e-05
-3.1122e-06
1.06742e-05
-2.31264e-06
9.74272e-06
-1.48628e-06
8.80835e-06
-5.02776e-07
7.84123e-06
5.27924e-07
6.66725e-06
1.51435e-06
5.37009e-06
2.28244e-06
4.05397e-06
2.8083e-06
2.90637e-06
3.20637e-06
1.87434e-06
3.57464e-06
1.11437e-06
3.47968e-06
1.04721e-06
2.65043e-06
1.83932e-06
1.62698e-06
2.86751e-06
1.67555e-06
4.59196e-06
9.1962e-07
7.30743e-06
-8.31188e-07
1.03554e-05
-2.39258e-06
1.37065e-05
-4.61727e-06
-7.54451e-06
1.84679e-05
4.8488e-06
-3.23805e-05
8.52822e-06
-1.31888e-05
1.12223e-05
-4.06874e-06
1.21431e-05
-3.17159e-06
1.14484e-05
-2.4175e-06
1.04052e-05
-1.26947e-06
9.18291e-06
-2.64009e-07
8.05632e-06
6.23817e-07
7.12705e-06
1.45722e-06
6.00251e-06
2.6389e-06
3.78095e-06
4.50401e-06
1.02874e-06
5.56051e-06
4.31717e-08
4.19194e-06
-2.78361e-07
3.89618e-06
-4.72263e-08
3.24855e-06
8.85373e-07
1.71783e-06
2.07962e-06
4.32734e-07
3.08181e-06
6.73366e-07
4.9981e-06
-9.96673e-07
7.91661e-06
-3.74969e-06
1.08523e-05
-5.32825e-06
1.40011e-05
-7.76605e-06
-1.11618e-05
1.76183e-05
-4.84507e-06
-2.75354e-05
4.6114e-07
-1.8495e-05
7.17212e-06
-1.07798e-05
1.13095e-05
-7.30904e-06
1.37113e-05
-4.81932e-06
1.50416e-05
-2.59977e-06
1.54123e-05
-6.34671e-07
1.49736e-05
1.06252e-06
1.36911e-05
2.73986e-06
1.10774e-05
5.25262e-06
7.01999e-06
8.56145e-06
3.58864e-06
8.99186e-06
1.01685e-06
6.76373e-06
3.10546e-07
4.60249e-06
3.2558e-07
3.23351e-06
7.19767e-07
1.32364e-06
1.82585e-06
-6.73344e-07
3.94999e-06
-1.45078e-06
7.15785e-06
-4.20453e-06
1.0281e-05
-6.87284e-06
1.25388e-05
-7.58608e-06
1.49806e-05
-1.02078e-05
-1.38688e-05
1.76876e-05
-1.94283e-06
-2.55925e-05
1.58842e-07
-2.05967e-05
4.53643e-06
-1.51574e-05
8.4744e-06
-1.12471e-05
1.16317e-05
-7.97665e-06
1.40989e-05
-5.06689e-06
1.59142e-05
-2.44987e-06
1.70435e-05
-6.66843e-08
1.73217e-05
2.46168e-06
1.72226e-05
5.35182e-06
1.74913e-05
8.2928e-06
1.69516e-05
9.53153e-06
1.50868e-05
8.6286e-06
1.23078e-05
7.38151e-06
8.89156e-06
6.64972e-06
5.57471e-06
4.6405e-06
4.37824e-06
5.23115e-07
6.37681e-06
-3.44935e-06
9.28664e-06
-7.11436e-06
1.15274e-05
-9.11362e-06
1.40239e-05
-1.00826e-05
1.66943e-05
-1.28782e-05
-1.58446e-05
1.86702e-05
-9.45189e-07
-2.46473e-05
3.7659e-07
-2.19185e-05
3.22378e-06
-1.80047e-05
6.36217e-06
-1.43855e-05
9.39851e-06
-1.1013e-05
1.21863e-05
-7.85464e-06
1.46235e-05
-4.887e-06
1.65952e-05
-2.03827e-06
1.82217e-05
8.35319e-07
1.97799e-05
3.79364e-06
2.15563e-05
6.5165e-06
2.29138e-05
8.17401e-06
2.31508e-05
8.3916e-06
2.26081e-05
7.92433e-06
2.19606e-05
7.29726e-06
2.10171e-05
5.58393e-06
1.93172e-05
2.223e-06
1.81536e-05
-2.28579e-06
1.633e-05
-5.29079e-06
1.52947e-05
-8.07825e-06
1.7161e-05
-1.19489e-05
1.93921e-05
-1.51093e-05
-1.43937e-05
1.79412e-05
-4.9769e-07
-2.41497e-05
4.72505e-07
-2.28888e-05
2.44075e-06
-1.99729e-05
4.87503e-06
-1.68198e-05
7.50801e-06
-1.36459e-05
1.0177e-05
-1.05235e-05
1.27655e-05
-7.47545e-06
1.52128e-05
-4.48541e-06
1.7573e-05
-1.52485e-06
2.00024e-05
1.36435e-06
2.25745e-05
3.94438e-06
2.49832e-05
5.76541e-06
2.6774e-05
6.60087e-06
2.79766e-05
6.72175e-06
2.89409e-05
6.33296e-06
2.95206e-05
5.00418e-06
2.93409e-05
2.40272e-06
2.79606e-05
-9.05587e-07
2.66764e-05
-4.00657e-06
2.58533e-05
-7.25511e-06
2.45646e-05
-1.06603e-05
2.17216e-05
-1.22663e-05
-1.02077e-05
1.75355e-05
-1.92434e-07
-2.39573e-05
4.59542e-07
-2.35408e-05
1.82747e-06
-2.13409e-05
3.6916e-06
-1.86839e-05
5.88451e-06
-1.58387e-05
8.28215e-06
-1.29211e-05
1.07955e-05
-9.98873e-06
1.33816e-05
-7.07134e-06
1.60566e-05
-4.19985e-06
1.88746e-05
-1.45357e-06
2.18307e-05
9.88361e-07
2.47342e-05
2.86204e-06
2.73173e-05
4.01775e-06
2.95176e-05
4.52153e-06
3.14342e-05
4.41635e-06
3.29356e-05
3.50271e-06
3.36733e-05
1.66505e-06
3.35287e-05
-7.61086e-07
3.28957e-05
-3.37357e-06
3.17434e-05
-6.10281e-06
2.95739e-05
-8.49079e-06
2.65728e-05
-9.26528e-06
-7.6609e-06
2.40259e-05
-2.22005e-07
-2.37353e-05
2.02271e-07
-2.39651e-05
1.18089e-06
-2.23195e-05
2.61711e-06
-2.01201e-05
4.42092e-06
-1.76425e-05
6.51412e-06
-1.50142e-05
8.83663e-06
-1.23112e-05
1.13543e-05
-9.589e-06
1.40607e-05
-6.90618e-06
1.69576e-05
-4.35043e-06
2.00055e-05
-2.05945e-06
2.307e-05
-2.02281e-07
2.59795e-05
1.10826e-06
2.86452e-05
1.85588e-06
3.10369e-05
2.02468e-06
3.30153e-05
1.52421e-06
3.4346e-05
3.34321e-07
3.49327e-05
-1.34779e-06
3.48136e-05
-3.25445e-06
3.38778e-05
-5.16711e-06
3.1999e-05
-6.61213e-06
2.95556e-05
-6.82203e-06
-5.38272e-06
2.72773e-05
-3.83079e-07
-2.33523e-05
-1.82132e-07
-2.41661e-05
4.96639e-07
-2.29983e-05
1.59541e-06
-2.12188e-05
3.06469e-06
-1.91118e-05
4.85723e-06
-1.68067e-05
6.93364e-06
-1.43876e-05
9.26624e-06
-1.19216e-05
1.1837e-05
-9.47693e-06
1.46245e-05
-7.13786e-06
1.75776e-05
-5.01244e-06
2.05948e-05
-3.21938e-06
2.35517e-05
-1.84853e-06
2.63503e-05
-9.4267e-07
2.89073e-05
-5.32353e-07
3.10889e-05
-6.57475e-07
3.2725e-05
-1.30185e-06
3.37075e-05
-2.33031e-06
3.39885e-05
-3.53553e-06
3.35003e-05
-4.67898e-06
3.22733e-05
-5.38526e-06
3.06441e-05
-5.19288e-06
-3.88084e-06
2.91422e-05
-5.90865e-07
-2.27614e-05
-6.09426e-07
-2.41476e-05
-1.85175e-07
-2.34225e-05
6.31685e-07
-2.20357e-05
1.80754e-06
-2.02876e-05
3.31264e-06
-1.83118e-05
5.12038e-06
-1.61953e-05
7.20786e-06
-1.4009e-05
9.5528e-06
-1.18218e-05
1.2125e-05
-9.70999e-06
1.48728e-05
-7.76009e-06
1.77144e-05
-6.06095e-06
2.05508e-05
-4.68478e-06
2.32854e-05
-3.6773e-06
2.58208e-05
-3.06778e-06
2.80351e-05
-2.87189e-06
2.97936e-05
-3.06037e-06
3.09929e-05
-3.52965e-06
3.15734e-05
-4.11618e-06
3.15066e-05
-4.61225e-06
3.08634e-05
-4.74216e-06
2.98902e-05
-4.21962e-06
-2.91162e-06
2.89209e-05
-7.90381e-07
-2.19711e-05
-1.01323e-06
-2.39247e-05
-8.14199e-07
-2.36216e-05
-2.4481e-07
-2.26051e-05
6.66894e-07
-2.11993e-05
1.89936e-06
-1.95443e-05
3.4332e-06
-1.77292e-05
5.24899e-06
-1.58248e-05
7.32399e-06
-1.38968e-05
9.62643e-06
-1.20123e-05
1.21082e-05
-1.02417e-05
1.47011e-05
-8.65372e-06
1.73221e-05
-7.3057e-06
1.98823e-05
-6.23752e-06
2.22867e-05
-5.47221e-06
2.44277e-05
-5.01298e-06
2.61942e-05
-4.82694e-06
2.74951e-05
-4.83062e-06
2.82732e-05
-4.89433e-06
2.85117e-05
-4.85084e-06
2.82687e-05
-4.4992e-06
2.76988e-05
-3.64968e-06
-2.20536e-06
2.69925e-05
-9.49049e-07
-2.1022e-05
-1.34956e-06
-2.35242e-05
-1.34943e-06
-2.36217e-05
-1.00146e-06
-2.29531e-05
-3.31165e-07
-2.18697e-05
6.44033e-07
-2.05196e-05
1.90861e-06
-1.89938e-05
3.44576e-06
-1.7362e-05
5.23414e-06
-1.56852e-05
7.24369e-06
-1.40218e-05
9.43142e-06
-1.24294e-05
1.17394e-05
-1.09616e-05
1.40972e-05
-9.66342e-06
1.64258e-05
-8.56612e-06
1.8639e-05
-7.68552e-06
2.06436e-05
-7.01758e-06
2.23458e-05
-6.52926e-06
2.3666e-05
-6.15089e-06
2.45493e-05
-5.77758e-06
2.49739e-05
-5.27551e-06
2.49668e-05
-4.49202e-06
2.46038e-05
-3.28663e-06
-1.57156e-06
2.397e-05
-1.05244e-06
-1.99696e-05
-1.59514e-06
-2.29815e-05
-1.76563e-06
-2.34512e-05
-1.61411e-06
-2.31046e-05
-1.1637e-06
-2.23201e-05
-4.28862e-07
-2.12545e-05
5.77698e-07
-2.00004e-05
1.84145e-06
-1.86258e-05
3.34326e-06
-1.71869e-05
5.05622e-06
-1.57347e-05
6.94296e-06
-1.4316e-05
8.95436e-06
-1.2973e-05
1.10305e-05
-1.17396e-05
1.31031e-05
-1.06387e-05
1.50967e-05
-9.67914e-06
1.69309e-05
-8.85193e-06
1.8526e-05
-8.12434e-06
1.98107e-05
-7.43564e-06
2.07305e-05
-6.69734e-06
2.12526e-05
-5.79762e-06
2.13712e-05
-4.61054e-06
2.11006e-05
-3.016e-06
-9.19294e-07
2.04484e-05
-1.09818e-06
-1.88714e-05
-1.74293e-06
-2.23367e-05
-2.05277e-06
-2.31414e-05
-2.0712e-06
-2.30862e-05
-1.81758e-06
-2.25738e-05
-1.30334e-06
-2.17687e-05
-5.38383e-07
-2.07654e-05
4.65344e-07
-1.96295e-05
1.69137e-06
-1.84129e-05
3.11652e-06
-1.71598e-05
4.70909e-06
-1.59086e-05
6.42785e-06
-1.46917e-05
8.22246e-06
-1.35341e-05
1.00348e-05
-1.2451e-05
1.18005e-05
-1.14449e-05
1.34511e-05
-1.05025e-05
1.49176e-05
-9.59092e-06
1.6136e-05
-8.65404e-06
1.70512e-05
-7.61248e-06
1.76196e-05
-6.36589e-06
1.78085e-05
-4.79936e-06
1.75881e-05
-2.79555e-06
-2.43332e-07
1.69121e-05
-1.09149e-06
-1.77799e-05
-1.79776e-06
-2.16305e-05
-2.21394e-06
-2.27252e-05
-2.37388e-06
-2.29263e-05
-2.2917e-06
-2.26559e-05
-1.97508e-06
-2.20853e-05
-1.43087e-06
-2.13096e-05
-6.68048e-07
-2.03923e-05
3.00107e-07
-1.93811e-05
1.45443e-06
-1.83141e-05
2.76868e-06
-1.72227e-05
4.20888e-06
-1.61318e-05
5.73347e-06
-1.50586e-05
7.29407e-06
-1.40116e-05
8.83686e-06
-1.29877e-05
1.03041e-05
-1.19698e-05
1.16367e-05
-1.09235e-05
1.27768e-05
-9.79422e-06
1.36701e-05
-8.50576e-06
1.42655e-05
-6.96119e-06
1.45122e-05
-5.04607e-06
1.43523e-05
-2.63561e-06
4.0231e-07
1.37067e-05
-1.04187e-06
-1.6738e-05
-1.77224e-06
-2.09001e-05
-2.26204e-06
-2.22354e-05
-2.53411e-06
-2.26542e-05
-2.59621e-06
-2.25938e-05
-2.4517e-06
-2.22298e-05
-2.10395e-06
-2.16573e-05
-1.55868e-06
-2.09375e-05
-8.25695e-07
-2.01141e-05
8.00501e-08
-1.92198e-05
1.13762e-06
-1.82803e-05
2.31977e-06
-1.73138e-05
3.59298e-06
-1.63317e-05
4.91808e-06
-1.53366e-05
6.25114e-06
-1.43207e-05
7.54456e-06
-1.32633e-05
8.7485e-06
-1.21275e-05
9.81201e-06
-1.08577e-05
1.06834e-05
-9.37713e-06
1.13088e-05
-7.58656e-06
1.16284e-05
-5.3657e-06
1.15699e-05
-2.57705e-06
9.33519e-07
1.10387e-05
-9.60574e-07
-1.57774e-05
-1.68323e-06
-2.01774e-05
-2.21635e-06
-2.17022e-05
-2.57169e-06
-2.22987e-05
-2.75034e-06
-2.2415e-05
-2.75099e-06
-2.2229e-05
-2.57327e-06
-2.1835e-05
-2.21953e-06
-2.12913e-05
-1.69595e-06
-2.06377e-05
-1.01329e-06
-1.99025e-05
-1.87347e-07
-1.91062e-05
7.60906e-07
-1.8262e-05
1.80542e-06
-1.73762e-05
2.9156e-06
-1.64468e-05
4.0569e-06
-1.5462e-05
5.1914e-06
-1.43978e-05
6.2785e-06
-1.32146e-05
7.275e-06
-1.18543e-05
8.13443e-06
-1.02366e-05
8.80485e-06
-8.25702e-06
9.22512e-06
-5.78599e-06
9.31941e-06
-2.67131e-06
1.26197e-06
8.99101e-06
-8.58872e-07
-1.49186e-05
-1.54905e-06
-1.94872e-05
-2.09922e-06
-2.1152e-05
-2.51109e-06
-2.18868e-05
-2.77939e-06
-2.21466e-05
-2.89818e-06
-2.21102e-05
-2.86337e-06
-2.18698e-05
-2.67394e-06
-2.14808e-05
-2.33255e-06
-2.09791e-05
-1.84594e-06
-2.03891e-05
-1.22501e-06
-1.9727e-05
-4.84901e-07
-1.9002e-05
3.55288e-07
-1.82163e-05
1.27297e-06
-1.73645e-05
2.24244e-06
-1.64316e-05
3.23518e-06
-1.53906e-05
4.21994e-06
-1.41995e-05
5.16228e-06
-1.27967e-05
6.02318e-06
-1.10976e-05
6.75657e-06
-8.99047e-06
7.30574e-06
-6.33515e-06
7.5992e-06
-2.96472e-06
1.31448e-06
7.54678e-06
-7.46949e-07
-1.41716e-05
-1.38735e-06
-1.88468e-05
-1.9334e-06
-2.06059e-05
-2.37841e-06
-2.14417e-05
-2.71157e-06
-2.18134e-05
-2.92275e-06
-2.1899e-05
-3.0044e-06
-2.17882e-05
-2.95233e-06
-2.15329e-05
-2.76595e-06
-2.11655e-05
-2.44828e-06
-2.07068e-05
-2.00575e-06
-2.01695e-05
-1.4481e-06
-1.95596e-05
-7.88022e-07
-1.88764e-05
-4.06621e-08
-1.81119e-05
7.76623e-07
-1.72489e-05
1.64438e-06
-1.62585e-05
2.54085e-06
-1.5096e-05
3.44105e-06
-1.3697e-05
4.31514e-06
-1.19718e-05
5.12562e-06
-9.80096e-06
5.82407e-06
-7.03355e-06
6.34794e-06
-3.48851e-06
1.0442e-06
6.61828e-06
-6.33236e-07
-1.35383e-05
-1.21359e-06
-1.82664e-05
-1.73984e-06
-2.00795e-05
-2.19879e-06
-2.09826e-05
-2.57517e-06
-2.1437e-05
-2.85533e-06
-2.16188e-05
-3.02882e-06
-2.16147e-05
-3.08869e-06
-2.14731e-05
-3.03147e-06
-2.12228e-05
-2.85686e-06
-2.08814e-05
-2.56737e-06
-2.0459e-05
-2.16791e-06
-1.99591e-05
-1.66535e-06
-1.93791e-05
-1.06798e-06
-1.87094e-05
-3.85398e-07
-1.79316e-05
3.71643e-07
-1.70156e-05
1.19077e-06
-1.59152e-05
2.05693e-06
-1.45633e-05
2.95041e-06
-1.28653e-05
3.84392e-06
-1.06945e-05
4.6994e-06
-7.88897e-06
5.46535e-06
-4.25436e-06
4.33919e-07
6.0757e-06
-5.23972e-07
-1.30143e-05
-1.04006e-06
-1.77503e-05
-1.53625e-06
-1.95833e-05
-1.99446e-06
-2.05244e-05
-2.39616e-06
-2.10353e-05
-2.72507e-06
-2.12899e-05
-2.9685e-06
-2.13713e-05
-3.11729e-06
-2.13243e-05
-3.16565e-06
-2.11744e-05
-3.1105e-06
-2.09366e-05
-2.95096e-06
-2.06186e-05
-2.68782e-06
-2.02223e-05
-2.32282e-06
-1.97442e-05
-1.85817e-06
-1.91741e-05
-1.29632e-06
-1.84935e-05
-6.3987e-07
-1.7672e-05
1.0794e-07
-1.6663e-05
9.41977e-07
-1.53973e-05
1.85311e-06
-1.37764e-05
2.82499e-06
-1.16663e-05
3.83071e-06
-8.89462e-06
4.83028e-06
-5.25388e-06
-5.05959e-07
5.77022e-06
-4.22916e-07
-1.25914e-05
-8.75382e-07
-1.72979e-05
-1.33616e-06
-1.91226e-05
-1.7835e-06
-2.00771e-05
-2.19661e-06
-2.06223e-05
-2.55759e-06
-2.0929e-05
-2.85225e-06
-2.10767e-05
-3.06997e-06
-2.11066e-05
-3.20321e-06
-2.10412e-05
-3.24673e-06
-2.08931e-05
-3.19699e-06
-2.06684e-05
-3.05133e-06
-2.0368e-05
-2.80722e-06
-1.99884e-05
-2.46166e-06
-1.95197e-05
-2.01081e-06
-1.89443e-05
-1.44985e-06
-1.8233e-05
-7.73389e-07
-1.73395e-05
2.3133e-08
-1.61939e-05
9.41028e-07
-1.46943e-05
1.97506e-06
-1.27003e-05
3.10958e-06
-1.0029e-05
4.31573e-06
-6.45994e-06
-1.7415e-06
5.55132e-06
-3.31254e-07
-1.22602e-05
-7.24452e-07
-1.69047e-05
-1.14875e-06
-1.86983e-05
-1.57929e-06
-1.96466e-05
-1.99384e-06
-2.02078e-05
-2.3738e-06
-2.05491e-05
-2.70435e-06
-2.07462e-05
-2.97416e-06
-2.08367e-05
-3.17464e-06
-2.08407e-05
-3.29912e-06
-2.07687e-05
-3.34208e-06
-2.06255e-05
-3.29827e-06
-2.0412e-05
-3.16179e-06
-2.0125e-05
-2.92544e-06
-1.9756e-05
-2.58017e-06
-1.92896e-05
-2.11465e-06
-1.86985e-05
-1.51571e-06
-1.79385e-05
-7.69667e-07
-1.694e-05
1.34992e-07
-1.5599e-05
1.20374e-06
-1.3769e-05
2.43202e-06
-1.12573e-05
3.80154e-06
-7.82937e-06
-3.21968e-06
5.27982e-06
-2.4808e-07
-1.20122e-05
-5.89064e-07
-1.65638e-05
-9.79326e-07
-1.83081e-05
-1.3907e-06
-1.92354e-05
-1.8002e-06
-1.97983e-05
-2.18936e-06
-2.016e-05
-2.54362e-06
-2.03919e-05
-2.85172e-06
-2.05287e-05
-3.10474e-06
-2.05878e-05
-3.29532e-06
-2.05782e-05
-3.41677e-06
-2.05042e-05
-3.46207e-06
-2.03668e-05
-3.42301e-06
-2.0164e-05
-3.28933e-06
-1.98897e-05
-3.04789e-06
-1.9531e-05
-2.68212e-06
-1.90643e-05
-2.17216e-06
-1.84485e-05
-1.49616e-06
-1.7616e-05
-6.33018e-07
-1.64621e-05
4.33337e-07
-1.48353e-05
1.70891e-06
-1.25328e-05
3.18555e-06
-9.30597e-06
-4.87349e-06
4.83942e-06
-1.71619e-07
-1.18406e-05
-4.69138e-07
-1.62664e-05
-8.30317e-07
-1.7947e-05
-1.22286e-06
-1.88429e-05
-1.62359e-06
-1.93977e-05
-2.0149e-06
-1.97687e-05
-2.38335e-06
-2.00235e-05
-2.71852e-06
-2.01935e-05
-3.01189e-06
-2.02944e-05
-3.25615e-06
-2.0334e-05
-3.44419e-06
-2.03162e-05
-3.56815e-06
-2.02429e-05
-3.61857e-06
-2.01136e-05
-3.58329e-06
-1.99249e-05
-3.44646e-06
-1.96678e-05
-3.18766e-06
-1.93231e-05
-2.78178e-06
-1.88544e-05
-2.20004e-06
-1.81977e-05
-1.41265e-06
-1.72495e-05
-3.93347e-07
-1.58546e-05
8.74577e-07
-1.38007e-05
2.39269e-06
-1.08241e-05
-6.62688e-06
4.14613e-06
-1.00851e-07
-1.17398e-05
-3.64195e-07
-1.60031e-05
-7.02417e-07
-1.76089e-05
-1.0781e-06
-1.84672e-05
-1.46815e-06
-1.90077e-05
-1.85659e-06
-1.93803e-05
-2.23176e-06
-1.96483e-05
-2.58476e-06
-1.98406e-05
-2.90821e-06
-1.9971e-05
-3.1955e-06
-2.00467e-05
-3.43982e-06
-2.00719e-05
-3.6334e-06
-2.00493e-05
-3.76651e-06
-1.99804e-05
-3.82633e-06
-1.9865e-05
-3.79572e-06
-1.96984e-05
-3.65205e-06
-1.94668e-05
-3.36669e-06
-1.91398e-05
-2.90548e-06
-1.86589e-05
-2.2311e-06
-1.79238e-05
-1.3076e-06
-1.67781e-05
-1.07029e-07
-1.50013e-05
1.38299e-06
-1.23141e-05
-8.39881e-06
3.15499e-06
-3.66857e-08
-1.17031e-05
-2.7432e-07
-1.57655e-05
-5.95596e-07
-1.72876e-05
-9.56844e-07
-1.81061e-05
-1.33527e-06
-1.86294e-05
-1.717e-06
-1.89987e-05
-2.09278e-06
-1.92726e-05
-2.45577e-06
-1.94776e-05
-2.80029e-06
-1.96265e-05
-3.12102e-06
-1.9726e-05
-3.41215e-06
-1.97808e-05
-3.66671e-06
-1.97947e-05
-3.87569e-06
-1.97714e-05
-4.02677e-06
-1.9714e-05
-4.10298e-06
-1.96223e-05
-4.08127e-06
-1.94885e-05
-3.93142e-06
-1.92896e-05
-3.61584e-06
-1.89744e-05
-3.09116e-06
-1.84485e-05
-2.31242e-06
-1.75569e-05
-1.24007e-06
-1.60736e-05
1.51717e-07
-1.37058e-05
-1.01092e-05
1.86212e-06
1.95048e-08
-1.17227e-05
-2.00236e-07
-1.55458e-05
-5.09661e-07
-1.69783e-05
-8.58477e-07
-1.77574e-05
-1.22445e-06
-1.82635e-05
-1.59615e-06
-1.8627e-05
-1.96714e-06
-1.89017e-05
-2.33303e-06
-1.91117e-05
-2.6903e-06
-1.92692e-05
-3.03533e-06
-1.9381e-05
-3.36384e-06
-1.94523e-05
-3.67031e-06
-1.94882e-05
-3.9472e-06
-1.94946e-05
-4.18375e-06
-1.94775e-05
-4.36458e-06
-1.94415e-05
-4.46801e-06
-1.93851e-05
-4.46439e-06
-1.92931e-05
-4.31491e-06
-1.91239e-05
-3.97211e-06
-1.87913e-05
-3.38328e-06
-1.81458e-05
-2.49755e-06
-1.69594e-05
-1.2758e-06
-1.49275e-05
-1.16878e-05
3.02881e-07
6.59084e-08
-1.17886e-05
-1.43241e-07
-1.53368e-05
-4.44625e-07
-1.6677e-05
-7.82027e-07
-1.742e-05
-1.13418e-06
-1.79115e-05
-1.49245e-06
-1.82688e-05
-1.8534e-06
-1.85408e-05
-2.2154e-06
-1.87497e-05
-2.57729e-06
-1.89073e-05
-2.93744e-06
-1.90209e-05
-3.29344e-06
-1.90963e-05
-3.64164e-06
-1.91401e-05
-3.97653e-06
-1.91598e-05
-4.28974e-06
-1.91644e-05
-4.56873e-06
-1.91625e-05
-4.79488e-06
-1.91589e-05
-4.94124e-06
-1.91467e-05
-4.97031e-06
-1.90948e-05
-4.83302e-06
-1.89287e-05
-4.47062e-06
-1.85082e-05
-3.82074e-06
-1.76093e-05
-2.8276e-06
-1.59207e-05
-1.30622e-05
-1.45323e-06
1.01152e-07
-1.18898e-05
-1.05155e-07
-1.51305e-05
-4.01099e-07
-1.63811e-05
-7.26769e-07
-1.70945e-05
-1.06271e-06
-1.75756e-05
-1.40353e-06
-1.79281e-05
-1.74894e-06
-1.81954e-05
-2.10018e-06
-1.83985e-05
-2.45845e-06
-1.85491e-05
-2.82424e-06
-1.86551e-05
-3.19711e-06
-1.87234e-05
-3.57545e-06
-1.87618e-05
-3.95608e-06
-1.87792e-05
-4.33359e-06
-1.87869e-05
-4.69912e-06
-1.8797e-05
-5.03852e-06
-1.88195e-05
-5.32957e-06
-1.88557e-05
-5.53876e-06
-1.88857e-05
-5.61847e-06
-1.88491e-05
-5.50658e-06
-1.86201e-05
-5.13047e-06
-1.79854e-05
-4.41669e-06
-1.66345e-05
-1.41748e-05
-3.30416e-06
1.2101e-07
-1.20109e-05
-8.97162e-08
-1.49198e-05
-3.81171e-07
-1.60897e-05
-6.92851e-07
-1.67829e-05
-1.0086e-06
-1.72599e-05
-1.32687e-06
-1.76099e-05
-1.65063e-06
-1.78717e-05
-1.98392e-06
-1.80653e-05
-2.33015e-06
-1.82029e-05
-2.69178e-06
-1.82935e-05
-3.07021e-06
-1.8345e-05
-3.4658e-06
-1.83662e-05
-3.87769e-06
-1.83674e-05
-4.30357e-06
-1.83611e-05
-4.73872e-06
-1.83618e-05
-5.17435e-06
-1.83839e-05
-5.59459e-06
-1.84355e-05
-5.97255e-06
-1.85078e-05
-6.26558e-06
-1.8556e-05
-6.41201e-06
-1.84737e-05
-6.33186e-06
-1.80655e-05
-5.93437e-06
-1.7032e-05
-1.49773e-05
-5.13196e-06
1.17061e-07
-1.21279e-05
-1.04046e-07
-1.46989e-05
-3.89162e-07
-1.58047e-05
-6.81615e-07
-1.64906e-05
-9.70907e-07
-1.69707e-05
-1.25998e-06
-1.73209e-05
-1.55519e-06
-1.75765e-05
-1.863e-06
-1.77576e-05
-2.1887e-06
-1.78773e-05
-2.53629e-06
-1.79459e-05
-2.90868e-06
-1.79727e-05
-3.30777e-06
-1.79672e-05
-3.73478e-06
-1.79404e-05
-4.1902e-06
-1.79057e-05
-4.6734e-06
-1.78786e-05
-5.18115e-06
-1.78761e-05
-5.70498e-06
-1.79117e-05
-6.22668e-06
-1.79861e-05
-6.7122e-06
-1.80705e-05
-7.10514e-06
-1.80807e-05
-7.32313e-06
-1.78476e-05
-7.2613e-06
-1.70939e-05
-1.54339e-05
-6.80479e-06
7.5637e-08
-1.22036e-05
-1.59036e-07
-1.44643e-05
-4.31018e-07
-1.55328e-05
-6.94946e-07
-1.62267e-05
-9.48647e-07
-1.6717e-05
-1.20019e-06
-1.70694e-05
-1.45916e-06
-1.73176e-05
-1.73388e-06
-1.7483e-05
-2.03083e-06
-1.75804e-05
-2.35493e-06
-1.76218e-05
-2.7099e-06
-1.76178e-05
-3.09867e-06
-1.75785e-05
-3.5239e-06
-1.75152e-05
-3.98835e-06
-1.74412e-05
-4.4948e-06
-1.73722e-05
-5.04518e-06
-1.73257e-05
-5.63841e-06
-1.73184e-05
-6.26612e-06
-1.73584e-05
-6.90575e-06
-1.74308e-05
-7.51147e-06
-1.74751e-05
-8.0056e-06
-1.73535e-05
-8.27606e-06
-1.68234e-05
-1.55255e-05
-8.18437e-06
-2.58542e-08
-1.21779e-05
-2.6596e-07
-1.42243e-05
-5.11541e-07
-1.52873e-05
-7.33375e-07
-1.60049e-05
-9.3957e-07
-1.65109e-05
-1.14387e-06
-1.68651e-05
-1.35859e-06
-1.7103e-05
-1.59304e-06
-1.72486e-05
-1.85391e-06
-1.73195e-05
-2.14609e-06
-1.73296e-05
-2.47329e-06
-1.72906e-05
-2.8387e-06
-1.72131e-05
-3.24572e-06
-1.71082e-05
-3.69851e-06
-1.69884e-05
-4.20226e-06
-1.68684e-05
-4.76294e-06
-1.67651e-05
-5.38581e-06
-1.66956e-05
-6.07203e-06
-1.66722e-05
-6.81196e-06
-1.66909e-05
-7.57476e-06
-1.67123e-05
-8.29568e-06
-1.66326e-05
-8.86616e-06
-1.62529e-05
-1.52576e-05
-9.13407e-06
-1.82143e-07
-1.19958e-05
-4.27181e-07
-1.39793e-05
-6.30195e-07
-1.50843e-05
-7.93386e-07
-1.58417e-05
-9.38429e-07
-1.6366e-05
-1.08544e-06
-1.67182e-05
-1.24863e-06
-1.694e-05
-1.43695e-06
-1.70603e-05
-1.65606e-06
-1.71004e-05
-1.90966e-06
-1.7076e-05
-2.20049e-06
-1.69998e-05
-2.53124e-06
-1.68824e-05
-2.90526e-06
-1.67342e-05
-3.32716e-06
-1.65665e-05
-3.80339e-06
-1.63921e-05
-4.34232e-06
-1.62261e-05
-4.95364e-06
-1.60843e-05
-5.64609e-06
-1.59798e-05
-6.42213e-06
-1.59149e-05
-7.26795e-06
-1.58664e-05
-8.13879e-06
-1.57617e-05
-8.94261e-06
-1.54491e-05
-1.46701e-05
-9.53005e-06
-3.86022e-07
-1.16098e-05
-6.34764e-07
-1.37306e-05
-7.78985e-07
-1.49401e-05
-8.65388e-07
-1.57554e-05
-9.3554e-07
-1.62958e-05
-1.0167e-06
-1.66371e-05
-1.12336e-06
-1.68333e-05
-1.2623e-06
-1.69213e-05
-1.43648e-06
-1.69261e-05
-1.64721e-06
-1.68653e-05
-1.89545e-06
-1.67515e-05
-2.18267e-06
-1.65951e-05
-2.51149e-06