/*--------------------------------*- C++ -*----------------------------------*\
  =========                 |
  \\      /  F ield         | OpenFOAM: The Open Source CFD Toolbox
   \\    /   O peration     | Website:  https://openfoam.org
    \\  /    A nd           | Version:  9
     \\/     M anipulation  |
\*---------------------------------------------------------------------------*/
FoamFile
{
    format      ascii;
    class       volScalarField;
    location    "1.7";
    object      p;
}
// * * * * * * * * * * * * * * * * * * * * * * * * * * * * * * * * * * * * * //

dimensions      [0 2 -2 0 0 0 0];

internalField   nonuniform List<scalar> 
6400
(
6.32755e-06
-0.000360747
-0.00120306
-0.00231205
-0.00348466
-0.00457714
-0.00548844
-0.00615027
-0.00651945
-0.0065716
-0.00629638
-0.00569404
-0.00477305
-0.00354858
-0.00204153
-0.000278044
0.00171073
0.00388877
0.00621522
0.00864465
0.0111274
0.01361
0.0160365
0.0183495
0.0204917
0.022408
0.0240474
0.0253658
0.026328
0.0269107
0.0271045
0.0269163
0.0263717
0.0255171
0.024422
0.0231817
0.0219196
0.0207922
0.0199971
0.0197063
0.000381985
9.08473e-06
-0.000662943
-0.00151052
-0.00240313
-0.00323552
-0.00392798
-0.00442263
-0.00467995
-0.00467543
-0.00439656
-0.00384037
-0.00301163
-0.00192159
-0.00058711
0.000969838
0.0027225
0.00463952
0.00668515
0.00881951
0.0109991
0.0131772
0.0153051
0.0173332
0.0192121
0.0208949
0.0223386
0.0235067
0.0243708
0.024913
0.0251279
0.0250243
0.0246269
0.0239776
0.0231364
0.0221823
0.0212122
0.0203407
0.0197026
0.0194156
0.00123305
0.000676076
-7.05244e-06
-0.000773106
-0.00154994
-0.00225823
-0.00283657
-0.00323915
-0.00343321
-0.00339751
-0.00312048
-0.0025986
-0.00183509
-0.000838973
0.000375573
0.00178962
0.00337974
0.00511819
0.00697312
0.0089088
0.010886
0.0128629
0.0147954
0.0166387
0.0183484
0.0198824
0.0212023
0.0222753
0.0230766
0.0235907
0.0238135
0.0237534
0.0234327
0.0228884
0.0221719
0.0213486
0.0204965
0.0197057
0.0190622
0.0186243
0.00237606
0.00152946
0.000731494
-5.46234e-05
-0.000809283
-0.00147228
-0.00199848
-0.00235458
-0.00251603
-0.00246658
-0.00219736
-0.00170581
-0.000994844
-7.22422e-05
0.00104973
0.00235456
0.0038216
0.00542618
0.00713967
0.00892974
0.0107607
0.0125939
0.0143889
0.016104
0.0176981
0.0191316
0.0203686
0.0213783
0.022137
0.0226299
0.0228524
0.0228113
0.0225257
0.0220271
0.0213592
0.0205755
0.01974
0.0189263
0.0181771
0.0174854
0.0036267
0.00244798
0.00148613
0.000628532
-0.000153282
-0.000814303
-0.00132392
-0.0016609
-0.00180912
-0.00175796
-0.00150197
-0.00104026
-0.000376083
0.000483509
0.00152775
0.00274219
0.00410866
0.00560523
0.00720617
0.00888207
0.0106001
0.0123245
0.0140172
0.015639
0.0171505
0.0185138
0.019694
0.0206609
0.0213909
0.0218685
0.0220874
0.0220521
0.0217781
0.0212915
0.0206285
0.0198331
0.0189574
0.0180637
0.0171553
0.0161607
0.00485112
0.00332882
0.0021761
0.00121252
0.00036773
-0.000324695
-0.000846441
-0.00118721
-0.0013389
-0.00129652
-0.00105832
-0.000625473
-1.93054e-06
0.000805575
0.00178743
0.00293093
0.00422007
0.00563529
0.00715338
0.00874737
0.0103868
0.0120378
0.0136643
0.0152283
0.0166913
0.0180158
0.0191667
0.0201133
0.0208307
0.0213014
0.0215172
0.0214792
0.0211988
0.0206974
0.0200048
0.0191568
0.0181973
0.0171818
0.0160802
0.0147643
0.00594834
0.00408676
0.00273093
0.00164055
0.000709162
-3.80456e-05
-0.000592934
-0.00095479
-0.00112278
-0.00109725
-0.000880066
-0.000474531
0.000114504
0.000880427
0.00181453
0.0029056
0.00413951
0.00549881
0.00696237
0.0085053
0.0100989
0.0117109
0.013306
0.0148468
0.0162949
0.0176119
0.0187618
0.0197118
0.0204349
0.020911
0.0211283
0.0210844
0.0207867
0.0202518
0.0195043
0.0185738
0.0174988
0.016332
0.0150161
0.0133733
0.00683949
0.00464984
0.00308802
0.00186024
0.00082846
1.17385e-05
-0.000590208
-0.000984952
-0.0011781
-0.00117481
-0.000980286
-0.00059986
-3.92581e-05
0.00069496
0.00159488
0.00265062
0.00384973
0.00517662
0.00661201
0.00813269
0.00971132
0.0113166
0.0129137
0.0144649
0.015931
0.0172722
0.01845
0.0194292
0.0201792
0.0206762
0.0209046
0.0208578
0.0205387
0.0199597
0.019141
0.0181077
0.0168952
0.0155568
0.0140128
0.0120419
0.00746057
0.00495606
0.00319047
0.00182116
0.000681946
-0.000212736
-0.000870208
-0.00130521
-0.00152898
-0.0015509
-0.00137915
-0.00102085
-0.00048245
0.000229583
0.00110812
0.00214455
0.00332801
0.00464459
0.00607668
0.0076025
0.00919577
0.0108257
0.0124575
0.0140526
0.0155701
0.0169681
0.0182049
0.0192415
0.0200431
0.0205814
0.0208356
0.0207946
0.0204565
0.0198297
0.0189308
0.0177816
0.0164164
0.0148918
0.013109
0.0108071
0.00775697
0.00495058
0.00298599
0.00147512
0.000225974
-0.000750581
-0.00146791
-0.00194702
-0.00220406
-0.0022521
-0.00210187
-0.00176195
-0.00123935
-0.000540272
0.000329013
0.0013612
0.00254699
0.00387412
0.00532654
0.00688375
0.00852035
0.0102058
0.0119049
0.0135777
0.0151813
0.0166706
0.0180001
0.0191259
0.0200082
0.0206128
0.0209134
0.020893
0.0205449
0.0198732
0.0188913
0.0176188
0.0160905
0.014368
0.012336
0.00969556
0.00767979
0.00458335
0.00242574
0.000775763
-0.000582742
-0.00164184
-0.00242024
-0.00294456
-0.00323527
-0.00330863
-0.00317751
-0.00285165
-0.00233834
-0.00164333
-0.000771871
0.000270162
0.00147511
0.0028324
0.00432759
0.00594143
0.00764929
0.00942081
0.0112199
0.0130053
0.0147313
0.0163489
0.0178081
0.0190594
0.0200563
0.0207582
0.0211317
0.0211534
0.0208109
0.0201035
0.0190415
0.0176432
0.0159448
0.0140145
0.0117215
0.00872895
0.00718336
0.00380737
0.00146313
-0.000322006
-0.00178725
-0.00292729
-0.00376569
-0.0043342
-0.00465719
-0.00475372
-0.00463843
-0.00432189
-0.0038114
-0.003112
-0.00222772
-0.00116282
7.6886e-05
0.00148269
0.00304185
0.00473651
0.00654289
0.00843075
0.0103632
0.0122971
0.0141837
0.0159698
0.0175997
0.0190173
0.0201688
0.0210052
0.0214853
0.0215777
0.0212633
0.0205361
0.019403
0.0178808
0.016008
0.0138608
0.0112929
0.00792783
0.00622373
0.00257744
5.29814e-05
-0.00186249
-0.00343053
-0.00464826
-0.00554389
-0.00615397
-0.00650647
-0.00662295
-0.00651952
-0.0062073
-0.0056933
-0.00498162
-0.00407478
-0.00297515
-0.00168645
-0.000215221
0.00142777
0.0032263
0.00515768
0.00719193
0.00929147
0.0114112
0.0134989
0.0154968
0.0173428
0.0189734
0.0203258
0.0213415
0.0219696
0.0221694
0.0219136
0.0211897
0.0200004
0.0183609
0.0163122
0.0139396
0.0110802
0.00731516
0.00475769
0.000849278
-0.00184916
-0.00388966
-0.0055556
-0.00684657
-0.00779532
-0.00844303
-0.00882111
-0.00895341
-0.00885732
-0.00854425
-0.00802069
-0.00728949
-0.00635136
-0.00520645
-0.00385603
-0.0023041
-0.000559011
0.00136507
0.0034469
0.00565715
0.00795775
0.0103017
0.0126335
0.0148902
0.0170027
0.0188987
0.0205056
0.0217536
0.0225801
0.0229332
0.0227754
0.0220861
0.0208626
0.0191176
0.0168946
0.0142885
0.0111185
0.00691932
0.00274227
-0.00142107
-0.00428753
-0.00644746
-0.0082057
-0.00956446
-0.010561
-0.0112412
-0.0116398
-0.0117829
-0.0116891
-0.0113698
-0.0108309
-0.0100736
-0.00909649
-0.0078972
-0.00647403
-0.00482795
-0.00296435
-0.000894758
0.00136164
0.00377668
0.0063123
0.00891999
0.0115409
0.0141067
0.0165409
0.0187616
0.0206845
0.0222269
0.0233123
0.0238751
0.0238651
0.0232513
0.0220239
0.0201913
0.0177994
0.0149531
0.0114511
0.00677685
0.000134433
-0.00427765
-0.00730654
-0.00958013
-0.0114245
-0.0128445
-0.0138822
-0.0145884
-0.0150011
-0.0151489
-0.0150514
-0.0147202
-0.0141602
-0.0133708
-0.0123482
-0.0110868
-0.00958173
-0.00783012
-0.00583378
-0.00360083
-0.0011476
0.00149971
0.00430372
0.00721502
0.0101718
0.0131004
0.0159166
0.0185277
0.0208366
0.0227455
0.0241616
0.0250025
0.0252023
0.0247165
0.0235251
0.0216308
0.0190802
0.015989
0.0121321
0.00693535
-0.00310873
-0.00776494
-0.0109513
-0.0133326
-0.015256
-0.0167295
-0.0178002
-0.0185239
-0.0189426
-0.0190874
-0.0189791
-0.0186294
-0.0180422
-0.017215
-0.0161411
-0.0148115
-0.0132171
-0.0113509
-0.00921001
-0.00679836
-0.00412841
-0.00122335
0.00188116
0.00513567
0.00847611
0.0118238
0.0150866
0.0181607
0.0209344
0.0232929
0.0251239
0.0263249
0.0268103
0.0265183
0.0254153
0.0234948
0.0208026
0.0174647
0.0132289
0.0074564
-0.00703092
-0.0119284
-0.0152679
-0.0177507
-0.0197451
-0.0212625
-0.0223556
-0.0230858
-0.0234998
-0.0236313
-0.023503
-0.0231268
-0.0225055
-0.0216346
-0.0205041
-0.0191012
-0.0174119
-0.0154241
-0.0131297
-0.0105269
-0.0076233
-0.0044377
-0.00100275
0.0026333
0.0064052
0.0102301
0.0140081
0.0176237
0.0209498
0.0238519
0.0261956
0.0278541
0.0287173
0.028701
0.0277532
0.0258541
0.0230461
0.0194649
0.0148263
0.00841896
-0.0116761
-0.0168149
-0.0203046
-0.0228824
-0.024938
-0.0264869
-0.0275883
-0.0283103
-0.0287047
-0.0288091
-0.0286483
-0.0282349
-0.0275707
-0.026649
-0.0254565
-0.0239758
-0.0221875
-0.0200736
-0.0176192
-0.0148162
-0.0116655
-0.00818006
-0.00438789
-0.000334373
0.00391557
0.00827614
0.0126404
0.0168815
0.0208557
0.0244071
0.0273756
0.0296055
0.0309571
0.0313173
0.0306093
0.0287947
0.0259083
0.0220939
0.0170298
0.00992323
-0.0170893
-0.0224741
-0.0261125
-0.028778
-0.0308826
-0.0324467
-0.0335371
-0.0342304
-0.0345846
-0.0346426
-0.0344319
-0.0339664
-0.0332474
-0.0322658
-0.0310047
-0.0294416
-0.0275512
-0.0253083
-0.0226905
-0.0196814
-0.016274
-0.0124736
-0.0083016
-0.00379838
0.000973436
0.00592695
0.0109497
0.0159039
0.020629
0.0249461
0.0286662
0.0315999
0.033571
0.0344303
0.0340683
0.0324203
0.0295076
0.0254797
0.0199705
0.0120953
-0.0233179
-0.0289597
-0.0327477
-0.0354924
-0.0376297
-0.0391865
-0.0402394
-0.0408751
-0.0411605
-0.0411447
-0.0408597
-0.0403213
-0.0395306
-0.0384763
-0.0371376
-0.0354865
-0.0334909
-0.0311174
-0.0283349
-0.0251174
-0.021448
-0.0173223
-0.0127528
-0.00777263
-0.00243948
0.00316112
0.00891333
0.0146701
0.0202545
0.0254636
0.0300765
0.0338653
0.0366099
0.0381162
0.0382319
0.036856
0.0339884
0.0297797
0.0238103
0.0150926
-0.0304131
-0.0363325
-0.0402736
-0.0430866
-0.0452345
-0.0467527
-0.0477306
-0.0482685
-0.0484447
-0.048317
-0.0479234
-0.0472828
-0.0463966
-0.0452516
-0.0438225
-0.0420754
-0.0399704
-0.0374653
-0.0345186
-0.0310931
-0.0271603
-0.022704
-0.0177253
-0.0122472
-0.00631927
-2.26327e-05
0.00652659
0.0131746
0.0197297
0.025965
0.0316256
0.03644
0.040137
0.042467
0.0432224
0.042253
0.0395262
0.0351865
0.0287492
0.0191107
-0.0384334
-0.0446639
-0.0487653
-0.0516319
-0.0537589
-0.055194
-0.0560442
-0.0564279
-0.0564387
-0.0561464
-0.0555971
-0.0548138
-0.0537991
-0.0525377
-0.0509999
-0.0491449
-0.0469244
-0.0442859
-0.0411762
-0.0375456
-0.0333518
-0.0285647
-0.0231712
-0.0171811
-0.0106326
-0.00359822
0.00380949
0.0114337
0.019071
0.026472
0.0333469
0.0393768
0.0442313
0.0475937
0.0491865
0.0487937
0.0463345
0.0419363
0.0350341
0.0243923
-0.0474491
-0.0540425
-0.0583151
-0.0612136
-0.0632742
-0.0645629
-0.0652112
-0.0653623
-0.0651307
-0.064602
-0.0638329
-0.0628523
-0.0616644
-0.0602517
-0.0585796
-0.0565997
-0.054254
-0.0514784
-0.0482068
-0.0443753
-0.0399259
-0.0348122
-0.0290046
-0.0224961
-0.0153096
-0.00750487
0.000814215
0.00949292
0.0183206
0.0270288
0.035294
0.0427471
0.0489916
0.0536312
0.056301
0.0566981
0.054673
0.050319
0.0429696
0.0312372
-0.0575501
-0.064583
-0.0690413
-0.0719381
-0.0738655
-0.074917
-0.0752594
-0.07507
-0.0744916
-0.0736304
-0.0725568
-0.0713071
-0.0698873
-0.0682775
-0.0664368
-0.0643084
-0.061823
-0.0589038
-0.0554702
-0.0514421
-0.0467445
-0.0413124
-0.0350968
-0.0280709
-0.0202383
-0.0116408
-0.00236811
0.00743361
0.0175531
0.0277083
0.0375457
0.046646
0.0545409
0.0607421
0.0647776
0.0662319
0.0648582
0.0606916
0.0529331
0.0400177
-0.0688575
-0.0764396
-0.0811001
-0.0839416
-0.0856363
-0.0863206
-0.0862119
-0.0855352
-0.0844705
-0.0831509
-0.0816635
-0.0800531
-0.0783271
-0.0764619
-0.0744092
-0.0721015
-0.0694568
-0.0663838
-0.0627857
-0.0585649
-0.0536273
-0.0478875
-0.0412746
-0.0337392
-0.0252611
-0.0158594
-0.00560287
0.00537834
0.0168808
0.0286174
0.0402114
0.0511968
0.0610309
0.069122
0.0748699
0.077715
0.0772765
0.0734951
0.0653952
0.0511969
-0.081542
-0.0898272
-0.0947036
-0.0974023
-0.098715
-0.0988455
-0.0980845
-0.0967226
-0.0949889
-0.0930494
-0.0910111
-0.0889268
-0.0868039
-0.0846131
-0.0822957
-0.0797712
-0.0769426
-0.0737019
-0.0699344
-0.0655233
-0.0603539
-0.0543186
-0.0473228
-0.0392911
-0.0301763
-0.0199693
-0.00871133
0.00349228
0.0164562
0.0298997
0.0434337
0.0565536
0.0686441
0.0790025
0.0868787
0.0915323
0.0924005
0.0892783
0.0809468
0.0653559
-0.0958521
-0.105052
-0.110145
-0.112556
-0.113261
-0.11257
-0.11088
-0.10857
-0.105932
-0.103171
-0.100414
-0.0977214
-0.0950962
-0.0924992
-0.0898576
-0.0870741
-0.0840334
-0.0806085
-0.0766648
-0.0720646
-0.0666712
-0.0603536
-0.0529912
-0.044481
-0.034745
-0.0237412
-0.0114762
0.00197862
0.0164682
0.0317327
0.047386
0.0628993
0.0775933
0.0906519
0.101156
0.108143
0.110809
0.108729
0.10034
0.0832333
-0.11216
-0.12256
-0.127834
-0.129716
-0.129472
-0.127577
-0.124579
-0.120977
-0.117137
-0.113309
-0.109638
-0.106183
-0.10294
-0.0998501
-0.096822
-0.0937362
-0.0904553
-0.08683
-0.0827035
-0.0779156
-0.0723064
-0.0657202
-0.0580097
-0.049042
-0.038706
-0.0269222
-0.0136559
0.00106525
0.0171299
0.0343163
0.0522623
0.0704359
0.0881122
0.104369
0.118104
0.128093
0.133211
0.132717
0.124547
0.105785
-0.131039
-0.143011
-0.148351
-0.149298
-0.147583
-0.143938
-0.139123
-0.133785
-0.12838
-0.123196
-0.118389
-0.114009
-0.110027
-0.106361
-0.102889
-0.0994633
-0.0959194
-0.0920822
-0.0877702
-0.0827991
-0.0769849
-0.0701465
-0.0621091
-0.052709
-0.0417995
-0.0292603
-0.0150091
0.00098006
0.018654
0.037849
0.0582531
0.0793616
0.100434
0.120463
0.138164
0.152011
0.160473
0.162352
0.15485
0.134282
-0.153397
-0.167401
-0.172515
-0.171842
-0.167864
-0.161696
-0.154383
-0.146752
-0.139348
-0.132486
-0.12631
-0.120842
-0.116014
-0.111701
-0.107743
-0.103954
-0.100138
-0.096089
-0.0915985
-0.0864569
-0.0804553
-0.073387
-0.0650497
-0.0552481
-0.0437992
-0.0305384
-0.0153306
0.00191336
0.0212136
0.0424874
0.0655042
0.0898274
0.114747
0.139214
0.161785
0.180603
0.193643
0.199066
0.19298
0.170482
-0.180718
-0.197247
-0.20148
-0.198034
-0.190586
-0.18081
-0.170111
-0.15951
-0.149615
-0.140735
-0.132969
-0.126275
-0.120521
-0.115523
-0.111067
-0.10692
-0.102845
-0.0986047
-0.0939603
-0.0886758
-0.0825175
-0.0752534
-0.0666542
-0.0564938
-0.0445517
-0.0306173
-0.0144979
0.00396765
0.0248883
0.0482871
0.0740524
0.101868
0.131121
0.160796
0.189347
0.214604
0.233958
0.24471
0.241339
0.216932
-0.215526
-0.234893
-0.23685
-0.228684
-0.215948
-0.201071
-0.185863
-0.171504
-0.158602
-0.147388
-0.137855
-0.129853
-0.123153
-0.117485
-0.112565
-0.108105
-0.103822
-0.0994412
-0.0946937
-0.0893173
-0.083054
-0.0756481
-0.0668445
-0.0563873
-0.044019
-0.0294824
-0.0125236
0.00709876
0.0295972
0.055127
0.0837381
0.1153
0.14939
0.185141
0.221034
0.254665
0.282811
0.301666
0.303331
0.277551
-0.262307
-0.283986
-0.28077
-0.264639
-0.243917
-0.221944
-0.200874
-0.181915
-0.165529
-0.151751
-0.140378
-0.131089
-0.123513
-0.11727
-0.111989
-0.107318
-0.102925
-0.0984959
-0.0937323
-0.0883472
-0.0820607
-0.0745959
-0.0656743
-0.0550125
-0.0423184
-0.0272882
-0.00960543
0.0110571
0.0350292
0.0626242
0.0941004
0.129591
0.168985
0.211741
0.256588
0.301116
0.341599
0.372923
0.383883
0.358781
-0.329484
-0.350179
-0.335864
-0.306451
-0.273877
-0.24228
-0.213862
-0.189535
-0.169358
-0.152979
-0.139877
-0.129481
-0.121234
-0.114619
-0.109168
-0.104461
-0.100114
-0.0957788
-0.0911303
-0.0858604
-0.0796712
-0.0722685
-0.0633549
-0.0526236
-0.0397513
-0.0243913
-0.00616612
0.0153391
0.0405801
0.07005
0.104261
0.143695
0.188704
0.239317
0.294876
0.353443
0.411241
0.461925
0.490185
0.471955
-0.433338
-0.441973
-0.404664
-0.353544
-0.303893
-0.259797
-0.222704
-0.1926
-0.168718
-0.150059
-0.135633
-0.124541
-0.116004
-0.109356
-0.104032
-0.0995448
-0.0954695
-0.0914283
-0.0870769
-0.082093
-0.0761673
-0.0689944
-0.0602639
-0.0496519
-0.0368112
-0.0213591
-0.00286422
0.0191701
0.045324
0.07628
0.112837
0.155904
0.206458
0.265401
0.333228
0.409341
0.49107
0.571748
0.632274
0.637304
-0.604337
-0.570652
-0.488451
-0.403341
-0.330151
-0.270837
-0.224452
-0.188949
-0.162123
-0.142029
-0.127068
-0.115965
-0.107713
-0.101509
-0.096706
-0.0927701
-0.0892495
-0.0857512
-0.0819223
-0.0774363
-0.0719808
-0.0652472
-0.0569206
-0.046669
-0.0341312
-0.0189011
-0.000508115
0.0216091
0.0481372
0.0799345
0.118088
0.16398
0.219351
0.286307
0.367181
0.464103
0.577712
0.703369
0.821949
0.888689
-0.905534
-0.747626
-0.583084
-0.449269
-0.346277
-0.27042
-0.215766
-0.176572
-0.1485
-0.128426
-0.114104
-0.103912
-0.096662
-0.0914648
-0.0876322
-0.0846144
-0.0819568
-0.0792697
-0.0762065
-0.0724475
-0.0676873
-0.0616238
-0.053947
-0.0443281
-0.0324056
-0.0177675
7.22764e-05
0.0217079
0.0478912
0.0796038
0.118166
0.165394
0.223832
0.297039
0.389951
0.509272
0.662228
0.850733
1.07108
1.29319
-1.51433
-0.976318
-0.650294
-0.457782
-0.328486
-0.242764
-0.186547
-0.149069
-0.123736
-0.106542
-0.0949089
-0.0871155
-0.0819744
-0.0786292
-0.0764343
-0.074881
-0.0735505
-0.0720838
-0.0701608
-0.0674847
-0.0637708
-0.0587357
-0.0520877
-0.0435173
-0.0326825
-0.0191933
-0.00258704
0.0177058
0.0424156
0.0725182
0.109373
0.154954
0.212251
0.285935
0.383603
0.517945
0.707235
0.973645
1.38718
2.03614
-2.65469
-1.20473
-0.592958
-0.358114
-0.233532
-0.162081
-0.120978
-0.0962777
-0.0809342
-0.0714263
-0.0657568
-0.0626778
-0.0613498
-0.0611651
-0.0616541
-0.0624343
-0.0631796
-0.0636008
-0.0634325
-0.0624228
-0.0603259
-0.0568945
-0.0518745
-0.0449943
-0.0359587
-0.0244351
-0.0100365
0.00770395
0.029372
0.0557362
0.0878573
0.127288
0.176465
0.239536
0.324329
0.446973
0.639169
0.970252
1.69811
3.27102
1.17601e-05
-0.000356855
-0.00120626
-0.00232067
-0.00349776
-0.00459413
-0.00550857
-0.00617273
-0.00654343
-0.00659636
-0.00632121
-0.00571829
-0.00479613
-0.00356995
-0.00206071
-0.0002946
0.00169719
0.00387858
0.00620866
0.00864192
0.0111286
0.0136152
0.0160457
0.0183625
0.0205083
0.0224277
0.0240698
0.0253902
0.0263538
0.0269371
0.0271305
0.0269411
0.0263944
0.0255368
0.0244378
0.0231932
0.0219265
0.0207936
0.0199923
0.0197063
0.000380473
9.67199e-06
-0.000660343
-0.00150454
-0.00239335
-0.00322225
-0.00391185
-0.00440436
-0.00466025
-0.00465499
-0.004376
-0.00382026
-0.00299249
-0.00190388
-0.00057126
0.000983463
0.00273357
0.00464776
0.00669033
0.00882147
0.0109977
0.0131724
0.0152971
0.0173219
0.0191979
0.0208781
0.0223197
0.0234861
0.0243492
0.024891
0.0251062
0.0250037
0.0246083
0.0239616
0.0231238
0.0221736
0.0212075
0.0203392
0.0197022
0.0194201
0.0012369
0.000673992
-6.95534e-06
-0.000772872
-0.00154988
-0.00225799
-0.00283611
-0.00323851
-0.00343243
-0.00339663
-0.00311954
-0.00259765
-0.00183417
-0.000838121
0.000376325
0.00179024
0.00338022
0.00511851
0.00697327
0.00890877
0.0108858
0.0128625
0.0147948
0.016638
0.0183476
0.0198815
0.0212013
0.0222743
0.0230756
0.0235897
0.0238125
0.0237525
0.0234321
0.0228879
0.0221716
0.0213484
0.0204964
0.0197055
0.0190629
0.018623
0.00238516
0.00152353
0.00073123
-5.46846e-05
-0.000810362
-0.00147365
-0.00200001
-0.00235623
-0.00251774
-0.0024683
-0.00219906
-0.00170745
-0.000996397
-7.36826e-05
0.00104843
0.00235341
0.00382064
0.00542541
0.00713913
0.00892944
0.0107606
0.0125941
0.0143894
0.0161048
0.0176991
0.0191329
0.0203701
0.0213799
0.0221388
0.0226318
0.0228543
0.0228131
0.0225273
0.0220286
0.0213604
0.0205764
0.01974
0.0189262
0.0181808
0.017479
0.00364062
0.00243762
0.00148588
0.000629425
-0.000153421
-0.000814455
-0.00132399
-0.00166095
-0.00180915
-0.00175795
-0.00150194
-0.00104023
-0.00037605
0.000483531
0.00152775
0.00274216
0.00410861
0.00560515
0.00720607
0.00888195
0.0106
0.0123243
0.0140171
0.0156389
0.0171504
0.0185137
0.019694
0.0206609
0.021391
0.0218685
0.0220875
0.0220522
0.0217782
0.0212916
0.0206286
0.0198331
0.0189566
0.0180637
0.0171628
0.0161501
0.00486979
0.00331405
0.00217553
0.00121371
0.000367579
-0.000324844
-0.000846483
-0.00118725
-0.00133892
-0.00129653
-0.00105832
-0.000625476
-1.93992e-06
0.000805553
0.00178739
0.00293087
0.00421998
0.00563519
0.00715325
0.00874723
0.0103866
0.0120377
0.0136642
0.0152282
0.0166912
0.0180157
0.0191667
0.0201133
0.0208307
0.0213015
0.0215173
0.0214793
0.021199
0.0206975
0.0200049
0.0191569
0.0181962
0.017182
0.0160916
0.0147493
0.00597157
0.00406782
0.00273001
0.00164196
0.000708914
-3.82855e-05
-0.000593051
-0.000954916
-0.00112292
-0.00109739
-0.000880201
-0.000474671
0.000114358
0.000880273
0.00181437
0.00290543
0.00413934
0.00549863
0.0069622
0.00850513
0.0100987
0.0117107
0.0133059
0.0148468
0.0162949
0.017612
0.0187619
0.019712
0.0204352
0.0209112
0.0211285
0.0210847
0.020787
0.020252
0.0195046
0.018574
0.0174976
0.0163326
0.0150313
0.0133541
0.00686706
0.004627
0.00308679
0.00186187
0.000828173
1.14947e-05
-0.000590287
-0.000985037
-0.0011782
-0.00117491
-0.000980394
-0.000599978
-3.93887e-05
0.000694816
0.00159472
0.00265045
0.00384955
0.00517643
0.00661183
0.00813251
0.00971115
0.0113165
0.0129136
0.0144649
0.015931
0.0172722
0.0184501
0.0194293
0.0201794
0.0206765
0.0209049
0.0208581
0.0205389
0.0199599
0.0191413
0.018108
0.0168938
0.0155577
0.0140316
0.0120186
0.00749224
0.00492956
0.00318893
0.001823
0.000681614
-0.000212989
-0.000870254
-0.00130526
-0.00152903
-0.00155096
-0.00137923
-0.00102093
-0.000482554
0.00022946
0.00110798
0.00214439
0.00332783
0.0046444
0.00607649
0.00760231
0.00919559
0.0108256
0.0124574
0.0140525
0.0155701
0.0169681
0.018205
0.0192416
0.0200433
0.0205816
0.0208359
0.0207948
0.0204568
0.01983
0.0189311
0.017782
0.0164148
0.0148929
0.0131313
0.0107797
0.00779256
0.00492063
0.00298417
0.00147716
0.000225592
-0.000750854
-0.00146793
-0.00194703
-0.00220408
-0.00225213
-0.00210191
-0.001762
-0.00123943
-0.000540374
0.000328886
0.00136105
0.00254682
0.00387393
0.00532634
0.00688355
0.00852015
0.0102057
0.0119047
0.0135776
0.0151813
0.0166706
0.0180001
0.019126
0.0200084
0.020613
0.0209137
0.0208933
0.0205452
0.0198735
0.0188917
0.0176193
0.0160887
0.0143694
0.0123618
0.00966414
0.00771913
0.00455012
0.00242366
0.00077798
-0.000583174
-0.00164214
-0.00242025
-0.00294454
-0.00323525
-0.00330862
-0.00317751
-0.00285168
-0.00233839
-0.00164341
-0.000771975
0.000270029
0.00147495
0.00283222
0.00432739
0.00594122
0.00764908
0.00942061
0.0112198
0.0130052
0.0147312
0.0163489
0.0178081
0.0190594
0.0200565
0.0207584
0.021132
0.0211537
0.0208112
0.0201038
0.0190421
0.0176438
0.0159429
0.0140161
0.0117509
0.00869328
0.00722632
0.00377099
0.0014608
-0.000319609
-0.00178773
-0.0029276
-0.00376567
-0.00433415
-0.00465714
-0.00475367
-0.0046384
-0.00432188
-0.00381141
-0.00311204
-0.00222779
-0.00116292
7.67486e-05
0.00148253
0.00304166
0.00473631
0.00654268
0.00843054
0.010363
0.012297
0.0141836
0.0159697
0.0175997
0.0190174
0.020169
0.0210055
0.0214856
0.0215781
0.0212637
0.0205365
0.0194037
0.0178816
0.0160059
0.0138628
0.0113261
0.00788762
0.0062702
0.00253803
5.04192e-05
-0.00185992
-0.00343105
-0.00464858
-0.00554385
-0.00615389
-0.00650638
-0.00662285
-0.00651944
-0.00620724
-0.00569327
-0.00498162
-0.00407482
-0.00297522
-0.00168655
-0.00021536
0.0014276
0.00322611
0.00515747
0.00719171
0.00929126
0.011411
0.0134988
0.0154967
0.0173428
0.0189734
0.0203259
0.0213417
0.0219699
0.0221698
0.021914
0.0211902
0.0200013
0.0183618
0.01631
0.0139419
0.0111175
0.00727004
0.00480758
0.000806909
-0.00185195
-0.00388692
-0.00555616
-0.00684691
-0.00779526
-0.00844292
-0.00882098
-0.00895327
-0.00885719
-0.00854414
-0.00802061
-0.00728944
-0.00635135
-0.00520648
-0.00385609
-0.0023042
-0.000559148
0.0013649
0.00344671
0.00565695
0.00795754
0.0103015
0.0126334
0.01489
0.0170026
0.0188988
0.0205057
0.0217538
0.0225804
0.0229337
0.0227759
0.0220867
0.0208636
0.0191187
0.0168921
0.0142912
0.0111603
0.00686879
0.00279554
-0.00146632
-0.00429053
-0.00644454
-0.00820631
-0.00956481
-0.0105609
-0.0112411
-0.0116396
-0.0117827
-0.0116889
-0.0113696
-0.0108307
-0.0100734
-0.00909641
-0.00789716
-0.00647403
-0.00482799
-0.00296444
-0.000894885
0.00136148
0.00377649
0.0063121
0.0089198
0.0115408
0.0141066
0.0165409
0.0187616
0.0206846
0.0222271
0.0233127
0.0238756
0.0238657
0.0232521
0.0220251
0.0201926
0.0177967
0.0149562
0.0114979
0.00672031
0.000191163
-0.00432571
-0.00730977
-0.00957705
-0.0114251
-0.0128448
-0.0138821
-0.0145882
-0.0150009
-0.0151487
-0.0150512
-0.01472
-0.0141599
-0.0133706
-0.012348
-0.0110867
-0.00958166
-0.0078301
-0.00583381
-0.0036009
-0.00114771
0.00149956
0.00430355
0.00721484
0.0101717
0.0131003
0.0159165
0.0185277
0.0208368
0.0227458
0.0241621
0.0250032
0.025203
0.0247173
0.0235265
0.0216324
0.0190773
0.0159925
0.0121845
0.00687207
-0.00304896
-0.00781583
-0.0109547
-0.0133293
-0.0152566
-0.0167299
-0.0178
-0.0185236
-0.0189424
-0.0190871
-0.0189788
-0.0186291
-0.0180419
-0.0172148
-0.0161409
-0.0148113
-0.013217
-0.0113508
-0.00920995
-0.00679836
-0.00412846
-0.00122344
0.00188103
0.00513552
0.00847595
0.0118237
0.0150865
0.0181607
0.0209346
0.0232932
0.0251244
0.0263256
0.0268112
0.0265194
0.0254169
0.0234966
0.0207994
0.0174687
0.0132876
0.00738555
-0.00696796
-0.0119821
-0.0152716
-0.0177474
-0.0197459
-0.0212629
-0.0223554
-0.0230856
-0.0234994
-0.0236309
-0.0235026
-0.0231264
-0.0225051
-0.0216342
-0.0205038
-0.0191008
-0.0174116
-0.0154239
-0.0131295
-0.0105268
-0.00762326
-0.00443772
-0.00100282
0.00263319
0.00640507
0.01023
0.014008
0.0176237
0.0209499
0.0238523
0.0261962
0.0278549
0.0287183
0.0287023
0.0277551
0.0258563
0.0230427
0.0194696
0.0148922
0.0083396
-0.0116099
-0.0168715
-0.0203086
-0.022879
-0.0249389
-0.0264874
-0.0275881
-0.02831
-0.0287043
-0.0288086
-0.0286478
-0.0282343
-0.0275702
-0.0266485
-0.0254561
-0.0239753
-0.0221871
-0.0200732
-0.017619
-0.014816
-0.0116654
-0.00818
-0.00438789
-0.000334428
0.00391547
0.00827604
0.0126403
0.0168815
0.0208558
0.0244074
0.0273761
0.0296064
0.0309582
0.0313187
0.0306115
0.0287973
0.0259046
0.0220993
0.0171037
0.0098343
-0.0170198
-0.0225337
-0.0261169
-0.0287745
-0.0308835
-0.0324472
-0.0335369
-0.03423
-0.0345841
-0.034642
-0.0344313
-0.0339658
-0.0332468
-0.0322652
-0.0310041
-0.029441
-0.0275507
-0.0253078
-0.0226901
-0.0196811
-0.0162738
-0.0124735
-0.00830152
-0.00379838
0.000973385
0.00592686
0.0109496
0.0159039
0.0206291
0.0249465
0.0286668
0.0316009
0.0335723
0.034432
0.0340709
0.0324233
0.0295036
0.025486
0.0200534
0.0119956
-0.0232448
-0.0290225
-0.0327525
-0.0354888
-0.0376308
-0.039187
-0.0402392
-0.0408746
-0.0411599
-0.041144
-0.0408589
-0.0403205
-0.0395298
-0.0384756
-0.0371369
-0.0354858
-0.0334902
-0.0311169
-0.0283344
-0.025117
-0.0214476
-0.017322
-0.0127526
-0.00777256
-0.0024395
0.00316105
0.00891324
0.0146701
0.0202545
0.0254639
0.0300771
0.0338663
0.0366113
0.0381182
0.038235
0.0368596
0.0339842
0.029787
0.0239035
0.0149807
-0.0303361
-0.0363989
-0.0402789
-0.0430831
-0.0452358
-0.0467533
-0.0477303
-0.0482679
-0.0484439
-0.0483161
-0.0479225
-0.0472819
-0.0463957
-0.0452506
-0.0438216
-0.0420745
-0.0399697
-0.0374646
-0.034518
-0.0310926
-0.0271598
-0.0227036
-0.0177251
-0.012247
-0.00631926
-2.27091e-05
0.00652647
0.0131745
0.0197296
0.0259652
0.0316261
0.036441
0.0401386
0.0424692
0.043226
0.0422573
0.0395218
0.0351951
0.0288541
0.0189853
-0.0383519
-0.0447345
-0.0487713
-0.0516283
-0.0537603
-0.0551946
-0.0560439
-0.0564272
-0.0564378
-0.0561454
-0.055596
-0.0548127
-0.053798
-0.0525366
-0.0509989
-0.049144
-0.0469236
-0.0442851
-0.0411755
-0.037545
-0.0333513
-0.0285643
-0.0231709
-0.017181
-0.0106326
-0.00359834
0.00380928
0.0114335
0.0190708
0.026472
0.0333473
0.0393777
0.0442329
0.0475961
0.0491907
0.0487987
0.04633
0.0419465
0.0351522
0.0242515
-0.0473623
-0.0541183
-0.058322
-0.0612101
-0.0632759
-0.0645636
-0.0652108
-0.0653614
-0.0651296
-0.0646007
-0.0638315
-0.062851
-0.0616631
-0.0602506
-0.0585785
-0.0565987
-0.054253
-0.0514775
-0.0482061
-0.0443746
-0.0399254
-0.0348118
-0.0290043
-0.022496
-0.0153097
-0.0075051
0.00081385
0.00949248
0.0183202
0.0270286
0.0352941
0.0427478
0.0489931
0.0536337
0.0563056
0.056704
0.0546684
0.0503313
0.0431029
0.0310793
-0.0574567
-0.0646654
-0.0690495
-0.0719348
-0.0738675
-0.0749178
-0.0752587
-0.0750689
-0.0744901
-0.0736288
-0.0725552
-0.0713056
-0.0698859
-0.0682762
-0.0664357
-0.0643073
-0.0618221
-0.058903
-0.0554695
-0.0514415
-0.0467441
-0.0413121
-0.0350966
-0.0280709
-0.0202385
-0.0116413
-0.00236873
0.00743285
0.0175523
0.0277076
0.0375453
0.0466463
0.0545421
0.0607446
0.0647827
0.0662387
0.0648536
0.0607063
0.0530839
0.0398403
-0.0687557
-0.0765309
-0.0811101
-0.0839385
-0.0856386
-0.0863213
-0.0862109
-0.0855336
-0.0844686
-0.0831489
-0.0816616
-0.0800514
-0.0783255
-0.0764605
-0.074408
-0.0721004
-0.0694559
-0.0663831
-0.0627851
-0.0585645
-0.053627
-0.0478874
-0.0412747
-0.0337394
-0.0252616
-0.0158602
-0.00560387
0.00537711
0.0168794
0.028616
0.0402103
0.0511963
0.0610314
0.0691241
0.0748753
0.0777228
0.077272
0.073513
0.0655664
0.0509974
-0.081429
-0.0899306
-0.0947161
-0.0973994
-0.0987176
-0.0988459
-0.098083
-0.0967204
-0.0949864
-0.093047
-0.0910088
-0.0889248
-0.0868022
-0.0846117
-0.0822946
-0.0797703
-0.0769419
-0.0737014
-0.069934
-0.0655231
-0.0603539
-0.0543188
-0.0473232
-0.0392917
-0.0301772
-0.0199706
-0.00871287
0.00349039
0.016454
0.0298974
0.0434315
0.0565519
0.0686435
0.0790037
0.0868839
0.0915407
0.0923959
0.0893002
0.0811425
0.0651313
-0.0957241
-0.105172
-0.110161
-0.112553
-0.113264
-0.11257
-0.110878
-0.108567
-0.105929
-0.103168
-0.100412
-0.0977191
-0.0950945
-0.0924979
-0.0898566
-0.0870733
-0.084033
-0.0806083
-0.0766648
-0.0720648
-0.0666716
-0.0603542
-0.052992
-0.0444821
-0.0347464
-0.023743
-0.0114785
0.00197589
0.016465
0.0317291
0.0473823
0.0628959
0.0775909
0.0906515
0.10116
0.108152
0.110804
0.108756
0.100565
0.0829797
-0.112012
-0.122704
-0.127855
-0.129712
-0.129474
-0.127575
-0.124575
-0.120972
-0.117133
-0.113305
-0.109635
-0.106181
-0.102938
-0.0998489
-0.0968213
-0.0937358
-0.0904553
-0.0868302
-0.0827039
-0.0779162
-0.0723073
-0.0657213
-0.0580111
-0.0490437
-0.0387081
-0.0269247
-0.013659
0.0010615
0.0171255
0.0343111
0.0522566
0.0704301
0.088107
0.104365
0.118106
0.1281
0.133205
0.13275
0.12481
0.105497
-0.130864
-0.143191
-0.148377
-0.149292
-0.147583
-0.143934
-0.139116
-0.133778
-0.128374
-0.123191
-0.118386
-0.114006
-0.110026
-0.10636