/*--------------------------------*- C++ -*----------------------------------*\
  =========                 |
  \\      /  F ield         | OpenFOAM: The Open Source CFD Toolbox
   \\    /   O peration     | Website:  https://openfoam.org
    \\  /    A nd           | Version:  9
     \\/     M anipulation  |
\*---------------------------------------------------------------------------*/
FoamFile
{
    format      ascii;
    class       volScalarField;
    location    "215";
    object      epsilon;
}
// * * * * * * * * * * * * * * * * * * * * * * * * * * * * * * * * * * * * * //

dimensions      [0 2 -3 0 0 0 0];

internalField   nonuniform List<scalar> 
12225
(
285.514
270.701
257.917
243.809
232.464
223.083
216.813
212.697
212.741
213.965
217.229
220.937
228.101
232.724
241.287
246.785
254.022
264.44
52.4936
91.8811
106.971
114.749
124.841
136.784
152.688
169.903
191.112
210.929
235.235
255.476
281.071
299.324
324.774
339.307
364.653
373.455
20.3231
34.8568
44.6744
50.47
55.3955
59.6078
64.6637
69.6423
76.3182
83.1821
91.439
99.3173
108.177
116.939
125.548
135.29
142.594
153.76
15.3481
19.6977
24.1124
27.5688
30.4972
32.8696
35.1553
37.293
39.503
41.917
44.3377
47.2011
49.6829
53.0392
55.4151
59.2378
61.4364
65.6496
14.6508
15.8626
17.367
19.0737
20.6383
22.0258
23.2461
24.4309
25.4442
26.5944
27.5236
28.7578
29.6324
30.9855
31.8138
33.2657
34.0791
35.6475
14.7068
14.8769
15.2015
15.8667
16.5667
17.2867
17.9237
18.5841
19.1191
19.7339
20.1933
20.7989
21.2085
21.8226
22.1984
22.8255
23.1797
23.8587
14.7421
14.6201
14.6248
14.737
14.9297
15.219
15.4913
15.8088
16.0709
16.3826
16.6181
16.9202
17.1309
17.427
17.6159
17.9122
18.0817
18.4063
14.7626
14.5866
14.4638
14.3812
14.3669
14.39
14.4381
14.5337
14.6185
14.7366
14.8308
14.9564
15.0477
15.1762
15.261
15.3918
15.4699
15.6197
14.7667
14.5908
14.4346
14.2963
14.1849
14.1044
14.0398
14.0066
13.9814
13.9785
13.9809
13.9916
14.0041
14.0295
14.0471
14.0794
14.1032
14.1457
14.7663
14.5939
14.432
14.282
14.143
14.0219
13.9115
13.8193
13.737
13.6698
13.6102
13.5633
13.5181
13.4872
13.4516
13.4342
13.4022
13.4008
14.7658
14.5945
14.4321
14.2803
14.1361
14.0032
13.8782
13.7644
13.6582
13.5629
13.4735
13.3952
13.3198
13.2561
13.1915
13.1408
13.0838
13.0451
14.7657
14.5943
14.4321
14.2798
14.1353
13.9998
13.8715
13.7518
13.6385
13.5336
13.4341
13.343
13.2557
13.1771
13.1003
13.0328
12.9647
12.9074
14.7657
14.5941
14.432
14.2794
14.1349
13.9989
13.8699
13.7485
13.6331
13.5249
13.422
13.3257
13.2338
13.1483
13.0663
12.9906
12.9172
12.8502
14.7657
14.5939
14.4318
14.279
14.1346
13.9983
13.8691
13.7472
13.6315
13.5223
13.4184
13.3203
13.227
13.1389
13.055
12.9759
12.9002
12.8291
14.7657
14.5938
14.4317
14.2787
14.1342
13.9977
13.8686
13.7464
13.6307
13.5211
13.4171
13.3185
13.2248
13.136
13.0516
12.9715
12.8952
12.8228
14.7657
14.5937
14.4316
14.2785
14.1339
13.9973
13.8681
13.7458
13.63
13.5202
13.4161
13.3174
13.2236
13.1346
13.05
12.9696
12.8932
12.8204
14.7657
14.5937
14.4315
14.2783
14.1337
13.997
13.8677
13.7453
13.6294
13.5195
13.4154
13.3165
13.2227
13.1336
13.0489
12.9684
12.8918
12.819
14.7657
14.5937
14.4314
14.2782
14.1335
13.9968
13.8674
13.745
13.629
13.5191
13.4148
13.3159
13.222
13.1329
13.0481
12.9675
12.8909
12.818
14.7657
14.5937
14.4314
14.2782
14.1335
13.9967
13.8673
13.7448
13.6288
13.5189
13.4146
13.3157
13.2217
13.1325
13.0477
12.9671
12.8904
12.8174
14.7657
14.5937
14.4314
14.2782
14.1336
13.9968
13.8674
13.745
13.629
13.5191
13.4148
13.3159
13.2219
13.1327
13.0479
12.9673
12.8907
12.8177
14.7657
14.5937
14.4315
14.2784
14.1337
13.997
13.8677
13.7453
13.6294
13.5196
13.4154
13.3166
13.2229
13.1338
13.0493
12.9689
12.8927
12.82
14.7657
14.5937
14.4316
14.2785
14.1341
13.9974
13.8685
13.7464
13.6312
13.522
13.419
13.3214
13.2293
13.1418
13.0595
12.981
12.9074
12.8368
14.7658
14.5937
14.4318
14.2788
14.1353
14.0002
13.8742
13.756
13.6463
13.5435
13.4485
13.3591
13.277
13.1992
13.1282
13.0601
12.9988
12.9386
14.7655
14.5928
14.4328
14.2844
14.1515
14.0321
13.929
13.8375
13.7593
13.6894
13.6307
13.5769
13.5328
13.4905
13.4574
13.423
13.3989
13.3693
14.7592
14.5932
14.4603
14.3602
14.3029
14.2766
14.2805
14.2921
14.321
14.3531
14.3959
14.4345
14.4824
14.5217
14.572
14.6089
14.6616
14.6939
14.7213
14.6911
14.754
14.9176
15.1828
15.4611
15.7476
16.012
16.2723
16.5038
16.7361
16.9386
17.1507
17.3309
17.5309
17.6936
17.8888
18.036
14.7477
15.5124
16.5473
17.6841
18.7044
19.5675
20.3372
20.9968
21.6194
22.1661
22.7189
23.2108
23.74
24.2043
24.7328
25.1827
25.7251
26.166
15.9871
20.992
25.0238
27.7604
29.7847
31.3585
32.7771
34.0579
35.3595
36.6164
37.9755
39.2972
40.7617
42.1459
43.718
45.1739
46.8839
48.3587
29.9032
47.2182
54.8696
58.6734
61.614
64.4319
67.5807
70.9776
74.7389
78.7147
82.9859
87.3451
91.9059
96.451
101.101
105.623
110.176
114.578
165.798
160.075
154.899
149.564
144.479
139.677
135.615
132.108
129.27
126.973
125.32
124.044
123.34
122.825
122.841
122.96
123.284
123.828
0.358335
0.398917
0.719215
1.02095
1.34187
1.68962
2.0694
2.48098
2.91855
3.37372
3.83798
4.30442
4.7679
5.22498
5.67313
6.11032
6.53433
6.94256
7.33182
7.69874
8.03999
8.35286
8.63553
8.88724
9.10777
39.5059
40.5081
41.1916
42.1365
42.5838
42.6862
42.7612
42.5229
40.8915
9.08234
9.32073
40.4389
41.396
41.6835
46.3556
49.0369
52.658
56.2317
60.0359
64.0007
68.1341
72.444
76.9269
81.59
86.4349
91.4657
96.6863
102.099
107.71
113.52
119.534
125.753
132.183
138.822
145.677
152.745
160.032
167.534
175.256
183.195
191.352
199.724
208.313
217.113
226.125
235.34
244.761
254.378
264.19
274.186
284.365
294.714
305.232
315.904
326.727
337.683
348.772
359.971
371.278
382.67
394.141
405.667
417.238
428.829
440.425
451.998
463.52
474.963
486.299
497.506
508.581
519.564
530.513
541.277
551.907
562.366
572.644
582.72
592.576
602.191
611.549
620.628
629.413
637.882
646.021
653.806
661.225
668.252
674.876
681.075
686.834
692.135
696.963
701.302
705.137
708.455
711.246
713.498
715.202
716.347
716.903
716.795
715.975
714.7
713.01
710.601
707.562
703.923
699.684
694.864
689.463
683.499
676.939
669.816
662.177
654.042
645.437
636.395
626.953
617.145
607.009
596.583
585.907
575.018
563.959
552.768
541.485
530.149
518.802
507.494
496.305
485.483
476.61
470.169
464.074
458.053
452.082
446.192
440.424
434.795
429.327
424.041
418.963
414.116
409.524
405.198
401.156
397.405
393.96
390.806
387.836
384.943
381.838
377.052
356.935
1.61661
0.96607
0.970988
1.102
1.30051
1.54974
1.84357
2.1754
2.53738
2.92141
3.32042
3.72907
4.14392
4.56329
4.98711
5.41705
5.85709
6.31493
6.80484
7.35246
8.003
8.835
9.98407
11.6849
14.3493
18.7191
19.8696
20.4852
20.971
21.2666
21.3707
21.278
20.8157
19.9235
19.0063
22.0849
25.1668
26.236
27.7229
29.548
31.202
32.9974
34.8336
36.7414
38.7132
40.752
42.8599
45.0379
47.288
49.6115
52.0096
54.4838
57.0351
59.6645
62.3729
65.1611
68.0297
70.9795
74.0105
77.1233
80.3177
83.5939
86.9515
90.3904
93.9096
97.5087
101.187
104.942
108.774
112.681
116.661
120.713
124.833
129.02
133.27
137.583
141.952
146.377
150.853
155.376
159.943
164.548
169.186
173.854
178.544
183.252
187.97
192.692
197.411
202.119
206.806
211.466
216.091
220.678
225.23
229.762
234.302
238.911
243.445
247.927
252.342
256.686
260.951
265.13
269.216
273.201
277.08
280.844
284.486
288
291.379
294.614
297.699
300.628
303.392
305.986
308.402
310.635
312.677
314.522
316.166
317.602
318.824
319.828
320.604
321.14
321.421
321.455
321.284
320.898
320.247
319.329
318.162
316.744
315.079
313.17
311.018
308.624
305.994
303.141
300.072
296.796
293.326
289.674
285.853
281.877
277.761
273.521
269.17
264.725
260.202
255.617
250.986
246.326
241.656
237.009
232.468
228.33
224.696
221.22
217.81
214.45
211.148
207.917
204.764
201.699
198.732
195.872
193.13
190.513
188.032
185.692
183.501
181.467
179.601
177.898
176.347
175.036
173.695
172.071
3.2678
1.65028
1.46911
1.51776
1.66117
1.86905
2.12854
2.43088
2.76786
3.13157
3.51518
3.91357
4.32358
4.74371
5.17412
5.61699
6.07679
6.56068
7.0807
7.656
8.31525
9.0977
10.0495
11.2079
12.5593
13.942
14.8358
15.5543
16.211
16.8199
17.3934
17.9543
18.5378
19.2529
20.2772
21.7789
23.1853
24.4398
25.7868
27.1995
28.6365
30.1315
31.6789
33.281
34.9375
36.6491
38.4169
40.2415
42.1238
44.0647
46.0647
48.1248
50.2453
52.4271
54.6705
56.9761
59.3442
61.7752
64.2691
66.8262
69.4464
72.1296
74.8756
77.6842
80.5546
83.4865
86.479
89.5313
92.6423
95.8109
99.0356
102.315
105.648
109.031
112.464
115.944
119.468
123.034
126.639
130.281
133.955
137.66
141.39
145.142
148.912
152.697
156.49
160.289
164.089
167.885
171.672
175.448
179.21
182.958
186.693
190.419
194.141
197.85
201.514
205.132
208.699
212.208
215.653
219.03
222.332
225.554
228.69
231.734
234.681
237.524
240.26
242.88
245.381
247.756
249.999
252.106
254.07
255.887
257.55
259.056
260.399
261.574
262.577
263.402
264.043
264.489
264.724
264.788
264.677
264.368
263.855
263.135
262.213
261.09
259.769
258.251
256.538
254.635
252.545
250.276
247.834
245.228
242.465
239.556
236.511
233.341
230.057
226.671
223.195
219.642
216.025
212.356
208.648
204.915
201.171
197.439
193.766
190.257
186.957
183.771
180.652
177.591
174.589
171.655
168.796
166.017
163.327
160.733
158.241
155.859
153.594
151.451
149.438
147.562
145.836
144.271
142.882
141.751
140.831
140.38
5.02004
2.38553
2.01524
1.99475
2.10419
2.28981
2.53168
2.81916
3.14421
3.49979
3.87984
4.27962
4.69593
5.12724
5.5735
6.03565
6.5158
7.01786
7.54772
8.1139
8.72786
9.40305
10.1512
10.9742
11.852
12.7331
13.559
14.3667
15.1806
16.0086
16.8569
17.7363
18.6666
19.6807
20.8184
22.0338
23.2668
24.5179
25.8225
27.1739
28.5638
30.0008
31.4868
33.0232
34.6108
36.2505
37.9431
39.6893
41.4901
43.3463
45.2585
47.2275
49.2537
51.3379
53.4805
55.6821
57.9431
60.264
62.645
65.0864
67.5883
70.1508
72.7738
75.4571
78.2005
81.0036
83.8657
86.7863
89.7645
92.7992
95.8895
99.0338
102.231
105.479
108.776
112.12
115.509
118.941
122.413
125.922
129.464
133.038
136.64
140.266
143.912
147.574
151.25
154.935
158.624
162.315
166.004
169.688
173.364
177.03
180.685
184.327
187.95
191.545
195.099
198.608
202.065
205.466
208.803
212.073
215.268
218.384
221.414
224.354
227.198
229.94
232.575
235.097
237.5
239.78
241.931
243.947
245.824
247.557
249.139
250.568
251.836
252.942
253.878
254.642
255.229
255.623
255.809
255.86
255.71
255.371
254.837
254.107
253.184
252.068
250.761
249.265
247.584
245.722
243.683
241.473
239.099
236.568
233.889
231.072
228.125
225.059
221.886
218.616
215.261
211.834
208.346
204.809
201.237
197.641
194.036
190.441
186.887
183.424
180.081
176.826
173.64
170.516
167.456
164.466
161.553
158.723
155.982
153.337
150.794
148.36
146.04
143.841
141.771
139.837
138.051
136.433
135.003
133.834
132.939
132.535
6.71786
3.11717
2.5586
2.47315
2.54904
2.71468
2.94231
3.21859
3.53496
3.88477
4.26254
4.66394
5.08586
5.52644
5.98496
6.46161
6.9574
7.47411
8.01436
8.58175
9.1809
9.81711
10.4951
11.2165
11.9767
12.7652
13.5745
14.4097
15.2761
16.1756
17.1089
18.0772
19.0852
20.1409
21.2554
22.4275
23.6412
24.8962
26.195
27.5377
28.9268
30.3634
31.8488
33.3846
34.9716
36.6111
38.304
40.0513
41.854
43.7131
45.6297
47.6049
49.639
51.7327
53.8868
56.1021
58.3792
60.7189
63.1215
65.5877
68.1177
70.712
73.3707
76.0939
78.8815
81.7334
84.6492
87.6285
90.6706
93.7747
96.9398
100.165
103.448
106.789
110.184
113.633
117.132
120.68
124.274
127.911
131.588
135.301
139.048
142.825
146.627
150.451
154.294
158.15
162.016
165.887
169.761
173.632
177.496
181.35
185.189
189.006
192.795
196.55
200.261
203.924
207.531
211.077
214.556
217.962
221.288
224.529
227.678
230.73
233.679
236.518
239.243
241.848
244.326
246.673
248.882
250.949
252.868
254.635
256.243
257.689
258.968
260.074
261.005
261.754
262.32
262.682
262.842
262.849
262.649
262.251
261.653
260.855
259.857
258.662
257.27
255.686
253.912
251.952
249.812
247.499
245.018
242.378
239.588
236.656
233.593
230.41
227.117
223.727
220.251
216.702
213.093
209.435
205.742
202.026
198.302
194.586
190.901
187.277
183.733
180.265
176.863
173.528
170.261
167.07
163.959
160.935
158.005
155.175
152.451
149.839
147.344
144.975
142.738
140.642
138.702
136.937
135.375
134.076
133.071
132.465
8.3054
3.81474
3.07518
2.92674
2.96941
3.11523
3.32878
3.59376
3.9007
4.24297
4.61543
5.01407
5.43588
5.87891
6.34214
6.82537
7.32906
7.85421
8.40232
8.97535
9.5757
10.2061
10.8693
11.5673
12.3004
13.0678
13.8692
14.7062
15.5806
16.4933
17.4449
18.4357
19.467
20.5421
21.6646
22.8349
24.0509
25.3127
26.6212
27.9771
29.3816
30.8357
32.341
33.8986
35.51
37.1765
38.8991
40.6792
42.518
44.4166
46.376
48.3973
50.4819
52.6312
54.8461
57.1278
59.4773
61.8955
64.3835
66.9419
69.5716
72.2731
75.0469
77.8934
80.8129
83.8053
86.8707
90.0087
93.2188
96.5003
99.8525
103.274
106.764
110.32
113.941
117.624
121.367
125.169
129.024
132.932
136.887
140.888
144.929
149.006
153.116
157.255
161.416
165.596
169.79
173.993
178.2
182.405
186.603
190.788
194.954
199.093
203.199
207.265
211.283
215.246
219.148
222.981
226.74
230.416
234.003
237.495
240.885
244.167
247.333
250.379
253.297
256.081
258.726
261.226
263.574
265.766
267.795
269.657
271.347
272.859
274.19
275.334
276.287
277.045
277.606
277.946
278.083
278.039
277.777
277.303
276.617
275.719
274.609
273.29
271.762
270.03
268.098
265.97
263.652
261.152
258.475
255.631
252.629
249.479
246.191
242.776
239.247
235.616
231.895
228.099
224.239
220.33
216.385
212.417
208.439
204.468
200.522
196.622
192.784
189.013
185.308
181.672
178.11
174.627
171.23
167.926
164.72
161.619
158.63
155.759
153.011
150.394
147.915
145.586
143.42
141.439
139.671
138.168
136.954
136.025
9.74206
4.45674
3.54742
3.33782
3.34747
3.47285
3.67131
3.9236
4.21914
4.55106
4.91439
5.30535
5.72111
6.15975
6.62017
7.10198
7.6054
8.13117
8.6804
9.25454
9.85531
10.4846
11.1445
11.8368
12.563
13.3243
14.1218
14.9569
15.831
16.7452
17.7005
18.6976
19.7376
20.8221
21.9528
23.1308
24.3568
25.6314
26.9557
28.3308
29.7577
31.2379
32.7727
34.3636
36.0122
37.72
39.4885
41.3193
43.2139
45.1739
47.2006
49.2959
51.4612
53.6981
56.0082
58.393
60.8538
63.3922
66.0093
68.7063
71.4844
74.3446
77.2877
80.3144
83.4252
86.6204
89.9002
93.2645
96.713
100.245
103.86
107.557
111.333
115.189
119.121
123.128
127.206
131.353
135.566
139.841
144.174
148.561
152.998
157.48
162.001
166.558
171.144
175.753
180.381
185.02
189.664
194.307
198.942
203.562
208.158
212.723
217.25
221.73
226.155
230.518
234.81
239.024
243.153
247.188
251.121
254.946
258.655
262.24
265.695
269.013
272.186
275.208
278.074
280.775
283.308
285.664
287.84
289.83
291.628
293.229
294.63
295.825
296.81
297.582
298.138
298.453
298.557
298.449
298.11
297.542
296.744
295.718
294.464
292.984
291.281
289.359
287.222
284.876
282.327
279.582
276.65
273.539
270.26
266.823
263.239
259.52
255.68
251.731
247.688
243.564
239.374
235.131
230.85
226.544
222.228
217.917
213.626
209.374
205.175
201.038
196.966
192.967
189.044
185.205
181.458
177.808
174.262
170.828
167.511
164.318
161.255
158.33
155.551
152.929
150.479
148.223
146.187
144.417
142.923
141.631
10.9985
5.02771
3.96364
3.69352
3.67212
3.77597
3.95803
4.19602
4.47817
4.79723
5.14828
5.52772
5.93294
6.36212
6.8142
7.28878
7.78601
8.30649
8.85119
9.42135
10.0185
10.6442
11.3003
11.9886
12.7106
13.468
14.2622
15.0948
15.9672
16.8809
17.837
18.8367
19.8814
20.9724
22.111
23.2988
24.5369
25.8266
27.1692
28.5662
30.0192
31.5297
33.0994
34.7302
36.4239
38.1822
40.0072
41.9007
43.8648
45.9013
48.0124
50.2
52.4662
54.813
57.2425
59.7565
62.3571
65.046
67.8251
70.6959
73.66
76.7189
79.8736
83.1254
86.475
89.923
93.4698
97.1155
100.86
104.703
108.643
112.68
116.811
121.036
125.351
129.755
134.244
138.815
143.464
148.187
152.98
157.838
162.755
167.726
172.745
177.807
182.903
188.028
193.174
198.335
203.501
208.666
213.821
218.958
224.067
229.139
234.165
239.137
244.045
248.881
253.634
258.298
262.862
267.317
271.656
275.87
279.95
283.888
287.677
291.309
294.775
298.07
301.186
304.117
306.856
309.397
311.734
313.862
315.776
317.471
318.941
320.184
321.196
321.973
322.51
322.786
322.836
322.645
322.205
321.515
320.578
319.392
317.961
316.285
314.369
312.217
309.834
307.226
304.401
301.366
298.13
294.703
291.096
287.32
283.387
279.311
275.105
270.783
266.36
261.852
257.272
252.636
247.959
243.256
238.54
233.827
229.133
224.472
219.86
215.307
210.82
206.406
202.073
197.828
193.679
189.632
185.696
181.876
178.18
174.614
171.185
167.901
164.77
161.805
159.02
156.436
154.079
151.987
150.155
148.461
12.0579
5.51733
4.31587
3.98808
3.9368
4.01891
4.1836
4.40605
4.67334
4.97782
5.31452
5.68
6.07183
6.48837
6.92864
7.39233
7.87962
8.39113
8.92774
9.49017
10.08
10.6989
11.3487
12.0309
12.7473
13.4996
14.2894
15.1182
15.9879
16.8998
17.8555
18.8566
19.9047
21.0011
22.1477
23.3459
24.5974
25.9037
27.2662
28.6873
30.169
31.7135
33.3228
34.9991
36.7447
38.5618
40.4528
42.42
44.466
46.5933
48.8043
51.1016
53.4879
55.9657
58.5375
61.206
63.9734
66.8423
69.8148
72.8932
76.0794
79.3754
82.7826
86.3027
89.9366
93.6853
97.5495
101.529
105.625
109.835
114.16
118.598
123.148
127.806
132.572
137.441
142.411
147.477
152.635
157.88
163.207
168.61
174.083
179.619
185.211
190.852
196.533
202.248
207.987
213.741
219.501
225.258
231.002
236.722
242.409
248.052
253.641
259.164
264.612
269.975
275.242
280.404
285.449
290.368
295.151
299.79
304.273
308.593
312.741
316.708
320.487
324.069
327.447
330.614
333.563
336.288
338.784
341.044
343.064
344.839
346.365
347.637
348.653
349.411
349.9
350.117
350.078
349.773
349.198
348.353
347.24
345.859
344.212
342.302
340.133
337.71
335.04
332.129
328.985
325.617
322.035
318.25
314.272
310.115
305.79
301.313
296.697
291.959
287.112
282.175
277.161
272.087
266.969
261.822
256.661
251.502
246.359
241.247
236.181
231.172
226.23
221.363
216.579
211.888
207.296
202.812
198.443
194.197
190.079
186.098
182.26
178.573
175.048
171.695
168.529
165.572
162.845
160.382
158.164
156.047
12.9126
5.92055
4.60128
4.22084
4.14082
4.20125
4.34807
4.55424
4.80582
5.09477
5.41605
5.76632
6.14336
6.5457
6.972
7.42239
7.89734
8.39767
8.92474
9.47878
10.061
10.6727
11.3157
11.9915
12.7018
13.4485
14.2332
15.0576
15.9236
16.833
17.7875
18.7889
19.839
20.9398
22.0931
23.301
24.5655
25.8888
27.273
28.7218
30.2363
31.8197
33.4747
35.2041
37.0104
38.8965
40.8653
42.9197
45.0627
47.2974
49.6271
52.0547
54.5836
57.217
59.9579
62.8096
65.7751
68.8573
72.0592
75.3832
78.8321
82.408
86.113
89.9488
93.917
98.0186
102.254
106.625
111.129
115.768
120.54
125.443
130.475
135.635
140.918
146.322
151.842
157.473
163.21
169.048
174.979
180.998
187.096
193.267
199.5
205.788
212.121
218.49
224.884
231.293
237.706
244.113
250.5
256.858
263.173
269.435
275.63
281.748
287.775
293.702
299.515
305.203
310.756
316.161
321.408
326.486
331.385
336.095
340.607
344.911
348.998
352.861
356.492
359.882
363.026
365.918
368.55
370.918
373.016
374.841
376.389
377.656
378.64
379.338
379.744
379.859
379.688
379.225
378.472
377.428
376.095
374.474
372.567
370.378
367.913
365.176
362.176
358.92
355.416
351.676
347.709
343.526
339.14
334.563
329.811
324.897
319.836
314.646
309.341
303.939
298.457
292.912
287.318
281.694
276.054
270.414
264.789
259.194
253.643
248.148
242.721
237.37
232.106
226.937
221.872
216.918
212.083
207.376
202.803
198.371
194.089
189.964
186.006
182.228
178.644
175.273
172.135
169.259
166.618
164.057
13.5635
6.23681
4.8209
4.39405
4.28703
4.32642
4.45535
4.64501
4.88061
5.15376
5.45933
5.79381
6.15561
6.54407
6.95828
7.39747
7.86163
8.35117
8.86658
9.40858
9.97905
10.5797
11.2121
11.8781
12.5793
13.3178
14.0952
14.9137
15.7753
16.6819
17.6357
18.6389
19.6937
20.8025
21.9675
23.1914
24.4765
25.8254
27.24
28.722
30.2761
31.9068
33.6178
35.4121
37.2931
39.2639
41.3281
43.4892
45.7509
48.1169
50.5912
53.1775
55.8797
58.7017
61.6473
64.7203
67.9245
71.2633
74.7401
78.3581
82.1203
86.0294
90.0877
94.2972
98.6597
103.176
107.848
112.674
117.656
122.791
128.079
133.518
139.106
144.838
150.712
156.722
162.864
169.132
175.52
182.02
188.625
195.326
202.116
208.983
215.919
222.913
229.955
237.031
244.132
251.244
258.355
265.453
272.523
279.553
286.529
293.438
300.265
306.998
313.623
320.126
326.495
332.717
338.779
344.668
350.374
355.883
361.185
366.269
371.125
375.743
380.114
384.229
388.08
391.66
394.961
397.978
400.704
403.134
405.264
407.09
408.609
409.819
410.717
411.302
411.57
411.526
411.167
410.491
409.505
408.208
406.602
404.688
402.47
399.954
397.144
394.048
390.673
387.03
383.126
378.974
374.584
369.968
365.139
360.112
354.9
349.518
343.984
338.314
332.524
326.633
320.658
314.615
308.523
302.397
296.255
290.111
283.981
277.881
271.823
265.823
259.889
254.035
248.268
242.599
237.037
231.59
226.266
221.073
216.018
211.11
206.355
201.764
197.345
193.111
189.076
185.258
181.675
178.353
175.257
172.234
14.0215
6.46985
4.97873
4.51247
4.38081
4.40033
4.51192
4.68545
4.90508
5.16285
5.45441
5.77604
6.12507
6.4997
6.89843
7.32208
7.77113
8.24616
8.74804
9.27823
9.83793
10.4286
11.0518
11.7094
12.4034
13.1356
13.9084
14.7238
15.5842
16.4919
17.4495
18.4597
19.525
20.6481
21.8319
23.0796
24.3948
25.7796
27.2365
28.7656
30.3753
32.0706
33.8557
35.7356
37.7143
39.7957
41.9835
44.2822
46.6962
49.23
51.8881
54.6753
57.596
60.6549
63.8564
67.2051
70.7051
74.3605
78.1753
82.153
86.2969
90.61
95.0947
99.7531
104.587
109.597
114.784
120.148
125.687
131.402
137.289
143.346
149.57
155.956
162.499
169.194
176.034
183.013
190.121
197.352
204.696
212.142
219.681
227.301
234.991
242.738
250.53
258.353
266.194
274.038
281.873
289.682
297.451
305.164
312.808
320.365
327.822
335.164
342.374
349.439
356.345
363.076
369.62
375.962
382.09
387.992
393.655
399.067
404.219
409.1
413.7
418.01
422.022
425.729
429.124
432.201
434.954
437.379
439.471
441.229
442.648
443.729
444.47
444.871
444.931
444.658
444.037
443.082
441.798
440.183
438.243
435.977
433.392
430.493
427.287
423.783
419.989
415.914
411.57
406.968
402.12
397.039
391.737
386.23
380.533
374.661
368.631
362.461
356.169
349.771
343.286
336.732
330.126
323.486
316.827
310.167
303.521
296.903
290.329
283.811
277.361
270.99
264.709
258.528
252.456
246.501
240.672
234.977
229.424
224.021
218.776
213.697
208.796
204.083
199.574
195.284
191.229
187.434
183.86
180.362
14.3048
6.62854
5.08132
4.58267
4.42924
4.43061
4.52559
4.68438
4.8912
5.13618
5.41319
5.71862
6.05129
6.41026
6.79544
7.2065
7.64372
8.10773
8.59949
9.12022
9.67133
10.2544
10.8713
11.5239
12.2144
12.9452
13.7187
14.5372
15.4037
16.3208
17.2917
18.3198
19.4082
20.5594
21.777
23.064
24.4226
25.8561
27.371
28.9733
30.6681
32.4605
34.3555
36.3585
38.4753
40.7103
43.0684
45.555
48.1753
50.9348
53.8387
56.8924
60.1013
63.4705
67.0051
70.7101
74.5903
78.6499
82.8932
87.3239
91.9454
96.7603
101.771
106.979
112.387
117.993
123.798
129.801
136.001
142.394
148.979
155.75
162.703
169.832
177.131
184.592
192.208
199.97
207.868
215.892
224.031
232.273
240.606
249.017
257.493
266.019
274.58
283.163
291.751
300.328
308.88
317.388
325.838
334.212
342.493
350.665
358.712
366.616
374.362
381.934
389.317
396.494
403.452
410.177
416.654
422.87
428.813
434.472
439.834
444.89
449.63
454.045
458.127
461.869
465.264
468.307
470.993
473.319
475.28
476.876
478.104
478.964
479.458
479.586
479.358
478.758
477.796
476.484
474.825
472.821
470.477
467.793
464.778
461.439
457.783
453.82
449.56
445.012
440.189
435.103
429.765
424.19
418.391
412.382
406.181
399.802
393.264
386.583
379.777
372.865
365.866
358.796
351.673
344.516
337.34
330.162
322.998
315.862
308.77
301.734
294.767
287.88
281.083
274.387
267.801
261.334
254.995
248.792
242.733
236.826
231.079
225.502
220.105
214.9
209.9
205.12
200.577
196.291
192.224
188.242
14.4086
6.71237
5.13269
4.61063
4.43851
4.42607
4.50847
4.65403
4.84536
5.07478
5.33739
5.63025
5.95129
6.29945
6.67434
7.07597
7.50475
7.96147
8.44722
8.96337
9.51148
10.0933
10.7109
11.3666
12.063
12.803
13.5896
14.4251
15.3129
16.2562
17.2585
18.3226
19.4494
20.6453
21.9156
23.2652
24.7001
26.2251
27.8459
29.5684
31.3987
33.3428
35.4069
37.5979
39.9211
42.3829
44.9895
47.7473
50.663
53.7425
56.9921
60.4175
64.0246
67.819
71.806
75.9909
80.3782
84.9724
89.7773
94.7962
100.032
105.486
111.161
117.057
123.173
129.51
136.065
142.836
149.82
157.012
164.408
172.001
179.784
187.751
195.893
204.2
212.663
221.27
230.011
238.872
247.841
256.904
266.048
275.257
284.516
293.809
303.121
312.434
321.731
330.997
340.212
349.36
358.422
367.381
376.219
384.918
393.461
401.83
410.009
417.98
425.728
433.236
440.49
447.475
454.177
460.582
466.678
472.453
477.896
482.997
487.747
492.137
496.159
499.806
503.074
505.958
508.453
510.556
512.266
513.582
514.503
515.029
515.168
514.928
514.29
513.267
511.874
510.116
507.998
505.524
502.7
499.529
496.019
492.18
488.019
483.549
478.778
473.718
468.381
462.781
456.928
450.838
444.524
438.002
431.286
424.394
417.343
410.151
402.835
395.413
387.904
380.326
372.695
365.031
357.348
349.663
341.993
334.351
326.752
319.21
311.736
304.342
297.039
289.836
282.744
275.771
268.927
262.219
255.656
249.246
242.997
236.919
231.023
225.319
219.821
214.545
209.503
204.718
200.149
195.683
14.3843
6.72795
5.13888
4.60495
4.42087
4.39584
4.46372
4.59556
4.77577
4.99522
5.24875
5.53335
5.84726
6.18955
6.55989
6.95848
7.38595
7.84334
8.33213
8.85447
9.41167
10.0057
10.6391
11.3145
12.0349
12.8027
13.6186
14.4883
15.4165
16.4077
17.4666
18.5983
19.8085
21.1019
22.4842
23.9619
25.5417
27.2302
29.0342
30.9607
33.0168
35.2098
37.5471
40.0366
42.6847
45.4992
48.488
51.659
55.0201
58.5779
62.3384
66.3074
70.4907
74.8933
79.5202
84.3759
89.4641
94.788
100.35
106.153
112.196
118.481
125.007
131.772
138.774
146.011
153.476
161.167
169.077
177.199
185.525
194.048
202.758
211.645
220.699
229.907
239.258
248.738
258.335
268.033
277.82
287.678
297.593
307.548
317.527
327.512
337.487
347.433
357.333
367.169
376.923
386.575
396.109
405.504
414.744
423.809
432.682
441.346
449.782
457.975
465.907
473.564
480.93
487.99
494.731
501.139
507.203
512.91
518.252
523.217
527.798
531.986
535.775
539.16
542.135
544.697
546.843
548.572
549.882
550.775
551.252
551.309
550.984
550.224
549.065
547.517
545.589
543.287
540.62
537.593
534.212
530.481
526.413
522.016
517.3
512.277
506.958
501.355
495.479
489.343
482.961
476.346
469.512
462.473
455.247
447.848
440.295
432.604
424.793
416.879
408.881
400.816
392.702
384.554
376.389
368.222
360.071
351.947
343.867
335.842
327.885
320.007
312.218
304.529
296.95
289.489
282.155
274.957
267.902
260.999
254.257
247.686
241.296
235.098
229.105
223.332
217.791
212.506
207.436
202.493
14.2814
6.70985
5.11984
4.57481
4.37755
4.34211
4.40187
4.52692
4.70139
4.91655
5.16749
5.45155
5.76766
6.11465
6.49231
6.9012
7.34225
7.8167
8.32582
8.87045
9.45289
10.077
10.7464
11.4648
12.2363
13.0653
13.9571
14.9162
15.9481
17.0587
18.2544
19.5419
20.9286
22.4214
24.0278
25.756
27.6143
29.6113
31.7555
34.0555
36.5198
39.1569
41.9749
44.9805
48.183
51.5918
55.2161
59.0656
63.1521
67.4795
72.0513
76.8715
81.9435
87.2705
92.8551
98.6991
104.803
111.168
117.793
124.675
131.814
139.204
146.843
154.724
162.843
171.191
179.762
188.546
197.536
206.721
216.09
225.632
235.336
245.188
255.177
265.289
275.509
285.823
296.216
306.674
317.179
327.717
338.271
348.824
359.359
369.859
380.307
390.684
400.972
411.155
421.213
431.129
440.884
450.461
459.841
469.007
477.941
486.627
495.047
503.186
511.027
518.556
525.759
532.621
539.129
545.272
551.037
556.416
561.398
565.975
570.14
573.885
577.207
580.098
582.559
584.585
586.174
587.33
588.047
588.336
588.194
587.633
586.631
585.221
583.408
581.201
578.613
575.652
572.329
568.65
564.621
560.25
555.55
550.531
545.205
539.582
533.675
527.495
521.055
514.366
507.442
500.295
492.939
485.389
477.659
469.766
461.727
453.556
445.273
436.892
428.433
419.911
411.342
402.742
394.126
385.511
376.909
368.337
359.805
351.329
342.918
334.584
326.337
318.188
310.145
302.218
294.416
286.746
279.217
271.838
264.618
257.565
250.691
244.008
237.527
231.264
225.23
219.451
213.884
208.477
14.0849
6.65794
5.07258
4.52397
4.32491
4.28913
4.35034
4.47959
4.6608
4.88532
5.14844
5.44733
5.77981
6.14557
6.54606
6.98274
7.45747
7.97259
8.53105
9.13685
9.79331
10.5047
11.276
12.1129
13.0212
14.0079
15.0802
16.2455
17.5118
18.8873
20.3814
22.0035
23.7635
25.6717
27.7385
29.9744
32.3902
34.9964
37.8036
40.8217
44.0603
47.5286
51.2351
55.1876
59.394
63.8623
68.6004
73.6153
78.9151
84.502
90.3734
96.5274
102.962
109.674
116.661
123.919
131.442
139.226
147.262
155.545
164.067
172.817
181.789
190.971
200.354
209.927
219.678
229.597
239.671
249.889
260.236
270.702
281.272
291.934
302.673
313.476
324.329
335.217
346.126
357.042
367.948
378.831
389.675
400.463
411.181
421.812
432.34
442.749
453.022
463.143
473.096
482.862
492.426
501.772
510.882
519.74
528.331
536.639
544.647
552.342
559.709
566.736
573.407
579.712
585.638
591.174
596.311
601.041
605.355
609.245
612.705
615.733
618.323
620.468
622.176
623.439
624.257
624.641
624.569
624.094
623.139
621.778
619.998
617.81
615.225
612.255
608.913
605.212
601.162
596.771
592.044
586.994
581.632
575.971
570.023
563.798
557.31
550.568
543.585
536.371
528.939
521.301
513.469
505.456
497.278
488.948
480.482
471.896
463.206
454.426
445.573
436.663
427.71
418.729
409.732
400.736
391.753
382.796
373.879
365.013
356.21
347.479
338.83
330.274
321.82
313.476
305.252
297.155
289.193
281.376
273.712
266.212
258.885
251.744
244.801
238.072
231.566
225.313
219.269
213.425
13.8424
6.5653
5.0089
4.47531
4.289
4.26698
4.34378
4.48927
4.68831
4.9346
5.22465
5.55703
5.93217
6.35074
6.81467
7.32687
7.89106
8.51173
9.19422
9.94475
10.7698
11.6768
12.6742
13.771
14.9771
16.3033
17.761
19.3625
21.1204
23.0478
25.158
27.4645
29.9811
32.7212
35.6982
38.9245
42.4116
46.1707
50.2119
54.5438
59.1728
64.1044
69.3435
74.8941
80.7572
86.9335
93.4257
100.232
107.356
114.776
122.482
130.463
138.708
147.206
155.945
164.913
174.098
183.488
193.07
202.832
212.762
222.847
233.076
243.435
253.913
264.498
275.178
285.941
296.775
307.669
318.612
329.59
340.594
351.611
362.629
373.637
384.624
395.577
406.485
417.335
428.115
438.813
449.415
459.91
470.283
480.522
490.612
500.54
510.292
519.853
529.21
538.347
547.249
555.903
564.294
572.408
580.23
587.746
594.943
601.806
608.325
614.487
620.282
625.697
630.722
635.347
639.564
643.37
646.755
649.71
652.231
654.326
655.979
657.184
657.97
658.306
658.201
657.689
656.691
655.296