/*--------------------------------*- C++ -*----------------------------------*\
  =========                 |
  \\      /  F ield         | OpenFOAM: The Open Source CFD Toolbox
   \\    /   O peration     | Website:  https://openfoam.org
    \\  /    A nd           | Version:  9
     \\/     M anipulation  |
\*---------------------------------------------------------------------------*/
FoamFile
{
    format      ascii;
    class       volScalarField;
    location    "215";
    object      nut;
}
// * * * * * * * * * * * * * * * * * * * * * * * * * * * * * * * * * * * * * //

dimensions      [0 2 -1 0 0 0 0];

internalField   nonuniform List<scalar> 
12225
(
4.14966e-05
3.9342e-05
3.74835e-05
3.54329e-05
3.37841e-05
3.24208e-05
3.15096e-05
3.09114e-05
3.09184e-05
3.10898e-05
3.15779e-05
3.20835e-05
3.31681e-05
3.38138e-05
3.51045e-05
3.56719e-05
3.76155e-05
3.55994e-05
0.000332335
0.000215217
0.000179283
0.000157677
0.00014621
0.00013821
0.000132735
0.000131659
0.000129502
0.00013007
0.000129042
0.000129443
0.000128658
0.000128557
0.00012809
0.000127397
0.000127417
0.000126509
0.000674975
0.000450833
0.000355784
0.000309833
0.00027529
0.000251096
0.000231707
0.000217278
0.000202667
0.000192131
0.000182609
0.000175213
0.000169368
0.000163677
0.000160298
0.000155554
0.000153796
0.000149866
0.000833621
0.000684902
0.000571992
0.000499965
0.00044946
0.000411956
0.000380768
0.000356007
0.000333997
0.000314786
0.000298315
0.000281719
0.000270296
0.000256068
0.000248192
0.000236156
0.000230387
0.000220455
0.000861256
0.000802526
0.000742131
0.000676579
0.000623998
0.000581377
0.000545862
0.00051456
0.000489511
0.000464433
0.000445852
0.000424073
0.00040993
0.000390802
0.000379878
0.000363093
0.000354468
0.000339525
0.00085498
0.000840348
0.000822205
0.000786494
0.00075086
0.000715901
0.000685757
0.000656133
0.000632544
0.000607517
0.000588993
0.000567246
0.000552278
0.000533095
0.000520775
0.000503732
0.000493302
0.000477505
0.000852908
0.000850686
0.000844239
0.000832828
0.00081741
0.000797001
0.000777885
0.000756737
0.000738898
0.000719145
0.000703531
0.000685619
0.00067212
0.000655921
0.000644302
0.000629534
0.000619508
0.000605169
0.000851922
0.000851814
0.000850172
0.000847396
0.000841453
0.000833728
0.000824896
0.000813416
0.000802807
0.00079047
0.000779714
0.000767539
0.000757423
0.000745783
0.000736536
0.000725531
0.000717153
0.000706051
0.000851751
0.000851542
0.000851034
0.000850339
0.00084888
0.000846168
0.000843034
0.000838304
0.000833402
0.00082736
0.000821216
0.000814772
0.000808408
0.000801526
0.00079524
0.000788418
0.000782171
0.000775265
0.000851769
0.00085139
0.000851046
0.000850633
0.000850248
0.000849368
0.000848405
0.000846781
0.000844956
0.00084253
0.000839923
0.000836799
0.000833794
0.000830152
0.00082697
0.000822927
0.0008199
0.000815301
0.000851787
0.000851359
0.000851012
0.000850613
0.000850329
0.000849905
0.000849525
0.000848929
0.000848303
0.000847393
0.000846465
0.000845177
0.00084399
0.000842351
0.000840996
0.000839032
0.000837639
0.000835362
0.000851789
0.000851359
0.000850995
0.000850605
0.000850292
0.000849938
0.000849646
0.00084928
0.000848955
0.000848504
0.000848098
0.000847507
0.000846997
0.000846244
0.000845641
0.00084472
0.000844058
0.000842976
0.000851786
0.000851363
0.000850985
0.000850604
0.000850269
0.000849926
0.00084963
0.000849313
0.000849042
0.000848728
0.000848462
0.000848126
0.000847843
0.000847465
0.000847156
0.000846726
0.000846386
0.000845902
0.000851783
0.000851364
0.000850978
0.000850602
0.000850256
0.000849916
0.000849607
0.0008493
0.000849022
0.00084874
0.000848488
0.000848224
0.000847988
0.000847735
0.000847508
0.000847258
0.000847033
0.000846783
0.000851781
0.000851364
0.000850973
0.000850598
0.000850246
0.000849908
0.000849591
0.000849286
0.000849
0.000848723
0.000848463
0.000848211
0.000847975
0.000847744
0.000847527
0.000847316
0.000847114
0.000846919
0.00085178
0.000851363
0.000850969
0.000850594
0.000850239
0.000849901
0.00084958
0.000849275
0.000848984
0.000848707
0.000848443
0.000848191
0.000847951
0.000847721
0.000847502
0.000847292
0.000847092
0.000846901
0.000851779
0.000851362
0.000850967
0.000850591
0.000850234
0.000849895
0.000849572
0.000849265
0.000848973
0.000848694
0.000848428
0.000848175
0.000847933
0.000847701
0.00084748
0.000847269
0.000847067
0.000846874
0.000851779
0.000851362
0.000850965
0.000850588
0.000850231
0.00084989
0.000849567
0.000849259
0.000848965
0.000848685
0.000848418
0.000848163
0.00084792
0.000847687
0.000847465
0.000847252
0.000847048
0.000846854
0.000851779
0.000851362
0.000850965
0.000850588
0.00085023
0.000849889
0.000849565
0.000849256
0.000848962
0.000848681
0.000848414
0.000848158
0.000847913
0.00084768
0.000847457
0.000847243
0.000847039
0.000846843
0.000851779
0.000851362
0.000850966
0.000850589
0.000850231
0.000849891
0.000849567
0.000849259
0.000848965
0.000848685
0.000848417
0.000848161
0.000847917
0.000847683
0.00084746
0.000847246
0.00084704
0.000846844
0.000851779
0.000851363
0.000850967
0.000850592
0.000850235
0.000849897
0.000849573
0.000849267
0.000848972
0.000848693
0.000848424
0.000848168
0.000847919
0.000847683
0.000847451
0.000847231
0.000847012
0.000846806
0.000851778
0.000851366
0.000850968
0.000850599
0.00085024
0.000849907
0.00084958
0.000849274
0.000848964
0.000848671
0.000848364
0.000848072
0.000847756
0.000847455
0.000847123
0.000846811
0.000846457
0.000846136
0.000851777
0.000851374
0.000850971
0.000850615
0.000850241
0.000849889
0.000849478
0.000849054
0.000848529
0.000847978
0.000847301
0.000846604
0.000845766
0.000844939
0.000843954
0.000843029
0.000841917
0.000840939
0.000851802
0.00085141
0.00085097
0.000850549
0.000849861
0.000848967
0.000847607
0.000845979
0.000843903
0.000841635
0.000838954
0.000836214
0.000833116
0.000830113
0.000826762
0.000823679
0.000820183
0.000817177
0.000852138
0.000851403
0.000850234
0.000848252
0.000844472
0.000839355
0.000832711
0.000825763
0.000817913
0.00081
0.000801615
0.000793626
0.00078533
0.000777705
0.000769742
0.000762698
0.000755121
0.000748793
0.000854142
0.000847718
0.000840125
0.000827123
0.000808707
0.000789647
0.000769972
0.000751416
0.000733303
0.000716893
0.000700932
0.000686779
0.000672828
0.000660668
0.000648376
0.000637939
0.000626951
0.000618018
0.00085497
0.000818336
0.000776229
0.000726635
0.000684938
0.000649857
0.000618459
0.000592021
0.00056838
0.00054831
0.000529686
0.000513991
0.000498748
0.000486015
0.0004732
0.000462706
0.000451621
0.000442803
0.000807486
0.00066688
0.000570551
0.000509855
0.000465648
0.000431194
0.000404132
0.0003825
0.000364193
0.000349066
0.000335939
0.000325076
0.000314478
0.000306246
0.000297961
0.000291367
0.00028428
0.000278931
0.000501854
0.000348405
0.00029269
0.000259174
0.000236322
0.000221177
0.000211543
0.000204015
0.00019848
0.000195059
0.000192218
0.000190367
0.000188582
0.000187439
0.000186164
0.000185473
0.000184554
0.000184142
7.27285e-05
7.02231e-05
6.79539e-05
6.56136e-05
6.33827e-05
6.12765e-05
5.94929e-05
5.79572e-05
5.67103e-05
5.57029e-05
5.49774e-05
5.44182e-05
5.41083e-05
5.38869e-05
5.38764e-05
5.39614e-05
5.40712e-05
5.43217e-05
3.76181e-07
8.79671e-06
1.5863e-05
2.24951e-05
2.95488e-05
3.71934e-05
4.5569e-05
5.46899e-05
6.44458e-05
7.4653e-05
8.51199e-05
9.56659e-05
0.000106136
0.000116381
0.00012625
0.00013557
0.000144137
0.000151691
0.000157917
0.00016241
0.00016467
0.000164062
0.000159785
0.000150804
0.000135782
2.66074e-05
2.68042e-05
2.81108e-05
2.94389e-05
3.05941e-05
3.25538e-05
3.38388e-05
3.61706e-05
4.08957e-05
0.000200798
0.000196957
4.13848e-05
4.39264e-05
4.90882e-05
4.89926e-05
5.0172e-05
5.13735e-05
5.24393e-05
5.3585e-05
5.46916e-05
5.58113e-05
5.69228e-05
5.80335e-05
5.91407e-05
6.02451e-05
6.13467e-05
6.24453e-05
6.35411e-05
6.46341e-05
6.57241e-05
6.68113e-05
6.78953e-05
6.89763e-05
7.00538e-05
7.11279e-05
7.21982e-05
7.32645e-05
7.43264e-05
7.53838e-05
7.64361e-05
7.74831e-05
7.85242e-05
7.95593e-05
8.05876e-05
8.1609e-05
8.26226e-05
8.36283e-05
8.46254e-05
8.56136e-05
8.6592e-05
8.75605e-05
8.85182e-05
8.9465e-05
9.03998e-05
9.13227e-05
9.22325e-05
9.31293e-05
9.4012e-05
9.48805e-05
9.57336e-05
9.65714e-05
9.73925e-05
9.81968e-05
9.8983e-05
9.97509e-05
0.000100499
0.000101227
0.000101933
0.000102615
0.000103274
0.000103907
0.000104517
0.000105117
0.000105689
0.000106242
0.000106773
0.000107282
0.000107768
0.000108233
0.000108674
0.000109092
0.000109486
0.000109856
0.000110202
0.000110523
0.000110819
0.00011109
0.000111336
0.000111555
0.000111749
0.000111916
0.000112056
0.000112169
0.000112254
0.000112313
0.000112343
0.000112345
0.000112319
0.000112263
0.00011218
0.000112068
0.000111929
0.000111751
0.00011153
0.000111281
0.000111036
0.000110731
0.000110402
0.000110038
0.000109643
0.000109216
0.000108758
0.000108268
0.000107744
0.000107187
0.000106598
0.000105978
0.000105326
0.000104644
0.000103933
0.000103194
0.000102428
0.000101637
0.000100821
9.99826e-05
9.91235e-05
9.82451e-05
9.73495e-05
9.64387e-05
9.55156e-05
9.45854e-05
9.36658e-05
9.2869e-05
9.22287e-05
9.16082e-05
9.09781e-05
9.03433e-05
8.97065e-05
8.90662e-05
8.84242e-05
8.77836e-05
8.71465e-05
8.65145e-05
8.58889e-05
8.52711e-05
8.4664e-05
8.4069e-05
8.34859e-05
8.29107e-05
8.23466e-05
8.17989e-05
8.12538e-05
8.06679e-05
8.00313e-05
7.80419e-05
1.71434e-06
3.51982e-05
7.50771e-05
0.00010233
0.000120299
0.000133873
0.000145752
0.000157297
0.00016905
0.000181113
0.000193381
0.000205672
0.000217786
0.00022951
0.000240605
0.000250764
0.000259561
0.000266395
0.00027041
0.000270442
0.000265025
0.00025257
0.000231842
0.000202829
0.000167722
0.000131204
0.000130879
0.000136188
0.000143185
0.000152221
0.000164058
0.000178992
0.000200259
0.0002329
0.000276653
0.000258673
0.000246492
0.000262322
0.000274481
0.000279773
0.000286767
0.000294028
0.000301667
0.000309431
0.000317326
0.000325336
0.000333438
0.000341628
0.000349896
0.000358239
0.000366654
0.000375142
0.000383703
0.000392338
0.000401048
0.000409834
0.000418698
0.00042764
0.000436663
0.000445766
0.000454951
0.000464216
0.000473562
0.000482988
0.000492494
0.000502077
0.000511736
0.000521469
0.000531272
0.000541144
0.000551081
0.000561079
0.000571134
0.000581243
0.000591401
0.000601604
0.000611845
0.000622121
0.000632427
0.000642757
0.000653107
0.000663473
0.00067385
0.000684233
0.00069462
0.000705005
0.000715384
0.000725752
0.000736108
0.000746446
0.000756762
0.000767045
0.000777271
0.000787402
0.000797369
0.00080706
0.000816295
0.000824793
0.000833277
0.000841629
0.000849873
0.000858
0.000866008
0.000873889
0.000881638
0.000889251
0.00089672
0.000904041
0.000911209
0.000918217
0.000925061
0.000931733
0.000938228
0.000944539
0.00095066
0.000956583
0.000962301
0.000967808
0.000973094
0.000978153
0.000982975
0.000987553
0.00099188
0.000995953
0.000999773
0.00100336
0.00100672
0.00100967
0.00101199
0.0010141
0.0010163
0.00101798
0.0010193
0.00102026
0.00102087
0.00102112
0.00102101
0.00102057
0.00101978
0.00101863
0.00101711
0.00101523
0.001013
0.00101041
0.00100748
0.00100421
0.00100061
0.000996702
0.000992493
0.000987998
0.000983233
0.000978213
0.000972956
0.000967474
0.000961775
0.000955833
0.000949464
0.00094186
0.000932717
0.000923052
0.000913222
0.000903373
0.000893553
0.000883787
0.000874113
0.000864559
0.000855148
0.000845902
0.00083684
0.000827977
0.000819333
0.000810927
0.000802772
0.000794854
0.000787136
0.000779634
0.000772305
0.000764634
0.000755177
0.000723176
3.47704e-06
5.5887e-05
0.000116843
0.000163127
0.00019677
0.000221508
0.000240745
0.000256915
0.000271549
0.00028549
0.000299113
0.000312516
0.000325648
0.000338387
0.000350553
0.000361866
0.000371937
0.000380246
0.00038608
0.000388529
0.0003866
0.000379492
0.000367116
0.000350763
0.000333772
0.000322241
0.000327313
0.000339164
0.000354544
0.000373083
0.000394696
0.000418952
0.000445912
0.000472571
0.000493093
0.000500659
0.000512327
0.00052975
0.000545837
0.000560985
0.00057651
0.000592178
0.000608086
0.000624161
0.000640399
0.000656787
0.000673316
0.000689982
0.000706782
0.000723714
0.000740779
0.000757979
0.000775316
0.000792792
0.000810409
0.000828169
0.000846073
0.000864122
0.000882316
0.000900656
0.00091914
0.000937766
0.000956534
0.00097544
0.00099448
0.00101365
0.00103294
0.00105236
0.00107189
0.00109152
0.00111125
0.00113107
0.00115098
0.00117096
0.001191
0.00121109
0.00123123
0.00125141
0.0012716
0.00129181
0.00131202
0.00133222
0.00135241
0.00137256
0.00139267
0.00141273
0.00143273
0.00145264
0.00147247
0.00149219
0.00151178
0.00153121
0.00155044
0.00156942
0.00158807
0.00160632
0.00162408
0.00164142
0.00165856
0.00167546
0.00169212
0.00170852
0.00172466
0.00174052
0.0017561
0.00177137
0.00178633
0.00180098
0.00181529
0.00182926
0.00184287
0.00185611
0.00186898
0.00188146
0.00189353
0.00190519
0.00191641
0.00192719
0.00193751
0.00194735
0.0019567
0.00196555
0.00197389
0.00198169
0.00198896
0.00199576
0.00200209
0.00200757
0.00201192
0.00201584
0.0020196
0.00202252
0.00202469
0.00202615
0.00202689
0.00202691
0.00202621
0.00202479
0.00202265
0.00201977
0.00201617
0.00201183
0.00200677
0.002001
0.00199454
0.00198741
0.00197962
0.0019712
0.00196219
0.0019526
0.00194248
0.00193186
0.00192077
0.00190923
0.00189729
0.00188488
0.00187183
0.00185751
0.00184167
0.00182503
0.00180804
0.00179089
0.00177372
0.00175658
0.00173956
0.00172269
0.00170605
0.00168967
0.0016736
0.00165788
0.00164254
0.00162764
0.00161318
0.00159919
0.0015856
0.00157237
0.00155932
0.00154549
0.00152855
0.00148349
5.35173e-06
7.15044e-05
0.000148361
0.00020867
0.000253716
0.000287515
0.00031369
0.000334991
0.000353344
0.000369991
0.000385658
0.000400722
0.000415344
0.000429541
0.000443254
0.000456387
0.000468794
0.000480238
0.00049041
0.000498935
0.000505437
0.00050969
0.000511876
0.000512919
0.000514761
0.000520218
0.000531571
0.000546766
0.000564522
0.000584409
0.000606168
0.000629423
0.000653496
0.000677
0.000698166
0.000718088
0.000739216
0.000761587
0.000783784
0.00080591
0.000828269
0.000850789
0.00087349
0.000896367
0.00091942
0.000942647
0.000966046
0.000989618
0.00101336
0.00103728
0.00106138
0.00108565
0.00111011
0.00113476
0.0011596
0.00118464
0.00120986
0.00123528
0.00126089
0.0012867
0.00131269
0.00133886
0.00136522
0.00139176
0.00141846
0.00144533
0.00147235
0.00149952
0.00152682
0.00155425
0.0015818
0.00160944
0.00163718
0.001665
0.00169288
0.00172081
0.00174878
0.00177676
0.00180475
0.00183273
0.00186069
0.0018886
0.00191645
0.00194422
0.00197191
0.00199948
0.00202692
0.00205421
0.00208133
0.00210826
0.00213496
0.00216139
0.00218753
0.00221333
0.00223872
0.00226366
0.00228816
0.00231227
0.00233606
0.00235951
0.00238261
0.00240535
0.0024277
0.00244966
0.0024712
0.00249232
0.002513
0.00253322
0.00255297
0.00257225
0.00259102
0.00260928
0.00262701
0.00264419
0.00266082
0.00267687
0.00269232
0.00270716
0.00272137
0.00273493
0.00274782
0.00276003
0.00277153
0.00278232
0.00279236
0.00280178
0.00281064
0.00281808
0.00282435
0.00282999
0.00283516
0.00283928
0.0028424
0.00284455
0.00284571
0.00284588
0.00284505
0.00284322
0.00284038
0.00283653
0.00283167
0.00282579
0.00281892
0.00281105
0.00280222
0.00279245
0.00278176
0.0027702
0.00275779
0.00274457
0.0027306
0.00271591
0.00270055
0.00268457
0.00266799
0.00265081
0.00263288
0.00261385
0.00259359
0.00257249
0.00255088
0.00252901
0.00250702
0.00248502
0.00246309
0.00244132
0.00241978
0.00239855
0.00237769
0.00235727
0.00233734
0.00231798
0.00229921
0.00228108
0.00226356
0.00224658
0.00222989
0.00221246
0.00219119
0.00214512
7.17119e-06
8.45038e-05
0.00017449
0.000246351
0.000301352
0.000343189
0.000375703
0.000401891
0.000423956
0.000443432
0.000461319
0.000478236
0.000494536
0.000510411
0.000525953
0.000541202
0.000556165
0.000570815
0.000585102
0.000598958
0.000612321
0.000625182
0.000637679
0.000650211
0.00066353
0.000678548
0.000695779
0.000714897
0.000735567
0.000757639
0.000781059
0.000805742
0.000831428
0.00085765
0.000883787
0.00090977
0.00093626
0.00096322
0.00099045
0.00101788
0.00104545
0.00107318
0.0011011
0.00112922
0.00115754
0.00118605
0.00121477
0.00124369
0.00127282
0.00130215
0.00133168
0.00136142
0.00139138
0.00142156
0.00145197
0.0014826
0.00151345
0.00154453
0.00157583
0.00160735
0.00163908
0.00167102
0.00170316
0.0017355
0.00176801
0.0018007
0.00183356
0.00186657
0.00189972
0.00193299
0.00196638
0.00199986
0.00203343
0.00206706
0.00210074
0.00213444
0.00216816
0.00220188
0.00223556
0.00226921
0.00230278
0.00233628
0.00236967
0.00240293
0.00243605
0.002469
0.00250176
0.0025343
0.0025666
0.00259863
0.00263037
0.00266178
0.00269284
0.00272351
0.00275377
0.00278361
0.00281303
0.00284203
0.00287063
0.00289882
0.00292657
0.00295388
0.00298073
0.00300709
0.00303296
0.00305832
0.00308314
0.00310742
0.00313115
0.00315429
0.00317685
0.00319879
0.00322011
0.00324079
0.00326081
0.00328016
0.00329881
0.00331674
0.00333394
0.00335039
0.00336606
0.00338094
0.003395
0.00340822
0.00342058
0.00343227
0.00344317
0.00345258
0.00346068
0.00346803
0.00347466
0.00348012
0.00348443
0.00348759
0.00348958
0.0034904
0.00349003
0.00348847
0.00348571
0.00348173
0.00347653
0.00347013
0.00346251
0.00345371
0.00344373
0.00343261
0.00342037
0.00340705
0.0033927
0.00337735
0.00336105
0.00334386
0.00332583
0.00330702
0.00328745
0.00326715
0.00324606
0.003224
0.00320093
0.00317703
0.00315256
0.00312773
0.00310268
0.00307754
0.00305242
0.00302741
0.00300262
0.00297813
0.00295404
0.00293042
0.00290735
0.00288493
0.00286322
0.00284227
0.00282211
0.00280268
0.00278371
0.00276422
0.002741
0.00269843
8.87484e-06
9.53498e-05
0.000196296
0.000278097
0.000341961
0.000391174
0.00042969
0.000460674
0.000486532
0.000509018
0.000529358
0.000548375
0.000566603
0.000584382
0.000601927
0.00061938
0.000636841
0.000654382
0.000672062
0.000689926
0.000708022
0.00072641
0.000745184
0.00076451
0.000784642
0.000805851
0.000828284
0.000851897
0.000876603
0.000902344
0.000929096
0.00095683
0.000985444
0.00101472
0.00104444
0.00107451
0.001105
0.00113586
0.00116701
0.0011984
0.00123
0.0012618
0.0012938
0.00132602
0.00135844
0.00139107
0.00142392
0.00145699
0.00149028
0.0015238
0.00155755
0.00159155
0.00162577
0.00166022
0.00169491
0.00172981
0.00176495
0.00180031
0.00183588
0.00187168
0.00190768
0.00194388
0.00198028
0.00201686
0.00205362
0.00209054
0.00212762
0.00216483
0.00220217
0.00223962
0.00227716
0.00231479
0.00235248
0.00239021
0.00242796
0.00246572
0.00250348
0.00254119
0.00257886
0.00261645
0.00265395
0.00269133
0.00272857
0.00276565
0.00280255
0.00283924
0.0028757
0.00291191
0.00294783
0.00298345
0.00301874
0.00305368
0.00308823
0.00312239
0.00315612
0.00318943
0.00322229
0.00325471
0.00328667
0.00331817
0.00334919
0.0033797
0.0034097
0.00343916
0.00346807
0.00349642
0.00352418
0.00355134
0.00357789
0.0036038
0.00362907
0.00365368
0.00367761
0.00370085
0.00372337
0.00374516
0.00376621
0.00378649
0.00380599
0.00382468
0.00384254
0.00385956
0.00387571
0.00389096
0.00390529
0.00391895
0.0039316
0.00394288
0.00395279
0.00396183
0.00396998
0.00397692
0.00398261
0.00398705
0.00399022
0.0039921
0.00399268
0.00399194
0.00398987
0.00398645
0.00398168
0.00397556
0.00396809
0.00395928
0.00394915
0.00393771
0.00392502
0.00391108
0.00389595
0.00387968
0.0038623
0.00384388
0.00382447
0.00380412
0.0037829
0.00376083
0.0037379
0.00371406
0.0036893
0.00366375
0.00363758
0.00361095
0.00358401
0.0035569
0.00352973
0.00350263
0.00347568
0.00344901
0.00342272
0.00339691
0.00337169
0.00334715
0.0033234
0.00330052
0.00327857
0.00325754
0.00323722
0.00321674
0.00319323
0.00315606
1.04187e-05
0.000104288
0.000214355
0.000304786
0.000376604
0.000432673
0.00047696
0.000512722
0.000542499
0.00056821
0.000591257
0.000612633
0.000633026
0.000652904
0.000672588
0.000692301
0.000712204
0.00073242
0.000753046
0.000774163
0.000795842
0.000818146
0.00084114
0.000864897
0.000889503
0.000915035
0.00094153
0.000968969
0.000997306
0.0010265
0.0010565
0.00108728
0.00111877
0.00115089
0.00118351
0.00121658
0.00125004
0.00128386
0.00131798
0.00135236
0.00138698
0.00142181
0.00145687
0.00149213
0.0015276
0.00156329
0.0015992
0.00163532
0.00167166
0.00170823
0.00174502
0.00178204
0.00181929
0.00185676
0.00189445
0.00193236
0.00197049
0.00200884
0.0020474
0.00208616
0.00212512
0.00216428
0.00220362
0.00224313
0.0022828
0.00232263
0.0023626
0.00240269
0.0024429
0.00248321
0.00252359
0.00256405
0.00260455
0.00264508
0.00268562
0.00272615
0.00276665
0.00280711
0.00284749
0.00288779
0.00292797
0.00296801
0.0030079
0.00304761
0.00308711
0.00312638
0.00316541
0.00320415
0.0032426
0.00328073
0.0033185
0.00335591
0.00339293
0.00342953
0.00346571
0.00350144
0.00353672
0.00357152
0.00360584
0.00363967
0.00367298
0.00370576
0.00373798
0.00376965
0.00380073
0.00383121
0.00386108
0.00389032
0.00391892
0.00394686
0.00397412
0.0040007
0.00402658
0.00405174
0.00407617
0.00409985
0.00412276
0.00414489
0.00416622
0.00418673
0.0042064
0.00422522
0.00424315
0.00426017
0.00427627
0.00429171
0.00430599
0.00431907
0.00433081
0.00434158
0.00435137
0.00435992
0.00436718
0.00437314
0.00437778
0.00438107
0.00438299
0.00438353
0.00438265
0.00438035
0.0043766
0.00437141
0.00436476
0.00435666
0.00434714
0.0043362
0.00432387
0.00431018
0.00429516
0.00427887
0.00426135
0.00424264
0.00422282
0.00420192
0.00418002
0.00415716
0.00413337
0.00410865
0.00408303
0.0040566
0.00402949
0.00400185
0.00397381
0.0039455
0.00391705
0.00388857
0.0038602
0.00383205
0.00380423
0.00377688
0.0037501
0.00372403
0.00369879
0.00367451
0.00365128
0.00362915
0.00360797
0.00358705
0.00356403
0.00353189
1.17708e-05
0.000111483
0.000229009
0.00032704
0.000405818
0.00046829
0.00051813
0.000558636
0.000592432
0.000621547
0.000647511
0.000671451
0.000694182
0.00071628
0.000738155
0.000760095
0.000782309
0.000804951
0.00082814
0.000851968
0.000876498
0.000901783
0.00092786
0.000954762
0.000982513
0.00101113
0.0010406
0.0010709
0.00110199
0.00113383
0.00116636
0.00119954
0.00123332
0.00126764
0.00130245
0.00133768
0.00137329
0.00140924
0.00144549
0.001482
0.00151875
0.00155572
0.0015929
0.00163028
0.00166786
0.00170565
0.00174364
0.00178183
0.00182023
0.00185884
0.00189766
0.00193668
0.00197592
0.00201537
0.00205502
0.00209488
0.00213494
0.00217521
0.00221566
0.00225631
0.00229715
0.00233817
0.00237935
0.0024207
0.0024622
0.00250385
0.00254562
0.00258752
0.00262951
0.0026716
0.00271377
0.002756
0.00279827
0.00284056
0.00288287
0.00292516
0.00296742
0.00300963
0.00305177
0.00309382
0.00313575
0.00317755
0.00321918
0.00326064
0.00330189
0.0033429
0.00338367
0.00342416
0.00346434
0.00350421
0.00354372
0.00358287
0.00362162
0.00365997
0.00369788
0.00373535
0.00377235
0.00380887
0.0038449
0.00388041
0.00391539
0.00394982
0.00398368
0.00401697
0.00404966
0.00408173
0.00411318
0.00414399
0.00417415
0.00420363
0.00423244
0.00426055
0.00428795
0.00431464
0.00434059
0.00436579
0.00439024
0.00441391
0.00443678
0.00445885
0.0044801
0.0045005
0.00452004
0.00453869
0.00455645
0.00457355
0.00458945
0.00460431
0.00461792
0.0046305
0.00464205
0.00465236
0.00466137
0.00466907
0.00467544
0.00468044
0.00468405
0.00468624
0.00468697
0.00468623
0.00468398
0.00468022
0.00467495
0.00466814
0.00465982
0.00465
0.00463868
0.0046259
0.00461169
0.00459608
0.00457912
0.00456086
0.00454135
0.00452064
0.0044988
0.00447588
0.00445193
0.00442698
0.0044011
0.00437436
0.00434686
0.00431874
0.00429011
0.00426112
0.00423188
0.00420253
0.00417318
0.00414399
0.00411506
0.00408655
0.00405859
0.00403133
0.00400491
0.0039795
0.00395524
0.00393221
0.00391038
0.00388919
0.00386684
0.00383898
1.2912e-05
0.000117097
0.000240601
0.000345184
0.000430092
0.000498428
0.000553536
0.000598681
0.000636512
0.000669122
0.000698128
0.000724752
0.000749907
0.000774257
0.000798286
0.000822336
0.000846649
0.000871402
0.000896728
0.000922769
0.000949559
0.000977126
0.00100549
0.00103466
0.00106463
0.0010954
0.00112694
0.00115922
0.0011922
0.00122584
0.00126009
0.0012949
0.00133022
0.00136602
0.00140225
0.00143887
0.00147583
0.00151313
0.00155073
0.00158859
0.00162666
0.00166493
0.00170338
0.00174202
0.00178083
0.00181982
0.00185899
0.00189834
0.00193787
0.00197759
0.0020175
0.00205759
0.00209787
0.00213835
0.00217901
0.00221985
0.00226089
0.00230211
0.00234351
0.0023851
0.00242686
0.00246879
0.00251089
0.00255315
0.00259556
0.00263811
0.0026808
0.00272361
0.00276653
0.00280955
0.00285265
0.00289583
0.00293907
0.00298234
0.00302564
0.00306895
0.00311224
0.00315549
0.0031987
0.00324183
0.00328486
0.00332778
0.00337055
0.00341316
0.00345559
0.00349779
0.00353977
0.00358148
0.0036229
0.00366402
0.0037048
0.00374522
0.00378527
0.00382491
0.00386413
0.00390291
0.00394122
0.00397905
0.00401639
0.0040532
0.00408948
0.00412521
0.00416036
0.00419493
0.00422889
0.00426224
0.00429496
0.00432703
0.00435845
0.0043892
0.00441927
0.00444865
0.00447733
0.0045053
0.00453255
0.00455907
0.00458485
0.00460987
0.00463412
0.0046576
0.00468029
0.00470216
0.00472321
0.00474341
0.00476283
0.00478147
0.00479906
0.00481569
0.00483121
0.00484571
0.00485916
0.00487137
0.00488231
0.00489195
0.00490027
0.00490725
0.00491283
0.00491699
0.00491968
0.00492087
0.00492053
0.00491864
0.00491518
0.00491014
0.00490352
0.00489531
0.00488553
0.0048742
0.00486134
0.00484697
0.00483114
0.00481388
0.00479525
0.0047753
0.00475408
0.00473166
0.0047081
0.00468344
0.00465775
0.00463112
0.00460364
0.00457542
0.00454658
0.00451726
0.00448757
0.00445766
0.00442765
0.00439768
0.00436791
0.00433847
0.00430953
0.00428124
0.00425379
0.00422736
0.00420213
0.00417824
0.00415574
0.00413423
0.00411236
0.00408747
1.38334e-05
0.000121272
0.000249402
0.000359457
0.000449728
0.000523372
0.000583396
0.000632983
0.000674765
0.000710854
0.000742918
0.000772242
0.000799803
0.000826333
0.000852435
0.000878445
0.000904614
0.000931118
0.000958058
0.000985636
0.00101393
0.00104298
0.00107279
0.00110337
0.00113472
0.00116679
0.00119958
0.00123304
0.00126714
0.00130184
0.00133708
0.00137284
0.00140906
0.0014457
0.00148274
0.00152013
0.00155784
0.00159584
0.00163409
0.0016725
0.00171112
0.00174989
0.0017888
0.00182785
0.00186703
0.00190635
0.00194582
0.00198545
0.00202522
0.00206515
0.00210525
0.00214551
0.00218594
0.00222654
0.00226731
0.00230826
0.00234939
0.00239071
0.0024322
0.00247387
0.00251572
0.00255775
0.00259996
0.00264234
0.00268489
0.00272761
0.00277048
0.0028135
0.00285666
0.00289995
0.00294335
0.00298687
0.00303048
0.00307416
0.00311791
0.00316171
0.00320553
0.00324935
0.00329317
0.00333695
0.00338067
0.00342432
0.00346786
0.00351127
0.00355453
0.0035976
0.00364048
0.00368312
0.0037255
0.0037676
0.0038094
0.00385085
0.00389195
0.00393266
0.00397296
0.00401284
0.00405225
0.00409119
0.00412964
0.00416757
0.00420496
0.0042418
0.00427806
0.00431374
0.00434881
0.00438327
0.0044171
0.00445028
0.00448281
0.00451468
0.00454587
0.00457638
0.00460621
0.00463533
0.00466376
0.00469147
0.00471846
0.00474473
0.00477027
0.00479507
0.00481912
0.00484241
0.00486493
0.00488666
0.00490767
0.00492786
0.00494718
0.00496563
0.0049831
0.0049996
0.00501509
0.00502935
0.00504234
0.00505409
0.00506458
0.00507375
0.00508157
0.00508797
0.00509292
0.00509637
0.00509829
0.00509863
0.00509737
0.00509448
0.00508996
0.00508381
0.005076
0.00506657
0.00505551
0.00504285
0.00502861
0.00501283
0.00499555
0.00497682
0.0049567
0.00493523
0.00491248
0.00488852
0.00486341
0.00483724
0.0048101
0.00478209
0.00475333
0.00472394
0.00469406
0.00466381
0.00463334
0.0046028
0.00457233
0.0045421
0.00451228
0.00448305
0.00445461
0.00442716
0.00440093
0.00437611
0.0043528
0.00433077
0.00430902
0.00428636
1.45352e-05
0.000124157
0.000255674
0.000370153
0.000465022
0.000543373
0.000607887
0.000661625
0.000707163
0.0007466
0.000781622
0.000813584
0.000843432
0.000871864
0.000899508
0.000926877
0.000954315
0.000982064
0.00101032
0.00103923
0.00106878
0.00109899
0.00112987
0.00116141
0.0011936
0.00122642
0.00125984
0.00129384
0.00132836
0.00136338
0.00139886
0.00143475
0.00147102
0.00150762
0.00154454
0.00158173
0.00161917
0.00165686
0.00169481
0.00173307
0.00177149
0.00180999
0.00184853
0.00188714
0.00192582
0.00196459
0.00200347
0.00204247
0.00208159
0.00212085
0.00216025
0.0021998
0.00223951
0.00227938
0.00231943
0.00235966
0.00240008
0.00244069
0.0024815
0.00252252
0.00256375
0.00260518
0.00264684
0.0026887
0.00273078
0.00277307
0.00281557
0.00285828
0.00290118
0.00294427
0.00298754
0.00303097
0.00307457
0.00311831
0.00316217
0.00320614
0.00325021
0.00329434
0.00333852
0.00338273
0.00342694
0.00347112
0.00351526
0.00355931
0.00360327
0.00364709
0.00369075
0.00373422
0.00377746
0.00382046
0.00386318
0.00390559
0.00394767
0.00398938
0.0040307
0.0040716
0.00411206
0.00415205
0.00419155
0.00423054
0.00426899
0.00430689
0.00434421
0.00438095
0.00441708
0.00445259
0.00448747
0.00452171
0.0045553
0.00458822
0.00462048
0.00465207
0.00468297
0.0047132
0.00474274
0.00477159
0.00479974
0.00482721
0.00485398
0.00488006
0.00490543
0.0049301
0.00495406
0.00497731
0.00499985
0.00502166
0.00504273
0.00506304
0.0050825
0.00510106
0.00511872
0.00513513
0.0051503
0.00516431
0.00517712
0.00518869
0.00519895
0.00520784
0.00521532
0.00522131
0.00522577
0.00522866
0.00522993
0.00522955
0.0052275
0.00522376
0.00521831
0.00521116
0.0052023
0.00519175
0.00517952
0.00516562
0.00515011
0.00513301
0.00511437
0.00509425
0.0050727
0.00504979
0.0050256
0.0050002
0.00497368
0.00494615
0.00491771
0.0048885
0.00485863
0.00482824
0.00479748
0.0047665
0.00473547
0.00470454
0.00467391
0.00464376
0.00461433
0.00458584
0.00455853
0.00453264
0.00450834
0.0044855
0.00446345
0.00444183
1.50296e-05
0.000125928
0.00025969
0.00037758
0.000476265
0.00055867
0.000627163
0.000684645
0.000733663
0.000776172
0.000813726
0.000847747
0.000879389
0.000909552
0.000938963
0.000967938
0.000996789
0.00102576
0.00105503
0.00108466
0.00111477
0.00114539
0.00117655
0.00120824
0.00124046
0.00127319
0.0013064
0.00134007
0.00137417
0.00140866
0.0014435
0.00147867
0.00151412
0.00154984
0.00158579
0.00162194
0.00165824
0.00169476
0.00173152
0.00176871
0.00180598
0.00184327
0.00188058
0.00191785
0.00195511
0.00199241
0.00202977
0.00206723
0.0021048
0.00214249
0.00218032
0.00221831
0.00225647
0.00229481
0.00233336
0.00237213
0.00241112
0.00245035
0.00248984
0.0025296
0.00256962
0.00260993
0.00265053
0.00269142
0.0027326
0.00277408