/*--------------------------------*- C++ -*----------------------------------*\
  =========                 |
  \\      /  F ield         | OpenFOAM: The Open Source CFD Toolbox
   \\    /   O peration     | Website:  https://openfoam.org
    \\  /    A nd           | Version:  9
     \\/     M anipulation  |
\*---------------------------------------------------------------------------*/
FoamFile
{
    format      ascii;
    class       surfaceScalarField;
    location    "22.95";
    object      phi;
}
// * * * * * * * * * * * * * * * * * * * * * * * * * * * * * * * * * * * * * //

dimensions      [0 3 -1 0 0 0 0];

internalField   nonuniform List<scalar> 
1300
(
11.2529
1.87548
-4.18474
11.2529
-4.98957
1.87548
-4.2371
4.2371
-1.18779
1.18779
5.7123
5.54056
-2.372
2.372
-2.81504
2.81504
-2.86028
2.86028
-1.06194
1.06194
-1.02826
1.02826
0.69321
-0.69321
-3.41506
3.41506
-1.45641
1.45641
-2.9027
2.9027
6.1281
-6.1281
-3.25103
3.25103
-0.743951
0.743951
-4.26321
15.5161
6.98965
6.98965
-2.37129
2.37129
-1.25396
1.25396
1.41034
-1.41034
9.07867
-9.07867
-4.89392
-5.90473
1.90747
-14.0233
-3.0821
-3.0821
-2.7054
2.7054
-0.829928
1.04555
3.47678
-3.47678
-0.757634
0.757634
-4.32322
0.0861221
-4.32322
4.02058
0.216517
4.02058
-1.32908
0.14129
-1.32908
4.67579
-4.67579
1.07604
0.111742
1.07604
3.92809
-3.92809
-5.71006
11.4224
5.5428
-5.32064
20.8367
-5.93222
11.4728
-3.91033
3.91033
-2.28911
-0.0828965
-2.28911
2.37302
-0.00101985
2.37302
-4.00952
4.00952
-2.60451
-0.210526
-2.60451
2.91605
-0.101012
2.91605
3.6663
-3.6663
-2.91631
0.0560298
-2.91631
2.70859
0.151686
2.70859
0.771042
1.10443
-2.64652
3.69207
-1.10443
0.0424987
1.02614
0.0357985
1.02614
-1.01453
-0.0137256
-1.01453
1.04984
-0.0215805
1.04984
0.730322
-0.0371118
0.730322
-0.754898
0.0616876
-0.754898
-8.58986
-8.98419
-3.54154
0.126476
-3.54154
-1.47441
0.0179942
-1.47441
1.4926
-0.0361859
1.4926
-2.53102
2.53102
-3.24435
0.341645
-3.24435
4.80635
1.32175
4.80635
5.04612
6.20674
16.299
-16.299
10.1709
-2.96862
-0.282412
-2.96862
-3.41898
-5.65968
3.41898
-0.167954
-0.805728
0.0617773
-0.805728
5.62659
1.36306
5.62659
2.5864
0.122193
-2.5864
0.215103
4.62568
-4.62568
1.4234
0.947894
1.4234
-1.19154
1.19154
1.12337
-0.0735278
-1.12337
-0.130592
1.38601
0.0243319
1.38601
-1.40975
-0.000595749
-1.40975
7.31247
-13.2172
-7.78993
3.22376
0.191299
-3.22376
0.14166
3.56352
-0.0867353
3.56352
-3.30972
3.30972
-3.61097
0.134187
-3.61097
-0.682617
-0.075017
-0.682617
0.842623
-0.0849887
0.842623
-4.57203
0.248807
-4.57203
-3.68438
0.440035
3.68438
0.336199
1.25151
-1.25151
-1.43687
0.107789
-1.43687
-4.65606
0.0840362
4.65606
0.019732
-4.7703
0.0945015
-4.7703
-3.71251
0.101541
3.71251
0.215581
4.58934
1.03725
-4.58934
0.661251
-5.36948
11.5762
-5.88338
11.4262
-3.52557
-0.384762
-3.52557
4.10244
-0.192113
4.10244
2.56452
0.338177
-2.56452
0.275419
2.49933
-0.126309
2.49933
-3.95428
-0.0552348
-3.95428
3.81119
0.198323
3.81119
2.53933
-0.0399962
-2.53933
-0.065187
2.8924
0.0236568
2.8924
3.67224
-0.00594063
3.67224
-3.53935
-0.126949
-3.53935
3.17901
-3.17901
3.08066
0.0983535
-3.08066
0.164354
-5.07402
5.07343
-0.00799942
-5.06602
1.01814
1.01814
0.769293
-0.0389711
0.769293
-0.861792
0.106894
-0.861792
8.33467
-16.1246
8.79722
-17.3871
7.53408
-21.5574
8.09355
-17.0777
3.82901
-3.82901
3.76115
0.0678585
-3.76115
0.219613
-1.45622
-0.0181919
-1.45622
-2.29288
-0.238136
-2.29288
2.86468
-0.333663
2.86468
-3.74211
3.74211
-4.12478
0.38268
4.12478
0.681566
2.95536
-0.0629625
-2.95536
-0.0132586
0.924326
0.151719
-0.924326
0.118598
4.86278
-0.237105
4.86278
-4.08487
-0.540807
-4.08487
-1.47508
0.0188646
1.47508
-0.0516816
-1.25895
0.0674069
-1.25895
-5.0745
0.00847757
-5.0387
-1.40127
-1.40127
1.30414
4.9962
-3.5856
0.0462543
3.5856
-0.0220853
3.52707
0.215036
-3.52707
0.217353
-3.26331
0.0842985
3.26331
0.0464057
-0.660101
-0.0225161
-0.660101
-1.03565
1.03565
-0.918336
-0.117311
0.918336
-0.0757129
1.40728
-0.155774
1.40728
1.47079
0.0218057
-1.47079
0.0339294
-5.00984
0.239546
-5.00984
4.11281
-0.0103675
4.11281
-3.94884
-0.136037
3.94884
-0.276597
-0.00372291
5.07715
-1.01441
-0.000120228
1.01441
-5.10148
5.10136
-0.665466
0.0053645
0.665466
0.103827
1.02966
0.161875
-1.02966
0.167871
3.85196
-0.0407665
-3.85196
0.0229519
-2.01083
-0.282049
-2.01083
-3.19342
-0.332148
3.19342
-0.328738
-5.11518
-0.0779379
5.19312
-5.13676
1.33688
0.0491259
-1.33688
5.15049
-1.14477
-0.106735
1.14477
-0.109128
1.60612
-0.198833
1.60612
5.11979
-0.257009
-5.11979
0.109952
-4.1295
0.175214
4.1295
-0.016689
-1.7779
-0.232931
1.7779
-0.171785
-13.1281
14.4911
7.70865
-6.28023
-6.93698
-11.9399
4.4471
7.12912
14.618
-11.7973
-9.76006
-11.6557
2.86006
-2.69219
-3.72804
3.69093
23.5865
-23.492
-18.3992
19.0808
20.777
-20.5614
5.70885
5.71351
15.8143
-15.8972
-20.9452
20.5605
15.3619
-15.5724
22.0907
-22.1459
-25.8421
25.8013
-16.0933
16.1493
-20.2941
20.1671
-21.0571
20.7805
-8.32855
-9.05854
16.5109
-16.3844
20.0051
-20.2876
-19.3477
19.6894
10.0475
4.44359
11.0848
-6.24673
11.9556
-5.22605
12.9347
8.31343
-16.642
7.81118
-14.7482
9.05688
10.9483
-8.88893
-3.05098
-17.9698
17.8831
-17.2571
17.3035
24.1082
-24.022
-6.17283
11.8863
-5.25335
12.3825
-11.409
-6.99021
10.0873
4.53073
8.98083
7.53002
-9.17213
-2.48353
-24.7965
24.5395
-25.6587
25.1178
0.100118
2.42597
-2.52609
1.35408
-0.862611
3.28858
1.99745
2.10435
2.45271
-2.29083
0.239484
-2.76557
-2.89617
-5.34197
5.44976
5.15891
-5.04717
16.5407
7.04581
16.5604
-16.7466
-6.74545
-16.507
11.3637
7.71705
11.7464
12.0617
8.71535
12.1632
10.359
-10.3317
-0.0273252
-11.4776
21.8367
1.55465
-18.4679
-13.9371
8.82335
6.99092
8.82233
-9.86773
-6.02944
-9.59231
-11.0403
-9.90496
-11.3724
12.3508
8.20968
12.1587
-15.3498
15.3331
9.26228
6.09959
9.16127
-8.94531
-6.62709
-9.0105
27.4899
-6.66887
-20.821
-13.2051
-12.637
13.0067
9.08395
14.3532
11.4481
14.3762
8.91372
18.5762
-17.9977
5.36066
-9.94724
-6.14604
-9.78289
9.25843
6.89088
9.41012
-11.7666
-8.52742
-11.7204
-11.9867
-9.0704
11.9926
8.1745
-12.5339
-13.1248
12.6699
8.11055
7.85179
-17.6119
9.22594
-18.2845
-10.9665
-5.41785
-10.7469
10.8007
6.66006
-17.4608
-5.84124
23.6404
-12.6921
20.5894
-10.8985
-9.38902
-10.9118
-14.7799
-4.56781
-14.3399
-8.00458
7.72253
-8.84109
8.50742
26.8956
-16.2343
-10.6613
-12.3784
-8.18308
11.7171
-0.632333
-12.8358
12.8084
-0.880192
12.0545
16.4981
15.8658
-10.8803
-6.37681
-10.6629
10.2703
7.0332
10.3546
16.0885
8.01969
16.305
-16.808
-7.21406
-16.5592
4.84455
-4.91957
5.71427
-5.6954
15.5783
9.53959
-15.3411
-9.4554
22.9317
-10.7753
-12.1564
-5.11991
5.2152
-0.0952886
-1.83132
-0.477245
0.266706
-1.93114
-1.79691
1.86945
0.234898
5.45009
3.65319
-2.41437
2.48177
2.77875
2.70523
-0.19094
2.50016
-2.4948
18.9098
-11.4383
-7.47149
13.9638
-13.8797
-2.59539
-19.3237
16.7283
2.68069
3.00467
-2.94289
-3.94935
-1.39262
-3.91543
2.95311
2.2058
3.10483
2.10762
3.34214
-8.10598
1.56374
6.54224
-5.99836
-3.48343
-13.3469
-6.26987
19.6168
16.6764
7.8631
-16.7864
0.279384
5.29402
-5.33021
-1.5968
-11.7501
8.35158
-9.94838
-15.2189
-6.46021
21.6791
-9.5808
-1.08211
9.36576
2.38064
-10.8772
-7.09259
10.7431
1.42014
-12.0645
23.9708
-11.9063
-18.4413
8.51579
13.3209
16.2328
-17.8628
9.31886
8.54391
-4.5419
7.41252
1.4098
7.28622
-19.8987
13.8692
11.298
8.39141
-11.6361
2.04382
-17.8548
25.163
-22.2824
-2.88053
12.8126
12.3504
13.5691
13.3265
-7.79749
21.3666
-3.62063
-18.6618
21.4755
-13.0841
15.7835
-28.8675
-29.11
10.4481
-17.9788
22.0963
-4.11745
-5.21311
-10.1367
23.1919
-2.01164
-21.1803
10.147
-13.9247
-11.833
25.7578
-20.5936
18.4601
-6.26353
-12.1966
-12.6928
-9.45314
12.5176
2.81551
-25.8623
31.223
-7.28619
7.79876
1.36251
7.82242
10.611
-15.9734
5.36238
9.98257
-16.2461
6.76165
-22.7351
-12.1685
24.1898
-12.0213
-17.5864
-15.8091
-1.7773
4.86689
26.3561
-16.315
12.112
4.20303
8.46188
1.8927
-8.56023
-1.22266
0.968274
16.087
-17.0553
10.3784
10.5006
11.7053
4.38172
10.7701
7.11296
-10.7481
-0.972336
-14.7925
5.72215
-6.61805
-14.5737
20.2959
-16.2678
1.69407
-10.3032
-13.9908
24.294
-16.4492
11.4256
12.5452
18.4588
-19.615
5.62416
-9.74647
-9.86853
10.6436
-17.2617
7.49798
12.7979
15.6085
2.48377
12.7571
11.4327
-19.4171
1.13265
18.9627
-16.4792
3.89896
10.4772
-16.0109
0.201832
-10.5451
2.6497
-15.3418
-14.8111
16.5248
-21.0927
-12.3427
13.549
2.756
-13.8852
-0.454705
-4.9625
-3.04208
-5.19543
-3.28513
-5.55595
-11.0826
-1.92844
-9.15419
5.79409
-6.70217
-4.67025
7.03091
1.47651
-4.94127
4.83453
-5.58823
5.38939
-0.210177
13.0186
15.6556
7.47251
-8.47672
15.9492
-15.6005
23.6202
-29.7233
14.1228
15.9508
-23.1649
-13.7725
2.70323
2.14132
2.61824
13.4628
-14.4244
0.96163
-13.29
17.6185
-4.32853
-19.6001
6.31008
-6.13731
5.18741
0.526861
5.16922
1.41664
6.84645
-8.26309
-4.27877
-4.33045
-9.16271
-13.8593
23.022
4.73662
-13.1055
8.36892
-12.0638
16.8004
0.0793097
-13.1848
16.9863
-10.1398
17.5131
-11.9845
5.52862
12.7919
22.3476
-9.55565
16.2476
-6.70804
7.06702
-16.6227
-6.79223
-11.2886
18.1795
-13.0054
14.6995
-1.12422
15.8237
-13.778
3.00265
-2.07269
8.4279
8.643
16.8088
-12.4271
11.9702
-18.6782
-4.65246
-16.1945
-3.39659
1.02374
-13.8323
12.8085
12.0547
-11.0309
-3.24378
8.99088
-5.7471
5.6857
-2.84961
-2.83609
-1.84759
-3.07197
1.87011
0.630053
6.31575
0.489653
-3.33926
-2.00515
-1.90132
10.3769
8.53291
-3.83363
3.73834
3.56692
-0.562256
0.959037
2.14579
4.58925
-3.63021
0.678502
3.91075
-2.26439
3.82854
1.46548
-3.85035
-0.0650801
-3.40855
11.7601
3.1337
-5.3395
1.70928
2.38023
-13.8185
19.7427
-11.4179
-8.32483
22.123
3.06082
-14.4787
16.2628
-13.5822
8.10168
-14.3715
-6.37703
-19.9592
-12.9134
-10.7104
19.0794
-12.3115
20.1746
3.86044
-20.454
24.3144
-12.741
6.28084
-9.445
10.9105
-4.05937
-5.38563
11.2674
10.4117
-11.0543
-0.69582
0.213117
8.42151
-8.20839
-1.52687
-7.52523
-16.4089
17.829
-8.25573
17.5746
7.6935
-7.63398
25.2086
6.565
-14.199
-11.8763
-12.9584
-5.65507
10.5778
-1.79494
-7.21556
-13.9915
7.25556
0.0306602
-19.0451
22.0355
-2.99039
-12.0542
-1.81502
14.6276
-18.0823
1.8362
-11.3207
10.7149
12.1247
12.1553
-20.8685
-0.311747
-12.6589
3.17667
-15.8355
15.527
-6.80686
17.255
-16.0363
11.366
-14.5597
14.3745
-1.46104
14.7541
-9.39175
6.06688
-15.52
-12.7045
14.4556
-8.35601
15.8181
-10.1156
25.9337
-17.4018
14.3998
11.5339
-2.71716
-8.19464
-13.9646
11.2474
0.435185
8.2576
17.8372
-10.7242
16.8649
8.92425
-18.6707
-8.33744
-25.8597
7.18894
-13.3145
-7.35653
14.5455
11.1023
12.995
4.67694
-11.7723
17.7957
-19.573
-5.77445
-9.03664
14.5754
-3.32797
10.1554
-19.1921
-5.18638
13.1119
-0.18379
-12.9282
3.12238
-15.4651
5.12258
-20.5877
15.9701
-16.4248
1.77201
-7.90931
-3.16926
-3.27839
-2.17553
-3.4127
-7.57614
5.40061
-1.26606
3.56847
-12.5329
12.3491
-5.08565
10.4863
-4.06385
-1.13157
4.23564
1.15376
11.64
3.02977
-16.8023
-9.26102
14.631
-5.36997
1.11588
-10.8025
3.8285
8.09687
14.0261
-24.8252
1.66029
-15.142
-4.07364
6.21495
4.91725
16.9719
2.54753
6.55744
-0.342493
9.10497
2.27575
2.20004
-11.2264
12.1881
1.58208
15.7049
-1.8831
7.41172
3.28612
3.30411
2.02609
5.7229
2.9201
8.72554
0.462451
-3.868
2.06847
-3.96979
-1.2708
-4.00876
-0.317827
3.72636
-4.04419
10.501
-1.96811
5.13105
-1.8841
-4.93568
6.81978
-9.35559
-5.49794
-1.58719
-5.60889
7.31817
6.15124
-5.73098
-3.62461
2.39284
-15.3062
11.9787
-12.6745
-2.26278
22.0517
-9.46347
1.25508
-3.18263
-6.27015
-7.66276
7.72784
24.1899
1.01864
12.2836
18.8476
11.755
1.03081
11.9895
-16.1069
-10.7456
-16.4187
-0.891649
13.736
5.62619
20.7299
17.1601
13.8321
-5.35995
-24.933
20.7335
-8.54547
16.405
-3.47685
-17.1108
14.6382
8.98197
-17.3942
0.96941
-16.1414
-24.6869
-0.340905
12.69
-11.2991
10.1675
7.12545
2.02874
-2.42777
-0.850613
2.54508
-0.345047
8.75993
-0.188185
-8.19901
8.38719
-3.53818
2.26738
-0.431008
4.16935
6.38877
4.42066
-3.77835
-7.82254
-8.82009
-4.99845
-17.1449
2.47182
-8.62306
5.68426
-3.41688
2.84817
4.97032
10.1014
-1.6012
-9.42973
7.34831
-4.50013
5.60124
)
;

boundaryField
{
    wall-4
    {
        type            calculated;
        value           uniform 0;
    }
    velocity-inlet-5
    {
        type            calculated;
        value           uniform -11.2529;
    }
    velocity-inlet-6
    {
        type            calculated;
        value           uniform -1.87548;
    }
    pressure-outlet-7
    {
        type            calculated;
        value           nonuniform List<scalar> 8(4.18474 4.98957 10.7987 12.1158 17.5741 15.1024 17.1319 15.6276);
    }
    wall-8
    {
        type            calculated;
        value           uniform 0;
    }
    frontAndBackPlanes
    {
        type            empty;
        value           nonuniform List<scalar> 0();
    }
}


// ************************************************************************* //
