/*--------------------------------*- C++ -*----------------------------------*\
  =========                 |
  \\      /  F ield         | OpenFOAM: The Open Source CFD Toolbox
   \\    /   O peration     | Website:  https://openfoam.org
    \\  /    A nd           | Version:  9
     \\/     M anipulation  |
\*---------------------------------------------------------------------------*/
FoamFile
{
    format      ascii;
    class       volScalarField;
    location    "5.65";
    object      alpha.water;
}
// * * * * * * * * * * * * * * * * * * * * * * * * * * * * * * * * * * * * * //

dimensions      [0 0 0 0 0 0 0];

internalField   nonuniform List<scalar> 
2268
(
1
0.999999
0.999999
0.999999
1
0.999999
1
0.999999
0.999999
1
1
1
1
1
1
1
1
0.999982
0.99881
0.99647
0.99647
0.997675
0.997743
1
0.999998
0.999999
0.999998
1
0.999999
0.999998
0.999998
0.999999
1
1
1
1
1
1
0.999992
0.99997
0.999975
0.999801
0.999264
0.999798
0.99999
0.99999
0.999998
0.999997
0.999998
0.999999
1
1
0.999999
0.999999
0.999999
1
1
1
1
1
1
0.999965
0.999772
0.999989
0.99999
0.99999
0.99999
0.99999
0.999981
0.999999
0.999998
0.999999
0.999999
1
1
0.999999
0.999999
0.999999
1
1
1
1
1
1
1
0.997152
0.98554
0.98569
0.993327
0.995735
0.999999
0.999973
1
0.999999
1
1
1
1
1
1
1
1
1
1
1
1
1
1
0.995426
0.980024
0.980013
0.980013
0.984503
0.999996
0.999981
1
0.999999
1
1
1
1
1
1
1
1
1
1
1
1
1
1
0.999568
0.987402
0.980013
0.980013
0.991754
0.999993
0.999999
1
0.999999
1
1
1
1
1
1
1
1
1
1
1
1
1
1
1
0.996242
0.983927
0.984839
0.999651
0.999999
0.999999
1
1
1
1
1
1
1
1
1
1
1
1
1
1
1
1
0.999999
0.999983
0.999525
0.999626
0.999998
0.999999
0.999999
0.990577
0.993397
0.995937
0.995763
0.994009
0.991241
0.991201
0.991201
0.991202
0.991443
0.997459
0.999293
0.99538
0.986521
0.998595
0.998595
0.998595
0.998381
0.995979
0.990577
0.999962
0.999963
0.999963
0.999963
0.999963
0.999164
0.998678
0.99923
0.999293
0.999293
0.999293
0.999051
0.985245
0.99843
0.998595
0.998595
0.998595
0.996353
0.993352
0.999093
0.999954
0.999963
0.999958
0.99994
0.99994
0.999939
0.999866
0.999171
0.999293
0.999293
0.999293
0.98174
0.996161
0.998595
0.998595
0.998595
0.9945
0.999869
0.999984
0.999925
0.999925
0.99997
0.999972
0.999921
0.999161
0.998891
0.997577
0.994564
0.997835
0.974012
0.962027
0.994666
0.998595
0.998595
0.998595
0.994498
0.999927
0.999984
0.999976
0.999972
0.999972
0.999972
0.999139
0.998846
0.999245
0.999709
0.964557
0.96167
0.959879
0.960664
0.996455
0.998595
0.993773
0.997657
0.994498
0.999988
0.999994
0.999994
0.999992
0.999948
0.999957
0.999749
0.999275
0.999948
0.999544
0.96617
0.959869
0.959872
0.979221
0.99857
0.998572
0.978654
0.995413
0.995102
0.999993
0.999994
0.999994
0.999993
0.999896
0.999896
0.999965
0.999965
0.999965
0.999277
0.987427
0.95987
0.95987
0.990672
0.998561
0.998153
0.977879
0.998082
0.998467
0.999993
0.999993
0.999993
0.999993
0.999992
0.999969
0.999949
0.99992
0.998132
0.997544
0.997274
0.980747
0.981272
0.998228
0.998558
0.99829
0.977879
0.994224
0.998467
1
1
1
1
1
1
1
1
1
1
1
1
1
1
1
1
1
1
1
0.999999
0.999999
0.999998
0.999974
0.999888
0.999907
0.999896
0.999907
0.999963
0.999994
1
1
1
0.995529
0.989284
0.982354
0.976029
0.970751
0.96617
0.961781
0.957742
0.955011
0.951344
0.94539
0.937174
0.929268
0.926174
0.505874
0.503017
0.496585
0.487051
0.472505
0.455083
0.436989
0.416703
0.394905
0.374671
0.355755
0.337299
0.318992
0.301133
0.284809
0.271346
0.261263
0.253393
0.246217
0.238396
0.232407
0.228799
0.227348
0.00505597
0.0047009
0.00461212
0.0043241
0.00397511
0.00396302
0.00291553
0.00212174
0.00158834
0.00123159
0.00109074
0.001085
0.00107108
0.00104785
0.00101844
0.000992608
0.000982372
0.000982461
0.000982372
0.000973446
0.000910063
0.000784626
0.000558557
0.00171378
0.00162804
0.00161826
0.00110124
0.00254562
0.00450935
0.00460945
0.00460901
0.00457363
0.00474325
0.00475878
0.0047591
0.00475917
0.0047591
0.00462998
0.00430796
0.00387558
0.00280379
0.00101665
0.00141402
0.00145764
0.00140831
0.000558557
0.00111748
0.00121336
0.00108511
0.000781124
0.00128582
0.000687094
0.00073876
0.000873634
0.000904138
0.000870161
0.000840338
0.000760274
0.000643319
0.000471144
0.000324605
0.000128617
4.41305e-05
0.000524663
0.000990451
0.000796028
0.000630516
0.000627684
0.00121459
0.000172669
0.00018066
0.000210289
0.000302883
0.000155964
5.13745e-05
1.53633e-05
4.86295e-09
4.86296e-09
4.86295e-09
4.86311e-09
4.88944e-09
5.28882e-09
1.22865e-08
1.77247e-07
6.19528e-07
1.39171e-05
0.000140819
0.000163079
5.78161e-05
0.000126749
0.000489688
0.000358381
2.71015e-09
2.017e-08
3.37786e-08
1.42102e-08
1.48347e-09
3.5815e-08
7.14696e-06
4.44573e-06
4.86296e-09
4.86311e-09
6.92989e-08
1.46486e-06
2.0447e-06
2.09676e-07
5.49493e-08
2.01919e-05
0.000101674
0.000118125
4.95005e-05
5.78381e-05
0.000141111
0.000140465
1.09427e-05
2.45372e-09
1.15574e-08
3.28727e-08
1.73139e-08
1.47861e-09
3.66551e-09
1.52993e-06
2.58214e-06
1.7776e-07
4.97905e-09
6.84128e-07
3.69883e-06
3.69909e-06
8.41418e-07
2.46432e-08
6.5711e-06
4.1994e-05
4.84509e-05
3.73131e-05
8.13623e-05
7.86218e-05
1.45108e-08
1.67568e-08
2.45305e-09
8.39192e-08
1.21826e-07
4.16826e-08
5.62134e-10
5.56974e-10
6.45011e-10
1.00494e-08
8.4941e-09
6.27598e-09
1.25824e-06
3.69909e-06
3.24008e-06
4.6968e-09
2.45818e-08
1.03406e-07
3.6361e-09
6.91342e-08
8.79737e-07
6.78491e-06
5.60705e-06
1.45133e-08
1.47059e-08
2.45268e-09
1.19653e-07
1.36824e-07
5.16744e-08
5.56145e-10
5.56145e-10
5.56145e-10
5.57558e-10
2.71295e-07
1.60271e-06
1.7965e-06
1.08213e-06
2.8896e-07
4.32975e-09
1.11875e-08
1.19459e-08
3.42279e-09
1.12314e-07
8.03106e-07
7.79121e-07
3.86733e-08
3.85487e-08
4.36272e-08
1.59148e-09
2.21378e-08
8.10731e-08
2.19259e-08
5.56154e-10
5.56145e-10
5.56301e-10
5.46057e-07
2.01111e-06
2.01004e-06
1.48199e-06
1.84097e-09
1.88565e-09
2.14566e-09
2.17128e-09
8.75142e-11
1.68329e-10
1.87358e-06
6.40036e-06
6.40034e-06
4.19137e-06
6.19041e-07
1.90231e-08
2.99492e-10
2.99492e-10
1.11074e-09
6.53205e-10
9.02826e-10
6.36302e-10
2.83265e-09
1.28659e-06
2.03487e-06
1.45279e-06
1.13769e-07
1.8395e-09
1.8561e-09
1.50883e-09
1.02254e-10
6.71131e-11
2.55919e-10
3.21988e-06
6.40036e-06
6.40036e-06
6.40009e-06
1.29549e-06
1.90208e-08
3.15775e-08
5.22045e-08
1.5749e-10
1.57004e-10
9.76839e-10
3.6809e-09
4.7074e-08
4.85588e-07
6.78241e-07
6.89688e-08
3.12805e-10
1.83937e-09
2.07209e-09
6.99586e-10
6.6408e-11
6.64665e-11
2.56243e-10
3.51636e-07
2.58064e-06
5.2006e-06
1.88441e-06
2.04754e-08
2.09164e-08
1.13189e-07
1.9098e-07
3.28793e-09
1.5651e-10
1.77153e-09
7.87118e-09
3.1011e-08
1.70283e-10
6.54819e-11
6.26299e-11
3.12419e-10
1.05832e-09
8.95982e-10
1.4404e-10
6.63408e-11
6.72885e-11
1.1817e-10
6.97117e-11
4.83459e-11
6.95789e-10
1.44369e-10
2.05067e-08
4.06262e-08
1.77565e-07
1.90972e-07
5.27052e-09
1.56138e-10
1.80944e-09
4.24496e-09
1.83405e-09
6.3103e-11
3.40786e-11
1.90426e-11
8.59882e-11
1.5151e-10
6.78438e-11
2.76836e-11
4.9646e-11
6.09822e-11
6.97863e-11
6.50538e-11
4.82438e-11
4.8244e-11
1.31011e-10
8.24872e-09
2.23617e-08
2.76471e-07
1.71194e-07
2.94816e-11
1.56131e-10
9.17996e-10
7.18987e-10
5.38041e-11
4.1881e-11
1.70484e-11
3.44859e-12
3.69359e-12
2.31214e-12
4.6296e-13
3.0969e-12
1.96511e-11
4.52344e-11
7.09605e-11
8.21871e-11
8.12965e-11
6.61106e-11
4.08625e-11
1.00562e-11
9.77865e-12
2.76508e-07
1.51165e-07
2.94374e-11
9.32292e-11
2.32999e-10
7.52143e-11
1.46137e-11
1.17166e-11
2.46255e-12
3.88427e-14
-2.41202e-13
-5.13692e-13
-5.5481e-13
3.66019e-14
1.90745e-12
1.39084e-11
3.47023e-11
4.60779e-11
4.71041e-11
4.11902e-11
3.09437e-11
1.48311e-11
9.41253e-12
2.76528e-07
1.61138e-07
2.94294e-11
3.70752e-11
4.57624e-11
1.603e-11
1.995e-12
4.96334e-13
-7.94194e-14
-9.97322e-13
-1.46449e-12
-1.52719e-12
-1.34726e-12
-9.1513e-13
-2.67368e-13
5.54005e-13
2.66001e-12
4.86755e-12
6.40889e-12
7.12101e-12
7.11737e-12
4.88628e-12
2.58916e-12
2.76532e-07
2.47901e-07
2.94191e-11
2.94012e-11
2.93732e-11
9.1619e-12
0
-3.93119e-13
-1.02965e-12
-1.52946e-12
-1.78344e-12
-1.76813e-12
-1.58797e-12
-1.30096e-12
-9.56931e-13
-5.83925e-13
-1.75595e-13
1.72741e-14
5.41905e-14
9.16724e-14
1.4259e-13
2.47679e-13
3.27137e-13
2.76532e-07
2.76514e-07
2.94294e-11
3.01081e-11
3.69511e-11
9.02045e-12
-3.45649e-14
-5.42332e-13
-1.04498e-12
-1.36489e-12
-1.49482e-12
-1.46652e-12
-1.33363e-12
-1.13949e-12
-9.20752e-13
-7.05368e-13
-5.14147e-13
-3.60897e-13
-2.545e-13
-1.72988e-13
-1.06734e-13
-4.84653e-14
-7.35067e-15
2.76532e-07
2.50596e-07
2.94347e-11
4.91404e-11
7.39579e-11
1.092e-11
4.729e-13
-1.43379e-13
-5.07248e-13
-7.71117e-13
-8.94634e-13
-9.15995e-13
-8.62172e-13
-7.60962e-13
-6.36272e-13
-5.08607e-13
-3.92056e-13
-2.93548e-13
-2.15883e-13
-1.56188e-13
-1.09776e-13
-7.30099e-14
-4.43536e-14
1.35109e-07
5.74048e-08
2.9449e-11
1.33135e-10
1.33415e-10
1.83134e-11
3.34705e-12
1.82565e-12
7.53701e-13
-3.61919e-15
-2.45586e-13
-3.73578e-13
-4.15484e-13
-4.01324e-13
-3.54647e-13
-2.94365e-13
-2.32642e-13
-1.76479e-13
-1.30232e-13
-9.48133e-14
-6.82796e-14
-4.80928e-14
-3.21095e-14
1.82744e-10
7.39952e-11
1.37176e-10
2.55831e-10
1.75189e-10
3.05814e-11
1.10425e-11
8.38113e-12
5.44571e-12
2.70394e-12
8.95191e-13
1.01631e-13
-1.01884e-13
-1.57067e-13
-1.61904e-13
-1.44216e-13
-1.18695e-13
-9.1309e-14
-6.71211e-14
-4.82157e-14
-3.43676e-14
-2.43678e-14
-1.68137e-14
7.15346e-11
7.34475e-11
2.34062e-10
2.72554e-10
1.80692e-10
4.28099e-11
2.38284e-11
2.00393e-11
1.46777e-11
8.66062e-12
3.9058e-12
1.25075e-12
1.9406e-13
-2.84942e-14
-5.99074e-14
-6.09906e-14
-5.38572e-14
-4.23311e-14
-3.09316e-14
-2.16848e-14
-1.4962e-14
-1.03337e-14
-7.1592e-15
7.15346e-11
7.43181e-11
2.25532e-10
2.59791e-10
1.54961e-10
5.14483e-11
3.8703e-11
3.40095e-11
2.63088e-11
1.73578e-11
8.75959e-12
3.12411e-12
6.617e-13
4.46259e-14
-1.82221e-14
-2.30724e-14
-2.24101e-14
-1.80658e-14
-1.31039e-14
-8.93247e-15
-5.90158e-15
-3.86112e-15
-2.58483e-15
7.38058e-11
6.35155e-11
1.40824e-10
1.61937e-10
9.40966e-11
5.41958e-11
5.04373e-11
4.71828e-11
3.73419e-11
2.64319e-11
1.41719e-11
5.06087e-12
9.83453e-13
6.92064e-14
-4.83481e-15
-8.2402e-15
-8.77296e-15
-7.23703e-15
-5.22183e-15
-3.46544e-15
-2.18558e-15
-1.33594e-15
-8.28093e-16
1.02014e-10
5.13837e-11
5.14197e-11
5.22066e-11
5.23748e-11
5.38519e-11
5.39972e-11
5.45461e-11
4.62444e-11
3.34295e-11
1.83804e-11
6.22586e-12
1.00279e-12
5.48879e-14
-1.23537e-15
-2.94228e-15
-3.32296e-15
-2.77019e-15
-1.96622e-15
-1.26328e-15
-7.62127e-16
-4.38414e-16
-2.50147e-16
3.11439e-10
5.13841e-11
5.13837e-11
5.13841e-11
5.13859e-11
5.20788e-11
5.3661e-11
5.56246e-11
5.07285e-11
3.69979e-11
2.01899e-11
6.32172e-12
8.42829e-13
2.60315e-14
-2.67739e-16
-1.05115e-15
-1.22131e-15
-1.01117e-15
-7e-16
-4.36211e-16
-2.5382e-16
-1.40967e-16
-7.53754e-17
1.17839e-09
1.46839e-08
1.62956e-07
1.54508e-07
3.37916e-09
5.06471e-11
5.20274e-11
5.56377e-11
5.08371e-11
3.73498e-11
1.99602e-11
5.64424e-12
5.12623e-13
7.56923e-15
-1.77225e-18
-3.82773e-16
-4.42787e-16
-3.56312e-16
-2.37918e-16
-1.42907e-16
-8.03909e-17
-4.27193e-17
-2.14745e-17
2.07883e-09
1.79776e-07
8.28153e-07
8.27695e-07
1.5849e-07
5.06421e-11
5.06404e-11
5.50041e-11
4.94821e-11
3.58834e-11
1.77573e-11
4.00376e-12
2.24985e-13
1.52244e-15
8.12199e-20
-1.45666e-16
-1.58695e-16
-1.21402e-16
-7.72065e-17
-4.45328e-17
-2.40802e-17
-1.21962e-17
-5.83242e-18
2.07861e-09
2.63286e-07
8.33199e-07
8.33209e-07
3.37914e-07
6.2459e-11
4.95104e-11
5.28187e-11
4.5926e-11
3.14027e-11
1.33739e-11
2.17832e-12
7.02324e-14
2.12909e-16
-6.6885e-18
-5.65409e-17
-5.57837e-17
-3.98996e-17
-2.38831e-17
-1.31389e-17
-6.73638e-18
-3.21057e-18
-1.43732e-18
2.07961e-09
1.66958e-07
8.33206e-07
8.33205e-07
2.43556e-07
1.23748e-10
4.92442e-11
4.92457e-11
4.01679e-11
2.45209e-11
8.2542e-12
8.65376e-13
1.43622e-14
1.94457e-17
-1.0086e-17
-2.17415e-17
-1.90424e-17
-1.25422e-17
-6.96456e-18
-3.59138e-18
-1.71747e-18
-7.5977e-19
-3.14359e-19
2.32256e-09
2.60012e-08
4.47747e-07
3.27568e-07
3.76591e-08
1.3922e-10
5.31453e-11
4.45709e-11
3.21549e-11
1.63982e-11
3.85928e-12
2.20291e-13
1.58442e-15
8.41688e-19
-5.8929e-18
-8.07384e-18
-6.22117e-18
-3.70907e-18
-1.8792e-18
-8.92036e-19
-3.92013e-19
-1.58658e-19
-5.97817e-20
3.11e-09
2.15131e-09
1.77272e-09
2.71251e-10
1.0049e-10
1.00439e-10
5.71711e-11
3.75369e-11
2.2362e-11
8.51396e-12
1.17507e-12
2.95173e-14
7.49863e-17
1.00748e-20
-2.72937e-18
-2.88122e-18
-1.92402e-18
-1.01755e-18
-4.61557e-19
-1.97752e-19
-7.85265e-20
-2.86072e-20
-9.65016e-21
3.20519e-09
2.14953e-09
7.01722e-10
2.93664e-10
1.57813e-10
9.58213e-11
5.03997e-11
2.66556e-11
1.20569e-11
2.89087e-12
1.8678e-13
1.65839e-15
1.25897e-18
-3.68338e-19
-1.19819e-18
-9.93238e-19
-5.62906e-19
-2.57294e-19
-1.0158e-19
-3.84063e-20
-1.3516e-20
-4.34652e-21
-1.28579e-21
2.65226e-09
2.19253e-09
1.18945e-09
5.91611e-10
2.70806e-10
1.00596e-10
3.74324e-11
1.43221e-11
4.16606e-12
4.96767e-13
1.17964e-14
3.19145e-17
5.91244e-21
-3.56496e-19
-4.98634e-19
-3.32858e-19
-1.57228e-19
-6.02079e-20
-1.99251e-20
-6.43909e-21
-1.95735e-21
-5.41763e-22
-1.36815e-22
8.79626e-10
1.25073e-09
1.00805e-09
6.01807e-10
2.73517e-10
9.15516e-11
2.2858e-11
5.01346e-12
7.05673e-13
3.15732e-14
2.28677e-16
1.8587e-19
-4.00798e-20
-2.04843e-19
-1.98419e-19
-1.09368e-19
-4.25365e-20
-1.32263e-20
-3.50201e-21
-9.23983e-22
-2.33774e-22
-5.37147e-23
-1.11466e-23
4.79968e-11
1.9829e-10
3.78095e-10
3.28315e-10
1.77737e-10
5.54439e-11
9.23167e-12
9.14919e-13
4.40429e-14
5.71353e-16
1.28752e-18
2.90679e-22
-5.72732e-20
-1.00835e-19
-7.63728e-20
-3.55353e-20
-1.1487e-20
-2.85331e-21
-5.77e-22
-1.1537e-22
-2.2756e-23
-4.08305e-24
-6.54181e-25
1.26338e-13
4.69383e-12
3.59921e-11
5.87135e-11
4.31168e-11
1.45566e-11
1.76155e-12
7.00386e-14
8.75539e-16
3.11025e-18
2.31682e-21
-8.83546e-21
-3.85115e-20
-4.55232e-20
-2.86519e-20
-1.14882e-20
-3.1485e-21
-6.26419e-22
-9.45504e-23
-1.30058e-23
-1.78811e-24
-2.23903e-25
-2.46846e-26
-2.85377e-26
1.12907e-14
5.80858e-13
2.27439e-12
2.45028e-12
1.02739e-12
1.06368e-13
1.97497e-15
7.15303e-18
9.64423e-21
8.34899e-25
-9.97747e-21
-2.09652e-20
-1.94249e-20
-1.05452e-20
-3.71648e-21
-8.82166e-22
-1.43149e-22
-1.60346e-23
-1.38746e-24
-1.10847e-25
-7.72116e-27
-4.55079e-28
-3.86289e-26
3.18291e-18
1.20757e-15
1.2225e-14
2.01143e-14
1.09423e-14
1.17366e-15
1.50549e-17
2.87699e-20
2.03185e-23
-1.58008e-21
-6.94034e-21
-1.02231e-20
-7.96499e-21
-3.83461e-21
-1.21437e-21
-2.56862e-22
-3.56455e-23
-3.09567e-24
-1.58368e-25
-5.02726e-27
-9.87109e-29
-1.38388e-30
0.999854
0.999796
0.999849
0.999923
0.931859
0.933499
0.934489
0.935512
0.226142
0.226584
0.229044
0.233432
0.000786902
0.00100375
0.000803681
0.000577118
0.00121108
0.00122058
0.000993868
0.000533086
0.00121459
0.000542367
0.000543312
0.000593931
4.92915e-05
0.000207715
0.000668415
0.000668481
4.41391e-05
2.55962e-05
4.32834e-05
7.90233e-05
1.88401e-07
1.55495e-08
1.43288e-08
1.42562e-08
3.32325e-08
1.04266e-07
1.20019e-07
5.26544e-08
9.79619e-08
8.36858e-08
1.42923e-08
1.42768e-08
1.90229e-08
3.04529e-08
1.88551e-08
1.42916e-08
1.90193e-08
1.90201e-08
1.82799e-08
1.80702e-08
2.38691e-08
1.92467e-08
1.57323e-08
9.44513e-09
2.4595e-08
1.78616e-09
1.78611e-09
4.83885e-09
3.43103e-09
1.78611e-09
1.78616e-09
1.96405e-08
6.73158e-10
2.17898e-09
2.86808e-09
2.56731e-09
6.84845e-11
1.49413e-10
1.18217e-10
7.39936e-13
1.83361e-12
1.28102e-12
8.47964e-13
9.60719e-13
3.54403e-13
3.56251e-13
3.72709e-13
3.82253e-13
8.93779e-17
4.76449e-15
1.13657e-14
1.60238e-14
-2.44591e-14
-1.90313e-14
-1.47238e-14
-1.13002e-14
-1.97439e-14
-1.59759e-14
-1.31469e-14
-1.09989e-14
-1.06882e-14
-8.51054e-15
-6.85725e-15
-5.66974e-15
-4.68752e-15
-3.65475e-15
-2.81841e-15
-2.19769e-15
-1.74362e-15
-1.34367e-15
-1.01067e-15
-7.35999e-16
-5.72116e-16
-4.30409e-16
-3.20392e-16
-2.27176e-16
-1.76075e-16
-1.26997e-16
-9.0843e-17
-6.3269e-17
-5.22638e-17
-3.61086e-17
-2.46125e-17
-1.65481e-17
-1.45778e-17
-9.70713e-18
-6.34209e-18
-4.07639e-18
-3.80285e-18
-2.42713e-18
-1.51558e-18
-9.27601e-19
-8.92299e-19
-5.41916e-19
-3.2156e-19
-1.86641e-19
-1.84126e-19
-1.0535e-19
-5.88082e-20
-3.20578e-20
-3.26433e-20
-1.73739e-20
-9.00406e-21
-4.5482e-21
-4.83919e-21
-2.3583e-21
-1.11619e-21
-5.13658e-22
-5.8079e-22
-2.53981e-22
-1.07507e-22
-4.41092e-23
-5.4229e-23
-2.07119e-23
-7.62513e-24
-2.71087e-24
-3.7327e-24
-1.19796e-24
-3.6883e-25
-1.09201e-25
-1.74101e-25
-4.41917e-26
-1.07157e-26
-2.4898e-27
-4.66813e-27
-8.41916e-28
-1.45057e-28
-2.3954e-29
-4.77296e-29
-4.84591e-30
-4.77136e-31
-4.56667e-32
-3.40634e-32
-8.41422e-34
-2.15633e-35
-5.85372e-37
0.999993
0.999993
0.999993
0.999977
0.997775
0.992035
0.989915
0.991983
0.995478
0.998161
0.998542
0.998545
0.998548
0.99855
0.998557
0.995243
0.979307
0.981583
0.998297
0.938147
0.940648
0.942506
0.944488
0.949444
0.953667
0.953288
0.950164
0.949764
0.96325
0.985536
0.998292
0.998202
0.989245
0.978307
0.985445
0.996236
0.996463
0.996936
0.242608
0.251878
0.262143
0.275497
0.290453
0.310394
0.333964
0.35848
0.380526
0.397129
0.413521
0.434567
0.455399
0.469039
0.481369
0.49195
0.506986
0.508599
0.500183
0.000533086
0.00053306
0.000533056
0.000561612
0.000701369
0.000594377
0.000535086
0.000535086
0.000535046
0.000535149
0.000535302
0.000535407
0.000535612
0.00245909
0.0041342
0.00426436
0.00129925
0.00129868
0.00214735
0.00053306
0.00053306
0.00053306
0.000561487
0.00167894
0.00167903
0.00146063
0.0014467
0.00144655
0.0012969
0.00106657
0.00106257
0.00106118
0.00128686
0.00123244
0.00127417
0.0015726
0.00130228
0.00139656
0.000889194
0.000889194
0.000888949
0.000548069
0.00088168
0.001297
0.00129442
0.00130061
0.00133329
0.00139934
0.00148664
0.00148672
0.00140067
0.000992674
0.0010348
0.00114887
0.000861799
0.000969637
0.00098615
0.000647317
0.000620473
0.000648886
0.000648713
0.000408608
2.41936e-05
2.07647e-05
1.78348e-05
6.1382e-07
6.1382e-07
1.00049e-05
1.75674e-05
0.000145182
0.000283592
0.000269831
0.000140514
0.000140184
0.000248003
0.000343902
1.17333e-05
1.42568e-08
1.4265e-08
8.12306e-05
1.4274e-08
1.42801e-08
3.98586e-08
5.17506e-08
1.38703e-06
4.39275e-06
4.11899e-06
3.97498e-06
5.43641e-07
5.43337e-07
5.43335e-07
5.43336e-07
5.43336e-07
5.43336e-07
5.44353e-07
1.42565e-08
1.42561e-08
1.42568e-08
1.4265e-08
1.42733e-08
1.4274e-08
1.02924e-07
9.48451e-06
5.03967e-05
6.23447e-05
5.81627e-05
4.28997e-05
8.2411e-06
7.48415e-07
5.43337e-07
5.43336e-07
5.43336e-07
5.43337e-07
5.4334e-07
1.42561e-08
1.42624e-08
1.4265e-08
1.65844e-08
1.4274e-08
1.81818e-08
7.63573e-06
5.92942e-05
6.25381e-05
6.25385e-05
6.24713e-05
3.98328e-05
8.0508e-06
6.90753e-06
5.81875e-07
5.43338e-07
5.43337e-07
5.43339e-07
5.43339e-07
1.42586e-08
1.24086e-06
9.24171e-06
1.08874e-05
1.16204e-06
1.57286e-07
2.90856e-05
5.97111e-05
5.61751e-05
1.49444e-05
1.82193e-05
3.01677e-05
4.19289e-05
4.19289e-05
1.94876e-05
6.72128e-06
9.02192e-07
5.43339e-07
5.43339e-07
1.43292e-08
6.6093e-06
2.14668e-05
2.14682e-05
1.51189e-05
2.43667e-06
2.81309e-05
3.66903e-05
2.2761e-06
4.2876e-06
3.44822e-05
4.11808e-05
4.1196e-05
3.86071e-05
3.96729e-05
3.9673e-05
4.62309e-06
5.43339e-07
5.4334e-07
2.84095e-08
7.73282e-06
2.14681e-05
2.14677e-05
2.14671e-05
1.85261e-05
1.13253e-06
1.99548e-09
1.99437e-09
5.09376e-06
2.73419e-05
2.76005e-05
1.32697e-06
1.94338e-10
6.4496e-06
8.98811e-06
1.18155e-05
1.41215e-05
9.53498e-06
2.45891e-08
1.20591e-07
9.23434e-06
1.97353e-05
7.87068e-06
5.05669e-10
5.01818e-10
3.47855e-09
1.53386e-07
1.86078e-07
1.70523e-10
1.70528e-10
1.70528e-10
1.70606e-10
1.94338e-10
3.08455e-06
1.66852e-05
1.66852e-05
1.66852e-05
5.69906e-08
1.10072e-07
2.03442e-09
2.01695e-09
2.01763e-09
4.35879e-09
4.97259e-10
1.77448e-08
5.82342e-08
8.3832e-09
1.73801e-10
1.70523e-10
1.70606e-10
1.70426e-10
1.81404e-10
1.2638e-06
1.24915e-05
1.55926e-05
1.09419e-05
6.11238e-08
7.75979e-08
4.82338e-08
4.03187e-08
3.36751e-09
4.97259e-10
4.97086e-10
1.44972e-09
1.9304e-10
3.70069e-10
1.75932e-09
5.36047e-10
2.57394e-10
1.70025e-10
8.81108e-09
1.37246e-07
3.51194e-08
4.83923e-12
4.83922e-12
9.53816e-10
2.19308e-08
2.73269e-07
2.93001e-07
1.73378e-07
1.59827e-08
3.60332e-10
1.92534e-10
1.92534e-10
7.2069e-10
1.43898e-09
1.05502e-09
3.61441e-10
1.70019e-10
1.42846e-10
4.86138e-12
4.83956e-12
4.8392e-12
4.83923e-12
7.21209e-13
9.03423e-09
1.85934e-07
2.93067e-07
2.93067e-07
2.93067e-07
3.61132e-08
1.92534e-10
1.86753e-09
1.54607e-08
1.74842e-08
1.42573e-09
3.81388e-10
1.8595e-10
2.0528e-10
1.44218e-10
2.06337e-11
4.83956e-12
4.84874e-12
7.2117e-13
4.94e-14
6.81119e-16
9.01029e-08
2.61853e-07
2.90677e-07
1.08579e-07
1.93702e-10
2.93791e-08
7.35931e-08
7.35932e-08
3.55922e-08
2.50914e-10
8.92866e-11
1.99285e-10
1.29962e-10
3.36272e-11
7.97989e-12
8.423e-12
3.15125e-13
9.80223e-14
6.3722e-16
2.95923e-35
1.63705e-20
9.76086e-10
6.58661e-09
1.52846e-08
6.65771e-08
7.35962e-08
7.35694e-08
6.57583e-08
9.37243e-11
8.42908e-11
9.93853e-11
4.89262e-11
1.57333e-10
5.19013e-09
6.37104e-08
1.7012e-14
9.09181e-15
2.12095e-15
-2.49673e-17
-7.60384e-35
1.63704e-20
5.66383e-18
2.41743e-16
8.72966e-10
2.23454e-08
2.9912e-08
5.2477e-09
5.91708e-10
8.24673e-11
2.91845e-11
1.18335e-11
4.83543e-10
9.03682e-07
8.24575e-06
-8.68404e-15
-4.04191e-15
-1.93572e-15
-2.95457e-16
2.96953e-17
1.29473e-14
7.88683e-14
9.49996e-14
9.50628e-14
9.53181e-14
9.58239e-14
9.63335e-14
9.8099e-14
6.0665e-12
6.1663e-12
3.23989e-12
1.77873e-10
2.86332e-06
1.34877e-05
-9.24676e-15
-5.71509e-15
-3.42389e-15
-1.92259e-15
-8.98689e-16
-9.94766e-17
9.01065e-16
4.15862e-14
3.3989e-13
6.35665e-13
5.03951e-13
1.37831e-12
2.56787e-12
1.77077e-12
1.1282e-12
1.71442e-12
1.24495e-12
3.03017e-06
1.34877e-05
-4.7911e-15
-3.11686e-15
-1.99064e-15
-1.24197e-15
-7.48944e-16
-4.21021e-16
-1.88791e-16
5.33149e-18
4.34552e-15
6.0172e-14
1.78309e-13
4.92844e-13
1.02246e-12
4.57171e-13
3.71112e-13
1.43006e-12
1.24355e-12
1.13677e-06
1.34877e-05
-1.78421e-15
-1.14419e-15
-7.26119e-16
-4.55004e-16
-2.79124e-16
-1.71722e-16
-1.02682e-16
-5.32596e-17
-5.42281e-19
3.30386e-16
2.24839e-15
7.88107e-15
2.10593e-14
4.02351e-14
1.22953e-13
1.24213e-12
1.24254e-12
8.7849e-08
1.34868e-05
-5.39652e-16
-3.31988e-16
-2.01373e-16
-1.21587e-16
-7.40919e-17
-4.54668e-17
-2.7504e-17
-1.54339e-17
-5.7382e-18
9.36453e-18
8.63688e-17
4.36793e-16
2.12786e-15
1.02683e-14
7.07551e-14
1.52239e-12
1.51633e-12
1.38595e-12
1.24315e-05
-1.38897e-16
-8.04227e-17
-4.75964e-17
-2.84251e-17
-1.69401e-17
-9.97069e-18
-5.73216e-18
-2.90381e-18
-6.96806e-19
4.36548e-18
3.23315e-17
1.91346e-16
1.18912e-15
6.81104e-15
5.53309e-14
1.80797e-12
3.96234e-12
1.38524e-12
1.60291e-06
-3.31683e-17
-1.76447e-17
-9.68815e-18
-5.40378e-18
-3.01433e-18
-1.56785e-18
-7.42952e-19
9.62965e-38
3.75869e-19
4.19084e-18
2.67315e-17
1.53647e-16
9.42622e-16
5.46649e-15
5.09235e-14
1.91593e-12
6.29748e-12
1.38675e-12
1.38915e-12
-7.54592e-18
-3.55183e-18
-1.72535e-18
-8.47978e-19
-3.87296e-19
-1.92593e-37
3.35043e-19
1.58731e-18
6.4883e-18
1.66134e-17
4.31163e-17
1.60119e-16
8.92959e-16
5.09953e-15
5.87003e-14
2.09351e-12
6.41409e-12
1.38915e-12
2.27825e-06
-1.67988e-18
-6.99679e-19
-2.93833e-19
-1.08641e-19
4.23302e-20
9.75869e-19
6.16515e-18
2.57581e-17
8.36412e-17
2.19376e-16
4.80925e-16
9.807e-16
2.52673e-15
9.13657e-15
8.80677e-14
1.70921e-12
6.26882e-12
2.11488e-12
3.40271e-06
-3.51641e-19
-1.31807e-19
-4.72611e-20
4.54482e-21
7.02866e-19
6.52322e-18
3.87728e-17
1.76783e-16
6.39415e-16
1.81361e-15
4.16722e-15
9.02055e-15
2.30249e-14
6.65071e-14
2.28288e-13
1.79041e-12
5.68412e-12
1.72535e-12
3.34261e-06
-6.51722e-20
-2.22235e-20
-5.69098e-21
8.56741e-20
1.92296e-18
2.33998e-17
1.74453e-16
9.04026e-16
3.6081e-15
1.13743e-14
2.91123e-14
7.27509e-14
1.9608e-13
4.80429e-13
9.69987e-13
2.59575e-12
5.87387e-12
1.72537e-12
4.963e-07
-1.02062e-20
-3.13841e-21
1.53121e-22
1.30305e-19
4.07849e-18
6.71527e-17
6.37333e-16
3.74782e-15
1.70142e-14
6.51115e-14
2.19093e-13
6.49039e-13
1.47669e-12
2.66558e-12
3.80005e-12
5.32271e-12
7.66801e-12
1.72535e-12
3.05681e-08
-1.29873e-21
-3.4881e-22
1.47868e-21
1.57898e-19
6.80431e-18
1.49595e-16
1.90226e-15
1.37858e-14
7.79774e-14
3.86502e-13
1.77044e-12
5.45812e-12
8.91804e-12
1.13639e-11
1.19964e-11
1.38207e-11
1.09028e-11
1.72589e-12
2.46243e-06
-1.28908e-22
-2.72143e-23
1.17034e-21
1.63712e-19
8.86089e-18
2.49491e-16
4.4582e-15
4.70557e-14
3.54122e-13
2.08203e-12
1.00455e-11
2.73595e-11
3.64688e-11
3.84027e-11
3.50467e-11
5.04304e-11
5.18071e-11
1.78109e-12
3.17386e-06
-9.49108e-24
-7.56328e-25
5.38556e-22
1.27574e-19
9.50802e-18
3.13194e-16
7.68413e-15
1.30188e-13
1.20115e-12
7.24138e-12
3.03136e-11
6.97385e-11
8.8981e-11
9.0222e-11
9.08838e-11
1.91874e-10
2.65144e-10
1.81574e-12
3.17387e-06
-4.84717e-25
5.89207e-25
2.33579e-22
5.84958e-20
7.87026e-18
3.23768e-16
9.63173e-15
2.44228e-13
2.45502e-12
1.4221e-11
5.06711e-11
1.04194e-10
1.30121e-10
1.27885e-10
1.74446e-10
5.2988e-10
7.24058e-10
1.92269e-12
3.13376e-06
-1.55536e-26
1.75412e-25
7.91224e-23
2.27876e-20
3.52693e-18
2.07911e-16
9.71535e-15
3.06204e-13
3.14796e-12
1.75637e-11
5.75491e-11
1.14399e-10
1.35623e-10
1.2437e-10
2.93398e-10
1.96431e-09
1.59139e-09
2.30592e-12
2.35111e-06
-2.64384e-28
3.61414e-26
1.54522e-23
6.6692e-21
1.20721e-18
6.70219e-17
5.01104e-15
2.95742e-13
3.06358e-12
1.62839e-11
4.58395e-11
7.7033e-11
1.15514e-10
4.01977e-11
8.0685e-10
9.28682e-09
6.61109e-09
3.25951e-12
2.16072e-06
-1.5922e-30
3.6722e-27
1.53933e-24
1.03527e-21
2.59687e-19
1.54576e-17
1.03614e-15
1.15981e-13
1.21507e-12
5.81713e-12
1.35979e-11
2.14548e-11
3.61606e-11
7.36299e-16
2.27251e-09
1.38184e-08
1.38167e-08
7.43991e-12
2.16072e-06
-1.88564e-33
2.18471e-31
2.85801e-26
7.26144e-23
2.12906e-20
1.58419e-18
1.10148e-16
1.38219e-14
1.42797e-13
6.48304e-13
1.48067e-12
2.44442e-12
3.52106e-12
5.26075e-19
1.98328e-09
1.31644e-08
1.23092e-08
2.62069e-13
2.16032e-06
-7.17288e-39
-7.74131e-41
1.64227e-33
5.2457e-28
2.1114e-24
1.09565e-21
4.0394e-19
6.04111e-17
5.41143e-16
2.70841e-15
7.2145e-15
1.26892e-14
7.36086e-15
-9.86076e-35
1.66465e-10
9.59567e-10
7.90435e-10
-6.65212e-27
1.63282e-06
)
;

boundaryField
{
    leftWall
    {
        type            zeroGradient;
    }
    rightWall
    {
        type            zeroGradient;
    }
    lowerWall
    {
        type            zeroGradient;
    }
    atmosphere
    {
        type            inletOutlet;
        inletValue      uniform 0;
        value           nonuniform List<scalar> 
46
(
0
3.18291e-18
1.20757e-15
1.2225e-14
2.01143e-14
1.09423e-14
1.17366e-15
1.50549e-17
2.87699e-20
2.03185e-23
-1.58008e-21
-6.94034e-21
-1.02231e-20
-7.96499e-21
-3.83461e-21
-1.21437e-21
-2.56862e-22
-3.56455e-23
-3.09567e-24
-1.58368e-25
0
0
0
0
0
0
0
0
0
0
0
0
0
0
0
0
0
0
0
0
0
0
0
0
0
1.63282e-06
)
;
    }
    defaultFaces
    {
        type            empty;
    }
}


// ************************************************************************* //
