/*--------------------------------*- C++ -*----------------------------------*\
  =========                 |
  \\      /  F ield         | OpenFOAM: The Open Source CFD Toolbox
   \\    /   O peration     | Website:  https://openfoam.org
    \\  /    A nd           | Version:  9
     \\/     M anipulation  |
\*---------------------------------------------------------------------------*/
FoamFile
{
    format      ascii;
    class       surfaceScalarField;
    location    "0.35";
    object      phi;
}
// * * * * * * * * * * * * * * * * * * * * * * * * * * * * * * * * * * * * * //

dimensions      [0 3 -1 0 0 0 0];

internalField   nonuniform List<scalar> 
1300
(
11.2529
1.87548
-10.8284
11.2529
-9.82759
1.87548
-10.2149
10.2149
-3.7864
3.7864
5.76106
5.4918
-8.61978
8.61978
-8.37161
8.37161
-7.44618
7.44618
-1.21233
1.21233
-1.2092
1.2092
1.37687
-1.37687
-7.72491
7.72491
-5.13972
5.13972
-9.56826
9.56826
7.74159
-7.74159
-8.33761
8.33761
-2.10608
2.10608
-3.16463
14.4175
8.08823
8.08823
-6.67326
6.67326
-1.38362
1.38362
1.65829
-1.65829
16.7718
-16.7718
-5.94336
-6.34677
2.53987
-15.5519
-7.28772
-7.28772
-2.7537
2.7537
-0.878223
0.997254
7.70718
-7.70718
-2.08935
2.08935
-10.2873
0.0724099
-10.2873
10.1141
0.100829
10.1141
-4.24317
0.456772
-4.24317
9.74558
-9.74558
3.35216
0.434237
3.35216
7.70833
-7.70833
-5.64925
11.4103
5.60361
-5.15184
19.5693
-6.10102
11.5928
-7.16343
7.16343
-8.76757
0.14779
-8.76757
8.64512
-0.0253434
8.64512
-8.19395
8.19395
-8.40062
0.0290093
-8.40062
8.28412
0.0874946
8.28412
7.90843
-7.90843
-7.5306
0.0844206
-7.5306
7.4306
0.0155761
7.4306
0.63061
1.24487
-2.50609
3.50334
-1.24487
0.0325315
1.20254
0.00979751
1.20254
-1.19999
-0.00921047
-1.19999
1.23286
-0.0236611
1.23286
1.49831
-0.121439
1.49831
-1.31734
-0.0595273
-1.31734
-6.31279
-6.45545
-7.89031
0.165406
-7.89031
-5.2118
0.0720779
-5.2118
5.0734
0.0663203
5.0734
-5.37836
5.37836
-9.84032
0.272062
-9.84032
7.58821
0.153381
7.58821
5.19381
6.05905
16.4467
-16.4467
8.70509
-8.36742
0.0298109
-8.36742
-8.33967
-8.43211
8.33967
-0.00206863
-2.45143
0.345343
-2.45143
7.82681
0.26142
7.82681
7.11299
0.317613
-7.11299
0.439732
8.74244
-8.74244
4.90323
1.77003
4.90323
-1.37778
1.37778
1.26892
-0.036054
-1.26892
-0.114699
1.63594
0.022351
1.63594
-1.63972
-0.0185706
-1.63972
6.43284
-12.7796
-6.49433
7.47278
0.252125
-7.47278
0.185067
7.74072
-0.0335448
7.74072
-7.65059
7.65059
-7.64679
-0.060385
-7.64679
-1.89901
-0.190345
-1.89901
2.34619
-0.256835
2.34619
-10.1803
-0.107008
-10.1803
-10.0337
0.193335
10.0337
0.0804489
3.40922
-3.40922
-4.51424
0.271064
-4.51424
-9.94296
-0.237375
9.94296
-0.197378
-9.76778
0.0221918
-9.76778
-7.73598
0.0891851
7.73598
-0.0276423
7.60801
0.218802
-7.60801
-0.100323
-5.39112
11.4502
-5.86174
11.4653
-6.65798
-0.505452
-6.65798
7.48911
-0.325678
7.48911
9.36758
0.200686
-9.36758
0.600005
8.39653
0.248598
8.39653
-8.01212
-0.181831
-8.01212
8.1914
0.0025519
8.1914
8.36006
0.0364614
-8.36006
-0.0405555
8.48621
-0.202094
8.48621
7.94343
-0.0349947
7.94343
-7.71613
-0.192304
-7.71613
7.60429
-7.60429
7.42803
0.176261
-7.42803
-0.10257
-4.66337
4.6448
-0.00372654
-4.65965
1.19881
1.19881
1.6786
-0.180295
1.6786
-1.24217
-0.0751682
-1.24217
6.48393
-12.9783
6.37924
-12.692
6.39877
-21.9507
6.60921
-13.0647
8.15567
-8.15567
7.91732
0.238346
-7.91732
0.0270054
-5.10886
-0.102945
-5.10886
-4.92961
-0.448747
-4.92961
5.9465
-0.568144
5.9465
-7.73144
7.73144
-7.64733
-0.0841021
7.64733
-0.0591284
8.28001
0.206203
-8.28001
-0.0874097
2.91673
0.435432
-2.91673
0.465305
8.89814
-0.155699
8.89814
-8.31488
-0.427569
-8.31488
-4.96269
-0.146169
4.96269
-0.0594581
-1.48553
0.107749
-1.48553
-4.70169
0.0420412
-4.69189
-1.59768
-1.59768
1.15602
4.65936
-7.70076
-0.0153669
7.70076
0.0399599
7.53666
0.194779
-7.53666
-0.113932
-7.65312
0.0488261
7.65312
-0.00252688
-1.72764
-0.171363
-1.72764
-2.82149
2.82149
-2.60887
-0.212622
2.60887
-0.262685
3.71029
-0.301068
3.71029
4.86699
0.206415
-4.86699
0.352752
-9.31876
-0.449018
-9.31876
7.61864
-0.129533
7.61864
-8.10215
-0.212722
8.10215
-0.158727
-0.0023375
4.64714
-1.19647
-0.00351949
1.19647
-4.66949
4.66597
-1.59292
-0.134723
1.59292
0.0856822
1.26204
0.115744
-1.26204
0.0198623
8.14789
0.0435031
-8.14789
-0.00777409
-4.52115
-0.408463
-4.52115
-6.27745
-0.380526
6.27745
-0.330954
-4.69052
-0.0929952
4.78351
-4.71418
1.57852
0.0574193
-1.57852
4.72339
-3.05707
-0.352144
3.05707
-0.235578
4.01199
-0.301705
4.01199
9.33496
-0.436822
-9.33496
0.0162066
-7.95896
-0.0531546
7.95896
-0.340318
-4.32075
-0.200394
4.32075
-0.308762
-13.1151
13.3765
6.4542
-6.41626
-6.36335
-14.8484
5.06393
6.38623
13.769
-13.6513
-8.29945
-13.4662
2.91084
-2.89098
-6.03929
5.91785
22.6573
-22.6351
-18.3553
18.2961
20.0258
-20.0534
5.58784
5.82247
20.9383
-20.7905
-19.8578
19.3523
19.7715
-19.7425
20.4291
-20.6109
-23.5496
23.5932
-17.7081
17.7925
-20.6729
20.4805
-20.8803
20.7215
-6.32759
-6.36444
17.2669
-17.1015
22.5655
-22.5356
-22.4661
22.7382
10.4731
2.90345
10.6919
-6.09121
11.679
-5.50162
11.9558
6.46001
-12.7876
6.51825
-12.8816
11.5463
11.0191
-11.5442
-3.30413
-18.4369
18.4033
-18.1319
18.1293
24.442
-24.3696
-5.83243
11.6549
-5.63292
12.0192
-10.762
-7.59326
10.6086
3.16041
10.6092
6.65774
-10.8613
-2.60489
-23.5122
23.0754
-24.1556
23.7281
-0.338436
2.30371
-1.96527
1.04518
-0.210842
2.51455
2.7
2.62483
2.35461
-2.23887
0.536366
-2.50164
-2.61634
-8.44545
8.71651
8.48354
-8.0493
17.3218
5.33545
17.1244
-16.2944
-6.34066
-16.7434
12.0663
6.22985
11.9822
12.6778
7.34794
12.767
9.41901
-9.60033
0.181329
-9.64086
19.0599
2.05456
-17.2341
-14.0737
13.5012
7.4371
13.4758
-14.4286
-6.3619
-13.8286
-11.775
-8.08284
-12.1555
12.6389
6.71347
12.3132
-15.2322
14.8919
12.8918
6.87967
12.9793
-12.9623
-6.78013
-13.0029
20.1021
-5.48771
-14.6144
-13.3943
-10.1554
13.3917
7.03736
14.3874
9.20571
14.3797
6.95643
13.1457
-13.9938
3.83842
-11.8003
-5.90776
-11.9029
11.3507
6.4418
11.3663
-13.1851
-7.48774
-13.2005
-13.1072
-7.7731
13.1422
7.33838
-13.2917
-10.864
13.5044
7.21715
6.10335
-14.4028
6.96132
-13.3258
-12.0304
-5.07113
-12.0034
7.89058
5.165
-13.0556
-4.89702
21.0828
-10.0636
17.7786
-14.1035
-8.43216
-14.1909
-17.7285
-4.73762
-17.5352
-9.89004
9.48158
-10.739
10.1709
20.2823
-11.593
-8.68933
-12.4759
-7.57756
12.5762
-1.88427
-11.4349
11.6163
0.244111
12.1999
15.1034
13.2191
-11.9608
-6.17109
-12.0747
11.8822
6.2471
11.9311
17.9261
6.5159
18.0269
-18.2989
-6.0707
-18.4059
8.30907
-8.49941
9.36216
-9.50833
15.7813
7.94672
-15.6256
-7.88654
18.5914
-9.38239
-9.20904
-5.78933
7.67713
-1.88779
-3.27478
-2.2296
-0.123518
-2.89148
-3.1478
2.95101
-0.326181
7.35095
4.20315
-2.24906
2.3568
2.53446
2.4984
-0.117934
4.67545
-4.81018
15.6662
-8.70508
-6.96117
15.1222
-15.3596
-3.28363
-15.691
12.4074
1.76483
5.97825
-5.6329
-6.67614
-1.76931
-6.32339
5.34914
3.1344
5.78457
2.99367
5.72284
-9.23834
1.86969
7.36865
-6.24467
-6.17962
-10.7726
-4.09345
14.8661
16.7533
6.32203
-16.7695
0.026097
8.62934
-8.56302
-1.91847
-8.85415
7.00049
-8.91896
-11.0029
-5.56867
16.5716
-10.4402
-1.63451
10.2454
1.73677
-11.8797
-6.55715
11.9401
0.826919
-9.48486
19.0524
-9.56754
-15.656
8.00697
11.0529
14.2368
-14.8184
7.45475
7.36365
-3.7655
11.3928
2.08308
11.6414
-17.8052
11.4433
15.4653
7.27294
-15.666
1.83738
-15.9678
18.3304
-16.298
-2.03236
9.5278
8.80256
10.2452
10.0372
-6.6966
16.9418
-2.4288
-13.8692
18.3966
-11.1237
10.9983
-22.122
-21.0355
7.16628
-13.1743
16.3404
-3.16611
-4.84505
-10.3872
18.0194
-1.7965
-16.2229
10.5167
-10.0863
-10.5703
20.6566
-15.574
17.3504
-5.06046
-12.2899
-12.7875
-7.82345
12.8406
2.05127
-19.1135
22.9519
-5.96784
11.3369
1.6424
11.1348
7.48351
-11.5297
4.04617
8.09051
-13.151
4.86229
-16.392
-9.36505
18.5107
-9.14566
-14.4362
-13.0928
-1.34337
4.04677
18.9052
-13.2525
10.4782
2.77431
10.1746
1.75648
-10.3508
-1.55203
1.19546
14.0269
-15.2223
12.5617
12.8793
11.0551
2.97178
11.9649
6.43845
-12.0048
-1.19566
-12.3204
4.54731
-4.98203
-10.8326
15.3799
-12.2974
1.46481
-8.2884
-10.8274
19.1158
-14.1962
9.32076
9.73164
15.5679
-15.0926
4.26516
-7.4774
-7.61516
8.03226
-13.0143
5.75739
9.62252
12.9745
2.11059
9.16582
9.34489
-14.3308
1.00506
16.0026
-13.3977
3.12173
11.2579
-13.5999
0.507098
-11.4963
2.12744
-12.1911
-10.9281
12.8322
-17.5698
-9.28983
16.4259
1.60097
-16.5064
-1.02882
-6.81915
-3.0709
-7.01954
-3.68428
-7.05473
-10.3809
-1.9781
-8.40278
7.50348
-8.07562
-4.07986
8.40657
1.7643
-7.97789
7.62575
-8.14767
7.84596
0.361671
11.2546
13.5808
6.00321
-7.4891
13.4923
-12.505
19.0209
-22.8086
10.3036
12.0981
-18.1688
-10.7105
5.20279
3.10627
4.94596
11.0804
-12.2336
1.15327
-11.454
14.2707
-2.81671
-18.0801
6.62606
-6.99972
8.60414
0.758021
8.50119
2.29364
7.19399
-9.48763
-7.21469
-7.27414
-6.75362
-10.4718
17.2255
3.49771
-10.115
6.61729
-10.5878
14.0855
-0.147423
-9.96757
15.9485
-8.75452
16.7065
-10.7352
5.97132
9.8369
16.7212
-6.88429
13.1469
-5.20021
5.21144
-12.0957
-5.26039
-9.28911
15.7309
-9.82669
11.2915
-0.508599
11.8001
-12.5962
3.21384
-1.54115
11.3382
11.7779
12.6037
-9.63196
8.70103
-13.9012
-3.3947
-11.7907
-2.16813
0.641283
-10.4322
9.79096
10.2493
-9.60804
-3.71678
9.62059
-5.90381
7.7121
-3.96053
-3.75157
-3.60439
-4.89503
3.77575
0.899705
8.6118
1.05096
-5.01149
-3.75921
-3.67353
8.5381
7.12814
-6.7243
4.8365
6.84782
-0.869571
1.6315
4.15308
6.33178
-4.70028
1.01452
5.31726
-4.61838
6.45256
2.17678
-6.65898
0.335587
-3.84968
10.8502
3.51897
-6.65336
1.95308
2.07828
-10.7834
14.6238
-7.95839
-6.66545
16.7021
2.72377
-10.6822
12.9672
-11.2024
6.34351
-10.437
-4.33865
-15.5411
-10.2056
-7.50285
14.1201
-9.72261
16.0446
3.11724
-16.0707
19.188
-10.7403
5.17164
-9.32675
11.5035
-3.34518
-5.98157
8.50447
8.06709
-8.58231
-0.271842
-0.077836
7.20947
-7.28731
-1.70948
-7.95415
-14.1264
14.9533
-6.71388
14.1686
6.77843
-6.04677
20.2154
5.69296
-11.7397
-9.963
-11.5975
-4.37608
9.86074
-1.62341
-11.3795
-13.9133
11.343
0.298339
-17.6867
19.8206
-2.13391
-10.2496
-1.19373
10.7215
-14.4258
1.27487
-9.56354
10.257
12.3401
12.6385
-15.9272
-0.295673
-9.21372
2.46356
-11.6773
11.2661
-5.3245
12.4908
-13.3816
9.30171
-11.6173
10.4584
-1.21887
10.4987
-6.45257
4.11567
-11.9391
-9.88785
13.7227
-6.84306
15.3651
-7.84566
23.2108
-13.8135
13.6548
9.556
-2.65973
-11.5312
-13.4646
10.8049
0.190157
11.325
15.2348
-8.79636
14.0392
6.46287
-13.9403
-6.55142
-19.9793
6.03901
-10.2476
-5.61153
11.6505
9.95633
11.7128
4.03538
-10.1608
12.9475
-14.2909
-3.80185
-7.12628
13.1589
-2.35406
7.46426
-14.5905
-4.72679
9.66898
-0.428474
-9.24051
1.92401
-11.2138
4.53225
-15.7461
13.0376
-14.0664
2.56047
-9.56019
-5.41742
-5.653
-2.57328
-5.57439
-8.37635
5.80307
-1.75029
5.87546
-10.1579
9.72939
-4.11288
9.91596
-6.06113
-0.95841
6.36989
1.47607
11.392
1.84204
-12.5525
-6.92626
11.6843
-4.75799
1.61184
-8.5902
3.09405
6.48115
10.221
-18.8885
0.71972
-11.8328
-4.87384
7.98011
4.74675
14.9961
2.76243
8.45596
-0.475847
11.2184
4.47011
4.20743
-8.12337
9.27664
1.66759
11.9712
-2.62295
8.59428
5.87824
5.95032
2.6127
7.06824
4.70967
10.2821
0.794446
-6.4797
3.08605
-6.75958
-1.92544
-6.93988
-1.02203
4.8079
-5.82993
9.19709
-2.06895
4.43909
-1.71266
-5.99438
7.70704
-8.67383
-6.86395
-1.54669
-5.47126
7.42434
5.37891
-5.87765
-2.79617
1.36065
-11.5663
9.07631
-9.34815
-1.28105
17.9069
-8.24366
0.956353
-3.07202
-6.9978
-8.7671
8.43152
19.0737
1.14171
9.50616
16.095
9.53784
0.741484
8.40087
-11.567
-7.9911
-11.8627
-0.596526
10.125
3.61441
15.2908
13.1704
10.8164
-3.77419
-18.0651
15.0233
-5.74671
12.2066
-2.96613
-12.78
12.6414
6.3795
-14.2424
0.176029
-12.6039
-18.3506
-0.457186
10.1866
-10.9348
9.97643
6.90553
1.49725
-4.47671
-1.17629
4.68933
-0.481905
10.7365
-0.174979
-8.84781
9.02279
-4.63292
2.70748
-1.00236
5.83887
6.70467
4.63573
-4.21209
-10.042
-6.41786
-4.36549
-13.0833
1.78276
-7.16167
6.68934
-3.98186
2.93777
5.04093
9.48003
-1.47788
-8.13016
7.38169
-4.44392
5.03611
)
;

boundaryField
{
    wall-4
    {
        type            calculated;
        value           uniform 0;
    }
    velocity-inlet-5
    {
        type            calculated;
        value           uniform -11.2529;
    }
    velocity-inlet-6
    {
        type            calculated;
        value           uniform -1.87548;
    }
    pressure-outlet-7
    {
        type            calculated;
        value           nonuniform List<scalar> 8(10.8284 9.82759 12.2901 13.0121 12.7682 12.9272 12.8632 13.008);
    }
    wall-8
    {
        type            calculated;
        value           uniform 0;
    }
    frontAndBackPlanes
    {
        type            empty;
        value           nonuniform List<scalar> 0();
    }
}


// ************************************************************************* //
