/*--------------------------------*- C++ -*----------------------------------*\
  =========                 |
  \\      /  F ield         | OpenFOAM: The Open Source CFD Toolbox
   \\    /   O peration     | Website:  https://openfoam.org
    \\  /    A nd           | Version:  9
     \\/     M anipulation  |
\*---------------------------------------------------------------------------*/
FoamFile
{
    format      ascii;
    class       surfaceScalarField;
    location    "6.64";
    object      alphaPhi0.water;
}
// * * * * * * * * * * * * * * * * * * * * * * * * * * * * * * * * * * * * * //

dimensions      [0 3 -1 0 0 0 0];

internalField   nonuniform List<scalar> 
4432
(
1.10963e-07
-1.10963e-07
2.71185e-07
-1.60224e-07
4.41926e-07
-1.7074e-07
6.05063e-07
-1.63138e-07
7.56243e-07
-1.5118e-07
8.9613e-07
-1.39889e-07
1.028e-06
-1.31872e-07
1.15485e-06
-1.26849e-07
1.27681e-06
-1.21962e-07
1.39148e-06
-1.14672e-07
1.49932e-06
-1.07849e-07
1.60945e-06
-1.10133e-07
1.73827e-06
-1.28815e-07
1.89921e-06
-1.6094e-07
2.08306e-06
-1.83852e-07
2.21912e-06
-1.36061e-07
2.10479e-06
1.14334e-07
1.51787e-06
5.86912e-07
5.90795e-07
9.2567e-07
-4.41879e-07
1.03158e-06
-1.00418e-06
5.62076e-07
-7.33826e-07
-2.71248e-07
-7.34714e-07
1.34597e-07
-2.45558e-07
2.92249e-07
-3.17877e-07
4.57853e-07
-3.36344e-07
6.21238e-07
-3.26523e-07
7.76281e-07
-3.06225e-07
9.21779e-07
-2.85391e-07
1.05891e-06
-2.69004e-07
1.18862e-06
-2.56565e-07
1.31022e-06
-2.43566e-07
1.4209e-06
-2.25354e-07
1.52e-06
-2.06954e-07
1.61222e-06
-2.02346e-07
1.70605e-06
-2.22652e-07
1.80643e-06
-2.61314e-07
1.90342e-06
-2.80842e-07
1.95165e-06
-1.84304e-07
1.83669e-06
2.29278e-07
1.3939e-06
1.0297e-06
7.11652e-07
1.60716e-06
1.36641e-09
1.74411e-06
-5.15869e-07
1.08013e-06
-5.79293e-07
-2.07817e-07
-1.3141e-06
1.52197e-07
-3.97753e-07
3.1106e-07
-4.76742e-07
4.73419e-07
-4.98703e-07
6.35265e-07
-4.88369e-07
7.90728e-07
-4.61688e-07
9.37596e-07
-4.32259e-07
1.07574e-06
-4.07147e-07
1.20504e-06
-3.85867e-07
1.32397e-06
-3.62498e-07
1.42886e-06
-3.3024e-07
1.5173e-06
-2.95397e-07
1.59093e-06
-2.75973e-07
1.6542e-06
-2.85921e-07
1.70881e-06
-3.15918e-07
1.74772e-06
-3.19757e-07
1.74552e-06
-1.82148e-07
1.62561e-06
3.48993e-07
1.27252e-06
1.38279e-06
7.88594e-07
2.09119e-06
3.1242e-07
2.22235e-06
-1.55833e-07
1.54847e-06
-3.47799e-07
-1.58445e-08
-1.66191e-06
1.62951e-07
-5.60705e-07
3.26522e-07
-6.40311e-07
4.8976e-07
-6.61941e-07
6.51774e-07
-6.50382e-07
8.078e-07
-6.17712e-07
9.55343e-07
-5.79801e-07
1.0935e-06
-5.45297e-07
1.22147e-06
-5.13835e-07
1.3371e-06
-4.78125e-07
1.43558e-06
-4.28709e-07
1.51267e-06
-3.72487e-07
1.56769e-06
-3.30986e-07
1.60268e-06
-3.20913e-07
1.61798e-06
-3.3121e-07
1.6102e-06
-3.11983e-07
1.57357e-06
-1.45727e-07
1.47799e-06
4.42681e-07
1.20689e-06
1.65391e-06
8.66726e-07
2.43137e-06
5.27583e-07
2.56151e-06
1.34105e-07
1.94197e-06
-8.34065e-08
2.01462e-07
-1.74534e-06
1.6986e-07
-7.30564e-07
3.39582e-07
-8.10032e-07
5.06429e-07
-8.28786e-07
6.70249e-07
-8.142e-07
8.27357e-07
-7.74815e-07
9.75371e-07
-7.27812e-07
1.11295e-06
-6.82875e-07
1.23891e-06
-6.39789e-07
1.35071e-06
-5.89918e-07
1.44231e-06
-5.203e-07
1.50771e-06
-4.3788e-07
1.54443e-06
-3.67701e-07
1.55309e-06
-3.29573e-07
1.5332e-06
-3.1132e-07
1.48361e-06
-2.62389e-07
1.41027e-06
-7.23849e-08
1.33655e-06
5.10989e-07
1.15866e-06
1.79476e-06
9.4065e-07
2.61605e-06
7.0171e-07
2.80047e-06
4.08089e-07
2.19696e-06
1.92528e-07
4.17874e-07
-1.55281e-06
1.75476e-07
-9.06039e-07
3.51664e-07
-9.86217e-07
5.23232e-07
-1.00035e-06
6.89698e-07
-9.80664e-07
8.48144e-07
-9.33258e-07
9.96383e-07
-8.76048e-07
1.13279e-06
-8.19279e-07
1.25598e-06
-7.62974e-07
1.36334e-06
-6.97274e-07
1.44771e-06
-6.04665e-07
1.50151e-06
-4.91674e-07
1.52096e-06
-3.8715e-07
1.50597e-06
-3.14579e-07
1.45533e-06
-2.60676e-07
1.36801e-06
-1.75077e-07
1.25429e-06
4.13344e-08
1.15901e-06
5.9654e-07
1.09458e-06
1.85291e-06
9.89446e-07
2.7143e-06
8.48987e-07
2.89938e-06
7.21479e-07
2.32137e-06
5.01781e-07
6.43628e-07
-1.05102e-06
1.81265e-07
-1.0873e-06
3.63516e-07
-1.16847e-06
5.39634e-07
-1.17647e-06
7.08734e-07
-1.14976e-06
8.68352e-07
-1.09288e-06
1.01638e-06
-1.02408e-06
1.15088e-06
-9.5378e-07
1.27038e-06
-8.82468e-07
1.37251e-06
-7.9941e-07
1.44931e-06
-6.8147e-07
1.492e-06
-5.34358e-07
1.49601e-06
-3.9116e-07
1.46114e-06
-2.79716e-07
1.38575e-06
-1.85288e-07
1.26846e-06
-5.77837e-08
1.12137e-06
1.88424e-07
9.95581e-07
7.22327e-07
1.02232e-06
1.83036e-06
1.0207e-06
2.71409e-06
1.00599e-06
2.91237e-06
1.04461e-06
2.31942e-06
7.91989e-07
9.05709e-07
-2.59026e-07
1.88048e-07
-1.27535e-06
3.74793e-07
-1.35521e-06
5.54475e-07
-1.35615e-06
7.25515e-07
-1.3208e-06
8.85769e-07
-1.25313e-06
1.03303e-06
-1.17135e-06
1.16478e-06
-1.08554e-06
1.27943e-06
-9.97113e-07
1.37528e-06
-8.95264e-07
1.44409e-06
-7.50285e-07
1.47645e-06
-5.66715e-07
1.46754e-06
-3.82258e-07
1.41767e-06
-2.29849e-07
1.32525e-06
-9.28618e-08
1.18963e-06
7.78295e-08
1.02497e-06
3.53083e-07
8.86234e-07
8.61067e-07
9.26487e-07
1.78834e-06
1.03127e-06
2.62897e-06
1.14408e-06
2.7978e-06
1.25361e-06
2.2504e-06
9.77854e-07
1.18167e-06
7.1883e-07
-1.22068e-06
1.21912e-06
-7.1519e-07
-5.11009e-07
-1.67447e-07
-5.49832e-07
1.77199e-07
-3.45595e-07
4.07803e-07
-2.32235e-07
5.28885e-07
-1.22553e-07
7.06148e-07
-1.78802e-07
1.03628e-06
-3.3167e-07
1.46041e-06
-4.26929e-07
1.53394e-06
-7.4315e-08
8.66749e-07
6.66637e-07
-5.94884e-08
9.31666e-07
-1.40947e-06
1.35541e-06
-2.50208e-06
1.08497e-06
-1.98864e-06
-5.13558e-07
-9.19e-07
-1.06977e-06
-2.5776e-07
-6.61361e-07
3.50489e-07
-6.08075e-07
3.49866e-07
-5.98382e-07
1.81595e-06
-3.3485e-07
-7.74823e-07
-1.38703e-07
-7.45978e-07
-7.66159e-09
-4.76636e-07
8.15692e-08
-3.21464e-07
1.81262e-07
-2.22245e-07
3.27981e-07
-3.25622e-07
5.74904e-07
-5.79539e-07
8.36821e-07
-6.88828e-07
8.34825e-07
-7.23017e-08
3.74507e-07
1.13126e-06
-3.56365e-07
1.66633e-06
-1.26468e-06
2.26938e-06
-1.9448e-06
1.76191e-06
-1.70608e-06
-7.52399e-07
-1.0859e-06
-1.69007e-06
-6.57296e-07
-1.09009e-06
-2.41739e-08
-1.24132e-06
3.25304e-07
-4.81448e-08
1.86254e-06
-1.01973e-07
-7.21905e-07
-1.38126e-07
-7.09886e-07
-1.39292e-07
-4.75483e-07
-1.31464e-07
-3.29297e-07
-8.98987e-08
-2.63826e-07
-2.65775e-10
-4.1527e-07
1.62666e-07
-7.42492e-07
3.36238e-07
-8.62252e-07
2.90978e-07
-2.70828e-08
-7.55689e-08
1.49776e-06
-5.93499e-07
2.1842e-06
-1.1274e-06
2.80494e-06
-1.56862e-06
2.20349e-06
-1.44626e-06
-8.76007e-07
-1.07415e-06
-2.0623e-06
-8.98141e-07
-1.26621e-06
-4.28342e-07
-1.71123e-06
-1.02619e-07
2.65622e-07
1.60986e-06
-3.1819e-09
-4.52558e-07
-1.83253e-07
-5.29821e-07
-2.75905e-07
-3.82846e-07
-3.28902e-07
-2.76322e-07
-3.45356e-07
-2.47318e-07
-3.21022e-07
-4.39364e-07
-2.34815e-07
-8.28546e-07
-1.16304e-07
-9.80342e-07
-1.55364e-07
1.16858e-08
-4.52298e-07
1.79464e-06
-7.92074e-07
2.52393e-06
-1.07392e-06
3.08673e-06
-1.34363e-06
2.47314e-06
-1.18382e-06
-1.03665e-06
-9.66477e-07
-2.27976e-06
-1.04835e-06
-1.18446e-06
-7.9291e-07
-1.95706e-06
-8.95533e-07
2.94976e-07
1.31533e-06
-3.03781e-08
-1.27213e-07
-2.77331e-07
-2.82878e-07
-4.28339e-07
-2.3186e-07
-5.29902e-07
-1.74763e-07
-6.01357e-07
-1.75498e-07
-6.42819e-07
-3.98133e-07
-6.35762e-07
-8.35836e-07
-5.68511e-07
-1.04611e-06
-5.59999e-07
1.43081e-09
-7.82167e-07
2.01675e-06
-9.72767e-07
2.71448e-06
-1.06541e-06
3.17749e-06
-1.12434e-06
2.42117e-06
-8.85732e-07
-1.2744e-06
-7.89172e-07
-2.37626e-06
-1.05722e-06
-9.13357e-07
-9.64767e-07
-2.04952e-06
-1.8603e-06
1.78828e-07
1.1365e-06
-1.38659e-07
1.90255e-07
-4.09405e-07
-1.21344e-08
-5.95647e-07
-4.56277e-08
-7.3435e-07
-3.60616e-08
-8.54658e-07
-5.50663e-08
-9.59904e-07
-2.92961e-07
-1.03427e-06
-7.61947e-07
-1.03961e-06
-1.04054e-06
-9.58445e-07
-6.26842e-08
-1.04591e-06
2.01225e-06
-1.13245e-06
2.73516e-06
-1.07626e-06
3.06237e-06
-7.96659e-07
2.14108e-06
-5.78855e-07
-1.51282e-06
-5.7234e-07
-2.37697e-06
-8.64587e-07
-6.17213e-07
-9.0564e-07
-2.01615e-06
-2.77557e-06
3.15522e-08
1.10495e-06
-2.88268e-07
5.10057e-07
-5.64316e-07
2.63915e-07
-7.71096e-07
1.6118e-07
-9.37125e-07
1.29954e-07
-1.09601e-06
1.03802e-07
-1.25804e-06
-1.30933e-07
-1.41272e-06
-6.07269e-07
-1.50976e-06
-9.43275e-07
-1.38708e-06
-1.40914e-07
-1.24437e-06
1.86928e-06
-1.18963e-06
2.64788e-06
-9.63811e-07
2.83634e-06
-4.4745e-07
1.63103e-06
-3.0953e-07
-1.65062e-06
-3.77844e-07
-2.30647e-06
-5.28908e-07
-4.71505e-07
-6.58995e-07
-1.886e-06
-3.4345e-06
-1.55343e-07
1.26029e-06
-4.55651e-07
8.10357e-07
-7.2607e-07
5.34332e-07
-9.47219e-07
3.82329e-07
-1.13189e-06
3.1463e-07
-1.31731e-06
2.89213e-07
-1.5198e-06
7.1679e-08
-1.73654e-06
-3.90908e-07
-1.91882e-06
-7.61297e-07
-1.78936e-06
-1.97145e-07
-1.46149e-06
1.54115e-06
-1.21287e-06
2.399e-06
-8.14563e-07
2.4377e-06
-1.66529e-07
9.87506e-07
-1.01855e-07
-1.71517e-06
-2.09076e-07
-2.20068e-06
-1.89994e-07
-4.95941e-07
-2.84202e-07
-1.79693e-06
-3.71864e-06
4.15298e-07
-1.69065e-06
8.24271e-07
-1.76419e-06
1.21617e-06
-1.74805e-06
1.58351e-06
-1.68814e-06
1.92436e-06
-1.59398e-06
2.23374e-06
-1.48072e-06
2.50243e-06
-1.35422e-06
2.72432e-06
-1.219e-06
2.9035e-06
-1.07443e-06
3.02161e-06
-8.6838e-07
3.05959e-06
-6.04688e-07
3.00701e-06
-3.29663e-07
2.86918e-06
-9.20157e-08
2.64479e-06
1.31525e-07
2.3373e-06
3.85324e-07
1.98542e-06
7.04962e-07
1.72222e-06
1.12427e-06
1.80625e-06
1.70431e-06
2.20897e-06
2.24266e-06
2.64331e-06
2.41103e-06
2.79188e-06
2.10618e-06
2.34852e-06
1.62502e-06
1.46311e-06
1.60424e-06
3.76877e-07
-1.45575e-06
7.66951e-07
-1.52536e-06
1.1497e-06
-1.51676e-06
1.50634e-06
-1.46187e-06
1.83789e-06
-1.38399e-06
2.14052e-06
-1.29107e-06
2.39778e-06
-1.17567e-06
2.59051e-06
-1.03708e-06
2.71146e-06
-8.8499e-07
2.7667e-06
-6.95043e-07
2.77325e-06
-4.68033e-07
2.72988e-06
-2.21304e-07
2.62379e-06
1.77969e-08
2.43413e-06
2.49871e-07
2.17959e-06
4.92952e-07
1.91354e-06
7.52902e-07
1.71788e-06
1.03581e-06
1.76906e-06
1.65312e-06
2.07134e-06
1.94036e-06
2.36391e-06
2.11846e-06
2.32148e-06
2.14859e-06
1.80508e-06
2.14142e-06
2.16013e-06
1.10805e-06
1.24213e-07
-9.8774e-09
1.79318e-07
-7.84152e-09
2.38192e-07
-5.15901e-09
3.2707e-07
-8.89803e-09
4.33862e-07
-1.32665e-08
5.38418e-07
-1.38787e-08
6.28804e-07
-1.30228e-08
6.9798e-07
-1.31441e-08
7.32683e-07
-1.14558e-08
7.52832e-07
-9.23844e-09
7.78268e-07
-7.73233e-09
8.06707e-07
-5.87275e-09
8.08371e-07
0
7.7515e-07
0
7.22698e-07
0
6.67044e-07
0
6.23425e-07
0
6.65563e-07
0
7.85688e-07
7.65907e-09
8.80489e-07
1.54752e-08
8.35955e-07
2.03211e-08
6.0983e-07
2.4034e-08
3.04473e-08
3.47419e-07
7.401e-10
-7.19726e-09
7.63023e-10
-4.49604e-09
-2.54839e-11
-1.0561e-09
4.79215e-11
-5.60304e-09
3.92897e-10
-1.01895e-08
6.65173e-10
-1.06386e-08
8.02366e-10
-9.54598e-09
9.70079e-10
-9.60361e-09
1.0734e-09
-7.76044e-09
1.09784e-09
-5.38338e-09
1.12624e-09
-3.81687e-09
1.14546e-09
-1.89524e-09
1.30685e-09
0
1.56755e-09
0
2.32396e-09
0
2.80116e-09
0
3.48158e-09
0
4.2338e-09
0
2.4272e-09
0
2.75533e-09
0
2.88238e-09
0
2.74204e-09
0
0
2.12725e-09
-2.62135e-09
-2.90763e-09
-2.15798e-09
-3.28937e-09
0
6.27191e-11
-8.75233e-10
-3.42594e-09
-1.5363e-09
-9.58536e-10
-2.29038e-09
-8.72423e-12
-2.74056e-09
-1.00312e-13
-3.11649e-09
-1.76203e-13
-3.58857e-09
-1.50079e-11
-3.4613e-09
-2.65582e-09
-2.40208e-09
-2.64929e-09
2.98076e-10
-1.98899e-09
3.07143e-09
-1.58439e-10
5.82251e-09
-1.43814e-10
3.30623e-09
-3.35993e-10
2.9528e-09
1.59201e-09
2.60194e-09
1.46955e-09
1.86616e-09
6.70075e-10
7.72736e-10
3.73847e-10
-7.41313e-11
4.348e-10
-5.10493e-10
2.21475e-10
-2.13844e-10
1.40091e-10
2.84802e-10
-3.03195e-10
-7.10634e-10
-7.62346e-14
-7.30322e-10
-1.13247e-10
7.01881e-10
-7.04615e-10
9.37765e-10
-8.4929e-10
1.99476e-13
-2.08485e-11
-2.99236e-14
-8.46834e-12
-4.15759e-14
-6.2897e-14
-8.29551e-14
-1.24066e-13
-1.5058e-11
-3.76877e-14
-6.63513e-11
-7.71741e-13
-3.08412e-10
-2.1063e-12
-3.77364e-10
-7.36529e-13
-3.20845e-10
-3.59626e-13
-3.48895e-10
-1.60366e-11
-4.74693e-10
-1.87097e-11
-3.70014e-10
0
-6.98128e-10
0
-1.46276e-09
0
-1.11359e-09
2.27473e-10
-1.60193e-09
0
-2.62935e-09
5.43808e-11
-3.59119e-09
3.10191e-10
0
-2.68685e-09
-7.61929e-14
-4.1475e-17
-1.13319e-10
-4.39101e-15
-1.18752e-11
-2.8427e-14
-2.71048e-11
-2.71664e-14
-2.23683e-11
-3.50406e-12
-3.28868e-12
-1.93925e-12
-1.83003e-13
-3.1249e-12
-5.26224e-14
-8.76511e-13
-6.21288e-14
-3.30638e-14
-7.01927e-14
-7.68559e-13
-7.39619e-14
-2.10463e-12
-8.58084e-14
-7.15339e-13
-4.11398e-13
-1.60354e-14
-1.64301e-11
0
-2.29451e-10
-9.82081e-12
-3.76215e-10
0
-2.17646e-10
0
-2.87968e-10
7.04546e-11
-4.39293e-10
0
-5.28001e-10
0
-3.55849e-10
0
-6.0158e-10
0
1.20113e-10
-2.07542e-09
-1.72269e-16
1.30963e-16
-8.69226e-16
-3.69389e-15
-1.91001e-15
-2.73679e-14
-1.26415e-14
-1.62745e-14
-3.73495e-12
-2.5915e-15
-6.55171e-12
-1.06783e-12
-3.76858e-12
-2.07914e-12
-1.12678e-12
-1.72879e-12
-1.13894e-12
-2.57889e-14
-5.14889e-12
-9.84265e-13
-6.62762e-12
-2.40816e-12
0
-3.7215e-13
-8.99155e-15
1.06827e-14
-1.43246e-10
2.35797e-12
-5.46095e-10
-1.38583e-11
-4.69216e-10
-6.77243e-12
-2.62534e-10
1.64847e-11
-2.52229e-10
4.70137e-12
-3.10807e-10
0
-7.76639e-11
7.29793e-13
-3.34233e-12
6.2694e-12
-1.93738e-11
0
0
-3.67804e-10
3.918e-16
-7.95473e-17
-6.26393e-15
-1.52388e-15
-1.66865e-14
-3.52645e-14
0
-6.17722e-15
-3.06563e-15
-2.39243e-16
-7.41267e-12
-1.21316e-13
-5.40405e-12
-2.57377e-13
-2.19676e-12
-5.2599e-13
-2.2036e-12
-2.08889e-14
-1.32747e-11
-7.75635e-13
-1.37403e-11
-1.13284e-12
-3.53427e-12
1.76741e-13
-4.21346e-12
4.51954e-14
-8.60832e-11
1.9773e-12
-2.03854e-10
0
-1.84868e-10
6.41066e-14
-1.73609e-10
0
-2.45866e-10
2.09138e-11
-1.30057e-10
1.57696e-11
-6.32004e-12
0
-1.81513e-13
9.38336e-14
-1.89787e-13
4.21099e-15
0
-3.68776e-13
-8.21239e-16
2.07278e-16
-4.48888e-14
-1.60242e-14
-7.92625e-14
-2.55289e-14
0
-6.91365e-15
-3.31475e-16
6.83182e-17
-1.56075e-12
2.02716e-16
-9.57762e-13
4.938e-15
0
-3.97465e-15
-6.45635e-13
-2.71065e-15
-1.38488e-11
-2.30328e-13
-1.43232e-11
1.51227e-13
-9.18694e-12
7.0455e-13
-2.38488e-12
1.79506e-13
-3.91004e-12
0
-1.6296e-13
0
-5.87774e-13
0
-1.71323e-11
0
-3.08096e-11
0
-7.87258e-12
0
-1.49638e-13
5.89761e-13
-1.34859e-13
4.59812e-14
-1.49945e-13
7.53091e-14
7.994e-14
-2.21601e-13
-1.43202e-14
8.22655e-16
-5.41932e-14
2.99867e-14
-9.93072e-14
2.57368e-14
-1.21013e-15
1.21235e-14
-1.43054e-15
2.68153e-16
-1.4003e-15
1.48941e-16
-1.66611e-15
1.12663e-16
-5.28629e-14
3.73492e-14
-1.00557e-12
1.78869e-13
-8.04962e-12
3.66146e-13
-7.79983e-12
7.11129e-13
-8.9617e-13
1.93284e-13
-4.02461e-14
0
-5.35669e-14
0
-6.11633e-14
0
-5.64579e-13
1.46442e-14
-1.48626e-12
8.86188e-13
-4.93964e-13
1.35927e-12
-1.04572e-13
3.5751e-12
-7.4552e-14
5.26704e-13
-1.08415e-13
4.62043e-14
-2.46635e-13
9.15279e-14
6.48462e-14
-1.11066e-13
-5.00125e-15
9.58381e-16
-5.75125e-14
1.53141e-14
-7.88536e-14
5.2507e-14
-1.04354e-15
1.25333e-14
-1.27913e-15
4.79811e-16
-1.63007e-15
4.79469e-16
-5.55316e-14
5.2968e-14
-2.91816e-12
5.59555e-13
-5.70359e-12
1.1759e-12
-6.10833e-12
4.52522e-13
-2.01934e-13
3.45713e-13
-8.08426e-15
7.0647e-16
-7.29913e-15
7.07653e-16
-2.32933e-15
9.29753e-16
0
1.34129e-16
0
5.72222e-15
-2.57409e-11
3.46355e-12
-3.037e-11
6.16747e-12
-2.18456e-11
7.67663e-12
-1.09541e-13
6.90323e-12
-1.20037e-13
3.21879e-14
-8.36817e-14
3.0622e-14
9.82032e-15
-4.28744e-14
-1.4076e-15
7.52257e-16
-2.00391e-14
4.64278e-15
-1.49598e-14
0
-1.30534e-15
4.78684e-16
-1.5137e-15
6.67771e-16
-2.13956e-15
1.08723e-15
-3.47982e-12
4.80573e-13
-4.21707e-12
1.67779e-12
-4.19919e-12
1.54359e-12
-3.48297e-13
4.87845e-13
-4.63533e-15
1.20947e-15
-3.70296e-15
1.03693e-15
-3.64192e-15
1.11119e-15
0
5.47483e-16
-2.76628e-16
1.78246e-16
-3.01292e-12
6.40106e-14
-2.6516e-11
2.7517e-12
-2.61325e-11
5.96849e-12
-2.51468e-11
6.86947e-12
-1.3944e-11
6.2683e-12
-1.16263e-13
4.5156e-13
-6.26951e-14
1.83091e-14
2.10372e-14
-3.29008e-14
-2.43709e-17
1.52626e-14
-5.91462e-17
4.68273e-15
-9.72165e-17
1.48018e-16
-5.33798e-16
2.13415e-16
-3.96919e-17
9.57166e-16
0
1.77728e-15
-3.4528e-12
3.1722e-13
-3.61386e-12
2.21984e-12
-2.24502e-12
8.49041e-13
-4.84236e-15
3.89375e-14
-5.49928e-15
1.02585e-15
-3.56323e-15
1.36778e-15
-1.49093e-15
1.36862e-15
-2.24963e-16
3.44955e-16
-1.577e-16
7.38299e-17
0
3.64151e-18
-3.58791e-12
0
-1.90159e-11
6.96336e-13
-1.62866e-11
4.3378e-12
-4.69978e-13
0
-7.58262e-14
1.25357e-14
-5.63251e-14
2.0003e-14
3.0764e-14
-4.95022e-14
-1.94928e-14
1.40606e-13
-2.46429e-16
3.09931e-13
-1.36197e-16
4.51841e-17
-5.32369e-17
2.96065e-16
0
2.31701e-15
-5.79439e-14
2.56173e-14
-3.86467e-13
0
-4.97418e-13
2.28468e-16
-4.05378e-14
1.54043e-16
-2.36307e-15
4.07758e-17
-3.32969e-15
1.15337e-15
-2.54923e-15
1.76008e-15
-7.43336e-16
1.01857e-15
-2.01621e-16
1.08864e-16
-1.95666e-16
7.7766e-17
-1.3071e-16
7.03895e-17
-3.04747e-14
4.18698e-17
-6.74098e-13
0
-3.70041e-14
0
-2.87069e-14
0
-7.12752e-14
1.01571e-14
-5.95655e-14
2.95505e-14
1.84621e-14
-7.53425e-15
-4.77727e-14
4.19681e-13
-1.80486e-16
3.21424e-13
-1.8e-16
5.14085e-17
-5.44954e-16
5.66533e-16
-1.11498e-14
6.09533e-15
-1.29778e-14
1.13305e-14
-5.5946e-16
3.18652e-16
-2.87904e-16
2.31405e-18
-1.3772e-16
1.58427e-18
-9.62263e-16
1.40918e-16
-1.75367e-15
6.61267e-16
-1.19202e-15
7.13561e-16
-1.82562e-16
1.76704e-16
-1.629e-16
5.049e-17
-1.72031e-16
7.74056e-17
-1.76022e-16
7.60721e-17
-2.11887e-16
7.08642e-17
-4.23064e-16
2.7448e-17
-4.15998e-16
4.73034e-18
-3.78852e-15
5.02207e-17
-3.5922e-14
4.0027e-15
-4.32483e-14
8.15362e-15
3.12588e-15
-3.07682e-15
-8.19165e-14
5.01303e-13
-2.8193e-16
2.69924e-13
-2.81799e-16
5.71849e-17
-1.29789e-15
8.59149e-16
-4.34823e-15
4.07118e-15
-3.30757e-16
2.10887e-15
-3.95575e-17
3.37959e-17
-1.97455e-17
4.00612e-17
-3.40717e-17
1.65982e-17
-2.76722e-16
3.24695e-17
-2.91646e-16
6.65709e-17
-1.03818e-16
3.86555e-17
-5.13236e-17
7.18406e-18
-9.0755e-17
1.47411e-17
-1.33923e-16
5.44385e-17
-1.6885e-16
7.67273e-17
-1.67983e-16
8.18256e-17
-1.46177e-16
6.94662e-17
-1.43909e-16
5.52627e-17
-4.9411e-16
3.96912e-17
-1.00629e-15
4.88395e-18
-1.17653e-15
0
0
-3.12273e-15
-4.01329e-14
5.41403e-13
-2.39621e-16
2.1122e-13
-2.3929e-16
6.22264e-17
-9.44501e-16
7.50019e-16
-6.46492e-16
1.24086e-15
-3.147e-17
7.78184e-17
-2.88985e-17
3.8369e-17
-8.9362e-18
4.51059e-17
-5.93703e-18
6.5974e-18
-1.25508e-17
6.54545e-19
-8.5681e-18
6.72392e-19
-1.36684e-18
5.63259e-18
-2.56999e-18
1.21064e-18
-2.44097e-17
1.32045e-18
-6.96937e-17
1.47181e-17
-1.1063e-16
3.8401e-17
-1.16919e-16
5.14974e-17
-1.10791e-16
5.00445e-17
-8.60348e-17
3.93217e-17
-4.63632e-17
1.8715e-17
-1.77049e-17
5.86505e-18
-2.9362e-17
2.44008e-18
2.90862e-18
-3.77565e-16
-6.46685e-14
6.06207e-13
-1.24123e-16
2.03217e-13
-1.23507e-16
6.67684e-17
-2.03373e-16
2.52109e-16
-3.59722e-17
1.88633e-16
-1.20088e-17
1.72179e-17
-1.34273e-17
1.48708e-17
-2.22867e-18
1.32296e-17
-5.28924e-20
1.86783e-18
-3.32188e-20
5.13918e-20
2.64896e-19
2.67851e-20
6.20492e-19
-2.96909e-19
-1.99929e-19
-6.26697e-19
-1.21356e-18
1.82149e-19
-1.2365e-17
3.66133e-18
-2.75845e-17
3.55184e-18
-2.94166e-17
5.96451e-18
-2.79046e-17
5.59228e-18
-2.23953e-17
4.50732e-18
-1.45109e-17
3.25377e-18
-7.03106e-18
2.08558e-18
-3.7878e-18
8.73311e-19
1.65112e-19
-2.44252e-18
-6.41056e-14
6.70526e-13
-4.46122e-17
3.76465e-13
-4.3816e-17
7.10619e-17
-3.46346e-17
7.80517e-17
-9.27269e-18
6.83679e-17
-2.70008e-18
1.22657e-17
-1.87786e-18
9.11755e-19
3.32746e-19
2.7203e-18
1.14984e-18
-6.09168e-19
1.46599e-18
-1.86656e-18
1.62455e-18
-2.12771e-18
1.48578e-18
-2.12022e-18
9.39566e-19
-1.74899e-18
4.87544e-20
-9.98135e-19
-5.41583e-19
-4.66812e-20
-1.10969e-18
4.66328e-19
-1.14452e-18
8.7913e-19
-1.05242e-18
7.975e-19
-9.09097e-19
6.15898e-19
-7.66045e-19
4.70234e-19
-5.6903e-19
3.36656e-19
-3.99053e-19
2.2829e-20
1.75581e-20
-3.44277e-19
-6.27061e-14
7.33327e-13
-2.84969e-17
7.78345e-13
-2.76139e-17
7.51114e-17
-1.84236e-17
7.34744e-17
-7.00847e-18
6.98827e-17
-1.37325e-19
1.23207e-17
1.16376e-19
4.8323e-20
9.01276e-19
-2.76503e-19
1.44443e-18
-1.88967e-18
1.68414e-18
-2.69871e-18
1.69764e-18
-2.82393e-18
1.52602e-18
-2.5666e-18
1.20746e-18
-2.08493e-18
8.24277e-19
-1.49091e-18
4.77402e-19
-9.18175e-19
2.60833e-19
-4.78274e-19
1.66194e-19
-2.34101e-19
1.14721e-19
-1.33e-19
6.64127e-20
-8.13074e-20
2.47155e-20
-4.11605e-20
-5.35486e-22
-1.30414e-20
-7.10588e-22
2.27283e-22
3.78591e-22
-1.53476e-21
-5.9819e-14
7.93242e-13
-2.82006e-17
7.18596e-13
-2.67935e-17
7.87945e-17
-1.91958e-17
8.29131e-17
-6.6775e-18
9.17098e-17
3.4732e-20
1.32801e-17
3.41898e-19
-1.07284e-19
8.12777e-19
-9.24819e-19
1.13846e-18
-1.95045e-18
1.27039e-18
-2.44589e-18
1.24685e-18
-2.45897e-18
1.11691e-18
-2.18283e-18
9.23642e-19
-1.77155e-18
7.11928e-19
-1.32679e-18
5.16908e-19
-9.24139e-19
3.69712e-19
-6.04017e-19
2.658e-19
-3.8681e-19
1.88977e-19
-2.47161e-19
1.29529e-19
-1.54462e-19
8.38507e-20
-9.13263e-20
5.03533e-20
-4.92308e-20
2.8199e-20
-2.29408e-20
-8.50662e-21
1.46875e-20
-5.38083e-14
8.47145e-13
-3.3974e-17
4.42488e-13
-3.20386e-17
8.20304e-17
-2.86045e-17
1.54772e-16
-7.49572e-18
1.74415e-16
-4.83773e-19
1.90053e-17
8.05658e-20
1.48283e-18
3.58952e-19
-2.49402e-19
5.79572e-19
-9.90633e-19
6.85902e-19
-1.43825e-18
6.93099e-19
-1.53936e-18
6.3256e-19
-1.41161e-18
5.34145e-19
-1.17068e-18
4.23358e-19
-8.97697e-19
3.18662e-19
-6.44482e-19
2.31228e-19
-4.3747e-19
1.62931e-19
-2.84405e-19
1.11682e-19
-1.77852e-19
7.4692e-20
-1.0663e-19
4.85774e-20
-6.08791e-20
3.0387e-20
-3.23422e-20
1.79062e-20
-1.51302e-20
-5.38941e-21
9.82682e-21
-4.3292e-14
3.4752e-13
-6.35219e-17
6.44122e-16
-6.10391e-17
8.48661e-17
-5.03193e-17
4.12095e-16
-1.0528e-17
3.04124e-16
-2.08725e-18
3.66329e-17
-1.30417e-18
1.03034e-17
-6.87808e-19
6.5413e-18
4.92866e-21
3.27794e-18
1.67104e-19
-1.42759e-20
2.51547e-19
-4.39336e-19
2.68728e-19
-6.02217e-19
2.43248e-19
-5.86533e-19
1.99402e-19
-4.83692e-19
1.52486e-19
-3.60292e-19
1.10506e-19
-2.49189e-19
7.60802e-20
-1.62149e-19
5.01806e-20
-9.9144e-20
3.21012e-20
-5.7081e-20
2.01322e-20
-3.09581e-20
1.23285e-20
-1.56009e-20
7.22564e-21
-6.86409e-21
-2.12384e-21
3.90554e-21
-4.97881e-16
2.61762e-16
-3.74226e-17
2.86452e-16
-8.12869e-17
3.99249e-16
-7.9448e-17
7.22099e-16
-1.53783e-17
4.11545e-16
-5.48848e-18
6.92018e-17
-4.52147e-18
3.25135e-17
-3.42397e-18
2.53874e-17
-2.02553e-18
1.65563e-17
-8.22812e-19
8.54338e-18
-1.62138e-19
3.11211e-18
5.73072e-20
7.50784e-19
8.29778e-20
-1.50155e-19
7.64786e-20
-1.98847e-19
6.04823e-20
-1.67237e-19
4.4248e-20
-1.20151e-19
2.98783e-20
-7.92775e-20
1.89009e-20
-4.77255e-20
1.13817e-20
-2.64113e-20
6.66617e-21
-1.34601e-20
3.81764e-21
-6.26043e-21
2.12844e-21
-2.4639e-21
-5.70365e-22
1.10338e-21
-1.26544e-17
2.71352e-16
-4.39252e-17
2.92909e-16
-7.94652e-17
7.12514e-16
-7.68477e-17
7.53849e-16
-1.90924e-17
4.35302e-16
-1.00247e-17
1.09154e-16
-8.98655e-18
6.864e-17
-7.4752e-18
5.66112e-17
-5.05889e-18
4.00956e-17
-2.63167e-18
2.3373e-17
-9.76742e-19
1.05035e-17
-1.82537e-19
3.3515e-18
1.41225e-20
5.74667e-19
2.39541e-20
-4.19627e-20
2.03118e-20
-6.53272e-20
1.52626e-20
-5.06754e-20
1.01265e-20
-3.46238e-20
6.1011e-21
-2.06703e-20
3.40463e-21
-1.10015e-20
1.80202e-21
-5.2401e-21
9.09458e-22
-2.20296e-21
4.41468e-22
-7.31143e-22
-7.92783e-23
2.00409e-22
-1.0025e-17
2.80059e-16
-4.20672e-17
2.99784e-16
-6.44636e-17
7.35002e-16
-4.33999e-17
7.64037e-16
-1.89492e-17
4.03867e-16
-1.35456e-17
1.41316e-16
-1.2612e-17
1.10277e-16
-1.07994e-17
9.35508e-17
-7.9036e-18
6.8205e-17
-4.49436e-18
4.31342e-17
-1.78163e-18
2.06412e-17
-4.14957e-19
6.74282e-18
-2.84372e-20
1.22595e-18
6.09763e-21
6.55445e-20
5.84224e-21
-2.1739e-20
4.55458e-21
-1.92754e-20
2.95147e-21
-1.38736e-20
1.66969e-21
-8.25348e-21
8.40308e-22
-4.23537e-21
3.8037e-22
-1.8837e-21
1.50122e-22
-7.06141e-22
4.66808e-23
-1.84172e-22
4.61213e-24
4.18653e-24
-7.7118e-18
2.86453e-16
-2.84527e-17
2.65194e-16
-3.9702e-17
5.43556e-16
-3.25762e-17
5.22856e-16
-1.43398e-17
2.64481e-16
-1.33111e-17
1.51811e-16
-1.31259e-17
1.38511e-16
-1.15689e-17
1.25069e-16
-8.87249e-18
9.42387e-17
-5.31974e-18
6.20483e-17
-2.1072e-18
3.06467e-17
-4.17951e-19
9.51833e-18
-2.68114e-20
1.36347e-18
1.20158e-21
7.0984e-20
1.44054e-21
-6.05926e-21
1.15135e-21
-6.8679e-21
7.08218e-22
-5.23003e-21
3.56706e-22
-3.09696e-21
1.45824e-22
-1.52578e-21
4.33162e-23
-6.29586e-22
2.09627e-24
-2.07421e-22
-1.98101e-23
-3.81843e-23
5.13116e-24
-2.25662e-23
-4.261e-18
3.39804e-16
-9.56855e-18
2.0825e-16
-1.11455e-17
2.47488e-16
-9.6925e-18
2.25301e-16
-8.39447e-18
1.78403e-16
-8.91831e-18
1.52537e-16
-9.43839e-18
1.43372e-16
-9.18659e-18
1.37621e-16
-7.32738e-18
1.12507e-16
-4.52539e-18
7.49682e-17
-1.6923e-18
3.70943e-17
-2.7224e-19
1.04095e-17
-1.28823e-20
1.35384e-18
1.35648e-22
4.64929e-20
2.85979e-22
-1.1285e-21
2.20296e-22
-2.36403e-21
1.14241e-22
-1.88802e-21
3.80188e-23
-1.10265e-21
7.58764e-25
-5.16949e-22
-2.15434e-23
-1.96641e-22
-2.39709e-23
-5.65409e-23
-1.91018e-23
-5.47372e-24
2.55808e-24
-1.32846e-23
-2.66737e-18
7.88189e-16
-3.56252e-18
2.09004e-16
-3.40218e-18
2.47187e-16
-3.08519e-18
2.24843e-16
-3.15841e-18
1.78337e-16
-3.4762e-18
1.48637e-16
-4.02825e-18
1.43722e-16
-4.28428e-18
1.38527e-16
-3.71241e-18
1.1753e-16
-2.34169e-18
7.92498e-17
-8.17278e-19
3.82583e-17
-1.07905e-19
1.0404e-17
-2.62524e-21
1.02313e-18
4.47355e-24
1.49423e-20
3.01826e-23
-9.57697e-23
1.25491e-23
-8.05452e-22
-8.47449e-24
-6.63253e-22
-2.35264e-23
-3.76091e-22
-2.58526e-23
-1.66308e-22
-2.07866e-23
-5.81796e-23
-1.43377e-23
-1.421e-23
-9.01508e-24
9.10609e-26
9.93075e-25
-5.38579e-24
-1.48179e-18
3.55664e-15
-1.05841e-18
2.0844e-16
3.85802e-19
2.45603e-16
1.61213e-18
2.23477e-16
1.97975e-18
1.77829e-16
1.87395e-18
1.48139e-16
1.51976e-18
1.38731e-16
1.1722e-18
1.39039e-16
6.74677e-19
1.1794e-16
2.83687e-19
7.95887e-17
9.25968e-20
3.82858e-17
1.70299e-20
9.01107e-18
6.82967e-22
5.30146e-19
1.39208e-22
3.10549e-21
-6.53922e-26
-1.96012e-24
-1.62864e-23
-2.79227e-22
-2.28931e-23
-2.29318e-22
-2.1308e-23
-1.24338e-22
-1.57317e-23
-5.13728e-23
-1.00505e-23
-1.63283e-23
-5.93278e-24
-3.22219e-24
-3.32756e-24
1.68767e-25
3.18568e-25
-1.81626e-24
2.18761e-16
3.90558e-15
1.20041e-14
4.36761e-13
5.69507e-14
2.86061e-12
4.97495e-14
2.56327e-12
1.80941e-17
6.84106e-13
2.32941e-18
1.61371e-16
6.36262e-18
1.32109e-16
6.48399e-18
1.36982e-16
5.01351e-18
1.15321e-16
2.84766e-18
7.66962e-17
9.58268e-19
3.34667e-17
9.72096e-20
5.94828e-18
1.17645e-21
2.0197e-19
6.98173e-25
5.66664e-22
2.97926e-26
2.6638e-25
-1.22831e-23
-9.95445e-23
-1.38634e-23
-7.86408e-23
-1.07261e-23
-4.00625e-23
-6.78107e-24
-1.52644e-23
-3.81234e-24
-4.3459e-24
-2.01653e-24
-6.39843e-25
-1.03699e-24
7.29861e-26
8.57335e-26
-5.16073e-25
6.49021e-16
3.82521e-15
8.43959e-14
7.76648e-13
1.74825e-13
2.77215e-12
1.50462e-13
2.58959e-12
1.24108e-15
1.32961e-12
0
1.07874e-15
1.09099e-17
1.31729e-16
1.12045e-17
1.31214e-16
8.52357e-18
1.07155e-16
4.57553e-18
6.65615e-17
1.23423e-18
2.42438e-17
7.55578e-20
2.94768e-18
4.21464e-22
5.52931e-20
1.04205e-25
7.67945e-23
8.15935e-27
5.80277e-26
-6.54469e-24
-3.67103e-23
-6.42712e-24
-2.67708e-23
-4.37762e-24
-1.25752e-23
-2.44761e-24
-4.35011e-24
-1.22514e-24
-1.08526e-24
-5.81978e-25
-1.0464e-25
-2.73734e-25
2.18511e-26
1.93282e-26
-1.23656e-25
7.32253e-16
3.65851e-15
6.83242e-14
6.01018e-13
2.60778e-13
2.58166e-12
2.79443e-13
2.57289e-12
3.52183e-15
9.20229e-13
0
6.87802e-16
1.54369e-17
1.31747e-16
1.50264e-17
1.22947e-16
1.05322e-17
9.39182e-17
4.87845e-18
5.10879e-17
9.35828e-19
1.41516e-17
3.05756e-20
1.03354e-18
7.42729e-23
9.2187e-21
5.85763e-24
5.95279e-24
-8.2855e-25
-4.57806e-24
-3.08949e-24
-1.39236e-23
-2.60243e-24
-8.99132e-24
-1.56227e-24
-3.81774e-24
-7.70191e-25
-1.17757e-24
-3.39442e-25
-2.51557e-25
-1.44008e-25
-1.25324e-26
-6.11311e-26
5.06941e-27
3.60091e-27
-2.47798e-26
8.21943e-16
3.39745e-15
1.82274e-13
4.97059e-14
3.44356e-13
8.65006e-13
1.84489e-13
8.37945e-13
0
5.65622e-14
0
4.41343e-16
1.90055e-17
1.32497e-16
1.71393e-17
1.13355e-16
1.04112e-17
7.5266e-17
3.82179e-18
3.32753e-17
4.45439e-19
6.11575e-18
6.42151e-21
2.18358e-19
5.7679e-24
7.36361e-22
5.0658e-25
2.08103e-25
-8.25729e-25
-3.89782e-24
-1.33786e-24
-5.27511e-24
-9.54671e-25
-2.95324e-24
-4.98406e-25
-1.11102e-24
-2.13305e-25
-2.99677e-25
-8.10739e-26
-5.36527e-26
-3.02029e-26
-6.31626e-28
-1.13869e-26
9.30896e-28
5.42628e-28
-4.07747e-27
1.45866e-15
6.63864e-15
6.37664e-15
3.87162e-16
3.99398e-14
0
2.8576e-14
0
0
2.58145e-16
2.93493e-17
3.42245e-16
2.27568e-17
1.73111e-16
1.55909e-17
1.00783e-16
8.04609e-18
5.21421e-17
2.07584e-18
1.65101e-17
1.1793e-19
1.62896e-18
5.91317e-22
2.18361e-20
1.67946e-25
2.31507e-23
2.07254e-26
9.94002e-26
-4.90266e-25
-2.10171e-24
-5.38853e-25
-1.96987e-24
-3.22691e-25
-9.45096e-25
-1.43592e-25
-3.08557e-25
-5.20526e-26
-7.11507e-26
-1.65817e-26
-1.0457e-26
-5.28356e-27
2.16968e-29
-1.73255e-27
1.34671e-28
6.43062e-29
-5.36796e-28
1.5045e-15
7.09407e-15
7.66918e-16
4.48176e-15
3.01299e-16
5.00165e-16
1.62487e-16
2.46315e-16
7.94611e-17
3.30847e-16
7.15052e-17
3.40052e-16
2.64901e-17
1.79662e-16
1.23277e-17
7.77991e-17
4.51478e-18
2.81166e-17
6.52808e-19
5.1068e-18
1.37549e-20
2.01363e-19
1.93939e-23
7.95946e-22
1.77645e-24
2.79583e-25
-5.64773e-27
-2.52511e-26
-2.47805e-25
-1.00771e-24
-2.05722e-25
-7.28069e-25
-1.02082e-25
-2.95864e-25
-3.77982e-26
-8.20782e-26
-1.12471e-26
-1.57742e-26
-2.89137e-27
-1.86062e-27
-7.59906e-28
5.8247e-30
-2.09944e-28
1.50996e-29
5.77551e-30
-5.46643e-29
1.79662e-15
4.04527e-15
1.40307e-15
5.26765e-15
5.29558e-16
3.2124e-15
2.5352e-16
1.66254e-15
1.36857e-16
9.51773e-16
6.30255e-17
4.14907e-16
2.23839e-17
1.53054e-16
7.13782e-18
4.5539e-17
1.51061e-18
9.48017e-18
8.89692e-20
7.12625e-19
5.30807e-22
8.22026e-21
2.03084e-25
9.00506e-24
2.97924e-26
1.86916e-27
-6.07269e-26
-2.61547e-25
-1.1711e-25
-4.66634e-25
-7.55922e-26
-2.67741e-25
-3.07478e-26
-9.14215e-26
-9.24723e-27
-2.11537e-26
-2.17959e-27
-3.30154e-27
-4.31098e-28
-3.04483e-28
-8.84942e-29
7.39491e-31
-1.96478e-29
1.28754e-30
3.73616e-31
-4.1149e-30
9.03474e-16
2.42443e-16
1.64881e-15
2.49113e-15
9.73669e-16
3.35372e-15
4.90839e-16
2.23973e-15
1.97916e-16
1.15245e-15
5.88473e-17
4.391e-16
1.41105e-17
1.10651e-16
2.44464e-18
1.78999e-17
2.12729e-19
1.4479e-18
3.62723e-21
3.00471e-20
5.37802e-24
8.49793e-23
8.69272e-28
3.60474e-26