/*--------------------------------*- C++ -*----------------------------------*\
  =========                 |
  \\      /  F ield         | OpenFOAM: The Open Source CFD Toolbox
   \\    /   O peration     | Website:  https://openfoam.org
    \\  /    A nd           | Version:  9
     \\/     M anipulation  |
\*---------------------------------------------------------------------------*/
FoamFile
{
    format      ascii;
    class       volScalarField;
    location    "285";
    object      k;
}
// * * * * * * * * * * * * * * * * * * * * * * * * * * * * * * * * * * * * * //

dimensions      [0 2 -2 0 0 0 0];

internalField   nonuniform List<scalar> 
12225
(
0.362828
0.34399
0.327753
0.309809
0.295411
0.283467
0.275529
0.270278
0.270336
0.271886
0.276041
0.280714
0.289803
0.295749
0.306749
0.312735
0.325188
0.327543
0.440271
0.468738
0.461616
0.44837
0.450343
0.458314
0.474575
0.498484
0.524413
0.55206
0.580732
0.606102
0.633778
0.653796
0.679642
0.692934
0.717951
0.724233
0.390407
0.41786
0.420244
0.41683
0.411634
0.407802
0.408019
0.410035
0.414564
0.42138
0.430717
0.439702
0.451148
0.461135
0.472781
0.483496
0.493436
0.505745
0.377043
0.387169
0.391466
0.391343
0.39026
0.387882
0.385662
0.384078
0.382883
0.382896
0.383354
0.384377
0.386268
0.388458
0.390893
0.394223
0.396511
0.40092
0.374434
0.376094
0.378427
0.378665
0.378275
0.3772
0.375489
0.373737
0.37201
0.370455
0.369255
0.368109
0.367379
0.366801
0.36644
0.366327
0.366343
0.366686
0.373779
0.372704
0.372659
0.372365
0.371773
0.370818
0.369554
0.368083
0.366572
0.364977
0.363528
0.362063
0.360756
0.359528
0.358397
0.357425
0.356436
0.355779
0.373775
0.37174
0.370388
0.369284
0.368235
0.367114
0.365915
0.364587
0.363239
0.361808
0.360423
0.359024
0.357679
0.356384
0.355122
0.353968
0.352795
0.351803
0.373818
0.371559
0.369635
0.367976
0.366501
0.365108
0.363776
0.36243
0.361108
0.359767
0.358451
0.357145
0.355865
0.354624
0.353403
0.352252
0.351101
0.350054
0.373832
0.371553
0.369449
0.367525
0.365777
0.364154
0.362645
0.361199
0.359818
0.358474
0.357171
0.355904
0.354669
0.353477
0.352309
0.351198
0.350099
0.349075
0.373831
0.37156
0.369418
0.367405
0.365529
0.363773
0.362133
0.360585
0.359122
0.357728
0.356395
0.355119
0.353889
0.352712
0.351571
0.350483
0.349422
0.348422
0.373829
0.37156
0.369413
0.367378
0.365458
0.363645
0.361937
0.360324
0.358799
0.357353
0.35598
0.354673
0.353425
0.352237
0.351095
0.35001
0.348961
0.34797
0.373828
0.371558
0.369409
0.36737
0.365439
0.363609
0.361876
0.360234
0.358678
0.357202
0.3558
0.354469
0.353201
0.351995
0.350843
0.349748
0.348696
0.347702
0.373827
0.371556
0.369405
0.367365
0.36543
0.363593
0.361851
0.360197
0.358626
0.357134
0.355716
0.354368
0.353085
0.351865
0.350701
0.349595
0.348536
0.347532
0.373826
0.371555
0.369401
0.367359
0.365422
0.363583
0.361837
0.360178
0.3586
0.357101
0.355674
0.354317
0.353025
0.351795
0.350622
0.349506
0.34844
0.347427
0.373826
0.371553
0.369398
0.367355
0.365416
0.363575
0.361826
0.360164
0.358584
0.357081
0.355651
0.35429
0.352993
0.351758
0.35058
0.349458
0.348388
0.347368
0.373826
0.371552
0.369396
0.367351
0.36541
0.363567
0.361817
0.360153
0.358571
0.357067
0.355634
0.35427
0.352971
0.351734
0.350554
0.349429
0.348356
0.347333
0.373825
0.371551
0.369394
0.367348
0.365406
0.363562
0.36181
0.360145
0.358561
0.357055
0.355621
0.354256
0.352955
0.351716
0.350534
0.349408
0.348333
0.347308
0.373825
0.371551
0.369393
0.367346
0.365403
0.363558
0.361805
0.360139
0.358554
0.357047
0.355612
0.354245
0.352943
0.351703
0.35052
0.349392
0.348316
0.347289
0.373825
0.37155
0.369393
0.367345
0.365402
0.363557
0.361804
0.360137
0.358552
0.357043
0.355608
0.35424
0.352938
0.351696
0.350513
0.349384
0.348307
0.34728
0.373825
0.371551
0.369393
0.367347
0.365404
0.363559
0.361806
0.360139
0.358554
0.357046
0.355611
0.354244
0.352941
0.3517
0.350516
0.349388
0.348311
0.347284
0.373825
0.371551
0.369395
0.367349
0.365407
0.363563
0.361811
0.360145
0.358562
0.357055
0.355621
0.354255
0.352954
0.351715
0.350533
0.349406
0.348332
0.347307
0.373826
0.371552
0.369397
0.367352
0.365412
0.363571
0.361822
0.360161
0.358583
0.357083
0.355656
0.354298
0.353006
0.351774
0.350602
0.349483
0.348416
0.347397
0.373826
0.371554
0.369399
0.367359
0.365428
0.363602
0.361875
0.36024
0.35869
0.35722
0.355823
0.354493
0.353227
0.352018
0.350865
0.349762
0.34871
0.3477
0.373828
0.371551
0.369412
0.367417
0.365556
0.363819
0.362189
0.360651
0.359189
0.357793
0.356456
0.355171
0.353935
0.352745
0.3516
0.350495
0.349435
0.348409
0.373823
0.371554
0.369604
0.367893
0.366339
0.364892
0.363495
0.362122
0.360761
0.359413
0.35808
0.356769
0.355488
0.354237
0.353028
0.351855
0.350733
0.349644
0.373781
0.37199
0.371113
0.370265
0.36936
0.368311
0.367048
0.365629
0.36412
0.362575
0.36103
0.359522
0.358073
0.356682
0.355381
0.354141
0.353009
0.351923
0.374297
0.375564
0.377778
0.377858
0.377291
0.375885
0.373835
0.371641
0.369505
0.367482
0.365664
0.364084
0.36271
0.361535
0.36061
0.359818
0.359289
0.358801
0.378732
0.394393
0.398293
0.396565
0.392558
0.387608
0.383642
0.380455
0.378266
0.376852
0.376497
0.376751
0.3774
0.378699
0.380445
0.382425
0.38483
0.387141
0.408344
0.427539
0.422424
0.411051
0.402227
0.397925
0.398558
0.401119
0.405989
0.413043
0.421001
0.429835
0.438843
0.4482
0.457317
0.466565
0.475334
0.484195
0.366033
0.353412
0.341988
0.33021
0.318982
0.308382
0.299409
0.291674
0.285403
0.280334
0.276682
0.273868
0.272311
0.271186
0.271177
0.271524
0.272158
0.273389
0.000543566
0.00318537
0.00595783
0.00840064
0.0107229
0.013333
0.0163561
0.0199586
0.0242344
0.0291668
0.0346588
0.0405774
0.0467917
0.0531861
0.0596678
0.0661608
0.0726075
0.07896
0.0851815
0.0912381
0.097096
0.102715
0.108039
0.112993
0.117471
0.121335
0.124401
0.12643
0.127095
0.125976
0.122452
0.115549
0.12022
0.124889
0.130348
0.141476
0.155806
0.153495
0.151154
0.150615
0.151957
0.147914
0.149028
0.159324
0.16508
0.173551
0.180958
0.189139
0.197211
0.205581
0.214052
0.222714
0.231521
0.240496
0.249624
0.258914
0.268359
0.277961
0.287717
0.297627
0.307687
0.317897
0.32825
0.338748
0.349382
0.360152
0.371048
0.382071
0.393209
0.404461
0.415815
0.427269
0.43881
0.450435
0.46213
0.473892
0.485705
0.497565
0.509457
0.521376
0.533304
0.545236
0.557155
0.569056
0.580917
0.592734
0.604486
0.616166
0.627751
0.639232
0.650587
0.661796
0.672836
0.683685
0.69432
0.704724
0.71489
0.724846
0.734678
0.744235
0.753584
0.762687
0.77155
0.780154
0.788491
0.796551
0.804323
0.811799
0.818968
0.825823
0.832353
0.838554
0.844414
0.84993
0.855091
0.859894
0.864332
0.868401
0.872095
0.875413
0.878348
0.880899
0.88306
0.884832
0.88621
0.887199
0.887791
0.887982
0.887837
0.887331
0.886373
0.884985
0.883193
0.881114
0.878718
0.875892
0.872723
0.8692
0.865334
0.861134
0.856608
0.851766
0.846618
0.841169
0.83543
0.829413
0.823127
0.816583
0.809795
0.802772
0.795529
0.788076
0.780428
0.772595
0.764593
0.756433
0.74813
0.739698
0.731153
0.722514
0.713812
0.705119
0.696943
0.691642
0.687697
0.683827
0.679924
0.67598
0.672
0.667988
0.663951
0.659888
0.655795
0.651657
0.647439
0.643063
0.638372
0.632924
0.625838
0.599944
0.00279931
0.0116827
0.0177554
0.0222622
0.0262202
0.0300739
0.0341799
0.0387449
0.0438571
0.0495058
0.0556182
0.0620938
0.0688295
0.0757327
0.0827269
0.0897504
0.096756
0.103707
0.110575
0.117336
0.123967
0.130439
0.136711
0.142722
0.148394
0.153628
0.158312
0.162348
0.165728
0.168591
0.171408
0.175363
0.183162
0.192219
0.202306
0.21323
0.223278
0.2304
0.239992
0.252099
0.262189
0.27292
0.284083
0.296255
0.308531
0.321554
0.334757
0.348339
0.362221
0.376434
0.390959
0.405802
0.420958
0.436431
0.452219
0.468325
0.484748
0.501491
0.518553
0.535933
0.553632
0.571647
0.589978
0.608622
0.627574
0.646831
0.666388
0.686239
0.706377
0.726795
0.747483
0.768434
0.789635
0.811077
0.832747
0.854631
0.876716
0.898987
0.921428
0.944024
0.966756
0.989606
1.01256
1.03559
1.05867
1.0818
1.10494
1.12808
1.15118
1.17422
1.19718
1.22002
1.24271
1.26522
1.28749
1.30949
1.33116
1.35243
1.37322
1.39374
1.41394
1.43382
1.45334
1.4725
1.49125
1.5096
1.5275
1.54495
1.56192
1.57839
1.59434
1.60976
1.62462
1.63891
1.65262
1.66572
1.6782
1.69005
1.70125
1.7118
1.72168
1.73087
1.73938
1.74718
1.75428
1.76067
1.76635
1.77131
1.77556
1.7791
1.78192
1.78389
1.78502
1.78554
1.78553
1.7847
1.78315
1.7809
1.77795
1.77432
1.77002
1.76506
1.75946
1.75321
1.74636
1.73889
1.73085
1.72223
1.71307
1.70337
1.69317
1.68248
1.67132
1.65972
1.6477
1.63528
1.62248
1.60933
1.59586
1.5821
1.56807
1.55384
1.53955
1.52565
1.51187
1.49798
1.48397
1.46987
1.4557
1.44148
1.42723
1.41297
1.3987
1.38442
1.37012
1.35576
1.34117
1.32635
1.30991
1.27329
0.00600274
0.0202141
0.0283336
0.034345
0.039654
0.0448074
0.0501101
0.0557405
0.0617814
0.0682399
0.0750721
0.082208
0.0895716
0.097093
0.104714
0.11239
0.120087
0.127784
0.135468
0.143134
0.150778
0.158401
0.165996
0.173552
0.181053
0.188486
0.195852
0.203197
0.210646
0.218435
0.226922
0.236556
0.247676
0.259739
0.272462
0.285567
0.298745
0.312065
0.326199
0.34098
0.355459
0.370363
0.385766
0.401772
0.418168
0.435034
0.45229
0.469939
0.487973
0.506394
0.525197
0.544385
0.563956
0.583911
0.60425
0.624973
0.646081
0.667573
0.689449
0.711707
0.734347
0.757364
0.780757
0.804521
0.828651
0.853141
0.877985
0.903174
0.9287
0.954554
0.980725
1.0072
1.03397
1.06101
1.08832
1.11587
1.14366
1.17165
1.19984
1.2282
1.25671
1.28535
1.3141
1.34293
1.37181
1.40073
1.42964
1.45854
1.48738
1.51613
1.54477
1.57327
1.60158
1.62969
1.65754
1.68512
1.71239
1.73932
1.76592
1.79215
1.81799
1.84342
1.8684
1.8929
1.91689
1.94035
1.96325
1.98555
2.00724
2.02829
2.04867
2.06836
2.08734
2.10558
2.12306
2.13976
2.15567
2.17076
2.18501
2.19842
2.21097
2.22264
2.23341
2.24329
2.25226
2.26031
2.26745
2.27366
2.27895
2.28331
2.28672
2.28916
2.29051
2.29103
2.29077
2.28952
2.28736
2.2843
2.28034
2.27551
2.26982
2.26328
2.25592
2.24774
2.23877
2.22904
2.21855
2.20734
2.19544
2.18285
2.16962
2.15576
2.14131
2.12629
2.11073
2.09467
2.07813
2.06115
2.04376
2.02599
2.00789
1.98951
1.97099
1.95254
1.93406
1.91547
1.89673
1.87789
1.85897
1.84
1.82101
1.80203
1.78308
1.76419
1.74537
1.72665
1.70799
1.68947
1.66987
1.63805
0.00971244
0.0283472
0.0383834
0.0456906
0.0520487
0.058119
0.0642397
0.0706008
0.0772969
0.0843527
0.0917459
0.0994272
0.107339
0.115425
0.123642
0.131955
0.140343
0.148796
0.157317
0.165914
0.174605
0.183412
0.192358
0.201466
0.210758
0.220257
0.229997
0.240034
0.250457
0.261395
0.273002
0.285412
0.298668
0.312654
0.327265
0.342402
0.358006
0.37411
0.390781
0.407937
0.425418
0.443323
0.461669
0.480462
0.499681
0.519347
0.539448
0.559985
0.580954
0.602357
0.624196
0.64647
0.669183
0.692334
0.715926
0.739959
0.764433
0.789349
0.814707
0.840506
0.866744
0.893418
0.920526
0.948063
0.976024
1.0044
1.03319
1.06238
1.09197
1.12193
1.15227
1.18296
1.214
1.24536
1.27703
1.30899
1.34123
1.37371
1.40643
1.43935
1.47245
1.5057
1.53909
1.57258
1.60613
1.63973
1.67334
1.70693
1.74046
1.77391
1.80723
1.8404
1.87339
1.90614
1.93864
1.97085
2.00273
2.03426
2.06541
2.09613
2.12639
2.15615
2.18539
2.21406
2.24214
2.26957
2.29634
2.32241
2.34775
2.37232
2.3961
2.41906
2.44116
2.4624
2.48273
2.50213
2.52059
2.53808
2.55459
2.57008
2.58455
2.59798
2.61036
2.62167
2.63191
2.64106
2.64913
2.6561
2.66198
2.66676
2.67043
2.67295
2.67423
2.67456
2.67385
2.67204
2.66915
2.6652
2.66021
2.65419
2.64717
2.63915
2.63017
2.62024
2.60939
2.59764
2.58503
2.57156
2.55729
2.54223
2.52641
2.50988
2.49265
2.47477
2.45627
2.43719
2.41755
2.39741
2.37679
2.35574
2.33432
2.31257
2.29061
2.26856
2.24642
2.22414
2.20171
2.17916
2.15654
2.13388
2.11122
2.08859
2.06606
2.04365
2.02143
1.99948
1.97785
1.95672
1.935
1.90572
0.0134682
0.0359919
0.047799
0.0563008
0.0635905
0.0704297
0.0772016
0.084121
0.0913036
0.0987972
0.106603
0.114695
0.123032
0.131575
0.14029
0.149153
0.158151
0.167284
0.176562
0.186005
0.19564
0.205501
0.215623
0.226043
0.236798
0.24792
0.259445
0.271412
0.283871
0.296879
0.3105
0.324782
0.339741
0.355358
0.371603
0.388442
0.405855
0.423835
0.442371
0.461423
0.48095
0.500951
0.521417
0.542343
0.563731
0.58559
0.607926
0.630742
0.654039
0.677822
0.702093
0.726855
0.752111
0.777864
0.804116
0.83087
0.858126
0.885886
0.914152
0.942921
0.972194
1.00197
1.03224
1.06301
1.09427
1.12601
1.15824
1.19092
1.22407
1.25766
1.29169
1.32614
1.36099
1.39623
1.43183
1.46778
1.50406
1.54063
1.57749
1.61459
1.65191
1.68943
1.72711
1.76492
1.80283
1.8408
1.87879
1.91678
1.95472
1.99258
2.03032
2.06789
2.10527
2.14241
2.17927
2.21581
2.252
2.28778
2.32312
2.35798
2.39231
2.42608
2.45924
2.49174
2.52356
2.55464
2.58496
2.61447
2.64313
2.67091
2.69778
2.72371
2.74865
2.77259
2.79548
2.81732
2.83806
2.85769
2.87618
2.89351
2.90966
2.92463
2.93838
2.95091
2.96221
2.97227
2.98108
2.98864
2.99495
3.00001
3.00379
3.00627
3.00737
3.0074
3.00618
3.00373
3.00006
2.99519
2.98914
2.98192
2.97357
2.9641
2.95353
2.9419
2.92924
2.91556
2.9009
2.8853
2.86878
2.85139
2.83315
2.81411
2.7943
2.77375
2.75252
2.73063
2.70814
2.68508
2.6615
2.63744
2.61296
2.58813
2.56302
2.53774
2.5123
2.48669
2.46094
2.43506
2.40912
2.38314
2.35719
2.33132
2.30559
2.28006
2.25484
2.23005
2.20582
2.18234
2.15869
2.13003
0.0170671
0.04296
0.056362
0.0659545
0.0740848
0.0815991
0.0889234
0.0962985
0.103862
0.111686
0.119796
0.128186
0.136837
0.145724
0.154825
0.164126
0.17362
0.183314
0.193223
0.203371
0.213788
0.224513
0.235584
0.247041
0.258923
0.271263
0.284092
0.297439
0.311331
0.325796
0.340862
0.356548
0.372866
0.389817
0.407394
0.425587
0.444386
0.463778
0.483752
0.504284
0.525356
0.546955
0.569072
0.5917
0.614841
0.638501
0.662685
0.687399
0.71265
0.738441
0.764778
0.791667
0.81911
0.847114
0.875682
0.904818
0.934524
0.964803
0.995657
1.02709
1.05909
1.09168
1.12483
1.15856
1.19285
1.22771
1.26311
1.29906
1.33555
1.37256
1.41007
1.44808
1.48656
1.5255
1.56487
1.60466
1.64484
1.68537
1.72624
1.76741
1.80885
1.85053
1.89241
1.93446
1.97664
2.01891
2.06123
2.10355
2.14584
2.18805
2.23014
2.27207
2.31378
2.35524
2.39639
2.43719
2.47758
2.51753
2.55698
2.59588
2.63418
2.67185
2.70882
2.74506
2.78052
2.81515
2.8489
2.88174
2.91363
2.94452
2.97437
3.00314
3.03081
3.05734
3.08269
3.10683
3.12974
3.15139
3.17175
3.1908
3.20853
3.22491
3.23993
3.25356
3.26582
3.27667
3.28612
3.29417
3.30081
3.30604
3.30987
3.31219
3.31308
3.31269
3.31091
3.30776
3.30325
3.29741
3.29025
3.28181
3.2721
3.26115
3.24899
3.23565
3.22117
3.20558
3.1889
3.17119
3.15247
3.13279
3.11219
3.0907
3.06837
3.04524
3.02136
2.99677
2.97152
2.94566
2.91923
2.89229
2.86488
2.83709
2.80897
2.78062
2.75206
2.72332
2.69442
2.6654
2.63632
2.60722
2.57816
2.54923
2.52048
2.49203
2.46398
2.43652
2.40981
2.38405
2.3584
2.32912
0.020375
0.0491254
0.0639194
0.0744767
0.0833515
0.0914585
0.0992586
0.107015
0.114886
0.122964
0.131295
0.139896
0.148767
0.157898
0.167279
0.176905
0.186778
0.196907
0.207311
0.218014
0.229049
0.240452
0.25226
0.264512
0.277243
0.290484
0.304263
0.318601
0.333518
0.34903
0.36515
0.381889
0.399255
0.41725
0.435876
0.455131
0.475009
0.495505
0.51661
0.538314
0.560605
0.583477
0.606923
0.630939
0.655526
0.680689
0.706434
0.732768
0.759697
0.787229
0.815371
0.844129
0.873511
0.903523
0.93417
0.965459
0.997393
1.02998
1.06322
1.09711
1.13167
1.16688
1.20275
1.23928
1.27646
1.31428
1.35275
1.39184
1.43156
1.47188
1.51279
1.55428
1.59633
1.63891
1.682
1.72558
1.76961
1.81408
1.85894
1.90416
1.94971
1.99555
2.04163
2.08793
2.13438
2.18096
2.22761
2.27428
2.32093
2.36751
2.41397
2.46025
2.50631
2.55208
2.59752
2.64256
2.68716
2.73125
2.77479
2.81771
2.85997
2.9015
2.94227
2.98221
3.02127
3.0594
3.09656
3.13268
3.16774
3.20168
3.23445
3.26602
3.29635
3.3254
3.35313
3.37951
3.40451
3.42811
3.45026
3.47096
3.49017
3.50789
3.52408
3.53874
3.55186
3.56343
3.57344
3.58189
3.58878
3.5941
3.59788
3.6
3.6006
3.59972
3.59732
3.5934
3.58799
3.58112
3.57281
3.56309
3.55198
3.53952
3.52575
3.51068
3.49437
3.47685
3.45816
3.43833
3.41743
3.39547
3.37252
3.34862
3.32381
3.29815
3.27167
3.24444
3.21649
3.18789
3.15869
3.12894
3.09869
3.06801
3.03698
3.00567
2.97411
2.94235
2.91042
2.87838
2.84627
2.81417
2.78213
2.75025
2.71862
2.68734
2.65657
2.6265
2.59734
2.56926
2.54148
2.51075
0.0232966
0.0544082
0.070376
0.0817554
0.0912678
0.099882
0.108086
0.116159
0.124277
0.132549
0.141039
0.149784
0.158799
0.168091
0.177661
0.187513
0.197655
0.208101
0.218871
0.22999
0.241488
0.253398
0.265756
0.278594
0.291945
0.305837
0.320293
0.335334
0.350975
0.367227
0.384102
0.401606
0.419746
0.438526
0.457948
0.478015
0.498726
0.520081
0.542076
0.56471
0.587977
0.611876
0.636406
0.661566
0.68736
0.713792
0.74087
0.768601
0.796994
0.826059
0.855804
0.886239
0.917372
0.949212
0.981767
1.01505
1.04905
1.0838
1.11928
1.15552
1.1925
1.23023
1.26871
1.30795
1.34793
1.38865
1.43011
1.47229
1.51519
1.55879
1.60307
1.64801
1.6936
1.73982
1.78662
1.83399
1.8819
1.9303
1.97917
2.02847
2.07814
2.12816
2.17848
2.22905
2.27981
2.33072
2.38173
2.43278
2.48382
2.53479
2.58563
2.63628
2.68669
2.73678
2.78651
2.8358
2.88459
2.93282
2.98043
3.02736
3.07355
3.11893
3.16345
3.20706
3.24968
3.29127
3.33177
3.37114
3.4093
3.44623
3.48186
3.51616
3.54907
3.58057
3.6106
3.63914
3.66616
3.69161
3.71547
3.73772
3.75834
3.77729
3.79458
3.81017
3.82406
3.83625
3.84673
3.85549
3.86254
3.86788
3.87152
3.87337
3.8736
3.87216
3.86906
3.86432
3.85796
3.85
3.84049
3.82944
3.8169
3.8029
3.78747
3.77066
3.7525
3.73304
3.71233
3.6904
3.66731
3.64311
3.61783
3.59155
3.5643
3.53613
3.50711
3.47729
3.44671
3.41544
3.38353
3.35103
3.31802
3.28454
3.25068
3.2165
3.18205
3.14738
3.11253
3.07757
3.04255
3.00754
2.97263
2.9379
2.90346
2.86945
2.83602
2.80339
2.77177
2.74131
2.71129
2.67894
0.0257738
0.058778
0.0756951
0.0877444
0.0977789
0.106809
0.115343
0.123672
0.131983
0.140398
0.148996
0.157829
0.166929
0.176312
0.185995
0.195987
0.206303
0.21696
0.227978
0.239384
0.251204
0.263468
0.276208
0.289452
0.30323
0.317567
0.332484
0.348
0.364129
0.380883
0.398273
0.416307
0.43499
0.45433
0.474331
0.494998
0.516335
0.538345
0.561032
0.584397
0.608443
0.633173
0.658591
0.684701
0.711509
0.739023
0.767251
0.796203
0.825891
0.856326
0.887518
0.919481
0.952225
0.985761
1.0201
1.05525
1.09123
1.12803
1.16567
1.20416
1.24349
1.28368
1.32472
1.36661
1.40935
1.45294
1.49737
1.54262
1.58869
1.63556
1.68321
1.73162
1.78077
1.83063
1.88116
1.93235
1.98415
2.03652
2.08943
2.14282
2.19665
2.25088
2.30545
2.36031
2.4154
2.47067
2.52605
2.58148
2.63691
2.69226
2.74748
2.80248
2.85722
2.91161
2.96559
3.01909
3.07203
3.12435
3.17598
3.22686
3.27691
3.32607
3.37427
3.42146
3.46756
3.51252
3.55628
3.59877
3.63995
3.67975
3.71814
3.75505
3.79044
3.82426
3.85649
3.88707
3.91597
3.94316
3.96862
3.9923
4.01419
4.03428
4.05253
4.06894
4.0835
4.0962
4.10703
4.11601
4.12312
4.12838
4.13178
4.1333
4.13305
4.13098
4.12712
4.12148
4.1141
4.10501
4.09424
4.08184
4.06782
4.05225
4.03515
4.01658
3.99657
3.97518
3.95245
3.92844
3.90319
3.87676
3.84921
3.82058
3.79094
3.76034
3.72884
3.69649
3.66336
3.62949
3.59496
3.55982
3.52413
3.48795
3.45136
3.41442
3.37719
3.33972
3.30208
3.26431
3.22649
3.1887
3.15101
3.11354
3.0764
3.03974
3.00372
2.96857
2.93449
2.90163
2.86928
2.83518
0.0277755
0.062241
0.0798897
0.0924554
0.102893
0.112246
0.121033
0.129556
0.138006
0.146517
0.155179
0.164054
0.173186
0.182606
0.192335
0.202392
0.212797
0.22357
0.234733
0.24631
0.258327
0.270811
0.283788
0.297285
0.311328
0.325939
0.341138
0.356944
0.373372
0.390435
0.408147
0.426515
0.445551
0.465263
0.485659
0.506747
0.528535
0.551031
0.574243
0.598178
0.622845
0.648249
0.674401
0.701309
0.728982
0.757432
0.78667
0.81671
0.847566
0.879251
0.91178
0.945167
0.979427
1.01457
1.05062
1.08757
1.12545
1.16426
1.20401
1.24472
1.28637
1.32899
1.37258
1.41712
1.46263
1.50909
1.55649
1.60483
1.65409
1.70425
1.7553
1.8072
1.85993
1.91346
1.96776
2.02279
2.07851
2.13487
2.19183
2.24933
2.30733
2.36577
2.4246
2.48374
2.54314
2.60273
2.66245
2.72223
2.78199
2.84167
2.90119
2.96048
3.01947
3.07806
3.1362
3.19379
3.25078
3.30707
3.36259
3.41728
3.47106
3.52385
3.57558
3.6262
3.67562
3.72378
3.77063
3.81609
3.8601
3.90261
3.94357
3.98292
4.02061
4.05659
4.09083
4.12328
4.1539
4.18266
4.20953
4.23448
4.2575
4.27855
4.29762
4.3147
4.32977
4.34284
4.3539
4.36296
4.37001
4.37507
4.37814
4.37924
4.37842
4.37563
4.37092
4.36432
4.35586
4.34558
4.33353
4.31972
4.30422
4.28706
4.26828
4.24795
4.2261
4.2028
4.17809
4.15203
4.12467
4.09608
4.0663
4.03541
4.00346
3.97051
3.93662
3.90185
3.86626
3.82991
3.79287
3.7552
3.71696
3.67821
3.63902
3.59946
3.55959
3.51947
3.47917
3.43874
3.39826
3.35782
3.3175
3.27741
3.23768
3.19847
3.15994
3.12233
3.08581
3.05055
3.01586
2.97979
0.0292977
0.0648361
0.0830115
0.0959468
0.106672
0.116253
0.125216
0.133867
0.142403
0.150963
0.159645
0.16852
0.17764
0.187045
0.196767
0.206829
0.217256
0.228068
0.239288
0.250939
0.263044
0.275628
0.288716
0.302332
0.316498
0.331237
0.346568
0.362511
0.379083
0.396299
0.414174
0.432723
0.451958
0.471891
0.492535
0.513902
0.536004
0.558853
0.582463
0.606844
0.632009
0.657971
0.684743
0.71234
0.740776
0.770065
0.800223
0.831267
0.863215
0.896083
0.929889
0.964651
1.00038
1.03711
1.07483
1.11357
1.15335
1.19417
1.23604
1.27898
1.32298
1.36806
1.41422
1.46146
1.50977
1.55914
1.60957
1.66105
1.71354
1.76705
1.82153
1.87697
1.93332
1.99056
2.04865
2.10754
2.16718
2.22753
2.28854
2.35014
2.41227
2.47488
2.53791
2.60127
2.6649
2.72873
2.79269
2.8567
2.92067
2.98454
3.04822
3.11163
3.17468
3.2373
3.2994
3.36089
3.4217
3.48175
3.54094
3.59921
3.65647
3.71264
3.76766
3.82145
3.87393
3.92504
3.97471
4.02287
4.06946
4.11442
4.15769
4.19922
4.23895
4.27683
4.31283
4.3469
4.379
4.40909
4.43716
4.46316
4.48707
4.50888
4.52857
4.54613
4.56154
4.57481
4.58593
4.59491
4.60176
4.60649
4.60912
4.60966
4.60818
4.60458
4.59894
4.59131
4.58172
4.57022
4.55683
4.54161
4.52461
4.50586
4.48543
4.46336
4.43971
4.41454
4.3879
4.35986
4.33047
4.2998
4.2679
4.23485
4.2007
4.16551
4.12936
4.0923
4.0544
4.01573
3.97633
3.93628
3.89565
3.85449
3.81287
3.77087
3.72854
3.68595
3.64317
3.60026
3.5573
3.51437
3.47158
3.42903
3.38686
3.34522
3.3043
3.26431
3.22544
3.18781
3.1508
3.11272
0.0303601
0.0666317
0.0851429
0.0983114
0.109213
0.118931
0.127993
0.136707
0.145274
0.153835
0.162496
0.171335
0.180409
0.189764
0.199435
0.209449
0.219834
0.230612
0.241806
0.25344
0.265535
0.278115
0.291203
0.304823
0.318996
0.333744
0.349089
0.365047
0.381641
0.398888
0.416809
0.435421
0.454742
0.474789
0.495578
0.517123
0.539446
0.562563
0.586491
0.611245
0.63684
0.663295
0.69063
0.718864
0.748017
0.778108
0.809158
0.841187
0.874217
0.908269
0.943364
0.979521
1.01676
1.0551
1.09455
1.13514
1.17688
1.21977
1.26384
1.3091
1.35554
1.40317
1.452
1.50202
1.55323
1.60561
1.65915
1.71384
1.76965
1.82657
1.88455
1.94356
2.00358
2.06455
2.12643
2.18918
2.25273
2.31703
2.38202
2.44764
2.51382
2.5805
2.64759
2.71502
2.78272
2.85061
2.9186
2.98661
3.05456
3.12237
3.18993
3.25718
3.32401
3.39035
3.45609
3.52115
3.58545
3.6489
3.7114
3.77289
3.83326
3.89246
3.95038
4.00697
4.06214
4.11581
4.16793
4.21842
4.26721
4.31424
4.35946
4.4028
4.44422
4.48367
4.52109
4.55645
4.58971
4.62084
4.64979
4.67655
4.7011
4.72341
4.74346
4.76126
4.77679
4.79004
4.80103
4.80976
4.81624
4.82048
4.82252
4.8224
4.82016
4.81564
4.80899
4.80027
4.7895
4.77673
4.762
4.74537
4.72687
4.70656
4.6845
4.66075
4.63537
4.60841
4.57993
4.55001
4.5187
4.48607
4.45219
4.41712
4.38093
4.34368
4.30543
4.26627
4.22624
4.18542
4.14387
4.10165
4.05883
4.01547
3.97164
3.92741
3.88285
3.83801
3.79297
3.74779
3.70256
3.65736
3.6123
3.56749
3.52306
3.47917
3.436
3.39377
3.35264
3.31275
3.27349
3.23347
0.0310054
0.0677077
0.0863836
0.0996611
0.110638
0.120405
0.12949
0.138204
0.146753
0.155278
0.163886
0.172656
0.181647
0.190907
0.200478
0.210392
0.220676
0.231356
0.242454
0.253994
0.265998
0.278488
0.291487
0.305019
0.319108
0.333777
0.349053
0.364951
0.381492
0.398699
0.416594
0.435199
0.454537
0.474631
0.495503
0.51718
0.539693
0.563059
0.587296
0.612423
0.638459
0.665413
0.693322
0.722216
0.752119
0.783058
0.815058
0.848145
0.882344
0.917679
0.954173
0.991847
1.03072
1.07082
1.11215
1.15474
1.1986
1.24375
1.29019
1.33793
1.38698
1.43734
1.489
1.54196
1.59622
1.65175
1.70853
1.76655
1.82578
1.88618
1.94772
2.01035
2.07404
2.13874
2.20438
2.27092
2.3383
2.40644
2.47528
2.54476
2.61479
2.6853
2.75622
2.82745
2.89892
2.97054
3.04222
3.11388
3.18542
3.25675
3.32778
3.39842
3.46858
3.53815
3.60706
3.6752
3.74248
3.80882
3.87412
3.9383
4.00128
4.06296
4.12327
4.18213
4.23946
4.29519
4.34924
4.40155
4.45204
4.50066
4.54735
4.59205
4.6347
4.67526
4.71368
4.74992
4.78393
4.8157
4.84518
4.87235
4.89719
4.91967
4.9398
4.95755
4.97293
4.98592
4.99655
5.00482
5.01073
5.01433
5.01563
5.01475
5.01159
5.00606
4.99834
4.98848
4.97649
4.96244
4.94637
4.92833
4.90838
4.88657
4.86295
4.83761
4.81058
4.78195
4.75177
4.72011
4.68704
4.65263
4.61694
4.58004
4.54201
4.5029
4.46279
4.42174
4.37983
4.33711
4.29365
4.24951
4.20476
4.15947
4.1137
4.06751
4.02098
3.97416
3.92713
3.87995
3.83271
3.7855
3.73842
3.69157
3.64511
3.59918
3.55397
3.50966
3.46644
3.42443
3.38308
3.34123
0.0312144
0.0680911
0.0868046
0.100092
0.111059
0.120802
0.12985
0.138515
0.146997
0.155442
0.16396
0.172637
0.181535
0.1907
0.200171
0.209979
0.220153
0.23072
0.241702
0.253123
0.265006
0.277374
0.29025
0.303658
0.317623
0.332169
0.347321
0.363101
0.379537
0.396659
0.414497
0.433079
0.452433
0.472588
0.493571
0.515408
0.538129
0.561762
0.586333
0.611868
0.638397
0.665936
0.694533
0.724224
0.755036
0.786998
0.820141
0.854495
0.890091
0.926952
0.965103
1.00456
1.04536
1.0875
1.13101
1.1759
1.22218
1.26987
1.31898
1.36949
1.42143
1.47477
1.52952
1.58566
1.64317
1.70203
1.76222
1.8237
1.88644
1.95039
2.01552
2.08177
2.14909
2.21742
2.28671
2.35688
2.42788
2.49962
2.57203
2.64505
2.71858
2.79254
2.86685
2.94143
3.01618
3.09101
3.16584
3.24057
3.3151
3.38935
3.46321
3.53659
3.60941
3.68155
3.75293
3.82345
3.89302
3.96154
4.02894
4.09511
4.15997
4.22344
4.28544
4.34588
4.40469
4.4618
4.51713
4.5706
4.62217
4.67176
4.71931
4.76477
4.80809
4.84922
4.8881
4.92471
4.959
4.99094
5.0205
5.04766
5.0724
5.09469
5.11454
5.13192
5.14685
5.15931
5.16932
5.1769
5.18206
5.18482
5.18524
5.18349
5.17925
5.17265
5.16381
5.15276
5.13955
5.12422
5.10684
5.08745
5.06611
5.04288
5.01783
4.99101
4.9625
4.93235
4.90065
4.86745
4.83283
4.79685
4.75959
4.72112
4.6815
4.6408
4.5991
4.55646
4.51295
4.46863
4.42356
4.37782
4.33147
4.28456
4.23716
4.18934
4.14116
4.09269
4.04399
3.99514
3.9462
3.89728
3.84847
3.79989
3.75167
3.70396
3.65694
3.61079
3.56568
3.52176
3.4785
3.43504
0.0311506
0.068013
0.0866629
0.0998961
0.110807
0.120487
0.129463
0.138044
0.146435
0.154781
0.163188
0.171738
0.18049
0.189496
0.198795
0.208423
0.218412
0.228788
0.239578
0.250804
0.262492
0.274666
0.287353
0.300579
0.314372
0.328762
0.343778
0.359456
0.375828
0.392928
0.410791
0.429451
0.448942
0.469295
0.490544
0.512723
0.53587
0.560031
0.585225
0.611476
0.6388
0.667243
0.696862
0.727691
0.75977
0.793134
0.82782
0.863865
0.901307
0.940162
0.980451
1.02219
1.0654
1.11009
1.15627
1.20396
1.25315
1.30385
1.35606
1.40978
1.465
1.52169
1.57985
1.63945
1.70046
1.76285
1.82658
1.8916
1.95789
2.02537
2.09401
2.16373
2.23449
2.30621
2.37884
2.45228
2.52648
2.60135
2.67682
2.75281
2.82922
2.90598
2.983
3.06019
3.13746
3.21471
3.29186
3.36881
3.44547
3.52174
3.59753
3.67274
3.74729
3.82106
3.89398
3.96593
4.03685
4.10663
4.17518
4.24241
4.30825
4.3726
4.4354
4.49655
4.55599
4.61363
4.66942
4.72327
4.77513
4.82493
4.87262
4.91815
4.96145
5.00249
5.04122
5.07761
5.1116
5.14319
5.17233
5.199
5.22319
5.24487
5.26405
5.28072
5.29486
5.3065
5.31564
5.32229
5.32648
5.32823
5.3277
5.32489
5.31949
5.31176
5.30175
5.28951
5.2751
5.25855
5.23992
5.21928
5.19667
5.17217
5.14583
5.11773
5.08792
5.05649
5.02349
4.98901
4.9531
4.91585
4.87731
4.83757
4.79669
4.75474
4.71179
4.66791
4.62316
4.5776
4.53131
4.48434
4.43675
4.38861
4.33997
4.29091
4.24147
4.19173
4.14174
4.09158
4.04132
3.99105
3.94087
3.89089
3.84124
3.79207
3.74354
3.69584
3.64911
3.60352
3.5586
3.51379
0.0309455
0.0676833
0.0861469
0.0992235
0.109979
0.119499
0.128308
0.136718
0.144931
0.153094
0.161311
0.169664
0.178217
0.187023
0.196128
0.205562
0.215358
0.225541
0.236141
0.247184
0.2587
0.270717
0.283268
0.296385
0.310102
0.324456
0.339483
0.35522
0.371709
0.388989
0.407107
0.426113
0.44605
0.466948
0.488848
0.511785
0.535786
0.56085
0.587054
0.614467
0.643157
0.673177
0.704554
0.737323
0.77152
0.807177
0.844325
0.882984
0.92317
0.964913
1.00824
1.05317
1.09971
1.14783
1.19755
1.24885
1.30174
1.35619
1.4122
1.46975
1.5288
1.58933
1.65131
1.71469
1.77944
1.84551
1.91285
1.9814
2.05112
2.12194
2.1938
2.26663
2.34037
2.41495
2.4903
2.56634
2.64299
2.72018
2.79784
2.87586
2.95418
3.03272
3.11137
3.19007
3.26871
3.34722
3.4255
3.50346
3.58101
3.65807
3.73453
3.81032
3.88534
3.95949
4.03269
4.10485
4.17587
4.24568
4.31419
4.38131
4.44695
4.51105
4.57352
4.63429
4.69328
4.75043
4.80566
4.85891
4.91011
4.95921
5.00616
5.0509
5.09339
5.13357
5.1714
5.20686
5.23989
5.27049
5.29861
5.32424
5.34737
5.36796
5.38603
5.40156
5.41457
5.42505
5.433
5.43846
5.44144
5.442
5.44042
5.43631
5.4297
5.42077
5.40957
5.39615
5.38056
5.36284
5.34306
5.32127
5.29754
5.27192
5.24449
5.21531
5.18445
5.15198
5.11797
5.08249
5.04561
5.0074
4.96794
4.92728
4.8855
4.84267
4.79885
4.75412
4.70853
4.66215
4.61504
4.56725
4.51885
4.4699
4.42045
4.37055
4.32028
4.26968
4.21882
4.16777
4.11659
4.06536
4.01419
3.96318
3.91245
3.86216
3.81245
3.7635
3.71545
3.66848
3.62217
3.57629
0.0305272
0.0669863
0.0851608
0.098004
0.108537
0.117839
0.126434
0.134635
0.142645
0.150607
0.15863
0.166794
0.175163
0.183791
0.19272
0.20199
0.211636
0.221688
0.232179
0.243143
0.254616
0.266635
0.279238
0.292467
0.306365
0.320986
0.336387
0.352603
0.369679
0.387664
0.406597
0.426494
0.447391
0.469384
0.49254
0.516922
0.542591
0.569633
0.59808
0.627983
0.659397
0.692366
0.72692
0.763088
0.800894
0.840357
0.881487
0.924292
0.968775
1.01493
1.06277
1.11222
1.16329
1.21596
1.27022
1.32603
1.38338
1.44223
1.50254
1.56427
1.62737
1.69181
1.75753
1.82449
1.89262
1.96188
2.0322
2.10354
2.17582
2.249
2.323
2.39776
2.47321
2.5493