/*--------------------------------*- C++ -*----------------------------------*\
  =========                 |
  \\      /  F ield         | OpenFOAM: The Open Source CFD Toolbox
   \\    /   O peration     | Website:  https://openfoam.org
    \\  /    A nd           | Version:  9
     \\/     M anipulation  |
\*---------------------------------------------------------------------------*/
FoamFile
{
    format      ascii;
    class       volScalarField::Internal;
    location    "285";
    object      tmp<kEpsilon:G>;
}
// * * * * * * * * * * * * * * * * * * * * * * * * * * * * * * * * * * * * * //

dimensions      [0 2 -3 0 0 0 0];

value           nonuniform List<scalar> 
12225
(
0
0
0
0
0
0
0
0
0
0
0
0
0
0
0
0
0
0
947.464
499.321
262.327
277.58
379.75
495.269
604.993
715.087
802.507
888.346
950.049
1008.56
1048.5
1084.9
1112.57
1130.19
1167.26
1132.49
85.4726
123.101
55.5191
17.2368
5.18724
4.39862
8.80112
16.6824
26.6124
38.371
50.8923
64.0615
77.5105
90.3946
103.972
115.39
129.606
136.161
5.03699
1.74503
0.640994
0.702195
0.465239
0.185301
0.026965
0.189082
0.790461
1.87962
3.44254
5.4133
7.82205
10.3964
13.4377
16.2985
19.7542
22.5508
0.224391
0.131563
0.147846
0.314042
0.426058
0.406401
0.289176
0.15325
0.0568356
0.0250702
0.0743917
0.21208
0.44674
0.761167
1.18004
1.64105
2.20436
2.75335
0.177086
0.18868
0.264835
0.32037
0.322831
0.317688
0.289913
0.238901
0.182232
0.127125
0.0802069
0.0456176
0.0279355
0.0290419
0.0505544
0.0908123
0.147482
0.216833
0.126537
0.211603
0.231029
0.213011
0.212254
0.230705
0.238725
0.227657
0.208357
0.184752
0.159387
0.132945
0.108628
0.0874849
0.0711026
0.0605554
0.0555646
0.0549996
0.0973883
0.148865
0.159693
0.157138
0.167643
0.188222
0.20074
0.200663
0.195391
0.187735
0.178358
0.167015
0.155491
0.144311
0.134887
0.127732
0.124311
0.121762
0.0740349
0.104541
0.122068
0.130432
0.142055
0.158002
0.169377
0.173045
0.173313
0.172475
0.170697
0.167902
0.164818
0.162048
0.160424
0.160234
0.16271
0.165069
0.0560816
0.0774434
0.0972167
0.108832
0.11954
0.132597
0.14322
0.148712
0.151447
0.153426
0.154986
0.156051
0.157159
0.158674
0.161222
0.164726
0.170175
0.17498
0.0423411
0.05834
0.0770701
0.0898056
0.100358
0.111886
0.121806
0.128027
0.131872
0.134977
0.137841
0.14048
0.143253
0.146432
0.150415
0.155019
0.160846
0.16588
0.0324184
0.0451118
0.0621433
0.0753202
0.0858591
0.0963488
0.105533
0.111899
0.116186
0.119678
0.122923
0.126007
0.129182
0.132651
0.136656
0.140994
0.146043
0.150225
0.0245364
0.0347365
0.0499749
0.0632039
0.0737558
0.0835335
0.0921186
0.0984723
0.102974
0.106596
0.109873
0.11295
0.116007
0.119193
0.12265
0.1262
0.130079
0.133131
0.0175639
0.0257149
0.0389797
0.0516816
0.062114
0.0713384
0.0793758
0.0856159
0.0902173
0.0938532
0.0970024
0.0998527
0.102537
0.105161
0.107803
0.110325
0.112896
0.114724
0.011648
0.0182342
0.0296299
0.0414342
0.0515203
0.0602364
0.0677541
0.073772
0.078338
0.0818852
0.0848074
0.0873062
0.0894936
0.0914462
0.0932171
0.0947159
0.096093
0.0968429
0.00688738
0.0122936
0.0220368
0.0327693
0.0423243
0.0505446
0.0575686
0.0632703
0.0676629
0.0710177
0.0736407
0.0757255
0.0773826
0.07868
0.0796718
0.0803186
0.0807597
0.0807202
0.00336663
0.00792204
0.0163348
0.0260173
0.0349439
0.0426617
0.0492059
0.0545233
0.0586247
0.0616906
0.0639579
0.0656077
0.066756
0.0674801
0.0678449
0.0678591
0.06764
0.0670942
0.00119731
0.00520227
0.0126882
0.0215161
0.0298127
0.0369963
0.043031
0.0478901
0.0515892
0.0542685
0.0561273
0.0573381
0.058024
0.0582759
0.0581696
0.0577505
0.0571022
0.0562669
0.000671893
0.00446412
0.0115874
0.0200103
0.0278762
0.0345885
0.0401272
0.0444869
0.0476892
0.0498748
0.0512482
0.0519899
0.0522319
0.0520755
0.0516039
0.0508885
0.0499695
0.0490004
0.00204561
0.00608003
0.0136569
0.0223465
0.030088
0.036467
0.0416297
0.0455677
0.0482763
0.0499336
0.050798
0.0510756
0.0509031
0.0503854
0.0496081
0.0486512
0.0475265
0.046428
0.00472943
0.00942331
0.0181232
0.0274453
0.0350575
0.0410431
0.0458497
0.0494038
0.0516408
0.0528072
0.0532302
0.0531229
0.0526099
0.0517995
0.0507832
0.0496465
0.0483812
0.0471915
0.00871666
0.0148689
0.0252534
0.0351387
0.0425969
0.0483025
0.0527382
0.0556727
0.0571564
0.0576772
0.0576335
0.0571743
0.0563671
0.0553144
0.0541064
0.0528269
0.0514445
0.0501744
0.013982
0.0239401
0.0361863
0.0443414
0.0507174
0.0569907
0.0620705
0.064659
0.065169
0.0647598
0.0640047
0.0629709
0.0616654
0.0601993
0.0586451
0.0570768
0.0554271
0.0538864
0.0214646
0.0423923
0.0593316
0.0604445
0.059657
0.0636484
0.0695377
0.0733256
0.0745442
0.074513
0.0737428
0.0722343
0.0700668
0.0675153
0.0647156
0.0618254
0.0587759
0.055882
0.0433464
0.0760712
0.0937213
0.104719
0.0971679
0.0901409
0.0875816
0.0862829
0.0847977
0.0829913
0.0800946
0.075659
0.0698523
0.063312
0.0564501
0.0497502
0.0433752
0.0377735
0.0805396
0.213196
0.0680951
0.078674
0.167342
0.21473
0.214087
0.189289
0.158191
0.127613
0.0985235
0.0722069
0.0503269
0.0345976
0.0260877
0.025576
0.0331693
0.048759
0.659996
0.124867
0.315989
0.505944
0.373407
0.295747
0.229576
0.141701
0.0605621
0.0116296
0.0105543
0.0681168
0.189062
0.374743
0.620225
0.923576
1.27087
1.6601
31.8775
71.0678
43.2474
18.2728
7.06869
2.67218
1.11398
1.00735
1.81646
3.28496
5.25752
7.63436
10.2755
13.1571
16.1291
19.2248
22.242
25.2875
455.413
257.653
100.987
70.5616
91.6372
128.079
168.032
205.873
241.274
273.953
303.064
329.743
353.064
374.479
393.024
410.5
425.897
440.971
0
0
0
0
0
0
0
0
0
0
0
0
0
0
0
0
0
0
0
0
0
0
0
0
0
0
0
0
0
0
0
0
0
0
0
0
0
0
0
0
0
0
0
0
0
0
0
0
0
8.37639
8.96907
9.53839
10.0893
10.5908
0
0
0
0
0
0
15.34
17.0441
18.3379
19.9928
21.5971
23.348
25.1586
27.0675
29.0561
31.1343
33.2975
35.5494
37.8889
40.3179
42.8362
45.445
48.144
50.9339
53.8142
56.7851
59.8454
62.9949
66.2316
69.5547
72.9616
76.4507
80.0186
83.663
87.3796
91.1655
95.0154
98.9256
102.89
106.904
110.961
115.055
119.178
123.325
127.487
131.657
135.826
139.986
144.128
148.242
152.319
156.349
160.32
164.221
168.042
171.768
175.386
178.879
182.232
185.43
188.459
191.312
193.996
196.513
198.866
201.047
203.051
204.869
206.497
207.927
209.152
210.167
210.968
211.549
211.906
212.035
211.934
211.6
211.03
210.224
209.18
207.899
206.381
204.628
202.64
200.421
197.974
195.301
192.406
189.296
185.974
182.446
178.73
174.826
170.727
166.444
161.991
157.395
152.657
147.771
142.758
137.625
132.385
127.048
121.624
116.125
110.562
104.945
99.2855
93.5935
87.88
82.1556
76.4306
70.7148
65.0181
59.3499
53.7194
48.1353
42.6062
37.1406
31.7469
26.4343
21.214
16.1024
11.1344
6.43019
2.89842
4.71255
9.00789
13.5661
18.1518
22.717
27.2466
31.7336
36.1737
40.5618
44.8911
49.1487
53.3157
57.3365
61.1723
64.4066
67.3868
64.4808
0
0.00300686
0.00542564
0.0174633
0.0494785
0.103748
0.180096
0.275362
0.385737
0.507572
0.638603
0.778365
0.927457
1.0867
1.25692
1.43875
1.63277
1.83953
2.05994
2.29522
2.54721
2.81801
3.10975
3.42387
3.76091
4.12089
4.49715
4.86154
5.20096
5.53019
5.82071
6.02614
6.16156
6.21323
6.13324
5.93484
5.50704
4.88726
4.48922
4.33914
5.18522
5.44502
5.50547
5.22692
5.06076
4.96875
4.85517
4.71737
4.57416
4.42655
4.2755
4.12189
3.96689
3.81148
3.65655
3.50287
3.35116
3.20215
3.05654
2.91505
2.77844
2.64753
2.5232
2.40638
2.29803
2.19921
2.11099
2.03453
1.97098
1.92158
1.88753
1.8701
1.87051
1.89003
1.92983
1.99111
2.07495
2.18245
2.31456
2.47224
2.65626
2.86735
3.10603
3.37279
3.66786
3.99133
4.34295
4.72219
5.12822
5.55966
6.01471
6.49033
6.98185
7.48256
7.98441
8.47986
8.96229
9.42138
9.83992
10.2648
10.6878
11.1204
11.5634
12.0179
12.4834
12.9596
13.4458
13.941
14.4446
14.9557
15.4733
15.9965
16.5244
17.0558
17.5897
18.1252
18.661
19.1961
19.7291
20.2589
20.7846
21.3054
21.8204
22.3282
22.8276
23.3174
23.7965
24.2639
24.7187
25.1609
25.5909
26.0041
26.3985
26.7775
27.1438
27.4919
27.822
28.1338
28.4272
28.702
28.9582
29.1959
29.415
29.6158
29.7984
29.9631
30.11
30.2396
30.3522
30.4484
30.5286
30.5934
30.6434
30.6793
30.7017
30.7116
30.7099
30.6986
30.6788
30.651
30.6149
30.5792
30.5542
30.5142
30.4414
30.3531
30.2697
30.194
30.1247
30.0602
29.9993
29.9411
29.885
29.834
29.7889
29.8023
29.8682
30.7206
32.132
40.9174
0
0.0279975
0.096617
0.154035
0.21665
0.293332
0.392957
0.518897
0.668719
0.836783
1.0174
1.20662
1.40255
1.60489
1.81418
2.03121
2.2567
2.49117
2.73501
2.98842
3.25145
3.52374
3.80417
4.09049
4.37852
4.66194
4.93004
5.1714
5.37801
5.54806
5.66817
5.72636
5.72533
5.6799
5.59714
5.48016
5.32972
5.16375
5.04999
4.96922
4.95525
4.92182
4.92903
4.91779
4.9304
5.01683
5.15661
5.31932
5.50466
5.71216
5.94103
6.1899
6.4576
6.74305
7.04536
7.36376
7.69751
8.046
8.40864
8.78491
9.17426
9.57626
9.99043
10.4164
10.8537
11.302
11.761
12.2303
12.7096
13.1987
13.6973
14.2051
14.7221
15.248
15.7828
16.3263
16.8784
17.4389
18.0078
18.585
19.1703
19.7636
20.3646
20.9732
21.589
22.2114
22.84
23.4736
24.1115
24.7525
25.3964
26.0429
26.6926
27.3474
28.012
28.6962
29.4149
30.1863
31.0387
31.906
32.7892
33.6821
34.5822
35.4883
36.3991
37.3128
38.2276
39.1414
40.0523
40.9584
41.8576
42.7478
43.6269
44.4928
45.3434
46.1765
46.9903
47.7822
48.5499
49.2913
50.005
50.6894
51.3433
51.9644
52.5505
53.0995
53.6097
54.0796
54.5088
54.8965
55.2433
55.5442
55.7947
56.0019
56.1673
56.2864
56.3588
56.3844
56.3636
56.2972
56.186
56.0307
55.8323
55.5917
55.3101
54.9888
54.6292
54.2328
53.8014
53.3367
52.8406
52.3151
51.7623
51.1843
50.584
49.9638
49.3259
48.6721
48.0059
47.3289
46.6397
45.9372
45.2212
44.5039
43.8045
43.1199
42.4458
41.7844
41.136
40.4999
39.8756
39.2635
38.6651
38.0886
37.5492
37.1274
36.91
37.6694
39.8034
46.4695
0
0.130477
0.287113
0.399637
0.48835
0.5722
0.669829
0.7912
0.939069
1.11119
1.30274
1.50857
1.72459
1.94817
2.17787
2.41299
2.65309
2.89771
3.14616
3.39739
3.64986
3.90133
4.14866
4.38766
4.61287
4.81775
4.99512
5.13851
5.24531
5.31739
5.35374
5.35245
5.3261
5.29438
5.2668
5.24677
5.22825
5.23441
5.32413
5.55356
5.91307
6.27554
6.59885
6.87589
7.16074
7.48437
7.84201
8.2243
8.62908
9.05561
9.50343
9.97184
10.4601
10.9674
11.493
12.0362
12.5964
13.173
13.7655
14.3735
14.9967
15.6346
16.287
16.9538
17.6347
18.3298
19.0389
19.7621
20.4995
21.2512
22.0172
22.798
23.5935
24.4043
25.2304
26.0724
26.9304
27.8046
28.6954
29.603
30.5276
31.4693
32.4282
33.4043
34.3975
35.4078
36.4348
37.4782
38.5376
39.6131
40.7054
41.8156
42.9461
44.1004
45.2851
46.5073
47.7686
49.062
50.3774
51.7053
53.0472
54.3987
55.7561
57.1162
58.4763
59.8333
61.184
62.5253
63.8541
65.1673
66.4618
67.7344
68.982
70.2013
71.3893
72.5431
73.6595
74.7352
75.7669
76.7516
77.6873
78.5723
79.4044
80.1808
80.8986
81.555
82.1473
82.6739
83.1341
83.5285
83.8574
84.1112
84.289
84.4006
84.4433
84.4153
84.3157
84.1447
83.9033
83.5929
83.2152
82.7715
82.2637
81.6935
81.0632
80.3749
79.6312
78.8347
77.9885
77.0953
76.1585
75.1813
74.1676
73.1207
72.0439
70.94
69.8122
68.6621
67.494
66.314
65.128
63.938
62.7406
61.5308
60.3207
59.1176
57.9263
56.7544
55.606
54.4831
53.388
52.3245
51.3001
50.3344
49.4645
48.8131
48.5364
49.4561
51.9868
57.3125
0
0.280467
0.529077
0.710674
0.832274
0.924171
1.01651
1.12451
1.25501
1.40955
1.58595
1.78009
1.98751
2.20427
2.42733
2.65431
2.8833
3.1125
3.34009
3.56402
3.782
3.99147
4.18962
4.37361
4.54082
4.68936
4.81823
4.92789
5.021
5.1022
5.1755
5.24399
5.31495
5.39912
5.50308
5.62987
5.78271
5.9766
6.2404
6.58948
7.01389
7.47489
7.94244
8.40034
8.86498
9.35556
9.87546
10.4227
10.9963
11.5956
12.2201
12.8695
13.5432
14.2408
14.9618
15.7058
16.4726
17.2618
18.0734
18.907
19.7627
20.6405
21.5405
22.4628
23.4076
24.3754
25.3664
26.3811
27.42
28.4836
29.5724
30.6871
31.8281
32.996
34.1916
35.4152
36.6675
37.9487
39.2594
40.5999
41.9703
43.3707
44.8013
46.262
47.7525
49.2727
50.8223
52.4008
54.0078
55.6434
57.3079
59.0023
60.7276
62.4855
64.2781
66.1061
67.9646
69.8421
71.7298
73.6263
75.5316
77.4421
79.3531
81.2604
83.1595
85.0458
86.9146
88.7615
90.582
92.3716
94.1259
95.8406
97.5112
99.1335
100.703
102.217
103.67
105.057
106.376
107.622
108.793
109.886
110.9
111.83
112.673
113.426
114.086
114.651
115.12
115.497
115.774
115.95
116.02
116
115.881
115.665
115.35
114.939
114.432
113.831
113.141
112.362
111.497
110.551
109.525
108.424
107.251
106.009
104.704
103.34
101.921
100.451
98.9347
97.3763
95.7795
94.1484
92.489
90.8077
89.1093
87.3992
85.684
83.9693
82.2561
80.539
78.8206
77.1065
75.4063
73.7317
72.0908
70.4901
68.9361
67.4387
66.0148
64.699
63.5531
62.7362
62.451
63.4965
66.1254
70.304
0
0.44061
0.766226
1.02135
1.18319
1.28889
1.37872
1.47237
1.58007
1.70666
1.85276
2.01613
2.19314
2.37979
2.57238
2.76763
2.96273
3.15515
3.34264
3.52315
3.6949
3.8565
4.0071
4.14664
4.27598
4.39703
4.51252
4.62588
4.74107
4.86227
4.99299
5.13604
5.29524
5.47562
5.68183
5.91842
6.19082
6.50782
6.88126
7.31671
7.81061
8.35064
8.92213
9.51362
10.1256
10.7641
11.4322
12.1309
12.8604
13.6208
14.4122
15.2345
16.0878
16.972
17.8871
18.8331
19.81
20.8179
21.8572
22.928
24.0308
25.1662
26.3346
27.5369
28.7737
30.0459
31.3545
32.7004
34.0845
35.5079
36.9715
38.4764
40.0235
41.6137
43.2478
44.9267
46.651
48.4211
50.2376
52.1007
54.0104
55.9667
57.9694
60.0181
62.1122
64.251
66.4337
68.6593
70.9268
73.235
75.5835
77.9713
80.3975
82.861
85.3597
87.8893
90.4423
93.0083
95.58
98.155
100.731
103.305
105.87
108.42
110.951
113.454
115.925
118.357
120.744
123.079
125.358
127.574
129.721
131.794
133.789
135.699
137.519
139.244
140.869
142.39
143.805
145.11
146.303
147.379
148.334
149.167
149.872
150.448
150.898
151.219
151.406
151.459
151.38
151.178
150.846
150.387
149.801
149.09
148.257
147.305
146.238
145.06
143.774
142.386
140.899
139.319
137.65
135.899
134.07
132.168
130.199
128.169
126.082
123.945
121.764
119.547
117.3
115.03
112.745
110.45
108.152
105.858
103.572
101.293
99.0213
96.7601
94.5196
92.3134
90.1532
88.05
86.016
84.0684
82.2344
80.5638
79.14
78.1454
77.7951
78.813
81.2238
84.3791
0
0.58905
0.962897
1.2808
1.4824
1.60517
1.69577
1.77697
1.86164
1.95726
2.06695
2.1905
2.32572
2.46945
2.61835
2.76924
2.91937
3.06644
3.20864
3.34472
3.47405
3.59679
3.71388
3.82723
3.9396
4.05449
4.17576
4.3074
4.45316
4.61633
4.79955
5.00485
5.2345
5.49138
5.77891
6.10111
6.46292
6.8702
7.32887
7.84182
8.40826
9.02411
9.68315
10.3789
11.1087
11.8729
12.6726
13.5088
14.3822
15.2932
16.2424
17.2303
18.2573
19.3238
20.4305
21.5779
22.7665
23.9973
25.271
26.5886
27.9511
29.3599
30.8162
32.3214
33.877
35.4845
37.1456
38.8617
40.6346
42.4657
44.3567
46.3089
48.3237
50.4023
52.5458
54.7551
57.031
59.3739
61.7842
64.2617
66.8064
69.4177
72.0948
74.8366
77.6419
80.5092
83.4364
86.4216
89.4623
92.5561
95.7003
98.8921
102.128
105.404
108.715
112.054
115.411
118.778
122.144
125.507
128.861
132.201
135.52
138.811
142.064
145.273
148.428
151.523
154.549
157.499
160.365
163.14
165.816
168.387
170.847
173.189
175.406
177.492
179.443
181.252
182.918
184.437
185.805
187.018
188.072
188.965
189.693
190.254
190.652
190.878
190.936
190.822
190.547
190.112
189.514
188.756
187.84
186.769
185.547
184.179
182.67
181.026
179.251
177.353
175.336
173.206
170.971
168.637
166.21
163.697
161.105
158.441
155.715
152.933
150.104
147.236
144.338
141.418
138.483
135.542
132.602
129.668
126.747
123.844
120.96
118.098
115.269
112.485
109.763
107.118
104.567
102.136
99.8609
97.8049
96.0662
94.8348
94.3125
95.1286
97.0646
99.2506
0
0.71082
1.0971
1.45657
1.68887
1.82682
1.91912
1.98985
2.05351
2.11946
2.19282
2.27532
2.36646
2.46447
2.56705
2.67188
2.77698
2.88083
2.98255
3.08192
3.17939
3.27619
3.37429
3.4764
3.58583
3.7062
3.8413
3.99475
4.16988
4.36946
4.59571
4.85045
5.13546
5.45284
5.80518
6.19572
6.62824
7.10689
7.6355
8.21647
8.85042
9.53641
10.2721
11.0544
11.8812
12.7518
13.6664
14.6257
15.6305
16.6815
17.7796
18.9258
20.1212
21.3668
22.664
24.014
25.4183
26.8783
28.3959
29.9727
31.6109
33.3125
35.0798
36.9149
38.8204
40.7985
42.8517
44.9823
47.1926
49.4849
51.8612
54.3234
56.8732
59.5122
62.2417
65.0624
67.9752
70.9803
74.0776
77.2668
80.5469
83.9168
87.3748
90.9188
94.5465
98.2548
102.041
105.9
109.829
113.824
117.878
121.987
126.145
130.345
134.579
138.837
143.11
147.385
151.654
155.908
160.142
164.346
168.512
172.631
176.692
180.685
184.6
188.427
192.157
195.781
199.288
202.67
205.918
209.024
211.981
214.781
217.415
219.877
222.161
224.263
226.178
227.903
229.434
230.766
231.897
232.823
233.542
234.054
234.359
234.448
234.329
233.999
233.473
232.75
231.826
230.707
229.396
227.899
226.22
224.367
222.346
220.163
217.826
215.342
212.718
209.963
207.083
204.087
200.985
197.786
194.499
191.133
187.697
184.202
180.658
177.073
173.459
169.823
166.176
162.526
158.88
155.246
151.632
148.046
144.492
140.975
137.505
134.096
130.767
127.537
124.429
121.474
118.719
116.235
114.127
112.583
111.771
112.23
113.514
114.785
0
0.80207
1.16219
1.53657
1.78482
1.93146
2.0234
2.08441
2.12955
2.16933
2.21031
2.25586
2.30707
2.36371
2.42486
2.48947
2.55663
2.62592
2.69726
2.77112
2.84861
2.93144
3.02188
3.12263
3.23682
3.36781
3.51896
3.69348
3.89431
4.12398
4.38464
4.67814
5.00626
5.3709
5.77429
6.21908
6.70827
7.24505
7.83242
8.47269
9.16731
9.91652
10.7202
11.5776
12.4883
13.4518
14.4686
15.5396
16.6658
17.8484
19.0888
20.3888
21.7501
23.1747
24.6647
26.2225
27.8504
29.551
31.3271
33.1815
35.1175
37.1381
39.2468
41.4468
43.7415
46.1344
48.6288
51.2278
53.9344
56.7516
59.6819
62.7277
65.891
69.1733
72.5761
76.1
79.7455
83.5124
87.3999
91.4069
95.5317
99.7718
104.124
108.586
113.153
117.82
122.582
127.434
132.369
137.38
142.459
147.599
152.791
158.024
163.289
168.574
173.865
179.151
184.42
189.66
194.863
200.018
205.112
210.135
215.074
219.917
224.652
229.267
233.751
238.091
242.277
246.299
250.145
253.808
257.278
260.545
263.6
266.437
269.049
271.432
273.58
275.491
277.158
278.58
279.752
280.673
281.34
281.757
281.915
281.815
281.461
280.857
280.019
278.941
277.625
276.075
274.298
272.301
270.091
267.676
265.064
262.264
259.285
256.134
252.823
249.361
245.759
242.027
238.176
234.218
230.163
226.023
221.809
217.533
213.205
208.837
204.441
200.026
195.603
191.182
186.771
182.378
178.015
173.691
169.414
165.189
161.029
156.949
152.968
149.11
145.403
141.884
138.604
135.643
133.106
131.166
129.954
129.926
130.442
130.854
0
0.864542
1.1627
1.52564
1.77258
1.91879
2.00594
2.05644
2.0851
2.10282
2.11705
2.1324
2.1514
2.17533
2.20452
2.23895
2.27867
2.32374
2.37508
2.43372
2.50116
2.57927
2.67023
2.7765
2.90071
3.04563
3.21416
3.40903
3.63288
3.88811
4.17692
4.50132
4.86324
5.26468
5.70782
6.19507
6.7291
7.31268
7.94859
8.63937
9.38713
10.1935
11.0595
11.9857
12.9727
14.0215
15.1333
16.3098
17.5526
18.8638
20.2458
21.7011
23.2326
24.8434
26.5369
28.3163
30.1855
32.1482
34.2085
36.3706
38.639
41.0181
43.5126
46.1271
48.8659
51.7337
54.7345
57.8724
61.1512
64.5742
68.1445
71.8646
75.7366
79.762
83.9418
88.2764
92.7654
97.4078
102.202
107.145
112.235
117.467
122.837
128.339
133.967
139.715
145.575
151.538
157.596
163.738
169.955
176.235
182.566
188.937
195.333
201.74
208.143
214.527
220.877
227.182
233.426
239.598
245.682
251.665
257.533
263.27
268.862
274.297
279.56
284.638
289.518
294.188
298.637
302.854
306.829
310.551
314.01
317.2
320.113
322.745
325.091
327.145
328.905
330.367
331.529
332.389
332.947
333.202
333.151
332.794
332.137
331.189
329.964
328.456
326.669
324.609
322.286
319.708
316.884
313.824
310.539
307.039
303.335
299.438
295.361
291.116
286.715
282.172
277.498
272.708
267.815
262.831
257.77
252.645
247.469
242.254
237.014
231.759
226.501
221.251
216.019
210.815
205.651
200.538
195.487
190.507
185.611
180.815
176.141
171.614
167.267
163.141
159.293
155.803
152.773
150.357
148.646
148.032
147.711
147.316
0
0.903426
1.11068
1.43935
1.66905
1.80481
1.88142
1.91927
1.9324
1.93174
1.92536
1.91847
1.91448
1.91529
1.92259
1.93741
1.96067
1.99332
2.03631
2.09084
2.15832
2.24038
2.33884
2.45572
2.59322
2.75366
2.93948
3.15316
3.39716
3.67386
3.98559
4.33456
4.72302
5.15321
5.62751
6.14847
6.71876
7.34121
8.01872
8.75413
9.5501
10.4092
11.3336
12.3254
13.3872
14.521
15.7289
17.0134
18.3773
19.8241
21.3575
22.9814
24.7001
26.5183
28.4405
30.4716
32.6167
34.8811
37.2705
39.7907
42.4476
45.247
48.195
51.2974
54.5597
57.9875
61.5857
65.3589
69.3115
73.447
77.7686
82.2787
86.9791
91.8706
96.9536
102.227
107.691
113.341
119.175
125.188
131.376
137.733
144.251
150.923
157.74
164.693
171.771
178.963
186.257
193.639
201.097
208.616
216.181
223.777
231.386
238.993
246.579
254.126
261.617
269.037
276.369
283.597
290.704
297.673
304.487
311.131
317.588
323.843
329.879
335.683
341.24
346.536
351.559
356.297
360.739
364.873
368.689
372.18
375.339
378.161
380.641
382.774
384.556
385.987
387.063
387.786
388.153
388.167
387.823
387.127
386.083
384.705
383.007
380.98
378.632
375.974
373.016
369.768
366.244
362.454
358.412
354.129
349.619
344.896
339.975
334.869
329.595
324.166
318.598
312.906
307.105
301.211
295.238
289.202
283.116
276.995
270.852
264.701
258.555
252.424
246.321
240.257
234.246
228.3
222.432
216.655
210.981
205.429
200.023
194.789
189.764
184.993
180.534
176.465
172.881
169.918
167.626
166.351
165.161
164.01
0
0.925773
1.02184
1.29923
1.4987
1.61461
1.67468
1.69726
1.69539
1.67959
1.65755
1.63537
1.61701
1.60544
1.60251
1.60966
1.62806
1.65878
1.70283
1.7614
1.8357
1.92704
2.03691
2.16697
2.31907
2.4952
2.69755
2.92836
3.19006
3.4851
3.81597
4.1852
4.59537
5.04918
5.54943
6.09899
6.70094
7.35853
8.07518
8.85442
9.69977
10.6146
11.6025
12.6676
13.8135
15.0433
16.3611
17.7707
19.2764
20.8834
22.5973
24.424
26.3696
28.4403
30.6422
32.982
35.4663
38.1023
40.8974
43.859
46.9946
50.3116
53.8171
57.5179
61.4208
65.5315
69.8558
74.3984
79.1635
84.1546
89.3741
94.8239
100.505
106.416
112.557
118.925
125.517
132.328
139.354
146.586
154.018
161.641
169.445
177.42
185.553
193.831
202.242
210.77
219.4
228.116
236.9
245.736
254.605
263.488
272.366
281.218
290.025
298.765
307.419
315.969
324.394
332.676
340.796
348.734
356.472
363.992
371.276
378.307
385.067
391.542
397.714
403.571
409.098
414.283
419.113
423.576
427.664
431.368
434.682
437.601
440.119
442.232
443.939
445.237
446.127
446.608
446.683
446.35
445.613
444.474
442.94
441.032
438.761
436.111
433.105
429.751
426.063
422.054
417.738
413.13
408.243
403.093
397.696
392.067
386.224
380.183
373.961
367.576
361.045
354.385
347.613
340.747
333.803
326.798
319.747
312.667
305.572
298.477
291.395
284.34
277.323
270.359
263.462
256.646
249.926
243.315
236.829
230.489
224.318
218.346
212.61
207.158
202.047
197.354
193.165
189.593
186.657
184.672
182.602
180.744
0
0.938322
0.91226
1.12803
1.28823
1.37716
1.41587
1.42028
1.40291
1.37404
1.34173
1.31152
1.28746
1.27245
1.26852
1.27721
1.29961
1.33665
1.38915
1.45798
1.54406
1.64841
1.77227
1.91701
2.08427
2.27589
2.494
2.74086
3.01896
3.33092
3.67951
4.06768
4.49852
4.97534
5.50158
6.0809
6.71715
7.41427
8.17678
9.00936
9.91685
10.9047
11.9772
13.1391
14.3957
15.7529
17.2167
18.7935
20.4897
22.3128
24.2703
26.3703
28.6209
31.03
33.6054
36.3557
39.2895
42.4159
45.7439
49.2827
53.0409
57.027
61.2491
65.7144
70.4299
75.4014
80.6341
86.1323
91.8993
97.9372
104.247
110.829
117.682
124.803
132.189
139.835
147.735
155.88
164.264
172.875
181.704
190.736
199.961
209.363
218.926
228.635
238.473
248.42
258.459
268.569
278.729
288.921
299.122
309.311
319.464
329.559
339.573
349.483
359.266
368.903
378.37
387.647
396.711
405.543
414.122
422.429
430.444
438.15
445.528
452.562
459.235
465.533
471.441
476.946
482.036
486.699
490.926
494.711
498.047
500.927
503.35
505.309
506.806
507.838
508.407
508.517
508.165
507.36
506.106
504.399
502.255
499.704
496.739
493.357
489.583
485.428
480.908
476.04
470.838
465.319
459.501
453.399
447.032
440.419
433.579
426.531
419.293
411.887
404.33
396.643
388.844
380.953
372.987
364.964
356.903
348.821
340.732
332.654
324.6
316.585
308.623
300.729
292.917
285.203
277.604
270.134
262.812
255.658
248.697
241.962
235.489
229.327
223.533
218.179
213.34
209.111
205.485
202.761
199.818
197.298
0
0.947051
0.796311
0.947002
1.06341
1.12013
1.13336
1.11783
1.0853
1.0457
1.00672
0.97392
0.951092
0.940654
0.944144
0.96253
0.996464
1.04646
1.11302
1.1967
1.29816
1.41827
1.5581
1.71895
1.90242
2.1104
2.34512
2.60906
2.90502
3.23606
3.60554
4.01692
4.47422
4.98158
5.54352
6.16494
6.85131
7.60874
8.4425
9.35855
10.3632
11.4623
12.6637
13.9749
15.4039
16.9593
18.6496
20.4837
22.4711
24.6214
26.9445
29.4507
32.1496
35.051
38.1648
41.5013
45.0713
48.8854
52.9539
57.2869
61.8935
66.7824
71.9612
77.4368
83.2147
89.2996
95.6949
102.403
109.424
116.759
124.405
132.36
140.618
149.174
158.021
167.149
176.55
186.212
196.122
206.266
216.63
227.198
237.953
248.876
259.949
271.153
282.465
293.864
305.327
316.833
328.358
339.879
351.373
362.813
374.175
385.434
396.565
407.542
418.343
428.944
439.322
449.454
459.316
468.887
478.147
487.075
495.652
503.858
511.675
519.086
526.076
532.63
538.731
544.369
549.53
554.206
558.387
562.067
565.24
567.901
570.049
571.677
572.792
573.386
573.471
573.041
572.109
570.685
568.759
566.341
563.453
560.128
556.336
552.097
547.437
542.369
536.911
531.081
524.895
518.374
511.536
504.4
496.986
489.315
481.409
473.289
464.976
456.492
447.857
439.094
430.222
421.262
412.235
403.16
394.055
384.939
375.829
366.741
357.692
348.696
339.769
330.926
322.183
313.556
305.063
296.72
288.547
280.565
272.801
265.286
258.06
251.168
244.668
238.625
233.104
228.187
223.843
220.365
216.567
213.433
0
0.957799
0.686689
0.774003
0.845416
0.868048
0.85397
0.817216
0.769834
0.721822
0.680466
0.65058
0.635054
0.635461
0.652461
0.686256
0.73683
0.804179
0.888428
0.989908
1.10918
1.24708
1.40475
1.58369
1.78573
2.01313
2.26859
2.55512
2.87624
3.236
3.63898
4.09067
4.59616
5.16098
5.79111
6.49319
7.27434
8.14248
9.10587
10.1731
11.3529
12.6549
14.0897
15.6681
17.4017
19.302
21.3808
23.65
26.1221
28.809
31.7228
34.875
38.2767
41.939
45.8738
50.093
54.6084
59.4312
64.5714
70.0379
75.8387
81.9802
88.4678
95.3053
102.495
110.038
117.935
126.182
134.777
143.715
152.989
162.592
172.514
182.745
193.272
204.084
215.164
226.498
238.067
249.855
261.843
274.011
286.338
298.804
311.386
324.062
336.807
349.597
362.409
375.217
387.994
400.716
413.356
425.887
438.284
450.52
462.569
474.405
486.004
497.341
508.394
519.137
529.548
539.605
549.289
558.578
567.453
575.894
583.883
591.406
598.448
604.994
611.027
616.538
621.516
625.952
629.84
633.173
635.948
638.157
639.805
640.882
641.4
641.354
640.743
639.588
637.897
635.665
632.897
629.607
625.83
621.575
616.811
611.584
605.913
599.814
593.306
586.41
579.145
571.531
563.59
555.342
546.81
538.016
528.985
519.739
510.301
500.694
490.942
481.067
471.091
461.036
450.923
440.773
430.607
420.442
410.298
400.191
390.138
380.156
370.259
360.464
350.788
341.248
331.861
322.645
313.621
304.81
296.24
287.942
279.956
272.327
265.108
258.36
252.14
246.515
241.44
237.212
232.585
228.891
0
0.9737
0.587701
0.61649
0.643401
0.629925
0.587174
0.529728
0.470046
0.417794
0.379393
0.35846
0.35657
0.374006
0.410346
0.46486
0.536857
0.625873
0.731883
0.855261
0.996761
1.15756
1.3394
1.54459
1.77613
2.03761
2.33264
2.66554
3.04129
3.4658
3.94595
4.4891
5.10349
5.79754
6.58046
7.46224
8.45382
9.56623
10.8128
12.2066
13.7616
15.4919
17.412
19.5369
21.8817
24.4611
27.2897
30.382
33.7526
37.4147
41.3807
45.6629
50.2693
55.2131
60.5062
66.1599
72.1836
78.5852
85.3704
92.5433
100.106
108.06
116.404
125.136
134.251
143.743
153.606
163.831
174.409
185.327
196.573
208.133
219.993
232.136
244.545
257.202
270.089
283.185
296.47
309.921
323.518
337.239
351.06
364.958
378.91
392.889
406.873
420.834
434.747
448.584
462.321
475.933
489.392
502.673
515.749
528.595
541.184
553.493
565.497
577.172
588.494
599.442
609.992
620.125
629.821
639.063
647.83
656.102
663.864
671.102
677.805
683.958
689.545
694.559
698.993
702.836
706.086
708.735
710.788
712.228
713.072
713.302
712.949
711.967
710.434
708.311
705.617
702.354
698.531
694.172
689.327
683.944
678.042
671.665
664.832
657.561
649.872
641.788
633.329
624.517
615.375
605.926
596.194
586.204
575.98
565.547
554.93
544.153
533.24
522.215
511.102
499.922
488.7
477.455
466.209
454.982
443.792
432.657
421.594
410.62
399.751
389.003
378.395
367.943
357.666
347.581
337.708
328.072
318.697
309.618
300.87
292.499
284.555
277.093
270.162
263.819
258.01
253.039
247.609
243.426
0
0.986426
0.505445
0.487071
0.475382
0.430461
0.364248
0.292317
0.227387
0.178327
0.150075
0.144502
0.161572
0.200274
0.25924
0.337143
0.433068
0.546864
0.67906
0.830755
1.00356
1.19968
1.42229
1.67566
1.96497
2.29606
2.6755
3.11033
3.6091
4.18201
4.84067
5.59751
6.46566
7.45925
8.59298
9.88348
11.3488
13.0089
14.8827
16.9888
19.3452
21.9701
24.8821
28.0997
31.6405
35.5198
39.7509
44.3472
49.3215
54.6846
60.447
66.6109
73.1846
80.1781
87.5972
95.4448
103.721
112.422
121.546
131.084
141.031
151.376
162.109
173.217
184.688
196.508
208.661
221.132
233.903
246.958
260.277
273.842
287.635
301.634
315.82
330.173
344.671
359.293
374.016
388.818
403.679
418.575
433.483
448.381
463.246
478.052
492.775
507.389
521.871
536.196
550.342
564.285
578.001
591.464
604.651
617.538
630.103
642.322
654.173
665.633
676.679
687.292
697.451
707.139
716.34
725.037
733.211
740.847
747.927
754.451
760.401
765.764
770.523
774.675
778.209
781.124
783.415
785.07
786.11
786.501
786.288
785.402
783.923
781.817
779.102
775.788
771.886
767.399
762.352
756.788
750.709
744.061
736.908
729.281
721.198
712.678
703.745
694.421
684.728
674.69
664.328
653.669
642.736
631.557
620.156
608.56
596.794
584.882
572.85
560.722
548.52
536.27
523.993
511.712
499.448
487.219
475.047
462.947
450.937
439.035
427.256
415.618
404.138
392.832
381.717
370.81
360.136
349.715
339.577
329.751
320.275
311.191
302.547
294.393
286.77
279.731
273.213
267.535
261.336
256.775
0
0.990437
0.444984
0.398279
0.36032
0.294137
0.21456
0.138359
0.0777575
0.0399628
0.0278334
0.0413639
0.0792589
0.139966
0.22203
0.324344
0.446703
0.590248
0.757483
0.951749
1.17694
1.43801
1.74179
2.09756
2.51631
3.01011
3.59087
4.27275
5.07236
6.01001
7.10845
8.39248
9.88664
11.6128
13.594
15.8558
18.4248
21.3275
24.5888
28.23
32.27
36.7235
41.6049
46.928
52.7039
58.9419
65.6485
72.8268
80.4816
88.6019
97.1792
106.202
115.688
125.625
136.001
146.801
158.01
169.61
181.584
193.912
206.577
219.559
232.84
246.399
260.217
274.274
288.551
303.029
317.689
332.512
347.478
362.568
377.764
393.048
408.4
423.802
439.235
454.679
470.117
485.529
500.896