/*--------------------------------*- C++ -*----------------------------------*\
  =========                 |
  \\      /  F ield         | OpenFOAM: The Open Source CFD Toolbox
   \\    /   O peration     | Website:  https://openfoam.org
    \\  /    A nd           | Version:  9
     \\/     M anipulation  |
\*---------------------------------------------------------------------------*/
FoamFile
{
    format      ascii;
    class       volVectorField;
    location    "285";
    object      U;
}
// * * * * * * * * * * * * * * * * * * * * * * * * * * * * * * * * * * * * * //

dimensions      [0 1 -1 0 0 0 0];

internalField   nonuniform List<vector> 
12225
(
(9.85699 -0.886639 0)
(9.6663 -0.740718 0)
(9.4558 -0.429421 0)
(9.22455 -0.222147 0)
(9.00655 -0.106401 0)
(8.81446 -0.0458203 0)
(8.64762 -0.0151309 0)
(8.50546 0.000483362 0)
(8.38387 0.00840895 0)
(8.28117 0.0122919 0)
(8.19287 0.0139866 0)
(8.1168 0.0149806 0)
(8.05022 0.0153825 0)
(7.99146 0.015525 0)
(7.93855 0.0155428 0)
(7.89271 0.0153008 0)
(7.84005 0.0174157 0)
(7.83103 0.0099714 0)
(10.0545 0.227708 0)
(10.1213 0.326964 0)
(10.1196 0.261651 0)
(10.0856 0.18659 0)
(10.0435 0.134693 0)
(9.99677 0.101129 0)
(9.94406 0.0792874 0)
(9.88535 0.0645614 0)
(9.82402 0.0542469 0)
(9.76155 0.0466508 0)
(9.70014 0.0408739 0)
(9.6404 0.0363055 0)
(9.58319 0.0326145 0)
(9.52891 0.0297179 0)
(9.47727 0.0271649 0)
(9.42982 0.0261296 0)
(9.38262 0.0228179 0)
(9.34778 0.0310969 0)
(10.0035 0.0581547 0)
(10.0305 0.055949 0)
(10.056 0.0337732 0)
(10.0704 0.0328842 0)
(10.077 0.0406311 0)
(10.0779 0.0465262 0)
(10.0726 0.0493373 0)
(10.0615 0.0502777 0)
(10.0463 0.0501682 0)
(10.0279 0.0494452 0)
(10.0074 0.0483881 0)
(9.98529 0.047204 0)
(9.96225 0.0459923 0)
(9.93873 0.0448773 0)
(9.91498 0.0437488 0)
(9.89175 0.0431573 0)
(9.86871 0.0420695 0)
(9.84706 0.0435539 0)
(9.99772 0.0109483 0)
(10.0111 0.0266183 0)
(10.035 0.03712 0)
(10.0525 0.0480621 0)
(10.0644 0.0554295 0)
(10.0735 0.0581596 0)
(10.0796 0.058325 0)
(10.0825 0.057577 0)
(10.0829 0.0565193 0)
(10.0814 0.0553118 0)
(10.0784 0.0540229 0)
(10.0741 0.0527697 0)
(10.0688 0.0515456 0)
(10.0628 0.0504423 0)
(10.0561 0.049359 0)
(10.0493 0.0486352 0)
(10.0424 0.0476552 0)
(10.0355 0.0474869 0)
(9.99935 0.00709947 0)
(10.009 0.0316932 0)
(10.0275 0.0439045 0)
(10.0418 0.0499034 0)
(10.0528 0.0535899 0)
(10.0629 0.0552097 0)
(10.0716 0.055483 0)
(10.0784 0.055185 0)
(10.0836 0.0546305 0)
(10.0875 0.0539118 0)
(10.0903 0.0530825 0)
(10.0923 0.0522355 0)
(10.0935 0.0513839 0)
(10.0942 0.0505925 0)
(10.0945 0.0498115 0)
(10.0945 0.0492001 0)
(10.0944 0.0484675 0)
(10.0943 0.0479183 0)
(10.0003 0.00914829 0)
(10.0083 0.0312088 0)
(10.0227 0.0409405 0)
(10.035 0.0453792 0)
(10.0451 0.049017 0)
(10.0548 0.0513442 0)
(10.0638 0.0523159 0)
(10.0715 0.0525379 0)
(10.078 0.0523897 0)
(10.0836 0.0520081 0)
(10.0885 0.0514678 0)
(10.0927 0.0508545 0)
(10.0964 0.0502005 0)
(10.0997 0.0495515 0)
(10.1026 0.0488883 0)
(10.1054 0.0482719 0)
(10.108 0.0475657 0)
(10.1106 0.04678 0)
(10.0005 0.00892242 0)
(10.0071 0.0271086 0)
(10.0191 0.0364102 0)
(10.0302 0.0413784 0)
(10.0396 0.0453915 0)
(10.0487 0.0480464 0)
(10.0573 0.0493035 0)
(10.065 0.0497587 0)
(10.0718 0.0498138 0)
(10.078 0.0496137 0)
(10.0835 0.0492349 0)
(10.0886 0.0487523 0)
(10.0933 0.0482062 0)
(10.0976 0.0476282 0)
(10.1017 0.0470121 0)
(10.1055 0.0463719 0)
(10.1093 0.0456318 0)
(10.1131 0.0447244 0)
(10.0004 0.0078992 0)
(10.006 0.0233844 0)
(10.0161 0.03273 0)
(10.0263 0.0380872 0)
(10.0352 0.0420702 0)
(10.0436 0.044741 0)
(10.0518 0.0461373 0)
(10.0593 0.0467534 0)
(10.066 0.0469536 0)
(10.0723 0.0468817 0)
(10.078 0.0466149 0)
(10.0834 0.0462211 0)
(10.0885 0.0457431 0)
(10.0932 0.0452048 0)
(10.0977 0.044605 0)
(10.1021 0.0439372 0)
(10.1063 0.0431523 0)
(10.1105 0.0421826 0)
(10.0004 0.00694916 0)
(10.005 0.0204208 0)
(10.0137 0.0294439 0)
(10.0229 0.0348428 0)
(10.0312 0.0386813 0)
(10.0392 0.041329 0)
(10.0469 0.0428442 0)
(10.0541 0.0435976 0)
(10.0607 0.043912 0)
(10.0669 0.0439365 0)
(10.0727 0.0437507 0)
(10.0781 0.0434181 0)
(10.0832 0.0429815 0)
(10.0881 0.0424618 0)
(10.0928 0.0418597 0)
(10.0974 0.0411636 0)
(10.1018 0.0403381 0)
(10.1061 0.0393371 0)
(10.0004 0.00612165 0)
(10.0043 0.0178497 0)
(10.0116 0.0262618 0)
(10.0199 0.0315583 0)
(10.0277 0.0352702 0)
(10.0352 0.0378809 0)
(10.0425 0.039474 0)
(10.0494 0.0403284 0)
(10.0558 0.0407275 0)
(10.0618 0.0408231 0)
(10.0675 0.0406959 0)
(10.0729 0.0404061 0)
(10.0781 0.0399946 0)
(10.083 0.0394819 0)
(10.0877 0.0388706 0)
(10.0922 0.0381508 0)
(10.0966 0.0372971 0)
(10.1009 0.0362871 0)
(10.0003 0.0053633 0)
(10.0037 0.0155379 0)
(10.0099 0.0232201 0)
(10.0173 0.0283181 0)
(10.0245 0.0318871 0)
(10.0315 0.03442 0)
(10.0384 0.0360367 0)
(10.045 0.0369535 0)
(10.0513 0.0374115 0)
(10.0571 0.037558 0)
(10.0627 0.0374734 0)
(10.068 0.0372137 0)
(10.0731 0.0368184 0)
(10.0779 0.0363083 0)
(10.0826 0.0356887 0)
(10.0871 0.0349539 0)
(10.0914 0.0340878 0)
(10.0956 0.0330862 0)
(10.0003 0.00469873 0)
(10.0032 0.0135962 0)
(10.0086 0.0205708 0)
(10.0152 0.0254024 0)
(10.0219 0.0288046 0)
(10.0286 0.0312308 0)
(10.0351 0.0328271 0)
(10.0414 0.033769 0)
(10.0474 0.0342594 0)
(10.0531 0.0344361 0)
(10.0586 0.0343776 0)
(10.0638 0.034137 0)
(10.0688 0.0337519 0)
(10.0735 0.0332437 0)
(10.0781 0.0326206 0)
(10.0825 0.0318815 0)
(10.0867 0.0310173 0)
(10.0907 0.0300377 0)
(10.0003 0.00408392 0)
(10.0028 0.0118264 0)
(10.0075 0.0180693 0)
(10.0134 0.0225584 0)
(10.0197 0.0257593 0)
(10.0259 0.0280536 0)
(10.0321 0.0295972 0)
(10.0381 0.0305374 0)
(10.0439 0.0310421 0)
(10.0495 0.0312359 0)
(10.0548 0.0311943 0)
(10.0598 0.0309673 0)
(10.0647 0.0305908 0)
(10.0694 0.0300867 0)
(10.0738 0.0294657 0)
(10.0781 0.0287316 0)
(10.0822 0.0278805 0)
(10.0861 0.0269327 0)
(10.0002 0.00344874 0)
(10.0024 0.00998734 0)
(10.0064 0.0153863 0)
(10.0117 0.0194079 0)
(10.0174 0.0223239 0)
(10.0232 0.0244264 0)
(10.029 0.0258667 0)
(10.0348 0.0267677 0)
(10.0403 0.0272622 0)
(10.0457 0.027457 0)
(10.0508 0.0274218 0)
(10.0557 0.0272034 0)
(10.0604 0.0268347 0)
(10.065 0.0263382 0)
(10.0693 0.0257267 0)
(10.0734 0.0250084 0)
(10.0774 0.0241846 0)
(10.0812 0.0232823 0)
(10.0002 0.00278917 0)
(10.002 0.00807728 0)
(10.0055 0.0125323 0)
(10.0101 0.0159566 0)
(10.0153 0.0184855 0)
(10.0206 0.0203211 0)
(10.0261 0.0215942 0)
(10.0314 0.0224047 0)
(10.0367 0.0228529 0)
(10.0418 0.0230246 0)
(10.0468 0.0229805 0)
(10.0515 0.0227623 0)
(10.0561 0.0224 0)
(10.0604 0.0219151 0)
(10.0646 0.0213224 0)
(10.0686 0.020633 0)
(10.0724 0.0198522 0)
(10.076 0.0190105 0)
(10.0002 0.0021046 0)
(10.0017 0.00609824 0)
(10.0047 0.00951594 0)
(10.0088 0.0122095 0)
(10.0134 0.0142326 0)
(10.0183 0.0157087 0)
(10.0233 0.0167363 0)
(10.0283 0.0173909 0)
(10.0333 0.0177438 0)
(10.0382 0.0178584 0)
(10.0429 0.017783 0)
(10.0475 0.0175525 0)
(10.0518 0.0171926 0)
(10.056 0.0167228 0)
(10.06 0.0161578 0)
(10.0639 0.0155102 0)
(10.0675 0.0147874 0)
(10.071 0.0140203 0)
(10.0002 0.00139215 0)
(10.0015 0.00403633 0)
(10.0041 0.00632118 0)
(10.0076 0.00815013 0)
(10.0118 0.00953712 0)
(10.0163 0.0105461 0)
(10.0209 0.0112376 0)
(10.0256 0.0116601 0)
(10.0303 0.0118585 0)
(10.035 0.0118738 0)
(10.0394 0.0117391 0)
(10.0438 0.0114798 0)
(10.048 0.0111154 0)
(10.052 0.0106617 0)
(10.0559 0.0101314 0)
(10.0595 0.00953614 0)
(10.063 0.00888319 0)
(10.0663 0.00820106 0)
(10.0001 0.000635528 0)
(10.0013 0.00183993 0)
(10.0036 0.00287627 0)
(10.0068 0.00369901 0)
(10.0107 0.0043093 0)
(10.0148 0.00472936 0)
(10.0192 0.00498192 0)
(10.0236 0.00508688 0)
(10.0281 0.0050636 0)
(10.0325 0.00493052 0)
(10.0368 0.00470337 0)
(10.0409 0.00439511 0)
(10.045 0.00401662 0)
(10.0488 0.00357749 0)
(10.0525 0.00308625 0)
(10.056 0.00255131 0)
(10.0593 0.00197789 0)
(10.0625 0.0013898 0)
(10.0001 -0.000208242 0)
(10.0012 -0.000612569 0)
(10.0034 -0.000991609 0)
(10.0065 -0.0013357 0)
(10.0102 -0.00164351 0)
(10.0143 -0.00192912 0)
(10.0185 -0.00221039 0)
(10.0228 -0.00249938 0)
(10.0271 -0.00280324 0)
(10.0313 -0.00312742 0)
(10.0355 -0.00347593 0)
(10.0395 -0.00385084 0)
(10.0434 -0.00425243 0)
(10.0471 -0.00467967 0)
(10.0507 -0.00513063 0)
(10.0541 -0.00560219 0)
(10.0573 -0.00609283 0)
(10.0604 -0.00658563 0)
(10.0001 -0.00101513 0)
(10.0013 -0.00296515 0)
(10.0037 -0.00470857 0)
(10.007 -0.00616462 0)
(10.0108 -0.00732942 0)
(10.015 -0.00826279 0)
(10.0193 -0.00902608 0)
(10.0237 -0.00966121 0)
(10.028 -0.0102023 0)
(10.0323 -0.0106806 0)
(10.0364 -0.0111207 0)
(10.0404 -0.011539 0)
(10.0442 -0.0119462 0)
(10.0479 -0.0123496 0)
(10.0514 -0.0127537 0)
(10.0547 -0.0131607 0)
(10.0579 -0.0135725 0)
(10.0609 -0.0139784 0)
(10.0002 -0.00171083 0)
(10.0015 -0.00501942 0)
(10.0041 -0.00795679 0)
(10.0078 -0.0103193 0)
(10.012 -0.0121278 0)
(10.0164 -0.0135322 0)
(10.021 -0.0146387 0)
(10.0255 -0.0155042 0)
(10.03 -0.0161854 0)
(10.0343 -0.0167407 0)
(10.0385 -0.0172142 0)
(10.0425 -0.0176343 0)
(10.0464 -0.01802 0)
(10.0501 -0.0183848 0)
(10.0536 -0.0187377 0)
(10.0569 -0.0190841 0)
(10.06 -0.019428 0)
(10.063 -0.0197624 0)
(10.0002 -0.00237139 0)
(10.0016 -0.00704923 0)
(10.0047 -0.011203 0)
(10.009 -0.0143826 0)
(10.0137 -0.0166885 0)
(10.0185 -0.0184313 0)
(10.0233 -0.019771 0)
(10.0281 -0.0207783 0)
(10.0328 -0.0215346 0)
(10.0373 -0.0221208 0)
(10.0416 -0.0225933 0)
(10.0456 -0.0229884 0)
(10.0495 -0.0233324 0)
(10.0532 -0.0236446 0)
(10.0567 -0.023938 0)
(10.06 -0.0242202 0)
(10.0632 -0.0244964 0)
(10.0661 -0.0247624 0)
(10.0002 -0.0029892 0)
(10.0018 -0.00910533 0)
(10.0054 -0.0144729 0)
(10.0105 -0.0183711 0)
(10.0159 -0.0211229 0)
(10.0211 -0.0231526 0)
(10.0263 -0.0246154 0)
(10.0314 -0.0256363 0)
(10.0362 -0.0263694 0)
(10.0409 -0.0269246 0)
(10.0452 -0.0273581 0)
(10.0494 -0.0277053 0)
(10.0533 -0.0279956 0)
(10.057 -0.0282511 0)
(10.0605 -0.0284859 0)
(10.0639 -0.0287083 0)
(10.067 -0.0289237 0)
(10.0699 -0.0291297 0)
(10.0001 -0.00353227 0)
(10.0018 -0.0115608 0)
(10.0062 -0.0179089 0)
(10.0123 -0.0220132 0)
(10.0183 -0.0250856 0)
(10.024 -0.0275007 0)
(10.0296 -0.0291444 0)
(10.035 -0.03016 0)
(10.0401 -0.0308175 0)
(10.0448 -0.0312817 0)
(10.0493 -0.0316201 0)
(10.0536 -0.0318731 0)
(10.0575 -0.0320744 0)
(10.0613 -0.0322479 0)
(10.0648 -0.0324068 0)
(10.0681 -0.0325586 0)
(10.0712 -0.0327066 0)
(10.0741 -0.0328474 0)
(9.99991 -0.00337556 0)
(10.0016 -0.0149915 0)
(10.0073 -0.0227493 0)
(10.0142 -0.0262627 0)
(10.0206 -0.0288521 0)
(10.0268 -0.0312214 0)
(10.0331 -0.0329468 0)
(10.039 -0.0340392 0)
(10.0444 -0.0347431 0)
(10.0494 -0.0352106 0)
(10.054 -0.035512 0)
(10.0583 -0.0357014 0)
(10.0623 -0.0358248 0)
(10.0659 -0.0359131 0)
(10.0693 -0.0359842 0)
(10.0725 -0.0360481 0)
(10.0754 -0.0361094 0)
(10.0781 -0.0361667 0)
(9.99859 -0.000382374 0)
(9.99903 -0.0158011 0)
(10.0076 -0.0274445 0)
(10.0166 -0.0325043 0)
(10.0238 -0.0348834 0)
(10.0306 -0.0362427 0)
(10.0376 -0.0369983 0)
(10.0441 -0.0374691 0)
(10.0498 -0.0378215 0)
(10.0549 -0.0380717 0)
(10.0595 -0.0382195 0)
(10.0635 -0.0382896 0)
(10.0671 -0.0383121 0)
(10.0702 -0.0383083 0)
(10.073 -0.0382931 0)
(10.0754 -0.038275 0)
(10.0776 -0.0382579 0)
(10.0794 -0.0382394 0)
(9.99487 0.00140525 0)
(9.99287 -0.00812614 0)
(10.006 -0.0203361 0)
(10.0202 -0.0322711 0)
(10.0306 -0.0404806 0)
(10.0392 -0.0441573 0)
(10.0467 -0.0450739 0)
(10.0529 -0.0449337 0)
(10.0577 -0.0444704 0)
(10.0616 -0.0438771 0)
(10.0645 -0.043235 0)
(10.0667 -0.0426002 0)
(10.0681 -0.042007 0)
(10.069 -0.0414641 0)
(10.0693 -0.04098 0)
(10.0692 -0.0405527 0)
(10.0687 -0.0401787 0)
(10.0679 -0.0398316 0)
(9.9947 -0.0305776 0)
(9.99943 -0.0228517 0)
(10.0146 -0.0026229 0)
(10.0304 -0.00190567 0)
(10.0434 -0.0116597 0)
(10.0533 -0.0209278 0)
(10.0594 -0.0272889 0)
(10.0618 -0.0315185 0)
(10.0615 -0.0342957 0)
(10.059 -0.035994 0)
(10.055 -0.0369276 0)
(10.0497 -0.0373624 0)
(10.0434 -0.0374887 0)
(10.0364 -0.037427 0)
(10.0288 -0.037266 0)
(10.0209 -0.0370636 0)
(10.0127 -0.0368829 0)
(10.0045 -0.0366914 0)
(10.0274 -0.183007 0)
(10.0766 -0.288325 0)
(10.0871 -0.247823 0)
(10.0777 -0.186561 0)
(10.0663 -0.140326 0)
(10.0537 -0.108246 0)
(10.0365 -0.0858996 0)
(10.0145 -0.0704417 0)
(9.98933 -0.0596708 0)
(9.96229 -0.0518947 0)
(9.9343 -0.0460721 0)
(9.90597 -0.0415742 0)
(9.87779 -0.0380176 0)
(9.85007 -0.0351409 0)
(9.82307 -0.0327773 0)
(9.79689 -0.0308531 0)
(9.77178 -0.0293335 0)
(9.74778 -0.0285164 0)
(9.93575 0.689541 0)
(9.86827 0.609594 0)
(9.76458 0.380605 0)
(9.62661 0.21741 0)
(9.48586 0.119241 0)
(9.35716 0.0631579 0)
(9.24263 0.0315455 0)
(9.14104 0.0135937 0)
(9.05136 0.00323993 0)
(8.97237 -0.00282078 0)
(8.90245 -0.00637413 0)
(8.84026 -0.00849239 0)
(8.78454 -0.00973884 0)
(8.73442 -0.0104968 0)
(8.68898 -0.0109774 0)
(8.64762 -0.0112534 0)
(8.60942 -0.0114774 0)
(8.57407 -0.0121156 0)
(0.00460846 -0.0107095 -8.31555e-19)
(0.0160992 -0.0172264 7.31393e-19)
(0.026231 -0.0151093 0)
(0.0327859 -0.0091415 0)
(0.0348061 -0.00214241 0)
(0.0320404 0.00422196 -3.85569e-19)
(0.0255544 0.00913517 0)
(0.0162081 0.0125134 0)
(0.00471353 0.0146523 0)
(-0.00836776 0.0159469 0)
(-0.0226941 0.0167822 2.34754e-19)
(-0.0380959 0.0174331 0)
(-0.0544666 0.0180375 0)
(-0.0717523 0.0186482 0)
(-0.0899264 0.0192724 0)
(-0.108969 0.0198979 1.2652e-19)
(-0.128862 0.0205019 0)
(-0.149588 0.0210588 0)
(-0.171121 0.0215393 0)
(-0.193436 0.0219166 0)
(-0.216494 0.0221678 0)
(-0.240258 0.022284 0)
(-0.264676 0.0222786 0)
(-0.289701 0.0221977 7.29061e-20)
(-0.315286 0.0221297 -6.92563e-20)
(-0.341411 0.0221848 6.59443e-20)
(-0.368107 0.022484 6.29036e-20)
(-0.395398 0.0236145 0)
(-0.423262 0.0256368 0)
(-0.451638 0.0281322 -5.61028e-20)
(-0.480449 0.0312635 -5.46274e-20)
(-0.509805 0.0356201 0)
(-0.540018 0.0398826 0)
(-0.571389 0.0439277 -5.23053e-20)
(-0.603697 0.0491016 0)
(-0.637274 0.0545543 0)
(-0.672505 0.0648606 5.03816e-20)
(-0.708965 0.0759021 0)
(-0.748231 0.083561 5.3883e-20)
(-0.788885 0.0580867 1.30044e-19)
(-0.828903 0.0246361 0)
(-0.863228 0.0232031 0)
(-0.89927 0.0256876 0)
(-0.936359 0.0334103 0)
(-0.976646 0.0357206 0)
(-1.01759 0.0347505 1.14523e-19)
(-1.05798 0.0347833 1.11186e-19)
(-1.09869 0.0347361 1.08058e-19)
(-1.13946 0.0346048 0)
(-1.18022 0.0343724 -1.02364e-19)
(-1.22092 0.0340933 0)
(-1.26152 0.0337786 9.73386e-20)
(-1.30198 0.0334425 9.50449e-20)
(-1.34229 0.0330904 0)
(-1.38243 0.0327271 0)
(-1.42237 0.0323541 0)
(-1.46211 0.0319729 8.70641e-20)
(-1.50162 0.031583 0)
(-1.5409 0.0311843 0)
(-1.57992 0.0307754 0)
(-1.61866 0.0303557 0)
(-1.6571 0.0299234 0)
(-1.69523 0.0294776 0)
(-1.733 0.0290166 0)
(-1.77041 0.0285396 0)
(-1.80741 0.0280449 -7.38899e-20)
(-1.84399 0.0275321 0)
(-1.8801 0.0269997 0)
(-1.91571 0.0264476 7.04379e-20)
(-1.95079 0.0258746 6.93579e-20)
(-1.9853 0.0252809 0)
(-2.0192 0.0246654 -6.72868e-20)
(-2.05246 0.0240286 6.62903e-20)
(-2.08504 0.0233698 0)
(-2.11689 0.0226897 -6.43625e-20)
(-2.14799 0.0219878 0)
(-2.17827 0.0212651 0)
(-2.20772 0.0205215 6.16004e-20)
(-2.23628 0.019758 0)
(-2.26391 0.0189743 -5.98212e-20)
(-2.29058 0.0181717 0)
(-2.31624 0.01735 5.80736e-20)
(-2.34086 0.0165104 5.72073e-20)
(-2.36438 0.0156522 5.63434e-20)
(-2.38679 0.0147767 1.10961e-19)
(-2.40802 0.013883 -1.09234e-19)
(-2.42805 0.0129713 0)
(-2.44684 0.0120391 0)
(-2.46433 0.0110849 0)
(-2.48049 0.0101038 -1.02255e-19)
(-2.49528 0.00908979 -1.00478e-19)
(-2.50866 0.00803518 9.86838e-20)
(-2.52055 0.0069307 0)
(-2.5309 0.00576617 -9.50358e-20)
(-2.53963 0.00453697 -9.31793e-20)
(-2.54668 0.00325933 -9.13012e-20)
(-2.55195 0.00198818 0)
(-2.55531 0.00081261 0)
(-2.55671 -0.000192165 0)
(-2.55667 -0.00108425 -8.34416e-20)
(-2.55512 -0.00195176 0)
(-2.55208 -0.00280708 0)
(-2.54756 -0.00365735 7.70339e-20)
(-2.54155 -0.0045034 0)
(-2.53404 -0.0053447 0)
(-2.52501 -0.00618111 7.01302e-20)
(-2.51447 -0.00701127 0)
(-2.5024 -0.00783537 0)
(-2.48881 -0.00865204 -6.26631e-20)
(-2.47369 -0.00946164 -6.00368e-20)
(-2.45704 -0.0102627 0)
(-2.43887 -0.0110556 5.45622e-20)
(-2.41917 -0.0118388 0)
(-2.39795 -0.0126128 -4.87726e-20)
(-2.37522 -0.013376 0)
(-2.35099 -0.014129 -4.26439e-20)
(-2.32527 -0.01487 -3.94442e-20)
(-2.29806 -0.0155998 0)
(-2.26938 -0.0163167 0)
(-2.23925 -0.0170218 0)
(-2.20768 -0.0177138 0)
(-2.1747 -0.018393 0)
(-2.14032 -0.0190575 0)
(-2.10457 -0.0197076 0)
(-2.06747 -0.0203416 -1.0107e-20)
(-2.02903 -0.020961 5.90662e-21)
(-1.9893 -0.0215652 0)
(-1.94829 -0.0221561 0)
(-1.90605 -0.0227316 0)
(-1.86258 -0.0232915 0)
(-1.81793 -0.023835 -3.45216e-20)
(-1.77214 -0.0243633 0)
(-1.72524 -0.0248756 5.53504e-20)
(-1.67727 -0.0253753 -6.63232e-20)
(-1.62825 -0.0258589 0)
(-1.57825 -0.0263262 0)
(-1.52729 -0.0267781 0)
(-1.47541 -0.027215 1.14429e-19)
(-1.42267 -0.0276371 1.27634e-19)
(-1.3691 -0.0280447 0)
(-1.31475 -0.0284377 1.55661e-19)
(-1.25966 -0.0288164 1.70551e-19)
(-1.20389 -0.0291811 -1.86077e-19)
(-1.14747 -0.0295321 0)
(-1.09046 -0.0298703 0)
(-1.03289 -0.0301957 -2.36919e-19)
(-0.974814 -0.0305093 0)
(-0.916277 -0.0308114 0)
(-0.857323 -0.031103 0)
(-0.797998 -0.0313844 0)
(-0.738345 -0.0316571 3.39325e-19)
(-0.678408 -0.0319215 3.63124e-19)
(-0.618227 -0.032179 0)
(-0.557844 -0.0324303 4.14828e-19)
(-0.497298 -0.0326769 0)
(-0.436628 -0.0329195 0)
(-0.375871 -0.0331592 5.04683e-19)
(-0.315065 -0.033396 0)
(-0.254245 -0.0336332 5.74823e-19)
(-0.193448 -0.0338808 0)
(-0.132707 -0.0341511 0)
(-0.0720685 -0.0344069 7.00372e-19)
(-0.0115708 -0.0344102 0)
(0.0487179 -0.0338183 7.39109e-19)
(0.108859 -0.0328734 0)
(0.168783 -0.0319369 0)
(0.228455 -0.0310554 0)
(0.287873 -0.0302233 -6.71164e-19)
(0.347043 -0.0294329 0)
(0.405963 -0.0286745 6.44102e-19)
(0.464616 -0.0279382 0)
(0.522963 -0.0272104 0)
(0.580936 -0.0264716 0)
(0.638394 -0.0256897 0)
(0.695134 -0.0248063 0)
(0.75053 -0.0237093 0)
(0.804279 -0.0221253 0)
(0.851482 -0.0194045 -1.1373e-18)
(0.897978 -0.0139772 0)
(0.890696 0.00324717 0)
(0.00475844 -0.0327653 1.93743e-18)
(0.0106611 -0.0330329 -1.09554e-18)
(0.0108784 -0.0208893 0)
(0.0081244 -0.00749788 3.44606e-19)
(0.00292665 0.00525368 0)
(-0.00439313 0.0164605 1.34754e-19)
(-0.0138354 0.0256634 -2.46842e-19)
(-0.0253082 0.0328513 -2.28163e-19)
(-0.0386849 0.0383144 0)
(-0.0537682 0.0424801 -1.95427e-19)
(-0.0703345 0.0457726 -9.04744e-20)
(-0.088202 0.0485236 0)
(-0.107241 0.0509495 0)
(-0.127357 0.053175 0)
(-0.148487 0.0552632 0)
(-0.170592 0.0572432 -6.39498e-20)
(-0.193646 0.0591249 0)
(-0.217638 0.0609112 1.14313e-19)
(-0.242557 0.0625998 0)
(-0.268405 0.0641885 0)
(-0.295182 0.0656747 -9.92339e-20)
(-0.322899 0.0670582 0)
(-0.351564 0.0683444 9.15082e-20)
(-0.381194 0.0695465 -4.40805e-20)
(-0.411804 0.0706901 4.25315e-20)
(-0.44342 0.071801 -4.11098e-20)
(-0.476083 0.0729041 -3.98165e-20)
(-0.509769 0.0740331 0)
(-0.544476 0.0752071 0)
(-0.580324 0.0763427 3.69412e-20)
(-0.617508 0.0774322 -3.60699e-20)
(-0.655968 0.0785791 0)
(-0.695684 0.0797371 0)
(-0.736511 0.0806923 3.54685e-20)
(-0.778182 0.0813954 0)
(-0.82058 0.0817454 0)
(-0.862833 0.0820039 -3.541e-20)
(-0.904719 0.0825422 0)
(-0.944643 0.08343 3.50332e-20)
(-0.986183 0.0845683 -7.29222e-20)
(-1.02756 0.0863332 0)
(-1.0699 0.0883231 0)
(-1.11076 0.0891258 -1.32337e-19)
(-1.15045 0.0897434 -1.29038e-19)
(-1.18904 0.0899434 -1.26027e-19)
(-1.22695 0.0895531 6.1481e-20)
(-1.26457 0.0888738 -6.04346e-20)
(-1.30181 0.0880747 -1.77257e-19)
(-1.33869 0.0871753 1.15696e-19)
(-1.37524 0.0861974 5.68601e-20)
(-1.41148 0.0851634 0)
(-1.44742 0.0840902 -5.47602e-20)
(-1.48306 0.0829891 5.34974e-20)
(-1.51841 0.0818672 0)
(-1.55346 0.0807284 0)
(-1.5882 0.0795739 0)
(-1.62262 0.0784038 -5.02681e-20)
(-1.65671 0.0772164 0)
(-1.69046 0.0760101 9.71393e-20)
(-1.72385 0.0747819 0)
(-1.75686 0.0735297 9.42344e-20)
(-1.78947 0.0722504 0)
(-1.82166 0.0709418 -9.15079e-20)
(-1.85342 0.0696008 0)
(-1.8847 0.0682257 8.89312e-20)
(-1.9155 0.0668138 -4.3719e-20)
(-1.94578 0.0653641 0)
(-1.97551 0.0638744 -8.52927e-20)
(-2.00467 0.0623445 -4.21834e-20)
(-2.03323 0.0607728 -4.16089e-20)
(-2.06115 0.0591594 0)
(-2.08841 0.0575035 -4.02663e-20)
(-2.11497 0.0558058 -3.99339e-20)
(-2.1408 0.0540657 0)
(-2.16588 0.0522847 3.88468e-20)
(-2.19016 0.0504627 -7.64283e-20)
(-2.21362 0.0486016 0)
(-2.23622 0.046702 -3.72402e-20)
(-2.25793 0.0447658 0)
(-2.27872 0.0427938 1.08368e-19)
(-2.29856 0.0407882 0)
(-2.31741 0.03875 -1.05178e-19)
(-2.33525 0.0366816 -3.45665e-20)
(-2.35203 0.0345836 3.39091e-20)
(-2.36774 0.0324586 6.67479e-20)
(-2.38235 0.0303074 -6.56685e-20)
(-2.39581 0.0281322 0)
(-2.40811 0.0259332 0)
(-2.41921 0.0237118 0)
(-2.42909 0.0214674 1.83885e-19)
(-2.43773 0.0191986 6.01567e-20)
(-2.44511 0.0169044 -5.89695e-20)
(-2.45122 0.0145835 0)
(-2.45606 0.0122323 -5.6546e-20)
(-2.45964 0.00984382 5.52967e-20)
(-2.46199 0.00741669 5.40349e-20)
(-2.46318 0.00497676 0)
(-2.46331 0.0025964 0)
(-2.46248 0.000362003 0)
(-2.46028 -0.00175663 4.87057e-20)
(-2.45668 -0.00383339 0)
(-2.45164 -0.00588117 -9.19553e-20)
(-2.44515 -0.00790803 -1.33505e-19)
(-2.43718 -0.00991468 8.61492e-20)
(-2.42773 -0.0118996 0)
(-2.4168 -0.0138613 4.02187e-20)
(-2.40436 -0.0157971 0)
(-2.39042 -0.0177058 7.38838e-20)
(-2.37498 -0.019585 -3.55335e-20)
(-2.35803 -0.0214337 -3.39136e-20)
(-2.33956 -0.0232497 0)
(-2.3196 -0.025032 -9.08047e-20)
(-2.29812 -0.0267783 5.72466e-20)
(-2.27515 -0.0284878 2.66051e-20)
(-2.25069 -0.0301583 0)
(-2.22474 -0.0317891 2.29763e-20)
(-2.19732 -0.0333778 6.39507e-20)
(-2.16843 -0.0349237 0)
(-2.13809 -0.0364248 3.52516e-20)
(-2.10632 -0.0378812 3.13637e-20)
(-2.07312 -0.0392914 2.74116e-20)
(-2.03853 -0.0406551 0)
(-2.00256 -0.0419692 0)
(-1.96524 -0.0432329 0)
(-1.92657 -0.0444434 -5.8792e-21)
(-1.88659 -0.0456015 -2.93021e-21)
(-1.84533 -0.0467064 0)
(-1.80281 -0.0477597 2.06407e-21)
(-1.75906 -0.0487602 6.53526e-21)
(-1.71412 -0.04971 0)
(-1.668 -0.0506083 1.65997e-20)
(-1.62076 -0.0514511 4.06848e-20)
(-1.57241 -0.0522328 -2.60414e-20)
(-1.52301 -0.0529608 -2.88982e-20)
(-1.47259 -0.0536384 0)
(-1.42118 -0.0542625 0)
(-1.36883 -0.0548301 0)
(-1.31558 -0.0553434 -5.07826e-20)
(-1.26147 -0.0558032 5.38066e-20)
(-1.20655 -0.0562105 1.20124e-19)
(-1.15086 -0.0565657 -6.64103e-20)
(-1.09445 -0.0568693 6.95505e-20)
(-1.03736 -0.0571224 7.71534e-20)
(-0.979637 -0.0573261 0)
(-0.921327 -0.0574816 0)
(-0.862476 -0.0575902 -9.14716e-20)
(-0.803129 -0.0576534 0)
(-0.743333 -0.057673 0)
(-0.683132 -0.0576504 2.19546e-19)
(-0.622571 -0.0575876 0)
(-0.561694 -0.0574867 1.20361e-19)
(-0.500545 -0.0573497 -1.28698e-19)
(-0.439166 -0.0571787 0)
(-0.377597 -0.0569761 1.38477e-19)
(-0.315879 -0.0567438 0)
(-0.254049 -0.0564842 0)
(-0.192146 -0.0561986 -1.59554e-19)
(-0.130203 -0.0558878 3.29431e-19)
(-0.0682576 -0.0555527 -1.72325e-19)
(-0.0063372 -0.0551947 0)
(0.0555389 -0.054813 0)
(0.11735 -0.054405 1.80394e-19)
(0.179081 -0.0539101 0)
(0.240651 -0.0532104 1.84063e-19)
(0.301995 -0.0523597 0)
(0.363116 -0.0514924 0)
(0.424037 -0.0506476 0)
(0.484753 -0.0498283 1.93203e-19)
(0.545259 -0.0490283 0)
(0.605547 -0.0482378 -1.9612e-19)
(0.665593 -0.0474426 0)
(0.725357 -0.0466219 0)
(0.784767 -0.0457413 3.97868e-19)
(0.843687 -0.0447423 -4.00069e-19)
(0.90191 -0.0435116 0)
(0.958926 -0.0418378 0)
(1.01433 -0.039186 0)
(1.06518 -0.0345688 1.23131e-18)
(1.11461 -0.0246208 0)
(1.14086 -0.00064644 -8.5488e-19)
(0.000297722 -0.0413456 -7.87221e-22)
(-0.00189728 -0.0282034 1.06522e-18)
(-0.00795729 -0.00971691 0)
(-0.0160053 0.00756064 -4.35753e-19)
(-0.025551 0.0231936 0)
(-0.0362901 0.037067 0)
(-0.0482127 0.0490756 3.70063e-23)
(-0.0614122 0.0592086 1.34976e-19)
(-0.0759707 0.0676151 1.27012e-19)
(-0.0919099 0.0745738 1.2009e-19)
(-0.109193 0.0804135 0)
(-0.127748 0.0854413 0)
(-0.147496 0.0899044 -1.02463e-19)
(-0.168363 0.0939808 -1.95003e-19)
(-0.190292 0.0977876 1.8594e-19)
(-0.213243 0.101397 0)
(-0.237189 0.104853 1.70218e-19)
(-0.262118 0.108179 -8.17283e-20)
(-0.288024 0.11139 0)
(-0.314911 0.114493 1.51677e-19)
(-0.342784 0.117496 7.32709e-20)
(-0.371654 0.120402 -1.41847e-19)
(-0.40153 0.123223 -6.87353e-20)
(-0.432419 0.125968 0)
(-0.46432 0.128654 1.29706e-19)
(-0.497222 0.131298 1.26208e-19)
(-0.531095 0.133912 0)
(-0.565859 0.136512 1.19933e-19)
(-0.601388 0.13909 0)
(-0.637564 0.141615 1.14533e-19)
(-0.674311 0.144129 5.61456e-20)
(-0.711492 0.146698 0)
(-0.748919 0.149185 0)
(-0.786412 0.151392 0)
(-0.823805 0.153257 0)
(-0.860893 0.154735 0)
(-0.897319 0.155962 0)
(-0.932884 0.156665 1.0056e-19)
(-0.967688 0.156143 -1.48393e-19)
(-1.00256 0.153967 0)
(-1.03774 0.150648 0)
(-1.07295 0.147953 0)
(-1.10788 0.145997 1.40147e-22)
(-1.14226 0.144614 8.84381e-20)
(-1.17588 0.143052 1.7296e-19)
(-1.20901 0.141284 -1.69403e-19)
(-1.2419 0.139498 -8.29466e-20)
(-1.27455 0.137701 8.14754e-20)
(-1.30697 0.135886 -1.42335e-22)
(-1.33918 0.13405 7.83375e-20)
(-1.37119 0.132196 0)
(-1.40299 0.130327 7.55928e-20)
(-1.4346 0.128444 -1.5407e-22)
(-1.466 0.126548 0)
(-1.4972 0.124637 0)
(-1.52818 0.122708 -7.07243e-20)
(-1.55892 0.120758 0)
(-1.58943 0.118784 0)
(-1.61968 0.11678 6.73421e-20)
(-1.64966 0.114743 1.32985e-19)
(-1.67934 0.112668 -6.56702e-20)
(-1.7087 0.11055 0)
(-1.73773 0.108387 6.37835e-20)
(-1.7664 0.106173 0)
(-1.79468 0.103907 6.16793e-20)
(-1.82255 0.101585 6.11105e-20)
(-1.84999 0.0992054 -1.20214e-19)
(-1.87696 0.0967656 -5.91234e-20)
(-1.90344 0.0942648 0)
(-1.92939 0.0917018 1.15254e-19)
(-1.95479 0.0890763 0)
(-1.97961 0.0863881 1.68209e-19)
(-2.00381 0.0836378 1.10476e-19)
(-2.02736 0.0808257 1.08911e-19)
(-2.05023 0.0779533 -1.07355e-19)
(-2.07239 0.0750216 1.58822e-19)
(-2.09381 0.0720328 0)
(-2.11445 0.0689886 0)
(-2.13427 0.0658915 -1.0118e-19)
(-2.15325 0.0627435 -1.49546e-19)
(-2.17136 0.0595475 0)
(-2.18856 0.056306 4.83467e-20)
(-2.20482 0.0530221 0)
(-2.22011 0.0496981 -1.40172e-19)
(-2.2344 0.0463374 -1.17649e-22)
(-2.24766 0.0429427 1.03862e-22)
(-2.25986 0.0395172 8.86152e-20)
(-2.27098 0.0360634 0)
(-2.28098 0.0325847 -8.53421e-20)
(-2.28985 0.0290838 -4.56617e-23)
(-2.29756 0.0255637 0)
(-2.30411 0.0220291 0)
(-2.30948 0.0184869 0)
(-2.31366 0.0149469 7.67876e-20)
(-2.31665 0.0114227 0)
(-2.31845 0.00793356 0)
(-2.31907 0.00450196 0)
(-2.31845 0.00113693 0)
(-2.31656 -0.00219178 0)
(-2.31332 -0.00550507 6.5613e-20)
(-2.3087 -0.00879362 0)
(-2.3027 -0.0120538 6.14791e-20)
(-2.29528 -0.0152837 5.94272e-20)
(-2.28644 -0.01848 -5.73462e-20)
(-2.27616 -0.0216396 0)
(-2.26444 -0.0247586 -5.3096e-20)
(-2.25126 -0.0278338 0)
(-2.23662 -0.0308617 -4.87264e-20)
(-2.22052 -0.0338398 4.64965e-20)
(-2.20295 -0.0367648 1.3328e-19)
(-2.18392 -0.0396343 0)
(-2.16343 -0.0424455 1.19517e-19)
(-2.14147 -0.0451958 3.79465e-20)
(-2.11805 -0.0478826 0)
(-2.09319 -0.0505037 6.57115e-20)
(-2.06687 -0.0530565 6.08676e-20)
(-2.03913 -0.0555387 -8.35507e-20)
(-2.00996 -0.0579478 0)
(-1.97937 -0.0602819 -2.25677e-20)
(-1.94739 -0.0625397 -2.0018e-20)
(-1.91403 -0.0647197 -5.32399e-20)
(-1.87931 -0.0668197 0)
(-1.84324 -0.0688371 0)
(-1.80585 -0.070769 0)
(-1.76715 -0.0726131 -7.90614e-21)
(-1.72718 -0.0743686 0)
(-1.68595 -0.0760352 0)
(-1.6435 -0.0776135 -1.28316e-21)
(-1.59985 -0.079104 -4.04824e-21)
(-1.55504 -0.0805073 0)
(-1.50909 -0.0818225 0)
(-1.46203 -0.0830454 -2.49231e-20)
(-1.41391 -0.0841716 0)
(-1.36475 -0.0852061 3.63252e-20)
(-1.31459 -0.086152 4.08308e-20)
(-1.26348 -0.0870072 0)
(-1.21144 -0.0877692 0)
(-1.15853 -0.0884394 -5.8199e-20)
(-1.10479 -0.0890193 -1.306e-21)
(-1.05025 -0.0895101 -1.31998e-21)
(-0.994965 -0.0899129 0)
(-0.938977 -0.0902288 -1.64743e-19)
(-0.882328 -0.0904591 0)
(-0.825065 -0.0906057 0)
(-0.767232 -0.0906705 0)
(-0.708873 -0.0906555 1.06856e-19)
(-0.650035 -0.0905631 0)
(-0.590761 -0.0903958 -2.34833e-19)
(-0.531097 -0.0901561 -1.24804e-19)
(-0.471087 -0.0898472 0)
(-0.410773 -0.0894719 -1.3678e-19)
(-0.350199 -0.0890334 0)
(-0.289406 -0.088535 0)
(-0.228435 -0.0879804 -4.61291e-19)
(-0.167323 -0.0873721 3.18494e-19)
(-0.106109 -0.0867134 0)
(-0.0448281 -0.0860075 3.42248e-19)
(0.0164902 -0.0852598 -1.77486e-19)
(0.0778134 -0.084473 0)
(0.139106 -0.0836467 0)
(0.200337 -0.0827785 0)
(0.261482 -0.0818727 -5.69168e-19)
(0.32253 -0.0809289 0)
(0.383469 -0.0799465 -1.96621e-19)
(0.444268 -0.0789326 0)
(0.504916 -0.0779079 0)
(0.565403 -0.0768925 0)
(0.625714 -0.075889 0)
(0.685837 -0.0748911 0)
(0.745756 -0.0738874 0)
(0.805448 -0.0728588 -4.28971e-19)
(0.864871 -0.0717752 0)
(0.923955 -0.070586 -2.20104e-19)
(0.982577 -0.0692036 6.64597e-19)
(1.04055 -0.0674665 0)
(1.09745 -0.0650717 0)
(1.15299 -0.0613718 -4.55108e-19)
(1.20524 -0.0551189 -4.61882e-19)
(1.2572 -0.0433157 4.67212e-19)
(1.29666 -0.01846 4.81285e-19)
(-0.00470239 -0.0334212 -2.97656e-18)
(-0.0125837 -0.0112495 -1.28184e-18)
(-0.0225837 0.0105955 -4.64797e-19)
(-0.0342023 0.0299633 -1.65681e-19)
(-0.0468175 0.0473312 0)
(-0.0600971 0.0629023 2.39863e-19)
(-0.0740855 0.0767292 -1.09643e-19)
(-0.0889179 0.0888514 0)
(-0.104717 0.0993768 -9.66911e-20)
(-0.121568 0.108494 0)
(-0.139513 0.116444 1.7521e-19)
(-0.158554 0.123475 0)
(-0.178669 0.129811 8.0149e-20)
(-0.199823 0.135633 1.53704e-19)
(-0.22198 0.141076 -1.47631e-19)
(-0.245108 0.146236 0)
(-0.269183 0.151174 -1.36927e-19)
(-0.294184 0.155934 0)
(-0.320095 0.160538 0)
(-0.346904 0.165001 -1.23922e-19)
(-0.374595 0.169328 0)
(-0.403149 0.173518 -5.04016e-23)
(-0.432537 0.177567 0)
(-0.46272 0.181465 0)
(-0.493641 0.185197 5.20265e-23)
(-0.525221 0.188743 -1.04802e-19)
(-0.55736 0.192083 -1.02172e-19)
(-0.589926 0.195193 -9.95625e-20)
(-0.622774 0.198047 0)
(-0.655761 0.200618 -1.89545e-19)
(-0.68876 0.202894 0)
(-0.72164 0.204867 -9.0473e-20)
(-0.754268 0.206469 0)
(-0.786561 0.207602 0)
(-0.818478 0.208237 8.47895e-20)
(-0.849967 0.208365 0)
(-0.880959 0.207975 -8.12698e-20)
(-0.911472 0.206939 4.36499e-23)
(-0.941694 0.205061 1.55627e-19)
(-0.971925 0.202418 -1.52237e-19)
(-1.00231 0.199402 0)
(-1.03281 0.196531 0)
(-1.06325 0.193937 -7.10454e-20)
(-1.09341 0.191566 0)
(-1.12323 0.189192 -6.82466e-20)
(-1.15281 0.186758 6.68884e-20)
(-1.18224 0.184312 6.55972e-20)
(-1.21154 0.181869 0)
(-1.24071 0.179429 -6.31891e-20)
(-1.26975 0.176989 -6.20622e-20)
(-1.29868 0.174545 1.21846e-19)
(-1.32748 0.172095 -5.99431e-20)
(-1.35616 0.169634 -5.89443e-20)
(-1.3847 0.167158 0)
(-1.41309 0.164661 0)