/*--------------------------------*- C++ -*----------------------------------*\
  =========                 |
  \\      /  F ield         | OpenFOAM: The Open Source CFD Toolbox
   \\    /   O peration     | Website:  https://openfoam.org
    \\  /    A nd           | Version:  9
     \\/     M anipulation  |
\*---------------------------------------------------------------------------*/
FoamFile
{
    format      ascii;
    class       volScalarField;
    location    "9.47";
    object      alpha.water;
}
// * * * * * * * * * * * * * * * * * * * * * * * * * * * * * * * * * * * * * //

dimensions      [0 0 0 0 0 0 0];

internalField   nonuniform List<scalar> 
2268
(
1
0.999999
0.999999
0.999998
1
1
0.999999
0.999998
0.999997
0.999998
1
1
1
1
1
1
1
1
0.999321
0.998244
0.999463
0.999995
0.999933
0.999999
0.999998
0.999997
0.999998
1
0.999999
0.999997
0.999997
0.999997
0.999998
0.999999
1
1
1
0.999999
0.999998
0.999999
1
0.998629
0.998244
0.999687
0.999995
0.999995
0.999997
0.999996
0.999997
0.999999
0.999999
1
0.999999
0.999999
0.999999
0.999999
0.999999
0.999999
1
1
0.999997
0.999989
0.999999
0.999995
0.998613
0.998244
0.999781
0.999995
0.999995
0.999998
0.999998
0.999999
0.999999
0.999999
1
0.999999
0.999999
0.999999
1
1
1
1
1
0.999994
0.999936
0.999952
0.999981
0.999342
0.998244
0.999765
0.999995
0.999844
1
0.999999
1
1
0.999999
0.999999
0.999999
0.999999
1
1
1
1
1
1
1
0.999752
0.999605
0.999898
0.999922
0.999063
0.999828
0.999167
0.999646
1
0.999999
1
1
0.999999
0.999999
0.999999
0.999999
0.999999
1
1
1
1
1
1
0.999562
0.998605
0.999975
0.999975
0.999975
0.999974
0.996199
0.999632
1
1
1
1
1
0.999999
0.999999
0.999999
0.999999
0.999999
0.999999
1
1
1
1
0.999904
0.994868
0.993109
0.999975
0.999937
0.9945
0.994215
0.999602
1
1
1
1
1
1
1
1
0.999999
0.999999
0.999999
1
1
1
1
0.99999
0.993226
0.989427
0.992847
0.995714
0.991701
0.996105
0.999889
0.999802
0.999703
0.999576
0.999576
0.999751
0.999953
0.997594
0.995775
0.995773
0.99545
0.992408
0.992407
0.996397
0.998687
0.998687
0.998687
0.998687
0.998687
0.998686
0.999802
0.999802
0.999989
0.999987
0.999998
0.999997
0.999997
0.999997
0.999989
0.999989
0.997775
0.992407
0.99243
0.998583
0.998687
0.998687
0.998501
0.996654
0.997453
0.999802
0.997988
0.999983
0.999998
0.999998
0.999994
0.999965
0.999957
0.999936
0.99998
0.99994
0.992407
0.992407
0.995743
0.998687
0.998665
0.9958
0.9958
0.99585
0.994733
0.99611
0.999998
0.999998
0.999998
0.999954
0.99982
0.999769
0.999574
0.999521
0.999757
0.99778
0.99346
0.996576
0.998687
0.998687
0.997609
0.996463
0.998454
0.99238
0.997492
0.999997
0.999997
0.999997
0.999883
0.999872
0.999866
0.999407
0.999372
0.999373
0.999689
0.999421
0.99951
0.9976
0.998461
0.99846
0.998457
0.998456
0.992381
0.998185
0.999997
0.999991
0.999986
0.999997
0.999997
0.999854
0.999554
0.999667
0.999689
0.999689
0.999689
0.999689
0.997125
0.992269
0.992443
0.998432
0.998435
0.996086
0.999638
0.999997
0.999997
0.999997
0.999997
0.999997
0.999526
0.998275
0.999689
0.999689
0.999689
0.999689
0.999682
0.994315
0.991461
0.990839
0.996187
0.998437
0.999997
0.999997
0.999997
0.999997
0.999997
0.999997
0.999997
0.999308
0.992552
0.993315
0.999075
0.999689
0.999683
0.99658
0.992374
0.996708
0.990839
0.995008
0.998437
1
1
1
1
1
1
1
1
0.999999
0.999999
0.999999
1
1
1
1
1
0.999975
0.995128
0.989953
0.991023
0.996681
0.999997
0.999997
0.996503
0.99654
0.99642
0.996599
0.997096
0.997416
0.997488
0.996984
0.994274
0.991279
0.987886
0.984237
0.981509
0.979544
0.978698
0.979207
0.980253
0.981041
0.980566
0.978533
0.975122
0.970929
0.966961
0.402112
0.401815
0.400137
0.396862
0.391921
0.386377
0.379811
0.373046
0.366758
0.360506
0.354142
0.347596
0.340338
0.332578
0.324595
0.317133
0.31186
0.309274
0.306867
0.302976
0.298849
0.296235
0.295863
0.000366332
0.000366189
0.000366228
0.000366189
0.000365773
0.00036497
0.000364523
0.000364185
0.00036382
0.000363593
0.000363499
0.000363537
0.000363537
0.000413086
0.000517064
0.000669006
0.000788717
0.000593254
0.000383771
0.000420432
0.000502478
0.00049965
0.00035103
0.000640855
0.000640884
0.000496459
0.000643157
0.0015513
0.00156615
0.00156574
0.00156056
0.00174917
0.00174919
0.00174902
0.00170101
0.00158767
0.00153807
0.00152569
0.00149062
0.00126906
0.000880965
0.00037706
0.000420418
0.000502277
0.000497509
0.00033461
0.000261977
0.000278775
0.000272005
0.000250547
6.51031e-06
6.39673e-08
1.43303e-05
5.35591e-05
1.66394e-05
6.74853e-06
6.94455e-08
6.94455e-08
8.14942e-08
1.23338e-06
8.74291e-07
8.70864e-07
7.8333e-06
0.000115708
0.000240153
0.000199386
0.000209177
0.000237365
0.000153026
8.98299e-08
2.07285e-09
9.66143e-07
4.54687e-06
6.36812e-08
6.34355e-08
6.3444e-08
6.34355e-08
6.35106e-08
6.38604e-08
2.88186e-07
2.74944e-05
4.43203e-05
4.43197e-05
4.43201e-05
1.55955e-05
2.52656e-07
1.59504e-07
1.67542e-06
6.59742e-09
5.62819e-07
2.3829e-05
6.41558e-05
2.0871e-09
2.06501e-09
1.57109e-08
2.80809e-07
5.95707e-07
9.41246e-07
1.5808e-07
3.10958e-07
7.97451e-07
5.66811e-07
6.61583e-07
1.11313e-05
2.02507e-05
1.51539e-05
6.49095e-06
1.02062e-05
6.1193e-07
1.5532e-08
6.01422e-09
6.0121e-09
6.0148e-09
7.90075e-09
2.96675e-07
2.06501e-09
2.06442e-09
2.01134e-09
1.20741e-07
1.58428e-06
1.75287e-06
1.49838e-06
1.13712e-06
2.57465e-06
2.57465e-06
1.05739e-06
4.07081e-10
4.07067e-10
4.2277e-10
1.56497e-06
7.06798e-06
2.2795e-06
6.01142e-09
6.01143e-09
6.01153e-09
6.0121e-09
6.01483e-09
3.85521e-07
2.23634e-09
2.11089e-09
1.99335e-09
2.7875e-08
1.19955e-06
1.75287e-06
1.63824e-06
1.12608e-06
2.57465e-06
2.57465e-06
6.19076e-07
4.02028e-10
1.91596e-08
2.30557e-08
8.79953e-08
4.92103e-07
7.62678e-07
6.01143e-09
6.01147e-09
6.01146e-09
6.01153e-09
6.65957e-09
1.18198e-05
2.18868e-09
1.73669e-09
1.73669e-09
1.93248e-09
3.02636e-07
1.24533e-06
4.19266e-07
5.91939e-07
2.57465e-06
2.07634e-06
3.96262e-10
3.96701e-10
1.67238e-07
1.511e-06
1.76034e-06
2.03542e-07
9.73808e-09
1.22185e-08
1.64406e-08
1.48793e-08
7.62996e-09
3.98742e-08
1.31014e-05
3.22709e-09
3.51145e-09
9.36432e-09
1.58807e-09
1.26564e-09
3.24534e-08
1.82458e-08
2.79791e-07
2.57183e-06
9.61478e-07
3.96109e-10
3.96262e-10
9.09028e-08
3.99325e-06
5.51728e-06
4.15804e-06
9.72183e-09
9.7067e-09
1.41055e-08
1.87322e-08
1.24992e-08
1.22942e-08
2.21229e-07
7.79977e-09
8.77954e-08
9.54307e-08
4.85661e-09
6.30286e-10
6.30286e-10
1.55977e-08
1.10097e-06
1.75901e-06
8.16939e-09
3.96109e-10
3.96109e-10
2.19981e-08
3.1729e-06
5.51672e-06
5.51729e-06
3.98964e-06
5.49933e-09
5.49103e-09
8.7713e-09
9.24164e-09
4.90466e-09
2.17909e-09
9.87776e-09
1.02011e-07
1.02018e-07
1.30588e-08
6.30286e-10
1.15923e-08
7.65815e-07
1.43447e-06
1.04334e-06
4.25751e-10
4.25472e-10
5.0312e-10
2.36943e-10
2.45967e-08
2.80234e-06
5.51653e-06
4.98998e-06
8.01053e-09
5.49111e-09
5.49103e-09
7.74941e-09
9.56457e-09
1.11135e-08
7.61573e-09
9.60226e-08
1.02016e-07
1.20358e-08
6.33822e-10
1.09764e-07
1.43445e-06
1.43449e-06
5.69797e-07
4.26559e-10
5.37643e-10
5.75078e-10
2.23081e-10
5.61379e-10
1.37428e-07
6.77754e-07
8.41803e-07
2.08403e-07
5.49103e-09
5.64669e-09
1.19546e-08
1.07509e-08
1.68203e-08
2.76126e-09
1.93234e-08
5.2384e-08
5.34162e-09
6.74487e-10
7.33804e-08
1.25665e-06
1.3488e-06
3.12093e-09
4.27142e-10
6.93019e-10
5.77111e-10
1.47106e-10
6.47388e-11
6.27473e-11
6.42393e-11
3.27913e-10
7.56516e-09
9.13561e-09
1.28996e-08
1.28996e-08
6.49092e-09
7.92264e-10
4.02966e-10
3.70915e-10
7.3429e-10
6.70171e-10
9.87131e-10
3.30283e-08
1.31172e-07
1.8055e-07
6.67054e-11
4.37915e-10
6.66454e-10
3.74335e-10
8.43755e-11
5.88496e-11
5.88504e-11
5.88587e-11
6.28828e-11
5.31884e-10
3.18251e-09
5.00273e-09
4.27024e-09
1.38701e-09
3.77254e-10
3.70915e-10
3.70914e-10
4.30048e-10
4.3727e-10
2.74504e-09
1.18248e-08
1.49957e-10
1.1638e-11
6.6699e-11
3.27343e-10
3.86706e-10
1.32988e-10
3.82873e-11
5.01131e-11
5.97386e-11
6.05054e-11
5.95723e-11
6.63772e-11
1.00936e-10
1.01053e-10
7.55516e-11
9.84321e-11
1.08031e-10
2.10929e-08
6.0806e-08
2.63394e-09
4.43685e-10
3.3674e-09
4.44788e-09
5.50827e-11
1.14453e-11
4.05673e-11
1.21747e-10
9.37123e-11
1.94092e-11
9.28499e-12
2.85754e-11
4.17252e-11
4.40511e-11
3.98763e-11
2.48321e-11
1.22099e-11
5.72289e-12
2.88563e-12
1.96524e-12
1.53538e-12
2.66061e-07
2.65914e-07
5.02918e-09
4.80337e-10
2.82346e-09
9.13144e-10
2.16288e-11
1.14451e-11
1.13934e-11
1.5047e-11
5.99544e-12
6.11986e-13
7.09155e-13
6.57893e-12
1.27684e-11
1.39226e-11
1.10646e-11
5.45955e-12
2.26747e-12
1.13928e-12
5.67196e-13
2.59507e-13
2.00389e-13
2.76482e-07
1.98721e-07
2.14861e-09
4.51196e-10
1.46753e-09
7.54653e-11
1.33662e-11
9.88867e-12
9.98213e-13
2.951e-13
2.12122e-14
-2.94271e-13
-2.14577e-13
2.54165e-13
8.30365e-13
9.34282e-13
6.00577e-13
2.28056e-13
8.09417e-14
3.49699e-14
1.12132e-14
1.47163e-16
-9.68108e-17
2.76482e-07
2.08689e-08
2.04909e-10
3.24079e-10
3.66013e-10
8.6283e-12
7.96982e-12
5.65781e-12
0
-4.12311e-13
-6.17292e-13
-7.98701e-13
-6.79982e-13
-3.54197e-13
-1.01887e-13
-1.24684e-14
-4.11354e-14
-8.26308e-14
-8.64571e-14
-7.31173e-14
-5.47998e-14
-3.72264e-14
-2.3069e-14
2.76478e-07
9.93476e-11
9.93476e-11
1.41143e-10
5.07215e-11
4.18077e-12
2.82104e-12
1.28148e-12
-3.94216e-13
-7.9605e-13
-9.47988e-13
-9.75661e-13
-8.26531e-13
-5.80427e-13
-3.79265e-13
-2.61093e-13
-2.00384e-13
-1.57751e-13
-1.18097e-13
-8.36913e-14
-5.61246e-14
-3.54757e-14
-2.11406e-14
2.76483e-07
1.19967e-07
3.55977e-10
4.11309e-11
2.78525e-11
4.24804e-12
4.00386e-13
4.58488e-14
-5.1015e-13
-8.33998e-13
-9.26067e-13
-8.86121e-13
-7.39904e-13
-5.50731e-13
-3.8767e-13
-2.71605e-13
-1.92672e-13
-1.34288e-13
-8.97767e-14
-5.75289e-14
-3.56951e-14
-2.14873e-14
-1.24403e-14
2.76483e-07
2.76483e-07
1.66771e-09
3.0754e-11
2.9481e-11
4.70149e-12
3.01194e-13
6.03443e-14
-3.3073e-13
-5.76148e-13
-6.58046e-13
-6.33787e-13
-5.35378e-13
-4.07692e-13
-2.91159e-13
-2.00988e-13
-1.35609e-13
-8.78438e-14
-5.40868e-14
-3.17616e-14
-1.81048e-14
-1.0232e-14
-5.73742e-15
2.76483e-07
2.76483e-07
1.62007e-09
3.71394e-11
3.87052e-11
6.29846e-12
8.40173e-13
5.92651e-13
1.36881e-13
-1.11062e-13
-2.44824e-13
-3.08671e-13
-3.02725e-13
-2.48932e-13
-1.8154e-13
-1.23465e-13
-8.0457e-14
-4.93723e-14
-2.83998e-14
-1.5367e-14
-7.96997e-15
-4.12025e-15
-2.17917e-15
2.76483e-07
1.94859e-07
4.20909e-10
7.15483e-11
6.3443e-11
1.04634e-11
3.12525e-12
2.86215e-12
2.1846e-12
1.28365e-12
5.32409e-13
5.9304e-14
-8.91455e-14
-1.19504e-13
-9.74681e-14
-6.62372e-14
-4.22931e-14
-2.49069e-14
-1.35224e-14
-6.79205e-15
-3.20639e-15
-1.49595e-15
-7.19687e-16
2.07617e-07
1.37573e-08
1.33868e-10
1.53366e-10
1.05246e-10
1.8874e-11
8.83221e-12
8.58728e-12
7.35945e-12
5.22395e-12
2.89184e-12
1.11541e-12
1.8542e-13
-3.12469e-14
-4.46656e-14
-3.17719e-14
-2.02099e-14
-1.15467e-14
-5.95998e-15
-2.79517e-15
-1.2094e-15
-5.14435e-16
-2.27585e-16
1.04094e-08
7.67814e-11
1.31479e-10
2.04178e-10
1.34739e-10
3.23139e-11
1.93921e-11
1.88463e-11
1.63829e-11
1.22309e-11
7.19778e-12
2.98434e-12
6.86163e-13
2.26608e-14
-1.54811e-14
-1.37229e-14
-8.90778e-15
-4.98612e-15
-2.46208e-15
-1.08408e-15
-4.35412e-16
-1.74905e-16
-7.47435e-17
7.67814e-11
7.675e-11
1.67472e-10
2.0758e-10
1.35828e-10
4.80758e-11
3.41524e-11
3.30543e-11
2.85095e-11
2.16004e-11
1.30136e-11
5.31449e-12
1.09165e-12
5.70849e-14
-2.06746e-15
-5.32223e-15
-3.66266e-15
-2.02466e-15
-9.59891e-16
-3.99493e-16
-1.51081e-16
-5.72318e-17
-2.35289e-17
7.70342e-11
7.67499e-11
1.65122e-10
1.86044e-10
1.20879e-10
5.45045e-11
4.77494e-11
4.72966e-11
4.12643e-11
3.14352e-11
1.90341e-11
7.33554e-12
1.24194e-12
5.79188e-14
0
-1.91791e-15
-1.42234e-15
-7.80429e-16
-3.5568e-16
-1.40056e-16
-4.96798e-17
-1.76604e-17
-6.96457e-18
8.86241e-11
6.38473e-11
1.12455e-10
9.417e-11
7.55598e-11
5.3324e-11
5.22303e-11
5.34797e-11
4.96882e-11
3.88637e-11
2.32186e-11
8.25333e-12
1.22547e-12
4.61332e-14
1.05753e-16
-6.64045e-16
-5.29421e-16
-2.87933e-16
-1.25724e-16
-4.65906e-17
-1.53272e-17
-5.05583e-18
-1.87772e-18
1.86152e-10
5.15001e-11
5.15035e-11
5.14842e-11
5.14842e-11
5.14841e-11
5.19944e-11
5.39824e-11
5.19037e-11
4.15955e-11
2.44057e-11
8.26309e-12
1.06757e-12
2.60242e-14
5.91122e-17
-2.27656e-16
-1.91784e-16
-1.02525e-16
-4.2538e-17
-1.46604e-17
-4.38787e-18
-1.31512e-18
-4.51503e-19
3.54791e-10
5.14844e-11
5.14842e-11
5.14842e-11
5.14842e-11
5.14842e-11
5.59126e-11
5.43764e-11
5.18036e-11
4.16471e-11
2.42012e-11
7.67039e-12
7.52482e-13
1.06351e-14
1.38066e-17
-7.94952e-17
-6.84851e-17
-3.54577e-17
-1.37931e-17
-4.34167e-18
-1.15452e-18
-3.07074e-19
-9.52822e-20
3.54665e-10
1.31929e-08
5.74526e-08
4.8978e-07
6.52901e-08
4.4258e-09
5.17839e-11
5.17938e-11
5.06953e-11
4.085e-11
2.26229e-11
6.04252e-12
4.03882e-13
3.14598e-15
1.65101e-18
-2.85921e-17
-2.43088e-17
-1.19474e-17
-4.27926e-18
-1.20267e-18
-2.76105e-19
-6.31125e-20
-1.72573e-20
3.54769e-10
3.16382e-08
7.26835e-07
8.20006e-07
7.74416e-07
1.02677e-07
4.35366e-11
4.35069e-11
4.77073e-11
3.79524e-11
1.87895e-11
3.7922e-12
1.54902e-13
6.11214e-16
1.24089e-19
-1.0655e-17
-8.61251e-18
-3.92371e-18
-1.2667e-18
-3.09948e-19
-5.94712e-20
-1.12288e-20
-2.61847e-21
3.54925e-10
8.61234e-09
8.20006e-07
8.20006e-07
8.20006e-07
1.44355e-07
4.35925e-11
4.2621e-11
4.37055e-11
3.23827e-11
1.32073e-11
1.79328e-12
3.8758e-14
6.60287e-17
3.37199e-21
-4.14491e-18
-3.04949e-18
-1.25568e-18
-3.57279e-19
-7.41815e-20
-1.15032e-20
-1.7101e-21
-3.24843e-22
8.18461e-10
8.18602e-10
2.99091e-07
8.20006e-07
5.13265e-07
5.00812e-08
5.22203e-11
4.26032e-11
3.87535e-11
2.4373e-11
7.41004e-12
5.84953e-13
5.53311e-15
3.34276e-18
-3.21553e-19
-1.68993e-18
-1.07815e-18
-3.92084e-19
-9.62677e-20
-1.65534e-20
-2.0076e-21
-2.21512e-22
-3.21331e-23
1.61611e-09
1.37129e-09
6.06385e-10
1.30822e-07
1.83819e-08
1.28906e-09
6.46289e-11
4.68068e-11
3.23199e-11
1.53046e-11
2.99354e-12
1.12539e-13
3.75977e-16
7.49322e-20
-4.03687e-19
-7.03309e-19
-3.80143e-19
-1.20031e-19
-2.49914e-20
-3.48746e-21
-3.21972e-22
-2.47799e-23
-2.49388e-24
7.45379e-10
1.28107e-09
6.05508e-10
2.60965e-10
1.00152e-10
8.45534e-11
8.25269e-11
4.93524e-11
2.37166e-11
7.27835e-12
7.28306e-13
1.00774e-14
9.88319e-18
4.46116e-22
-2.67922e-19
-2.92919e-19
-1.33939e-19
-3.63668e-20
-6.34948e-21
-7.09384e-22
-4.891e-23
-2.48192e-24
-1.51289e-25
-6.59494e-27
7.03515e-10
7.13515e-10
4.03084e-10
2.16329e-10
1.57862e-10
1.00992e-10
4.50704e-11
1.42339e-11
2.24053e-12
8.2377e-14
3.15346e-16
8.54321e-20
-2.98646e-20
-1.50832e-19
-1.21785e-19
-4.74167e-20
-1.10556e-20
-1.61616e-21
-1.4418e-22
-7.33357e-24
-2.32833e-25
-7.18176e-27
-9.3841e-28
1.30362e-10
5.81563e-10
5.52339e-10
4.20337e-10
2.40007e-10
9.78834e-11
2.76146e-11
4.2701e-12
2.43007e-13
2.38905e-15
2.13733e-18
2.37071e-22
-4.0282e-20
-7.91803e-20
-5.06481e-20
-1.69885e-20
-3.43081e-21
-4.25886e-22
-3.10536e-23
-1.2033e-24
-2.19212e-26
-2.375e-28
0.999997
0.999997
0.999997
0.999997
0.967967
0.968303
0.969156
0.969203
0.29468
0.294022
0.294351
0.295638
0.000261232
0.000511096
0.000551422
0.000488505
0.000244611
0.000510291
0.000552443
0.000480124
6.11842e-05
0.000203107
0.000350796
0.000343844
2.87605e-05
8.35067e-06
2.81153e-07
9.54459e-07
2.3666e-06
1.55609e-07
1.54688e-07
2.15311e-08
9.03965e-06
1.72206e-05
1.28127e-05
3.66969e-06
2.11634e-05
2.11634e-05
2.11634e-05
2.11634e-05
2.11626e-05
2.11634e-05
2.11634e-05
2.11634e-05
4.26702e-06
1.69527e-05
2.11627e-05
2.102e-05
2.17887e-09
2.17826e-09
2.17779e-09
2.17786e-09
1.26955e-08
6.45481e-09
5.57492e-09
2.46237e-09
2.52144e-08
2.5103e-08
6.09536e-08
1.26408e-07
7.23544e-10
5.58407e-10
7.53032e-08
2.39573e-07
2.53186e-11
4.86581e-13
1.31469e-13
2.97023e-08
8.5344e-12
4.88192e-13
1.31156e-13
1.45371e-14
3.70592e-13
2.58334e-13
1.31306e-13
2.9037e-14
1.8244e-13
1.36438e-13
7.76673e-14
4.29438e-14
4.67404e-16
-2.09194e-16
-8.98588e-16
-1.33774e-15
-1.32529e-14
-1.05272e-14
-8.35773e-15
-6.61899e-15
-1.20053e-14
-9.41649e-15
-7.43792e-15
-5.89774e-15
-6.83388e-15
-5.14601e-15
-3.9396e-15
-3.05814e-15
-3.13736e-15
-2.27169e-15
-1.64832e-15
-1.20709e-15
-1.23191e-15
-8.78537e-16
-6.17099e-16
-4.20343e-16
-4.35867e-16
-3.02579e-16
-2.1056e-16
-1.40302e-16
-1.45737e-16
-9.76748e-17
-6.56145e-17
-4.33519e-17
-4.74558e-17
-3.07581e-17
-1.98609e-17
-1.27023e-17
-1.45133e-17
-9.10892e-18
-5.68345e-18
-3.50255e-18
-4.14566e-18
-2.50085e-18
-1.49805e-18
-8.85038e-19
-1.06769e-18
-6.13693e-19
-3.50033e-19
-1.96796e-19
-2.42583e-19
-1.31554e-19
-7.07221e-20
-3.74416e-20
-4.76714e-20
-2.40753e-20
-1.2041e-20
-5.92311e-21
-7.90101e-21
-3.65657e-21
-1.67416e-21
-7.52608e-22
-1.07206e-21
-4.45215e-22
-1.82746e-22
-7.34926e-23
-1.15033e-22
-4.16186e-23
-1.48802e-23
-5.20019e-24
-9.34936e-24
-2.81782e-24
-8.40909e-25
-2.44823e-25
-5.45444e-25
-1.26785e-25
-2.94212e-26
-6.66909e-27
-2.10868e-26
-3.25133e-27
-5.12691e-28
-7.99613e-29
-4.6789e-28
-3.41341e-29
-2.66502e-30
-2.15189e-31
-3.49408e-30
-4.79528e-32
-6.56517e-34
-9.5564e-36
0.999997
0.999997
0.999997
0.999997
0.999395
0.997209
0.996888
0.997725
0.992985
0.985167
0.985165
0.987732
0.987417
0.987417
0.996139
0.996744
0.995974
0.996448
0.997699
0.970965
0.969664
0.967489
0.965996
0.966194
0.967861
0.9694
0.972944
0.98201
0.98865
0.991229
0.992787
0.993922
0.994059
0.99431
0.994039
0.993696
0.990028
0.987494
0.300071
0.301817
0.306116
0.312046
0.319016
0.326558
0.33415
0.341016
0.34756
0.355544
0.362778
0.369477
0.376415
0.38165
0.383913
0.387236
0.391188
0.393663
0.395573
0.000258017
0.000580718
0.00076178
0.000722452
0.00051804
0.000358381
0.000247487
0.000186866
0.00018287
0.000182688
0.00018251
0.000182441
0.000182509
0.000182441
0.000182567
0.000182784
0.000182972
0.000183166
0.000183368
0.000246152
0.000759118
0.000760505
0.000750745
0.000758588
0.00078528
0.00078673
0.000787119
0.000787143
0.000784891
0.000695966
0.000478826
0.00022116
0.000479451
0.000567744
0.000567739
0.000567744
0.000564372
0.000490081
0.000204189
0.000126509
0.0001522
0.000134844
0.000100899
7.41343e-05
6.24512e-05
5.59779e-05
2.92937e-05
8.18124e-06
8.18424e-06
2.23332e-05
8.38418e-05
9.68258e-05
0.000109437
0.000145733
0.00016012
0.000159716
0.000181047
1.41602e-05
1.42631e-08
1.64633e-08
1.2638e-07
3.30883e-07
5.14609e-06
5.92078e-06
5.70692e-06
5.70589e-06
1.39216e-05
2.54233e-05
3.10222e-05
3.1865e-05
1.72475e-05
2.41949e-06
5.15103e-07
5.15097e-07
5.15097e-07
5.15097e-07
1.42631e-08
1.41804e-08
1.43154e-08
2.04383e-06
2.41624e-05
3.37241e-05
3.37287e-05
1.89185e-05
2.73866e-05
4.63551e-05
4.63626e-05
4.63626e-05
4.63626e-05
2.92383e-05
7.65245e-07
5.15096e-07
5.15095e-07
5.15096e-07
5.15097e-07
1.10751e-06
1.41814e-08
1.41814e-08
1.31343e-05
3.37251e-05
3.37287e-05
2.515e-05
2.912e-05
2.70951e-05
1.20606e-05
2.31361e-05
3.45369e-05
3.33543e-05
5.45577e-06
5.15096e-07
5.15094e-07
5.15095e-07
5.15095e-07
5.15096e-07
1.7223e-05
3.66529e-07
2.13235e-08
3.96752e-06
1.14204e-05
6.8687e-06
6.46534e-08
1.397e-07
3.22772e-10
3.22791e-10
3.22772e-10
3.56683e-10
2.58445e-06
6.02841e-06
5.15327e-07
5.15094e-07
5.15094e-07
5.15099e-07
5.17812e-07
2.11633e-05
1.83241e-05
2.20101e-09
2.18331e-09
2.18344e-09
2.18333e-09
2.50013e-07
4.79328e-07
1.97089e-07
2.96691e-10
3.06228e-08
3.64714e-06
8.02489e-06
4.90365e-06
5.15094e-07
5.15093e-07
5.15105e-07
5.186e-07
5.186e-07
1.61122e-05
8.40461e-06
1.5803e-07
2.18346e-09
2.18331e-09
2.08457e-07
4.79544e-07
4.79544e-07
1.67692e-07
2.67389e-10
3.20075e-07
6.98309e-06
8.02489e-06
5.99833e-06
5.15093e-07
5.15093e-07
5.15092e-07
5.15094e-07
5.15096e-07
2.17779e-09
2.17786e-09
2.43384e-09
2.4702e-09
9.24173e-09
1.26767e-08
8.95303e-09
1.65037e-09
2.64162e-10
2.64169e-10
2.67389e-10
2.7129e-06
8.02489e-06
8.02292e-06
3.01553e-06
5.15092e-07
5.15092e-07
5.15094e-07
5.15106e-07
2.96881e-09
2.23724e-09
2.23287e-09
2.23319e-09
1.98113e-09
2.6409e-10
2.64085e-10
2.64085e-10
2.64085e-10
2.96835e-10
2.96711e-10
2.79018e-08
3.48782e-06
7.01143e-06
3.9717e-06
6.72567e-07
2.78758e-06
2.94857e-06
1.24183e-06
1.49562e-07
1.17153e-07
2.47428e-08
6.41687e-10
6.41481e-10
5.41561e-10
2.96111e-10
2.65508e-10
4.57717e-10
5.6506e-10
3.90771e-10
6.61514e-11
6.53032e-11
6.65638e-11
4.25356e-07
9.50266e-06
1.04713e-05
1.04714e-05
1.04696e-05
2.39574e-07
2.3958e-07
2.2286e-07
1.90018e-08
1.51662e-09
8.45803e-10
4.99378e-09
8.73284e-09
3.06039e-09
3.22547e-10
2.18107e-10
7.79825e-11
6.43986e-11
6.53032e-11
7.58888e-07
8.36518e-06
1.04713e-05
8.53995e-06
4.70747e-06
1.58309e-07
2.39587e-07
2.39587e-07
2.33526e-07
8.6761e-09
8.48764e-10
3.22832e-08
6.39104e-08
3.04525e-08
2.30891e-09
2.85518e-11
4.51599e-11
6.43189e-11
1.71549e-10
1.8686e-08
5.9514e-07
1.8212e-06
1.10625e-12
1.11598e-12
1.67022e-18
6.90045e-08
2.08373e-07
1.82069e-07
1.71365e-08
1.43522e-09
4.79626e-08
6.39104e-08
6.39104e-08
2.58935e-08
2.85472e-11
3.57934e-11
1.14655e-10
5.92505e-10
5.70031e-10
1.05012e-12
1.05055e-12
1.08021e-12
1.11641e-12
5.56013e-19
-4.92937e-35
-2.69066e-45
4.34591e-20
9.41855e-10
2.12928e-09
2.88444e-08
6.39104e-08
6.30793e-08
2.56907e-08
2.8534e-11
2.85297e-11
4.76742e-11
5.32865e-11
6.64147e-11
1.04781e-12
1.97755e-11
1.50691e-09
9.09144e-12
1.48643e-14
-2.49732e-16
-1.52348e-16
-3.97993e-32
4.34577e-20
1.00099e-18
9.51299e-16
4.93584e-09
9.28242e-09
4.31682e-10
9.52478e-11
2.78754e-11
3.8978e-11
5.60535e-12
6.8352e-13
1.04743e-12
1.53178e-12
1.95156e-08
7.51658e-07
-1.47534e-15
-1.09701e-15
-5.06168e-16
2.62297e-16
1.54297e-15
2.60941e-15
2.60939e-15
2.61395e-15
2.6336e-15
2.68042e-15
3.2352e-13
9.23051e-12
2.26944e-11
1.68926e-12
6.83577e-13
7.42977e-13
5.07015e-13
3.33733e-08
2.09511e-06
-5.24483e-15
-2.74382e-15
-1.21782e-15
9.75351e-21
3.3975e-15
1.44526e-14
3.00438e-14
6.86433e-14
1.23552e-13
1.6465e-13
2.23295e-13
4.25194e-13
5.85609e-13
2.25579e-13
1.02936e-13
4.63993e-13
4.64027e-13
3.12336e-09
2.09513e-06
-4.68218e-15
-2.63526e-15
-1.45727e-15
-7.63758e-16
-3.24425e-16
0
1.29102e-15
1.9871e-14
6.57554e-14
8.3379e-14
8.7058e-14
1.55689e-13
1.77389e-13
5.60798e-14
2.81983e-14
3.93517e-13
1.86528e-12
6.64202e-13
2.0951e-06
-2.39452e-15
-1.36464e-15
-7.74429e-16
-4.37004e-16
-2.4293e-16
-1.29799e-16
-5.84816e-17
1.92593e-37
2.4392e-16
1.55591e-15
2.64811e-15
4.49339e-15
1.27774e-14
6.4285e-15
1.21351e-14
3.61127e-13
1.84666e-12
6.64174e-13
2.09477e-06
-8.98827e-16
-4.98922e-16
-2.77398e-16
-1.54578e-16
-8.63933e-17
-4.87448e-17
-2.71016e-17
-1.35279e-17
-2.85224e-18
3.30475e-18
2.49305e-17
8.58223e-17
3.11347e-16
1.30256e-15
8.94298e-15
3.2968e-13
1.83252e-12
6.64202e-13
7.61501e-07
-2.76126e-16
-1.46975e-16
-7.82517e-17
-4.20869e-17
-2.30694e-17
-1.27342e-17
-6.8654e-18
-3.24281e-18
-9.35391e-19
7.84104e-19
1.08416e-17
4.97661e-17
2.34008e-16
1.15255e-15
8.66556e-15
3.18239e-13
1.94618e-12
8.18306e-13
8.18307e-13
-7.4944e-17
-3.74265e-17
-1.91352e-17
-9.98573e-18
-5.23707e-18
-2.59861e-18
-1.04855e-18
6.22191e-20
1.2886e-18
8.59485e-18
1.96042e-17
5.14484e-17
2.28295e-16
1.1418e-15
1.07532e-14
3.2133e-13
2.26881e-12
1.20899e-12
1.01385e-12
-1.98652e-17
-9.04257e-18
-4.22943e-18
-2.02519e-18
-9.0313e-19
-1.59142e-20
6.24053e-19
5.76622e-18
2.83324e-17
8.3717e-17
1.62987e-16
2.79397e-16
8.04729e-16
5.40174e-15
5.98823e-14
5.14198e-13
2.77852e-12
1.20918e-12
6.35189e-07
-5.244e-18
-2.13634e-18
-8.8725e-19
-3.65768e-19
2.58832e-21
1.11107e-18
1.11296e-17
5.53142e-17
2.01959e-16
5.9722e-16
1.6615e-15
7.15561e-15
3.89953e-14
2.07185e-13
6.72785e-13
2.00194e-12
4.04664e-12
1.21041e-12
2.1809e-06
-1.34506e-18
-4.99674e-19
-1.84746e-19
-5.24764e-20
3.73066e-19
7.44974e-18
6.29973e-17
3.1083e-16
1.31581e-15
5.86318e-15
3.7857e-14
2.55053e-13
1.14448e-12
3.64661e-12
5.6788e-12
7.95467e-12
8.11541e-12
1.21103e-12
2.18094e-06
-3.17497e-19
-1.08993e-19
-3.60935e-20
9.19936e-21
1.09414e-18
2.08872e-17
2.53996e-16
1.70884e-15
1.1511e-14
8.24336e-14
6.18772e-13
3.30327e-12
1.07005e-11
2.25879e-11
2.58542e-11
2.28702e-11
1.92753e-11
1.21178e-12
2.17557e-06
-6.5528e-20
-2.07742e-20
-5.84116e-21
3.65959e-20
1.68353e-18
4.20972e-17
7.2304e-16
8.11769e-15
7.93475e-14
6.14494e-13
3.71333e-12
1.51326e-11
3.82165e-11
5.99034e-11
6.38995e-11
4.78951e-11
4.11781e-11
1.21433e-12
2.11608e-06
-1.14178e-20
-3.30264e-21
-5.22773e-22
3.91185e-20
2.0872e-18
6.15704e-17
1.39225e-15
2.52964e-14
2.80545e-13
2.00507e-12
9.70561e-12
3.25175e-11
6.99707e-11
8.97176e-11
9.68967e-11
8.39022e-11
8.26941e-11
1.22541e-12
2.11617e-06
-1.6263e-21
-4.20914e-22
8.68049e-23
3.55995e-20
2.19832e-18
7.02487e-17
1.90388e-15
4.84304e-14
5.39008e-13
3.50968e-12
1.45463e-11
4.3129e-11
8.5476e-11
9.86214e-11
1.06145e-10
1.97364e-10
2.54816e-10
1.23824e-12
2.1161e-06
-1.82344e-22
-4.09207e-23
1.11519e-22
2.02955e-20
1.96562e-18
7.01384e-17
2.06735e-15
6.31633e-14
6.84524e-13
4.16162e-12
1.60221e-11
4.48443e-11
8.68736e-11
9.05093e-11
7.7511e-11
9.7636e-10
1.44383e-09
1.28925e-12
1.19308e-06
-1.53299e-23
-2.74899e-24
3.94152e-23
8.3977e-21
1.04364e-18
4.60317e-17
1.85498e-15
6.62482e-14
7.04021e-13
4.10965e-12
1.43989e-11
3.21516e-11
6.13321e-11
4.83654e-11
6.97394e-12
2.98503e-09
4.16256e-09
1.40664e-10
1.40717e-10
-9.04576e-25
-8.15399e-26
1.33355e-23
2.98109e-21
3.76235e-19
1.67196e-17
8.73832e-16
4.90661e-14
4.78154e-13
2.37784e-12
6.77216e-12
1.14051e-11
2.2415e-11
1.33262e-11
9.05294e-13
4.24253e-09
5.1793e-09
1.40717e-10
1.73451e-07
-3.39776e-26
1.00765e-26
2.94419e-24
8.2422e-22
1.09112e-19
4.41118e-18
2.29151e-16
1.70628e-14
1.52375e-13
6.72836e-13
1.66908e-12
2.52803e-12
4.58784e-12
1.89018e-12
9.05294e-13
3.20088e-09
5.02637e-09
3.00771e-10
6.64694e-07
-6.90064e-28
1.46651e-27
3.99739e-25
1.49406e-22
2.25795e-20
8.84044e-19
4.06026e-17
3.36184e-15
2.80539e-14
1.13921e-13
2.5302e-13
3.73298e-13
6.09272e-13
1.26216e-13
2.97403e-12
5.52881e-10
2.0855e-09
1.34485e-09
6.64704e-07
-5.46455e-30
1.10071e-28
2.89516e-26
1.57583e-23
2.69062e-21
1.12894e-19
4.7107e-18
3.97854e-16
3.09895e-15
1.1565e-14
2.33583e-14
3.33988e-14
4.91346e-14
4.34689e-15
1.42592e-11
2.36565e-11
1.43103e-10
3.00417e-23
6.55637e-07
-7.62553e-33
6.36177e-33
5.02251e-28
7.92283e-25
1.3769e-22
6.34157e-21
2.75e-19
2.21619e-17
1.60613e-16
5.49895e-16
1.0271e-15
1.43081e-15
1.83586e-15
3.52155e-16
6.62975e-13
2.57401e-20
3.00417e-23
1.28637e-23
6.13041e-07
-6.51543e-38
-4.88558e-40
4.80178e-36
6.637e-31
1.19687e-27
2.89622e-25
5.24208e-23
4.04238e-21
1.99969e-20
5.83438e-20
9.83488e-20
1.21178e-19
4.87671e-20
1.72486e-21
7.95265e-17
1.46434e-17
1.08745e-19
-3.35298e-39
5.67691e-07
)
;

boundaryField
{
    leftWall
    {
        type            zeroGradient;
    }
    rightWall
    {
        type            zeroGradient;
    }
    lowerWall
    {
        type            zeroGradient;
    }
    atmosphere
    {
        type            inletOutlet;
        inletValue      uniform 0;
        value           nonuniform List<scalar> 
46
(
0
1.30362e-10
5.81563e-10
5.52339e-10
4.20337e-10
2.40007e-10
9.78834e-11
2.76146e-11
4.2701e-12
2.43007e-13
2.38905e-15
2.13733e-18
2.37071e-22
-4.0282e-20
-7.91803e-20
-5.06481e-20
-1.69885e-20
-3.43081e-21
-4.25886e-22
-3.10536e-23
-1.2033e-24
-2.19212e-26
0
0
0
0
0
0
0
0
0
0
0
0
0
0
0
0
0
0
0
0
0
0
0
5.67691e-07
)
;
    }
    defaultFaces
    {
        type            empty;
    }
}


// ************************************************************************* //
