/*--------------------------------*- C++ -*----------------------------------*\
  =========                 |
  \\      /  F ield         | OpenFOAM: The Open Source CFD Toolbox
   \\    /   O peration     | Website:  https://openfoam.org
    \\  /    A nd           | Version:  9
     \\/     M anipulation  |
\*---------------------------------------------------------------------------*/
FoamFile
{
    format      ascii;
    class       volScalarField;
    location    "9.47";
    object      p;
}
// * * * * * * * * * * * * * * * * * * * * * * * * * * * * * * * * * * * * * //

dimensions      [1 -1 -2 0 0 0 0];

internalField   nonuniform List<scalar> 
2268
(
739.006
738.923
738.734
738.432
738.023
737.511
736.905
736.213
735.447
734.622
733.755
732.861
731.956
731.055
730.169
729.319
728.529
727.835
727.23
726.746
726.499
726.297
726.229
680.164
680.077
679.886
679.581
679.169
678.655
678.046
677.352
676.585
675.759
674.889
673.991
673.079
672.17
671.282
670.441
669.676
669.012
668.478
668.032
667.68
667.415
667.34
621.343
621.253
621.059
620.75
620.333
619.815
619.202
618.505
617.734
616.903
616.028
615.124
614.205
613.29
612.4
611.567
610.815
610.174
609.695
609.244
608.819
608.509
608.436
562.546
562.455
562.258
561.944
561.522
560.998
560.38
559.676
558.897
558.059
557.176
556.262
555.336
554.415
553.522
552.69
551.931
551.296
550.835
550.39
549.914
549.57
549.521
503.773
503.682
503.483
503.165
502.737
502.206
501.58
500.867
500.078
499.227
498.332
497.407
496.47
495.543
494.648
493.815
493.026
492.374
491.908
491.473
490.969
490.611
490.598
445.026
444.936
444.734
444.411
443.976
443.437
442.802
442.078
441.273
440.407
439.495
438.554
437.606
436.672
435.776
434.951
434.12
433.402
432.941
432.511
431.978
431.706
431.666
386.304
386.215
386.011
385.681
385.238
384.69
384.045
383.308
382.484
381.597
380.664
379.705
378.742
377.798
376.904
376.097
375.338
374.564
373.954
373.516
373.088
372.913
372.712
327.609
327.519
327.31
326.974
326.522
325.964
325.307
324.555
323.71
322.798
321.84
320.857
319.876
318.922
318.031
317.259
316.698
315.991
315.11
314.605
314.38
314.09
313.734
726.701
726.755
727.272
727.798
728.368
728.961
729.578
730.23
730.892
731.565
732.169
732.634
733.345
734.159
734.767
735.23
735.52
735.74
735.918
667.836
667.834
668.316
668.851
669.445
670.056
670.741
671.445
672.14
672.845
673.597
674.264
674.862
675.43
676.01
676.479
676.777
677
677.164
608.897
608.97
609.405
609.927
610.53
611.159
611.854
612.574
613.299
614.051
614.895
615.845
616.448
616.823
617.297
617.766
618.138
618.366
618.548
550.063
550.225
550.547
551.034
551.63
552.27
552.977
553.717
554.465
555.256
556.131
557.23
557.941
558.255
558.612
559.062
559.484
559.714
559.881
491.438
491.515
491.724
492.158
492.736
493.386
494.107
494.868
495.641
496.471
497.369
498.435
499.243
499.589
499.95
500.346
500.752
501.023
501.192
432.826
432.786
432.9
433.274
433.836
434.493
435.233
436.019
436.802
437.658
438.593
439.606
440.413
440.864
441.339
441.821
442.152
442.301
442.536
374.039
374.023
374.024
374.363
374.921
375.587
376.352
377.186
377.973
378.811
379.797
380.799
381.613
382.148
382.83
383.496
383.784
383.672
383.923
315.027
314.983
315.059
315.421
315.991
316.667
317.468
318.394
319.341
320.103
321.012
322.012
322.835
323.501
324.47
325.031
325.443
325.192
325.355
235.882
235.789
235.571
235.223
234.755
234.181
233.507
232.73
231.842
230.883
229.877
228.85
227.839
226.872
225.979
225.227
224.692
224.125
223.486
222.88
222.372
221.892
221.418
111.485
111.407
111.201
110.828
110.301
109.679
108.978
108.2
107.357
106.471
105.557
104.626
103.678
102.737
101.826
100.999
100.339
99.8816
99.4342
98.8808
98.3104
97.8907
97.6926
24.5019
24.4677
24.3483
24.153
23.8911
23.5586
23.1753
22.7771
22.3979
22.0105
21.6144
21.2045
20.7632
20.3027
19.8377
19.3961
19.0342
18.7674
18.5295
18.2958
18.0888
17.9627
17.9277
-0.78658
-0.785616
-0.800115
-0.782952
-0.713391
-0.699688
-0.695194
-0.688559
-0.673106
-0.669431
-0.668455
-0.671536
-0.678331
-0.676597
-0.668162
-0.664471
-0.687265
-0.740376
-0.794201
-0.79396
-0.776245
-0.773132
-0.79558
-0.968779
-0.968142
-0.969307
-0.964208
-0.950471
-0.94277
-0.940582
-0.936246
-0.92997
-0.927319
-0.926525
-0.927295
-0.930517
-0.932852
-0.934784
-0.939343
-0.947458
-0.95665
-0.964647
-0.967739
-0.966271
-0.966259
-0.972107
-1.15107
-1.15109
-1.15128
-1.15428
-1.16341
-1.16398
-1.16312
-1.1619
-1.16245
-1.16149
-1.15974
-1.15689
-1.15381
-1.15192
-1.15084
-1.15009
-1.1485
-1.14364
-1.13657
-1.13581
-1.1357
-1.13365
-1.13037
-1.29055
-1.29067
-1.28987
-1.28945
-1.28964
-1.2892
-1.28882
-1.28856
-1.28768
-1.28644
-1.28493
-1.28312
-1.28117
-1.27992
-1.27936
-1.27865
-1.2776
-1.27725
-1.27665
-1.27556
-1.27508
-1.27426
-1.27133
-1.41561
-1.4158
-1.41544
-1.41536
-1.41464
-1.41403
-1.41356
-1.41311
-1.41242
-1.41154
-1.41074
-1.41023
-1.40947
-1.40847
-1.40729
-1.40561
-1.40429
-1.40351
-1.40276
-1.40204
-1.40165
-1.40145
-1.40064
-1.53994
-1.54002
-1.53985
-1.53965
-1.53923
-1.53878
-1.53834
-1.53789
-1.53729
-1.53664
-1.53609
-1.53575
-1.53522
-1.53423
-1.53304
-1.5318
-1.53053
-1.52966
-1.52895
-1.52833
-1.5279
-1.52749
-1.52663
-1.66448
-1.66452
-1.6644
-1.66423
-1.66396
-1.66361
-1.66323
-1.66279
-1.66228
-1.66174
-1.66122
-1.66072
-1.6601
-1.65925
-1.65834
-1.65747
-1.65647
-1.65566
-1.65503
-1.6545
-1.65413
-1.6538
-1.65328
-1.78913
-1.78914
-1.78905
-1.78891
-1.78872
-1.78845
-1.78812
-1.78772
-1.78728
-1.78683
-1.78632
-1.78578
-1.78517
-1.78439
-1.78358
-1.78283
-1.78214
-1.78152
-1.78101
-1.78061
-1.78035
-1.78028
-1.78041
-1.91385
-1.91385
-1.91378
-1.91366
-1.9135
-1.91328
-1.91297
-1.91263
-1.91229
-1.91191
-1.91142
-1.91092
-1.91039
-1.90974
-1.90903
-1.90834
-1.90775
-1.9073
-1.90691
-1.9066
-1.90645
-1.90653
-1.90696
-2.03864
-2.03863
-2.03856
-2.03846
-2.03831
-2.03811
-2.03784
-2.03757
-2.03731
-2.03696
-2.03653
-2.0361
-2.03567
-2.03525
-2.0347
-2.03406
-2.03346
-2.03307
-2.03273
-2.03248
-2.03237
-2.03244
-2.03274
-2.16347
-2.16346
-2.16341
-2.16331
-2.16318
-2.16301
-2.16278
-2.16257
-2.16234
-2.16201
-2.16165
-2.16129
-2.16094
-2.16065
-2.16029
-2.15981
-2.15929
-2.15882
-2.15847
-2.15824
-2.15814
-2.15816
-2.15833
-2.28835
-2.28834
-2.28829
-2.28821
-2.2881
-2.28796
-2.28778
-2.2876
-2.28739
-2.28709
-2.28678
-2.28647
-2.28617
-2.2859
-2.28565
-2.28534
-2.28492
-2.28444
-2.28411
-2.2839
-2.28379
-2.28378
-2.28385
-2.41327
-2.41325
-2.41321
-2.41314
-2.41305
-2.41295
-2.41283
-2.41267
-2.41244
-2.41218
-2.41191
-2.41164
-2.41137
-2.41112
-2.41087
-2.4106
-2.41027
-2.40993
-2.40965
-2.40946
-2.40935
-2.40932
-2.40934
-2.53821
-2.53819
-2.53816
-2.5381
-2.53803
-2.53795
-2.53786
-2.53771
-2.5375
-2.53727
-2.53704
-2.5368
-2.53656
-2.53633
-2.5361
-2.53586
-2.5356
-2.53533
-2.53512
-2.53495
-2.53485
-2.5348
-2.5348
-2.66318
-2.66316
-2.66314
-2.66309
-2.66303
-2.66295
-2.66286
-2.66273
-2.66256
-2.66237
-2.66217
-2.66196
-2.66175
-2.66155
-2.66134
-2.66113
-2.66091
-2.66071
-2.66053
-2.66039
-2.6603
-2.66024
-2.66023
-2.78817
-2.78816
-2.78814
-2.7881
-2.78805
-2.78798
-2.78789
-2.78778
-2.78763
-2.78747
-2.7873
-2.78712
-2.78694
-2.78676
-2.78658
-2.7864
-2.78622
-2.78605
-2.7859
-2.78578
-2.7857
-2.78565
-2.78562
-2.91319
-2.9132
-2.91318
-2.91314
-2.91309
-2.91303
-2.91295
-2.91285
-2.91272
-2.91259
-2.91244
-2.91229
-2.91213
-2.91197
-2.91182
-2.91166
-2.91151
-2.91137
-2.91124
-2.91114
-2.91107
-2.91102
-2.911
-3.03826
-3.03826
-3.03823
-3.0382
-3.03815
-3.0381
-3.03802
-3.03793
-3.03783
-3.03771
-3.03759
-3.03746
-3.03732
-3.03718
-3.03705
-3.03691
-3.03679
-3.03667
-3.03656
-3.03648
-3.03641
-3.03637
-3.03635
-3.16335
-3.16332
-3.1633
-3.16327
-3.16323
-3.16318
-3.16312
-3.16304
-3.16295
-3.16285
-3.16274
-3.16263
-3.16251
-3.16239
-3.16227
-3.16216
-3.16205
-3.16195
-3.16186
-3.16179
-3.16174
-3.1617
-3.16168
-3.28841
-3.28842
-3.28839
-3.28836
-3.28833
-3.28828
-3.28822
-3.28815
-3.28808
-3.28799
-3.2879
-3.2878
-3.2877
-3.2876
-3.2875
-3.2874
-3.28731
-3.28722
-3.28715
-3.28709
-3.28704
-3.287
-3.28698
-3.41352
-3.41351
-3.41349
-3.41347
-3.41343
-3.41339
-3.41334
-3.41328
-3.41321
-3.41314
-3.41306
-3.41297
-3.41289
-3.4128
-3.41271
-3.41263
-3.41255
-3.41248
-3.41242
-3.41236
-3.41232
-3.41229
-3.41228
-3.53864
-3.53862
-3.53861
-3.53858
-3.53855
-3.53851
-3.53847
-3.53841
-3.53835
-3.53829
-3.53822
-3.53815
-3.53807
-3.538
-3.53792
-3.53785
-3.53779
-3.53773
-3.53767
-3.53763
-3.53759
-3.53757
-3.53755
-3.66375
-3.66377
-3.66374
-3.66371
-3.66368
-3.66364
-3.6636
-3.66355
-3.6635
-3.66345
-3.66339
-3.66332
-3.66326
-3.66319
-3.66313
-3.66307
-3.66301
-3.66296
-3.66292
-3.66288
-3.66285
-3.66283
-3.66282
-3.7889
-3.7889
-3.78887
-3.78885
-3.78881
-3.78878
-3.78874
-3.7887
-3.78865
-3.78861
-3.78855
-3.7885
-3.78844
-3.78839
-3.78834
-3.78828
-3.78824
-3.78819
-3.78815
-3.78812
-3.7881
-3.78808
-3.78807
-3.91407
-3.91403
-3.91401
-3.91398
-3.91395
-3.91392
-3.91389
-3.91385
-3.91381
-3.91377
-3.91372
-3.91368
-3.91363
-3.91358
-3.91354
-3.91349
-3.91345
-3.91342
-3.91338
-3.91336
-3.91334
-3.91332
-3.91332
-4.03919
-4.03918
-4.03915
-4.03912
-4.0391
-4.03907
-4.03904
-4.03901
-4.03897
-4.03894
-4.0389
-4.03886
-4.03882
-4.03878
-4.03874
-4.0387
-4.03867
-4.03863
-4.03861
-4.03859
-4.03857
-4.03856
-4.03856
-4.16433
-4.16432
-4.16429
-4.16427
-4.16424
-4.16422
-4.16419
-4.16416
-4.16414
-4.16411
-4.16407
-4.16404
-4.16401
-4.16397
-4.16394
-4.16391
-4.16388
-4.16385
-4.16383
-4.16381
-4.1638
-4.16379
-4.16379
-4.28947
-4.28946
-4.28943
-4.28941
-4.28939
-4.28937
-4.28935
-4.28932
-4.2893
-4.28928
-4.28925
-4.28922
-4.28919
-4.28916
-4.28914
-4.28911
-4.28908
-4.28906
-4.28904
-4.28903
-4.28902
-4.28902
-4.28902
-4.41462
-4.41461
-4.41458
-4.41455
-4.41453
-4.41452
-4.4145
-4.41449
-4.41447
-4.41445
-4.41443
-4.41441
-4.41438
-4.41436
-4.41433
-4.41431
-4.41429
-4.41427
-4.41426
-4.41425
-4.41424
-4.41424
-4.41424
-4.53978
-4.53976
-4.53972
-4.53969
-4.53968
-4.53967
-4.53966
-4.53965
-4.53964
-4.53963
-4.53961
-4.53959
-4.53957
-4.53955
-4.53953
-4.53951
-4.5395
-4.53948
-4.53947
-4.53946
-4.53946
-4.53946
-4.53947
-4.66494
-4.6649
-4.66486
-4.66483
-4.66482
-4.66483
-4.66483
-4.66483
-4.66482
-4.66481
-4.6648
-4.66478
-4.66476
-4.66475
-4.66473
-4.66472
-4.6647
-4.66469
-4.66468
-4.66467
-4.66467
-4.66468
-4.66468
-4.7901
-4.79005
-4.79
-4.78997
-4.78997
-4.78999
-4.79
-4.79
-4.79
-4.78999
-4.78998
-4.78997
-4.78996
-4.78994
-4.78993
-4.78992
-4.78991
-4.7899
-4.78989
-4.78988
-4.78988
-4.78989
-4.7899
-4.91525
-4.91519
-4.91516
-4.91514
-4.91515
-4.91517
-4.91518
-4.91519
-4.91519
-4.91518
-4.91517
-4.91516
-4.91515
-4.91514
-4.91513
-4.91512
-4.91511
-4.9151
-4.9151
-4.91509
-4.91509
-4.9151
-4.91511
-5.04038
-5.04034
-5.04033
-5.04034
-5.04036
-5.04037
-5.04038
-5.04038
-5.04038
-5.04037
-5.04037
-5.04036
-5.04035
-5.04034
-5.04033
-5.04032
-5.04032
-5.04031
-5.0403
-5.0403
-5.0403
-5.04031
-5.04032
-5.1655
-5.16545
-5.1655
-5.16554
-5.16557
-5.16558
-5.16558
-5.16558
-5.16557
-5.16557
-5.16557
-5.16556
-5.16555
-5.16554
-5.16554
-5.16553
-5.16552
-5.16552
-5.16551
-5.16551
-5.16551
-5.16552
-5.16553
-5.29057
-5.29056
-5.29066
-5.29073
-5.29077
-5.29078
-5.29078
-5.29078
-5.29077
-5.29077
-5.29077
-5.29076
-5.29075
-5.29075
-5.29074
-5.29074
-5.29073
-5.29072
-5.29072
-5.29072
-5.29072
-5.29072
-5.29074
-5.41561
-5.4157
-5.41582
-5.41591
-5.41596
-5.41597
-5.41598
-5.41598
-5.41597
-5.41597
-5.41597
-5.41596
-5.41596
-5.41595
-5.41595
-5.41594
-5.41594
-5.41593
-5.41593
-5.41592
-5.41592
-5.41593
-5.41594
-5.54067
-5.54087
-5.54102
-5.54111
-5.54115
-5.54117
-5.54117
-5.54116
-5.54116
-5.54116
-5.54115
-5.54115
-5.54115
-5.54114
-5.54114
-5.54114
-5.54113
-5.54113
-5.54113
-5.54112
-5.54112
-5.54111
-5.54114
-5.66594
-5.66642
-5.66634
-5.66635
-5.66636
-5.66636
-5.66636
-5.66635
-5.66635
-5.66635
-5.66635
-5.66634
-5.66634
-5.66634
-5.66634
-5.66634
-5.66634
-5.66634
-5.66634
-5.66634
-5.66632
-5.66629
-5.66632
221.276
221.267
221.35
221.455
97.6048
97.5919
97.6386
97.7594
17.8846
17.881
17.9074
17.9711
-0.788279
-0.77074
-0.761874
-0.767746
-0.970402
-0.968571
-0.965851
-0.966274
-1.12991
-1.13139
-1.13119
-1.13082
-1.27126
-1.27274
-1.27433
-1.27436
-1.39982
-1.39965
-1.39985
-1.39987
-1.52617
-1.52594
-1.5259
-1.52582
-1.65302
-1.65293
-1.6528
-1.65265
-1.78038
-1.78029
-1.78019
-1.78012
-1.90724
-1.90734
-1.90737
-1.90738
-2.03309
-2.03333
-2.03348
-2.03353
-2.15851
-2.15861
-2.15869
-2.15874
-2.28394
-2.284
-2.28404
-2.28407
-2.40939
-2.40941
-2.40944
-2.40946
-2.53482
-2.53483
-2.53485
-2.53487
-2.66023
-2.66024
-2.66025
-2.66026
-2.78562
-2.78563
-2.78563
-2.78564
-2.91099
-2.911
-2.911
-2.91101
-3.03634
-3.03634
-3.03634
-3.03635
-3.16167
-3.16167
-3.16167
-3.16167
-3.28698
-3.28698
-3.28698
-3.28698
-3.41227
-3.41227
-3.41227
-3.41228
-3.53755
-3.53755
-3.53755
-3.53756
-3.66282
-3.66282
-3.66282
-3.66283
-3.78807
-3.78807
-3.78808
-3.78808
-3.91332
-3.91332
-3.91333
-3.91333
-4.03856
-4.03856
-4.03857
-4.03858
-4.1638
-4.1638
-4.16381
-4.16381
-4.28903
-4.28903
-4.28904
-4.28904
-4.41425
-4.41426
-4.41426
-4.41427
-4.53947
-4.53948
-4.53949
-4.53949
-4.66469
-4.6647
-4.66471
-4.66471
-4.78991
-4.78992
-4.78992
-4.78993
-4.91512
-4.91513
-4.91514
-4.91515
-5.04033
-5.04034
-5.04035
-5.04036
-5.16555
-5.16556
-5.16557
-5.16558
-5.29076
-5.29077
-5.29078
-5.29079
-5.41597
-5.41598
-5.41599
-5.416
-5.54118
-5.5412
-5.54121
-5.54122
-5.66638
-5.66641
-5.66642
-5.66643
222.361
222.414
222.754
223.234
223.894
224.693
225.596
226.652
227.9
229.026
229.965
230.872
231.709
232.417
233.08
233.515
233.921
233.782
233.879
98.2854
98.5302
99.0201
99.6521
100.423
101.301
102.203
103.152
104.271
105.394
106.341
107.19
108.007
108.661
109.061
109.473
109.904
110.017
110.158
18.1583
18.3495
18.6583
19.0239
19.4226
19.8505
20.2851
20.6871
21.0668
21.5153
21.9354
22.3348
22.7409
23.0843
23.284
23.512
23.7642
23.9388
24.0503
-0.798982
-0.748603
-0.72823
-0.734035
-0.748955
-0.761355
-0.772291
-0.779509
-0.784471
-0.791902
-0.805714
-0.830906
-0.85462
-0.832563
-0.817677
-0.813823
-0.813201
-0.812334
-0.82032
-0.968942
-0.963925
-0.961171
-0.962258
-0.963748
-0.965146
-0.966838
-0.968879
-0.971377
-0.974442
-0.979854
-0.986608
-0.990312
-0.986854
-0.984779
-0.98297
-0.982479
-0.983171
-0.984356
-1.12963
-1.13915
-1.13888
-1.14003
-1.14103
-1.14243
-1.14408
-1.14591
-1.14778
-1.14904
-1.149
-1.14815
-1.14766
-1.15035
-1.15218
-1.15246
-1.15244
-1.15213
-1.15158
-1.27209
-1.27391
-1.2745
-1.2743
-1.27337
-1.2733
-1.27397
-1.27488
-1.27521
-1.27545
-1.27583
-1.27606
-1.27709
-1.28115
-1.28407
-1.28588
-1.28666
-1.28671
-1.28656
-1.39948
-1.40025
-1.40072
-1.40063
-1.4004
-1.40086
-1.40169
-1.4023
-1.40306
-1.40413
-1.40482
-1.40531
-1.40645
-1.40861
-1.41
-1.41094
-1.4115
-1.41171
-1.41156
-1.52571
-1.52655
-1.5273
-1.52794
-1.52878
-1.5298
-1.53064
-1.53099
-1.53188
-1.53309
-1.53389
-1.53442
-1.53492
-1.53531
-1.53546
-1.5359
-1.53626
-1.53642
-1.53628
-1.65249
-1.65296
-1.65396
-1.65515
-1.65651
-1.65736
-1.65776
-1.65828
-1.65881
-1.6593
-1.66009
-1.66067
-1.66084
-1.66054
-1.66056
-1.6608
-1.66103
-1.66118
-1.66117
-1.78
-1.77999
-1.78054
-1.78138
-1.78239
-1.78295
-1.78324
-1.78365
-1.7841
-1.78456
-1.78506
-1.78536
-1.78554
-1.78555
-1.78555
-1.78568
-1.78583
-1.78597
-1.78609
-1.90736
-1.90714
-1.90692
-1.90728
-1.90787
-1.90832
-1.90867
-1.90904
-1.90944
-1.90984
-1.91026
-1.9106
-1.91072
-1.91061
-1.91053
-1.91057
-1.91066
-1.91079
-1.91105
-2.03349
-2.03316
-2.03288
-2.03303
-2.03339
-2.03375
-2.03408
-2.03442
-2.03477
-2.03514
-2.03554
-2.03599
-2.03609
-2.03589
-2.03566
-2.03555
-2.03553
-2.03566
-2.03603
-2.15876
-2.15862
-2.15851
-2.15863
-2.15889
-2.15917
-2.15946
-2.15977
-2.16009
-2.16043
-2.1608
-2.16121
-2.16148
-2.1614
-2.16105
-2.16065
-2.16059
-2.16071
-2.16111
-2.28411
-2.28406
-2.28405
-2.28416
-2.28435
-2.28459
-2.28484
-2.28512
-2.28541
-2.28571
-2.28604
-2.28637
-2.28667
-2.28675
-2.28654
-2.28625
-2.28624
-2.2864
-2.2868
-2.4095
-2.4095
-2.40952
-2.40962
-2.40979
-2.40999
-2.41021
-2.41045
-2.41071
-2.41099
-2.41127
-2.41156
-2.41181
-2.41196
-2.41206
-2.41226
-2.4124
-2.41255
-2.41282
-2.53491
-2.53493
-2.53497
-2.53506
-2.5352
-2.53537
-2.53556
-2.53578
-2.53601
-2.53626
-2.53652
-2.53677
-2.53701
-2.53722
-2.53745
-2.53783
-2.53804
-2.53807
-2.53821
-2.6603
-2.66033
-2.66039
-2.66047
-2.66059
-2.66073
-2.6609
-2.6611
-2.66131
-2.66153
-2.66176
-2.66199
-2.66222
-2.66243
-2.66266
-2.66293
-2.6631
-2.6631
-2.66326
-2.78567
-2.78571
-2.78577
-2.78585
-2.78595
-2.78608
-2.78623
-2.78641
-2.78659
-2.78679
-2.787
-2.78721
-2.78742
-2.78762
-2.78782
-2.78802
-2.78814
-2.78816
-2.78824
-2.91102
-2.91106
-2.91112
-2.91119
-2.91129
-2.9114
-2.91154
-2.9117
-2.91187
-2.91205
-2.91223
-2.91242
-2.91261
-2.9128
-2.91298
-2.91313
-2.91323
-2.91326
-2.91326
-3.03636
-3.0364
-3.03645
-3.03652
-3.03661
-3.03672
-3.03684
-3.03698
-3.03713
-3.03729
-3.03746
-3.03764
-3.03781
-3.03798
-3.03814
-3.03827
-3.03836
-3.03841
-3.03837
-3.16169
-3.16172
-3.16177
-3.16183
-3.16191
-3.16201
-3.16212
-3.16225
-3.16239
-3.16253
-3.16269
-3.16284
-3.163
-3.16316
-3.1633
-3.16342
-3.16351
-3.16357
-3.16354
-3.287
-3.28703
-3.28707
-3.28713
-3.28721
-3.28729
-3.2874
-3.28751
-3.28764
-3.28777
-3.28791
-3.28805
-3.28819
-3.28833
-3.28846
-3.28858
-3.28867
-3.28873
-3.2887
-3.41229
-3.41232
-3.41236
-3.41242
-3.41249
-3.41257
-3.41266
-3.41277
-3.41288
-3.413
-3.41313
-3.41326
-3.41338
-3.41351
-3.41363
-3.41374
-3.41383
-3.41388
-3.41387
-3.53757
-3.5376
-3.53764
-3.53769
-3.53775
-3.53783
-3.53792
-3.53801
-3.53812
-3.53823
-3.53834
-3.53846
-3.53857
-3.53868
-3.53879
-3.53888
-3.53896
-3.539
-3.53899
-3.66284
-3.66286
-3.6629
-3.66295
-3.66301
-3.66308
-3.66316
-3.66325
-3.66335
-3.66345
-3.66355
-3.66366
-3.66376
-3.66386
-3.66394
-3.66401
-3.66406
-3.66407
-3.66402
-3.7881
-3.78812
-3.78816
-3.78821
-3.78826
-3.78833
-3.7884
-3.78849
-3.78857
-3.78867
-3.78876
-3.78885
-3.78895
-3.78903
-3.7891
-3.78914
-3.78915
-3.78912
-3.78903
-3.91335
-3.91337
-3.91341
-3.91345
-3.91351
-3.91357
-3.91364
-3.91372
-3.9138
-3.91388
-3.91397
-3.91405
-3.91413
-3.9142
-3.91426
-3.91428
-3.91426
-3.9142
-3.91407
-4.03859
-4.03862
-4.03865
-4.03869
-4.03875
-4.0388
-4.03887
-4.03894
-4.03902
-4.0391
-4.03918
-4.03925
-4.03933
-4.03939
-4.03943
-4.03945
-4.03942
-4.03936
-4.03922
-4.16383
-4.16385
-4.16389
-4.16393
-4.16398
-4.16403
-4.16409
-4.16416
-4.16423
-4.16431
-4.16438
-4.16446
-4.16452
-4.16458
-4.16463
-4.16464
-4.16462
-4.16456
-4.16445
-4.28906
-4.28909
-4.28912
-4.28916
-4.28921
-4.28926
-4.28932
-4.28938
-4.28945
-4.28952
-4.28959
-4.28966
-4.28973
-4.28978
-4.28983
-4.28985
-4.28984
-4.28979
-4.28967
-4.41429
-4.41431
-4.41435
-4.41438
-4.41443
-4.41448
-4.41453
-4.41459
-4.41466
-4.41472
-4.41479
-4.41486
-4.41493
-4.41499
-4.41504
-4.41507
-4.41506
-4.41501
-4.41488
-4.53951
-4.53954
-4.53957
-4.53961
-4.53965
-4.53969
-4.53975
-4.5398
-4.53986
-4.53993
-4.54
-4.54006
-4.54013
-4.5402
-4.54025
-4.54029
-4.5403
-4.54025
-4.5401
-4.66473
-4.66476
-4.66479
-4.66482
-4.66486
-4.66491
-4.66496
-4.66501
-4.66507
-4.66513
-4.66519
-4.66526
-4.66534
-4.6654
-4.66547
-4.66552
-4.66554
-4.66549
-4.66534
-4.78995
-4.78997
-4.79
-4.79004
-4.79007
-4.79012
-4.79016
-4.79021
-4.79026
-4.79032
-4.79039
-4.79046
-4.79053
-4.79061
-4.79068
-4.79074
-4.79077
-4.79072
-4.79057
-4.91516
-4.91519
-4.91522
-4.91525
-4.91528
-4.91532
-4.91536
-4.91541
-4.91546
-4.91552
-4.91558
-4.91565
-4.91572
-4.91581
-4.91589
-4.91595
-4.91598
-4.9159
-4.91571
-5.04038
-5.0404
-5.04043
-5.04046
-5.04049
-5.04052
-5.04056
-5.0406
-5.04065
-5.0407
-5.04076
-5.04083
-5.04091
-5.04099
-5.04109
-5.04117
-5.0412
-5.04109
-5.04084
-5.16559
-5.16562
-5.16564
-5.16566
-5.16569
-5.16572
-5.16575
-5.16579
-5.16583
-5.16588
-5.16593
-5.166
-5.16608
-5.16617
-5.16628
-5.16639
-5.16645
-5.16634
-5.16606
-5.2908
-5.29083
-5.29085
-5.29087
-5.29089
-5.29091
-5.29094
-5.29097
-5.291
-5.29104
-5.29109
-5.29115
-5.29123
-5.29133
-5.29146
-5.29162
-5.29175
-5.29166
-5.29138
-5.41602
-5.41603
-5.41605
-5.41607
-5.41608
-5.4161
-5.41612
-5.41614
-5.41617
-5.4162
-5.41624
-5.41629
-5.41636
-5.41646
-5.4166
-5.41682
-5.41708
-5.41705
-5.41683
-5.54123
-5.54124
-5.54125
-5.54126
-5.54127
-5.54128
-5.5413
-5.54131
-5.54133
-5.54135
-5.54138
-5.54141
-5.54146
-5.54153
-5.54166
-5.54192
-5.5424
-5.54257
-5.54255
-5.66644
-5.66644
-5.66645
-5.66645
-5.66646
-5.66647
-5.66648
-5.66648
-5.66649
-5.6665
-5.66651
-5.66653
-5.66655
-5.66658
-5.66665
-5.66685
-5.66738
-5.66795
-5.66846
)
;

boundaryField
{
    leftWall
    {
        type            calculated;
        value           nonuniform List<scalar> 
50
(
739.006
680.164
621.343
562.546
503.773
445.026
386.304
327.609
235.882
111.485
24.5019
-0.78658
-0.968779
-1.15107
-1.29055
-1.41561
-1.53994
-1.66448
-1.78913
-1.91385
-2.03864
-2.16347
-2.28835
-2.41327
-2.53821
-2.66318
-2.78817
-2.91319
-3.03826
-3.16335
-3.28841
-3.41352
-3.53864
-3.66375
-3.7889
-3.91407
-4.03919
-4.16433
-4.28947
-4.41462
-4.53978
-4.66494
-4.7901
-4.91525
-5.04038
-5.1655
-5.29057
-5.41561
-5.54067
-5.66594
)
;
    }
    rightWall
    {
        type            calculated;
        value           nonuniform List<scalar> 
50
(
735.918
677.164
618.548
559.881
501.192
442.536
383.923
325.355
233.879
110.158
24.0503
-0.82032
-0.984356
-1.15158
-1.28656
-1.41156
-1.53628
-1.66117
-1.78609
-1.91105
-2.03603
-2.16111
-2.2868
-2.41282
-2.53821
-2.66326
-2.78824
-2.91326
-3.03837
-3.16354
-3.2887
-3.41387
-3.53899
-3.66402
-3.78903
-3.91407
-4.03922
-4.16445
-4.28967
-4.41488
-4.5401
-4.66534
-4.79057
-4.91571
-5.04084
-5.16606
-5.29138
-5.41683
-5.54255
-5.66846
)
;
    }
    lowerWall
    {
        type            calculated;
        value           nonuniform List<scalar> 
62
(
768.435
768.352
768.163
767.862
767.452
766.941
766.334
765.642
764.876
764.051
763.184
762.29
761.386
760.484
759.598
758.749
757.958
757.264
756.639
756.124
755.913
755.727
755.656
726.229
667.34
608.436
549.521
490.598
431.666
372.712
313.734
283.873
283.864
283.947
284.052
726.701
667.836
608.897
550.063
491.438
432.826
374.039
315.027
756.125
756.176
756.689
757.215
757.79
758.389
758.936
759.535
760.197
760.861
761.376
761.84
762.669
763.549
764.158
764.621
764.91
765.13
765.309
)
;
    }
    atmosphere
    {
        type            calculated;
        value           nonuniform List<scalar> 
46
(
-5.72909
-5.72904
-5.72904
-5.72904
-5.72904
-5.72904
-5.72904
-5.72904
-5.72904
-5.72904
-5.72904
-5.72904
-5.72904
-5.72904
-5.72904
-5.72904
-5.72904
-5.72904
-5.72904
-5.72904
-5.72904
-5.72904
-5.72904
-5.72904
-5.72904
-5.72904
-5.72904
-5.72904
-5.72905
-5.72905
-5.72905
-5.72906
-5.72906
-5.72907
-5.72907
-5.72908
-5.72908
-5.72909
-5.72909
-5.7291
-5.7291
-5.7291
-5.7291
-5.72909
-5.72907
-5.73229
)
;
    }
    defaultFaces
    {
        type            empty;
    }
}


// ************************************************************************* //
