/*--------------------------------*- C++ -*----------------------------------*\
  =========                 |
  \\      /  F ield         | OpenFOAM: The Open Source CFD Toolbox
   \\    /   O peration     | Website:  https://openfoam.org
    \\  /    A nd           | Version:  9
     \\/     M anipulation  |
\*---------------------------------------------------------------------------*/
FoamFile
{
    format      ascii;
    class       surfaceScalarField;
    location    "0.66";
    object      alphaPhi0.water;
}
// * * * * * * * * * * * * * * * * * * * * * * * * * * * * * * * * * * * * * //

dimensions      [0 3 -1 0 0 0 0];

internalField   nonuniform List<scalar> 
4432
(
-5.02272e-06
5.02272e-06
-8.27932e-06
3.2566e-06
-8.77536e-06
4.96038e-07
-8.08602e-06
-6.89338e-07
-7.2155e-06
-8.70528e-07
-6.47046e-06
-7.45041e-07
-5.92905e-06
-5.41413e-07
-5.57956e-06
-3.4949e-07
-5.38008e-06
-1.99481e-07
-5.277e-06
-1.03079e-07
-5.22523e-06
-5.17618e-08
-5.20645e-06
-1.8786e-08
-5.21401e-06
7.55891e-09
-5.25827e-06
4.42603e-08
-5.35994e-06
1.01675e-07
-5.58719e-06
2.27245e-07
-6.06591e-06
4.78719e-07
-6.94807e-06
8.82167e-07
-8.32582e-06
1.40005e-06
-9.74027e-06
1.7874e-06
-1.06613e-05
8.91179e-07
-8.33031e-06
-2.43948e-06
-8.52235e-06
-4.52505e-06
9.54778e-06
-6.02787e-06
4.75942e-06
-6.05502e-06
5.23191e-07
-5.61851e-06
-1.12586e-06
-5.12958e-06
-1.35945e-06
-4.76275e-06
-1.11188e-06
-4.56035e-06
-7.43814e-07
-4.51171e-06
-3.98123e-07
-4.58186e-06
-1.29328e-07
-4.72897e-06
4.40181e-08
-4.91423e-06
1.33508e-07
-5.11765e-06
1.84619e-07
-5.32925e-06
2.1917e-07
-5.53755e-06
2.52556e-07
-5.74164e-06
3.05764e-07
-5.95489e-06
4.40494e-07
-6.21303e-06
7.36848e-07
-6.55508e-06
1.22422e-06
-6.93045e-06
1.7758e-06
-6.94439e-06
1.96673e-06
-6.39738e-06
4.77684e-07
-5.09807e-06
-3.78086e-06
-1.36531e-05
-3.15987e-06
1.27076e-05
-3.93161e-06
5.53115e-06
-3.96862e-06
5.60206e-07
-3.80411e-06
-1.29037e-06
-3.64791e-06
-1.51565e-06
-3.60254e-06
-1.15725e-06
-3.68232e-06
-6.64032e-07
-3.87363e-06
-2.06816e-07
-4.14968e-06
1.46728e-07
-4.47311e-06
3.67441e-07
-4.8167e-06
4.77105e-07
-5.16023e-06
5.28141e-07
-5.48964e-06
5.48591e-07
-5.78643e-06
5.49329e-07
-6.03005e-06
5.49393e-07
-6.19927e-06
6.0971e-07
-6.27743e-06
8.15004e-07
-6.2299e-06
1.17669e-06
-5.93997e-06
1.48586e-06
-5.22841e-06
1.25521e-06
-3.98864e-06
-6.31653e-07
-2.63647e-06
-5.31266e-06
-1.63223e-05
-1.73533e-06
1.4443e-05
-2.08519e-06
5.88101e-06
-2.17941e-06
6.54421e-07
-2.26272e-06
-1.20706e-06
-2.42621e-06
-1.35217e-06
-2.68467e-06
-8.98794e-07
-3.02414e-06
-3.24558e-07
-3.43081e-06
1.99849e-07
-3.88346e-06
5.99386e-07
-4.35708e-06
8.41054e-07
-4.82749e-06
9.4752e-07
-5.27852e-06
9.79161e-07
-5.69445e-06
9.64533e-07
-6.05145e-06
9.06322e-07
-6.3153e-06
8.13244e-07
-6.44329e-06
7.37698e-07
-6.39152e-06
7.63228e-07
-6.09692e-06
8.82102e-07
-5.43154e-06
8.20479e-07
-4.26147e-06
8.51385e-08
-2.71005e-06
-2.16514e-06
-1.10937e-06
-7.12167e-06
-1.74422e-05
-3.15463e-07
1.47584e-05
-3.30991e-07
5.89654e-06
-5.67752e-07
8.91181e-07
-9.26194e-07
-8.48613e-07
-1.40781e-06
-8.7055e-07
-1.95434e-06
-3.52262e-07
-2.53198e-06
2.5308e-07
-3.13084e-06
7.98707e-07
-3.74053e-06
1.20908e-06
-4.34322e-06
1.44373e-06
-4.91994e-06
1.52425e-06
-5.45768e-06
1.5169e-06
-5.9406e-06
1.44746e-06
-6.34112e-06
1.30683e-06
-6.61519e-06
1.08731e-06
-6.70617e-06
8.28682e-07
-6.55988e-06
6.16933e-07
-6.11175e-06
4.33975e-07
-5.2447e-06
-4.65784e-08
-3.85976e-06
-1.2998e-06
-2.08867e-06
-3.93623e-06
-2.95789e-07
-8.91456e-06
-1.7738e-05
1.12276e-06
1.36357e-05
1.20284e-06
5.81646e-06
8.47218e-07
1.2468e-06
1.86436e-07
-1.8783e-07
-6.03732e-07
-8.03806e-08
-1.4136e-06
4.576e-07
-2.19991e-06
1.0394e-06
-2.96469e-06
1.56348e-06
-3.70876e-06
1.95315e-06
-4.42081e-06
2.15578e-06
-5.08554e-06
2.18898e-06
-5.6922e-06
2.12355e-06
-6.22577e-06
1.98103e-06
-6.6568e-06
1.73786e-06
-6.93416e-06
1.36468e-06
-6.99209e-06
8.86613e-07
-6.77778e-06
4.02612e-07
-6.24266e-06
-1.01143e-07
-5.29023e-06
-9.99015e-07
-3.84862e-06
-2.74141e-06
-2.00513e-06
-5.77971e-06
-7.23392e-08
-1.08473e-05
-1.78104e-05
2.22019e-06
1.14155e-05
2.56554e-06
5.4711e-06
2.01019e-06
1.80215e-06
1.0348e-06
7.8756e-07
-4.15849e-08
9.96e-07
-1.07318e-06
1.48918e-06
-2.03115e-06
1.99735e-06
-2.9305e-06
2.46282e-06
-3.78377e-06
2.80639e-06
-4.58476e-06
2.95674e-06
-5.31914e-06
2.92336e-06
-5.97713e-06
2.78153e-06
-6.54516e-06
2.54906e-06
-6.99423e-06
2.18693e-06
-7.26817e-06
1.63862e-06
-7.29468e-06
9.13125e-07
-7.03054e-06
1.38469e-07
-6.45443e-06
-6.77264e-07
-5.49428e-06
-1.95917e-06
-4.1083e-06
-4.12739e-06
-2.3696e-06
-7.51841e-06
-4.33422e-07
-1.27833e-05
-1.8244e-05
3.01803e-06
8.39747e-06
3.63944e-06
4.84969e-06
2.85167e-06
2.58992e-06
1.57782e-06
2.06141e-06
2.56708e-07
2.31711e-06
-9.44712e-07
2.69056e-06
-2.02465e-06
3.07713e-06
-3.0204e-06
3.45835e-06
-3.95533e-06
3.74117e-06
-4.82421e-06
3.82557e-06
-5.60906e-06
3.70832e-06
-6.30024e-06
3.47254e-06
-6.88495e-06
3.13373e-06
-7.33859e-06
2.64046e-06
-7.6012e-06
1.90116e-06
-7.59455e-06
9.06476e-07
-7.29063e-06
-1.65462e-07
-6.70243e-06
-1.26546e-06
-5.77968e-06
-2.88192e-06
-4.51728e-06
-5.38979e-06
-3.05079e-06
-8.9849e-06
-1.6619e-06
-1.41719e-05
-1.99064e-05
-7.12906e-05
4.92396e-05
-0.000107452
3.12197e-05
-0.000118546
6.87354e-06
-0.000132819
-6.86923e-07
-0.000144055
-2.42925e-06
-0.000144665
-4.53493e-06
-0.000140566
-5.2219e-06
-0.000136396
-4.30387e-06
-0.000133149
-3.25974e-06
-0.000130473
-2.69094e-06
-0.000127071
-3.42278e-06
-0.00012054
-6.53902e-06
-0.000108938
-1.15978e-05
-9.03326e-05
-1.80163e-05
-6.59449e-05
-2.3635e-05
-4.0847e-05
-2.5243e-05
-1.75977e-05
-2.36769e-05
-5.28489e-07
-1.74108e-05
-5.6802e-07
-4.74631e-05
6.99859e-05
-8.1855e-06
0
-2.75908e-06
0
-5.94897e-06
-8.03653e-09
-3.35092e-05
-9.67366e-08
-8.40505e-05
-1.16853e-06
-0.00011803
-2.8191e-06
-0.000128916
-5.07385e-06
-0.000127051
-8.49063e-06
-0.00012173
-8.19625e-06
-0.000116595
-8.5742e-06
-0.000110272
-1.28586e-05
-0.000100738
-2.11268e-05
-8.5964e-05
-3.27858e-05
-6.62283e-05
-4.33663e-05
-4.51585e-05
-4.6308e-05
-2.55084e-05
-4.33193e-05
-8.87796e-06
-3.40213e-05
-9.46067e-06
-1.04453e-06
2.33967e-05
1.42632e-08
5.2143e-07
1.34052e-07
3.5969e-07
-4.38706e-08
1.22723e-08
-2.07395e-07
2.41637e-08
-1.37867e-06
-1.69717e-10
-4.90355e-06
-6.64597e-08
-3.33647e-05
-6.04598e-07
-7.84256e-05
-2.29645e-06
-0.000103733
-4.99918e-06
-0.000106664
-1.26639e-05
-0.000100115
-1.95317e-05
-9.16609e-05
-2.95777e-05
-7.93309e-05
-4.5111e-05
-6.25554e-05
-6.01372e-05
-4.45624e-05
-6.42459e-05
-2.79155e-05
-5.96175e-05
-1.28122e-05
-4.83886e-05
-2.18165e-05
5.89148e-06
1.40221e-05
3.13689e-06
0
6.23948e-07
7.80511e-07
7.13959e-08
5.23551e-07
-6.11893e-10
9.34364e-08
-9.77375e-09
2.07665e-09
-7.84971e-08
7.40733e-10
-6.89979e-07
-2.07665e-09
-2.91835e-06
-1.00099e-07
-1.34183e-05
-4.77561e-07
-6.14198e-05
-4.06254e-06
-8.74578e-05
-1.59775e-05
-8.20625e-05
-3.49937e-05
-7.16516e-05
-5.55163e-05
-5.71687e-05
-7.46123e-05
-4.18072e-05
-7.95974e-05
-2.68467e-05
-7.38126e-05
-1.26321e-05
-5.89452e-05
-3.12835e-05
7.21233e-06
5.28775e-06
1.49004e-05
-2.25696e-05
3.08234e-06
-2.61084e-07
3.10759e-07
2.22429e-06
1.31819e-08
3.76586e-07
-9.54638e-10
1.50675e-08
-1.30711e-09
4.97579e-10
-3.90365e-09
3.64071e-11
-1.01019e-07
-3.70905e-09
-5.54598e-07
-2.96371e-08
-4.396e-06
-2.85235e-07
-3.78851e-05
-3.34882e-06
-6.86318e-05
-2.36425e-05
-6.29294e-05
-6.12149e-05
-5.02823e-05
-8.7249e-05
-3.71415e-05
-9.27354e-05
-2.45222e-05
-8.61602e-05
-1.12505e-05
-7.14702e-05
-4.25345e-05
3.87804e-05
-2.14894e-05
5.80858e-05
-5.68243e-05
1.18042e-05
-6.52367e-06
7.70934e-07
5.6423e-06
4.47932e-08
1.05328e-06
-1.08535e-11
5.92482e-08
-1.64644e-10
2.40394e-10
-1.98738e-10
4.53995e-11
-3.82426e-09
-1.12831e-10
-3.1675e-08
-2.12794e-09
-2.97795e-07
-2.59726e-08
-3.36441e-06
-3.46629e-07
-3.3588e-05
-4.86473e-06
-5.28548e-05
-5.50365e-05
-4.22985e-05
-9.78003e-05
-3.13681e-05
-0.000103657
-2.14727e-05
-9.60364e-05
-1.00079e-05
-8.33481e-05
-5.25428e-05
3.03081e-05
-5.17975e-05
3.51555e-05
-6.67021e-05
6.41348e-06
-1.05993e-05
0
4.52381e-06
0
8.88641e-07
1.95728e-10
5.43007e-08
-4.96364e-11
3.50294e-10
-4.63486e-11
2.88507e-11
-1.86837e-10
-3.41716e-12
-2.06797e-09
-3.40041e-10
-2.32505e-08
-5.01355e-09
-2.98978e-07
-7.85473e-08
-4.80051e-06
-7.92409e-07
-3.99251e-05
-3.4448e-05
-3.37189e-05
-0.000103952
-2.51174e-05
-0.00011224
-1.74312e-05
-0.000103658
-8.41786e-06
-9.17635e-05
-6.09611e-05
2.3072e-05
-7.48695e-05
1.07968e-05
-6.12051e-05
4.503e-07
-5.84838e-06
0
2.27532e-06
0
6.11257e-07
6.61415e-11
4.35042e-08
-9.18858e-12
5.13359e-10
-2.22844e-11
2.7888e-11
-3.54928e-11
1.18655e-12
-3.19825e-10
-8.57707e-11
-4.1202e-09
-1.61041e-09
-5.57606e-08
-2.99147e-08
-5.82256e-07
-3.27923e-07
-2.3462e-05
-2.09293e-05
-2.50141e-05
-0.000106776
-1.88342e-05
-0.000118355
-1.34125e-05
-0.000108834
-6.69816e-06
-9.79894e-05
-6.76598e-05
4.91569e-06
7.20934e-18
5.98549e-06
2.12746e-07
4.74566e-06
4.55746e-07
2.65012e-06
7.45479e-07
4.52294e-07
1.03049e-06
-1.66688e-06
1.46541e-06
-3.92329e-06
2.09914e-06
-6.36158e-06
2.90775e-06
-8.89818e-06
3.75983e-06
-1.1214e-05
4.41185e-06
-1.30046e-05
5.49894e-06
-1.44967e-05
4.9646e-06
-1.57269e-05
4.36394e-06
-1.66557e-05
3.56922e-06
-1.7147e-05
2.3928e-06
-1.70073e-05
7.66378e-07
-1.62239e-05
-9.48921e-07
-1.49847e-05
-2.5046e-06
-1.31954e-05
-4.67124e-06
-1.09194e-05
-7.66576e-06
-8.68208e-06
-1.12223e-05
-7.29332e-06
-1.55606e-05
-2.02082e-05
-6.9959e-06
-7.55848e-17
1.21825e-16
2.02015e-08
1.94248e-11
2.86835e-08
1.35883e-10
2.34245e-09
1.00409e-10
-1.06257e-07
0
-3.63155e-07
0
-8.52298e-07
0
-1.66664e-06
0
-2.95426e-06
0
-5.10809e-06
7.61232e-09
-8.30587e-06
7.65282e-07
-1.181e-05
1.80467e-06
-1.50803e-05
2.63152e-06
-1.72562e-05
2.94299e-06
-1.75817e-05
2.71826e-06
-1.71303e-05
3.14998e-07
-1.60664e-05
-2.01283e-06
-1.48613e-05
-3.70977e-06
-1.31844e-05
-6.34811e-06
-1.0952e-05
-9.89813e-06
-8.64932e-06
-1.35249e-05
-6.24251e-06
-1.79673e-05
-2.36113e-05
-2.83528e-06
-5.2158e-17
-1.65297e-17
1.94247e-11
0
8.74352e-11
1.83671e-12
3.09152e-11
6.1836e-12
-3.05982e-10
8.35377e-12
-1.24193e-09
1.12158e-11
-3.17236e-09
1.23781e-11
-6.35169e-09
8.63678e-12
-1.02586e-08
0
-4.67707e-08
0
-2.97631e-07
0
-1.04784e-06
0
-2.26514e-06
0
-4.15824e-06
0
-7.89201e-06
5.16818e-08
-1.32023e-05
-2.18524e-07
-1.39152e-05
-1.14081e-06
-1.31303e-05
-2.66388e-06
-1.16874e-05
-6.82958e-06
-9.39608e-06
-1.21875e-05
-7.51832e-06
-1.53997e-05
-5.87744e-06
-1.96039e-05
-2.57238e-05
-3.75687e-06
-9.65919e-15
6.85745e-17
-1.77992e-14
1.41962e-17
1.13374e-12
7.4429e-15
5.57461e-12
6.78455e-14
1.0561e-11
1.67086e-13
1.62098e-11
5.59262e-13
2.0054e-11
9.85663e-13
1.62487e-11
1.63619e-12
-7.84396e-12
2.80117e-12
-1.53758e-10
5.82676e-12
-1.17233e-09
7.53184e-12
-3.5788e-09
3.25832e-12
-5.43363e-09
0
-7.44624e-09
0
-7.69619e-08
0
-3.02719e-07
-9.34266e-17
-9.45945e-07
-3.58301e-14
-2.32918e-06
-9.29291e-13
-4.52723e-06
-1.41772e-10
-4.44102e-06
-3.46348e-08
-4.26688e-06
-4.09426e-06
-4.6267e-06
-8.2506e-06
-1.65684e-05
-5.32909e-06
6.43109e-18
3.47648e-17
-4.87972e-18
1.30367e-17
6.31257e-15
1.13176e-15
6.46353e-14
6.74901e-16
2.17464e-13
1.46251e-15
4.36488e-13
3.48101e-13
7.58326e-13
6.75118e-13
1.18156e-12
1.22585e-12
1.65163e-12
2.32689e-12
2.23988e-12
5.19923e-12
7.41221e-12
5.44726e-13
8.57352e-12
3.73871e-13
3.63686e-12
0
-2.09162e-12
0
-1.93232e-16
0
-5.09055e-16
0
-7.80098e-15
-2.87634e-14
-9.10549e-13
-2.71628e-14
-1.42671e-10
-1.17999e-14
-3.47775e-08
-8.93453e-16
-1.3571e-07
-1.01098e-15
-5.79894e-07
-1.34736e-15
-2.63324e-13
-1.75421e-06
1.74638e-18
1.56559e-17
-4.61093e-18
8.3829e-18
2.78639e-17
5.11773e-19
5.52742e-16
1.51334e-16
1.60012e-15
4.15136e-16
-1.18439e-14
-7.70875e-15
-6.46403e-14
-4.63076e-14
-1.40405e-13
-1.10457e-13
-1.78359e-13
-1.52583e-13
-8.65551e-15
-7.70683e-15
3.00616e-13
2.54951e-13
2.61273e-13
3.92076e-13
2.19261e-13
5.6597e-15
9.97244e-14
0
4.35433e-14
0
4.87623e-15
2.92912e-15
4.74103e-14
-2.41502e-16
1.14666e-14
-1.7461e-15
2.00577e-16
-1.66667e-15
7.70018e-17
-1.90399e-15
5.07397e-17
-2.1177e-15
1.86706e-17
-2.44941e-15
-1.37434e-14
-2.50697e-13
-3.162e-19
6.37667e-18
-2.84688e-18
4.00815e-18
-6.28331e-18
1.55725e-18
-8.67094e-18
-4.94989e-19
5.88548e-18
9.11151e-19
-1.07847e-15
-4.9712e-16
-7.75994e-15
-4.22267e-15
-2.6816e-14
-1.61757e-14
-6.28295e-14
-4.03417e-14
-1.03262e-13
-6.73971e-14
-8.71097e-14
-5.48943e-14
1.01484e-15
4.75491e-16
3.21989e-15
3.34508e-15
1.14649e-15
1.49204e-15
5.14585e-16
5.40865e-16
1.01571e-15
1.67278e-16
3.01874e-15
6.04732e-18
1.98633e-15
-4.36318e-16
1.3104e-15
-1.21753e-15
9.40684e-16
-2.1526e-15
5.59691e-16
-2.63378e-15
-6.87261e-17
-2.97993e-15
-2.73625e-15
-2.18674e-14
-3.15057e-19
2.27563e-18
-1.09663e-18
1.5473e-18
-2.04113e-18
8.21356e-19
-3.13617e-18
3.05178e-19
-4.29346e-18
-2.78361e-19
-2.34322e-17
-6.32571e-18
-2.52842e-16
-9.82037e-17
-1.42846e-15
-6.58319e-16
-5.18491e-15
-2.60124e-15
-1.31571e-14
-6.76266e-15
-2.03077e-14
-1.01434e-14
-1.20948e-14
-5.61687e-15
-5.46688e-15
-2.27873e-15
-2.04858e-15
-7.39422e-16
-5.7501e-16
-1.68506e-16
-4.61746e-17
-9.3509e-18
1.05031e-15
5.07438e-17
2.3234e-15
-9.13434e-17
3.22791e-15
-5.42772e-16
2.99848e-15
-1.15185e-15
1.77153e-15
-1.43614e-15
-2.4187e-16
-1.27843e-15
-2.6759e-16
-6.28429e-15
-1.0025e-19
7.03186e-19
-3.05482e-19
5.11938e-19
-5.28907e-19
2.96437e-19
-7.56817e-19
1.49718e-19
-9.93788e-19
5.334e-20
-1.33612e-18
-7.27065e-20
-4.44351e-18
-9.88622e-19
-3.38106e-17
-1.09005e-17
-1.91798e-16
-7.26961e-17
-7.17508e-16
-2.89473e-16
-1.60663e-15
-6.46217e-16
-1.40795e-15
-5.37876e-16
-8.16364e-16
-2.85167e-16
-2.78754e-16
-8.58415e-17
2.35574e-16
2.19675e-17
5.66732e-16
7.63818e-17
9.76215e-16
9.09401e-17
1.6608e-15
3.9906e-17
2.93948e-15
-2.47899e-17
3.86643e-15
-9.27383e-17
2.9514e-15
-4.99319e-17
1.22941e-15
4.77899e-16
1.69895e-15
-7.30467e-16
-1.74714e-20
1.93162e-19
-6.52218e-20
1.51483e-19
-1.10761e-19
8.62925e-20
-1.48908e-19
4.53554e-20
-1.83142e-19
2.16371e-20
-2.12497e-19
7.20804e-21
-2.18939e-19
-6.27936e-21
-3.88526e-19
-6.59611e-20
-2.9885e-18
-7.5545e-19
-1.76643e-17
-5.24005e-18
-5.64464e-17
-1.76341e-17
-5.95987e-17
-1.8372e-17
-2.68902e-17
-7.8187e-18
5.03372e-17
6.09075e-18
1.16457e-16
1.93517e-17
1.98552e-16
1.36794e-17
3.17645e-16
1.5283e-17
5.30107e-16
1.84611e-17
8.84942e-16
2.49272e-17
1.30976e-15
4.73847e-17
1.62329e-15
1.41817e-16
1.57853e-15
4.62659e-16
1.46611e-15
1.15832e-15
-1.29674e-22
4.93377e-20
-1.023e-20
4.11805e-20
-1.87388e-20
2.17192e-20
-2.40095e-20
1.0699e-20
-2.73165e-20
5.10399e-21
-2.81569e-20
2.00535e-21
-1.78651e-20
1.20233e-22
1.43761e-20
-3.57605e-23
4.82624e-20
5.24294e-21
2.36669e-20
6.57169e-21
-2.71325e-19
-5.89256e-20
1.05294e-18
1.07525e-19
4.94971e-18
7.51647e-19
1.0595e-17
7.69629e-19
1.65135e-17
6.62685e-19
2.56216e-17
8.34793e-19
4.5861e-17
1.32845e-18
8.43629e-17
2.35591e-18
1.46e-16
4.53036e-18
2.1856e-16
9.3344e-18
2.84892e-16
1.94611e-17
3.66823e-16
4.26499e-17
1.2699e-16
5.58751e-16
8.44347e-22
1.20586e-20
-7.7799e-22
1.02616e-20
-2.45403e-21
4.85611e-21
-3.15522e-21
2.1273e-21
-3.30228e-21
9.03845e-22
-2.83967e-21
2.87117e-22
-4.53349e-22
-5.61895e-23
2.76983e-21
-1.39115e-22
1.26684e-20
-1.56918e-22
4.60406e-20
1.27276e-21
1.31442e-19
9.9807e-21
3.10967e-19
2.01611e-20
5.78447e-19
1.78292e-20
8.64488e-19
2.15784e-20
1.40808e-18
3.23177e-20
2.46383e-18
5.4386e-20
4.43699e-18
9.48802e-20
7.74776e-18
1.67885e-19
1.27466e-17
3.05603e-19
1.96736e-17
6.04744e-19
2.72154e-17
1.27278e-18
3.24047e-17
2.14224e-18
3.32406e-18
4.26727e-17
3.87852e-22
2.74863e-21
1.02907e-22
2.28136e-21
-1.92625e-22
9.58213e-22
-3.25678e-22
3.65254e-22
-3.20185e-22
1.30016e-22
-2.06283e-22
2.8975e-23
1.72177e-22
-3.96656e-24
3.95275e-22
-3.51148e-23
1.61304e-21
-7.70516e-23
5.47631e-21
-1.1242e-22
1.41719e-20
-6.13465e-23
2.75178e-20
1.50766e-22
4.48948e-20
4.87069e-22
6.77071e-20
9.55152e-22
1.01624e-19
1.50229e-21
1.59128e-19
2.21269e-21
2.56971e-19
3.38528e-21
3.97746e-19
5.43212e-21
5.63057e-19
8.6986e-21
7.50822e-19
1.37598e-20
9.78732e-19
2.32613e-20
1.17454e-18
4.05305e-20
7.38641e-20
1.44763e-18
1.14981e-22
5.50208e-22
4.8513e-23
4.34008e-22
5.15972e-24
1.62614e-22
-2.19293e-23
5.37632e-23
-2.40729e-23
1.55971e-23
-1.13714e-23
2.19707e-24
1.08718e-23
-1.14138e-24
4.4568e-23
-5.82294e-24
1.69395e-22
-1.36139e-23
5.18138e-22
-2.41704e-23
1.16746e-21
-2.86918e-23
2.02914e-21
-2.23765e-23
3.01097e-21
-8.28625e-24
3.9923e-21
1.18887e-23
4.81788e-21
3.15694e-23
5.55264e-21
4.203e-23
6.49492e-21
4.38225e-23
8.08575e-21
5.46689e-23
1.05018e-20
8.48717e-23
1.34195e-20
1.46791e-22
1.77167e-20
3.08019e-22
2.55706e-20
1.19508e-21
1.20174e-20
4.6912e-20
2.54535e-23
9.11235e-23
1.13932e-23
6.7595e-23
2.81127e-24
2.29771e-23
4.76442e-26
6.67421e-24
-1.22417e-24
1.58131e-24
-4.56588e-25
1.35102e-25
8.5651e-25
-1.40189e-25
3.68614e-24
-6.67622e-25
1.33557e-23
-1.54298e-24
3.69213e-23
-2.6447e-24
7.08943e-23
-3.03701e-24
1.07953e-22
-2.80324e-24
1.41383e-22
-1.9854e-24
1.60987e-22
-9.50646e-25
1.5668e-22
-7.12431e-26
1.09842e-22
3.55613e-25
7.40061e-23
2.9779e-25
7.50364e-23
4.25179e-25
1.0278e-22
8.36783e-25
1.63244e-22
2.84569e-24
3.84447e-22
4.45841e-23
1.96317e-21
8.57417e-22
1.17869e-20
1.83008e-20
4.25502e-24
1.17401e-23
1.87099e-24
8.15362e-24
5.06721e-25
2.57231e-24
7.45017e-26
6.7406e-25
-1.41876e-26
1.34558e-25
-1.26564e-26
3.72111e-27
4.43384e-26
-1.30522e-26
2.28296e-25
-5.66145e-26
7.90977e-25
-1.23535e-25
1.91108e-24
-1.91199e-25
3.15431e-24
-2.04689e-25
4.27143e-24
-1.82082e-25
5.04743e-24
-1.1991e-25
4.67684e-24
-5.29628e-26
2.98262e-24
-1.40943e-26
1.3308e-24
-7.98115e-28
1.02177e-24
2.34967e-27
1.16262e-24
8.92746e-27
2.04959e-24
5.9105e-26
7.6144e-24
8.88037e-25
1.26239e-22
3.99577e-23
1.9796e-21
9.36517e-22
2.32123e-20
2.758e-20
5.19445e-25
1.04504e-24
2.21659e-25
6.82246e-25
5.98007e-26
2.03461e-25
9.86838e-27
4.9197e-26
1.41111e-28
8.74926e-27
-7.72237e-29
1.66922e-28
1.51494e-27
-8.47059e-28
1.02265e-26
-3.49106e-27
3.43228e-26
-7.16776e-27
7.35565e-26
-1.01022e-26
1.09423e-25
-1.04002e-26
1.38947e-25
-8.31976e-27
1.20797e-25
-4.27828e-27
7.03646e-26
-1.11669e-27
2.99955e-26
-1.1432e-28
1.37802e-26
-3.24101e-29
1.39714e-26
5.71516e-30
3.90067e-26
1.09181e-27
2.64656e-25
2.58814e-26
3.26436e-24
5.66965e-25
1.11644e-22
3.66804e-23
2.36643e-21
1.24649e-21
3.77301e-20
4.26383e-20
4.18491e-26
4.80157e-26
1.73921e-26
2.97154e-26
4.58569e-27
8.48987e-27
7.6039e-28
1.91593e-27
1.09633e-29
3.04151e-28
-1.20376e-29
-6.71491e-30
2.76699e-29
-4.43547e-29
3.02693e-28
-1.52554e-28
1.06755e-27
-2.99568e-28
2.18432e-27
-3.96787e-28
3.13335e-27
-3.96918e-28
3.45481e-27
-2.87169e-28
1.88886e-27
-1.24921e-28
4.35602e-28
-2.53311e-29
1.08543e-28
-2.3956e-30
1.16619e-28
-3.80638e-30
7.90163e-28
-2.19914e-29
1.1813e-26
2.7511e-28
1.42163e-25
1.39723e-26
1.90422e-24
3.4129e-25
8.18349e-23
2.44921e-23
2.59608e-21
1.3011e-21
5.1477e-20
5.81871e-20
1.6735e-27
-6.94452e-38
6.82895e-28
-4.37466e-36
1.75005e-28
-6.41325e-33
2.77539e-29
-3.07859e-31
-5.35712e-31
-1.14891e-30
-5.56784e-31
-1.07168e-30
-6.86576e-31
-1.15772e-30
4.62873e-30
-4.35131e-30
2.23617e-29
-8.25892e-30
4.80815e-29
-1.04513e-29
7.25566e-29
-1.01431e-29
6.64319e-29
-6.59799e-30
2.86658e-29
-2.3844e-30
4.73777e-30
-3.48886e-31
2.21279e-30
-1.10376e-31
1.13366e-29
-1.24048e-30
2.59097e-28
-1.5505e-29
4.85261e-27
-1.8303e-29
6.57043e-26
4.58873e-27
9.32159e-25
1.42451e-25
4.80313e-23
1.23296e-23
2.41591e-21
1.20924e-21
5.96259e-20
7.00477e-20
-6.90338e-38
-4.11443e-40
-1.0223e-35
-7.42883e-40
-7.44788e-33
-1.78401e-36
-1.02112e-31
-9.81104e-35
-4.71271e-32
-5.90329e-34
-3.8354e-32
-3.25912e-33
-5.61058e-32
-2.16662e-32
-1.36426e-32
-6.49216e-32
2.50769e-31
-1.13447e-31
6.68972e-31
-1.35438e-31
1.11494e-30
-1.22644e-31
8.67354e-31
-7.11338e-32
2.89082e-31
-2.10878e-32
6.4043e-32
-2.92115e-33
6.85702e-32
-1.88876e-32
2.70443e-30
-4.17064e-31
7.21599e-29
-6.57772e-30
1.47338e-27
-5.35977e-29
2.54045e-26
9.08029e-28
4.12143e-25
5.13558e-26
2.25644e-23
4.75706e-24
1.8596e-21
7.89861e-22
5.95967e-20
7.55518e-20
-1.23867e-41
-1.1824e-45
-1.11079e-39
-1.29929e-41
-3.86583e-37
-4.89493e-38
-1.91739e-35
-3.19752e-36
-5.75833e-35
-2.21154e-35
-3.27314e-34
-7.78621e-35
-1.21658e-33
-2.06135e-34
-1.53555e-33
-2.90833e-34
4.55928e-34
-2.34125e-34
3.97604e-33
-9.69177e-35
7.50896e-33
-1.50841e-35
5.28137e-33
-8.83144e-37
1.43587e-33
-3.68033e-36
7.58196e-34
-1.34088e-34
1.56383e-32
-4.44373e-33
5.85232e-31
-1.11234e-31
1.67015e-29
-2.25469e-30
4.18882e-28
-3.05845e-29
8.96223e-27
-8.29492e-30
1.70151e-25
1.53477e-26
8.84983e-24
1.48005e-24
1.18114e-21
4.1386e-22
4.29011e-20
6.48767e-20
-1.18123e-45
-3.60466e-51
-2.07065e-41
-4.99483e-47
-1.66517e-38
-2.12094e-43
-2.93827e-37
-1.0513e-39
-1.51284e-36
-1.74717e-37
-5.76429e-36
-2.1551e-36
-9.50747e-36
-7.05199e-36
-6.46023e-36
-1.0311e-35
-1.48308e-36
-8.3086e-36
4.32612e-37
-3.38121e-36
1.08371e-37
-4.97391e-37
6.09342e-38
-3.24151e-38
8.11415e-37
-6.95848e-37
5.13422e-35
-2.82011e-35
2.70227e-33
-9.07558e-34
1.04815e-31
-2.64877e-32
3.6175e-30
-6.45831e-31
1.08214e-28
-1.20682e-29
2.83185e-27
-1.10156e-28
6.46425e-26
3.16606e-27
3.02194e-24
3.82404e-25
6.36467e-22
1.77724e-22
2.4967e-20
4.67137e-20
-3.58259e-51
-1.52045e-55
-4.97909e-47
-3.97577e-51
-1.99767e-43
-2.60786e-47
-4.58316e-40
-1.80709e-43
-2.50354e-38
-2.59924e-41
-1.74588e-37
-2.37624e-40
-3.34019e-37
-4.78582e-40
-2.61447e-37
-4.43964e-40
-9.19932e-38
-1.80743e-40
-3.37209e-39
-6.00253e-41
1.55659e-39
-6.37505e-41
1.37321e-39
-1.68878e-39
1.16554e-37
-9.54937e-38
7.78774e-36
-4.17453e-36
3.86716e-34
-1.6293e-34
1.76318e-32
-5.49436e-33
7.03705e-31
-1.60177e-31
2.5064e-29
-3.86022e-30
7.88368e-28
-6.20849e-29
2.19367e-26
1.04254e-28
9.46313e-25
8.62562e-26
2.9583e-22
6.41706e-23
1.23032e-20
2.89857e-20
-1.51964e-55
-3.97307e-59
-3.97602e-51
-5.66394e-61
-2.47674e-47
-2.95967e-57
-7.25944e-44
-1.64682e-53
-3.49183e-42
-7.14235e-50
-1.42485e-41
-2.24375e-46
-1.41735e-41
-1.45742e-44
-7.13003e-42
-1.08064e-43
-1.28308e-42
-2.96796e-43
-6.84682e-43
-5.63425e-43
1.91896e-43
-3.92315e-42
7.97766e-41
-2.40793e-40
1.0226e-38
-1.23565e-38
7.85748e-37
-6.08297e-37
4.97833e-35
-2.61865e-35
2.64868e-33
-1.02794e-33
1.24546e-31
-3.59027e-32
5.29173e-30
-1.07818e-30
1.97921e-28
-2.40803e-29
6.5322e-27
-2.54523e-28
3.12527e-25
1.85183e-26
1.28188e-22
2.31772e-23
5.17361e-21
1.56763e-20
-1.23528e-63
-2.28278e-60
-1.63245e-62
-3.87132e-61
-2.90803e-57
-4.51748e-61
-1.62332e-53
-4.39203e-57
-7.91793e-50
-2.36194e-53
-5.45202e-47
-1.56368e-49
-1.22291e-45
-3.14962e-47
-4.82705e-45
-4.0734e-46
-7.15395e-45
-1.54753e-45
-9.95268e-45
-1.1129e-44
-5.34446e-44
-4.18935e-43
4.79147e-42
-2.43712e-41
8.03966e-40
-1.45254e-39
7.82849e-38
-7.81033e-38
5.73695e-36
-3.85037e-36
3.63984e-34
-1.77672e-34
2.04682e-32
-7.45037e-33
1.03632e-30
-2.70527e-31
4.54746e-29
-7.79405e-30
1.84244e-27
-1.71255e-28
1.38353e-25
1.16024e-27
6.84052e-23
1.05731e-23
1.93185e-21
7.65356e-21
1.29729e-62
-7.00857e-62
-3.97478e-64
-1.19816e-62
-1.73791e-62
-1.05698e-62
-3.97158e-57
-3.4836e-58
-2.12424e-53
-9.0787e-56
-5.43149e-50
-4.35815e-54
-2.93827e-48
-4.3724e-52
-1.27789e-47
-4.43114e-50
-4.08887e-47
-1.33388e-47
-3.61513e-46
-1.05932e-45
-1.02335e-44
-3.79031e-44
-2.86323e-44
-2.40535e-42
4.8626e-41
-1.5259e-40
6.46229e-39
-9.18188e-39
5.91113e-37
-5.20455e-37
4.58342e-35
-2.8476e-35
3.12827e-33
-1.43443e-33
1.8767e-31
-6.28693e-32
9.82116e-30
-2.36053e-30
5.46289e-28
-9.08702e-29
9.55643e-26
-8.59278e-27
4.9952e-23
4.19648e-24
6.65706e-22
3.49638e-21
9.23722e-64
-6.18932e-64
5.55261e-65
-1.64262e-64
-2.41415e-63
-1.29367e-62
-2.61371e-59
-7.92586e-60
-2.06767e-57
-1.75385e-57
-1.54062e-55
-3.63861e-55
-1.27007e-53
-4.25052e-53
-4.81127e-51
-4.93458e-51
-1.01126e-48
-9.17201e-49
-3.57333e-47
-6.20193e-47
-1.27636e-45
-2.72864e-45
-4.20433e-44
-2.08213e-43
1.29546e-42
-1.43411e-41
4.22767e-40
-9.74092e-40
5.23681e-38
-6.428e-38
5.16029e-36
-4.25214e-36
4.37195e-34
-2.68749e-34
3.20451e-32
-1.5506e-32
2.14913e-30
-8.29775e-31
1.8266e-28
-5.59577e-29
7.71212e-26
-1.39934e-26
3.10914e-23
4.38514e-27
2.29701e-22
1.6418e-21
1.16878e-65
-1.21791e-65
1.55158e-66
-3.27763e-66
1.6234e-64
-1.43385e-63
-4.77353e-62
-4.08405e-61
-4.35643e-59
-1.05772e-58
-1.05876e-56
-1.70635e-56
-1.33721e-54
-2.37811e-54
-4.01461e-52
-2.58419e-52
-5.19574e-50
-2.26855e-50
-2.20092e-48
-2.03943e-48
-1.16975e-46
-2.05931e-46
-6.28487e-45
-1.58105e-44
-1.76798e-43
-1.19937e-42
1.47606e-41
-9.10401e-41
3.59856e-39
-7.23508e-39
4.99741e-37
-6.36936e-37
5.76639e-35
-5.89918e-35
5.92587e-33
-5.3965e-33
5.89358e-31
-4.65473e-31
8.21176e-29
-4.90674e-29
4.88137e-26
-1.43354e-26
1.64846e-23
-1.47619e-24
7.12371e-23
9.09923e-22
2.81538e-67
-1.63706e-67
4.32667e-68
-5.44863e-68
2.00273e-65
-5.64662e-65
3.50018e-64
-1.36703e-62
-1.31057e-60
-3.77598e-60
-4.42662e-58
-7.0068e-58
-8.63434e-56
-1.06255e-55
-1.01677e-53
-1.33205e-53
-9.6093e-52
-1.58791e-51
-1.12456e-49
-1.4697e-49
-9.63809e-48
-1.22355e-47
-6.46743e-46
-1.02162e-45
-3.47767e-44
-8.07125e-44
-9.75561e-43
-6.56613e-42
1.24896e-40
-6.75603e-40
3.96881e-38
-9.59536e-38
8.07857e-36
-1.53824e-35
1.45085e-33
-2.34628e-33
2.38741e-31
-3.05303e-31
4.90978e-29
-4.41784e-29
2.87659e-26
-1.46898e-26
9.5095e-24
-2.22739e-24
-7.86274e-24
5.99465e-22
4.18378e-69
-1.75637e-69
8.54961e-70
-9.5677e-70
1.03222e-66
-5.83505e-67
7.19957e-65
-3.90085e-64
-3.02462e-62
-1.21125e-61
-1.44494e-59
-2.3679e-59
-3.14266e-57
-3.99608e-57
-5.755e-55
-5.43037e-55
-7.51042e-53
-6.32238e-53
-7.20698e-51
-6.02002e-51
-6.47425e-49
-5.65638e-49
-5.04486e-47
-5.2084e-47
-3.17732e-45
-2.39878e-45
-1.85173e-43
-1.76105e-44
-9.86318e-42
-1.53485e-42
1.24699e-39
-7.25913e-39
9.61779e-37
-2.71826e-36
3.48197e-34
-6.47307e-34
9.15328e-32
-1.13902e-31
2.64839e-29
-2.78089e-29
1.82464e-26
-1.55512e-26
6.01849e-24
-2.37691e-24
-3.44143e-23
3.41743e-22
4.62556e-71
-1.56993e-71
1.60635e-71
-1.11299e-71
1.17607e-68
-1.6475e-68
2.78312e-66
-8.60487e-66
-6.74976e-64
-2.93018e-63
-4.3597e-61
-6.53737e-61
-1.14944e-58
-1.14486e-58
-2.21973e-56
-2.10582e-56
-2.79345e-54
-4.63793e-54
-3.00137e-52
-9.3091e-53
-4.58914e-50
-1.24785e-52
-9.93208e-48
-1.36873e-50
-1.23335e-46
-5.51196e-48
-5.03373e-46
-1.92596e-45
-4.45633e-43
-4.90745e-43
-2.50738e-40
-1.60994e-40
7.50444e-40
-3.43969e-38
2.97803e-35
-3.30003e-36
1.37728e-32
-1.37708e-34
8.00708e-30
-8.87641e-30
1.09052e-26
-1.2374e-26
3.0444e-24
-1.49925e-24
-2.02041e-23
1.17739e-22
3.96675e-73
-1.01733e-73
1.80656e-73
-1.251e-73
3.13753e-70
-2.35786e-70
5.3841e-68
-1.50884e-67
-1.77502e-65
-5.36206e-65
-1.04054e-62
-1.65234e-62
-2.71368e-60
-6.70442e-60
-4.52491e-57
-1.66601e-58
-1.44784e-54
-1.90307e-58
-2.33123e-54
-1.27982e-56
-4.69809e-54
-7.37464e-54
-1.02855e-51
-3.54889e-51
-4.45171e-49
-1.47063e-48
-1.76857e-46
-5.12924e-46
-5.26486e-44
-1.53467e-43
-1.49306e-41
-2.95419e-41
-2.22754e-39
-9.21594e-40
-3.65161e-38
-3.07508e-37
3.6632e-36
-3.73678e-34
9.36218e-31
-2.04459e-30
3.61718e-27
-4.86139e-27
8.44909e-25
-4.84673e-25
-6.40196e-24
2.48457e-23
2.23609e-75
-4.16045e-76
1.70537e-75
-6.08815e-76
3.33786e-72
-2.40238e-72
3.67449e-70
-2.11572e-69
-3.75795e-67
-4.08211e-66
-2.52972e-63
-1.8999e-64
-1.85411e-60
-1.1266e-64
-2.81449e-60
-2.17607e-63
-4.44787e-60
-1.75883e-60
-7.08541e-58
-1.26329e-57
-5.21767e-55
-7.67161e-55
-3.01468e-52
-3.92291e-52
-1.40238e-49
-1.68462e-49
-6.172e-47
-7.10051e-47
-4.80968e-44
-1.04216e-44
-1.76564e-42
-5.16287e-43
-6.63576e-41
-3.6803e-40
-3.28852e-38
-2.78189e-37
-4.91485e-35
-3.17718e-34
-3.34931e-31
-4.06616e-31
3.26249e-28
-7.11524e-28
1.03631e-25
-8.38282e-26
-1.80228e-24
3.46458e-24
6.63219e-78
-1.49265e-78
5.34523e-78
-2.48154e-80
1.22641e-74
-1.64998e-74
-2.13185e-70
-1.0318e-70
-1.13769e-66
-6.34349e-69
-1.06216e-66
-3.57656e-69
-1.51569e-66
-8.61905e-68
-7.68242e-65
-8.89076e-65
-8.19578e-62
-8.19053e-62
-7.22484e-59
-6.39532e-59
-5.16469e-56
-4.22059e-56
-2.82837e-53
-2.3343e-53
-2.72974e-50
-1.06813e-50
-2.02825e-46
-4.41431e-48
-5.47545e-46
-7.64576e-46
-2.31377e-43
-1.03202e-43
-1.59819e-40
-9.38929e-41
-1.28476e-37
-7.68087e-38
-2.17685e-34
-5.7125e-35
-2.75277e-31
-3.97521e-32
-1.07935e-28
-4.4553e-29
1.48794e-27
-1.26686e-26
-8.09503e-25
3.75769e-25
1.01601e-80
-1.39357e-80
1.63367e-83
-8.70144e-81
-6.96658e-75
-2.2823e-76
-4.30009e-71
-2.12441e-74
-3.26029e-71
-2.3812e-74
-4.23962e-71
-2.29839e-72
-2.57833e-69
-2.9862e-69
-3.28684e-66
-3.40155e-66
-3.61501e-63
-3.36462e-63
-3.38311e-60
-2.86604e-60
-2.67637e-57
-2.07033e-57
-1.6799e-54
-1.23697e-54
-1.42734e-51
-5.88768e-52
-1.09702e-47
-2.02046e-49
-4.66882e-47
-3.12041e-47
-5.92913e-44
-2.01404e-44
-6.0414e-41
-1.82142e-41
-5.3226e-38
-1.42162e-38
-4.24537e-35
-9.67617e-36
-3.07512e-32
-5.83365e-33
-1.4751e-29
-3.4089e-30
-3.88355e-27
-2.57208e-27
-3.40174e-25
-1.21173e-25
-4.44465e-83
-3.684e-83
-2.46253e-80
-7.22648e-86
-2.35171e-76
-1.0034e-83
-2.8584e-76
-1.86506e-80
-3.45692e-76
-2.8717e-77
-6.82383e-74
-3.97436e-74
-9.43947e-71
-5.1225e-71
-1.18877e-67
-6.09714e-68
-1.35806e-64
-6.55037e-65
-1.37945e-61
-6.15722e-62
-1.21308e-58
-4.87121e-59
-9.20019e-56
-3.08155e-56
-9.37025e-53
-1.40417e-53
-5.35278e-50
-2.68065e-51
-2.88554e-48
-2.37284e-48
-1.41398e-44
-2.72011e-45
-1.32081e-41
-2.63823e-42
-1.05624e-38
-2.15259e-39
-7.38078e-36
-1.4888e-36
-4.58492e-33
-8.815e-34
-2.1263e-30
-4.54319e-31
-1.91736e-27
-3.41412e-28
-6.08372e-26
-2.73664e-25
-1.14283e-87
-4.21333e-92
-1.84788e-87
-4.61873e-89
-5.05833e-85
-6.70292e-86
-7.98821e-82
-7.23785e-83
-1.05616e-78
-8.70406e-80
-1.30323e-75
-1.183e-76
-1.59172e-72
-1.75347e-73
-1.94828e-69
-2.65231e-70
-2.32769e-66
-3.59166e-67
-2.58906e-63
-3.84908e-64
-2.58407e-60
-3.41993e-61
-3.92255e-57
-2.40298e-58
-3.2322e-54
-7.11136e-56
-1.8595e-52
-4.62433e-53
-1.99964e-48
-7.73009e-50
-2.33583e-45
-1.06068e-46
-2.28943e-42
-1.19662e-43
-1.88325e-39
-1.11606e-40
-1.31222e-36
-8.65337e-38
-7.83399e-34
-5.61531e-35
-3.96638e-31
-3.27478e-32
-3.0549e-28
-2.10238e-29
-3.83631e-27
-7.0683e-26
-2.90012e-93
-1.84443e-96
-4.24886e-90
-1.77315e-93
-4.33108e-87
-1.4459e-90
-3.7172e-84
-1.43611e-87
-3.55123e-81