/*--------------------------------*- C++ -*----------------------------------*\
  =========                 |
  \\      /  F ield         | OpenFOAM: The Open Source CFD Toolbox
   \\    /   O peration     | Website:  https://openfoam.org
    \\  /    A nd           | Version:  9
     \\/     M anipulation  |
\*---------------------------------------------------------------------------*/
FoamFile
{
    format      ascii;
    class       surfaceScalarField;
    location    "3";
    object      alphaPhi0.water;
}
// * * * * * * * * * * * * * * * * * * * * * * * * * * * * * * * * * * * * * //

dimensions      [0 3 -1 0 0 0 0];

internalField   nonuniform List<scalar> 
4432
(
-3.12927e-07
3.12927e-07
-2.59688e-07
-5.32342e-08
-5.64774e-08
-2.03217e-07
1.94184e-07
-2.50659e-07
4.73383e-07
-2.79198e-07
7.5277e-07
-2.79384e-07
1.0162e-06
-2.63426e-07
1.25497e-06
-2.38765e-07
1.46273e-06
-2.07762e-07
1.6351e-06
-1.72371e-07
1.77287e-06
-1.37772e-07
1.88229e-06
-1.0942e-07
1.97355e-06
-9.12614e-08
2.06422e-06
-9.06627e-08
2.17782e-06
-1.13605e-07
2.33992e-06
-1.62105e-07
2.51889e-06
-1.78971e-07
2.08116e-06
4.01019e-07
1.11406e-06
9.64211e-07
2.87477e-07
8.2251e-07
1.57071e-09
2.87768e-07
1.5766e-08
-1.42293e-08
1.57355e-08
-1.17137e-07
4.30056e-07
-5.979e-08
-1.10574e-07
1.0695e-07
-3.69961e-07
3.37506e-07
-4.81209e-07
5.93288e-07
-5.34976e-07
8.53403e-07
-5.39494e-07
1.10305e-06
-5.13067e-07
1.33305e-06
-4.68769e-07
1.53636e-06
-4.1107e-07
1.70771e-06
-3.43723e-07
1.84616e-06
-2.76218e-07
1.95498e-06
-2.18235e-07
2.03914e-06
-1.75422e-07
2.10508e-06
-1.56606e-07
2.15759e-06
-1.66125e-07
2.18973e-06
-1.94253e-07
2.13578e-06
-1.2502e-07
1.82065e-06
6.72518e-07
1.38527e-06
1.39702e-06
8.30346e-07
1.38429e-06
4.10271e-07
7.13097e-07
1.67589e-07
2.28232e-07
1.83441e-07
2.69226e-09
4.27358e-07
7.26992e-08
-1.80573e-07
2.16512e-07
-5.13776e-07
4.15464e-07
-6.80158e-07
6.4072e-07
-7.60228e-07
8.73352e-07
-7.72124e-07
1.10027e-06
-7.39978e-07
1.31313e-06
-6.81632e-07
1.50481e-06
-6.02752e-07
1.66928e-06
-5.08195e-07
1.80425e-06
-4.11191e-07
1.91063e-06
-3.24618e-07
1.98914e-06
-2.53925e-07
2.03927e-06
-2.06743e-07
2.0554e-06
-1.82262e-07
2.0139e-06
-1.52753e-07
1.86823e-06
2.06393e-08
1.67939e-06
8.38049e-07
1.44974e-06
1.62412e-06
1.1316e-06
1.69987e-06
7.5396e-07
1.11094e-06
3.46602e-07
6.35584e-07
5.30216e-07
6.3686e-08
3.63667e-07
1.56245e-07
-2.73127e-07
2.85539e-07
-6.43071e-07
4.56067e-07
-8.50685e-07
6.51404e-07
-9.55562e-07
8.55752e-07
-9.76472e-07
1.05834e-06
-9.42562e-07
1.2524e-06
-8.75697e-07
1.43108e-06
-7.8143e-07
1.58761e-06
-6.64725e-07
1.71867e-06
-5.42256e-07
1.8234e-06
-4.29346e-07
1.89903e-06
-3.29555e-07
1.94071e-06
-2.48422e-07
1.93797e-06
-1.7952e-07
1.86776e-06
-8.25524e-08
1.70815e-06
1.80248e-07
1.59335e-06
9.40742e-07
1.50181e-06
1.71311e-06
1.35627e-06
1.88438e-06
1.01311e-06
1.47657e-06
5.32286e-07
1.1164e-06
1.0625e-06
9.80672e-08
2.65597e-07
2.02641e-07
-3.77698e-07
3.18189e-07
-7.5862e-07
4.62829e-07
-9.95325e-07
6.29611e-07
-1.12234e-06
8.05968e-07
-1.15283e-06
9.8386e-07
-1.12045e-06
1.15873e-06
-1.05057e-06
1.32422e-06
-9.46926e-07
1.47284e-06
-8.1334e-07
1.60055e-06
-6.69965e-07
1.70536e-06
-5.34149e-07
1.78179e-06
-4.05986e-07
1.82258e-06
-2.89214e-07
1.81702e-06
-1.73971e-07
1.74876e-06
-1.43095e-08
1.6211e-06
3.07914e-07
1.56169e-06
9.99758e-07
1.56891e-06
1.7245e-06
1.50702e-06
1.9643e-06
1.20599e-06
1.77863e-06
7.02494e-07
1.6199e-06
1.7649e-06
1.14556e-07
1.51039e-07
2.18631e-07
-4.81772e-07
3.17141e-07
-8.57132e-07
4.36473e-07
-1.11466e-06
5.75653e-07
-1.26152e-06
7.24439e-07
-1.30162e-06
8.77674e-07
-1.27369e-06
1.03348e-06
-1.20638e-06
1.18618e-06
-1.09963e-06
1.32746e-06
-9.54621e-07
1.45292e-06
-7.95421e-07
1.56011e-06
-6.41342e-07
1.64144e-06
-4.87323e-07
1.68857e-06
-3.36343e-07
1.6929e-06
-1.78303e-07
1.64636e-06
3.22344e-08
1.56546e-06
3.88812e-07
1.54849e-06
1.01673e-06
1.60681e-06
1.66618e-06
1.59609e-06
1.97503e-06
1.37253e-06
2.00219e-06
8.80122e-07
2.11229e-06
2.64495e-06
1.19079e-07
3.19582e-08
2.10284e-07
-5.72979e-07
2.86389e-07
-9.33241e-07
3.79259e-07
-1.20753e-06
4.90966e-07
-1.37323e-06
6.12332e-07
-1.42298e-06
7.40999e-07
-1.40236e-06
8.78104e-07
-1.34349e-06
1.01866e-06
-1.24018e-06
1.15342e-06
-1.08938e-06
1.27794e-06
-9.19945e-07
1.38995e-06
-7.5336e-07
1.48016e-06
-5.7753e-07
1.53979e-06
-3.95968e-07
1.5631e-06
-2.01616e-07
1.54883e-06
4.65038e-08
1.51774e-06
4.199e-07
1.544e-06
9.90467e-07
1.6341e-06
1.57607e-06
1.67959e-06
1.92954e-06
1.55767e-06
2.12411e-06
1.10829e-06
2.56168e-06
3.75317e-06
1.12118e-07
-8.01621e-08
1.85912e-07
-6.46775e-07
2.3268e-07
-9.8001e-07
2.96292e-07
-1.27114e-06
3.79813e-07
-1.45675e-06
4.73527e-07
-1.51669e-06
5.77648e-07
-1.50648e-06
6.96561e-07
-1.4624e-06
8.25792e-07
-1.36941e-06
9.54882e-07
-1.21847e-06
1.07969e-06
-1.04475e-06
1.19872e-06
-8.72394e-07
1.30116e-06
-6.7997e-07
1.378e-06
-4.72803e-07
1.42625e-06
-2.49862e-07
1.44943e-06
2.3327e-08
1.46713e-06
4.02193e-07
1.53608e-06
9.21512e-07
1.66285e-06
1.4493e-06
1.77569e-06
1.81669e-06
1.79201e-06
2.10779e-06
1.5468e-06
2.80689e-06
5.30021e-06
1.76818e-06
-1.76826e-06
3.77348e-06
-2.00539e-06
5.1294e-06
-1.356e-06
5.89807e-06
-7.60051e-07
6.19437e-06
-2.89452e-07
6.03867e-06
1.62685e-07
5.26675e-06
7.83945e-07
3.71429e-06
1.52801e-06
2.10998e-06
1.59925e-06
1.5174e-06
5.95811e-07
1.22338e-06
2.77625e-07
8.51841e-08
1.11573e-06
-7.05812e-07
7.91204e-07
-8.9537e-08
-6.16104e-07
1.77779e-06
-1.8672e-06
3.22396e-06
-1.44603e-06
2.96813e-06
2.63144e-07
1.26261e-06
1.70551e-06
1.26259e-06
2.16929e-06
-3.93762e-06
3.51683e-06
-3.35301e-06
4.38802e-06
-2.20559e-06
4.87899e-06
-1.24337e-06
5.08404e-06
-4.95909e-07
4.97749e-06
2.68795e-07
4.31477e-06
1.44666e-06
3.16101e-06
2.6464e-06
2.05733e-06
2.69852e-06
1.35423e-06
1.30537e-06
8.51938e-07
7.59639e-07
2.94909e-07
1.67298e-06
-3.04345e-08
1.11677e-06
2.94261e-07
-9.40591e-07
1.33586e-06
-2.99241e-06
2.38118e-06
-2.49121e-06
2.38722e-06
3.0532e-07
1.30782e-06
2.74663e-06
2.59335e-06
2.06093e-06
-6.03646e-06
3.11177e-06
-4.43576e-06
3.74609e-06
-2.84412e-06
4.09322e-06
-1.5864e-06
4.2425e-06
-6.45187e-07
4.12845e-06
3.82854e-07
3.55345e-06
2.02166e-06
2.70304e-06
3.48001e-06
1.94369e-06
3.45339e-06
1.27121e-06
1.98799e-06
7.92944e-07
1.23072e-06
5.5193e-07
1.91421e-06
4.16187e-07
1.25272e-06
5.32777e-07
-1.0754e-06
9.11772e-07
-3.37147e-06
1.61771e-06
-3.2477e-06
1.8943e-06
3.59421e-08
1.19674e-06
3.4565e-06
3.80264e-06
1.69152e-06
-7.7279e-06
2.60856e-06
-5.35271e-06
3.14509e-06
-3.3896e-06
3.42434e-06
-1.86376e-06
3.5534e-06
-7.74227e-07
3.48161e-06
4.5465e-07
3.01837e-06
2.47816e-06
2.42839e-06
4.06996e-06
1.8944e-06
4.01699e-06
1.29667e-06
2.59209e-06
8.65984e-07
1.64956e-06
8.29754e-07
1.98396e-06
8.10783e-07
1.31394e-06
6.70234e-07
-9.25233e-07
5.13804e-07
-3.21511e-06
9.23344e-07
-3.79527e-06
1.543e-06
-6.5524e-07
1.27559e-06
3.71869e-06
5.0905e-06
1.26473e-06
-8.99379e-06
2.11556e-06
-6.20346e-06
2.60324e-06
-3.87736e-06
2.83212e-06
-2.09364e-06
2.9573e-06
-8.99231e-07
2.96032e-06
4.5164e-07
2.64876e-06
2.78964e-06
2.27174e-06
4.44831e-06
1.91691e-06
4.37778e-06
1.43197e-06
3.07713e-06
1.10541e-06
1.96517e-06
1.15941e-06
1.95091e-06
1.1487e-06
1.34375e-06
7.58406e-07
-5.28835e-07
2.32815e-07
-2.68958e-06
2.01642e-07
-3.76415e-06
1.04336e-06
-1.59831e-06
1.49315e-06
3.06254e-06
6.303e-06
9.30408e-07
-9.92764e-06
1.73017e-06
-7.00269e-06
2.14478e-06
-4.29205e-06
2.31022e-06
-2.25916e-06
2.425e-06
-1.01435e-06
2.51673e-06
3.5695e-07
2.37447e-06
2.93203e-06
2.19053e-06
4.63237e-06
2.00464e-06
4.56378e-06
1.67046e-06
3.41142e-06
1.45929e-06
2.18128e-06
1.5205e-06
1.88781e-06
1.4331e-06
1.4309e-06
8.88958e-07
1.51951e-08
1.08205e-07
-1.90889e-06
-3.70572e-07
-3.28544e-06
1.70915e-07
-2.13983e-06
1.22989e-06
1.93674e-06
7.46021e-06
8.83961e-07
-1.08149e-05
1.51623e-06
-7.63504e-06
1.78905e-06
-4.56502e-06
1.85911e-06
-2.32931e-06
1.93149e-06
-1.0868e-06
2.06192e-06
1.82963e-07
2.0377e-06
2.58974e-06
2.10945e-06
4.07722e-06
2.16631e-06
4.24278e-06
1.96121e-06
3.4069e-06
1.85644e-06
2.19757e-06
1.90404e-06
1.87359e-06
1.72786e-06
1.60668e-06
1.09397e-06
6.48715e-07
1.57552e-07
-9.72835e-07
-6.30656e-07
-2.49745e-06
-7.29909e-07
-2.04063e-06
3.90741e-07
8.96612e-07
7.80272e-06
1.46872e-06
-1.22835e-05
1.51106e-06
-7.67777e-06
1.5378e-06
-4.59206e-06
1.48179e-06
-2.27349e-06
1.48458e-06
-1.0878e-06
1.56952e-06
1.25577e-08
1.69772e-06
2.20443e-06
2.06712e-06
3.44989e-06
2.25683e-06
3.72595e-06
2.28733e-06
3.10516e-06
2.36001e-06
2.2195e-06
2.29516e-06
1.93803e-06
2.05506e-06
1.8464e-06
1.38701e-06
1.31633e-06
3.79145e-07
3.48278e-08
-6.08221e-07
-1.51016e-06
-1.29719e-06
-1.3518e-06
-1.17703e-06
8.57302e-07
7.04593e-06
3.1343e-07
-3.93599e-07
3.16906e-07
-6.50258e-07
2.7072e-07
-9.33828e-07
2.94565e-07
-1.29499e-06
3.76987e-07
-1.53918e-06
4.82625e-07
-1.62233e-06
6.21787e-07
-1.64564e-06
8.17432e-07
-1.65804e-06
1.05988e-06
-1.61186e-06
1.31798e-06
-1.47656e-06
1.58527e-06
-1.31204e-06
1.86907e-06
-1.15618e-06
2.13508e-06
-9.45978e-07
2.36529e-06
-7.02975e-07
2.56101e-06
-4.45575e-07
2.74159e-06
-1.57228e-07
2.93063e-06
2.1315e-07
3.2196e-06
6.32532e-07
3.62834e-06
1.04056e-06
4.12371e-06
1.32133e-06
4.76117e-06
1.47033e-06
5.96566e-06
1.6024e-06
1.82599e-06
9.4399e-06
1.26619e-07
-3.08485e-07
-5.21672e-09
-2.94662e-07
-1.23834e-07
-4.78824e-07
-2.16818e-07
-7.35636e-07
-2.65859e-07
-9.54278e-07
-2.72341e-07
-1.08457e-06
-2.17145e-07
-1.20516e-06
-8.74398e-08
-1.343e-06
1.14933e-07
-1.44562e-06
3.61385e-07
-1.44779e-06
6.46009e-07
-1.41123e-06
9.68539e-07
-1.36746e-06
1.29768e-06
-1.22334e-06
1.61997e-06
-1.00973e-06
1.94396e-06
-7.69477e-07
2.27123e-06
-4.84469e-07
2.62685e-06
-1.42449e-07
3.09356e-06
1.65817e-07
3.65971e-06
4.74418e-07
4.33332e-06
6.47733e-07
5.18648e-06
6.17174e-07
6.34595e-06
4.42923e-07
7.04386e-08
8.10149e-06
-1.53825e-07
4.95323e-09
-9.79024e-08
-3.08068e-08
-1.04021e-07
-4.21984e-09
-2.1573e-07
-1.39944e-09
-3.41523e-07
-2.62649e-09
-3.85236e-07
-8.62463e-09
-3.72456e-07
-1.78557e-08
-3.68267e-07
-8.00679e-09
-3.50849e-07
-6.45298e-09
-2.45403e-07
-3.40924e-08
-8.47735e-08
-3.30315e-08
9.47834e-08
-1.99814e-08
3.33801e-07
-3.38351e-07
6.18951e-07
-3.31628e-07
9.36636e-07
-3.01407e-07
1.2847e-06
-2.57856e-07
1.71121e-06
-2.11312e-07
2.20086e-06
-1.4896e-07
2.78063e-06
-8.78663e-08
3.42992e-06
-6.52789e-08
4.09283e-06
-9.98458e-08
4.78694e-06
-2.03216e-07
-3.80885e-07
5.40989e-06
-5.53301e-09
6.07099e-09
4.9692e-10
-3.68293e-08
1.90166e-09
-5.63325e-09
-6.56586e-10
1.1501e-09
-3.29169e-09
0
-2.77954e-09
-9.14539e-09
-1.53192e-09
-1.90046e-08
-1.38191e-09
-7.84897e-09
-2.16298e-09
-5.22036e-09
-1.2136e-09
-3.4511e-08
-3.99536e-10
-3.32366e-08
-2.09479e-09
-1.76694e-08
2.14769e-10
-3.11054e-08
8.60158e-09
-2.56749e-08
2.43367e-08
-3.08453e-08
5.61169e-08
-3.77453e-08
1.12101e-07
-9.49875e-09
1.68264e-07
-5.02183e-08
2.47497e-07
-7.61005e-08
3.51666e-07
-8.49332e-08
4.19674e-07
-5.14941e-08
4.40142e-07
-4.03726e-08
-6.6282e-08
4.07506e-07
-8.95146e-09
8.20306e-09
1.72533e-08
-6.20498e-08
1.17933e-08
-2.7006e-08
-9.38268e-10
1.38731e-08
-1.71676e-08
1.37466e-08
-4.33836e-08
-2.15617e-08
-3.00668e-08
-4.84546e-08
-9.71139e-09
-2.95881e-08
-2.6289e-08
-2.86463e-09
-1.61943e-08
-6.03438e-08
4.22236e-09
-5.33887e-08
1.79811e-08
-3.71493e-08
1.58838e-08
-6.64857e-08
2.74793e-08
-5.03828e-08
4.01214e-08
-5.65303e-08
5.42866e-08
-6.18056e-08
5.63516e-08
-3.27727e-08
8.02061e-08
0
9.66741e-08
-3.53296e-08
1.02734e-07
-8.08649e-08
3.929e-08
-1.3448e-08
1.42585e-08
0
-1.61188e-08
2.55508e-08
1.9978e-08
5.83682e-09
1.63422e-08
-5.78129e-08
2.04269e-08
-3.04794e-08
5.60183e-09
2.43881e-08
-2.25634e-09
1.98559e-08
-1.22003e-08
-5.21673e-09
-3.96323e-09
-5.03235e-08
1.68319e-08
-4.39549e-08
2.61448e-08
-2.43823e-08
2.93708e-08
-3.38853e-08
3.07632e-08
-2.48343e-08
4.31249e-08
-1.94616e-08
4.84414e-08
-4.17029e-08
6.34886e-08
-3.53805e-08
7.42064e-08
-3.71487e-08
8.22176e-08
-3.95487e-08
4.34845e-08
-4.00607e-08
4.44823e-08
0
7.73606e-08
-2.75094e-09
6.66466e-08
-2.40659e-09
1.69545e-08
6.35249e-10
1.0932e-08
3.89022e-09
-1.43843e-08
6.55768e-08
2.18807e-08
-7.45251e-09
-1.2134e-08
-1.51841e-08
-1.49101e-08
-2.70988e-08
5.92145e-09
1.09315e-08
1.37024e-08
1.02367e-08
4.62589e-08
0
5.84596e-08
-1.89212e-08
3.076e-08
-1.42664e-09
2.66019e-08
-1.27168e-11
1.32626e-08
-3.58829e-09
1.21349e-08
-1.67431e-10
1.13949e-08
-4.83718e-11
9.47591e-09
-2.91208e-10
1.27007e-08
-1.20489e-08
1.69643e-08
-2.51939e-08
1.96959e-08
-3.06126e-08
1.60894e-08
-3.86513e-08
4.3364e-09
-1.20687e-08
6.38992e-09
-1.53301e-09
3.58336e-09
-1.05761e-09
4.70266e-09
1.45759e-09
7.99609e-09
3.05347e-09
-4.53719e-09
1.95716e-08
3.05031e-09
-2.76664e-13
-1.87614e-09
0
-9.77294e-09
-2.23944e-13
1.63715e-08
-5.55653e-10
4.10355e-08
2.26878e-10
2.31337e-08
-3.73509e-09
1.43762e-09
-8.66293e-11
1.27896e-11
-1.9735e-12
9.25222e-14
-1.31027e-14
1.67933e-10
-2.42682e-13
6.943e-13
-1.63878e-13
2.40998e-13
-1.87763e-12
5.90521e-12
-7.21162e-11
1.27197e-09
-1.79953e-09
2.55818e-09
-4.9367e-09
3.95174e-09
-1.02599e-08
5.10886e-09
-2.43908e-08
4.69957e-09
-2.63106e-08
6.91846e-10
-8.24779e-09
3.66021e-09
-5.66169e-09
3.55732e-09
1.12837e-09
6.82595e-09
1.63169e-09
0
3.97863e-09
6.44593e-14
-1.25379e-12
4.53298e-13
-2.25933e-12
9.59059e-14
-8.92773e-13
5.30268e-09
-7.2681e-13
9.10864e-09
-5.32881e-14
3.42692e-10
-8.65359e-16
1.97341e-12
-1.0305e-16
0
-8.72851e-17
4.45149e-15
-2.21861e-17
3.94661e-15
-2.34787e-13
1.24616e-12
-1.39039e-12
2.8435e-11
-4.82521e-12
1.02538e-10
-1.70713e-11
1.46146e-10
-1.31576e-12
7.75877e-11
-1.16784e-13
1.59942e-10
-1.42057e-13
2.7149e-10
-1.78669e-12
1.67758e-09
-1.00002e-09
4.75936e-09
-6.02968e-09
9.06644e-09
-4.66907e-09
0
8.4829e-10
2.45892e-12
1.18217e-10
6.71577e-12
1.14912e-12
8.41195e-13
-1.06399e-12
3.41498e-12
-5.69392e-12
6.50281e-13
-5.70986e-13
4.91254e-15
-8.10857e-14
1.3751e-15
-4.97515e-14
1.08859e-15
-5.7495e-16
1.02583e-15
-3.54943e-17
8.31765e-16
1.11736e-16
6.46776e-16
1.68331e-16
5.41575e-12
1.26975e-12
3.71099e-12
5.28845e-14
2.17249e-12
-2.10904e-12
1.2717e-12
-6.40252e-14
-4.9905e-19
-4.6942e-14
-1.01999e-16
-1.18444e-13
-1.37976e-15
-1.42182e-13
-1.78636e-12
-6.57887e-16
-1.00096e-09
-7.96555e-13
-1.4323e-09
-1.77933e-10
-1.79886e-09
-2.68479e-09
-1.09571e-10
1.48671e-11
3.49952e-13
8.96325e-12
9.01953e-12
2.37677e-13
4.73786e-14
-2.76874e-14
2.36461e-12
-4.55904e-14
0
-1.18883e-13
2.00208e-15
-1.08944e-13
-2.02255e-17
-4.89343e-14
-2.09757e-16
-3.79685e-16
-2.68599e-16
2.76701e-17
-5.82929e-16
4.30921e-16
-2.05955e-12
2.73874e-13
-7.92428e-12
1.91848e-12
-7.66694e-12
1.25941e-12
-7.48013e-14
-1.11184e-12
-5.98155e-14
-2.24899e-13
-6.08421e-14
-1.91618e-13
-7.39172e-14
-3.01457e-13
-3.82557e-15
-1.27839e-13
-3.49123e-15
-4.54557e-16
-7.78386e-13
-2.09647e-14
-1.76044e-10
-2.62213e-12
-8.21657e-10
-7.87511e-11
-2.40537e-11
-2.49178e-11
-1.586e-11
2.56306e-12
2.96657e-11
-3.45561e-11
-9.63379e-15
-2.36722e-14
-1.1786e-14
-4.35e-14
-5.28998e-14
0
-4.89304e-14
-1.05168e-14
-1.63871e-15
-5.69288e-15
-1.48e-15
-5.32264e-16
-1.52164e-15
1.02004e-16
-2.29344e-15
1.4741e-15
-4.29913e-12
2.63053e-13
-8.99822e-12
0
-6.59578e-12
0
-1.46659e-12
-1.08042e-13
-1.10563e-12
-4.44184e-14
-9.42679e-13
-1.21804e-13
-5.08408e-13
-1.28224e-15
-1.07483e-14
-9.64027e-16
-1.06738e-14
-3.42047e-16
-3.09055e-14
-4.12706e-16
-2.99957e-12
-8.77855e-14
-4.51991e-11
-2.43339e-12
-5.67403e-11
-3.97222e-12
-6.8073e-11
2.24023e-11
2.83505e-11
-6.66926e-11
-7.57851e-15
-2.17122e-14
-1.66845e-14
-4.00126e-14
-2.03321e-14
0
-2.561e-15
-5.64267e-15
-3.87584e-15
-1.86031e-16
-4.69871e-15
-1.74531e-17
-1.77112e-14
6.95658e-16
-1.17409e-13
7.17315e-15
-1.02419e-13
0
-7.88756e-14
0
-6.04402e-14
0
-7.12754e-14
-3.52538e-15
-4.24126e-14
-5.38486e-15
-4.94588e-16
-3.53787e-15
-5.0816e-16
-1.24116e-15
-5.42555e-16
-9.00709e-16
-5.371e-16
-3.19104e-16
-3.84485e-16
-2.65854e-16
-8.53147e-14
-2.53474e-15
-2.44658e-12
-7.1817e-14
-4.06306e-11
-8.04652e-13
-9.31026e-11
6.42221e-12
2.32449e-11
-8.79328e-11
-5.52761e-14
-1.0451e-14
-9.42973e-13
-2.03694e-13
-7.39813e-13
-3.09914e-13
-3.39172e-15
-1.27348e-14
-3.62151e-15
2.74364e-17
-5.78647e-15
2.73503e-16
-1.076e-14
1.07951e-15
-3.01922e-14
1.41849e-15
-6.65511e-14
1.95716e-15
-7.56639e-14
3.17986e-15
-4.28847e-14
1.12778e-15
-5.85713e-15
-7.27622e-16
-1.67613e-15
-3.01043e-16
-2.47706e-15
-1.63754e-16
-1.73491e-15
-9.1159e-17
-8.54515e-16
-1.45135e-16
-5.88122e-16
-1.30614e-16
-3.83797e-16
-2.0105e-16
0
-4.35078e-16
-2.22452e-13
-2.44622e-15
-2.55329e-12
-1.2147e-14
-1.55414e-12
0
0
-2.36814e-11
-6.87788e-14
2.18964e-15
-2.12172e-12
2.25625e-13
-2.3044e-12
4.26804e-13
-4.55632e-15
2.81896e-13
-4.78596e-15
2.46157e-16
-7.50001e-15
5.77989e-16
-1.07683e-14
1.29829e-15
-1.81349e-14
1.28481e-15
-2.774e-14
1.08033e-15
-2.85056e-14
6.53139e-16
-1.47578e-14
1.32323e-16
-2.35723e-15
-8.50371e-17
-4.94895e-16
-2.94715e-17
-3.68325e-16
-5.0646e-18
-2.41434e-16
1.33278e-18
-2.14788e-16
1.36699e-18
-3.26661e-16
-1.16983e-18
-9.54662e-16
-1.12821e-17
-1.17176e-15
-5.05804e-17
-1.24643e-15
-1.60204e-16
-1.09726e-14
-2.23898e-16
0
0
0
-2.16666e-12
-2.1504e-13
2.47314e-14
-2.50957e-12
8.74885e-13
-2.84474e-12
1.31723e-12
-3.69017e-15
1.13543e-12
-3.91379e-15
4.64734e-16
-5.15395e-15
4.88182e-16
-6.49971e-15
6.89111e-16
-5.93931e-15
5.77258e-16
-4.93022e-15
1.96482e-16
-3.50947e-15
5.59926e-17
-1.38774e-15
5.77206e-18
-2.36619e-16
-5.3725e-18
-9.24549e-18
6.88802e-19
5.39979e-18
4.12865e-18
4.7663e-18
7.23005e-18
-3.30923e-20
8.5385e-18
-9.18299e-18
7.98007e-18
-2.92407e-17
5.4535e-18
-2.19845e-16
1.35012e-18
-1.07953e-15
-8.51902e-18
-2.28298e-15
-7.18944e-17
-3.30498e-15
-8.80728e-17
4.67468e-17
-8.24642e-15
-1.56696e-13
1.68807e-14
-2.74635e-12
1.05029e-12
-3.12146e-12
2.24766e-12
-1.85877e-15
1.16344e-12
-2.08121e-15
6.82303e-16
-2.19793e-15
5.99899e-16
-2.3102e-15
5.34298e-16
-1.35586e-15
2.05515e-16
-5.55799e-16
4.66367e-17
-2.80912e-16
4.56914e-18
-9.05991e-17
3.4841e-18
6.06015e-18
4.88514e-19
2.33187e-17
2.85617e-18
3.1484e-17
6.67392e-18
3.23209e-17
9.74543e-18
2.89512e-17
1.10337e-17
2.07888e-17
1.0492e-17
5.97483e-18
8.47364e-18
-2.10375e-17
5.54384e-18
-9.60137e-17
2.29094e-18
-9.81383e-16
-2.55701e-18
-2.82351e-15
-1.91793e-17
-3.13829e-17
-3.53748e-15
0
8.44148e-15
-2.286e-12
1.77167e-13
-2.26141e-12
2.77845e-12
-2.42529e-15
3.95505e-13
-2.63756e-15
8.89755e-16
-2.87307e-15
8.306e-16
-9.11681e-16
1.16688e-15
-3.76195e-16
8.39278e-17
-4.67943e-17
3.58367e-17
4.7466e-19
1.95486e-18
1.0051e-17
-1.10024e-20
2.46833e-17
7.32972e-19
3.76622e-17
3.03166e-18
4.2912e-17
6.17677e-18
4.2433e-17
8.82912e-18
3.85021e-17
1.01061e-17
3.21316e-17
9.84808e-18
2.35438e-17
8.34649e-18
1.19533e-17
6.20418e-18
-3.13475e-18
4.02612e-18
-2.1225e-17
2.17987e-18
-3.64712e-16
7.59534e-19
-8.94447e-19
-1.05756e-15
-4.77746e-17
9.69281e-15
-2.87339e-13
0
-3.79434e-13
7.20455e-16
-1.38782e-14
0
-1.41283e-14
1.13495e-15
-1.03788e-14
6.11972e-15
-5.62402e-16
3.29417e-15
-2.66735e-16
8.56752e-17
-4.04421e-17
3.9926e-17
5.30176e-18
2.17726e-18
1.45983e-17
-1.73955e-19
2.47802e-17
3.15219e-19
3.31403e-17
1.78467e-18
3.71566e-17
4.04495e-18
3.71517e-17
6.23083e-18
3.42832e-17
7.53756e-18
2.94764e-17
7.66599e-18
2.37115e-17
6.77244e-18
1.77947e-17
5.29182e-18
1.20063e-17
3.69781e-18
5.73704e-18
2.32887e-18
-1.81868e-18
1.32927e-18
6.76301e-19
-9.95084e-18
-3.19967e-16
1.7007e-14
-1.60647e-15
2.41576e-15
-1.48049e-15
1.03691e-15
-4.15427e-15
3.61192e-16
-1.04958e-14
6.20086e-15
-6.84345e-15
7.85926e-15
-6.22769e-16
3.66055e-15
-2.92373e-16
1.4862e-16
-7.59944e-17
6.40592e-17
-9.20166e-18
9.49576e-18
6.06884e-18
3.98772e-19
1.32776e-17
-4.27611e-19
1.96539e-17
2.73262e-19
2.37406e-17
1.60908e-18
2.50093e-17
3.35174e-18
2.38673e-17
4.6017e-18
2.10133e-17
5.02591e-18
1.72481e-17
4.67542e-18
1.32995e-17
3.83024e-18
9.70636e-18
2.81892e-18
6.77191e-18
1.88929e-18
4.50874e-18
1.16955e-18
6.80791e-19
2.58975e-18
-1.4718e-16
1.17953e-13
-2.82055e-16
3.69704e-15
-3.7078e-16
1.75089e-15
-1.37559e-15
1.41867e-15
-4.15551e-15
1.60221e-15
-3.81714e-15
2.29942e-15
-6.31192e-16
1.13375e-15
-3.17201e-16
2.42109e-16
-1.54043e-16
9.47221e-17
-6.1001e-17
3.10632e-17
-1.53494e-17
4.8286e-18
1.77168e-18
-1.15801e-18
6.72075e-18
-1.68243e-18
1.09319e-17
1.4709e-19
1.30059e-17
1.20777e-18
1.32078e-17
2.23448e-18
1.20552e-17
2.76786e-18
1.01267e-17
2.75875e-18
7.93896e-18
2.37174e-18
5.86722e-18
1.82193e-18
4.14259e-18
1.27667e-18
2.85559e-18
8.29751e-19
5.1601e-19
1.86857e-18
-4.5665e-14
1.76757e-13
-1.78552e-16
2.19572e-12
-2.51581e-16
1.86975e-15
-3.30854e-16
1.38319e-15
-4.86846e-16
7.37277e-16
-5.35368e-16
4.87123e-16
-4.29116e-16
3.33141e-16
-2.7234e-16
2.67537e-16
-1.97065e-16
1.26386e-16
-1.28527e-16
5.89576e-17
-6.28785e-17
1.5388e-17
-1.63408e-17
-2.78015e-18
4.95503e-19
-3.64804e-18
3.15692e-18
-1.30743e-18
5.03578e-18
1.69118e-19
5.75551e-18
8.23524e-19
5.55916e-18
1.28506e-18
4.81071e-18
1.40576e-18
3.83563e-18
1.27038e-18
2.86244e-18
1.00979e-18
2.02761e-18
7.28987e-19
1.40652e-18
4.87613e-19
3.12196e-19
9.82183e-19
0
1.50073e-13
-6.23626e-13
4.03826e-12
-1.12472e-12
1.20651e-11
-3.90217e-16
8.82548e-12
-2.54738e-16
5.91266e-16
-1.7723e-16
4.04678e-16
-2.04768e-16
3.20936e-16
-1.93761e-16
2.52414e-16
-1.69657e-16
1.53933e-16
-1.35718e-16
8.06104e-17
-8.6356e-17
2.61679e-17
-3.56026e-17
-2.41558e-18
-6.23721e-18
-7.39975e-18
3.22799e-19
-2.51297e-18
1.35164e-18
-1.3508e-19
1.9379e-18
2.28467e-19
2.03841e-18
5.21218e-19
1.83098e-18
6.34967e-19
1.4832e-18
6.00934e-19
1.11251e-18
4.88739e-19
7.85431e-19
3.5781e-19
5.38304e-19
2.42015e-19
1.55483e-19
3.92069e-19
9.76421e-15
9.07535e-14
-1.98636e-13
3.26894e-12
-5.42942e-13
1.25348e-11
-5.27047e-13
1.02707e-11
-6.97374e-17
1.24024e-12
-8.6826e-17
4.16838e-16
-9.94055e-17
3.28614e-16
-1.06522e-16
2.62952e-16
-1.02523e-16
1.78656e-16
-8.80217e-17
9.61007e-17
-6.27781e-17
3.41745e-17
-3.15531e-17
-1.89063e-19
-7.82608e-18
-8.26282e-18
-5.10499e-19
-3.1583e-18
2.32541e-19
-2.08868e-19
4.89953e-19
4.55935e-20
5.74591e-19
2.00503e-19
5.38286e-19
2.65229e-19
4.41616e-19
2.57629e-19
3.30265e-19
2.10789e-19
2.30047e-19
1.5378e-19
1.52973e-19
1.0326e-19
6.52823e-20
1.13282e-19
2.09115e-14
6.96845e-14
1.08112e-13
7.43524e-13
5.20741e-13
1.22558e-11
3.76373e-13
1.05487e-11
0
1.61482e-12
9.03549e-18
1.14469e-15
-3.69588e-18
3.36686e-16
-1.16686e-17
2.83996e-16
-1.72055e-17
1.92512e-16
-1.91533e-17
1.04534e-16
-1.67348e-17
3.9394e-17
-1.00478e-17
2.60491e-18
-2.88825e-18
-6.45951e-18
-1.91432e-19
-2.27247e-18
1.82887e-20
-1.18177e-19
7.83503e-20
1.93531e-20
1.03684e-19
7.97804e-20
1.02069e-19
1.05403e-19
8.49806e-20
1.01737e-19
6.29208e-20
8.21094e-20
4.2517e-20
5.86915e-20
2.66543e-20
3.84378e-20
2.3598e-20
1.90093e-20
4.65958e-15
6.48718e-14
1.46064e-13
1.00366e-13
1.47558e-12
1.10517e-11
5.70478e-13
4.29027e-12
0
6.265e-13
0
2.01045e-15
7.93271e-17
3.58174e-16
8.24183e-17
2.94937e-16
6.75179e-17
1.98168e-16
4.91664e-17
1.09687e-16
2.96347e-17
4.20071e-17
1.22149e-17
4.5695e-18
2.4404e-18
-3.03699e-18
1.27744e-19
-6.61283e-19
1.86629e-20
-1.62568e-20
-2.91745e-21
1.39397e-20
-7.56151e-21
3.26781e-20
-6.33408e-21
4.00764e-20
-4.06449e-21
3.72126e-20
-2.61328e-21
2.903e-20
-2.06866e-21
1.99967e-20
-1.96142e-21
1.25533e-20
7.35458e-21
-1.91406e-21
6.01911e-15
5.86952e-14
4.90269e-14
5.72011e-14
5.82115e-13
0
7.47962e-14
0
0
9.00006e-17
7.94213e-17
1.34704e-15
1.63234e-16
4.0834e-16
1.54109e-16
2.8821e-16
1.31779e-16
1.85263e-16
9.70958e-17
9.85101e-17
5.40071e-17
3.42095e-17
1.77536e-17
3.84361e-18
2.24464e-18
-6.86985e-19
5.88468e-20
-6.6746e-20
8.95519e-21
-1.18851e-21
-1.00695e-20
7.28601e-21
-1.89623e-20
1.29574e-20
-1.98074e-20
1.43939e-20
-1.6457e-20
1.25527e-20
-1.20308e-20
9.28091e-21
-8.12571e-21
6.05531e-21
-5.22851e-21
3.58304e-21
1.966e-21
-3.27502e-21
5.64434e-15
5.1071e-14
9.86689e-15
5.95766e-14
6.70888e-15
8.21223e-16
8.56013e-16
6.09492e-17
2.61681e-16
5.37371e-16
2.8585e-16
4.71073e-16
2.11236e-16
3.72102e-16
1.91766e-16
2.47753e-16
1.58116e-16
1.52384e-16
1.03922e-16
7.21073e-17
4.45114e-17
1.99699e-17
8.74856e-18
1.66425e-18
4.69495e-19
-5.50057e-20
3.47668e-21
-1.92045e-21
2.86861e-22
1.08376e-21
-9.24951e-21
3.42785e-21
-1.3385e-20
4.7735e-21
-1.28181e-20
4.76731e-21
-1.00712e-20
3.85241e-21
-6.9636e-21
2.66075e-21
-4.39463e-21
1.62206e-21
-2.59596e-21
8.9304e-22
4.52624e-22
-1.46532e-21
4.54379e-15
3.19376e-14
1.06089e-14
5.61744e-14
1.01763e-15
1.27702e-14
2.6906e-16
1.30078e-15
2.20157e-16
4.80713e-16
2.30782e-16
3.56017e-16
2.25544e-16
2.79486e-16
1.94423e-16
1.93236e-16
1.40143e-16
1.0657e-16
7.04942e-17
3.91592e-17
1.82137e-17
6.78721e-18
1.51745e-18
2.78967e-19
2.46519e-20
-1.01501e-21
4.54225e-21
-1.02846e-22
-2.62868e-21
6.8015e-22
-6.13557e-21
1.34246e-21
-6.92818e-21
1.59132e-21
-5.95294e-21
1.43131e-21
-4.32066e-21
1.06117e-21
-2.77448e-21
6.76793e-22
-1.6201e-21
3.8135e-22
-8.77736e-22
1.93512e-22
8.98337e-23
-4.48948e-22
2.18119e-15
8.56091e-15
7.47871e-15
2.56691e-14
1.42144e-15
1.17882e-14
2.54492e-16
1.57177e-15
2.15956e-16
4.62373e-16
2.15258e-16
3.1063e-16
2.00671e-16
2.18409e-16
1.54644e-16
1.30541e-16
8.48407e-17
5.47001e-17
2.5516e-17
1.21077e-17
2.77053e-18
9.04185e-19
6.78421e-20
1.21792e-20
2.57625e-22
-5.89756e-24
5.94488e-23
8.93196e-23
-2.13739e-21
3.02372e-22
-3.06112e-21
4.5822e-22
-2.91702e-21
4.73998e-22
-2.24409e-21
3.83472e-22
-1.48614e-21
2.58644e-22
-8.75557e-22
1.50805e-22
-4.68659e-22
7.7801e-23
-2.31555e-22
3.61085e-23
1.52737e-23
-1.07057e-22
3.82751e-16
6.89568e-16
2.14105e-15
2.66168e-15
1.0649e-15
2.45174e-15
2.55846e-16
8.77075e-16
1.95474e-16
3.6875e-16
1.81007e-16
2.33783e-16
1.44987e-16
1.39129e-16
8.29653e-17
6.04412e-17
2.66397e-17
1.45485e-17
3.31477e-18
1.32187e-18
1.05481e-19
2.94067e-20
6.75465e-22
1.08928e-22
1.85689e-22
5.96254e-25
-6.23928e-22
4.35933e-23
-1.1638e-21
1.06271e-22
-1.25325e-21
1.3656e-22
-1.03075e-21
1.24682e-22
-7.07962e-22
9.03519e-23
-4.23851e-22
5.49651e-23
-2.26815e-22
2.90126e-23
-1.10341e-22
1.3575e-23
-4.9426e-23
5.71593e-24
2.19071e-24
-2.06058e-23
3.40135e-17
7.71513e-17
1.85169e-16
1.43627e-16
2.64337e-16
2.01937e-16
1.70384e-16
2.22628e-16
1.41659e-16
1.88831e-16
1.13928e-16
1.16654e-16
6.53061e-17
5.05825e-17
2.09313e-17
1.20844e-17
2.71549e-18
1.1483e-18
9.96064e-20
3.07348e-20
8.59638e-22
1.92393e-22
2.5007e-22
2.82408e-25
-1.27307e-22
-2.44611e-24
-3.84416e-22
1.50275e-23
-4.82016e-22
3.15241e-23
-4.29745e-22
3.54098e-23
-3.08118e-22
2.86048e-23
-1.8803e-22
1.84555e-23
-1.00875e-22
1.00333e-23
-4.85628e-23
4.74472e-24
-2.12811e-23
1.99226e-24
-8.58144e-24
7.53424e-25
2.59343e-25
-3.21266e-24
8.2852e-18
2.46635e-17
3.13269e-17
4.29801e-17
5.39489e-17
4.92627e-17
6.96899e-17
5.68526e-17
6.76929e-17
5.09991e-17
3.86006e-17
2.53899e-17
1.17869e-17
6.0941e-18
1.49274e-18
5.76524e-19
5.87915e-20
1.69387e-20
6.44237e-22
1.49116e-22
2.22741e-24
4.25608e-25
1.3228e-24
1.92978e-25
-1.05222e-22
-3.45662e-24
-1.64893e-22
4.14581e-24
-1.63667e-22
7.99596e-24
-1.24193e-22
7.93689e-24
-7.77377e-23
5.65857e-24
-4.1884e-23
3.22514e-24
-1.99513e-23
1.55076e-24
-8.55327e-24
6.49443e-25
-3.34201e-24
2.41761e-25
-1.20163e-24
8.11105e-26
2.47727e-26
-4.00718e-25
2.56341e-18
5.64592e-18
1.07903e-17
1.47309e-17
1.56726e-17
1.34863e-17
1.76442e-17
9.81041e-18
1.20715e-17
5.00342e-18
3.95336e-18
1.30621e-18
5.07239e-19
1.35504e-19
2.15515e-20
4.70227e-21
3.15117e-22
5.99574e-23
2.04046e-24
3.63327e-25
1.09329e-24
2.92712e-25
-2.30965e-23
-3.5598e-24
-4.92009e-23
-2.26289e-24
-5.65026e-23
9.28131e-25
-4.6445e-23
1.73311e-24
-3.02239e-23
1.52727e-24
-1.64587e-23
9.56079e-25
-7.76711e-24
4.76826e-25
-3.25173e-24
2.00372e-25
-1.22732e-24
7.33262e-26
-4.22468e-25
2.38578e-26
-1.33796e-25
6.99644e-27
1.86721e-27
-3.92706e-26
3.53209e-19
2.6486e-19
2.10879e-18
1.39049e-18
2.46136e-18
1.01686e-18
1.54644e-18
4.31084e-19
5.3183e-19
9.8734e-20
7.97716e-20
1.11707e-20
4.41005e-21
5.48489e-22
9.89202e-23
1.28156e-23
1.1051e-24
1.59616e-25
5.83584e-25
2.26509e-25
-3.91233e-24
-1.0756e-24
-1.22641e-23
-2.03484e-24
-1.74634e-23
-1.05631e-24
-1.60146e-23
1.63292e-25
-1.10725e-23
3.19618e-25
-6.17584e-24
2.51101e-25
-2.90649e-24
1.37149e-25
-1.18969e-24
5.91817e-26
-4.3259e-25
2.14287e-26
-1.41835e-25
6.74433e-27
-4.23911e-26
1.88529e-27
-1.16461e-26
4.7453e-28
1.08563e-28
-2.96164e-27
1.04678e-20
1.28148e-21
1.13536e-19
1.49692e-20
9.46182e-20
9.8033e-21
3.19067e-20
2.83732e-21
5.18012e-21
3.83116e-22
4.34048e-22
2.98655e-23
1.87481e-23
1.48717e-24
3.89862e-25
3.92023e-26
2.01111e-25
1.01888e-25
-4.87917e-25
-1.93314e-25
-2.44013e-24
-7.04601e-25
-4.58069e-24
-8.3823e-25
-5.06461e-24
-3.97842e-25
-3.81315e-24
1.96803e-26
-2.22526e-24
4.98196e-26
-1.05832e-24
3.52344e-26
-4.26448e-25
1.66895e-26
-1.49599e-25
6.14943e-27
-4.6576e-26
1.88586e-27
-1.30506e-26
5.0063e-28
-3.32591e-27
1.17693e-28
-7.7739e-28
2.4844e-29
4.75314e-30
-1.67839e-28
5.6536e-23
1.12754e-24
1.04165e-21
2.05099e-23
7.88506e-22
1.64958e-23
2.00441e-22
5.9058e-24
2.57332e-23
1.03377e-24
2.01005e-24
1.03166e-25
7.93774e-26
5.27404e-27
4.22709e-26
2.61519e-26
-3.92395e-26
-2.02155e-26
-3.73626e-25
-1.54341e-25
-9.71831e-25
-3.02178e-25
-1.37167e-24
-2.84936e-25
-1.23676e-24
-1.27557e-25
-7.72325e-25
3.2074e-28
-3.79552e-25
6.47909e-27
-1.52598e-25
4.23294e-27
-5.2012e-26
1.73319e-27
-1.54063e-26
5.36955e-28
-4.03454e-27
1.36471e-28
-9.46227e-28
2.98126e-29
-2.00855e-28
5.73446e-30
-3.89363e-29
9.84604e-31
1.52332e-31
-6.94746e-30
1.47e-25
8.49997e-28
3.33943e-24
2.09484e-26
3.38433e-24
2.73129e-26
1.0213e-24
1.56622e-26
1.35765e-25
3.67822e-27
8.62548e-27
3.73576e-28
5.03061e-27
3.59662e-27
-2.64601e-27
-1.65436e-27
-4.41337e-26
-2.3552e-26
-1.61543e-25
-7.10788e-26
-3.03289e-25
-1.04168e-25
-3.45455e-25
-8.39825e-26
-2.60142e-25
-3.59622e-26
-1.35707e-25
-3.92958e-27
-5.57334e-26
6.71496e-28
-1.87061e-26
4.37113e-28
-5.30882e-27
1.55599e-28
-1.30259e-27
3.98111e-29
-2.80307e-28
8.14608e-30
-5.35197e-29
1.417e-30
-9.16737e-30
2.14821e-31
-1.42357e-30
2.87445e-32
3.42798e-33
-2.02322e-31
2.48489e-28
8.97119e-29
8.9444e-27
1.03896e-28
1.20229e-26
4.59049e-29
4.52553e-27
3.94015e-29
4.99244e-28
2.48768e-27
3.28587e-28