/*--------------------------------*- C++ -*----------------------------------*\
  =========                 |
  \\      /  F ield         | OpenFOAM: The Open Source CFD Toolbox
   \\    /   O peration     | Website:  https://openfoam.org
    \\  /    A nd           | Version:  9
     \\/     M anipulation  |
\*---------------------------------------------------------------------------*/
FoamFile
{
    format      ascii;
    class       volScalarField;
    location    "3";
    object      epsilon;
}
// * * * * * * * * * * * * * * * * * * * * * * * * * * * * * * * * * * * * * //

dimensions      [0 2 -3 0 0 0 0];

internalField   nonuniform List<scalar> 
2268
(
0.00361112
0.0201612
0.0358635
0.0494119
0.0609462
0.0705693
0.0784274
0.0847028
0.0895828
0.0932685
0.0959824
0.0979282
0.0992582
0.100051
0.100206
0.0993427
0.096313
0.0882692
0.0782123
0.0676545
0.0543589
0.0334898
0.00668581
0.00756959
0.0133757
0.019697
0.0253524
0.0302582
0.0344363
0.0379375
0.040828
0.0431784
0.0450624
0.0465529
0.047713
0.0485869
0.0491727
0.0493979
0.0491058
0.0479824
0.0457837
0.0425018
0.0378247
0.0313673
0.0225857
0.0134326
0.012813
0.014131
0.0181373
0.0220131
0.0254864
0.0285076
0.031089
0.0332668
0.0350865
0.0365963
0.0378414
0.0388573
0.0396627
0.0402417
0.0405342
0.0404351
0.0397805
0.0384733
0.036355
0.0332584
0.0290581
0.0238842
0.0231946
0.0178459
0.0159504
0.0187025
0.021707
0.0245067
0.0269904
0.029142
0.0309818
0.0325441
0.033868
0.034989
0.0359321
0.0367058
0.0372906
0.037635
0.0376571
0.0372473
0.0363231
0.0347774
0.0325669
0.0297753
0.0270089
0.0334246
0.0225505
0.0181094
0.019992
0.0224323
0.024806
0.0269479
0.0288203
0.0304337
0.031818
0.0330087
0.0340377
0.0349254
0.035675
0.036267
0.0366558
0.0367741
0.0365403
0.0358843
0.0347624
0.0332375
0.0316046
0.0310357
0.044395
0.0270056
0.0204046
0.0216336
0.0236707
0.0257393
0.0276282
0.0292846
0.0307155
0.0319507
0.0330263
0.0339734
0.03481
0.0355371
0.0361358
0.0365654
0.036769
0.0366833
0.0362604
0.0355091
0.0345892
0.0340387
0.0358659
0.0574638
0.0313114
0.0227634
0.0234877
0.0252311
0.0270705
0.0287542
0.0302237
0.0314884
0.0325834
0.0335483
0.034415
0.0352005
0.0359045
0.0365093
0.0369782
0.0372624
0.0373136
0.0371079
0.0366981
0.036329
0.0368117
0.0415046
0.0774893
0.0355523
0.0251594
0.0254988
0.0270368
0.0287016
0.0302066
0.0314988
0.0325985
0.033551
0.0344025
0.0351861
0.035918
0.0365976
0.0372082
0.0377163
0.0380795
0.0382625
0.038263
0.0381672
0.03828
0.0396273
0.047342
0.127413
0.00767167
0.0314797
0.049234
0.05915
0.0628657
0.0619107
0.0571829
0.0503309
0.045788
0.0466875
0.0471134
0.0437745
0.043536
0.0465254
0.0484684
0.0420244
0.0285048
0.0155598
0.00329087
0.0127111
0.0193399
0.0254372
0.0294402
0.0313106
0.0313678
0.0300645
0.0278101
0.0255697
0.0245206
0.0239401
0.0232185
0.0226158
0.022423
0.0220904
0.0197642
0.0153224
0.0103479
0.00538164
0.0213592
0.0211566
0.023595
0.0255363
0.0264567
0.0262911
0.0253099
0.0237275
0.0220466
0.0209556
0.0202048
0.0195572
0.0189194
0.0184026
0.0177539
0.0161686
0.0133676
0.0100144
0.00845408
0.031124
0.0248908
0.024624
0.0250927
0.0252672
0.0248062
0.0238326
0.0224757
0.0210715
0.0200425
0.0192525
0.0185853
0.0179259
0.0173255
0.0165947
0.0152606
0.0131852
0.0106168
0.0115923
0.0432679
0.0294893
0.0265208
0.0256906
0.0252184
0.0244769
0.0234471
0.0221985
0.0209599
0.0199929
0.0192116
0.0185346
0.017856
0.0172293
0.0164885
0.0152657
0.0136021
0.0116107
0.0146679
0.0606941
0.0348565
0.0287724
0.0267181
0.0256736
0.0246852
0.0235926
0.0224106
0.0212792
0.0203602
0.0196024
0.0189268
0.0182359
0.0175991
0.0168758
0.0157354
0.0142818
0.012786
0.0166568
0.0898796
0.0409068
0.0311214
0.0279374
0.0263933
0.0251955
0.0240545
0.0229246
0.0218653
0.0209787
0.0202428
0.0195726
0.018879
0.018236
0.0175338
0.0164958
0.0151545
0.0139282
0.0169842
0.144573
0.0465686
0.0332892
0.029222
0.0272654
0.025893
0.0247254
0.0236442
0.022634
0.0217667
0.0210433
0.0203798
0.0196919
0.0190371
0.0183508
0.0174376
0.0162417
0.0152233
0.0181165
0.0416374
0.0288859
0.0288232
0.0301672
0.0316278
0.0328737
0.0338867
0.0347165
0.0354345
0.0361007
0.0367488
0.0373936
0.0380344
0.0386562
0.039229
0.0397175
0.0401014
0.0404064
0.0407526
0.0414693
0.0434789
0.0498211
0.0734266
0.0508168
0.0346734
0.0343166
0.0356278
0.036884
0.0376792
0.0381809
0.038514
0.0388155
0.0391699
0.0395922
0.040089
0.0406651
0.0413037
0.041973
0.0426344
0.0432671
0.04391
0.0446884
0.0458354
0.047826
0.051744
0.059651
0.0633826
0.0427719
0.0418083
0.0431944
0.0440876
0.0439263
0.0435627
0.0431239
0.0428348
0.0427993
0.042939
0.0432369
0.0437306
0.0443946
0.0451859
0.0460435
0.0469145
0.0478288
0.0489337
0.0503545
0.0521486
0.0544821
0.0573574
0.0941717
0.0573256
0.0529929
0.0549198
0.0548059
0.0519138
0.050108
0.0484722
0.0473262
0.0468434
0.0466537
0.0466591
0.0470401
0.0477472
0.0487195
0.0498432
0.0509491
0.0520249
0.0533785
0.0551125
0.0568188
0.0583492
0.0594244
0.0994865
0.0662453
0.0644727
0.071731
0.0685523
0.0587058
0.0560331
0.0539675
0.051744
0.0507925
0.0503696
0.0500603
0.0501939
0.050915
0.0520976
0.0535174
0.0548642
0.0560185
0.0573535
0.0594382
0.0614745
0.0632853
0.0631435
0.0843616
0.0625993
0.0636012
0.0689382
0.0667846
0.061203
0.0598365
0.0588348
0.0558582
0.0536491
0.0527258
0.0523152
0.0524623
0.0532981
0.0546395
0.0561571
0.0575997
0.0586898
0.0600311
0.0622537
0.0652839
0.0670111
0.0663195
0.0835971
0.063417
0.0639543
0.072924
0.0703693
0.0637483
0.0615011
0.0595924
0.0569592
0.0552873
0.0543734
0.0539077
0.0541204
0.0550572
0.0564725
0.058023
0.0596863
0.0613281
0.0621429
0.0638818
0.0668851
0.0672229
0.0682671
0.0858764
0.0615
0.06171
0.0716449
0.071636
0.0644593
0.0618497
0.0598108
0.0572708
0.0559651
0.0553088
0.0549399
0.055072
0.0557985
0.0568837
0.0581933
0.0597452
0.061745
0.0630964
0.0637432
0.0655989
0.0671002
0.0695652
0.0917643
0.0584929
0.0568771
0.0611496
0.0625619
0.0604857
0.0595033
0.0582627
0.0566763
0.0557195
0.0552164
0.0549555
0.0550736
0.0556001
0.0562948
0.0571432
0.0581852
0.0596316
0.0612283
0.0624237
0.064127
0.0659722
0.0676181
0.102969
0.0604044
0.0545431
0.054876
0.0558013
0.0560316
0.0560918
0.0557604
0.0551066
0.0545781
0.0542373
0.0541038
0.0542719
0.0546432
0.0550489
0.0555425
0.0561566
0.0570145
0.0581445
0.0594016
0.0611569
0.0628932
0.0633622
0.114824
0.0618356
0.0537589
0.0523096
0.0523499
0.0525396
0.0527785
0.0528504
0.0527028
0.0525215
0.0524009
0.0524137
0.0525974
0.0528462
0.0530627
0.0533045
0.0536246
0.0541527
0.0549457
0.0559159
0.0572115
0.0584433
0.0584075
0.127297
0.0636944
0.0532742
0.0505233
0.0497399
0.0495405
0.0496045
0.0497149
0.0497577
0.0497666
0.0497907
0.0498746
0.0500207
0.0501585
0.0502445
0.0503286
0.0504869
0.0508262
0.0513925
0.0521066
0.0529492
0.0536253
0.0533155
0.134887
0.0646918
0.0526504
0.0488821
0.047427
0.0468197
0.046616
0.0465985
0.0466315
0.0466751
0.0467281
0.0467977
0.0468733
0.0469183
0.0469245
0.0469381
0.0470277
0.0472633
0.0476655
0.048177
0.0486946
0.0489505
0.0484564
0.136878
0.0644109
0.0516004
0.0471895
0.0452524
0.0443044
0.043855
0.0436648
0.0435957
0.0435781
0.0435802
0.0435871
0.0435869
0.0435657
0.0435331
0.0435283
0.0436007
0.0437871
0.0440843
0.0444301
0.0446989
0.0446775
0.0440826
0.13417
0.0628249
0.0499914
0.045317
0.0431148
0.0419553
0.0413244
0.0409822
0.0407941
0.0406829
0.0406058
0.0405407
0.0404782
0.0404167
0.0403709
0.0403694
0.0404404
0.0405948
0.0408098
0.041018
0.0411041
0.040917
0.0402956
0.128026
0.0600696
0.0478191
0.043224
0.0409691
0.03972
0.0389874
0.038543
0.0382607
0.0380668
0.0379188
0.0377959
0.0376916
0.037609
0.0375612
0.037565
0.0376308
0.0377516
0.0378935
0.0379919
0.0379546
0.0376801
0.037088
0.120911
0.0567801
0.0453037
0.040962
0.0387889
0.0375494
0.0367898
0.036299
0.0359633
0.0357171
0.0355234
0.0353656
0.0352392
0.0351484
0.0351015
0.0351056
0.0351585
0.0352432
0.0353228
0.0353418
0.0352319
0.0349285
0.0343924
0.112687
0.0531596
0.0425742
0.0385803
0.0365723
0.0354119
0.0346828
0.034194
0.0338449
0.0335796
0.0333681
0.0331982
0.0330665
0.0329764
0.0329317
0.0329325
0.0329697
0.0330221
0.0330556
0.0330256
0.0328837
0.0325898
0.0321233
0.103641
0.0493438
0.0397315
0.0361342
0.0343363
0.0332963
0.0326357
0.0321835
0.0318523
0.0315956
0.03139
0.0312266
0.031103
0.0310212
0.0309819
0.0309809
0.0310061
0.0310366
0.0310432
0.0309916
0.0308482
0.0305876
0.030199
0.0941698
0.0454511
0.0368578
0.0336781
0.0321093
0.0312091
0.0306372
0.0302424
0.0299496
0.0297209
0.0295382
0.0293955
0.0292908
0.0292249
0.0291965
0.0291996
0.0292218
0.0292442
0.0292431
0.0291927
0.0290693
0.0288563
0.0285472
0.0845795
0.0415712
0.0340172
0.0312595
0.0299226
0.0291669
0.028691
0.0283632
0.0281203
0.0279313
0.0277829
0.027671
0.0275938
0.0275514
0.0275415
0.0275575
0.027588
0.0276169
0.0276253
0.0275937
0.0275051
0.0273476
0.0271165
0.0750448
0.0377602
0.0312548
0.0289156
0.0278049
0.0271899
0.0268094
0.0265513
0.0263632
0.0262206
0.0261136
0.0260398
0.0259974
0.025986
0.0260029
0.0260416
0.026092
0.0261409
0.0261732
0.0261737
0.0261296
0.0260316
0.0258755
0.0656207
0.0340614
0.0286054
0.026675
0.0257797
0.0252976
0.0250083
0.024819
0.0246876
0.024595
0.0245341
0.0245038
0.0245027
0.0245297
0.0245816
0.0246526
0.024734
0.0248145
0.024882
0.0249243
0.0249311
0.0248945
0.0248101
0.0565738
0.0305801
0.0261089
0.0245613
0.0238658
0.0235068
0.0233036
0.0231814
0.0231074
0.0230674
0.0230566
0.0230746
0.0231206
0.0231927
0.0232877
0.0234
0.0235219
0.0236439
0.0237558
0.0238472
0.0239092
0.0239347
0.023919
0.0487886
0.0274772
0.0238148
0.0225955
0.0220776
0.0218314
0.0217097
0.0216536
0.0216382
0.0216536
0.0216967
0.0217675
0.0218665
0.0219902
0.0221355
0.0222973
0.0224685
0.0226405
0.0228042
0.0229505
0.0230712
0.0231594
0.02321
0.0419976
0.024616
0.0216959
0.0207764
0.0204215
0.0202813
0.0202387
0.0202492
0.0202947
0.0203689
0.0204702
0.020599
0.020756
0.0209376
0.0211405
0.0213595
0.0215878
0.0218176
0.02204
0.0222466
0.0224292
0.0225811
0.0226966
0.036253
0.0220188
0.019754
0.0191068
0.0189032
0.0188643
0.0189005
0.0189793
0.019089
0.0192262
0.0193904
0.0195825
0.0198032
0.0200491
0.0203167
0.0206007
0.0208944
0.0211896
0.0214779
0.0217505
0.021999
0.0222165
0.0223968
0.0316147
0.019736
0.0180091
0.0175977
0.0175313
0.0175891
0.0177039
0.0178534
0.0180309
0.0182352
0.0184672
0.0187281
0.0190186
0.0193359
0.0196762
0.0200339
0.0204018
0.0207716
0.0211341
0.0214797
0.0217997
0.0220862
0.0223327
0.0280427
0.0178058
0.016482
0.0162613
0.0163149
0.0164635
0.0166562
0.0168783
0.0171268
0.0174024
0.0177071
0.0180425
0.0184096
0.0188064
0.0192287
0.0196706
0.0201242
0.0205798
0.021027
0.0214552
0.0218542
0.0222154
0.0225316
0.025404
0.0162343
0.0151842
0.0151068
0.0152614
0.0154934
0.0157622
0.0160578
0.0163797
0.0167303
0.0171125
0.0175288
0.0179807
0.018467
0.0189834
0.0195232
0.0200769
0.0206333
0.0211796
0.021703
0.0221917
0.0226356
0.0230269
0.0235317
0.0150044
0.0141186
0.0141407
0.0143764
0.014683
0.0150243
0.0153927
0.0157893
0.0162178
0.0166826
0.0171872
0.0177341
0.0183231
0.0189497
0.0196058
0.0202799
0.0209574
0.0216221
0.022258
0.0228506
0.023388
0.0238617
0.0222737
0.0140906
0.0132837
0.0133666
0.0136637
0.0140342
0.0144423
0.0148808
0.0153519
0.0158609
0.0164137
0.0170159
0.0176712
0.0183805
0.0191393
0.0199375
0.0207598
0.0215867
0.0223963
0.0231677
0.0238825
0.0245271
0.0250924
0.0215047
0.0134643
0.0126741
0.0127858
0.013125
0.013547
0.0140137
0.0145174
0.0150614
0.0156527
0.0162998
0.0170111
0.0177926
0.0186465
0.0195683
0.0205448
0.0215548
0.0225704
0.023561
0.0244981
0.0253585
0.0261263
0.026793
0.0211168
0.0130946
0.0122813
0.0123981
0.012762
0.0132213
0.0137354
0.0142966
0.0149095
0.0155843
0.0163331
0.0171682
0.0180994
0.0191313
0.0202592
0.0214654
0.022719
0.0239786
0.0251995
0.0263415
0.0273753
0.0282838
0.0290609
0.02101
0.0129516
0.0121042
0.0122136
0.0125849
0.0130629
0.0136073
0.0142128
0.0148874
0.0156452
0.0165036
0.0174807
0.0185923
0.0198472
0.0212415
0.0227508
0.0243286
0.025911
0.027429
0.0288255
0.0300641
0.0311294
0.032022
0.0211058
0.0130419
0.0121942
0.0122904
0.012639
0.0130987
0.0136402
0.0142652
0.0149865
0.015823
0.0167982
0.0179387
0.0192695
0.0208072
0.0225511
0.0244684
0.0264883
0.0285074
0.0304144
0.032126
0.0336009
0.0348328
0.0358372
0.0214445
0.0135765
0.0128137
0.0128387
0.0130598
0.0134023
0.0138659
0.0144604
0.0151992
0.0161024
0.017199
0.0185255
0.0201213
0.0220179
0.0242241
0.0267004
0.0293388
0.031965
0.0343869
0.0364833
0.0382179
0.0396108
0.0407074
0.0226817
0.0157216
0.0149342
0.0144645
0.0141699
0.0141252
0.014344
0.0148116
0.0155159
0.0164625
0.0176785
0.0192111
0.0211209
0.0234672
0.0262826
0.0295335
0.0330623
0.0365641
0.039674
0.042223
0.0442149
0.0457333
0.0468774
0.0292558
0.0246167
0.0216159
0.0186282
0.016581
0.0154952
0.0151431
0.0153243
0.0159169
0.016871
0.0181952
0.0199447
0.0222099
0.0250983
0.0287008
0.0330273
0.0378807
0.0427205
0.0467491
0.0497821
0.0519682
0.0535248
0.0546364
0.0744294
0.0570915
0.0400103
0.0279087
0.021071
0.0176896
0.0162676
0.0159615
0.016357
0.0172784
0.0186898
0.0206484
0.0232833
0.0267785
0.031343
0.0371312
0.0440269
0.051116
0.0563193
0.0597339
0.0619271
0.0633574
0.0643161
0.298947
0.135204
0.0756289
0.0434637
0.0275664
0.0204479
0.0175195
0.0165979
0.0167531
0.0176165
0.0190869
0.0212177
0.0241802
0.0282584
0.0338567
0.0414902
0.0517222
0.063106
0.0694679
0.0727791
0.0745797
0.0756306
0.0762872
1.57129
0.207579
0.110421
0.0580666
0.0331867
0.0226048
0.0184118
0.0170167
0.0169952
0.0178112
0.0193098
0.0215396
0.0247025
0.0291678
0.0355565
0.0451209
0.0634481
0.0821869
0.0877367
0.0895909
0.0903559
0.0907403
0.0909631
0.187511
0.144729
0.13449
0.155402
0.0689021
0.0690858
0.0678967
0.0661849
0.0589452
0.059093
0.0584499
0.0571093
0.059633
0.0593447
0.0585672
0.0574098
0.063108
0.0625724
0.0614464
0.0598036
0.0652411
0.0641398
0.062673
0.0608295
0.0680348
0.0673882
0.0652608
0.0621439
0.0696501
0.0683162
0.0653339
0.0618691
0.0661284
0.0643174
0.0620481
0.0595291
0.0617059
0.0602302
0.0584621
0.0564613
0.0570083
0.0557976
0.0543235
0.0526297
0.0520986
0.0510668
0.0498167
0.0483891
0.0473684
0.0464819
0.0454316
0.0442505
0.043115
0.0423602
0.0414897
0.0405279
0.039454
0.038821
0.0381084
0.037333
0.0363743
0.0358516
0.0352736
0.034652
0.0338009
0.0333753
0.0329103
0.032414
0.0316403
0.0312984
0.0309279
0.0305339
0.029811
0.0295384
0.0292447
0.0289337
0.028244
0.0280311
0.0278015
0.0275576
0.0268886
0.0267276
0.0265527
0.0263654
0.025715
0.0255996
0.025472
0.0253333
0.0247104
0.0246354
0.0245494
0.0244529
0.0238747
0.0238361
0.0237872
0.0237281
0.0232169
0.0232116
0.0231962
0.0231707
0.0227518
0.0227777
0.0227933
0.0227986
0.0224987
0.0225545
0.0225995
0.0226337
0.0224812
0.0225663
0.02264
0.0227019
0.0227273
0.0228422
0.0229443
0.0230336
0.0232721
0.0234176
0.0235488
0.0236654
0.0241596
0.0243372
0.0244983
0.0246427
0.0254468
0.0256582
0.0258501
0.0260228
0.0272076
0.0274541
0.0276776
0.0278784
0.0295376
0.0298196
0.030074
0.0303018
0.0325595
0.0328748
0.0331573
0.0334089
0.0364279
0.0367705
0.0370748
0.0373435
0.0413338
0.0416922
0.0420069
0.0422822
0.0475084
0.0478638
0.0481719
0.0484384
0.0552254
0.0555512
0.0558298
0.0560679
0.0648026
0.0650666
0.0652893
0.0654773
0.0766065
0.0767768
0.0769186
0.0770372
0.0910675
0.0911225
0.0911679
0.0912056
0.0762435
0.0465995
0.0357649
0.0311766
0.0287626
0.0271764
0.0259869
0.0249796
0.0240352
0.0231867
0.0224666
0.0218188
0.0211483
0.0204628
0.019778
0.0190225
0.0181053
0.0176061
0.0219184
0.0570276
0.0457363
0.0381984
0.0337306
0.0310134
0.0292026
0.0279266
0.0269791
0.0261494
0.0253651
0.0246877
0.024097
0.0234538
0.0226985
0.0218973
0.0211545
0.020444
0.0204751
0.0294248
0.0535286
0.0467908
0.040661
0.0362795
0.0333502
0.0313254
0.0299154
0.028987
0.0282836
0.0276195
0.0271038
0.0266878
0.026098
0.0252066
0.024094
0.0230154
0.0222796
0.0231311
0.0402521
0.0549231
0.0493485
0.0433771
0.0387885
0.0356501
0.0334315
0.0318635
0.0309639
0.0303989
0.0298395
0.0296441
0.0296399
0.0291679
0.0280624
0.0264633
0.0248493
0.0239622
0.0247849
0.0445952
0.0569322
0.052114
0.045933
0.0409956
0.0377349
0.0353064
0.0335127
0.0324736
0.0318409
0.0314745
0.0317348
0.0316646
0.0309997
0.0298488
0.0282035
0.0262114
0.0248255
0.0248551
0.0400353
0.0571137
0.0523278
0.0470564
0.042518
0.0392207
0.0366805
0.0348649
0.0339622
0.0333549
0.0325429
0.0320058
0.0311659
0.0297962
0.0282934
0.0268909
0.0256117
0.0247699
0.0242367
0.0314998
0.0576551
0.0526703
0.0478123
0.0434353
0.0400711
0.0374515
0.0355234
0.0343602
0.0333877
0.0320003
0.0307468
0.0295567
0.0278286
0.0259467
0.0243993
0.0233299
0.0228174
0.0222614
0.0257808
0.0569279
0.0520525
0.0476932
0.0436329
0.0403581
0.0375949
0.0353238
0.0337117
0.0323544
0.030768
0.029166
0.0277529
0.0259901
0.0241496
0.022796
0.0220449
0.0216046
0.0214111
0.0272293
0.055151
0.0503958
0.0464457
0.0426711
0.0392943
0.036422
0.0340752
0.0322321
0.0306711
0.0291402
0.0275961
0.0261259
0.0244885
0.0228381
0.0215399
0.0206708
0.0199951
0.0199716
0.0296039
0.052812
0.0481879
0.0442721
0.0406376
0.0373782
0.0346676
0.0324585
0.0306603
0.0291299
0.0277036
0.0262964
0.024897
0.0233976
0.0218381
0.020395
0.0191667
0.0182236
0.0182131
0.0275989
0.0495823
0.0453769
0.0416362
0.0382822
0.0353713
0.0329477
0.0309517
0.0292965
0.0278692
0.0265487
0.0252547
0.0239436
0.0225467
0.0210647
0.0195542
0.0180951
0.0169354
0.0168148
0.0241728
0.0458728
0.0422623
0.0389512
0.0360199
0.0335059
0.0313941
0.0296229
0.0281221
0.0268045
0.0255764
0.0243617
0.0231063
0.0217835
0.0203852
0.0189002
0.0173904
0.0161444
0.0159946
0.0223674
0.0422086
0.0392263
0.0364386
0.033964
0.0318312
0.03001
0.0284459
0.0270861
0.0258651
0.024708
0.0235435
0.0223265
0.021057
0.0197341
0.0183505
0.0169749
0.0159016
0.0160797
0.0231518
0.0388904
0.0364828
0.0341989
0.0321466
0.0303495
0.0287807
0.0273976
0.0261601
0.0250189
0.0239146
0.0227908
0.021618
0.0204078
0.0191788
0.0179602
0.0168464
0.0161719
0.0170791
0.0262094
0.036027
0.0341032
0.0322534
0.0305615
0.0290468
0.0276903
0.0264612
0.0253285
0.0242556
0.0231993
0.022122
0.0210099
0.0198818
0.0187743
0.017751
0.0169469
0.0167658
0.0185951
0.0305789
0.0336113
0.0320771
0.0305814
0.0291846
0.0279022
0.0267222
0.0256232
0.0245823
0.0235734
0.0225689
0.0215483
0.0205111
0.0194829
0.018513
0.0176881
0.0171842
0.0174798
0.0202419
0.0354
0.0315842
0.0303579
0.0291444
0.0279855
0.0268931
0.0258603
0.024873
0.0239153
0.0229707
0.0220241
0.021069
0.0201151
0.0191945
0.0183651
0.0177292
0.01749
0.0181864
0.0217335
0.0402149
0.0298726
0.0288896
0.0279006
0.0269337
0.025998
0.0250901
0.0242012
0.0233219
0.0224434
0.0215606
0.0206769
0.0198101
0.018998
0.0183053
0.017847
0.0178433
0.0188717
0.023012
0.0450209
0.0284091
0.027621
0.0268126
0.026003
0.0251991
0.0243998
0.0236005
0.0227968
0.0219862
0.0211709
0.0203616
0.019582
0.0188746
0.0183124
0.0180136
0.0182148
0.0195294
0.0242016
0.0492432
0.0271423
0.0265125
0.0258528
0.0251749
0.0244844
0.0237818
0.0230659
0.0223359
0.0215942
0.020848
0.0201131
0.0194174
0.0188095
0.0183623
0.0181981
0.0185644
0.0200908
0.0250855
0.0517733
0.0260419
0.025541
0.0250047
0.0244397
0.023849
0.0232344
0.0225968
0.0219385
0.0212653
0.0205879
0.019925
0.01931
0.0187902
0.0184385
0.0183804
0.0188675
0.0205294
0.0256616
0.0526183
0.0250885
0.0246974
0.0242654
0.0237973
0.0232958
0.0227618
0.0221981
0.021609
0.0210024
0.0203915
0.0197992
0.0192568
0.0188116
0.0185363
0.0185566
0.0191229
0.0208576
0.0260253
0.05272
0.0242771
0.0239815
0.0236408
0.023258
0.0228353
0.0223752
0.0218806
0.0213569
0.0208145
0.0202681
0.0197397
0.0192607
0.0188773
0.0186616
0.0187374
0.019352
0.0211242
0.0263353
0.0534094
0.0236135
0.0234024
0.0231425
0.022836
0.0224847
0.0220913
0.0216604
0.0211986
0.0207162
0.0202281
0.019756
0.0193308
0.0189978
0.0188275
0.0189419
0.0195865
0.0213862
0.0266942
0.0547931
0.0231115
0.0229758
0.0227882
0.02255
0.0222634
0.0219314
0.0215589
0.021153
0.0207239
0.0202867
0.0198626
0.0194817
0.0191882
0.0190515
0.019192
0.0198561
0.0216813
0.0271118
0.0564032
0.0227901
0.0227227
0.0226002
0.0224236
0.0221952
0.0219182
0.0215977
0.0212409
0.0208581
0.0204639
0.020079
0.0197328
0.0194685
0.0193546
0.0195112
0.0201867
0.0220323
0.0275751
0.0580669
0.0226726
0.0226678
0.0226042
0.0224829
0.0223062
0.0220777
0.0218025
0.0214877
0.0211435
0.0207841
0.0204295
0.0201084
0.0198632
0.0197619
0.0199252
0.0206043
0.022462
0.0280904
0.0596841
0.0227859
0.0228392
0.0228291
0.0227573
0.0226263
0.0224398
0.0222031
0.0219233
0.0216101
0.0212772
0.0209439
0.0206381
0.0204018
0.0203029
0.0204632
0.0211373
0.0229958
0.028665
0.0609269
0.0231615
0.0232692
0.0233082
0.0232807
0.0231896
0.0230391
0.0228345
0.0225827
0.0222932
0.0219788
0.021658
0.021358
0.0211203
0.021013
0.0211592
0.0218166
0.0236592
0.0293019
0.0614448
0.0238366
0.0239962
0.0240806
0.0240927
0.0240364
0.0239163
0.0237378
0.0235078
0.0232351
0.0229318
0.0226155
0.0223123
0.022063
0.0219359
0.0220553
0.0226816
0.0244917
0.0300796
0.0618466
0.0248571
0.0250666
0.025193
0.0252406
0.0252144
0.0251197
0.0249622
0.0247485
0.0244869
0.0241886
0.0238698
0.0235555
0.0232853
0.0231274
0.0232073
0.0237895
0.0255628
0.0311675
0.0634408
0.0262803
0.0265377
0.0267027
0.0267818
0.0267814
0.0267078
0.026567
0.0263654
0.0261107
0.0258129
0.0254868
0.0251554
0.0248572
0.0246597
0.0246904
0.0252215
0.0269698
0.0327202
0.0667384
0.0281781
0.0284803
0.0286801
0.0287865
0.028808
0.0287517
0.0286244
0.0284324
0.0281824
0.0278831
0.0275473
0.0271961
0.0268662
0.0266247
0.0266026
0.0270842
0.0288299
0.0348386
0.071434
0.0306409
0.0309829
0.0312122
0.0313411
0.0313803
0.0313385
0.0312228
0.0310393
0.0307942
0.0304944
0.0301505
0.029781
0.0294204
0.0291359
0.0290651
0.0295105
0.0312858
0.0376368
0.0773598
0.0337814
0.0341549
0.0344063
0.0345518
0.0346045
0.0345745
0.0344696
0.0342959
0.0340584
0.0337625
0.0334161
0.0330345
0.032649
0.0323273
0.0322174
0.0326392
0.0344882
0.0413248
0.0848544
0.0377388
0.0381312
0.0383946
0.0385492
0.0386106
0.0385903
0.0384966
0.0383354
0.038111
0.0378268
0.0374878
0.0371046
0.036704
0.0363525
0.0362045
0.0366184
0.0385936
0.0460623
0.0942079
0.0426837
0.043077
0.0433392
0.043494
0.0435588
0.0435462
0.0434648
0.0433205
0.0431166
0.0428549
0.0425366
0.0421663
0.0417618
0.0413823
0.0411903
0.0416014
0.0437803
0.0521701
0.106615
0.0488231
0.0491944
0.0494396
0.0495843
0.0496469
0.0496401
0.0495725
0.0494499
0.0492751
0.0490483
0.0487667
0.0484263
0.0480288
0.0476115
0.0473354
0.047694
0.0501499
0.0598656
0.122744
0.0564079
0.0567311
0.056942
0.0570661
0.0571207
0.0571177
0.0570654
0.056969
0.0568314
0.0566517
0.0564236
0.0561326
0.0557546
0.0552756
0.0548019
0.0548941
0.057623
0.069173
0.143116
0.0657431
0.065992
0.0661527
0.0662465
0.066288
0.0662871
0.0662507
0.0661837
0.0660889
0.0659658
0.0658065
0.0655876
0.0652528
0.0646948
0.0638054
0.0629937
0.0657681
0.0796697
0.16729
0.0772035
0.0773574
0.0774556
0.0775125
0.0775375
0.0775373
0.0775169
0.07748
0.0774295
0.0773661
0.0772846
0.0771615
0.0769206
0.0763365
0.0748103
0.0713726
0.0735474
0.0901315
0.193622
0.0912582
0.0913066
0.0913372
0.091355
0.0913631
0.0913639
0.0913594
0.0913512
0.0913413
0.0913314
0.0913213
0.0913033
0.0912334
0.0908959
0.089149
0.0783341
0.0789501
0.0981946
0.217379
)
;

boundaryField
{
    leftWall
    {
        type            epsilonWallFunction;
        value           nonuniform List<scalar> 
50
(
0.00361112
0.00756959
0.012813
0.0178459
0.0225505
0.0270056
0.0313114
0.0355523
0.0416374
0.0508168
0.0633826
0.0941717
0.0994865
0.0843616
0.0835971
0.0858764
0.0917643
0.102969
0.114824
0.127297
0.134887
0.136878
0.13417
0.128026
0.120911
0.112687
0.103641
0.0941698
0.0845795
0.0750448
0.0656207
0.0565738
0.0487886
0.0419976
0.036253
0.0316147
0.0280427
0.025404
0.0235317
0.0222737
0.0215047
0.0211168
0.02101
0.0211058
0.0214445
0.0226817
0.0292558
0.0744294
0.298947
1.57129
)
;
    }
    rightWall
    {
        type            epsilonWallFunction;
        value           nonuniform List<scalar> 
50
(
0.00329087
0.00538164
0.00845408
0.0115923
0.0146679
0.0166568
0.0169842
0.0181165
0.0219184
0.0294248
0.0402521
0.0445952
0.0400353
0.0314998
0.0257808
0.0272293
0.0296039
0.0275989
0.0241728
0.0223674
0.0231518
0.0262094
0.0305789
0.0354
0.0402149
0.0450209
0.0492432
0.0517733
0.0526183
0.05272
0.0534094
0.0547931
0.0564032
0.0580669
0.0596841
0.0609269
0.0614448
0.0618466
0.0634408
0.0667384
0.071434
0.0773598
0.0848544
0.0942079
0.106615
0.122744
0.143116
0.16729
0.193622
0.217379
)
;
    }
    lowerWall
    {
        type            epsilonWallFunction;
        value           nonuniform List<scalar> 
62
(
0.00361112
0.0201612
0.0358635
0.0494119
0.0609462
0.0705693
0.0784274
0.0847028
0.0895828
0.0932685
0.0959824
0.0979282
0.0992582
0.100051
0.100206
0.0993427
0.096313
0.0882692
0.0782123
0.0676545
0.0543589
0.0334898
0.00668581
0.00668581
0.0134326
0.0231946
0.0334246
0.044395
0.0574638
0.0774893
0.127413
0.187511
0.144729
0.13449
0.155402
0.00767167
0.0127111
0.0213592
0.031124
0.0432679
0.0606941
0.0898796
0.144573
0.00767167
0.0314797
0.049234
0.05915
0.0628657
0.0619107
0.0571829
0.0503309
0.045788
0.0466875
0.0471134
0.0437745
0.043536
0.0465254
0.0484684
0.0420244
0.0285048
0.0155598
0.00329087
)
;
    }
    atmosphere
    {
        type            inletOutlet;
        inletValue      uniform 0.1;
        value           nonuniform List<scalar> 
46
(
0.1
0.1
0.110421
0.0580666
0.0331867
0.0226048
0.0184118
0.0170167
0.0169952
0.0178112
0.0193098
0.0215396
0.0247025
0.0291678
0.0355565
0.0451209
0.1
0.1
0.1
0.1
0.1
0.1
0.1
0.1
0.1
0.1
0.1
0.1
0.1
0.1
0.1
0.1
0.1
0.1
0.1
0.1
0.1
0.1
0.1
0.1
0.1
0.1
0.0783341
0.0789501
0.0981946
0.217379
)
;
    }
    defaultFaces
    {
        type            empty;
    }
}


// ************************************************************************* //
