/*--------------------------------*- C++ -*----------------------------------*\
  =========                 |
  \\      /  F ield         | OpenFOAM: The Open Source CFD Toolbox
   \\    /   O peration     | Website:  https://openfoam.org
    \\  /    A nd           | Version:  9
     \\/     M anipulation  |
\*---------------------------------------------------------------------------*/
FoamFile
{
    format      ascii;
    class       volScalarField;
    location    "3";
    object      k;
}
// * * * * * * * * * * * * * * * * * * * * * * * * * * * * * * * * * * * * * //

dimensions      [0 2 -2 0 0 0 0];

internalField   nonuniform List<scalar> 
2268
(
0.00110295
0.0028287
0.00415268
0.00514178
0.00591406
0.00652144
0.0069971
0.0073656
0.00764587
0.00785416
0.00800579
0.00811366
0.00818697
0.00823047
0.00823898
0.00819166
0.00802438
0.00757
0.00698241
0.00633854
0.00547858
0.00396775
0.00135273
0.00242631
0.0065136
0.00920272
0.011256
0.0128752
0.0141605
0.0151767
0.0159732
0.0165897
0.0170599
0.0174138
0.0176747
0.0178564
0.017961
0.0179716
0.0178425
0.0174705
0.0166379
0.0154998
0.014222
0.0124361
0.00934873
0.0035558
0.00344497
0.00861716
0.0118962
0.014417
0.0164234
0.0180272
0.0193029
0.020309
0.0210937
0.0216988
0.0221602
0.0225051
0.0227484
0.0228899
0.0229077
0.022749
0.0223134
0.0214332
0.0201834
0.0185995
0.0163325
0.0125597
0.0051201
0.00429634
0.0102897
0.0139632
0.0167839
0.0190404
0.0208516
0.022297
0.0234405
0.0243365
0.025032
0.025567
0.025971
0.0262593
0.0264302
0.0264595
0.0262936
0.025841
0.0249684
0.0236892
0.0219639
0.0194453
0.0152604
0.00653396
0.00502153
0.0117582
0.0157653
0.0188243
0.0212737
0.0232417
0.0248125
0.0260559
0.0270319
0.0277925
0.0283813
0.0288296
0.029153
0.0293493
0.0293939
0.0292346
0.0287882
0.0279485
0.0266851
0.0249143
0.0222827
0.0178354
0.00789628
0.00566273
0.0130991
0.0174222
0.0206967
0.0233124
0.0254086
0.027077
0.0283947
0.0294284
0.0302358
0.0308638
0.0313456
0.0316971
0.0319165
0.0319796
0.0318375
0.0314153
0.0306248
0.0294119
0.0276671
0.0250382
0.0204887
0.00937954
0.00624953
0.0143527
0.0189911
0.0224766
0.0252466
0.0274527
0.0291979
0.0305693
0.0316425
0.0324814
0.0331368
0.0336432
0.0340176
0.0342587
0.0343438
0.0342274
0.0338434
0.0331163
0.031982
0.0303232
0.0278122
0.0234047
0.0114499
0.00680128
0.0155462
0.0205075
0.0242095
0.0271298
0.0294324
0.0312362
0.0326425
0.0337384
0.0345953
0.0352675
0.0357914
0.0361844
0.0364467
0.0365571
0.0364737
0.0361393
0.0354877
0.034455
0.0329315
0.0306456
0.0267465
0.0159539
0.00148816
0.00381022
0.00513323
0.00580137
0.00604197
0.00598015
0.00567293
0.00521206
0.00489419
0.00495675
0.00498632
0.00474663
0.00472702
0.00494112
0.00507914
0.00461843
0.00356572
0.00238228
0.00106087
0.00368148
0.00834161
0.0110321
0.0124451
0.0130089
0.0129171
0.0123244
0.0115205
0.0110307
0.0111201
0.0110775
0.0106119
0.0104552
0.0105363
0.0103488
0.0094026
0.00754685
0.0051516
0.00207668
0.0052029
0.0112507
0.0144222
0.0160342
0.0166689
0.0165693
0.0159444
0.0151248
0.0145826
0.0144961
0.0143237
0.0138564
0.0135436
0.0133431
0.0128571
0.0116727
0.0095735
0.00676972
0.00280605
0.00668788
0.0139031
0.0172086
0.0188026
0.0194033
0.0192712
0.0186392
0.0178412
0.0172721
0.0170462
0.0167693
0.0162803
0.0158282
0.0153941
0.0146619
0.0132707
0.0110485
0.00797418
0.00346319
0.00833259
0.0165568
0.0197858
0.021238
0.0217455
0.0215659
0.0209301
0.0201568
0.0195656
0.0192293
0.0188672
0.0183385
0.0177604
0.0171354
0.0162024
0.0146113
0.0122581
0.00896953
0.00405134
0.0104455
0.0193082
0.0222764
0.0234997
0.0238755
0.0236404
0.0230023
0.0222517
0.0216378
0.0212091
0.0207712
0.0201899
0.0194985
0.0187143
0.0176152
0.0158441
0.0133125
0.00982237
0.00441072
0.0135735
0.0222241
0.0247304
0.0256562
0.0258726
0.0255767
0.02494
0.0242106
0.0235721
0.0230612
0.0225493
0.0219052
0.0211128
0.0201941
0.0189527
0.0170454
0.0142901
0.0105292
0.00446777
0.018623
0.0253458
0.0271603
0.0277397
0.0277772
0.0274142
0.0267843
0.0260761
0.0254102
0.024823
0.0242342
0.0235202
0.0226373
0.0215949
0.0202341
0.0182419
0.0153001
0.0111183
0.00465869
0.00755844
0.0173251
0.0228149
0.0268708
0.0300255
0.0324597
0.0343281
0.0357608
0.0368686
0.0377365
0.0384231
0.0389666
0.0393869
0.0396858
0.039845
0.039827
0.039584
0.0390662
0.0382196
0.0369612
0.0351276
0.0323583
0.0274773
0.00863374
0.019858
0.026093
0.0306817
0.0341575
0.0366865
0.0385356
0.0398983
0.0409375
0.041761
0.0424227
0.0429613
0.0434041
0.0437551
0.0439964
0.0440916
0.0439962
0.0436778
0.043113
0.0422576
0.041036
0.0393765
0.037259
0.0100135
0.0229485
0.0298685
0.0350884
0.0388796
0.0412809
0.0429261
0.0440614
0.0449253
0.0456498
0.0462446
0.0467418
0.0471952
0.0476075
0.0479575
0.048199
0.0482763
0.0481642
0.0478865
0.0474293
0.0467131
0.0457249
0.0445553
0.0130676
0.0272525
0.0344986
0.040743
0.0448508
0.0464021
0.0475868
0.0482804
0.0488278
0.0494207
0.04992
0.0503207
0.0507696
0.0512597
0.0517634
0.0522066
0.052472
0.0525252
0.0525104
0.0524532
0.0521259
0.0515228
0.0506942
0.0135296
0.029743
0.0387771
0.0477396
0.0516501
0.0506216
0.051637
0.0522756
0.0523843
0.0528341
0.0532984
0.0535959
0.0539649
0.0545221
0.0552084
0.0558847
0.056352
0.0565271
0.0566237
0.0569375
0.0570472
0.0569789
0.0560757
0.0121145
0.0279627
0.0393237
0.0475579
0.0513335
0.0522925
0.0541687
0.055564
0.05544
0.055339
0.055638
0.0559637
0.0564074
0.0570937
0.0579334
0.0587316
0.0593261
0.0595489
0.0597562
0.0602824
0.0610721
0.0611733
0.0602848
0.0120478
0.0292899
0.0407638
0.0501004
0.0533605
0.0536611
0.0553214
0.056481
0.0566937
0.0569947
0.0573932
0.0577634
0.0583048
0.0591032
0.0600357
0.0609025
0.061677
0.0622812
0.0622887
0.0626547
0.0635696
0.0631021
0.0632572
0.0122714
0.0295331
0.0405334
0.0503726
0.054526
0.0545067
0.0559502
0.0571338
0.0574978
0.0580692
0.0586509
0.0591172
0.0596551
0.0603747
0.0611592
0.0619299
0.0626905
0.0635542
0.0639292
0.0637893
0.0642082
0.0644804
0.0654185
0.0128079
0.0286577
0.0386517
0.0466985
0.0514674
0.05358
0.0556338
0.0570839
0.0578873
0.0586229
0.0592829
0.0598183
0.0603675
0.0609969
0.0615853
0.0621262
0.0626381
0.0632407
0.0638067
0.0640281
0.0644417
0.0649886
0.0655495
0.0138142
0.0293033
0.0380017
0.0445743
0.04925
0.0524364
0.0548575
0.0566087
0.0577819
0.0586704
0.0593736
0.0599619
0.0605401
0.0610898
0.0615276
0.0618863
0.062181
0.0624852
0.0628322
0.0631433
0.0636666
0.0642252
0.0642194
0.0148461
0.0304572
0.0385543
0.0443108
0.048535
0.0516151
0.0539913
0.055806
0.0571261
0.0581163
0.0588869
0.0595286
0.060107
0.060588
0.0609249
0.0611532
0.0613019
0.0614522
0.0616503
0.0618596
0.0622156
0.0625785
0.0623471
0.0159001
0.0315714
0.0391835
0.0443059
0.0480209
0.0507851
0.0529509
0.0546624
0.0559815
0.0570009
0.0578043
0.0584614
0.0590087
0.0594256
0.0596941
0.059846
0.0599276
0.0600101
0.0601352
0.0602757
0.0604665
0.060596
0.0602418
0.0165318
0.0323341
0.0394954
0.0440912
0.0473714
0.049822
0.051744
0.0532873
0.0545182
0.0554969
0.0562788
0.0569085
0.0574084
0.0577739
0.0580074
0.0581404
0.0582185
0.0582932
0.0583919
0.0585016
0.0585956
0.0585516
0.05811
0.0167003
0.0325681
0.0393929
0.043589
0.0465243
0.0487043
0.0504087
0.0517812
0.0528937
0.0537941
0.0545206
0.0551025
0.0555577
0.0558937
0.0561245
0.0562797
0.0563956
0.0565045
0.056618
0.0567158
0.0567438
0.0565918
0.0561037
0.0164855
0.032259
0.0388401
0.0427624
0.0454548
0.0474393
0.0489778
0.0502113
0.0512152
0.0520349
0.0527018
0.0532395
0.0536665
0.0539971
0.0542499
0.0544496
0.0546206
0.0547782
0.0549185
0.0550113
0.0549968
0.0547898
0.0542975
0.0159856
0.0314468
0.0378539
0.0416167
0.0441681
0.0460318
0.0474647
0.0486058
0.0495333
0.0502937
0.0509184
0.0514308
0.051851
0.0521966
0.0524861
0.0527375
0.052964
0.0531673
0.0533325
0.0534245
0.05339
0.0531674
0.0527067
0.0153932
0.030294
0.0365344
0.0401996
0.0426794
0.0444859
0.0458691
0.046966
0.0478564
0.0485896
0.049199
0.0497102
0.0501443
0.05052
0.0508531
0.0511555
0.051431
0.0516726
0.0518597
0.0519583
0.0519254
0.0517187
0.0513116
0.0146908
0.0289014
0.0349649
0.0385636
0.0410161
0.0428114
0.0441891
0.0452828
0.0461729
0.0469108
0.0475323
0.048065
0.0485307
0.0489472
0.0493274
0.0496779
0.0499969
0.0502726
0.0504833
0.0505992
0.0505873
0.0504193
0.0500802
0.0138966
0.0273488
0.0332211
0.0367652
0.0392145
0.0410273
0.0424298
0.0435506
0.044469
0.0452378
0.0458944
0.0464675
0.0469784
0.0474438
0.0478741
0.0482722
0.0486333
0.0489441
0.0491845
0.0493298
0.0493554
0.0492421
0.0489812
0.0130389
0.0257003
0.0313689
0.0348602
0.0373162
0.039161
0.0406059
0.041773
0.0427395
0.0435581
0.0442667
0.0448943
0.0454611
0.0459824
0.0464666
0.0469147
0.0473206
0.0476717
0.0479505
0.0481372
0.0482135
0.0481659
0.0479885
0.0121398
0.0240046
0.0294625
0.032899
0.0353635
0.0372456
0.0387411
0.039965
0.0409915
0.0418721
0.0426443
0.0433363
0.0439672
0.0445508
0.0450939
0.0455967
0.0460531
0.0464518
0.0467784
0.0470173
0.0471543
0.0471794
0.0470881
0.0112111
0.0222949
0.0275436
0.0309243
0.0333962
0.035316
0.0368647
0.0381502
0.0392432
0.0401932
0.0410365
0.0418
0.0425015
0.0431532
0.0437608
0.0443242
0.0448379
0.0452923
0.0456756
0.0459752
0.0461802
0.0462824
0.0462777
0.0102534
0.0205892
0.0256427
0.028971
0.0314499
0.0334067
0.0350091
0.0363582
0.037521
0.0385449
0.0394642
0.0403043
0.0410815
0.0418066
0.0424844
0.0431146
0.0436925
0.04421
0.0446575
0.0450247
0.0453025
0.0454841
0.0455653
0.00928906
0.0188903
0.023782
0.0270683
0.0295567
0.0315508
0.0332074
0.0346215
0.0358565
0.0369571
0.0379557
0.0388761
0.0397333
0.0405365
0.0412896
0.0419924
0.0426408
0.043228
0.0437456
0.0441853
0.0445392
0.0448011
0.0449667
0.00841686
0.0172295
0.0219839
0.0252423
0.0277461
0.0297802
0.0314927
0.0329736
0.0342825
0.0354621
0.0365427
0.0375461
0.0384869
0.039372
0.040205
0.0409854
0.0417097
0.0423718
0.0429645
0.0434803
0.0439122
0.0442544
0.0445024
0.00761689
0.0157133
0.0203172
0.0235437
0.0260606
0.0281329
0.0299001
0.0314475
0.0328314
0.0340917
0.0352563
0.0363451
0.0373717
0.0383419
0.0392586
0.0401211
0.0409259
0.0416675
0.0423392
0.0429341
0.0434454
0.0438674
0.0441957
0.00690539
0.0143939
0.0188317
0.0220148
0.0245381
0.0266449
0.0284649
0.0300778
0.0315364
0.0328774
0.0341266
0.0353021
0.0364161
0.0374738
0.0384774
0.0394258
0.0403153
0.0411404
0.0418947
0.042571
0.0431629
0.0436645
0.044071
0.00630267
0.0133021
0.0175635
0.0206899
0.0232106
0.0253461
0.0272153
0.0288913
0.0304228
0.0318434
0.0331768
0.0344393
0.0356419
0.0367895
0.0378833
0.0389217
0.0399005
0.0408139
0.0416548
0.0424159
0.0430901
0.0436715
0.0441549
0.00581797
0.0124376
0.0165263
0.0195878
0.0220982
0.0242565
0.0261701
0.0279056
0.0295071
0.0310054
0.032422
0.0337717
0.0350645
0.0363049
0.0374933
0.0386273
0.0397016
0.0407094
0.0416426
0.0424929
0.0432527
0.0439152
0.0444752
0.00544652
0.0117794
0.0157142
0.018711
0.0212073
0.0233837
0.0253372
0.027128
0.0287962
0.0303699
0.0318687
0.0333066
0.0346924
0.0360304
0.03732
0.0385576
0.0397363
0.0408476
0.0418813
0.0428278
0.0436779
0.0444244
0.0450616
0.00517512
0.0113002
0.0151096
0.0180493
0.0205317
0.0227232
0.0247127
0.0265549
0.0282867
0.029934
0.0315153
0.0330439
0.034528
0.0359714
0.0373727
0.0387262
0.0400227
0.0412505
0.042397
0.0434495
0.0443973
0.0452321
0.0459483
0.00498868
0.0109743
0.0146898
0.0175839
0.0200552
0.0222607
0.0242833
0.0261738
0.0279668
0.0296872
0.0313531
0.0329776
0.0345689
0.0361304
0.0376592
0.039147
0.0405809
0.0419447
0.043221
0.0443935
0.045449
0.0463782
0.0471757
0.00487289
0.0107787
0.0144301
0.0172912
0.0197557
0.0219753
0.024029
0.0259655
0.0278187
0.0296132
0.0313682
0.0330974
0.0348097
0.0365079
0.0381877
0.039837
0.0414369
0.0429642
0.0443944
0.0457057
0.0468816
0.0479121
0.048793
0.0048138
0.0106914
0.0143062
0.0171478
0.0196106
0.0218446
0.0239276
0.0259083
0.027821
0.0296923
0.0315433
0.03339
0.0352426
0.0371043
0.0389686
0.0408181
0.042625
0.0443548
0.0459718
0.0474462
0.0487575
0.0498961
0.0508609
0.00479725
0.0106936
0.0143014
0.0171385
0.0196043
0.0218513
0.0239597
0.0259806
0.0279516
0.0299026
0.0318584
0.033839
0.0358577
0.037919
0.0400146
0.0421194
0.0441918
0.0461791
0.0480275
0.0496949
0.0511574
0.0524082
0.053453
0.00481167
0.0107876
0.0144299
0.0172776
0.0197436
0.0219926
0.0241137
0.026165
0.028189
0.0302208
0.0322905
0.0344242
0.036641
0.0389489
0.0413391
0.0437768
0.0461993
0.0485226
0.0506619
0.0525577
0.0541844
0.0555446
0.0566574
0.00486349
0.0110688
0.014806
0.0176549
0.0200828
0.022292
0.0243919
0.0264496
0.028513
0.0306217
0.0328122
0.0351187
0.0375701
0.040183
0.0429516
0.0458313
0.0487276
0.0515023
0.0540124
0.0561735
0.0579678
0.0594207
0.060576
0.00505134
0.0119906
0.0158316
0.0185292
0.0207594
0.0228097
0.0248098
0.026826
0.0289018
0.0310756
0.0333882
0.0358839
0.038607
0.0415918
0.0448451
0.0483195
0.0518774
0.0552821
0.0582686
0.060724
0.0626655
0.0641692
0.0653214
0.00599378
0.0152533
0.0186587
0.0204823
0.0220202
0.0236314
0.025383
0.0272796
0.0293266
0.0315446
0.0339722
0.0366644
0.0396878
0.0431096
0.0469722
0.0512502
0.0557653
0.060104
0.0637007
0.0664432
0.0684618
0.0699342
0.0710109
0.0111749
0.0256066
0.0257775
0.0244836
0.0241526
0.0248056
0.0260898
0.0277713
0.0297436
0.0319798
0.0345051
0.037384
0.040713
0.044612
0.0492017
0.0545466
0.0605076
0.0663735
0.0707097
0.0736238
0.0755548
0.0768564
0.0777563
0.0281995
0.0496267
0.0393476
0.0310342
0.0271047
0.0261864
0.0268122
0.028218
0.0300892
0.0323218
0.0349179
0.0379484
0.0415429
0.0458913
0.051247
0.0579219
0.0662563
0.0749399
0.0799096
0.0825941
0.0841186
0.0850479
0.0856516
0.0852421
0.0874975
0.0553858
0.037673
0.0297096
0.0272465
0.0273054
0.0284959
0.0302895
0.0325117
0.0351442
0.0382608
0.0420154
0.0466577
0.0525948
0.0606943
0.0751036
0.0881094
0.092155
0.0935889
0.0942204
0.0945579
0.0947638
0.0207275
0.0174552
0.0166183
0.0182746
0.0357388
0.034885
0.0344938
0.0346311
0.0437326
0.0432064
0.0427575
0.0424115
0.0500576
0.0495701
0.0490037
0.0484245
0.055615
0.0551052
0.0543443
0.0533841
0.059435
0.0586844
0.0577458
0.0566292
0.0628828
0.0623784
0.0611244
0.059373
0.0652193
0.0643901
0.0627289
0.0608148
0.06458
0.0635232
0.0622374
0.0608223
0.0631995
0.062336
0.0613216
0.0601787
0.0614772
0.0607548
0.0598874
0.058891
0.0594613
0.0588214
0.0580538
0.0571747
0.0573818
0.0568031
0.0561215
0.0553517
0.0554256
0.0549045
0.0543043
0.0536363
0.0536811
0.0532194
0.052697
0.0521224
0.0521632
0.0517623
0.0513135
0.0508231
0.0508473
0.0505068
0.0501269
0.0497124
0.0496956
0.0494136
0.0490981
0.0487522
0.048675
0.0484478
0.0481912
0.0479077
0.0477591
0.0475843
0.0473826
0.0471556
0.046933
0.046808
0.0466577
0.0464832
0.0461939
0.0461162
0.0460141
0.0458886
0.0455498
0.0455167
0.04546
0.0453803
0.0450161
0.0450253
0.0450112
0.0449741
0.0446136
0.0446626
0.0446885
0.0446914
0.0443657
0.0444525
0.0445161
0.0445563
0.0442974
0.0444205
0.0445198
0.0445952
0.0444359
0.0445936
0.044727
0.0448357
0.0448091
0.0450004
0.0451664
0.0453067
0.0454476
0.0456716
0.0458689
0.0460393
0.0463859
0.0466418
0.0468692
0.0470682
0.0476645
0.0479513
0.0482076
0.0484335
0.0493319
0.0496483
0.0499315
0.0501821
0.0514469
0.0517903
0.0520973
0.0523691
0.0540801
0.0544456
0.0547713
0.055059
0.0573137
0.0576933
0.0580296
0.0583253
0.0612417
0.0616228
0.0619576
0.0622501
0.0659663
0.0663307
0.0666477
0.0669222
0.0715932
0.0719173
0.0721961
0.0724352
0.0782249
0.0784816
0.0786998
0.0788851
0.0859545
0.0861179
0.0862554
0.0863712
0.0948641
0.0949176
0.0949624
0.0949999
0.0264162
0.0299234
0.0307672
0.0308561
0.0306258
0.0301632
0.0295444
0.0288673
0.0281632
0.0274649
0.0267482
0.0259215
0.0249095
0.0236857
0.0221584
0.0200672
0.0169551
0.0123569
0.00528575
0.0354818
0.0358174
0.0354363
0.0348594
0.0342465
0.0335917
0.0329071
0.0322284
0.0315023
0.0307032
0.0298464
0.0288832
0.0277082
0.026257
0.0244931
0.022293
0.0192498
0.0147337
0.00643291
0.0419472
0.0409925
0.0397447
0.0385962
0.0376198
0.0367399
0.035936
0.0352225
0.0344859
0.0336221
0.0326936
0.0316544
0.0303229
0.0286031
0.0264844
0.0239593
0.0208092
0.0163943
0.00793353
0.0475
0.0457474
0.0437173
0.0420197
0.0407118
0.0396063
0.0386425
0.0378917
0.0371472
0.0361986
0.035282
0.0342901
0.0328133
0.0307446
0.0281229
0.0251028
0.0217217
0.0170593
0.00849986
0.0518646
0.0498269
0.047197
0.0450077
0.0434587
0.0421079
0.0409183
0.0399953
0.0390937
0.0381101
0.0372676
0.0360073
0.0341875
0.0318451
0.0289119
0.0254074
0.0215865
0.0165716
0.00791468
0.0545045
0.0521014
0.0495982
0.0473804
0.0456445
0.0441138
0.0428188
0.0418867
0.0408754
0.0394476
0.0379438
0.036058
0.0336265
0.0308343
0.0277438
0.0242649
0.0203455
0.0149142
0.00674316
0.0568216
0.0541089
0.0515819
0.049237
0.047294
0.0455941
0.0441125
0.0428943
0.0415272
0.0396217
0.0375708
0.0353868
0.0326294
0.0294702
0.0261354
0.022581
0.0186527
0.0131858
0.00589505
0.058041
0.0552806
0.0528569
0.0505117
0.0484651
0.046536
0.0446964
0.0430584
0.0413495
0.0392538
0.0369407
0.0345925
0.0317978
0.0286746
0.0255327
0.0223272
0.018623
0.0135351
0.00610523
0.0583481
0.0555807
0.0532505
0.0509073
0.048629
0.0464681
0.044445
0.0425505
0.0406422
0.0385604
0.0362922
0.033922
0.0312509
0.0283366
0.025376
0.022332
0.0188118
0.0142163
0.00645699
0.058079
0.0553068
0.0528612
0.0504421
0.0480755
0.0458843
0.0438491
0.0419156
0.039993
0.0379774
0.0358207
0.0335243
0.0309847
0.0281822
0.0251809
0.0219667
0.0183345
0.0137405
0.0061645
0.0570738
0.0544498
0.0519815
0.0496013
0.0473389
0.0452394
0.043276
0.041396
0.0395256
0.0375846
0.0355205
0.0332998
0.0308398
0.0280867
0.0250144
0.0215816
0.0176917
0.0128999
0.00564711
0.0555973
0.0532277
0.0509146
0.0486996
0.0466109
0.0446524
0.0427938
0.0409915
0.039186
0.037311
0.0353091
0.0331277
0.0307099
0.0279918
0.0248919
0.0213411
0.0172395
0.0122385
0.00536617
0.0539926
0.0519157
0.0498439
0.0478477
0.0459509
0.0441427
0.0423934
0.0406696
0.0389241
0.0370991
0.0351339
0.0329757
0.0305869
0.0279088
0.0248548
0.0213351
0.0171985
0.0121
0.00549408
0.0524724
0.0506815
0.048866
0.047092
0.0453779
0.0437105
0.0420646
0.0404134
0.0387189
0.036931
0.0349956
0.0328693
0.0305244
0.0279174
0.0249792
0.021603
0.0176019
0.0125705
0.00596894
0.051129
0.0495945
0.0480155
0.0464437
0.0448927
0.0433513
0.0417995
0.0402146
0.038566
0.0368135
0.0349153
0.0328391
0.0305638
0.0280592
0.0252711
0.0220888
0.0183236
0.0135197
0.00661474
0.0499774
0.048664
0.0472909
0.0458954
0.0444871
0.0430575
0.0415908
0.0400686
0.0384666
0.0367552
0.0349049
0.0328933
0.0307045
0.028316
0.0256822
0.0227037
0.0191982
0.0146697
0.00729174
0.0489952
0.047871
0.0466746
0.0454317
0.0441488
0.0428197
0.0414323
0.039972
0.0384208
0.0367581
0.0349644
0.0330249
0.0309275
0.0286541
0.0261651
0.0233745
0.020105
0.0158318
0.00793762
0.0481488
0.0471882
0.0461448
0.0450358
0.0438654
0.0426292
0.0413182
0.0399215
0.0384264
0.0368193
0.0350881
0.033223
0.0312146
0.0290464
0.0266853
0.0240509
0.0209632
0.0168774
0.00855724
0.0474065
0.0465906
0.0456825
0.0446938
0.0436271
0.0424794
0.0412441
0.0399135
0.0384792
0.0369328
0.035267
0.0334752
0.0315491
0.029479
0.027226
0.024705
0.0217216
0.0176657
0.00908209
0.0467464
0.0460607
0.0452753
0.0443972
0.0434284
0.0423666
0.0412074
0.0399455
0.0385757
0.0370929
0.0354926
0.0337701
0.0319234
0.0299355
0.0277635
0.0253161
0.0223757
0.0182607
0.00938778
0.0461592
0.0455917
0.0449189
0.0441446
0.0432695
0.042292
0.0412093
0.0400178
0.0387143
0.0372959
0.0357592
0.0341052
0.0323266
0.0304012
0.0282831
0.0258719
0.0229259
0.0186995
0.00948705
0.0456443
0.0451866
0.0446183
0.0439417
0.0431567
0.0422619
0.0412553
0.0401346
0.0388978
0.0375427
0.0360708
0.0344784
0.0327537
0.0308727
0.028784
0.0263773
0.0233911
0.0190353
0.00949926
0.0452107
0.0448556
0.0443855
0.0438013
0.0431026
0.042288
0.0413561
0.0403047
0.0391342
0.0378436
0.0364309
0.0348901
0.0332075
0.0313554
0.0292769
0.026853
0.0238088
0.0193346
0.00958338
0.0448747
0.0446157
0.0442378
0.0437408
0.0431241
0.0423862
0.0415268
0.0405445
0.0394384
0.0382067
0.0368459
0.0353479
0.0336968
0.031861
0.0297787
0.0273247
0.0242175
0.0196435
0.00974933
0.0446579
0.0444886
0.0441965
0.0437813
0.0432422
0.042578
0.0417879
0.0408704
0.0398235
0.0386446
0.0373283
0.0358647
0.0342351
0.0324046
0.0303076
0.0278151
0.0246422
0.0199736
0.00993997
0.0445846
0.0444988
0.0442869
0.0439481
0.0434817
0.0428862
0.0421603
0.0413019
0.0403084
0.0391753
0.0378957
0.0364575
0.0348395
0.0330041
0.0308826
0.028343
0.0250977
0.0203239
0.0101349
0.0446816
0.0446734
0.0445357
0.0442676
0.0438679
0.0433353
0.0426678
0.0418625
0.0409154
0.0398208
0.0385698
0.0371479
0.0355316
0.0336808
0.0315242
0.0289272
0.0255977
0.020698
0.0103224
0.0449767
0.0450404
0.0449709
0.0447672
0.0444283
0.0439524
0.043337
0.0425783
0.0416711
0.0406076
0.0393768
0.0379621
0.0363373
0.0344598
0.0322561
0.0295884
0.0261575
0.0211015
0.0104648
0.0454991
0.0456293
0.045622
0.0454767
0.0451924
0.0447671
0.0441978
0.0434795
0.0426054
0.041566
0.0403477
0.0389312
0.0372876
0.0353714
0.0331064
0.0303507
0.0267955
0.0215439
0.0105234
0.0462801
0.0464716
0.0465208
0.0464279
0.0461923
0.0458119
0.045283
0.0445996
0.0437532
0.0427318
0.0415191
0.0400926
0.03842
0.0364524
0.0341099
0.0312455
0.0275391
0.0220568
0.0105698
0.0473545
0.0476021
0.0477022
0.047656
0.0474636
0.0471229
0.0466297
0.0459769
0.0451539
0.0441461
0.0429339
0.0414907
0.03978
0.0377485
0.0353115
0.0323158
0.0284315
0.0226967
0.0107519
0.048762
0.0490601
0.0492053
0.0492002
0.0490459
0.0487407
0.0482798
0.0476549
0.0468532
0.045857
0.0446427
0.0431787
0.041423
0.0393164
0.0367683
0.0336192
0.0295304
0.0235209
0.0111226
0.0505485
0.0508907
0.0510744
0.0511048
0.050984
0.0507109
0.0502804
0.0496828
0.048903
0.0479198
0.0467044
0.0452194
0.0434152
0.0412253
0.0385515
0.0352272
0.0309038
0.0245775
0.011639
0.0527673
0.0531453
0.0533602
0.0534199
0.0533282
0.053085
0.0526847
0.0521164
0.0513625
0.0503977
0.0491873
0.0476859
0.0458347
0.0435569
0.0407455
0.0372241
0.0326292
0.0259164
0.0122744
0.0554802
0.0558828
0.0561196
0.0562018
0.0561352
0.0559204
0.055552
0.0550178
0.0542976
0.0533616
0.0521681
0.0506619
0.0487712
0.0464049
0.0434434
0.0396932
0.0347789
0.0276053
0.0130549
0.0587567
0.0591693
0.0594169
0.0595139
0.0594682
0.0592814
0.0589482
0.0584555
0.0577807
0.0568894
0.0557319
0.0542403
0.052325
0.0498735
0.0467422
0.0427224
0.0374242
0.029683
0.0139968
0.0626745
0.0630787
0.0633236
0.0634267
0.0633977
0.063239
0.0629458
0.0625044
0.0618904
0.0610653
0.0599708
0.0585236
0.0566089
0.0540793
0.0507538
0.046403
0.0406387
0.0322207
0.0151985
0.0673179
0.0676917
0.0679189
0.0680188
0.0680022
0.0678722
0.0676244
0.0672455
0.0667107
0.0659784
0.0649829
0.0636234
0.0617509
0.0591607
0.0556034
0.0508098
0.044458
0.035252
0.016692
0.072777
0.0730967
0.0732908
0.0733784
0.0733701
0.0732693
0.0730724
0.0727674
0.072331
0.0717219
0.0708706
0.0696606
0.0679015
0.0652977
0.0614533
0.0559813
0.0488362
0.038729
0.0184864
0.0791479
0.0793911
0.0795381
0.0796054
0.0796018
0.0795304
0.0793887
0.0791674
0.0788472
0.0783923
0.0777373
0.0767615
0.0752385
0.0727484
0.0685745
0.0618735
0.0535683
0.042452
0.0205066
0.0865342
0.0866838
0.0867737
0.0868149
0.0868135
0.0867714
0.0866875
0.0865559
0.0863643
0.0860887
0.0856811
0.0850426
0.0839527
0.0818869
0.077555
0.0681984
0.0581358
0.0459739
0.0225983
0.0950525
0.0951005
0.0951292
0.0951423
0.0951419
0.0951288
0.0951025
0.0950616
0.0950021
0.0949163
0.0947877
0.094577
0.0941743
0.0931946
0.0899293
0.0737821
0.0614003
0.0484945
0.0244048
)
;

boundaryField
{
    leftWall
    {
        type            kqRWallFunction;
        value           nonuniform List<scalar> 
50
(
0.00110295
0.00242631
0.00344497
0.00429634
0.00502153
0.00566273
0.00624953
0.00680128
0.00755844
0.00863374
0.0100135
0.0130676
0.0135296
0.0121145
0.0120478
0.0122714
0.0128079
0.0138142
0.0148461
0.0159001
0.0165318
0.0167003
0.0164855
0.0159856
0.0153932
0.0146908
0.0138966
0.0130389
0.0121398
0.0112111
0.0102534
0.00928906
0.00841686
0.00761689
0.00690539
0.00630267
0.00581797
0.00544652
0.00517512
0.00498868
0.00487289
0.0048138
0.00479725
0.00481167
0.00486349
0.00505134
0.00599378
0.0111749
0.0281995
0.0852421
)
;
    }
    rightWall
    {
        type            kqRWallFunction;
        value           nonuniform List<scalar> 
50
(
0.00106087
0.00207668
0.00280605
0.00346319
0.00405134
0.00441072
0.00446777
0.00465869
0.00528575
0.00643291
0.00793353
0.00849986
0.00791468
0.00674316
0.00589505
0.00610523
0.00645699
0.0061645
0.00564711
0.00536617
0.00549408
0.00596894
0.00661474
0.00729174
0.00793762
0.00855724
0.00908209
0.00938778
0.00948705
0.00949926
0.00958338
0.00974933
0.00993997
0.0101349
0.0103224
0.0104648
0.0105234
0.0105698
0.0107519
0.0111226
0.011639
0.0122744
0.0130549
0.0139968
0.0151985
0.016692
0.0184864
0.0205066
0.0225983
0.0244048
)
;
    }
    lowerWall
    {
        type            kqRWallFunction;
        value           nonuniform List<scalar> 
62
(
0.00110295
0.0028287
0.00415268
0.00514178
0.00591406
0.00652144
0.0069971
0.0073656
0.00764587
0.00785416
0.00800579
0.00811366
0.00818697
0.00823047
0.00823898
0.00819166
0.00802438
0.00757
0.00698241
0.00633854
0.00547858
0.00396775
0.00135273
0.00135273
0.0035558
0.0051201
0.00653396
0.00789628
0.00937954
0.0114499
0.0159539
0.0207275
0.0174552
0.0166183
0.0182746
0.00148816
0.00368148
0.0052029
0.00668788
0.00833259
0.0104455
0.0135735
0.018623
0.00148816
0.00381022
0.00513323
0.00580137
0.00604197
0.00598015
0.00567293
0.00521206
0.00489419
0.00495675
0.00498632
0.00474663
0.00472702
0.00494112
0.00507914
0.00461843
0.00356572
0.00238228
0.00106087
)
;
    }
    atmosphere
    {
        type            inletOutlet;
        inletValue      uniform 0.1;
        value           nonuniform List<scalar> 
46
(
0.1
0.1
0.0553858
0.037673
0.0297096
0.0272465
0.0273054
0.0284959
0.0302895
0.0325117
0.0351442
0.0382608
0.0420154
0.0466577
0.0525948
0.0606943
0.1
0.1
0.1
0.1
0.1
0.1
0.1
0.1
0.1
0.1
0.1
0.1
0.1
0.1
0.1
0.1
0.1
0.1
0.1
0.1
0.1
0.1
0.1
0.1
0.1
0.1
0.0737821
0.0614003
0.0484945
0.0244048
)
;
    }
    defaultFaces
    {
        type            empty;
    }
}


// ************************************************************************* //
