/*--------------------------------*- C++ -*----------------------------------*\
  =========                 |
  \\      /  F ield         | OpenFOAM: The Open Source CFD Toolbox
   \\    /   O peration     | Website:  https://openfoam.org
    \\  /    A nd           | Version:  9
     \\/     M anipulation  |
\*---------------------------------------------------------------------------*/
FoamFile
{
    format      ascii;
    class       volVectorField;
    location    "3";
    object      U;
}
// * * * * * * * * * * * * * * * * * * * * * * * * * * * * * * * * * * * * * //

dimensions      [0 1 -1 0 0 0 0];

internalField   nonuniform List<vector> 
2268
(
(-0.00285489 0.000992441 0)
(-0.0042361 -0.000334879 0)
(-0.00217322 -0.000850966 0)
(0.000329479 -0.000961937 0)
(0.00341358 -0.00103594 0)
(0.00657189 -0.00101771 0)
(0.00963536 -0.000946417 0)
(0.0124705 -0.000847915 0)
(0.0149991 -0.000729288 0)
(0.0171559 -0.000596724 0)
(0.0189143 -0.000469298 0)
(0.0203199 -0.000367526 0)
(0.0214546 -0.000308978 0)
(0.0224794 -0.000333191 0)
(0.0236522 -0.000475888 0)
(0.0251063 -0.000772109 0)
(0.0278858 -0.00112479 0)
(0.0276156 0.00160273 0)
(0.0189519 0.00433992 0)
(0.00657104 0.00340031 0)
(0.000319386 0.000679451 0)
(-0.000869439 -0.000440809 0)
(0.00116875 0.000140234 0)
(-0.00104132 0.00240285 0)
(-0.00174434 -0.000262706 0)
(-8.58015e-05 -0.00149597 0)
(0.00209974 -0.00197799 0)
(0.0048595 -0.00222492 0)
(0.0077702 -0.0022465 0)
(0.0106374 -0.00213423 0)
(0.0133368 -0.00194752 0)
(0.0157861 -0.00170664 0)
(0.0179098 -0.00142807 0)
(0.0196657 -0.00115332 0)
(0.021074 -0.000925451 0)
(0.0221827 -0.000772398 0)
(0.0230588 -0.000742141 0)
(0.0237883 -0.000869654 0)
(0.0242884 -0.00114579 0)
(0.0245159 -0.00100274 0)
(0.0231677 0.00310465 0)
(0.0188482 0.00697382 0)
(0.0122231 0.00647331 0)
(0.00657175 0.00276659 0)
(0.00257727 0.000215356 0)
(0.00155458 -6.61313e-07 0)
(8.47138e-05 0.00250607 0)
(-0.000169007 -0.000628467 0)
(0.00128308 -0.00226915 0)
(0.0031558 -0.00305406 0)
(0.00554442 -0.00343407 0)
(0.00811548 -0.00349124 0)
(0.0106881 -0.00334415 0)
(0.0131547 -0.00307776 0)
(0.015438 -0.00272046 0)
(0.0174566 -0.00229606 0)
(0.0191566 -0.00186607 0)
(0.0205396 -0.00149176 0)
(0.0216188 -0.00120342 0)
(0.0223966 -0.00104552 0)
(0.0228582 -0.00102767 0)
(0.0228065 -0.0010407 0)
(0.0218628 -0.000365509 0)
(0.0202558 0.00410244 0)
(0.0181393 0.00839676 0)
(0.0148766 0.00858016 0)
(0.0107557 0.00496834 0)
(0.0060358 0.00214907 0)
(0.00246947 0.00158938 0)
(0.000583817 0.00236691 0)
(0.000851627 -0.0010274 0)
(0.00217129 -0.0029561 0)
(0.00377802 -0.00398919 0)
(0.00581798 -0.00450612 0)
(0.008047 -0.00461205 0)
(0.0103107 -0.00445224 0)
(0.0125258 -0.00413402 0)
(0.0146263 -0.00368841 0)
(0.0165264 -0.00314219 0)
(0.0181614 -0.00257521 0)
(0.0195201 -0.00206277 0)
(0.0205864 -0.00162872 0)
(0.0213145 -0.00130736 0)
(0.0216336 -0.00107667 0)
(0.0213269 -0.000744991 0)
(0.0199809 0.0004535 0)
(0.0184912 0.00474248 0)
(0.0177052 0.00912541 0)
(0.0166029 0.00979503 0)
(0.0137707 0.00697009 0)
(0.00905695 0.00454082 0)
(0.0038277 0.00399821 0)
(0.000800424 0.00194159 0)
(0.00145368 -0.00152764 0)
(0.00264695 -0.00357811 0)
(0.00400369 -0.00479568 0)
(0.00571767 -0.00543954 0)
(0.00761391 -0.00559961 0)
(0.00956706 -0.0054451 0)
(0.0115255 -0.00510272 0)
(0.0134403 -0.00459829 0)
(0.015221 -0.00395564 0)
(0.0167931 -0.00327248 0)
(0.0181389 -0.0026352 0)
(0.01922 -0.00205281 0)
(0.0199552 -0.0015478 0)
(0.0202518 -0.0010725 0)
(0.0199342 -0.000386006 0)
(0.0187202 0.00120919 0)
(0.0175668 0.00512435 0)
(0.0175722 0.00924644 0)
(0.0177079 0.0103569 0)
(0.0158086 0.00872608 0)
(0.0115901 0.00722084 0)
(0.0051938 0.00731718 0)
(0.000910339 0.00140964 0)
(0.0017264 -0.00206531 0)
(0.00275089 -0.00412142 0)
(0.00384734 -0.00546642 0)
(0.00524742 -0.00622252 0)
(0.00681945 -0.00643753 0)
(0.00846372 -0.00630446 0)
(0.0101658 -0.00596743 0)
(0.0118981 -0.00543699 0)
(0.0135647 -0.00472658 0)
(0.0150819 -0.00395302 0)
(0.0164326 -0.00321237 0)
(0.0175624 -0.00249063 0)
(0.0183644 -0.00180182 0)
(0.018745 -0.00108809 0)
(0.0185899 -9.73592e-05 0)
(0.017775 0.0017419 0)
(0.0171277 0.00528769 0)
(0.0176293 0.00900165 0)
(0.0183872 0.0105206 0)
(0.0172819 0.0101441 0)
(0.0140316 0.0100283 0)
(0.00671707 0.0114935 0)
(0.000986958 0.000891504 0)
(0.00174814 -0.00257572 0)
(0.00253647 -0.00455452 0)
(0.00334295 -0.00598988 0)
(0.00442763 -0.00684882 0)
(0.00567834 -0.00711931 0)
(0.00701486 -0.00702404 0)
(0.00846287 -0.00672476 0)
(0.0100186 -0.00620441 0)
(0.0115792 -0.00545726 0)
(0.0130524 -0.00462305 0)
(0.0144276 -0.0038083 0)
(0.0156408 -0.0029659 0)
(0.0165645 -0.00210791 0)
(0.0171148 -0.00118449 0)
(0.0172359 3.89422e-05 0)
(0.0169198 0.00200678 0)
(0.0168379 0.005224 0)
(0.0177423 0.00855547 0)
(0.0189505 0.010392 0)
(0.0187189 0.0110965 0)
(0.0168853 0.0127694 0)
(0.00905731 0.016991 0)
(0.00103737 -0.000111368 0)
(0.00156926 -0.00293789 0)
(0.00208914 -0.00478267 0)
(0.00255993 -0.00632213 0)
(0.00331249 -0.0072978 0)
(0.00423759 -0.00763435 0)
(0.00526747 -0.00760086 0)
(0.00646588 -0.00737885 0)
(0.00785198 -0.006911 0)
(0.00931557 -0.00616231 0)
(0.0107564 -0.00530236 0)
(0.0121737 -0.00445272 0)
(0.0134994 -0.00351556 0)
(0.0145894 -0.00251234 0)
(0.0153715 -0.00141817 0)
(0.0158372 -3.07245e-05 0)
(0.0160478 0.00198182 0)
(0.0165312 0.00490574 0)
(0.0178476 0.00790219 0)
(0.019546 0.00989052 0)
(0.0204183 0.0112948 0)
(0.020186 0.0145049 0)
(0.0164701 0.027198 0)
(0.00892272 -0.00425121 0)
(0.0337413 -0.00721566 0)
(0.052815 -0.0051432 0)
(0.064843 -0.00283737 0)
(0.0706152 -0.00105477 0)
(0.0717392 0.000460914 0)
(0.0672823 0.00240981 0)
(0.054343 0.00522212 0)
(0.0325502 0.00584618 0)
(0.0182835 0.00169055 0)
(0.0181236 0.000407768 0)
(0.0101036 0.00460274 0)
(-0.00681591 0.00321188 0)
(-0.00883046 -0.00254825 0)
(0.00832083 -0.00766366 0)
(0.0322575 -0.00564408 0)
(0.0426981 0.000623613 0)
(0.0274462 0.00601722 0)
(0.0047519 0.00376875 0)
(0.016842 -0.0140423 0)
(0.0344618 -0.0137572 0)
(0.0463993 -0.00925407 0)
(0.0540771 -0.00523151 0)
(0.0577904 -0.00207188 0)
(0.0588953 0.00106416 0)
(0.0553246 0.00570928 0)
(0.0448269 0.0108578 0)
(0.0297506 0.0111487 0)
(0.0185698 0.00473896 0)
(0.0135407 0.00264864 0)
(0.00792995 0.00768821 0)
(0.000328148 0.00530338 0)
(-0.000102885 -0.00428568 0)
(0.00838441 -0.0129914 0)
(0.0228173 -0.0104902 0)
(0.0316907 0.00200516 0)
(0.0244591 0.0120523 0)
(0.00765975 0.00975537 0)
(0.0167179 -0.0247941 0)
(0.0313242 -0.0192609 0)
(0.0401022 -0.0125252 0)
(0.0457766 -0.00705007 0)
(0.0484425 -0.00287765 0)
(0.0492745 0.00156849 0)
(0.045755 0.00854232 0)
(0.0370579 0.0152207 0)
(0.0269755 0.0153035 0)
(0.0183148 0.00816395 0)
(0.0119477 0.00503642 0)
(0.00831334 0.00925628 0)
(0.00568056 0.00612674 0)
(0.00529283 -0.00524244 0)
(0.00756748 -0.0158926 0)
(0.0145816 -0.0148037 0)
(0.0236572 0.00155952 0)
(0.0218072 0.0162401 0)
(0.00792524 0.0158294 0)
(0.0127169 -0.0342394 0)
(0.0263301 -0.0241187 0)
(0.0337845 -0.0153974 0)
(0.0384789 -0.00858388 0)
(0.0405972 -0.00356518 0)
(0.0415536 0.0020274 0)
(0.0387582 0.011021 0)
(0.0320342 0.0185426 0)
(0.0253866 0.0184062 0)
(0.0186067 0.0112906 0)
(0.0122237 0.00719611 0)
(0.0101281 0.00982014 0)
(0.0103592 0.00646345 0)
(0.00922499 -0.00502725 0)
(0.00638312 -0.0162642 0)
(0.00685288 -0.0176938 0)
(0.0155699 -0.00113041 0)
(0.0212019 0.0191055 0)
(0.011329 0.0219826 0)
(0.00776937 -0.0410873 0)
(0.0212221 -0.0285154 0)
(0.027993 -0.0179854 0)
(0.0319817 -0.00987413 0)
(0.0336959 -0.00421549 0)
(0.0350072 0.00219038 0)
(0.0334036 0.0128998 0)
(0.0287459 0.0208778 0)
(0.0246696 0.0205762 0)
(0.019649 0.0139629 0)
(0.0142286 0.00900009 0)
(0.0131825 0.00971025 0)
(0.0144417 0.00653319 0)
(0.0122016 -0.00360624 0)
(0.00570936 -0.0145364 0)
(0.000519588 -0.0186385 0)
(0.00560577 -0.00565692 0)
(0.0181967 0.018625 0)
(0.0188423 0.0293883 0)
(0.00412167 -0.0462769 0)
(0.0173509 -0.0328114 0)
(0.0232766 -0.0203257 0)
(0.0263557 -0.0108974 0)
(0.0275464 -0.00483493 0)
(0.0291987 0.00193072 0)
(0.0290572 0.0140403 0)
(0.0267118 0.0222651 0)
(0.0248847 0.0219101 0)
(0.0215958 0.015993 0)
(0.0177324 0.0102807 0)
(0.0173447 0.00939211 0)
(0.0182558 0.00677907 0)
(0.0148429 -0.00124995 0)
(0.00612254 -0.0112445 0)
(-0.00293673 -0.0173728 0)
(-0.0039624 -0.00939224 0)
(0.00883715 0.0133943 0)
(0.0230496 0.0378714 0)
(0.00585927 -0.0529291 0)
(0.015626 -0.0366731 0)
(0.019961 -0.0221692 0)
(0.0216654 -0.0115195 0)
(0.0220444 -0.00531435 0)
(0.0236667 0.00125623 0)
(0.0250541 0.0143467 0)
(0.025608 0.0225757 0)
(0.0261495 0.0225106 0)
(0.0244413 0.0173392 0)
(0.022292 0.0109695 0)
(0.0222447 0.00922582 0)
(0.0221734 0.00744777 0)
(0.0177778 0.00172113 0)
(0.00786181 -0.0069198 0)
(-0.00346248 -0.0142166 0)
(-0.0100447 -0.0105622 0)
(-0.00480172 0.0065402 0)
(0.0126095 0.0438403 0)
(0.0197421 -0.059508 0)
(0.0168595 -0.0381048 0)
(0.0180456 -0.0228265 0)
(0.0178645 -0.0115478 0)
(0.0172885 -0.0055181 0)
(0.018295 0.000394747 0)
(0.0210935 0.0135041 0)
(0.0248363 0.0214683 0)
(0.0279008 0.0222586 0)
(0.0282514 0.0178699 0)
(0.0276045 0.0112314 0)
(0.0273206 0.00941643 0)
(0.026161 0.00853381 0)
(0.0212159 0.00497306 0)
(0.0110534 -0.00206767 0)
(-0.00140113 -0.0096438 0)
(-0.012005 -0.0084546 0)
(-0.0169007 0.00391962 0)
(-0.0102244 0.0417488 0)
(0.00179166 0.00112315 0)
(0.00161019 -0.00242131 0)
(0.00125881 -0.00453117 0)
(0.00106953 -0.0064647 0)
(0.00125125 -0.00771427 0)
(0.00165272 -0.00819852 0)
(0.00221617 -0.00831522 0)
(0.00304271 -0.00828129 0)
(0.00417543 -0.00796478 0)
(0.00550147 -0.00727073 0)
(0.00691217 -0.00642826 0)
(0.00841414 -0.00559648 0)
(0.00994182 -0.00455454 0)
(0.0113358 -0.00336858 0)
(0.0125392 -0.0020767 0)
(0.0135947 -0.000527893 0)
(0.0146156 0.00145379 0)
(0.0159481 0.00395285 0)
(0.0179509 0.00644258 0)
(0.0205385 0.00831166 0)
(0.0235472 0.00985429 0)
(0.0278047 0.0128033 0)
(0.0395589 0.0194726 0)
(0.00164937 -0.00599021 0)
(-0.000102904 -0.00521536 0)
(-0.000585371 -0.00616867 0)
(-0.00140838 -0.00782343 0)
(-0.00198781 -0.0089991 0)
(-0.0022673 -0.00940095 0)
(-0.00213908 -0.00951894 0)
(-0.00164254 -0.00957869 0)
(-0.000809563 -0.00935585 0)
(0.000381619 -0.00868185 0)
(0.00186291 -0.00786926 0)
(0.00350466 -0.00709992 0)
(0.00526264 -0.00603267 0)
(0.00706491 -0.00477833 0)
(0.0088516 -0.0034839 0)
(0.0106482 -0.00203431 0)
(0.0125573 -0.000339453 0)
(0.0148248 0.0016761 0)
(0.0176945 0.00356772 0)
(0.0211755 0.00474188 0)
(0.0253013 0.00496404 0)
(0.03062 0.00444417 0)
(0.0395352 0.00214304 0)
(-0.00417419 -0.000385118 0)
(-0.00424001 -0.000824318 0)
(-0.00224196 -0.00324547 0)
(-0.00418602 -0.00615819 0)
(-0.00766892 -0.00804743 0)
(-0.00927016 -0.00862737 0)
(-0.00849976 -0.00908417 0)
(-0.00742339 -0.00983525 0)
(-0.00680816 -0.01012 0)
(-0.00539585 -0.00956973 0)
(-0.00295687 -0.00885925 0)
(-0.000775069 -0.00822575 0)
(0.00125664 -0.00723931 0)
(0.00349994 -0.00594455 0)
(0.00583356 -0.00459636 0)
(0.00825851 -0.00318316 0)
(0.0109889 -0.00175336 0)
(0.0141427 -7.32591e-05 0)
(0.0179006 0.00150016 0)
(0.02236 0.00226489 0)
(0.0271852 0.00177446 0)
(0.0323086 0.000431379 0)
(0.038886 -0.00189045 0)
(-0.0456608 0.00820718 0)
(-0.00674865 -0.00548265 0)
(0.0111115 -0.00200372 0)
(0.00379263 -0.00398073 0)
(-0.014763 -0.00557015 0)
(-0.0212119 -0.00734279 0)
(-0.0140006 -0.00855015 0)
(-0.00933681 -0.00872752 0)
(-0.0122016 -0.00905553 0)
(-0.0115772 -0.0103874 0)
(-0.00527481 -0.00982574 0)
(-0.00285154 -0.0085878 0)
(-0.00160477 -0.00854383 0)
(0.000682576 -0.00769024 0)
(0.00317754 -0.00659889 0)
(0.00622442 -0.00549758 0)
(0.0098686 -0.00487141 0)
(0.0134614 -0.00423584 0)
(0.0184296 -0.00406658 0)
(0.0259048 -0.00400663 0)
(0.0328231 -0.0043668 0)
(0.0364809 -0.00548774 0)
(0.0403965 -0.00795902 0)
(-0.0378695 0.0619111 0)
(0.0158009 -0.0829883 0)
(0.0627755 -0.0282428 0)
(0.0373731 0.0451435 0)
(-0.0645323 0.0430701 0)
(-0.0817483 -0.0192611 0)
(-0.0589616 -0.0320894 0)
(-0.0383442 -0.0167941 0)
(-0.0339637 -0.00240581 0)
(-0.0207819 -0.0291466 0)
(-0.00551801 -0.0266101 0)
(0.00839807 -0.0164737 0)
(0.0168448 -0.0170666 0)
(0.0215649 -0.0149016 0)
(0.027533 -0.0147003 0)
(0.036519 -0.014807 0)
(0.0430006 -0.0113746 0)
(0.0399141 -0.00682101 0)
(0.0397934 -0.0136121 0)
(0.0492434 -0.0187401 0)
(0.0578652 -0.0118548 0)
(0.0426394 -0.00381432 0)
(0.023408 -0.0143217 0)
(0.0429526 0.0368573 0)
(0.0307785 -0.0879647 0)
(0.0237813 -0.0409448 0)
(0.0308954 0.102073 0)
(0.00173228 0.107954 0)
(-0.0094409 -0.0139824 0)
(-0.00915127 -0.049006 0)
(0.00273262 -0.0358025 0)
(0.0146526 -0.0107309 0)
(0.0158013 -0.033484 0)
(0.0139542 -0.033856 0)
(0.0183126 -0.025143 0)
(0.0227571 -0.0207557 0)
(0.0277411 -0.0187768 0)
(0.0373916 -0.0215209 0)
(0.0512068 -0.0242611 0)
(0.0667787 -0.0180047 0)
(0.0783749 0.00349101 0)
(0.0741112 -0.0112317 0)
(0.0713571 -0.0261969 0)
(0.0692387 -0.00627422 0)
(0.0417008 0.0412835 0)
(0.0241783 -0.0201505 0)
(0.0431416 -0.015514 0)
(0.00775779 -0.06079 0)
(-0.0306851 -0.0356826 0)
(-0.00245479 0.0779475 0)
(0.0585184 0.0929722 0)
(0.0743442 -0.00202892 0)
(0.0535418 -0.0444956 0)
(0.0425575 -0.0413697 0)
(0.0461647 -0.0199784 0)
(0.0418635 -0.0282218 0)
(0.0253499 -0.0312457 0)
(0.0195261 -0.0269324 0)
(0.0178297 -0.0215664 0)
(0.0190127 -0.0244241 0)
(0.0254556 -0.0316209 0)
(0.0347675 -0.0381717 0)
(0.0461842 -0.0364821 0)
(0.0694247 -0.00804921 0)
(0.093024 -0.00482691 0)
(0.0850487 -0.0221161 0)
(0.0622711 0.0110874 0)
(0.0549775 0.0658731 0)
(0.0552058 -0.0148204 0)
(0.0308234 -0.0258207 0)
(-0.00441766 -0.00770303 0)
(-0.034414 -0.028592 0)
(0.00374408 0.0163527 0)
(0.0621084 0.0229973 0)
(0.0995916 -0.00108692 0)
(0.0958362 -0.0253104 0)
(0.0587121 -0.0304173 0)
(0.0479995 -0.0148643 0)
(0.0429463 -0.0108223 0)
(0.0309404 -0.0193827 0)
(0.0194835 -0.0217034 0)
(0.011342 -0.0176578 0)
(0.00814561 -0.0283083 0)
(0.00830636 -0.0401475 0)
(0.0102146 -0.0482946 0)
(0.0157539 -0.0540807 0)
(0.0301246 -0.039601 0)
(0.052335 -0.0226854 0)
(0.0720977 -0.0129848 0)
(0.0765365 0.0282337 0)
(0.0798479 0.0558043 0)
(0.0750237 -9.25353e-05 0)
(0.00272513 -0.039927 0)
(0.019551 0.0114323 0)
(0.010203 -0.0269273 0)
(0.0201253 -0.0197266 0)
(0.052597 -0.0178487 0)
(0.0728373 -0.0179675 0)
(0.0647106 -0.000288883 0)
(0.0506755 -0.00365728 0)
(0.0402324 -0.0036104 0)
(0.03288 -0.00333281 0)
(0.024541 -0.0061854 0)
(0.016552 -0.00879879 0)
(0.0118605 -0.0111172 0)
(0.0095559 -0.0237873 0)
(0.00564796 -0.036998 0)
(0.00204532 -0.0469925 0)
(0.000327117 -0.0580342 0)
(0.00263905 -0.053238 0)
(0.0137061 -0.0436129 0)
(0.0278205 -0.0276398 0)
(0.0412262 0.0159013 0)
(0.0545209 0.0478769 0)
(0.0480255 0.0309615 0)
(0.00281008 -0.0546704 0)
(0.0221596 -0.0190749 0)
(0.0297516 -0.0269401 0)
(0.0290391 -0.0343304 0)
(0.0314579 -0.0332716 0)
(0.0295454 -0.0175296 0)
(0.0265904 -0.00070367 0)
(0.0230962 0.00225699 0)
(0.0179718 0.00246224 0)
(0.0132536 0.00131259 0)
(0.00862395 -0.00136908 0)
(0.00471263 -0.00473855 0)
(0.00294399 -0.0100276 0)
(0.00181774 -0.0208154 0)
(-0.00040508 -0.0317913 0)
(-0.00266587 -0.0429379 0)
(-0.00714966 -0.0541592 0)
(-0.012486 -0.054947 0)
(-0.0136954 -0.052946 0)
(-0.013578 -0.0378049 0)
(-0.00886546 0.00307702 0)
(0.00267108 0.0400502 0)
(0.00575384 0.0415319 0)
(-0.00185948 -0.059769 0)
(0.00844505 -0.0309083 0)
(0.0123622 -0.0279024 0)
(0.0089989 -0.0280824 0)
(0.00328611 -0.0236751 0)
(-0.00234326 -0.0112956 0)
(-0.00484221 0.000481328 0)
(-0.00607159 0.0049925 0)
(-0.0080721 0.00587503 0)
(-0.0102001 0.0045102 0)
(-0.0122088 0.0014048 0)
(-0.0136828 -0.00311923 0)
(-0.0141729 -0.00974939 0)
(-0.0147549 -0.0194879 0)
(-0.0164711 -0.0297187 0)
(-0.0194071 -0.0394568 0)
(-0.0243152 -0.0470182 0)
(-0.0298806 -0.0485066 0)
(-0.0361043 -0.0487018 0)
(-0.0450876 -0.0357184 0)
(-0.0474969 -0.00336056 0)
(-0.0390286 0.0294477 0)
(-0.029751 0.0380315 0)
(-0.00776351 -0.0566373 0)
(-0.00707571 -0.033791 0)
(-0.00907871 -0.025849 0)
(-0.0145384 -0.0215064 0)
(-0.0215544 -0.015641 0)
(-0.0274365 -0.00659105 0)
(-0.0302558 0.00175294 0)
(-0.0312758 0.00603873 0)
(-0.0320481 0.0070895 0)
(-0.0327191 0.0056579 0)
(-0.0332453 0.00230049 0)
(-0.0334592 -0.00273731 0)
(-0.0333877 -0.00964665 0)
(-0.0338049 -0.0184334 0)
(-0.0354825 -0.0275272 0)
(-0.0386985 -0.0355994 0)
(-0.0437164 -0.0410514 0)
(-0.0500008 -0.0419727 0)
(-0.0576367 -0.0385791 0)
(-0.0659547 -0.0262538 0)
(-0.0693865 -0.00392793 0)
(-0.0637855 0.0195671 0)
(-0.0545111 0.0299341 0)
(-0.0123465 -0.045163 0)
(-0.0190693 -0.028578 0)
(-0.0260357 -0.0201863 0)
(-0.0334438 -0.0145897 0)
(-0.040748 -0.00886306 0)
(-0.0464442 -0.00219311 0)
(-0.0496023 0.00362292 0)
(-0.0509324 0.00682856 0)
(-0.0514301 0.00743736 0)
(-0.0515061 0.00577981 0)
(-0.0513384 0.00223826 0)
(-0.0510115 -0.0029305 0)
(-0.0507732 -0.00959661 0)
(-0.0512275 -0.017356 0)
(-0.0529247 -0.0250662 0)
(-0.0561094 -0.0315139 0)
(-0.0608308 -0.0354007 0)
(-0.0667019 -0.0354409 0)
(-0.0733498 -0.030967 0)
(-0.0794739 -0.0203171 0)
(-0.0816274 -0.00417566 0)
(-0.0775359 0.0121102 0)
(-0.0698935 0.0217293 0)
(-0.0149799 -0.0278061 0)
(-0.0265244 -0.0177376 0)
(-0.0369383 -0.0114378 0)
(-0.045967 -0.00669295 0)
(-0.0536321 -0.00219636 0)
(-0.0593578 0.00233706 0)
(-0.0628579 0.00599276 0)
(-0.0645916 0.00782591 0)
(-0.0652221 0.00764523 0)
(-0.0652033 0.00556652 0)
(-0.0648442 0.00183419 0)
(-0.0643983 -0.00328721 0)
(-0.0642023 -0.00949562 0)
(-0.0647238 -0.0162594 0)
(-0.066348 -0.0226717 0)
(-0.0692285 -0.0277322 0)
(-0.0732815 -0.0304326 0)
(-0.0781016 -0.0298778 0)
(-0.0830831 -0.0255365 0)
(-0.086999 -0.0169538 0)
(-0.0878219 -0.00517078 0)
(-0.084434 0.00655795 0)
(-0.0782571 0.0147017 0)
(-0.0159644 -0.0073206 0)
(-0.0300553 -0.00358959 0)
(-0.0424729 -0.000568258 0)
(-0.0525997 0.0021073 0)
(-0.0606453 0.00469527 0)
(-0.0665405 0.00710559 0)
(-0.0703522 0.00878155 0)
(-0.0724595 0.00915902 0)
(-0.0733628 0.0080226 0)
(-0.0734988 0.00539273 0)
(-0.0732313 0.00143884 0)
(-0.0728869 -0.00357902 0)
(-0.0728122 -0.00930353 0)
(-0.0733695 -0.0152053 0)
(-0.07482 -0.0205537 0)
(-0.0772308 -0.02456 0)
(-0.0804465 -0.0264749 0)
(-0.0840588 -0.0257045 0)
(-0.0874455 -0.0219609 0)
(-0.0896536 -0.0152777 0)
(-0.089512 -0.00659325 0)
(-0.0864917 0.0021034 0)
(-0.0814074 0.00883265 0)
(-0.0156793 0.0142722 0)
(-0.0306097 0.012106 0)
(-0.0438497 0.0114432 0)
(-0.0544749 0.011471 0)
(-0.0627212 0.0118089 0)
(-0.0687408 0.0120939 0)
(-0.0727713 0.0118966 0)
(-0.0751703 0.0108214 0)
(-0.0763582 0.00867019 0)
(-0.07674 0.00542639 0)
(-0.076684 0.00121776 0)
(-0.0765271 -0.00371606 0)
(-0.0765877 -0.00902877 0)
(-0.0771449 -0.0142503 0)
(-0.0783702 -0.0188012 0)
(-0.0802707 -0.0220812 0)
(-0.0826669 -0.0235552 0)
(-0.0851877 -0.0228472 0)
(-0.0873017 -0.0198402 0)
(-0.0883282 -0.014736 0)
(-0.0875909 -0.00827042 0)
(-0.0848494 -0.00167491 0)
(-0.0805932 0.00388577 0)
(-0.0145067 0.0353112 0)
(-0.0290883 0.027983 0)
(-0.0422395 0.0237185 0)
(-0.0527737 0.0209689 0)
(-0.0609202 0.0189698 0)
(-0.0668958 0.0171839 0)
(-0.0710016 0.0152161 0)
(-0.0735782 0.0127432 0)
(-0.0749953 0.00958569 0)
(-0.07562 0.00571186 0)
(-0.075797 0.00122003 0)
(-0.0758397 -0.00368245 0)
(-0.0760228 -0.00869247 0)
(-0.0765597 -0.0134201 0)
(-0.0775606 -0.0174173 0)
(-0.0789994 -0.0202414 0)
(-0.0807036 -0.0215222 0)
(-0.082362 -0.021032 0)
(-0.0835608 -0.0187504 0)
(-0.0838326 -0.0149076 0)
(-0.0827809 -0.0100478 0)
(-0.0802972 -0.004952 0)
(-0.0766799 -0.000335798 0)
(-0.012796 0.0546363 0)
(-0.0261947 0.0430354 0)
(-0.0385655 0.0355402 0)
(-0.0485087 0.0301654 0)
(-0.0562355 0.0259232 0)
(-0.0619562 0.0221975 0)
(-0.0659741 0.0185938 0)
(-0.0686005 0.0148207 0)
(-0.0701603 0.0107116 0)
(-0.0709776 0.00622509 0)
(-0.0713589 0.00143354 0)
(-0.0715784 -0.00349433 0)
(-0.0718643 -0.0083108 0)
(-0.0723785 -0.0127083 0)
(-0.0731909 -0.0163503 0)
(-0.0742621 -0.0189192 0)
(-0.0754413 -0.0201662 0)
(-0.076482 -0.0199603 0)
(-0.0770768 -0.0183287 0)
(-0.076909 -0.015478 0)
(-0.0757397 -0.0118017 0)
(-0.0735172 -0.00780947 0)
(-0.0704235 -0.00396295 0)
(-0.0108222 0.0715829 0)
(-0.0224733 0.056605 0)
(-0.0335494 0.0463772 0)
(-0.0425004 0.0386769 0)
(-0.0495237 0.0324122 0)
(-0.0547906 0.0269467 0)
(-0.0585659 0.0218808 0)
(-0.061119 0.0169406 0)
(-0.0627277 0.0119673 0)
(-0.0636697 0.00691125 0)
(-0.0642066 0.00181992 0)
(-0.0645686 -0.00317804 0)
(-0.0649396 -0.00789143 0)
(-0.0654412 -0.0120881 0)
(-0.0661175 -0.0155232 0)
(-0.0669265 -0.0179752 0)
(-0.0677442 -0.0192821 0)
(-0.0683815 -0.0193748 0)
(-0.0686152 -0.0182999 0)
(-0.06823 -0.0162283 0)
(-0.0670759 -0.0134437 0)
(-0.0651244 -0.0102897 0)
(-0.0624855 -0.00707881 0)
(-0.00874375 0.0857378 0)
(-0.018298 0.0682406 0)
(-0.0277279 0.0558284 0)
(-0.0353939 0.0461963 0)
(-0.0414964 0.0382189 0)
(-0.0461486 0.0312663 0)
(-0.0495531 0.0249453 0)
(-0.0519272 0.0189973 0)
(-0.0534994 0.0132706 0)
(-0.0544988 0.00770808 0)
(-0.0551403 0.00233435 0)
(-0.0556104 -0.00275981 0)
(-0.0560531 -0.00743517 0)
(-0.0565584 -0.0115243 0)
(-0.057153 -0.0148555 0)
(-0.0577974 -0.0172795 0)
(-0.0583929 -0.0186959 0)
(-0.0587965 -0.019074 0)
(-0.0588469 -0.0184667 0)
(-0.0583956 -0.0170112 0)
(-0.0573434 -0.0149143 0)
(-0.0556709 -0.0124159 0)
(-0.0534428 -0.00973752 0)
(-0.00663276 0.0968881 0)
(-0.0138953 0.0776742 0)
(-0.0214809 0.0636283 0)
(-0.0276861 0.0525122 0)
(-0.0327279 0.0431841 0)
(-0.0366545 0.035031 0)
(-0.0395955 0.0276834 0)
(-0.0417108 0.0209036 0)
(-0.0431778 0.0145494 0)
(-0.0441773 0.00855861 0)
(-0.0448789 0.00293575 0)
(-0.0454278 -0.00226162 0)
(-0.0459332 -0.00693885 0)
(-0.0464594 -0.0109817 0)
(-0.0470206 -0.0142754 0)
(-0.0475813 -0.0167246 0)
(-0.0480632 -0.0182715 0)
(-0.0483586 -0.01891 0)
(-0.0483499 -0.018693 0)
(-0.0479321 -0.0177304 0)
(-0.0470358 -0.0161762 0)
(-0.0456447 -0.014204 0)
(-0.0437953 -0.0119775 0)
(-0.00447975 0.104933 0)
(-0.00939096 0.08479 0)
(-0.0150726 0.0696436 0)
(-0.0197464 0.0575122 0)
(-0.0236695 0.0472168 0)
(-0.0268172 0.0381628 0)
(-0.0292419 0.0300252 0)
(-0.0310468 0.0225966 0)
(-0.0323598 0.0157487 0)
(-0.0333159 0.0094171 0)
(-0.0340426 0.0035908 0)
(-0.0346477 -0.00170025 0)
(-0.0352097 -0.00639794 0)
(-0.0357716 -0.0104301 0)
(-0.0363378 -0.0137254 0)
(-0.0368761 -0.0162279 0)
(-0.0373238 -0.0179095 0)
(-0.0375987 -0.0187796 0)
(-0.0376134 -0.0188887 0)
(-0.0372914 -0.0183258 0)
(-0.0365814 -0.017209 0)
(-0.0354678 -0.0156685 0)
(-0.0339696 -0.0138301 0)
(-0.00211253 0.109871 0)
(-0.00477088 0.0896114 0)
(-0.008675 0.0738852 0)
(-0.0118672 0.0611815 0)
(-0.0146887 0.0502942 0)
(-0.0170542 0.040631 0)
(-0.0189452 0.0319345 0)
(-0.0204135 0.0240378 0)
(-0.0215426 0.0168305 0)
(-0.0224257 0.0102503 0)
(-0.0231521 0.00427451 0)
(-0.023796 -0.00108826 0)
(-0.0244095 -0.00580862 0)
(-0.0250174 -0.0098466 0)
(-0.0256158 -0.0131632 0)
(-0.0261743 -0.0157306 0)
(-0.0266415 -0.0175414 0)
(-0.0269531 -0.0186144 0)
(-0.0270425 -0.0189972 0)
(-0.0268517 -0.0187635 0)
(-0.0263408 -0.0180061 0)
(-0.0254946 -0.0168264 0)
(-0.0243213 -0.0153243 0)
(0.000641772 0.111499 0)
(-2.68074e-05 0.0923104 0)
(-0.00242242 0.0765331 0)
(-0.00428744 0.0636143 0)
(-0.00609836 0.0524526 0)
(-0.00771499 0.0424438 0)
(-0.00907997 0.0334027 0)
(-0.0102048 0.0252086 0)
(-0.0111346 0.0177721 0)
(-0.0119255 0.0110354 0)
(-0.0126328 0.00496844 0)
(-0.0133016 -0.000436126 0)
(-0.0139606 -0.00516973 0)
(-0.0146189 -0.0092166 0)
(-0.0152652 -0.0125609 0)
(-0.0158699 -0.0151946 0)
(-0.016389 -0.0171239 0)
(-0.0167706 -0.0183734 0)
(-0.0169623 -0.0189874 0)
(-0.0169185 -0.0190281 0)
(-0.0166069 -0.018571 0)
(-0.0160124 -0.0176975 0)
(-0.0151365 -0.0164891 0)
(0.00330255 0.109021 0)
(0.00447895 0.0934002 0)
(0.00349382 0.0778447 0)
(0.00274588 0.0649776 0)
(0.00182745 0.0537692 0)
(0.000905854 0.0436343 0)
(4.50517e-05 0.0344394 0)
(-0.000740847 0.0261048 0)
(-0.00146468 0.0185613 0)
(-0.00215049 0.0117569 0)
(-0.00282368 0.00565802 0)
(-0.00350347 0.000246434 0)
(-0.0041988 -0.00448411 0)
(-0.0049053 -0.00853438 0)
(-0.00560466 -0.0119045 0)
(-0.00626677 -0.0145995 0)
(-0.00685264 -0.0166342 0)
(-0.00731895 -0.0180362 0)
(-0.00762305 -0.0188464 0)
(-0.00772786 -0.0191186 0)
(-0.00760597 -0.0189155 0)
(-0.00724282 -0.0183047 0)
(-0.00663576 -0.0173544 0)
(0.00536256 0.103307 0)
(0.0081978 0.0926571 0)
(0.00866631 0.0779302 0)
(0.00892787 0.0654003 0)
(0.00883128 0.0543233 0)
(0.00855859 0.0442423 0)
(0.00817846 0.0350616 0)
(0.00772406 0.0267285 0)
(0.0072102 0.0191903 0)
(0.00664102 0.012402 0)
(0.00601727 0.00632888 0)
(0.00534191 0.000946789 0)
(0.00462354 -0.00376026 0)
(0.00387849 -0.00780306 0)
(0.00313113 -0.0111917 0)
(0.00241264 -0.0139392 0)
(0.00175883 -0.0160651 0)
(0.00120717 -0.0175978 0)
(0.000793521 -0.0185751 0)
(0.000549024 -0.0190438 0)
(0.000497531 -0.0190577 0)
(0.000653175 -0.018674 0)
(0.00102124 -0.0179512 0)
(0.00634991 0.0955054 0)
(0.0106802 0.0900088 0)
(0.0126811 0.0768032 0)
(0.0139672 0.0649109 0)
(0.0146849 0.0541525 0)
(0.0150405 0.044295 0)
(0.0151262 0.0352822 0)
(0.0149999 0.0270802 0)
(0.0147025 0.0196508 0)
(0.0142634 0.0129563 0)
(0.0137068 0.006964 0)
(0.013055 0.00164765 0)
(0.012332 -0.00301298 0)
(0.0115645 -0.00703406 0)
(0.0107824 -0.0104306 0)
(0.0100183 -0.0132195 0)
(0.00930589 -0.0154218 0)
(0.00867859 -0.017065 0)
(0.00816738 -0.018184 0)
(0.00779912 -0.0188199 0)
(0.0075951 -0.0190196 0)
(0.00756908 -0.0188329 0)
(0.00772824 -0.0183108 0)
(0.00627555 0.0867693 0)
(0.0118528 0.0856612 0)
(0.0153421 0.0744253 0)
(0.0176936 0.063467 0)
(0.0192396 0.0532557 0)
(0.0202177 0.0438012 0)
(0.0207641 0.0351045 0)
(0.0209682 0.0271553 0)
(0.020897 0.0199308 0)
(0.020604 0.0134026 0)
(0.0201345 0.0075432 0)
(0.0195284 0.00232829 0)
(0.0188229 -0.00226225 0)
(0.0180539 -0.00624547 0)
(0.0172562 -0.00963727 0)
(0.0164638 -0.0124547 0)
(0.0157092 -0.014718 0)
(0.0150227 -0.0164528 0)
(0.0144317 -0.0176904 0)
(0.0139597 -0.0184676 0)
(0.0136262 -0.018826 0)
(0.0134448 -0.0188097 0)
(0.0134242 -0.0184644 0)
(0.0055991 0.0780528 0)
(0.0120356 0.0800151 0)
(0.0167705 0.0708352 0)
(0.0201235 0.0610577 0)
(0.0224699 0.0516306 0)
(0.0240572 0.0427629 0)
(0.0250577 0.0345274 0)
(0.0255927 0.0269464 0)
(0.0257559 0.0200164 0)
(0.0256238 0.0137221 0)
(0.0252607 0.00804456 0)
(0.0247222 0.00296549 0)
(0.0240571 -0.00153115 0)
(0.023309 -0.00545932 0)
(0.0225174 -0.00883227 0)
(0.0217175 -0.0116643 0)
(0.0209407 -0.013973 0)
(0.0202148 -0.0157805 0)
(0.0195642 -0.0171148 0)
(0.0190099 -0.0180094 0)
(0.0185701 -0.0185017 0)
(0.0182585 -0.0186319 0)
(0.0180854 -0.0184412 0)
(0.00481614 0.0698691 0)
(0.0116719 0.0735321 0)
(0.0172844 0.0662342 0)
(0.0214601 0.0577769 0)
(0.0245078 0.0493207 0)
(0.0266489 0.0412028 0)
(0.0280721 0.0335609 0)
(0.0289233 0.026453 0)
(0.0293187 0.0198988 0)
(0.0293543 0.0138996 0)
(0.029111 0.0084488 0)
(0.0286573 0.00353769 0)
(0.0280518 -0.000842062 0)
(0.0273451 -0.00469793 0)
(0.02658 -0.00803741 0)
(0.0257928 -0.0108696 0)
(0.025014 -0.0132073 0)
(0.0242687 -0.0150688 0)
(0.0235784 -0.0164787 0)
(0.0229623 -0.0174675 0)
(0.0224375 -0.0180703 0)
(0.0220182 -0.0183244 0)
(0.0217167 -0.0182681 0)
(0.00421079 0.0623073 0)
(0.0111391 0.0666346 0)
(0.0172534 0.0609294 0)
(0.0220036 0.0538127 0)
(0.0255874 0.0464359 0)
(0.0281767 0.0391861 0)
(0.0299566 0.0322423 0)
(0.0310847 0.0256934 0)
(0.0316918 0.0195828 0)
(0.031888 0.0139304 0)
(0.0317662 0.00874485 0)
(0.0314049 0.00402987 0)
(0.0308708 -0.000212285 0)
(0.0302193 -0.00397981 0)
(0.0294963 -0.00727185 0)
(0.0287386 -0.01009 0)
(0.0279749 -0.0124407 0)
(0.0272276 -0.0143372 0)
(0.0265151 -0.0158012 0)
(0.0258544 -0.0168616 0)
(0.0252622 -0.0175522 0)
(0.0247539 -0.0179091 0)
(0.024344 -0.0179682 0)
(0.00385959 0.0552379 0)
(0.0106695 0.05963 0)
(0.016983 0.0552343 0)
(0.022052 0.0493997 0)
(0.0259746 0.043137 0)
(0.0288713 0.0368194 0)
(0.030911 0.0306405 0)
(0.0322516 0.0247099 0)
(0.0330293 0.0190918 0)
(0.0333614 0.0138251 0)
(0.0333479 0.00893442 0)
(0.0330741 0.00443779 0)
(0.0326116 0.0003499 0)
(0.0320199 -0.0033161 0)
(0.0313467 -0.00654877 0)
(0.0306286 -0.00934009 0)
(0.029892 -0.0116883 0)
(0.0291555 -0.0136012 0)
(0.0284335 -0.0150978 0)
(0.0277406 -0.0162071 0)
(0.0270937 -0.0169635 0)
(0.0265103 -0.0174031 0)
(0.0260078 -0.0175605 0)
(0.00372844 0.0484711 0)
(0.0103594 0.0526916 0)
(0.0166731 0.0494021 0)
(0.0218453 0.0447658 0)
(0.025915 0.0396027 0)
(0.0289662 0.0342343 0)
(0.0311512 0.0288484 0)
(0.0326209 0.0235663 0)
(0.03351 0.0184686 0)
(0.0339365 0.013611 0)
(0.0340029 0.00903426 0)
(0.033797 0.00477055 0)
(0.0333937 0.000847887 0)
(0.0328548 -0.00270788 0)
(0.0322291 -0.00587297 0)
(0.0315525 -0.00862757 0)
(0.0308481 -0.0109598 0)
(0.0301291 -0.0128709 0)
(0.0294043 -0.0143783 0)
(0.0286857 -0.0155138 0)
(0.0279909 -0.0163149 0)
(0.0273409 -0.0168189 0)
(0.026757 -0.0170598 0)
(0.0037504 0.0418305 0)
(0.0102245 0.0458836 0)
(0.0164376 0.0436021 0)
(0.0215581 0.0400986 0)
(0.0256108 0.036001 0)
(0.0286706 0.0315673 0)
(0.0308816 0.0269717 0)
(0.0323873 0.0223417 0)
(0.0333165 0.0177714 0)
(0.033783 0.0133311 0)
(0.0338873 0.00907574 0)
(0.0337169 0.005051 0)
(0.0333474 0.00129784 0)
(0.0328419 -0.00214476 0)
(0.0322503 -0.00523928 0)
(0.0316075 -0.00795185 0)
(0.0309327 -0.0102578 0)
(0.0302312 -0.0121499 0)
(0.0295036 -0.0136462 0)
(0.0287587 -0.0147851 0)
(0.0280165 -0.0156109 0)
(0.0273032 -0.016164 0)
(0.0266453 -0.0164771 0)
(0.0038669 0.0351789 0)
(0.0102591 0.0391946 0)
(0.016349 0.037926 0)
(0.0213178 0.0355367 0)
(0.0252206 0.0324767 0)
(0.0281573 0.0289481 0)
(0.0302798 0.0251177 0)
(0.0317273 0.0211221 0)
(0.0326203 0.0170681 0)
(0.0330651 0.0130391 0)
(0.0331564 0.00910214 0)
(0.0329785 0.00531442 0)
(0.0326058 0.00172844 0)
(0.0321023 -0.00160427 0)
(0.0315192 -0.00463166 0)
(0.0308919 -0.00730324 0)
(0.0302356 -0.00957742 0)
(0.0295447 -0.011435 0)
(0.0288073 -0.0128975 0)
(0.0280279 -0.0140175 0)
(0.0272324 -0.0148507 0)
(0.0264549 -0.0154416 0)
(0.0257285 -0.0158208 0)
(0.00405111 0.0284087 0)
(0.0104765 0.0325568 0)
(0.016471 0.0324089 0)
(0.0212227 0.0311812 0)
(0.0248637 0.0291526 0)
(0.0275594 0.0264944 0)
(0.0294882 0.0233887 0)
(0.0307889 0.0199927 0)
(0.0315723 0.0164294 0)
(0.0319334 0.0127943 0)