/*--------------------------------*- C++ -*----------------------------------*\
  =========                 |
  \\      /  F ield         | OpenFOAM: The Open Source CFD Toolbox
   \\    /   O peration     | Website:  https://openfoam.org
    \\  /    A nd           | Version:  9
     \\/     M anipulation  |
\*---------------------------------------------------------------------------*/
FoamFile
{
    format      ascii;
    class       volScalarField;
    location    "3.75";
    object      p;
}
// * * * * * * * * * * * * * * * * * * * * * * * * * * * * * * * * * * * * * //

dimensions      [0 2 -2 0 0 0 0];

internalField   nonuniform List<scalar> 
918
(
25.205
24.9131
1.13683
24.6083
1.02775
24.4296
4.5886
15.262
20.9735
3.94738
3.24439
16.1315
21.9725
18.2136
14.3628
1.19338
15.7708
3.17301
20.1773
1.3611
14.3867
22.1831
23.2725
21.0209
15.8076
15.6555
19.9349
1.31703
0.133184
0.417029
0.953063
0.468954
0.326931
22.9665
23.6431
23.5814
17.3711
11.455
5.03584
5.33736
4.28921
4.02325
15.3098
15.4372
7.54789
15.2125
15.188
18.4024
20.8408
20.9828
21.2824
21.0682
21.4557
6.47465
3.8566
3.70369
3.99983
4.06573
3.53388
3.43177
3.52443
3.09309
2.92765
15.7293
16.2623
16.3586
16.0159
15.9659
23.7891
23.0322
23.3669
22.4733
22.6187
21.5486
21.163
18.5895
18.942
17.8151
17.4338
14.1365
14.0751
14.6073
14.8342
0.157789
1.41233
1.58934
15.779
15.8165
15.7916
15.7776
9.09227
3.23059
3.27406
19.618
19.1954
22.2049
22.4707
21.9171
21.7317
1.60496
1.74034
1.1671
1.18058
0.963927
14.6959
14.8645
20.9732
20.1424
15.8909
15.7499
15.8296
13.2135
15.6028
15.6809
16.6628
17.1121
16.289
16.7363
19.5048
19.0868
20.3714
20.8087
0.473967
0.179113
0.965537
0.550901
0.786985
17.244
17.0287
17.4417
17.5121
17.7085
11.4535
11.3577
11.4457
11.3655
5.75168
6.09117
3.38959
3.76967
3.56506
10.8762
15.4815
15.5491
6.46891
7.20319
6.82775
8.07334
8.48969
17.7975
18.2062
17.9587
19.4733
18.6855
19.0306
21.5376
21.0302
21.3292
6.88951
7.2024
6.14892
5.81433
3.23314
3.54759
3.44311
4.0728
4.0307
3.8052
3.99282
3.27981
3.12954
3.92295
3.67436
3.80987
2.72158
2.54466
15.4884
15.2798
16.018
16.2331
16.9362
16.7969
16.4877
16.664
20.3581
20.7616
20.7951
20.4109
12.7238
11.0963
15.0952
15.3588
0.315815
0.276323
0.154581
0.485716
0.400835
0.184542
2.40448
2.21236
1.78278
2.04897
15.7953
15.7736
9.33668
9.5685
8.90563
8.61852
18.0612
18.1979
18.8186
18.4238
2.35773
1.93709
2.15518
15.0646
14.8992
15.0383
12.6718
12.1122
13.7286
14.0799
15.7598
15.7539
15.7635
17.0196
17.3375
21.1595
21.4301
21.257
21.6428
22.7056
22.3569
21.9721
16.4444
16.8423
16.6815
17.8911
17.5738
17.7658
17.0344
17.3322
17.1739
11.3764
11.4171
11.1522
11.2338
11.3039
11.2438
10.7931
10.662
15.7138
15.6028
15.672
9.01126
9.47636
5.46155
5.15816
14.3798
15.041
14.6886
19.9879
19.3102
20.0432
19.6723
19.2224
19.5458
11.421
11.354
11.4038
16.261
15.612
15.9559
2.94172
2.52122
2.68506
9.78277
9.8951
7.58925
8.29121
7.94876
17.6384
17.9791
18.6589
17.7709
18.2383
18.7455
18.5237
10.9664
11.1076
11.0168
10.6316
10.5067
11.4519
10.033
10.6334
4.24163
4.86602
4.56264
10.0738
10.3637
10.1944
20.3662
20.9007
0.82168
1.31017
21.3191
21.0403
0.271937
0.477411
15.595
13.8066
8.998
18.9115
18.4007
20.7003
4.16065
6.64627
3.46273
3.91122
3.0641
16.3348
16.0553
15.109
0.549795
1.51593
1.76766
3.95569
20.1452
19.4765
20.5832
20.9064
20.9578
0.751553
0.951259
0.611775
1.4057
1.1098
1.30642
17.3828
17.434
5.77135
20.5878
20.8893
20.9082
19.3735
20.3305
19.3888
1.20174
0.865233
0.978997
11.8705
13.837
15.5592
15.0952
15.3087
15.334
15.09
16.2121
15.8986
15.848
16.3235
15.4713
15.246
9.47052
8.07958
9.88334
9.56806
18.8171
18.4166
18.2611
18.0171
19.8176
19.3447
20.1925
19.5752
20.0355
20.3253
4.1339
4.19192
4.08289
3.66752
6.7796
7.2944
6.13533
6.18341
4.84158
3.2006
3.16092
3.48814
3.50437
3.65945
3.15726
3.52296
3.20293
2.7399
2.70601
3.53053
3.24093
3.27531
16.3295
16.3554
16.0649
16.0563
16.1855
16.3752
15.3389
15.7915
15.4717
14.1588
14.8088
14.3854
0.836647
0.740473
0.617417
1.6124
1.70491
1.2564
0.979718
1.27071
1.18695
0.976967
1.69567
1.75043
4.38913
3.84271
9.68531
8.76276
7.81997
18.561
19.3436
18.5273
19.7452
20.1616
20.2718
19.8939
19.3863
17.4926
17.5168
17.1663
17.1316
6.26762
5.08021
6.55343
6.21119
11.5533
15.7874
13.6152
12.5391
12.8421
15.0039
15.2716
14.9029
15.1629
14.6419
14.1068
14.8937
14.3712
14.4878
14.1772
17.0559
17.5299
17.1364
16.5558
16.5781
11.6263
13.0156
7.18182
7.33435
8.81938
8.28262
14.8698
15.4327
15.4703
14.9681
15.1573
15.2304
14.9567
15.103
15.2622
15.22
13.023
11.9342
10.8501
10.7677
15.7321
13.5741
14.1614
13.8142
17.8655
18.3688
18.0013
17.4469
17.9027
17.4394
17.4246
17.5959
18.9369
18.6807
18.4614
18.846
4.19204
4.11434
4.78448
4.37167
4.23747
3.8559
4.59541
5.78243
5.41868
7.56567
8.09999
5.66606
4.81763
4.97105
5.98108
6.54033
6.58457
4.75907
5.10065
5.56256
5.1239
5.80591
5.37432
3.51058
3.73511
3.76037
3.649
3.98807
4.49073
4.07246
3.03435
3.2369
2.90821
2.71782
4.25428
3.96253
3.92795
4.47274
1.5062
1.68375
1.81259
2.81382
2.37542
2.49783
17.0018
16.6342
16.805
15.8643
16.0009
15.958
15.5111
17.0742
16.7994
16.9272
15.5266
15.6855
15.4232
15.6836
16.1411
16.3762
17.2701
16.9964
16.2094
16.4081
16.048
15.9605
15.2248
14.7783
14.6158
1.33741
0.981391
1.17863
1.1206
0.798401
0.95943
2.55252
1.97265
2.34501
2.07685
2.31439
1.60713
1.51808
5.57217
6.32124
5.36567
4.71357
4.35277
9.73861
9.89188
8.93577
8.68875
9.00109
9.25564
9.18654
7.77529
8.2886
8.10584
10.9276
10.5488
19.3239
19.27
18.9468
18.7956
19.01
7.32726
8.88516
8.29059
9.2149
11.2551
11.5855
10.2589
9.6384
10.3542
10.4054
15.7098
15.8215
15.3492
15.7089
15.7602
13.5396
14.3209
14.9025
14.691
15.3338
15.4091
14.6848
15.131
14.996
14.3993
14.3367
13.9297
14.0935
13.6924
13.5232
15.8381
15.7172
15.9845
15.5163
15.8132
15.3206
15.5931
15.7691
15.9573
15.1035
14.5111
14.4889
14.8757
14.7129
15.0489
15.1993
10.3358
10.8858
11.3893
11.9459
11.674
11.4279
11.2685
11.6073
11.6303
11.8647
11.7779
11.5826
12.5621
14.7659
15.0241
15.2162
14.9849
14.946
14.6716
14.9705
14.9076
15.545
15.5799
15.6763
14.3465
14.6336
14.7802
14.7019
12.7309
11.4691
11.2143
10.9793
9.26344
9.62074
12.3565
11.3656
10.4924
10.6223
13.8117
12.4892
13.2823
13.5353
12.325
11.9985
14.3807
15.2379
15.4128
15.0533
13.457
13.5007
13.9456
14.3616
14.5221
15.0301
17.6838
18.2008
18.2824
18.0191
17.8942
17.9686
17.7079
17.8246
18.2844
18.3885
18.2222
3.80727
3.91681
4.01057
3.89993
4.25593
4.15479
5.04539
5.05406
4.13193
4.31583
4.37523
4.36368
4.01021
3.97533
5.56723
5.84098
6.09689
5.70551
7.07643
7.50277
8.02042
7.82539
6.64363
6.62909
6.91271
4.25059
4.16198
3.97903
4.37285
4.49385
3.1976
2.85896
2.65387
3.18699
3.35598
2.54547
2.11706
2.23245
2.63415
2.57315
2.29722
16.8385
16.6198
16.5825
16.3684
16.4353
16.8353
17.0422
16.8093
16.9414
16.9768
16.6091
16.4842
16.6747
2.09733
1.77312
1.87448
1.99029
1.90792
1.78389
1.90733
8.51411
7.40138
7.77721
7.11907
5.54179
5.99487
10.6023
10.9507
11.0086
10.6598
10.4701
10.7389
10.696
10.6971
9.14446
10.1958
9.75332
10.1425
10.2297
10.2899
9.95964
10.1906
11.6315
11.713
10.5383
11.1536
10.5982
9.38253
9.5207
10.3531
11.2064
11.4063
11.2861
10.9321
10.7263
11.1626
11.1386
11.3017
11.2874
9.75903
9.76879
9.39497
15.523
15.593
15.7091
15.5788
15.768
15.6783
15.4449
15.703
15.8157
15.5997
12.1313
12.2121
12.489
13.3269
13.4257
13.0316
12.3517
14.2246
13.8255
14.6388
14.5784
14.5609
14.1894
13.9333
14.2964
11.6033
12.8944
12.4307
12.7546
11.6701
10.9563
14.6099
14.6689
14.7841
15.1
15.0307
15.5482
17.6501
17.5091
17.551
17.5887
17.1844
17.2036
4.9528
4.6936
5.39619
5.40993
5.02425
4.72564
2.63033
2.44466
2.21942
2.10073
2.24331
2.39629
9.22432
9.14205
7.48233
8.35126
7.23985
6.27656
6.17816
7.21917
8.28276
8.39779
9.32501
10.0004
9.62389
9.45326
8.7839
9.08644
11.1339
11.2443
11.1404
11.427
11.0126
12.8148
12.3893
12.7661
14.4492
14.1122
13.4569
13.3286
13.4151
14.0393
13.0819
12.3883
13.034
13.6796
13.6744
12.1805
11.9199
12.3791
12.2786
11.2111
11.7395
11.4946
11.8385
11.5162
)
;

boundaryField
{
    wall-4
    {
        type            zeroGradient;
    }
    velocity-inlet-5
    {
        type            zeroGradient;
    }
    velocity-inlet-6
    {
        type            zeroGradient;
    }
    pressure-outlet-7
    {
        type            fixedValue;
        value           uniform 0;
    }
    wall-8
    {
        type            zeroGradient;
    }
    frontAndBackPlanes
    {
        type            empty;
    }
}


// ************************************************************************* //
