/*--------------------------------*- C++ -*----------------------------------*\
  =========                 |
  \\      /  F ield         | OpenFOAM: The Open Source CFD Toolbox
   \\    /   O peration     | Website:  https://openfoam.org
    \\  /    A nd           | Version:  9
     \\/     M anipulation  |
\*---------------------------------------------------------------------------*/
FoamFile
{
    format      ascii;
    class       volVectorField;
    location    "1.93";
    object      U;
}
// * * * * * * * * * * * * * * * * * * * * * * * * * * * * * * * * * * * * * //

dimensions      [0 1 -1 0 0 0 0];

internalField   nonuniform List<vector> 
2268
(
(-0.0119244 0.00421988 0)
(-0.0148934 0.000323709 0)
(-0.0126038 -0.00140162 0)
(-0.00875151 -0.00169652 0)
(-0.0044166 -0.00160667 0)
(-0.000348263 -0.00142336 0)
(0.00340753 -0.00125613 0)
(0.00682439 -0.0011112 0)
(0.00996415 -0.000990195 0)
(0.0128561 -0.000878715 0)
(0.0154809 -0.000761135 0)
(0.0177756 -0.000619268 0)
(0.0196107 -0.00041458 0)
(0.0207178 -8.23882e-05 0)
(0.020625 0.000432218 0)
(0.018729 0.00118075 0)
(0.0143561 0.00210041 0)
(0.00740329 0.00397522 0)
(-0.00779969 0.00780629 0)
(-0.0313951 0.00833697 0)
(-0.0488639 0.00308619 0)
(-0.0520853 -0.00525441 0)
(-0.0253757 -0.0129734 0)
(-0.00804103 0.00849177 0)
(-0.00826121 0.000646156 0)
(-0.00688541 -0.00200433 0)
(-0.00468072 -0.00275974 0)
(-0.00190216 -0.00283531 0)
(0.000992967 -0.00268537 0)
(0.0038936 -0.00249919 0)
(0.00673341 -0.00232379 0)
(0.00951501 -0.00216905 0)
(0.0122233 -0.00201016 0)
(0.0148057 -0.00181583 0)
(0.0171774 -0.00154781 0)
(0.0192005 -0.00113013 0)
(0.0206305 -0.000445191 0)
(0.0211036 0.000619898 0)
(0.0201178 0.00214569 0)
(0.0169776 0.00418126 0)
(0.0114993 0.00751459 0)
(0.00238318 0.0129043 0)
(-0.0105556 0.0140838 0)
(-0.0218104 0.00708221 0)
(-0.0300663 -0.00607648 0)
(-0.0194636 -0.0269355 0)
(-0.00309957 0.010866 0)
(-0.00400479 0.000606938 0)
(-0.00333762 -0.00260582 0)
(-0.00219077 -0.0036347 0)
(-0.00041207 -0.00386875 0)
(0.00169402 -0.00380298 0)
(0.00400563 -0.00365671 0)
(0.00644331 -0.00350357 0)
(0.00897988 -0.00335879 0)
(0.0115729 -0.0031874 0)
(0.0141495 -0.00294574 0)
(0.0166176 -0.00257957 0)
(0.0188465 -0.0019812 0)
(0.0206195 -0.00098978 0)
(0.0216241 0.000557237 0)
(0.0214657 0.00277367 0)
(0.0196179 0.00575981 0)
(0.0159594 0.0100497 0)
(0.0109893 0.0160537 0)
(0.00451579 0.0178528 0)
(-0.00275302 0.0109388 0)
(-0.0120928 -0.00432485 0)
(-0.0096557 -0.0352787 0)
(0.000275424 0.0116741 0)
(-0.000956193 0.000823749 0)
(-0.00088909 -0.00282749 0)
(-0.000484487 -0.0041494 0)
(0.000565847 -0.00460764 0)
(0.00207343 -0.00470167 0)
(0.00392912 -0.0046665 0)
(0.006055 -0.00460031 0)
(0.00841097 -0.00452163 0)
(0.0109375 -0.0043852 0)
(0.0135483 -0.00413883 0)
(0.0161533 -0.00371824 0)
(0.0186383 -0.0029893 0)
(0.0208177 -0.00175296 0)
(0.0224311 0.000185856 0)
(0.0231836 0.00295277 0)
(0.0227409 0.00664248 0)
(0.0210526 0.0115667 0)
(0.0191536 0.0176639 0)
(0.0169825 0.0200621 0)
(0.0129722 0.0141756 0)
(0.00456695 -0.00145861 0)
(0.00130165 -0.0373681 0)
(0.00210932 0.0112491 0)
(0.00109756 0.00108053 0)
(0.00075488 -0.00277874 0)
(0.00064858 -0.0043693 0)
(0.00116015 -0.00508739 0)
(0.00220472 -0.00539563 0)
(0.00369755 -0.00553204 0)
(0.00557479 -0.005612 0)
(0.00779658 -0.00565412 0)
(0.0102945 -0.00560125 0)
(0.0129745 -0.00539689 0)
(0.0157555 -0.00497403 0)
(0.018548 -0.00417785 0)
(0.0212014 -0.00277786 0)
(0.0235066 -0.000560528 0)
(0.0252608 0.0025926 0)
(0.0263048 0.00673185 0)
(0.0266966 0.0119764 0)
(0.0273941 0.0178993 0)
(0.0284142 0.0207348 0)
(0.0272155 0.0165201 0)
(0.0206057 0.00240674 0)
(0.0127684 -0.0323738 0)
(0.00291548 0.0102117 0)
(0.00231999 0.00128031 0)
(0.00175371 -0.00255658 0)
(0.00131626 -0.00437375 0)
(0.00143963 -0.00536002 0)
(0.00212999 -0.00591416 0)
(0.0033353 -0.00626647 0)
(0.00501539 -0.00654227 0)
(0.00714082 -0.00675499 0)
(0.00964052 -0.00683217 0)
(0.0124169 -0.00671769 0)
(0.0154039 -0.00635032 0)
(0.0185434 -0.00555959 0)
(0.0217223 -0.00408855 0)
(0.0247811 -0.00171753 0)
(0.0275993 0.00164429 0)
(0.0301639 0.00598123 0)
(0.0326381 0.0112641 0)
(0.0357719 0.0168898 0)
(0.0394969 0.0200601 0)
(0.0410364 0.017819 0)
(0.0370957 0.0072335 0)
(0.0257064 -0.0223339 0)
(0.00315451 0.00886636 0)
(0.00291714 0.00139796 0)
(0.00225401 -0.00224195 0)
(0.00161888 -0.00423293 0)
(0.00147276 -0.0054796 0)
(0.00189701 -0.00629587 0)
(0.00287734 -0.00689642 0)
(0.00440342 -0.00741028 0)
(0.00646296 -0.00783945 0)
(0.00898663 -0.00809089 0)
(0.0118762 -0.00811397 0)
(0.0150856 -0.00786274 0)
(0.0185926 -0.00715497 0)
(0.0223232 -0.00570959 0)
(0.0261649 -0.00330948 0)
(0.0300681 9.04126e-05 0)
(0.0341396 0.00439948 0)
(0.0386234 0.00948189 0)
(0.0441113 0.0146988 0)
(0.0504899 0.0180626 0)
(0.0551116 0.0176836 0)
(0.055593 0.012223 0)
(0.0427765 -0.00884793 0)
(0.00312867 0.00734875 0)
(0.0030803 0.00147556 0)
(0.00240659 -0.0018669 0)
(0.00166574 -0.00398605 0)
(0.00133704 -0.00548312 0)
(0.00156421 -0.00657557 0)
(0.00237212 -0.00745488 0)
(0.00378082 -0.00824795 0)
(0.00579747 -0.00894118 0)
(0.00835742 -0.00941421 0)
(0.0113645 -0.00962618 0)
(0.0147947 -0.00955687 0)
(0.0186642 -0.00901852 0)
(0.0229405 -0.00770934 0)
(0.0275567 -0.00541869 0)
(0.0325237 -0.00215212 0)
(0.0380389 0.001936 0)
(0.0444094 0.00656551 0)
(0.0521497 0.0111869 0)
(0.061221 0.0144086 0)
(0.0694734 0.0152075 0)
(0.0743908 0.0152959 0)
(0.0720279 0.0330898 0)
(-0.0765019 0.0231906 0)
(-0.105564 0.00309675 0)
(-0.0705533 -0.0182708 0)
(-0.0181856 -0.0177192 0)
(0.0236005 -0.0140819 0)
(0.0589689 -0.0128077 0)
(0.0900592 -0.0105877 0)
(0.112246 -0.0039325 0)
(0.109484 0.0056932 0)
(0.0750343 0.0126666 0)
(0.0305194 0.0109015 0)
(0.00593135 0.00529924 0)
(-0.00434276 0.00417388 0)
(-0.0209236 0.00713417 0)
(-0.0484497 0.00834653 0)
(-0.0658504 0.00427876 0)
(-0.0713494 0.000460098 0)
(-0.0734535 -0.0057588 0)
(-0.0368011 -0.0179407 0)
(-0.0755435 0.051536 0)
(-0.0550444 0.0023571 0)
(-0.0295963 -0.0286511 0)
(0.00396649 -0.0290583 0)
(0.0286771 -0.0231335 0)
(0.0476764 -0.0199137 0)
(0.0637148 -0.0162938 0)
(0.0754983 -0.00518839 0)
(0.0748185 0.0128069 0)
(0.0540856 0.0241565 0)
(0.0246269 0.0206352 0)
(0.00712669 0.0103923 0)
(-0.00227341 0.00857335 0)
(-0.0142223 0.0126078 0)
(-0.0304151 0.0142602 0)
(-0.0374852 0.0064183 0)
(-0.033797 0.000245145 0)
(-0.0399659 -0.0062421 0)
(-0.0238898 -0.0343072 0)
(-0.0507516 0.0691568 0)
(-0.0169999 -0.00668315 0)
(0.000133249 -0.0390324 0)
(0.0186516 -0.0373777 0)
(0.0295654 -0.0288738 0)
(0.0365853 -0.0240461 0)
(0.0421573 -0.0196798 0)
(0.0459239 -0.00660852 0)
(0.0432556 0.0168214 0)
(0.029909 0.0315151 0)
(0.012913 0.0275911 0)
(0.00188543 0.0147041 0)
(-0.00536995 0.0125016 0)
(-0.0127912 0.016369 0)
(-0.0194892 0.0167586 0)
(-0.018479 0.0057195 0)
(-0.00919475 -0.0009438 0)
(-0.0133833 -0.00595715 0)
(-0.00480218 -0.0436511 0)
(-0.02251 0.078716 0)
(0.0169787 -0.0157915 0)
(0.0255685 -0.0453766 0)
(0.0297157 -0.0407795 0)
(0.0280038 -0.03036 0)
(0.0249386 -0.0247233 0)
(0.0225027 -0.0200062 0)
(0.0200558 -0.00593413 0)
(0.0153565 0.019887 0)
(0.00854146 0.0360663 0)
(0.000499527 0.0320536 0)
(-0.00511054 0.0176143 0)
(-0.0101969 0.0151672 0)
(-0.0140533 0.0180567 0)
(-0.014383 0.0163684 0)
(-0.00661226 0.00242019 0)
(0.00745423 -0.00358394 0)
(0.00735183 -0.00573243 0)
(0.0120393 -0.0427119 0)
(0.00620211 0.0733816 0)
(0.0493476 -0.0234072 0)
(0.0479587 -0.0468756 0)
(0.0373114 -0.0385488 0)
(0.0238133 -0.0272548 0)
(0.0119423 -0.0219652 0)
(0.00331034 -0.0177179 0)
(-0.00387401 -0.00345801 0)
(-0.0099451 0.0218649 0)
(-0.0119831 0.0378907 0)
(-0.0127746 0.0336551 0)
(-0.0132529 0.0191278 0)
(-0.0159576 0.0165836 0)
(-0.0167563 0.0180767 0)
(-0.0127967 0.0136475 0)
(-0.000787811 -0.00307836 0)
(0.0169001 -0.00794838 0)
(0.0216891 -0.00552994 0)
(0.0238871 -0.0359665 0)
(0.037315 0.0548022 0)
(0.0815934 -0.0300741 0)
(0.066435 -0.0424447 0)
(0.0407784 -0.0306175 0)
(0.016646 -0.0198613 0)
(-0.00276549 -0.0162114 0)
(-0.0162143 -0.0135472 0)
(-0.0263194 0.00022673 0)
(-0.0328074 0.0231364 0)
(-0.0318417 0.0372539 0)
(-0.0261947 0.0323619 0)
(-0.0224743 0.0193587 0)
(-0.0227417 0.016738 0)
(-0.020451 0.0167288 0)
(-0.0134969 0.00956256 0)
(1.20139e-05 -0.00976966 0)
(0.0204714 -0.0145587 0)
(0.0312023 -0.00576131 0)
(0.0332346 -0.0255061 0)
(0.0806393 0.027808 0)
(0.113452 -0.0332954 0)
(0.0790202 -0.0306123 0)
(0.0393373 -0.0172303 0)
(0.00627677 -0.00873726 0)
(-0.0193272 -0.00797917 0)
(-0.0364693 -0.00815733 0)
(-0.047797 0.00427953 0)
(-0.053263 0.0237883 0)
(-0.049357 0.0346328 0)
(-0.0398075 0.0292692 0)
(-0.0334365 0.0184441 0)
(-0.0307272 0.0155442 0)
(-0.0249758 0.0141301 0)
(-0.0155529 0.00477315 0)
(-0.00167629 -0.017023 0)
(0.0211807 -0.0236959 0)
(0.0384301 -0.00730603 0)
(0.0430122 -0.0113049 0)
(0.144547 -0.0406945 0)
(0.138219 -0.0305645 0)
(0.0832048 -0.0106061 0)
(0.0324587 0.000975603 0)
(-0.00731534 0.00539358 0)
(-0.0377138 0.00220763 0)
(-0.0578011 -0.00203034 0)
(-0.0694081 0.00812245 0)
(-0.0729046 0.0237122 0)
(-0.0658356 0.0311516 0)
(-0.054404 0.0253579 0)
(-0.0460792 0.016512 0)
(-0.0398543 0.013143 0)
(-0.0301377 0.010465 0)
(-0.0177158 -0.000379941 0)
(-0.00280132 -0.0245827 0)
(0.0218968 -0.034244 0)
(0.0430493 -0.0105009 0)
(0.051301 0.00663861 0)
(0.00307256 0.0063399 0)
(0.0030661 0.00179441 0)
(0.00235272 -0.00115709 0)
(0.00152085 -0.00346138 0)
(0.000991957 -0.00535244 0)
(0.000993478 -0.00690967 0)
(0.00160716 -0.00827617 0)
(0.00288519 -0.00956743 0)
(0.00485729 -0.0107503 0)
(0.00747384 -0.011652 0)
(0.0106503 -0.0122473 0)
(0.0143898 -0.0125723 0)
(0.0187615 -0.0124532 0)
(0.0238102 -0.0115751 0)
(0.0295589 -0.00973577 0)
(0.0361101 -0.00701599 0)
(0.0437005 -0.00366325 0)
(0.0527315 -0.000101004 0)
(0.0637257 0.00318691 0)
(0.076892 0.0053604 0)
(0.0917403 0.00616829 0)
(0.108875 0.00829215 0)
(0.136612 0.020849 0)
(0.00224516 0.000845854 0)
(0.00224536 0.000916565 0)
(0.001875 -0.000841631 0)
(0.00110249 -0.00312776 0)
(0.000414414 -0.0053548 0)
(0.000309017 -0.00736202 0)
(0.000929408 -0.00925119 0)
(0.00221518 -0.0111145 0)
(0.00413434 -0.0128888 0)
(0.00674458 -0.0143341 0)
(0.0100529 -0.0154502 0)
(0.0139717 -0.0163766 0)
(0.0185264 -0.0169816 0)
(0.0239936 -0.0169696 0)
(0.0307068 -0.0161543 0)
(0.0388824 -0.0147051 0)
(0.0486667 -0.0129433 0)
(0.0602503 -0.0112801 0)
(0.0739565 -0.0103019 0)
(0.0900558 -0.0106914 0)
(0.108613 -0.0128502 0)
(0.130154 -0.0166634 0)
(0.158731 -0.0236173 0)
(-0.000938512 0.00232903 0)
(0.00106981 0.00160754 0)
(0.00155927 -1.99286e-05 0)
(8.67105e-05 -0.00248469 0)
(-0.00147244 -0.0049533 0)
(-0.00150537 -0.00720834 0)
(-0.000143407 -0.00955095 0)
(0.0016589 -0.0119816 0)
(0.00336616 -0.0143728 0)
(0.00572196 -0.0162742 0)
(0.00925531 -0.0178291 0)
(0.013072 -0.0194288 0)
(0.0165987 -0.0207537 0)
(0.0210692 -0.0213861 0)
(0.0280945 -0.0212843 0)
(0.0380432 -0.0209047 0)
(0.0502307 -0.0205899 0)
(0.0638162 -0.0206873 0)
(0.078559 -0.021707 0)
(0.0946538 -0.0240452 0)
(0.11323 -0.0276708 0)
(0.136221 -0.03237 0)
(0.165697 -0.0384539 0)
(-0.0110197 -0.00159296 0)
(-0.000331749 -0.00139182 0)
(0.00128626 -0.00102192 0)
(-0.00477448 -0.00199944 0)
(-0.0108907 -0.00326963 0)
(-0.0110554 -0.00575901 0)
(-0.00585266 -0.0107432 0)
(0.000991154 -0.0137898 0)
(0.0027126 -0.0154368 0)
(0.00329515 -0.0169292 0)
(0.00743899 -0.019284 0)
(0.0109594 -0.0221501 0)
(0.0106023 -0.0236291 0)
(0.0102773 -0.0231576 0)
(0.0156019 -0.0233342 0)
(0.0287701 -0.0262821 0)
(0.0468977 -0.0291395 0)
(0.0644151 -0.0309821 0)
(0.0788849 -0.032838 0)
(0.0890159 -0.03573 0)
(0.100264 -0.0387344 0)
(0.119563 -0.0441035 0)
(0.13627 -0.0587072 0)
(-0.104047 0.0343194 0)
(-0.127228 -0.0142231 0)
(-0.150947 0.0111362 0)
(-0.210098 0.0336993 0)
(-0.247621 -0.00174356 0)
(-0.225624 -0.0264157 0)
(-0.208347 -0.0314101 0)
(-0.198761 -0.0213312 0)
(-0.195937 -0.0106811 0)
(-0.187837 -0.0307454 0)
(-0.177489 -0.0392387 0)
(-0.181017 -0.0230928 0)
(-0.213531 -0.00362173 0)
(-0.249183 -0.0361753 0)
(-0.211938 -0.072431 0)
(-0.169966 -0.0860993 0)
(-0.137685 -0.083526 0)
(-0.122181 -0.0697724 0)
(-0.136412 -0.0494904 0)
(-0.18932 -0.03611 0)
(-0.272967 -0.0493934 0)
(-0.318081 -0.123274 0)
(-0.262549 -0.128778 0)
(-0.101626 0.167558 0)
(-0.139261 0.047231 0)
(-0.184836 0.0623916 0)
(-0.220865 0.0698357 0)
(-0.233729 0.0130885 0)
(-0.245535 -0.0192086 0)
(-0.256282 -0.033079 0)
(-0.256485 -0.0360382 0)
(-0.243725 -0.031328 0)
(-0.225588 -0.0354077 0)
(-0.215988 -0.0294722 0)
(-0.21895 0.000681938 0)
(-0.235538 0.0167053 0)
(-0.242712 -0.0318736 0)
(-0.234767 -0.0776231 0)
(-0.217631 -0.0951981 0)
(-0.201179 -0.0819397 0)
(-0.200697 -0.0439112 0)
(-0.22864 0.0058942 0)
(-0.271598 0.0498501 0)
(-0.329655 0.0518248 0)
(-0.339326 -0.0923607 0)
(-0.314403 -0.126761 0)
(-0.0617281 0.271913 0)
(-0.0968129 0.103959 0)
(-0.151698 0.107168 0)
(-0.173051 0.0871803 0)
(-0.190321 0.0249615 0)
(-0.226116 -0.00352745 0)
(-0.25355 -0.0227183 0)
(-0.258194 -0.0385804 0)
(-0.25071 -0.0431453 0)
(-0.237839 -0.0470371 0)
(-0.229973 -0.03452 0)
(-0.227272 0.00070564 0)
(-0.223315 0.0327439 0)
(-0.225103 -0.0309241 0)
(-0.231158 -0.0867976 0)
(-0.23329 -0.10497 0)
(-0.234757 -0.0852732 0)
(-0.242779 -0.0310666 0)
(-0.272969 0.0395443 0)
(-0.320844 0.0833379 0)
(-0.324727 0.0211121 0)
(-0.316463 -0.0898043 0)
(-0.308508 -0.135891 0)
(-0.0210571 0.328613 0)
(-0.0467272 0.158946 0)
(-0.0937203 0.14175 0)
(-0.114011 0.106173 0)
(-0.138724 0.0602645 0)
(-0.171293 0.0369028 0)
(-0.201997 0.00131179 0)
(-0.228843 -0.0332667 0)
(-0.236451 -0.0482905 0)
(-0.236173 -0.0557786 0)
(-0.23822 -0.0416694 0)
(-0.239826 -0.00491697 0)
(-0.219718 0.0248867 0)
(-0.202659 -0.0203435 0)
(-0.208818 -0.0815131 0)
(-0.236756 -0.100311 0)
(-0.267379 -0.078804 0)
(-0.29102 -0.0094603 0)
(-0.296601 0.0850648 0)
(-0.289057 0.127413 0)
(-0.273562 0.0400351 0)
(-0.274289 -0.102411 0)
(-0.285754 -0.145454 0)
(0.00852292 0.336994 0)
(-0.0117304 0.199131 0)
(-0.0468265 0.16599 0)
(-0.0647263 0.129876 0)
(-0.0886011 0.0934037 0)
(-0.114828 0.0651278 0)
(-0.139381 0.0320525 0)
(-0.164314 -0.00522641 0)
(-0.18976 -0.0381625 0)
(-0.211324 -0.0506399 0)
(-0.225993 -0.0373134 0)
(-0.225555 -0.0134147 0)
(-0.211808 -0.00496423 0)
(-0.201467 -0.0276016 0)
(-0.210143 -0.0557064 0)
(-0.232566 -0.0616585 0)
(-0.256371 -0.0413188 0)
(-0.270972 0.00568164 0)
(-0.263322 0.06114 0)
(-0.234444 0.0825958 0)
(-0.20676 0.0329093 0)
(-0.204923 -0.0784847 0)
(-0.26349 -0.139914 0)
(0.0219855 0.320032 0)
(0.00899329 0.225359 0)
(-0.0146016 0.184288 0)
(-0.029475 0.149479 0)
(-0.0490457 0.115919 0)
(-0.0699399 0.0857929 0)
(-0.0907236 0.0538427 0)
(-0.113523 0.0207061 0)
(-0.138944 -0.00799235 0)
(-0.164257 -0.0241361 0)
(-0.184068 -0.0239661 0)
(-0.192096 -0.0151827 0)
(-0.189427 -0.0132791 0)
(-0.187582 -0.0266666 0)
(-0.196335 -0.0419486 0)
(-0.212705 -0.0442464 0)
(-0.228281 -0.0290722 0)
(-0.233833 0.00182967 0)
(-0.221119 0.0349395 0)
(-0.192636 0.0440908 0)
(-0.167011 0.0126554 0)
(-0.16695 -0.0423285 0)
(-0.197554 -0.0762459 0)
(0.0230726 0.298436 0)
(0.0181791 0.239471 0)
(0.00526431 0.198392 0)
(-0.0057761 0.165125 0)
(-0.0204999 0.133873 0)
(-0.036735 0.104222 0)
(-0.054194 0.0738507 0)
(-0.0742565 0.0434425 0)
(-0.0972114 0.0169652 0)
(-0.120824 -0.000754536 0)
(-0.140713 -0.00796006 0)
(-0.152775 -0.00890085 0)
(-0.157656 -0.0118727 0)
(-0.161754 -0.0211844 0)
(-0.170393 -0.0304966 0)
(-0.18205 -0.0317662 0)
(-0.191344 -0.0219156 0)
(-0.192128 -0.00299693 0)
(-0.180016 0.0154167 0)
(-0.15771 0.0186425 0)
(-0.137567 -0.00182409 0)
(-0.134034 -0.0359693 0)
(-0.148361 -0.0590749 0)
(0.0183112 0.278841 0)
(0.020292 0.243602 0)
(0.0155728 0.20679 0)
(0.00890999 0.176013 0)
(-0.000979093 0.147216 0)
(-0.0129454 0.119212 0)
(-0.0268646 0.0910028 0)
(-0.0434182 0.0632808 0)
(-0.0625636 0.0386849 0)
(-0.0825848 0.0200992 0)
(-0.100469 0.00843956 0)
(-0.113598 0.00140648 0)
(-0.122134 -0.00526704 0)
(-0.129253 -0.0137148 0)
(-0.137574 -0.0210626 0)
(-0.146226 -0.023196 0)
(-0.151953 -0.0184651 0)
(-0.151061 -0.00864701 0)
(-0.14144 0.000268304 0)
(-0.125452 0.000127271 0)
(-0.110629 -0.0132425 0)
(-0.105162 -0.0343888 0)
(-0.110257 -0.0504222 0)
(0.0128622 0.262194 0)
(0.0191153 0.240827 0)
(0.0198543 0.209685 0)
(0.0172314 0.182297 0)
(0.011612 0.156094 0)
(0.00363363 0.130255 0)
(-0.00658061 0.104432 0)
(-0.0192734 0.079252 0)
(-0.0342141 0.0563866 0)
(-0.050158 0.0375712 0)
(-0.0651301 0.0233951 0)
(-0.0774417 0.0127162 0)
(-0.0869217 0.00338925 0)
(-0.094952 -0.00564415 0)
(-0.102678 -0.01311 0)
(-0.109516 -0.0170227 0)
(-0.113545 -0.0166459 0)
(-0.11266 -0.0133038 0)
(-0.105942 -0.0105818 0)
(-0.0951478 -0.0129311 0)
(-0.0847608 -0.022409 0)
(-0.0794247 -0.0360817 0)
(-0.0801853 -0.047115 0)
(0.00891982 0.248527 0)
(0.0169481 0.234575 0)
(0.0208249 0.208672 0)
(0.0213953 0.184628 0)
(0.019295 0.161041 0)
(0.0148698 0.137509 0)
(0.00823105 0.114022 0)
(-0.000653501 0.0911206 0)
(-0.011507 0.069871 0)
(-0.0234579 0.0513447 0)
(-0.0352223 0.0359712 0)
(-0.0456797 0.0232455 0)
(-0.0545031 0.0121365 0)
(-0.0621579 0.0021141 0)
(-0.0690365 -0.00627377 0)
(-0.0746987 -0.0121163 0)
(-0.0780133 -0.0151514 0)
(-0.0778168 -0.0162879 0)
(-0.0737522 -0.0176216 0)
(-0.0670227 -0.0215601 0)
(-0.0602786 -0.029121 0)
(-0.0561928 -0.038697 0)
(-0.0555097 -0.0466445 0)
(0.00653573 0.23741 0)
(0.0147753 0.2271 0)
(0.0202419 0.205179 0)
(0.0231045 0.183964 0)
(0.023746 0.162748 0)
(0.0223116 0.141392 0)
(0.0188685 0.120041 0)
(0.0134502 0.0991434 0)
(0.00629506 0.079405 0)
(-0.00200643 0.061512 0)
(-0.0106187 0.0457933 0)
(-0.0187817 0.0320723 0)
(-0.0261352 0.0198841 0)
(-0.0327202 0.00897361 0)
(-0.0385705 -0.000429177 0)
(-0.0433376 -0.00792568 0)
(-0.0463434 -0.0134614 0)
(-0.0469496 -0.0176222 0)
(-0.0450399 -0.0216027 0)
(-0.0413945 -0.0266896 0)
(-0.0375638 -0.0333795 0)
(-0.0350829 -0.0407841 0)
(-0.0344634 -0.0469578 0)
(0.00514047 0.228143 0)
(0.0129794 0.219467 0)
(0.0191589 0.200206 0)
(0.0235602 0.181156 0)
(0.0262503 0.161903 0)
(0.0272165 0.142436 0)
(0.026462 0.122948 0)
(0.0240116 0.103796 0)
(0.0200333 0.0854621 0)
(0.0149112 0.0684011 0)
(0.00918332 0.0528662 0)
(0.00336769 0.0388368 0)
(-0.00220853 0.0261274 0)
(-0.00741812 0.0146285 0)
(-0.0121476 0.00444067 0)
(-0.016119 -0.00426524 0)
(-0.0189126 -0.0115026 0)
(-0.0201699 -0.0176254 0)
(-0.019861 -0.0232916 0)
(-0.0184656 -0.0291716 0)
(-0.0168758 -0.035495 0)
(-0.0159647 -0.041766 0)
(-0.016064 -0.0469389 0)
(0.00432633 0.220091 0)
(0.011711 0.212047 0)
(0.0181708 0.194383 0)
(0.0235829 0.176851 0)
(0.0277652 0.159119 0)
(0.0305867 0.141203 0)
(0.031988 0.123283 0)
(0.0319577 0.105634 0)
(0.0305906 0.0885881 0)
(0.0281222 0.0724515 0)
(0.0248912 0.0574167 0)
(0.0212455 0.0435252 0)
(0.01745 0.0307228 0)
(0.0136742 0.0189764 0)
(0.0100724 0.00833953 0)
(0.0068644 -0.00110897 0)
(0.00432082 -0.00938752 0)
(0.00265449 -0.0166908 0)
(0.00187683 -0.0233619 0)
(0.0017113 -0.0297325 0)
(0.00166039 -0.0358937 0)
(0.00124078 -0.0415613 0)
(0.000255987 -0.046167 0)
(0.00394148 0.212738 0)
(0.0110502 0.204888 0)
(0.0176256 0.188053 0)
(0.0237257 0.171506 0)
(0.028986 0.154897 0)
(0.0331992 0.138212 0)
(0.0362593 0.121588 0)
(0.0381179 0.105223 0)
(0.0388095 0.0893421 0)
(0.0384656 0.0741521 0)
(0.0372913 0.0597928 0)
(0.0355132 0.0463214 0)
(0.033329 0.0337399 0)
(0.0308948 0.0220522 0)
(0.028357 0.0112969 0)
(0.0258855 0.00152151 0)
(0.0236631 -0.00727652 0)
(0.0218268 -0.0151874 0)
(0.0203939 -0.0223715 0)
(0.019221 -0.0289754 0)
(0.0180468 -0.0350181 0)
(0.0166203 -0.0403284 0)
(0.0148436 -0.0445929 0)
(0.00396893 0.205588 0)
(0.0110569 0.197883 0)
(0.0177388 0.181367 0)
(0.0243505 0.165417 0)
(0.0303944 0.149622 0)
(0.0356253 0.133908 0)
(0.039912 0.118354 0)
(0.0431812 0.103088 0)
(0.0454255 0.0882564 0)
(0.0467075 0.0739935 0)
(0.047145 0.0603953 0)
(0.0468797 0.047513 0)
(0.0460499 0.0353677 0)
(0.0447795 0.0239785 0)
(0.0431885 0.0133797 0)
(0.0414052 0.00361021 0)
(0.0395581 -0.00531422 0)
(0.0377444 -0.0134189 0)
(0.0359922 -0.0207608 0)
(0.0342423 -0.0273868 0)
(0.0323742 -0.0332787 0)
(0.0302754 -0.0383272 0)
(0.0279166 -0.0423551 0)
(0.00441882 0.19811 0)
(0.0117595 0.190841 0)
(0.018629 0.174362 0)
(0.0256666 0.15877 0)
(0.0322883 0.143585 0)
(0.0382425 0.128658 0)
(0.0433952 0.114005 0)
(0.0476638 0.0996938 0)
(0.0510179 0.0858108 0)
(0.0534795 0.0724357 0)
(0.0551114 0.0596286 0)
(0.0559994 0.047427 0)
(0.0562356 0.0358533 0)
(0.0559106 0.0249304 0)
(0.0551156 0.01469 0)
(0.0539456 0.0051695 0)
(0.0524938 -0.00360203 0)
(0.0508351 -0.0116124 0)
(0.0490066 -0.0188625 0)
(0.047 -0.0253471 0)
(0.0447771 -0.0310311 0)
(0.042307 -0.0358391 0)
(0.039605 -0.0396687 0)
(0.00526634 0.189784 0)
(0.0131194 0.183512 0)
(0.0203114 0.16701 0)
(0.0277384 0.15168 0)
(0.034791 0.137004 0)
(0.0412389 0.122756 0)
(0.0469644 0.108894 0)
(0.0518911 0.0954363 0)
(0.0559823 0.0824209 0)
(0.0592404 0.069888 0)
(0.0616978 0.0578695 0)
(0.0634058 0.0463876 0)
(0.0644248 0.0354593 0)
(0.064819 0.0251053 0)
(0.064655 0.0153546 0)
(0.0640031 0.00624335 0)
(0.0629328 -0.002192 0)
(0.0615051 -0.00991976 0)
(0.059762 -0.0169125 0)
(0.0577245 -0.0231403 0)
(0.0554003 -0.0285615 0)
(0.0528047 -0.0331215 0)
(0.0499793 -0.0367589 0)
(0.00640513 0.180164 0)
(0.0149909 0.175623 0)
(0.0226718 0.159255 0)
(0.0304762 0.144221 0)
(0.0378523 0.130042 0)
(0.0446163 0.116435 0)
(0.0506831 0.103308 0)
(0.0559949 0.0906391 0)
(0.0605222 0.0784322 0)
(0.0642631 0.066698 0)
(0.067237 0.0554475 0)
(0.0694773 0.0446897 0)
(0.0710256 0.0344349 0)
(0.0719281 0.0246997 0)
(0.0722344 0.0155095 0)
(0.0719969 0.00689846 0)
(0.0712698 -0.00109447 0)
(0.0701041 -0.00842931 0)
(0.0685437 -0.0150664 0)
(0.0666238 -0.0209657 0)
(0.0643765 -0.0260856 0)
(0.0618405 -0.0303843 0)
(0.0590706 -0.0338241 0)
(0.00761809 0.168982 0)
(0.0170937 0.166903 0)
(0.0254394 0.151028 0)
(0.0336247 0.13644 0)
(0.0412499 0.122822 0)
(0.0482004 0.109872 0)
(0.0544358 0.0974668 0)
(0.0599269 0.0855556 0)
(0.0646609 0.0741179 0)
(0.0686429 0.0631448 0)
(0.0718912 0.052633 0)
(0.0744332 0.0425822 0)
(0.076302 0.0329973 0)
(0.0775339 0.0238908 0)
(0.0781681 0.015285 0)
(0.0782462 0.00721134 0)
(0.0778118 -0.000291697 0)
(0.0769091 -0.00718218 0)
(0.075581 -0.0134169 0)
(0.0738686 -0.0189536 0)
(0.0718143 -0.0237535 0)
(0.0694666 -0.0277838 0)
(0.0668841 -0.0310203 0)
(0.00860031 0.156258 0)
(0.0190286 0.157136 0)
(0.0281914 0.142258 0)
(0.0367771 0.128356 0)
(0.0446123 0.115424 0)
(0.0516693 0.103192 0)
(0.0579606 0.0915289 0)
(0.0634922 0.080369 0)
(0.068275 0.069678 0)
(0.0723285 0.059436 0)
(0.0756781 0.0496312 0)
(0.0783536 0.0402583 0)
(0.0803867 0.0313191 0)
(0.0818106 0.0228241 0)
(0.0826596 0.0147931 0)
(0.0829693 0.00725557 0)
(0.0827771 0.000247937 0)
(0.0821223 -0.00618876 0)
(0.0810453 -0.012012 0)
(0.0795881 -0.0171812 0)
(0.0777953 -0.0216612 0)
(0.0757172 -0.0254256 0)
(0.0734099 -0.0284583 0)
(0.0090566 0.142376 0)
(0.0203683 0.146224 0)
(0.030425 0.132878 0)
(0.0394399 0.11996 0)
(0.0474819 0.107883 0)
(0.0546154 0.0964632 0)
(0.060908 0.0855879 0)
(0.0664058 0.0751929 0)
(0.0711476 0.0652407 0)
(0.0751717 0.0557076 0)
(0.0785164 0.0465798 0)
(0.0812186 0.0378509 0)
(0.0833141 0.0295227 0)
(0.0848373 0.0216059 0)
(0.0858218 0.0141197 0)
(0.0863009 0.00709229 0)
(0.086309 0.000558464 0)
(0.0858818 -0.00544267 0)
(0.0850571 -0.0108708 0)
(0.0838748 -0.0156881 0)
(0.082378 -0.019863 0)
(0.0806139 -0.0233736 0)
(0.078633 -0.0262085 0)
(0.00885149 0.128046 0)
(0.0208185 0.134271 0)
(0.0317103 0.122858 0)
(0.0411615 0.111227 0)
(0.0494247 0.100194 0)
(0.0566397 0.0897017 0)
(0.0629257 0.079679 0)
(0.0683687 0.0700782 0)
(0.0730372 0.0608686 0)
(0.0769906 0.052031 0)
(0.0802819 0.0435545 0)
(0.0829587 0.0354363 0)
(0.0850636 0.0276814 0)
(0.0866351 0.0203027 0)
(0.0877088 0.0133211 0)
(0.0883185 0.00676497 0)
(0.0884973 0.000668373 0)
(0.0882792 -0.0049312 0)
(0.0876992 -0.00999548 0)
(0.0867948 -0.0144892 0)
(0.0856053 -0.0183838 0)
(0.084173 -0.0216599 0)
(0.0825414 -0.0243084 0)
(0.00811746 0.11407 0)
(0.0203688 0.121605 0)
(0.0318626 0.112267 0)
(0.0416827 0.102156 0)
(0.0501561 0.0923423 0)
(0.0574597 0.082895 0)
(0.0637505 0.0737972 0)
(0.069149 0.0650284 0)
(0.0737497 0.056574 0)
(0.0776322 0.0484255 0)
(0.0808643 0.0405807 0)
(0.0835047 0.0330441 0)
(0.0856038 0.0258266 0)
(0.0872057 0.018946 0)
(0.0883494 0.0124267 0)
(0.0890707 0.00629895 0)
(0.089403 0.000597325 0)
(0.0893796 -0.00464114 0)
(0.0890339 -0.00937947 0)
(0.0884004 -0.0135841 0)
(0.0875145 -0.017228 0)
(0.0864135 -0.0202932 0)
(0.0851335 -0.022771 0)
(0.00718882 0.101012 0)
(0.0192882 0.108702 0)
(0.0310049 0.101314 0)
(0.0410164 0.0928264 0)
(0.0496193 0.0843505 0)
(0.0569815 0.0760395 0)
(0.063275 0.0679276 0)
(0.0686406 0.0600258 0)
(0.0731914 0.0523404 0)
(0.0770215 0.0448787 0)
(0.0802107 0.0376508 0)
(0.0828269 0.0306715 0)
(0.0849277 0.0239604 0)
(0.0865627 0.017542 0)
(0.0877748 0.0114457 0)
(0.088602 0.00570528 0)
(0.0890793 0.000357183 0)
(0.0892401 -0.00456079 0)
(0.0891166 -0.00901181 0)
(0.0887413 -0.0129628 0)
(0.0881461 -0.016387 0)
(0.0873635 -0.0192664 0)
(0.0864233 -0.0215912 0)
(0.00637426 0.0890509 0)
(0.0179377 0.0960472 0)
(0.0294527 0.0903232 0)
(0.0393904 0.0834218 0)
(0.0479647 0.0763114 0)
(0.0552995 0.0691738 0)
(0.0615566 0.0620772 0)
(0.0668794 0.0550599 0)
(0.0713867 0.0481491 0)
(0.0751796 0.0413691 0)
(0.0783441 0.0347445 0)
(0.0809539 0.0283018 0)
(0.0830714 0.0220706 0)
(0.08475 0.0160835 0)
(0.0860357 0.0103763 0)
(0.0869691 0.00498705 0)
(0.0875866 -4.46516e-05 0)
(0.0879219 -0.00467919 0)
(0.0880071 -0.00887866 0)
(0.087873 -0.0126093 0)
(0.087549 -0.0158435 0)
(0.0870637 -0.0185618 0)
(0.0864419 -0.0207521 0)
(0.00578827 0.0781036 0)
(0.0165656 0.0840149 0)
(0.0275191 0.0796463 0)
(0.0371026 0.0741882 0)
(0.0454493 0.0683796 0)
(0.0526278 0.0623862 0)
(0.0587717 0.0562898 0)
(0.0640108 0.0501456 0)
(0.0684577 0.0439977 0)
(0.0722112 0.0378852 0)
(0.0753574 0.0318463 0)
(0.0779706 0.0259193 0)
(0.0801149 0.0201441 0)
(0.081845 0.0145617 0)
(0.0832085 0.00921465 0)
(0.0842471 0.00414599 0)
(0.0849984 -0.000600985 0)
(0.0854968 -0.00498402 0)
(0.0857742 -0.00896321 0)
(0.0858605 -0.012503 0)
(0.0857834 -0.0155741 0)
(0.0855686 -0.0181543 0)
(0.0852373 -0.0202285 0)
(0.00537617 0.0680263 0)
(0.0152456 0.072836 0)
(0.0253967 0.0695707 0)
(0.034398 0.0653649 0)
(0.042329 0.0607299 0)
(0.0492111 0.0557951 0)
(0.0551441 0.05064 0)
(0.0602348 0.0453263 0)
(0.0645811 0.0399079 0)
(0.0682725 0.0344347 0)
(0.0713891 0.0289556 0)
(0.0740017 0.0235197 0)
(0.0761718 0.0181759 0)
(0.0779526 0.0129736 0)
(0.0793908 0.00796154 0)
(0.080528 0.00318761 0)
(0.081402 -0.00130116 0)
(0.0820475 -0.00545946 0)
(0.0824965 -0.00924485 0)
(0.0827783 -0.0126193 0)
(0.0829196 -0.0155507 0)
(0.0829443 -0.018014 0)
(0.0828712 -0.0199898 0)
(0.00503023 0.0587351 0)
(0.0139428 0.0626286 0)
(0.0231607 0.0602826 0)
(0.0314297 0.0571341 0)
(0.0388008 0.0535154 0)
(0.0452637 0.0495197 0)
(0.0508878 0.0452156 0)
(0.0557553 0.0406637 0)
(0.0599462 0.0359211 0)
(0.0635367 0.0310438 0)
(0.0665971 0.0260884 0)
(0.0691909 0.0211124 0)
(0.0713735 0.0161729 0)
(0.0731937 0.011326 0)
(0.0746946 0.00662579 0)
(0.075916 0.0021242 0)
(0.0768948 -0.00212866 0)
(0.0776657 -0.00608461 0)
(0.0782606 -0.0096984 0)
(0.0787087 -0.0129292 0)
(0.079036 -0.0157416 0)
(0.0792655 -0.0181069 0)
(0.0794147 -0.0200015 0)
(0.00466672 0.0502275 0)
(0.0126014 0.0534466 0)
(0.0208291 0.0518806 0)
(0.0282839 0.0496111 0)
(0.035 0.0468492 0)
(0.0409502 0.0436604 0)
(0.0461809 0.040101 0)
(0.0507531 0.0362254 0)
(0.0547293 0.0320894 0)
(0.0581716 0.0277515 0)
(0.061139 0.0232736 0)
(0.0636851 0.0187193 0)
(0.0658571 0.0141527 0)
(0.0676959 0.00963531 0)
(0.0692389 0.00522504 0)
(0.0705219 0.000975892 0)
(0.0715804 -0.00306016 0)
(0.0724485 -0.00683269 0)
(0.0731583 -0.0102938 0)
(0.0737389 -0.0133995 0)
(0.0742161 -0.0161111 0)
(0.0746124 -0.0183959 0)
(0.0749449 -0.0202258 0)
(0.00424633 0.0425529 0)
(0.0111949 0.0453145 0)
(0.0184159 0.0444083 0)
(0.0250185 0.0428597 0)
(0.0310238 0.0408059 0)
(0.0363969 0.0382937 0)
(0.0411685 0.0353679 0)
(0.0453829 0.032075 0)
(0.0490878 0.0284671 0)
(0.0523326 0.024603 0)
(0.0551649 0.0205478 0)
(0.0576279 0.0163707 0)
(0.0597587 0.0121415 0)
(0.0615883 0.00792646 0)
(0.0631452 0.00378501 0)
(0.0644598 -0.000229518 0)
(0.0655655 -0.0040654 0)
(0.0664964 -0.00767096 0)
(0.0672846 -0.0109959 0)
(0.0679594 -0.013993 0)
(0.0685467 -0.0166202 0)
(0.0690686 -0.0188407 0)
(0.0695425 -0.0206221 0)
(0.00376711 0.0357712 0)
(0.00973402 0.0382397 0)
(0.0159535 0.0378795 0)
(0.0216929 0.0369115 0)
(0.0269591 0.0354309 0)
(0.0317148 0.0334734 0)
(0.0359797 0.031073 0)
(0.0397854 0.0282682 0)
(0.0431681 0.0251062 0)
(0.0461665 0.0216449 0)
(0.0488187 0.0179521 0)
(0.0511586 0.0141023 0)
(0.0532127 0.0101714 0)
(0.0549997 0.00623062 0)
(0.056536 0.00233841 0)
(0.0578451 -0.00145701 0)
(0.0589587 -0.00510731 0)
(0.0599116 -0.00856076 0)
(0.0607367 -0.0117646 0)
(0.0614634 -0.0146685 0)
(0.0621174 -0.0172265 0)
(0.0627209 -0.019398 0)
(0.0632912 -0.0211467 0)
(0.00324679 0.0299227 0)
(0.00825345 0.0322136 0)
(0.0134959 0.0322889 0)
(0.0183823 0.0317754 0)
(0.0229037 0.0307478 0)
(0.0270222 0.0292341 0)
(0.0307487 0.0272589 0)
(0.0341054 0.0248519 0)
(0.0371195 0.0220551 0)
(0.0398225 0.0189247 0)
(0.0422458 0.0155311 0)
(0.0444166 0.0119545 0)
(0.0463529 0.00827938 0)
(0.0480593 0.00458423 0)
(0.049535 0.000924391 0)
(0.0507942 -0.00266448 0)
(0.0518691 -0.00614223 0)
(0.0527974 -0.00945786 0)
(0.0536133 -0.0125556 0)
(0.0543463 -0.0153811 0)
(0.0550213 -0.0178844 0)
(0.0556598 -0.0200216 0)
(0.0562792 -0.0217526 0)
(0.00270404 0.0250162 0)
(0.00679836 0.0272042 0)
(0.0111167 0.0276089 0)
(0.0151858 0.0274379 0)
(0.0189795 0.0267591 0)
(0.0224598 0.0255935 0)
(0.0256307 0.0239557 0)
(0.0285069 0.0218665 0)
(0.0311094 0.0193613 0)
(0.0334649 0.0164939 0)
(0.0356021 0.0133362 0)
(0.0375475 0.0099752 0)
(0.0393163 0.00650821 0)
(0.0408977 0.00302916 0)
(0.0422662 -0.000410975 0)
(0.0434229 -0.0038022 0)
(0.0444051 -0.00711986 0)
(0.0452569 -0.0103132 0)
(0.0460146 -0.0133211 0)