# vtk DataFile Version 2.0
track0
ASCII
DATASET POLYDATA
POINTS 12050 float
-0.0205 0.001 1e-05
-0.02052 0.000999985 1e-05
-0.02054 0.000999974 1e-05
-0.02056 0.000999965 1e-05
-0.02058 0.000999959 1e-05
-0.0206 0.000999956 1e-05
-0.0205 0.00367778 1e-05
-0.02052 0.00367778 1e-05
-0.02054 0.00367777 1e-05
-0.02056 0.00367777 1e-05
-0.02058 0.00367777 1e-05
-0.0206 0.00367777 1e-05
-0.0205 0.00635556 1e-05
-0.02052 0.00635555 1e-05
-0.02054 0.00635555 1e-05
-0.02056 0.00635555 1e-05
-0.02058 0.00635555 1e-05
-0.0206 0.00635555 1e-05
-0.0205 0.00903333 1e-05
-0.02052 0.00903333 1e-05
-0.02054 0.00903333 1e-05
-0.02056 0.00903333 1e-05
-0.02058 0.00903333 1e-05
-0.0206 0.00903333 1e-05
-0.0205 0.0117111 1e-05
-0.02052 0.0117111 1e-05
-0.02054 0.0117111 1e-05
-0.02056 0.0117111 1e-05
-0.02058 0.0117111 1e-05
-0.0206 0.0117111 1e-05
-0.0205 0.0143889 1e-05
-0.02052 0.0143889 1e-05
-0.02054 0.0143889 1e-05
-0.02056 0.0143889 1e-05
-0.02058 0.0143889 1e-05
-0.0206 0.0143889 1e-05
-0.0205 0.0170667 1e-05
-0.02052 0.0170667 1e-05
-0.02054 0.0170667 1e-05
-0.02056 0.0170667 1e-05
-0.02058 0.0170667 1e-05
-0.0206 0.0170667 1e-05
-0.0205 0.0197444 1e-05
-0.02052 0.0197444 1e-05
-0.02054 0.0197444 1e-05
-0.02056 0.0197444 1e-05
-0.02058 0.0197444 1e-05
-0.0206 0.0197444 1e-05
-0.0205 0.0224222 1e-05
-0.02052 0.0224222 1e-05
-0.02054 0.0224222 1e-05
-0.02056 0.0224222 1e-05
-0.02058 0.0224222 1e-05
-0.0206 0.0224222 1e-05
-0.0205 0.0251 1e-05
-0.02052 0.0250998 1e-05
-0.02054 0.0250997 1e-05
-0.02056 0.0250995 1e-05
-0.02058 0.0250995 1e-05
-0.0206 0.0250994 1e-05
-0.0205 0.001 1e-05
-0.0202034 0.00100022 1e-05
-0.0199069 0.00100067 1e-05
-0.0196103 0.00100133 1e-05
-0.0193137 0.00100219 1e-05
-0.0190172 0.00100326 1e-05
-0.0187132 0.00100467 1e-05
-0.0184093 0.00100589 1e-05
-0.0181054 0.00100711 1e-05
-0.0178015 0.00100833 1e-05
-0.0174976 0.00100954 1e-05
-0.0172058 0.00101084 1e-05
-0.016914 0.00101194 1e-05
-0.0166222 0.00101304 1e-05
-0.0163305 0.00101414 1e-05
-0.0160387 0.00101523 1e-05
-0.0157586 0.00101637 1e-05
-0.0154784 0.00101745 1e-05
-0.0151983 0.00101857 1e-05
-0.0149182 0.00101972 1e-05
-0.0146381 0.00102091 1e-05
-0.0143753 0.00102209 1e-05
-0.0141125 0.00102328 1e-05
-0.0138496 0.00102449 1e-05
-0.0135868 0.00102574 1e-05
-0.0133649 0.00102682 1e-05
-0.0133506 0.00102689 1e-05
-0.0133363 0.00102696 1e-05
-0.013322 0.00102703 1e-05
-0.0133077 0.0010271 1e-05
-0.0132934 0.00102717 1e-05
-0.0130353 0.00102846 1e-05
-0.0127771 0.00102977 1e-05
-0.0125189 0.00103109 1e-05
-0.0122607 0.00103242 1e-05
-0.0120025 0.00103378 1e-05
-0.0117547 0.00103509 1e-05
-0.0115068 0.00103641 1e-05
-0.0112589 0.00103773 1e-05
-0.0110111 0.00103905 1e-05
-0.0107632 0.00104039 1e-05
-0.0105252 0.00104167 1e-05
-0.0102873 0.00104295 1e-05
-0.0100493 0.00104423 1e-05
-0.00981133 0.00104551 1e-05
-0.00957337 0.00104679 1e-05
-0.00934491 0.00104802 1e-05
-0.00911645 0.00104924 1e-05
-0.00888799 0.00105047 1e-05
-0.00865954 0.00105169 1e-05
-0.00843108 0.0010529 1e-05
-0.00821175 0.00105407 1e-05
-0.00799242 0.00105523 1e-05
-0.00777309 0.00105639 1e-05
-0.00755376 0.00105754 1e-05
-0.00733443 0.00105869 1e-05
-0.00712387 0.00105979 1e-05
-0.0069133 0.00106089 1e-05
-0.00670273 0.00106198 1e-05
-0.00649216 0.00106307 1e-05
-0.0062816 0.00106416 1e-05
-0.00607944 0.00106519 1e-05
-0.00587729 0.00106623 1e-05
-0.00567514 0.00106726 1e-05
-0.00547298 0.00106829 1e-05
-0.00527083 0.00106931 1e-05
-0.00507675 0.00107028 1e-05
-0.00488267 0.00107126 1e-05
-0.0046886 0.00107223 1e-05
-0.00449452 0.00107321 1e-05
-0.00430044 0.00107417 1e-05
-0.00411412 0.0010751 1e-05
-0.0039278 0.00107602 1e-05
-0.00374147 0.00107694 1e-05
-0.00355515 0.00107787 1e-05
-0.00336883 0.00107879 1e-05
-0.00318995 0.00107966 1e-05
-0.00301107 0.00108054 1e-05
-0.00283219 0.00108142 1e-05
-0.00265331 0.0010823 1e-05
-0.00247443 0.00108319 1e-05
-0.0023027 0.00108403 1e-05
-0.00213097 0.00108488 1e-05
-0.00195924 0.00108573 1e-05
-0.0017875 0.00108658 1e-05
-0.00161577 0.00108744 1e-05
-0.0014509 0.00108826 1e-05
-0.00128603 0.00108909 1e-05
-0.00112116 0.00108993 1e-05
-0.00095629 0.00109077 1e-05
-0.000791418 0.00109163 1e-05
-0.000633135 0.00109245 1e-05
-0.000474851 0.00109329 1e-05
-0.000316568 0.00109414 1e-05
-0.000158284 0.001095 1e-05
0 0.00109587 1e-05
0.000105677 0.00109645 1e-05
0.000211355 0.00109704 1e-05
0.000317032 0.00109763 1e-05
0.00042271 0.00109821 1e-05
0.000528387 0.0010988 1e-05
0.000634886 0.00109939 1e-05
0.000741385 0.00109998 1e-05
0.000847885 0.00110056 1e-05
0.000954384 0.00110114 1e-05
0.00106088 0.00110171 1e-05
0.00116821 0.00110228 1e-05
0.00127554 0.00110284 1e-05
0.00138286 0.00110339 1e-05
0.00149019 0.00110393 1e-05
0.00159752 0.00110446 1e-05
0.00170568 0.00110499 1e-05
0.00181384 0.00110551 1e-05
0.001922 0.00110602 1e-05
0.00203016 0.00110652 1e-05
0.00213833 0.001107 1e-05
0.00224733 0.00110748 1e-05
0.00235633 0.00110795 1e-05
0.00246533 0.00110841 1e-05
0.00257434 0.00110886 1e-05
0.00268334 0.0011093 1e-05
0.00279319 0.00110973 1e-05
0.00290304 0.00111016 1e-05
0.00301289 0.00111058 1e-05
0.00312274 0.00111099 1e-05
0.00323259 0.00111138 1e-05
0.00334329 0.00111177 1e-05
0.003454 0.00111215 1e-05
0.0035647 0.00111253 1e-05
0.0036754 0.0011129 1e-05
0.00378611 0.00111325 1e-05
0.00389767 0.0011136 1e-05
0.00400924 0.00111394 1e-05
0.0041208 0.00111427 1e-05
0.00423237 0.00111459 1e-05
0.00434393 0.00111491 1e-05
0.00445636 0.00111521 1e-05
0.00456879 0.00111551 1e-05
0.00468123 0.0011158 1e-05
0.00479366 0.00111608 1e-05
0.00490609 0.00111635 1e-05
0.0050194 0.00111661 1e-05
0.0051327 0.00111687 1e-05
0.00524601 0.00111711 1e-05
0.00535932 0.00111735 1e-05
0.00547262 0.00111758 1e-05
0.00558681 0.0011178 1e-05
0.005701 0.00111802 1e-05
0.00581518 0.00111822 1e-05
0.00592937 0.00111842 1e-05
0.00604356 0.00111861 1e-05
0.00615863 0.00111878 1e-05
0.00627371 0.00111896 1e-05
0.00638878 0.00111912 1e-05
0.00650386 0.00111927 1e-05
0.00661893 0.00111942 1e-05
0.0067349 0.00111956 1e-05
0.00685087 0.00111969 1e-05
0.00696684 0.00111981 1e-05
0.00708281 0.00111992 1e-05
0.00719878 0.00112003 1e-05
0.00731565 0.00112012 1e-05
0.00743252 0.00112021 1e-05
0.00754939 0.00112029 1e-05
0.00766626 0.00112036 1e-05
0.00778313 0.00112042 1e-05
0.0078638 0.00112046 1e-05
0.00794447 0.00112049 1e-05
0.00802514 0.00112052 1e-05
0.00810581 0.00112054 1e-05
0.00818309 0.00112056 1e-05
0.00822088 0.00112057 1e-05
0.00825867 0.00112057 1e-05
0.00829646 0.00112058 1e-05
0.00833424 0.00112058 1e-05
0.00837203 0.00112059 1e-05
0.00849073 0.0011206 1e-05
0.00860942 0.00112059 1e-05
0.00872812 0.00112059 1e-05
0.00884682 0.00112057 1e-05
0.00896551 0.00112054 1e-05
0.00908513 0.0011205 1e-05
0.00920475 0.00112045 1e-05
0.00932437 0.0011204 1e-05
0.00944398 0.00112033 1e-05
0.0095636 0.00112026 1e-05
0.00968415 0.00112017 1e-05
0.0098047 0.00112007 1e-05
0.00992525 0.00111997 1e-05
0.0100458 0.00111986 1e-05
0.0101663 0.00111974 1e-05
0.0102878 0.0011196 1e-05
0.0104093 0.00111945 1e-05
0.0105308 0.0011193 1e-05
0.0106523 0.00111914 1e-05
0.0107738 0.00111897 1e-05
0.0108962 0.00111877 1e-05
0.0110186 0.00111858 1e-05
0.0111411 0.00111837 1e-05
0.0112635 0.00111816 1e-05
0.0113859 0.00111794 1e-05
0.0115093 0.00111769 1e-05
0.0116327 0.00111744 1e-05
0.0117561 0.00111718 1e-05
0.0118795 0.00111692 1e-05
0.0120028 0.00111664 1e-05
0.0121272 0.00111634 1e-05
0.0122515 0.00111604 1e-05
0.0123759 0.00111572 1e-05
0.0125002 0.0011154 1e-05
0.0126245 0.00111507 1e-05
0.0127498 0.00111471 1e-05
0.0128752 0.00111435 1e-05
0.0130005 0.00111398 1e-05
0.0131258 0.0011136 1e-05
0.0132511 0.00111321 1e-05
0.0133774 0.0011128 1e-05
0.0135036 0.00111238 1e-05
0.0136299 0.00111196 1e-05
0.0137562 0.00111152 1e-05
0.0138825 0.00111107 1e-05
0.0140098 0.0011106 1e-05
0.014137 0.00111012 1e-05
0.0142643 0.00110963 1e-05
0.0143915 0.00110913 1e-05
0.0145188 0.00110862 1e-05
0.0146471 0.00110809 1e-05
0.0147753 0.00110755 1e-05
0.0149036 0.001107 1e-05
0.0150318 0.00110644 1e-05
0.0151601 0.00110587 1e-05
0.0152893 0.00110528 1e-05
0.0154186 0.00110468 1e-05
0.0155478 0.00110406 1e-05
0.0156771 0.00110344 1e-05
0.0158063 0.0011028 1e-05
0.0159366 0.00110215 1e-05
0.0160668 0.00110149 1e-05
0.0161971 0.00110081 1e-05
0.0163273 0.00110012 1e-05
0.0164576 0.00109942 1e-05
0.0165889 0.00109871 1e-05
0.0167201 0.00109798 1e-05
0.0168514 0.00109723 1e-05
0.0169827 0.00109648 1e-05
0.0171139 0.00109571 1e-05
0.0172462 0.00109494 1e-05
0.0173785 0.00109415 1e-05
0.0175108 0.00109334 1e-05
0.0176431 0.00109251 1e-05
0.0177754 0.00109168 1e-05
0.0179087 0.00109085 1e-05
0.018042 0.00108999 1e-05
0.0181753 0.00108911 1e-05
0.0183087 0.00108822 1e-05
0.018442 0.00108732 1e-05
0.0185763 0.00108642 1e-05
0.0187107 0.0010855 1e-05
0.018845 0.00108455 1e-05
0.0189794 0.00108358 1e-05
0.0191137 0.00108262 1e-05
0.0192491 0.00108166 1e-05
0.0193845 0.00108066 1e-05
0.0195199 0.00107964 1e-05
0.0196553 0.00107861 1e-05
0.0197907 0.00107758 1e-05
0.0199272 0.00107655 1e-05
0.0200636 0.00107549 1e-05
0.0202001 0.0010744 1e-05
0.0203365 0.00107329 1e-05
0.020473 0.00107219 1e-05
0.0206105 0.00107109 1e-05
0.020748 0.00106996 1e-05
0.0208855 0.0010688 1e-05
0.021023 0.00106762 1e-05
0.0211606 0.00106646 1e-05
0.0212991 0.00106528 1e-05
0.0214377 0.00106408 1e-05
0.0215763 0.00106285 1e-05
0.0217149 0.0010616 1e-05
0.0218535 0.00106036 1e-05
0.0219931 0.00105912 1e-05
0.0221328 0.00105784 1e-05
0.0222724 0.00105654 1e-05
0.0224121 0.00105522 1e-05
0.0225517 0.00105391 1e-05
0.0226925 0.00105259 1e-05
0.0228332 0.00105124 1e-05
0.022974 0.00104986 1e-05
0.0231147 0.00104847 1e-05
0.0232555 0.00104708 1e-05
0.0233973 0.0010457 1e-05
0.0235391 0.00104427 1e-05
0.023681 0.00104282 1e-05
0.0238228 0.00104135 1e-05
0.0239647 0.00103989 1e-05
0.0241076 0.00103843 1e-05
0.0242505 0.00103693 1e-05
0.0243935 0.0010354 1e-05
0.0245364 0.00103385 1e-05
0.0246794 0.00103231 1e-05
0.0248234 0.00103077 1e-05
0.0249675 0.00102919 1e-05
0.0251115 0.00102759 1e-05
0.0252556 0.00102597 1e-05
[...]
POINT_DATA 12050
 FIELD attributes 1
U 3 12050 float
10.0004 	0.00734859 	0 10.0004 	0.00587888 	0 10.0003 	0.00440916 	0 10.0002 	0.00293944 	0 10.0001 	0.00146972 	0 10 	0 	0
10.0001 	0.000880217 	0 10 	0.000704173 	0 10 	0.00052813 	0 10 	0.000352087 	0 10 	0.000176043 	0 10 	0 	0
10.0001 	0.00046909 	0 10.0001 	0.000375083 	0 10.0001 	0.000281077 	0 10 	0.000187071 	0 10 	9.30642e-05 	0 10 	0 	0
10 	0.000269946 	0 10 	0.000215957 	0 10 	0.000161967 	0 10 	0.000107978 	0 10 	5.39891e-05 	0 10 	0 	0
10 	8.43407e-05 	0 10 	6.74725e-05 	0 10 	5.06044e-05 	0 10 	3.37363e-05 	0 10 	1.68681e-05 	0 10 	0 	0
10 	-2.26319e-05 	0 10 	-1.81055e-05 	0 10 	-1.35791e-05 	0 10 	-9.05275e-06 	0 10 	-4.52637e-06 	0 10 	0 	0
10 	-0.000213537 	0 10 	-0.00017083 	0 10 	-0.000128122 	0 10 	-8.54148e-05 	0 10 	-4.27074e-05 	0 10 	0 	0
10 	-0.000375954 	0 10 	-0.000300764 	0 10 	-0.000225573 	0 10 	-0.000150382 	0 10 	-7.51909e-05 	0 10 	0 	0
9.99999 	-0.000425441 	0 9.99999 	-0.000340353 	0 9.99999 	-0.000255264 	0 10 	-0.000170176 	0 10 	-8.50881e-05 	0 10 	0 	0
9.17387 	0.0871274 	0 9.1308 	0.0697019 	0 9.08741 	0.0522761 	0 9.04368 	0.0348502 	0 8.99963 	0.017424 	0 8.95524 	0 	0
10.0004 	0.00734859 	0 10.0024 	0.0152079 	0 10.0045 	0.0222309 	0 10.0065 	0.0292093 	0 10.0086 	0.0361436 	0 10.0135 	0.0463366 	0 10.0164 	0.040219 	0 10.0208 	0.040172 	0 10.0252 	0.0401252 	0 10.0297 	0.0400785 	0 10.0356 	0.0445397 	0 10.0385 	0.0379052 	0 10.0424 	0.0378649 	0 10.0464 	0.0378245 	0 10.0504 	0.0377841 	0 10.0545 	0.0408872 	0 10.0566 	0.0388138 	0 10.0591 	0.0401266 	0 10.0615 	0.041441 	0 10.0639 	0.0427571 	0 10.0661 	0.045217 	0 10.0676 	0.045331 	0 10.0689 	0.0465343 	0 10.0702 	0.0477389 	0 10.0715 	0.0489445 	0 10.0727 	0.0499634 	0 10.0727 	0.0500295 	0 10.0728 	0.0500956 	0 10.0729 	0.0501617 	0 10.0729 	0.0502278 	0 10.073 	0.0502839 	0 10.0735 	0.0509161 	0 10.074 	0.0515418 	0 10.0745 	0.0521681 	0 10.0751 	0.052795 	0 10.0755 	0.0532573 	0 10.0754 	0.05356 	0 10.075 	0.0537568 	0 10.0747 	0.0539538 	0 10.0743 	0.0541509 	0 10.0737 	0.0541093 	0 10.0733 	0.0542635 	0 10.0722 	0.0542489 	0 10.071 	0.0542343 	0 10.0699 	0.0542198 	0 10.0684 	0.053936 	0 10.0679 	0.0540287 	0 10.0663 	0.0539073 	0 10.0646 	0.0537858 	0 10.063 	0.0536643 	0 10.0604 	0.0532568 	0 10.0604 	0.0533279 	0 10.0583 	0.05315 	0 10.0562 	0.052972 	0 10.0542 	0.0527939 	0 10.0506 	0.052318 	0 10.0511 	0.052395 	0 10.0488 	0.0521981 	0 10.0464 	0.0520012 	0 10.0441 	0.0518042 	0 10.0394 	0.0513026 	0 10.0408 	0.0514107 	0 10.0382 	0.0512201 	0 10.0356 	0.0510296 	0 10.033 	0.0508389 	0 10.0272 	0.050332 	0 10.0296 	0.0504843 	0 10.0269 	0.0503255 	0 10.0241 	0.0501666 	0 10.0214 	0.0500078 	0 10.0144 	0.0495295 	0 10.0179 	0.049748 	0 10.0151 	0.0496319 	0 10.0123 	0.0495159 	0 10.0094 	0.0493998 	0 10.0012 	0.0489491 	0 10.0059 	0.0492545 	0 10.0031 	0.0492617 	0 10.0002 	0.0492688 	0 9.99732 	0.0492759 	0 9.98788 	0.0489763 	0 9.99402 	0.0494573 	0 9.99116 	0.0495792 	0 9.98831 	0.0497011 	0 9.98546 	0.0498231 	0 9.9748 	0.0495705 	0 9.9824 	0.0502042 	0 9.97972 	0.0506991 	0 9.97705 	0.0511941 	0 9.97438 	0.0516892 	0 9.96264 	0.0518872 	0 9.97201 	0.0528589 	7.65681e-22 9.97031 	0.0534887 	5.38531e-21 9.96861 	0.0541186 	1.00043e-20 9.96692 	0.0547487 	1.46228e-20 9.95502 	0.0547874 	1.22431e-20 9.96604 	0.0554024 	8.75328e-20 9.96485 	0.0554568 	8.14499e-20 9.96366 	0.0555113 	7.53677e-20 9.96247 	0.0555657 	6.92861e-20 9.95044 	0.0550178 	-1.4113e-20 9.96159 	0.054891 	-3.83284e-20 9.96044 	0.0543842 	-4.25561e-20 9.95929 	0.0538773 	-4.67813e-20 9.95813 	0.0533704 	-5.1004e-20 9.94606 	0.0525864 	-1.92758e-20 9.95676 	0.0521128 	-1.70528e-20 9.95514 	0.0511931 	-1.18004e-20 9.95351 	0.0502732 	-6.5486e-21 9.95188 	0.0493533 	-1.29747e-21 9.93953 	0.048271 	6.83892e-21 9.94978 	0.0478392 	-4.47935e-21 9.94769 	0.0467896 	-2.15306e-20 9.94559 	0.0457399 	-3.85843e-20 9.94349 	0.0446899 	-5.56403e-20 9.93084 	0.0433241 	-8.02254e-20 9.9406 	0.0430807 	-1.16865e-19 9.93804 	0.0421223 	-1.05581e-19 9.93547 	0.0411637 	-9.42877e-20 9.93289 	0.0402048 	-8.29868e-20 9.91994 	0.0387274 	-2.70629e-20 9.92912 	0.0386082 	3.62326e-20 9.92607 	0.0377449 	4.8669e-20 9.92302 	0.0368814 	6.10955e-20 9.91995 	0.0360176 	7.35119e-20 9.90678 	0.0345333 	3.35145e-20 9.9153 	0.0344114 	-5.07966e-20 9.91175 	0.0335765 	-5.64656e-20 9.9082 	0.0327413 	-6.2119e-20 9.90464 	0.0319058 	-6.77567e-20 9.89131 	0.0304655 	-2.51472e-22 9.89904 	0.0302969 	6.40756e-20 9.89496 	0.0294781 	5.55511e-20 9.89088 	0.0286591 	4.70111e-20 9.88679 	0.0278397 	3.84558e-20 9.87337 	0.0264811 	-2.48362e-20 9.88014 	0.0262615 	-7.99906e-20 9.87552 	0.0254587 	-1.00423e-19 9.87088 	0.0246556 	-1.20849e-19 9.86624 	0.0238522 	-1.41269e-19 9.85284 	0.0225853 	-1.22567e-19 9.85843 	0.0223209 	-1.4616e-19 9.85325 	0.0215344 	-1.34763e-19 9.84805 	0.0207477 	-1.23361e-19 9.84285 	0.0199606 	-1.11955e-19 9.82965 	0.0187813 	-7.42904e-20 9.83379 	0.0184786 	-6.32404e-20 9.82805 	0.017709 	-4.62537e-20 9.8223 	0.0169392 	-2.92687e-20 9.81655 	0.016169 	-1.22856e-20 9.80381 	0.0150699 	2.58305e-21 9.80615 	0.0147204 	0 9.79987 	0.0139641 	0 9.79359 	0.0132074 	0 9.7873 	0.0124504 	0 9.77536 	0.0114301 	0 9.77549 	0.011015 	-1.39516e-20 9.7687 	0.0102682 	-3.13578e-20 9.7619 	0.00952106 	-4.87657e-20 9.75509 	0.0087735 	-6.61754e-20 9.74435 	0.00784117 	-8.50145e-20 9.74183 	0.00733472 	-9.31591e-20 9.73453 	0.00659545 	-9.37924e-20 9.72723 	0.00585573 	-9.44202e-20 9.71991 	0.00511557 	-9.50425e-20 9.71084 	0.00429102 	-9.23964e-20 9.70762 	0.00389504 	-6.94208e-20 9.7023 	0.00339404 	-5.10927e-20 9.69698 	0.00289282 	-3.27695e-20 9.69164 	0.00239137 	-1.4451e-20 9.68653 	0.00191078 	3.09245e-21 9.684 	0.00167425 	1.16803e-20 9.68147 	0.00143767 	2.0267e-20 9.67893 	0.00120103 	2.88527e-20 9.6764 	0.000964339 	3.74374e-20 9.67182 	0.000634389 	4.79322e-20 9.66537 	-1.40512e-05 	4.88655e-20 9.65705 	-0.000745515 	4.98535e-20 9.64872 	-0.00147755 	5.08391e-20 9.64037 	-0.00221016 	5.18224e-20 9.62375 	-0.00329761 	5.39026e-20 9.6225 	-0.00371906 	4.26817e-20 9.61374 	-0.00445059 	3.14591e-20 9.60497 	-0.00518275 	2.02352e-20 9.59618 	-0.00591553 	9.01015e-21 9.57332 	-0.00720898 	-6.78717e-22 9.5769 	-0.00745744 	-8.53422e-21 9.56774 	-0.00819144 	-1.92546e-20 9.55857 	-0.00892612 	-2.99737e-20 9.54938 	-0.00966148 	-4.06916e-20 9.52088 	-0.0111015 	-5.14199e-20 9.52881 	-0.0112325 	-5.28245e-20 9.51928 	-0.0119701 	-5.94938e-20 9.50974 	-0.0127084 	-6.61596e-20 9.50018 	-0.0134474 	-7.2822e-20 9.46674 	-0.0149698 	-8.80919e-20 9.47845 	-0.0150407 	-1.27536e-19 9.46859 	-0.0157833 	-1.18782e-19 9.45871 	-0.0165266 	-1.10042e-19 9.44881 	-0.0172708 	-1.01317e-19 9.41118 	-0.0188125 	-3.74075e-20 9.42608 	-0.0188816 	-2.47063e-20 9.41591 	-0.0196309 	-1.75049e-20 9.40572 	-0.020381 	-1.03025e-20 9.39552 	-0.021132 	-3.09935e-21 9.35449 	-0.0226317 	0 9.37196 	-0.0227581 	0 9.36152 	-0.0235148 	0 9.35106 	-0.0242724 	0 9.34058 	-0.0250309 	0 9.29693 	-0.0264257 	0 9.31639 	-0.0266642 	2.02732e-21 9.30571 	-0.0274275 	8.70166e-21 9.29501 	-0.0281917 	1.53751e-20 9.28429 	-0.0289569 	2.20477e-20 9.23876 	-0.0301879 	3.75334e-20 9.25964 	-0.0305855 	1.36464e-19 9.24875 	-0.0313542 	1.39212e-19 9.23784 	-0.032124 	1.41978e-19 9.2269 	-0.0328948 	1.4476e-19 9.18017 	-0.0339118 	3.77192e-20 9.20198 	-0.0345079 	2.08411e-20 9.19091 	-0.0352811 	1.47816e-20 9.17981 	-0.0360554 	8.72107e-21 9.16869 	-0.0368306 	2.65953e-21 9.12138 	-0.037592 	1.49169e-20 9.14274 	-0.0384161 	9.49672e-20 9.13244 	-0.0391945 	9.85144e-20 9.12119 	-0.0399725 	9.98133e-20 9.10676 	-0.040725 	9.24818e-20 9.06254 	-0.0412265 	3.42601e-21 9.08066 	-0.0422678 	-9.1141e-20 9.0736 	-0.0430864 	-1.12842e-19 9.06221 	-0.0438679 	-1.22098e-19 9.04465 	-0.0445433 	-1.16519e-19 9.00385 	-0.0448149 	-5.48039e-20 9.01899 	-0.0460447 	-1.6204e-19 9.0146 	-0.0469475 	-1.92314e-19 9.00311 	-0.0477322 	-1.94634e-19 8.98309 	-0.0482857 	-1.58452e-19 8.94543 	-0.0483588 	-4.24285e-20 8.95787 	-0.0497523 	-2.21476e-20 8.95566 	-0.0507763 	-1.02245e-20 8.94408 	-0.0515639 	-3.65173e-21 8.92219 	-0.051958 	0 8.88744 	-0.0518593 	0 8.89743 	-0.0533887 	0 8.89698 	-0.0545621 	0 8.88534 	-0.0553533 	0 8.86209 	-0.0555615 	1.70626e-21 8.82997 	-0.0553228 	4.71947e-21 8.83778 	-0.0569703 	1.85523e-21 8.8387 	-0.0583182 	0 8.82701 	-0.0591131 	0 8.80287 	-0.0591115 	2.08454e-21 8.77315 	-0.058753 	5.10205e-21 8.77901 	-0.0604897 	2.2379e-21 8.78099 	-0.0620224 	1.29252e-21 8.76929 	-0.0628205 	7.20868e-21 8.74462 	-0.062599 	2.20534e-20 8.71707 	-0.0621505 	3.88836e-20 8.72119 	-0.0639579 	1.53611e-19 8.72397 	-0.0656853 	2.59269e-19 8.71226 	-0.0664895 	2.62677e-19 8.68739 	-0.0660474 	1.54111e-19 8.66181 	-0.0655367 	3.94105e-20 8.6644 	-0.0674072 	2.28495e-20 8.66692 	-0.0692796 	6.2902e-21 8.65509 	-0.0700425 	2.33968e-22 8.63126 	-0.069482 	3.13111e-21 8.60744 	-0.0689212 	6.0281e-21 8.60869 	-0.07084 	3.29047e-21 8.60987 	-0.0727607 	5.53823e-22 8.59851 	-0.0734931 	2.01201e-21 8.57626 	-0.07289 	-1.45364e-21 8.55402 	-0.0722865 	-4.91838e-21 8.55411 	-0.0742379 	-4.46016e-20 8.55413 	-0.0761913 	-8.42892e-20 8.54329 	-0.0768902 	-8.56141e-20 8.52243 	-0.0762542 	-4.93346e-20 8.50158 	-0.0756177 	-1.30531e-20 8.50067 	-0.0775761 	7.71886e-20 8.49968 	-0.0795365 	1.67424e-19 8.48939 	-0.0802048 	1.75273e-19 8.46976 	-0.079566 	9.99772e-20 8.45015 	-0.0789268 	2.46809e-20 8.44836 	-0.0808831 	1.41878e-20 8.44649 	-0.0828413 	3.69081e-21 8.43676 	-0.0834844 	-1.24401e-22 8.41824 	-0.0828612 	4.15507e-21 8.39973 	-0.0822376 	8.43588e-21 8.39716 	-0.0841834 	3.22128e-21 8.39452 	-0.086131 	-1.99903e-21 8.38535 	-0.0867526 	-1.81387e-20 8.36782 	-0.0861578 	-6.36936e-20 8.3503 	-0.0855625 	-1.09251e-19 8.34705 	-0.0874938 	-2.28129e-19 8.34373 	-0.0894268 	-3.47002e-19 8.33513 	-0.0900301 	-3.32136e-19 8.31849 	-0.089471 	-1.95837e-19 8.30186 	-0.0889116 	-5.95383e-20 8.298 	-0.0908265 	5.3375e-20 8.29366 	-0.0926237 	1.56094e-19 8.28511 	-0.0931916 	1.5373e-19 8.27022 	-0.0928122 	8.21552e-20 8.2544 	-0.0922932 	3.90314e-22 8.24999 	-0.0941918 	-8.06685e-20 8.24457 	-0.0957711 	-1.43961e-19 8.23612 	-0.0963556 	-1.52092e-19 8.22298 	-0.0961914 	-1.04756e-19 8.2079 	-0.0957155 	-3.43421e-20 8.20301 	-0.0975982 	-2.43101e-20 8.19671 	-0.0989674 	-1.43643e-20 8.18836 	-0.0995696 	-4.54413e-21 8.17675 	-0.0996168 	1.00305e-20 8.16233 	-0.0991857 	2.87018e-20 8.157 	-0.101053 	8.74217e-21 8.15003 	-0.102221 	-2.93097e-21 8.14177 	-0.102842 	-8.1459e-21 8.13148 	-0.103096 	-6.50714e-21 8.11766 	-0.102711 	7.06798e-21 8.11195 	-0.104565 	-8.20483e-21 8.10446 	-0.105539 	-1.65245e-20 8.09628 	-0.106179 	-2.22144e-20 8.08713 	-0.106636 	-3.05067e-20 8.07386 	-0.106297 	-4.99812e-20 8.0678 	-0.108139 	4.77738e-20 8.05994 	-0.108928 	5.9939e-20 8.05183 	-0.109589 	6.17146e-20 8.04367 	-0.110243 	6.27185e-20 8.03088 	-0.109951 	-2.09411e-20 8.02441 	-0.111712 	5.64799e-20 8.0164 	-0.112395 	5.88076e-20 8.00836 	-0.113078 	6.11221e-20 8.0003 	-0.113762 	6.34235e-20 7.9887 	-0.11368 	7.28077e-21 7.98176 	-0.115241 	-3.55758e-22 7.9738 	-0.115946 	-2.4993e-22 7.96581 	-0.116652 	-1.4412e-22 7.9578 	-0.117358 	-3.83286e-23 7.94728 	-0.117488 	1.13895e-20 7.93998 	-0.118859 	0 7.93207 	-0.119587 	0 7.92413 	-0.120316 	0 7.91616 	-0.121045 	0 7.90657 	-0.121383 	8.02807e-21 7.89902 	-0.122571 	0 7.89115 	-0.123323 	0 7.88324 	-0.124075 	0 7.87531 	-0.124828 	0 7.86652 	-0.125367 	0 7.85882 	-0.126381 	0 7.85097 	-0.127157 	0 7.8431 	-0.127934 	0 7.83519 	-0.128712 	0 7.8271 	-0.129448 	-8.68288e-22 7.82519 	-0.129691 	0 7.82327 	-0.129888 	0 7.82135 	-0.130085 	0 7.81942 	-0.130283 	0 7.81752 	-0.130478 	0 7.81143 	-0.131085 	0 7.80531 	-0.131692 	0 7.79918 	-0.132299 	0 7.79303 	-0.132907 	0 7.78759 	-0.133372 	0 7.77928 	-0.134331 	0 7.77122 	-0.135162 	0 7.76312 	-0.135993 	0 7.75499 	-0.136825 	0 7.74851 	-0.13733 	0 7.73983 	-0.138484 	-5.24171e-21 7.73177 	-0.139342 	-1.36821e-20 7.72367 	-0.140201 	-2.21206e-20 7.71553 	-0.14106 	-3.05572e-20 7.71 	-0.141416 	-3.90137e-20 7.70094 	-0.14276 	-3.32114e-20 7.69287 	-0.143648 	-3.24952e-20 7.68476 	-0.144536 	-3.1775e-20 7.67662 	-0.145425 	-3.10507e-20 7.672 	-0.145639 	-3.73717e-20 7.66256 	-0.147169 	-2.81174e-20 7.65447 	-0.148088 	-1.88296e-20 7.64635 	-0.149008 	-9.53965e-21 7.63819 	-0.149928 	-2.47674e-22 7.63448 	-0.150006 	0 7.62475 	-0.151672 	0 7.61654 	-0.152668 	-3.84453e-21 7.60839 	-0.15362 	-7.94596e-21 7.60107 	-0.154412 	-1.20498e-20 7.5974 	-0.154521 	-1.61681e-20 7.58766 	-0.156199 	-4.59959e-20 7.57902 	-0.157392 	-6.70403e-20 7.57085 	-0.158376 	-8.42948e-20 7.56447 	-0.159025 	-8.87058e-20 7.56071 	-0.159189 	-7.45277e-20 7.55095 	-0.160881 	-5.24459e-20 7.54189 	-0.162267 	-3.5815e-20 7.53369 	-0.163286 	-2.57404e-20 7.52824 	-0.163799 	-3.51815e-20 7.52438 	-0.164018 	-5.59649e-20 7.5146 	-0.165726 	-6.77691e-20 7.5051 	-0.167301 	-7.39602e-20 7.49686 	-0.168356 	-5.81971e-20 7.49231 	-0.16874 	-3.15294e-20 7.48836 	-0.169015 	-3.09583e-21 7.47856 	-0.170742 	2.88134e-22 7.46869 	-0.172469 	3.66652e-21 7.46072 	-0.173524 	0 7.45668 	-0.173855 	0 7.45262 	-0.174187 	0 7.44279 	-0.175935 	0 7.43289 	-0.177684 	0 7.42543 	-0.178765 	0 7.42129 	-0.179153 	0 7.41712 	-0.179541 	0 7.40725 	-0.181313 	0 7.39732 	-0.183085 	0 7.39037 	-0.184194 	-6.18707e-21 7.38611 	-0.18464 	-2.11374e-20 7.38184 	-0.185086 	-3.60866e-20 7.37193 	-0.186884 	-1.95205e-20 7.36195 	-0.188683 	-2.94704e-21 7.35549 	-0.189821 	5.08461e-22 7.35111 	-0.190325 	3.91555e-21 7.34671 	-0.19083 	7.32234e-21 7.33676 	-0.192658 	3.45334e-20 7.32704 	-0.194434 	5.9542e-20 7.32098 	-0.195573 	5.79535e-20 7.31625 	-0.196221 	4.70234e-20 7.31172 	-0.196787 	3.45215e-20 7.30171 	-0.198649 	1.38419e-20 7.29297 	-0.200284 	2.71194e-21 7.28681 	-0.201472 	1.04718e-20 7.2815 	-0.202344 	1.82219e-20 7.27684 	-0.202974 	2.5965e-20 7.26678 	-0.204874 	7.87389e-20 7.259 	-0.206376 	9.83424e-20 7.25274 	-0.207613 	9.59176e-20 7.24684 	-0.208704 	8.02363e-20 7.24204 	-0.209395 	2.82257e-20 7.23193 	-0.211332 	2.13896e-20 7.2251 	-0.212701 	2.09865e-20 7.21873 	-0.213987 	2.15329e-20 7.21231 	-0.215272 	2.20843e-20 7.2073 	-0.216045 	2.93023e-20 7.19769 	-0.217924 	7.24447e-20 7.19124 	-0.219261 	6.99565e-20 7.18475 	-0.220598 	6.74525e-20 7.17821 	-0.221934 	6.49328e-20 7.17259 	-0.222937 	3.16638e-20 7.16396 	-0.224685 	2.50013e-20 7.1574 	-0.226077 	1.82092e-20 7.15079 	-0.22747 	1.142e-20 7.14413 	-0.228862 	4.63357e-21 7.13788 	-0.230095 	0 7.13052 	-0.231653 	0 7.12414 	-0.233041 	0 7.11771 	-0.234429 	0 7.11124 	-0.235816 	0 7.10513 	-0.237116 	0 7.10473 	-0.237198 	0 7.10432 	-0.237281 	0 7.10392 	-0.237363 	0 7.10351 	-0.237446 	0 7.10318 	-0.237519 	0 7.09615 	-0.239041 	0 7.0891 	-0.240554 	0 7.082 	-0.242067 	0 7.07484 	-0.24358 	0 7.06915 	-0.244921 	-1.15002e-21 7.06118 	-0.246658 	3.86761e-21 7.054 	-0.24824 	1.00845e-20 7.04676 	-0.249821 	1.62983e-20 7.03947 	-0.251402 	2.25089e-20 7.0351 	-0.252651 	2.64503e-20 7.02616 	-0.254603 	5.02338e-21 7.01884 	-0.256256 	8.38094e-21 7.01146 	-0.257908 	1.17163e-20 7.00402 	-0.25956 	1.50293e-20 7.00099 	-0.260722 	4.92222e-20 6.99134 	-0.262838 	1.27108e-20 6.98358 	-0.264616 	-7.39506e-22 6.97606 	-0.266343 	-1.07747e-20 6.9699 	-0.267915 	-8.76938e-21 6.9668 	-0.269152 	1.92897e-20 6.95701 	-0.271335 	1.51245e-20 6.94821 	-0.273339 	1.22859e-20 6.94053 	-0.275146 	1.0911e-20 6.93576 	-0.276635 	1.6392e-20 6.93249 	-0.277961 	2.54007e-20 6.92255 	-0.280216 	1.5932e-20 6.91268 	-0.282447 	7.02211e-21 6.90489 	-0.284333 	6.13811e-21 6.90148 	-0.285755 	1.82851e-20 6.89803 	-0.287177 	3.04336e-20 6.88794 	-0.28951 	4.20603e-20 6.87776 	-0.291842 	5.36867e-20 6.87062 	-0.293776 	4.87946e-20 6.86703 	-0.295296 	2.80706e-20 6.86339 	-0.296815 	7.34494e-21 6.85313 	-0.299226 	4.74117e-21 6.84279 	-0.301637 	2.13975e-21 6.83615 	-0.303644 	0 6.83237 	-0.305266 	0 6.82853 	-0.306889 	0 6.81811 	-0.309383 	0 6.80817 	-0.31182 	3.84897e-22 6.80199 	-0.313876 	3.37782e-21 6.79745 	-0.315684 	-1.61328e-21 6.7934 	-0.317413 	-9.19365e-21 6.7828 	-0.319992 	8.48856e-22 6.7744 	-0.322355 	7.44375e-21 6.76803 	-0.324518 	1.08687e-20 6.76224 	-0.326592 	1.4946e-20 6.75798 	-0.328444 	2.06484e-20 6.7472 	-0.331137 	1.60037e-20 6.74037 	-0.333465 	1.6427e-20 6.73379 	-0.335762 	1.72739e-20 6.72714 	-0.338058 	1.81282e-20 6.72218 	-0.340121 	3.12585e-20 6.71267 	-0.342825 	1.71735e-20 6.70593 	-0.345265 	9.48462e-21 6.69912 	-0.347703 	1.79794e-21 6.69222 	-0.35014 	-5.8865e-21 6.68587 	-0.352492 	-1.21098e-20 6.68104 	-0.354 	-2.31964e-20 6.67721 	-0.355414 	-2.59801e-20 6.67335 	-0.356827 	-2.87568e-20 6.66947 	-0.35824 	-3.15266e-20 6.66574 	-0.359586 	-3.41606e-20 6.66228 	-0.360744 	-3.71191e-20 6.65881 	-0.361902 	-4.00752e-20 6.65531 	-0.363059 	-4.30291e-20 6.6518 	-0.364216 	-4.59808e-20 6.64882 	-0.365298 	-4.95352e-20 6.6409 	-0.368044 	-4.31891e-20 6.63313 	-0.370721 	-3.85962e-20 6.62527 	-0.373396 	-3.39874e-20 6.61732 	-0.37607 	-2.93627e-20 6.61105 	-0.37851 	-3.6078e-20 6.60228 	-0.381541 	-7.29832e-21 6.59417 	-0.384359 	1.1321e-21 6.58596 	-0.387174 	9.59065e-21 6.5781 	-0.389932 	1.19083e-20 6.57228 	-0.392415 	-1.54248e-20 6.56301 	-0.39562 	-8.49416e-21 6.5541 	-0.398695 	-3.75536e-21 6.54551 	-0.401658 	-9.19045e-22 6.53857 	-0.404407 	0 6.53237 	-0.407052 	0 6.5227 	-0.410401 	0 6.51292 	-0.413749 	0 6.50433 	-0.416835 	0 6.49781 	-0.419651 	0 6.49119 	-0.422466 	0 6.48111 	-0.425973 	0 6.47091 	-0.429477 	0 6.46264 	-0.432724 	-2.852e-22 6.45567 	-0.435716 	-2.17063e-21 6.4486 	-0.438707 	-4.05426e-21 6.43807 	-0.442377 	1.67398e-20 6.42815 	-0.445964 	2.93704e-20 6.41991 	-0.449351 	2.22884e-20 6.41199 	-0.452636 	6.72484e-21 6.40443 	-0.455808 	-1.83007e-20 6.39341 	-0.459645 	-1.20862e-20 6.38445 	-0.463249 	-8.28988e-21 6.3757 	-0.466814 	-4.86035e-21 6.36683 	-0.470376 	-1.43631e-21 6.35847 	-0.473792 	2.17193e-21 6.34914 	-0.477244 	1.28089e-21 6.34105 	-0.48056 	5.71275e-21 6.33286 	-0.483874 	1.01488e-20 6.32457 	-0.487184 	1.45891e-20 6.31689 	-0.490211 	1.86562e-20 6.3157 	-0.490703 	1.97679e-20 6.3145 	-0.491195 	2.08803e-20 6.31331 	-0.491687 	2.19933e-20 6.31211 	-0.492179 	2.3107e-20 6.31092 	-0.492649 	2.03143e-20 6.30194 	-0.496607 	9.72283e-21 6.29274 	-0.500538 	-6.45085e-22 6.2834 	-0.504465 	-1.10352e-20 6.27394 	-0.508389 	-2.14476e-20 6.26443 	-0.512129 	-3.1319e-20 6.25553 	-0.516454 	-5.6309e-20 6.24571 	-0.520575 	-6.23667e-20 6.23576 	-0.524692 	-6.84825e-20 6.22568 	-0.528722 	-6.1763e-20 6.21552 	-0.532583 	-2.85769e-20 6.20604 	-0.537113 	-1.57107e-20 6.19624 	-0.541594 	-3.89687e-21 6.1856 	-0.545897 	3.76995e-21 6.17482 	-0.549954 	7.2469e-21 6.16389 	-0.554006 	1.06574e-20 6.15371 	-0.558715 	3.65687e-20 6.14337 	-0.563418 	6.24718e-20 6.13261 	-0.567904 	6.19765e-20 6.12102 	-0.572148 	3.48668e-20 6.10927 	-0.576391 	7.73125e-21 6.09833 	-0.581279 	3.14956e-21 6.08718 	-0.586079 	-2.81349e-21 6.07579 	-0.590736 	-1.10705e-20 6.064 	-0.595331 	-1.93077e-20 6.05136 	-0.599768 	-2.74779e-20 6.03956 	-0.604817 	-2.26646e-20 6.02745 	-0.609662 	-2.51772e-20 6.01515 	-0.614502 	-2.77157e-20 6.00268 	-0.619335 	-3.02802e-20 5.98985 	-0.624126 	-3.39507e-20 5.98772 	-0.624994 	-3.27045e-20 5.98556 	-0.625832 	-3.04223e-20 5.98339 	-0.626671 	-2.81402e-20 5.98122 	-0.627509 	-2.58581e-20 5.97908 	-0.628332 	-2.36169e-20 5.96878 	-0.632506 	-1.21439e-20 5.95836 	-0.636675 	-6.71545e-22 5.94781 	-0.640841 	1.08001e-20 5.93715 	-0.645002 	2.2271e-20 5.92635 	-0.649035 	2.62726e-20 5.91383 	-0.654417 	4.59564e-20 5.90044 	-0.659592 	4.97827e-20 5.88686 	-0.66476 	5.36318e-20 5.87307 	-0.669843 	4.29142e-20 5.85904 	-0.674819 	1.21421e-20 5.84556 	-0.680397 	9.51193e-21 5.83187 	-0.685968 	6.8437e-21 5.81724 	-0.691274 	1.84012e-21 5.80224 	-0.696393 	6.33949e-21 5.78702 	-0.701511 	1.08473e-20 5.7724 	-0.70723 	3.11528e-20 5.75755 	-0.712923 	4.90952e-20 5.74233 	-0.718409 	4.20312e-20 5.7264 	-0.723733 	2.19795e-20 5.70991 	-0.728957 	-6.74731e-21 5.69409 	-0.734782 