/*--------------------------------*- C++ -*----------------------------------*\
  =========                 |
  \\      /  F ield         | OpenFOAM: The Open Source CFD Toolbox
   \\    /   O peration     | Website:  https://openfoam.org
    \\  /    A nd           | Version:  9
     \\/     M anipulation  |
\*---------------------------------------------------------------------------*/
FoamFile
{
    format      ascii;
    class       surfaceScalarField;
    location    "5.11";
    object      alphaPhi0.water;
}
// * * * * * * * * * * * * * * * * * * * * * * * * * * * * * * * * * * * * * //

dimensions      [0 3 -1 0 0 0 0];

internalField   nonuniform List<scalar> 
4432
(
1.65107e-07
-1.65107e-07
4.13183e-07
-2.48067e-07
6.77802e-07
-2.64625e-07
9.282e-07
-2.5039e-07
1.1547e-06
-2.26498e-07
1.35341e-06
-1.98711e-07
1.52573e-06
-1.72322e-07
1.6766e-06
-1.50867e-07
1.81076e-06
-1.34166e-07
1.93031e-06
-1.19552e-07
2.0373e-06
-1.06986e-07
2.13664e-06
-9.93486e-08
2.2384e-06
-1.01759e-07
2.35871e-06
-1.2031e-07
2.51302e-06
-1.54315e-07
2.68411e-06
-1.71095e-07
2.6818e-06
2.30967e-09
1.95819e-06
7.23194e-07
6.38073e-07
1.31943e-06
-5.53339e-07
1.19204e-06
-1.05302e-06
4.99237e-07
-6.98002e-07
-3.55895e-07
-6.98878e-07
2.0757e-07
-3.72682e-07
4.49834e-07
-4.90315e-07
7.01383e-07
-5.1618e-07
9.47314e-07
-4.96315e-07
1.1762e-06
-4.55386e-07
1.38263e-06
-4.05141e-07
1.56619e-06
-3.55881e-07
1.72893e-06
-3.13606e-07
1.87259e-06
-2.77828e-07
1.99702e-06
-2.43984e-07
2.10165e-06
-2.11619e-07
2.18804e-06
-1.85744e-07
2.26032e-06
-1.74041e-07
2.3238e-06
-1.83799e-07
2.38002e-06
-2.10534e-07
2.40971e-06
-2.00791e-07
2.31891e-06
9.30129e-08
1.82063e-06
1.22151e-06
9.14915e-07
2.22519e-06
3.28032e-08
2.07419e-06
-4.94786e-07
1.02824e-06
-5.41131e-07
-3.09545e-07
-1.24181e-06
2.36306e-07
-6.08993e-07
4.78197e-07
-7.32193e-07
7.22496e-07
-7.60482e-07
9.64405e-07
-7.38217e-07
1.19323e-06
-6.84215e-07
1.40269e-06
-6.14596e-07
1.59107e-06
-5.44257e-07
1.75874e-06
-4.81276e-07
1.90559e-06
-4.24677e-07
2.02956e-06
-3.6796e-07
2.12816e-06
-3.10213e-07
2.20027e-06
-2.57854e-07
2.24586e-06
-2.19632e-07
2.26383e-06
-2.0177e-07
2.24843e-06
-1.9514e-07
2.18208e-06
-1.34436e-07
2.03514e-06
2.3737e-07
1.64016e-06
1.57992e-06
1.10765e-06
2.70639e-06
4.87764e-07
2.66359e-06
-6.10575e-09
1.51409e-06
-2.37636e-07
-7.80086e-08
-1.47944e-06
2.52298e-07
-8.61297e-07
4.99543e-07
-9.79425e-07
7.43885e-07
-1.00483e-06
9.85527e-07
-9.79853e-07
1.21551e-06
-9.14197e-07
1.42744e-06
-8.26528e-07
1.61897e-06
-7.35778e-07
1.78941e-06
-6.51721e-07
1.93736e-06
-5.7262e-07
2.05914e-06
-4.89743e-07
2.15053e-06
-4.01599e-07
2.20833e-06
-3.15655e-07
2.22951e-06
-2.40809e-07
2.20872e-06
-1.80978e-07
2.13609e-06
-1.2251e-07
1.99653e-06
5.12252e-09
1.78059e-06
4.37038e-07
1.52256e-06
1.81918e-06
1.24922e-06
2.97959e-06
8.55983e-07
3.04981e-06
4.55536e-07
1.90087e-06
1.31161e-07
2.47066e-07
-1.34831e-06
2.6113e-07
-1.12243e-06
5.16221e-07
-1.23451e-06
7.6523e-07
-1.25384e-06
1.0097e-06
-1.22432e-06
1.24211e-06
-1.14661e-06
1.45645e-06
-1.04086e-06
1.65021e-06
-9.29543e-07
1.82217e-06
-8.23673e-07
1.96997e-06
-7.20428e-07
2.08859e-06
-6.08354e-07
2.17228e-06
-4.85297e-07
2.21641e-06
-3.59782e-07
2.21605e-06
-2.40451e-07
2.16356e-06
-1.2849e-07
2.04707e-06
-6.01354e-09
1.85654e-06
1.95647e-07
1.60676e-06
6.86817e-07
1.4753e-06
1.94465e-06
1.35451e-06
3.10023e-06
1.16461e-06
3.23958e-06
9.06905e-07
2.19905e-06
4.78104e-07
6.77706e-07
-8.70187e-07
2.67202e-07
-1.38964e-06
5.30761e-07
-1.49806e-06
7.86369e-07
-1.50945e-06
1.03529e-06
-1.47323e-06
1.27075e-06
-1.38207e-06
1.48725e-06
-1.25736e-06
1.68248e-06
-1.12477e-06
1.85491e-06
-9.96104e-07
2.00162e-06
-8.67144e-07
2.11639e-06
-7.23126e-07
2.19237e-06
-5.61275e-07
2.22411e-06
-3.91523e-07
2.20599e-06
-2.22337e-07
2.12979e-06
-5.22908e-08
1.98544e-06
1.38334e-07
1.76778e-06
4.13304e-07
1.51284e-06
9.41763e-07
1.42624e-06
2.02992e-06
1.43655e-06
3.08979e-06
1.42267e-06
3.2533e-06
1.25781e-06
2.40646e-06
7.64101e-07
1.17149e-06
-1.06136e-07
2.73251e-07
-1.66289e-06
5.44501e-07
-1.7693e-06
8.06537e-07
-1.77149e-06
1.06007e-06
-1.72676e-06
1.29844e-06
-1.62045e-06
1.51657e-06
-1.4755e-06
1.71246e-06
-1.32066e-06
1.8844e-06
-1.16805e-06
2.02911e-06
-1.01186e-06
2.13946e-06
-8.33482e-07
2.20791e-06
-6.29723e-07
2.22895e-06
-4.12568e-07
2.19732e-06
-1.90711e-07
2.10593e-06
3.90925e-08
1.94787e-06
2.96395e-07
1.72625e-06
6.34927e-07
1.49363e-06
1.17438e-06
1.41962e-06
2.10393e-06
1.51637e-06
3.02503e-06
1.60678e-06
3.22903e-06
1.47729e-06
2.54787e-06
9.90492e-07
1.65829e-06
8.84358e-07
2.80189e-07
-1.94308e-06
5.56992e-07
-2.0461e-06
8.23933e-07
-2.03843e-06
1.08112e-06
-1.98395e-06
1.32163e-06
-1.86095e-06
1.54066e-06
-1.69453e-06
1.73642e-06
-1.51642e-06
1.90693e-06
-1.33856e-06
2.04869e-06
-1.15361e-06
2.15398e-06
-9.38778e-07
2.2151e-06
-6.90846e-07
2.22725e-06
-4.24713e-07
2.18636e-06
-1.49824e-07
2.08741e-06
1.38042e-07
1.92751e-06
4.56299e-07
1.71728e-06
8.45153e-07
1.51225e-06
1.37942e-06
1.45198e-06
2.1642e-06
1.56778e-06
2.90924e-06
1.6857e-06
3.11111e-06
1.58522e-06
2.64838e-06
1.17649e-06
2.06702e-06
2.06085e-06
-1.00806e-06
1.00622e-06
-5.87537e-07
-4.22851e-07
-1.85671e-07
-4.04863e-07
2.09468e-08
-2.0784e-07
7.14749e-08
-5.08938e-08
2.29411e-08
4.85331e-08
-3.29181e-08
5.58585e-08
6.16878e-08
-9.45682e-08
5.35355e-07
-4.72897e-07
1.2057e-06
-6.67941e-07
1.09353e-06
1.11766e-07
-9.01056e-08
1.18334e-06
-2.33923e-06
2.25668e-06
-3.02379e-06
6.48299e-07
-7.35174e-07
-2.31388e-06
1.59126e-06
-2.32682e-06
2.73625e-06
-1.14537e-06
2.19937e-06
5.33392e-07
2.19029e-06
-3.93626e-07
1.39801e-06
-3.29159e-07
-4.88907e-07
-2.74505e-07
-4.59515e-07
-2.66567e-07
-2.15775e-07
-3.12279e-07
-5.17986e-09
-3.85525e-07
1.22718e-07
-4.24493e-07
9.54322e-08
-3.26219e-07
-1.93919e-07
-1.38415e-08
-7.87811e-07
2.84743e-07
-9.68058e-07
6.54071e-08
3.30687e-07
-7.82578e-07
2.03092e-06
-1.83149e-06
3.25108e-06
-1.49638e-06
2.76921e-07
-1.01017e-07
-3.70963e-06
1.34901e-06
-3.77723e-06
2.07234e-06
-1.86908e-06
1.94202e-06
6.63943e-07
4.12324e-06
-3.10924e-08
1.44134e-06
-2.2931e-07
-2.91055e-07
-3.68007e-07
-3.20882e-07
-4.75787e-07
-1.07993e-07
-5.83754e-07
1.02798e-07
-6.92607e-07
2.31582e-07
-7.55486e-07
1.58308e-07
-7.18643e-07
-2.30766e-07
-5.75862e-07
-9.30253e-07
-4.41988e-07
-1.1008e-06
-7.45081e-07
6.24895e-07
-1.21318e-06
2.46898e-06
-1.28107e-06
3.31824e-06
-6.701e-07
-3.69772e-07
1.80503e-07
-4.56062e-06
1.12487e-06
-4.72198e-06
1.5291e-06
-2.27369e-06
1.46394e-06
7.28924e-07
5.5781e-06
4.25581e-08
1.39878e-06
-2.52339e-07
3.80209e-09
-4.95072e-07
-7.8191e-08
-6.75527e-07
7.24514e-08
-8.29848e-07
2.57119e-07
-9.7097e-07
3.72704e-07
-1.07612e-06
2.642e-07
-1.12293e-06
-1.83665e-07
-1.12947e-06
-9.24012e-07
-1.11704e-06
-1.09681e-06
-1.29085e-06
7.86503e-07
-1.404e-06
2.57481e-06
-9.41569e-07
2.85569e-06
-2.66132e-07
-1.04337e-06
2.63821e-07
-5.09096e-06
8.80739e-07
-5.33928e-06
1.05235e-06
-2.44568e-06
1.00863e-06
7.72264e-07
6.61798e-06
-2.85544e-08
1.42729e-06
-3.56432e-07
3.31689e-07
-6.54383e-07
2.19768e-07
-8.81439e-07
2.99506e-07
-1.06942e-06
4.45104e-07
-1.2419e-06
5.45182e-07
-1.38871e-06
4.13424e-07
-1.5148e-06
-5.9597e-08
-1.64938e-06
-7.90268e-07
-1.75496e-06
-9.60504e-07
-1.69423e-06
7.98491e-07
-1.46407e-06
2.34448e-06
-7.47095e-07
2.13852e-06
-1.08104e-07
-1.71714e-06
1.7259e-07
-5.37231e-06
5.50507e-07
-5.71758e-06
5.85553e-07
-2.44259e-06
5.95472e-07
7.65393e-07
7.21355e-06
-1.22537e-07
1.54987e-06
-5.01936e-07
7.11087e-07
-8.37049e-07
5.5488e-07
-1.09349e-06
5.55977e-07
-1.30445e-06
6.55986e-07
-1.5017e-06
7.42489e-07
-1.68319e-06
5.96761e-07
-1.8641e-06
1.20348e-07
-2.08679e-06
-5.69589e-07
-2.29101e-06
-7.46876e-07
-2.03052e-06
6.24817e-07
-1.52612e-06
1.8399e-06
-6.79425e-07
1.29338e-06
-1.77506e-07
-2.24495e-06
-1.13603e-07
-5.43681e-06
7.79604e-08
-5.90332e-06
1.19447e-07
-2.47747e-06
2.12651e-07
6.71206e-07
7.4263e-06
-2.23418e-07
1.77329e-06
-6.73921e-07
1.16159e-06
-1.03225e-06
9.13211e-07
-1.3069e-06
8.30759e-07
-1.5313e-06
8.80282e-07
-1.74164e-06
9.52717e-07
-1.94263e-06
7.97522e-07
-2.1509e-06
3.28575e-07
-2.40569e-06
-3.14861e-07
-2.60771e-06
-5.42578e-07
-2.32148e-06
3.79845e-07
-1.64548e-06
1.22132e-06
-7.84867e-07
4.32483e-07
-4.5495e-07
-2.57553e-06
-5.64125e-07
-5.32826e-06
-5.27407e-07
-5.93387e-06
-4.0481e-07
-2.59369e-06
-2.62257e-07
5.18769e-07
7.16414e-06
-4.09137e-07
2.18241e-06
-8.65346e-07
1.61778e-06
-1.22928e-06
1.27714e-06
-1.51602e-06
1.1175e-06
-1.74643e-06
1.11069e-06
-1.95786e-06
1.16414e-06
-2.15615e-06
9.9581e-07
-2.36334e-06
5.35761e-07
-2.59722e-06
-7.38334e-08
-2.75161e-06
-3.91235e-07
-2.48194e-06
1.06403e-07
-1.77761e-06
5.16782e-07
-1.02778e-06
-3.17623e-07
-8.4596e-07
-2.75805e-06
-1.10013e-06
-5.07475e-06
-1.27765e-06
-5.75668e-06
-1.02876e-06
-2.83631e-06
-8.26538e-07
2.8988e-07
6.2485e-06
6.06004e-07
-2.5491e-06
1.20869e-06
-2.64878e-06
1.78872e-06
-2.61847e-06
2.34415e-06
-2.53938e-06
2.85923e-06
-2.37603e-06
3.32585e-06
-2.16115e-06
3.74038e-06
-1.93094e-06
4.09496e-06
-1.69312e-06
4.38384e-06
-1.44248e-06
4.58853e-06
-1.14346e-06
4.69403e-06
-7.96325e-07
4.69541e-06
-4.26077e-07
4.59063e-06
-4.505e-08
4.37695e-06
3.51724e-07
4.06006e-06
7.73193e-07
3.67613e-06
1.22909e-06
3.33083e-06
1.72471e-06
3.23454e-06
2.26049e-06
3.4232e-06
2.72059e-06
3.60221e-06
2.93209e-06
3.43872e-06
2.81187e-06
2.93571e-06
2.57003e-06
2.50759e-06
2.48896e-06
5.59124e-07
-2.17307e-06
1.12508e-06
-2.26354e-06
1.66443e-06
-2.23582e-06
2.18821e-06
-2.18513e-06
2.68383e-06
-2.05952e-06
3.14762e-06
-1.89265e-06
3.56538e-06
-1.70372e-06
3.91451e-06
-1.49008e-06
4.17606e-06
-1.24927e-06
4.33949e-06
-9.68091e-07
4.41201e-06
-6.50887e-07
4.39814e-06
-3.09584e-07
4.30358e-06
4.25241e-08
4.13096e-06
3.95015e-07
3.9018e-06
7.55734e-07
3.64593e-06
1.12978e-06
3.42808e-06
1.49615e-06
3.34043e-06
1.82892e-06
3.38296e-06
2.67803e-06
3.33799e-06
2.97707e-06
2.99406e-06
3.15579e-06
2.32537e-06
3.23872e-06
3.30299e-06
1.52997e-06
1.95308e-07
-1.3534e-08
2.9886e-07
-9.37041e-09
4.1615e-07
-8.0778e-09
5.21302e-07
-3.10539e-09
6.53521e-07
-1.04141e-08
8.12959e-07
-2.51651e-08
9.6619e-07
-2.3625e-08
1.09225e-06
-1.94533e-08
1.17919e-06
-1.45546e-08
1.24055e-06
-9.92574e-09
1.28733e-06
-5.46712e-09
1.31725e-06
-9.5176e-10
1.32323e-06
2.95533e-09
1.30916e-06
2.4285e-09
1.28656e-06
1.15464e-09
1.2731e-06
0
1.27957e-06
1.80878e-10
1.27679e-06
2.10156e-08
1.24037e-06
0
1.19003e-06
0
1.03855e-06
3.74194e-09
7.38975e-07
4.29758e-09
3.14447e-08
3.53103e-07
1.05524e-09
-1.60539e-08
1.09417e-09
-1.08845e-08
1.14413e-09
-9.60822e-09
4.86545e-10
-3.91824e-09
5.84481e-10
-1.19925e-08
1.26421e-09
-2.73184e-08
1.73562e-09
-2.67736e-08
1.99783e-09
-2.24736e-08
2.13797e-09
-1.74999e-08
2.21012e-09
-1.28289e-08
2.25666e-09
-8.35958e-09
2.29331e-09
-3.83256e-09
2.40657e-09
0
2.89639e-09
0
3.91479e-09
0
5.69661e-09
0
9.81617e-09
0
9.97778e-09
6.0151e-12
5.50328e-09
1.45522e-09
6.58805e-09
1.17292e-12
7.52225e-09
9.65894e-12
6.2153e-09
0
0
5.2802e-10
-2.56416e-09
-1.17309e-08
-1.15795e-09
-1.05367e-08
-1.03855e-09
-8.0638e-09
0
-2.1594e-09
-6.73796e-10
-1.21476e-08
-2.6878e-10
-1.26889e-08
-1.03658e-09
-8.9951e-09
-9.89932e-10
-9.87653e-09
-4.84926e-11
-9.51744e-09
-4.24373e-10
-9.77455e-09
3.93531e-09
-8.7513e-09
9.52203e-09
-5.29228e-09
1.54432e-08
-1.80256e-09
1.95573e-08
-1.90168e-11
2.31953e-08
1.12337e-09
2.51004e-08
2.91533e-09
3.28203e-08
-2.88127e-09
2.33002e-09
3.09392e-09
6.55203e-09
5.29029e-10
7.14096e-09
1.24535e-09
2.9084e-09
1.4084e-09
6.05476e-10
2.43948e-09
4.40559e-09
-8.20111e-10
-6.97059e-10
-4.48777e-09
-7.12934e-10
-5.07031e-09
1.78091e-09
-6.66065e-09
8.01577e-09
-1.6368e-09
8.03698e-09
-5.42021e-09
5.39472e-10
-4.6287e-10
3.66339e-11
0
-6.34765e-10
-3.71283e-12
-1.0195e-09
-1.73736e-14
-1.13908e-09
-2.90527e-14
-8.45057e-10
-8.96119e-14
2.33648e-10
-2.47813e-12
1.55324e-09
-3.70535e-12
2.27887e-09
-1.26338e-12
2.09595e-09
3.31862e-13
7.67566e-10
0
-6.27375e-10
0
1.05512e-11
8.42062e-10
5.6643e-10
3.24777e-09
-1.08751e-09
5.55325e-10
-3.54877e-09
0
-2.3239e-09
0
2.67226e-09
-2.8389e-09
2.57756e-10
-6.0848e-15
1.45344e-10
-8.72379e-14
4.73534e-10
-2.66152e-13
8.85643e-10
-5.21587e-14
1.05729e-10
-3.41969e-14
9.22092e-11
-1.80172e-11
4.36137e-13
0
5.51603e-16
-3.27739e-12
-4.58941e-15
-1.23622e-14
-7.04117e-15
-2.67516e-14
-1.00392e-14
-8.67437e-14
-1.43812e-14
-2.47461e-12
-1.88036e-14
-3.70813e-12
-1.06538e-12
-2.37317e-13
-1.07392e-12
3.39209e-13
-6.50805e-12
1.3922e-14
-3.46501e-10
0
-1.29987e-09
0
-6.03661e-10
0
-5.73238e-10
3.13995e-10
-4.46942e-10
0
-1.10508e-09
2.98947e-10
6.03855e-10
-1.29808e-09
9.45152e-17
-9.35795e-15
5.34742e-16
-9.08592e-14
5.13308e-17
-2.69156e-13
-1.15931e-15
-5.51161e-14
-3.0438e-14
-9.46145e-15
-1.80661e-11
-8.65452e-16
-4.43594e-12
8.51537e-14
-1.98443e-14
-2.91358e-14
-1.79103e-14
-1.44482e-14
-3.17837e-14
-1.30079e-14
-5.62787e-13
-5.495e-13
-5.85201e-12
-5.52089e-12
-8.81394e-12
-2.18722e-12
-1.23e-12
1.10969e-12
-9.27309e-13
2.52506e-14
-1.13379e-12
2.42987e-13
-8.87058e-10
1.53788e-10
-1.04338e-09
3.86516e-10
-7.95699e-10
0
-2.04346e-10
2.55026e-13
-6.56501e-11
4.41983e-10
-6.9016e-10
6.78804e-10
3.11762e-10
-8.86402e-10
8.72507e-17
-6.51858e-15
-9.5077e-15
-2.93724e-13
-2.65623e-14
-7.12867e-13
-1.12434e-14
-1.80792e-13
-1.74687e-15
-1.65772e-15
-1.87647e-15
-7.36066e-16
-1.42875e-15
-3.21753e-16
-3.16989e-14
-5.35978e-16
0
0
-1.29949e-14
-6.94468e-16
-1.4132e-11
-4.98415e-13
-1.63544e-11
-2.87717e-12
-1.83045e-11
1.77002e-13
-6.62734e-13
2.10031e-12
-6.72289e-13
2.4634e-14
0
1.99807e-13
-1.82006e-10
0
-3.9986e-10
0
-3.34054e-10
1.17339e-12
-2.34096e-10
1.8004e-10
-4.22304e-10
2.63444e-10
-3.30722e-10
0
0
-1.75965e-10
-9.20829e-15
-8.91327e-15
-1.08651e-13
-4.66326e-13
-8.90572e-14
-5.68836e-13
-1.49713e-15
-1.75049e-13
-1.87227e-15
-1.28281e-15
-1.91908e-15
-6.89475e-16
-1.87561e-15
-3.65439e-16
-1.80284e-15
-6.06977e-16
0
-4.94767e-14
0
-1.19481e-12
-1.77007e-11
-4.79874e-13
-2.01441e-11
-1.9187e-14
-1.03945e-11
1.24559e-12
-3.46016e-13
0
-3.51321e-13
2.1586e-14
-5.67019e-13
1.24043e-13
-5.92015e-13
2.64552e-14
-1.07444e-12
0
-3.52959e-11
0
-5.69697e-11
0
-2.82232e-12
0
-3.55261e-13
6.92657e-13
2.84713e-14
-3.88089e-13
-1.68024e-14
-5.14694e-15
-1.25248e-13
-1.59776e-13
-2.20263e-13
-3.10195e-13
-1.65154e-15
-7.51966e-14
-1.9904e-15
-9.44175e-16
-2.13523e-15
-5.44851e-16
-1.01772e-15
-1.48119e-15
-5.74708e-13
-1.90263e-13
-9.00152e-12
-4.09964e-13
-9.84177e-12
-1.45313e-13
-8.06412e-12
1.47127e-13
-7.36486e-13
1.77828e-13
-4.74763e-14
4.52716e-15
-6.05553e-14
0
-6.47477e-14
1.87727e-14
-1.53711e-14
5.39151e-16
-1.96177e-14
4.6534e-15
-6.89171e-13
5.23163e-13
-3.43638e-12
9.06256e-12
-3.61006e-12
9.43214e-12
-1.62336e-13
0
-7.2851e-14
6.05632e-13
4.65e-14
-9.15468e-14
-2.52364e-15
-4.97969e-15
-3.98621e-14
-3.41982e-15
-3.92157e-14
-4.33105e-15
-2.41779e-15
-2.00902e-15
-1.97231e-15
-1.38988e-15
-2.07688e-15
-4.4235e-16
-3.16507e-15
-4.45819e-16
-8.00016e-12
-3.2396e-15
-8.4922e-12
2.40212e-13
-8.88041e-12
4.56874e-13
-1.89761e-13
1.01887e-13
-1.8394e-14
1.56788e-15
-1.08214e-14
1.00712e-15
-9.36009e-15
3.04464e-15
-6.74498e-16
5.26061e-16
-3.37391e-16
1.57248e-16
-7.43248e-16
4.85811e-15
-1.04968e-11
2.98171e-12
-2.14749e-11
1.42196e-11
-2.70596e-11
1.50732e-11
-1.83021e-11
1.46308e-11
-1.07327e-13
7.22809e-12
4.22791e-14
-1.03162e-13
-1.0821e-15
-6.25398e-15
-7.43869e-17
-4.32495e-14
-1.02377e-16
-5.0465e-15
-2.79478e-15
-6.2745e-17
-3.55531e-15
-6.99291e-16
0
-1.27037e-15
-1.41113e-14
4.02851e-16
-4.19451e-12
9.03476e-14
-6.80974e-12
1.8357e-13
-1.32468e-12
0
-1.51798e-14
0
-2.04456e-14
1.92061e-15
-1.04654e-14
4.49452e-15
-9.05521e-16
3.46685e-15
-3.76137e-16
1.53369e-16
-3.48958e-16
1.77338e-16
-1.8437e-15
6.1138e-15
-2.63951e-11
2.5835e-12
-2.53405e-11
1.32218e-11
-2.28532e-11
1.26428e-11
-1.84696e-11
1.0304e-11
-5.88784e-14
6.09669e-12
3.86959e-14
-5.5349e-14
-8.28381e-14
-7.24876e-14
-5.56025e-14
-2.8455e-13
-1.06646e-15
-1.60346e-14
-1.84746e-15
-2.89737e-17
0
-3.3281e-16
-4.00309e-15
8.40857e-16
-3.44307e-13
1.47045e-14
-1.17401e-13
0
-1.181e-14
0
-1.90456e-15
0
-5.85131e-15
4.46706e-17
-1.09845e-14
2.15709e-15
-5.33054e-15
2.59885e-15
-4.85795e-16
3.53375e-16
-3.12188e-16
1.43522e-16
-3.20635e-16
1.37661e-16
0
4.09705e-16
0
0
-1.13596e-11
0
-1.7272e-11
1.90077e-12
-6.29501e-12
1.61958e-12
-6.3133e-14
0
3.48409e-14
-5.933e-14
-1.76524e-13
-7.09399e-14
-4.61922e-14
-1.64006e-13
-3.05344e-15
-7.48007e-15
-3.82305e-15
-3.14466e-18
-1.11821e-14
4.38763e-16
-2.0909e-14
2.36379e-15
-2.98245e-15
0
-7.52469e-16
0
-2.005e-16
3.37103e-17
-3.35576e-16
1.65324e-17
-1.79616e-15
8.05186e-17
-1.63217e-15
1.43389e-16
-4.03687e-16
4.60013e-17
-2.92407e-16
3.22454e-17
-2.77933e-16
1.1053e-16
-2.64974e-16
1.21771e-16
-2.54811e-16
1.26807e-16
-1.761e-15
1.25833e-17
-2.36127e-13
0
-2.70633e-13
3.8159e-18
-3.60131e-14
0
-1.42813e-13
0
7.79818e-14
-1.33118e-13
-2.57382e-13
-3.28999e-14
-1.115e-13
-5.89918e-14
-1.75291e-15
1.82832e-15
-2.51995e-15
1.94873e-17
-3.85304e-15
4.46619e-16
-2.70353e-15
3.28348e-16
-5.775e-16
5.61673e-17
-3.05548e-16
5.70417e-17
-6.92331e-17
3.92567e-17
-4.42786e-17
6.96574e-18
-6.10798e-17
1.21114e-18
-1.49873e-17
7.2527e-19
-2.44705e-17
6.05995e-20
-8.99064e-17
3.47892e-18
-1.62717e-16
2.99517e-17
-2.49339e-16
7.23664e-17
-2.4318e-16
1.13018e-16
-2.38853e-16
1.11295e-16
-4.17658e-16
9.95933e-17
-3.22956e-16
1.90803e-17
-3.86436e-16
1.05448e-17
-4.99948e-14
5.23386e-16
4.61713e-15
-7.59819e-14
-2.74952e-13
-3.15262e-14
-1.9054e-15
6.82184e-14
-1.24732e-16
2.05674e-17
-8.89736e-16
3.99638e-17
-8.71894e-16
1.7785e-16
-2.91609e-16
8.59124e-17
-1.52329e-16
1.8786e-17
-7.42533e-17
1.5738e-17
-1.15656e-17
4.87441e-18
-5.84041e-19
2.55408e-18
-1.19783e-19
1.43876e-19
-1.72542e-20
4.45964e-20
-1.16667e-19
1.21014e-20
-5.8071e-18
6.70239e-19
-5.31362e-17
1.98569e-18
-1.73478e-16
2.59634e-17
-2.6486e-16
8.77342e-17
-2.67662e-16
1.18637e-16
-2.39924e-16
1.1514e-16
-1.64528e-16
8.39816e-17
-1.07509e-16
5.35107e-17
-1.69492e-16
2.47521e-17
0
-7.8787e-16
-1.93086e-13
1.62411e-13
-6.47725e-17
2.24156e-13
-1.06544e-16
3.5324e-17
-2.09757e-16
4.15852e-17
-1.9253e-16
5.61357e-17
-4.2553e-17
3.15439e-17
-1.36143e-17
2.69718e-18
-2.84788e-18
3.06783e-18
9.59223e-19
5.75036e-19
3.9803e-18
-4.39096e-19
4.56045e-18
-1.7803e-18
3.97383e-18
-2.01168e-18
2.16337e-18
-1.74174e-18
-4.51465e-19
-9.46442e-19
-2.49437e-18
1.97296e-19
-3.28989e-17
5.08857e-18
-9.39945e-17
7.56341e-18
-1.27404e-16
2.08722e-17
-1.21527e-16
2.80431e-17
-1.10771e-16
2.72471e-17
-7.57364e-17
3.18548e-17
-2.23148e-17
1.50056e-17
3.82316e-18
-1.56631e-17
-1.86195e-13
3.49416e-13
-1.50931e-13
4.38839e-13
-7.04051e-17
7.6767e-15
-7.13078e-17
5.09199e-17
-5.89218e-17
5.18223e-17
-4.19088e-18
2.4038e-17
-3.42458e-19
1.63767e-19
2.72338e-18
1.93945e-21
4.67617e-18
-1.46039e-18
6.08556e-18
-2.38018e-18
6.34227e-18
-2.97104e-18
5.74452e-18
-2.99674e-18
4.55975e-18
-2.64579e-18
2.96293e-18
-2.05678e-18
8.09523e-19
-1.31136e-18
-1.10835e-18
-3.51251e-19
-2.5504e-18
4.70256e-19
-7.80679e-18
2.04359e-18
-1.30619e-17
3.73871e-19
-1.69462e-17
8.14125e-19
-1.58682e-17
1.25639e-18
-9.95021e-18
1.72848e-18
1.50678e-18
-5.30391e-18
-1.86919e-13
5.37146e-13
-1.83357e-13
4.66255e-13
-7.67999e-17
1.80528e-14
-7.96214e-17
6.23237e-17
-5.2341e-17
6.77865e-17
-1.62794e-18
2.72212e-17
1.58609e-18
6.82048e-20
3.52044e-18
-1.03545e-18
4.89249e-18
-2.11728e-18
5.59118e-18
-2.74683e-18
5.63479e-18
-2.96199e-18
5.17431e-18
-2.84155e-18
4.40639e-18
-2.50101e-18
3.48986e-18
-2.05123e-18
2.53152e-18
-1.56869e-18
1.62865e-18
-1.09952e-18
7.75292e-19
-6.83282e-19
-1.34622e-20
-3.14271e-19
-4.61114e-20
5.28851e-21
-1.01804e-19
3.53842e-20
-2.80979e-19
6.45981e-20
-5.40403e-19
1.60546e-19
2.58167e-19
-7.63732e-19
-1.7919e-13
7.17147e-13
-1.80435e-14
3.44708e-13
-1.09882e-16
1.17219e-16
-1.3191e-16
8.22856e-17
-5.93032e-17
2.07585e-16
-2.52006e-18
3.38663e-17
9.53942e-19
1.22961e-18
2.22016e-18
-7.07274e-19
3.15047e-18
-1.49297e-18
3.60651e-18
-1.94825e-18
3.694e-18
-2.0733e-18
3.47861e-18
-1.99114e-18
3.05163e-18
-1.76978e-18
2.51772e-18
-1.47237e-18
1.97139e-18
-1.15551e-18
1.47224e-18
-8.62034e-19
1.04923e-18
-6.13994e-19
7.06885e-19
-4.18067e-19
4.59897e-19
-2.70173e-19
2.81909e-19
-1.69876e-19
1.39641e-19
-1.01759e-19
3.34133e-20
-4.99e-20
-1.19618e-20
-4.66235e-21
-1.20608e-13
4.57753e-14
-1.95031e-16
6.27596e-14
-1.73247e-16
9.42721e-17
-2.72277e-16
3.68505e-16
-8.67529e-17
4.57039e-16
-8.71408e-18
6.66671e-17
-2.93099e-18
8.28251e-18
8.07628e-20
3.2393e-18
9.08086e-19
-6.08886e-20
1.43079e-18
-6.21032e-19
1.70735e-18
-8.97173e-19
1.75868e-18
-9.89753e-19
1.64306e-18
-9.4846e-19
1.42077e-18
-8.28089e-19
1.15497e-18
-6.71201e-19
8.93434e-19
-5.12449e-19
6.63453e-19
-3.7288e-19
4.77601e-19
-2.61028e-19
3.35237e-19
-1.7784e-19
2.28183e-19
-1.18925e-19
1.46767e-19
-7.78382e-20
8.54638e-20
-4.86613e-20
-2.78158e-20
4.37983e-20
-2.40536e-15
2.89942e-16
-2.0541e-16
1.80962e-16
-3.7601e-16
6.23672e-16
-4.07591e-16
7.42806e-16
-1.22036e-16
5.87545e-16
-2.38238e-17
1.10796e-16
-1.54059e-17
2.94982e-17
-1.00536e-17
1.92215e-17
-4.63722e-18
1.10534e-17
-1.16553e-18
4.50603e-18
2.89222e-19
1.3324e-18
5.74694e-19
-1.82226e-19
6.69758e-19
-3.32217e-19
6.45151e-19
-3.56655e-19
5.58806e-19
-3.17294e-19
4.49284e-19
-2.54224e-19
3.40186e-19
-1.89289e-19
2.47134e-19
-1.32926e-19
1.74791e-19
-8.97978e-20
1.21223e-19
-5.93219e-20
8.16849e-20
-3.86646e-20
5.1679e-20
-2.46544e-20
-1.48442e-20
2.93827e-20
-3.74519e-17
3.09538e-16
-1.76304e-16
2.41198e-16
-3.63963e-16
8.20383e-16
-3.29626e-16
9.30248e-16
-1.28039e-16
6.35374e-16
-4.56469e-17
1.39863e-16
-3.66892e-17
6.56809e-17
-2.86427e-17
4.90747e-17
-1.77175e-17
3.2463e-17
-8.17128e-18
1.70384e-17
-2.48473e-18
6.77486e-18
-2.88144e-19
1.82686e-18
1.68045e-19
2.81086e-19
2.30935e-19
-9.60293e-20
2.25772e-19
-1.20037e-19
1.93692e-19
-1.06787e-19
1.50321e-19
-8.33338e-20
1.09308e-19
-5.87884e-20
7.63048e-20
-3.88372e-20
5.20542e-20
-2.4625e-20
3.49444e-20
-1.52533e-20
2.26032e-20
-9.27972e-21
-5.40453e-21
1.31966e-20
-3.16247e-17
3.23976e-16
-1.49216e-16
2.80972e-16
-3.15316e-16
8.41526e-16
-3.25391e-16
9.67813e-16
-1.08604e-16
5.06148e-16
-6.42457e-17
1.53485e-16
-5.72093e-17
1.05462e-16
-4.83367e-17
8.36139e-17
-3.42002e-17
5.8634e-17
-1.84225e-17
3.47855e-17
-7.03872e-18
1.56281e-17
-1.64171e-18
4.97916e-18
-1.27889e-19
9.65106e-19
6.278e-20
6.89399e-20
7.7111e-20
-3.51807e-20
7.33325e-20
-3.86251e-20
5.87141e-20
-3.27269e-20
4.25647e-20
-2.32318e-20
2.89719e-20
-1.48305e-20
1.89951e-20
-8.80242e-21
1.22596e-20
-4.9567e-21
7.82338e-21
-2.67676e-21
-1.35925e-21
4.62994e-21
-2.34835e-17
3.99581e-16
-8.13572e-17
2.64483e-16
-1.78312e-16
4.10302e-16
-1.68106e-16
4.78815e-16
-7.94072e-17
2.66191e-16
-7.02756e-17
1.60114e-16
-6.83825e-17
1.34139e-16
-6.01387e-17
1.13987e-16
-4.62472e-17
8.19675e-17
-2.79005e-17
5.23475e-17
-1.16043e-17
2.5415e-17
-2.7753e-18
8.26198e-18
-2.70394e-19
1.46541e-18
1.33931e-20
9.52325e-20
2.34277e-20
-8.30713e-21
2.51123e-20
-1.27407e-20
2.0697e-20
-1.18809e-20
1.48791e-20
-8.41701e-21
9.80658e-21
-5.10644e-21
6.09704e-21
-2.7569e-21
3.66606e-21
-1.33161e-21
2.20225e-21
-5.56949e-22
-1.68989e-22
1.30022e-21
-1.7201e-17
8.48374e-16
-3.01527e-17
2.76792e-16
-4.29924e-17
4.00117e-16
-5.15421e-17
3.46375e-16
-5.60983e-17
1.73913e-16
-6.07823e-17
1.58064e-16
-6.45653e-17
1.42676e-16
-6.18271e-17
1.30253e-16
-4.98345e-17
1.00063e-16
-3.18665e-17
6.51186e-17
-1.33231e-17
3.22793e-17
-2.81955e-18
9.87245e-18
-2.16523e-19
1.50576e-18
2.56477e-21
9.06124e-20
6.76837e-21
-1.82444e-21
7.90871e-21
-4.13604e-21
6.6422e-21
-4.09263e-21
4.72635e-21
-2.84394e-21
3.00312e-21
-1.60977e-21
1.75335e-21
-7.55666e-22
9.61266e-22
-2.74826e-22
5.14818e-22
-4.68378e-23
1.31778e-23
2.93292e-22
-1.38772e-17
3.86812e-15
-2.36739e-17
2.8592e-16
-3.07528e-17
4.18145e-16
-3.64827e-17
4.31741e-16
-4.14585e-17
2.77479e-16
-4.62844e-17
1.58877e-16
-5.21253e-17
1.46027e-16
-5.29222e-17
1.34068e-16
-4.48508e-17
1.08893e-16
-2.91923e-17
7.0869e-17
-1.16634e-17
3.44902e-17
-2.1067e-18
9.98138e-18
-1.05336e-19
1.27531e-18
5.25882e-22
3.69811e-20
1.94089e-21
-4.50884e-22
2.32662e-21
-1.40007e-21
1.94762e-21
-1.38012e-21
1.34507e-21
-9.1276e-22
8.12112e-22
-4.61084e-22
4.40568e-22
-1.69537e-22
2.17327e-22
-2.45013e-23
9.97767e-23
9.46104e-24
1.22305e-23
5.13249e-23
0
1.24297e-14
-5.30494e-14
4.22517e-13
-7.00366e-14
3.46278e-12
-3.56744e-17
2.36796e-12
-3.61022e-17
2.82738e-16
-3.20133e-17
1.59615e-16
-3.72487e-17
1.43712e-16
-3.64764e-17
1.36313e-16
-3.37146e-17
1.10739e-16
-2.19779e-17
7.19422e-17
-8.29471e-18
3.46333e-17
-1.11989e-18
8.89379e-18
-2.95267e-20
7.20844e-19
9.69107e-23
9.42832e-21
5.17492e-22
-1.07863e-22
6.19235e-22
-4.75114e-22
5.03931e-22
-4.53853e-22
3.31613e-22
-2.76704e-22
1.87226e-22
-1.17905e-22
9.25002e-23
-2.522e-23
4.00088e-23
4.26407e-24
1.45258e-23
6.7986e-24
5.59261e-24
4.77057e-24
0
1.67919e-14
-7.04372e-14
1.42893e-12
-1.98068e-13
3.693e-12
-1.59629e-13
3.25368e-12
-2.92481e-17
8.48297e-13
-2.69006e-17
1.62075e-16
-2.24596e-17
1.44055e-16
-2.37858e-17
1.37264e-16
-2.09502e-17
1.08053e-16
-1.33984e-17
6.93714e-17
-4.29933e-18
3.01587e-17
-3.73943e-19
5.87912e-18
-4.66383e-21
2.78199e-19
1.07191e-23
1.52103e-21
1.27458e-22
-1.75498e-23
1.44123e-22
-1.69483e-22
1.09351e-22
-1.49383e-22
6.59765e-23
-8.06044e-23
3.29619e-23
-2.63521e-23
1.34561e-23
4.33156e-25
3.96133e-24
3.06745e-24
1.89405e-25
2.91549e-24
2.01277e-24
-1.78057e-24
1.56965e-15
1.6743e-14
-3.0836e-15
1.19576e-12
-1.90502e-14
3.72013e-12
-1.57586e-14
3.26155e-12
-1.39545e-17
9.85402e-13
-1.09052e-17
1.63809e-16
-7.88214e-18
1.458e-16
-9.19732e-18
1.32208e-16
-8.44905e-18
9.97727e-17
-5.15374e-18
5.92787e-17
-1.29253e-18
2.15775e-17
-6.67717e-20
2.91632e-18
-3.58688e-22
7.33828e-20
6.40826e-25
1.53292e-22
2.51147e-23
-2.02714e-24
2.4324e-23
-6.44785e-23
1.58201e-23
-4.90441e-23
7.55001e-24
-2.2672e-23
2.29304e-24
-4.78436e-24
-2.7453e-25
8.72565e-25
-1.72952e-24
1.2751e-24
-1.77597e-24
9.80387e-25
5.97024e-25
-1.32464e-24
1.92121e-15
1.63605e-14
3.36369e-14
3.98889e-13
1.53393e-13
3.61154e-12
1.43038e-13
3.28369e-12
0
4.58677e-13
1.46679e-17
4.65668e-16
5.25795e-18
1.44756e-16
3.7564e-18
1.23253e-16
1.64816e-18
8.63336e-17
3.6561e-19
4.50171e-17
-3.91697e-21
1.24995e-17
-1.01518e-21
1.00444e-18
-3.71251e-24
1.145e-20
3.88902e-25
9.47459e-24
5.99302e-25
-1.27018e-23
-2.29514e-25
-2.46284e-23
-1.42947e-24
-1.59827e-23
-2.25897e-24
-6.21152e-24
-2.36825e-24
-5.44456e-25
-1.96861e-24
3.99324e-25
-1.3893e-24
4.08635e-25
-8.64625e-25
2.71512e-25
1.47868e-25
-4.87477e-25
3.82523e-15
1.66804e-14
7.20271e-14
5.33946e-15
1.78811e-13
2.30482e-13
5.21365e-14
0
0
1.38568e-16
1.00016e-18
4.7444e-16
1.6106e-17
1.59354e-16
1.29441e-17
1.10786e-16
7.73521e-18
6.79503e-17
2.83453e-18
2.88423e-17
3.4603e-19
5.22671e-18
6.16222e-21
2.01741e-19
8.65122e-24
8.60478e-22
7.06359e-25
2.86505e-25
-1.89992e-24
-8.40262e-24
-3.02867e-24
-9.22528e-24
-2.89465e-24
-5.14103e-24
-2.25388e-24
-1.66997e-24
-1.53626e-24
1.07815e-26
-9.46989e-25
1.27973e-25
-5.30947e-25
1.06967e-25
-2.73824e-25
6.25982e-26
3.04625e-26
-1.31296e-25
1.19553e-15
1.73377e-14
1.33055e-15
7.53388e-15
2.78896e-15
0
2.92886e-16
5.89907e-17
6.56271e-17
1.56452e-16
5.10056e-17
2.80202e-16
2.51658e-17
1.6295e-16
1.68057e-17
9.01109e-17
8.74385e-18
4.53382e-17
2.27141e-18
1.35757e-17
1.36059e-19
1.27058e-18
8.63705e-22
1.79494e-20
3.84904e-25
2.34598e-23
4.4024e-26
1.29507e-25
-1.72333e-24
-4.03502e-24
-1.9856e-24
-3.35449e-24
-1.55243e-24
-1.61075e-24
-1.01169e-24
-4.42363e-25
-5.8476e-25
1.05119e-26
-3.08232e-25
3.22495e-26
-1.48723e-25
2.30971e-26
-6.63742e-26
1.19281e-26
5.14295e-27
-2.76552e-26
1.58639e-15
1.60506e-14
1.21326e-15
1.0978e-14
3.05031e-16
2.99449e-15
1.50072e-16
1.15232e-15
8.35681e-17
5.58254e-16
4.93829e-17
2.64163e-16
2.7682e-17
1.23451e-16
1.48308e-17
5.85491e-17
5.68799e-18
2.18414e-17
7.95193e-19
3.68194e-18
1.72108e-20
1.33584e-19
3.13451e-23
5.60252e-22
3.34555e-24
2.40509e-25
-2.93391e-25
-6.31501e-25
-1.04925e-24
-1.824e-24
-9.21887e-25
-1.18094e-24
-6.03843e-25
-4.86316e-25
-3.38402e-25
-1.15652e-25
-1.70042e-25
2.94869e-27
-7.80443e-26
6.55242e-27
-3.27719e-26
4.08595e-27
-1.27059e-26
1.84805e-27
6.9575e-28
-4.58923e-27
1.6713e-15
9.26564e-15
1.86649e-15
9.90637e-15
8.1074e-16
5.12147e-15
3.64535e-16
2.22301e-15
1.36758e-16
8.4074e-16
4.68084e-17
2.69439e-16
2.01602e-17
8.03263e-17
8.22052e-18
2.6651e-17
1.8684e-18
5.82158e-18
1.03457e-19
4.07834e-19
6.40111e-22
4.47623e-21
3.39259e-25
5.59907e-24
6.02521e-26
1.26888e-25
-3.82554e-25
-6.98815e-25
-5.15674e-25
-7.72689e-25
-3.58044e-25
-4.03626e-25
-1.93837e-25
-1.411e-25
-9.2138e-26
-2.96172e-26
-3.98823e-26
5.07702e-28
-1.58395e-26
1.07468e-27
-5.74406e-27
5.83923e-28
-1.91409e-27
2.27627e-28
7.32076e-29
-5.91007e-28
8.76422e-16
1.35094e-15
1.61514e-15
3.08202e-15
1.06258e-15
3.39308e-15
4.78889e-16
2.15992e-15
1.55575e-16
8.33085e-16
3.90493e-17
2.11767e-16
9.82996e-18
3.96142e-17
2.27724e-18
6.73927e-18
2.26142e-19
6.04985e-19
3.83492e-21
1.32166e-20
6.46682e-24
4.18809e-23
9.91267e-25
2.34529e-26
-3.43757e-26
-6.6129e-26
-2.40875e-25
-4.07514e-25
-2.21382e-25
-3.13011e-25
-1.2394e-25
-1.35187e-25
-5.41813e-26
-3.95446e-26
-2.11457e-26
-7.32317e-27
-7.67155e-27
4.84308e-29
-2.58408e-27
1.41406e-28
-7.93871e-28
6.62033e-29
-2.22562e-28
2.16387e-29
5.75112e-30
-5.73484e-29
9.6821e-17
1.63381e-17
4.48135e-16
1.40354e-16
5.66702e-16
5.20709e-16
3.59101e-16
5.87903e-16
1.14196e-16
3.1879e-16
2.02317e-17
7.89371e-17
2.54652e-18
9.52062e-18
2.38331e-19
6.60847e-19
7.63432e-21
1.83783e-20
3.67456e-23
1.16114e-22
2.51103e-26
1.54543e-25
7.27216e-27
1.46742e-26
-7.84109e-26
-1.45758e-25
-1.22588e-25
-2.03703e-25
-8.64888e-26
-1.22806e-25
-3.96297e-26
-4.47548e-26
-1.36733e-26
-1.08091e-26
-4.2001e-27
-1.72955e-27
-1.22178e-27
-1.31423e-29
-3.37094e-28
1.49437e-29
-8.49045e-29
5.84344e-30
-1.93338e-29
1.52271e-30
3.16472e-31
-4.00271e-30
1.02608e-18
5.94454e-21
1.93894e-17
5.59337e-19
6.72713e-17
1.0359e-17
7.0632e-17
2.59161e-17
3.07757e-17
2.27434e-17
4.57062e-18
7.15254e-18
2.73887e-19
6.61673e-19
7.96909e-21
1.89461e-20