/*--------------------------------*- C++ -*----------------------------------*\
  =========                 |
  \\      /  F ield         | OpenFOAM: The Open Source CFD Toolbox
   \\    /   O peration     | Website:  https://openfoam.org
    \\  /    A nd           | Version:  9
     \\/     M anipulation  |
\*---------------------------------------------------------------------------*/
FoamFile
{
    format      ascii;
    class       volScalarField;
    location    "5.11";
    object      p;
}
// * * * * * * * * * * * * * * * * * * * * * * * * * * * * * * * * * * * * * //

dimensions      [1 -1 -2 0 0 0 0];

internalField   nonuniform List<scalar> 
2268
(
721.705
722.013
722.437
722.976
723.613
724.335
725.133
725.996
726.911
727.865
728.845
729.834
730.817
731.771
732.666
733.466
734.187
734.818
735.606
736.484
737.36
738.345
738.884
662.773
663.059
663.469
664.002
664.64
665.369
666.177
667.05
667.975
668.939
669.929
670.928
671.919
672.879
673.778
674.586
675.346
676.147
677.106
678.064
678.791
679.61
680.182
603.804
604.08
604.48
605.004
605.642
606.377
607.195
608.08
609.019
609.999
611.006
612.023
613.034
614.016
614.946
615.808
616.678
617.549
618.686
619.441
620.11
620.891
621.499
544.793
545.075
545.475
545.994
546.633
547.374
548.203
549.102
550.059
551.058
552.087
553.129
554.169
555.188
556.173
557.121
558.143
559.508
560.647
561.235
561.705
562.268
562.916
485.742
486.038
486.447
486.97
487.613
488.363
489.204
490.121
491.098
492.12
493.174
494.246
495.32
496.385
497.437
498.495
499.676
501.545
502.721
503.336
503.585
503.744
504.43
426.655
426.967
427.392
427.925
428.577
429.339
430.196
431.133
432.134
433.183
434.265
435.368
436.481
437.595
438.713
439.864
441.163
443.171
444.707
445.353
445.314
445.271
446.03
367.532
367.862
368.306
368.854
369.519
370.296
371.173
372.134
373.164
374.243
375.357
376.494
377.646
378.808
379.987
381.216
382.579
384.463
386.248
386.986
386.796
386.8
387.662
308.373
308.716
309.179
309.746
310.426
311.221
312.122
313.113
314.179
315.296
316.445
317.621
318.816
320.025
321.257
322.54
323.942
325.687
327.365
328.2
328.176
328.341
329.457
741.42
741.363
740.99
740.362
739.517
738.532
737.415
736.23
734.811
733.137
730.958
729.827
728.035
727.355
728.442
728.225
726.813
726.08
726.416
683.173
682.719
682.263
681.656
680.88
679.951
678.872
677.623
676.061
674.243
672.185
671.247
670.012
669.568
669.139
668.767
667.583
667.174
667.982
624.771
624.117
623.516
622.872
622.096
621.182
620.124
618.852
617.252
615.497
613.492
612.701
612.47
611.658
610.171
609.589
608.479
608.217
609.293
566.126
565.509
564.831
564.143
563.349
562.424
561.352
560.092
558.589
557.024
555.543
555.037
555.267
553.743
551.552
550.703
549.424
549.227
550.45
507.403
506.8
506.15
505.438
504.624
503.681
502.624
501.45
500.088
498.842
498.616
498.095
497.898
495.957
493.145
492.022
490.535
490.234
491.534
448.709
448.155
447.472
446.748
445.915
444.948
443.911
442.801
441.582
440.648
441.108
440.956
440.479
437.689
434.835
433.498
432.297
431.301
432.651
390.043
389.518
388.801
388.078
387.229
386.218
385.171
384.113
383.003
382.249
382.853
383.107
382.184
378.993
376.532
375.148
374.448
372.517
373.881
331.416
330.838
330.16
329.459
328.582
327.483
326.389
325.35
324.367
323.759
324.156
324.27
323.046
320.289
318.205
316.98
316.667
314.654
315.27
215.814
216.164
216.656
217.257
217.966
218.792
219.737
220.789
221.928
223.115
224.329
225.57
226.836
228.119
229.419
230.759
232.198
233.798
235.266
236.184
236.609
237.036
237.925
92.7183
93.1043
93.5836
94.1596
94.7831
95.4834
96.2923
97.2057
98.2043
99.2786
100.422
101.621
102.859
104.1
105.327
106.528
107.77
109.114
110.406
111.43
112.228
113.173
114.511
16.1955
16.436
16.6308
16.8805
17.1854
17.5233
17.8782
18.2539
18.6502
19.1032
19.6219
20.1813
20.7531
21.3301
21.8983
22.4375
22.9451
23.4019
23.8793
24.4386
24.8866
25.3587
26.0257
-0.439601
-0.431103
-0.458906
-0.483786
-0.400065
-0.281832
-0.211826
-0.164801
-0.126475
-0.0922735
-0.0613779
-0.0344445
-0.0169555
-0.00939376
-0.00221851
0.00196148
-0.0234008
-0.25204
-0.417246
-0.369662
-0.305122
-0.330585
-0.42973
-0.715661
-0.713928
-0.715218
-0.710825
-0.697732
-0.682142
-0.66556
-0.644445
-0.622772
-0.596884
-0.574442
-0.557391
-0.548359
-0.550341
-0.556926
-0.565203
-0.591528
-0.668628
-0.715432
-0.72302
-0.723361
-0.738369
-0.755152
-1.03639
-1.03734
-1.0332
-1.0265
-1.05314
-1.09469
-1.11365
-1.11716
-1.1136
-1.10789
-1.09929
-1.08939
-1.08314
-1.0818
-1.08374
-1.08276
-1.06722
-1.03528
-1.02582
-1.0397
-1.04228
-1.03028
-0.999025
-1.25983
-1.26244
-1.26327
-1.26538
-1.27154
-1.26605
-1.26692
-1.27109
-1.27538
-1.27883
-1.28202
-1.28494
-1.28633
-1.28543
-1.28268
-1.27764
-1.27472
-1.26376
-1.25037
-1.24776
-1.24021
-1.22481
-1.21004
-1.40239
-1.40191
-1.40334
-1.40452
-1.4024
-1.39916
-1.39752
-1.39939
-1.40185
-1.40428
-1.4065
-1.40834
-1.40942
-1.40935
-1.40802
-1.40601
-1.40453
-1.40052
-1.39561
-1.39057
-1.38639
-1.38435
-1.38804
-1.52792
-1.52783
-1.52871
-1.52917
-1.52843
-1.52681
-1.5261
-1.52698
-1.52842
-1.5301
-1.53175
-1.53313
-1.53401
-1.53416
-1.53363
-1.53316
-1.5342
-1.53449
-1.53239
-1.52935
-1.52912
-1.534
-1.53898
-1.65342
-1.65356
-1.6541
-1.65439
-1.65412
-1.65346
-1.65322
-1.65374
-1.65469
-1.65587
-1.65713
-1.65829
-1.65903
-1.65927
-1.6592
-1.65936
-1.66046
-1.6616
-1.6615
-1.66114
-1.66268
-1.6651
-1.66622
-1.7789
-1.77915
-1.77955
-1.7798
-1.77978
-1.7796
-1.77963
-1.78003
-1.78072
-1.78161
-1.7826
-1.78352
-1.78413
-1.78442
-1.78461
-1.78494
-1.78566
-1.78633
-1.78652
-1.78685
-1.78781
-1.78899
-1.78976
-1.90439
-1.90469
-1.90505
-1.90531
-1.90544
-1.9055
-1.90567
-1.90607
-1.90663
-1.90735
-1.9081
-1.90874
-1.90925
-1.90961
-1.90993
-1.91031
-1.91087
-1.9114
-1.91172
-1.91211
-1.91276
-1.91353
-1.91403
-2.02987
-2.03022
-2.03058
-2.03087
-2.03107
-2.03125
-2.0315
-2.03188
-2.03241
-2.03298
-2.03352
-2.03402
-2.03447
-2.03485
-2.03521
-2.03562
-2.03611
-2.03666
-2.03716
-2.03757
-2.03803
-2.03846
-2.0387
-2.15537
-2.15576
-2.15613
-2.15643
-2.15667
-2.15691
-2.15719
-2.15756
-2.15801
-2.15846
-2.1589
-2.15933
-2.15973
-2.16011
-2.16048
-2.16088
-2.16135
-2.16189
-2.16247
-2.16292
-2.16327
-2.16349
-2.16355
-2.28088
-2.28129
-2.28167
-2.28198
-2.28225
-2.2825
-2.28279
-2.28312
-2.28349
-2.28388
-2.28426
-2.28464
-2.28501
-2.28537
-2.28573
-2.28611
-2.28654
-2.287
-2.2875
-2.28796
-2.28825
-2.28838
-2.28846
-2.4064
-2.40682
-2.4072
-2.40752
-2.40779
-2.40805
-2.40832
-2.40862
-2.40894
-2.40928
-2.40962
-2.40996
-2.4103
-2.41064
-2.41097
-2.41133
-2.4117
-2.4121
-2.4125
-2.41286
-2.41312
-2.4133
-2.41342
-2.53191
-2.53233
-2.53272
-2.53304
-2.53331
-2.53356
-2.53382
-2.53409
-2.53437
-2.53467
-2.53498
-2.53528
-2.53559
-2.5359
-2.53621
-2.53654
-2.53687
-2.53721
-2.53754
-2.53784
-2.53809
-2.53827
-2.53841
-2.65741
-2.65784
-2.65822
-2.65853
-2.6588
-2.65904
-2.65928
-2.65953
-2.65978
-2.66005
-2.66032
-2.6606
-2.66088
-2.66116
-2.66145
-2.66174
-2.66204
-2.66233
-2.66262
-2.66288
-2.6631
-2.66328
-2.66343
-2.78291
-2.78333
-2.78371
-2.78401
-2.78426
-2.78449
-2.78471
-2.78494
-2.78517
-2.78541
-2.78565
-2.7859
-2.78616
-2.78641
-2.78668
-2.78694
-2.7872
-2.78747
-2.78772
-2.78795
-2.78815
-2.78832
-2.78847
-2.90841
-2.90882
-2.90918
-2.90947
-2.9097
-2.90992
-2.91012
-2.91033
-2.91054
-2.91075
-2.91097
-2.9112
-2.91143
-2.91166
-2.9119
-2.91214
-2.91237
-2.9126
-2.91283
-2.91303
-2.91322
-2.91338
-2.91352
-3.03391
-3.03429
-3.03463
-3.0349
-3.03512
-3.03532
-3.03551
-3.0357
-3.03589
-3.03608
-3.03628
-3.03648
-3.03669
-3.0369
-3.03711
-3.03733
-3.03754
-3.03775
-3.03794
-3.03813
-3.0383
-3.03844
-3.03858
-3.15939
-3.15975
-3.16007
-3.16032
-3.16052
-3.16071
-3.16088
-3.16105
-3.16122
-3.16139
-3.16157
-3.16176
-3.16194
-3.16213
-3.16233
-3.16252
-3.16271
-3.16289
-3.16307
-3.16323
-3.16339
-3.16352
-3.16365
-3.28485
-3.28519
-3.28548
-3.28571
-3.2859
-3.28607
-3.28623
-3.28638
-3.28654
-3.28669
-3.28686
-3.28702
-3.28719
-3.28736
-3.28753
-3.2877
-3.28787
-3.28804
-3.2882
-3.28835
-3.28849
-3.28861
-3.28873
-3.4103
-3.41061
-3.41087
-3.41109
-3.41126
-3.41141
-3.41156
-3.4117
-3.41184
-3.41198
-3.41212
-3.41227
-3.41242
-3.41258
-3.41273
-3.41289
-3.41304
-3.41319
-3.41333
-3.41347
-3.4136
-3.41371
-3.41382
-3.53575
-3.53601
-3.53625
-3.53644
-3.5366
-3.53674
-3.53687
-3.537
-3.53712
-3.53725
-3.53738
-3.53752
-3.53765
-3.53779
-3.53793
-3.53807
-3.53821
-3.53834
-3.53847
-3.5386
-3.53871
-3.53882
-3.53892
-3.66118
-3.66141
-3.66161
-3.66178
-3.66192
-3.66205
-3.66216
-3.66228
-3.6624
-3.66251
-3.66263
-3.66275
-3.66288
-3.663
-3.66313
-3.66325
-3.66338
-3.6635
-3.66362
-3.66373
-3.66384
-3.66393
-3.66403
-3.7866
-3.78679
-3.78696
-3.7871
-3.78722
-3.78734
-3.78744
-3.78755
-3.78766
-3.78776
-3.78787
-3.78798
-3.78809
-3.7882
-3.78832
-3.78843
-3.78854
-3.78865
-3.78876
-3.78887
-3.78896
-3.78906
-3.78914
-3.91202
-3.91216
-3.91229
-3.9124
-3.91251
-3.91261
-3.91271
-3.91281
-3.9129
-3.913
-3.9131
-3.9132
-3.9133
-3.9134
-3.91351
-3.91361
-3.91371
-3.91381
-3.91391
-3.91401
-3.9141
-3.91418
-3.91426
-4.03742
-4.03752
-4.0376
-4.03768
-4.03778
-4.03788
-4.03797
-4.03806
-4.03814
-4.03823
-4.03832
-4.03841
-4.0385
-4.0386
-4.03869
-4.03879
-4.03888
-4.03897
-4.03906
-4.03915
-4.03923
-4.03931
-4.03939
-4.16281
-4.16288
-4.16292
-4.16298
-4.16306
-4.16314
-4.16322
-4.1633
-4.16338
-4.16346
-4.16354
-4.16362
-4.1637
-4.16379
-4.16387
-4.16396
-4.16405
-4.16413
-4.16421
-4.16429
-4.16437
-4.16445
-4.16452
-4.28819
-4.28822
-4.28824
-4.28828
-4.28834
-4.2884
-4.28846
-4.28853
-4.2886
-4.28867
-4.28875
-4.28882
-4.2889
-4.28898
-4.28906
-4.28913
-4.28921
-4.28929
-4.28937
-4.28944
-4.28952
-4.28959
-4.28966
-4.41355
-4.41354
-4.41354
-4.41357
-4.41361
-4.41365
-4.4137
-4.41376
-4.41382
-4.41389
-4.41396
-4.41403
-4.41409
-4.41417
-4.41424
-4.41431
-4.41438
-4.41445
-4.41452
-4.41459
-4.41466
-4.41473
-4.4148
-4.53889
-4.53884
-4.53882
-4.53884
-4.53885
-4.53888
-4.53893
-4.53898
-4.53904
-4.5391
-4.53916
-4.53922
-4.53929
-4.53935
-4.53942
-4.53948
-4.53954
-4.53961
-4.53968
-4.53974
-4.53981
-4.53987
-4.53994
-4.66419
-4.6641
-4.66405
-4.66405
-4.66407
-4.6641
-4.66415
-4.6642
-4.66425
-4.66431
-4.66436
-4.66442
-4.66448
-4.66454
-4.66459
-4.66465
-4.66471
-4.66477
-4.66483
-4.66489
-4.66496
-4.66502
-4.66508
-4.78946
-4.78933
-4.78925
-4.78925
-4.78928
-4.78931
-4.78936
-4.78941
-4.78946
-4.78952
-4.78957
-4.78962
-4.78967
-4.78972
-4.78977
-4.78982
-4.78988
-4.78993
-4.78999
-4.79004
-4.7901
-4.79017
-4.79023
-4.91469
-4.91453
-4.91444
-4.91445
-4.91448
-4.91452
-4.91457
-4.91463
-4.91468
-4.91473
-4.91478
-4.91482
-4.91487
-4.91491
-4.91495
-4.915
-4.91504
-4.91509
-4.91514
-4.91519
-4.91525
-4.91532
-4.91538
-5.03987
-5.03969
-5.03962
-5.03964
-5.03969
-5.03974
-5.0398
-5.03985
-5.0399
-5.03994
-5.03999
-5.04003
-5.04006
-5.0401
-5.04014
-5.04017
-5.04021
-5.04025
-5.04029
-5.04034
-5.0404
-5.04047
-5.04053
-5.16499
-5.16482
-5.16481
-5.16486
-5.16492
-5.16498
-5.16503
-5.16508
-5.16513
-5.16517
-5.16521
-5.16524
-5.16527
-5.16529
-5.16532
-5.16535
-5.16538
-5.16541
-5.16544
-5.16549
-5.16555
-5.16562
-5.16569
-5.29005
-5.28994
-5.29003
-5.29012
-5.29019
-5.29024
-5.29029
-5.29034
-5.29038
-5.29041
-5.29043
-5.29046
-5.29048
-5.2905
-5.29052
-5.29053
-5.29055
-5.29057
-5.29059
-5.29063
-5.29069
-5.29078
-5.29085
-5.41514
-5.41516
-5.41535
-5.41544
-5.41549
-5.41554
-5.41558
-5.41561
-5.41563
-5.41565
-5.41566
-5.41568
-5.41569
-5.4157
-5.41571
-5.41571
-5.41572
-5.41573
-5.41574
-5.41575
-5.41582
-5.41594
-5.41603
-5.54017
-5.54048
-5.54073
-5.5408
-5.54083
-5.54084
-5.54085
-5.54085
-5.54085
-5.54085
-5.54085
-5.54085
-5.54085
-5.54085
-5.54085
-5.54084
-5.54084
-5.54083
-5.54081
-5.54077
-5.54088
-5.5411
-5.54122
-5.66567
-5.66646
-5.66632
-5.66626
-5.66622
-5.66618
-5.66615
-5.66612
-5.6661
-5.66608
-5.66606
-5.66605
-5.66604
-5.66603
-5.66602
-5.66601
-5.66599
-5.66596
-5.66587
-5.66571
-5.66583
-5.66625
-5.6664
238.379
238.877
239.172
239.222
115.208
115.513
115.737
115.908
26.4319
26.6588
26.8215
26.9384
-0.385434
-0.351024
-0.3514
-0.386914
-0.735257
-0.732423
-0.73685
-0.749337
-0.992953
-0.991612
-0.995
-0.991737
-1.2232
-1.22832
-1.226
-1.21926
-1.39446
-1.39625
-1.39629
-1.39853
-1.5382
-1.53708
-1.5363
-1.53708
-1.66493
-1.66402
-1.66346
-1.66354
-1.7893
-1.78895
-1.78872
-1.78869
-1.91387
-1.91374
-1.91365
-1.91361
-2.03865
-2.03861
-2.03859
-2.03858
-2.16355
-2.16356
-2.16358
-2.16361
-2.2885
-2.28854
-2.28858
-2.28863
-2.41349
-2.41354
-2.41359
-2.41365
-2.5385
-2.53856
-2.53861
-2.53866
-2.66353
-2.66358
-2.66364
-2.66369
-2.78856
-2.78862
-2.78867
-2.78871
-2.91361
-2.91366
-2.91371
-2.91375
-3.03866
-3.03871
-3.03876
-3.0388
-3.16373
-3.16377
-3.16382
-3.16385
-3.2888
-3.28885
-3.28889
-3.28892
-3.41389
-3.41393
-3.41397
-3.414
-3.53898
-3.53902
-3.53906
-3.5391
-3.66409
-3.66413
-3.66416
-3.6642
-3.7892
-3.78924
-3.78927
-3.78931
-3.91432
-3.91436
-3.91439
-3.91442
-4.03945
-4.03948
-4.03951
-4.03954
-4.16457
-4.16461
-4.16464
-4.16467
-4.28971
-4.28974
-4.28977
-4.2898
-4.41485
-4.41488
-4.41491
-4.41494
-4.53999
-4.54002
-4.54004
-4.54007
-4.66513
-4.66516
-4.66519
-4.66521
-4.79028
-4.7903
-4.79033
-4.79036
-4.91542
-4.91545
-4.91548
-4.91551
-5.04058
-5.0406
-5.04063
-5.04066
-5.16573
-5.16576
-5.16579
-5.16581
-5.2909
-5.29092
-5.29095
-5.29097
-5.41607
-5.41609
-5.41611
-5.41613
-5.54126
-5.54128
-5.54129
-5.5413
-5.66643
-5.66645
-5.66646
-5.66647
239.68
239.108
238.574
237.926
237.15
236.227
235.134
233.956
232.879
232.197
232.07
231.704
230.52
228.47
226.925
226.228
226.393
225.675
225.218
116.123
115.646
115.181
114.668
114.099
113.545
112.898
112.02
110.922
109.77
108.787
107.872
106.893
105.855
105.022
104.605
104.802
104.588
103.875
27.0418
26.8753
26.694
26.5086
26.3793
26.3244
26.2169
25.9949
25.5228
24.7472
23.9072
23.2907
22.8847
22.6511
22.3861
22.1052
22.0437
21.8234
21.5051
-0.508268
-0.511501
-0.513259
-0.528313
-0.41779
-0.26877
-0.345841
-0.407514
-0.433979
-0.447451
-0.449875
-0.456448
-0.464338
-0.455425
-0.433194
-0.451693
-0.50402
-0.553077
-0.568638
-0.765162
-0.755065
-0.753837
-0.759176
-0.731761
-0.683256
-0.680437
-0.684976
-0.689996
-0.6943
-0.698393
-0.704979
-0.719009
-0.729193
-0.737389
-0.749323
-0.763296
-0.775617
-0.781028
-0.973364
-0.969114
-0.968142
-0.967051
-0.980344
-0.99488
-0.996903
-0.999552
-1.0018
-1.00042
-1.00036
-1.00427
-1.01106
-1.01567
-1.0215
-1.02807
-1.03526
-1.02538
-1.02822
-1.20207
-1.2106
-1.2121
-1.20093
-1.22524
-1.2493
-1.25515
-1.25569
-1.25527
-1.25529
-1.25552
-1.25492
-1.25041
-1.24957
-1.25123
-1.2507
-1.24861
-1.2425
-1.23773
-1.40179
-1.40544
-1.40582
-1.40377
-1.40563
-1.40463
-1.40115
-1.39949
-1.39648
-1.39423
-1.39349
-1.39361
-1.3951
-1.39578
-1.395
-1.39361
-1.39284
-1.39548
-1.39513
-1.54071
-1.53995
-1.53855
-1.53944
-1.53488
-1.53139
-1.52819
-1.52557
-1.52203
-1.52111
-1.52076
-1.52069
-1.52144
-1.52144
-1.52105
-1.52041
-1.52006
-1.52164
-1.52105
-1.66427
-1.66393
-1.66294
-1.66199
-1.65956
-1.65719
-1.65477
-1.65216
-1.65069
-1.65103
-1.6513
-1.65035
-1.64867
-1.6475
-1.64706
-1.64683
-1.64703
-1.64784
-1.64723
-1.78879
-1.78834
-1.78731
-1.78604
-1.78445
-1.78312
-1.78181
-1.78048
-1.78127
-1.78212
-1.78101
-1.77875
-1.77626
-1.77493
-1.77409
-1.7735
-1.77328
-1.77406
-1.77361
-1.91355
-1.91314
-1.91226
-1.91136
-1.91035
-1.90949
-1.90929
-1.91017
-1.91123
-1.91049
-1.90806
-1.90637
-1.90511
-1.90437
-1.90328
-1.90194
-1.9008
-1.90012
-1.89997
-2.03854
-2.0384
-2.03816
-2.03779
-2.0372
-2.0367
-2.03684
-2.03825
-2.03829
-2.03667
-2.03566
-2.0351
-2.03433
-2.03326
-2.03189
-2.03042
-2.02879
-2.02702
-2.02715
-2.16363
-2.16376
-2.16416
-2.16425
-2.16396
-2.16355
-2.16329
-2.16338
-2.16311
-2.16247
-2.16247
-2.1623
-2.16135
-2.1597
-2.15811
-2.15686
-2.15572
-2.15501
-2.1551
-2.2887
-2.2889
-2.28933
-2.28977
-2.28961
-2.28894
-2.28851
-2.28837
-2.28812
-2.28774
-2.28762
-2.28733
-2.28637
-2.28518
-2.28411
-2.28335
-2.28301
-2.28321
-2.28304
-2.41373
-2.41391
-2.41417
-2.41437
-2.41427
-2.41389
-2.41357
-2.41338
-2.41314
-2.41284
-2.4126
-2.41223
-2.41155
-2.41075
-2.41009
-2.40976
-2.40994
-2.41065
-2.4105
-2.53874
-2.53888
-2.53904
-2.53914
-2.53906
-2.53883
-2.5386
-2.53841
-2.53819
-2.53793
-2.53767
-2.53733
-2.53683
-2.5363
-2.5359
-2.53578
-2.53601
-2.53666
-2.53664
-2.66375
-2.66387
-2.66397
-2.66403
-2.66397
-2.66381
-2.66363
-2.66347
-2.66327
-2.66305
-2.66281
-2.66251
-2.66215
-2.66178
-2.66153
-2.66146
-2.66161
-2.66198
-2.66189
-2.78877
-2.78887
-2.78894
-2.78898
-2.78894
-2.78883
-2.7887
-2.78855
-2.78838
-2.78819
-2.78798
-2.78774
-2.78746
-2.7872
-2.78701
-2.78694
-2.78698
-2.78714
-2.78705
-2.91381
-2.91388
-2.91394
-2.91397
-2.91395
-2.91388
-2.91377
-2.91365
-2.91351
-2.91335
-2.91318
-2.91298
-2.91276
-2.91255
-2.91239
-2.91228
-2.91223
-2.91222
-2.91214
-3.03885
-3.03892
-3.03897
-3.03899
-3.03898
-3.03893
-3.03886
-3.03877
-3.03866
-3.03853
-3.03839
-3.03823
-3.03805
-3.03787
-3.0377
-3.03754
-3.03738
-3.03723
-3.03714
-3.16391
-3.16397
-3.16402
-3.16404
-3.16404
-3.16401
-3.16396
-3.16389
-3.16381
-3.16372
-3.16361
-3.16348
-3.16333
-3.16318
-3.163
-3.16279
-3.16251
-3.16224
-3.16201
-3.28898
-3.28904
-3.28909
-3.28911
-3.28912
-3.28911
-3.28908
-3.28904
-3.28898
-3.28891
-3.28883
-3.28873
-3.28862
-3.28849
-3.28833
-3.28811
-3.28777
-3.28747
-3.28709
-3.41406
-3.41412
-3.41417
-3.4142
-3.41422
-3.41422
-3.41421
-3.41419
-3.41415
-3.41411
-3.41406
-3.414
-3.41392
-3.41383
-3.41371
-3.41353
-3.41326
-3.4131
-3.41273
-3.53915
-3.53921
-3.53926
-3.5393
-3.53933
-3.53934
-3.53935
-3.53934
-3.53933
-3.53932
-3.5393
-3.53927
-3.53923
-3.53918
-3.53912
-3.53903
-3.53888
-3.5389
-3.5386
-3.66425
-3.66431
-3.66437
-3.66441
-3.66445
-3.66447
-3.66449
-3.66451
-3.66452
-3.66453
-3.66453
-3.66453
-3.66454
-3.66454
-3.66453
-3.66453
-3.66452
-3.66458
-3.66431
-3.78936
-3.78942
-3.78948
-3.78953
-3.78957
-3.78961
-3.78964
-3.78967
-3.7897
-3.78973
-3.78976
-3.78979
-3.78983
-3.78987
-3.78992
-3.78999
-3.79008
-3.79014
-3.78992
-3.91447
-3.91454
-3.9146
-3.91465
-3.9147
-3.91475
-3.91479
-3.91484
-3.91488
-3.91493
-3.91498
-3.91504
-3.91511
-3.91518
-3.91527
-3.91539
-3.91552
-3.91557
-3.91546
-4.03959
-4.03966
-4.03972
-4.03978
-4.03984
-4.03989
-4.03995
-4.04
-4.04006
-4.04013
-4.0402
-4.04028
-4.04036
-4.04046
-4.04057
-4.04069
-4.04081
-4.04079
-4.04061
-4.16472
-4.16479
-4.16485
-4.16491
-4.16497
-4.16503
-4.1651
-4.16516
-4.16523
-4.16531
-4.1654
-4.16549
-4.16559
-4.1657
-4.16581
-4.16592
-4.16599
-4.16586
-4.16543
-4.28985
-4.28992
-4.28998
-4.29005
-4.29011
-4.29018
-4.29024
-4.29032
-4.2904
-4.29049
-4.29059
-4.29069
-4.2908
-4.29092
-4.29103
-4.29112
-4.29115
-4.29096
-4.29045
-4.41498
-4.41505
-4.41512
-4.41518
-4.41525
-4.41532
-4.41539
-4.41547
-4.41556
-4.41565
-4.41576
-4.41588
-4.416
-4.41612
-4.41622
-4.41629
-4.41628
-4.41606
-4.4156
-4.54012
-4.54019
-4.54025
-4.54032
-4.54038
-4.54046
-4.54053
-4.54062
-4.54071
-4.54081
-4.54093
-4.54105
-4.54118
-4.5413
-4.54139
-4.54144
-4.54136
-4.54106
-4.54053
-4.66526
-4.66533
-4.66539
-4.66545
-4.66552
-4.66559
-4.66567
-4.66576
-4.66585
-4.66596
-4.66608
-4.66621
-4.66635
-4.66647
-4.66657
-4.66659
-4.66645
-4.66604
-4.66537
-4.7904
-4.79047
-4.79053
-4.79059
-4.79066
-4.79073
-4.7908
-4.79089
-4.79099
-4.7911
-4.79122
-4.79136
-4.79151
-4.79165
-4.79176
-4.79178
-4.79163
-4.79118
-4.79045
-4.91555
-4.91561
-4.91567
-4.91573
-4.91579
-4.91586
-4.91593
-4.91601
-4.91611
-4.91622
-4.91635
-4.9165
-4.91666
-4.91683
-4.91697
-4.91704
-4.91693
-4.9165
-4.91577
-5.0407
-5.04075
-5.04081
-5.04086
-5.04092
-5.04098
-5.04105
-5.04113
-5.04122
-5.04133
-5.04146
-5.04162
-5.0418
-5.042
-5.04221
-5.04236
-5.04234
-5.04192
-5.04115
-5.16585
-5.1659
-5.16595
-5.166
-5.16605
-5.1661
-5.16617
-5.16624
-5.16632
-5.16643
-5.16655
-5.16671
-5.16691
-5.16715
-5.16744
-5.16772
-5.16785
-5.16747
-5.16666
-5.291
-5.29105
-5.29109
-5.29113
-5.29117
-5.29122
-5.29127
-5.29133
-5.29141
-5.2915
-5.29162
-5.29177
-5.29198
-5.29225
-5.29262
-5.29309
-5.29349
-5.29319
-5.29235
-5.41616
-5.4162
-5.41623
-5.41626
-5.41629
-5.41633
-5.41637
-5.41642
-5.41648
-5.41655
-5.41665
-5.41678
-5.41697
-5.41724
-5.41767
-5.41837
-5.41925
-5.41913
-5.41848
-5.54132
-5.54134
-5.54137
-5.54139
-5.54141
-5.54143
-5.54146
-5.54149
-5.54153
-5.54158
-5.54164
-5.54173
-5.54186
-5.54207
-5.54247
-5.54332
-5.54491
-5.54539
-5.54548
-5.66648
-5.66649
-5.6665
-5.66651
-5.66653
-5.66654
-5.66655
-5.66657
-5.66659
-5.66661
-5.66663
-5.66667
-5.66672
-5.66682
-5.66705
-5.66768
-5.66953
-5.67197
-5.67383
)
;

boundaryField
{
    leftWall
    {
        type            calculated;
        value           nonuniform List<scalar> 
50
(
721.705
662.773
603.804
544.793
485.742
426.655
367.532
308.373
215.814
92.7183
16.1955
-0.439601
-0.715661
-1.03639
-1.25983
-1.40239
-1.52792
-1.65342
-1.7789
-1.90439
-2.02987
-2.15537
-2.28088
-2.4064
-2.53191
-2.65741
-2.78291
-2.90841
-3.03391
-3.15939
-3.28485
-3.4103
-3.53575
-3.66118
-3.7866
-3.91202
-4.03742
-4.16281
-4.28819
-4.41355
-4.53889
-4.66419
-4.78946
-4.91469
-5.03987
-5.16499
-5.29005
-5.41514
-5.54017
-5.66567
)
;
    }
    rightWall
    {
        type            calculated;
        value           nonuniform List<scalar> 
50
(
726.416
667.982
609.293
550.45
491.534
432.651
373.881
315.27
225.218
103.875
21.5051
-0.568638
-0.781028
-1.02822
-1.23773
-1.39513
-1.52105
-1.64723
-1.77361
-1.89997
-2.02715
-2.1551
-2.28304
-2.4105
-2.53664
-2.66189
-2.78705
-2.91214
-3.03714
-3.16201
-3.28709
-3.41273
-3.5386
-3.66431
-3.78992
-3.91546
-4.04061
-4.16543
-4.29045
-4.4156
-4.54053
-4.66537
-4.79045
-4.91577
-5.04115
-5.16666
-5.29235
-5.41848
-5.54548
-5.67383
)
;
    }
    lowerWall
    {
        type            calculated;
        value           nonuniform List<scalar> 
62
(
751.134
751.443
751.866
752.405
753.042
753.764
754.562
755.425
756.34
757.295
758.274
759.263
760.247
761.201
762.095
762.895
763.617
764.245
765.032
765.83
766.676
767.672
768.211
738.884
680.182
621.499
562.916
504.43
446.03
387.662
329.457
300.976
301.474
301.769
301.819
741.42
683.173
624.771
566.126
507.403
448.709
390.043
331.416
770.559
770.555
770.252
769.602
768.702
767.687
766.571
765.385
763.989
762.504
760.35
759.219
757.182
756.056
757.679
757.612
756.199
755.436
755.634
)
;
    }
    atmosphere
    {
        type            calculated;
        value           nonuniform List<scalar> 
46
(
-5.72916
-5.72904
-5.72904
-5.72904
-5.72904
-5.72904
-5.72904
-5.72904
-5.72904
-5.72904
-5.72904
-5.72904
-5.72904
-5.72904
-5.72904
-5.72904
-5.72904
-5.72904
-5.72904
-5.72904
-5.72904
-5.72904
-5.72904
-5.72905
-5.72905
-5.72905
-5.72905
-5.72906
-5.72906
-5.72907
-5.72908
-5.72909
-5.7291
-5.72911
-5.72912
-5.72913
-5.72914
-5.72914
-5.72915
-5.72916
-5.72916
-5.72915
-5.72914
-5.72911
-5.72905
-5.74032
)
;
    }
    defaultFaces
    {
        type            empty;
    }
}


// ************************************************************************* //
