/*--------------------------------*- C++ -*----------------------------------*\
  =========                 |
  \\      /  F ield         | OpenFOAM: The Open Source CFD Toolbox
   \\    /   O peration     | Website:  https://openfoam.org
    \\  /    A nd           | Version:  9
     \\/     M anipulation  |
\*---------------------------------------------------------------------------*/
FoamFile
{
    format      ascii;
    class       volScalarField;
    location    "5.18";
    object      k;
}
// * * * * * * * * * * * * * * * * * * * * * * * * * * * * * * * * * * * * * //

dimensions      [0 2 -2 0 0 0 0];

internalField   nonuniform List<scalar> 
2268
(
0.000288675
0.000704426
0.0010232
0.00126669
0.00146317
0.00162645
0.0017654
0.00188609
0.00199207
0.00208496
0.00216596
0.00223633
0.00229703
0.0023478
0.00238414
0.00238864
0.00231068
0.00212265
0.00187801
0.00167099
0.00148307
0.00112807
0.00042878
0.000618396
0.00161399
0.00226726
0.00277384
0.00318614
0.00353071
0.00382438
0.00407847
0.0043001
0.00449339
0.00466111
0.00480525
0.00492612
0.00502075
0.00507857
0.00507204
0.00494208
0.00460148
0.00417968
0.00381396
0.00338919
0.00259614
0.00106398
0.000870999
0.00214069
0.0029445
0.0035695
0.00408124
0.00451043
0.0048764
0.00519236
0.00546709
0.00570613
0.00591329
0.00609097
0.00623929
0.00635412
0.00642294
0.00641688
0.00628342
0.00595382
0.00551906
0.00508562
0.00453831
0.00356183
0.00152842
0.001083
0.0025616
0.00346662
0.00416762
0.00474325
0.00522694
0.00563925
0.00599447
0.00630252
0.00657007
0.0068018
0.00700061
0.00716665
0.00729541
0.00737392
0.00737454
0.00725106
0.00694853
0.00653149
0.0060717
0.0054755
0.00442575
0.00198881
0.00126535
0.00292995
0.00391872
0.00467874
0.00530277
0.00582719
0.0062736
0.00665724
0.00698912
0.00727698
0.00752637
0.00774075
0.0079205
0.00806122
0.00815027
0.00816198
0.008055
0.00778569
0.00739863
0.00694017
0.00633074
0.00524733
0.00248889
0.00142776
0.00326385
0.0043286
0.00513959
0.00580392
0.00636133
0.00683463
0.00724011
0.00759005
0.00789333
0.0081564
0.00838331
0.00857487
0.00872702
0.00882781
0.00885381
0.00876734
0.00853598
0.00818788
0.00775263
0.00715872
0.00607623
0.00302265
0.00157764
0.00357261
0.00470903
0.00556694
0.00626702
0.00685264
0.00734801
0.0077708
0.00813478
0.00845017
0.00872434
0.00896197
0.00916431
0.00932788
0.00944162
0.00948291
0.00942075
0.00922998
0.0089279
0.00853261
0.00798132
0.00695326
0.00371439
0.00172165
0.0038615
0.0050669
0.00596983
0.00670314
0.00731389
0.00782792
0.0082646
0.00863963
0.00896473
0.00924822
0.00949539
0.00970793
0.00988311
0.0100102
0.0100688
0.0100331
0.00988365
0.00963112
0.00928686
0.00880249
0.00791965
0.00508339
0.000429461
0.00114646
0.00155372
0.00175681
0.00184683
0.00187886
0.00188789
0.00190925
0.00195681
0.00193156
0.00168751
0.00141721
0.00126539
0.00154767
0.00191338
0.00177017
0.00141709
0.000992117
0.000674565
0.000887737
0.00251116
0.00337813
0.00383839
0.00406001
0.00414686
0.0041709
0.00418484
0.00417968
0.00403871
0.00364981
0.00316229
0.00285687
0.00325818
0.00365175
0.00337442
0.00273997
0.00195855
0.00105847
0.001217
0.00331555
0.00437314
0.00492699
0.00519425
0.00529947
0.00532492
0.00531876
0.00526504
0.00506286
0.00464962
0.00418584
0.00392826
0.00424393
0.0044011
0.00402815
0.00330749
0.00242985
0.00126155
0.00157568
0.00402043
0.00517266
0.00575518
0.00603104
0.00613499
0.00615112
0.00611986
0.00602262
0.00578198
0.00537943
0.00497597
0.00478732
0.00497137
0.00491207
0.00443228
0.00364897
0.0027082
0.00137853
0.0019591
0.00473259
0.00591155
0.0064826
0.00674321
0.00683167
0.00682942
0.00676937
0.006634
0.00636933
0.00599417
0.00565805
0.0055148
0.0055601
0.00532856
0.00473273
0.00387824
0.0028722
0.00143423
0.00241013
0.00548505
0.00663282
0.00716133
0.00738852
0.0074509
0.00742287
0.00733174
0.0071632
0.00688521
0.00654373
0.00626545
0.00613092
0.00604843
0.00568504
0.00497334
0.00403281
0.00294863
0.00143877
0.00306832
0.00630135
0.0073526
0.00781218
0.00799324
0.00802137
0.00796223
0.00783912
0.00764196
0.0073579
0.00704504
0.00680085
0.00664241
0.00645197
0.00598681
0.00517017
0.00413532
0.00295157
0.00140884
0.00444031
0.00720289
0.00807275
0.00844429
0.00857094
0.00855921
0.00846567
0.00831077
0.00808894
0.0078016
0.00750455
0.00726481
0.00706039
0.00678043
0.00623768
0.00533576
0.00420774
0.00291183
0.00136226
0.00190484
0.00426721
0.00558335
0.0065579
0.0073427
0.00799103
0.00853144
0.00898666
0.00937623
0.00971472
0.010012
0.010274
0.0105032
0.0106979
0.0108474
0.0109359
0.0109439
0.0108581
0.0106837
0.0104265
0.0100642
0.00948175
0.00830937
0.00213828
0.00476642
0.00623035
0.00730156
0.00815385
0.00884838
0.00941604
0.00988657
0.0102874
0.0106382
0.0109502
0.0112299
0.0114802
0.0117003
0.0118831
0.0120169
0.0120859
0.0120775
0.0119943
0.0118397
0.0116182
0.0112976
0.0107816
0.00236126
0.00521982
0.00683619
0.00800459
0.00892379
0.00966547
0.0102549
0.0107328
0.0111392
0.0114997
0.0118253
0.0121219
0.0123935
0.0126423
0.0128669
0.0130581
0.0131975
0.0132637
0.0132605
0.0131777
0.0130492
0.0128887
0.0126641
0.00265184
0.0056453
0.00739089
0.00866231
0.00962506
0.0104298
0.0110449
0.0115231
0.0119325
0.0123055
0.0126479
0.0129639
0.0132591
0.0135419
0.0138205
0.0140902
0.0143224
0.0144546
0.0145343
0.0144695
0.0143811
0.0143178
0.014268
0.00303164
0.00614692
0.00791682
0.00922674
0.0102128
0.0111051
0.011769
0.012201
0.0125907
0.0129873
0.0133794
0.013745
0.0140815
0.0143938
0.0147177
0.0150615
0.0153448
0.0154359
0.0156703
0.0157245
0.0156209
0.0155829
0.0156228
0.00294894
0.0063053
0.00827166
0.00977922
0.0106102
0.0116373
0.0124902
0.0128278
0.0131322
0.0135188
0.0139409
0.0143564
0.0147416
0.015103
0.0154933
0.0159334
0.0161982
0.0162282
0.0164151
0.0166762
0.0166935
0.016529
0.0165125
0.00282002
0.00619479
0.00823718
0.00970686
0.0107117
0.0116518
0.0124421
0.0130192
0.0134841
0.0139365
0.0143842
0.0148125
0.0152178
0.0156119
0.016025
0.016458
0.0167244
0.0167221
0.0168659
0.0170349
0.017082
0.0170194
0.0170378
0.00280827
0.00629906
0.00831042
0.00978128
0.0108693
0.0117718
0.0125808
0.0132384
0.0137935
0.0143012
0.0147773
0.0152169
0.0156203
0.0159904
0.0163396
0.0166638
0.0169053
0.0170235
0.0171701
0.0172839
0.0173526
0.0173686
0.0172505
0.00286272
0.00641245
0.00844737
0.00991941
0.0110117
0.0119118
0.0127128
0.0134131
0.0140241
0.0145701
0.0150634
0.0155047
0.0158941
0.0162349
0.0165359
0.0168054
0.0170391
0.0172319
0.0174152
0.0175554
0.0176048
0.0175269
0.0173703
0.00298236
0.00657568
0.0085862
0.0100348
0.0111404
0.0120469
0.0128421
0.013554
0.0141892
0.0147555
0.0152592
0.0157021
0.0160851
0.0164131
0.0166967
0.0169462
0.017169
0.0173705
0.0175525
0.0176807
0.0176995
0.0176112
0.0174774
0.00309865
0.00674279
0.00872641
0.0101522
0.0112633
0.0121786
0.0129748
0.0136878
0.0143285
0.014901
0.0154086
0.0158527
0.0162352
0.0165621
0.0168426
0.0170851
0.0172971
0.0174838
0.0176417
0.0177432
0.0177551
0.0176895
0.0175824
0.0032024
0.00690072
0.00886562
0.010273
0.0113841
0.012307
0.0131068
0.0138189
0.014458
0.0150295
0.0155361
0.01598
0.0163643
0.0166945
0.0169772
0.0172185
0.0174239
0.0175969
0.0177335
0.0178175
0.0178338
0.0177904
0.0177052
0.00329162
0.00704566
0.00900103
0.0103945
0.0115025
0.012429
0.0132313
0.0139423
0.0145783
0.0151463
0.0156505
0.0160942
0.0164812
0.0168159
0.017103
0.0173468
0.0175509
0.0177172
0.0178434
0.0179219
0.0179466
0.0179213
0.0178539
0.00336521
0.0071757
0.009129
0.0105129
0.0116161
0.0125423
0.0133449
0.0140545
0.0146875
0.0152526
0.0157555
0.0162003
0.016591
0.0169313
0.0172247
0.0174741
0.017682
0.0178495
0.0179755
0.0180574
0.0180929
0.0180834
0.0180318
0.00342408
0.00728919
0.00924564
0.0106235
0.0117217
0.0126456
0.0134471
0.0141551
0.0147864
0.0153506
0.0158543
0.0163024
0.0166986
0.0170463
0.0173482
0.0176065
0.0178226
0.0179976
0.0181311
0.0182225
0.0182709
0.0182766
0.0182404
0.00346973
0.00738485
0.00934729
0.0107218
0.0118162
0.0127379
0.0135383
0.0142458
0.0148773
0.0154432
0.0159506
0.0164044
0.0168086
0.017166
0.017479
0.0177491
0.0179774
0.0181647
0.0183109
0.018416
0.0184795
0.0185012
0.0184812
0.00350529
0.00746173
0.00943092
0.0108048
0.0118975
0.0128184
0.0136192
0.0143282
0.0149626
0.0155331
0.0160471
0.0165097
0.0169246
0.0172944
0.0176212
0.0179062
0.0181501
0.0183534
0.0185163
0.0186384
0.0187196
0.0187592
0.0187569
0.00353861
0.00751977
0.00949561
0.010871
0.0119644
0.0128868
0.0136902
0.0144035
0.0150438
0.0156222
0.016146
0.0166205
0.0170492
0.0174345
0.0177782
0.0180812
0.018344
0.0185668
0.0187496
0.018892
0.0189936
0.0190536
0.0190714
0.00356908
0.00756008
0.00954153
0.01092
0.0120164
0.0129429
0.013752
0.0144727
0.0151222
0.0157119
0.0162491
0.0167389
0.0171847
0.0175889
0.0179528
0.0182772
0.0185623
0.0188082
0.0190144
0.0191804
0.0193055
0.0193888
0.0194295
0.00359077
0.00758305
0.00956919
0.0109521
0.0120539
0.0129873
0.0138052
0.0145365
0.0151989
0.0158036
0.0163578
0.0168667
0.0173335
0.0177602
0.0181482
0.0184978
0.0188091
0.0190817
0.0193151
0.0195084
0.0196605
0.0197706
0.0198374
0.00360271
0.00758945
0.00957955
0.0109682
0.0120776
0.0130208
0.0138507
0.0145963
0.0152753
0.0158987
0.0164741
0.0170061
0.017498
0.0179516
0.0183679
0.018747
0.0190889
0.0193927
0.0196575
0.0198822
0.0200655
0.0202061
0.0203027
0.0036045
0.00758019
0.00957388
0.0109696
0.0120889
0.0130448
0.0138899
0.0146534
0.0153529
0.0159993
0.0166
0.0171598
0.0176814
0.0181667
0.0186162
0.0190299
0.0194073
0.0197472
0.0200484
0.0203093
0.0205283
0.0207038
0.0208343
0.00359627
0.00755653
0.00955374
0.0109579
0.0120895
0.0130608
0.0139246
0.0147098
0.0154338
0.0161076
0.0167385
0.0173309
0.0178876
0.0184099
0.0188983
0.0193524
0.0197711
0.0201529
0.0204961
0.0207988
0.0210588
0.0212743
0.0214433
0.00357931
0.0075203
0.00952098
0.010935
0.0120811
0.0130708
0.0139567
0.0147675
0.0155205
0.0162265
0.0168927
0.0175233
0.0181209
0.0186865
0.0192203
0.0197213
0.020188
0.0206185
0.0210105
0.0213613
0.0216686
0.0219298
0.0221426
0.00355503
0.00747356
0.00947758
0.0109029
0.0120657
0.0130769
0.0139886
0.0148291
0.0156157
0.0163592
0.0170663
0.0177413
0.0183864
0.0190025
0.0195891
0.0201447
0.0206675
0.0211546
0.021603
0.0220097
0.0223714
0.0226851
0.022948
0.0035246
0.0074181
0.00942545
0.0108635
0.0120455
0.0130813
0.0140225
0.0148972
0.0157225
0.016509
0.0172634
0.0179897
0.01869
0.0193646
0.0200126
0.0206321
0.0212201
0.0217732
0.0222875
0.022759
0.0231837
0.0235578
0.023878
0.00348895
0.00735544
0.00936629
0.0108186
0.0120223
0.0130862
0.0140609
0.0149745
0.0158439
0.0166796
0.0174883
0.0182738
0.0190379
0.0197805
0.0205002
0.0211941
0.0218585
0.0224889
0.0230801
0.0236271
0.0241248
0.0245686
0.0249542
0.00344856
0.00728651
0.0093014
0.0107698
0.0119982
0.0130935
0.0141061
0.0150637
0.015983
0.0168748
0.0177455
0.018599
0.0194368
0.0202585
0.0210617
0.0218429
0.022597
0.0233181
0.0239997
0.024635
0.0252178
0.025742
0.026202
0.00340237
0.00721117
0.00923152
0.0107185
0.0119745
0.0131052
0.0141603
0.0151672
0.0161429
0.0170981
0.0180395
0.0189711
0.019894
0.0208074
0.0217084
0.022592
0.0234518
0.02428
0.0250681
0.0258073
0.0264893
0.0271061
0.0276514
0.00334711
0.00712812
0.00915679
0.0106655
0.0119527
0.0131228
0.0142251
0.0152872
0.016326
0.0173527
0.0183745
0.0193952
0.0204163
0.0214365
0.0224519
0.0234563
0.0244412
0.0253965
0.0263107
0.0271725
0.0279704
0.0286945
0.0293371
0.00328283
0.00703608
0.00907702
0.0106111
0.0119334
0.0131473
0.014302
0.0154252
0.0165344
0.0176413
0.0187538
0.0198763
0.0210104
0.0221546
0.0233043
0.0244514
0.025585
0.0266915
0.027756
0.0287631
0.0296972
0.0305458
0.0312993
0.0032233
0.00693599
0.00899204
0.0105553
0.0119168
0.0131792
0.0143915
0.015582
0.016769
0.0179653
0.0191796
0.0204175
0.0216813
0.0229694
0.0242765
0.0255926
0.0269035
0.0281913
0.0294356
0.0306157
0.0317108
0.0327042
0.0335844
0.0031607
0.00683044
0.00890258
0.0104982
0.0119031
0.0132187
0.014494
0.015758
0.0170302
0.0183247
0.0196523
0.02102
0.0224316
0.0238861
0.0253774
0.0268935
0.0284163
0.0299221
0.0313834
0.0327714
0.034058
0.035221
0.0362455
0.00309289
0.00671834
0.00880718
0.0104385
0.0118913
0.0132651
0.0146087
0.0159519
0.0173159
0.0187172
0.0201692
0.0216815
0.02326
0.0249053
0.0266112
0.0283636
0.0301398
0.0319089
0.0336339
0.0352744
0.0367915
0.0381542
0.0393436
0.00301636
0.00659377
0.00870161
0.0103737
0.0118799
0.013317
0.0147336
0.0161608
0.0176221
0.0191375
0.0207236
0.0223943
0.0241588
0.0260204
0.0279739
0.0300037
0.0320825
0.0341709
0.0362192
0.0381709
0.0399698
0.0415707
0.0429487
0.00292461
0.00644686
0.00857939
0.0103004
0.0118674
0.0133733
0.0148665
0.0163805
0.0179423
0.0195761
0.0213038
0.0231441
0.0251115
0.0272137
0.0294484
0.0318002
0.0342385
0.0367151
0.0391646
0.0415076
0.0436592
0.0455495
0.047144
0.00280716
0.00626475
0.00843347
0.0102166
0.0118536
0.0134329
0.0150043
0.016605
0.0182669
0.0200198
0.0218916
0.0239079
0.0260903
0.0284528
0.0309991
0.0337178
0.0365784
0.0395273
0.0424825
0.0453317
0.0479405
0.0501902
0.0520326
0.00265062
0.00603418
0.00825922
0.0101236
0.0118408
0.0134962
0.0151437
0.0168265
0.0185831
0.02045
0.0224623
0.0246536
0.027054
0.0296871
0.0325663
0.0356901
0.0390375
0.042559
0.0461622
0.0496919
0.0529239
0.0556306
0.0577494
0.00254518
0.00576412
0.00806182
0.0100294
0.0118353
0.0135644
0.01528
0.0170347
0.0188748
0.0208441
0.022985
0.0253397
0.0279482
0.0308462
0.0340615
0.0376119
0.0415006
0.0457057
0.05015
0.054639
0.0587867
0.0620811
0.064479
0.00431187
0.00564887
0.0078661
0.00994718
0.0118443
0.0136369
0.0154058
0.0172164
0.019123
0.0211759
0.0234244
0.0259185
0.0287085
0.0318431
0.0353692
0.0393334
0.0437849
0.0487712
0.0542993
0.0602064
0.0658648
0.0698853
0.0724728
0.0184233
0.00684824
0.00768519
0.00987525
0.0118668
0.0137059
0.0155084
0.0173549
0.0193067
0.0214185
0.0237447
0.0263414
0.0292672
0.0325832
0.0363556
0.0406652
0.0456257
0.0514078
0.0582402
0.0662797
0.0749209
0.0796135
0.0820405
0.0840498
0.0143724
0.00772964
0.00982193
0.01189
0.0137527
0.0155687
0.0174314
0.0194056
0.0215478
0.0239147
0.026566
0.0295651
0.0329805
0.0368916
0.0414051
0.0466914
0.0530569
0.0610825
0.0719232
0.088047
0.0921079
0.0934418
0.0059121
0.00488992
0.00468978
0.00535046
0.0101974
0.00988608
0.00974831
0.00979935
0.0124059
0.0122424
0.0121145
0.0120363
0.0140687
0.0139247
0.0137775
0.013648
0.0155163
0.0153421
0.0151049
0.0149054
0.0163723
0.016167
0.0159767
0.015786
0.0168546
0.0167823
0.0166415
0.0164307
0.0171136
0.0170245
0.0168826
0.0167344
0.0172505
0.0171647
0.0170642
0.0169524
0.0173662
0.0172897
0.0172048
0.0171086
0.0174828
0.0174119
0.0173329
0.0172446
0.0176163
0.0175511
0.0174773
0.0173946
0.0177753
0.0177161
0.0176479
0.0175707
0.0179635
0.0179106
0.0178485
0.0177771
0.0181828
0.0181366
0.0180809
0.018016
0.0184352
0.0183962
0.0183477
0.0182897
0.0187238
0.018693
0.0186524
0.0186022
0.0190528
0.0190312
0.0189997
0.0189584
0.0194275
0.0194164
0.0193952
0.0193639
0.0198542
0.0198549
0.0198454
0.0198256
0.0203407
0.0203548
0.0203584
0.0203514
0.0208964
0.0209256
0.0209439
0.0209513
0.0215325
0.0215787
0.0216136
0.021637
0.0222626
0.022328
0.0223814
0.0224229
0.0231028
0.0231898
0.0232642
0.0233258
0.0240721
0.0241835
0.0242813
0.0243653
0.0251927
0.0253314
0.0254554
0.0255644
0.0264907
0.0266602
0.0268135
0.0269505
0.0279967
0.0282008
0.0283869
0.0285548
0.0297461
0.0299888
0.0302112
0.0304132
0.0317797
0.0320653
0.0323276
0.0325667
0.0341443
0.034477
0.0347827
0.0350614
0.0368932
0.0372772
0.037629
0.0379494
0.0400873
0.040526
0.0409262
0.041289
0.0437963
0.0442924
0.0447415
0.0451459
0.0481017
0.048656
0.0491523
0.0495944
0.0531024
0.0537116
0.0542487
0.0547203
0.0589215
0.0595742
0.0601376
0.0606226
0.0657163
0.0663841
0.0669444
0.0674145
0.0736797
0.0743038
0.0748083
0.0752181
0.0830174
0.0834938
0.0838612
0.0841484
0.0938609
0.0940481
0.0941838
0.0942854
0.0075378
0.00866139
0.00918807
0.00940906
0.00944346
0.0093648
0.00921536
0.00901127
0.00875485
0.00845965
0.00816624
0.00789534
0.00760147
0.00719293
0.00655222
0.00555784
0.00430598
0.00285948
0.00126898
0.0100763
0.0104194
0.0106091
0.0106494
0.0105619
0.0103944
0.0101728
0.009909
0.00961095
0.00928935
0.00895741
0.00860857
0.0082025
0.00768436
0.00697383
0.00596175
0.00468055
0.00319438
0.00135316
0.0119734
0.0119585
0.0119334
0.0118454
0.0116506
0.0114087
0.011119
0.0107932
0.0104458
0.0100851
0.00971302
0.00931506
0.00885097
0.00828355
0.00756062
0.00660133
0.00540791
0.00393145
0.00185338
0.0134946
0.0133048
0.0131651
0.0130273
0.0127264
0.0124402
0.0120696
0.0116607
0.0112501
0.010847
0.0104536
0.0100493
0.00958004
0.00902517
0.00835114
0.00748556
0.00640185
0.00486052
0.00252283
0.0146662
0.014382
0.0141985
0.0140534
0.0136667
0.0134603
0.0130022
0.0124596
0.011962
0.0115079
0.011089
0.0106695
0.0101926
0.00962519
0.00892937
0.00805331
0.00703638
0.00562803
0.00325923
0.0155172
0.0152476
0.0150435
0.0148508
0.0144645
0.014154
0.0136712
0.0130614
0.0125046
0.0119972
0.0115072
0.0109853
0.0104234
0.0098038
0.00909914
0.00829556
0.00742888
0.00569246
0.00268319
0.016193
0.0158667
0.0156527
0.0155174
0.0150519
0.0146983
0.0141684
0.0135421
0.0129611
0.0124119
0.0118402
0.0112353
0.0106103
0.0099302
0.00919787
0.00844258
0.00747845
0.00547386
0.0025677
0.0165129
0.0162096
0.0159737
0.0157749
0.0153886
0.0150019
0.0144802
0.0139118
0.0133373
0.0127541
0.0121211
0.0114535
0.0107572
0.0100168
0.00923072
0.00838103
0.00731687
0.00574248
0.00285629
0.016749
0.0164533
0.0161802
0.0158947
0.0155265
0.0151178
0.0146551
0.0141566
0.0136048
0.0129938
0.0123287
0.0116166
0.0108631
0.0100692
0.00922491
0.00830984
0.00722522
0.00573861
0.00298051
0.0169298
0.0166452
0.0163484
0.016023
0.0156513
0.015248
0.0148151
0.0143496
0.0137992
0.0131712
0.0124876
0.0117352
0.0109338
0.0100877
0.00917981
0.00818819
0.00702843
0.00550594
0.00276033
0.0170826
0.016813
0.0165116
0.0161762
0.0158102
0.015414
0.0149884
0.0145227
0.0139642
0.0133315
0.0126243
0.01183
0.0109784
0.0100721
0.00909201
0.00800498
0.00672082
0.00507326
0.00233908
0.017243
0.0169859
0.0166898
0.0163575
0.0159963
0.0156028
0.0151736
0.0146942
0.0141311
0.0134854
0.0127544
0.0119371
0.0110451
0.0100741
0.00900079
0.00778007
0.00632647
0.00451901
0.00197183
0.0174281
0.0171821
0.0168938
0.0165663
0.0162057
0.0158098
0.0153735
0.0148814
0.014309
0.0136526
0.0129181
0.0120969
0.0111826
0.0101637
0.00901375
0.00768221
0.00608977
0.00419684
0.00189293
0.0176439
0.0174093
0.0171294
0.0168069
0.0164456
0.0160451
0.0156006
0.0150978
0.0145204
0.0138667
0.0131394
0.0123249
0.0114075
0.010375
0.00920726
0.00786317
0.00628826
0.00444012
0.00205523
0.0178928
0.0176707
0.0174008
0.0170851
0.0167258
0.0163229
0.0158725
0.0153641
0.0147879
0.0141411
0.013422
0.0126183
0.0117161
0.0107066
0.00957716
0.00829921
0.00682491
0.00503016
0.00241129
0.0181777
0.0179697
0.0177121
0.0174061
0.0170529
0.0166521
0.0162007
0.0156921
0.0151199
0.0144804
0.0137699
0.0129795
0.0121001
0.0111267
0.0100516
0.00885267
0.00747157
0.00572023
0.00276816
0.0185028
0.0183112
0.0180684
0.017775
0.0174316
0.0170373
0.01659
0.0160853
0.0155189
0.014887
0.0141855
0.0134084
0.0125498
0.0116061
0.0105703
0.00941889
0.00808
0.00631063
0.00307271
0.0188733
0.0187007
0.0184752
0.0181971
0.0178665
0.0174824
0.0170428
0.0165449
0.0159854
0.0153608
0.0146674
0.0139003
0.0130551
0.0121271
0.0111062
0.00996308
0.00861125
0.00676485
0.00328236
0.0192952
0.0191441
0.0189384
0.0186781
0.0183627
0.0179913
0.0175619
0.0170724
0.0165199
0.0159015
0.0152135
0.0144513
0.01361
0.0126825
0.0116542
0.0104884
0.00908625
0.00713999
0.00341898
0.0197753
0.0196485
0.0194651
0.0192246
0.0189265
0.0185695
0.0181517
0.0176711
0.0171252
0.0165109
0.0158245
0.0150611
0.0142142
0.0132739
0.0122207
0.0110107
0.00953448
0.0074699
0.00353462
0.020322
0.0202222
0.0200635
0.0198451
0.0195659
0.0192245
0.018819
0.0183472
0.0178067
0.017194
0.0165051
0.0157342
0.0148734
0.0139096
0.0128187
0.01155
0.00998437
0.00778118
0.00366579
0.0209451
0.0208755
0.020744
0.0205497
0.0202909
0.0199661
0.0195732
0.0191099
0.0185733
0.0179597
0.0172642
0.0164803
0.0155984
0.0146028
0.0134655
0.0121302
0.0104688
0.00812019
0.00382803
0.0216568
0.0216207
0.0215193
0.0213509
0.021114
0.0208068
0.0204268
0.0199715
0.0194374
0.0188203
0.0181147
0.0173129
0.0164039
0.0153703
0.0141813
0.0127771
0.0110244
0.0085495
0.00404511
0.0224718
0.0224726
0.0224038
0.0222637
0.0220505
0.0217619
0.0213953
0.0209475
0.0204147
0.019792
0.0190729
0.0182489
0.0173078
0.016231
0.0149866
0.0135136
0.0116792
0.00911044
0.00432999
0.023407
0.0234485
0.0234155
0.0233062
0.0231184
0.0228497
0.0224972
0.0220572
0.021525
0.0208948
0.0201594
0.019309
0.0183305
0.0172044
0.0158984
0.0143531
0.0124396
0.00978495
0.00467339
0.0244824
0.0245688
0.0245751
0.0244993
0.0243393
0.0240923
0.023755
0.023323
0.022791
0.022152
0.0213976
0.020517
0.0194959
0.0183136
0.0169375
0.0153082
0.0132961
0.0105168
0.00508181
0.0257216
0.0258576
0.0259069
0.0258677
0.0257379
0.0255145
0.0251938
0.0247707
0.0242388
0.0235902
0.0228148
0.0219004
0.0208309
0.0195844
0.018127
0.0163976
0.0142611
0.0113059
0.00550883
0.0271521
0.0273424
0.0274386
0.0274391
0.027342
0.0271444
0.026842
0.0264291
0.0258983
0.0252398
0.024442
0.0234904
0.0223669
0.021047
0.0194944
0.0176443
0.0153522
0.0121701
0.00593338
0.0288054
0.0290548
0.0292015
0.0292448
0.0291829
0.0290133
0.0287313
0.0283306
0.0278022
0.0271348
0.0263142
0.025323
0.0241399
0.0227367
0.0210729
0.0190778
0.0165936
0.0131287
0.00634994
0.0307172
0.0310303
0.0312308
0.0313192
0.0312948
0.0311554
0.0308963
0.0305102
0.0299869
0.0293128
0.0284705
0.0274389
0.0261919
0.024696
0.0229043
0.0207374
0.018021
0.0142154
0.00679474
0.0329283
0.0333085
0.033565
0.0337001
0.0337148
0.0336076
0.0333739
0.0330059
0.0324916
0.0318148
0.0309544
0.0298841
0.0285716
0.0269758
0.0250404
0.0226743
0.0196843
0.0154795
0.00732527
0.035484
0.0359333
0.0362464
0.0364285
0.0364828
0.0364092
0.0362038
0.0358579
0.035358
0.0346848
0.033813
0.03271
0.0313348
0.029636
0.0275445
0.0249531
0.021645
0.0169719
0.0079468
0.0384348
0.0389528
0.0393207
0.0395481
0.0396412
0.039602
0.0394273
0.0391084
0.0386299
0.0379698
0.0370973
0.0359727
0.0345445
0.0327473
0.0304938
0.0276544
0.0239806
0.0187531
0.00866403
0.0418368
0.0424198
0.0428377
0.043106
0.0432353
0.04323
0.0430883
0.0428015
0.0423533
0.0417183
0.0408609
0.039733
0.0382708
0.0363909
0.0339817
0.030881
0.0267956
0.0209157
0.0095457
0.0457525
0.0463921
0.0468511
0.0471529
0.0473131
0.0473397
0.0472325
0.0469833
0.0465751
0.0459804
0.0451588
0.044054
0.0425889
0.0406586
0.0381193
0.0347626
0.0302301
0.0235921
0.0106917
0.0502515
0.0509329
0.0514192
0.0517433
0.0519268
0.0519812
0.0519086
0.0517019
0.0513442
0.0508067
0.0500461
0.0489992
0.0475762
0.0456489
0.043034
0.0394594
0.0344676
0.0269547
0.0121731
0.0554118
0.0561121
0.0566061
0.0569372
0.0571333
0.0572093
0.0571697
0.0570089
0.056711
0.0562482
0.0555762
0.0546286
0.0533062
0.0514601
0.0488641
0.0451634
0.0397517
0.0312479
0.014083
0.061321
0.0620068
0.0624822
0.0628011
0.0629962
0.0630853
0.0630746
0.0629605
0.0627295
0.0623562
0.0617994
0.0609947
0.0598411
0.0581781
0.0557435
0.0520916
0.0464082
0.0368558
0.0166183
0.0680758
0.0687014
0.069126
0.06941
0.0695884
0.0696797
0.0696913
0.0696213
0.0694594
0.069185
0.0687637
0.0681399
0.0672224
0.0658573
0.0637722
0.060454
0.054852
0.0444142
0.0202322
0.0757786
0.076287
0.0766247
0.07685
0.076995
0.0770762
0.0771005
0.0770675
0.0769706
0.0767955
0.0765179
0.0760972
0.0754651
0.0744993
0.0729653
0.0703667
0.065513
0.0549457
0.0255702
0.084529
0.0848608
0.0850773
0.085222
0.0853176
0.0853754
0.0854003
0.0853928
0.0853494
0.0852628
0.0851198
0.0848988
0.0845625
0.0840422
0.0831969
0.0816901
0.0785382
0.069883
0.0339786
0.0944161
0.0945266
0.0945982
0.0946466
0.0946796
0.0947009
0.0947124
0.0947144
0.0947062
0.0946859
0.0946506
0.0945951
0.0945118
0.0943869
0.0941932
0.093857
0.0930736
0.0897373
0.0471408
)
;

boundaryField
{
    leftWall
    {
        type            kqRWallFunction;
        value           nonuniform List<scalar> 
50
(
0.000288675
0.000618396
0.000870999
0.001083
0.00126535
0.00142776
0.00157764
0.00172165
0.00190484
0.00213828
0.00236126
0.00265184
0.00303164
0.00294894
0.00282002
0.00280827
0.00286272
0.00298236
0.00309865
0.0032024
0.00329162
0.00336521
0.00342408
0.00346973
0.00350529
0.00353861
0.00356908
0.00359077
0.00360271
0.0036045
0.00359627
0.00357931
0.00355503
0.0035246
0.00348895
0.00344856
0.00340237
0.00334711
0.00328283
0.0032233
0.0031607
0.00309289
0.00301636
0.00292461
0.00280716
0.00265062
0.00254518
0.00431187
0.0184233
0.0840498
)
;
    }
    rightWall
    {
        type            kqRWallFunction;
        value           nonuniform List<scalar> 
50
(
0.000674565
0.00105847
0.00126155
0.00137853
0.00143423
0.00143877
0.00140884
0.00136226
0.00126898
0.00135316
0.00185338
0.00252283
0.00325923
0.00268319
0.0025677
0.00285629
0.00298051
0.00276033
0.00233908
0.00197183
0.00189293
0.00205523
0.00241129
0.00276816
0.00307271
0.00328236
0.00341898
0.00353462
0.00366579
0.00382803
0.00404511
0.00432999
0.00467339
0.00508181
0.00550883
0.00593338
0.00634994
0.00679474
0.00732527
0.0079468
0.00866403
0.0095457
0.0106917
0.0121731
0.014083
0.0166183
0.0202322
0.0255702
0.0339786
0.0471408
)
;
    }
    lowerWall
    {
        type            kqRWallFunction;
        value           nonuniform List<scalar> 
62
(
0.000288675
0.000704426
0.0010232
0.00126669
0.00146317
0.00162645
0.0017654
0.00188609
0.00199207
0.00208496
0.00216596
0.00223633
0.00229703
0.0023478
0.00238414
0.00238864
0.00231068
0.00212265
0.00187801
0.00167099
0.00148307
0.00112807
0.00042878
0.00042878
0.00106398
0.00152842
0.00198881
0.00248889
0.00302265
0.00371439
0.00508339
0.0059121
0.00488992
0.00468978
0.00535046
0.000429461
0.000887737
0.001217
0.00157568
0.0019591
0.00241013
0.00306832
0.00444031
0.000429461
0.00114646
0.00155372
0.00175681
0.00184683
0.00187886
0.00188789
0.00190925
0.00195681
0.00193156
0.00168751
0.00141721
0.00126539
0.00154767
0.00191338
0.00177017
0.00141709
0.000992117
0.000674565
)
;
    }
    atmosphere
    {
        type            inletOutlet;
        inletValue      uniform 0.1;
        value           nonuniform List<scalar> 
46
(
0.1
0.0143724
0.00772964
0.00982193
0.01189
0.0137527
0.0155687
0.0174314
0.0194056
0.0215478
0.0239147
0.026566
0.0295651
0.0329805
0.0368916
0.0414051
0.0466914
0.0530569
0.0610825
0.0719232
0.1
0.1
0.1
0.1
0.1
0.1
0.1
0.1
0.1
0.1
0.1
0.1
0.1
0.1
0.1
0.1
0.1
0.1
0.1
0.1
0.1
0.1
0.1
0.1
0.1
0.0471408
)
;
    }
    defaultFaces
    {
        type            empty;
    }
}


// ************************************************************************* //
