/*--------------------------------*- C++ -*----------------------------------*\
  =========                 |
  \\      /  F ield         | OpenFOAM: The Open Source CFD Toolbox
   \\    /   O peration     | Website:  https://openfoam.org
    \\  /    A nd           | Version:  9
     \\/     M anipulation  |
\*---------------------------------------------------------------------------*/
FoamFile
{
    format      ascii;
    class       volScalarField;
    location    "36.55";
    object      p;
}
// * * * * * * * * * * * * * * * * * * * * * * * * * * * * * * * * * * * * * //

dimensions      [0 2 -2 0 0 0 0];

internalField   nonuniform List<scalar> 
918
(
23.4685
23.5752
0.953239
22.8859
1.01742
23.0917
3.27167
13.7843
19.2417
2.9338
2.6254
14.4078
20.6347
16.8761
12.9922
0.924747
14.0513
2.24568
18.4594
1.39843
12.9915
20.4472
21.5359
19.2835
14.1206
14.3712
18.597
1.14559
0.1078
0.255113
0.97928
0.411068
0.147493
21.6286
22.3052
22.2436
15.4943
10.4018
3.5969
3.80146
2.98214
2.80512
13.8269
13.9269
5.86647
13.7632
13.7589
16.6432
19.1098
19.2534
19.5466
19.3356
19.722
5.97337
2.78497
2.60489
2.87591
2.95033
2.98278
2.69775
2.67924
2.4831
2.33719
13.8872
14.4809
14.536
14.2672
14.2149
22.4513
21.6943
22.0291
21.1354
21.2808
20.2108
19.8252
17.2517
17.6042
16.478
16.0971
12.7826
12.7438
13.2121
13.462
0.145577
1.07572
1.22284
14.0583
14.0948
14.0948
14.1093
8.28202
2.18754
2.19027
17.8998
17.4762
20.4811
20.7483
20.1954
20.0098
1.53032
1.52631
1.15104
1.18169
0.950889
13.3328
13.4869
19.2349
18.4018
14.1541
14.0542
14.1292
11.4993
13.9095
13.9828
15.3208
15.7763
14.9656
15.402
18.167
17.749
19.0335
19.4708
0.393264
0.154576
0.687403
0.318167
0.516458
15.3626
15.1572
15.6102
15.661
15.8922
10.4067
10.3373
10.3807
10.3006
4.14879
4.4634
2.25448
2.56905
2.41992
9.8652
13.9432
13.99
4.81036
5.51473
5.17804
6.34922
6.72362
16.0089
16.4455
16.1843
17.7306
16.9355
17.2837
19.8128
19.302
19.6024
6.36786
6.60225
5.60753
5.24884
2.23777
2.48739
2.4294
2.98174
2.95981
3.21743
3.34583
2.69821
2.5548
2.89325
2.7767
2.82877
2.16644
2.03661
13.6112
13.3973
14.1502
14.3287
15.096
14.9476
14.6542
14.823
19.0203
19.4237
19.4572
19.0731
11.5444
10.1549
13.7165
13.992
0.302181
0.264692
0.138278
0.380718
0.400828
0.142794
2.01539
1.82683
1.40521
1.68053
14.0559
14.0157
8.52262
8.74225
8.11849
7.86234
16.3139
16.4641
17.0983
16.6981
1.96297
1.67674
1.80657
13.65
13.5224
13.6293
10.9343
10.3678
11.977
12.2468
13.9909
14.0347
14.0307
15.6804
15.9989
19.8216
20.0923
19.9192
20.305
21.3678
21.019
20.6343
14.5385
14.9469
14.7853
16.1276
15.7612
15.9807
15.1886
15.4932
15.3512
10.369
10.4153
10.1188
10.1967
10.2453
10.1923
9.80241
9.67543
14.0766
14.0316
14.0557
7.2517
7.74976
4.86865
4.53987
12.5431
13.2163
12.8918
18.65
17.9724
18.7053
18.3345
17.8845
18.208
10.4261
10.3877
10.4211
14.9164
14.2542
14.6061
2.44091
2.07674
2.23989
8.93822
9.03163
6.97029
7.58686
7.24999
16.3005
16.6409
17.321
16.4328
16.9004
17.4077
17.1858
9.93845
10.0713
9.98815
9.65884
9.5524
9.73451
8.33502
8.94834
3.61241
4.26875
3.96479
9.19962
9.42959
9.27685
18.6295
19.1643
0.765971
1.15347
19.5944
19.318
0.138852
0.241636
14.2527
12.5503
7.26194
17.1967
16.6293
18.9691
3.19201
6.10216
2.81013
3.38051
2.68627
14.6149
14.2489
13.34
0.453009
1.25623
1.70979
2.89545
18.4099
17.7347
18.8509
19.171
19.2253
0.68758
0.912991
0.584201
1.24294
1.03152
1.27649
15.5504
15.6485
4.32289
18.8578
19.1621
19.1799
17.6566
18.6093
17.6668
0.935263
0.642137
0.707196
10.08
12.1209
14.2129
13.7655
13.9625
13.9847
13.7355
14.8688
14.5383
14.5033
14.9881
13.9657
13.8203
7.73376
6.38264
8.06821
7.70857
17.0981
16.6859
16.4928
16.2385
18.0843
17.6104
18.4607
17.8491
18.311
18.5978
2.94315
3.13284
3.0115
2.5201
6.14296
6.60548
5.48775
5.63314
4.259
2.42926
2.52768
2.75359
2.58431
2.93118
2.6789
2.94278
2.57911
2.32347
2.32169
2.93098
2.73896
2.60444
14.5933
14.5318
14.3327
14.3707
14.3531
14.4688
13.5345
13.9392
13.5669
12.398
12.9792
12.5065
0.825346
0.662808
0.52487
1.32374
1.35077
1.11117
0.834856
1.17401
1.2021
0.814738
1.54566
1.44563
3.15492
2.64339
8.8395
7.96722
6.9007
16.7999
17.6017
16.7714
18.0121
18.4291
18.5345
18.1549
17.6467
15.7292
15.7243
15.3844
15.3378
4.77032
3.73093
4.96637
4.53545
10.4772
14.0647
11.842
10.8032
11.0995
13.4236
13.9281
13.5805
13.7174
13.2925
12.8207
13.5126
13.0463
13.1476
12.9267
15.7171
16.1922
15.7987
15.2193
15.2392
10.5982
12.0149
5.4649
5.6389
7.2435
6.53731
13.5091
13.9321
13.9169
13.5553
13.743
13.7442
13.605
13.7792
13.859
13.7536
11.8239
10.1433
9.04456
9.03815
14.0761
12.3455
12.9297
12.4131
16.1198
16.6363
16.251
15.6454
16.1305
15.6023
15.6296
15.8427
17.2009
16.9505
16.7202
17.1071
3.05463
3.00339
3.64692
3.1328
3.03602
2.81898
3.48337
4.7579
4.41564
6.71791
7.26869
4.57964
3.37227
3.79252
4.80759
5.54092
5.51069
3.96906
4.50082
4.92985
4.44032
5.22384
4.7284
2.71778
3.02527
2.86333
2.83711
3.38175
3.88001
3.3756
2.48073
2.59288
2.25717
2.11944
3.53617
2.99623
3.03314
3.67868
1.10615
1.3285
1.44091
2.41404
1.91316
1.97888
15.1819
14.826
14.9596
14.2389
14.3063
14.2474
13.8719
15.2393
14.9614
15.0608
13.7093
13.796
13.6093
13.9046
14.3206
14.6199
15.4517
15.1728
14.4119
14.5629
14.2138
14.1421
13.464
12.9011
12.8405
1.11228
0.824356
0.984058
0.911107
0.606271
0.798683
2.1831
1.57268
1.97058
1.72621
1.95954
1.40392
1.30237
4.25265
5.06364
3.96316
3.36463
3.06152
8.89795
9.00946
8.15813
7.85621
8.19774
8.42636
8.37608
7.13399
7.56096
7.37401
9.91487
9.57916
17.5861
17.5302
17.2014
17.0425
17.2689
5.76191
7.66474
6.79857
7.91471
10.206
10.5016
9.31035
8.70451
9.45579
9.53375
14.0464
14.1225
13.5634
14.0493
14.0778
11.8345
12.8817
13.4966
13.3111
13.8309
13.9118
12.9728
13.5615
13.4768
12.7595
12.8124
12.1272
12.4658
11.9939
11.7929
14.0555
13.9502
14.2199
13.7708
14.1501
13.7143
14.0296
14.0276
14.3082
13.4102
12.8315
12.8499
13.2762
12.9763
13.3222
13.4863
9.30796
9.94803
10.3867
10.9224
10.6297
10.4117
10.279
10.5807
10.5575
10.8288
10.7482
10.5991
11.56
13.4152
13.7003
13.8017
13.5988
13.6449
13.3375
13.6104
13.5397
13.919
14.0069
14.0566
13.1372
13.2933
13.488
13.3718
11.6746
10.0965
9.94865
9.50866
7.57626
8.04596
11.0249
9.90171
8.91691
8.98886
12.168
10.8054
11.6187
12.0419
10.6935
10.3054
12.9706
13.7587
13.9786
13.7028
12.0596
12.1854
12.6351
13.0783
13.2676
13.7233
15.8597
16.4353
16.5132
16.2373
16.0993
16.1991
15.9492
16.0523
16.5264
16.6529
16.4842
2.88014
2.99382
2.92378
2.84914
3.08549
2.86109
3.95624
3.94719
3.15657
3.33681
3.35669
3.46212
2.93123
2.97431
4.82621
5.06183
5.33349
4.83195
6.17515
6.81595
7.39723
7.08288
5.78953
5.8688
6.18403
3.50747
3.53327
3.2516
3.70921
3.76187
2.61175
2.23923
2.04431
2.56562
2.66665
2.05156
1.7687
1.81795
2.33224
2.05115
1.80509
14.9744
14.7327
14.7541
14.5339
14.5885
14.9834
15.2042
15.0143
15.1527
15.2037
14.8028
14.6917
14.8628
1.81874
1.49331
1.62283
1.58106
1.64333
1.54987
1.73809
7.60522
6.41538
6.80284
5.97822
4.12017
4.64109
9.53826
9.95968
9.99816
9.70929
9.49924
9.86502
9.7158
9.70853
8.26286
9.33149
8.86746
9.26017
9.28158
9.34929
9.06398
9.08021
10.5839
10.6174
9.48244
10.122
9.3308
7.9316
8.0986
9.11227
10.0859
10.404
10.2491
9.97924
9.75064
10.1137
10.1684
10.2284
10.2177
8.75124
8.71115
8.31058
13.9681
13.8746
14.0211
14.0263
14.1532
13.9782
13.8152
14.0924
14.1467
13.931
11.0769
11.1358
11.3817
12.1283
12.1804
12.0913
11.336
13.1
12.7557
13.3936
13.3404
13.4128
13.0031
12.8263
13.0966
10.0802
11.4532
10.9861
11.2493
10.0627
9.30624
13.2228
13.277
13.3423
13.6153
13.5733
14.1567
15.8296
15.6995
15.7468
15.7898
15.4015
15.4388
4.17532
3.82921
4.5509
4.50636
4.06447
3.76455
2.28659
1.96871
1.78095
1.65619
1.8894
1.95049
8.16209
8.18911
6.33354
7.35504
5.87579
4.934
4.78939
5.95517
7.13643
7.19528
8.51286
9.18888
8.74805
8.57329
7.91766
8.2472
10.1155
10.2098
10.1103
10.4293
9.96201
11.7117
11.2938
11.6427
13.2567
12.9664
12.3683
12.2548
12.2197
12.8127
11.947
11.1787
11.8912
12.5466
12.5048
11.1174
10.8724
11.2991
11.2831
10.1972
10.7174
10.4793
10.8319
10.5472
)
;

boundaryField
{
    wall-4
    {
        type            zeroGradient;
    }
    velocity-inlet-5
    {
        type            zeroGradient;
    }
    velocity-inlet-6
    {
        type            zeroGradient;
    }
    pressure-outlet-7
    {
        type            fixedValue;
        value           uniform 0;
    }
    wall-8
    {
        type            zeroGradient;
    }
    frontAndBackPlanes
    {
        type            empty;
    }
}


// ************************************************************************* //
