/*--------------------------------*- C++ -*----------------------------------*\
  =========                 |
  \\      /  F ield         | OpenFOAM: The Open Source CFD Toolbox
   \\    /   O peration     | Website:  https://openfoam.org
    \\  /    A nd           | Version:  9
     \\/     M anipulation  |
\*---------------------------------------------------------------------------*/
FoamFile
{
    format      ascii;
    class       volVectorField;
    location    "3.05";
    object      U;
}
// * * * * * * * * * * * * * * * * * * * * * * * * * * * * * * * * * * * * * //

dimensions      [0 1 -1 0 0 0 0];

internalField   nonuniform List<vector> 
918
(
(2.47635 -0.139015 0)
(0.108703 0.722546 0)
(0.182116 1.45004 0)
(2.31834 0.153733 0)
(-0.0674458 1.46231 -1.27278e-19)
(-0.0924035 0.643931 -5.74348e-18)
(0.631863 1.02401 -4.56663e-19)
(0.401841 0.232113 -3.42218e-20)
(3.00616 -0.0194934 0)
(-0.0260415 0.74794 0)
(-0.010654 0.900838 0)
(0.788033 0.0033346 0)
(0.0107066 0.439105 0)
(-0.00302049 0.421906 0)
(0.0230988 0.376914 -1.49545e-18)
(0.00444627 0.901921 -1.27434e-19)
(0.514447 0.124511 2.51393e-18)
(0.0876394 0.903198 -3.53067e-19)
(1.53018 0.127088 0)
(-0.0213484 0.925758 0)
(0.264701 0.21435 -1.44609e-18)
(3.08316 -0.396619 0)
(2.92494 -0.505233 0)
(1.86221 -0.180402 0)
(0.700984 0.0420012 0)
(-0.0247583 0.523657 0)
(-0.00135042 0.494075 2.04027e-18)
(-0.0274084 1.77809 0)
(0.0994904 3.29611 0)
(0.183606 2.2259 0)
(-0.0245713 3.35533 0)
(0.00210506 1.87776 9.78984e-20)
(0.0152418 0.844308 0)
(-0.147421 0.775095 -2.20351e-22)
(-0.193914 1.0291 4.77872e-18)
(-0.0415782 1.04471 0)
(0.844793 -0.00179015 0)
(0.199371 0.300675 7.60649e-19)
(1.15086 1.75804 9.89217e-19)
(0.766088 0.9353 -7.95791e-19)
(0.932822 1.88416 9.85932e-20)
(0.502299 1.05627 -5.0831e-19)
(0.804266 0.453321 3.36568e-20)
(0.445328 0.230544 0)
(1.04219 0.617287 0)
(0.752193 0.446028 1.50695e-19)
(0.371741 0.23638 -1.54638e-19)
(0.889357 -0.0455139 0)
(3.02759 -0.00150605 0)
(3.00673 0.0176202 0)
(3.20055 -0.417351 0)
(3.04317 -0.0742525 0)
(3.03111 -0.0391184 0)
(0.0096095 0.952371 -1.29498e-18)
(-0.0484275 1.44955 0)
(0.00584631 0.727996 0)
(-0.0648625 1.52269 0)
(-0.0258371 0.796273 0)
(0.00232893 0.936822 0)
(-0.0123918 1.65192 0)
(0.00657852 0.889398 0)
(-0.0250706 1.69763 0)
(-0.00822795 0.919046 0)
(0.903037 0.0104651 0)
(1.46943 0.00939768 0)
(0.806331 0.0157725 0)
(1.44967 0.0192606 0)
(0.758697 0.0115939 0)
(0.225404 0.921985 2.12548e-18)
(0.0985361 1.2081 0)
(0.1763 1.06604 0)
(0.0331912 0.755776 2.3921e-23)
(0.0372233 0.498059 -3.17884e-18)
(0.0194623 0.747939 0)
(0.00595503 0.422031 0)
(-0.000826677 0.734663 4.99937e-24)
(0.000670505 0.414853 0)
(-0.0174451 0.743748 0)
(-0.0134094 0.428723 0)
(0.0719798 0.738183 0)
(0.0657748 0.533051 0)
(0.0233571 0.669353 1.41391e-18)
(0.00899157 0.35734 0)
(-0.0134856 4.15094 0)
(0.010616 1.65802 1.26517e-19)
(-0.00842084 0.907542 -1.61553e-19)
(1.0024 0.2288 -8.78218e-19)
(0.517695 0.0941584 -8.52452e-19)
(1.0056 0.274786 -2.62966e-18)
(0.519708 0.158306 -1.68458e-18)
(0.0875406 0.713459 0)
(0.2238 1.7336 3.06607e-19)
(0.233892 0.988209 -4.90485e-19)
(2.06842 0.253668 0)
(1.11291 0.112255 0)
(3.03314 0.103394 0)
(3.10438 0.445551 0)
(2.84072 0.375944 -1.14275e-17)
(2.57861 0.361125 8.76238e-18)
(-0.0263684 1.68328 0)
(0.0109895 0.914053 0)
(-0.0230685 2.42455 0)
(-0.0532456 1.76796 0)
(-0.0484546 0.898621 0)
(0.579852 0.415833 4.57895e-19)
(0.305428 0.230548 0)
(2.29878 -0.265107 0)
(1.32499 -0.117824 0)
(1.39891 0.0149441 0)
(1.33415 0.030627 0)
(0.734726 0.0107543 0)
(1.10653 0.0473812 0)
(1.11757 0.0801849 0)
(0.490402 0.0339957 3.93947e-18)
(-0.00611275 0.449438 1.99004e-18)
(-0.0285951 0.786772 0)
(-0.0529055 0.855003 0)
(-0.0164612 0.463791 0)
(0.000125723 0.839766 1.99759e-18)
(5.38173e-05 0.487557 0)
(-0.00546828 0.845592 -6.1323e-18)
(-0.00488039 0.496788 2.06644e-18)
(0.074685 3.83815 0)
(0.0757743 4.03026 0)
(-0.00105044 1.65392 -3.06452e-21)
(-0.0128086 1.61381 0)
(-0.00647745 0.88923 0)
(1.57392 0.0279776 0)
(0.866584 0.016485 0)
(0.826301 0.00723185 0)
(1.56329 -0.00887461 0)
(0.839342 0.00606545 0)
(0.396258 0.584427 -9.55186e-19)
(0.190958 0.283164 0)
(0.403492 0.626616 1.07162e-19)
(0.203072 0.331413 0)
(1.38659 1.61182 2.5534e-19)
(0.870615 0.848741 -5.84942e-19)
(0.489681 1.83236 0)
(0.715235 1.9019 0)
(0.371573 1.04719 0)
(0.185484 0.445331 -5.06561e-19)
(0.884698 0.420667 0)
(0.475652 0.212066 4.5931e-19)
(1.55644 1.46909 0)
(1.70556 1.26949 0)
(0.955194 0.736352 6.59441e-19)
(1.84224 1.01806 0)
(1.14165 0.478027 2.35278e-20)
(1.56832 0.0311932 0)
(1.55049 -0.00876713 0)
(0.839226 0.00840249 0)
(1.95664 -0.195645 0)
(1.67231 -0.131832 0)
(1.05632 -0.0838142 0)
(3.06128 0.164046 0)
(3.03072 0.0681407 0)
(3.01019 0.0526482 0)
(0.000936538 1.68867 6.84351e-19)
(0.003285 0.916571 0)
(0.016197 1.75902 1.23308e-18)
(0.00509738 0.977261 -1.12367e-18)
(0.0550317 1.61367 2.97843e-19)
(0.0234474 1.472 0)
(0.0312534 0.793815 0)
(-0.0516218 1.59666 0)
(-0.0165826 0.858908 0)
(0.00307069 1.70283 -5.48525e-21)
(-0.0163321 0.938885 0)
(-0.0261303 1.70449 -2.93386e-19)
(-0.0144121 0.915762 5.66629e-19)
(-0.0146841 1.64198 0)
(0.0216257 1.64484 0)
(-0.00117633 0.88823 0)
(-0.00790423 1.71164 0)
(-0.00170692 0.928029 0)
(1.66911 0.0111405 0)
(0.915764 0.00365384 0)
(1.6265 0.011785 0)
(0.890761 -0.00487089 0)
(0.829161 -0.00315201 0)
(1.54414 0.000555114 0)
(1.50852 0.0392083 0)
(0.832059 0.0072646 0)
(-0.00578662 1.42076 -1.86651e-20)
(0.000195705 1.37706 0)
(0.00482216 0.732914 0)
(0.00172972 0.417214 0)
(0.35478 0.986225 0)
(0.312179 0.485524 -3.25469e-19)
(0.00926857 0.647295 0)
(-0.00563506 0.367343 0)
(0.044874 4.09197 0)
(0.00336812 4.12599 0)
(0.0257039 4.13575 0)
(-0.0556889 3.47811 3.26348e-20)
(-0.00238067 4.11612 0)
(-0.0263526 3.94075 0)
(0.0113611 0.913918 1.43095e-20)
(0.0220301 1.71593 2.10528e-19)
(-0.0229517 1.68536 1.65915e-19)
(0.000129568 0.928109 0)
(1.00941 0.152497 1.35458e-18)
(0.506164 0.0604231 -1.32584e-18)
(0.168846 1.30145 0)
(0.115514 0.667101 -3.04718e-19)
(0.135353 1.40349 -9.92171e-19)
(0.0597342 0.790528 9.8718e-19)
(0.855169 0.00725774 0)
(1.62116 0.0205839 0)
(1.73567 0.113351 0)
(0.938657 0.0330204 0)
(0.00638202 1.71023 0)
(0.0365936 1.68635 0)
(0.00712018 0.931753 0)
(0.682832 0.452888 1.37188e-18)
(0.605624 0.444237 -1.57838e-18)
(0.33341 0.237599 0)
(2.04911 0.150235 1.40842e-19)
(1.21097 0.0869961 0)
(1.85479 0.0840493 0)
(0.998291 0.0138496 0)
(0.991568 0.104899 0)
(0.981375 0.0626591 -6.33505e-18)
(0.499697 0.0391383 2.3434e-18)
(0.00779181 0.805209 1.89029e-18)
(0.00179027 0.461799 4.07678e-20)
(-0.0108626 1.40841 -3.91103e-20)
(0.00614413 1.38674 1.48917e-18)
(-0.0149725 0.848979 6.8763e-20)
(-0.0119217 0.524501 -2.75803e-22)
(-0.107505 1.00069 -1.26578e-18)
(-0.0529517 1.35319 9.06234e-19)
(-0.0175249 1.35275 -1.48033e-18)
(1.62623 -0.00929101 0)
(1.62685 0.0265825 0)
(0.884575 0.00513029 0)
(1.57012 -0.00260192 0)
(1.53717 0.0209485 0)
(0.840695 0.00401076 0)
(1.54888 -0.0140534 0)
(1.52523 -0.00992179 0)
(0.82898 -0.00772691 0)
(0.371094 0.577892 -1.04191e-18)
(0.196986 0.296121 0)
(0.193327 0.379905 1.5682e-19)
(0.377234 0.721495 1.284e-18)
(0.382594 0.677847 -7.60843e-19)
(0.194924 0.351721 1.48808e-18)
(0.344123 0.896257 2.49455e-18)
(0.182132 0.478775 4.50284e-19)
(0.983017 0.3413 1.78388e-18)
(0.933349 0.396672 4.60412e-19)
(0.50463 0.19106 8.65923e-19)
(2.00636 0.783092 -8.07126e-19)
(1.21616 0.352047 -9.17144e-19)
(-0.0190685 1.77589 5.41024e-19)
(-0.00869397 0.97591 0)
(1.77968 0.0349606 0)
(1.69548 0.0365476 0)
(0.954358 0.022268 0)
(-0.00355378 1.3847 0)
(0.00504914 0.729572 2.74778e-18)
(0.0046494 0.731236 0)
(0.00206582 0.415091 -2.68945e-18)
(-0.0103187 1.38625 6.57638e-19)
(-0.00948659 1.42249 0)
(0.410657 0.595563 2.93036e-19)
(0.439445 0.669123 -9.79301e-19)
(0.209678 0.315668 8.85764e-19)
(-0.0268093 0.762975 -1.86518e-18)
(-0.0246063 0.686719 0)
(-0.0152619 0.409578 0)
(0.00507295 1.66314 -2.02277e-20)
(0.0331942 1.70508 -4.66022e-19)
(0.0124625 0.909702 -1.88786e-20)
(0.237222 1.21077 1.0081e-18)
(0.135031 0.607777 -6.70932e-19)
(-0.00183299 1.62683 8.28392e-19)
(0.0564676 1.52404 -9.25076e-19)
(0.0212098 0.86253 4.05116e-20)
(0.00665338 1.36601 -4.23222e-18)
(-0.000922682 1.39331 4.90111e-18)
(0.00367927 0.829752 1.9191e-18)
(-0.0142986 0.804673 -1.92108e-18)
(-0.00441967 0.481291 -1.92534e-18)
(-0.0108001 1.4168 -4.97705e-18)
(-0.0154567 1.40025 5.07684e-18)
(0.36257 0.83482 0)
(0.36913 0.77717 -2.61952e-18)
(0.190707 0.410148 1.13465e-18)
(0.341399 0.978321 1.35102e-18)
(0.171287 0.530523 -2.08532e-18)
(2.13967 0.32893 5.18777e-19)
(2.13434 0.570131 0)
(1.282 0.231944 -5.06702e-19)
(-0.0468902 1.72819 -6.05946e-21)
(-0.0175785 1.75966 0)
(-0.0105537 0.97057 0)
(0.256349 1.12487 -3.66475e-19)
(0.298089 1.05639 -8.04304e-19)
(0.152217 0.570476 1.50839e-18)
(3.16678 -0.441819 0)
(3.34677 -0.413039 2.057e-18)
(0.0883986 3.73296 0)
(0.0473115 3.38046 0)
(3.15936 0.247361 1.3683e-20)
(3.12482 0.504768 4.20142e-18)
(0.0273841 3.4996 -4.37678e-20)
(0.0137481 2.95901 0)
(-0.0335882 1.19783 1.75877e-18)
(0.264423 1.47471 0)
(3.4459 1.63421 -4.26301e-19)
(3.19168 0.250858 -2.90909e-20)
(3.14653 -0.0866328 0)
(3.09989 -0.00254297 1.32073e-22)
(0.0181212 3.2461 0)
(0.099279 3.25883 0)
(-0.0338988 3.25421 0)
(-0.00694331 3.37291 3.88e-19)
(-0.00171082 3.44461 2.4204e-19)
(2.95298 0.0290239 -1.52301e-20)
(3.18443 0.0362077 0)
(3.27695 0.0705831 0)
(0.00676583 4.11376 0)
(0.00310029 3.21081 0)
(-0.0234551 3.41425 0)
(0.701047 3.57537 4.04274e-19)
(3.33779 -0.419089 0)
(3.01494 -0.342596 0)
(3.16964 -0.054756 2.58787e-18)
(3.29165 -0.32611 -3.11139e-18)
(3.10355 -0.125556 0)
(0.0044351 4.08594 0)
(0.0366725 3.95002 0)
(0.0433087 4.05141 0)
(0.00248105 3.56879 0)
(-0.0150208 3.36447 0)
(-0.0253195 3.10162 0)
(3.07825 0.0292028 0)
(3.02405 -0.00549524 -1.82956e-20)
(2.30433 3.1766 -4.85347e-19)
(3.15571 0.0425794 -2.58844e-18)
(3.18988 0.27628 3.13672e-18)
(3.08236 0.116639 0)
(3.40053 0.306351 2.39309e-18)
(3.35993 0.478975 -3.07376e-18)
(3.07891 0.41282 0)
(-0.0139363 3.43453 0)
(0.0247998 3.38882 1.21047e-19)
(-0.00661035 2.89694 -8.79166e-20)
(3.68252 0.518103 2.8085e-18)
(3.49432 0.166743 0)
(-0.130798 1.27594 -2.44618e-18)
(-0.0318656 0.878693 -1.52936e-19)
(-0.0353249 1.3638 3.38232e-18)
(-0.00638316 1.28643 -1.01615e-18)
(0.0278425 1.11173 0)
(-0.028104 1.23554 7.8273e-19)
(-0.107572 1.38826 2.42338e-18)
(-0.0526305 1.34001 -1.48009e-18)
(-0.0813132 1.32066 0)
(1.76497 0.824107 0)
(1.58658 0.933239 0)
(3.46325 2.03032 1.26556e-18)
(3.12095 2.01091 -1.59693e-18)
(3.67249 1.66131 0)
(3.45266 1.18946 0)
(3.36246 0.237767 -4.51069e-18)
(2.94827 0.132438 5.58951e-18)
(3.33648 -0.093119 0)
(2.92162 -0.0256771 0)
(3.43197 0.0304949 0)
(3.591 0.126038 0)
(3.28579 0.109732 0)
(3.55011 0.274479 0)
(3.41117 0.286318 0)
(3.32696 0.208364 0)
(0.0133056 3.4716 0)
(-0.035528 2.94051 0)
(0.0759279 3.6331 0)
(0.10418 2.98511 0)
(0.145335 3.45956 0)
(0.0946103 2.79799 -6.3426e-19)
(0.0326002 3.49349 0)
(0.0111339 3.06659 4.66273e-19)
(-0.0189253 3.1806 -6.222e-19)
(-0.0113564 3.50593 0)
(-0.014517 3.04893 0)
(-0.0465 3.55444 0)
(-0.0209955 2.90461 0)
(-0.0571726 4.14395 -3.15877e-19)
(-0.020005 3.68762 3.43924e-19)
(-0.035445 3.61101 4.03286e-19)
(-0.0293051 3.08436 0)
(-0.0422028 3.63951 -5.7545e-19)
(-0.00444243 3.21915 -3.6188e-19)
(-0.0286798 4.15357 2.49151e-19)
(-0.0322547 3.98527 -4.35757e-19)
(-0.0254374 3.90604 -4.95437e-19)
(3.26178 0.0419057 3.9433e-18)
(2.68515 0.0199468 -4.97834e-18)
(3.17614 0.0808092 -3.8905e-18)
(2.68939 0.0495384 4.8508e-18)
(3.39606 0.0439065 0)
(2.8805 0.0059087 0)
(3.46141 0.0810524 0)
(3.39357 0.0305156 0)
(2.97469 0.0198019 0)
(3.62481 0.190644 0)
(3.48566 0.0860147 0)
(3.09945 0.0589872 0)
(0.0278979 4.02194 -1.41619e-20)
(0.00555617 4.12158 0)
(0.00512611 4.08954 0)
(-0.0042938 3.51914 1.16288e-19)
(-0.0111703 2.95634 -4.69258e-21)
(0.00329412 4.13784 1.35029e-19)
(-0.0139647 4.08076 -1.36175e-19)
(-0.0134374 3.94942 0)
(-0.00485577 3.92536 0)
(-0.000218263 3.95762 0)
(-0.0164796 3.67808 0)
(-0.00190465 3.00757 0)
(0.930224 3.96628 -9.06115e-19)
(1.04872 3.39021 -2.79177e-19)
(0.462014 2.29544 -2.58379e-19)
(0.271022 2.52366 7.9268e-19)
(0.81665 3.85548 3.11593e-19)
(3.41361 -0.140508 0)
(3.31467 -0.248512 0)
(2.89082 -0.176092 0)
(3.46626 -0.0802371 0)
(3.34343 -0.156966 0)
(3.44335 -0.266273 0)
(3.51249 -0.289748 0)
(3.56344 -0.274899 0)
(3.31102 0.00617413 4.23045e-18)
(2.73848 0.0160935 -5.34679e-18)
(3.24269 0.0321179 -4.16583e-18)
(2.81153 0.0114 5.18898e-18)
(2.19139 3.50633 0)
(1.86811 3.26431 -6.6351e-19)
(2.49415 3.33644 -5.91943e-19)
(2.50255 2.73126 7.88375e-19)
(0.939615 1.46742 3.11142e-18)
(1.98247 0.230534 1.56854e-18)
(3.68163 0.263099 0)
(3.82445 0.521298 -2.27621e-18)
(3.42564 0.232356 -1.00137e-19)
(3.58856 0.373972 0)
(0.432212 1.41108 2.04365e-18)
(0.0856763 1.251 -3.26428e-18)
(0.176052 0.812804 1.84122e-18)
(0.426185 0.565532 -8.48676e-19)
(0.279032 1.52943 9.9198e-19)
(0.114161 1.30198 0)
(0.100634 1.17373 -1.28912e-18)
(0.338448 1.55374 -4.65544e-18)
(0.494467 1.7217 0)
(0.00659963 1.28868 1.33596e-19)
(-0.0116266 1.45718 -1.49453e-18)
(-0.0433211 1.30405 2.17271e-18)
(-0.0614369 1.41776 0)
(-0.023748 1.38026 0)
(0.826218 1.27633 0)
(2.36395 2.45517 -1.19394e-18)
(2.76809 2.32925 5.49964e-19)
(2.76732 2.9103 0)
(2.96186 2.97607 -4.99463e-19)
(3.1402 2.4425 2.80414e-20)
(1.09921 0.832184 -2.06634e-18)
(2.05669 0.922632 -2.14407e-20)
(1.70967 0.669816 1.00018e-18)
(1.70015 1.12242 6.78324e-20)
(1.31201 0.884687 -2.69869e-18)
(1.93997 0.978293 0)
(2.37734 1.34334 1.65821e-18)
(2.4162 1.24615 0)
(1.8571 1.06417 0)
(1.49511 0.792793 0)
(3.02643 2.01889 1.17015e-18)
(3.84602 0.727557 -2.29956e-18)
(3.76404 1.17944 0)
(3.60578 0.760549 0)
(1.94563 0.510062 1.55047e-18)
(3.00933 1.78334 -9.64873e-19)
(2.82898 1.69156 1.75912e-18)
(3.4095 1.27622 -2.13488e-18)
(3.17203 0.0334551 2.87554e-18)
(3.20467 0.11446 -2.98147e-18)
(2.77268 0.0416449 0)
(3.33007 0.0198829 0)
(3.22449 -0.0148645 -2.77034e-18)
(2.77953 0.00639719 2.74656e-18)
(3.80759 0.0338504 0)
(3.71607 0.0267424 0)
(3.67935 0.121559 0)
(3.59105 0.157143 0)
(3.78584 0.0325805 0)
(3.70885 0.0250716 0)
(-0.0564779 3.30368 0)
(-0.0593142 2.8624 0)
(0.222911 4.10461 -5.72406e-19)
(0.616437 3.78869 -2.43401e-19)
(0.250135 3.62135 -5.43702e-19)
(0.352787 3.25467 8.70568e-19)
(0.334649 4.07815 0)
(0.303692 4.22995 -6.66919e-19)
(0.225088 4.25555 0)
(0.707622 3.94417 -4.48727e-19)
(0.518356 3.59008 1.1162e-18)
(0.402612 4.26613 5.85296e-19)
(0.594962 4.13353 -2.81645e-19)
(0.431769 4.21514 2.26439e-19)
(0.725347 4.29214 -8.68747e-19)
(0.577469 4.1987 0)
(0.655415 4.17797 6.54612e-19)
(-0.0184753 4.06449 -2.28667e-19)
(-0.0139925 3.48775 0)
(0.0434388 3.90099 6.57978e-19)
(-0.0237754 3.96468 0)
(-0.00917967 3.38287 -5.18686e-19)
(-0.0135512 2.97625 0)
(-0.0443914 4.10532 -3.94421e-19)
(-0.0483434 4.14737 0)
(-0.0407817 3.9587 0)
(-0.0425455 4.00414 4.45e-19)
(-0.0149954 3.64321 1.85413e-20)
(-0.0240828 3.53686 7.56888e-19)
(-0.0310296 3.00774 5.12918e-21)
(-0.0329969 4.13182 2.27069e-19)
(-0.0356373 4.15376 1.33139e-19)
(0.00478902 3.36738 0)
(-0.00181529 2.94769 0)
(-0.0459499 4.16531 6.26684e-19)
(-0.0663794 4.09867 5.92386e-19)
(-0.0591666 4.14439 -7.57126e-19)
(-0.035383 4.18592 0)
(-0.000823323 4.06404 -4.19233e-19)
(-0.0207862 3.92408 1.81073e-19)
(-0.0164928 3.92665 -5.51983e-20)
(0.0106572 4.15035 -2.75761e-19)
(0.00130503 3.92398 -8.99094e-20)
(-0.0195262 3.8791 3.99331e-19)
(3.11327 0.0197003 -2.77189e-18)
(3.11111 0.0144917 2.67721e-18)
(2.69382 0.00952827 0)
(3.52491 0.138265 3.55346e-18)
(3.08014 0.107611 -3.86572e-18)
(2.67802 0.0535362 4.22872e-18)
(3.61857 0.236895 -4.70704e-19)
(3.28108 -0.00693699 0)
(3.25546 0.0125802 2.638e-18)
(2.89556 0.00770809 -2.6154e-18)
(3.69913 0.103897 -1.49423e-19)
(3.62462 0.0876815 1.28504e-18)
(3.8002 0.129632 0)
(3.82712 0.125825 -4.44165e-19)
(3.76779 0.0852678 0)
(3.66336 0.0755532 0)
(3.83822 0.0212721 0)
(3.6421 0.0111078 0)
(3.82474 0.0747774 9.28958e-19)
(3.82556 0.0378264 -2.06368e-18)
(3.80155 0.0873617 -1.00926e-18)
(3.81465 0.0855429 -1.09163e-18)
(3.8279 0.164484 2.10307e-18)
(3.68695 0.142147 0)
(3.79477 0.235712 0)
(0.00970853 4.10091 -1.7336e-19)
(0.0277684 4.12036 -1.53241e-20)
(0.0104327 4.12374 0)
(0.0050628 3.90402 1.75024e-19)
(-0.00312651 3.94189 2.81251e-20)
(-0.00264801 3.87559 -2.92938e-20)
(-0.0302096 3.46595 3.19473e-19)
(-0.0480151 3.81504 -1.88883e-20)
(-0.0115438 3.84904 9.27915e-20)
(-0.0176873 3.40633 -1.65761e-19)
(0.00023334 3.03351 1.99275e-19)
(-5.1051e-05 4.12283 5.81914e-21)
(0.00635071 4.13685 2.05414e-19)
(1.0542 4.23752 5.09719e-19)
(0.946449 4.21339 9.32129e-19)
(1.75546 3.67389 6.41964e-19)
(1.32852 3.83711 2.68395e-19)
(1.43828 3.33801 0)
(0.572663 2.54993 3.12441e-19)
(0.497771 1.9978 3.75408e-19)
(0.359008 2.75719 1.48828e-20)
(0.474551 3.25085 -1.34036e-18)
(0.60286 3.19447 9.98348e-19)
(0.446074 2.61325 0)
(0.320602 2.21923 -6.31267e-19)
(0.189074 3.09983 1.58142e-18)
(0.237454 2.85807 -3.53396e-20)
(0.142841 2.49877 -1.98232e-18)
(0.7289 1.69201 1.67148e-18)
(0.671472 1.90599 0)
(3.57685 -0.0859205 9.917e-20)
(3.60222 -0.250624 -8.32946e-20)
(3.68896 -0.194926 -1.45976e-18)
(3.72568 -0.116869 1.47783e-18)
(3.65677 -0.0622217 0)
(2.19203 3.705 0)
(2.33057 3.60802 0)
(2.64202 3.43283 0)
(2.41012 3.40519 0)
(1.02091 1.67543 -8.20257e-21)
(0.75638 1.27333 0)
(1.67244 3.34582 1.71971e-20)
(1.34407 3.37492 0)
(1.36456 3.07984 -1.46015e-18)
(1.4384 3.00032 9.37063e-19)
(2.32511 0.359484 0)
(1.9645 0.323083 4.12147e-19)
(2.87365 0.34063 2.5708e-18)
(2.32598 0.266755 -9.2376e-19)
(1.89534 0.124772 -2.9102e-18)
(3.84709 0.652016 -3.08852e-18)
(3.51558 0.880728 -2.7388e-20)
(3.28395 0.786161 2.36839e-18)
(3.58328 0.640709 2.11076e-18)
(3.27543 0.426101 -3.53655e-18)
(3.13646 0.447607 4.32662e-19)
(3.30939 0.658388 -9.54188e-19)
(3.19249 0.606104 0)
(3.60933 0.465397 1.78181e-18)
(3.72424 0.527972 0)
(3.71005 0.630725 0)
(3.78114 0.333818 9.85565e-19)
(3.82541 0.531502 -2.67755e-20)
(3.84034 0.601706 -5.36826e-19)
(3.86632 0.545748 0)
(3.57973 0.0814753 2.02526e-18)
(3.82156 0.111459 2.53762e-18)
(3.80605 0.0928546 -1.97929e-18)
(3.79822 0.162019 -1.7069e-18)
(3.6307 0.149927 -2.51518e-18)
(3.44971 0.326486 0)
(3.46941 0.245345 0)
(2.98457 0.184435 -1.48493e-18)
(2.57133 0.119304 5.57762e-19)
(3.74931 0.269677 2.29113e-18)
(3.8453 0.334409 -2.78629e-18)
(3.82734 0.387909 2.44947e-18)
(3.75851 0.399666 0)
(3.83593 0.263829 0)
(3.8246 0.231329 -1.17106e-18)
(3.80776 0.228533 -1.88744e-18)
(2.02277 3.29407 7.2541e-19)
(1.869 3.19469 -7.77545e-19)
(1.59437 2.63454 -1.17701e-18)
(1.39402 2.33911 3.0295e-19)
(1.06627 1.6635 -3.0005e-18)
(0.957753 1.47094 1.05026e-18)
(0.730774 1.10205 -2.73233e-21)
(1.31466 2.1098 -1.29784e-18)
(1.34376 2.22041 1.93847e-18)
(1.1666 2.02414 5.75093e-19)
(0.950451 1.55781 -5.82709e-19)
(0.773576 1.30482 0)
(2.33875 2.58257 -1.31034e-19)
(1.0211 1.37052 9.72422e-19)
(1.24534 1.18407 1.31184e-18)
(1.0493 1.04965 1.52079e-18)
(1.46184 1.03411 1.5276e-18)
(1.84531 1.35539 -2.57013e-18)
(1.75437 1.39027 2.08415e-18)
(1.35026 1.05201 -7.68922e-19)
(1.12561 0.80528 1.70117e-18)
(2.16898 0.677801 -9.05874e-19)
(2.0701 0.750946 0)
(1.76688 0.599633 4.47416e-21)
(2.6265 1.65755 8.79967e-19)
(2.40706 1.50813 -3.18939e-18)
(2.0513 1.47911 1.56803e-20)
(2.05187 1.36788 0)
(2.61672 2.45947 9.9093e-19)
(3.0492 2.50688 1.23413e-18)
(2.89847 2.69982 -1.41883e-18)
(3.17316 2.54571 -5.19482e-19)
(3.26359 2.5393 -1.74144e-19)
(3.23806 2.66222 1.78953e-19)
(3.23901 2.07401 -1.95123e-18)
(3.3156 2.29507 4.85226e-19)
(3.46021 2.28282 0)
(3.48904 2.10985 -7.11584e-19)
(3.62493 0.930876 6.95577e-19)
(3.90659 0.889646 1.24112e-18)
(3.85305 0.817129 1.22503e-18)
(3.57896 1.16948 -1.36071e-18)
(3.7542 1.24371 0)
(3.82888 1.14056 0)
(3.23837 1.18426 -1.52594e-20)
(2.76747 0.812037 0)
(2.96496 0.810167 1.0708e-18)
(3.2426 0.85425 -2.86728e-20)
(3.40047 1.40604 5.95993e-18)
(3.21233 1.63868 1.52625e-18)
(3.18434 1.46899 -1.53473e-18)
(3.0086 1.40075 1.64196e-18)
(2.85501 1.46178 9.32353e-19)
(2.63413 1.34481 -9.03045e-19)
(3.60004 -0.00760057 2.32955e-18)
(3.80183 -0.00378561 0)
(3.78502 -0.0333178 1.5611e-18)
(3.66856 0.00317663 -3.49785e-18)
(3.84443 0.0171318 1.6848e-18)
(3.81051 0.0364387 -3.58561e-18)
(3.69589 0.0354102 0)
(3.56382 0.0696523 -7.32056e-19)
(3.77265 0.0616283 1.85319e-18)
(3.67516 0.116233 -9.52516e-19)
(3.58851 0.0878345 6.88066e-19)
(-0.0538652 3.33524 0)
(-0.0287618 3.82848 0)
(-0.0456435 3.26145 0)
(-0.0291737 2.84257 0)
(-0.0104442 4.00571 9.93394e-19)
(0.0342288 3.95617 -2.86141e-19)
(0.157414 4.2287 -3.06466e-19)
(0.124758 4.21412 3.21686e-19)
(-0.062172 4.09979 -6.93838e-19)
(-0.0341467 4.10295 5.2192e-19)
(-0.00236778 4.0033 8.23953e-22)
(-0.0419087 3.86634 -6.37934e-19)
(-0.0293097 3.76829 -8.76044e-20)
(-0.0433933 3.91394 -8.05163e-20)
(0.0874292 4.0162 -7.03422e-19)
(0.108266 3.90037 0)
(0.178219 4.1266 3.46246e-19)
(0.16748 4.20157 3.0789e-19)
(0.429074 4.00347 -2.72467e-19)
(0.29847 3.59579 0)
(0.349281 3.4706 -1.26129e-18)
(0.434608 3.72298 8.93606e-19)
(0.348371 4.08102 -7.32392e-19)
(0.252625 3.98844 3.95385e-19)
(0.206768 3.82598 0)
(-0.0343931 4.13466 -7.10099e-19)
(-0.0396959 4.02756 -7.97634e-19)
(-0.0580724 4.11694 0)
(-0.0245589 3.9441 -6.26032e-21)
(-0.0262075 4.09914 3.48477e-19)
(-0.0477972 3.98107 5.82843e-20)
(0.00734371 3.83485 -8.82356e-19)
(-0.0384523 4.00153 2.41801e-19)
(-0.0692219 4.14066 3.09382e-19)
(-0.0368449 4.1303 0)
(-0.0158243 4.02833 0)
(-0.0249769 3.45462 2.5865e-19)
(0.0121511 3.92039 -7.95846e-20)
(-0.00208741 3.90535 0)
(-0.013555 3.36512 2.10147e-19)
(-0.00374485 2.9283 -4.02834e-19)
(3.63169 0.0557578 0)
(3.62212 0.035514 -2.40528e-19)
(3.84438 0.0442251 -1.69425e-18)
(3.79319 0.0462286 0)
(3.71556 0.0401859 0)
(3.85221 0.0167209 -1.13598e-20)
(3.83863 0.0132373 2.79058e-18)
(3.77635 0.0261265 3.31919e-18)
(3.67488 0.0291438 0)
(3.55431 0.0360186 0)
(3.77297 0.0264631 1.66261e-18)
(3.63658 0.0528416 0)
(3.5248 0.0635938 0)
(0.0096606 4.11102 0)
(-0.000960714 4.11908 1.29135e-20)
(0.00338134 4.12128 9.02935e-20)
(0.0109858 3.9846 0)
(0.0114698 4.11703 1.4085e-19)
(0.0175444 4.09033 -7.47637e-20)
(0.00239454 4.04301 0)
(1.16987 3.79446 0)
(0.988218 4.08989 -1.63562e-18)
(0.969742 3.96264 0)
(1.3228 4.09744 1.90487e-18)
(1.44355 4.11867 0)
(1.34249 4.17596 -8.00922e-19)
(1.15309 2.52036 -3.89212e-20)
(0.866268 1.93316 -1.99246e-18)
(0.717572 1.47152 2.4337e-18)
(0.806885 2.13062 4.52699e-19)
(1.04573 2.67332 0)
(1.12606 2.62434 0)
(0.832015 1.98772 0)
(0.636606 1.61562 -1.59316e-18)
(1.09502 3.57935 -1.12295e-18)
(1.12451 3.09212 -2.67494e-19)
(1.2676 3.35332 2.18768e-19)
(0.630365 2.30368 0)
(0.69305 2.22907 0)
(0.532039 1.85843 -4.47374e-19)
(0.97213 2.8965 0)
(2.33339 3.26864 0)
(2.22773 2.91371 -1.66634e-18)
(2.32261 2.86821 -9.93633e-20)
(2.18253 3.20574 0)
(2.15189 3.05325 2.54174e-18)
(2.90403 2.82627 -4.72383e-19)
(2.84657 3.11728 0)
(2.85874 2.98563 7.84249e-19)
(2.51869 3.14749 0)
(2.51772 2.94456 0)
(1.38196 2.31976 -1.06256e-18)
(1.5709 2.69855 -7.98631e-19)
(1.76297 3.06114 1.3794e-18)
(1.71249 3.07329 -4.1408e-19)
(1.2274 2.13322 0)
(1.33635 2.48225 5.3642e-19)
(0.868035 1.55354 -8.21329e-19)
(0.707494 1.27397 5.36129e-23)
(1.7564 3.4693 0)
(1.94172 3.45263 -6.34289e-19)
(2.03257 3.59352 0)
(2.72021 0.559936 0)
(2.17171 0.427236 0)
(1.7689 0.383189 0)
(2.68251 0.636273 -1.68551e-18)
(2.20042 0.53321 9.47979e-19)
(2.63828 0.1229 -1.15152e-18)
(3.00671 0.266744 0)
(2.87934 0.27687 4.81393e-19)
(2.26099 0.142288 1.90784e-18)
(1.99788 0.0841963 -1.21005e-18)
(0.906958 1.84967 9.75408e-19)
(1.1551 2.1427 0)
(0.668779 1.70091 1.77139e-18)
(0.68098 1.84807 -1.61755e-18)
(0.970477 2.0879 -1.12979e-18)
(2.07429 2.5571 1.49671e-18)
(2.07884 2.75996 0)
(1.84562 1.95816 -3.10777e-19)
(2.15161 2.17279 1.95395e-18)
(1.69786 1.62081 -4.7886e-19)
(1.91817 1.61796 5.05879e-19)
(2.33971 1.72173 1.15117e-18)
(2.57919 1.80551 0)
(2.38908 1.99906 0)
(2.24027 1.83435 0)
(3.54642 1.93519 5.01489e-19)
(3.3439 1.73309 -1.47156e-18)
(3.38004 1.87443 1.25722e-18)
(3.48057 1.63158 -1.18623e-18)
(3.76596 1.55794 0)
(3.76308 1.73899 -3.64586e-19)
(2.96535 1.24677 -2.17673e-18)
(3.03526 1.18507 -2.77401e-18)
(2.67476 1.22338 1.67133e-18)
(2.55865 1.12923 -1.62993e-18)
(2.8091 0.978327 -1.34505e-18)
(2.58995 0.965114 1.65421e-18)
(3.84451 0.0249898 -1.77159e-18)
(3.85713 0.0268849 3.66939e-18)
(3.66438 0.00772732 2.22329e-18)
(3.67753 0.00537537 -2.67365e-18)
(3.75466 0.0428251 0)
(3.81492 0.0322505 -4.37853e-18)
(0.0331965 4.18274 1.36193e-19)
(-0.0103994 4.19097 0)
(0.0937976 4.18701 1.20195e-18)
(0.106084 4.21346 -1.09543e-18)
(0.0935516 4.23027 5.68583e-19)
(0.0194382 4.20568 0)
(-0.00645434 4.15851 0)
(-0.0100696 4.10453 -8.13298e-20)
(-0.0124769 4.09076 7.29187e-20)
(-0.00183043 4.1056 1.1126e-20)
(-0.0089169 4.1249 -1.30945e-19)
(0.000833653 4.11729 7.23377e-20)
(1.61944 3.64941 -1.93219e-18)
(1.55136 3.65946 2.04058e-18)
(1.41735 4.00261 -1.08957e-18)
(1.42847 3.83551 8.9797e-20)
(1.98192 3.851 0)
(1.66836 4.06094 -8.83817e-19)
(1.80548 3.91986 8.56773e-19)
(1.54963 4.05346 1.06389e-18)
(1.76485 3.83909 0)
(1.92996 3.77638 0)
(1.03631 3.4853 1.70765e-18)
(0.825615 2.96065 2.29034e-18)
(0.940382 3.10578 -1.57082e-18)
(0.739828 3.11197 -2.6393e-19)
(0.808573 3.59043 5.35057e-19)
(0.678523 3.37234 -1.296e-18)
(0.888185 1.7302 -1.38782e-18)
(0.873263 1.57684 0)
(0.717727 1.34392 -1.52772e-18)
(1.24532 2.34481 0)
(1.23409 2.4229 0)
(1.56487 2.45161 -1.23748e-18)
(1.27186 2.33439 -1.17776e-18)
(1.22474 2.33569 1.24828e-18)
(1.34467 1.80874 0)
(1.69873 2.05278 -6.75759e-19)
(1.81169 2.36378 -9.54386e-19)
(1.61797 2.33786 0)
(1.11075 2.07832 8.13739e-19)
(1.03351 1.90894 0)
(2.69116 2.21857 -2.10274e-18)
(2.93288 2.28101 2.9953e-18)
(2.95396 2.07275 -2.97068e-18)
(2.58844 2.062 -2.6148e-19)
(2.68281 1.97553 -1.10498e-18)
(1.46441 2.49949 9.05321e-19)
(1.51533 2.56253 -1.54555e-18)
(1.63667 2.5909 2.03054e-18)
(1.86557 2.72108 -1.31942e-18)
(1.89329 3.01821 -1.78494e-18)
(1.6977 2.73821 -1.35615e-19)
(1.74475 2.84783 1.56032e-18)
(1.8756 2.85087 1.09731e-19)
(1.97415 3.01048 7.40237e-19)
)
;

boundaryField
{
    wall-4
    {
        type            noSlip;
    }
    velocity-inlet-5
    {
        type            fixedValue;
        value           uniform (3 0 0);
    }
    velocity-inlet-6
    {
        type            fixedValue;
        value           uniform (0 1 0);
    }
    pressure-outlet-7
    {
        type            zeroGradient;
    }
    wall-8
    {
        type            noSlip;
    }
    frontAndBackPlanes
    {
        type            empty;
    }
}


// ************************************************************************* //
