/*--------------------------------*- C++ -*----------------------------------*\
  =========                 |
  \\      /  F ield         | OpenFOAM: The Open Source CFD Toolbox
   \\    /   O peration     | Website:  https://openfoam.org
    \\  /    A nd           | Version:  9
     \\/     M anipulation  |
\*---------------------------------------------------------------------------*/
FoamFile
{
    format      ascii;
    class       volScalarField;
    location    "5.16";
    object      alpha.water;
}
// * * * * * * * * * * * * * * * * * * * * * * * * * * * * * * * * * * * * * //

dimensions      [0 0 0 0 0 0 0];

internalField   nonuniform List<scalar> 
2268
(
1
0.999999
0.999999
0.999999
1
0.999999
1
0.999999
0.999998
0.999999
1
1
1
1
1
1
1
0.999953
0.999917
0.997125
0.996187
0.996551
0.996552
0.999999
0.999998
0.999998
0.999998
1
0.999999
0.999998
0.999998
0.999998
1
1
1
1
1
1
1
0.999967
0.999967
0.999967
0.999964
0.999766
0.99999
0.999663
0.999998
0.999997
0.999998
0.999998
1
0.999999
0.999999
0.999999
1
1
1
1
1
1
1
1
0.999788
0.997588
0.991522
0.998499
0.999819
0.99999
0.99999
0.999999
0.999998
0.999999
0.999999
1
1
1
0.999999
1
1
1
1
1
1
1
1
1
0.98179
0.979904
0.980511
0.990221
0.999863
0.999972
1
0.999999
1
1
1
1
1
1
1
1
1
1
1
1
1
1
1
0.984766
0.979898
0.979897
0.985263
0.999788
0.999959
1
1
1
1
1
1
1
1
1
1
1
1
1
1
1
1
1
0.99765
0.979897
0.979898
0.99159
0.999979
0.999974
1
1
1
1
1
1
1
1
1
1
1
1
1
1
1
1
1
1
0.993568
0.989777
0.998644
0.999997
0.999999
1
1
1
1
1
1
1
1
1
1
1
1
1
1
1
0.999999
0.999999
0.999999
1
0.999999
0.999996
0.999999
1
0.990211
0.992038
0.994431
0.993636
0.991702
0.99068
0.99068
0.99068
0.991397
0.997717
0.998747
0.998734
0.990288
0.976518
0.994389
0.998565
0.998566
0.997671
0.993153
0.990211
0.999793
0.999963
0.999963
0.999963
0.999582
0.998311
0.998362
0.999244
0.998811
0.998748
0.998747
0.988738
0.97652
0.998565
0.998566
0.998566
0.998495
0.993152
0.995255
0.999402
0.999959
0.999963
0.999939
0.999919
0.999915
0.999915
0.999758
0.998786
0.998785
0.995873
0.960591
0.98201
0.998566
0.998566
0.998566
0.998541
0.993153
0.999876
0.999925
0.999881
0.99995
0.999964
0.999964
0.99986
0.998625
0.998386
0.996662
0.971826
0.96084
0.960182
0.976395
0.998561
0.998566
0.998566
0.998564
0.994779
0.99989
0.999969
0.999957
0.999956
0.999964
0.999963
0.998939
0.998198
0.998273
0.993928
0.960175
0.960174
0.960175
0.980677
0.998531
0.998564
0.99021
0.997947
0.998484
0.999981
0.999991
0.999991
0.999978
0.999951
0.999958
0.999445
0.99894
0.99968
0.998552
0.975876
0.960174
0.960174
0.998536
0.998544
0.997947
0.974526
0.996488
0.998485
0.999991
0.999991
0.999991
0.999971
0.999854
0.999854
0.999924
0.999977
0.999977
0.999178
0.991695
0.977567
0.990653
0.998544
0.998544
0.997354
0.974519
0.994928
0.998485
0.999994
0.999993
0.999992
0.999991
0.999991
0.999991
0.999991
0.999979
0.998181
0.996801
0.997464
0.998528
0.998544
0.998544
0.998544
0.998522
0.974515
0.970875
0.998485
1
0.999999
1
1
1
1
1
1
0.999999
0.999999
0.999999
0.999999
0.999999
1
1
1
1
1
1
1
1
1
1
0.933255
0.932863
0.935058
0.937825
0.941851
0.946789
0.952123
0.957575
0.963611
0.96896
0.973155
0.976823
0.980286
0.984048
0.988045
0.992966
0.998953
1
1
1
1
1
1
0.222781
0.226457
0.230396
0.235654
0.241193
0.247714
0.255513
0.264412
0.274302
0.285816
0.29917
0.313812
0.329188
0.344981
0.360845
0.376501
0.391999
0.413888
0.434456
0.447866
0.456927
0.466559
0.479879
0.000703576
0.000702462
0.000701892
0.000702225
0.000701895
0.000703069
0.000707517
0.000712955
0.000717394
0.000721185
0.000724117
0.000725938
0.000726357
0.000749958
0.000894545
0.00120932
0.00164809
0.00234993
0.00198013
0.00259111
0.00333549
0.00370308
0.0039294
0.00171482
0.00171485
0.00149838
0.00091169
0.00210207
0.00391409
0.00455411
0.00486155
0.00504891
0.00531236
0.005329
0.00532969
0.00532985
0.00532969
0.00532367
0.00532364
0.00532356
0.00277068
0.00112806
0.00190581
0.00241698
0.00215641
0.000907731
0.00114454
0.00129871
0.00136164
0.00145021
0.00144534
0.000345497
2.57362e-05
0.000230368
0.000428646
0.000590979
0.000843117
0.00111067
0.00130556
0.00130961
0.00124399
0.001041
0.0013217
0.00164047
0.0011271
0.00120808
0.00111641
0.00079043
0.000607432
0.000197567
0.00010575
0.000129745
0.000262564
1.10962e-09
7.09886e-05
2.35251e-06
8.06516e-09
8.04593e-09
8.05016e-09
8.04907e-09
8.08661e-09
9.17854e-09
1.06778e-08
1.09955e-08
5.51757e-07
1.56974e-05
0.000153817
0.00028033
0.000117759
9.90955e-05
0.000174197
0.000609308
9.60507e-10
9.58945e-10
9.96071e-10
1.06531e-09
1.00889e-09
1.3377e-07
1.0549e-05
4.57931e-06
8.0465e-09
8.04586e-09
5.46408e-08
1.2363e-06
2.21902e-06
8.53083e-07
1.07424e-08
1.14231e-08
7.15239e-05
0.000149277
0.000138834
6.87571e-05
7.6132e-05
0.000312299
0.000487143
1.10085e-09
2.40003e-08
5.65903e-08
1.18312e-08
1.00116e-09
3.22666e-09
1.49528e-07
2.32525e-08
1.24494e-08
8.07128e-09
8.86745e-07
3.8108e-06
3.81126e-06
1.74896e-06
1.04555e-08
1.38343e-08
2.28588e-05
6.46303e-05
7.11944e-05
6.85203e-05
0.00013151
0.000154576
0.000102904
1.89149e-09
1.1781e-07
1.48854e-07
5.19795e-08
5.55083e-10
5.55083e-10
5.5518e-10
5.82167e-10
1.33938e-09
1.16672e-07
1.31334e-06
3.81124e-06
3.41097e-06
5.82391e-09
1.03571e-08
8.76542e-08
8.39398e-08
7.10937e-08
1.79047e-06
1.36593e-05
1.75271e-05
2.04137e-08
2.1118e-08
2.27625e-09
1.11454e-07
1.48854e-07
4.70223e-08
5.55083e-10
5.55083e-10
5.5524e-10
4.4471e-08
1.23121e-06
2.16512e-06
2.07967e-06
2.5422e-07
4.66866e-08
5.82106e-09
9.57889e-09
1.18486e-08
3.69402e-09
5.0745e-08
3.83564e-07
1.21831e-06
4.30761e-07
2.00517e-08
1.98681e-08
1.32473e-09
2.5604e-09
3.19017e-08
8.64811e-09
5.55083e-10
5.5524e-10
1.44978e-09
1.12773e-06
2.16537e-06
2.16537e-06
9.79872e-07
1.79976e-09
1.80133e-09
1.80296e-09
1.29945e-09
9.02698e-11
1.30314e-10
9.41228e-07
5.75463e-06
6.56075e-06
5.42762e-06
1.31642e-06
1.98676e-08
1.32473e-09
2.39555e-09
6.90056e-11
6.81053e-11
1.21926e-09
1.37447e-09
3.22091e-09
8.58338e-07
1.6922e-06
6.84255e-07
6.68933e-09
1.79931e-09
2.77364e-09
1.77744e-09
7.00129e-11
6.82762e-11
9.07932e-11
1.84501e-06
6.56075e-06
6.56075e-06
6.56075e-06
4.01501e-06
1.98676e-08
6.6338e-08
1.32345e-07
2.57437e-09
6.68538e-11
1.07484e-09
5.99742e-09
5.05762e-08
1.02988e-07
1.87254e-08
1.08923e-09
4.85832e-10
1.80058e-09
2.25057e-09
5.54651e-10
7.01634e-11
6.58143e-11
3.87086e-10
1.68192e-07
1.80222e-06
5.08705e-06
4.43844e-06
2.45804e-07
1.98677e-08
1.53865e-07
2.07487e-07
1.64847e-08
6.50306e-11
2.00662e-09
5.86185e-09
6.85179e-09
3.27282e-10
1.15666e-10
5.28035e-11
1.89101e-10
4.62489e-10
3.15104e-10
8.14484e-11
6.63612e-11
6.57953e-11
7.62975e-11
1.34682e-10
1.18443e-08
1.18015e-07
1.08116e-07
1.2785e-08
4.86601e-08
2.03177e-07
2.07488e-07
1.51383e-08
6.43392e-11
1.15478e-09
1.50884e-09
5.2086e-10
1.08126e-10
5.62081e-11
1.49646e-11
1.36405e-11
1.74299e-11
4.83968e-12
1.38574e-11
3.55387e-11
5.39854e-11
6.92251e-11
6.9231e-11
7.52901e-11
7.76831e-11
5.62362e-11
3.64242e-09
2.48673e-08
2.23297e-07
1.98998e-07
3.18924e-11
6.43223e-11
4.10095e-10
2.47738e-10
6.76263e-11
3.4525e-11
1.37873e-11
1.66192e-12
1.01583e-13
2.40073e-14
5.57358e-15
6.02074e-13
7.8071e-12
3.20004e-11
6.56475e-11
8.32307e-11
8.51271e-11
7.69556e-11
4.82524e-11
5.30558e-11
2.78222e-10
2.76646e-07
2.03193e-07
3.15241e-11
3.61542e-11
9.92581e-11
5.29865e-11
9.15887e-12
2.82531e-12
3.86288e-13
-2.83653e-13
-1.12901e-12
-1.25064e-12
-1.06044e-12
-5.3306e-13
2.15229e-13
4.65462e-12
2.13598e-11
3.865e-11
4.51149e-11
4.31489e-11
3.70547e-11
2.10947e-11
7.67728e-12
2.76656e-07
2.39562e-07
3.15236e-11
3.15175e-11
3.15113e-11
1.56995e-11
7.64218e-13
2.01948e-31
-8.92609e-13
-1.47241e-12
-1.86746e-12
-1.91112e-12
-1.71683e-12
-1.35538e-12
-8.58385e-13
-9.53211e-14
5.58442e-13
2.23305e-12
4.50798e-12
6.27312e-12
7.31699e-12
6.19175e-12
3.37349e-12
2.76656e-07
2.75251e-07
5.05933e-09
3.15236e-11
3.24737e-11
1.33541e-11
-8.23544e-16
-5.97883e-13
-1.24349e-12
-1.66068e-12
-1.85504e-12
-1.84746e-12
-1.69388e-12
-1.4525e-12
-1.16453e-12
-8.52528e-13
-5.47763e-13
-2.24478e-13
1.14345e-14
5.19955e-14
9.80986e-14
2.24024e-13
3.46111e-13
2.76656e-07
2.73694e-07
3.34246e-11
3.34014e-11
6.44094e-11
1.40794e-11
2.55134e-13
-4.05371e-13
-8.61293e-13
-1.16874e-12
-1.30728e-12
-1.32483e-12
-1.24773e-12
-1.10536e-12
-9.28678e-13
-7.45145e-13
-5.72754e-13
-4.20344e-13
-2.91872e-13
-1.98214e-13
-1.2639e-13
-6.30514e-14
-1.17225e-14
1.70035e-07
1.60569e-07
3.35658e-11
9.05169e-11
1.42996e-10
2.15269e-11
2.07976e-12
5.7922e-13
-8.00853e-14
-3.95776e-13
-5.8507e-13
-6.82033e-13
-6.99362e-13
-6.5851e-13
-5.79605e-13
-4.83514e-13
-3.86359e-13
-2.97988e-13
-2.23793e-13
-1.64682e-13
-1.18064e-13
-8.03362e-14
-4.97802e-14
2.33427e-09
5.48854e-09
1.38512e-10
2.49091e-10
2.00908e-10
3.5706e-11
8.16205e-12
5.30388e-12
3.00133e-12
1.12354e-12
1.56057e-13
-1.4611e-13
-2.61814e-13
-3.02097e-13
-2.94661e-13
-2.61515e-13
-2.17286e-13
-1.71283e-13
-1.30388e-13
-9.72367e-14
-7.15604e-14
-5.15346e-14
-3.51646e-14
6.88247e-11
7.12529e-11
2.36298e-10
2.91457e-10
2.17154e-10
4.7545e-11
1.99234e-11
1.57005e-11
1.09098e-11
5.89474e-12
2.39405e-12
6.09195e-13
1.55525e-14
-8.92228e-14
-1.20366e-13
-1.20041e-13
-1.06373e-13
-8.61284e-14
-6.58928e-14
-4.87902e-14
-3.56078e-14
-2.58124e-14
-1.8227e-14
6.88247e-11
7.13044e-11
2.34095e-10
2.91457e-10
1.88548e-10
5.40226e-11
3.46043e-11
2.95023e-11
2.24066e-11
1.4037e-11
6.69549e-12
2.28158e-12
4.66964e-13
1.3456e-14
-3.83551e-14
-4.75361e-14
-4.66392e-14
-3.90744e-14
-2.99561e-14
-2.1784e-14
-1.54289e-14
-1.08927e-14
-7.71319e-15
7.19001e-11
6.21566e-11
1.59402e-10
2.03493e-10
1.20113e-10
5.56014e-11
4.76327e-11
4.30318e-11
3.38869e-11
2.35166e-11
1.24407e-11
4.55572e-12
9.7224e-13
8.28663e-14
-9.87908e-15
-1.71302e-14
-1.89572e-14
-1.64277e-14
-1.25775e-14
-8.94043e-15
-6.08054e-15
-4.06824e-15
-2.77617e-15
1.02851e-10
5.14071e-11
5.38033e-11
6.03999e-11
5.88005e-11
5.43729e-11
5.37563e-11
5.31132e-11
4.35064e-11
3.16709e-11
1.76115e-11
6.35082e-12
1.19283e-12
8.42903e-14
-2.34392e-15
-6.03713e-15
-7.32538e-15
-6.51663e-15
-4.9868e-15
-3.4631e-15
-2.25206e-15
-1.40844e-15
-8.87583e-16
3.3377e-10
5.14052e-11
5.13941e-11
5.13716e-11
5.1359e-11
5.27022e-11
5.40132e-11
5.5802e-11
4.99958e-11
3.67064e-11
2.06237e-11
6.97735e-12
1.11527e-12
5.32381e-14
-6.10765e-16
-2.20179e-15
-2.77009e-15
-2.48365e-15
-1.8725e-15
-1.26127e-15
-7.84448e-16
-4.59969e-16
-2.66281e-16
1.31143e-09
1.40736e-08
1.23521e-07
6.98468e-08
5.13559e-11
5.13518e-11
5.26207e-11
5.58023e-11
5.15268e-11
3.81644e-11
2.11113e-11
6.63216e-12
7.9418e-13
2.03955e-14
-1.54325e-16
-8.0121e-16
-1.01925e-15
-9.03763e-16
-6.65263e-16
-4.34306e-16
-2.59637e-16
-1.46536e-16
-7.95063e-17
2.61169e-09
1.82282e-07
8.27856e-07
7.92112e-07
9.93155e-08
5.13499e-11
5.13477e-11
5.56621e-11
5.05591e-11
3.73801e-11
1.96374e-11
5.14383e-12
4.0063e-13
4.9469e-15
-2.76829e-17
-3.03067e-16
-3.72537e-16
-3.18091e-16
-2.25761e-16
-1.41631e-16
-8.1416e-17
-4.38806e-17
-2.22931e-17
2.74994e-09
2.72519e-07
8.36098e-07
8.36111e-07
2.96191e-07
5.13477e-11
5.13461e-11
5.40505e-11
4.75636e-11
3.36686e-11
1.5624e-11
3.08697e-12
1.42717e-13
7.59478e-16
-3.59219e-18
-1.20701e-16
-1.34124e-16
-1.08025e-16
-7.30292e-17
-4.37448e-17
-2.40628e-17
-1.23219e-17
-5.94454e-18
2.7502e-09
1.80427e-07
8.36107e-07
8.36086e-07
2.43629e-07
1.14529e-10
5.07844e-11
5.07862e-11
4.22925e-11
2.72425e-11
1.03273e-11
1.36772e-12
3.3277e-14
7.43564e-17
-1.73366e-17
-4.76075e-17
-4.6991e-17
-3.52218e-17
-2.24001e-17
-1.27311e-17
-6.6162e-18
-3.18109e-18
-1.43398e-18
2.76128e-09
3.19471e-08
5.55254e-07
4.12669e-07
5.26322e-08
1.40264e-10
5.32936e-11
4.62815e-11
3.48191e-11
1.92259e-11
5.31925e-12
4.05833e-13
4.50653e-15
4.00383e-18
-1.16261e-17
-1.80567e-17
-1.58177e-17
-1.08976e-17
-6.43652e-18
-3.41894e-18
-1.6517e-18
-7.3576e-19
-3.06006e-19
3.24667e-09
2.45821e-09
1.1064e-08
7.71195e-10
1.04668e-10
1.04621e-10
5.62883e-11
3.94921e-11
2.53826e-11
1.08769e-11
1.86116e-12
6.64239e-14
2.73292e-16
6.7514e-20
-5.52451e-18
-6.51819e-18
-5.02587e-18
-3.13834e-18
-1.69836e-18
-8.30189e-19
-3.67669e-19
-1.49594e-19
-5.65667e-20
3.34064e-09
2.38028e-09
7.33265e-10
2.73572e-10
1.33174e-10
8.19492e-11
4.83269e-11
2.88555e-11
1.47824e-11
4.21336e-12
3.59397e-13
4.79374e-15
5.83402e-18
-5.30901e-19
-2.42132e-18
-2.23275e-18
-1.4881e-18
-8.27819e-19
-4.04494e-19
-1.78859e-19
-7.15103e-20
-2.6153e-20
-8.83982e-21
2.93704e-09
2.47792e-09
1.24152e-09
5.62392e-10
2.32476e-10
8.32964e-11
3.50426e-11
1.62619e-11
5.76095e-12
8.79564e-13
2.94767e-14
1.23039e-16
3.61474e-20
-6.56457e-19
-9.84446e-19
-7.28482e-19
-4.10117e-19
-1.98084e-19
-8.54505e-20
-3.35566e-20
-1.18933e-20
-3.83567e-21
-1.13528e-21
1.23815e-09
1.53583e-09
1.10041e-09
5.88526e-10
2.3972e-10
7.46071e-11
2.09416e-11
6.09021e-12
1.16708e-12
7.3725e-14
7.95687e-16
9.36223e-19
-1.91433e-20
-3.70552e-19
-3.77937e-19
-2.29013e-19
-1.06251e-19
-4.30052e-20
-1.58537e-20
-5.39244e-21
-1.65473e-21
-4.5915e-22
-1.15878e-22
1.20076e-10
2.97395e-10
4.29224e-10
3.2686e-10
1.54576e-10
4.35508e-11
8.0607e-12
1.18345e-12
9.25837e-14
1.93167e-15
6.48579e-18
2.03935e-21
-9.69342e-20
-1.76714e-19
-1.39166e-19
-7.01886e-20
-2.6292e-20
-8.56602e-21
-2.57928e-21
-7.33116e-22
-1.88347e-22
-4.34282e-23
-9.0022e-24
1.08832e-12
9.32066e-12
4.13526e-11
5.46092e-11
3.51101e-11
1.05079e-11
1.38547e-12
9.05825e-14
2.37418e-15
1.5809e-17
1.8951e-20
-1.26668e-20
-6.45888e-20
-7.64559e-20
-4.96194e-20
-2.12391e-20
-6.53087e-21
-1.65484e-21
-3.80091e-22
-8.46618e-23
-1.71924e-23
-3.11036e-24
-4.98783e-25
3.2466e-16
2.97861e-14
6.15179e-13
1.75199e-12
1.65628e-12
6.35294e-13
7.1104e-14
2.25731e-15
2.16057e-17
6.50924e-20
2.18922e-23
-1.62615e-20
-3.37072e-20
-3.10829e-20
-1.72614e-20
-6.39607e-21
-1.65691e-21
-3.24071e-22
-5.34454e-23
-8.43707e-24
-1.22389e-24
-1.563e-25
-1.73859e-26
-1.87403e-26
1.29345e-17
1.30211e-15
8.46459e-15
1.20355e-14
6.41359e-15
7.89765e-16
1.8448e-17
1.14215e-19
1.29179e-22
-2.42898e-21
-1.0951e-20
-1.56492e-20
-1.20935e-20
-5.90241e-21
-1.93073e-21
-4.31157e-22
-6.63236e-23
-7.59068e-24
-7.43426e-25
-6.38463e-26
-4.59332e-27
-2.78735e-28
-6.69842e-26
1.71187e-21
5.87629e-19
1.29508e-17
3.77111e-17
1.21394e-17
1.67847e-18
4.9372e-20
2.94859e-22
-1.7845e-22
-2.48386e-21
-5.93906e-21
-6.74969e-21
-4.55775e-21
-2.0022e-21
-5.92332e-22
-1.17925e-22
-1.52754e-23
-1.24919e-24
-6.2987e-26
-1.94414e-27
-3.83941e-29
-5.67542e-31
1
1
1
1
1
1
1
1
0.486669
0.48862
0.489655
0.489082
0.00402551
0.00456231
0.00465661
0.00466351
0.000949199
0.00166977
0.00163033
0.00149037
0.00147297
0.00167922
0.00147417
0.000559302
0.000648394
0.000483602
0.000338658
0.000704829
0.000323076
0.000172078
9.16246e-05
0.00016826
4.38356e-05
1.42034e-05
3.83753e-06
3.42796e-07
1.10048e-07
1.89623e-07
3.57919e-07
3.42273e-07
1.09873e-07
1.60468e-07
8.30321e-08
4.48798e-08
1.99004e-08
3.71186e-08
4.0464e-08
2.83381e-08
1.98676e-08
1.98679e-08
2.47005e-08
3.37023e-08
1.98676e-08
2.26789e-08
2.78523e-08
2.78271e-08
4.86583e-08
1.29173e-08
2.58866e-09
3.23829e-09
2.07061e-08
1.91855e-09
2.0567e-09
8.77627e-09
6.526e-10
1.60557e-09
2.75794e-09
3.49666e-09
1.00511e-11
1.20042e-10
2.4958e-10
7.84724e-11
2.33248e-12
2.18945e-12
2.0744e-12
1.36731e-12
4.13644e-13
4.1648e-13
4.38224e-13
4.46691e-13
3.51813e-15
6.23305e-15
1.23563e-14
1.99319e-14
-2.75173e-14
-2.14386e-14
-1.66194e-14
-1.26946e-14
-2.18425e-14
-1.76835e-14
-1.4561e-14
-1.22153e-14
-1.17891e-14
-9.42309e-15
-7.60342e-15
-6.30176e-15
-5.15828e-15
-4.05451e-15
-3.14246e-15
-2.45496e-15
-1.91042e-15
-1.48495e-15
-1.12606e-15
-8.24199e-16
-6.2243e-16
-4.71888e-16
-3.5408e-16
-2.53107e-16
-1.89446e-16
-1.37696e-16
-9.91254e-17
-6.93599e-17
-5.55123e-17
-3.85823e-17
-2.6402e-17
-1.78102e-17
-1.52353e-17
-1.01673e-17
-6.65482e-18
-4.28425e-18
-3.89659e-18
-2.4882e-18
-1.5535e-18
-9.50168e-19
-8.9366e-19
-5.42434e-19
-3.21353e-19
-1.86076e-19
-1.79664e-19
-1.02628e-19
-5.71229e-20
-3.10202e-20
-3.09162e-20
-1.6408e-20
-8.46802e-21
-4.25517e-21
-4.43012e-21
-2.15005e-21
-1.012e-21
-4.62621e-22
-5.11692e-22
-2.22538e-22
-9.35442e-23
-3.8069e-23
-4.57644e-23
-1.73605e-23
-6.33839e-24
-2.23192e-24
-3.00096e-24
-9.55752e-25
-2.91545e-25
-8.54055e-26
-1.32272e-25
-3.3341e-26
-8.01344e-27
-1.84262e-27
-3.29818e-27
-5.93944e-28
-1.01892e-28
-1.67147e-29
-2.99958e-29
-3.10226e-30
-3.09418e-31
-2.98505e-32
-1.51439e-32
-4.09119e-34
-1.15206e-35
-3.40975e-37
1
1
1
1
0.997326
0.991076
0.98949
0.991926
0.995418
0.997931
0.998489
0.998507
0.998536
0.998544
0.998543
0.995524
0.978851
0.965195
0.977009
1
0.99832
0.993238
0.988699
0.985141
0.979511
0.969118
0.95789
0.951484
0.957497
0.968697
0.971262
0.962979
0.944516
0.933226
0.936048
0.945024
0.95068
0.951801
0.486446
0.476026
0.468343
0.460425
0.451429
0.4434
0.437473
0.428358
0.414545
0.394179
0.374139
0.358489
0.345509
0.334532
0.323126
0.31518
0.314281
0.309776
0.301909
0.00374203
0.00328044
0.00291318
0.00255341
0.00286698
0.00283349
0.00211295
0.00143596
0.000914104
0.000847385
0.000846936
0.000846249
0.000845468
0.000844661
0.000843958
0.000842898
0.000841783
0.000841241
0.000840623
0.00055625
0.000547319
0.000539118
0.000529042
0.00100108
0.00219985
0.00130744
0.00121523
0.00122022
0.00108428
0.00103245
0.00107172
0.00117417
0.00124568
0.0013619
0.00136186
0.00128576
0.000840623
0.000840179
0.000558629
0.000961535
0.000959471
0.000529042
0.00103025
0.0017383
0.00180438
0.00179274
0.0017504
0.00175031
0.00174968
0.00174573
0.00143301
0.00132083
0.00135752
0.00127035
0.00108688
0.00104771
0.000840131
0.000981629
0.000981374
0.000980287
0.0009796
0.000879375
0.000437514
0.000275146
0.00029028
0.000237735
0.000189833
0.000174837
0.000140815
0.000254985
0.000293911
0.000239744
0.000185709
0.000118513
0.000302432
0.000385145
0.000365496
0.000221279
0.000159802
0.000311614
0.000111462
2.47001e-06
1.71514e-07
2.23101e-07
2.25492e-07
2.32715e-07
2.81542e-07
3.95703e-07
4.56213e-07
4.81276e-07
4.81537e-07
1.38486e-06
8.40568e-07
7.58841e-07
7.58841e-07
1.4846e-08
1.51358e-08
1.51474e-08
1.51791e-08
1.52264e-08
2.41627e-08
1.31181e-07
1.31504e-07
9.14836e-06
3.96058e-05
4.68221e-05
4.39352e-05
1.8542e-05
2.09161e-06
5.78252e-07
5.82151e-07
6.85798e-07
7.59345e-07
7.58841e-07
1.4099e-08
1.48784e-08
1.50285e-08
1.51475e-08
1.51791e-08
1.52281e-08
1.80323e-08
6.06114e-06
6.60616e-05
6.60659e-05
6.60557e-05
6.27931e-05
8.87461e-06
3.24902e-06
1.083e-06
7.6287e-07
8.17626e-07
8.2394e-07
7.58841e-07
1.4099e-08
1.4099e-08
5.39698e-07
3.64542e-06
3.2118e-06
5.10928e-07
8.09324e-07
4.20419e-05
6.60659e-05
5.75394e-05
1.49424e-05
1.49774e-05
3.4731e-05
3.75738e-05
2.59838e-05
1.87652e-05
6.90742e-06
9.14141e-07
7.58898e-07
1.4099e-08
1.41075e-08
7.09021e-06
2.16649e-05
2.06305e-05
4.80803e-06
5.8759e-06
5.62981e-05
5.33427e-05
2.5521e-07
1.17257e-05
4.22069e-05
4.31294e-05
4.313e-05
4.31e-05
4.30549e-05
3.83133e-05
1.45308e-06
1.36013e-06
3.43355e-08
6.25607e-07
1.70679e-05
2.16648e-05
2.16649e-05
2.16647e-05
1.64225e-05
6.28376e-06
2.0672e-09
2.42344e-07
2.76682e-05
4.16043e-05
4.01823e-05
1.54303e-05
4.56585e-06
7.72154e-06
7.015e-06
1.54691e-05
1.69429e-05
2.78454e-08
8.07871e-08
6.03091e-06
2.13084e-05
2.16407e-05
5.30781e-06
6.2196e-07
3.77885e-10
1.96611e-09
1.53096e-07
4.04577e-06
7.80899e-06
1.65179e-10
1.65082e-10
1.65179e-10
1.84705e-10
2.9673e-06
1.6943e-05
1.6943e-05
2.85855e-08
1.16799e-07
2.88732e-07
1.3206e-06
1.64653e-06
2.10549e-07
1.75329e-10
3.75515e-10
4.60646e-08
1.77098e-07
1.65615e-10
1.65294e-10
1.65082e-10
1.65009e-10
1.65082e-10
1.93889e-10
6.74872e-06
1.6943e-05
1.69429e-05
5.09526e-08
9.07455e-08
5.74855e-08
3.44096e-08
1.82706e-08
1.37845e-09
1.75329e-10
5.80834e-10
7.64547e-09
1.49081e-08
4.61984e-09
4.20686e-10
3.54769e-10
1.65009e-10
1.64652e-10
1.49527e-10
7.58675e-07
3.96504e-06
8.79656e-06
5.61311e-09
8.00674e-09
1.7574e-07
2.99996e-07
2.08656e-07
1.73785e-10
1.77798e-10
1.78199e-10
3.78071e-10
7.46616e-10
1.81681e-09
1.79381e-09
8.43411e-10
1.669e-10
1.81528e-10
1.49293e-10
4.81543e-12
4.81543e-12
4.81543e-12
1.05147e-12
3.69408e-10
1.47973e-07
2.99993e-07
2.99996e-07
2.95462e-07
1.0199e-07
1.78275e-10
2.08206e-10
1.59948e-09
4.84968e-09
6.57763e-10
3.60308e-10
1.99137e-10
2.2783e-10
1.97672e-10
2.78654e-11
4.81543e-12
4.81543e-12
1.04441e-12
8.215e-13
4.42126e-09
7.85279e-08
2.59332e-07
2.95702e-07
2.35082e-07
5.24986e-09
5.96233e-09
5.14828e-08
7.57851e-08
3.61525e-08
6.09812e-09
1.59764e-10
2.24454e-10
2.05723e-10
4.86546e-11
5.13339e-12
4.81584e-12
4.35235e-13
1.85673e-13
4.10185e-15
3.69916e-10
1.19885e-08
3.05867e-08
2.49938e-08
1.26439e-08
5.88218e-08
8.21984e-08
8.21984e-08
8.21984e-08
1.56236e-08
1.59584e-10
1.59576e-10
1.00659e-10
2.3184e-11
5.11849e-12
4.89909e-12
2.43152e-14
1.61649e-14
3.74977e-15
6.58984e-14
9.62104e-14
5.30955e-15
5.30935e-15
5.64358e-15
2.47018e-09
2.50203e-08
4.27072e-08
2.41456e-08
2.63768e-09
2.09449e-10
6.55016e-11
2.65697e-11
2.94958e-11
1.01755e-11
2.23111e-11
-9.63464e-15
-4.19724e-15
-2.00662e-15
0
0
5.50726e-15
8.09927e-14
1.86045e-13
1.86105e-13
1.86284e-13
1.86717e-13
1.87159e-13
1.88031e-13
9.46371e-12
1.2568e-11
7.02398e-12
1.69369e-10
4.96337e-08
3.30785e-07
-1.03554e-14
-6.44456e-15
-3.8836e-15
-2.19499e-15
-1.03994e-15
-1.6989e-16
8.32632e-16
3.42932e-14
3.51969e-13
8.6848e-13
5.63915e-13
1.34245e-12
3.19413e-12
2.76413e-12
1.84111e-12
2.55943e-12
1.33779e-10
8.10323e-07
1.00212e-05
-5.37642e-15
-3.54276e-15
-2.28696e-15
-1.43973e-15
-8.755e-16
-4.95335e-16
-2.24283e-16
1.33956e-17
5.28909e-15
7.25466e-14
2.58959e-13
7.35526e-13
1.42489e-12
8.16396e-13
5.82015e-13
1.74023e-12
1.36122e-12
1.57506e-06
1.34897e-05
-2.00642e-15
-1.30386e-15
-8.3759e-16
-5.3052e-16
-3.27747e-16
-2.03035e-16
-1.22146e-16
-6.37602e-17
-2.27691e-18
5.58346e-16
3.93695e-15
1.43702e-14
3.95787e-14
7.15602e-14
1.79468e-13
1.35996e-12
1.36023e-12
1.11895e-06
1.34897e-05
-6.07582e-16
-3.79017e-16
-2.32339e-16
-1.41543e-16
-8.69556e-17
-5.37468e-17
-3.2714e-17
-1.84407e-17
-6.70362e-18
1.5304e-17
1.39751e-16
6.97128e-16
3.24897e-15
1.50466e-14
1.01402e-13
1.48061e-12
1.3607e-12
1.56113e-07
1.34896e-05
-1.55981e-16
-9.15777e-17
-5.4996e-17
-3.31759e-17
-1.9909e-17
-1.1797e-17
-6.81796e-18
-3.50996e-18
-7.86214e-19
5.78859e-18
4.41479e-17
2.70284e-16
1.7071e-15
9.96312e-15
8.18271e-14
2.17963e-12
2.11907e-12
1.57219e-12
1.34861e-05
-3.69976e-17
-1.99431e-17
-1.10903e-17
-6.252e-18
-3.52091e-18
-1.87903e-18
-9.55076e-19
-1.60458e-19
3.87836e-19
5.25683e-18
3.43674e-17
2.05706e-16
1.3411e-15
8.06564e-15
7.49796e-14
2.59476e-12
6.56116e-12
1.57148e-12
1.05295e-05
-8.20742e-18
-3.91572e-18
-1.92767e-18
-9.60473e-19
-4.56101e-19
-4.81482e-38
1.71938e-19
9.02602e-19
3.80172e-18
1.04636e-17
3.70371e-17
1.92682e-16
1.23016e-15
7.38596e-15
8.5378e-14
2.93019e-12
8.93953e-12
1.57343e-12
3.20776e-06
-1.77263e-18
-7.45672e-19
-3.15896e-19
-1.1846e-19
1.69414e-20
6.45564e-19
4.40476e-18
1.77521e-17
5.45948e-17
1.35934e-16
2.89383e-16
6.25892e-16
1.97905e-15
8.87659e-15
1.17021e-13
2.69119e-12
8.93562e-12
1.5779e-12
3.53617e-06
-3.60098e-19
-1.35525e-19
-4.84954e-20
3.06026e-21
6.3523e-19
5.51303e-18
3.08382e-17
1.33275e-16
4.58724e-16
1.25075e-15
2.81983e-15
5.92544e-15
1.44473e-14
4.19283e-14
2.06904e-13
2.6154e-12
7.87251e-12
4.60867e-12
4.94851e-06
-6.47771e-20
-2.20835e-20
-5.22094e-21
9.41864e-20
1.9251e-18
2.13158e-17
1.47733e-16
7.31294e-16
2.80071e-15
8.3583e-15
2.04055e-14
4.79124e-14
1.20064e-13
2.83115e-13
6.37214e-13
2.88617e-12
7.20913e-12
3.2823e-12
3.16084e-06
-9.82752e-21
-3.0083e-21
7.05665e-22
1.56159e-19
4.38964e-18
6.50905e-17
5.65853e-16
3.19613e-15
1.3801e-14
4.81148e-14
1.38611e-13
3.66476e-13
8.57464e-13
1.62819e-12
2.4696e-12
4.47007e-12
7.74742e-12
3.28222e-12
3.2823e-12
-1.20727e-21
-3.18878e-22
2.06143e-21
2.03737e-19
7.93439e-18
1.56926e-16
1.76341e-15
1.1728e-14
5.98659e-14
2.62247e-13
9.97776e-13
2.73756e-12
4.79943e-12
6.68693e-12
7.84426e-12
9.46655e-12
8.84774e-12
3.2823e-12
6.81774e-07
-1.15192e-22
-2.23174e-23
1.76357e-21
2.19429e-19
1.12382e-17
2.90502e-16
4.46114e-15
3.91312e-14
2.54138e-13
1.37355e-12
6.29154e-12
1.5963e-11
2.01847e-11
2.1845e-11
2.13512e-11
2.84458e-11
2.40679e-11
3.30677e-12
3.57213e-06
-8.1163e-24
-1.7159e-25
8.57397e-22
1.93927e-19
1.26534e-17
4.02189e-16
8.67344e-15
1.16375e-13
9.62741e-13
5.64805e-12
2.45507e-11
5.39742e-11
6.0279e-11
6.05131e-11
6.09053e-11
1.51197e-10
1.7234e-10
3.32193e-12
3.57219e-06
-3.94904e-25
9.40674e-25
3.79962e-22
9.68121e-20
1.18622e-17
4.4066e-16
1.23246e-14
2.59298e-13
2.4753e-12
1.42994e-11
5.28079e-11
1.01052e-10
1.17877e-10
1.18726e-10
1.61308e-10
5.64466e-10
7.1259e-10
3.40298e-12
3.56782e-06
-1.20187e-26
2.96759e-25
1.38761e-22
3.90289e-20
6.03326e-18
3.50235e-16
1.35045e-14
3.87009e-13
3.90243e-12
2.16632e-11
6.91608e-11
1.24233e-10
1.46531e-10
1.45151e-10
3.26321e-10
1.34297e-09
1.44736e-09
3.82415e-12
3.11284e-06
-1.92132e-28
6.38912e-26
2.91815e-23
1.24537e-20
2.22711e-18
1.28882e-16
9.46209e-15
4.21369e-13
4.31258e-12
2.32662e-11
6.86332e-11
1.16534e-10
1.43491e-10
8.95451e-11
6.35767e-10
5.72325e-09
3.67367e-09
4.86265e-12
2.76003e-06
-9.99106e-31
6.96435e-27
3.09926e-24
2.09095e-21
5.39741e-19
3.31426e-17
2.36574e-15
2.46156e-13
2.61599e-12
1.29137e-11
3.08888e-11
4.87327e-11
7.9491e-11
2.66982e-15
2.073e-09
1.70441e-08
1.36078e-08
6.65324e-12
2.75683e-06
-1.24006e-33
4.11384e-31
5.7908e-26
1.55886e-22
4.8889e-20
3.85869e-18
2.84873e-16
3.75602e-14
4.05323e-13
1.89861e-12
4.40448e-12
7.35565e-12
1.07715e-11
4.14684e-18
4.23346e-09
1.70442e-08
1.70295e-08
1.77003e-12
2.75513e-06
-4.47262e-39
-4.18705e-41
4.45607e-33
1.59323e-27
7.14587e-24
4.10866e-21
1.66037e-18
2.7146e-16
2.64309e-15
1.43037e-14
4.06647e-14
7.4818e-14
4.89479e-14
3.4124e-41
9.90653e-10
6.34323e-09
4.49636e-09
-1.03196e-27
1.92894e-06
)
;

boundaryField
{
    leftWall
    {
        type            zeroGradient;
    }
    rightWall
    {
        type            zeroGradient;
    }
    lowerWall
    {
        type            zeroGradient;
    }
    atmosphere
    {
        type            inletOutlet;
        inletValue      uniform 0;
        value           nonuniform List<scalar> 
46
(
0
1.71187e-21
5.87629e-19
1.29508e-17
3.77111e-17
1.21394e-17
1.67847e-18
4.9372e-20
2.94859e-22
-1.7845e-22
-2.48386e-21
-5.93906e-21
-6.74969e-21
-4.55775e-21
-2.0022e-21
-5.92332e-22
-1.17925e-22
-1.52754e-23
-1.24919e-24
-6.2987e-26
0
0
0
0
0
0
0
0
0
0
0
0
0
0
0
0
0
0
0
0
0
0
0
0
0
1.92894e-06
)
;
    }
    defaultFaces
    {
        type            empty;
    }
}


// ************************************************************************* //
