/*--------------------------------*- C++ -*----------------------------------*\
  =========                 |
  \\      /  F ield         | OpenFOAM: The Open Source CFD Toolbox
   \\    /   O peration     | Website:  https://openfoam.org
    \\  /    A nd           | Version:  9
     \\/     M anipulation  |
\*---------------------------------------------------------------------------*/
FoamFile
{
    format      ascii;
    class       volScalarField;
    location    "5.58";
    object      p;
}
// * * * * * * * * * * * * * * * * * * * * * * * * * * * * * * * * * * * * * //

dimensions      [1 -1 -2 0 0 0 0];

internalField   nonuniform List<scalar> 
2268
(
747.284
746.906
746.276
745.374
744.225
742.857
741.296
739.574
737.722
735.773
733.761
731.718
729.672
727.638
725.619
723.603
721.652
719.885
718.565
717.509
716.837
716.579
716.255
688.509
688.139
687.514
686.614
685.463
684.088
682.517
680.78
678.908
676.937
674.901
672.829
670.749
668.676
666.622
664.602
662.716
661.102
659.893
658.837
658.005
657.57
657.298
629.794
629.427
628.803
627.902
626.745
625.359
623.772
622.015
620.119
618.119
616.051
613.946
611.83
609.725
607.652
605.645
603.798
602.173
600.965
599.902
598.999
598.491
598.244
571.148
570.776
570.146
569.24
568.072
566.669
565.06
563.276
561.35
559.316
557.212
555.071
552.923
550.796
548.722
546.751
545
543.547
542.274
541.008
540.022
539.394
539.147
512.571
512.188
511.547
510.629
509.442
508.015
506.378
504.563
502.6
500.527
498.382
496.203
494.024
491.881
489.817
487.9
486.348
485.361
484.013
482.568
481.412
480.287
480.011
454.06
453.663
453.006
452.07
450.858
449.4
447.729
445.876
443.872
441.752
439.56
437.338
435.126
432.966
430.91
429.042
427.607
426.868
425.692
424.272
422.793
421.201
420.83
395.616
395.203
394.527
393.567
392.323
390.826
389.114
387.218
385.165
382.992
380.745
378.472
376.22
374.038
371.982
370.134
368.695
367.992
367.105
365.658
363.794
362.201
361.576
337.238
336.809
336.112
335.125
333.841
332.297
330.537
328.592
326.485
324.249
321.938
319.605
317.307
315.092
313.019
311.16
309.672
308.827
307.957
306.533
304.628
303.27
302.261
720.411
721.329
722.448
723.698
725.08
726.611
728.257
729.978
731.661
733.163
734.455
736.199
738.311
739.005
742.086
744.202
745.144
746.011
746.595
661.989
662.462
663.492
664.752
666.212
667.833
669.538
671.265
672.888
674.357
675.671
677.571
679.944
681.091
683.013
685.14
686.258
687.305
688.098
603.352
603.615
604.474
605.706
607.187
608.84
610.6
612.366
613.998
615.534
616.919
618.962
621.235
623.178
624.412
626.378
627.545
628.708
629.608
544.35
544.67
545.457
546.663
548.157
549.841
551.639
553.468
555.224
556.942
558.327
560.451
563.267
565.75
566.238
567.937
568.95
570.237
571.25
485.09
485.549
486.373
487.593
489.112
490.832
492.707
494.653
496.577
498.55
500.904
502.937
506.247
508.586
508.323
509.725
510.511
511.915
513.031
425.737
426.308
427.205
428.477
430.04
431.805
433.764
435.84
437.974
440.237
443.959
446.179
449.238
451.026
450.472
451.668
452.63
453.826
454.899
366.275
366.984
367.958
369.312
370.938
372.748
374.783
377.001
379.335
381.961
386.212
389.304
392.186
393.024
392.595
393.719
395.126
395.802
396.796
306.68
307.575
308.646
310.11
311.812
313.651
315.751
318.105
320.686
323.623
327.821
331.587
334.359
334.705
334.699
335.842
337.623
337.817
338.702
246.088
245.629
244.903
243.869
242.511
240.874
239.027
236.997
234.794
232.441
230.008
227.561
225.17
222.886
220.756
218.831
217.211
215.979
214.877
213.536
212.053
211.076
210.428
122.487
122.014
121.296
120.196
118.658
116.81
114.794
112.629
110.344
108.035
105.705
103.399
101.153
98.9836
96.9533
95.1228
93.5492
92.2526
91.0773
89.9527
88.9812
88.2651
87.777
30.9048
30.5201
30.0421
29.3634
28.5577
27.6218
26.5311
25.3303
24.1117
23.011
21.9421
20.8956
19.858
18.8457
17.9008
17.0822
16.414
15.8428
15.3154
14.8709
14.5177
14.2676
14.0892
-0.275827
-0.315582
-0.350336
-0.41673
-0.265461
-0.10254
-0.0685956
-0.0855448
-0.105771
-0.122754
-0.133568
-0.14896
-0.169031
-0.187752
-0.219327
-0.266807
-0.337806
-0.43829
-0.562544
-0.550049
-0.537619
-0.526339
-0.544237
-0.79356
-0.790828
-0.794501
-0.80298
-0.754199
-0.701095
-0.665978
-0.652295
-0.64515
-0.640817
-0.637694
-0.638305
-0.646276
-0.668399
-0.691128
-0.71476
-0.735089
-0.75357
-0.773443
-0.783089
-0.784648
-0.784127
-0.7718
-1.08676
-1.08409
-1.08298
-1.07761
-1.08517
-1.10219
-1.11119
-1.11216
-1.1109
-1.10997
-1.10972
-1.11144
-1.11529
-1.11989
-1.12179
-1.11984
-1.10873
-1.08568
-1.05893
-1.05919
-1.05255
-1.03666
-1.01539
-1.28722
-1.28754
-1.28611
-1.2802
-1.28988
-1.2908
-1.29067
-1.29132
-1.29061
-1.28877
-1.28658
-1.28358
-1.27957
-1.27411
-1.26797
-1.25971
-1.2515
-1.24857
-1.24557
-1.24123
-1.23519
-1.22889
-1.23711
-1.42149
-1.4217
-1.42101
-1.42068
-1.42117
-1.41918
-1.41709
-1.41606
-1.41459
-1.41281
-1.41063
-1.40795
-1.4047
-1.40063
-1.39613
-1.39136
-1.38728
-1.38713
-1.38592
-1.38173
-1.3806
-1.38709
-1.3896
-1.54538
-1.54531
-1.54469
-1.54416
-1.54409
-1.54288
-1.54147
-1.5402
-1.5387
-1.53702
-1.5351
-1.53285
-1.53023
-1.52726
-1.52431
-1.52223
-1.52192
-1.52177
-1.52002
-1.51832
-1.5191
-1.52165
-1.51956
-1.66934
-1.66914
-1.66869
-1.6682
-1.66774
-1.66677
-1.66562
-1.66442
-1.66302
-1.66149
-1.65986
-1.65808
-1.65601
-1.65375
-1.6517
-1.65046
-1.6505
-1.65042
-1.64954
-1.64954
-1.64962
-1.64849
-1.64724
-1.79337
-1.79318
-1.79282
-1.79235
-1.79178
-1.79093
-1.78991
-1.78879
-1.78754
-1.78623
-1.78486
-1.78341
-1.78173
-1.77995
-1.7784
-1.77736
-1.77691
-1.7765
-1.77591
-1.77572
-1.77555
-1.77494
-1.77419
-1.91747
-1.91734
-1.91705
-1.91661
-1.91604
-1.91529
-1.9144
-1.91339
-1.91231
-1.9112
-1.91002
-1.90871
-1.90732
-1.90593
-1.90471
-1.9038
-1.90323
-1.90274
-1.90223
-1.90193
-1.90166
-1.9013
-1.90088
-2.04167
-2.04159
-2.04136
-2.04097
-2.04045
-2.03979
-2.03902
-2.03816
-2.03725
-2.03627
-2.0352
-2.03405
-2.03289
-2.03178
-2.03078
-2.03
-2.02946
-2.02908
-2.02874
-2.02842
-2.02811
-2.02775
-2.02743
-2.16596
-2.16593
-2.16576
-2.16543
-2.16497
-2.1644
-2.16373
-2.16301
-2.16222
-2.16134
-2.16038
-2.1594
-2.15843
-2.15751
-2.15669
-2.15603
-2.15555
-2.15526
-2.15504
-2.15478
-2.15447
-2.15408
-2.15381
-2.29037
-2.29037
-2.29024
-2.28997
-2.28958
-2.28908
-2.28851
-2.28787
-2.28717
-2.28639
-2.28558
-2.28475
-2.28393
-2.28316
-2.28247
-2.28189
-2.28146
-2.28116
-2.28096
-2.28077
-2.28046
-2.28016
-2.27999
-2.41488
-2.41491
-2.41482
-2.4146
-2.41427
-2.41384
-2.41334
-2.41277
-2.41216
-2.41149
-2.41079
-2.41008
-2.40939
-2.40874
-2.40815
-2.40764
-2.40724
-2.40694
-2.40671
-2.4065
-2.40629
-2.4061
-2.40601
-2.53949
-2.53955
-2.53949
-2.53931
-2.53903
-2.53866
-2.53822
-2.53773
-2.53719
-2.53661
-2.53601
-2.53541
-2.53481
-2.53425
-2.53375
-2.53331
-2.53294
-2.53265
-2.53242
-2.53223
-2.53206
-2.53194
-2.53189
-2.66419
-2.66426
-2.66423
-2.66409
-2.66385
-2.66353
-2.66316
-2.66273
-2.66226
-2.66176
-2.66124
-2.66072
-2.66021
-2.65973
-2.65929
-2.6589
-2.65857
-2.6583
-2.65809
-2.65792
-2.65778
-2.6577
-2.65768
-2.78896
-2.78905
-2.78904
-2.78893
-2.78873
-2.78845
-2.78813
-2.78775
-2.78735
-2.78691
-2.78647
-2.78602
-2.78558
-2.78516
-2.78478
-2.78444
-2.78415
-2.78391
-2.78371
-2.78356
-2.78345
-2.78339
-2.78339
-2.9138
-2.9139
-2.91391
-2.91382
-2.91365
-2.91342
-2.91313
-2.91281
-2.91245
-2.91208
-2.91169
-2.91131
-2.91093
-2.91057
-2.91023
-2.90994
-2.90968
-2.90946
-2.90929
-2.90916
-2.90907
-2.90903
-2.90904
-3.0387
-3.0388
-3.03882
-3.03875
-3.03861
-3.03841
-3.03816
-3.03788
-3.03758
-3.03725
-3.03692
-3.03658
-3.03626
-3.03594
-3.03565
-3.03539
-3.03517
-3.03498
-3.03483
-3.03471
-3.03464
-3.03461
-3.03463
-3.16365
-3.16376
-3.16378
-3.16373
-3.1636
-3.16343
-3.16322
-3.16298
-3.16271
-3.16243
-3.16214
-3.16185
-3.16157
-3.1613
-3.16105
-3.16082
-3.16062
-3.16046
-3.16032
-3.16023
-3.16017
-3.16015
-3.16017
-3.28864
-3.28875
-3.28877
-3.28873
-3.28862
-3.28848
-3.28829
-3.28808
-3.28785
-3.28761
-3.28736
-3.28711
-3.28686
-3.28663
-3.28641
-3.28621
-3.28604
-3.2859
-3.28579
-3.2857
-3.28566
-3.28564
-3.28567
-3.41366
-3.41375
-3.41379
-3.41375
-3.41366
-3.41354
-3.41338
-3.4132
-3.413
-3.41279
-3.41257
-3.41236
-3.41214
-3.41194
-3.41175
-3.41158
-3.41144
-3.41131
-3.41121
-3.41115
-3.41111
-3.4111
-3.41113
-3.5387
-3.53879
-3.53882
-3.53879
-3.53872
-3.53861
-3.53848
-3.53832
-3.53815
-3.53797
-3.53778
-3.5376
-3.53741
-3.53724
-3.53708
-3.53693
-3.5368
-3.5367
-3.53661
-3.53656
-3.53653
-3.53653
-3.53655
-3.66377
-3.66385
-3.66388
-3.66386
-3.66379
-3.6637
-3.66358
-3.66345
-3.6633
-3.66315
-3.66299
-3.66283
-3.66267
-3.66252
-3.66238
-3.66225
-3.66215
-3.66206
-3.66199
-3.66194
-3.66192
-3.66192
-3.66195
-3.78887
-3.78894
-3.78895
-3.78893
-3.78888
-3.7888
-3.7887
-3.78859
-3.78846
-3.78833
-3.78819
-3.78805
-3.78792
-3.78779
-3.78767
-3.78756
-3.78747
-3.78739
-3.78734
-3.7873
-3.78729
-3.78729
-3.78733
-3.91399
-3.91404
-3.91404
-3.91402
-3.91397
-3.9139
-3.91382
-3.91373
-3.91362
-3.91351
-3.91339
-3.91327
-3.91316
-3.91305
-3.91294
-3.91285
-3.91278
-3.91271
-3.91267
-3.91264
-3.91263
-3.91264
-3.91267
-4.03913
-4.03916
-4.03914
-4.03911
-4.03907
-4.03902
-4.03895
-4.03887
-4.03878
-4.03868
-4.03858
-4.03848
-4.03839
-4.03829
-4.03821
-4.03813
-4.03807
-4.03801
-4.03798
-4.03796
-4.03795
-4.03797
-4.038
-4.16429
-4.16429
-4.16425
-4.16421
-4.16418
-4.16414
-4.16408
-4.16402
-4.16394
-4.16386
-4.16378
-4.16369
-4.16361
-4.16353
-4.16346
-4.1634
-4.16334
-4.1633
-4.16327
-4.16326
-4.16326
-4.16328
-4.16331
-4.28946
-4.28944
-4.28938
-4.28934
-4.28931
-4.28927
-4.28923
-4.28917
-4.28911
-4.28904
-4.28897
-4.2889
-4.28883
-4.28876
-4.2887
-4.28865
-4.28861
-4.28857
-4.28855
-4.28854
-4.28855
-4.28857
-4.28861
-4.41463
-4.4146
-4.41454
-4.4145
-4.41446
-4.41442
-4.41438
-4.41433
-4.41427
-4.41422
-4.41416
-4.4141
-4.41404
-4.41399
-4.41394
-4.41389
-4.41386
-4.41383
-4.41382
-4.41382
-4.41383
-4.41385
-4.41389
-4.53981
-4.53975
-4.5397
-4.53966
-4.53962
-4.53957
-4.53953
-4.53949
-4.53944
-4.5394
-4.53935
-4.5393
-4.53925
-4.53921
-4.53917
-4.53913
-4.5391
-4.53908
-4.53908
-4.53908
-4.53909
-4.53912
-4.53916
-4.66497
-4.66489
-4.66483
-4.6648
-4.66475
-4.66471
-4.66468
-4.66465
-4.66462
-4.66458
-4.66454
-4.6645
-4.66446
-4.66443
-4.66439
-4.66436
-4.66434
-4.66433
-4.66432
-4.66433
-4.66435
-4.66437
-4.66442
-4.79012
-4.79
-4.78993
-4.7899
-4.78987
-4.78985
-4.78983
-4.78981
-4.78979
-4.78976
-4.78973
-4.7897
-4.78967
-4.78964
-4.78961
-4.78959
-4.78957
-4.78956
-4.78956
-4.78957
-4.78959
-4.78962
-4.78967
-4.91523
-4.91509
-4.91501
-4.915
-4.91499
-4.91499
-4.91499
-4.91498
-4.91497
-4.91495
-4.91493
-4.9149
-4.91488
-4.91485
-4.91483
-4.91481
-4.9148
-4.91479
-4.91479
-4.9148
-4.91483
-4.91486
-4.91491
-5.04031
-5.04016
-5.04009
-5.0401
-5.04012
-5.04014
-5.04015
-5.04016
-5.04015
-5.04014
-5.04013
-5.04011
-5.04009
-5.04007
-5.04005
-5.04003
-5.04002
-5.04001
-5.04001
-5.04003
-5.04006
-5.0401
-5.04015
-5.16533
-5.16519
-5.16518
-5.16523
-5.16527
-5.16531
-5.16533
-5.16534
-5.16535
-5.16534
-5.16533
-5.16532
-5.1653
-5.16529
-5.16527
-5.16525
-5.16524
-5.16523
-5.16523
-5.16525
-5.16528
-5.16533
-5.16538
-5.29027
-5.29019
-5.2903
-5.2904
-5.29046
-5.2905
-5.29053
-5.29055
-5.29056
-5.29056
-5.29055
-5.29054
-5.29052
-5.29051
-5.29049
-5.29047
-5.29046
-5.29045
-5.29044
-5.29045
-5.2905
-5.29056
-5.29062
-5.41526
-5.4153
-5.41552
-5.41563
-5.41569
-5.41573
-5.41576
-5.41577
-5.41577
-5.41577
-5.41577
-5.41576
-5.41574
-5.41573
-5.41571
-5.41569
-5.41568
-5.41566
-5.41565
-5.41565
-5.4157
-5.4158
-5.41587
-5.54016
-5.54053
-5.5408
-5.5409
-5.54095
-5.54097
-5.54098
-5.54097
-5.54097
-5.54096
-5.54095
-5.54094
-5.54093
-5.54091
-5.54089
-5.54088
-5.54085
-5.54083
-5.54079
-5.54077
-5.54084
-5.54103
-5.54112
-5.6656
-5.6664
-5.6663
-5.66627
-5.66625
-5.66623
-5.66621
-5.66619
-5.66618
-5.66617
-5.66615
-5.66614
-5.66613
-5.66612
-5.66611
-5.66609
-5.66607
-5.66603
-5.66594
-5.66576
-5.66588
-5.66625
-5.66637
211.191
211.29
211.6
212.138
87.9608
88.1442
88.3912
88.7757
14.0649
14.105
14.2062
14.3781
-0.532316
-0.538724
-0.554866
-0.573514
-0.777233
-0.782307
-0.788281
-0.788659
-1.02571
-1.02594
-1.01771
-1.01138
-1.23332
-1.23034
-1.22758
-1.22418
-1.38606
-1.3859
-1.38945
-1.39173
-1.51846
-1.51843
-1.51946
-1.5207
-1.6467
-1.64668
-1.64699
-1.64738
-1.77392
-1.77387
-1.77395
-1.7741
-1.90074
-1.90071
-1.90073
-1.90081
-2.02736
-2.02736
-2.0274
-2.02748
-2.15379
-2.15381
-2.15388
-2.15398
-2.28
-2.28004
-2.28012
-2.28022
-2.40604
-2.40608
-2.40616
-2.40627
-2.53194
-2.53199
-2.53206
-2.53216
-2.65773
-2.65778
-2.65785
-2.65794
-2.78344
-2.78349
-2.78356
-2.78364
-2.90909
-2.90914
-2.9092
-2.90927
-3.03468
-3.03472
-3.03478
-3.03484
-3.16021
-3.16026
-3.16031
-3.16037
-3.28571
-3.28575
-3.2858
-3.28585
-3.41117
-3.41121
-3.41125
-3.4113
-3.5366
-3.53663
-3.53667
-3.53672
-3.66199
-3.66203
-3.66206
-3.66211
-3.78736
-3.7874
-3.78743
-3.78747
-3.91271
-3.91274
-3.91278
-3.91282
-4.03804
-4.03807
-4.0381
-4.03814
-4.16335
-4.16338
-4.16341
-4.16345
-4.28865
-4.28867
-4.2887
-4.28874
-4.41393
-4.41395
-4.41398
-4.41401
-4.53919
-4.53922
-4.53925
-4.53928
-4.66445
-4.66448
-4.6645
-4.66453
-4.7897
-4.78973
-4.78975
-4.78978
-4.91495
-4.91497
-4.915
-4.91502
-5.04019
-5.04021
-5.04024
-5.04026
-5.16542
-5.16545
-5.16547
-5.1655
-5.29066
-5.29069
-5.29071
-5.29073
-5.41591
-5.41593
-5.41595
-5.41597
-5.54116
-5.54118
-5.54119
-5.5412
-5.6664
-5.66641
-5.66643
-5.66643
213.22
214.485
215.817
217.48
219.446
221.655
223.994
226.444
229.138
232.286
236.166
239.815
242.39
243.349
244.114
245.564
247.653
248.017
248.077
89.7421
91.1128
92.6356
94.4199
96.4995
98.9467
101.599
104.287
106.971
109.68
112.584
115.512
118.083
119.946
121.607
123.223
124.998
125.501
125.021
14.7891
15.383
16.0521
16.8948
17.9143
19.1298
20.5393
22.0362
23.4399
24.5674
25.6067
26.8233
28.2205
29.5106
30.7219
31.5499
32.2088
32.3869
32.3268
-0.591394
-0.588271
-0.586516
-0.592877
-0.488401
-0.462304
-0.49098
-0.505123
-0.507407
-0.506578
-0.503365
-0.488909
-0.446506
-0.339277
-0.21664
-0.163277
-0.21214
-0.309016
-0.268853
-0.787504
-0.786821
-0.786418
-0.792768
-0.765221
-0.746581
-0.748584
-0.74982
-0.750085
-0.753184
-0.759007
-0.764798
-0.773556
-0.785705
-0.791618
-0.792209
-0.79917
-0.810958
-0.812303
-1.00489
-1.00334
-1.00506
-1.0095
-1.03387
-1.04674
-1.04896
-1.05108
-1.05234
-1.05004
-1.04772
-1.0499
-1.05328
-1.05997
-1.06401
-1.06874
-1.07657
-1.07526
-1.07758
-1.22525
-1.2285
-1.22941
-1.22372
-1.24435
-1.25656
-1.26075
-1.26321
-1.26579
-1.26837
-1.2707
-1.27264
-1.27168
-1.26994
-1.27318
-1.27791
-1.27544
-1.27743
-1.27483
-1.39423
-1.39537
-1.39613
-1.39439
-1.39402
-1.391
-1.39081
-1.39123
-1.39168
-1.39362
-1.39698
-1.40123
-1.40723
-1.41065
-1.41366
-1.41528
-1.41425
-1.41857
-1.41774
-1.52181
-1.5216
-1.52188
-1.52239
-1.52066
-1.51894
-1.51837
-1.51816
-1.51953
-1.52189
-1.52459
-1.52808
-1.53203
-1.53474
-1.53724
-1.53899
-1.53932
-1.54137
-1.54121
-1.64797
-1.64789
-1.6478
-1.64776
-1.64734
-1.6468
-1.64666
-1.64734
-1.6501
-1.65317
-1.65489
-1.65624
-1.65729
-1.6589
-1.66103
-1.66283
-1.66392
-1.66528
-1.66536
-1.77438
-1.77424
-1.77396
-1.77403
-1.77416
-1.77471
-1.77583
-1.77823
-1.78126
-1.78305
-1.78348
-1.78369
-1.78397
-1.78488
-1.78592
-1.787
-1.78827
-1.78931
-1.78945
-1.90099
-1.90103
-1.90104
-1.90133
-1.90166
-1.90264
-1.90515
-1.90808
-1.9098
-1.91011
-1.91055
-1.9113
-1.91256
-1.91316
-1.91291
-1.91279
-1.91286
-1.91314
-1.91363
-2.02769
-2.0282
-2.02883
-2.02921
-2.02977
-2.03075
-2.03288
-2.03493
-2.03568
-2.03655
-2.038
-2.03908
-2.03965
-2.03982
-2.03968
-2.03914
-2.03802
-2.03782
-2.0386
-2.15423
-2.15501
-2.15607
-2.15676
-2.15733
-2.15799
-2.15891
-2.16016
-2.16111
-2.16226
-2.16389
-2.1647
-2.16455
-2.16449
-2.1645
-2.16432
-2.16387
-2.16395
-2.1646
-2.28048
-2.28115
-2.28217
-2.28306
-2.28343
-2.28379
-2.28455
-2.2855
-2.28638
-2.28733
-2.28837
-2.28901
-2.28919
-2.28931
-2.28948
-2.28975
-2.29019
-2.29063
-2.29106
-2.4065
-2.40704
-2.40776
-2.40842
-2.4089
-2.40938
-2.41004
-2.41082
-2.41158
-2.41236
-2.41314
-2.41369
-2.41399
-2.41423
-2.41454
-2.41501
-2.41576
-2.41637
-2.41663
-2.53237
-2.53281
-2.53336
-2.5339
-2.53438
-2.53487
-2.53546
-2.53612
-2.53678
-2.53744
-2.53807
-2.53855
-2.5389
-2.5392
-2.53955
-2.54
-2.54057
-2.54106
-2.54131
-2.65812
-2.65849
-2.65895
-2.65941
-2.65986
-2.66033
-2.66085
-2.66142
-2.66199
-2.66255
-2.66308
-2.66352
-2.66388
-2.66419
-2.66452
-2.66489
-2.66531
-2.66568
-2.66591
-2.7838
-2.78412
-2.7845
-2.78491
-2.78533
-2.78576
-2.78622
-2.78672
-2.78722
-2.78771
-2.78816
-2.78856
-2.78891
-2.78921
-2.78949
-2.78977
-2.79003
-2.79026
-2.79045
-2.90941
-2.90969
-2.91001
-2.91038
-2.91076
-2.91116
-2.91157
-2.91201
-2.91245
-2.91289
-2.9133
-2.91366
-2.91398
-2.91425
-2.91449
-2.91466
-2.91477
-2.91485
-2.91491
-3.03497
-3.03521
-3.0355
-3.03582
-3.03616
-3.03653
-3.03691
-3.0373
-3.0377
-3.03809
-3.03846
-3.0388
-3.03909
-3.03935
-3.03955
-3.03966
-3.03966
-3.03964
-3.03952
-3.16048
-3.1607
-3.16095
-3.16124
-3.16155
-3.16188
-3.16223
-3.16258
-3.16295
-3.16331
-3.16365
-3.16397
-3.16425
-3.1645
-3.1647
-3.16482
-3.16484
-3.1649
-3.16474
-3.28596
-3.28615
-3.28638
-3.28663
-3.28692
-3.28722
-3.28754
-3.28787
-3.2882
-3.28853
-3.28886
-3.28916
-3.28945
-3.28971
-3.28994
-3.29012
-3.29024
-3.29052
-3.29039
-3.4114
-3.41157
-3.41178
-3.41201
-3.41227
-3.41255
-3.41284
-3.41314
-3.41345
-3.41376
-3.41407
-3.41437
-3.41466
-3.41494
-3.41521
-3.41547
-3.41569
-3.41611
-3.41594
-3.53681
-3.53697
-3.53715
-3.53737
-3.5376
-3.53786
-3.53813
-3.53841
-3.5387
-3.539
-3.53929
-3.53959
-3.53988
-3.54017
-3.54047
-3.54079
-3.54113
-3.5415
-3.54138
-3.66219
-3.66234
-3.66251
-3.66271
-3.66292
-3.66316
-3.66341
-3.66367
-3.66395
-3.66423
-3.66451
-3.6648
-3.66509
-3.66539
-3.66571
-3.66606
-3.66645
-3.66678
-3.6668
-3.78755
-3.78769
-3.78784
-3.78803
-3.78823
-3.78845
-3.78868
-3.78893
-3.78918
-3.78945
-3.78972
-3.79
-3.79028
-3.79058
-3.79089
-3.79123
-3.7916
-3.79184
-3.79191
-3.91289
-3.91302
-3.91316
-3.91333
-3.91352
-3.91372
-3.91394
-3.91417
-3.91441
-3.91466
-3.91492
-3.91518
-3.91546
-3.91573
-3.91601
-3.9163
-3.91656
-3.91663
-3.91644
-4.03821
-4.03833
-4.03846
-4.03862
-4.03879
-4.03898
-4.03918
-4.0394
-4.03963
-4.03986
-4.04011
-4.04036
-4.04061
-4.04086
-4.04111
-4.04133
-4.04147
-4.0414
-4.041
-4.16351
-4.16362
-4.16375
-4.16389
-4.16405
-4.16423
-4.16442
-4.16462
-4.16484
-4.16506
-4.16529
-4.16552
-4.16576
-4.16598
-4.16619
-4.16636
-4.16643
-4.16629
-4.16586
-4.2888
-4.2889
-4.28902
-4.28915
-4.2893
-4.28947
-4.28964
-4.28983
-4.29003
-4.29024
-4.29046
-4.29068
-4.2909
-4.2911
-4.29128
-4.29141
-4.29144
-4.29128
-4.2909
-4.41407
-4.41417
-4.41428
-4.4144
-4.41454
-4.4147
-4.41486
-4.41504
-4.41522
-4.41542
-4.41563
-4.41583
-4.41603
-4.41622
-4.41637
-4.41646
-4.41645
-4.41625
-4.41589
-4.53933
-4.53942
-4.53953
-4.53964
-4.53977
-4.53991
-4.54007
-4.54023
-4.54041
-4.54059
-4.54078
-4.54098
-4.54117
-4.54134
-4.54147
-4.54153
-4.54146
-4.54119
-4.54072
-4.66459
-4.66467
-4.66477
-4.66487
-4.66499
-4.66512
-4.66526
-4.66542
-4.66558
-4.66576
-4.66594
-4.66612
-4.66631
-4.66647
-4.6666
-4.66664
-4.66653
-4.66621
-4.66567
-4.78983
-4.78991
-4.79
-4.7901
-4.79021
-4.79032
-4.79045
-4.79059
-4.79075
-4.79091
-4.79108
-4.79127
-4.79145
-4.79162
-4.79175
-4.7918
-4.7917
-4.79137
-4.79082
-4.91507
-4.91514
-4.91522
-4.91531
-4.91541
-4.91552
-4.91563
-4.91576
-4.9159
-4.91605
-4.91622
-4.9164
-4.91659
-4.91677
-4.91693
-4.91702
-4.91696
-4.91664
-4.91606
-5.04031
-5.04037
-5.04044
-5.04052
-5.04061
-5.0407
-5.0408
-5.04092
-5.04105
-5.04119
-5.04134
-5.04152
-5.04172
-5.04192
-5.04213
-5.04229
-5.04231
-5.04199
-5.04137
-5.16554
-5.1656
-5.16566
-5.16573
-5.1658
-5.16588
-5.16597
-5.16607
-5.16618
-5.1663
-5.16645
-5.16662
-5.16682
-5.16706
-5.16732
-5.16759
-5.16773
-5.16744
-5.16677
-5.29077
-5.29082
-5.29087
-5.29092
-5.29098
-5.29105
-5.29112
-5.2912
-5.2913
-5.2914
-5.29153
-5.29169
-5.29189
-5.29215
-5.29248
-5.29289
-5.29325
-5.29302
-5.29233
-5.41599
-5.41603
-5.41607
-5.41611
-5.41616
-5.41621
-5.41626
-5.41633
-5.4164
-5.41648
-5.41659
-5.41672
-5.4169
-5.41715
-5.41752
-5.41813
-5.41888
-5.41879
-5.41824
-5.54122
-5.54124
-5.54127
-5.5413
-5.54133
-5.54136
-5.5414
-5.54144
-5.54149
-5.54154
-5.54161
-5.5417
-5.54182
-5.54201
-5.54235
-5.54309
-5.54443
-5.54488
-5.54491
-5.66644
-5.66646
-5.66647
-5.66648
-5.6665
-5.66652
-5.66654
-5.66656
-5.66658
-5.6666
-5.66663
-5.66666
-5.66671
-5.6668
-5.667
-5.66754
-5.66908
-5.67099
-5.67264
)
;

boundaryField
{
    leftWall
    {
        type            calculated;
        value           nonuniform List<scalar> 
50
(
747.284
688.509
629.794
571.148
512.571
454.06
395.616
337.238
246.088
122.487
30.9048
-0.275827
-0.79356
-1.08676
-1.28722
-1.42149
-1.54538
-1.66934
-1.79337
-1.91747
-2.04167
-2.16596
-2.29037
-2.41488
-2.53949
-2.66419
-2.78896
-2.9138
-3.0387
-3.16365
-3.28864
-3.41366
-3.5387
-3.66377
-3.78887
-3.91399
-4.03913
-4.16429
-4.28946
-4.41463
-4.53981
-4.66497
-4.79012
-4.91523
-5.04031
-5.16533
-5.29027
-5.41526
-5.54016
-5.6656
)
;
    }
    rightWall
    {
        type            calculated;
        value           nonuniform List<scalar> 
50
(
746.595
688.098
629.608
571.25
513.031
454.899
396.796
338.702
248.077
125.021
32.3268
-0.268853
-0.812303
-1.07758
-1.27483
-1.41774
-1.54121
-1.66536
-1.78945
-1.91363
-2.0386
-2.1646
-2.29106
-2.41663
-2.54131
-2.66591
-2.79045
-2.91491
-3.03952
-3.16474
-3.29039
-3.41594
-3.54138
-3.6668
-3.79191
-3.91644
-4.041
-4.16586
-4.2909
-4.41589
-4.54072
-4.66567
-4.79082
-4.91606
-5.04137
-5.16677
-5.29233
-5.41824
-5.54491
-5.67264
)
;
    }
    lowerWall
    {
        type            calculated;
        value           nonuniform List<scalar> 
62
(
776.713
776.336
775.706
774.804
773.655
772.286
770.725
769.003
767.151
765.202
763.19
761.148
759.102
757.067
755.048
753.032
751.082
749.314
747.963
746.835
746.162
745.936
745.614
716.255
657.298
598.244
539.147
480.011
420.83
361.576
302.261
273.779
273.874
274.188
274.73
720.411
661.989
603.352
544.35
485.09
425.737
366.275
306.68
749.559
750.558
751.753
752.998
754.325
755.78
757.425
759.147
760.829
762.349
763.827
765.608
767.603
767.967
771.46
773.59
774.532
775.393
775.897
)
;
    }
    atmosphere
    {
        type            calculated;
        value           nonuniform List<scalar> 
46
(
-5.72915
-5.72904
-5.72904
-5.72904
-5.72904
-5.72904
-5.72904
-5.72904
-5.72904
-5.72904
-5.72904
-5.72904
-5.72904
-5.72904
-5.72904
-5.72904
-5.72904
-5.72904
-5.72904
-5.72904
-5.72904
-5.72904
-5.72904
-5.72905
-5.72905
-5.72905
-5.72906
-5.72906
-5.72907
-5.72908
-5.72909
-5.72909
-5.7291
-5.72912
-5.72913
-5.72914
-5.72915
-5.72915
-5.72916
-5.72917
-5.72917
-5.72916
-5.72915
-5.72912
-5.72906
-5.73857
)
;
    }
    defaultFaces
    {
        type            empty;
    }
}


// ************************************************************************* //
