/*--------------------------------*- C++ -*----------------------------------*\
  =========                 |
  \\      /  F ield         | OpenFOAM: The Open Source CFD Toolbox
   \\    /   O peration     | Website:  https://openfoam.org
    \\  /    A nd           | Version:  9
     \\/     M anipulation  |
\*---------------------------------------------------------------------------*/
FoamFile
{
    format      ascii;
    class       volScalarField;
    location    "15.5";
    object      p;
}
// * * * * * * * * * * * * * * * * * * * * * * * * * * * * * * * * * * * * * //

dimensions      [0 2 -2 0 0 0 0];

internalField   nonuniform List<scalar> 
918
(
23.4553
23.603
0.977446
22.8726
1.00019
23.1194
3.30918
13.7938
19.2285
2.94412
2.6378
14.3944
20.6624
16.9038
13.0223
0.925878
14.046
2.2727
18.446
1.4034
13.016
20.434
21.5227
19.2703
14.1089
14.3972
18.6247
1.17281
0.112577
0.269927
0.972256
0.409023
0.153367
21.6563
22.333
22.2713
15.4813
10.4246
3.62909
3.83137
3.01995
2.84307
13.8348
13.9332
5.88079
13.775
13.7723
16.6301
19.0965
19.2401
19.5334
19.3224
19.7088
5.97146
2.8
2.62016
2.8883
2.95929
2.9724
2.71169
2.69152
2.49778
2.35171
13.8746
14.4675
14.5226
14.2541
14.2018
22.479
21.722
22.0568
21.1631
21.3086
20.2385
19.8529
17.2794
17.6319
16.5057
16.1248
12.8125
12.7732
13.2426
13.4914
0.147874
1.07292
1.22051
14.0522
14.0877
14.0908
14.1063
8.30626
2.21798
2.2213
17.8864
17.4629
20.4678
20.735
20.182
19.9965
1.53952
1.5368
1.16539
1.19044
0.95894
13.3539
13.5065
19.2217
18.3886
14.1414
14.042
14.1165
11.4887
13.898
13.9718
15.3487
15.804
14.9928
15.4296
18.1947
17.7767
19.0613
19.4985
0.401589
0.15811
0.689869
0.32131
0.518785
15.3497
15.1443
15.5968
15.648
15.8792
10.4283
10.3561
10.4048
10.3248
4.17508
4.48794
2.2879
2.60712
2.45525
9.89519
13.948
13.9927
4.83165
5.53105
5.19823
6.35745
6.7302
15.9959
16.4324
16.1712
17.7174
16.9224
17.2705
19.7995
19.2887
19.5892
6.36878
6.60879
5.60509
5.24696
2.26334
2.50521
2.44841
2.99138
2.96942
3.20536
3.33781
2.68882
2.54622
2.90388
2.78869
2.83936
2.18148
2.05023
13.5988
13.3849
14.1375
14.316
15.0824
14.9341
14.6407
14.8095
19.048
19.4515
19.4849
19.1008
11.5682
10.1672
13.746
14.021
0.302965
0.267299
0.136694
0.380106
0.399459
0.142225
2.00974
1.82117
1.40195
1.67651
14.0482
14.0072
8.54812
8.76954
8.14149
7.88303
16.3005
16.4507
17.0849
16.6847
1.97577
1.68828
1.81829
13.6649
13.5402
13.6458
10.9243
10.3594
11.9656
12.235
13.9819
14.0244
14.0209
15.7082
16.0267
19.8494
20.12
19.9469
20.3327
21.3955
21.0468
20.662
14.5257
14.934
14.7725
16.1141
15.7477
15.9672
15.175
15.4797
15.3376
10.3867
10.432
10.1465
10.2239
10.2702
10.218
9.83246
9.70542
14.0748
14.033
14.0552
7.25476
7.75134
4.8654
4.53601
12.5311
13.204
12.8798
18.6777
18.0001
18.733
18.3622
17.9122
18.2357
10.4421
10.4016
10.4357
14.9444
14.2828
14.6344
2.43017
2.06856
2.23202
8.96669
9.05953
6.98017
7.60299
7.26396
16.3282
16.6686
17.3488
16.4605
16.9281
17.4354
17.2135
9.96852
10.1005
10.0175
9.69019
9.58325
9.72775
8.33326
8.94477
3.60393
4.26162
3.95742
9.22807
9.45935
9.3059
18.6163
19.1511
0.775804
1.17439
19.5811
19.3047
0.14502
0.242692
14.2807
12.5755
7.26759
17.1833
16.6162
18.9559
3.19514
6.10455
2.81553
3.37814
2.68521
14.6011
14.2366
13.3282
0.460039
1.25689
1.71309
2.91663
18.3967
17.7216
18.8376
19.1578
19.2121
0.691606
0.923257
0.58601
1.25338
1.03821
1.28098
15.5375
15.6349
4.35167
18.8446
19.1489
19.1666
17.6433
18.596
17.6535
0.935873
0.642605
0.711511
10.0725
12.1112
14.2408
13.7932
13.9905
14.0128
13.764
14.8968
14.5668
14.5313
15.0157
13.9688
13.8306
7.73198
6.39008
8.06859
7.70823
17.0847
16.6725
16.4798
16.2255
18.071
17.5971
18.4475
17.8358
18.2977
18.5845
2.94773
3.13692
3.01891
2.53255
6.14419
6.61549
5.48796
5.6338
4.25638
2.44282
2.5376
2.75884
2.59375
2.93172
2.67983
2.94133
2.575
2.3228
2.319
2.92856
2.73903
2.60234
14.5794
14.518
14.3189
14.357
14.3408
14.4562
13.5225
13.9268
13.5544
12.3877
12.9671
12.4944
0.82684
0.657143
0.528776
1.32624
1.35253
1.11724
0.842786
1.1834
1.20414
0.827351
1.54477
1.4561
3.17101
2.66698
8.8664
7.99125
6.89734
16.7868
17.5886
16.7583
17.9989
18.4158
18.5213
18.1417
17.6335
15.7156
15.7107
15.3709
15.3242
4.78318
3.75565
4.98083
4.55291
10.4984
14.0553
11.8318
10.7945
11.0891
13.4096
13.9568
13.607
13.7478
13.319
12.847
13.542
13.074
13.1749
12.9516
15.7449
16.22
15.8264
15.2469
15.267
10.6145
12.0172
5.47796
5.6473
7.23907
6.53707
13.5294
13.9332
13.9164
13.566
13.757
13.7482
13.6095
13.7815
13.8671
13.7597
11.8136
10.1346
9.03912
9.03319
14.071
12.3391
12.9257
12.3993
16.1063
16.6229
16.2375
15.6325
16.1175
15.5893
15.6162
15.8291
17.1876
16.9372
16.707
17.0939
3.0623
3.00972
3.64786
3.1439
3.04466
2.83323
3.48867
4.75571
4.41492
6.72083
7.2654
4.57753
3.38288
3.79392
4.8027
5.53755
5.51611
3.97062
4.49965
4.92442
4.43924
5.22458
4.72769
2.72465
3.02606
2.86679
2.8428
3.38104
3.87586
3.37258
2.48364
2.59822
2.26969
2.1325
3.53387
2.99995
3.03595
3.67851
1.10525
1.32874
1.4438
2.41574
1.91181
1.97486
15.1684
14.8123
14.946
14.2251
14.293
14.2343
13.8582
15.2265
14.9487
15.048
13.6968
13.7835
13.5969
13.892
14.3068
14.6061
15.4384
15.1593
14.3984
14.5498
14.201
14.1291
13.452
12.8882
12.8281
1.11168
0.820032
0.985383
0.919762
0.612995
0.807258
2.18092
1.57159
1.97099
1.72469
1.95709
1.41493
1.3034
4.25385
5.0518
3.97038
3.37825
3.0909
8.92248
9.03569
8.17901
7.8704
8.21353
8.44885
8.39886
7.14497
7.57897
7.38929
9.94394
9.60947
17.5729
17.517
17.1882
17.0293
17.2557
5.76659
7.65356
6.79769
7.91675
10.2251
10.5259
9.31526
8.71428
9.4736
9.54508
14.0375
14.1142
13.5529
14.039
14.067
11.8215
12.8699
13.4833
13.2967
13.8187
13.9006
12.9636
13.551
13.4627
12.7436
12.7986
12.1154
12.4529
11.9801
11.7805
14.0416
13.9367
14.2064
13.757
14.1362
13.7016
14.016
14.0151
14.2957
13.3967
12.8188
12.8385
13.2637
12.9623
13.309
13.4719
9.30535
9.95304
10.4022
10.94
10.65
10.4278
10.2945
10.5972
10.5765
10.8449
10.7647
10.6127
11.5602
13.4407
13.7235
13.8297
13.6138
13.6594
13.3529
13.6298
13.5563
13.9144
14.0055
14.0537
13.1374
13.2988
13.4995
13.3802
11.6709
10.0777
9.93768
9.49844
7.56811
8.04201
11.0107
9.89433
8.91158
8.98081
12.1567
10.794
11.6059
12.0282
10.6805
10.2941
12.9604
13.7516
13.9705
13.6912
12.0473
12.1743
12.6245
13.0712
13.2629
13.723
15.8466
16.4221
16.5
16.2242
16.0861
16.1858
15.9358
16.039
16.5131
16.6396
16.4708
2.88856
3.00006
2.93147
2.8572
3.08904
2.86715
3.953
3.94307
3.15986
3.33949
3.35827
3.46706
2.93596
2.97856
4.82053
5.05475
5.32892
4.8309
6.17052
6.82379
7.40623
7.08671
5.78509
5.86642
6.18397
3.50643
3.53088
3.25052
3.70363
3.7599
2.61899
2.248
2.04986
2.57064
2.67123
2.05815
1.77838
1.82913
2.337
2.06447
1.8164
14.9614
14.7198
14.7412
14.521
14.5756
14.9702
15.191
15.0008
15.1391
15.19
14.7894
14.678
14.8492
1.82121
1.4861
1.62964
1.5874
1.63656
1.54987
1.73638
7.60958
6.40918
6.79332
5.97872
4.12568
4.64219
9.56221
9.98669
10.0252
9.73776
9.52509
9.88998
9.74329
9.73677
8.26987
9.3491
8.8779
9.28738
9.30873
9.37791
9.08506
9.07374
10.5824
10.613
9.47803
10.1232
9.32541
7.92779
8.09352
9.10612
10.0787
10.4245
10.2658
9.98742
9.76006
10.135
10.1879
10.2517
10.2418
8.75249
8.70629
8.29644
13.9594
13.8671
14.0142
14.0184
14.1471
13.9659
13.8029
14.0809
14.1355
13.9191
11.0931
11.1544
11.3997
12.153
12.2055
12.0985
11.3438
13.1163
12.7663
13.4124
13.3552
13.4202
13.0054
12.8319
13.1071
10.0689
11.4403
10.9714
11.2371
10.0522
9.29886
13.2165
13.2686
13.3389
13.6136
13.5668
14.1533
15.8164
15.6863
15.7338
15.7768
15.3885
15.4256
4.17358
3.82854
4.54371
4.50326
4.06339
3.76605
2.29067
1.97447
1.78976
1.66272
1.89069
1.94978
8.15766
8.19069
6.32806
7.35497
5.88481
4.9449
4.79705
5.95595
7.13681
7.20113
8.52186
9.21005
8.76605
8.59315
7.92858
8.26231
10.1423
10.2345
10.1358
10.455
9.9876
11.7304
11.3129
11.6628
13.2816
12.9856
12.3861
12.2737
12.2412
12.8376
11.9399
11.1658
11.8816
12.5463
12.5029
11.1342
10.8889
11.315
11.2943
10.2064
10.7318
10.4933
10.8433
10.5528
)
;

boundaryField
{
    wall-4
    {
        type            zeroGradient;
    }
    velocity-inlet-5
    {
        type            zeroGradient;
    }
    velocity-inlet-6
    {
        type            zeroGradient;
    }
    pressure-outlet-7
    {
        type            fixedValue;
        value           uniform 0;
    }
    wall-8
    {
        type            zeroGradient;
    }
    frontAndBackPlanes
    {
        type            empty;
    }
}


// ************************************************************************* //
