/*--------------------------------*- C++ -*----------------------------------*\
  =========                 |
  \\      /  F ield         | OpenFOAM: The Open Source CFD Toolbox
   \\    /   O peration     | Website:  https://openfoam.org
    \\  /    A nd           | Version:  9
     \\/     M anipulation  |
\*---------------------------------------------------------------------------*/
FoamFile
{
    format      ascii;
    class       volVectorField;
    location    "15.5";
    object      U;
}
// * * * * * * * * * * * * * * * * * * * * * * * * * * * * * * * * * * * * * //

dimensions      [0 1 -1 0 0 0 0];

internalField   nonuniform List<vector> 
918
(
(2.47629 -0.138943 0)
(0.108704 0.722546 0)
(0.173545 1.08617 0)
(2.31834 0.153729 0)
(-0.0589447 1.2453 -1.20603e-19)
(-0.0924034 0.643931 -5.32018e-18)
(0.524038 0.841036 -2.98683e-19)
(0.275725 0.153528 -2.9902e-20)
(3.00615 -0.0195629 0)
(-0.00873038 0.477476 0)
(-0.0179775 0.595512 0)
(0.605644 0.00671554 0)
(0.0107054 0.439105 0)
(-0.00288611 0.421695 0)
(0.013774 0.341915 -1.30809e-18)
(-0.00534978 0.757035 -9.19682e-20)
(0.313164 0.0743967 2.15127e-18)
(0.0786546 0.639308 -2.25509e-19)
(1.52886 0.128624 0)
(-0.028068 0.698435 0)
(0.19595 0.15858 -1.26785e-18)
(3.08302 -0.397376 0)
(2.92445 -0.505984 0)
(1.86116 -0.181102 0)
(0.512079 0.0401003 0)
(-0.0253496 0.521565 0)
(-0.00135325 0.494038 1.86502e-18)
(-0.0242344 1.43382 0)
(0.0725178 2.94033 0)
(0.169154 1.77898 0)
(-0.0415966 3.11238 0)
(0.0258635 1.60894 9.27271e-20)
(0.0221739 0.674546 0)
(-0.147425 0.775093 -2.03341e-22)
(-0.193914 1.0291 4.42652e-18)
(-0.0415772 1.04471 0)
(0.744458 -0.0060206 0)
(0.162722 0.24881 6.66903e-19)
(0.982416 1.49819 6.58012e-19)
(0.642542 0.775871 -5.19838e-19)
(0.790806 1.55992 6.27953e-20)
(0.412537 0.84346 -3.24325e-19)
(0.555405 0.308169 2.94081e-20)
(0.298299 0.154212 0)
(0.955713 0.561812 0)
(0.536138 0.305724 1.32129e-19)
(0.259602 0.163671 -1.35584e-19)
(0.871558 -0.0554856 0)
(3.02784 -0.00170935 0)
(3.00685 0.0178633 0)
(3.20086 -0.417738 0)
(3.04288 -0.0742167 0)
(3.03116 -0.0388439 0)
(0.0179794 0.909215 -1.14592e-18)
(-0.0540419 0.973594 0)
(0.00259022 0.454679 0)
(-0.0291424 0.982432 0)
(-0.0118533 0.48295 0)
(-0.00208772 0.866258 0)
(-0.0527901 1.12097 0)
(-0.0129205 0.546358 0)
(-0.0265216 1.17602 0)
(-0.0066506 0.629728 0)
(0.790006 0.0115547 0)
(1.17018 -0.00162527 0)
(0.618582 0.0123433 0)
(1.12673 0.0175856 0)
(0.570255 0.00864511 0)
(0.225406 0.921982 1.96221e-18)
(0.0985378 1.2081 0)
(0.176302 1.06604 0)
(0.0331901 0.755774 2.20214e-23)
(0.0372233 0.498055 -2.93465e-18)
(0.0194616 0.747943 0)
(0.0059542 0.422033 0)
(-0.000698923 0.734552 4.52447e-24)
(0.000701569 0.414826 0)
(-0.0169344 0.743196 0)
(-0.0129493 0.428 0)
(0.0503104 0.65283 0)
(0.0491881 0.460771 0)
(0.00848089 0.623394 1.23677e-18)
(0.000986361 0.345295 0)
(-0.0788735 4.67064 0)
(0.0079553 1.43767 9.13052e-20)
(-0.0105374 0.775133 -1.17388e-19)
(0.637833 0.152524 -7.50604e-19)
(0.322304 0.0657645 -7.28306e-19)
(0.646836 0.170221 -2.2538e-18)
(0.318429 0.0958019 -1.45125e-18)
(0.0793937 0.625637 0)
(0.176453 1.30541 1.87417e-19)
(0.17783 0.725047 -2.99038e-19)
(2.06034 0.260933 0)
(1.10706 0.118443 0)
(3.03313 0.103885 0)
(3.10392 0.446056 0)
(2.83919 0.377453 -1.01207e-17)
(2.57811 0.361308 7.76585e-18)
(-0.0716804 1.28633 0)
(-0.0115834 0.6351 0)
(-0.0167318 1.94444 0)
(-0.0528596 1.37533 0)
(-0.0495799 0.693637 0)
(0.443192 0.297907 4.01346e-19)
(0.226828 0.164422 0)
(2.29608 -0.266402 0)
(1.32371 -0.119279 0)
(1.07745 0.0125889 0)
(1.01335 0.0187172 0)
(0.541515 0.0107774 0)
(1.01806 0.0561309 0)
(0.822434 0.0704467 0)
(0.344076 0.0287278 3.36027e-18)
(-0.00545057 0.451544 1.77668e-18)
(-0.0270705 0.784684 0)
(-0.0474511 0.847686 0)
(-0.015301 0.460522 0)
(0.000131928 0.839725 1.81863e-18)
(7.23201e-05 0.48753 0)
(-0.00547898 0.845554 -5.59823e-18)
(-0.00488635 0.496761 1.88896e-18)
(0.0485058 3.62123 0)
(0.0354838 4.07002 0)
(-0.0165755 1.38836 -2.06139e-21)
(-0.0142667 1.34018 0)
(-0.00999172 0.729554 0)
(1.40991 0.0348413 0)
(0.760372 0.0154053 0)
(0.709631 0.0142522 0)
(1.41599 -0.0328743 0)
(0.773427 -0.00875741 0)
(0.325556 0.485304 -8.37337e-19)
(0.158349 0.234925 0)
(0.328632 0.514788 9.38527e-20)
(0.165184 0.271352 0)
(1.22836 1.37161 1.67608e-19)
(0.770989 0.732981 -3.94546e-19)
(0.408266 1.41071 0)
(0.601143 1.52029 0)
(0.300533 0.808306 0)
(0.147213 0.357861 -4.44162e-19)
(0.610272 0.281914 0)
(0.314632 0.135015 3.98862e-19)
(1.4146 1.29323 0)
(1.5745 1.15797 0)
(0.867482 0.657564 4.63481e-19)
(1.72255 0.94579 0)
(1.0621 0.435625 2.30671e-20)
(1.47284 0.00811089 0)
(1.50091 -0.0292563 0)
(0.801836 -0.00442806 0)
(1.95039 -0.19979 0)
(1.65077 -0.148193 0)
(1.05213 -0.0889761 0)
(3.06126 0.164849 0)
(3.03105 0.0687825 0)
(3.01022 0.0531562 0)
(0.03413 1.61789 6.08113e-19)
(0.0172402 0.834992 0)
(0.0168988 1.70615 1.07926e-18)
(0.00234281 0.943468 -9.70223e-19)
(0.0639762 1.14709 1.89947e-19)
(0.0474242 0.98657 0)
(0.0394541 0.527578 0)
(-0.0293912 1.0088 0)
(-0.00748509 0.519867 0)
(0.0166989 1.61092 -4.42096e-21)
(-0.0188205 0.864814 0)
(-0.0542485 1.57611 -2.25001e-19)
(-0.0164581 0.816011 4.35673e-19)
(-0.00261662 1.03548 0)
(0.00967346 1.05175 0)
(-0.000460373 0.535104 0)
(0.00939564 1.18767 0)
(0.00027707 0.622123 0)
(1.46728 -0.00387645 0)
(0.788588 0.00797086 0)
(1.43981 0.0330799 0)
(0.761455 -0.000593011 0)
(0.675595 0.00531631 0)
(1.26242 0.0166329 0)
(1.20298 0.0472809 0)
(0.659967 0.0155248 0)
(-0.00580067 1.42077 -1.70448e-20)
(0.000184273 1.37708 0)
(0.00482009 0.732923 0)
(0.00172889 0.417221 0)
(0.287277 0.834604 0)
(0.255966 0.402999 -2.8748e-19)
(-0.00190854 0.635812 0)
(-0.00879803 0.36763 0)
(0.000924142 4.36629 0)
(-0.0591122 4.65644 0)
(-0.0302836 4.57794 0)
(-0.0764657 3.31905 2.06866e-20)
(-0.069951 4.57031 0)
(-0.0608348 4.13484 0)
(0.00409854 0.810582 1.07044e-20)
(0.0133429 1.54508 1.64886e-19)
(-0.0357584 1.48414 1.20611e-19)
(-0.00792919 0.816136 0)
(0.665966 0.105925 1.15257e-18)
(0.326281 0.0441906 -1.12955e-18)
(0.151234 1.14698 0)
(0.102174 0.58021 -2.70055e-19)
(0.119745 1.24771 -8.76603e-19)
(0.0524034 0.69523 8.72101e-19)
(0.809263 0.0240497 0)
(1.55686 0.0476568 0)
(1.70975 0.12764 0)
(0.919882 0.0445145 0)
(0.00707851 1.20129 0)
(0.0249079 1.21141 0)
(0.00395211 0.638619 0)
(0.485669 0.317323 1.20482e-18)
(0.440077 0.311505 -1.38837e-18)
(0.236342 0.165251 0)
(1.93135 0.151997 1.15126e-19)
(1.13362 0.0926765 0)
(1.72154 0.118055 0)
(0.882465 0.0225117 0)
(0.679479 0.0858244 0)
(0.700847 0.0461318 -5.40327e-18)
(0.347219 0.0326111 1.99751e-18)
(0.00911287 0.807229 1.69655e-18)
(0.00221211 0.462489 4.08143e-20)
(-0.0108777 1.40842 -3.58487e-20)
(0.00613614 1.38675 1.36766e-18)
(-0.0149832 0.848955 6.30286e-20)
(-0.0119261 0.524486 -2.5324e-22)
(-0.107514 1.00068 -1.16635e-18)
(-0.0529602 1.3532 8.35046e-19)
(-0.0175323 1.35275 -1.35955e-18)
(1.42218 -0.0171417 0)
(1.44196 0.02025 0)
(0.769614 -0.000220989 0)
(1.45231 0.0253615 0)
(1.36338 0.0462126 0)
(0.761626 0.0202928 0)
(1.30097 -0.00218874 0)
(1.31893 -0.00588721 0)
(0.695218 -0.00101353 0)
(0.307866 0.478108 -9.1663e-19)
(0.162901 0.244952 0)
(0.15898 0.311866 1.37314e-19)
(0.313155 0.592668 1.12498e-18)
(0.310923 0.554858 -6.65978e-19)
(0.158564 0.285023 1.30132e-18)
(0.281953 0.726995 2.188e-18)
(0.150125 0.385606 3.9486e-19)
(0.638334 0.213878 1.5372e-18)
(0.628514 0.254606 3.99264e-19)
(0.317565 0.11533 7.49241e-19)
(1.91122 0.709431 -6.00043e-19)
(1.16231 0.333876 -7.01988e-19)
(-0.0364463 1.71013 4.63845e-19)
(-0.0123378 0.928168 0)
(1.60185 0.0235589 0)
(1.52051 0.0651646 0)
(0.852063 0.0266943 0)
(-0.00355911 1.38473 0)
(0.00507338 0.729575 2.4988e-18)
(0.00465018 0.731252 0)
(0.00207058 0.415097 -2.44576e-18)
(-0.0102767 1.38627 5.96559e-19)
(-0.00947352 1.4225 0)
(0.339789 0.492753 2.5832e-19)
(0.363343 0.551314 -8.64155e-19)
(0.173437 0.260147 7.82138e-19)
(-0.025694 0.767357 -1.66559e-18)
(-0.0260955 0.689689 0)
(-0.0154232 0.412856 0)
(0.0293177 1.53706 -1.26741e-20)
(0.03031 1.56594 -3.63569e-19)
(0.0171726 0.815886 -1.54796e-20)
(0.215932 1.05657 8.92695e-19)
(0.120985 0.515018 -5.94044e-19)
(0.0112699 1.49915 7.31715e-19)
(0.0557373 1.36574 -8.1696e-19)
(0.0266118 0.768474 3.56341e-20)
(0.00749167 1.36614 -3.81375e-18)
(-0.000233385 1.39326 4.41654e-18)
(0.0037705 0.829773 1.73563e-18)
(-0.0138409 0.805081 -1.72824e-18)
(-0.00431196 0.481394 -1.74127e-18)
(-0.0106556 1.41685 -4.50673e-18)
(-0.0152244 1.40032 4.59608e-18)
(0.290148 0.683298 0)
(0.303527 0.642194 -2.29404e-18)
(0.153859 0.335669 9.9315e-19)
(0.285003 0.806194 1.18876e-18)
(0.140635 0.433023 -1.8342e-18)
(2.05096 0.320646 4.15513e-19)
(2.0434 0.544207 0)
(1.21452 0.219743 -4.016e-19)
(-0.0746278 1.63448 -4.79298e-21)
(-0.0158306 1.69361 0)
(-0.0165792 0.922817 0)
(0.229505 0.956121 -3.2371e-19)
(0.251244 0.877714 -7.09017e-19)
(0.130288 0.469141 1.32876e-18)
(3.16441 -0.442883 0)
(3.34728 -0.414697 1.81152e-18)
(0.0559508 3.53089 0)
(0.0447822 2.86072 0)
(3.15926 0.249903 1.41902e-20)
(3.12355 0.506284 3.7095e-18)
(0.0188254 3.38607 -2.77641e-20)
(0.00792255 2.62264 0)
(-0.0413848 1.19615 1.55798e-18)
(0.192912 1.3216 0)
(3.45843 1.61492 -3.24846e-19)
(3.17432 0.27254 -2.96107e-20)
(3.1483 -0.118747 0)
(3.10047 -0.000419123 3.7167e-22)
(0.0405038 2.58015 0)
(0.154209 3.32341 0)
(-0.0594436 2.54889 0)
(-0.0294159 3.48309 3.15615e-19)
(-0.0307567 3.55197 1.99165e-19)
(2.63477 0.0485213 -1.36378e-20)
(3.04649 0.0307943 0)
(3.15601 0.0862237 0)
(-0.0622989 4.6124 0)
(-0.0491334 3.04666 0)
(-0.0762152 2.97486 0)
(0.644567 3.0806 2.67235e-19)
(3.33883 -0.422479 0)
(3.01137 -0.345825 0)
(3.1699 -0.0530556 2.27556e-18)
(3.2927 -0.328714 -2.74006e-18)
(3.1038 -0.125787 0)
(-0.0690246 4.52482 0)
(0.00671532 3.97445 0)
(-0.00226283 4.29121 0)
(-0.0321246 3.1379 0)
(-0.0175815 2.89918 0)
(-0.0348884 2.47439 0)
(2.9739 -0.00329084 0)
(2.85076 0.0485213 -1.8048e-20)
(2.22726 3.02299 -3.24152e-19)
(3.15695 0.0444372 -2.27663e-18)
(3.19037 0.278165 2.7674e-18)
(3.0828 0.117327 0)
(3.39542 0.328883 2.08564e-18)
(3.35697 0.484349 -2.70459e-18)
(3.07114 0.418416 0)
(-0.0573816 3.30736 0)
(0.00347734 3.23175 8.55459e-20)
(-0.0316101 2.53621 -6.0573e-20)
(3.70169 0.552263 2.26384e-18)
(3.46758 0.207095 0)
(-0.151289 1.27138 -2.17003e-18)
(-0.061579 0.882084 -1.353e-19)
(-0.0833445 1.33749 2.99131e-18)
(-0.0343563 1.27097 -9.01317e-19)
(0.000338341 1.08921 0)
(-0.0266884 1.23946 6.9614e-19)
(-0.114783 1.38788 2.1506e-18)
(-0.0588301 1.34057 -1.31656e-18)
(-0.0768358 1.32062 0)
(1.29691 0.599792 0)
(1.18643 0.686537 0)
(3.5444 2.01756 9.53894e-19)
(3.03205 1.92235 -1.1912e-18)
(3.82928 1.6972 0)
(3.37096 1.15019 0)
(3.34939 0.280443 -3.91365e-18)
(2.89893 0.173082 4.83579e-18)
(3.35136 -0.15555 0)
(2.85463 -0.0761858 0)
(3.43642 0.0429672 0)
(3.59381 0.144995 0)
(3.28683 0.119844 0)
(3.55034 0.298529 0)
(3.40842 0.293028 0)
(3.32755 0.218041 0)
(0.0924908 2.78428 0)
(0.0324772 2.07676 0)
(0.120399 3.03933 0)
(0.0904036 2.19452 0)
(0.210107 3.617 0)
(0.139193 2.69801 -5.59363e-19)
(0.0479412 3.63091 0)
(0.00837793 3.0353 4.05607e-19)
(-0.0291915 3.2111 -5.16557e-19)
(-0.0641944 2.81867 0)
(-0.0264323 2.22338 0)
(-0.0783041 2.92074 0)
(-0.0574897 2.06094 0)
(-0.121602 4.74254 -2.4543e-19)
(-0.0875676 3.92513 2.77318e-19)
(-0.0812671 3.79367 3.08869e-19)
(-0.0553667 3.00534 0)
(-0.111214 3.78395 -4.58315e-19)
(-0.0411091 3.19085 -2.94748e-19)
(-0.0957344 4.7737 1.92359e-19)
(-0.106014 4.45039 -3.50519e-19)
(-0.0800015 4.32455 -3.78695e-19)
(3.0326 0.0879407 3.35531e-18)
(2.29056 0.0320556 -4.22567e-18)
(2.89288 0.132413 -3.32424e-18)
(2.21132 0.0732978 4.15219e-18)
(3.36783 0.0272638 0)
(2.64229 -0.00278337 0)
(3.45275 0.0905662 0)
(3.3192 0.0188058 0)
(2.70518 0.00894427 0)
(3.67801 0.238002 0)
(3.437 0.09504 0)
(2.86078 0.0559358 0)
(-0.0306916 4.29118 -1.20923e-20)
(-0.0655248 4.63806 0)
(-0.0712807 4.51619 0)
(-0.0794709 3.46756 8.78004e-20)
(-0.0391089 2.74573 -3.46305e-21)
(-0.0912343 4.66307 1.14282e-19)
(-0.103873 4.46696 -1.15483e-19)
(-0.0858646 3.98281 0)
(-0.0641174 3.90932 0)
(-0.0304563 4.02464 0)
(-0.0764358 3.29516 0)
(-0.0448156 2.33656 0)
(0.937555 3.63359 -6.11e-19)
(0.910612 2.82655 -1.77369e-19)
(0.435301 2.07673 -2.2886e-19)
(0.254382 2.32449 6.98685e-19)
(1.02246 4.2154 2.63765e-19)
(3.43303 -0.167486 0)
(3.3221 -0.256583 0)
(2.88321 -0.189536 0)
(3.47032 -0.0644019 0)
(3.34581 -0.147895 0)
(3.44893 -0.261055 0)
(3.51949 -0.283635 0)
(3.57948 -0.281178 0)
(3.22443 0.0932401 3.61566e-18)
(2.55545 0.0644547 -4.57198e-18)
(3.09689 0.106408 -3.5591e-18)
(2.50961 0.0565695 4.42847e-18)
(2.22313 3.39207 0)
(1.72145 2.92072 -4.47363e-19)
(2.5533 3.32803 -4.04622e-19)
(2.3474 2.50583 5.37664e-19)
(0.783462 1.22607 2.72723e-18)
(1.44994 0.216605 1.34215e-18)
(3.7194 0.302298 0)
(3.88914 0.569727 -1.84468e-18)
(3.29405 0.2425 -8.22603e-20)
(3.72385 0.438249 0)
(0.242698 1.31512 1.79968e-18)
(-0.013672 1.20319 -2.8819e-18)
(0.0619085 0.770785 1.61785e-18)
(0.279998 0.466942 -7.49317e-19)
(0.190491 1.38844 8.72696e-19)
(0.0525269 1.23918 0)
(0.05908 1.08891 -1.13449e-18)
(0.1963 1.44634 -4.10024e-18)
(0.335087 1.56217 0)
(0.00862174 1.29017 1.19787e-19)
(-0.00976442 1.45729 -1.34244e-18)
(-0.041071 1.30285 1.95162e-18)
(-0.0575364 1.41766 0)
(-0.0205505 1.38223 0)
(0.687996 1.05984 0)
(2.47435 2.46426 -1.06674e-18)
(2.62365 2.1546 3.95645e-19)
(2.77634 2.8631 0)
(3.20362 3.05 -3.94287e-19)
(3.15109 2.39583 2.82801e-20)
(0.811447 0.594939 -1.82512e-18)
(1.56466 0.693905 -1.62755e-20)
(1.2389 0.45273 8.72077e-19)
(1.28563 0.849068 5.95545e-20)
(0.946807 0.638539 -2.37177e-18)
(1.47357 0.717519 0)
(2.00374 1.1039 1.45632e-18)
(2.04497 1.01948 0)
(1.42232 0.794932 0)
(1.06898 0.552662 0)
(3.38446 2.17629 1.00718e-18)
(3.94228 0.756639 -1.86162e-18)
(3.84058 1.20979 0)
(3.52427 0.753516 0)
(1.39634 0.365597 1.33197e-18)
(3.27004 1.84185 -8.51243e-19)
(2.84933 1.65626 1.54606e-18)
(3.76127 1.37365 -1.8338e-18)
(3.09812 0.114644 2.46174e-18)
(3.16866 0.180747 -2.57671e-18)
(2.662 0.0916002 0)
(3.30704 -0.0396553 0)
(3.20124 -0.0843484 -2.36444e-18)
(2.63218 -0.032159 2.34361e-18)
(3.95639 0.0928981 0)
(3.75991 0.145427 0)
(3.6937 0.155292 0)
(3.58834 0.204669 0)
(3.83262 0.0589038 0)
(3.7261 0.052156 0)
(-0.0440178 2.51205 0)
(-0.0403351 2.0147 0)
(0.34643 3.971 -4.11126e-19)
(0.653257 3.30935 -1.6064e-19)
(0.253354 3.01027 -3.59284e-19)
(0.338608 2.53005 5.75561e-19)
(0.448013 3.99498 0)
(0.459454 4.66381 -5.09594e-19)
(0.373674 4.72105 0)
(0.908443 4.38617 -3.79418e-19)
(0.674328 3.84036 9.69468e-19)
(0.587951 4.64168 4.46594e-19)
(0.730353 4.1795 -1.8785e-19)
(0.591142 4.30642 1.51116e-19)
(0.906815 4.64245 -6.63475e-19)
(0.739192 4.65652 0)
(0.851357 4.58283 5.04548e-19)
(-0.00586586 4.57242 -1.81117e-19)
(-0.0255037 3.65603 0)
(0.0907922 4.29496 5.48969e-19)
(-0.0132863 4.39564 0)
(-0.00928351 3.47465 -4.5104e-19)
(-0.0187804 2.92583 0)
(-0.113163 4.30915 -2.89767e-19)
(-0.120398 4.67524 0)
(-0.0631402 3.80759 0)
(-0.0505341 3.73654 3.25853e-19)
(-0.0557871 3.88336 1.03584e-20)
(-0.0420317 3.71264 6.25285e-19)
(-0.0444567 2.94994 4.06144e-21)
(-0.127496 4.70233 1.80327e-19)
(-0.117304 4.73577 1.03242e-19)
(-0.0209846 2.64949 0)
(-0.00140251 2.16145 0)
(-0.0562046 4.78182 4.86181e-19)
(-0.0619779 4.30514 4.2439e-19)
(-0.0972676 4.57978 -5.54593e-19)
(0.00222558 4.74997 0)
(-0.0876922 4.51067 -3.09308e-19)
(-0.125119 4.13481 1.27591e-19)
(-0.091986 4.22418 -4.13322e-20)
(-0.083824 4.71975 -2.19055e-19)
(-0.095171 4.24942 -6.85198e-20)
(-0.0927153 4.19756 3.06261e-19)
(2.87207 0.0608316 -2.36135e-18)
(2.8598 0.0494311 2.27081e-18)
(2.33929 0.0344354 0)
(3.5121 0.191106 3.04343e-18)
(2.70591 0.126158 -3.30155e-18)
(2.25664 0.0642086 3.60612e-18)
(3.68491 0.334017 -4.01224e-19)
(3.20954 -0.0487032 0)
(3.1716 -0.0138225 2.23503e-18)
(2.6904 -0.0124911 -2.21741e-18)
(3.87759 0.121237 -1.25119e-19)
(3.77094 0.101124 1.07732e-18)
(4.15901 0.172125 0)
(4.22806 0.179763 -3.74764e-19)
(4.01432 0.14431 0)
(3.6959 0.154732 0)
(4.0324 0.0947027 0)
(3.71209 0.0870074 0)
(4.18472 0.112971 7.84726e-19)
(4.13737 0.0784262 -1.74627e-18)
(4.14023 0.113019 -8.47211e-19)
(4.18607 0.115613 -9.23598e-19)
(4.21497 0.227424 1.77233e-18)
(3.85351 0.187581 0)
(4.05965 0.299814 0)
(-0.0830091 4.55475 -1.36285e-19)
(-0.0400301 4.62354 -1.17197e-20)
(-0.0753881 4.64548 0)
(-0.0628812 4.16329 1.38735e-19)
(-0.0610368 4.18712 2.26041e-20)
(-0.0640477 4.04995 -2.19623e-20)
(-0.0846159 3.50125 2.6083e-19)
(-0.150455 3.97801 -1.45014e-20)
(-0.110955 4.11084 7.47209e-20)
(-0.0781387 3.37191 -1.32111e-19)
(-0.0269609 2.89692 1.58217e-19)
(-0.0851049 4.44416 5.18471e-21)
(-0.10006 4.64037 1.7156e-19)
(1.23292 4.3361 3.48178e-19)
(1.14998 4.51344 7.24882e-19)
(1.72067 3.4385 4.32573e-19)
(1.2945 3.52959 1.70504e-19)
(1.27178 2.86096 0)
(0.554335 2.3451 2.75548e-19)
(0.468354 1.76215 3.31627e-19)
(0.347404 2.59506 1.53301e-20)
(0.49497 3.2056 -1.16179e-18)
(0.637259 3.16305 8.78066e-19)
(0.437053 2.43107 0)
(0.296809 1.99484 -5.58639e-19)
(0.258297 3.10324 1.3968e-18)
(0.273301 2.74566 -3.18411e-20)
(0.157883 2.29971 -1.7512e-18)
(0.599226 1.42853 1.46729e-18)
(0.583792 1.63703 0)
(3.58364 -0.0752126 8.63661e-20)
(3.6186 -0.254156 -7.25402e-20)
(3.72132 -0.217794 -1.26554e-18)
(3.75925 -0.126113 1.28141e-18)
(3.67615 -0.0489478 0)
(2.43632 3.85599 0)
(2.61541 3.90187 0)
(2.88472 3.61008 0)
(2.73514 3.63359 0)
(0.864133 1.40948 -3.37625e-21)
(0.618746 1.05067 0)
(1.7255 3.41005 1.50316e-20)
(1.43073 3.48665 0)
(1.34096 2.98019 -1.28613e-18)
(1.42183 2.91895 8.25839e-19)
(1.79546 0.310709 0)
(1.43404 0.262389 3.5185e-19)
(2.41598 0.35874 2.18994e-18)
(1.78978 0.284828 -7.84869e-19)
(1.42899 0.1122 -2.49297e-18)
(4.26558 0.786199 -2.56252e-18)
(3.85766 0.992086 -3.66128e-20)
(3.30475 0.8429 2.0658e-18)
(3.88051 0.742977 1.81142e-18)
(3.12799 0.464857 -3.04216e-18)
(2.91537 0.451597 3.74654e-19)
(3.19916 0.681685 -8.17939e-19)
(2.9822 0.682271 0)
(3.76297 0.562088 1.53608e-18)
(4.09851 0.626701 0)
(4.09426 0.773103 0)
(4.04339 0.413676 8.22865e-19)
(4.29593 0.639414 -3.03254e-20)
(4.24644 0.711843 -4.52378e-19)
(4.17355 0.639354 0)
(3.61701 0.129625 1.71643e-18)
(4.19023 0.182198 2.14194e-18)
(4.09132 0.150622 -1.67771e-18)
(4.13749 0.239339 -1.44134e-18)
(3.7473 0.237052 -2.15419e-18)
(3.30686 0.375226 0)
(3.4061 0.301359 0)
(2.56102 0.190323 -1.26485e-18)
(2.11143 0.118953 4.76331e-19)
(4.03849 0.351081 1.9382e-18)
(4.28691 0.430302 -2.34425e-18)
(4.28568 0.486822 2.06683e-18)
(4.15857 0.490807 0)
(4.25604 0.334957 0)
(4.26568 0.321144 -9.8015e-19)
(4.21451 0.314395 -1.59475e-18)
(2.24047 3.49977 6.20184e-19)
(1.95464 3.25099 -6.83765e-19)
(1.46227 2.37713 -1.03343e-18)
(1.20014 2.01435 2.6724e-19)
(0.894118 1.39274 -2.63359e-18)
(0.802193 1.22736 9.23464e-19)
(0.607194 0.913133 -1.89483e-21)
(1.12727 1.80173 -1.13964e-18)
(1.1553 1.9006 1.70128e-18)
(0.985076 1.71487 5.06791e-19)
(0.794045 1.30031 -5.1342e-19)
(0.641489 1.08368 0)
(2.46398 2.61688 -1.15404e-19)
(0.716256 1.15047 8.58846e-19)
(0.938377 0.89802 1.15782e-18)
(0.764707 0.820052 1.34027e-18)
(1.09288 0.752487 1.34251e-18)
(1.48066 1.05235 -2.27251e-18)
(1.39666 1.0801 1.84137e-18)
(1.01167 0.772511 -6.777e-19)
(0.824306 0.572852 1.49645e-18)
(1.62186 0.492068 -7.77746e-19)
(1.56618 0.510138 0)
(1.24465 0.408677 4.68805e-21)
(2.52524 1.52043 7.75741e-19)
(2.0953 1.27582 -2.80937e-18)
(1.70158 1.19231 9.36088e-21)
(1.67455 1.09869 0)
(2.87688 2.59822 8.73309e-19)
(3.44821 2.74436 1.03586e-18)
(3.25853 2.92539 -1.19411e-18)
(3.55125 2.75349 -4.27708e-19)
(3.47579 2.58821 -1.34763e-19)
(3.50618 2.78088 1.386e-19)
(3.68007 2.25921 -1.67742e-18)
(3.70329 2.48405 4.00686e-19)
(3.77856 2.42406 0)
(3.77842 2.18024 -5.79066e-19)
(4.05164 1.06977 5.79885e-19)
(4.27408 0.988342 1.00114e-18)
(4.29951 0.962045 1.01054e-18)
(4.05738 1.32441 -1.14838e-18)
(4.10013 1.34277 0)
(4.14901 1.227 0)
(3.33759 1.23435 -1.53921e-20)
(2.4265 0.667153 0)
(2.73049 0.744032 9.30084e-19)
(3.24651 0.88433 -2.62807e-20)
(3.77928 1.53081 5.10175e-18)
(3.57816 1.75845 1.30974e-18)
(3.49047 1.53847 -1.33965e-18)
(3.04978 1.36988 1.43637e-18)
(2.77446 1.37113 8.2356e-19)
(2.32023 1.159 -7.97607e-19)
(3.67208 -0.0856933 1.98295e-18)
(3.89468 -0.0290922 0)
(3.85892 -0.0666996 1.34094e-18)
(3.74286 -0.0595526 -2.98524e-18)
(3.98056 0.0371599 1.46071e-18)
(3.90449 0.113218 -3.0803e-18)
(3.73995 0.127813 0)
(3.55639 0.173341 -6.28006e-19)
(3.81201 0.12285 1.60392e-18)
(3.692 0.191267 -8.21865e-19)
(3.60037 0.170966 5.90206e-19)
(-0.0845139 2.60149 0)
(-0.054458 3.40289 0)
(-0.0357871 2.46746 0)
(-0.0240075 1.97863 0)
(0.0362381 3.93101 6.71452e-19)
(0.131551 3.71063 -1.73502e-19)
(0.305756 4.63243 -2.29652e-19)
(0.241145 4.44419 2.42365e-19)
(-0.0374025 4.28736 -4.98016e-19)
(-0.000559348 4.31865 3.73976e-19)
(0.0853026 3.86068 2.2384e-20)
(0.0014694 3.55082 -4.6753e-19)
(-0.0192865 3.30848 -6.23603e-20)
(-0.0484943 3.66968 -5.68092e-20)
(0.142886 4.48184 -5.86295e-19)
(0.16963 4.30026 0)
(0.265047 4.63838 2.96111e-19)
(0.256652 4.70526 2.52945e-19)
(0.588656 4.45152 -2.25827e-19)
(0.406637 3.80759 0)
(0.456158 3.65412 -1.11588e-18)
(0.560208 4.02287 7.90663e-19)
(0.472329 4.56668 -6.1451e-19)
(0.361936 4.4435 3.30614e-19)
(0.293893 4.17587 0)
(-0.0490298 4.75611 -5.53053e-19)
(-0.0867733 4.52217 -6.41069e-19)
(-0.0895594 4.73287 0)
(-0.0398944 4.3605 -6.21167e-21)
(-0.0317167 4.64036 2.74143e-19)
(-0.128315 3.8918 4.48606e-20)
(-0.0622969 3.5053 -6.56149e-19)
(-0.105497 3.9401 1.75043e-19)
(-0.150107 4.51951 2.32947e-19)
(-0.0889188 4.3299 0)
(-0.0705606 3.90564 0)
(-0.0866244 2.93452 2.02088e-19)
(-0.0549415 3.66259 -6.30538e-20)
(-0.0804359 3.64687 0)
(-0.0911157 2.7185 1.59197e-19)
(-0.0482482 2.22402 -3.0838e-19)
(3.7607 0.0319704 0)
(3.73153 0.00735954 -2.03096e-19)
(4.17939 0.0673047 -1.43864e-18)
(4.08878 0.0456621 0)
(3.87576 0.0172244 0)
(4.1497 0.0365755 -1.24973e-20)
(4.10027 0.0345314 2.37681e-18)
(4.00028 0.0797156 2.84304e-18)
(3.75624 0.11826 0)
(3.55852 0.109682 0)
(4.01363 0.0932888 1.41615e-18)
(3.70383 0.115613 0)
(3.47282 0.128482 0)
(-0.0927285 4.68368 0)
(-0.116701 4.65642 1.07548e-20)
(-0.0894111 4.70531 6.33232e-20)
(-0.0692657 3.85896 0)
(-0.122154 4.53819 1.11256e-19)
(-0.0783121 4.26125 -6.36009e-20)
(-0.0636031 3.96286 0)
(1.41399 4.20068 0)
(1.20189 4.57114 -1.29681e-18)
(1.21966 4.48788 0)
(1.56724 4.47499 1.48414e-18)
(1.58145 4.09391 0)
(1.4905 4.35198 -6.06608e-19)
(1.02362 2.26746 -3.40334e-20)
(0.718751 1.66527 -1.74939e-18)
(0.598416 1.24222 2.13425e-18)
(0.717475 1.85771 3.97923e-19)
(0.986073 2.45204 0)
(1.04876 2.40635 0)
(0.727157 1.70818 0)
(0.539018 1.34705 -1.39921e-18)
(1.21719 3.79814 -9.84351e-19)
(1.13905 3.01846 -2.3585e-19)
(1.33757 3.43139 1.92889e-19)
(0.605228 2.06508 0)
(0.627377 1.9661 0)
(0.467671 1.59084 -3.93894e-19)
(0.966851 2.7492 0)
(2.69078 3.5685 0)
(2.39722 3.01979 -1.45455e-18)
(2.55997 3.03415 -8.5839e-20)
(2.43217 3.41285 0)
(2.30291 3.16364 2.22117e-18)
(3.28062 3.07937 -3.89432e-19)
(3.1286 3.31054 0)
(3.11151 3.13626 6.29967e-19)
(2.87133 3.40758 0)
(2.8877 3.19983 0)
(1.22359 2.02805 -9.32149e-19)
(1.43027 2.42711 -7.00416e-19)
(1.77032 3.00498 1.20698e-18)
(1.71255 2.98455 -3.62754e-19)
(1.07506 1.84243 0)
(1.22011 2.23183 4.71801e-19)
(0.727013 1.30319 -7.16813e-19)
(0.588485 1.05555 -6.21027e-22)
(1.94908 3.71331 0)
(2.20837 3.7519 -5.42361e-19)
(2.34223 3.98335 0)
(2.29009 0.528897 0)
(1.62187 0.342337 0)
(1.21283 0.277123 0)
(2.21593 0.554474 -1.46434e-18)
(1.64088 0.402884 8.16873e-19)
(2.14874 0.128962 -9.84255e-19)
(2.63048 0.297176 0)
(2.46961 0.301425 4.13138e-19)
(1.773 0.135669 1.63161e-18)
(1.53275 0.0812702 -1.03614e-18)
(0.753142 1.56772 8.59293e-19)
(0.970505 1.83461 0)
(0.543144 1.45003 1.56354e-18)
(0.530682 1.62337 -1.42755e-18)
(0.7671 1.82496 -9.90331e-19)
(2.09341 2.4768 1.33896e-18)
(2.11693 2.72784 0)
(1.60199 1.69152 -2.767e-19)
(2.02949 2.00222 1.74599e-18)
(1.37551 1.30379 -4.24043e-19)
(1.60504 1.32386 4.51274e-19)
(2.12715 1.52098 1.02383e-18)
(2.46063 1.67715 0)
(2.29484 1.86538 0)
(2.02808 1.6159 0)
(3.95598 2.07042 3.84232e-19)
(3.76555 1.88438 -1.26221e-18)
(3.82193 2.02121 1.04526e-18)
(3.9047 1.76489 -1.00718e-18)
(4.15557 1.66629 0)
(4.11321 1.83197 -2.97545e-19)
(2.85281 1.16392 -1.89643e-18)
(2.98193 1.16323 -2.41122e-18)
(2.34422 1.04549 1.45582e-18)
(2.14938 0.936575 -1.41968e-18)
(2.47366 0.846921 -1.17765e-18)
(2.18849 0.778669 1.44821e-18)
(4.00843 0.033237 -1.52755e-18)
(4.05274 0.0403986 3.12743e-18)
(3.76784 -0.0660932 1.89926e-18)
(3.79104 -0.0739978 -2.28479e-18)
(3.95937 0.010206 0)
(4.05594 0.0224973 -3.72646e-18)
(0.08256 4.75506 1.06661e-19)
(0.0535518 4.72338 0)
(0.176833 4.72642 9.52468e-19)
(0.19828 4.74271 -8.66528e-19)
(0.218019 4.70671 4.28234e-19)
(0.109081 4.6472 0)
(-0.114533 4.76209 0)
(-0.119181 4.40753 -6.20606e-20)
(-0.118002 4.34391 5.56327e-20)
(-0.126608 4.48547 7.45431e-21)
(-0.11757 4.70838 -1.01391e-19)
(-0.0951227 4.69673 5.50584e-20)
(1.88178 4.01753 -1.64238e-18)
(1.82081 4.02636 1.7398e-18)
(1.67869 4.39751 -8.53859e-19)
(1.69644 4.28417 7.6133e-20)
(2.25045 4.06441 0)
(1.845 4.19691 -6.36658e-19)
(1.97262 3.93454 6.1745e-19)
(1.81544 4.3639 8.34055e-19)
(2.07028 4.21143 0)
(2.2233 4.09135 0)
(1.14647 3.65626 1.49639e-18)
(0.834843 2.84087 2.02772e-18)
(0.962817 3.01921 -1.39252e-18)
(0.754198 3.00229 -2.32475e-19)
(0.908435 3.75936 4.67019e-19)
(0.728 3.39448 -1.13591e-18)
(0.755319 1.48286 -1.21789e-18)
(0.754878 1.33222 0)
(0.609698 1.12742 -1.33853e-18)
(1.12356 2.0867 0)
(1.101 2.17398 0)
(1.37543 2.20548 -1.09223e-18)
(1.07675 2.02903 -1.03756e-18)
(1.02914 2.04859 1.10047e-18)
(1.04646 1.52977 0)
(1.42854 1.77522 -6.02058e-19)
(1.64609 2.13465 -8.55963e-19)
(1.42832 2.09671 0)
(0.879939 1.82841 7.13834e-19)
(0.791624 1.68774 0)
(2.92255 2.29292 -1.84552e-18)
(3.32809 2.46837 2.60634e-18)
(3.28942 2.19154 -2.59057e-18)
(2.62817 2.02737 -2.31103e-19)
(2.74178 1.94457 -9.73715e-19)
(1.2766 2.20655 7.97379e-19)
(1.33125 2.26319 -1.36173e-18)
(1.47139 2.34639 1.79492e-18)
(1.80924 2.57681 -1.16655e-18)
(1.90725 2.95271 -1.56816e-18)
(1.5805 2.5084 -1.18833e-19)
(1.65069 2.64986 1.37296e-18)
(1.82922 2.71229 9.67285e-20)
(2.03617 3.01693 6.50651e-19)
)
;

boundaryField
{
    wall-4
    {
        type            noSlip;
    }
    velocity-inlet-5
    {
        type            fixedValue;
        value           uniform (3 0 0);
    }
    velocity-inlet-6
    {
        type            fixedValue;
        value           uniform (0 1 0);
    }
    pressure-outlet-7
    {
        type            zeroGradient;
    }
    wall-8
    {
        type            noSlip;
    }
    frontAndBackPlanes
    {
        type            empty;
    }
}


// ************************************************************************* //
