/*--------------------------------*- C++ -*----------------------------------*\
  =========                 |
  \\      /  F ield         | OpenFOAM: The Open Source CFD Toolbox
   \\    /   O peration     | Website:  https://openfoam.org
    \\  /    A nd           | Version:  9
     \\/     M anipulation  |
\*---------------------------------------------------------------------------*/
FoamFile
{
    format      ascii;
    class       volScalarField;
    location    "5.64";
    object      p_rgh;
}
// * * * * * * * * * * * * * * * * * * * * * * * * * * * * * * * * * * * * * //

dimensions      [1 -1 -2 0 0 0 0];

internalField   nonuniform List<scalar> 
2268
(
778.415
778.095
777.463
776.513
775.289
773.814
772.122
770.254
768.233
766.06
763.847
761.597
759.336
757.087
754.858
752.653
750.555
748.68
747.195
745.983
745.256
745.032
744.753
778.483
778.161
777.539
776.59
775.361
773.878
772.175
770.294
768.258
766.084
763.848
761.571
759.281
757
754.745
752.531
750.492
748.767
747.431
746.241
745.394
744.982
744.745
778.622
778.293
777.659
776.714
775.478
773.977
772.264
770.365
768.308
766.121
763.859
761.553
759.234
756.927
754.664
752.449
750.425
748.714
747.409
746.25
745.274
744.798
744.578
778.838
778.498
777.863
776.901
775.652
774.119
772.392
770.47
768.387
766.176
763.883
761.545
759.198
756.875
754.626
752.426
749.934
745.901
744.539
744.75
744.244
744.593
744.368
779.13
778.774
778.137
777.151
775.87
774.319
772.56
770.608
768.495
766.249
763.919
761.545
759.169
756.832
754.584
752.464
749.532
744.293
742.824
741.265
741.351
744.381
744.121
779.502
779.118
778.484
777.466
776.145
774.564
772.769
770.782
768.63
766.342
763.966
761.548
759.138
756.786
754.543
752.486
750.773
745.969
742.188
740.655
742.98
744.174
743.833
779.959
779.526
778.911
777.845
776.479
774.855
773.018
770.989
768.795
766.455
764.024
761.552
759.1
756.725
754.48
752.449
750.847
748.563
742.877
741.667
745.362
743.985
743.464
780.506
780.016
779.395
778.287
776.866
775.192
773.304
771.229
768.985
766.586
764.091
761.556
759.055
756.652
754.386
752.353
750.683
749.666
748.491
746.99
745.161
743.851
742.99
749.271
750.153
751.265
752.503
753.867
755.371
757.072
758.844
760.558
762.083
763.54
765.347
767.285
767.833
771.182
773.209
773.987
774.785
775.135
749.156
750.363
751.322
752.577
754.064
755.732
757.411
759.138
760.837
762.334
763.648
765.541
767.821
767.744
770.848
772.881
773.861
774.836
775.253
749.275
750.273
751.204
752.431
753.933
755.625
757.421
759.222
760.859
762.309
763.697
765.759
767.972
767.108
770.641
772.896
773.896
775
775.132
750.101
750.342
751.064
752.27
753.796
755.517
757.336
759.037
760.745
762.19
762.852
765.6
763.197
763.459
770.683
773.243
774.05
775.296
775.315
749.721
750.094
750.862
752.087
753.633
755.392
757.077
758.967
760.989
763.094
755.934
757.174
759.832
762.781
771.672
773.796
773.109
775.502
775.626
749.252
749.716
750.557
751.845
753.429
755.241
757.159
759.101
761.441
763.628
756.425
756.57
759.345
767.751
773.116
774.479
768.83
775.406
776.253
748.659
749.228
750.154
751.543
753.178
755.041
757.126
759.364
761.682
764.065
763.856
756.219
758.797
771.707
773.995
775.095
768.575
777.011
777.993
747.931
748.613
749.676
751.205
752.963
754.862
756.969
759.34
761.112
763.78
767.923
764.66
767.345
775.019
774.876
775.994
768.56
776.023
778.643
781.493
780.918
780.266
779.068
777.553
775.787
773.818
771.664
769.334
766.831
764.219
761.562
758.965
756.506
754.179
752.113
750.271
748.891
747.641
746.183
744.633
743.722
743.138
783.147
782.585
781.912
780.718
778.836
776.909
774.834
772.59
770.184
764.634
757.928
750.799
744.139
738.27
733.043
728.099
723.692
720.385
716.646
711.532
705.151
699.242
696.833
430.068
427.27
421.685
413.374
400.821
385.903
370.343
353.033
334.336
317.144
301.116
285.562
270.04
254.915
241.078
229.619
220.97
214.155
207.933
201.278
196.088
192.77
191.198
5.75982
5.27069
5.07004
4.66546
4.47924
4.57794
3.55201
2.7453
2.22252
1.89185
1.67263
1.49306
1.43587
1.38057
1.31615
1.2389
1.15708
1.05669
0.937615
0.948176
0.966381
0.991907
0.876106
2.04006
1.92696
1.90446
1.35559
2.85837
4.95949
5.14492
5.15552
5.12119
5.28507
5.31544
5.31187
5.30343
5.28965
5.1225
4.7763
4.30634
3.18125
1.29854
1.71262
1.76154
1.72113
0.830145
1.35557
1.48196
1.33162
0.982357
1.577
0.901252
0.908808
1.05937
1.10169
1.06492
1.02826
0.935431
0.793001
0.580582
0.407641
0.18091
0.0919647
0.667272
1.24976
1.02746
0.836661
0.834109
1.55705
0.213145
0.22726
0.262593
0.391644
0.200054
0.0637402
0.0150203
-0.00841836
-0.0075498
-0.00537654
-0.00255112
0.0010853
0.00549093
0.0105333
0.0171153
0.0264849
0.0499938
0.214547
0.250209
0.119243
0.20704
0.676783
0.5199
-0.015855
-0.0161001
-0.0149895
-0.014076
-0.0147661
-0.0107222
0.000936764
-0.00144244
-0.0061614
-0.00406157
-0.00145235
0.00353214
0.00783538
0.00946797
0.0139128
0.0466193
0.165822
0.188568
0.0970673
0.111068
0.226661
0.22846
0.0377362
-0.0138368
-0.0137406
-0.0129068
-0.0121179
-0.0119424
-0.00958831
-0.00585982
-0.0027764
-0.00474207
-0.00309699
9.0564e-05
0.00737836
0.0102106
0.00909184
0.0108426
0.0219889
0.076508
0.0885301
0.0721277
0.143202
0.13984
0.015558
0.0172482
-0.012056
-0.0117116
-0.0110688
-0.0105307
-0.010005
-0.00831092
-0.00706154
-0.00567699
-0.00407509
-0.00232349
0.00156986
0.00775534
0.00932034
0.00638861
0.00859429
0.0100885
0.0100739
0.010592
0.0129573
0.0231769
0.021878
0.0133648
0.014669
-0.0104605
-0.0100604
-0.00957002
-0.00910334
-0.00846308
-0.0072797
-0.00608537
-0.00478446
-0.00285205
0.00103546
0.0029918
0.00335849
0.00385364
0.00531533
0.00703354
0.00823241
0.00885401
0.00968743
0.0117742
0.012153
0.0111862
0.0118871
0.0126853
-0.00902637
-0.00885384
-0.0083864
-0.00795012
-0.00727666
-0.0063243
-0.00526314
-0.00304016
0.00100727
0.00230164
0.00267498
0.0013444
0.00292677
0.00449219
0.00587407
0.00693378
0.00767019
0.0118552
0.0212759
0.0217548
0.0180024
0.011659
0.0109151
-0.00774906
-0.00767188
-0.00740089
-0.00693477
-0.00629799
-0.00549193
-0.00457072
-0.000978335
0.00164242
0.00157842
0.000117367
0.00121454
0.0025435
0.00382499
0.00496559
0.00589284
0.00658448
0.0135849
0.0206431
0.0211125
0.0215454
0.0117341
0.00938035
-0.00655225
-0.00647662
-0.00639347
-0.00600726
-0.00545741
-0.00476233
-0.00388182
-0.00211125
-0.000779345
-0.00102753
-5.53885e-05
0.00108179
0.00220557
0.00327411
0.0042349
0.00503846
0.005655
0.00681506
0.0119362
0.0180346
0.0113864
0.00775361
0.00805849
-0.00537912
-0.00521193
-0.00550067
-0.00519323
-0.00472389
-0.00412032
-0.00338568
-0.00270662
-0.0018807
-0.000970966
-1.49971e-05
0.00095676
0.00191192
0.00281825
0.00363972
0.00434196
0.00490431
0.00532335
0.00563366
0.00593839
0.00633635
0.00675003
0.0070027
-0.0043634
-0.00437463
-0.00472624
-0.00448363
-0.00408657
-0.00357528
-0.00298747
-0.00232746
-0.00159922
-0.000813039
9.16838e-06
0.00084181
0.00165969
0.00243706
0.00314648
0.00376502
0.00427921
0.00468883
0.0050186
0.00531685
0.00561171
0.00587677
0.00604013
-0.00337128
-0.00369996
-0.00407332
-0.00386828
-0.00353559
-0.00310299
-0.00258924
-0.00200782
-0.00137062
-0.000688282
2.15319e-05
0.000738752
0.001443
0.00211343
0.0027298
0.00327571
0.00374144
0.00412634
0.00444302
0.0047134
0.00494799
0.00512281
0.00520132
-0.0027169
-0.00312847
-0.00350014
-0.003337
-0.0030588
-0.00268851
-0.00224271
-0.00173612
-0.00118068
-0.000588266
2.60921e-05
0.000646039
0.0012548
0.00183564
0.002373
0.00285441
0.00327213
0.00362431
0.0039161
0.00415657
0.00434862
0.00447862
0.00452664
-0.00215533
-0.00256393
-0.00300849
-0.00287978
-0.00264641
-0.00232925
-0.00194397
-0.00150388
-0.0010208
-0.000506491
2.60552e-05
0.000563132
0.00109083
0.00159555
0.00206491
0.0024889
0.00286082
0.00317784
0.00344096
0.00365288
0.00381309
0.00391354
0.00394294
-0.00167459
-0.00185461
-0.00258902
-0.00248735
-0.00229073
-0.00201883
-0.00168594
-0.00130412
-0.000884494
-0.000437979
2.40718e-05
0.000490027
0.000948273
0.00138761
0.0017979
0.0021708
0.00250026
0.00278279
0.00301712
0.00320294
0.00333842
0.00341846
0.00343646
-0.00126553
-0.00137346
-0.00223221
-0.00215065
-0.00198378
-0.00175001
-0.0014621
-0.00113091
-0.000766552
-0.000378865
2.22457e-05
0.000426857
0.000825198
0.00120793
0.00156659
0.00189402
0.0021847
0.0024348
0.00264192
0.00280435
0.00291989
0.00298503
0.00299576
-0.000919042
-0.00111564
-0.00192695
-0.00185998
-0.00171731
-0.00151583
-0.00126657
-0.000979273
-0.000662957
-0.000326334
2.19833e-05
0.000373492
0.000719913
0.00105337
0.00136669
0.00165367
0.00190924
0.0021295
0.00231157
0.00245317
0.00255205
0.00260565
0.00261138
-0.00109788
-0.00145092
-0.00166022
-0.0016054
-0.00148355
-0.00130999
-0.00109428
-0.000845198
-0.000570724
-0.000278514
2.39453e-05
0.000329337
0.000630587
0.000920993
0.0011944
0.00144537
0.00166932
0.00186246
0.00202177
0.00214481
0.00222943
0.00227362
0.00227561
-0.00129134
-0.00139183
-0.00142299
-0.00137968
-0.00127648
-0.0011274
-0.000941114
-0.000725506
-0.000487629
-0.000234189
2.82984e-05
0.000293504
0.000555333
0.000808017
0.00104623
0.00126521
0.00146079
0.00162944
0.00176824
0.00187474
0.00194696
0.00198321
0.0019822
-0.00109027
-0.00118236
-0.00121383
-0.00117946
-0.00109203
-0.000964258
-0.000803821
-0.000617657
-0.00041192
-0.000192457
3.5064e-05
0.000265139
0.000492473
0.000712054
0.000919234
0.00110981
0.00128005
0.00142673
0.00154709
0.00163885
0.00170015
0.00172953
0.001726
-0.000924061
-0.00100388
-0.00103103
-0.00100149
-0.000926832
-0.00081742
-0.000679715
-0.000519531
-0.000342118
-0.000152529
4.43037e-05
0.00024358
0.000440669
0.000631173
0.000811
0.000976424
0.00112411
0.00125114
0.00135499
0.00143357
0.00148517
0.00150852
0.00150266
-0.00078702
-0.000851895
-0.000870737
-0.000842309
-0.000777622
-0.000684119
-0.000566544
-0.000429372
-0.000276997
-0.000113742
5.60919e-05
0.000228308
0.000398834
0.000563782
0.000719517
0.000862715
0.000990386
0.0010999
0.00118898
0.00125572
0.00129858
0.00131638
0.00130835
-0.000674547
-0.000722251
-0.000728277
-0.000697495
-0.000641032
-0.000562053
-0.000462591
-0.000345895
-0.000215677
-7.56714e-05
7.03765e-05
0.000218779
0.000365946
0.000508417
0.000642941
0.000766528
0.000876481
0.000970422
0.00104629
0.00110237
0.00113728
0.00114993
0.00113967
-0.000582618
-0.000611409
-0.000597065
-0.000561089
-0.000514548
-0.000449958
-0.000366942
-0.000268418
-0.000157743
-3.82226e-05
8.68735e-05
0.000214307
0.000340909
0.000463596
0.000579443
0.000685746
0.000780046
0.00086018
0.000924257
0.000970733
0.000998357
0.00100615
0.000993576
-0.000506298
-0.00044987
0.000259195
0.000259728
-0.000382277
-0.000348699
-0.000279919
-0.000196951
-0.000103227
-1.61533e-06
0.000105075
0.000214047
0.000322531
0.000427794
0.000527196
0.000618276
0.000698778
0.000766688
0.000820273
0.000858107
0.000879064
0.000882277
0.000867308
-0.000444886
0.000347575
0.00317362
0.00321557
0.000391208
-0.00026154
-0.000202512
-0.000131812
-5.23237e-05
3.38025e-05
0.000124369
0.000217088
0.000309605
0.000399507
0.000484435
0.000562132
0.000630496
0.000687631
0.000731901
0.000761976
0.000776833
0.000775723
0.000758339
-0.000396794
0.000782943
0.00335268
0.00339739
0.00125167
-0.0001878
-0.000133506
-7.22572e-05
-4.78969e-06
6.7848e-05
0.000144208
0.000222571
0.000300987
0.000377358
0.000449569
0.000515535
0.000573266
0.000620939
0.00065697
0.00068008
0.000689338
0.000684129
0.00066432
-0.000350343
0.000436389
0.00352465
0.00356382
0.000915568
-0.00011827
-6.85389e-05
-1.61691e-05
4.02074e-05
0.000100576
0.000164157
0.000229717
0.000295646
0.000360116
0.000421206
0.000476958
0.000525446
0.000564869
0.000593636
0.000610474
0.00061452
0.000605337
0.00058305
-0.000293191
-0.00010862
0.00185424
0.00132427
7.56336e-05
-4.40762e-05
-3.5315e-06
3.82774e-05
8.32765e-05
0.000131891
0.0001837
0.000237736
0.000292604
0.000346664
0.000398124
0.000445096
0.000485665
0.000517986
0.000540398
0.000551559
0.00055061
0.000537389
0.000512437
-0.000213699
-0.00010809
-4.58001e-05
-1.8903e-05
8.73785e-06
3.55455e-05
6.19521e-05
9.09743e-05
0.00012395
0.000161115
0.000202019
0.000245703
0.000290852
0.000335924
0.000379193
0.000418786
0.000452748
0.000479124
0.000496082
0.000502074
0.000496139
0.000478517
0.000450481
-0.000108358
2.03848e-05
8.92441e-05
0.000104982
0.000108452
0.000114184
0.000124195
0.000139515
0.000160517
0.000186921
0.000217965
0.000252546
0.000289336
0.000326824
0.000363315
0.000396934
0.000425651
0.000447342
0.000459877
0.000461241
0.000450024
0.000427135
0.000395245
3.46167e-05
0.000177845
0.000233625
0.000221561
0.000198971
0.000183927
0.000177934
0.000180379
0.000190582
0.00020758
0.000230183
0.000257091
0.000286928
0.000318211
0.000349299
0.000378349
0.000403284
0.000421792
0.000431306
0.000428871
0.000411669
0.000381802
0.000344786
0.000227391
0.000363394
0.000368639
0.00031705
0.000269203
0.000236429
0.00021713
0.000209272
0.000211057
0.000220755
0.000236751
0.000257574
0.000281844
0.000308177
0.00033508
0.000360868
0.000383551
0.000400738
0.000409434
0.00040507
0.000380614
0.000340774
0.000296892
0.000498466
0.000572025
0.000464972
0.000369932
0.000305137
0.000261618
0.000234684
0.000221202
0.000218299
0.000223581
0.000235154
0.000251525
0.00027145
0.000293786
0.000317367
0.000340883
0.000362706
0.000380733
0.000392077
0.00039013
0.00035601
0.000300814
0.000248231
0.000734435
0.000693031
0.00047219
0.000359249
0.000295555
0.000254453
0.000230439
0.000219273
0.000217343
0.000222136
0.000231957
0.000245645
0.000262361
0.000281432
0.000302255
0.000324184
0.00034633
0.000367719
0.000387163
0.000394198
0.000346025
0.000258682
0.000193476
0.00104035
0.000680215
0.000407249
0.00030758
0.000260004
0.000238256
0.000232564
0.000234829
0.000241274
0.000250433
0.000261671
0.00027472
0.000289533
0.000306215
0.000325033
0.000346344
0.000370475
0.000399543
0.00044083
0.000482825
0.000403252
0.000220963
0.000129495
0.000836313
1.89352e-05
0.000138412
0.000166369
0.000182467
0.000200558
0.000219277
0.00023536
0.000248714
0.000260233
0.00027074
0.000280942
0.000291538
0.000303333
0.000317387
0.000335079
0.00035843
0.000395159
0.000475057
0.000626956
0.000542305
0.000188677
7.20748e-05
743.437
743.504
743.846
744.456
700.768
702.045
702.966
704.044
190.318
190.788
192.743
196.246
1.04618
1.17971
1.04473
0.87169
1.51184
1.5078
1.27834
0.809467
1.54876
0.769772
0.778109
0.813944
0.112241
0.29237
0.918399
0.920415
0.089303
0.060647
0.0796646
0.13297
0.018245
0.0178892
0.0168289
0.0159443
0.015082
0.0151398
0.0148445
0.0144063
0.0129789
0.0129725
0.0127594
0.0126247
0.0110258
0.0110663
0.011009
0.0109169
0.00944608
0.00944044
0.00938611
0.00928717
0.00809733
0.00805895
0.00797568
0.00784098
0.00697029
0.00687567
0.0067913
0.00667343
0.00597681
0.00592512
0.00584265
0.00576975
0.00517197
0.00512696
0.00505233
0.00494952
0.00448971
0.00444283
0.00437374
0.00428428
0.00390447
0.00386053
0.00379873
0.00372065
0.00339895
0.00335852
0.00330307
0.00323414
0.00296015
0.00292304
0.00287294
0.00281146
0.00257788
0.00254371
0.00249811
0.00244275
0.00224411
0.00221256
0.00217085
0.00212065
0.00195254
0.00192337
0.00188516
0.00183943
0.00169802
0.00167107
0.00163607
0.00159433
0.00147616
0.00145124
0.00141919
0.00138104
0.00128304
0.00125992
0.00123051
0.00119557
0.00111521
0.00109356
0.00106641
0.00103428
0.000969577
0.000949057
0.000923769
0.000894005
0.000843436
0.000823718
0.000799893
0.00077208
0.000734338
0.000715161
0.00069246
0.000666224
0.000640016
0.000621192
0.000599353
0.00057439
0.000558304
0.000539696
0.000518531
0.000494616
0.000487092
0.000468581
0.000447947
0.000424928
0.000424312
0.000405764
0.000385537
0.000363318
0.000367928
0.000349181
0.000329249
0.000307797
0.000315894
0.000296783
0.00027708
0.000256449
0.000266009
0.000246455
0.000227042
0.000207453
0.000215591
0.000195921
0.00017719
0.000159173
0.000160966
0.00014276
0.000125988
0.000110687
9.80054e-05
8.39736e-05
7.2105e-05
6.19805e-05
4.43562e-05
3.24477e-05
2.27047e-05
1.53094e-05
746.085
747.368
748.839
750.632
751.519
750.767
751.939
755.512
760.014
764.599
768.692
772.345
774.755
775.674
776.189
775.887
769.35
770.807
779.732
706.72
709.825
712.75
715.967
721.435
726.789
729.327
729.951
732.375
743.831
761.455
772.962
775.367
771.3
765.541
771.718
780.728
781.152
780.901
203.776
211.733
220.539
231.983
244.942
261.942
282.043
303.036
322.082
336.643
350.909
368.977
386.8
398.951
410.211
419.642
432.39
434.932
427.3
0.80617
0.804165
0.806433
0.819359
1.00839
0.961677
0.902732
0.887062
0.880405
0.870798
0.85016
0.834671
1.26422
3.32138
5.07202
5.37601
2.62742
1.57013
3.46676
0.795078
0.794504
0.794209
0.80596
2.00135
2.01886
1.78869
1.77121
1.76927
1.60664
1.36314
1.35275
1.3504
1.57921
1.52063
1.56182
1.86432
1.55469
1.69067
1.18555
1.18592
1.18376
0.775569
1.15474
1.61536
1.60732
1.61491
1.65793
1.74199
1.84365
1.84153
1.72437
1.24763
1.29848
1.43904
1.08789
1.21826
1.19875
0.890814
0.856854
0.891259
0.896099
0.560839
0.0561299
0.0491829
0.0444541
0.0189035
0.0160681
0.0290833
0.0385568
0.213663
0.385272
0.367754
0.200444
0.196916
0.345275
0.446797
0.0371054
0.0163017
0.0152815
0.133312
0.016257
0.0192846
0.0189221
0.0183736
0.0194981
0.0212953
0.0177759
0.0134682
0.0032135
-0.000738849
-0.00296622
-0.00332022
-0.00249042
-0.00539109
-0.007476
0.015366
0.0151033
0.0145221
0.0138313
0.0147185
0.0161893
0.0167336
0.0307795
0.091513
0.107913
0.0982957
0.0719099
0.0155522
0.00138037
-0.00109777
-0.00225945
-0.00248144
-0.00400942
-0.00531666
0.0138943
0.0137709
0.0136288
0.0133772
0.0133551
0.0136665
0.025871
0.110286
0.113472
0.110366
0.108649
0.0695647
0.0151591
0.0119545
0.000331851
-0.00109071
-0.00204998
-0.00312587
-0.00383594
0.012373
0.0144226
0.0285358
0.0314908
0.0138598
0.0112285
0.0606053
0.113878
0.104892
0.0294884
0.0344053
0.0547212
0.0760576
0.0752663
0.0339702
0.0108254
-0.000632415
-0.00217444
-0.00258885
0.0107231
0.0226493
0.0513354
0.050889
0.0384335
0.0127378
0.0589155
0.073576
0.00602297
0.00876437
0.0650789
0.0780918
0.0769737
0.0720012
0.0742287
0.0745349
0.0077329
-0.000930987
-0.00146351
0.00905797
0.0237731
0.0513354
0.0508324
0.0501226
0.0433759
0.00573934
0.0011012
0.00034012
0.00954074
0.0546195
0.054471
3.3991e-05
-0.00377274
0.00959779
0.0155384
0.0221055
0.0273787
0.0174522
0.00757969
0.00691005
0.0253938
0.0475767
0.0216257
0.00339268
0.0023956
0.00111389
0.000445451
-0.00063407
-0.00265746
-0.00339897
-0.00322571
-0.00318498
-0.00316996
0.00312993
0.0336105
0.0335522
0.0329176
0.00651158
0.00589962
0.0045848
0.00366367
0.00325649
0.00280434
0.00197406
0.00102165
0.000211547
-0.000874275
-0.00192536
-0.00253298
-0.00270122
-0.00281995
-0.00297669
-0.000479289
0.0248229
0.0319823
0.0211347
0.00562223
0.00507966
0.00425919
0.0035442
0.0029349
0.00238531
0.00167723
0.000870277
8.19791e-05
-0.000715332
-0.00148909
-0.00202633
-0.00231661
-0.00255976
-0.00283415
-0.00295253
-0.00377363
-0.00449858
-0.00471788
0.00473334
0.0043203
0.00437992
0.00386047
0.00304429
0.00210946
0.00144276
0.000758086
8.04856e-05
-0.000587683
-0.0012141
-0.00169739
-0.00203725
-0.00233582
-0.00266243
-0.0030736
-0.003576
-0.00400513
-0.00422323
0.00410299
0.00374514
0.00374403
0.00354091
0.00306891
0.00257222
0.00133509
0.000649025
6.64589e-05
-0.000470453
-0.000995031
-0.00147562
-0.00182559
-0.0021326
-0.00243874
-0.00277086
-0.00312899
-0.00344631
-0.00365185
0.00356395
0.00324497
0.00285054
0.00267478
0.00271912
0.00234439
0.00135613
0.000539613
0.000107066
-0.000265954
-0.000727877
-0.00123242
-0.00166459
-0.00195503
-0.00221715
-0.00245475
-0.00266017
-0.00284156
-0.00300472
0.00309738
0.00282703
0.00249373
0.00212052
0.00172459
0.00131543
0.000899082
0.000474865
0.000170857
-0.000250316
-0.000661481
-0.00104637
-0.00155012
-0.00181557
-0.00203166
-0.00217883
-0.0022359
-0.00225671
-0.00217412
0.00269091
0.00245829
0.00217145
0.0018456
0.00149313
0.00111993
0.000729369
0.000325551
-7.90869e-05
-0.000410488
-0.000760324
-0.00117246
-0.00148072
-0.00173078
-0.00192159
-0.00202227
-0.00200444
0.00053126
0.0217016
0.00233541
0.00213247
0.00188209
0.00159468
0.00127955
0.000942835
0.000589267
0.000223963
-0.000145079
-0.000507861
-0.000853427
-0.00117215
-0.00145856
-0.00170783
-0.00190825
-0.00203335
-0.00206478
0.00665544
0.0405962
0.00202419
0.00184497
0.00162374
0.00136795
0.00108478
0.000779973
0.000458459
0.000125379
-0.000212705
-0.000548164
-0.000873285
-0.00118154
-0.00146886
-0.00173275
-0.00196879
-0.00216499
-0.00230844
0.00731315
0.0418243
0.00175211
0.00159215
0.00139464
0.00116507
0.000909163
0.000631922
0.000337968
3.19878e-05
-0.000280718
-0.000594532
-0.000904095
-0.00120546
-0.00149688
-0.00177914
-0.00205471
-0.00232425
-0.00258373
0.00105251
0.0431659
0.00151482
0.00137074
0.00119285
0.000985292
0.000752673
0.00049926
0.000229121
-5.36959e-05
-0.000344975
-0.000640571
-0.000936963
-0.00123208
-0.00152609
-0.00182211
-0.00212729
-0.00245383
-0.00280786
-0.00281457
0.0446104
0.00130832
0.00117751
0.00101609
0.000827276
0.000614755
0.000382118
0.000132833
-0.000129705
-0.000402143
-0.000681386
-0.000965053
-0.00125212
-0.00154361
-0.00184329
-0.00216004
-0.00251204
-0.00290665
-0.00322219
0.0431513
0.00112878
0.00100919
0.000861818
0.000689167
0.000494223
0.000279948
4.92365e-05
-0.000195094
-0.000450323
-0.000713989
-0.000984197
-0.00126003
-0.00154191
-0.0018319
-0.0021356
-0.00246481
-0.00281197
-0.00302102
0.00431962
0.000972658
0.000862623
0.000727366
0.000568852
0.000389481
0.000191654
-2.22486e-05
-0.000249888
-0.000488976
-0.000737345
-0.000993072
-0.00125458
-0.00152051
-0.00178927
-0.00205897
-0.00232551
-0.0025534
-0.00257619
-0.00230135
0.000836826
0.000734971
0.000610274
0.000464263
0.000298844
0.000115923
-8.25779e-05
-0.000294714
-0.000518491
-0.000751832
-0.000992517
-0.00123799
-0.00148482
-0.00172765
-0.0019576
-0.00215725
-0.0022738
-0.00216845
0.00718704
0.000718646
0.000623848
0.00050845
0.000373618
0.00022083
5.15499e-05
-0.000132709
-0.000330345
-0.000539592
-0.000758394
-0.000984192
-0.00121351
-0.0014412
-0.00165914
-0.00185456
-0.00200514
-0.00205803
-0.00190507
0.0127362
0.00061591
0.000527283
0.000420187
0.000295482
0.000154266
-2.39621e-06
-0.000173372
-0.000357384
-0.000552891
-0.000757883
-0.000969544
-0.00118368
-0.00139381
-0.00158991
-0.00175706
-0.00187214
-0.00188835
-0.00172214
0.0130821
0.000526687
0.000443575
0.000344045
0.000228685
9.82452e-05
-4.65819e-05
-0.000205033
-0.000376165
-0.000558708
-0.000750792
-0.000949502
-0.00115015
-0.00134516
-0.00152268
-0.0016651
-0.00174565
-0.00171612
-0.00151147
0.00125811
0.000449152
0.000371129
0.000278693
0.000172173
5.199e-05
-8.15239e-05
-0.000227978
-0.000386802
-0.000557084
-0.000737253
-0.000924544
-0.00111411
-0.00129764
-0.00146154
-0.00158459
-0.00163268
-0.00154753
-0.00127164
-0.000685911
0.00038148
0.000308342
0.000222792
0.000124893
1.47354e-05
-0.000107704
-0.00024242
-0.000389269
-0.000547812
-0.000717001
-0.000894598
-0.00107617
-0.00125346
-0.00141211
-0.00152836
-0.00156219
-0.00144595
-0.00112609
0.0107379
0.00032182
0.000253587
0.000174979
8.57612e-05
-1.43143e-05
-0.000125624
-0.000248553
-0.000383432
-0.00053042
-0.000689241
-0.000858631
-0.00103534
-0.00121243
-0.00137637
-0.00150329
-0.00155091
-0.00144493
-0.001119
0.0146471
0.000268355
0.000205281
0.000133931
5.3721e-05
-3.5948e-05
-0.000135783
-0.000246545
-0.000369052
-0.000504143
-0.000652528
-0.000814361
-0.000988457
-0.00117061
-0.00135014
-0.00150548
-0.00159435
-0.00153296
-0.00121355
0.0149747
0.000219395
0.000162005
9.8481e-05
2.78328e-05
-5.08802e-05
-0.000138643
-0.000236532
-0.000345799
-0.000467967
-0.000604833
-0.00075834
-0.00093018
-0.00112036
-0.0013236
-0.00152392
-0.00168119
-0.00169666
-0.00139012
0.0150402
0.000173467
0.000122607
6.77122e-05
7.3525e-06
-5.97017e-05
-0.00013461
-0.000218636
-0.000313336
-0.000420776
-0.000543772
-0.000686156
-0.000852992
-0.00104997
-0.00128049
-0.00153994
-0.00179357
-0.00193647
-0.00165669
0.01121
0.000129494
8.64494e-05
4.11935e-05
-8.06395e-06
-6.27011e-05
-0.000123883
-0.000192868
-0.000271274
-0.00036141
-0.000466737
-0.000592617
-0.000747334
-0.000942571
-0.00119424
-0.00151677
-0.00188067
-0.00224999
-0.00205106
0.0101028
8.73431e-05
5.39633e-05
1.95042e-05
-1.78591e-05
-5.93782e-05
-0.00010599
-0.000158688
-0.000218818
-0.000288436
-0.000370902
-0.00047194
-0.000601357
-0.000775274
-0.00102085
-0.00137964
-0.00190956
-0.00265047
-0.00263899
0.00966129
4.7641e-05
2.58203e-05
3.07666e-06
-2.18985e-05
-4.98727e-05
-8.13061e-05
-0.00011668
-0.000156708
-0.000202597
-0.000256539
-0.000322688
-0.000409092
-0.000530907
-0.000718208
-0.00104239
-0.00169908
-0.00302926
-0.00353696
0.00845219
6.39536e-06
-5.41178e-06
-1.75941e-05
-3.11351e-05
-4.6246e-05
-6.2917e-05
-8.11061e-05
-0.000100813
-0.000122173
-0.00014567
-0.000172666
-0.000206776
-0.000257068
-0.000345531
-0.00053574
-0.00106027
-0.00257187
-0.00444866
0.00318983
)
;

boundaryField
{
    leftWall
    {
        type            fixedFluxPressure;
        gradient        uniform 0;
        value           nonuniform List<scalar> 
50
(
778.415
778.483
778.622
778.838
779.13
779.502
779.959
780.506
781.493
783.147
430.068
5.75982
2.04006
1.35557
0.213145
-0.015855
-0.0138368
-0.012056
-0.0104605
-0.00902637
-0.00774906
-0.00655225
-0.00537912
-0.0043634
-0.00337128
-0.0027169
-0.00215533
-0.00167459
-0.00126553
-0.000919042
-0.00109788
-0.00129134
-0.00109027
-0.000924061
-0.00078702
-0.000674547
-0.000582618
-0.000506298
-0.000444886
-0.000396794
-0.000350343
-0.000293191
-0.000213699
-0.000108358
3.46167e-05
0.000227391
0.000498466
0.000734435
0.00104035
0.000836313
)
;
    }
    rightWall
    {
        type            fixedFluxPressure;
        gradient        uniform 0;
        value           nonuniform List<scalar> 
50
(
775.135
775.253
775.132
775.315
775.626
776.253
777.993
778.643
779.732
780.901
427.3
3.46676
1.69067
1.19875
0.446797
-0.007476
-0.00531666
-0.00383594
-0.00258885
-0.00146351
0.0174522
0.0329176
0.0211347
-0.00471788
-0.00422323
-0.00365185
-0.00300472
-0.00217412
0.0217016
0.0405962
0.0418243
0.0431659
0.0446104
0.0431513
0.00431962
-0.00230135
0.00718704
0.0127362
0.0130821
0.00125811
-0.000685911
0.0107379
0.0146471
0.0149747
0.0150402
0.01121
0.0101028
0.00966129
0.00845219
0.00318983
)
;
    }
    lowerWall
    {
        type            fixedFluxPressure;
        gradient        uniform 0;
        value           nonuniform List<scalar> 
62
(
778.415
778.095
777.463
776.513
775.289
773.814
772.122
770.254
768.233
766.06
763.847
761.597
759.336
757.087
754.858
752.653
750.555
748.68
747.195
745.983
745.256
745.032
744.753
744.753
744.745
744.578
744.368
744.121
743.833
743.464
742.99
743.437
743.504
743.846
744.456
749.271
749.156
749.275
750.101
749.721
749.252
748.659
747.931
749.271
750.153
751.265
752.503
753.867
755.371
757.072
758.844
760.558
762.083
763.54
765.347
767.285
767.833
771.182
773.209
773.987
774.785
775.135
)
;
    }
    atmosphere
    {
        type            totalPressure;
        rho             rho;
        psi             none;
        gamma           1;
        p0              uniform 0;
        value           nonuniform List<scalar> 
46
(
-0.000112046
0
0
0
0
0
0
0
0
0
0
0
0
0
0
0
0
0
0
0
-1.76859e-07
-1.49662e-06
-4.1638e-06
-6.91347e-06
-9.00193e-06
-1.1313e-05
-1.38292e-05
-1.85072e-05
-2.59223e-05
-3.42597e-05
-4.33964e-05
-5.31966e-05
-6.35022e-05
-7.41226e-05
-8.48223e-05
-9.53074e-05
-0.000105211
-0.000114074
-0.000121323
-0.000126214
-0.00012768
-0.000123932
-0.00011127
-8.14122e-05
-1.75911e-05
0
)
;
    }
    defaultFaces
    {
        type            empty;
    }
}


// ************************************************************************* //
