/*--------------------------------*- C++ -*----------------------------------*\
  =========                 |
  \\      /  F ield         | OpenFOAM: The Open Source CFD Toolbox
   \\    /   O peration     | Website:  https://openfoam.org
    \\  /    A nd           | Version:  9
     \\/     M anipulation  |
\*---------------------------------------------------------------------------*/
FoamFile
{
    format      ascii;
    class       volScalarField;
    location    "0.36";
    object      p_rgh;
}
// * * * * * * * * * * * * * * * * * * * * * * * * * * * * * * * * * * * * * //

dimensions      [1 -1 -2 0 0 0 0];

internalField   nonuniform List<scalar> 
2268
(
941.4
942.178
951.631
965.63
980.236
993.082
1004.02
1013.02
1020.33
1026.33
1031.49
1036.43
1041.99
1049.38
1060.29
1077.49
1103.52
1140.94
1189.64
1243.27
1290.47
1296.88
1336.72
940.757
940.076
947.709
959.879
972.691
984.493
994.777
1003.44
1010.66
1016.76
1022.22
1027.68
1034.02
1042.48
1054.72
1072.98
1100.9
1140.77
1193.8
1253.06
1304.1
1300.05
1337.12
939.145
939.026
945.063
954.72
965.315
975.472
984.605
992.539
999.373
1005.39
1011.06
1017.03
1024.21
1033.86
1047.66
1067.8
1097.36
1138.78
1193.08
1253.66
1307.35
1313.61
1349.45
937.28
938.109
943.218
950.881
959.461
967.928
975.77
982.792
989.046
994.791
1000.47
1006.73
1014.49
1024.99
1039.87
1061.13
1091.33
1132.66
1185.71
1244.69
1299.1
1319.1
1368.59
935.415
937.394
941.806
947.878
954.749
961.689
968.292
974.382
979.987
985.339
990.867
997.205
1005.24
1016.17
1031.51
1053.07
1082.97
1122.93
1173.25
1229.28
1282.38
1316.94
1381.96
933.46
936.534
940.337
945.037
950.421
955.993
961.457
966.658
971.611
976.524
981.806
988.066
996.149
1007.17
1022.5
1043.73
1072.57
1110.33
1157
1208.82
1257.9
1305.19
1378.07
931.425
935.363
938.546
941.961
946.006
950.355
954.788
959.17
963.499
967.965
972.95
979.031
986.996
997.848
1012.8
1033.21
1060.44
1095.36
1137.55
1183.47
1224.57
1278.34
1336.69
929.411
933.992
936.41
938.486
941.275
944.549
948.091
951.755
955.521
959.56
964.227
970.06
977.774
988.25
1002.51
1021.68
1046.81
1078.32
1115.14
1152.89
1180.95
1218.27
1229.5
65.9544
65.9286
65.9146
65.9157
65.9513
66.0149
66.0816
66.1291
66.1459
66.127
66.0735
65.9932
65.8974
65.7983
65.7062
65.6287
65.5701
65.5334
65.5202
65.958
65.9328
65.9143
65.9094
65.941
66.0036
66.0695
66.1165
66.1338
66.1165
66.0654
65.9878
65.8943
65.7966
65.7051
65.6278
65.5692
65.5322
65.5174
65.9617
65.9299
65.9075
65.8982
65.9273
65.9915
66.0589
66.1062
66.1242
66.1082
66.0589
65.9833
65.8914
65.7944
65.7022
65.6232
65.5624
65.5236
65.5083
65.966
65.92
65.8933
65.8816
65.91
65.9815
66.0549
66.1042
66.1232
66.1079
66.0587
65.9824
65.8895
65.7907
65.6958
65.6132
65.5488
65.5079
65.4929
65.971
65.9051
65.8734
65.8604
65.8879
65.9729
66.057
66.1103
66.1311
66.1164
66.0657
65.9862
65.8892
65.7857
65.6854
65.5973
65.5281
65.485
65.4705
65.9749
65.8916
65.8512
65.8369
65.8601
65.9635
66.0632
66.1223
66.1459
66.1319
66.0789
65.9943
65.8905
65.7794
65.671
65.575
65.4998
65.454
65.4403
65.9928
65.8907
65.8367
65.8197
65.8345
65.9592
66.0779
66.1393
66.1642
66.1518
66.0965
66.0058
65.8933
65.772
65.6525
65.546
65.463
65.414
65.4012
65.9749
65.7932
65.8408
65.8243
65.822
65.9882
66.1304
66.1726
66.1836
66.1711
66.1147
66.0186
65.8967
65.7631
65.6298
65.5099
65.4172
65.3642
65.3519
926.411
931.483
932.352
932.156
932.991
934.745
937.095
939.814
942.831
946.281
950.47
955.866
963.056
972.694
985.482
1002.21
1023.53
1049.15
1076.88
1099.94
1102.56
1054.22
821.833
923.369
926.513
923.307
919.22
917.042
916.675
917.627
919.376
921.699
924.645
928.428
933.411
939.981
948.4
958.853
971.888
988.3
1007.45
1027.85
1042.92
1038.68
993.618
914.908
926.079
914.595
881.727
874.82
875.516
881.488
888.272
893.633
897.922
901.872
906.098
911.052
917.086
924.088
931.569
939.684
949.739
963.943
980.794
997.572
1007.93
1000.16
982.291
719.19
486.153
321.94
319.573
340.025
377.666
419.932
455.96
485.042
509.668
530.89
554.602
587.94
626.837
663.228
704.504
765.732
846.691
942.065
964.811
982.762
989.26
979.734
15.0696
0.0252351
-0.0585153
-0.291158
-0.355647
-0.373798
-0.40244
-0.439912
-0.476839
-0.508024
-0.533531
-0.534536
1.26222
13.942
26.8615
44.0443
74.1788
128.019
231.553
469.03
851.728
1023.63
1014.1
-0.500974
-0.306661
-0.302535
-0.305856
-0.286913
-0.272198
-0.271709
-0.281735
-0.296788
-0.312414
-0.323939
-0.324254
-0.316545
-0.361707
-0.490214
-0.678464
-0.930053
-1.24629
-1.67476
0.60793
37.3561
119.552
247.506
-0.468897
-0.411548
-0.357018
-0.344671
-0.342727
-0.342987
-0.348994
-0.360835
-0.375992
-0.391741
-0.405779
-0.416263
-0.426139
-0.454889
-0.517996
-0.5982
-0.683749
-0.761416
-0.813977
-0.913324
-1.37068
-2.22649
-2.65752
-0.470058
-0.431916
-0.401838
-0.38935
-0.389329
-0.393726
-0.402441
-0.415796
-0.432565
-0.45134
-0.471342
-0.493217
-0.521123
-0.564737
-0.631193
-0.717507
-0.820112
-0.934267
-1.04652
-1.13741
-1.22951
-1.41911
-1.56668
-0.48591
-0.460634
-0.443032
-0.434485
-0.4345
-0.439725
-0.449432
-0.463642
-0.48178
-0.503225
-0.527943
-0.557131
-0.594107
-0.64429
-0.711626
-0.796151
-0.896167
-1.00895
-1.12979
-1.25575
-1.4078
-1.61284
-1.82047
-0.520735
-0.501492
-0.488499
-0.481928
-0.48233
-0.488245
-0.498931
-0.514231
-0.53389
-0.5577
-0.585906
-0.619628
-0.661178
-0.713731
-0.779701
-0.859615
-0.952775
-1.05798
-1.17435
-1.30419
-1.45779
-1.6362
-1.80944
-0.556159
-0.543587
-0.534206
-0.529744
-0.531176
-0.537998
-0.549767
-0.56632
-0.587538
-0.613385
-0.644169
-0.680801
-0.724895
-0.778469
-0.843129
-0.919549
-1.00771
-1.10732
-1.21843
-1.34256
-1.48333
-1.64016
-1.80169
-0.593388
-0.585852
-0.579185
-0.576633
-0.579259
-0.587088
-0.599953
-0.617745
-0.640388
-0.667892
-0.700545
-0.739059
-0.78459
-0.838515
-0.901998
-0.975727
-1.06003
-1.15508
-1.26111
-1.37884
-1.50954
-1.65255
-1.80285
-0.630624
-0.626779
-0.622335
-0.621494
-0.625369
-0.63429
-0.648259
-0.667212
-0.691083
-0.719893
-0.75389
-0.793639
-0.839999
-0.893956
-0.95637
-1.02789
-1.109
-1.20008
-1.30143
-1.41345
-1.53656
-1.67011
-1.81134
-0.666931
-0.665371
-0.662834
-0.663596
-0.668785
-0.678876
-0.693955
-0.71398
-0.738896
-0.768742
-0.803754
-0.844398
-0.891328
-0.945256
-1.00682
-1.07661
-1.15518
-1.24302
-1.34047
-1.44779
-1.56508
-1.69179
-1.82618
-0.701552
-0.70128
-0.70036
-0.702609
-0.709139
-0.720434
-0.73661
-0.757629
-0.783456
-0.814169
-0.850023
-0.891433
-0.938898
-0.992909
-1.05394
-1.12251
-1.19924
-1.2847
-1.37929
-1.48322
-1.59654
-1.71881
-1.84889
-0.733949
-0.734333
-0.734794
-0.738409
-0.746249
-0.758744
-0.775987
-0.797937
-0.82459
-0.85609
-0.892735
-0.934908
-0.982985
-1.03727
-1.09811
-1.166
-1.24164
-1.32568
-1.4186
-1.52066
-1.63192
-1.75214
-1.88061
-0.763773
-0.764441
-0.766067
-0.770922
-0.779997
-0.793649
-0.811921
-0.834761
-0.862206
-0.894474
-0.93192
-0.97491
-1.02371
-1.07849
-1.1395
-1.20727
-1.28258
-1.36619
-1.45866
-1.56033
-1.67143
-1.79193
-1.92156
-0.790759
-0.791525
-0.794109
-0.800062
-0.81027
-0.825008
-0.84426
-0.867965
-0.896199
-0.929252
-0.96753
-1.01139
-1.06101
-1.11649
-1.17804
-1.24623
-1.32193
-1.40599
-1.4991
-1.60176
-1.71442
-1.83738
-1.97071
-0.814707
-0.815486
-0.818832
-0.825729
-0.836949
-0.852683
-0.872862
-0.89741
-0.92644
-0.960295
-0.99942
-1.04417
-1.09468
-1.15103
-1.21345
-1.28256
-1.35927
-1.44453
-1.53917
-1.64394
-1.75963
-1.88685
-2.02596
-0.835453
-0.836208
-0.840143
-0.84783
-0.859934
-0.876562
-0.8976
-0.922959
-0.952771
-0.98742
-1.02737
-1.07298
-1.1244
-1.18173
-1.24528
-1.31571
-1.39395
-1.48099
-1.57784
-1.68561
-1.80542
-1.93815
-2.08441
-0.85286
-0.853596
-0.857976
-0.86631
-0.879164
-0.89657
-0.918372
-0.944469
-0.975011
-1.0104
-1.05111
-1.09751
-1.14979
-1.20814
-1.27296
-1.34495
-1.42502
-1.51422
-1.6138
-1.72518
-1.8498
-1.98869
-2.14271
-0.866849
-0.867606
-0.872317
-0.881172
-0.894638
-0.912683
-0.935116
-0.961829
-0.992988
-1.02901
-1.07037
-1.11744
-1.17046
-1.22975
-1.2958
-1.36935
-1.45129
-1.54279
-1.64534
-1.76064
-1.89032
-2.03552
-2.19733
-0.877393
-0.878239
-0.883205
-0.892475
-0.906413
-0.924934
-0.94782
-0.974972
-1.00658
-1.04306
-1.08488
-1.1324
-1.18596
-1.24599
-1.31306
-1.38794
-1.47155
-1.56522
-1.67069
-1.78985
-1.92441
-2.07561
-2.24493
-0.884502
-0.885513
-0.890684
-0.90027
-0.91453
-0.933337
-0.956466
-0.983837
-1.01566
-1.05235
-1.09435
-1.14203
-1.19582
-1.25626
-1.32402
-1.39985
-1.48478
-1.5803
-1.68836
-1.8109
-1.9497
-2.1062
-2.28231
-0.888181
-0.889423
-0.894747
-0.90454
-0.91895
-0.93783
-0.96097
-0.98832
-1.0201
-1.05669
-1.09852
-1.14598
-1.19961
-1.26008
-1.32808
-1.40441
-1.49019
-1.58708
-1.69708
-1.82216
-1.96416
-2.12481
-2.30647
-0.888406
-0.889912
-0.895325
-0.905191
-0.919561
-0.938288
-0.961203
-0.988286
-1.01975
-1.05592
-1.09718
-1.14402
-1.19708
-1.25712
-1.32487
-1.40115
-1.48718
-1.58471
-1.69573
-1.82216
-1.96598
-2.12921
-2.31457
-0.885117
-0.886886
-0.892314
-0.902116
-0.916253
-0.934606
-0.957062
-0.983639
-1.01451
-1.04994
-1.09027
-1.13607
-1.18814
-1.24728
-1.3142
-1.38975
-1.47523
-1.57241
-1.68322
-1.80953
-1.95346
-2.11728
-2.30394
-0.878253
-0.880267
-0.885636
-0.895253
-0.908986
-0.926759
-0.948534
-0.974376
-1.00441
-1.0388
-1.07788
-1.12231
-1.17296
-1.23066
-1.29606
-1.37002
-1.4539
-1.5495
-1.65861
-1.7831
-1.92519
-2.08724
-2.27236
-0.867813
-0.870044
-0.875292
-0.884631
-0.897811
-0.914813
-0.935696
-0.960587
-0.989559
-1.02267
-1.06023
-1.10296
-1.15178
-1.20742
-1.27048
-1.34185
-1.42296
-1.51556
-1.62138
-1.74224
-1.88039
-2.03812
-2.21855
-0.853892
-0.856294
-0.861383
-0.870369
-0.882858
-0.898906
-0.918699
-0.942433
-0.970124
-1.00173
-1.03751
-1.07822
-1.12472
-1.17765
-1.23754
-1.30531
-1.38247
-1.4707
-1.57163
-1.68705
-1.8191
-1.96986
-2.14246
-0.83662
-0.83916
-0.844057
-0.852637
-0.864304
-0.879244
-0.897782
-0.92017
-0.946349
-0.976169
-1.00987
-1.04817
-1.09186
-1.14145
-1.19741
-1.26072
-1.33288
-1.41548
-1.51
-1.61815
-1.74192
-1.88305
-2.04465
-0.816053
-0.818783
-0.823432
-0.831577
-0.84232
-0.856072
-0.873263
-0.894158
-0.918587
-0.946308
-0.977546
-1.01302
-1.05343
-1.09914
-1.15057
-1.2087
-1.27495
-1.35072
-1.43733
-1.53639
-1.64967
-1.77858
-1.92603
-0.792177
-0.795286
-0.799558
-0.807291
-0.81708
-0.829668
-0.845517
-0.864818
-0.887264
-0.912562
-0.940985
-0.973266
-1.01
-1.0514
-1.09779
-1.15009
-1.20956
-1.27738
-1.3547
-1.44298
-1.54377
-1.65811
-1.78855
-0.765052
-0.76884
-0.772498
-0.779949
-0.788831
-0.80037
-0.814922
-0.832528
-0.852766
-0.875366
-0.900699
-0.929509
-0.962247
-0.998954
-1.03984
-1.08572
-1.13766
-1.19662
-1.26355
-1.33973
-1.42645
-1.52441
-1.6356
-0.734734
-0.739863
-0.742424
-0.749932
-0.757984
-0.768579
-0.781806
-0.797555
-0.815372
-0.835087
-0.857171
-0.882314
-0.910777
-0.942425
-0.977389
-1.01639
-1.0603
-1.10982
-1.16565
-1.22884
-1.3004
-1.38074
-1.4713
-0.700739
-0.70943
-0.709426
-0.717916
-0.725057
-0.73464
-0.746368
-0.760044
-0.775285
-0.79205
-0.810832
-0.832181
-0.856155
-0.882508
-0.911335
-0.943248
-0.978886
-1.01862
-1.06292
-1.11259
-1.16841
-1.23057
-1.30004
-0.662174
-0.678936
-0.673434
-0.684768
-0.690305
-0.698621
-0.70863
-0.72008
-0.732712
-0.746557
-0.762045
-0.77955
-0.798987
-0.820056
-0.842797
-0.867632
-0.894889
-0.924673
-0.957255
-0.993237
-1.03321
-1.07724
-1.12598
-0.620264
-0.647179
-0.636683
-0.649796
-0.653292
-0.660449
-0.668673
-0.677885
-0.687957
-0.698932
-0.71115
-0.724852
-0.739861
-0.75582
-0.772646
-0.790512
-0.809464
-0.829398
-0.85043
-0.872966
-0.897395
-0.923778
-0.952576
-0.577204
-0.615871
-0.598263
-0.612391
-0.615795
-0.621065
-0.627331
-0.634326
-0.641898
-0.65008
-0.659125
-0.669161
-0.679917
-0.690966
-0.702111
-0.713308
-0.724349
-0.734912
-0.744922
-0.7546
-0.764168
-0.773615
-0.783339
-0.526173
-0.594851
-0.561249
-0.57609
-0.578832
-0.582121
-0.586313
-0.591126
-0.596347
-0.601958
-0.608094
-0.614728
-0.621504
-0.627989
-0.633929
-0.639078
-0.642968
-0.645078
-0.645157
-0.643187
-0.639098
-0.632687
-0.624276
-0.44456
-0.598046
-0.534397
-0.541625
-0.541951
-0.542761
-0.544703
-0.547388
-0.550471
-0.553792
-0.557293
-0.5608
-0.563945
-0.566328
-0.567624
-0.56743
-0.565143
-0.560122
-0.551887
-0.540058
-0.524211
-0.504004
-0.47999
-0.327853
-0.602426
-0.509569
-0.499655
-0.495386
-0.493665
-0.493409
-0.49394
-0.494808
-0.495713
-0.496395
-0.496574
-0.495928
-0.494085
-0.490622
-0.485062
-0.476837
-0.465279
-0.449672
-0.429305
-0.403516
-0.371857
-0.334628
330.583
377.063
497.553
540.374
816.049
785.468
762.247
723.033
943
907.806
878.205
854.547
959.512
949.68
944.403
939.512
1002.66
1001.39
1003.26
1006.47
416.17
615.095
611.388
586.859
-2.6395
-1.37212
0.177361
2.11131
-1.60838
-1.67086
-1.7999
-1.96639
-1.97339
-2.04867
-2.11116
-2.16549
-1.92041
-1.99384
-2.07453
-2.15771
-1.91755
-1.99339
-2.07153
-2.14989
-1.91495
-1.98737
-2.06075
-2.13443
-1.91843
-1.98792
-2.0581
-2.12868
-1.9292
-1.99662
-2.06499
-2.13422
-1.9495
-2.01596
-2.08397
-2.15345
-1.9809
-2.04783
-2.11702
-2.1883
-2.02389
-2.09284
-2.16469
-2.23911
-2.07725
-2.14961
-2.22537
-2.30405
-2.13841
-2.21532
-2.29611
-2.38003
-2.20386
-2.28601
-2.3726
-2.46261
-2.26952
-2.35722
-2.45003
-2.54671
-2.33147
-2.42475
-2.52398
-2.62758
-2.38622
-2.48502
-2.59061
-2.70107
-2.43035
-2.53445
-2.64612
-2.76306
-2.46027
-2.56902
-2.68611
-2.80893
-2.47252
-2.58479
-2.70625
-2.83402
-2.46402
-2.57842
-2.70285
-2.83416
-2.43229
-2.54718
-2.67277
-2.80564
-2.37568
-2.48916
-2.61369
-2.74565
-2.29383
-2.40366
-2.52459
-2.65264
-2.18715
-2.2908
-2.40509
-2.52577
-2.0565
-2.15142
-2.25604
-2.36602
-1.90406
-1.98806
-2.08049
-2.17704
-1.7339
-1.8053
-1.8837
-1.965
-1.55108
-1.60895
-1.67232
-1.73751
-1.36097
-1.40508
-1.45319
-1.50217
-1.16855
-1.19917
-1.23233
-1.26572
-0.977959
-0.996072
-1.01532
-1.03424
-0.792741
-0.799625
-0.80656
-0.81264
-0.618287
-0.614917
-0.6114
-0.606946
-0.461716
-0.449744
-0.43721
-0.42305
-0.304646
-0.284838
-0.264452
-0.242909
339.029
69.2199
65.7905
65.891
65.6994
66.1025
66.2982
66.2724
66.234
66.2106
66.1463
66.039
65.9012
65.7458
65.5864
65.4407
65.3291
65.2685
65.2566
665.075
639.115
602.706
373.535
123.251
83.1768
68.9207
66.7808
66.4839
66.3803
66.2367
66.0746
65.8993
65.7078
65.5011
65.3039
65.1512
65.0726
65.0624
816.967
803.311
801.173
790.745
790.891
714.966
384.73
129.195
72.8613
67.7853
66.5002
66.1053
65.8747
65.6401
65.3725
65.1034
64.8888
64.7813
64.7735
926.702
915.984
911.767
909.245
913.347
918.021
922.314
876.91
501.337
122.827
67.2386
66.1475
65.8405
65.5382
65.1766
64.8063
64.5039
64.3535
64.3483
1012.89
1012.18
1012.89
1013.61
1017.12
1023.9
1033.41
1042.43
1051.17
826.347
246.862
67.9226
66.0164
65.408
64.8815
64.3583
63.9356
63.7282
63.7279
833.43
1111.12
1117.07
1115.07
1128.53
1136.16
1141.41
1146.38
1157.68
1171.1
970.027
284.953
69.1684
65.5681
64.4244
63.6597
63.0823
62.8148
62.8283
22.3426
60.3574
96.5355
249.839
675.853
1019.68
1154.89
1225.73
1263.99
1276.17
1291.22
963.673
199.785
66.9893
63.84
62.5682
61.7958
61.4906
61.5405
-2.34986
-2.88234
-3.11845
-3.2317
-3.43887
-3.63801
20.3996
414.72
1143.17
1384
1392.56
1383.57
714.39
84.8424
63.3263
60.9045
59.9078
59.6204
59.7433
-2.26149
-2.48754
-2.66944
-2.78512
-2.86347
-2.88325
-2.96227
-3.43652
26.7765
703.526
1478.97
1493.38
1207.56
252.905
62.4822
58.357
57.2602
57.0956
57.3367
-2.29706
-2.50323
-2.67882
-2.80321
-2.88989
-2.93105
-2.9333
-2.92486
-3.21068
62.3277
1046.16
1589.88
1461.05
498.024
61.0686
55.0311
53.8734
53.9033
54.2921
-2.28145
-2.4676
-2.62908
-2.75279
-2.84197
-2.89368
-2.91145
-2.90304
-2.84824
-3.30329
479.015
1574.02
1558.77
705.967
65.0799
51.5419
50.0169
50.1654
50.6805
-2.25882
-2.4318
-2.58568
-2.70944
-2.79906
-2.85104
-2.86718
-2.84751
-2.73832
-2.86619
159.253
1427.87
1587.73
902.818
76.6051
47.8791
45.8085
46.0379
46.6341
-2.24826
-2.41562
-2.568
-2.69438
-2.78649
-2.83821
-2.84881
-2.82196
-2.72692
-2.73267
23.0762
1239.73
1656.01
1052.64
102.689
43.046
41.0771
41.6196
42.3005
-2.25222
-2.41904
-2.57437
-2.7066
-2.80408
-2.85743
-2.86357
-2.83006
-2.73533
-2.60416
-2.66677
1085.08
1678.15
1078.31
100.084
36.8705
36.1635
37.1358
37.8453
-2.27255
-2.44269
-2.6046
-2.74568
-2.85097
-2.90749
-2.90935
-2.86417
-2.74423
-2.54601
-3.01427
910.506
1697.82
1011.91
76.4778
30.8599
31.8322
32.8529
33.5116
-2.31097
-2.48801
-2.65979
-2.81235
-2.9274
-2.98111
-2.97417
-2.92068
-2.77895
-2.58687
-3.55201
873.375
1710.99
776.941
41.7292
27.6195
28.2623
28.8816
29.4519
-2.36752
-2.55485
-2.73973
-2.90591
-3.03132
-3.08365
-3.04713
-2.98201
-2.80922
-2.63423
25.4453
1061.08
1458.74
425.708
31.9888
26.1598
24.9146
25.1986
25.7009
-2.44014
-2.64082
-2.84175
-3.0238
-3.16059
-3.20229
-3.17268
-3.07674
-2.86296
-2.69198
127.282
1193.2
1366.42
315.21
27.7994
23.1082
21.5681
21.7533
22.2312
-2.52529
-2.74163
-2.96098
-3.161
-3.30992
-3.34543
-3.33033
-3.23365
-3.00844
-2.93409
482.848
1347.67
1357.5
384.754
22.7131
18.1696
18.1829
18.5478
19.0393
-2.6184
-2.85204
-3.09143
-3.31111
-3.46132
-3.51724
-3.51623
-3.44688
-3.2849
-3.62291
987.804
1419.91
1422.65
320.184
14.6397
14.6618
15.0649
15.5944
16.1696
-2.71405
-2.9663
-3.22696
-3.4674
-3.6248
-3.7013
-3.71381
-3.68232
-3.61033
-4.45987
798.94
1479.68
896.55
99.1487
12.1983
12.2123
12.3286
12.9563
13.6226
-2.80703
-3.07891
-3.36227
-3.62494
-3.80379
-3.88669
-3.92547
-3.84426
-3.75839
0.723601
288.331
274.151
105.945
44.9918
12.1708
10.1197
10.061
10.7569
11.4376
-2.89265
-3.18495
-3.493
-3.78111
-3.96343
-4.08657
-4.14426
-4.01837
11.2657
182.015
77.3193
17.1909
12.8503
14.6489
12.4927
8.15262
8.36288
9.05911
9.62748
-2.9663
-3.27933
-3.61386
-3.93207
-4.08408
-4.27271
-4.40299
-4.34923
189.014
569.119
220.383
9.78793
10.4009
8.27504
9.21895
6.95347
7.26671
7.7859
8.14941
-3.02301
-3.3562
-3.71829
-4.07219
-4.26146
-4.45714
-4.66959
-4.73088
432.519
610.774
468.555
35.6089
9.21875
8.2713
6.73326
6.49872
6.53639
6.76718
6.91544
-3.05755
-3.40928
-3.7992
-4.19397
-4.50102
-4.43985
-4.89642
-5.03035
360.098
655.536
665.747
149.495
8.52209
7.55788
6.31448
5.90612
5.77057
5.80357
5.81975
-3.06465
-3.4319
-3.848
-4.28367
-4.66746
-4.07966
-4.96233
-5.27647
211.389
690.383
684.086
264.097
6.78174
6.42021
5.2986
4.90248
4.75409
4.76535
4.77833
-3.03944
-3.41707
-3.8547
-4.32815
-4.7756
-4.25826
-4.99443
-5.50746
131.012
711.812
702.043
499.766
16.8431
5.19024
3.7267
3.46859
3.52416
3.64406
3.7627
-2.97821
-3.35858
-3.80953
-4.31549
-4.83258
-5.20677
-2.53367
-5.80513
70.9792
735.981
723.253
726.829
106.366
1.87357
1.41
1.78091
2.20463
2.5128
2.79726
-2.87824
-3.25143
-3.70387
-4.23307
-4.79892
-5.2361
-2.56494
-4.40904
-4.84061
706.378
751.372
753.997
92.2144
-3.03776
-1.19984
0.0644052
0.945114
1.4815
1.93209
-2.73804
-3.09262
-3.52974
-4.05804
-4.65782
-5.25086
-5.5628
0.574987
-3.07952
320.387
779.024
419.064
35.9703
-6.1847
-3.0449
-1.25066
-0.0436532
0.6725
1.22136
-2.55895
-2.88287
-3.2859
-3.78429
-4.38049
-5.02866
-5.51777
-1.87808
2.21431
1.55221
119.955
8.47811
2.58366
-7.03539
-3.71894
-1.86971
-0.604103
0.162995
0.699769
-2.34563
-2.62818
-2.97963
-3.41785
-3.9555
-4.58031
-5.18504
-5.22277
-3.43359
-3.16766
-5.41159
-6.06549
-7.65957
-5.98293
-3.44568
-1.86179
-0.762709
-0.06542
0.36073
-2.10582
-2.33952
-2.6272
-2.98361
-3.42184
-3.94674
-4.54524
-4.98569
-4.91834
-5.41315
-6.32205
-6.36826
-6.11733
-4.50787
-2.70964
-1.5098
-0.6636
-0.103691
0.161769
-1.84904
-2.0308
-2.25
-2.51621
-2.83816
-3.222
-3.66463
-4.08137
-4.39759
-4.75903
-4.98511
-4.80673
-4.24615
-3.07204
-1.89551
-1.05789
-0.450913
-0.051884
0.0524824
-1.58479
-1.716
-1.86927
-2.04918
-2.25989
-2.50402
-2.77936
-3.05835
-3.29824
-3.45701
-3.43994
-3.18504
-2.6853
-1.93486
-1.19876
-0.636219
-0.223348
0.0207911
-0.0032729
-1.3213
-1.40667
-1.50172
-1.60716
-1.725
-1.85536
-1.99569
-2.13481
-2.24577
-2.28695
-2.20736
-1.98351
-1.61932
-1.14349
-0.676129
-0.300727
-0.0348544
0.0815215
-0.0251912
-1.06516
-1.11084
-1.15801
-1.20426
-1.2528
-1.30312
-1.35256
-1.39697
-1.42267
-1.40675
-1.32404
-1.1606
-0.916857
-0.614075
-0.312503
-0.0652622
0.0936436
0.12044
-0.0253172
-0.822075
-0.834965
-0.844979
-0.846183
-0.84806
-0.85102
-0.850371
-0.845215
-0.830492
-0.795069
-0.726459
-0.615754
-0.460728
-0.271866
-0.0802945
0.0761413
0.16101
0.137402
-0.0134303
-0.598658
-0.585291
-0.564498
-0.521694
-0.492809
-0.483259
-0.468156
-0.449799
-0.426596
-0.394222
-0.34678
-0.278758
-0.187174
-0.0758842
0.0390247
0.130494
0.167909
0.127108
-0.00294094
-0.39666
-0.357355
-0.298045
-0.181516
-0.130585
-0.162249
-0.171779
-0.170791
-0.163709
-0.150022
-0.12773
-0.094355
-0.0479903
0.0102423
0.0726346
0.122277
0.137999
0.10579
0.00791976
-0.204362
-0.137374
-0.0339054
0.150841
0.175735
0.0824895
0.0371344
0.0127095
-0.00571029
-0.0203855
-0.0310742
-0.0369194
-0.0370403
-0.0315415
-0.0228047
-0.0163324
-0.0160523
-0.0140673
-0.0222218
)
;

boundaryField
{
    leftWall
    {
        type            fixedFluxPressure;
        gradient        uniform 0;
        value           nonuniform List<scalar> 
50
(
941.4
940.757
939.145
937.28
935.415
933.46
931.425
929.411
926.411
923.369
926.079
719.19
15.0696
-0.500974
-0.468897
-0.470058
-0.48591
-0.520735
-0.556159
-0.593388
-0.630624
-0.666931
-0.701552
-0.733949
-0.763773
-0.790759
-0.814707
-0.835453
-0.85286
-0.866849
-0.877393
-0.884502
-0.888181
-0.888406
-0.885117
-0.878253
-0.867813
-0.853892
-0.83662
-0.816053
-0.792177
-0.765052
-0.734734
-0.700739
-0.662174
-0.620264
-0.577204
-0.526173
-0.44456
-0.327853
)
;
    }
    rightWall
    {
        type            fixedFluxPressure;
        gradient        uniform 0;
        value           nonuniform List<scalar> 
50
(
65.5202
65.5174
65.5083
65.4929
65.4705
65.4403
65.4012
65.3519
65.2566
65.0624
64.7735
64.3483
63.7279
62.8283
61.5405
59.7433
57.3367
54.2921
50.6805
46.6341
42.3005
37.8453
33.5116
29.4519
25.7009
22.2312
19.0393
16.1696
13.6226
11.4376
9.62748
8.14941
6.91544
5.81975
4.77833
3.7627
2.79726
1.93209
1.22136
0.699769
0.36073
0.161769
0.0524824
-0.0032729
-0.0251912
-0.0253172
-0.0134303
-0.00294094
0.00791976
-0.0222218
)
;
    }
    lowerWall
    {
        type            fixedFluxPressure;
        gradient        uniform 0;
        value           nonuniform List<scalar> 
62
(
941.4
942.178
951.631
965.63
980.236
993.082
1004.02
1013.02
1020.33
1026.33
1031.49
1036.43
1041.99
1049.38
1060.29
1077.49
1103.52
1140.94
1189.64
1243.27
1290.47
1296.88
1336.72
1336.72
1337.12
1349.45
1368.59
1381.96
1378.07
1336.69
1229.5
330.583
377.063
497.553
540.374
65.9544
65.958
65.9617
65.966
65.971
65.9749
65.9928
65.9749
65.9544
65.9286
65.9146
65.9157
65.9513
66.0149
66.0816
66.1291
66.1459
66.127
66.0735
65.9932
65.8974
65.7983
65.7062
65.6287
65.5701
65.5334
65.5202
)
;
    }
    atmosphere
    {
        type            totalPressure;
        rho             rho;
        psi             none;
        gamma           1;
        p0              uniform 0;
        value           nonuniform List<scalar> 
46
(
-0.33048
-0.507853
-0.473215
-0.46718
-0.463084
-0.460908
-0.459824
-0.45929
-0.458939
-0.458448
-0.457462
-0.455665
-0.452798
-0.448531
-0.442385
-0.433852
-0.422445
-0.407596
-0.388565
-0.364557
-0.334936
-0.299273
-0.257381
-0.222158
-0.200839
-0.181271
-0.163176
-0.133794
-0.0866945
-0.0438331
-0.018654
-0.000860508
0
0
0
0
0
0
0
0
0
0
0
0
0
0
)
;
    }
    defaultFaces
    {
        type            empty;
    }
}


// ************************************************************************* //
