/*--------------------------------*- C++ -*----------------------------------*\
  =========                 |
  \\      /  F ield         | OpenFOAM: The Open Source CFD Toolbox
   \\    /   O peration     | Website:  https://openfoam.org
    \\  /    A nd           | Version:  9
     \\/     M anipulation  |
\*---------------------------------------------------------------------------*/
FoamFile
{
    format      ascii;
    class       surfaceScalarField;
    location    "4.18";
    object      phi;
}
// * * * * * * * * * * * * * * * * * * * * * * * * * * * * * * * * * * * * * //

dimensions      [0 3 -1 0 0 0 0];

internalField   nonuniform List<scalar> 
4432
(
3.28216e-07
-3.28216e-07
5.45811e-07
-2.17594e-07
6.99526e-07
-1.53713e-07
8.15086e-07
-1.15559e-07
8.97501e-07
-8.24143e-08
9.49781e-07
-5.22808e-08
9.73557e-07
-2.3776e-08
9.72045e-07
1.51034e-09
9.49384e-07
2.26586e-08
9.11836e-07
3.7546e-08
8.6885e-07
4.29839e-08
8.39821e-07
2.90277e-08
8.48153e-07
-8.3321e-09
9.23188e-07
-7.5036e-08
1.08992e-06
-1.66732e-07
1.33225e-06
-2.42326e-07
1.38626e-06
-5.40145e-08
7.30716e-07
6.55546e-07
-3.37814e-07
1.06853e-06
-8.9471e-07
5.569e-07
-6.62216e-07
-2.3249e-07
-1.62449e-07
-4.99765e-07
-1.62447e-07
2.65996e-07
-5.94209e-07
4.64218e-07
-4.15816e-07
6.14906e-07
-3.04399e-07
7.27821e-07
-2.28473e-07
8.08952e-07
-1.63546e-07
8.61796e-07
-1.05127e-07
8.89864e-07
-5.1846e-08
8.9568e-07
-4.3085e-09
8.82396e-07
3.59399e-08
8.55824e-07
6.41156e-08
8.23553e-07
7.52538e-08
7.94762e-07
5.78176e-08
7.83152e-07
3.27666e-09
8.00193e-07
-9.20774e-08
8.485e-07
-2.1504e-07
9.01572e-07
-2.95396e-07
8.31021e-07
1.65408e-08
4.76563e-07
1.01001e-06
-3.87315e-09
1.54898e-06
-3.67643e-07
9.20674e-07
-3.73713e-07
-2.26416e-07
-2.05963e-07
-6.67512e-07
-3.6841e-07
2.28569e-07
-8.22776e-07
4.14141e-07
-6.01388e-07
5.63891e-07
-4.54149e-07
6.80975e-07
-3.45557e-07
7.68113e-07
-2.50684e-07
8.28377e-07
-1.65392e-07
8.64618e-07
-8.80876e-08
8.78948e-07
-1.86385e-08
8.74624e-07
4.02637e-08
8.5643e-07
8.23087e-08
8.28296e-07
1.03388e-07
7.94642e-07
9.14715e-08
7.62057e-07
3.58614e-08
7.32184e-07
-6.22051e-08
6.96089e-07
-1.78945e-07
6.27549e-07
-2.26856e-07
5.13894e-07
1.30197e-07
3.52394e-07
1.17151e-06
1.89566e-07
1.71181e-06
-1.93559e-08
1.1296e-06
-1.12367e-07
-1.33407e-07
-9.0253e-08
-6.89627e-07
-4.58666e-07
2.0276e-07
-1.02553e-06
3.79787e-07
-7.78415e-07
5.31688e-07
-6.06051e-07
6.56173e-07
-4.70043e-07
7.52875e-07
-3.47386e-07
8.23403e-07
-2.35919e-07
8.69889e-07
-1.34572e-07
8.93941e-07
-4.26886e-08
8.98317e-07
3.58885e-08
8.86262e-07
9.43649e-08
8.59424e-07
1.30228e-07
8.1833e-07
1.32566e-07
7.65047e-07
8.91443e-08
6.9597e-07
6.87124e-09
5.98086e-07
-8.10622e-08
4.51825e-07
-8.05981e-08
3.077e-07
2.74321e-07
2.75889e-07
1.20332e-06
2.6873e-07
1.71896e-06
2.02873e-07
1.19545e-06
1.08862e-07
-3.94049e-08
6.39609e-08
-6.44732e-07
-3.94712e-07
1.85267e-07
-1.2108e-06
3.57909e-07
-9.51058e-07
5.15128e-07
-7.63271e-07
6.49954e-07
-6.04869e-07
7.58614e-07
-4.56046e-07
8.41283e-07
-3.18587e-07
8.99227e-07
-1.92515e-07
9.33288e-07
-7.67485e-08
9.45545e-07
2.36333e-08
9.38433e-07
1.01479e-07
9.11342e-07
1.5732e-07
8.61822e-07
1.82087e-07
7.89417e-07
1.61548e-07
6.89676e-07
1.06611e-07
5.50065e-07
5.85473e-08
3.64502e-07
1.04961e-07
1.98602e-07
4.40218e-07
2.05511e-07
1.1964e-06
2.94525e-07
1.62994e-06
3.25957e-07
1.16401e-06
2.17341e-07
6.9201e-08
1.36477e-07
-5.63876e-07
-2.58238e-07
1.75446e-07
-1.38625e-06
3.48587e-07
-1.1242e-06
5.14415e-07
-9.291e-07
6.61964e-07
-7.5242e-07
7.84298e-07
-5.78381e-07
8.80258e-07
-4.14549e-07
9.50257e-07
-2.62515e-07
9.94173e-07
-1.20665e-07
1.01347e-06
4.33675e-09
1.01017e-06
1.04771e-07
9.8196e-07
1.85533e-07
9.2394e-07
2.40106e-07
8.35043e-07
2.50444e-07
7.11849e-07
2.29804e-07
5.46906e-07
2.23488e-07
3.4509e-07
3.06775e-07
1.7347e-07
6.11837e-07
1.69756e-07
1.20011e-06
2.82366e-07
1.51733e-06
3.27379e-07
1.11899e-06
1.92994e-07
2.03581e-07
7.44574e-08
-4.4534e-07
-1.83776e-07
1.72113e-07
-1.55836e-06
3.51959e-07
-1.30405e-06
5.29886e-07
-1.10703e-06
6.92092e-07
-9.14628e-07
8.29119e-07
-7.15411e-07
9.38861e-07
-5.24296e-07
1.02094e-06
-3.44598e-07
1.07414e-06
-1.73872e-07
1.09942e-06
-2.0942e-08
1.09879e-06
1.05393e-07
1.06883e-06
2.1549e-07
1.00263e-06
3.06299e-07
8.99673e-07
3.534e-07
7.59023e-07
3.70452e-07
5.7869e-07
4.03821e-07
3.71697e-07
5.13769e-07
2.00439e-07
7.83096e-07
1.72615e-07
1.22794e-06
2.44327e-07
1.44561e-06
2.44072e-07
1.11924e-06
6.9408e-08
3.7825e-07
-1.40313e-07
-2.3561e-07
-3.24078e-07
1.75174e-07
-1.73354e-06
3.68048e-07
-1.49693e-06
5.61291e-07
-1.30027e-06
7.39155e-07
-1.0925e-06
8.91017e-07
-8.67277e-07
1.0143e-06
-6.47584e-07
1.108e-06
-4.38296e-07
1.16952e-06
-2.35396e-07
1.19937e-06
-5.0795e-08
1.20004e-06
1.04723e-07
1.16779e-06
2.4773e-07
1.0939e-06
3.80194e-07
9.79049e-07
4.68248e-07
8.25286e-07
5.24216e-07
6.35005e-07
5.94102e-07
4.25933e-07
7.2284e-07
2.5198e-07
9.57048e-07
1.90912e-07
1.28901e-06
1.99389e-07
1.43714e-06
1.32801e-07
1.18583e-06
-1.01695e-07
6.12749e-07
-4.27587e-07
9.02889e-08
-7.51664e-07
-7.88046e-07
7.88046e-07
-2.45354e-07
-5.42697e-07
1.88769e-07
-4.34121e-07
3.55695e-07
-1.66929e-07
3.22884e-07
3.28143e-08
1.46116e-07
1.76769e-07
-1.27033e-07
2.73158e-07
-3.46528e-07
2.19501e-07
-1.9264e-07
-1.53885e-07
3.78436e-07
-5.71077e-07
5.43142e-07
-1.6471e-07
-6.24465e-07
1.16761e-06
-2.50326e-06
1.8788e-06
-2.49972e-06
-3.54411e-09
3.05806e-08
-2.5303e-06
3.08849e-06
-3.05792e-06
5.45381e-06
-2.36531e-06
3.91413e-06
1.53968e-06
3.91412e-06
-1.34372e-07
9.2242e-07
9.99291e-10
-6.78076e-07
6.81071e-08
-5.01225e-07
5.62653e-08
-1.55087e-07
-4.60296e-08
1.35121e-07
-2.15875e-07
3.46619e-07
-4.16225e-07
4.73515e-07
-5.77003e-07
3.8028e-07
-5.93434e-07
-1.37457e-07
-4.04508e-07
-7.60004e-07
-4.89728e-07
-7.9496e-08
-1.17868e-06
1.85656e-06
-1.59519e-06
2.29531e-06
-9.17271e-07
-6.81472e-07
5.77155e-07
-4.02472e-06
2.35934e-06
-4.84012e-06
3.86565e-06
-3.87162e-06
3.38153e-06
2.0238e-06
7.29565e-06
2.05173e-07
7.17248e-07
4.83366e-08
-5.21245e-07
-8.63492e-08
-3.66537e-07
-2.06033e-07
-3.54063e-08
-3.48397e-07
2.77489e-07
-5.18903e-07
5.17122e-07
-6.95976e-07
6.50587e-07
-8.62453e-07
5.46756e-07
-9.72408e-07
-2.75057e-08
-9.99506e-07
-7.32905e-07
-1.1451e-06
6.60912e-08
-1.31485e-06
2.02631e-06
-1.0471e-06
2.02756e-06
-2.49427e-07
-1.47915e-06
6.197e-07
-4.89384e-06
1.7047e-06
-5.92512e-06
2.49587e-06
-4.6628e-06
2.25167e-06
2.26801e-06
9.54731e-06
2.23312e-07
4.93938e-07
-6.01756e-08
-2.37762e-07
-3.02788e-07
-1.23925e-07
-4.77735e-07
1.39534e-07
-6.37366e-07
4.37117e-07
-8.02773e-07
6.82522e-07
-9.74611e-07
8.22421e-07
-1.15087e-06
7.23009e-07
-1.32072e-06
1.4234e-07
-1.49928e-06
-5.54343e-07
-1.54226e-06
1.09073e-07
-1.32458e-06
1.80862e-06
-7.02844e-07
1.40583e-06
-4.19541e-08
-2.14005e-06
4.57111e-07
-5.3929e-06
1.08409e-06
-6.5521e-06
1.47026e-06
-5.04897e-06
1.15071e-06
2.58757e-06
1.0698e-05
5.89812e-08
4.34956e-07
-2.86855e-07
1.08072e-07
-5.78062e-07
1.67279e-07
-7.75067e-07
3.36534e-07
-9.34882e-07
5.96928e-07
-1.08763e-06
8.35258e-07
-1.25292e-06
9.87708e-07
-1.42304e-06
8.93131e-07
-1.61789e-06
3.37187e-07
-1.85703e-06
-3.15203e-07
-1.84172e-06
9.37595e-08
-1.34795e-06
1.31486e-06
-5.6253e-07
6.20417e-07
-6.55639e-08
-2.63702e-06
1.55737e-07
-5.6142e-06
4.57937e-07
-6.8543e-06
5.65706e-07
-5.15674e-06
9.44673e-08
3.05881e-06
1.07925e-05
-2.00383e-07
6.35339e-07
-6.08041e-07
5.15731e-07
-9.09063e-07
4.68301e-07
-1.10203e-06
5.29502e-07
-1.24731e-06
7.422e-07
-1.37619e-06
9.64144e-07
-1.51908e-06
1.13059e-06
-1.67033e-06
1.04438e-06
-1.85375e-06
5.20604e-07
-2.0694e-06
-9.9548e-08
-2.00338e-06
2.77415e-08
-1.39296e-06
7.04434e-07
-6.12774e-07
-1.59762e-07
-2.72738e-07
-2.97706e-06
-2.57045e-07
-5.62989e-06
-2.00346e-07
-6.91099e-06
-2.92803e-07
-5.06429e-06
-8.91649e-07
3.65766e-06
9.90084e-06
-5.68496e-07
1.20384e-06
-1.01055e-06
9.57793e-07
-1.28672e-06
7.44473e-07
-1.45673e-06
6.99516e-07
-1.57575e-06
8.61223e-07
-1.66835e-06
1.05674e-06
-1.77067e-06
1.23291e-06
-1.88728e-06
1.161e-06
-2.03262e-06
6.65946e-07
-2.18538e-06
5.32084e-08
-2.05964e-06
-9.79994e-08
-1.46659e-06
1.1138e-07
-8.01151e-07
-8.25193e-07
-5.93964e-07
-3.18425e-06
-7.47996e-07
-5.47585e-06
-9.08718e-07
-6.75027e-06
-1.07081e-06
-4.9022e-06
-1.33212e-06
3.91897e-06
8.56872e-06
-1.06964e-06
2.27348e-06
-1.47113e-06
1.35928e-06
-1.69549e-06
9.68836e-07
-1.83144e-06
8.35466e-07
-1.91987e-06
9.49651e-07
-1.96475e-06
1.10163e-06
-2.01047e-06
1.27863e-06
-2.07167e-06
1.2222e-06
-2.16256e-06
7.56836e-07
-2.23931e-06
1.29957e-07
-2.07012e-06
-2.67185e-07
-1.55486e-06
-4.03878e-07
-1.03546e-06
-1.34459e-06
-9.55206e-07
-3.2645e-06
-1.26365e-06
-5.16741e-06
-1.64251e-06
-6.37141e-06
-1.8141e-06
-4.73062e-06
-1.46875e-06
3.57362e-06
7.09997e-06
4.22143e-07
-2.15568e-06
8.80374e-07
-1.95516e-06
1.34443e-06
-1.76433e-06
1.77328e-06
-1.52134e-06
2.14223e-06
-1.23623e-06
2.44632e-06
-9.51676e-07
2.68172e-06
-6.73697e-07
2.8367e-06
-3.90377e-07
2.90673e-06
-1.20821e-07
2.90781e-06
1.03646e-07
2.83241e-06
3.23132e-07
2.64899e-06
5.63611e-07
2.371e-06
7.46238e-07
2.01179e-06
8.83424e-07
1.58364e-06
1.02226e-06
1.12937e-06
1.17711e-06
7.31804e-07
1.35461e-06
4.81375e-07
1.53944e-06
2.84999e-07
1.63351e-06
-9.7104e-08
1.56794e-06
-8.82812e-07
1.39846e-06
-2.05285e-06
1.26033e-06
9.33572e-07
-3.73809e-06
4.50678e-07
-2.60636e-06
1.03444e-06
-2.53892e-06
1.58073e-06
-2.31062e-06
2.06671e-06
-2.00732e-06
2.4798e-06
-1.64932e-06
2.82369e-06
-1.29556e-06
3.0964e-06
-9.4641e-07
3.27653e-06
-5.70505e-07
3.349e-06
-1.93288e-07
3.33449e-06
1.18154e-07
3.2133e-06
4.44324e-07
3.00875e-06
7.68158e-07
2.71409e-06
1.04091e-06
2.32669e-06
1.27082e-06
1.8748e-06
1.47415e-06
1.40849e-06
1.64342e-06
9.71623e-07
1.79148e-06
5.93227e-07
1.91783e-06
2.05497e-07
2.02124e-06
-3.38821e-07
2.11226e-06
-1.1492e-06
2.20884e-06
-2.19207e-06
2.3032e-06
2.25128e-06
-3.50979e-06
8.01158e-07
-3.40752e-06
1.33984e-06
-3.07761e-06
1.7842e-06
-2.75499e-06
2.20954e-06
-2.43267e-06
2.6226e-06
-2.06239e-06
2.98586e-06
-1.65884e-06
3.26041e-06
-1.22097e-06
3.49781e-06
-8.07925e-07
3.66651e-06
-3.62008e-07
3.7266e-06
5.80538e-08
3.61588e-06
5.55038e-07
3.48357e-06
9.00469e-07
3.26171e-06
1.26278e-06
2.92456e-06
1.60798e-06
2.50777e-06
1.89097e-06
2.03318e-06
2.11803e-06
1.52315e-06
2.30155e-06
1.02826e-06
2.41276e-06
4.95849e-07
2.55369e-06
-1.052e-07
2.71334e-06
-8.66666e-07
2.97035e-06
-1.83443e-06
3.27101e-06
3.66207e-06
-3.24516e-06
1.01645e-06
-4.42397e-06
1.38222e-06
-3.44326e-06
1.49349e-06
-2.86629e-06
1.59371e-06
-2.53286e-06
2.05863e-06
-2.52727e-06
2.47109e-06
-2.07126e-06
2.32825e-06
-1.07811e-06
2.50194e-06
-9.81588e-07
2.98639e-06
-8.46431e-07
3.20378e-06
-1.59314e-07
3.24332e-06
5.15522e-07
3.20974e-06
9.34062e-07
3.16493e-06
1.30758e-06
3.14505e-06
1.62782e-06
3.3519e-06
1.68408e-06
2.87127e-06
2.59859e-06
2.0595e-06
3.11325e-06
1.37625e-06
3.0959e-06
4.24401e-07
3.50541e-06
2.97808e-07
2.83976e-06
6.28903e-08
3.20512e-06
-3.6514e-07
3.69892e-06
7.59765e-06
-4.30077e-06
1.04761e-06
-5.47159e-06
8.67361e-07
-3.2629e-06
-1.22057e-06
-7.78212e-07
-4.73526e-06
9.81955e-07
-5.05375e-06
-2.20877e-06
-4.24517e-06
-2.87985e-06
-3.88306e-06
-1.44025e-06
-2.50325e-06
-2.36144e-06
-4.2143e-07
-2.92828e-06
1.0652e-06
-1.64596e-06
2.05021e-06
-4.69483e-07
2.82795e-06
1.56349e-07
3.44796e-06
6.87612e-07
4.14766e-06
9.28165e-07
4.52158e-06
1.31019e-06
5.00478e-06
2.11544e-06
4.9699e-06
3.14823e-06
5.51168e-06
2.55428e-06
6.62214e-06
2.39519e-06
6.40262e-06
3.05946e-06
5.97713e-06
3.63073e-06
5.31806e-06
4.35807e-06
1.31503e-05
-2.34381e-07
8.08001e-09
-5.47976e-06
1.08089e-06
-4.33576e-06
4.12264e-07
-1.09565e-07
-2.65749e-06
4.05173e-06
-3.09088e-06
-1.77539e-06
-1.9581e-06
-4.01262e-06
-1.6673e-07
-3.23158e-06
1.08794e-06
-3.61607e-06
1.25078e-06
-3.09108e-06
1.3396e-06
-1.73475e-06
1.47129e-06
-6.01163e-07
1.77819e-06
-1.50543e-07
1.94725e-06
5.18549e-07
1.5928e-06
1.2826e-06
4.2024e-07
2.48272e-06
8.60664e-07
1.67497e-06
1.38433e-06
2.62448e-06
2.38512e-06
1.55336e-06
4.32736e-06
4.52839e-07
4.38182e-06
3.00492e-06
2.96344e-06
5.04908e-06
5.67453e-07
6.75419e-06
1.21591e-05
1.5589e-06
-1.49376e-06
-3.98605e-06
-1.42608e-06
-4.40339e-06
1.77047e-07
-1.71271e-06
1.12756e-06
3.10114e-06
1.53796e-06
-2.18583e-06
1.88293e-06
-4.3576e-06
3.14286e-06
-4.49148e-06
3.52859e-06
-4.00174e-06
2.6842e-06
-2.24662e-06
1.37455e-06
-4.25035e-07
3.39194e-07
4.3424e-07
-4.46268e-07
6.34949e-07
-1.13373e-06
1.20603e-06
-1.93332e-06
2.08223e-06
-2.26033e-06
2.80979e-06
-2.62267e-06
2.03736e-06
-3.10907e-06
3.11096e-06
-3.48301e-06
1.92731e-06
-3.85591e-06
8.2572e-07
-2.66009e-06
1.80904e-06
-1.89266e-06
4.2816e-06
-1.23904e-06
6.10047e-06
6.91513e-06
4.00495e-06
-1.67336e-06
-2.31276e-06
-3.21909e-06
-2.85753e-06
-1.97824e-06
-2.95349e-06
1.16618e-06
-4.32345e-08
1.73155e-06
-2.75112e-06
1.54423e-06
-4.17019e-06
1.36365e-06
-4.31081e-06
3.7441e-07
-3.01244e-06
-8.14149e-07
-1.05802e-06
-1.68861e-06
4.49436e-07
-2.4643e-06
1.20991e-06
-3.36494e-06
1.53555e-06
-4.15414e-06
1.99518e-06
-4.74468e-06
2.67274e-06
-5.15466e-06
3.21977e-06
-6.32929e-06
3.21198e-06
-6.84366e-06
3.62538e-06
-7.08476e-06
2.16844e-06
-6.82758e-06
5.68517e-07
-5.36054e-06
3.41945e-07
-3.0678e-06
1.9888e-06
-4.98764e-07
3.5312e-06
2.84044e-06
3.57573e-06
-5.71878e-07
-1.74068e-06
-9.26731e-07
-2.50259e-06
-1.11495e-06
-2.76518e-06
4.34462e-07
-1.59257e-06
4.05042e-07
-2.72159e-06
-3.6415e-07
-3.40088e-06
-1.48827e-06
-3.18661e-06
-2.48356e-06
-2.01711e-06
-3.16027e-06
-3.81325e-07
-3.62943e-06
9.18558e-07
-4.09845e-06
1.67886e-06
-4.67926e-06
2.11626e-06
-5.21762e-06
2.5334e-06
-5.57927e-06
3.03426e-06
-5.80597e-06
3.44637e-06
-6.10251e-06
3.50843e-06
-5.84415e-06
3.36697e-06
-5.90957e-06
2.23382e-06
-5.92232e-06
5.81209e-07
-5.04877e-06
-5.31688e-07
-3.13316e-06
7.31585e-08
-8.23123e-07
1.22107e-06
9.07811e-07
1.10939e-06
4.58636e-07
-2.19916e-06
1.8755e-07
-2.23149e-06
-1.99777e-07
-2.37782e-06
4.63074e-08
-1.83861e-06
-4.13079e-07
-2.26212e-06
-1.39119e-06
-2.42267e-06
-2.54118e-06
-2.03651e-06
-3.50135e-06
-1.05684e-06
-4.07313e-06
1.90533e-07
-4.39695e-06
1.24244e-06
-4.67775e-06
1.9597e-06
-4.99292e-06
2.43145e-06
-5.28023e-06
2.82072e-06
-5.4057e-06
3.15974e-06
-5.33322e-06
3.37393e-06
-5.12371e-06
3.29901e-06
-4.66124e-06
2.90462e-06
-4.28181e-06
1.85452e-06
-4.15582e-06
4.55301e-07
-4.10996e-06
-5.77479e-07
-3.28408e-06
-7.52631e-07
-2.05672e-06
-6.19727e-09
3.34952e-07
-1.4838e-06
5.34849e-07
-2.73402e-06
4.37317e-07
-2.134e-06
-1.09178e-08
-1.9296e-06
-2.85459e-07
-1.56405e-06
-9.5483e-07
-1.59268e-06
-1.90734e-06
-1.47005e-06
-2.92257e-06
-1.02116e-06
-3.74873e-06
-2.30582e-07
-4.25247e-06
6.9435e-07
-4.52576e-06
1.51579e-06
-4.70751e-06
2.1415e-06
-4.85962e-06
2.5836e-06
-4.94171e-06
2.90284e-06
-4.88409e-06
3.10215e-06
-4.65521e-06
3.14507e-06
-4.29654e-06
2.94037e-06
-3.82593e-06
2.43409e-06
-3.48843e-06
1.51709e-06
-3.41924e-06
3.86163e-07
-3.44672e-06
-5.49963e-07
-3.37661e-06
-8.22688e-07
-2.9325e-06
-4.5025e-07
1.07992e-07
-2.70546e-06
2.53419e-07
-2.98748e-06
8.91375e-08
-1.96975e-06
-3.4557e-07
-1.49488e-06
-7.92059e-07
-1.1175e-06
-1.46937e-06
-9.15263e-07
-2.29324e-06
-6.46071e-07
-3.11594e-06
-1.9835e-07
-3.77796e-06
4.31541e-07
-4.20203e-06
1.11851e-06
-4.43846e-06
1.75229e-06
-4.55608e-06
2.25917e-06
-4.59502e-06
2.62256e-06
-4.53952e-06
2.84736e-06
-4.37225e-06
2.93491e-06
-4.08738e-06
2.86023e-06
-3.72326e-06
2.57627e-06
-3.34235e-06
2.05321e-06
-3.10203e-06
1.27678e-06
-3.09138e-06
3.75519e-07
-3.2365e-06
-4.0485e-07
-3.36014e-06
-6.99075e-07
-3.32508e-06
-4.85337e-07
5.16605e-08
-3.26878e-06
-1.44317e-07
-2.84318e-06
-4.44239e-07
-1.66981e-06
-8.92137e-07
-1.04692e-06
-1.39414e-06
-6.15393e-07
-2.00765e-06
-3.01639e-07
-2.68102e-06
2.7412e-08
-3.32001e-06
4.40739e-07
-3.82637e-06
9.3799e-07
-4.16467e-06
1.4569e-06
-4.3454e-06
1.93309e-06
-4.40233e-06
2.31614e-06
-4.35892e-06
2.57918e-06
-4.22648e-06
2.71492e-06
-4.00806e-06
2.71649e-06
-3.71712e-06
2.56928e-06
-3.3935e-06
2.25264e-06
-3.10087e-06
1.76056e-06
-2.93765e-06
1.11354e-06
-2.96613e-06
4.03969e-07
-3.16269e-06
-2.08348e-07
-3.37484e-06
-4.87002e-07
-3.5027e-06
-3.57589e-07
9.8757e-08
-3.54994e-06
-5.1774e-07
-2.32545e-06
-9.85318e-07
-1.20215e-06
-1.47989e-06
-5.52245e-07
-1.99228e-06
-1.02882e-07
-2.5373e-06
2.43481e-07
-3.08254e-06
5.72735e-07
-3.572e-06
9.30263e-07
-3.95194e-06
1.31799e-06
-4.19881e-06
1.70382e-06
-4.31369e-06
2.04801e-06
-4.31365e-06
2.31612e-06
-4.21949e-06
2.48501e-06
-4.04738e-06
2.54277e-06
-3.8127e-06
2.48175e-06
-3.53798e-06
2.29448e-06
-3.26115e-06
1.97573e-06
-3.0344e-06
1.53372e-06
-2.92043e-06
9.99476e-07
-2.96246e-06
4.459e-07
-3.15648e-06
-1.44328e-08
-3.39522e-06
-2.48393e-07
-3.58477e-06
-1.68204e-07
1.89712e-07
-3.67592e-06
-8.0806e-07
-1.51736e-06
-1.43589e-06
-5.74173e-07
-1.9959e-06
7.90745e-09
-2.51597e-06
4.17302e-07
-3.00883e-06
7.36428e-07
-3.46014e-06
1.02409e-06
-3.84041e-06
1.31056e-06
-4.12135e-06
1.59896e-06
-4.28919e-06
1.87168e-06
-4.34534e-06
2.10417e-06
-4.30194e-06
2.27272e-06
-4.17639e-06
2.35944e-06
-3.98712e-06
2.35343e-06
-3.7542e-06
2.24874e-06
-3.50281e-06
2.04298e-06
-3.26655e-06
1.73935e-06
-3.08569e-06
1.35273e-06
-3.00192e-06
9.15577e-07
-3.04105e-06
4.84903e-07
-3.19481e-06
1.39199e-07
-3.4102e-06
-3.3147e-08
-3.59772e-06
1.91654e-08
2.73451e-07
-3.68163e-06
-1.0092e-06
-5.08077e-07
-1.7685e-06
1.85322e-07
-2.39114e-06
6.30681e-07
-2.92358e-06
9.49839e-07
-3.38461e-06
1.19751e-06
-3.7735e-06
1.413e-06
-4.07882e-06
1.6159e-06
-4.2885e-06
1.80864e-06
-4.39768e-06
1.98086e-06
-4.41017e-06
2.11666e-06
-4.33722e-06
2.19977e-06
-4.19489e-06
2.21709e-06
-4.00182e-06
2.16031e-06
-3.77892e-06
2.02578e-06
-3.55051e-06
1.81449e-06
-3.34503e-06
1.53377e-06
-3.19289e-06
1.20049e-06
-3.12153e-06
8.44121e-07
-3.14551e-06
5.08783e-07
-3.25593e-06
2.49533e-07
-3.41086e-06
1.21695e-07
-3.54707e-06
1.55286e-07
3.33433e-07
-3.60715e-06
-1.13234e-06
6.2438e-07
-1.98243e-06
1.03558e-06
-2.65476e-06
1.3031e-06
-3.20067e-06
1.4958e-06
-3.64408e-06
1.64094e-06
-3.99395e-06
1.76288e-06
-4.25081e-06
1.87275e-06
-4.41333e-06
1.97114e-06
-4.48338e-06
2.0509e-06
-4.46777e-06
2.10104e-06
-4.37817e-06
2.11016e-06
-4.22998e-06
2.06889e-06
-4.04112e-06
1.97144e-06
-3.83147e-06
1.81611e-06
-3.62288e-06
1.60587e-06
-3.43861e-06
1.34946e-06
-3.30122e-06
1.06307e-06
-3.22863e-06
7.71494e-07
-3.22787e-06
5.08005e-07
-3.28892e-06
3.10566e-07
-3.38077e-06
2.1354e-07
-3.45886e-06
2.33389e-07
3.57517e-07
-3.48293e-06
-1.19249e-06
1.81698e-06
-2.09282e-06
1.936e-06
-2.7953e-06
2.00563e-06
-3.34923e-06
2.04974e-06
-3.78143e-06
2.07314e-06
-4.10685e-06
2.08829e-06
-4.33345e-06
2.09934e-06
-4.46681e-06
2.10449e-06
-4.51352e-06
2.0976e-06
-4.48283e-06
2.07034e-06
-4.38697e-06
2.0143e-06
-4.24076e-06
1.9227e-06
-4.06093e-06
1.79162e-06
-3.86549e-06
1.6207e-06
-3.67325e-06
1.41366e-06
-3.50286e-06
1.1791e-06
-3.37087e-06
9.31118e-07
-3.28885e-06
6.89516e-07
-3.2595e-06
4.78697e-07
-3.27326e-06
3.24387e-07
-3.30738e-06
2.47733e-07
-3.33106e-06
2.57153e-07
3.42953e-07
-3.3164e-06
-1.20333e-06
3.02038e-06
-2.11682e-06
2.8495e-06
-2.82796e-06
2.71676e-06
-3.37969e-06
2.60145e-06
-3.8006e-06
2.49402e-06
-4.10862e-06
2.3963e-06
-4.31588e-06
2.30659e-06
-4.432e-06
2.22062e-06
-4.46654e-06
2.13214e-06
-4.43025e-06
2.03406e-06
-4.33561e-06
1.91968e-06
-4.1967e-06
1.78382e-06
-4.02875e-06
1.62372e-06
-3.84762e-06
1.43962e-06
-3.66912e-06
1.23523e-06
-3.50802e-06
1.01807e-06
-3.37646e-06
7.9964e-07
-3.28192e-06
5.95057e-07
-3.22488e-06
4.2175e-07
-3.1972e-06
2.96805e-07
-3.18233e-06
2.32973e-07
-3.15906e-06
2.33993e-07
2.92121e-07
-3.10811e-06
-1.1733e-06
4.1937e-06
-2.0701e-06
3.74625e-06
-2.76802e-06
3.41463e-06
-3.30538e-06
3.13878e-06
-3.71083e-06
2.89944e-06
-4.0032e-06
2.68865e-06
-4.19646e-06
2.49984e-06
-4.30226e-06
2.32641e-06
-4.33159e-06
2.16148e-06
-4.29587e-06
1.99835e-06
-4.20732e-06
1.83115e-06
-4.07903e-06
1.65556e-06
-3.92459e-06
1.46934e-06
-3.7577e-06
1.2728e-06
-3.59146e-06
1.06907e-06
-3.43749e-06
8.6419e-07
-3.30478e-06
6.67014e-07
-3.19824e-06
4.88613e-07
-3.11744e-06
3.41047e-07
-3.05589e-06
2.35351e-07
-3.0017e-06
1.78879e-07
-2.94022e-06
1.72611e-07
2.10102e-07
-2.8581e-06
-1.1078e-06
5.30147e-06
-1.96484e-06
4.6032e-06
-2.62917e-06
4.07891e-06
-3.14013e-06
3.64969e-06
-3.52401e-06
3.2833e-06
-3.79923e-06
2.96385e-06
-3.9801e-06
2.68069e-06
-4.07882e-06
2.42511e-06
-4.10672e-06
2.18937e-06
-4.07508e-06
1.96671e-06
-3.99545e-06
1.75153e-06
-3.87966e-06
1.5398e-06
-3.73965e-06
1.32937e-06
-3.58704e-06
1.12024e-06
-3.43256e-06
9.14654e-07
-3.28538e-06
7.17078e-07
-3.15221e-06
5.33916e-07
-3.03643e-06
3.72898e-07
-2.93734e-06
2.42026e-07
-2.85002e-06
1.48093e-07
-2.76601e-06
9.4932e-08
-2.67519e-06
8.18536e-08
1.03264e-07
-2.56829e-06
-1.01735e-06
6.31877e-06
-1.81013e-06
5.39589e-06
-2.42457e-06
4.69329e-06
-2.89787e-06
4.12295e-06
-3.25338e-06
3.63878e-06
-3.50824e-06
3.21868e-06
-3.67607e-06
2.84849e-06
-3.76859e-06
2.51761e-06
-3.79665e-06
2.21742e-06
-3.77078e-06
1.94084e-06
-3.70147e-06
1.68222e-06
-3.59915e-06
1.43749e-06
-3.47407e-06
1.20431e-06
-3.33594e-06
9.82137e-07
-3.19349e-06
7.72238e-07
-3.05394e-06
5.7756e-07
-2.92238e-06
4.02388e-07
-2.80122e-06
2.51771e-07
-2.68985e-06
1.30678e-07
-2.58465e-06
4.29172e-08
-2.47968e-06
-1.00158e-08
-2.36796e-06
-2.98536e-08
-2.16293e-08
-2.24305e-06
-9.09189e-07
7.2279e-06
-1.61659e-06
6.10323e-06
-2.16734e-06
5.24399e-06
-2.59241e-06
4.54798e-06
-2.91271e-06
3.95905e-06
-3.14335e-06
3.4493e-06
-3.2964e-06
3.00151e-06
-3.38234e-06
2.60352e-06
-3.41087e-06
2.24594e-06
-3.39134e-06
1.92129e-06
-3.33289e-06
1.62375e-06
-3.24445e-06
1.34904e-06
-3.13461e-06
1.09447e-06
-3.01134e-06
8.58872e-07
-2.88167e-06
6.42568e-07
-2.75126e-06
4.47146e-07
-2.62401e-06
2.75132e-07
-2.50172e-06
1.2948e-07
-2.38396e-06
1.29063e-08
-2.26817e-06
-7.28945e-08
-2.15021e-06
-1.27995e-07
-2.02528e-06
-1.54803e-07
-1.57971e-07
-1.88896e-06
-7.86009e-07
8.01386e-06
-1.395e-06
6.71218e-06
-1.86918e-06
5.71814e-06
-2.23661e-06
4.91539e-06
-2.51559e-06
4.238e-06
-2.71842e-06
3.65211e-06
-2.85479e-06
3.13787e-06
-2.9333e-06
2.68201e-06
-2.96204e-06
2.27466e-06
-2.94885e-06
1.90808e-06
-2.90136e-06
1.57624e-06
-2.82693e-06
1.2746e-06
-2.73257e-06
1.00009e-06
-2.62467e-06
7.50948e-07
-2.50877e-06
5.26644e-07
-2.38927e-06
3.2763e-07
-2.26919e-06
1.55022e-07
-2.14992e-06
1.01745e-08
-2.03119e-06
-1.05867e-07
-1.91124e-06
-1.92885e-07
-1.78725e-06
-2.52038e-07
-1.65593e-06
-2.86167e-07
-2.99657e-07
-1.5143e-06
-6.5164e-07
8.66548e-06
-1.1521e-06
7.21262e-06
-1.53959e-06
6.10561e-06
-1.8419e-06
5.21769e-06
-2.07506e-06
4.47115e-06
-2.24754e-06
3.82459e-06
-2.36582e-06
3.25614e-06
-2.43614e-06
2.75233e-06
-2.46472e-06
2.30323e-06
-2.45769e-06
1.90105e-06
-2.42109e-06
1.53962e-06
-2.36072e-06
1.21421e-06
-2.28205e-06
9.21392e-07
-2.19004e-06
6.58909e-07
-2.08897e-06
4.25531e-07
-1.98219e-06
2.2081e-07
-1.872e-06
4.47832e-08
-1.75947e-06
-1.02403e-07
-1.6445e-06
-2.2089e-07
-1.52592e-06
-3.11529e-07
-1.40181e-06
-3.76214e-07
-1.26998e-06
-4.18067e-07
-4.41273e-07
-1.12843e-06
-5.08615e-07
9.17408e-06
-8.93503e-07
7.59751e-06
-1.1861e-06
6.39821e-06
-1.41866e-06
5.45025e-06
-1.60392e-06
4.65642e-06
-1.74501e-06
3.96568e-06
-1.84458e-06
3.35571e-06
-1.90632e-06
2.81407e-06
-1.93448e-06
2.33138e-06
-1.93345e-06
1.90001e-06
-1.90765e-06
1.5138e-06
-1.86135e-06
1.16788e-06
-1.79857e-06
8.58579e-07
-1.72298e-06
5.83273e-07
-1.63771e-06
3.40218e-07
-1.54527e-06
1.28308e-07
-1.44733e-06
-5.32091e-08
-1.34475e-06
-2.05044e-07
-1.23751e-06
-3.28194e-07
-1.12486e-06
-4.24248e-07
-1.00554e-06
-4.95606e-07
-8.78116e-07
-5.45573e-07
-5.78176e-07
-7.41292e-07
-3.51388e-07
9.52547e-06
-6.17613e-07
7.86376e-06
-8.15884e-07
6.5965e-06
-9.7732e-07
5.6117e-06
-1.1156e-06
4.79471e-06
-1.22558e-06
4.07567e-06
-1.30642e-06
3.43655e-06
-1.3595e-06
2.86715e-06
-1.38715e-06
2.35902e-06
-1.39206e-06
1.90491e-06
-1.37701e-06
1.49874e-06
-1.3448e-06
1.13564e-06
-1.29808e-06
8.11823e-07
-1.23933e-06
5.24473e-07
-1.1707e-06
2.71528e-07
-1.09391e-06
5.14577e-08
-1.01017e-06
-1.37012e-07
-9.20113e-07
-2.95166e-07
-8.23787e-07
-4.24587e-07
-7.20737e-07
-5.27367e-07
-6.10162e-07
-6.06254e-07
-4.91142e-07
-6.64669e-07
-7.06513e-07
-3.62882e-07
-1.63533e-07
9.68902e-06
-3.15725e-07
8.01598e-06
-4.32276e-07
6.71307e-06
-5.32293e-07
5.71173e-06
-6.24636e-07
4.88707e-06
-7.04129e-07
4.15517e-06
-7.66389e-07
3.49882e-06
-8.10902e-07
2.91166e-06
-8.38137e-07
2.38625e-06
-8.49033e-07
1.91578e-06
-8.44777e-07
1.49445e-06
-8.26694e-07
1.11752e-06
-7.96171e-07
7.81255e-07
-7.54575e-07
4.82825e-07
-7.03171e-07
2.20065e-07
-6.43029e-07
-8.74768e-09
-5.74943e-07
-2.05163e-07
-4.99364e-07
-3.70809e-07
-4.16384e-07
-5.07633e-07
-3.25758e-07
-6.1806e-07
-2.27006e-07
-7.05073e-07
-1.19565e-07
-7.7218e-07
-8.23179e-07
-2.96714e-09
5.51288e-08
9.6339e-06
7.99105e-09
8.06314e-06
-4.21621e-08
6.76324e-06
-9.25147e-08
5.7621e-06
-1.43563e-07
4.93812e-06
-1.93611e-07
4.20522e-06
-2.37981e-07
3.54318e-06
-2.74483e-07
2.94815e-06
-3.01734e-07
2.41348e-06
-3.18911e-07
1.93294e-06
-3.25609e-07
1.50112e-06
-3.21751e-07
1.11362e-06
-3.0751e-07
7.66971e-07
-2.83249e-07
4.58514e-07
-2.4944e-07
1.862e-07
-2.06585e-07
-5.16625e-08
-1.55133e-07
-2.56677e-07
-9.53964e-08
-4.30607e-07
-2.75003e-08
-5.75589e-07
4.86365e-08
-6.94256e-07
1.3327e-07
-7.89766e-07
2.26731e-07
-8.65701e-07
-9.25805e-07
3.29299e-07
2.65216e-07
9.3687e-06
3.23897e-07
8.00448e-06
3.41868e-07
6.74529e-06
3.35798e-07
5.76818e-06
3.19534e-07
4.95439e-06
2.96147e-07
4.2286e-06
2.67598e-07
3.57172e-06
2.37604e-07
2.97813e-06
2.09302e-07
2.44176e-06
1.85187e-07
1.95703e-06
1.67166e-07
1.51911e-06
1.56631e-07
1.12412e-06
1.54522e-07
7.69041e-07
1.61391e-07
4.516e-07
1.77465e-07
1.70077e-07
2.02727e-07
-7.69762e-08
2.37005e-07
-2.91009e-07
2.80081e-07
-4.73735e-07
3.31776e-07
-6.27336e-07
3.92032e-07
-7.54565e-07
4.60938e-07
-8.58724e-07
5.38683e-07
-9.43497e-07
-1.01263e-06
6.25459e-07
4.41137e-07
8.92758e-06
6.18576e-07
7.82706e-06
7.02088e-07
6.66178e-06
7.41014e-07
5.72926e-06
7.58074e-07
4.93733e-06
7.56873e-07
4.2298e-06
7.40728e-07
3.58786e-06
7.14807e-07
3.00403e-06
6.83821e-07
2.47273e-06
6.51748e-07
1.98908e-06
6.21836e-07
1.549e-06
5.96652e-07
1.14928e-06
5.78138e-07
7.87524e-07
5.67658e-07
4.62046e-07
5.6605e-07
1.71645e-07
5.73705e-07
-8.46736e-08
5.90663e-07
-3.0801e-07
6.16738e-07
-4.99854e-07
6.51666e-07
-6.62308e-07
6.95238e-07
-7.98182e-07
7.47408e-07
-9.10939e-07
8.08295e-07
-1.00443e-06
-1.08247e-06
8.78097e-07
5.75886e-07
8.35171e-06
8.67464e-07
7.53549e-06
1.02669e-06
6.50256e-06
1.11589e-06
5.64006e-06
1.16369e-06
4.88952e-06
1.18014e-06
4.21334e-06
1.17255e-06
3.59543e-06
1.14786e-06
3.02871e-06
1.11225e-06
2.50832e-06
1.071e-06
2.03031e-06
1.0285e-06
1.59148e-06
9.88352e-07
1.18941e-06
9.53382e-07
8.22471e-07
9.25666e-07
4.89736e-07
9.06576e-07
1.90706e-07
8.96843e-07
-7.49728e-08
8.96654e-07
-3.07855e-07
9.05802e-07
-5.09037e-07
9.23873e-07
-6.80415e-07
9.5047e-07
-8.24819e-07
9.85417e-07
-9.45927e-07
1.02882e-06
-1.04788e-06
-1.13467e-06
1.08098e-06
6.81115e-07
7.6706e-06
1.0771e-06
7.13951e-06
1.31331e-06
6.26635e-06
1.45168e-06
5.50169e-06
1.52696e-06
4.81423e-06
1.55751e-06
4.18278e-06
1.55508e-06
3.59785e-06
1.52896e-06
3.05482e-06
1.48681e-06
2.55045e-06
1.43512e-06
2.082e-06
1.37931e-06
1.64728e-06
1.32387e-06
1.24483e-06
1.27239e-06
8.73931e-07
1.22759e-06
5.34526e-07
1.19129e-06
2.2698e-07
1.16453e-06
-4.82394e-08
1.14761e-06
-2.90958e-07
1.14023e-06
-5.01689e-07
1.14176e-06
-6.81981e-07
1.15154e-06
-8.34631e-07
1.16923e-06
-9.63652e-07
1.19498e-06
-1.07367e-06
-1.16901e-06
1.22928e-06
7.7328e-07
6.89732e-06
1.26246e-06
6.65033e-06
1.56441e-06
5.9644e-06
1.74425e-06
5.32185e-06
1.8423e-06
4.71618e-06
1.88306e-06
4.14201e-06
1.88254e-06
3.59836e-06
1.85241e-06
3.08494e-06
1.80189e-06
2.60096e-06
1.73857e-06
2.14531e-06
1.66877e-06
1.71707e-06
1.59775e-06
1.31585e-06
1.52972e-06
9.41948e-07
1.46794e-06
5.96287e-07
1.4147e-06
2.80207e-07
1.3713e-06
-4.86522e-09
1.33817e-06
-2.57843e-07
1.3149e-06
-4.78448e-07
1.30056e-06
-6.67669e-07
1.29406e-06
-8.28163e-07
1.29483e-06
-9.64462e-07
1.30315e-06
-1.08203e-06
-1.18571e-06
1.31982e-06
8.63302e-07
6.03402e-06
1.43196e-06
6.08168e-06
1.78535e-06
5.61101e-06
1.99548e-06
5.11172e-06
2.1087e-06
4.60295e-06
2.15442e-06
4.09629e-06
2.15197e-06
3.60082e-06
2.11511e-06
3.1218e-06
2.05442e-06
2.66164e-06
1.97842e-06
2.22131e-06
1.8941e-06
1.80137e-06
1.80728e-06
1.40266e-06
1.72267e-06
1.02655e-06
1.64398e-06
6.74965e-07
1.57391e-06
3.50262e-07
1.51412e-06
5.49e-08
1.46523e-06
-2.08975e-07
1.42681e-06
-4.40047e-07
1.39752e-06
-6.38403e-07
1.3756e-06
-8.06277e-07
1.36011e-06
-9.49008e-07
1.35155e-06
-1.07351e-06
-1.18539e-06
1.35119e-06
9.57998e-07
5.07602e-06
1.59291e-06
5.44678e-06
1.98185e-06
5.22207e-06
2.20895e-06
4.88463e-06
2.32772e-06
4.48419e-06
2.37171e-06
4.0523e-06
2.36281e-06
3.60971e-06
2.31639e-06
3.16823e-06
2.24393e-06
2.73409e-06
2.15452e-06
2.31072e-06
2.05549e-06
1.9004e-06
1.95291e-06
1.50524e-06
1.85177e-06
1.12769e-06
1.7561e-06
7.70615e-07
1.66905e-06
4.37296e-07
1.59276e-06
1.31173e-07
1.52826e-06
-1.44495e-07
1.47528e-06
-3.87095e-07
1.43211e-06
-5.95257e-07
1.39588e-06
-7.70072e-07
1.36495e-06
-9.18117e-07
1.34028e-06
-1.04887e-06
-1.16902e-06
1.32388e-06
1.06388e-06
4.01215e-06
1.7532e-06
4.75746e-06
2.15995e-06
4.81533e-06
2.3886e-06
4.656e-06
2.50162e-06
4.37118e-06
2.5363e-06
4.01763e-06
2.51631e-06
3.62971e-06
2.45782e-06
3.22672e-06
2.37263e-06
2.81929e-06
2.26979e-06
2.41357e-06
2.15648e-06
2.0137e-06
2.03862e-06
1.62309e-06
1.92118e-06
1.24512e-06
1.80839e-06
8.8339e-07
1.70381e-06
5.41859e-07
1.61025e-06
2.2471e-07
1.52957e-06
-6.3831e-08
1.46216e-06
-3.19707e-07
1.40613e-06
-5.39251e-07
1.35674e-06
-7.20712e-07
1.31115e-06
-8.72569e-07
1.27126e-06
-1.00901e-06
-1.13799e-06
1.24019e-06
1.19722e-06
2.81494e-06
1.92665e-06
4.02806e-06
2.32666e-06
4.41534e-06
2.53757e-06
4.4451e-06
2.63216e-06
4.2766e-06
2.65001e-06
3.99979e-06
2.61509e-06
3.66464e-06
2.54321e-06
3.2986e-06
2.44555e-06
2.91695e-06
2.33038e-06
2.52874e-06
2.20417e-06
2.13992e-06
2.07221e-06