/*--------------------------------*- C++ -*----------------------------------*\
  =========                 |
  \\      /  F ield         | OpenFOAM: The Open Source CFD Toolbox
   \\    /   O peration     | Website:  https://openfoam.org
    \\  /    A nd           | Version:  9
     \\/     M anipulation  |
\*---------------------------------------------------------------------------*/
FoamFile
{
    format      ascii;
    class       volVectorField;
    location    "4.18";
    object      U;
}
// * * * * * * * * * * * * * * * * * * * * * * * * * * * * * * * * * * * * * //

dimensions      [0 1 -1 0 0 0 0];

internalField   nonuniform List<vector> 
2268
(
(0.00212423 -0.000968177 0)
(0.00538759 -0.000621504 0)
(0.00714312 -0.00041048 0)
(0.00869986 -0.000314451 0)
(0.00982051 -0.000219197 0)
(0.0105728 -0.00012868 0)
(0.0110007 -4.05176e-05 0)
(0.0111285 4.14666e-05 0)
(0.0109764 0.00011556 0)
(0.0106042 0.00016449 0)
(0.0101122 0.000179013 0)
(0.00964197 0.000106718 0)
(0.00946006 -6.13828e-05 0)
(0.00988417 -0.000366062 0)
(0.0112306 -0.000801874 0)
(0.0136643 -0.0012336 0)
(0.0165864 -0.000534893 0)
(0.0143005 0.00266854 0)
(0.00212453 0.00471184 0)
(-0.00941108 0.00209792 0)
(-0.0103755 -0.00140205 0)
(-0.00417538 -0.00241323 0)
(4.31644e-05 -0.000421896 0)
(0.00161986 -0.0026322 0)
(0.00445941 -0.00178645 0)
(0.00621244 -0.00127549 0)
(0.00773823 -0.000951609 0)
(0.00882816 -0.000677566 0)
(0.00958105 -0.000432482 0)
(0.0100361 -0.000208346 0)
(0.0102218 -7.33424e-06 0)
(0.0101638 0.000167756 0)
(0.00991992 0.000288011 0)
(0.00956434 0.000330693 0)
(0.00918237 0.000232973 0)
(0.00891674 -4.26387e-05 0)
(0.00893109 -0.000525519 0)
(0.00931828 -0.0011682 0)
(0.00998133 -0.00163706 0)
(0.0103661 -0.000155908 0)
(0.00840265 0.00489593 0)
(0.00278719 0.00763592 0)
(-0.00306282 0.00432205 0)
(-0.00503534 -0.00134831 0)
(-0.00311102 -0.00334026 0)
(-0.00193234 -0.00145597 0)
(0.00130821 -0.00384475 0)
(0.00389087 -0.00275418 0)
(0.00563055 -0.00204504 0)
(0.00718212 -0.00153933 0)
(0.00833256 -0.00110468 0)
(0.00916473 -0.00071576 0)
(0.00970873 -0.000362847 0)
(0.00999082 -4.7838e-05 0)
(0.0100375 0.00021778 0)
(0.00989819 0.000403883 0)
(0.00962294 0.000484421 0)
(0.00925278 0.000394374 0)
(0.0088593 7.96792e-05 0)
(0.00850856 -0.000463755 0)
(0.00817031 -0.00113384 0)
(0.00759865 -0.0014801 0)
(0.00664159 0.000364884 0)
(0.0051623 0.00600423 0)
(0.003201 0.00895524 0)
(0.000772748 0.00568287 0)
(-0.00116825 -0.000970483 0)
(-0.00114821 -0.00373752 0)
(-0.00106841 -0.00248271 0)
(0.00112169 -0.00502002 0)
(0.00348676 -0.00372822 0)
(0.00523726 -0.002854 0)
(0.00685157 -0.00218688 0)
(0.00810564 -0.00159775 0)
(0.0090539 -0.00106667 0)
(0.00971659 -0.000585607 0)
(0.0101141 -0.000152353 0)
(0.0102669 0.000215619 0)
(0.010217 0.000482764 0)
(0.00999407 0.00062952 0)
(0.00959981 0.000593745 0)
(0.00905762 0.000313264 0)
(0.00837781 -0.000190991 0)
(0.00746951 -0.000751654 0)
(0.00605044 -0.000873385 0)
(0.00418396 0.00108145 0)
(0.00314026 0.0064453 0)
(0.00313092 0.00933941 0)
(0.00279714 0.00635677 0)
(0.00167515 -0.000468949 0)
(0.000845874 -0.00368394 0)
(0.000657371 -0.00253474 0)
(0.00100584 -0.00605142 0)
(0.00321095 -0.00466796 0)
(0.00500412 -0.00368519 0)
(0.00671543 -0.00288453 0)
(0.00810351 -0.00215022 0)
(0.00919217 -0.00147882 0)
(0.00999188 -0.000866789 0)
(0.010514 -0.000309163 0)
(0.0107702 0.000170171 0)
(0.0107974 0.000533606 0)
(0.0106093 0.000774284 0)
(0.0101731 0.000837789 0)
(0.00947879 0.000654306 0)
(0.00851699 0.000271272 0)
(0.00718774 -9.69631e-05 0)
(0.00527574 3.92294e-05 0)
(0.00291676 0.00192183 0)
(0.00190197 0.00647861 0)
(0.00281342 0.00906034 0)
(0.00380487 0.00638955 0)
(0.00323089 5.87621e-05 0)
(0.00180221 -0.00334365 0)
(0.00143343 -0.00177042 0)
(0.000940788 -0.00701288 0)
(0.0030605 -0.00559594 0)
(0.00493321 -0.00455157 0)
(0.00677456 -0.00364221 0)
(0.00831991 -0.00277005 0)
(0.00956502 -0.00195809 0)
(0.0105122 -0.00121012 0)
(0.0111617 -0.000518757 0)
(0.011515 8.47715e-05 0)
(0.0116068 0.000561037 0)
(0.0114409 0.000922644 0)
(0.0109545 0.00112694 0)
(0.0101173 0.00109034 0)
(0.00892212 0.000880223 0)
(0.00729547 0.000734106 0)
(0.00513019 0.00109572 0)
(0.0026426 0.00283021 0)
(0.00150333 0.00643785 0)
(0.00249617 0.00844947 0)
(0.00382298 0.00611937 0)
(0.00324109 0.000681904 0)
(0.00127827 -0.00282814 0)
(0.000388632 -0.00104894 0)
(0.000899246 -0.00796109 0)
(0.0030353 -0.00654745 0)
(0.00503141 -0.0054747 0)
(0.00703195 -0.00447444 0)
(0.00875018 -0.00346722 0)
(0.0101597 -0.00251117 0)
(0.0112575 -0.00161898 0)
(0.0120317 -0.000780252 0)
(0.0124719 -3.60222e-05 0)
(0.0126144 0.000569856 0)
(0.0124593 0.00107758 0)
(0.0119188 0.0014608 0)
(0.010951 0.0016087 0)
(0.00956715 0.00159586 0)
(0.00773348 0.00167204 0)
(0.00544033 0.00220406 0)
(0.00298715 0.00375292 0)
(0.00172604 0.00650308 0)
(0.00231048 0.0079168 0)
(0.00316916 0.00595315 0)
(0.00214282 0.00146599 0)
(-0.000526498 -0.00200586 0)
(-0.00293364 -0.000282053 0)
(0.000885142 -0.00897123 0)
(0.00313453 -0.00754724 0)
(0.00530106 -0.00648354 0)
(0.00747811 -0.00540429 0)
(0.00937398 -0.00426008 0)
(0.0109471 -0.00315264 0)
(0.0121915 -0.00210402 0)
(0.013082 -0.00109841 0)
(0.0135957 -0.000189638 0)
(0.0137722 0.000563742 0)
(0.0136145 0.00124347 0)
(0.0130173 0.00184687 0)
(0.0119332 0.00221089 0)
(0.0103975 0.0024097 0)
(0.00841676 0.00269577 0)
(0.00605058 0.00334987 0)
(0.00363857 0.00470442 0)
(0.0022133 0.00676231 0)
(0.00220492 0.00771757 0)
(0.0022807 0.0061557 0)
(0.000605406 0.00259779 0)
(-0.00258295 -0.00077143 0)
(-0.00827896 -0.0045796 0)
(-0.0113186 0.00271117 0)
(-0.00599962 -0.00262399 0)
(0.000418867 -0.00204706 0)
(0.00369763 -0.000868165 0)
(0.00434285 -6.46939e-05 0)
(0.00307661 0.000503594 0)
(0.000353377 0.000949137 0)
(-0.00316653 0.000790943 0)
(-0.00457916 -0.00067156 0)
(0.000399285 -0.00244139 0)
(0.00745086 -0.00105746 0)
(0.00494001 0.00407719 0)
(-0.0201298 0.00764162 0)
(-0.0375069 0.00102973 0)
(-0.0161664 -0.00971216 0)
(0.0168866 -0.0115881 0)
(0.0520502 -0.00915142 0)
(0.0672376 0.00455791 0)
(0.0259473 0.0116033 0)
(-0.0027051 0.00488402 0)
(-0.000565835 -0.00313013 0)
(0.000655256 -0.00251419 0)
(0.000969251 -0.000918862 0)
(0.000295522 0.000373686 0)
(-0.00133099 0.00131102 0)
(-0.00351103 0.00188771 0)
(-0.00584711 0.00148848 0)
(-0.00738948 -0.000848185 0)
(-0.00587019 -0.00357646 0)
(-0.00383728 -0.000688571 0)
(-0.00742871 0.0081894 0)
(-0.0186694 0.0114639 0)
(-0.0177793 -0.0011851 0)
(-0.00267146 -0.0168137 0)
(0.0164311 -0.0203753 0)
(0.0356167 -0.015873 0)
(0.0512604 0.00927627 0)
(0.0288922 0.0276542 0)
(0.00296896 0.0041487 0)
(0.00138029 -0.00300045 0)
(-0.000276298 -0.00219484 0)
(-0.00164423 -0.000520785 0)
(-0.00305133 0.00098276 0)
(-0.00485843 0.00210676 0)
(-0.00686356 0.00273653 0)
(-0.00895021 0.00224651 0)
(-0.0107793 -0.000471738 0)
(-0.0114057 -0.00373858 0)
(-0.0118699 5.01107e-05 0)
(-0.0139025 0.00988155 0)
(-0.0152995 0.0108264 0)
(-0.00833137 -0.00541922 0)
(0.00202208 -0.0219987 0)
(0.0129584 -0.0265901 0)
(0.0246429 -0.0210922 0)
(0.0322203 0.0103121 0)
(0.0216661 0.0412939 0)
(0.00407877 0.00283565 0)
(0.00085013 -0.00193601 0)
(-0.00227689 -0.00124643 0)
(-0.00454512 0.000219271 0)
(-0.00633926 0.00172896 0)
(-0.00816849 0.00292175 0)
(-0.0100825 0.00358332 0)
(-0.0121203 0.00308118 0)
(-0.0141683 0.000238388 0)
(-0.0162587 -0.0031562 0)
(-0.0177713 0.000526637 0)
(-0.017108 0.00958948 0)
(-0.0124953 0.00846295 0)
(-0.00382178 -0.0089478 0)
(0.00265806 -0.0252215 0)
(0.00844001 -0.0306079 0)
(0.0155496 -0.0238538 0)
(0.0172366 0.0116872 0)
(0.0113403 0.0500648 0)
(0.002813 0.00192311 0)
(-0.00145706 -0.000404745 0)
(-0.00522764 7.93501e-05 0)
(-0.00788226 0.00114751 0)
(-0.00979169 0.00251956 0)
(-0.0115161 0.00370645 0)
(-0.0132964 0.00441773 0)
(-0.0152254 0.00393897 0)
(-0.0172788 0.00116617 0)
(-0.020071 -0.00209444 0)
(-0.022021 0.00058222 0)
(-0.0192913 0.0077095 0)
(-0.0110598 0.00491091 0)
(-0.00250483 -0.0117526 0)
(0.000848972 -0.0269485 0)
(0.00311787 -0.0328318 0)
(0.00713276 -0.0249901 0)
(0.00439727 0.0136671 0)
(-0.00120279 0.0534864 0)
(0.000455909 0.00240807 0)
(-0.00505628 0.0014873 0)
(-0.00898392 0.0015508 0)
(-0.0116703 0.00211519 0)
(-0.0134796 0.00327525 0)
(-0.0149658 0.004407 0)
(-0.0164658 0.00518772 0)
(-0.018138 0.00474471 0)
(-0.0199842 0.00212031 0)
(-0.0226911 -0.000947729 0)
(-0.024385 0.000367197 0)
(-0.0204771 0.0049051 0)
(-0.0111122 0.00101125 0)
(-0.00370649 -0.0137837 0)
(-0.00262144 -0.0275051 0)
(-0.00294424 -0.0336787 0)
(-0.00167157 -0.0249641 0)
(-0.00611701 0.0166613 0)
(-0.0113364 0.0512183 0)
(-0.00314743 0.00353642 0)
(-0.00981433 0.00362289 0)
(-0.0133973 0.00297833 0)
(-0.0158532 0.00300754 0)
(-0.0174098 0.0039307 0)
(-0.0185363 0.00496117 0)
(-0.019579 0.00581078 0)
(-0.0208029 0.00542674 0)
(-0.0222507 0.00295025 0)
(-0.0243933 -2.66243e-05 0)
(-0.0253419 -0.000122555 0)
(-0.021042 0.00191934 0)
(-0.0123703 -0.00254146 0)
(-0.00655352 -0.0151229 0)
(-0.0070946 -0.0271607 0)
(-0.00969227 -0.0334107 0)
(-0.0113339 -0.0242742 0)
(-0.0139143 0.0188912 0)
(-0.0141297 0.0453382 0)
(-0.00975114 0.00944486 0)
(-0.0152429 0.00568651 0)
(-0.0182319 0.00420672 0)
(-0.0203104 0.00376539 0)
(-0.0215512 0.00443442 0)
(-0.0222398 0.0052914 0)
(-0.0226699 0.00616388 0)
(-0.0232158 0.00585964 0)
(-0.0240581 0.00353671 0)
(-0.0254092 0.000528834 0)
(-0.0255045 -0.000868234 0)
(-0.0213418 -0.000820062 0)
(-0.0141354 -0.00544405 0)
(-0.0100062 -0.0158037 0)
(-0.0119322 -0.0259775 0)
(-0.0167287 -0.0320212 0)
(-0.0209466 -0.0233362 0)
(-0.0201177 0.0187592 0)
(-0.0121874 0.038326 0)
(0.00100839 -0.00983961 0)
(0.0035497 -0.0092075 0)
(0.00596466 -0.0082541 0)
(0.00841059 -0.00705664 0)
(0.0105699 -0.00568689 0)
(0.0123828 -0.00432531 0)
(0.0138391 -0.00300819 0)
(0.0148928 -0.00170395 0)
(0.0154967 -0.000494008 0)
(0.0156955 0.000534938 0)
(0.0155061 0.00153423 0)
(0.0148132 0.00255914 0)
(0.0135723 0.00330677 0)
(0.0118485 0.00385196 0)
(0.00969952 0.00444709 0)
(0.00725356 0.00523475 0)
(0.00484998 0.00630755 0)
(0.00309996 0.00756424 0)
(0.00211786 0.00810474 0)
(0.000855585 0.00727864 0)
(-0.00208975 0.00538833 0)
(-0.00700828 0.0035439 0)
(-0.0154742 0.000562371 0)
(0.000852953 -0.0139849 0)
(0.00414423 -0.0122055 0)
(0.00706551 -0.0108227 0)
(0.00983508 -0.00927747 0)
(0.0122571 -0.00753912 0)
(0.0143139 -0.00580906 0)
(0.0159734 -0.00411207 0)
(0.0171818 -0.00237537 0)
(0.017879 -0.000721186 0)
(0.0180462 0.000727736 0)
(0.0176699 0.002146 0)
(0.0167992 0.0035588 0)
(0.0154601 0.00467826 0)
(0.0136125 0.00554635 0)
(0.0113287 0.00635413 0)
(0.00880741 0.00713375 0)
(0.00631398 0.00789821 0)
(0.00414195 0.00859052 0)
(0.00223175 0.00898761 0)
(-8.83766e-05 0.00899063 0)
(-0.00361096 0.00883196 0)
(-0.00851364 0.00886763 0)
(-0.0152588 0.00815955 0)
(0.0028613 -0.0110318 0)
(0.00599021 -0.0124319 0)
(0.00839867 -0.0118043 0)
(0.010684 -0.0104461 0)
(0.0129581 -0.00863588 0)
(0.0151373 -0.00684063 0)
(0.0168314 -0.00505216 0)
(0.0181447 -0.0030565 0)
(0.0193052 -0.00100551 0)
(0.0199677 0.000814559 0)
(0.0198221 0.00265564 0)
(0.0191556 0.00435027 0)
(0.0181913 0.005871 0)
(0.0166949 0.00722132 0)
(0.0146869 0.00833563 0)
(0.0122583 0.00919681 0)
(0.00952207 0.0099028 0)
(0.00681508 0.0105304 0)
(0.00413951 0.0111734 0)
(0.00124251 0.0118469 0)
(-0.00233076 0.0126824 0)
(-0.00668852 0.0132626 0)
(-0.0132839 0.0133276 0)
(0.00656127 -0.0232897 0)
(0.00627863 -0.017322 0)
(0.00766143 -0.014973 0)
(0.00801486 -0.0131361 0)
(0.00962799 -0.0109932 0)
(0.0122762 -0.0086366 0)
(0.0129849 -0.00605001 0)
(0.012896 -0.00394618 0)
(0.0148459 -0.00177042 0)
(0.0168389 0.000458833 0)
(0.0174098 0.00307601 0)
(0.0173779 0.00487237 0)
(0.0172074 0.00674384 0)
(0.0170245 0.00859509 0)
(0.017547 0.00966242 0)
(0.0168289 0.0113241 0)
(0.0132761 0.0122539 0)
(0.00921086 0.0128201 0)
(0.00470069 0.0139049 0)
(0.00192321 0.014011 0)
(0.000866253 0.0154676 0)
(0.000825328 0.0165964 0)
(-0.0113143 0.0198572 0)
(0.00380643 -0.0293957 0)
(0.00675024 -0.0220875 0)
(0.00134775 -0.0151359 0)
(-0.0173192 -0.0121482 0)
(-0.028102 -0.0179113 0)
(-0.0254033 -0.0160467 0)
(-0.0227241 -0.00726406 0)
(-0.0171988 -0.00892261 0)
(-0.00739956 -0.00966588 0)
(0.00211002 -0.00350567 0)
(0.00870269 0.00156432 0)
(0.0132823 0.00451114 0)
(0.0170851 0.00742194 0)
(0.0206613 0.00903639 0)
(0.0228657 0.0103003 0)
(0.0253122 0.0173953 0)
(0.0268811 0.0230692 0)
(0.027748 0.0216392 0)
(0.0335204 0.0229705 0)
(0.0352589 0.0198107 0)
(0.0342133 0.0222178 0)
(0.0320725 0.0275453 0)
(0.0107619 0.0670984 0)
(-0.00480851 -0.0313569 0)
(0.00471175 -0.0182749 0)
(0.00861752 0.00310254 0)
(-0.00638407 0.0183939 0)
(-0.0180037 -0.00883108 0)
(-0.0143046 -0.0169404 0)
(-0.00561215 -0.0108689 0)
(0.00344885 -0.0155081 0)
(0.00674233 -0.0175814 0)
(0.00702345 -0.0110054 0)
(0.00762368 -0.00493349 0)
(0.00882553 -0.00178526 0)
(0.0102432 0.0017738 0)
(0.0100078 0.0040032 0)
(0.00460886 0.00736448 0)
(0.00203951 0.00911839 0)
(0.005678 0.0135486 0)
(0.00997301 0.00944067 0)
(0.0175101 0.00730834 0)
(0.0246677 0.0165555 0)
(0.0219258 0.0228042 0)
(0.00708028 0.0287171 0)
(0.00311649 0.0740863 0)
(-0.00954281 -0.0240253 0)
(-0.00899552 -0.0240334 0)
(-0.00338523 -0.00366523 0)
(0.00463093 0.0225219 0)
(0.00746936 -0.0092482 0)
(0.00829918 -0.023403 0)
(0.0133193 -0.0215615 0)
(0.0190942 -0.0218818 0)
(0.0173832 -0.0166768 0)
(0.0105898 -0.00734897 0)
(0.004348 -0.00165602 0)
(-0.000372292 2.81105e-05 0)
(-0.00406985 0.00360637 0)
(-0.00774148 0.00831883 0)
(-0.0118526 0.0148947 0)
(-0.0138115 0.00933725 0)
(-0.0153712 0.0157565 0)
(-0.0176633 0.00906034 0)
(-0.0196783 0.000891227 0)
(-0.0180387 0.013601 0)
(-0.0116512 0.0276999 0)
(-0.0133506 0.0379897 0)
(0.00709692 0.0549974 0)
(-0.00423869 -0.0178819 0)
(-0.0161375 -0.021604 0)
(-0.017083 -0.013629 0)
(-0.000833527 0.00848351 0)
(0.0107403 -0.0137229 0)
(0.00892527 -0.0247606 0)
(0.00794163 -0.0258272 0)
(0.00550765 -0.0207169 0)
(-0.00103086 -0.0090826 0)
(-0.00702602 0.00125854 0)
(-0.0112908 0.00532917 0)
(-0.0157328 0.00622867 0)
(-0.0202855 0.00900598 0)
(-0.0239257 0.0136341 0)
(-0.0266656 0.0174159 0)
(-0.030741 0.014049 0)
(-0.0356971 0.0180911 0)
(-0.0378192 0.0106075 0)
(-0.0381733 0.00408326 0)
(-0.0337009 0.00581789 0)
(-0.0233627 0.0176236 0)
(-0.0121239 0.0262417 0)
(0.00947545 0.0247372 0)
(-0.00012111 -0.00839619 0)
(-0.00452992 -0.0127955 0)
(-0.00788285 -0.0174391 0)
(-0.00150854 -0.00785152 0)
(0.00464776 -0.0163972 0)
(0.000555347 -0.0215283 0)
(-0.00485349 -0.0212223 0)
(-0.0106835 -0.013731 0)
(-0.0154463 -0.00335056 0)
(-0.0184303 0.00422206 0)
(-0.0207047 0.00822884 0)
(-0.0235423 0.0102197 0)
(-0.0267022 0.0125747 0)
(-0.0291575 0.0157771 0)
(-0.0306074 0.0184918 0)
(-0.0320298 0.0187396 0)
(-0.0322782 0.019579 0)
(-0.0317416 0.0123109 0)
(-0.0323381 0.00295364 0)
(-0.0303125 -0.00140834 0)
(-0.0227784 0.00432822 0)
(-0.011127 0.0115248 0)
(0.00225457 0.00846945 0)
(0.0038361 -0.0105953 0)
(0.00214836 -0.0124718 0)
(-0.00100909 -0.0142347 0)
(-0.000379316 -0.0104879 0)
(0.000352928 -0.0139878 0)
(-0.00444488 -0.0157361 0)
(-0.0106046 -0.0139954 0)
(-0.0165477 -0.00803696 0)
(-0.020696 -0.000337379 0)
(-0.0229156 0.00597284 0)
(-0.0243537 0.0100074 0)
(-0.0259603 0.0125414 0)
(-0.0277063 0.0147331 0)
(-0.0288816 0.0169701 0)
(-0.0289942 0.0186676 0)
(-0.0282662 0.0187483 0)
(-0.0262936 0.0172757 0)
(-0.0237829 0.0112783 0)
(-0.0227079 0.00279564 0)
(-0.0227506 -0.00365409 0)
(-0.0204282 -0.00310223 0)
(-0.0144042 0.00223284 0)
(-0.0087877 0.0022988 0)
(0.00337318 -0.0136836 0)
(0.0031229 -0.0117883 0)
(0.000787005 -0.0116845 0)
(-0.000744805 -0.00953926 0)
(-0.00269488 -0.0105136 0)
(-0.00743755 -0.0103578 0)
(-0.0130589 -0.00799963 0)
(-0.0182299 -0.00324641 0)
(-0.0218144 0.0025062 0)
(-0.0237568 0.00752084 0)
(-0.0248501 0.0111793 0)
(-0.0257332 0.0137158 0)
(-0.0264357 0.0156479 0)
(-0.0265575 0.0170724 0)
(-0.0257786 0.0177195 0)
(-0.0241644 0.0169308 0)
(-0.0217734 0.0143729 0)
(-0.0193797 0.00906271 0)
(-0.0183112 0.00220749 0)
(-0.0185562 -0.00336255 0)
(-0.0186483 -0.00494355 0)
(-0.0169754 -0.00201347 0)
(-0.0150216 0.000786968 0)
(0.00169072 -0.0160527 0)
(0.00134622 -0.0112816 0)
(-0.000624257 -0.00932368 0)
(-0.00290271 -0.00734622 0)
(-0.00578234 -0.00674004 0)
(-0.00998838 -0.00553 0)
(-0.0146227 -0.00304068 0)
(-0.0187609 0.000747576 0)
(-0.0216928 0.00501748 0)
(-0.0233837 0.0088984 0)
(-0.0242546 0.0119636 0)
(-0.0246567 0.0141681 0)
(-0.0246388 0.015645 0)
(-0.0240618 0.0163856 0)
(-0.0228256 0.0162407 0)
(-0.0210189 0.0148539 0)
(-0.0188781 0.0119975 0)
(-0.0170514 0.0074289 0)
(-0.0163745 0.00197615 0)
(-0.0169172 -0.00265518 0)
(-0.0178375 -0.00435164 0)
(-0.0180516 -0.00282312 0)
(-0.0178122 0.000261059 0)
(-0.000186258 -0.01637 0)
(-0.0013673 -0.0100831 0)
(-0.00349799 -0.00696039 0)
(-0.00602243 -0.00471347 0)
(-0.00899945 -0.00321023 0)
(-0.0125564 -0.00149758 0)
(-0.016209 0.000867059 0)
(-0.0193778 0.00387585 0)
(-0.0216628 0.00707461 0)
(-0.023016 0.0100301 0)
(-0.0236088 0.0124234 0)
(-0.0236237 0.014116 0)
(-0.0231488 0.01508 0)
(-0.0221984 0.0152871 0)
(-0.0207974 0.0146402 0)
(-0.0190812 0.0129708 0)
(-0.0173184 0.0101972 0)
(-0.0159863 0.00636777 0)
(-0.0156154 0.00205841 0)
(-0.0163328 -0.00167627 0)
(-0.0175863 -0.00326261 0)
(-0.0185706 -0.00239023 0)
(-0.0191102 0.000311229 0)
(-0.00181464 -0.0144154 0)
(-0.00402839 -0.0079979 0)
(-0.00657496 -0.00442143 0)
(-0.00927113 -0.00195898 0)
(-0.012121 -8.93957e-05 0)
(-0.0151089 0.00175276 0)
(-0.0179628 0.00385806 0)
(-0.0203511 0.00623229 0)
(-0.0220473 0.00863891 0)
(-0.0230005 0.0108234 0)
(-0.0232811 0.0125626 0)
(-0.0230049 0.0137156 0)
(-0.0222715 0.0142191 0)
(-0.0211567 0.0140313 0)
(-0.0197511 0.0130959 0)
(-0.0182118 0.0113537 0)
(-0.0167812 0.00882262 0)
(-0.0157938 0.00565611 0)
(-0.0155886 0.00228852 0)
(-0.0162988 -0.000583046 0)
(-0.0175844 -0.00197283 0)
(-0.0188313 -0.00143788 0)
(-0.0196729 0.000749924 0)
(-0.00298159 -0.0106877 0)
(-0.00618695 -0.00499418 0)
(-0.00924385 -0.00156862 0)
(-0.0121279 0.00082386 0)
(-0.0148584 0.00268628 0)
(-0.0174261 0.00439913 0)
(-0.0196994 0.00615721 0)
(-0.0215036 0.00797633 0)
(-0.0227159 0.00973352 0)
(-0.0233063 0.0112677 0)
(-0.0233196 0.0124268 0)
(-0.0228425 0.0130992 0)
(-0.0219732 0.0132206 0)
(-0.0208115 0.0127529 0)
(-0.0194738 0.011672 0)
(-0.0181163 0.00997923 0)
(-0.0169413 0.00774461 0)
(-0.0161843 0.00514661 0)
(-0.0160536 0.00253043 0)
(-0.0166244 0.000387886 0)
(-0.0177134 -0.000701416 0)
(-0.0188875 -0.00035904 0)
(-0.0196934 0.00126778 0)
(-0.00374087 -0.00566365 0)
(-0.00773751 -0.0011958 0)
(-0.0112656 0.00163934 0)
(-0.014339 0.00366173 0)
(-0.0170091 0.00523997 0)
(-0.0193039 0.006632 0)
(-0.0211853 0.00796813 0)
(-0.0225802 0.00926495 0)
(-0.0234369 0.0104537 0)
(-0.0237528 0.0114313 0)
(-0.0235719 0.0120939 0)
(-0.0229712 0.0123592 0)
(-0.0220454 0.0121751 0)
(-0.0208998 0.0115157 0)
(-0.0196542 0.0103794 0)
(-0.0184509 0.00879887 0)
(-0.0174522 0.00686427 0)
(-0.0168237 0.00474551 0)
(-0.0166937 0.00271235 0)
(-0.017091 0.00111428 0)
(-0.0178748 0.000318359 0)
(-0.0187353 0.000541465 0)
(-0.0193226 0.00168073 0)
(-0.00418255 0.000201865 0)
(-0.00871113 0.00319934 0)
(-0.012599 0.00515924 0)
(-0.0158318 0.00657699 0)
(-0.0184829 0.00766892 0)
(-0.020612 0.00860199 0)
(-0.0222435 0.00945655 0)
(-0.0233701 0.0102416 0)
(-0.023989 0.0109136 0)
(-0.0241229 0.0114035 0)
(-0.0238224 0.0116396 0)
(-0.0231623 0.0115631 0)
(-0.022233 0.0111364 0)
(-0.0211362 0.0103461 0)
(-0.0199842 0.00920451 0)
(-0.0188995 0.00775761 0)
(-0.0180091 0.00609695 0)
(-0.0174287 0.00436978 0)
(-0.0172341 0.00278188 0)
(-0.0174245 0.0015768 0)
(-0.0178866 0.000984824 0)
(-0.0184004 0.00112355 0)
(-0.0187195 0.00191627 0)
(-0.00438226 0.00653341 0)
(-0.00920105 0.00796836 0)
(-0.0133052 0.00889696 0)
(-0.0166348 0.00955566 0)
(-0.0192715 0.0100285 0)
(-0.0212962 0.0104111 0)
(-0.0227713 0.0107428 0)
(-0.0237307 0.0110208 0)
(-0.0242041 0.011211 0)
(-0.0242331 0.0112638 0)
(-0.0238756 0.0111276 0)
(-0.0232052 0.0107604 0)
(-0.0223073 0.010137 0)
(-0.021276 0.00925273 0)
(-0.0202109 0.00812707 0)
(-0.0192144 0.00680819 0)
(-0.0183841 0.00537889 0)
(-0.0178002 0.00395917 0)
(-0.0175061 0.00270184 0)
(-0.0174866 0.00177324 0)
(-0.017652 0.00131586 0)
(-0.0178477 0.00139158 0)
(-0.0179045 0.00194173 0)
(-0.00440417 0.0130355 0)
(-0.00930036 0.0129019 0)
(-0.013474 0.0127385 0)
(-0.0168181 0.0125535 0)
(-0.0194154 0.0123338 0)
(-0.0213581 0.0121153 0)
(-0.022729 0.0119035 0)
(-0.0235855 0.0116822 0)
(-0.0239771 0.0114188 0)
(-0.0239573 0.0110731 0)
(-0.0235885 0.0106059 0)
(-0.0229424 0.0099859 0)
(-0.0220984 0.00919615 0)
(-0.0211407 0.00823709 0)
(-0.0201554 0.00712971 0)
(-0.0192262 0.00591817 0)
(-0.0184278 0.00467184 0)
(-0.0178157 0.00348407 0)
(-0.0174143 0.00246531 0)
(-0.017204 0.0017271 0)
(-0.0171159 0.00135623 0)
(-0.0170418 0.00138253 0)
(-0.0168661 0.00175993 0)
(-0.00427855 0.0194808 0)
(-0.00908179 0.0178215 0)
(-0.0131917 0.0165653 0)
(-0.0164612 0.015508 0)
(-0.018977 0.0145705 0)
(-0.0208339 0.0137356 0)
(-0.0221225 0.0129803 0)
(-0.0229112 0.0122749 0)
(-0.0232597 0.0115846 0)
(-0.0232273 0.0108729 0)
(-0.0228772 0.010107 0)
(-0.0222777 0.00926198 0)
(-0.021501 0.00832512 0)
(-0.020621 0.00729854 0)
(-0.0197106 0.00620114 0)
(-0.0188377 0.00506981 0)
(-0.0180591 0.00395927 0)
(-0.0174142 0.0029392 0)
(-0.0169164 0.00208717 0)
(-0.0165472 0.00147625 0)
(-0.0162549 0.00115774 0)
(-0.0159641 0.00114268 0)
(-0.0155955 0.00139346 0)
(-0.00402157 0.025668 0)
(-0.00859773 0.0225832 0)
(-0.0125303 0.0202636 0)
(-0.0156405 0.0183519 0)
(-0.0180272 0.016709 0)
(-0.0197799 0.0152706 0)
(-0.0209883 0.0139896 0)
(-0.0217241 0.0128244 0)
(-0.0220495 0.0117359 0)
(-0.0220247 0.0106882 0)
(-0.0217108 0.00965088 0)
(-0.0211707 0.00860197 0)
(-0.0204688 0.00753016 0)
(-0.0196687 0.00643666 0)
(-0.0188315 0.00533618 0)
(-0.0180115 0.00425706 0)
(-0.0172525 0.00324005 0)
(-0.0165828 0.0023349 0)
(-0.0160102 0.00159422 0)
(-0.0155193 0.00106415 0)
(-0.0150724 0.000772994 0)
(-0.0146169 0.000720573 0)
(-0.0140982 0.000874826 0)
(-0.00368613 0.0314317 0)
(-0.00790371 0.0270585 0)
(-0.0115527 0.0237343 0)
(-0.0144305 0.0210217 0)
(-0.0166407 0.018713 0)
(-0.0182633 0.0167057 0)
(-0.0193826 0.0149323 0)
(-0.0200673 0.0133404 0)
(-0.0203773 0.0118861 0)
(-0.0203696 0.0105319 0)
(-0.0201004 0.00924804 0)
(-0.0196263 0.00801291 0)
(-0.0190029 0.00681468 0)
(-0.0182844 0.00565203 0)
(-0.0175209 0.00453452 0)
(-0.016756 0.00348192 0)
(-0.0160236 0.00252259 0)
(-0.0153444 0.00169016 0)
(-0.0147235 0.00101844 0)
(-0.014149 0.00053468 0)
(-0.013594 0.00025206 0)
(-0.013022 0.000163459 0)
(-0.0123954 0.000240467 0)
(-0.00330214 0.0366537 0)
(-0.00705096 0.0311273 0)
(-0.0103237 0.0268953 0)
(-0.0129047 0.0234583 0)
(-0.0148923 0.020545 0)
(-0.0163571 0.0180207 0)
(-0.0173734 0.0158007 0)
(-0.0180022 0.013823 0)
(-0.0182973 0.012039 0)
(-0.0183095 0.0104093 0)
(-0.0180884 0.0089031 0)
(-0.0176827 0.00749807 0)
(-0.0171397 0.00618065 0)
(-0.0165042 0.0049463 0)
(-0.0158171 0.0037992 0)
(-0.0151129 0.00275131 0)
(-0.0144178 0.0018205 0)
(-0.0137474 0.00102765 0)
(-0.0131054 0.000392583 0)
(-0.0124834 -7.07719e-05 0)
(-0.0118624 -0.00035938 0)
(-0.0112171 -0.000484771 0)
(-0.010522 -0.000472929 0)
(-0.00286933 0.0412478 0)
(-0.00607928 0.0346965 0)
(-0.00890423 0.0296748 0)
(-0.0111297 0.0256075 0)
(-0.0128537 0.022169 0)
(-0.0141357 0.0191946 0)
(-0.0150351 0.016584 0)
(-0.0156014 0.014268 0)
(-0.015879 0.0121941 0)
(-0.0159107 0.0103213 0)
(-0.0157381 0.00861737 0)
(-0.0154015 0.00705865 0)
(-0.0149397 0.00562946 0)
(-0.0143891 0.00432191 0)
(-0.013782 0.00313521 0)
(-0.0131454 0.00207456 0)
(-0.0124997 0.00114931 0)
(-0.0118568 0.000370483 0)
(-0.0112197 -0.000252422 0)
(-0.0105824 -0.000714933 0)
(-0.00993209 -0.00102092 0)
(-0.0092515 -0.00118475 0)
(-0.00852318 -0.00123074 0)
(-0.00239954 0.0451438 0)
(-0.00501884 0.0377025 0)
(-0.00733976 0.0320099 0)
(-0.00916212 0.0274225 0)
(-0.0105912 0.0235556 0)
(-0.0116726 0.0202099 0)
(-0.0124453 0.0172726 0)
(-0.0129436 0.0146704 0)
(-0.0132011 0.0123493 0)
(-0.013251 0.0102671 0)
(-0.0131262 0.00839067 0)
(-0.0128586 0.00669499 0)
(-0.0124786 0.00516234 0)
(-0.0120146 0.00378178 0)
(-0.0114914 0.00254833 0)
(-0.01093 0.00146165 0)
(-0.0103456 0.000524439 0)
(-0.00974741 -0.000259749 0)
(-0.00913796 -0.000888962 0)
(-0.00851345 -0.00136544 0)
(-0.00786506 -0.00169776 0)
(-0.00718134 -0.00190216 0)
(-0.00645062 -0.00200174 0)
(-0.00190273 0.0482875 0)
(-0.00388942 0.0400975 0)
(-0.00566523 0.033849 0)
(-0.00705117 0.0288682 0)
(-0.00816804 0.0246866 0)
(-0.00904159 0.0210569 0)
(-0.00968353 0.017861 0)
(-0.0101113 0.0150272 0)
(-0.010347 0.0125027 0)
(-0.0104141 0.0102456 0)
(-0.0103365 0.00822245 0)
(-0.0101376 0.00640715 0)
(-0.00983982 0.00478039 0)
(-0.00946404 0.00332884 0)
(-0.0090287 0.00204421 0)
(-0.0085491 0.00092196 0)
(-0.00803661 -4.01993e-05 0)
(-0.00749809 -0.000844184 0)
(-0.00693569 -0.00149349 0)
(-0.0063471 -0.00199506 0)
(-0.00572652 -0.00236071 0)
(-0.00506646 -0.00260789 0)
(-0.00435934 -0.00275875 0)
(-0.0013395 0.0506353 0)
(-0.00266945 0.0418548 0)
(-0.00389936 0.0351695 0)
(-0.0048466 0.0299268 0)
(-0.00565115 0.0255573 0)
(-0.00631906 0.0217339 0)
(-0.00683099 0.0183477 0)
(-0.00718804 0.0153371 0)
(-0.00740145 0.0126534 0)
(-0.00748528 0.0102562 0)
(-0.00745447 0.00811225 0)
(-0.00732411 0.00619519 0)
(-0.00710895 0.00448465 0)
(-0.00682292 0.00296571 0)
(-0.00647857 0.00162781 0)
(-0.00608643 0.000463546 0)
(-0.0056545 -0.000532884 0)
(-0.00518776 -0.00136722 0)
(-0.00468799 -0.00204673 0)
(-0.00415391 -0.00258162 0)
(-0.00358187 -0.00298594 0)
(-0.00296714 -0.0032779 0)
(-0.002305 -0.00347888 0)
(-0.000601419 0.0521112 0)
(-0.0012868 0.0429781 0)
(-0.00203746 0.0360079 0)
(-0.00260134 0.0306226 0)
(-0.00311993 0.0261737 0)
(-0.00358554 0.0222431 0)
(-0.00396822 0.018733 0)
(-0.00425498 0.0155999 0)
(-0.00444663 0.0128011 0)
(-0.00454759 0.0102985 0)
(-0.0045638 0.00805998 0)
(-0.00450211 0.00605928 0)
(-0.00436989 0.00427594 0)
(-0.00417466 0.00269442 0)
(-0.00392359 0.00130304 0)
(-0.00362307 9.27238e-05 0)
(-0.0032782 -0.000944433 0)
(-0.00289239 -0.00181661 0)
(-0.00246709 -0.00253357 0)
(-0.00200179 -0.0031077 0)
(-0.00149434 -0.00355456 0)
(-0.000941951 -0.00389289 0)
(-0.000341762 -0.00414344 0)
(0.0002959 0.0524352 0)
(0.000228014 0.0435164 0)
(-0.000111665 0.0364484 0)
(-0.000356618 0.031019 0)
(-0.000633177 0.0265546 0)
(-0.000909734 0.0225889 0)
(-0.00116661 0.0190187 0)
(-0.001386 0.015817 0)
(-0.00155852 0.0129471 0)
(-0.00167856 0.0103736 0)
(-0.00174297 0.00806609 0)
(-0.00175055 0.00599973 0)
(-0.00170166 0.00415485 0)
(-0.00159782 0.00251632 0)
(-0.00144137 0.00107251 0)
(-0.00123505 -0.000186093 0)
(-0.000981521 -0.00126827 0)
(-0.000682911 -0.00218344 0)
(-0.000340454 -0.00294282 0)
(4.57701e-05 -0.0035602 0)
(0.000476777 -0.0040522 0)
(0.000954055 -0.00443794 0)
(0.00147919 -0.00473776 0)
(0.00117046 0.0515215 0)
(0.00173082 0.0435034 0)
(0.00180227 0.0365367 0)
(0.00183497 0.0311679 0)
(0.00177156 0.0267317 0)
(0.00166106 0.0227826 0)
(0.00151706 0.0192118 0)
(0.00135574 0.0159938 0)
(0.00119567 0.0130951 0)
(0.00105214 0.0104837 0)
(0.000936895 0.00813198 0)
(0.000858717 0.00601726 0)
(0.000823784 0.0041218 0)
(0.000836023 0.00243206 0)
(0.000897428 0.000937585 0)
(0.00100845 -0.000370378 0)
(0.00116846 -0.00150033 0)
(0.00137626 -0.00246189 0)
(0.00163068 -0.00326687 0)
(0.00193104 -0.00392991 0)
(0.00227744 -0.00446844 0)
(0.0026705 -0.004902 0)
(0.00311112 -0.00525077 0)
(0.00186207 0.0495649 0)
(0.00306177 0.0428672 0)
(0.00359251 0.0362667 0)
(0.00390737 0.0310803 0)
(0.00405088 0.026727 0)
(0.00408749 0.0228446 0)
(0.00403483 0.0193278 0)
(0.00391573 0.0161411 0)
(0.00375738 0.0132525 0)
(0.00358344 0.0106336 0)
(0.00341329 0.00826027 0)
(0.00326247 0.00611304 0)
(0.00314302 0.00417714 0)
(0.00306374 0.00244167 0)
(0.00303048 0.000898463 0)
(0.00304641 -0.000459321 0)
(0.00311253 -0.00163882 0)
(0.00322829 -0.0026489 0)
(0.00339227 -0.00350127 0)
(0.00360306 -0.00421102 0)
(0.00385993 -0.00479632 0)
(0.00416289 -0.00527743 0)
(0.00451264 -0.00567464 0)
(0.00232561 0.0467717 0)
(0.00414099 0.0415893 0)
(0.00517324 0.0356108 0)
(0.00580932 0.0307354 0)
(0.00616355 0.0265496 0)
(0.00632574 0.0227987 0)
(0.00634032 0.0193872 0)
(0.00624519 0.0162739 0)
(0.00607593 0.0134295 0)
(0.00586333 0.0108296 0)
(0.00563333 0.0084545 0)
(0.00540733 0.00628868 0)
(0.00520252 0.00432117 0)
(0.00503201 0.00254468 0)
(0.004905 0.000954401 0)
(0.00482704 -0.000453555 0)
(0.00480043 -0.0016839 0)
(0.00482487 -0.00274385 0)
(0.00489844 -0.00364435 0)
(0.00501867 -0.00440066 0)
(0.00518387 -0.00503193 0)
(0.00539363 -0.00555954 0)
(0.00564894 -0.00600444 0)
(0.00263993 0.0433438 0)
(0.0050252 0.0397152 0)
(0.00654741 0.0345369 0)
(0.00750743 0.0301162 0)
(0.00805969 0.0262119 0)
(0.00832734 0.0226666 0)
(0.00838952 0.0194098 0)
(0.00830194 0.0164075 0)
(0.00810952 0.0136366 0)
(0.00784993 0.0110786 0)
(0.00755494 0.00871862 0)
(0.0072511 0.00654595 0)
(0.00696006 0.00455415 0)
(0.00669867 0.00274035 0)
(0.00647912 0.00110401 0)
(0.00630904 -0.000354782 0)
(0.00619181 -0.0016373 0)
(0.00612721 -0.00274814 0)
(0.0061124 -0.00369682 0)
(0.00614343 -0.00449856 0)
(0.00621724 -0.00517394 0)
(0.00633315 -0.0057463 0)
(0.00649287 -0.00623788 0)
(0.00290479 0.0394029 0)
(0.00580526 0.0373082 0)
(0.00775477 0.0330701 0)
(0.00899248 0.0292454 0)
(0.00971015 0.0257352 0)
(0.0100602 0.0224677 0)
(0.0101509 0.0194128 0)
(0.0100552 0.0165556 0)
(0.0098279 0.013884 0)
(0.00951335 0.0113872 0)
(0.00914857 0.00905651 0)
(0.00876447 0.00688663 0)
(0.0083864 0.00487634 0)
(0.00803442 0.00302786 0)
(0.00772338 0.00134569 0)
(0.00746289 -0.000165237 0)
(0.0072575 -0.00150174 0)
(0.00710703 -0.00266475 0)
(0.00700749 -0.00366145 0)
(0.00695267 -0.00450669 0)
(0.00693749 -0.00522328 0)
(0.00696093 -0.0058379 0)
(0.0070261 -0.006375 0)
(0.00318611 0.0349834 0)
(0.00653719 0.0344371 0)
(0.00883214 0.0312829 0)
(0.0102816 0.0281773 0)
(0.0111155 0.0251535 0)
(0.0115144 0.0222261 0)
(0.0116095 0.0194151 0)