/*--------------------------------*- C++ -*----------------------------------*\
  =========                 |
  \\      /  F ield         | OpenFOAM: The Open Source CFD Toolbox
   \\    /   O peration     | Website:  https://openfoam.org
    \\  /    A nd           | Version:  9
     \\/     M anipulation  |
\*---------------------------------------------------------------------------*/
FoamFile
{
    format      ascii;
    class       volScalarField;
    location    "8.56";
    object      p;
}
// * * * * * * * * * * * * * * * * * * * * * * * * * * * * * * * * * * * * * //

dimensions      [1 -1 -2 0 0 0 0];

internalField   nonuniform List<scalar> 
2268
(
739.03
738.845
738.526
738.075
737.499
736.812
736.026
735.156
734.218
733.227
732.202
731.16
730.113
729.073
728.049
727.056
726.134
725.316
724.617
724.063
723.727
723.491
723.366
680.213
680.032
679.714
679.262
678.683
677.99
677.197
676.319
675.372
674.372
673.337
672.281
671.218
670.162
669.128
668.143
667.241
666.476
665.873
665.344
664.895
664.564
664.436
621.428
621.248
620.93
620.475
619.892
619.192
618.389
617.499
616.54
615.527
614.477
613.405
612.325
611.253
610.21
609.229
608.346
607.606
607.056
606.541
606.005
605.611
605.488
562.677
562.494
562.173
561.714
561.124
560.415
559.6
558.696
557.721
556.692
555.624
554.534
553.438
552.353
551.301
550.318
549.429
548.686
548.14
547.65
547.059
546.626
546.527
503.959
503.772
503.445
502.979
502.38
501.659
500.83
499.909
498.916
497.866
496.778
495.668
494.556
493.459
492.401
491.417
490.5
489.713
489.15
488.671
488.066
487.641
487.559
445.274
445.081
444.746
444.271
443.66
442.924
442.078
441.138
440.122
439.049
437.937
436.805
435.675
434.567
433.507
432.533
431.611
430.676
430.105
429.636
429.023
428.717
428.579
386.623
386.423
386.079
385.592
384.966
384.212
383.346
382.383
381.342
380.241
379.1
377.941
376.792
375.673
374.614
373.663
372.837
371.958
371.18
370.602
370.166
369.905
369.573
328.004
327.798
327.445
326.944
326.3
325.525
324.635
323.647
322.577
321.444
320.267
319.079
317.907
316.776
315.719
314.798
314.128
313.578
312.632
311.846
311.623
311.14
310.57
725.723
726.193
727.104
727.915
728.778
729.655
730.564
731.513
732.482
733.461
734.418
735.308
736.27
737.414
738.266
739.004
739.529
739.88
740.142
666.825
667.159
668.072
668.914
669.812
670.736
671.737
672.729
673.733
674.784
675.901
676.976
677.929
678.745
679.55
680.268
680.795
681.151
681.429
608.075
608.296
609.113
609.932
610.846
611.798
612.816
613.841
614.888
615.995
617.232
618.537
619.562
620.19
620.879
621.588
622.144
622.593
622.9
549.44
549.592
550.219
550.986
551.898
552.868
553.909
554.969
556.059
557.201
558.47
559.865
560.974
561.599
562.235
562.928
563.522
564.055
564.315
490.755
490.88
491.344
492.053
492.958
493.947
495.015
496.112
497.244
498.409
499.701
501.058
502.202
502.929
503.65
504.282
504.863
505.449
505.709
431.861
432.005
432.42
433.106
434.012
435.018
436.118
437.263
438.427
439.573
440.912
442.259
443.415
444.219
445.093
445.977
446.408
446.805
447.139
372.699
372.949
373.418
374.126
375.051
376.077
377.216
378.428
379.67
380.759
382.098
383.481
384.658
385.51
386.638
387.597
388.13
388.241
388.627
313.279
313.785
314.347
315.117
316.075
317.117
318.305
319.62
321.127
322.27
323.452
324.72
325.916
326.983
328.469
329.19
329.853
329.801
330.182
236.419
236.201
235.832
235.306
234.628
233.816
232.884
231.85
230.727
229.534
228.294
227.043
225.826
224.668
223.608
222.713
222.071
221.559
220.93
220.258
219.626
219.15
218.463
112.048
111.842
111.457
110.916
110.214
109.361
108.428
107.435
106.381
105.278
104.146
103.006
101.872
100.758
99.698
98.7483
97.9909
97.4613
96.9881
96.4288
95.7301
95.2228
94.9178
24.7552
24.6337
24.4092
24.1223
23.7977
23.4059
22.9576
22.4781
21.9876
21.5003
21.0206
20.5329
20.0146
19.4816
18.9517
18.4567
18.0748
17.8242
17.6133
17.3749
17.0956
16.9048
16.8151
-0.749313
-0.733081
-0.718941
-0.724342
-0.680356
-0.600317
-0.574621
-0.57791
-0.585398
-0.592392
-0.598992
-0.604269
-0.621581
-0.631148
-0.637755
-0.654943
-0.692016
-0.743688
-0.789434
-0.792928
-0.776564
-0.763092
-0.769305
-0.965348
-0.960808
-0.956179
-0.955379
-0.944904
-0.929574
-0.915044
-0.906879
-0.901434
-0.897713
-0.895357
-0.895016
-0.899838
-0.904311
-0.908547
-0.917104
-0.928623
-0.938682
-0.945519
-0.949039
-0.9487
-0.948081
-0.949446
-1.14799
-1.15046
-1.1482
-1.14847
-1.15093
-1.15722
-1.15974
-1.15981
-1.15952
-1.15906
-1.15829
-1.1564
-1.15205
-1.14914
-1.14802
-1.14703
-1.14497
-1.14051
-1.13593
-1.13394
-1.13162
-1.12865
-1.12456
-1.28889
-1.28996
-1.28964
-1.28932
-1.29035
-1.28949
-1.28903
-1.28844
-1.28725
-1.28569
-1.28392
-1.2819
-1.27902
-1.27686
-1.27584
-1.275
-1.27398
-1.27378
-1.27316
-1.27263
-1.27271
-1.27265
-1.2721
-1.4142
-1.41462
-1.41457
-1.4141
-1.41418
-1.4136
-1.41302
-1.4124
-1.41157
-1.41055
-1.40948
-1.40859
-1.40794
-1.40715
-1.40596
-1.40413
-1.40231
-1.40168
-1.40137
-1.40072
-1.40047
-1.40071
-1.40069
-1.53903
-1.53926
-1.53911
-1.5388
-1.53865
-1.53816
-1.53765
-1.53711
-1.53643
-1.53568
-1.53494
-1.53453
-1.53461
-1.53401
-1.53262
-1.53098
-1.52942
-1.52841
-1.52772
-1.52716
-1.5269
-1.52685
-1.52665
-1.66375
-1.66387
-1.66373
-1.66351
-1.66331
-1.66295
-1.66252
-1.66202
-1.66145
-1.66085
-1.66028
-1.6598
-1.65944
-1.6588
-1.6578
-1.65675
-1.65569
-1.65471
-1.65401
-1.65352
-1.65325
-1.65311
-1.65293
-1.78849
-1.78854
-1.78842
-1.78824
-1.78804
-1.78777
-1.7874
-1.78695
-1.7865
-1.78601
-1.78552
-1.78499
-1.78452
-1.78389
-1.78302
-1.78213
-1.78133
-1.78066
-1.78014
-1.77975
-1.77953
-1.77945
-1.77948
-1.91327
-1.91327
-1.91317
-1.91301
-1.91282
-1.91258
-1.91226
-1.91188
-1.91154
-1.91116
-1.91069
-1.9102
-1.90973
-1.90918
-1.90848
-1.90775
-1.90706
-1.90651
-1.90615
-1.90586
-1.90571
-1.90571
-1.90593
-2.03809
-2.03807
-2.03798
-2.03784
-2.03766
-2.03746
-2.03716
-2.03686
-2.0366
-2.03628
-2.03585
-2.03542
-2.035
-2.03458
-2.03415
-2.03358
-2.03296
-2.03244
-2.0321
-2.03185
-2.03173
-2.03177
-2.032
-2.16296
-2.16293
-2.16284
-2.16272
-2.16257
-2.16238
-2.16214
-2.16191
-2.16168
-2.16137
-2.16101
-2.16064
-2.16029
-2.15996
-2.15968
-2.15933
-2.15887
-2.1584
-2.15798
-2.15772
-2.1576
-2.15763
-2.1578
-2.28786
-2.28783
-2.28775
-2.28765
-2.28751
-2.28736
-2.28719
-2.287
-2.28678
-2.28648
-2.28617
-2.28586
-2.28555
-2.28527
-2.28502
-2.28479
-2.28449
-2.28409
-2.28369
-2.28345
-2.28334
-2.28334
-2.28345
-2.4128
-2.41276
-2.41269
-2.4126
-2.41249
-2.41237
-2.41226
-2.41209
-2.41187
-2.4116
-2.41133
-2.41106
-2.4108
-2.41054
-2.41031
-2.41009
-2.40983
-2.40954
-2.40925
-2.40906
-2.40896
-2.40895
-2.40902
-2.53775
-2.53774
-2.53767
-2.53759
-2.5375
-2.5374
-2.53729
-2.53715
-2.53694
-2.53672
-2.53649
-2.53626
-2.53603
-2.53581
-2.53559
-2.53539
-2.53517
-2.53494
-2.53473
-2.53458
-2.5345
-2.53448
-2.53452
-2.66276
-2.66272
-2.66267
-2.66261
-2.66253
-2.66244
-2.66233
-2.6622
-2.66203
-2.66185
-2.66165
-2.66145
-2.66126
-2.66106
-2.66087
-2.66069
-2.6605
-2.66032
-2.66016
-2.66004
-2.65997
-2.65995
-2.65998
-2.78782
-2.78775
-2.78771
-2.78765
-2.78758
-2.7875
-2.7874
-2.78728
-2.78714
-2.78699
-2.78682
-2.78665
-2.78648
-2.78631
-2.78614
-2.78598
-2.78583
-2.78568
-2.78556
-2.78546
-2.7854
-2.78538
-2.7854
-2.91287
-2.91283
-2.91278
-2.91273
-2.91266
-2.91258
-2.9125
-2.91239
-2.91227
-2.91214
-2.91199
-2.91185
-2.9117
-2.91155
-2.91141
-2.91127
-2.91114
-2.91102
-2.91092
-2.91084
-2.91079
-2.91078
-2.91079
-3.03794
-3.03791
-3.03787
-3.03782
-3.03776
-3.03769
-3.03761
-3.03751
-3.03741
-3.03729
-3.03717
-3.03704
-3.03692
-3.03679
-3.03667
-3.03655
-3.03644
-3.03634
-3.03626
-3.0362
-3.03616
-3.03614
-3.03615
-3.16303
-3.163
-3.16297
-3.16292
-3.16287
-3.1628
-3.16273
-3.16265
-3.16256
-3.16246
-3.16235
-3.16224
-3.16213
-3.16202
-3.16192
-3.16182
-3.16173
-3.16165
-3.16158
-3.16153
-3.1615
-3.16149
-3.16149
-3.28812
-3.28812
-3.28808
-3.28804
-3.28799
-3.28793
-3.28787
-3.28779
-3.28771
-3.28763
-3.28754
-3.28744
-3.28735
-3.28725
-3.28717
-3.28708
-3.287
-3.28694
-3.28688
-3.28684
-3.28682
-3.28681
-3.28682
-3.41322
-3.41326
-3.41322
-3.41317
-3.41313
-3.41307
-3.41301
-3.41295
-3.41288
-3.4128
-3.41272
-3.41264
-3.41256
-3.41248
-3.41241
-3.41234
-3.41227
-3.41222
-3.41217
-3.41214
-3.41212
-3.41212
-3.41213
-3.53837
-3.5384
-3.53836
-3.53831
-3.53827
-3.53822
-3.53817
-3.53811
-3.53805
-3.53798
-3.53791
-3.53784
-3.53777
-3.53771
-3.53764
-3.53758
-3.53753
-3.53749
-3.53745
-3.53742
-3.53741
-3.53741
-3.53742
-3.66354
-3.66354
-3.6635
-3.66346
-3.66342
-3.66337
-3.66332
-3.66327
-3.66322
-3.66316
-3.6631
-3.66304
-3.66299
-3.66293
-3.66287
-3.66282
-3.66278
-3.66274
-3.66272
-3.6627
-3.66269
-3.66269
-3.66271
-3.78872
-3.78868
-3.78864
-3.78861
-3.78857
-3.78853
-3.78848
-3.78844
-3.78839
-3.78834
-3.78829
-3.78824
-3.78819
-3.78815
-3.7881
-3.78806
-3.78802
-3.78799
-3.78797
-3.78796
-3.78795
-3.78796
-3.78798
-3.91388
-3.91382
-3.91379
-3.91376
-3.91372
-3.91369
-3.91365
-3.91361
-3.91357
-3.91353
-3.91349
-3.91344
-3.9134
-3.91336
-3.91332
-3.91329
-3.91326
-3.91324
-3.91322
-3.91321
-3.91321
-3.91322
-3.91324
-4.039
-4.03898
-4.03895
-4.03891
-4.03888
-4.03885
-4.03882
-4.03878
-4.03875
-4.03872
-4.03868
-4.03864
-4.03861
-4.03858
-4.03854
-4.03852
-4.03849
-4.03847
-4.03846
-4.03846
-4.03846
-4.03847
-4.03849
-4.16414
-4.16414
-4.16411
-4.16407
-4.16404
-4.16401
-4.16399
-4.16396
-4.16393
-4.1639
-4.16387
-4.16384
-4.16381
-4.16379
-4.16376
-4.16374
-4.16372
-4.1637
-4.1637
-4.16369
-4.1637
-4.16371
-4.16373
-4.28928
-4.28931
-4.28927
-4.28923
-4.2892
-4.28918
-4.28916
-4.28914
-4.28912
-4.28909
-4.28907
-4.28904
-4.28902
-4.289
-4.28898
-4.28896
-4.28894
-4.28893
-4.28893
-4.28893
-4.28893
-4.28895
-4.28897
-4.41445
-4.41447
-4.41442
-4.41438
-4.41436
-4.41434
-4.41433
-4.41432
-4.4143
-4.41428
-4.41426
-4.41424
-4.41422
-4.41421
-4.41419
-4.41417
-4.41416
-4.41415
-4.41415
-4.41415
-4.41416
-4.41418
-4.4142
-4.53964
-4.53962
-4.53957
-4.53953
-4.53952
-4.53951
-4.53951
-4.5395
-4.53949
-4.53948
-4.53946
-4.53945
-4.53943
-4.53941
-4.5394
-4.53939
-4.53938
-4.53937
-4.53937
-4.53938
-4.53939
-4.5394
-4.53942
-4.66482
-4.66478
-4.66472
-4.66468
-4.66467
-4.66468
-4.66469
-4.66469
-4.66468
-4.66467
-4.66466
-4.66465
-4.66464
-4.66462
-4.66461
-4.6646
-4.66459
-4.66459
-4.66459
-4.6646
-4.66461
-4.66462
-4.66465
-4.79
-4.78994
-4.78988
-4.78986
-4.78985
-4.78987
-4.78988
-4.78988
-4.78988
-4.78987
-4.78986
-4.78985
-4.78984
-4.78983
-4.78982
-4.78981
-4.78981
-4.78981
-4.78981
-4.78981
-4.78983
-4.78984
-4.78987
-4.91519
-4.91508
-4.91506
-4.91506
-4.91507
-4.91508
-4.91508
-4.91508
-4.91508
-4.91508
-4.91507
-4.91506
-4.91505
-4.91504
-4.91503
-4.91503
-4.91502
-4.91502
-4.91502
-4.91503
-4.91504
-4.91506
-4.91508
-5.04033
-5.04023
-5.04025
-5.04027
-5.04029
-5.04029
-5.04029
-5.04029
-5.04029
-5.04028
-5.04028
-5.04027
-5.04026
-5.04025
-5.04025
-5.04024
-5.04023
-5.04023
-5.04023
-5.04024
-5.04025
-5.04027
-5.0403
-5.16543
-5.16536
-5.16541
-5.16546
-5.16549
-5.16549
-5.1655
-5.1655
-5.1655
-5.16549
-5.16549
-5.16548
-5.16548
-5.16547
-5.16546
-5.16545
-5.16545
-5.16545
-5.16545
-5.16545
-5.16546
-5.16549
-5.16551
-5.29049
-5.29047
-5.29057
-5.29064
-5.29068
-5.2907
-5.29071
-5.29071
-5.29071
-5.29071
-5.2907
-5.2907
-5.29069
-5.29068
-5.29068
-5.29067
-5.29067
-5.29066
-5.29066
-5.29066
-5.29067
-5.2907
-5.29073
-5.41552
-5.41561
-5.41575
-5.41584
-5.41589
-5.41591
-5.41592
-5.41592
-5.41592
-5.41592
-5.41592
-5.41591
-5.41591
-5.4159
-5.4159
-5.41589
-5.41588
-5.41588
-5.41587
-5.41587
-5.41587
-5.4159
-5.41595
-5.54056
-5.5408
-5.54097
-5.54106
-5.54111
-5.54113
-5.54113
-5.54113
-5.54112
-5.54112
-5.54112
-5.54111
-5.54111
-5.5411
-5.5411
-5.54109
-5.54109
-5.54108
-5.54107
-5.54105
-5.54104
-5.54109
-5.54117
-5.66587
-5.66639
-5.66632
-5.66633
-5.66634
-5.66634
-5.66634
-5.66633
-5.66633
-5.66633
-5.66632
-5.66632
-5.66632
-5.66632
-5.66631
-5.66631
-5.66631
-5.6663
-5.66629
-5.66627
-5.66622
-5.66625
-5.66638
219.167
219.224
219.53
219.88
95.2042
95.3464
95.5451
95.7988
16.8489
16.9005
16.9887
17.1125
-0.788408
-0.788028
-0.778931
-0.77358
-0.953098
-0.953206
-0.950819
-0.947964
-1.12125
-1.12129
-1.12298
-1.12268
-1.26821
-1.26811
-1.27025
-1.27204
-1.39989
-1.39943
-1.3995
-1.39951
-1.52605
-1.5257
-1.52555
-1.5255
-1.65252
-1.6523
-1.65221
-1.65216
-1.77955
-1.7796
-1.77959
-1.77958
-1.90641
-1.90667
-1.90683
-1.90693
-2.03241
-2.03272
-2.03303
-2.03325
-2.15806
-2.15823
-2.15841
-2.15856
-2.28361
-2.28372
-2.28383
-2.28393
-2.40912
-2.40919
-2.40926
-2.40934
-2.53459
-2.53464
-2.53469
-2.53475
-2.66002
-2.66006
-2.6601
-2.66015
-2.78543
-2.78546
-2.78549
-2.78553
-2.91081
-2.91083
-2.91086
-2.9109
-3.03617
-3.03619
-3.03622
-3.03625
-3.16151
-3.16153
-3.16155
-3.16158
-3.28684
-3.28686
-3.28688
-3.2869
-3.41215
-3.41216
-3.41218
-3.4122
-3.53744
-3.53746
-3.53748
-3.5375
-3.66272
-3.66274
-3.66276
-3.66278
-3.78799
-3.78801
-3.78803
-3.78804
-3.91325
-3.91327
-3.91328
-3.9133
-4.03851
-4.03852
-4.03854
-4.03855
-4.16375
-4.16376
-4.16378
-4.16379
-4.28899
-4.289
-4.28901
-4.28903
-4.41422
-4.41423
-4.41425
-4.41426
-4.53944
-4.53946
-4.53947
-4.53949
-4.66467
-4.66468
-4.6647
-4.66471
-4.78989
-4.7899
-4.78991
-4.78993
-4.9151
-4.91512
-4.91513
-4.91515
-5.04032
-5.04034
-5.04035
-5.04036
-5.16554
-5.16555
-5.16557
-5.16558
-5.29075
-5.29077
-5.29078
-5.2908
-5.41597
-5.41599
-5.416
-5.41601
-5.5412
-5.54121
-5.54122
-5.54123
-5.66641
-5.66642
-5.66643
-5.66644
220.543
221.203
221.912
222.808
223.889
225.109
226.414
227.819
229.624
231.34
232.697
233.934
235.17
236.278
237.217
237.883
238.53
238.603
238.943
96.3795
97.2541
98.1664
99.2116
100.418
101.767
103.133
104.493
105.985
107.787
109.203
110.459
111.616
112.626
113.256
113.943
114.641
114.981
115.294
17.4005
17.8352
18.3079
18.8533
19.4705
20.1464
20.8397
21.4785
21.9964
22.7348
23.3765
23.9342
24.4609
25.0124
25.3639
25.7436
26.1764
26.483
26.7098
-0.771763
-0.751268
-0.729591
-0.727194
-0.733166
-0.739107
-0.743641
-0.744054
-0.744829
-0.758632
-0.76461
-0.790311
-0.829075
-0.783397
-0.749239
-0.735944
-0.728442
-0.724063
-0.721892
-0.946519
-0.94424
-0.940113
-0.93893
-0.941976
-0.944041
-0.94618
-0.94834
-0.951359
-0.956282
-0.962155
-0.970323
-0.977465
-0.970269
-0.967718
-0.966517
-0.966154
-0.966487
-0.968945
-1.12282
-1.12852
-1.13278
-1.13422
-1.13566
-1.13733
-1.13906
-1.14086
-1.14293
-1.14546
-1.14733
-1.14671
-1.14231
-1.14664
-1.14782
-1.14733
-1.14723
-1.14707
-1.14731
-1.27291
-1.27266
-1.27339
-1.27388
-1.27298
-1.27224
-1.27269
-1.27398
-1.27486
-1.2743
-1.2743
-1.27479
-1.27665
-1.28215
-1.28531
-1.28715
-1.28822
-1.28898
-1.28847
-1.39958
-1.39984
-1.40001
-1.40018
-1.39953
-1.39953
-1.40018
-1.40095
-1.40169
-1.40232
-1.40274
-1.40338
-1.40495
-1.40836
-1.41052
-1.41193
-1.41282
-1.41329
-1.41305
-1.52548
-1.52594
-1.52651
-1.52714
-1.52762
-1.52866
-1.52989
-1.5305
-1.5312
-1.53236
-1.5331
-1.53335
-1.53391
-1.53478
-1.53583
-1.53678
-1.53743
-1.53777
-1.53763
-1.6521
-1.65227
-1.65302
-1.65419
-1.65581
-1.65719
-1.65809
-1.65868
-1.65928
-1.65998
-1.66083
-1.66135
-1.66131
-1.66062
-1.66103
-1.66162
-1.66208
-1.66235
-1.6623
-1.77956
-1.77934
-1.77982
-1.78083
-1.78225
-1.78335
-1.78368
-1.78408
-1.7846
-1.78522
-1.78591
-1.78661
-1.78667
-1.78607
-1.78613
-1.78642
-1.78674
-1.78697
-1.78706
-1.90704
-1.90694
-1.90689
-1.90715
-1.90789
-1.9086
-1.90905
-1.90947
-1.90994
-1.91044
-1.91098
-1.91148
-1.91167
-1.91128
-1.91106
-1.9112
-1.91142
-1.9116
-1.91185
-2.0335
-2.03351
-2.03326
-2.03315
-2.03353
-2.03401
-2.03442
-2.03483
-2.03524
-2.03566
-2.03611
-2.03654
-2.03678
-2.03659
-2.03617
-2.03607
-2.03616
-2.03626
-2.03666
-2.15881
-2.1589
-2.15879
-2.15881
-2.15907
-2.15943
-2.15978
-2.16014
-2.16051
-2.16089
-2.16127
-2.16165
-2.16199
-2.16208
-2.1617
-2.16131
-2.16105
-2.161
-2.1615
-2.28411
-2.28421
-2.28424
-2.28432
-2.28454
-2.28483
-2.28513
-2.28545
-2.28578
-2.28612
-2.28647
-2.28682
-2.28717
-2.28734
-2.28717
-2.2868
-2.28638
-2.28637
-2.28689
-2.40947
-2.40958
-2.40966
-2.40977
-2.40997
-2.41021
-2.41048
-2.41076
-2.41106
-2.41137
-2.41168
-2.41198
-2.41226
-2.41244
-2.41246
-2.41241
-2.41236
-2.41253
-2.41308
-2.53486
-2.53497
-2.53507
-2.53519
-2.53537
-2.53558
-2.53582
-2.53607
-2.53634
-2.53662
-2.5369
-2.53718
-2.53745
-2.53767
-2.53786
-2.53814
-2.53855
-2.53875
-2.5391
-2.66024
-2.66035
-2.66046
-2.66059
-2.66075
-2.66093
-2.66114
-2.66137
-2.66162
-2.66187
-2.66213
-2.6624
-2.66266
-2.66291
-2.66319
-2.66356
-2.66405
-2.66423
-2.66432
-2.78561
-2.78571
-2.78583
-2.78595
-2.7861
-2.78627
-2.78646
-2.78667
-2.78689
-2.78712
-2.78736
-2.78761
-2.78787
-2.78812
-2.7884
-2.78872
-2.78906
-2.78923
-2.78926
-2.91096
-2.91106
-2.91116
-2.91129
-2.91143
-2.91158
-2.91176
-2.91195
-2.91216
-2.91237
-2.91259
-2.91282
-2.91306
-2.91331
-2.91356
-2.91383
-2.91407
-2.91422
-2.91421
-3.0363
-3.03639
-3.03649
-3.03661
-3.03674
-3.03688
-3.03705
-3.03722
-3.03741
-3.03761
-3.03782
-3.03803
-3.03825
-3.03847
-3.0387
-3.03891
-3.03907
-3.03918
-3.03913
-3.16163
-3.16171
-3.16181
-3.16192
-3.16204
-3.16217
-3.16232
-3.16249
-3.16266
-3.16284
-3.16303
-3.16323
-3.16343
-3.16363
-3.16382
-3.16399
-3.16411
-3.16418
-3.16409
-3.28695
-3.28702
-3.28711
-3.28721
-3.28732
-3.28745
-3.28759
-3.28774
-3.2879
-3.28807
-3.28824
-3.28842
-3.28861
-3.28878
-3.28895
-3.2891
-3.28919
-3.28924
-3.28916
-3.41225
-3.41232
-3.4124
-3.41249
-3.4126
-3.41272
-3.41285
-3.41299
-3.41313
-3.41329
-3.41345
-3.41361
-3.41378
-3.41394
-3.41409
-3.41422
-3.41431
-3.41435
-3.41429
-3.53753
-3.5376
-3.53768
-3.53777
-3.53787
-3.53798
-3.5381
-3.53822
-3.53836
-3.5385
-3.53865
-3.5388
-3.53895
-3.53909
-3.53923
-3.53934
-3.53943
-3.53947
-3.53941
-3.66281
-3.66287
-3.66295
-3.66303
-3.66312
-3.66323
-3.66334
-3.66346
-3.66358
-3.66371
-3.66385
-3.66398
-3.66412
-3.66425
-3.66437
-3.66447
-3.66455
-3.66459
-3.66455
-3.78808
-3.78814
-3.7882
-3.78828
-3.78837
-3.78847
-3.78857
-3.78868
-3.7888
-3.78892
-3.78904
-3.78917
-3.78929
-3.7894
-3.7895
-3.78958
-3.78964
-3.78966
-3.78962
-3.91334
-3.91339
-3.91346
-3.91353
-3.91361
-3.9137
-3.9138
-3.9139
-3.91401
-3.91412
-3.91423
-3.91435
-3.91445
-3.91455
-3.91463
-3.91469
-3.91471
-3.91469
-3.91459
-4.03858
-4.03864
-4.0387
-4.03877
-4.03884
-4.03893
-4.03902
-4.03912
-4.03922
-4.03932
-4.03942
-4.03953
-4.03962
-4.03971
-4.03977
-4.0398
-4.03979
-4.03972
-4.03957
-4.16383
-4.16388
-4.16393
-4.164
-4.16407
-4.16415
-4.16424
-4.16433
-4.16442
-4.16452
-4.16461
-4.16471
-4.1648
-4.16487
-4.16492
-4.16494
-4.16491
-4.16483
-4.16465
-4.28906
-4.28911
-4.28916
-4.28923
-4.28929
-4.28937
-4.28945
-4.28953
-4.28962
-4.28971
-4.2898
-4.28989
-4.28997
-4.29004
-4.29009
-4.29011
-4.29007
-4.29
-4.28985
-4.41429
-4.41434
-4.41439
-4.41445
-4.41451
-4.41458
-4.41466
-4.41474
-4.41482
-4.4149
-4.41499
-4.41508
-4.41516
-4.41522
-4.41528
-4.4153
-4.41527
-4.4152
-4.41505
-4.53952
-4.53956
-4.53961
-4.53967
-4.53973
-4.53979
-4.53986
-4.53993
-4.54001
-4.54009
-4.54018
-4.54026
-4.54034
-4.54041
-4.54047
-4.5405
-4.54049
-4.54042
-4.54025
-4.66474
-4.66478
-4.66483
-4.66488
-4.66494
-4.665
-4.66506
-4.66513
-4.6652
-4.66528
-4.66536
-4.66544
-4.66553
-4.6656
-4.66567
-4.66571
-4.66572
-4.66564
-4.66546
-4.78996
-4.79
-4.79004
-4.79009
-4.79014
-4.7902
-4.79026
-4.79032
-4.79039
-4.79046
-4.79054
-4.79062
-4.79071
-4.7908
-4.79087
-4.79094
-4.79096
-4.79088
-4.79069
-4.91517
-4.91521
-4.91525
-4.9153
-4.91534
-4.91539
-4.91545
-4.91551
-4.91557
-4.91564
-4.91572
-4.9158
-4.91589
-4.91598
-4.91608
-4.91616
-4.91619
-4.91611
-4.9159
-5.04039
-5.04042
-5.04046
-5.0405
-5.04054
-5.04059
-5.04063
-5.04069
-5.04074
-5.04081
-5.04088
-5.04097
-5.04106
-5.04116
-5.04127
-5.04137
-5.04142
-5.04131
-5.04104
-5.1656
-5.16563
-5.16567
-5.1657
-5.16574
-5.16577
-5.16581
-5.16586
-5.16591
-5.16597
-5.16604
-5.16612
-5.16621
-5.16633
-5.16646
-5.16659
-5.16667
-5.16655
-5.16623
-5.29082
-5.29084
-5.29087
-5.2909
-5.29093
-5.29096
-5.29099
-5.29103
-5.29107
-5.29112
-5.29118
-5.29126
-5.29135
-5.29147
-5.29162
-5.29181
-5.29197
-5.29187
-5.29154
-5.41603
-5.41605
-5.41607
-5.41609
-5.41611
-5.41614
-5.41616
-5.41619
-5.41622
-5.41626
-5.41631
-5.41637
-5.41645
-5.41657
-5.41674
-5.417
-5.41733
-5.41729
-5.41702
-5.54124
-5.54125
-5.54126
-5.54128
-5.54129
-5.54131
-5.54133
-5.54135
-5.54137
-5.54139
-5.54143
-5.54147
-5.54152
-5.54161
-5.54176
-5.54208
-5.54266
-5.54284
-5.54281
-5.66644
-5.66645
-5.66646
-5.66646
-5.66647
-5.66648
-5.66649
-5.6665
-5.66651
-5.66652
-5.66654
-5.66655
-5.66658
-5.66662
-5.66671
-5.66694
-5.66758
-5.66828
-5.66892
)
;

boundaryField
{
    leftWall
    {
        type            calculated;
        value           nonuniform List<scalar> 
50
(
739.03
680.213
621.428
562.677
503.959
445.274
386.623
328.004
236.419
112.048
24.7552
-0.749313
-0.965348
-1.14799
-1.28889
-1.4142
-1.53903
-1.66375
-1.78849
-1.91327
-2.03809
-2.16296
-2.28786
-2.4128
-2.53775
-2.66276
-2.78782
-2.91287
-3.03794
-3.16303
-3.28812
-3.41322
-3.53837
-3.66354
-3.78872
-3.91388
-4.039
-4.16414
-4.28928
-4.41445
-4.53964
-4.66482
-4.79
-4.91519
-5.04033
-5.16543
-5.29049
-5.41552
-5.54056
-5.66587
)
;
    }
    rightWall
    {
        type            calculated;
        value           nonuniform List<scalar> 
50
(
740.142
681.429
622.9
564.315
505.709
447.139
388.627
330.182
238.943
115.294
26.7098
-0.721892
-0.968945
-1.14731
-1.28847
-1.41305
-1.53763
-1.6623
-1.78706
-1.91185
-2.03666
-2.1615
-2.28689
-2.41308
-2.5391
-2.66432
-2.78926
-2.91421
-3.03913
-3.16409
-3.28916
-3.41429
-3.53941
-3.66455
-3.78962
-3.91459
-4.03957
-4.16465
-4.28985
-4.41505
-4.54025
-4.66546
-4.79069
-4.9159
-5.04104
-5.16623
-5.29154
-5.41702
-5.54281
-5.66892
)
;
    }
    lowerWall
    {
        type            calculated;
        value           nonuniform List<scalar> 
62
(
768.459
768.274
767.956
767.504
766.929
766.241
765.456
764.585
763.647
762.657
761.632
760.589
759.542
758.503
757.478
756.486
755.563
754.745
754.013
753.433
753.124
752.921
752.792
723.366
664.436
605.488
546.527
487.559
428.579
369.573
310.57
281.756
281.815
282.123
282.474
725.723
666.825
608.075
549.44
490.755
431.861
372.699
313.279
755.146
755.616
756.517
757.327
758.196
759.06
759.862
760.799
761.772
762.725
763.619
764.509
765.516
766.805
767.657
768.395
768.92
769.271
769.533
)
;
    }
    atmosphere
    {
        type            calculated;
        value           nonuniform List<scalar> 
46
(
-5.7291
-5.72904
-5.72904
-5.72904
-5.72904
-5.72904
-5.72904
-5.72904
-5.72904
-5.72904
-5.72904
-5.72904
-5.72904
-5.72904
-5.72904
-5.72904
-5.72904
-5.72904
-5.72904
-5.72904
-5.72904
-5.72904
-5.72904
-5.72904
-5.72904
-5.72904
-5.72904
-5.72905
-5.72905
-5.72906
-5.72906
-5.72907
-5.72907
-5.72908
-5.72908
-5.72909
-5.7291
-5.7291
-5.72911
-5.72911
-5.72911
-5.72911
-5.72911
-5.7291
-5.72907
-5.73297
)
;
    }
    defaultFaces
    {
        type            empty;
    }
}


// ************************************************************************* //
