/*--------------------------------*- C++ -*----------------------------------*\
  =========                 |
  \\      /  F ield         | OpenFOAM: The Open Source CFD Toolbox
   \\    /   O peration     | Website:  https://openfoam.org
    \\  /    A nd           | Version:  9
     \\/     M anipulation  |
\*---------------------------------------------------------------------------*/
FoamFile
{
    format      ascii;
    class       surfaceScalarField;
    location    "20";
    object      phi;
}
// * * * * * * * * * * * * * * * * * * * * * * * * * * * * * * * * * * * * * //

dimensions      [0 3 -1 0 0 0 0];

internalField   nonuniform List<scalar> 
1300
(
11.2529
1.87548
-4.21037
11.2529
-4.96698
1.87548
-4.22753
4.22753
-1.18835
1.18835
5.71231
5.54055
-2.36983
2.36983
-2.81867
2.81867
-2.86053
2.86053
-1.06194
1.06194
-1.02826
1.02826
0.693395
-0.693395
-3.40355
3.40355
-1.45687
1.45687
-2.89676
2.89676
6.1281
-6.1281
-3.26336
3.26336
-0.744324
0.744324
-4.26321
15.5161
6.98965
6.98965
-2.3717
2.3717
-1.254
1.254
1.41034
-1.41034
9.12323
-9.12323
-4.91286
-5.92976
1.89751
-13.9691
-3.06946
-3.06946
-2.7054
2.7054
-0.829928
1.04555
3.47672
-3.47672
-0.758729
0.758729
-4.31426
0.086727
-4.31426
4.01035
0.217183
4.01035
-1.32967
0.141313
-1.32967
4.67088
-4.67088
1.07666
0.111697
1.07666
3.92807
-3.92807
-5.71006
11.4224
5.5428
-5.32064
20.8367
-5.93222
11.4728
-3.91815
3.91815
-2.28589
-0.0839315
-2.28589
2.37139
-0.00156529
2.37139
-4.00802
4.00802
-2.6065
-0.212172
-2.6065
2.92147
-0.102799
2.92147
3.66604
-3.66604
-2.91649
0.0559662
-2.91649
2.70888
0.151646
2.70888
0.771042
1.10443
-2.64652
3.69207
-1.10443
0.0424987
1.02614
0.0357986
1.02614
-1.01454
-0.0137265
-1.01454
1.04985
-0.0215836
1.04985
0.730722
-0.0373275
0.730722
-0.754957
0.0615625
-0.754957
-8.57688
-8.98298
-3.53189
0.128341
-3.53189
-1.47481
0.0179431
-1.47481
1.49311
-0.0362454
1.49311
-2.5385
2.5385
-3.23662
0.339864
-3.23662
4.80636
1.32174
4.80636
5.04612
6.20674
16.299
-16.299
10.1709
-2.97868
-0.28468
-2.97868
-3.4341
-5.68914
3.4341
-0.170735
-0.806178
0.0618539
-0.806178
5.62658
1.36307
5.62658
2.58676
0.122124
-2.58676
0.215063
4.62467
-4.62467
1.42365
0.948049
1.42365
-1.19152
1.19152
1.12338
-0.073538
-1.12338
-0.130618
1.38601
0.024332
1.38601
-1.40975
-0.00059574
-1.40975
7.32776
-13.2575
-7.81131
3.21177
0.191782
-3.21177
0.142309
3.56342
-0.0867026
3.56342
-3.30978
3.30978
-3.61092
0.134204
-3.61092
-0.683493
-0.0752362
-0.683493
0.84396
-0.0852313
0.84396
-4.56425
0.249994
-4.56425
-3.67543
0.438804
3.67543
0.334923
1.25445
-1.25445
-1.43742
0.107757
-1.43742
-4.64993
0.0856735
4.64993
0.0209546
-4.76642
0.0955347
-4.76642
-3.71248
0.101557
3.71248
0.215593
4.58933
1.03725
-4.58933
0.661259
-5.36948
11.5762
-5.88338
11.4262
-3.53439
-0.383756
-3.53439
4.10925
-0.191099
4.10925
2.56012
0.336635
-2.56012
0.274229
2.4989
-0.127506
2.4989
-3.95551
-0.0525133
-3.95551
3.80841
0.19961
3.80841
2.54022
-0.0413216
-2.54022
-0.0662806
2.89967
0.0217997
2.89967
3.67189
-0.00585375
3.67189
-3.53916
-0.12687
-3.53916
3.17913
-3.17913
3.08081
0.0983166
-3.08081
0.16432
-5.07402
5.07343
-0.00799943
-5.06602
1.01814
1.01814
0.77005
-0.0393278
0.77005
-0.86178
0.106823
-0.86178
8.33563
-16.1469
8.80714
-17.384
7.5212
-21.4903
8.07031
-17.0533
3.82173
-3.82173
3.75234
0.0693819
-3.75234
0.22045
-1.45656
-0.0182468
-1.45656
-2.29962
-0.238884
-2.29962
2.87325
-0.334747
2.87325
-3.74214
3.74214
-4.12481
0.382667
4.12481
0.681558
2.9641
-0.064433
-2.9641
-0.0145796
0.924872
0.151784
-0.924872
0.118694
4.8613
-0.236632
4.8613
-4.08416
-0.540506
-4.08416
-1.47537
0.0188072
1.47537
-0.0517247
-1.25894
0.0674172
-1.25894
-5.0745
0.00847757
-5.0387
-1.40127
-1.40127
1.30414
4.9962
-3.58546
0.0462979
3.58546
-0.0220417
3.52712
0.215022
-3.52712
0.217335
-3.2634
0.0842704
3.2634
0.0463792
-0.66089
-0.0226025
-0.66089
-1.03759
1.03759
-0.919896
-0.117697
0.919896
-0.0759356
1.41079
-0.156334
1.41079
1.47131
0.0218007
-1.47131
0.0338899
-5.00683
0.240412
-5.00683
4.11817
-0.00892167
4.11817
-3.94834
-0.135822
3.94834
-0.27645
-0.00372289
5.07715
-1.01441
-0.000120404
1.01441
-5.10148
5.10136
-0.666196
0.00530565
0.666196
0.103855
1.02964
0.161884
-1.02964
0.167859
3.84668
-0.0382691
-3.84668
0.0249538
-2.01651
-0.283114
-2.01651
-3.20223
-0.332167
3.20223
-0.328977
-5.11518
-0.0779418
5.19312
-5.13676
1.33688
0.0491268
-1.33688
5.15049
-1.1472
-0.107246
1.1472
-0.109612
1.61052
-0.199734
1.61052
5.11758
-0.256284
-5.11758
0.110756
-4.13253
0.177026
4.13253
-0.0143625
-1.78292
-0.233581
1.78293
-0.172406
-13.128
14.4911
7.70866
-6.29476
-6.96276
-11.9839
4.44711
7.12911
14.618
-11.7602
-9.73012
-11.6179
2.86007
-2.69221
-3.72965
3.69232
23.5756
-23.4801
-18.3992
19.0808
20.777
-20.5614
5.70884
5.71352
15.7891
-15.8731
-20.9835
20.5997
15.3692
-15.5814
22.0961
-22.1486
-25.8264
25.7881
-16.0942
16.1502
-20.2933
20.1665
-21.0557
20.7792
-8.3144
-9.06962
16.4736
-16.3453
20.053
-20.3377
-19.3054
19.6453
10.0475
4.4436
11.0848
-6.24674
11.9556
-5.22604
12.9347
8.33061
-16.645
7.81633
-14.7791
9.09003
10.963
-8.91929
-3.06461
-17.9696
17.8829
-17.2573
17.3037
24.0777
-23.991
-6.17283
11.8864
-5.25335
12.3825
-11.409
-6.99023
10.0873
4.53072
8.95278
7.52086
-9.14456
-2.47333
-24.7918
24.5355
-25.656
25.1155
0.100001
2.42606
-2.52606
1.354
-0.862453
3.28851
1.99761
2.10443
2.45269
-2.29081
0.239513
-2.76557
-2.89619
-5.34522
5.45297
5.16272
-5.05102
16.5283
7.04737
16.5492
-16.7402
-6.73988
-16.4998
11.3638
7.71703
11.7464
12.0616
8.71538
12.1631
10.359
-10.3317
-0.0273636
-11.4776
21.8367
1.55467
-18.4679
-13.9371
8.81201
6.97714
8.81045
-9.84779
-6.02529
-9.57356
-11.0659
-9.91761
-11.3981
12.3732
8.22651
12.1821
-15.3643
15.3499
9.27408
6.09516
9.17128
-8.9466
-6.63482
-9.01288
27.4798
-6.65155
-20.8282
-13.2041
-12.6223
13.0045
9.09161
14.3382
11.4499
14.3632
8.90207
18.5777
-17.9937
5.37135
-9.94768
-6.14656
-9.78336
9.25926
6.89094
9.41091
-11.7663
-8.52699
-11.72
-11.9861
-9.06961
11.9919
8.17452
-12.5328
-13.1232
12.6686
8.11062
7.84902
-17.5791
9.20427
-18.2739
-10.9452
-5.40005
-10.7248
10.8125
6.64002
-17.4525
-5.83251
23.6762
-12.7132
20.6116
-10.9241
-9.41363
-10.9387
-14.7456
-4.55985
-14.3068
-8.02675
7.74363
-8.86527
8.53053
26.9173
-16.2404
-10.6769
-12.3783
-8.18303
11.7171
-0.632312
-12.8358
12.8084
-0.880212
12.0545
16.4981
15.8658
-10.8804
-6.37695
-10.663
10.2705
7.03317
10.3548
16.0587
8.01903
16.2758
-16.7885
-7.20242
-16.5385
4.85217
-4.9274
5.71567
-5.69686
15.5757
9.53977
-15.3391
-9.45274
22.9343
-10.776
-12.1583
-5.12046
5.21752
-0.0970578
-1.83195
-0.477944
0.266381
-1.9315
-1.79815
1.86993
0.234501
5.45202
3.65386
-2.41435
2.48177
2.77877
2.70523
-0.190962
2.50328
-2.49797
18.9258
-11.4509
-7.4749
13.9505
-13.8648
-2.58804
-19.3158
16.7278
2.68437
3.00752
-2.94567
-3.95136
-1.39386
-3.91747
2.95553
2.20719
3.10731
2.10862
3.34435
-8.11157
1.56536
6.54621
-6.00295
-3.48566
-13.3482
-6.27724
19.6254
16.6713
7.8642
-16.7821
0.28229
5.2961
-5.33235
-1.59362
-11.7546
8.3592
-9.95282
-15.2229
-6.45879
21.6816
-9.58085
-1.08218
9.36583
2.3806
-10.8772
-7.09246
10.7429
1.42019
-12.0644
23.9708
-11.9064
-18.4414
8.51583
13.3208
16.2329
-17.8628
9.3188
8.54398
-4.54194
7.40741
1.40303
7.27991
-19.8697
13.8444
11.2719
8.37336
-11.6086
2.03501
-17.8347
25.1556
-22.2689
-2.88676
12.8139
12.3417
13.5868
13.3305
-7.81667
21.4035
-3.61096
-18.6579
21.4457
-13.0723
15.7726
-28.8449
-29.1031
10.4452
-18.0011
22.1039
-4.10277
-5.21147
-10.1528
23.2126
-2.0204
-21.1922
10.1617
-13.9314
-11.8216
25.753
-20.583
18.4564
-6.27185
-12.1845
-12.7012
-9.44739
12.5242
2.82576
-25.8394
31.2108
-7.26173
7.81272
1.35856
7.83452
10.6184
-15.9644
5.34597
9.96457
-16.2364
6.77402
-22.7384
-12.1633
24.1655
-12.0022
-17.5634
-15.7996
-1.7638
4.85408
26.3567
-16.304
12.0918
4.21218
8.46218
1.89261
-8.5605
-1.22286
0.968743
16.0882
-17.0569
10.3797
10.5018
11.7072
4.38103
10.7699
7.11299
-10.7479
-0.972165
-14.7921
5.72246
-6.61755
-14.5727
20.2952
-16.2676
1.6949
-10.3031
-13.9914
24.2945
-16.4497
11.4258
12.5451
18.459
-19.615
5.62368
-9.74676
-9.86827
10.644
-17.2615
7.49724
12.798
15.6079
2.48467
12.7563
11.4092
-19.3963
1.12244
18.93
-16.4567
3.90235
10.4608
-15.9941
0.19457
-10.5302
2.63921
-15.3524
-14.8133
16.5086
-21.0684
-12.3364
13.5197
2.75609
-13.8547
-0.452104
-4.97603
-3.05071
-5.20961
-3.29351
-5.57176
-11.1102
-1.93299
-9.1772
5.81064
-6.71989
-4.67817
7.04887
1.48166
-4.95284
4.8456
-5.60289
5.40315
-0.210204
13.0186
15.6556
7.47254
-8.47668
15.9492
-15.5869
23.606
-29.7172
14.1302
15.9519
-23.1544
-13.7652
2.70782
2.14435
2.62259
13.4895
-14.4438
0.954297
-13.3108
17.6499
-4.33912
-19.6361
6.32533
-6.14665
5.18895
0.526724
5.1707
1.41717
6.84751
-8.26468
-4.27969
-4.33141
-9.16156
-13.8589
23.0205
4.73916
-13.1065
8.36734
-12.0667
16.8058
0.0809659
-13.1875
16.9896
-10.1421
17.5163
-11.9857
5.53061
12.7922
22.349
-9.55684
16.2465
-6.70672
7.06517
-16.622
-6.79376
-11.2893
18.1802
-13.0052
14.7001
-1.1233
15.8234
-13.7795
3.00356
-2.07235
8.42942
8.64448
16.809
-12.428
11.9713
-18.678
-4.65069
-16.1934
-3.39541
1.03237
-13.8443
12.8119
12.0749
-11.0425
-3.24717
9.00471
-5.75755
5.6939
-2.85244
-2.84146
-1.85017
-3.07723
1.87277
0.630504
6.3244
0.490685
-3.34312
-2.00729
-1.90343
10.3818
8.54409
-3.83748
3.74043
3.5711
-0.563585
0.959676
2.14764
4.59369
-3.63401
0.679335
3.91435
-2.26633
3.83025
1.46585
-3.85205
-0.0654154
-3.40941
11.7686
3.1368
-5.344
1.70998
2.37652
-13.8275
19.7445
-11.4221
-8.32244
22.121
3.05574
-14.4778
16.2601
-13.5757
8.09773
-14.375
-6.38006
-19.9558
-12.9084
-10.7124
19.0797
-12.3081
20.1723
3.85689
-20.4546
24.3115
-12.7437
6.28492
-9.449
10.9149
-4.0621
-5.3869
11.2711
10.4106
-11.0558
-0.698772
0.215271
8.42626
-8.21099
-1.52657
-7.52952
-16.4088
17.829
-8.25584
17.5746
7.69339
-7.63389
25.2085
6.5651
-14.199
-11.8763
-12.9585
-5.655
10.5779
-1.79981
-7.21307
-13.9843
7.2544
0.0255101
-19.0211
22.0182
-2.99714
-12.0439
-1.80052
14.6144
-18.0802
1.84379
-11.3062
10.712
12.1151
12.1406
-20.8896
-0.302599
-12.6631
3.18477
-15.8479
15.5265
-6.81774
17.263
-16.0674
11.3892
-14.5858
14.3762
-1.47164
14.748
-9.40201
6.08025
-15.5276
-12.7019
14.46
-8.36487
15.8186
-10.1264
25.945
-17.3881
14.4213
11.5237
-2.72764
-8.21102
-13.9804
11.2528
0.440929
8.27545
17.8369
-10.7239
16.8648
8.92375
-18.6705
-8.33777
-25.8597
7.18922
-13.3147
-7.35641
14.5456
11.1026
12.9952
4.67736
-11.7723
17.7938
-19.5576
-5.79164
-9.02167
14.5958
-3.34304
10.1702
-19.1919
-5.18217
13.1182
-0.177945
-12.9403
3.12222
-15.4586
5.11669
-20.5753
15.9518
-16.4039
1.7769
-7.92356
-3.17594
-3.28555
-2.18182
-3.42107
-7.59353
5.41171
-1.26819
3.5774
-12.5519
12.3739
-5.09804
10.5097
-4.07475
-1.13486
4.24715
1.156
11.6657
3.0377
-16.8029
-9.27326
14.6442
-5.37092
1.1085
-10.8066
3.83761
8.09141
14.0296
-24.8192
1.66484
-15.1381
-4.08176
6.22611
4.92296
16.9978
2.55404
6.56876
-0.342654
9.1228
2.27993
2.204
-11.2408
12.1951
1.57109
15.7013
-1.88341
7.41402
3.28729
3.30523
2.02712
5.72379
2.92069
8.72735
0.462674
-3.86874
2.06985
-3.97328
-1.27328
-4.01261
-0.320285
3.72895
-4.04923
10.5113
-1.96723
5.14039
-1.88935
-4.94064
6.82999
-9.36426
-5.50423
-1.58987
-5.61451
7.3245
6.1541
-5.73463
-3.62963
2.39667
-15.3051
11.9783
-12.6771
-2.26651
22.045
-9.46783
1.25684
-3.1829
-6.27268
-7.66653
7.73195
24.19
1.01854
12.2836
18.8475
11.755
1.03112
12.0042
-16.107
-10.7342
-16.4096
-0.883108
13.7313
5.63885
20.7179
17.1625
13.8195
-5.37244
-24.93
20.7517
-8.55654
16.4125
-3.47227
-17.103
14.6216
8.98433
-17.3777
0.973861
-16.1291
-24.6857
-0.338953
12.7129
-11.3268
10.1919
7.14121
2.03598
-2.43244
-0.853107
2.55014
-0.346142
8.77666
-0.18684
-8.20782
8.39466
-3.54211
2.26883
-0.434822
4.17525
6.39517
4.42795
-3.77988
-7.82911
-8.82744
-5.00002
-17.1499
2.47556
-8.62965
5.69139
-3.42256
2.84993
4.97211
10.1125
-1.60044
-9.44206
7.35798
-4.50805
5.60445
)
;

boundaryField
{
    wall-4
    {
        type            calculated;
        value           uniform 0;
    }
    velocity-inlet-5
    {
        type            calculated;
        value           uniform -11.2529;
    }
    velocity-inlet-6
    {
        type            calculated;
        value           uniform -1.87548;
    }
    pressure-outlet-7
    {
        type            calculated;
        value           nonuniform List<scalar> 8(4.21037 4.96698 10.8426 12.0716 17.5599 15.1391 17.1428 15.5915);
    }
    wall-8
    {
        type            calculated;
        value           uniform 0;
    }
    frontAndBackPlanes
    {
        type            empty;
        value           nonuniform List<scalar> 0();
    }
}


// ************************************************************************* //
