/*--------------------------------*- C++ -*----------------------------------*\
  =========                 |
  \\      /  F ield         | OpenFOAM: The Open Source CFD Toolbox
   \\    /   O peration     | Website:  https://openfoam.org
    \\  /    A nd           | Version:  9
     \\/     M anipulation  |
\*---------------------------------------------------------------------------*/
FoamFile
{
    format      ascii;
    class       volVectorField;
    location    "20";
    object      U;
}
// * * * * * * * * * * * * * * * * * * * * * * * * * * * * * * * * * * * * * //

dimensions      [0 1 -1 0 0 0 0];

internalField   nonuniform List<vector> 
918
(
(2.47629 -0.138943 0)
(0.108704 0.722546 0)
(0.172248 1.0649 0)
(2.31834 0.153728 0)
(-0.059761 1.26004 -1.21403e-19)
(-0.0924034 0.643931 -5.31499e-18)
(0.528235 0.846468 -2.96255e-19)
(0.274487 0.152951 -2.98877e-20)
(3.00615 -0.0195611 0)
(-0.00826379 0.475616 0)
(-0.0174137 0.58949 0)
(0.605287 0.00675738 0)
(0.0107054 0.439105 0)
(-0.00288294 0.421689 0)
(0.01349 0.340951 -1.30568e-18)
(-0.00513875 0.765158 -9.18836e-20)
(0.312526 0.074293 2.15206e-18)
(0.0793446 0.639751 -2.23833e-19)
(1.52885 0.128628 0)
(-0.0272809 0.688823 0)
(0.194733 0.157802 -1.26595e-18)
(3.08302 -0.397374 0)
(2.92445 -0.505981 0)
(1.86116 -0.1811 0)
(0.511505 0.040088 0)
(-0.0253681 0.521556 0)
(-0.00135315 0.494038 1.86287e-18)
(-0.0235501 1.41105 0)
(0.0726826 2.9033 0)
(0.168094 1.7506 0)
(-0.0408183 3.14583 0)
(0.0262378 1.62781 9.33457e-20)
(0.022691 0.682027 0)
(-0.147425 0.775094 -2.03133e-22)
(-0.193914 1.0291 4.42221e-18)
(-0.0415772 1.04471 0)
(0.744557 -0.00600771 0)
(0.161333 0.24678 6.65915e-19)
(0.990355 1.50798 6.54108e-19)
(0.647926 0.781725 -5.16917e-19)
(0.795926 1.56893 6.22169e-20)
(0.415162 0.847728 -3.2131e-19)
(0.552715 0.306784 2.93941e-20)
(0.297135 0.153724 0)
(0.96154 0.565554 0)
(0.533054 0.304172 1.32034e-19)
(0.258165 0.162895 -1.35486e-19)
(0.871589 -0.0554799 0)
(3.02784 -0.00170559 0)
(3.00685 0.0178652 0)
(3.20086 -0.417734 0)
(3.04288 -0.0742126 0)
(3.03116 -0.0388412 0)
(0.0185633 0.90741 -1.14696e-18)
(-0.054176 0.970937 0)
(0.00272113 0.453447 0)
(-0.028918 0.978141 0)
(-0.0114426 0.47994 0)
(-0.0015917 0.871189 0)
(-0.0522602 1.11044 0)
(-0.0127321 0.54131 0)
(-0.0256133 1.16289 0)
(-0.00616787 0.622327 0)
(0.790396 0.0116121 0)
(1.16955 -0.00157299 0)
(0.618306 0.0123651 0)
(1.12595 0.017596 0)
(0.569846 0.00867326 0)
(0.225406 0.921982 1.96021e-18)
(0.0985379 1.2081 0)
(0.176302 1.06604 0)
(0.0331901 0.755774 2.19981e-23)
(0.0372233 0.498055 -2.93166e-18)
(0.0194616 0.747943 0)
(0.0059542 0.422033 0)
(-0.000695791 0.734549 4.51866e-24)
(0.00070236 0.414825 0)
(-0.0169223 0.743182 0)
(-0.0129389 0.427983 0)
(0.0495818 0.650365 0)
(0.0485723 0.458591 0)
(0.00807048 0.62212 1.23449e-18)
(0.000776428 0.344939 0)
(-0.0753442 4.68614 0)
(0.00824144 1.45244 9.12213e-20)
(-0.0106689 0.782952 -1.1748e-19)
(0.636377 0.152212 -7.50912e-19)
(0.321733 0.0657006 -7.28663e-19)
(0.645122 0.169808 -2.25457e-18)
(0.317675 0.0956128 -1.45154e-18)
(0.0790128 0.62156 0)
(0.1775 1.30813 1.85726e-19)
(0.17884 0.726971 -2.96342e-19)
(2.06031 0.260944 0)
(1.10704 0.118448 0)
(3.03313 0.103886 0)
(3.10392 0.446058 0)
(2.83919 0.377458 -1.01269e-17)
(2.57811 0.361309 7.7705e-18)
(-0.0713287 1.26865 0)
(-0.0116078 0.625669 0)
(-0.0155539 1.91393 0)
(-0.0514752 1.35454 0)
(-0.0486639 0.683261 0)
(0.44066 0.295904 4.00786e-19)
(0.225615 0.163479 0)
(2.29609 -0.266395 0)
(1.32372 -0.119274 0)
(1.07652 0.0126546 0)
(1.01222 0.0187562 0)
(0.541027 0.0108383 0)
(1.01954 0.0563495 0)
(0.821429 0.0703459 0)
(0.343704 0.028701 3.36266e-18)
(-0.00543783 0.451593 1.77406e-18)
(-0.0270366 0.784635 0)
(-0.0473359 0.847533 0)
(-0.0152778 0.460447 0)
(0.000132403 0.839725 1.81643e-18)
(7.29108e-05 0.48753 0)
(-0.00547891 0.845554 -5.59169e-18)
(-0.00488634 0.496761 1.88679e-18)
(0.0504889 3.58412 0)
(0.0379068 4.04072 0)
(-0.016635 1.40347 -2.05181e-21)
(-0.0137873 1.35498 0)
(-0.0100291 0.737363 0)
(1.41013 0.0348768 0)
(0.760518 0.0154329 0)
(0.709534 0.0142622 0)
(1.41615 -0.0328527 0)
(0.7735 -0.0087428 0)
(0.322745 0.48132 -8.36087e-19)
(0.157094 0.233119 0)
(0.32571 0.51031 9.37054e-20)
(0.163734 0.26901 0)
(1.23762 1.38238 1.66726e-19)
(0.776869 0.738735 -3.92939e-19)
(0.410016 1.41585 0)
(0.604511 1.52752 0)
(0.302188 0.81128 0)
(0.145855 0.354538 -4.43346e-19)
(0.607722 0.280898 0)
(0.313668 0.134696 3.98836e-19)
(1.42443 1.30326 0)
(1.58415 1.16611 0)
(0.87332 0.662403 4.62155e-19)
(1.73167 0.951554 0)
(1.06734 0.438129 2.31928e-20)
(1.47295 0.00813369 0)
(1.50098 -0.0292421 0)
(0.801886 -0.00441825 0)
(1.95042 -0.199781 0)
(1.65081 -0.148182 0)
(1.05215 -0.0889708 0)
(3.06126 0.164852 0)
(3.03105 0.0687866 0)
(3.01022 0.0531588 0)
(0.0353544 1.61372 6.08622e-19)
(0.0177882 0.831542 0)
(0.0178797 1.70449 1.08033e-18)
(0.00293613 0.943221 -9.71185e-19)
(0.0644385 1.14738 1.88535e-19)
(0.0475854 0.985129 0)
(0.03996 0.526623 0)
(-0.0287725 1.00256 0)
(-0.00710875 0.516207 0)
(0.0174758 1.61885 -4.42832e-21)
(-0.018517 0.868115 0)
(-0.0541652 1.58626 -2.25455e-19)
(-0.0164574 0.82164 4.36583e-19)
(-0.00205015 1.02754 0)
(0.00995467 1.04253 0)
(-0.000146272 0.53058 0)
(0.0101745 1.17264 0)
(0.000577816 0.61356 0)
(1.46813 -0.00373403 0)
(0.789107 0.00804413 0)
(1.44042 0.0331509 0)
(0.761733 -0.000563778 0)
(0.675419 0.00533965 0)
(1.26204 0.0166735 0)
(1.20249 0.0473033 0)
(0.659739 0.0155506 0)
(-0.00580053 1.42077 -1.70249e-20)
(0.000184314 1.37708 0)
(0.00482011 0.732923 0)
(0.00172892 0.417221 0)
(0.284922 0.829682 0)
(0.254013 0.400261 -2.87221e-19)
(-0.00219507 0.635441 0)
(-0.00888669 0.367604 0)
(0.00469336 4.34762 0)
(-0.0559619 4.6629 0)
(-0.0258538 4.57119 0)
(-0.0754317 3.35114 2.04763e-20)
(-0.065814 4.5935 0)
(-0.0579099 4.16527 0)
(0.00442094 0.817825 1.07376e-20)
(0.0137858 1.55951 1.65124e-19)
(-0.0360251 1.49884 1.20703e-19)
(-0.00775724 0.823952 0)
(0.664693 0.105747 1.15321e-18)
(0.325791 0.0441694 -1.13017e-18)
(0.150499 1.13923 0)
(0.101543 0.576167 -2.69666e-19)
(0.119081 1.23991 -8.75698e-19)
(0.0522657 0.690933 8.71193e-19)
(0.809212 0.0240611 0)
(1.55679 0.0476756 0)
(1.70971 0.12765 0)
(0.919851 0.0445213 0)
(0.0073381 1.18514 0)
(0.0253504 1.19438 0)
(0.00417272 0.629716 0)
(0.482558 0.315373 1.20381e-18)
(0.437241 0.309384 -1.38697e-18)
(0.234947 0.164302 0)
(1.93476 0.152816 1.15226e-19)
(1.13592 0.0931452 0)
(1.72386 0.118372 0)
(0.883506 0.0226619 0)
(0.678402 0.0857539 0)
(0.699914 0.0460713 -5.40704e-18)
(0.346817 0.0325993 1.99885e-18)
(0.00914209 0.807276 1.69417e-18)
(0.00222114 0.462507 4.08157e-20)
(-0.0108777 1.40842 -3.58088e-20)
(0.00613616 1.38675 1.36618e-18)
(-0.0149832 0.848955 6.29584e-20)
(-0.0119261 0.524486 -2.52964e-22)
(-0.107514 1.00068 -1.16513e-18)
(-0.0529602 1.3532 8.34174e-19)
(-0.0175323 1.35275 -1.35807e-18)
(1.42264 -0.0170947 0)
(1.44229 0.0203065 0)
(0.769827 -0.000185175 0)
(1.4522 0.0253795 0)
(1.36323 0.0462268 0)
(0.761556 0.0203046 0)
(1.30068 -0.00215973 0)
(1.31872 -0.00585539 0)
(0.695083 -0.000991138 0)
(0.305421 0.474281 -9.15595e-19)
(0.161634 0.243078 0)
(0.157604 0.309208 1.37063e-19)
(0.31047 0.587436 1.12307e-18)
(0.308172 0.549909 -6.64844e-19)
(0.157208 0.282535 1.29915e-18)
(0.279538 0.720313 2.18406e-18)
(0.14885 0.382179 3.94143e-19)
(0.636434 0.213224 1.53746e-18)
(0.626363 0.253759 3.9932e-19)
(0.31676 0.115093 7.49282e-19)
(1.9194 0.713584 -5.99812e-19)
(1.1667 0.335676 -7.01988e-19)
(-0.0355011 1.71091 4.64303e-19)
(-0.0117389 0.928949 0)
(1.60354 0.0238824 0)
(1.52166 0.0653359 0)
(0.85278 0.0268297 0)
(-0.00355884 1.38473 0)
(0.00507412 0.729574 2.49576e-18)
(0.00465033 0.731252 0)
(0.00207077 0.415097 -2.44278e-18)
(-0.0102753 1.38627 5.95811e-19)
(-0.00947275 1.4225 0)
(0.337135 0.488959 2.58049e-19)
(0.360611 0.547229 -8.6329e-19)
(0.172114 0.258209 7.81394e-19)
(-0.0256748 0.767449 -1.66313e-18)
(-0.0261493 0.689717 0)
(-0.0154346 0.412923 0)
(0.0296226 1.54832 -1.27695e-20)
(0.0307972 1.57929 -3.64123e-19)
(0.0175829 0.822322 -1.55664e-20)
(0.214544 1.04902 8.91359e-19)
(0.120244 0.511241 -5.93154e-19)
(0.0118596 1.49287 7.31488e-19)
(0.056129 1.35831 -8.1651e-19)
(0.0269313 0.764539 3.54367e-20)
(0.00751037 1.36614 -3.80862e-18)
(-0.000217413 1.39326 4.4106e-18)
(0.00377302 0.829776 1.73338e-18)
(-0.0138306 0.805092 -1.72587e-18)
(-0.00430948 0.481399 -1.73902e-18)
(-0.0106517 1.41685 -4.50097e-18)
(-0.0152187 1.40032 4.59019e-18)
(0.287387 0.677017 0)
(0.300731 0.636496 -2.28983e-18)
(0.152429 0.332676 9.91299e-19)
(0.282472 0.799079 1.1866e-18)
(0.139433 0.429199 -1.83088e-18)
(2.05591 0.322227 4.1581e-19)
(2.05007 0.547061 0)
(1.2179 0.220753 -4.01789e-19)
(-0.0743927 1.64024 -4.79845e-21)
(-0.0147972 1.69699 0)
(-0.0160343 0.925249 0)
(0.228137 0.948708 -3.23226e-19)
(0.249358 0.870197 -7.07872e-19)
(0.129392 0.465214 1.32655e-18)
(3.16442 -0.442874 0)
(3.34728 -0.414687 1.81265e-18)
(0.0580033 3.49861 0)
(0.0462849 2.82336 0)
(3.15926 0.249913 1.41921e-20)
(3.12355 0.506293 3.7118e-18)
(0.0199235 3.41726 -2.74806e-20)
(0.00800553 2.65062 0)
(-0.041622 1.19605 1.55551e-18)
(0.19053 1.31711 0)
(3.47006 1.62308 -3.24794e-19)
(3.17428 0.272567 -2.96094e-20)
(3.14837 -0.118705 0)
(3.10047 -0.000406648 3.72792e-22)
(0.0430245 2.57973 0)
(0.157725 3.31545 0)
(-0.0564635 2.53088 0)
(-0.0253582 3.49595 3.15653e-19)
(-0.0277892 3.57183 1.99193e-19)
(2.63366 0.0487776 -1.36468e-20)
(3.04733 0.0310903 0)
(3.15759 0.0867323 0)
(-0.0584459 4.61688 0)
(-0.0483202 3.07496 0)
(-0.0745735 2.94388 0)
(0.649967 3.09298 2.66253e-19)
(3.33884 -0.422462 0)
(3.0114 -0.345812 0)
(3.1699 -0.0530401 2.277e-18)
(3.2927 -0.328702 -2.74177e-18)
(3.1038 -0.125778 0)
(-0.0646553 4.51903 0)
(0.0105684 3.94704 0)
(0.00163879 4.27425 0)
(-0.0298655 3.10557 0)
(-0.0157353 2.86452 0)
(-0.0325301 2.43714 0)
(2.97417 -0.00319054 0)
(2.85048 0.04861 -1.80489e-20)
(2.24251 3.04195 -3.2218e-19)
(3.15695 0.0444521 -2.27807e-18)
(3.19037 0.278177 2.76912e-18)
(3.0828 0.117336 0)
(3.3954 0.328918 2.08709e-18)
(3.35696 0.484363 -2.70632e-18)
(3.07111 0.418427 0)
(-0.0574127 3.33708 0)
(0.0034347 3.26325 8.5264e-20)
(-0.031649 2.56419 -6.03923e-20)
(3.70681 0.554766 2.26536e-18)
(3.47039 0.208253 0)
(-0.151906 1.27128 -2.16663e-18)
(-0.0623341 0.88216 -1.3508e-19)
(-0.0846566 1.33682 2.98658e-18)
(-0.0351345 1.27051 -8.99909e-19)
(-0.000392931 1.0885 0)
(-0.0266719 1.23954 6.95076e-19)
(-0.11503 1.38787 2.14724e-18)
(-0.0590316 1.34056 -1.31455e-18)
(-0.0767533 1.32063 0)
(1.29044 0.597641 0)
(1.1786 0.683008 0)
(3.55453 2.02707 9.53678e-19)
(3.04653 1.93308 -1.19081e-18)
(3.83633 1.70479 0)
(3.38184 1.15557 0)
(3.34935 0.280486 -3.91644e-18)
(2.89885 0.173114 4.83929e-18)
(3.35143 -0.155491 0)
(2.85476 -0.0761443 0)
(3.43642 0.0430161 0)
(3.59381 0.145046 0)
(3.28683 0.119869 0)
(3.55033 0.298572 0)
(3.40841 0.293054 0)
(3.32755 0.218068 0)
(0.0963806 2.78116 0)
(0.0340957 2.07155 0)
(0.125041 3.04058 0)
(0.0917869 2.19597 0)
(0.214816 3.60813 0)
(0.140565 2.68747 -5.59158e-19)
(0.0525842 3.62455 0)
(0.0111118 3.02911 4.05823e-19)
(-0.0258483 3.21448 -5.16917e-19)
(-0.0612515 2.79676 0)
(-0.024063 2.20081 0)
(-0.0742772 2.90224 0)
(-0.0562848 2.04589 0)
(-0.111767 4.75119 -2.45366e-19)
(-0.0830149 3.94384 2.77106e-19)
(-0.0770989 3.80801 3.08847e-19)
(-0.05386 3.02198 0)
(-0.107667 3.80465 -4.58457e-19)
(-0.0391173 3.21509 -2.94844e-19)
(-0.0862972 4.78327 1.9245e-19)
(-0.0986593 4.46689 -3.50256e-19)
(-0.0729209 4.33834 -3.78657e-19)
(3.03155 0.0883105 3.35821e-18)
(2.28976 0.0321605 -4.22929e-18)
(2.89158 0.132771 -3.32714e-18)
(2.20988 0.0734562 4.15579e-18)
(3.36845 0.0276473 0)
(2.64293 -0.00267368 0)
(3.45392 0.09122 0)
(3.32006 0.0192067 0)
(2.7064 0.00917872 0)
(3.67991 0.239359 0)
(3.43852 0.0958366 0)
(2.86319 0.0564162 0)
(-0.0277753 4.32251 -1.20537e-20)
(-0.0618014 4.64998 0)
(-0.0672853 4.53981 0)
(-0.0782923 3.49689 8.77317e-20)
(-0.0386855 2.77221 -3.4635e-21)
(-0.0868864 4.66858 1.13608e-19)
(-0.100351 4.46131 -1.14805e-19)
(-0.0829934 3.96232 0)
(-0.0609891 3.88503 0)
(-0.0255698 4.00197 0)
(-0.0744352 3.26388 0)
(-0.0438039 2.30754 0)
(0.945895 3.64846 -6.09452e-19)
(0.917498 2.84154 -1.7664e-19)
(0.432697 2.06211 -2.28518e-19)
(0.253727 2.3105 6.97956e-19)
(1.02642 4.20716 2.63813e-19)
(3.43307 -0.167433 0)
(3.32213 -0.256552 0)
(2.88326 -0.189519 0)
(3.47032 -0.0643554 0)
(3.34581 -0.14787 0)
(3.44893 -0.261028 0)
(3.5195 -0.283607 0)
(3.57949 -0.281138 0)
(3.22418 0.0933627 3.6185e-18)
(2.55523 0.0645075 -4.57554e-18)
(3.09656 0.106549 -3.56196e-18)
(2.50918 0.056657 4.43206e-18)
(2.23738 3.40937 0)
(1.73496 2.93866 -4.462e-19)
(2.56499 3.34349 -4.03492e-19)
(2.36472 2.52348 5.36244e-19)
(0.7764 1.21561 2.72341e-18)
(1.4473 0.216502 1.34304e-18)
(3.72202 0.30391 0)
(3.89246 0.572275 -1.84588e-18)
(3.29813 0.243698 -8.23307e-20)
(3.72133 0.439827 0)
(0.237437 1.31272 1.79666e-18)
(-0.0162821 1.20213 -2.87723e-18)
(0.0591675 0.770069 1.61505e-18)
(0.276438 0.46515 -7.48075e-19)
(0.187734 1.38439 8.71275e-19)
(0.0508891 1.23742 0)
(0.0579194 1.08651 -1.13265e-18)
(0.192346 1.44344 -4.09344e-18)
(0.329927 1.5577 0)
(0.00866517 1.2902 1.19618e-19)
(-0.00972471 1.45729 -1.34058e-18)
(-0.0410227 1.30282 1.94892e-18)
(-0.0574589 1.41766 0)
(-0.0204892 1.38227 0)
(0.682387 1.05165 0)
(2.46072 2.45693 -1.06627e-18)
(2.63998 2.16933 3.95318e-19)
(2.78984 2.878 0)
(3.21216 3.06354 -3.94482e-19)
(3.16346 2.40835 2.84288e-20)
(0.804708 0.590077 -1.82279e-18)
(1.55716 0.691862 -1.62292e-20)
(1.23377 0.451265 8.72128e-19)
(1.27649 0.844417 5.95115e-20)
(0.939845 0.634458 -2.36978e-18)
(1.46556 0.714666 0)
(1.99195 1.10042 1.45596e-18)
(2.03397 1.01632 0)
(1.41327 0.791312 0)
(1.06288 0.550087 0)
(3.37754 2.17966 1.00822e-18)
(3.94667 0.760157 -1.86313e-18)
(3.84667 1.21495 0)
(3.53216 0.75702 0)
(1.39213 0.364905 1.3324e-18)
(3.2603 1.84233 -8.51442e-19)
(2.83702 1.65486 1.54667e-18)
(3.75638 1.37655 -1.83552e-18)
(3.09797 0.114741 2.46364e-18)
(3.16858 0.180805 -2.5786e-18)
(2.66186 0.0916354 0)
(3.30726 -0.0395231 0)
(3.20138 -0.0842719 -2.3662e-18)
(2.63239 -0.032118 2.34536e-18)
(3.95631 0.0931538 0)
(3.75972 0.145616 0)
(3.69369 0.155359 0)
(3.58831 0.204735 0)
(3.83261 0.0590102 0)
(3.7261 0.0522367 0)
(-0.0412793 2.50502 0)
(-0.0384195 2.00605 0)
(0.354882 3.97775 -4.10778e-19)
(0.660074 3.32068 -1.60172e-19)
(0.257643 3.01586 -3.58265e-19)
(0.342004 2.53708 5.73913e-19)
(0.45599 4.00399 0)
(0.469008 4.66946 -5.09593e-19)
(0.382917 4.72724 0)
(0.913488 4.38102 -3.79493e-19)
(0.676443 3.82681 9.69266e-19)
(0.596986 4.64867 4.46617e-19)
(0.739169 4.19134 -1.87442e-19)
(0.600644 4.31677 1.508e-19)
(0.916174 4.65211 -6.63435e-19)
(0.748546 4.66107 0)
(0.859481 4.58772 5.04412e-19)
(0.00379232 4.57804 -1.81059e-19)
(-0.0205258 3.65788 0)
(0.0991964 4.29566 5.49318e-19)
(-0.00521144 4.39868 0)
(-0.00501558 3.47137 -4.51273e-19)
(-0.0161845 2.92452 0)
(-0.104614 4.30371 -2.88996e-19)
(-0.11075 4.67968 0)
(-0.055892 3.79977 0)
(-0.0432303 3.72233 3.25023e-19)
(-0.0500555 3.8949 1.03613e-20)
(-0.0372499 3.71856 6.2571e-19)
(-0.0425061 2.95792 4.06599e-21)
(-0.119483 4.7101 1.8005e-19)
(-0.108575 4.74164 1.03122e-19)
(-0.0185706 2.6244 0)
(5.8145e-05 2.13765 0)
(-0.0456357 4.78905 4.85687e-19)
(-0.0519164 4.30289 4.23203e-19)
(-0.08722 4.58138 -5.53309e-19)
(0.012961 4.7559 0)
(-0.0841867 4.53021 -3.08814e-19)
(-0.122539 4.16189 1.27557e-19)
(-0.0893731 4.24543 -4.12855e-20)
(-0.0762206 4.72835 -2.18722e-19)
(-0.0902762 4.26848 -6.84845e-20)
(-0.0880889 4.21466 3.06447e-19)
(2.87153 0.0609913 -2.36326e-18)
(2.85903 0.0496598 2.27274e-18)
(2.33872 0.0345371 0)
(3.51044 0.191877 3.04613e-18)
(2.70406 0.126479 -3.30436e-18)
(2.25486 0.0644387 3.60915e-18)
(3.6829 0.335115 -4.01589e-19)
(3.20983 -0.0485516 0)
(3.17203 -0.0135948 2.23676e-18)
(2.69082 -0.0123944 -2.21913e-18)
(3.87856 0.122076 -1.25224e-19)
(3.77162 0.101736 1.07821e-18)
(4.15964 0.173264 0)
(4.2284 0.18092 -3.75087e-19)
(4.0138 0.145083 0)
(3.69507 0.155295 0)
(4.03232 0.0950243 0)
(3.71184 0.0872794 0)
(4.18472 0.113736 7.85405e-19)
(4.13723 0.0790209 -1.74771e-18)
(4.14059 0.113745 -8.47913e-19)
(4.18634 0.116379 -9.24379e-19)
(4.21558 0.22875 1.77386e-18)
(3.85454 0.188454 0)
(4.061 0.301565 0)
(-0.078734 4.57496 -1.35853e-19)
(-0.0375055 4.63939 -1.16899e-20)
(-0.0718844 4.65779 0)
(-0.0601728 4.18896 1.38258e-19)
(-0.0583811 4.21414 2.25507e-20)
(-0.0623143 4.08069 -2.18721e-20)
(-0.0826908 3.526 2.6097e-19)
(-0.14765 4.00297 -1.45104e-20)
(-0.106778 4.13238 7.47086e-20)
(-0.0766891 3.39868 -1.32256e-19)
(-0.0260394 2.92245 1.58382e-19)
(-0.0816052 4.43204 5.18738e-21)
(-0.0951368 4.64212 1.72022e-19)
(1.24273 4.35012 3.47589e-19)
(1.15947 4.52292 7.25403e-19)
(1.73332 3.45641 4.31467e-19)
(1.30491 3.54809 1.69804e-19)
(1.28178 2.87868 0)
(0.551419 2.32877 2.75196e-19)
(0.46573 1.74906 3.31132e-19)
(0.346858 2.57952 1.52082e-20)
(0.494664 3.18741 -1.1617e-18)
(0.635685 3.14497 8.77359e-19)
(0.4352 2.41525 0)
(0.295357 1.98158 -5.58006e-19)
(0.260585 3.09101 1.39617e-18)
(0.274321 2.73179 -3.15539e-20)
(0.158577 2.28767 -1.75013e-18)
(0.59371 1.4157 1.46466e-18)
(0.579009 1.62305 0)
(3.58364 -0.0751604 8.6425e-20)
(3.61861 -0.254111 -7.25896e-20)
(3.72134 -0.217726 -1.26642e-18)
(3.75926 -0.126035 1.2823e-18)
(3.67616 -0.0488714 0)
(2.44648 3.86653 0)
(2.61919 3.91143 0)
(2.89006 3.62165 0)
(2.73805 3.64025 0)
(0.856432 1.39748 -3.32784e-21)
(0.613052 1.04144 0)
(1.71515 3.39092 1.50241e-20)
(1.4263 3.47053 0)
(1.33195 2.95875 -1.28453e-18)
(1.41252 2.90015 8.24902e-19)
(1.79197 0.310458 0)
(1.43105 0.262085 3.52041e-19)
(2.41239 0.358819 2.19156e-18)
(1.78669 0.284839 -7.85364e-19)
(1.42677 0.112198 -2.49474e-18)
(4.26621 0.789415 -2.5651e-18)
(3.85298 0.994698 -3.67043e-20)
(3.29827 0.844372 2.06757e-18)
(3.87662 0.745049 1.81304e-18)
(3.12391 0.465551 -3.04468e-18)
(2.91111 0.452074 3.74947e-19)
(3.19363 0.68223 -8.18621e-19)
(2.97714 0.68323 0)
(3.75941 0.563669 1.53745e-18)
(4.09616 0.628935 0)
(4.09173 0.775899 0)
(4.04538 0.415532 8.23576e-19)
(4.29654 0.642039 -3.02604e-20)
(4.24896 0.71519 -4.52817e-19)
(4.17608 0.642596 0)
(3.6159 0.130281 1.71796e-18)
(4.19004 0.183361 2.14391e-18)
(4.09079 0.151483 -1.6792e-18)
(4.13668 0.240615 -1.44266e-18)
(3.746 0.238017 -2.1561e-18)
(3.30357 0.375843 0)
(3.40389 0.302231 0)
(2.55862 0.190594 -1.2659e-18)
(2.10898 0.119086 4.76714e-19)
(4.03744 0.352363 1.94007e-18)
(4.28761 0.432411 -2.34623e-18)
(4.28503 0.489023 2.06865e-18)
(4.15738 0.493069 0)
(4.25654 0.336901 0)
(4.26637 0.322182 -9.81687e-19)
(4.21434 0.31586 -1.5963e-18)
(2.23195 3.4902 6.20367e-19)
(1.94314 3.23548 -6.83466e-19)
(1.44984 2.35988 -1.03225e-18)
(1.18933 1.99961 2.66932e-19)
(0.886011 1.38102 -2.6299e-18)
(0.795371 1.21764 9.22462e-19)
(0.602045 0.905674 -1.939e-21)
(1.11728 1.78792 -1.13827e-18)
(1.1449 1.8855 1.69923e-18)
(0.976511 1.70271 5.06236e-19)
(0.787499 1.29068 -5.12854e-19)
(0.636503 1.07596 0)
(2.44992 2.6088 -1.15429e-19)
(0.706815 1.14509 8.57517e-19)
(0.929289 0.890931 1.15647e-18)
(0.75661 0.814538 1.33818e-18)
(1.08447 0.747371 1.34138e-18)
(1.46902 1.04556 -2.27066e-18)
(1.38504 1.07258 1.83975e-18)
(1.00319 0.766516 -6.76915e-19)
(0.818008 0.568661 1.49495e-18)
(1.61652 0.490994 -7.78077e-19)
(1.56009 0.508637 0)
(1.24034 0.407565 4.61751e-21)
(2.51203 1.51676 7.75595e-19)
(2.08233 1.27115 -2.80874e-18)
(1.68901 1.18568 9.1328e-21)
(1.66285 1.09337 0)
(2.86573 2.59587 8.73679e-19)
(3.44789 2.7512 1.03712e-18)
(3.25727 2.92979 -1.19556e-18)
(3.55439 2.76142 -4.28251e-19)
(3.48327 2.60027 -1.34868e-19)
(3.51199 2.79204 1.38754e-19)
(3.67591 2.26566 -1.67905e-18)
(3.70527 2.49063 4.00735e-19)
(3.78314 2.43351 0)
(3.78363 2.1893 -5.79611e-19)
(4.04946 1.07274 5.80467e-19)
(4.27568 0.992333 1.00204e-18)
(4.3003 0.966037 1.01152e-18)
(4.05553 1.32851 -1.14946e-18)
(4.10249 1.34851 0)
(4.15199 1.2325 0)
(3.32943 1.23558 -1.55757e-20)
(2.41918 0.666644 0)
(2.72331 0.744087 9.3059e-19)
(3.23969 0.885713 -2.643e-20)
(3.77414 1.5341 5.1066e-18)
(3.57149 1.76144 1.3109e-18)
(3.48274 1.54025 -1.34051e-18)
(3.03957 1.36992 1.43728e-18)
(2.76305 1.37004 8.23743e-19)
(2.3088 1.15652 -7.97779e-19)
(3.67219 -0.085569 1.98441e-18)
(3.8947 -0.0289601 0)
(3.85894 -0.066575 1.34192e-18)
(3.7429 -0.0594335 -2.98742e-18)
(3.98056 0.0373399 1.4618e-18)
(3.90445 0.113391 -3.08259e-18)
(3.73987 0.127998 0)
(3.55627 0.173448 -6.28475e-19)
(3.81198 0.122959 1.6051e-18)
(3.69196 0.191364 -8.22466e-19)
(3.60031 0.171059 5.90648e-19)
(-0.0816518 2.58656 0)
(-0.0493714 3.3916 0)
(-0.032945 2.45614 0)
(-0.022292 1.96664 0)
(0.0439376 3.93183 6.70014e-19)
(0.138374 3.71194 -1.7286e-19)
(0.315544 4.63884 -2.29509e-19)
(0.250731 4.45129 2.42342e-19)
(-0.0283358 4.28738 -4.97049e-19)
(0.00893215 4.31944 3.73261e-19)
(0.0933021 3.86012 2.23481e-20)
(0.00762197 3.54742 -4.6677e-19)
(-0.0143939 3.30075 -6.22175e-20)
(-0.0419565 3.66352 -5.66803e-20)
(0.151526 4.48265 -5.86661e-19)
(0.177285 4.29834 0)
(0.274221 4.63979 2.96325e-19)
(0.266708 4.70997 2.52965e-19)
(0.59625 4.44983 -2.25924e-19)
(0.4099 3.79491 0)
(0.459174 3.64139 -1.11566e-18)
(0.562977 4.01023 7.90506e-19)
(0.480336 4.5665 -6.14735e-19)
(0.370136 4.44095 3.30726e-19)
(0.300078 4.16769 0)
(-0.0388052 4.76358 -5.52642e-19)
(-0.0779837 4.53321 -6.4118e-19)
(-0.0796191 4.74303 0)
(-0.0318178 4.36762 -6.24987e-21)
(-0.0220092 4.64697 2.74e-19)
(-0.122076 3.87867 4.46854e-20)
(-0.0582935 3.48561 -6.53461e-19)
(-0.099354 3.92372 1.74275e-19)
(-0.140399 4.51443 2.3205e-19)
(-0.0800956 4.32376 0)
(-0.0640267 3.88591 0)
(-0.0843547 2.90415 2.00965e-19)
(-0.051035 3.63493 -6.27029e-20)
(-0.076219 3.62128 0)
(-0.0898573 2.69094 1.58238e-19)
(-0.0474702 2.1985 -3.06596e-19)
(3.76097 0.032283 0)
(3.73184 0.00768291 -2.03255e-19)
(4.17948 0.0678555 -1.43979e-18)
(4.08905 0.0462069 0)
(3.87624 0.0177264 0)
(4.14973 0.0369811 -1.25198e-20)
(4.10029 0.0348854 2.37868e-18)
(4.00013 0.0801344 2.84536e-18)
(3.75593 0.118605 0)
(3.5581 0.109997 0)
(4.01338 0.0938551 1.41732e-18)
(3.70334 0.116056 0)
(3.47222 0.128816 0)
(-0.0875114 4.69755 0)
(-0.113423 4.66557 1.06786e-20)
(-0.0840602 4.71692 6.29857e-20)
(-0.0654139 3.83556 0)
(-0.118601 4.53625 1.11171e-19)
(-0.0742708 4.24506 -6.33789e-20)
(-0.0594572 3.93557 0)
(1.41523 4.1917 0)
(1.21012 4.57738 -1.29741e-18)
(1.22635 4.4888 0)
(1.57524 4.48277 1.48415e-18)
(1.59173 4.11115 0)
(1.50067 4.36449 -6.06469e-19)
(1.01532 2.24904 -3.39765e-20)
(0.712034 1.65062 -1.74626e-18)
(0.592776 1.2312 2.13047e-18)
(0.71193 1.84184 3.97235e-19)
(0.979336 2.43253 0)
(1.04081 2.3871 0)
(0.72126 1.69315 0)
(0.534487 1.33494 -1.39674e-18)
(1.21459 3.78321 -9.83911e-19)
(1.13368 2.99842 -2.35652e-19)
(1.3325 3.41353 1.92724e-19)
(0.602053 2.04947 0)
(0.623081 1.95029 0)
(0.464398 1.57769 -3.93234e-19)
(0.96194 2.73002 0)
(2.69006 3.57036 0)
(2.38585 3.01079 -1.45456e-18)
(2.55012 3.02845 -8.58672e-20)
(2.42448 3.40608 0)
(2.29077 3.1524 2.22112e-18)
(3.27971 3.08531 -3.89645e-19)
(3.13418 3.32163 0)
(3.11652 3.14784 6.30351e-19)
(2.87223 3.41155 0)
(2.88481 3.20066 0)
(1.21284 2.01096 -9.3089e-19)
(1.41821 2.40836 -6.99757e-19)
(1.75874 2.98704 1.20619e-18)
(1.70108 2.96556 -3.62377e-19)
(1.06559 1.82665 0)
(1.21061 2.21388 4.7131e-19)
(0.720411 1.2918 -7.15666e-19)
(0.583216 1.04607 -5.94457e-22)
(1.94312 3.70058 0)
(2.20429 3.7451 -5.42519e-19)
(2.34218 3.98641 0)
(2.28511 0.529019 0)
(1.61811 0.341992 0)
(1.20965 0.276683 0)
(2.21027 0.554332 -1.46515e-18)
(1.6362 0.402331 8.17207e-19)
(2.14616 0.129096 -9.8505e-19)
(2.62727 0.297472 0)
(2.46635 0.301612 4.13444e-19)
(1.77041 0.135711 1.63282e-18)
(1.53069 0.0812682 -1.03693e-18)
(0.746937 1.55783 8.58305e-19)
(0.961869 1.82278 0)
(0.538593 1.4416 1.5614e-18)
(0.525033 1.6161 -1.42569e-18)
(0.758942 1.81609 -9.88708e-19)
(2.07784 2.46526 1.33795e-18)
(2.10155 2.71509 0)
(1.5868 1.68034 -2.76409e-19)
(2.01348 1.99172 1.74524e-18)
(1.36235 1.29434 -4.23658e-19)
(1.5913 1.3151 4.50791e-19)
(2.11259 1.51458 1.02329e-18)
(2.4459 1.67215 0)
(2.27952 1.85779 0)
(2.01306 1.60773 0)
(3.95698 2.07805 3.84489e-19)
(3.76112 1.88892 -1.26333e-18)
(3.81854 2.02689 1.04649e-18)
(3.90194 1.77032 -1.00815e-18)
(4.15765 1.67251 0)
(4.11651 1.8394 -2.97797e-19)
(2.84259 1.16353 -1.89719e-18)
(2.97276 1.1635 -2.41278e-18)
(2.33397 1.04397 1.45635e-18)
(2.14004 0.934868 -1.41983e-18)
(2.46518 0.846371 -1.17807e-18)
(2.18019 0.777284 1.44877e-18)
(4.00845 0.0334357 -1.52871e-18)
(4.05275 0.0406408 3.12984e-18)
(3.76795 -0.0659165 1.90069e-18)
(3.79116 -0.0738096 -2.28651e-18)
(3.95952 0.0105119 0)
(4.05602 0.0228142 -3.72937e-18)
(0.0932098 4.76141 1.06577e-19)
(0.0641075 4.72966 0)
(0.187174 4.73173 9.52524e-19)
(0.208689 4.74833 -8.66567e-19)
(0.228555 4.71377 4.28004e-19)
(0.119357 4.65305 0)
(-0.107507 4.77029 0)
(-0.11302 4.40322 -6.1879e-20)
(-0.112169 4.33373 5.54645e-20)
(-0.120984 4.4823 7.25005e-21)
(-0.111674 4.7198 -1.01143e-19)
(-0.0885036 4.70781 5.50286e-20)
(1.88054 4.01236 -1.64295e-18)
(1.82112 4.01981 1.74006e-18)
(1.68564 4.40348 -8.53819e-19)
(1.69744 4.28006 7.61332e-20)
(2.25307 4.08147 0)
(1.85386 4.21279 -6.35706e-19)
(1.98064 3.95205 6.1655e-19)
(1.82472 4.37508 8.3402e-19)
(2.07835 4.21706 0)
(2.23053 4.09754 0)
(1.14386 3.64026 1.49571e-18)
(0.830953 2.82201 2.02531e-18)
(0.958937 3.00011 -1.39092e-18)
(0.750764 2.98307 -2.32173e-19)
(0.907141 3.74218 4.66696e-19)
(0.726349 3.37581 -1.13505e-18)
(0.748335 1.46988 -1.21577e-18)
(0.748437 1.32039 0)
(0.604379 1.11748 -1.33625e-18)
(1.11448 2.06936 0)
(1.09165 2.15649 0)
(1.36193 2.19325 -1.09089e-18)
(1.06684 2.01663 -1.0363e-18)
(1.01917 2.03723 1.09901e-18)
(1.03363 1.52077 0)
(1.41351 1.76393 -6.01368e-19)
(1.63097 2.12165 -8.55534e-19)
(1.41421 2.08491 0)
(0.869888 1.81991 7.12691e-19)
(0.781673 1.68069 0)
(2.90967 2.28978 -1.84671e-18)
(3.32126 2.47032 2.6087e-18)
(3.28024 2.19294 -2.59285e-18)
(2.61377 2.02214 -2.31159e-19)
(2.72813 1.94116 -9.74066e-19)
(1.2649 2.19263 7.96395e-19)
(1.31928 2.24792 -1.36027e-18)
(1.45771 2.33244 1.79317e-18)
(1.79464 2.56268 -1.16547e-18)
(1.89396 2.93647 -1.56738e-18)
(1.5672 2.49232 -1.18812e-19)
(1.63734 2.63247 1.37161e-18)
(1.81465 2.69666 9.66386e-20)
(2.02294 3.00242 6.50127e-19)
)
;

boundaryField
{
    wall-4
    {
        type            noSlip;
    }
    velocity-inlet-5
    {
        type            fixedValue;
        value           uniform (3 0 0);
    }
    velocity-inlet-6
    {
        type            fixedValue;
        value           uniform (0 1 0);
    }
    pressure-outlet-7
    {
        type            zeroGradient;
    }
    wall-8
    {
        type            noSlip;
    }
    frontAndBackPlanes
    {
        type            empty;
    }
}


// ************************************************************************* //
