/*--------------------------------*- C++ -*----------------------------------*\
  =========                 |
  \\      /  F ield         | OpenFOAM: The Open Source CFD Toolbox
   \\    /   O peration     | Website:  https://openfoam.org
    \\  /    A nd           | Version:  9
     \\/     M anipulation  |
\*---------------------------------------------------------------------------*/
FoamFile
{
    format      ascii;
    class       volScalarField;
    location    "3.2";
    object      p;
}
// * * * * * * * * * * * * * * * * * * * * * * * * * * * * * * * * * * * * * //

dimensions      [0 2 -2 0 0 0 0];

internalField   nonuniform List<scalar> 
918
(
25.8356
25.2879
1.1741
25.2367
1.0256
24.8044
4.94394
15.6534
21.6043
4.2076
3.35212
16.6932
22.3473
18.5884
14.7557
1.2475
16.2677
3.42816
20.8052
1.37284
14.7624
22.8135
23.9026
21.6508
16.3308
16.0191
20.3096
1.32767
0.137702
0.447425
0.944658
0.472309
0.355791
23.3413
24.0179
23.9562
18.061
11.784
5.42701
5.74514
4.6394
4.34884
15.7019
15.8348
7.99417
15.596
15.5652
19.0595
21.4717
21.6131
21.9133
21.6981
22.0855
6.66514
4.13515
3.99782
4.26909
4.33138
3.68748
3.56296
3.69004
3.19631
3.02967
16.3283
16.8433
16.9592
16.5764
16.5246
24.1639
23.407
23.7417
22.8481
22.9935
21.9234
21.5378
18.9642
19.3168
18.1897
17.8084
14.528
14.4633
15.003
15.2217
0.160476
1.48521
1.67675
16.2803
16.3226
16.2728
16.2448
9.33399
3.50451
3.56586
20.2466
19.828
22.834
23.099
22.5451
22.3598
1.63841
1.79984
1.16265
1.19637
0.974198
15.0671
15.238
21.6042
20.7758
16.4411
16.2807
16.3684
13.7341
16.1282
16.2008
17.0383
17.4865
16.6609
17.1104
19.8796
19.4616
20.7462
21.1835
0.488836
0.184026
1.01686
0.587802
0.83377
17.9136
17.6793
18.1262
18.2071
18.3929
11.7829
11.6839
11.7776
11.6981
6.17304
6.51347
3.69254
4.0938
3.87521
11.1886
15.8875
15.9664
6.89842
7.64614
7.25472
8.54526
8.97459
18.4801
18.8691
18.6281
20.1081
19.3311
19.6709
22.1674
21.661
21.9595
7.09091
7.41608
6.34654
6.00977
3.50845
3.83393
3.71949
4.32626
4.26637
3.97353
4.18011
3.43865
3.28483
4.13908
3.85653
4.01271
2.8227
2.64058
16.0922
15.879
16.6311
16.8635
17.567
17.4193
17.0956
17.2806
20.7329
21.1364
21.1698
20.7857
13.0815
11.4055
15.482
15.7419
0.318956
0.281187
0.157939
0.511506
0.399904
0.190205
2.50934
2.31401
1.876
2.14508
16.3092
16.2929
9.57885
9.81294
9.13872
8.84498
18.7264
18.8526
19.455
19.0686
2.43918
2.00271
2.23174
15.4417
15.2728
15.4152
13.1947
12.6375
14.2712
14.6469
16.2827
16.2731
16.2824
17.3946
17.7124
21.5343
21.8049
21.6318
22.0176
23.0804
22.7317
22.3469
17.0797
17.4902
17.3219
18.5673
18.2628
18.4474
17.6763
18.0007
17.8196
11.7006
11.7407
11.4743
11.5576
11.6349
11.5719
11.1001
10.9665
16.167
16.0265
16.1144
9.50495
9.9639
5.65736
5.35496
14.9503
15.619
15.2544
20.3626
19.685
20.4179
20.0471
19.5971
19.9206
11.7439
11.6707
11.7245
16.6371
15.9917
16.3335
3.07489
2.63916
2.80187
10.0331
10.1545
7.80376
8.51192
8.17177
18.0131
18.3539
19.0337
18.1457
18.613
19.1203
18.8984
11.2856
11.4296
11.3363
10.9275
10.7935
11.966
10.5207
11.1249
4.42909
5.05347
4.74477
10.3378
10.6441
10.4707
20.9964
21.5318
0.838611
1.32089
21.9488
21.6688
0.284524
0.510517
15.9718
14.1774
9.47919
19.5449
19.0619
21.3315
4.44067
6.83146
3.58344
4.04901
3.16115
16.9052
16.6486
15.6707
0.565014
1.5725
1.78329
4.2593
20.7723
20.1112
21.2152
21.5382
21.5874
0.767809
0.956584
0.62035
1.43891
1.12228
1.32337
18.0241
18.0813
6.19732
21.2184
21.5203
21.5393
20.0035
20.9585
20.0198
1.25806
0.906255
1.03371
12.4175
14.3807
15.9351
15.4641
15.6846
15.712
15.4718
16.5882
16.2772
16.2248
16.6977
15.8729
15.6229
9.96266
8.53778
10.3992
10.0937
19.4523
19.0686
18.9186
18.6912
20.4528
19.9824
20.8252
20.2071
20.6658
20.9573
4.42246
4.45243
4.38957
3.9747
6.97904
7.5114
6.34349
6.37389
5.0166
3.32499
3.26687
3.63911
3.6951
3.82988
3.2799
3.67788
3.37161
2.8519
2.81099
3.68172
3.37129
3.44286
16.9154
16.9659
16.6307
16.6068
16.7969
17.0136
15.9194
16.3995
16.0846
14.6964
15.3894
14.9604
0.831748
0.752315
0.62494
1.6874
1.80104
1.29098
1.01293
1.3012
1.20466
1.00573
1.74063
1.82556
4.745
4.19733
9.93423
8.99763
8.09086
19.2102
19.9745
19.1776
20.3767
20.7929
20.9058
20.5295
20.0228
18.152
18.2018
17.8066
17.7647
6.70645
5.45672
7.00828
6.66484
11.8887
16.2971
14.1601
13.0783
13.3653
15.5155
15.644
15.2731
15.5488
15.0121
14.4789
15.2822
14.7499
14.8661
14.5413
17.4309
17.9046
17.511
16.9299
16.9534
11.9576
13.3577
7.63701
7.7936
9.27759
8.7588
15.2375
15.8396
15.8977
15.3446
15.5284
15.6246
15.326
15.4701
15.6363
15.6088
13.4157
12.4676
11.3798
11.2688
16.2074
13.9595
14.5317
14.2623
18.5282
19.0193
18.6683
18.1054
18.5703
18.1381
18.0852
18.2551
19.5744
19.321
19.1005
19.4859
4.47035
4.38681
5.07728
4.71809
4.55642
4.15158
4.8913
6.07037
5.69558
7.82495
8.33675
5.96459
5.18554
5.28344
6.29321
6.83325
6.89966
4.97907
5.28224
5.75604
5.32429
5.99906
5.57746
3.67819
3.89302
3.95598
3.80819
4.15218
4.67386
4.27405
3.16103
3.37154
3.02702
2.83204
4.43742
4.16892
4.11782
4.68046
1.58384
1.77959
1.89801
2.91213
2.48877
2.62959
17.6327
17.2484
17.4295
16.3977
16.5507
16.5044
16.0374
17.726
17.4356
17.5764
16.1171
16.299
16.0092
16.2637
16.7388
16.964
17.9182
17.648
16.8038
17.0233
16.6533
16.5622
15.7908
15.3726
15.1734
1.39505
1.01417
1.22819
1.16097
0.84564
0.997723
2.65498
2.06656
2.43704
2.1714
2.41228
1.6379
1.5592
5.92145
6.62978
5.78041
5.09825
4.71046
9.9883
10.1592
9.16801
8.9258
9.23787
9.50233
9.42802
7.97598
8.51261
8.32877
11.2402
10.8434
19.9561
19.9058
19.5863
19.437
19.6432
7.76735
9.25888
8.72599
9.60868
11.5882
11.9202
10.5763
9.92657
10.6386
10.6984
16.2087
16.3288
15.8778
16.2123
16.2725
14.0698
14.7856
15.3603
15.1547
15.8121
15.8813
15.1918
15.6134
15.4891
14.9283
14.8282
14.4757
14.6187
14.234
14.0586
16.4126
16.2933
16.5577
16.0776
16.363
15.8301
16.1025
16.3069
16.4769
15.634
15.0435
15.0068
15.3877
15.2607
15.6039
15.7466
10.6947
11.2122
11.7145
12.2726
12.002
11.7577
11.5908
11.9344
11.9708
12.1987
12.1089
11.9033
12.9027
15.1397
15.3845
15.59
15.359
15.3001
15.0368
15.3362
15.279
16.0098
16.0155
16.1299
14.7029
15.0029
15.1361
15.0672
13.0858
11.8945
11.6165
11.4243
9.74265
10.0889
12.7773
11.8111
10.9597
11.1065
14.3115
12.9993
13.7984
14.0133
12.8337
12.5155
14.8136
15.6789
15.8516
15.4862
13.8939
13.9123
14.3563
14.7529
14.8987
15.4021
18.3621
18.8534
18.9345
18.6837
18.553
18.6193
18.3715
18.4949
18.9336
19.0358
18.8751
4.00378
4.11592
4.25409
4.12045
4.54681
4.46387
5.31412
5.31754
4.35581
4.55434
4.6267
4.59085
4.2531
4.20256
5.78493
6.0752
6.31899
5.94836
7.3351
7.71775
8.22406
8.04349
6.88686
6.85286
7.13729
4.43561
4.33501
4.15885
4.55335
4.68798
3.30759
2.96894
2.77165
3.31164
3.49594
2.65135
2.19237
2.31414
2.70463
2.67311
2.38947
17.5027
17.2706
17.1937
16.9898
17.0668
17.46
17.6841
17.4356
17.5703
17.5873
17.2252
17.0969
17.2894
2.17356
1.83441
1.93148
2.08405
1.9765
1.82997
1.95671
8.79184
7.70168
8.06141
7.46415
5.9305
6.36227
10.9294
11.2566
11.3223
10.9512
10.7637
11.0137
10.9983
11.001
9.41975
10.4665
10.0292
10.4095
10.5151
10.569
10.2325
10.553
11.985
12.0763
10.8968
11.5016
10.9952
9.81595
9.95418
10.7449
11.5789
11.7218
11.6153
11.2471
11.04
11.4879
11.4455
11.6356
11.6204
10.0904
10.1388
9.76099
15.9957
16.0982
16.2047
16.0408
16.2417
16.2051
15.9548
16.2001
16.3271
16.1185
12.4689
12.5534
12.8316
13.6839
13.7943
13.356
12.6874
14.5588
14.1602
14.9876
14.9281
14.8984
14.5409
14.2773
14.6437
12.0732
13.3345
12.8744
13.215
12.1514
11.4417
15.0182
15.0894
15.1942
15.5123
15.4587
15.9441
18.3271
18.1737
18.2073
18.2362
17.8271
17.8423
5.16668
4.91819
5.62407
5.65259
5.2692
4.96779
2.72062
2.55477
2.31355
2.19528
2.33496
2.50347
9.54474
9.43296
7.83647
8.65552
7.63566
6.67128
6.5904
7.60077
8.64032
8.75942
9.58129
10.2435
9.88985
9.71176
9.04195
9.338
11.4483
11.5675
11.4617
11.733
11.3322
13.156
12.734
13.1138
14.7945
14.4489
13.7925
13.6619
13.7737
14.3927
13.4415
12.7731
13.4086
14.0327
14.0358
12.5188
12.2552
12.7226
12.6108
11.5498
12.0728
11.8261
12.1698
11.8463
)
;

boundaryField
{
    wall-4
    {
        type            zeroGradient;
    }
    velocity-inlet-5
    {
        type            zeroGradient;
    }
    velocity-inlet-6
    {
        type            zeroGradient;
    }
    pressure-outlet-7
    {
        type            fixedValue;
        value           uniform 0;
    }
    wall-8
    {
        type            zeroGradient;
    }
    frontAndBackPlanes
    {
        type            empty;
    }
}


// ************************************************************************* //
