/*--------------------------------*- C++ -*----------------------------------*\
  =========                 |
  \\      /  F ield         | OpenFOAM: The Open Source CFD Toolbox
   \\    /   O peration     | Website:  https://openfoam.org
    \\  /    A nd           | Version:  9
     \\/     M anipulation  |
\*---------------------------------------------------------------------------*/
FoamFile
{
    format      ascii;
    class       surfaceScalarField;
    location    "5.81";
    object      alphaPhi0.water;
}
// * * * * * * * * * * * * * * * * * * * * * * * * * * * * * * * * * * * * * //

dimensions      [0 3 -1 0 0 0 0];

internalField   nonuniform List<scalar> 
4432
(
2.25234e-07
-2.25234e-07
4.64639e-07
-2.39408e-07
6.90884e-07
-2.26243e-07
8.95683e-07
-2.04797e-07
1.07582e-06
-1.80142e-07
1.2314e-06
-1.55568e-07
1.36688e-06
-1.3548e-07
1.48651e-06
-1.19631e-07
1.59182e-06
-1.0531e-07
1.68172e-06
-8.98949e-08
1.75828e-06
-7.65503e-08
1.83133e-06
-7.30559e-08
1.91954e-06
-8.82044e-08
2.04456e-06
-1.25026e-07
2.21178e-06
-1.67213e-07
2.36177e-06
-1.50001e-07
2.24633e-06
1.15446e-07
1.51752e-06
7.288e-07
4.01532e-07
1.1148e-06
-6.22509e-07
1.02307e-06
-1.03592e-06
4.1244e-07
-6.31272e-07
-4.05531e-07
-6.32748e-07
2.30496e-07
-4.55727e-07
4.60108e-07
-4.69024e-07
6.80675e-07
-4.46807e-07
8.85168e-07
-4.09285e-07
1.0685e-06
-3.63472e-07
1.22999e-06
-3.1706e-07
1.37192e-06
-2.77408e-07
1.49669e-06
-2.44396e-07
1.60437e-06
-2.12978e-07
1.69261e-06
-1.78132e-07
1.76163e-06
-1.45568e-07
1.81728e-06
-1.28711e-07
1.8702e-06
-1.41125e-07
1.93037e-06
-1.85197e-07
1.99519e-06
-2.32037e-07
2.02288e-06
-1.77715e-07
1.88044e-06
2.5781e-07
1.35074e-06
1.25841e-06
5.71685e-07
1.89396e-06
-1.40403e-07
1.73808e-06
-5.61297e-07
8.34306e-07
-5.29633e-07
-4.37204e-07
-1.16239e-06
2.35887e-07
-6.9161e-07
4.61753e-07
-6.94889e-07
6.79033e-07
-6.6409e-07
8.83857e-07
-6.14103e-07
1.06984e-06
-5.49459e-07
1.23517e-06
-4.82386e-07
1.38106e-06
-4.23296e-07
1.50872e-06
-3.72057e-07
1.61705e-06
-3.21309e-07
1.70238e-06
-2.63455e-07
1.76286e-06
-2.06055e-07
1.80108e-06
-1.66935e-07
1.82265e-06
-1.62695e-07
1.83169e-06
-1.94238e-07
1.82457e-06
-2.2492e-07
1.78032e-06
-1.33554e-07
1.62992e-06
4.0764e-07
1.23287e-06
1.65546e-06
7.05475e-07
2.42135e-06
2.0957e-07
2.23398e-06
-1.80346e-07
1.22422e-06
-2.90245e-07
-3.27313e-07
-1.45267e-06
2.37984e-07
-9.29593e-07
4.65072e-07
-9.2198e-07
6.83814e-07
-8.82834e-07
8.91688e-07
-8.21973e-07
1.08164e-06
-7.39414e-07
1.25107e-06
-6.51815e-07
1.40062e-06
-5.72844e-07
1.53078e-06
-5.02228e-07
1.6395e-06
-4.30029e-07
1.72149e-06
-3.45444e-07
1.77287e-06
-2.57442e-07
1.79357e-06
-1.87634e-07
1.78569e-06
-1.54819e-07
1.74977e-06
-1.58321e-07
1.68227e-06
-1.5743e-07
1.57889e-06
-3.01725e-08
1.42835e-06
5.49836e-07
1.15545e-06
1.88548e-06
8.36102e-07
2.69649e-06
4.82794e-07
2.55712e-06
1.56683e-07
1.53173e-06
9.76022e-09
-1.8003e-07
-1.44287e-06
2.38912e-07
-1.16851e-06
4.70027e-07
-1.1531e-06
6.93911e-07
-1.10672e-06
9.07413e-07
-1.03547e-06
1.10265e-06
-9.34653e-07
1.2766e-06
-8.25762e-07
1.42973e-06
-7.25978e-07
1.56216e-06
-6.3466e-07
1.67105e-06
-5.38926e-07
1.74941e-06
-4.23806e-07
1.79144e-06
-2.99477e-07
1.79501e-06
-1.91205e-07
1.75986e-06
-1.19672e-07
1.68416e-06
-8.26215e-08
1.56375e-06
-3.70216e-08
1.39976e-06
1.33813e-07
1.22636e-06
7.07784e-07
1.08319e-06
2.02735e-06
9.20952e-07
2.8575e-06
6.94654e-07
2.77281e-06
5.0694e-07
1.72205e-06
2.91559e-07
3.8577e-08
-1.15134e-06
2.4066e-07
-1.40917e-06
4.77797e-07
-1.39023e-06
7.09281e-07
-1.33821e-06
9.30253e-07
-1.25644e-06
1.13167e-06
-1.13607e-06
1.31034e-06
-1.00443e-06
1.46685e-06
-8.82492e-07
1.60113e-06
-7.68943e-07
1.70985e-06
-6.47645e-07
1.78434e-06
-4.98294e-07
1.81718e-06
-3.32322e-07
1.80485e-06
-1.78875e-07
1.74578e-06
-6.0603e-08
1.63692e-06
2.62368e-08
1.47426e-06
1.25637e-07
1.26312e-06
3.44953e-07
1.05946e-06
9.07651e-07
1.01652e-06
2.08178e-06
9.6703e-07
2.90574e-06
8.82015e-07
2.85658e-06
8.11353e-07
1.82575e-06
5.03584e-07
3.48401e-07
-6.47755e-07
2.44104e-07
-1.65327e-06
4.89177e-07
-1.6353e-06
7.29589e-07
-1.57862e-06
9.5895e-07
-1.4858e-06
1.16684e-06
-1.34395e-06
1.35009e-06
-1.18768e-06
1.50955e-06
-1.04194e-06
1.64501e-06
-9.044e-07
1.7529e-06
-7.55526e-07
1.82318e-06
-5.68569e-07
1.84732e-06
-3.5646e-07
1.82107e-06
-1.52618e-07
1.74253e-06
1.79355e-08
1.60878e-06
1.59987e-07
1.4174e-06
3.17016e-07
1.17962e-06
5.8273e-07
9.6133e-07
1.12594e-06
9.26965e-07
2.11265e-06
9.81331e-07
2.87451e-06
1.02549e-06
2.81377e-06
9.55519e-07
1.92153e-06
5.76132e-07
7.27809e-07
-7.16267e-08
2.50153e-07
-1.90342e-06
5.03577e-07
-1.88872e-06
7.53365e-07
-1.82841e-06
9.91134e-07
-1.72356e-06
1.20518e-06
-1.558e-06
1.39257e-06
-1.37507e-06
1.55433e-06
-1.2037e-06
1.68997e-06
-1.04005e-06
1.79597e-06
-8.61524e-07
1.86147e-06
-6.34062e-07
1.87759e-06
-3.72578e-07
1.83992e-06
-1.14945e-07
1.7471e-06
1.10752e-07
1.59718e-06
3.09907e-07
1.39074e-06
5.23448e-07
1.14435e-06
8.29118e-07
9.26228e-07
1.34406e-06
8.83488e-07
2.15522e-06
9.84493e-07
2.79274e-06
1.07061e-06
2.77873e-06
9.37313e-07
2.05677e-06
5.19512e-07
1.14561e-06
4.47883e-07
-1.19731e-06
1.19398e-06
-8.74765e-07
-3.25337e-07
-5.49093e-07
-3.28177e-07
-3.69452e-07
-1.80433e-07
-2.71862e-07
-9.64874e-08
-2.17644e-07
-5.47375e-08
-8.98234e-08
-1.2834e-07
2.17151e-07
-3.07514e-07
7.88189e-07
-5.72054e-07
1.27651e-06
-4.89332e-07
9.85036e-07
2.9885e-07
9.3211e-08
8.91836e-07
-1.73149e-06
1.82416e-06
-3.19704e-06
1.43958e-06
-1.80919e-06
-1.38787e-06
-1.03428e-08
-1.79886e-06
8.12386e-07
-8.22748e-07
9.7542e-07
-1.6319e-07
9.71205e-07
-6.02937e-07
1.79359e-06
-5.74329e-07
-3.53957e-07
-5.83247e-07
-3.19271e-07
-6.00138e-07
-1.63555e-07
-6.09332e-07
-8.73059e-08
-5.78621e-07
-8.51539e-08
-4.75219e-07
-2.32063e-07
-2.21536e-07
-5.63439e-07
1.85254e-07
-9.81585e-07
5.07033e-07
-8.12097e-07
2.2958e-07
5.76537e-07
-5.26013e-07
1.64744e-06
-1.63757e-06
2.94198e-06
-2.27013e-06
2.04919e-06
-1.36279e-06
-2.29523e-06
-2.69626e-07
-2.89205e-06
2.36903e-07
-1.3293e-06
6.06662e-07
-5.32969e-07
1.57505e-06
-1.43075e-07
1.94584e-06
-4.32667e-07
-6.53146e-08
-6.40456e-07
-1.11495e-07
-7.67243e-07
-3.67807e-08
-8.40261e-07
-1.42784e-08
-8.6107e-07
-6.4344e-08
-8.07462e-07
-2.85654e-07
-6.37133e-07
-7.33759e-07
-3.68602e-07
-1.24946e-06
-1.73275e-07
-1.00837e-06
-4.33414e-07
8.36683e-07
-9.81919e-07
2.19595e-06
-1.50365e-06
3.46372e-06
-1.59825e-06
2.10519e-06
-1.02242e-06
-2.87658e-06
-3.84109e-07
-3.53038e-06
-1.63234e-07
-1.55019e-06
1.92998e-07
-8.8922e-07
1.76805e-06
-1.04215e-09
1.95272e-06
-4.35656e-07
3.69328e-07
-7.49797e-07
2.02638e-07
-9.44042e-07
1.57437e-07
-1.06467e-06
1.0635e-07
-1.13155e-06
2.51385e-09
-1.13953e-06
-2.77102e-07
-1.06826e-06
-8.0479e-07
-9.22302e-07
-1.39318e-06
-7.88217e-07
-1.14028e-06
-1.01161e-06
1.03632e-06
-1.35534e-06
2.53969e-06
-1.47005e-06
3.50656e-06
-1.12046e-06
1.71116e-06
-7.46333e-07
-3.26964e-06
-4.46939e-07
-3.8298e-06
-5.0115e-07
-1.496e-06
-2.33294e-07
-1.15709e-06
1.53475e-06
-7.66823e-08
2.02941e-06
-5.55889e-07
8.48542e-07
-9.13776e-07
5.6056e-07
-1.1448e-06
3.88459e-07
-1.29942e-06
2.60967e-07
-1.40852e-06
1.12193e-07
-1.47708e-06
-2.07583e-07
-1.50618e-06
-7.77436e-07
-1.49867e-06
-1.40215e-06
-1.41231e-06
-1.18817e-06
-1.47571e-06
1.08575e-06
-1.60257e-06
2.61163e-06
-1.37302e-06
3.27532e-06
-7.54912e-07
1.09085e-06
-5.6243e-07
-3.47489e-06
-5.16175e-07
-3.87262e-06
-7.67521e-07
-1.23949e-06
-6.06456e-07
-1.3128e-06
9.28297e-07
-2.65163e-07
2.29458e-06
-7.59939e-07
1.34333e-06
-1.12377e-06
9.24392e-07
-1.3687e-06
6.33425e-07
-1.54425e-06
4.36483e-07
-1.68858e-06
2.56725e-07
-1.81045e-06
-8.51413e-08
-1.92784e-06
-6.61343e-07
-2.0547e-06
-1.27506e-06
-2.03094e-06
-1.13704e-06
-1.887e-06
9.40207e-07
-1.7338e-06
2.45699e-06
-1.26332e-06
2.80324e-06
-5.25815e-07
3.46631e-07
-5.07232e-07
-3.49338e-06
-6.34079e-07
-3.73404e-06
-9.15424e-07
-9.57623e-07
-8.6078e-07
-1.37174e-06
6.48615e-08
-5.17867e-07
2.81246e-06
-1.02557e-06
1.85103e-06
-1.36717e-06
1.26598e-06
-1.60919e-06
8.75592e-07
-1.79397e-06
6.212e-07
-1.96055e-06
4.23166e-07
-2.1228e-06
7.70709e-08
-2.30483e-06
-4.79355e-07
-2.52487e-06
-1.05487e-06
-2.63329e-06
-1.00955e-06
-2.24709e-06
6.62427e-07
-1.81584e-06
2.02437e-06
-1.1139e-06
2.09992e-06
-4.69529e-07
-3.16227e-07
-5.83674e-07
-3.37914e-06
-7.88417e-07
-3.52048e-06
-9.52894e-07
-7.92706e-07
-9.95591e-07
-1.33542e-06
-9.30606e-07
-9.03435e-07
3.71588e-06
-1.33356e-06
2.28113e-06
-1.62824e-06
1.56066e-06
-1.85756e-06
1.10491e-06
-2.04231e-06
8.05954e-07
-2.21768e-06
5.98536e-07
-2.3975e-06
2.5689e-07
-2.60886e-06
-2.65291e-07
-2.86364e-06
-8.02958e-07
-2.99859e-06
-8.76361e-07
-2.57354e-06
2.97472e-07
-1.90267e-06
1.43112e-06
-1.07968e-06
1.2713e-06
-5.6984e-07
-8.25978e-07
-7.54563e-07
-3.19433e-06
-9.79255e-07
-3.29634e-06
-9.14e-07
-8.57649e-07
-9.72156e-07
-1.28834e-06
-1.90264e-06
5.50596e-07
-2.45402e-06
1.11765e-06
-2.45577e-06
1.6805e-06
-2.39125e-06
2.21345e-06
-2.25649e-06
2.68649e-06
-2.03103e-06
3.09684e-06
-1.78541e-06
3.44667e-06
-1.55352e-06
3.73025e-06
-1.32361e-06
3.94565e-06
-1.07691e-06
4.06582e-06
-7.54227e-07
4.07556e-06
-3.82284e-07
3.96641e-06
-5.79167e-09
3.74036e-06
3.36802e-07
3.39479e-06
6.55479e-07
2.94241e-06
9.75819e-07
2.43108e-06
1.34046e-06
1.98907e-06
1.78606e-06
1.85469e-06
2.2896e-06
1.97652e-06
2.67092e-06
2.01318e-06
2.74207e-06
1.54866e-06
2.52129e-06
4.7128e-07
2.22299e-06
2.03184e-06
-1.11268e-06
5.35362e-07
-2.43201e-06
1.12683e-06
-2.48858e-06
1.69899e-06
-2.42708e-06
2.24284e-06
-2.29654e-06
2.72682e-06
-2.05703e-06
3.15746e-06
-1.80805e-06
3.52186e-06
-1.55956e-06
3.79258e-06
-1.28877e-06
3.95489e-06
-9.96278e-07
4.01617e-06
-6.57594e-07
3.98817e-06
-2.93011e-07
3.87593e-06
7.51442e-08
3.66438e-06
4.10342e-07
3.34656e-06
7.30632e-07
2.93395e-06
1.04237e-06
2.47861e-06
1.34921e-06
2.07912e-06
1.64528e-06
1.84198e-06
1.91024e-06
1.70359e-06
2.12579e-06
1.4151e-06
2.27541e-06
7.85721e-07
2.3337e-06
-2.018e-07
2.35428e-06
2.39371e-06
-1.43984e-06
2.79929e-07
-1.60656e-08
4.59088e-07
-1.26538e-08
6.0896e-07
-9.56341e-09
7.39831e-07
-7.54546e-09
9.23965e-07
-2.13611e-08
1.11593e-06
-2.64466e-08
1.26237e-06
-2.1179e-08
1.34544e-06
-1.57794e-08
1.36959e-06
-1.37016e-08
1.36787e-06
-9.42824e-09
1.35225e-06
-4.77224e-09
1.31783e-06
0
1.24975e-06
0
1.14299e-06
0
1.00992e-06
1.56952e-10
8.77248e-07
1.65157e-09
7.65654e-07
1.96714e-08
6.69464e-07
8.78596e-09
5.42043e-07
0
3.72138e-07
2.72098e-10
1.27198e-07
5.44956e-11
-1.94582e-07
0
1.65681e-08
-5.48966e-07
1.61916e-09
-1.50116e-08
1.75905e-09
-1.01522e-08
1.44828e-09
-6.6351e-09
3.4643e-10
-3.86249e-09
1.24486e-09
-1.9642e-08
2.23334e-09
-2.47976e-08
2.74619e-09
-1.90022e-08
2.88051e-09
-1.31892e-08
3.09384e-09
-1.11744e-08
3.18914e-09
-6.78102e-09
3.12682e-09
-1.9809e-09
5.50546e-09
0
5.84772e-09
0
6.41118e-09
0
7.3147e-09
0
8.25307e-09
0
8.90133e-09
0
5.70281e-09
0
2.10444e-09
0
1.47839e-09
2.68365e-12
6.65287e-10
2.84919e-12
-7.52075e-10
0
1.02263e-08
-3.76577e-09
-3.07996e-09
-9.24585e-09
-2.38252e-09
-8.16151e-09
0
-2.41793e-09
-2.08701e-09
7.68358e-10
-3.38984e-09
-1.33719e-08
-8.23525e-09
-1.24355e-09
-8.35462e-09
-9.11425e-09
-4.55981e-09
-7.19761e-09
-4.21081e-09
-8.48251e-09
-2.01278e-09
-6.34265e-09
2.0265e-09
-3.38781e-09
5.13453e-09
-4.81616e-10
6.95107e-09
7.38531e-10
7.6157e-09
2.23365e-09
7.22682e-09
3.49406e-09
5.10892e-09
4.47916e-09
2.68292e-09
3.7771e-09
1.20173e-09
2.52564e-09
3.09729e-10
1.691e-09
-1.49425e-09
9.6791e-10
-3.4189e-09
1.16114e-09
-1.89396e-09
1.95485e-10
1.27105e-10
-1.13527e-09
-1.13874e-09
-1.98879e-09
-1.94603e-09
-1.92596e-09
-8.373e-11
-2.71665e-09
1.08047e-09
-8.25842e-10
3.6771e-10
-1.1139e-09
-7.63527e-10
-4.95654e-11
-1.28245e-09
-1.57043e-11
-1.36967e-09
-1.08328e-11
-1.5819e-09
-1.3902e-14
-1.51666e-09
-2.96274e-14
-1.16496e-09
-8.27202e-13
-8.02065e-10
-1.57802e-12
-5.65544e-10
0
-6.22632e-10
0
-8.34184e-10
0
-1.27005e-09
0
-3.09365e-09
0
-4.37566e-09
0
-3.92487e-09
1.89852e-09
-3.61364e-09
1.77419e-10
-3.19048e-09
0
-4.09463e-09
1.37268e-10
3.37179e-09
-4.94901e-09
-3.68061e-11
-5.93705e-15
-1.69023e-10
-1.89113e-14
-3.50313e-10
-8.55121e-14
1.4539e-10
-3.69311e-14
-1.86985e-11
-4.05869e-13
-7.88463e-14
-5.68804e-12
-2.83239e-14
-1.57235e-11
-1.54888e-14
-1.08457e-11
-1.74756e-14
-1.19852e-14
-2.20385e-14
-2.51344e-14
-2.7858e-14
-8.21495e-13
-4.09262e-13
-1.20389e-12
-1.60054e-12
0
-3.67703e-12
1.93074e-13
-6.62524e-12
0
-1.1093e-10
0
-9.47817e-10
0
-1.38894e-09
0
-5.04144e-10
3.2544e-10
-4.27373e-10
0
-1.80706e-09
7.64763e-11
-2.42438e-09
1.2381e-10
0
-8.53531e-10
-2.2242e-16
-8.67976e-15
-7.23708e-16
-2.11674e-14
-1.93886e-15
-8.68065e-14
-3.18275e-15
-3.78873e-14
-4.02452e-13
-5.20952e-15
-1.46484e-11
-1.81057e-13
-9.37707e-12
-2.09815e-12
-4.34137e-14
-4.96398e-12
-4.72712e-14
-8.19767e-15
-5.28685e-14
-1.96495e-14
-7.8206e-12
-1.00806e-12
-1.19217e-11
5.94082e-14
-2.89259e-12
4.21998e-12
-3.05871e-13
2.57946e-14
0
5.91647e-13
-7.51382e-10
1.40346e-10
-7.79741e-10
2.83054e-10
-5.33898e-10
1.11486e-11
-2.76335e-10
1.36955e-12
-4.28778e-10
1.70039e-10
-6.17075e-10
3.26282e-11
-1.07646e-10
5.23669e-11
0
-6.91878e-11
-6.50217e-17
-4.95879e-15
-8.76426e-15
-4.38965e-14
-3.21606e-14
-9.29067e-14
0
-3.14163e-14
0
-5.67596e-16
-2.72867e-12
-4.4885e-15
-6.7502e-12
-5.01012e-16
-1.08138e-13
-3.01255e-14
-1.09657e-13
-6.77163e-15
-1.22447e-12
-5.51314e-15
-2.31907e-11
-2.21269e-13
-2.1554e-11
2.59006e-12
-1.48661e-12
4.51742e-12
-1.49873e-12
1.26279e-14
0
4.6921e-13
-2.77856e-10
3.62327e-11
-3.24069e-10
7.46385e-12
-3.07886e-10
0
-4.43191e-10
7.08356e-11
-2.95725e-10
2.14426e-10
-5.24118e-11
0
-8.2194e-13
6.6685e-13
2.35472e-13
-1.24516e-12
-4.05542e-15
-5.77375e-15
-4.2046e-14
-1.29579e-13
-1.33623e-13
-1.45444e-13
-1.52367e-15
-3.76526e-14
-1.84245e-15
-2.51565e-16
-1.55144e-15
-7.41149e-17
-1.93595e-15
-1.1957e-16
-3.17502e-14
-3.14205e-16
0
0
-2.06038e-12
6.88918e-14
-2.01382e-11
8.62181e-13
-1.75505e-11
4.16985e-12
-1.253e-12
1.79971e-12
-1.25443e-12
9.41939e-15
-7.79481e-12
5.51601e-13
-8.0399e-13
0
-7.74087e-13
1.46753e-14
-1.35791e-11
0
-7.08472e-11
0
-3.33217e-11
0
-6.53057e-13
1.73321e-12
-1.48319e-13
7.23725e-14
4.63171e-14
-1.01586e-13
-1.66553e-14
-3.51245e-15
-8.2461e-14
-7.55754e-14
-5.66808e-14
-4.69623e-14
-9.6837e-16
-9.68399e-15
-1.25569e-15
3.29782e-17
-1.49888e-15
1.66319e-16
-1.85146e-15
2.3023e-16
-1.00502e-13
9.83192e-14
-2.91397e-12
2.39606e-13
-3.04894e-12
1.39502e-12
-1.17956e-11
5.80708e-13
-3.74815e-12
9.46263e-13
-1.54952e-13
3.19842e-16
-1.51898e-13
6.29673e-15
-6.66603e-14
0
-4.67677e-14
5.96347e-15
-1.16625e-13
1.51213e-14
-2.09433e-12
2.47677e-12
-2.68828e-12
5.18499e-12
-2.61696e-13
0
-1.06042e-13
1.48834e-12
-1.84494e-13
6.16153e-14
1.14305e-13
-2.45987e-13
-3.28538e-16
-1.23237e-16
-5.36359e-14
-2.33178e-16
-6.61732e-14
-4.33661e-15
-1.1983e-15
8.66589e-16
-1.44465e-15
2.76564e-16
-1.68743e-15
4.063e-16
-4.40194e-15
2.92665e-15
-6.47247e-12
1.34588e-12
-7.14722e-12
1.93297e-12
-6.79688e-12
2.0628e-12
-9.64528e-13
4.9449e-13
-1.71e-14
4.632e-15
-1.13096e-14
3.23886e-16
-1.06307e-14
5.63886e-15
-1.64918e-15
0
-6.39358e-15
5.40004e-16
0
1.36604e-14
-1.74508e-11
9.172e-12
-2.41192e-11
1.19181e-11
-2.61391e-11
1.0838e-11
-4.99796e-12
1.07922e-11
-1.65607e-13
4.61425e-13
3.91466e-14
-7.98376e-14
-1.97624e-16
-6.75721e-15
-1.36204e-15
-5.90035e-15
-1.22006e-15
4.60971e-16
-1.46162e-15
1.98496e-16
-4.51028e-16
7.81636e-16
-9.42449e-16
8.46178e-16
-1.24792e-12
7.68625e-14
-5.76177e-12
1.23541e-12
-5.33582e-12
2.52513e-12
-2.38106e-12
7.75628e-13
-1.64143e-14
3.44815e-14
-8.90536e-15
2.86523e-15
-6.14536e-15
3.26834e-15
-5.23754e-16
2.38441e-15
-5.6273e-17
1.99839e-16
-7.80751e-16
5.12092e-16
-2.97367e-12
1.8556e-13
-2.18141e-11
6.18721e-12
-2.09276e-11
1.10983e-11
-2.00623e-11
1.00371e-11
-1.226e-11
6.73473e-12
-7.34166e-14
6.97463e-13
3.37121e-14
-5.7229e-14
-2.20807e-14
-4.98235e-15
-2.32722e-16
2.78858e-14
-3.64111e-16
1.41617e-16
-8.18289e-16
2.02287e-16
0
1.20215e-15
0
7.58635e-15
-7.27576e-13
9.9907e-14
-2.27977e-12
0
-1.05074e-12
1.23983e-15
-3.97992e-14
0
-8.63416e-15
5.8942e-16
-6.50057e-15
3.69215e-15
-2.49784e-15
4.20517e-15
-2.71542e-16
9.30287e-16
-2.31321e-16
1.64566e-16
0
1.64937e-16
0
4.10567e-16
-3.26212e-12
0
-1.28436e-11
7.00756e-13
-1.20057e-11
3.01136e-12
-8.01448e-13
0
-8.95e-14
2.15189e-14
2.92393e-14
-4.90028e-14
-9.50836e-14
4.23694e-14
-3.11282e-14
1.33565e-13
-5.43386e-16
9.72653e-16
-1.06717e-15
2.74157e-16
-1.7817e-15
2.85673e-15
-6.16615e-14
1.57429e-14
-3.42628e-15
5.11293e-15
-1.63513e-15
0
-3.34907e-16
3.23438e-19
-6.65505e-16
0
-3.68312e-15
8.62795e-16
-3.7153e-15
1.84533e-15
-8.62605e-16
1.24913e-15
-2.06747e-16
1.40202e-16
-1.89159e-16
1.54272e-16
-2.34241e-16
1.54105e-16
-4.26926e-16
1.19599e-16
-1.05942e-14
1.05565e-16
-2.8044e-13
6.36028e-17
-8.44418e-15
0
-3.5619e-14
0
-7.81574e-14
2.55731e-14
4.99705e-14
-3.87726e-14
-1.38334e-13
1.86928e-13
-2.42853e-14
1.89084e-13
-1.54886e-15
5.53071e-15
-2.07066e-15
3.39885e-16
-8.31214e-15
3.4738e-15
-7.92157e-15
3.42074e-15
-3.92277e-16
0
-8.15435e-17
7.6991e-17
-6.53081e-17
4.33147e-17
-2.46801e-16
1.87553e-17
-6.7568e-16
1.14854e-16
-4.84624e-16
1.11748e-16
-9.98053e-17
3.47659e-17
-1.27096e-16
2.6396e-17
-1.49444e-16
1.03341e-16
-1.60936e-16
1.2374e-16
-1.549e-16
1.33951e-16
-1.64372e-16
1.2016e-16
-2.16644e-16
7.06452e-17
-2.55011e-16
9.99345e-18
-6.36055e-15
1.13108e-16
-3.85329e-14
3.68951e-15
8.06683e-15
-1.27721e-14
-1.40723e-13
3.27996e-13
-5.75421e-15
2.03319e-13
-2.64622e-16
5.67158e-17
-1.5782e-15
4.19113e-16
-1.81938e-15
1.19167e-15
-1.52142e-16
3.08857e-16
-9.99319e-17
2.98319e-17
-5.31635e-17
8.46737e-17
-1.11855e-17
2.07648e-17
-2.24454e-17
2.13143e-18
-2.05483e-17
1.31375e-18
-4.66643e-18
6.50075e-19
-6.01466e-18
4.47542e-18
-3.60663e-17
2.30172e-18
-8.67441e-17
3.02084e-17
-1.37941e-16
8.29962e-17
-1.59038e-16
1.32174e-16
-1.49146e-16
1.33531e-16
-1.27194e-16
1.07321e-16
-7.60919e-17
6.84215e-17
-1.33156e-16
3.6642e-17
-2.85063e-16
0
0
-7.56554e-16
-9.57866e-14
4.241e-13
-1.56886e-16
2.83998e-13
-1.41983e-16
5.76331e-17
-4.10981e-16
1.65027e-16
-2.23137e-16
2.23905e-16
-3.04615e-17
4.41396e-17
-3.08224e-17
1.39376e-17
-1.14933e-17
1.37664e-17
-4.91208e-19
2.51792e-18
-1.19405e-19
3.03479e-19
-6.7301e-20
9.20667e-20
5.54192e-19
2.74661e-20
-3.9924e-19
-5.45777e-19
-1.94095e-18
3.90979e-19
-2.14854e-17
1.29852e-18
-6.55762e-17
1.5966e-17
-8.9474e-17
4.32195e-17
-8.51913e-17
5.21167e-17
-7.55404e-17
4.74144e-17
-5.56475e-17
3.82465e-17
-2.25807e-17
2.40776e-17
-1.63788e-17
5.53799e-18
2.46117e-18
-6.89989e-17
-1.20175e-13
5.44517e-13
-7.80068e-17
4.50709e-13
-7.04838e-17
6.59681e-17
-7.25588e-17
7.43037e-17
-3.94769e-17
7.26584e-17
-6.87799e-18
2.07662e-17
-3.05913e-18
1.0276e-18
-7.49544e-19
2.4633e-18
1.75799e-18
1.03552e-20
2.55506e-18
-2.01143e-18
2.67769e-18
-2.82226e-18
2.33635e-18
-2.88539e-18
1.37176e-18
-2.47435e-18
-7.94815e-20
-1.43314e-18
-7.14361e-19
8.18585e-20
-5.71039e-18
2.48025e-18
-1.08722e-17
9.95795e-19
-1.29509e-17
1.8141e-18
-1.25024e-17
2.15877e-18
-1.15676e-17
2.35329e-18
-7.69873e-18
2.46623e-18
-3.56268e-18
1.66463e-18
5.8107e-19
-2.28017e-18
-1.16082e-13
6.60772e-13
-6.059e-17
7.62135e-13
-5.26778e-17
7.38878e-17
-3.6066e-17
7.3586e-17
-1.99492e-17
7.26749e-17
-4.39349e-19
1.94179e-17
4.69004e-19
1.31689e-20
1.6549e-18
-6.64434e-19
2.68982e-18
-2.18748e-18
3.18566e-18
-3.36824e-18
3.13576e-18
-3.82653e-18
2.73834e-18
-3.64905e-18
2.1094e-18
-3.10918e-18
1.37197e-18
-2.34597e-18
6.11567e-19
-1.49491e-18
-4.35983e-20
-6.50549e-19
-8.95875e-20
4.49624e-20
-1.62393e-19
1.36235e-19
-2.06825e-19
1.88593e-19
-2.50637e-19
2.15088e-19
-3.14522e-19
2.40164e-19
-3.21181e-19
2.58343e-19
3.0806e-20
-3.07662e-19
-1.10967e-13
7.71912e-13
-6.094e-17
6.51581e-13
-5.24891e-17
8.12957e-17
-3.93621e-17
8.1501e-17
-1.8546e-17
1.01404e-16
1.0815e-19
2.03902e-17
8.78899e-19
-1.86974e-19
1.75029e-18
-1.38136e-18
2.34622e-18
-2.55048e-18
2.58106e-18
-3.2188e-18
2.49358e-18
-3.37503e-18
2.19776e-18
-3.13798e-18
1.79045e-18
-2.68037e-18
1.3557e-18
-2.12502e-18
9.53049e-19
-1.5675e-18
6.16901e-19
-1.07121e-18
4.0169e-19
-6.70631e-19
2.61877e-19
-4.19222e-19
1.62183e-19
-2.60057e-19
8.77295e-20
-1.51734e-19
3.00925e-20
-7.63952e-20
-4.15663e-22
-2.39354e-20
2.91396e-22
-7.28167e-22
-1.00614e-13
8.72699e-13
-6.9794e-17
4.34022e-13
-6.06639e-17
8.80386e-17
-6.68106e-17
1.64727e-16
-2.06439e-17
2.26961e-16
-9.60257e-19
2.75494e-17
3.48582e-19
1.35937e-18
9.225e-19
-6.1086e-19
1.33109e-18
-1.4898e-18
1.50308e-18
-2.01167e-18
1.48855e-18
-2.15182e-18
1.34323e-18
-2.03793e-18
1.12515e-18
-1.77103e-18
8.84121e-19
-1.43505e-18
6.57851e-19
-1.09273e-18
4.67856e-19
-7.87121e-19
3.22248e-19
-5.39957e-19
2.17273e-19
-3.56572e-19
1.42822e-19
-2.28618e-19
9.00238e-20
-1.41389e-19
5.27359e-20
-8.26e-20
2.78131e-20
-4.37567e-20
-1.99215e-20
1.32338e-20
-7.07402e-14
1.71194e-13
-1.34342e-16
4.2441e-16
-1.24624e-16
9.424e-17
-1.15002e-16
4.78415e-16
-2.9366e-17
4.16338e-16
-4.40742e-18
5.23794e-17
-2.21541e-18
1.10074e-17
-8.695e-19
5.99334e-18
1.95778e-19
2.68475e-18
4.81328e-19
-3.29097e-19
6.08848e-19
-7.61976e-19
6.17332e-19
-9.16322e-19
5.52773e-19
-8.89555e-19
4.53145e-19
-7.66276e-19
3.47275e-19
-6.05758e-19
2.51836e-19
-4.47659e-19
1.74165e-19
-3.12267e-19
1.16245e-19
-2.06711e-19
7.56564e-20
-1.31057e-19
4.79477e-20
-8.01187e-20
2.91365e-20
-4.68624e-20
1.64026e-20
-2.54867e-20
-1.20795e-20
8.28248e-21
-1.4931e-16
2.76725e-16
-6.04447e-17
2.8102e-16
-1.79569e-16
5.49556e-16
-1.89085e-16
7.798e-16
-4.20886e-17
5.29755e-16
-1.21529e-17
9.28262e-17
-9.08644e-18
3.64016e-17
-6.40639e-18
2.6739e-17
-3.34193e-18
1.66773e-17
-1.15793e-18
7.78801e-18
1.66931e-20
2.63818e-18
1.67085e-19
-2.80338e-20
2.03834e-19
-2.67242e-19
1.87483e-19
-3.12097e-19
1.51418e-19
-2.75633e-19
1.12673e-19
-2.13931e-19
7.78921e-20
-1.52768e-19
5.09253e-20
-1.00958e-19
3.20442e-20
-6.26616e-20
1.95847e-20
-3.70032e-20
1.15669e-20
-2.08066e-20
6.39617e-21
-1.08858e-20
-4.90346e-21
3.09581e-21
-2.23738e-17
3.00166e-16
-9.88449e-17
3.03182e-16
-1.75784e-16
8.37505e-16
-1.38089e-16
9.00425e-16
-4.91433e-17
5.56807e-16
-2.28251e-17
1.33215e-16
-1.95383e-17
7.70334e-17
-1.55894e-17
6.15547e-17
-9.92859e-18
4.24851e-17
-4.76057e-18
2.37655e-17
-1.60631e-18
1.01527e-17
-2.5217e-19
3.09889e-18
4.22361e-20
5.07117e-19
6.20605e-20
-7.30037e-20
5.55693e-20
-1.0265e-19
4.3449e-20
-8.81186e-20
3.01261e-20
-6.60444e-20
1.91562e-20
-4.37859e-20
1.14369e-20
-2.64713e-20
6.50996e-21
-1.48647e-20
3.53884e-21
-7.79267e-21
1.79323e-21
-3.72841e-21
-1.47163e-21
7.57833e-22
-1.85415e-17
3.20919e-16
-8.70636e-17
3.1707e-16
-1.4897e-16
8.65129e-16
-1.43089e-16
9.12114e-16
-4.67961e-17
4.71782e-16
-3.18673e-17
1.6046e-16
-2.89762e-17
1.21582e-16
-2.43607e-17
1.00952e-16
-1.72277e-17
7.27899e-17
-9.3547e-18
4.50116e-17
-3.57501e-18
2.11097e-17
-8.09742e-19
6.88759e-18
-6.02253e-20
1.31115e-18
1.6481e-20
8.29327e-20
1.7562e-20
-3.16337e-20
1.47427e-20
-3.23031e-20
1.02438e-20
-2.60326e-20
6.27334e-21
-1.73646e-20
3.48837e-21
-1.01826e-20
1.78126e-21
-5.3844e-21
8.22265e-22
-2.57131e-21
3.22537e-22
-1.06108e-21
-3.1056e-22
6.82041e-23
-1.44969e-17
3.37627e-16
-5.54466e-17
2.70829e-16
-9.02525e-17
5.186e-16
-7.76983e-17
5.26492e-16
-3.64101e-17
2.73535e-16
-3.38849e-17
1.68233e-16
-3.31893e-17
1.51525e-16
-2.88106e-17
1.34525e-16
-2.17156e-17
9.97833e-17
-1.27272e-17
6.52252e-17
-4.97708e-18
3.20251e-17
-1.05725e-18
1.01603e-17
-7.98788e-20
1.61687e-18
3.62709e-21
9.64344e-20
4.94508e-21
-8.43838e-21
4.44295e-21
-1.10617e-20
3.05961e-21
-9.60834e-21
1.77663e-21
-6.43212e-21
8.91414e-22
-3.65324e-21
3.79282e-22
-1.808e-21
1.19676e-22
-7.70421e-22
5.33219e-24
-2.54951e-22
-3.06555e-23
-6.28997e-23
-9.01618e-18
4.94507e-16
-1.66326e-17
2.29018e-16
-2.32269e-17
2.6012e-16
-2.54517e-17
2.53429e-16
-2.5712e-17
1.92308e-16
-2.76029e-17
1.70213e-16
-2.89631e-17
1.57248e-16
-2.76074e-17
1.49004e-16
-2.1634e-17
1.19401e-16
-1.31545e-17
7.8937e-17
-5.00325e-18
3.91231e-17
-8.71935e-19
1.13881e-17
-5.03074e-20
1.59439e-18
7.00616e-22
6.97419e-20
1.27869e-21
-2.10904e-21
1.18446e-21
-3.74212e-21
7.81723e-22
-3.41735e-21
4.07527e-22
-2.26844e-21
1.65289e-22
-1.23128e-21
4.05741e-23
-5.62182e-22
-1.89971e-23
-2.08184e-22
-4.53214e-23
-4.85987e-23
3.19279e-24
-4.52937e-23
-6.87537e-18
1.6446e-15
-1.09704e-17
2.30742e-16
-1.33545e-17
2.59995e-16
-1.50898e-17
2.53053e-16
-1.72385e-17
1.92417e-16
-1.88969e-17
1.64851e-16
-2.09379e-17
1.58327e-16
-2.1054e-17
1.50577e-16
-1.72789e-17
1.2599e-16
-1.05815e-17
8.38311e-17
-3.7422e-18
4.0564e-17
-5.46899e-19
1.1323e-17
-1.80303e-20
1.24247e-18
1.06571e-22
2.44665e-20
2.90958e-22
-4.63533e-22
2.60435e-22
-1.26792e-21
1.50621e-22
-1.18117e-21
5.75864e-23
-7.63359e-22
5.871e-24
-3.90576e-22
-2.51329e-23
-1.62658e-22
-3.2898e-23
-5.06162e-23
-2.84227e-23
-5.11984e-24
2.54134e-24
-2.07484e-23
-7.38266e-17
6.1805e-15
-1.33418e-15
1.24091e-13
-2.51285e-15
1.48081e-12
-8.21759e-18
1.40906e-12
-1.02619e-17
1.92391e-16
-1.02635e-17
1.62675e-16
-1.2031e-17
1.53222e-16
-1.15657e-17
1.51285e-16
-1.04376e-17
1.26368e-16
-6.37543e-18
8.4029e-17
-2.09912e-18
4.03801e-17
-2.11996e-19
9.72586e-18
-3.13983e-21
6.41202e-19
4.28775e-24
5.05803e-21
4.9641e-23
-3.41643e-23
3.51063e-23
-4.38451e-22
8.9796e-24
-4.0334e-22
-1.17256e-23
-2.48066e-22
-2.24138e-23
-1.17953e-22
-2.24962e-23
-4.40053e-23
-1.78118e-23
-1.06067e-23
-1.22518e-23
3.97907e-25
1.10869e-24
-7.66198e-24
0
9.52757e-15
-1.86093e-14
9.97674e-13
-2.5416e-14
3.31696e-12
-1.3302e-14
2.99104e-12
-1.64357e-18
8.0678e-13
-3.96985e-18
1.63313e-16
-3.26317e-18
1.50995e-16
-3.76786e-18
1.4987e-16
-3.39776e-18
1.22512e-16
-2.06492e-18
8.02115e-17
-5.55178e-19
3.46782e-17
-3.2003e-20
6.25071e-18
-1.77457e-22
2.32814e-19
1.83102e-26
7.74168e-22
-2.22792e-27
-8.26547e-25
-6.2532e-24
-1.58483e-22
-1.39231e-23
-1.3681e-22
-1.66096e-23
-7.8399e-23
-1.4607e-23
-3.40995e-23
-1.08479e-23
-1.1131e-23
-7.20221e-24
-1.71626e-24
-4.37147e-24
3.07819e-25
3.69179e-25
-2.4686e-24
3.45425e-15
9.42489e-15
2.70587e-14
1.10073e-12
8.48541e-14
3.28884e-12
8.68058e-14
3.01909e-12
0
1.12527e-12
8.87198e-18
2.60717e-16
4.70348e-18
1.48974e-16
4.39841e-18
1.43094e-16
3.05351e-18
1.12471e-16
1.58977e-18
6.82946e-17
4.4228e-19
2.45151e-17
3.12387e-20
3.00848e-18
2.36513e-22
6.01231e-20
2.50864e-23
8.98861e-23
-4.224e-25
-4.46032e-24
-8.49358e-24
-5.90052e-23
-1.04203e-23
-4.59891e-23
-9.0443e-24
-2.41294e-23
-6.44442e-24
-9.45421e-24
-4.13469e-24
-2.62354e-24
-2.43311e-24
-1.21855e-25
-1.33226e-24
1.1611e-25
9.99086e-26
-6.80638e-25
3.60462e-15
9.17021e-15
5.29122e-14
5.6987e-13
2.04299e-13
3.16722e-12
2.1354e-13
3.03993e-12
0
6.81664e-13
1.90301e-17
4.89267e-16
1.21862e-17
1.49629e-16
1.15021e-17
1.32825e-16
7.7456e-18
9.70515e-17
3.60868e-18
5.14066e-17
7.08137e-19
1.3967e-17
2.49493e-20
1.02033e-18
7.19941e-23
9.53483e-21
6.15343e-24
6.60826e-24
-1.85797e-24
-1.04779e-23
-5.27683e-24
-2.22026e-23
-5.16311e-24
-1.52196e-23
-3.78409e-24
-7.20051e-24
-2.33517e-24
-2.50156e-24
-1.32874e-24
-5.66687e-25
-6.99649e-25
1.07309e-26
-3.45737e-25
3.21787e-26
2.22539e-26
-1.59253e-25
6.40639e-15
9.19331e-15
1.23369e-13
2.19733e-14
2.45557e-13
6.92953e-13
1.04436e-13
3.83036e-13
0
2.50593e-15
0
5.03632e-16
1.8027e-17
1.56428e-16
1.56499e-17
1.19974e-16
9.55222e-18
7.60847e-17
3.53997e-18
3.26389e-17
4.15454e-19
5.78816e-18
6.32739e-21
2.03214e-19
6.6034e-24
7.16943e-22
6.12894e-25
2.1991e-25
-1.69691e-24
-6.86446e-24
-2.59586e-24
-8.2163e-24
-2.12006e-24
-4.90001e-24
-1.34177e-24
-2.05828e-24
-7.23955e-25
-6.24439e-25
-3.64737e-25
-1.11128e-25
-1.7176e-25
5.10638e-27
-7.58514e-26
7.01681e-27
4.04817e-27
-3.11963e-26
1.26471e-15
1.22822e-14
1.74195e-15
3.1046e-15
1.67036e-14
0
2.31416e-15
0
5.68986e-17
6.55674e-17
4.4449e-17
3.3013e-16
2.38192e-17
1.76283e-16
1.58966e-17
1.00686e-16
8.20453e-18
5.0881e-17
2.08802e-18
1.54052e-17
1.16185e-19
1.42507e-18
6.09659e-22
1.84941e-20
2.03947e-25
2.07798e-23
2.75678e-26
1.07484e-25
-1.00434e-24
-3.32781e-24
-1.11171e-24
-2.96382e-24
-7.61538e-25
-1.52037e-24
-4.13937e-25
-5.57555e-25
-1.93649e-25
-1.45659e-25
-8.52799e-26
-1.98305e-26
-3.55253e-26
1.27693e-27
-1.38406e-26
1.21579e-27
5.90126e-28
-5.0097e-27
1.47238e-15
1.19861e-14
8.4956e-16
7.43446e-15
2.62634e-16
1.14827e-15
1.22762e-16
6.49083e-16
7.85916e-17
4.57999e-16
5.69361e-17
3.22691e-16
2.60757e-17
1.58069e-16
1.28764e-17
6.95996e-17
4.76052e-18
2.52589e-17
6.55494e-19
4.31744e-18
1.31682e-20
1.56223e-19
1.96597e-23
6.03806e-22
2.04192e-24
2.32071e-25
-9.04092e-26
-3.06723e-25
-5.11999e-25
-1.50669e-24
-4.32726e-25
-1.04747e-24
-2.45544e-25
-4.54499e-25
-1.12436e-25
-1.42534e-25
-4.45647e-26
-3.14726e-26
-1.68056e-26
-3.26923e-27
-6.08341e-27
2.25986e-28
-2.05362e-27
1.65633e-28
6.7068e-29
-6.41332e-28
1.73094e-15
7.71284e-15
1.49108e-15
7.70567e-15
6.42159e-16
4.0637e-15
3.18208e-16
2.21972e-15
1.42989e-16
1.00287e-15
5.26497e-17
3.52972e-16
1.98715e-17
1.14292e-16
7.03821e-18
3.46483e-17
1.52133e-18
7.26052e-18
8.34898e-20
5.12596e-19
4.76856e-22
5.54308e-21
2.04095e-25
6.33e-24
3.41869e-26
1.16692e-25
-1.55353e-25
-4.86232e-25
-2.37442e-25
-6.56912e-25
-1.56909e-25
-3.64826e-25
-7.26474e-26
-1.32034e-25
-2.72541e-26
-3.4574e-26
-8.83543e-27
-6.29766e-27
-2.76146e-27
-5.10877e-28
-8.4529e-28
2.9885e-29
-2.40909e-28
1.7355e-29
5.71865e-30
-6.31393e-29
1.07615e-15
1.18682e-15
1.73001e-15
3.434e-15
9.96909e-16
3.9181e-15
4.84717e-16
2.32387e-15
1.78389e-16
1.04856e-15
4.81759e-17
3.41364e-16
1.07952e-17
6.83897e-17
2.05381e-18
1.04433e-17
1.87825e-19
8.52209e-19
3.09303e-21
1.76757e-20
4.69944e-24
5.21855e-23
6.73102e-25
2.59997e-26
-1.85426e-28
-6.00072e-28
-1.04156e-25
-3.13733e-25
-1.01654e-25
-2.75909e-25
-5.39949e-26
-1.26074e-25
-2.01597e-26
-3.77782e-26
-6.00899e-27
-8.07411e-27
-1.5222e-27
-1.17713e-27
-3.75549e-28
-7.70564e-29
-9.31979e-29
2.99793e-30
-2.15569e-29
1.35578e-30
3.45388e-31
-4.551e-30
1.27417e-16
8.58564e-18
6.85298e-16
2.55606e-16
7.77426e-16
1.08882e-15
4.58037e-16
1.16498e-15
1.63309e-16
6.70844e-16
3.31937e-17
1.99242e-16
3.60727e-18
2.56761e-17
2.41758e-19
1.45549e-18
6.21285e-21
2.97235e-20
2.68293e-23
1.47138e-22