/*--------------------------------*- C++ -*----------------------------------*\
  =========                 |
  \\      /  F ield         | OpenFOAM: The Open Source CFD Toolbox
   \\    /   O peration     | Website:  https://openfoam.org
    \\  /    A nd           | Version:  9
     \\/     M anipulation  |
\*---------------------------------------------------------------------------*/
FoamFile
{
    format      ascii;
    class       volScalarField;
    location    "0.82";
    object      k;
}
// * * * * * * * * * * * * * * * * * * * * * * * * * * * * * * * * * * * * * //

dimensions      [0 2 -2 0 0 0 0];

internalField   nonuniform List<scalar> 
2268
(
0.00323846
0.00522388
0.00746889
0.00951969
0.0113454
0.012967
0.0144161
0.0157095
0.0168556
0.0178607
0.0187326
0.0194833
0.020127
0.0206825
0.0212024
0.0216394
0.0219395
0.022022
0.0217272
0.0207605
0.0184418
0.0135799
0.00529787
0.0054764
0.0108094
0.0157092
0.0201597
0.0240079
0.0273288
0.0302274
0.0327726
0.0350081
0.0369653
0.0386733
0.0401652
0.041476
0.0426316
0.0436446
0.044463
0.0450762
0.0453863
0.0451399
0.0437338
0.0397332
0.0303531
0.0119728
0.00681408
0.0142752
0.0206874
0.0264126
0.0313031
0.0354686
0.0390576
0.0421783
0.0449053
0.0472926
0.0493848
0.0512249
0.0528544
0.0543047
0.0555953
0.0567031
0.0576216
0.0582662
0.0583589
0.0571506
0.0527807
0.0414526
0.0168506
0.00774288
0.0168699
0.0245131
0.0312047
0.0368282
0.041551
0.0455764
0.049055
0.0520913
0.0547601
0.0571196
0.0592216
0.0611155
0.0628432
0.0644365
0.0659012
0.0672562
0.0684475
0.0692008
0.0686772
0.0646516
0.052326
0.0225328
0.00840949
0.0190344
0.0278129
0.035324
0.0415231
0.0466577
0.0509957
0.0547316
0.0579989
0.0608918
0.0634806
0.0658259
0.0679877
0.0700223
0.0719796
0.0739047
0.0758643
0.0778619
0.0796616
0.0803672
0.077381
0.0649145
0.031289
0.0088958
0.0209783
0.0308411
0.0390659
0.0457315
0.0511827
0.055757
0.0596923
0.0631492
0.0662394
0.0690442
0.0716337
0.0740814
0.0764636
0.0788603
0.0813696
0.0841374
0.0872723
0.0906476
0.0933935
0.0925983
0.081613
0.0472194
0.00926561
0.0228251
0.0337227
0.042568
0.0496125
0.0553101
0.0600684
0.064167
0.0677903
0.0710651
0.0740834
0.0769263
0.0796848
0.0824626
0.0853877
0.0886295
0.0924559
0.0971506
0.10281
0.108756
0.111991
0.105247
0.0748154
0.00958031
0.0246592
0.0365165
0.0458907
0.0532411
0.0591325
0.0640403
0.0682811
0.0720594
0.0755149
0.0787504
0.0818616
0.084962
0.0881923
0.0917532
0.0959088
0.101103
0.10788
0.11668
0.127147
0.136354
0.136876
0.116287
0.039513
0.0666968
0.0817065
0.0931901
0.103734
0.114058
0.124255
0.134626
0.143155
0.146956
0.14123
0.124202
0.10093
0.0792284
0.0651295
0.0572828
0.0503992
0.0372118
0.0166574
0.096393
0.154173
0.175082
0.190438
0.206887
0.224928
0.243463
0.260567
0.274416
0.282211
0.274218
0.245552
0.203218
0.16118
0.131128
0.112484
0.0968255
0.0725042
0.0256279
0.127028
0.207574
0.236309
0.25949
0.281415
0.301694
0.319876
0.335794
0.348589
0.354697
0.343573
0.308832
0.256536
0.202954
0.162873
0.1367
0.115099
0.0853567
0.034582
0.148496
0.248082
0.287715
0.31956
0.346814
0.369171
0.386392
0.39962
0.408774
0.410195
0.393726
0.354027
0.294934
0.232875
0.184927
0.152809
0.126552
0.093631
0.0408519
0.163125
0.279041
0.33223
0.374975
0.410538
0.437834
0.45446
0.463475
0.466495
0.45894
0.433199
0.387999
0.324391
0.256636
0.202929
0.166382
0.136402
0.10062
0.0455296
0.171207
0.300428
0.369093
0.425535
0.474172
0.511579
0.528873
0.531451
0.524188
0.502454
0.46561
0.414059
0.347245
0.276245
0.21899
0.179577
0.146511
0.107481
0.0497284
0.172119
0.310356
0.394541
0.46703
0.533595
0.586967
0.61047
0.602083
0.578137
0.541465
0.493381
0.435166
0.36552
0.292912
0.234463
0.193854
0.158124
0.115354
0.0544534
0.166136
0.306211
0.401293
0.4889
0.567347
0.631105
0.671436
0.667444
0.627683
0.578511
0.518187
0.452581
0.38036
0.307539
0.25049
0.210736
0.17322
0.125955
0.060601
0.0102157
0.0276313
0.0407844
0.0508387
0.0585696
0.0647042
0.0698139
0.0742633
0.078281
0.0820234
0.085613
0.0891764
0.0928738
0.0969148
0.101615
0.107453
0.115203
0.125857
0.140266
0.157997
0.17502
0.182673
0.172536
0.011904
0.0313433
0.0457645
0.0565136
0.0646129
0.0710011
0.0763762
0.0811467
0.0855529
0.0897634
0.0939434
0.0983085
0.103142
0.108823
0.115953
0.125578
0.139342
0.159279
0.186424
0.218001
0.245464
0.255983
0.250671
0.0145791
0.0350649
0.0507368
0.0619966
0.0702952
0.0768101
0.0823738
0.0874357
0.0922391
0.0969626
0.101848
0.107274
0.11374
0.121936
0.133044
0.149261
0.17391
0.210625
0.257666
0.302821
0.331148
0.326205
0.312272
0.0172808
0.0375617
0.0546789
0.0665597
0.0753421
0.0821183
0.0878868
0.0932535
0.0985074
0.103847
0.109661
0.116633
0.125632
0.137898
0.155885
0.18433
0.229576
0.29799
0.37209
0.407681
0.411442
0.380865
0.36769
0.0170337
0.0372463
0.0539965
0.0655846
0.0751756
0.0832324
0.0903337
0.096941
0.103377
0.110007
0.117545
0.127089
0.140056
0.158472
0.186569
0.233396
0.315187
0.432929
0.491947
0.486055
0.448499
0.412328
0.411171
0.0174936
0.0371805
0.0522956
0.0634888
0.0730609
0.0817801
0.0900434
0.0980784
0.106123
0.114688
0.124792
0.137929
0.156042
0.182092
0.221723
0.283995
0.374188
0.454109
0.489372
0.513903
0.459402
0.430073
0.434831
0.0183914
0.0384301
0.0520628
0.0625331
0.0716932
0.0803896
0.0890611
0.097905
0.107153
0.117409
0.129813
0.146067
0.168464
0.200219
0.245343
0.305189
0.370166
0.416752
0.449326
0.489172
0.467039
0.448947
0.457204
0.0192794
0.0400214
0.0528781
0.0627489
0.0713645
0.0795803
0.0879073
0.096716
0.106422
0.117589
0.13134
0.149319
0.173666
0.206919
0.250954
0.303249
0.352286
0.385997
0.425583
0.490491
0.491961
0.475892
0.482147
0.0199429
0.0414238
0.0540187
0.0635344
0.0717022
0.0793701
0.0871099
0.0953934
0.104749
0.115919
0.129847
0.147971
0.172022
0.203701
0.243547
0.288334
0.32904
0.359708
0.405529
0.497343
0.532196
0.511235
0.508213
0.020394
0.0424779
0.0550331
0.0643816
0.0722718
0.0795187
0.0866963
0.094318
0.102951
0.113351
0.126525
0.143586
0.165867
0.19444
0.229217
0.267375
0.302756
0.332311
0.375292
0.467083
0.561116
0.557665
0.539936
0.0206793
0.0431974
0.0557618
0.0650332
0.0727706
0.0797451
0.0864928
0.0935111
0.101356
0.110729
0.122537
0.137872
0.157659
0.182626
0.212501
0.245105
0.276324
0.304298
0.341066
0.415301
0.524141
0.598124
0.586362
0.0208231
0.0436046
0.0561568
0.0653798
0.0730356
0.0798534
0.0863172
0.0928759
0.100035
0.108423
0.118824
0.132142
0.149222
0.170645
0.19614
0.224147
0.251964
0.278122
0.309187
0.364295
0.458244
0.564691
0.631402
0.0208368
0.0437133
0.0562099
0.0653829
0.0729916
0.0797292
0.0860301
0.0922837
0.0989269
0.106498
0.115664
0.127184
0.141788
0.159965
0.181613
0.205727
0.230491
0.254719
0.281574
0.32188
0.388972
0.483905
0.57983
0.0207291
0.0435442
0.055939
0.0650467
0.0726182
0.0793181
0.0855389
0.0916148
0.0979113
0.104875
0.113057
0.123089
0.135592
0.151008
0.169367
0.19008
0.211985
0.234128
0.257699
0.288013
0.33322
0.397854
0.475436
0.0205107
0.0431271
0.0553784
0.0644003
0.071929
0.078607
0.0847942
0.0907789
0.0968634
0.10341
0.110864
0.11974
0.130556
0.143714
0.159334
0.177111
0.196325
0.216236
0.237041
0.260927
0.291889
0.333312
0.384823
0.0201955
0.0424989
0.0545719
0.0634865
0.0709582
0.0776115
0.0837821
0.0897228
0.0956847
0.10196
0.108901
0.116919
0.126439
0.137816
0.151214
0.16651
0.183269
0.200938
0.219295
0.238987
0.261604
0.288904
0.321732
0.0198004
0.0417015
0.0535685
0.0623558
0.0697522
0.0763665
0.0825165
0.088429
0.0943161
0.100413
0.107
0.114399
0.122952
0.13296
0.144602
0.157856
0.172472
0.188047
0.204235
0.221019
0.238814
0.258263
0.279899
0.0193436
0.0407785
0.0524195
0.0610626
0.0683644
0.0749195
0.0810323
0.0869107
0.0927382
0.0987081
0.105042
0.111993
0.119832
0.128805
0.139084
0.150701
0.163517
0.177248
0.191556
0.206186
0.221056
0.236231
0.251831
0.0188439
0.0397731
0.0511759
0.0596622
0.0668518
0.0733257
0.0793781
0.0852036
0.0909651
0.0968252
0.102963
0.109577
0.116881
0.125073
0.134304
0.144629
0.155978
0.168153
0.180871
0.193828
0.206773
0.219527
0.231987
0.0183202
0.0387269
0.0498869
0.0582082
0.0652711
0.0716432
0.0776106
0.0833585
0.0890355
0.0947825
0.100747
0.107089
0.113977
0.121569
0.129991
0.139305
0.14948
0.160379
0.171781
0.183408
0.194979
0.206245
0.217017
0.0177908
0.0376786
0.0485982
0.0567511
0.0636767
0.0699297
0.0757893
0.0814341
0.0870031
0.0926222
0.0984174
0.10452
0.111065
0.11818
0.12597
0.134491
0.143734
0.153607
0.16394
0.174503
0.185042
0.195308
0.2051
0.0172729
0.0366633
0.0473513
0.055337
0.0621189
0.0682393
0.0739719
0.0794907
0.0849282
0.0904004
0.0960187
0.101895
0.10814
0.11486
0.122141
0.130034
0.13854
0.147598
0.157079
0.166801
0.17655
0.186107
0.19529
0.0167823
0.0357121
0.0461825
0.054006
0.0606418
0.0666206
0.0722116
0.0775856
0.0828711
0.0881777
0.0936073
0.0992589
0.105229
0.111606
0.118464
0.12585
0.133772
0.142188
0.151003
0.160074
0.169228
0.178284
0.187085
0.0163329
0.0348511
0.0451223
0.052792
0.0592827
0.0651151
0.0705544
0.0757696
0.0808868
0.0860119
0.091241
0.0966651
0.102371
0.108438
0.114932
0.121899
0.129352
0.137263
0.145565
0.154147
0.162871
0.171591
0.180177
0.015936
0.0341014
0.0441955
0.0517223
0.058072
0.0637563
0.0690381
0.0740852
0.0790224
0.0839538
0.0889722
0.0941642
0.0996114
0.105388
0.111558
0.118166
0.125231
0.132743
0.140652
0.148874
0.157304
0.165821
0.174321
0.0156005
0.0334791
0.0434209
0.0508178
0.0570328
0.0625706
0.0676924
0.0725659
0.0773158
0.082045
0.086845
0.0918003
0.0969902
0.102488
0.108356
0.114643
0.121378
0.128561
0.136163
0.144122
0.152357
0.160773
0.16928
0.0153325
0.0329955
0.0428122
0.050094
0.0561822
0.0615771
0.0665394
0.0712372
0.0757955
0.0803173
0.0848937
0.0896083
0.0945401
0.0997623
0.105341
0.111329
0.117765
0.124663
0.132009
0.139766
0.147871
0.156248
0.164819
0.0151361
0.0326583
0.0423789
0.0495616
0.0555327
0.0607901
0.0655953
0.0701175
0.0744826
0.0787943
0.0831434
0.087614
0.0922852
0.0972319
0.102523
0.10822
0.114369
0.120998
0.128113
0.135693
0.143695
0.152058
0.160713
0.0150137
0.032473
0.0421284
0.0492294
0.0550941
0.0602206
0.0648724
0.0692207
0.0733927
0.0774928
0.0816124
0.0858358
0.0902428
0.0949101
0.0999108
0.105312
0.11117
0.117527
0.124405
0.131803
0.139696
0.148038
0.156766
0.0149673
0.0324447
0.0420678
0.0491059
0.0548762
0.0598794
0.0643825
0.0685591
0.0725387
0.0764266
0.0803149
0.0842878
0.0884259
0.0928073
0.097508
0.102601
0.108151
0.114215
0.120831
0.128016
0.135765
0.144047
0.152809
0.0149996
0.0325809
0.0422075
0.0492035
0.0548924
0.0597806
0.0641396
0.0681469
0.0719346
0.0756095
0.0792642
0.0829832
0.0868468
0.0909338
0.0953221
0.100089
0.105307
0.111043
0.117352
0.124268
0.13181
0.139969
0.148703
0.0151161
0.0328957
0.0425656
0.0495425
0.0551641
0.0599451
0.0641639
0.0680031
0.0715983
0.0750584
0.0784767
0.0819375
0.0855205
0.0893038
0.0933655
0.0977848
0.10264
0.108005
0.113952
0.120546
0.127822
0.135786
0.144409
0.0153272
0.0334137
0.0431731
0.0501564
0.0557245
0.0604047
0.0644848
0.0681546
0.0715545
0.0747963
0.0779742
0.081172
0.0844679
0.0879382
0.0916596
0.0957108
0.100172
0.10513
0.110674
0.116878
0.123798
0.131467
0.139877
0.0156508
0.034177
0.0440805
0.0510974
0.0566233
0.0612046
0.0651426
0.0686373
0.0718358
0.0748534
0.0777857
0.0807153
0.0837181
0.0868675
0.0902369
0.0939023
0.097948
0.102466
0.107548
0.113282
0.11975
0.127009
0.135082
0.0161166
0.0352523
0.0453646
0.0524396
0.0579268
0.0624016
0.0661859
0.0694935
0.0724802
0.0752658
0.0779466
0.0806036
0.0833093
0.0861326
0.0891425
0.0924114
0.096022
0.100062
0.104625
0.109813
0.115725
0.122446
0.130036
0.0167723
0.0367405
0.0471301
0.054274
0.0597077
0.0640526
0.0676597
0.0707612
0.0735227
0.0760683
0.0784943
0.0808784
0.0832878
0.0857848
0.0884327
0.0912992
0.0944571
0.0979885
0.101987
0.106557
0.111811
0.11786
0.1248
0.0176929
0.0387767
0.0494926
0.0566807
0.0620152
0.0661855
0.0695803
0.072452
0.0749761
0.0772796
0.0794568
0.0815792
0.0837044
0.0858848
0.0881761
0.0906373
0.0933335
0.0963384
0.099738
0.103633
0.10814
0.113386
0.119495
0.0189875
0.0414967
0.0525197
0.0596678
0.0648197
0.0687522
0.0718945
0.0745171
0.0768021
0.0788774
0.0808329
0.0827304
0.0846099
0.0865018
0.0884502
0.0905115
0.0927455
0.095217
0.0980001
0.101184
0.104877
0.109208
0.114317
0.0207827
0.0449284
0.0561246
0.0630843
0.0679461
0.0715771
0.0744382
0.0768094
0.0788754
0.0807636
0.0825619
0.0843216
0.0860496
0.0877161
0.0893505
0.0910227
0.0927988
0.0947378
0.0969009
0.0993596
0.102204
0.105546
0.109521
0.0231468
0.048826
0.0599561
0.0665578
0.0710391
0.0743344
0.076916
0.0790621
0.0809559
0.0827297
0.0844833
0.0862751
0.0880612
0.0896384
0.0910012
0.0922914
0.0936091
0.0950174
0.0965652
0.0983036
0.100297
0.102628
0.105405
0.025896
0.0525545
0.063367
0.0695102
0.0735967
0.076584
0.0789325
0.0809089
0.0826951
0.0844401
0.0862898
0.0883737
0.090625
0.092449
0.0935781
0.0944642
0.0953039
0.0961731
0.0971092
0.0981425
0.099309
0.100657
0.102252
0.0282859
0.055089
0.0654969
0.0712695
0.0750811
0.0778724
0.0800824
0.0819657
0.0837052
0.0854727
0.0874874
0.0900409
0.0932451
0.0965207
0.0973339
0.0977128
0.0980183
0.0983213
0.0986404
0.0989851
0.0993658
0.099797
0.1003
0.134379
0.118271
0.104463
0.115795
0.243678
0.238623
0.233578
0.229243
0.313376
0.318284
0.323072
0.321183
0.388667
0.415114
0.446816
0.461042
0.454986
0.49117
0.5134
0.54709
0.470847
0.501379
0.53074
0.554804
0.488944
0.514911
0.543573
0.569667
0.51062
0.53609
0.564276
0.592774
0.52624
0.54507
0.571023
0.602609
0.542615
0.551058
0.566233
0.588234
0.569967
0.565702
0.567652
0.575533
0.612029
0.597909
0.587309
0.581098
0.61963
0.628843
0.621241
0.606338
0.532608
0.565041
0.585352
0.595095
0.427927
0.459142
0.491355
0.522893
0.35006
0.372084
0.395921
0.420848
0.297802
0.311824
0.327014
0.343154
0.263835
0.273015
0.282777
0.293096
0.241015
0.247711
0.254659
0.26188
0.224589
0.23008
0.235672
0.241385
0.211937
0.216836
0.221779
0.226777
0.20174
0.20634
0.210972
0.215642
0.193341
0.197798
0.202296
0.206839
0.186365
0.190778
0.195248
0.19978
0.180533
0.184967
0.189477
0.194069
0.175579
0.180076
0.184668
0.189358
0.171239
0.175821
0.180512
0.185316
0.167264
0.171933
0.176724
0.181638
0.163435
0.168181
0.173058
0.178066
0.159568
0.16437
0.169312
0.174391
0.155509
0.160337
0.165317
0.170443
0.151203
0.156015
0.160991
0.166124
0.146585
0.151332
0.156259
0.161356
0.141614
0.146235
0.151055
0.156064
0.136277
0.140697
0.145335
0.150185
0.13061
0.134732
0.139092
0.143686
0.124709
0.128418
0.132378
0.13659
0.118758
0.121926
0.125343
0.129018
0.11303
0.115537
0.118268
0.121236
0.107876
0.109641
0.111577
0.113699
0.103671
0.10468
0.105789
0.107007
0.100743
0.101056
0.101398
0.101772
0.163329
0.275663
0.36597
0.450837
0.525503
0.592887
0.671878
0.732934
0.69633
0.628278
0.549073
0.472633
0.397885
0.327384
0.276604
0.240227
0.199822
0.143907
0.0691602
0.218719
0.271516
0.3221
0.36998
0.420339
0.487977
0.589524
0.712513
0.781841
0.703875
0.592297
0.498388
0.418942
0.354988
0.325026
0.300915
0.25882
0.187685
0.0881327
0.311406
0.323641
0.340304
0.36363
0.405504
0.479504
0.590761
0.73229
0.843189
0.769523
0.630651
0.52479
0.438657
0.380956
0.370736
0.360409
0.320569
0.236422
0.115346
0.448659
0.43752
0.425301
0.434773
0.482998
0.564053
0.665642
0.794386
0.880747
0.804178
0.65453
0.550059
0.458062
0.399254
0.386124
0.379351
0.348788
0.270308
0.118423
0.587439
0.592178
0.549435
0.552305
0.607986
0.678819
0.757612
0.858159
0.913224
0.813439
0.661345
0.565148
0.473818
0.413509
0.397492
0.392693
0.361159
0.284269
0.11129
0.586691
0.612276
0.61401
0.639689
0.701418
0.776859
0.853307
0.932049
0.954259
0.806543
0.654671
0.567522
0.487366
0.435983
0.429668
0.440601
0.409322
0.316685
0.141017
0.599358
0.641484
0.677553
0.723059
0.7869
0.868023
0.961296
1.01445
0.969066
0.77296
0.635616
0.562591
0.499907
0.466619
0.482236
0.535499
0.517045
0.376623
0.189893
0.630284
0.689024
0.741517
0.792198
0.851999
0.931154
1.02749
1.09419
0.889488
0.710885
0.60792
0.554351
0.513604
0.502865
0.547076
0.654808
0.632724
0.459093
0.242738
0.647988
0.71817
0.782799
0.843651
0.892391
0.949123
1.01188
0.968096
0.774827
0.648329
0.580034
0.543582
0.526003
0.540458
0.614431
0.697587
0.674764
0.577428
0.288404
0.627249
0.708987
0.789693
0.860217
0.901474
0.937555
0.927359
0.811769
0.682391
0.599226
0.556122
0.534993
0.538558
0.576828
0.670479
0.710133
0.766717
0.710877
0.313785
0.594135
0.647202
0.723417
0.806583
0.866133
0.876279
0.8119
0.703906
0.618135
0.564866
0.539642
0.533222
0.555666
0.621052
0.697039
0.759199
0.862448
0.766511
0.319422
0.5801
0.595751
0.63266
0.688159
0.751325
0.746687
0.689869
0.625019
0.573169
0.543163
0.530317
0.537855
0.579213
0.645717
0.70558
0.801795
0.896749
0.763444
0.314424
0.590689
0.57373
0.578543
0.598401
0.621351
0.624275
0.604904
0.573547
0.545005
0.529199
0.524375
0.544587
0.592076
0.644644
0.715129
0.813999
0.886663
0.72849
0.302365
0.598026
0.576043
0.555845
0.553208
0.55979
0.563267
0.566055
0.544268
0.52721
0.515768
0.520249
0.545729
0.587845
0.639259
0.712139
0.79524
0.843579
0.683116
0.28719
0.563225
0.564244
0.542641
0.532807
0.533704
0.529168
0.523137
0.513586
0.506173
0.505271
0.517114
0.542599
0.578714
0.628956
0.693913
0.755092
0.784169
0.636648
0.273804
0.461339
0.491639
0.494374
0.48972
0.495756
0.499888
0.50566
0.503297
0.497139
0.501047
0.515984
0.537017
0.567334
0.610836
0.660704
0.703122
0.720745
0.595893
0.263317
0.370896
0.39952
0.422035
0.44191
0.460154
0.471841
0.481141
0.487226
0.489974
0.498271
0.511459
0.526504
0.549581
0.582552
0.619156
0.649382
0.661758
0.566157
0.256239
0.311164
0.332725
0.354854
0.379923
0.406302
0.430071
0.450352
0.465882
0.477053
0.488248
0.498479
0.509
0.525598
0.550281
0.578292
0.601482
0.61008
0.545964
0.25485
0.274467
0.290445
0.308596
0.331827
0.359252
0.387943
0.41481
0.43726
0.454637
0.468325
0.478053
0.486624
0.499962
0.520321
0.543679
0.562929
0.568174
0.528413
0.262901
0.251211
0.263788
0.278474
0.297553
0.321916
0.349786
0.378199
0.404055
0.42552
0.441849
0.453172
0.462984
0.476414
0.495327
0.516752
0.534372
0.537669
0.503862
0.269907
0.235282
0.246042
0.258383
0.274045
0.294308
0.318813
0.345467
0.37149
0.394581
0.413267
0.427672
0.440685
0.456257
0.475798
0.49693
0.513933
0.515702
0.476224
0.267131
0.223555
0.23349
0.244556
0.258092
0.275218
0.296153
0.31983
0.344225
0.367201
0.387295
0.40461
0.421246
0.4397
0.46076
0.482255
0.498833
0.498763
0.452652
0.257946
0.214545
0.224243
0.234791
0.247193
0.262353
0.280637
0.301542
0.32376
0.345721
0.36633
0.385676
0.405185
0.426189
0.448737
0.470584
0.486515
0.484187
0.433265
0.246743
0.207496
0.217293
0.227784
0.239702
0.253721
0.27019
0.288896
0.309078
0.329758
0.350286
0.370792
0.392138
0.414852
0.438328
0.460104
0.47494
0.47023
0.416659
0.235309
0.201919
0.211992
0.222669
0.234472
0.247875
0.26315
0.280237
0.298744
0.318168
0.338239
0.359136
0.381328
0.404808
0.428467
0.449594
0.462859
0.455957
0.40171
0.223866
0.197402
0.207824
0.218787
0.23065
0.243729
0.258221
0.274136
0.291323
0.309611
0.328995
0.34969
0.37191
0.395322
0.418459
0.438387
0.449638
0.440689
0.386973
0.212462
0.193569
0.204346
0.215607
0.227587
0.240485
0.254435
0.269483
0.285625
0.302895
0.321451
0.341524
0.363166
0.385848
0.407874
0.426146
0.435111
0.424025
0.370544
0.201296
0.190087
0.201185
0.212712
0.224806
0.237582
0.251125
0.265498
0.280781
0.297123
0.314764
0.333927
0.354563
0.376011
0.396455
0.412699
0.419197
0.405962
0.352612
0.190342
0.186679
0.198051
0.209796
0.22198
0.234653
0.247865
0.261683
0.276228
0.291704
0.308375
0.326434
0.345758
0.365613
0.384127
0.398088
0.402094
0.386928
0.334081
0.179382
0.18313
0.194727
0.206649
0.218899
0.231479
0.24441
0.257753
0.271645
0.2863
0.301968
0.318798
0.336606
0.354618
0.370976
0.382539
0.384176
0.367447
0.315489
0.168516
0.179268
0.191053
0.203125
0.215433
0.227938
0.240632
0.253568
0.266872
0.280746
0.295402
0.310931
0.327097
0.34311
0.357194
0.36635
0.365818
0.347905
0.297149
0.158027
0.174973
0.1869
0.199115
0.211492
0.223954
0.236466
0.24906
0.261844
0.274984
0.288643
0.302848
0.317312
0.33123
0.34303
0.349841
0.347357
0.328603
0.279445
0.148216
0.170166
0.182177
0.194512
0.206988
0.219458
0.231857
0.244188
0.256528
0.269001
0.281709
0.294614
0.30739
0.319248
0.328768
0.33334
0.329128
0.309875
0.262912
0.139271
0.164753
0.176784
0.189208
0.201809
0.214354
0.226725
0.238892
0.250889
0.26279
0.274631
0.28631
0.297467
0.307345
0.31467
0.317174
0.31149
0.292118
0.247812
0.131148
0.158644
0.170594
0.183062
0.19578
0.20848
0.220933
0.233062
0.244852
0.256318
0.267426
0.278007
0.287668
0.295696
0.300951
0.30161
0.294726
0.275631
0.234054
0.123667
0.151761
0.163464
0.175872
0.188681
0.201578
0.214238
0.22649
0.238261
0.249494
0.260073
0.269751
0.278099
0.284458
0.287842
0.286827
0.278936
0.260379
0.221471
0.116654
0.144065
0.15525
0.167387
0.180166
0.193228
0.206222
0.218802
0.230815
0.24212
0.252492
0.261558
0.268844
0.273754
0.275478
0.272899
0.264104
0.246062
0.209607
0.110044
0.135612
0.14586
0.157332
0.169778
0.182853
0.196176
0.209305
0.221922
0.233783
0.244494
0.253412
0.259976
0.263688
0.26392
0.259808
0.250095
0.232257
0.197826
0.103915
0.126626
0.135359
0.14552
0.157012
0.169602
0.182967
0.196741
0.210387
0.223581
0.235695
0.245277
0.251613
0.254418
0.253308
0.247661
0.23668
0.218481
0.18566
0.0982584
0.117589
0.124148
0.13211
0.141585
0.152589
0.165054
0.178857
0.193757
0.209445
0.225382
0.237166
0.244013
0.246269
0.24399
0.236784
0.224112
0.204898
0.173896
0.0942731
0.109249
0.113137
0.118018
0.124119
0.131684
0.141021
0.152583
0.167174
0.186345
0.212637
0.229382
0.237722
0.23987
0.236715
0.228154
0.213856
0.193521
0.164365
0.091675
0.102455
0.103642
0.105141
0.107042
0.109478
0.112676
0.117131
0.124288
0.14088
0.198212
0.223163
0.233677
0.236132
0.232572
0.223217
0.207906
0.187097
0.16178
0.0924199
)
;

boundaryField
{
    leftWall
    {
        type            kqRWallFunction;
        value           nonuniform List<scalar> 
50
(
0.00323846
0.0054764
0.00681408
0.00774288
0.00840949
0.0088958
0.00926561
0.00958031
0.0102157
0.011904
0.0145791
0.0172808
0.0170337
0.0174936
0.0183914
0.0192794
0.0199429
0.020394
0.0206793
0.0208231
0.0208368
0.0207291
0.0205107
0.0201955
0.0198004
0.0193436
0.0188439
0.0183202
0.0177908
0.0172729
0.0167823
0.0163329
0.015936
0.0156005
0.0153325
0.0151361
0.0150137
0.0149673
0.0149996
0.0151161
0.0153272
0.0156508
0.0161166
0.0167723
0.0176929
0.0189875
0.0207827
0.0231468
0.025896
0.0282859
)
;
    }
    rightWall
    {
        type            kqRWallFunction;
        value           nonuniform List<scalar> 
50
(
0.0166574
0.0256279
0.034582
0.0408519
0.0455296
0.0497284
0.0544534
0.060601
0.0691602
0.0881327
0.115346
0.118423
0.11129
0.141017
0.189893
0.242738
0.288404
0.313785
0.319422
0.314424
0.302365
0.28719
0.273804
0.263317
0.256239
0.25485
0.262901
0.269907
0.267131
0.257946
0.246743
0.235309
0.223866
0.212462
0.201296
0.190342
0.179382
0.168516
0.158027
0.148216
0.139271
0.131148
0.123667
0.116654
0.110044
0.103915
0.0982584
0.0942731
0.091675
0.0924199
)
;
    }
    lowerWall
    {
        type            kqRWallFunction;
        value           nonuniform List<scalar> 
62
(
0.00323846
0.00522388
0.00746889
0.00951969
0.0113454
0.012967
0.0144161
0.0157095
0.0168556
0.0178607
0.0187326
0.0194833
0.020127
0.0206825
0.0212024
0.0216394
0.0219395
0.022022
0.0217272
0.0207605
0.0184418
0.0135799
0.00529787
0.00529787
0.0119728
0.0168506
0.0225328
0.031289
0.0472194
0.0748154
0.116287
0.134379
0.118271
0.104463
0.115795
0.039513
0.096393
0.127028
0.148496
0.163125
0.171207
0.172119
0.166136
0.039513
0.0666968
0.0817065
0.0931901
0.103734
0.114058
0.124255
0.134626
0.143155
0.146956
0.14123
0.124202
0.10093
0.0792284
0.0651295
0.0572828
0.0503992
0.0372118
0.0166574
)
;
    }
    atmosphere
    {
        type            inletOutlet;
        inletValue      uniform 0.1;
        value           nonuniform List<scalar> 
46
(
0.0282859
0.055089
0.0654969
0.0712695
0.0750811
0.0778724
0.0800824
0.0819657
0.0837052
0.0854727
0.0874874
0.0900409
0.0932451
0.1
0.1
0.1
0.1
0.1
0.1
0.1
0.1
0.1
0.1
0.1
0.1
0.1
0.1
0.1
0.1
0.1
0.1
0.1
0.1
0.1
0.1
0.1
0.198212
0.223163
0.233677
0.236132
0.232572
0.223217
0.207906
0.187097
0.16178
0.0924199
)
;
    }
    defaultFaces
    {
        type            empty;
    }
}


// ************************************************************************* //
