/*--------------------------------*- C++ -*----------------------------------*\
  =========                 |
  \\      /  F ield         | OpenFOAM: The Open Source CFD Toolbox
   \\    /   O peration     | Website:  https://openfoam.org
    \\  /    A nd           | Version:  9
     \\/     M anipulation  |
\*---------------------------------------------------------------------------*/
FoamFile
{
    format      ascii;
    class       surfaceScalarField;
    location    "4.13";
    object      alphaPhi0.water;
}
// * * * * * * * * * * * * * * * * * * * * * * * * * * * * * * * * * * * * * //

dimensions      [0 3 -1 0 0 0 0];

internalField   nonuniform List<scalar> 
4432
(
2.00475e-07
-2.00474e-07
2.62237e-07
-6.17637e-08
2.58313e-07
3.92528e-09
2.28909e-07
2.94078e-08
1.79748e-07
4.91541e-08
1.15856e-07
6.3898e-08
4.00313e-08
7.58174e-08
-3.94832e-08
7.95166e-08
-1.24374e-07
8.48832e-08
-2.06445e-07
8.2071e-08
-2.74015e-07
6.75699e-08
-3.07447e-07
3.34328e-08
-2.81114e-07
-2.6332e-08
-1.67259e-07
-1.13854e-07
5.76917e-08
-2.2495e-07
3.70884e-07
-3.13195e-07
5.13325e-07
-1.42562e-07
-1.92e-08
5.29416e-07
-9.72779e-07
9.43935e-07
-1.38096e-06
4.06583e-07
-9.89455e-07
-3.90022e-07
-3.24303e-07
-6.66243e-07
-3.25393e-07
1.20517e-07
-3.20988e-07
1.65971e-07
-1.07218e-07
1.60505e-07
9.3853e-09
1.22963e-07
6.69582e-08
6.53156e-08
1.06789e-07
-4.28583e-09
1.33505e-07
-8.11696e-08
1.52688e-07
-1.63512e-07
1.61861e-07
-2.43587e-07
1.64954e-07
-3.16042e-07
1.54528e-07
-3.72949e-07
1.24479e-07
-4.0296e-07
6.34461e-08
-3.93151e-07
-3.61397e-08
-3.3331e-07
-1.73694e-07
-2.2416e-07
-3.34097e-07
-9.4312e-08
-4.43037e-07
-6.79892e-08
-1.6794e-07
-3.06122e-07
7.62497e-07
-6.2983e-07
1.25458e-06
-8.51846e-07
6.1898e-07
-7.02759e-07
-5.40124e-07
-3.74097e-07
-9.96016e-07
-7.00327e-07
7.15381e-08
-3.92524e-07
1.03342e-07
-1.39019e-07
9.7618e-08
1.51004e-08
6.35472e-08
1.01036e-07
9.69788e-09
1.60626e-07
-5.67008e-08
1.9991e-07
-1.28897e-07
2.24877e-07
-2.04015e-07
2.36984e-07
-2.7647e-07
2.37409e-07
-3.4155e-07
2.19611e-07
-3.94415e-07
1.77347e-07
-4.2868e-07
9.77131e-08
-4.38315e-07
-2.65042e-08
-4.2316e-07
-1.88848e-07
-3.95275e-07
-3.61981e-07
-3.82074e-07
-4.56236e-07
-3.91394e-07
-1.5247e-07
-4.3458e-07
8.05654e-07
-4.47003e-07
1.26699e-06
-5.092e-07
6.71401e-07
-4.49913e-07
-6.02526e-07
-2.5818e-07
-1.18775e-06
-9.58506e-07
3.85015e-08
-4.31028e-07
5.83651e-08
-1.58881e-07
5.24562e-08
2.09983e-08
2.26373e-08
1.3086e-07
-2.42227e-08
2.07476e-07
-8.26497e-08
2.58344e-07
-1.46598e-07
2.88822e-07
-2.1283e-07
3.03222e-07
-2.77122e-07
3.01703e-07
-3.35833e-07
2.78327e-07
-3.86936e-07
2.28454e-07
-4.27616e-07
1.38395e-07
-4.56129e-07
2.00972e-09
-4.77765e-07
-1.67213e-07
-5.08773e-07
-3.30974e-07
-5.70609e-07
-3.94402e-07
-6.10608e-07
-1.07175e-07
-5.18178e-07
7.29092e-07
-3.95059e-07
1.14385e-06
-3.10491e-07
5.86813e-07
-2.41551e-07
-6.78707e-07
-1.05188e-07
-1.32411e-06
-1.0637e-06
1.50946e-08
-4.46127e-07
2.41371e-08
-1.67922e-07
1.83238e-08
2.67994e-08
-3.17984e-09
1.52368e-07
-4.09013e-08
2.4519e-07
-8.91229e-08
3.06571e-07
-1.42823e-07
3.42521e-07
-1.99192e-07
3.59596e-07
-2.55092e-07
3.57605e-07
-3.07928e-07
3.31165e-07
-3.58275e-07
2.78804e-07
-4.05956e-07
1.86076e-07
-4.51281e-07
4.73348e-08
-5.01351e-07
-1.17145e-07
-5.71104e-07
-2.61223e-07
-6.69287e-07
-2.96223e-07
-7.35701e-07
-4.01433e-08
-6.03112e-07
6.1205e-07
-3.92216e-07
9.32932e-07
-2.21283e-07
4.18081e-07
-1.57785e-07
-7.42218e-07
-4.29973e-08
-1.4389e-06
-1.1067e-06
5.12912e-10
-4.46646e-07
6.87292e-10
-1.68096e-07
4.81342e-10
2.6993e-08
-1.35553e-08
1.66407e-07
-4.02988e-08
2.71926e-07
-7.67154e-08
3.42989e-07
-1.18841e-07
3.84643e-07
-1.64778e-07
4.05534e-07
-2.12335e-07
4.05161e-07
-2.59649e-07
3.78478e-07
-3.09699e-07
3.28853e-07
-3.64138e-07
2.40514e-07
-4.23689e-07
1.06885e-07
-4.94522e-07
-4.63146e-08
-5.87255e-07
-1.6849e-07
-6.99385e-07
-1.84095e-07
-7.69529e-07
3.00209e-08
-6.63533e-07
5.068e-07
-4.31692e-07
7.18591e-07
-2.50819e-07
2.38466e-07
-2.19561e-07
-7.73485e-07
-1.30991e-07
-1.52747e-06
-1.2377e-06
-7.30299e-09
-4.39351e-07
-1.0831e-08
-1.64568e-07
-4.38906e-09
2.05395e-08
-7.27227e-09
1.69289e-07
-2.14094e-08
2.86055e-07
-4.48106e-08
3.66389e-07
-7.4521e-08
4.14348e-07
-1.0986e-07
4.40869e-07
-1.49475e-07
4.44773e-07
-1.91769e-07
4.20768e-07
-2.41838e-07
3.78919e-07
-3.02558e-07
3.0123e-07
-3.73864e-07
1.7819e-07
-4.59663e-07
3.94847e-08
-5.65735e-07
-6.24174e-08
-6.81699e-07
-6.81292e-08
-7.49661e-07
9.79859e-08
-6.70774e-07
4.27915e-07
-4.88226e-07
5.36052e-07
-3.62769e-07
1.13018e-07
-3.87993e-07
-7.48259e-07
-3.83613e-07
-1.53183e-06
-1.62135e-06
-1.25237e-08
-4.26835e-07
-1.11568e-08
-1.65935e-07
7.02476e-09
2.3503e-09
1.66189e-08
1.59692e-07
1.62005e-08
2.8647e-07
6.59776e-09
3.75991e-07
-1.03077e-08
4.31252e-07
-3.53183e-08
4.65878e-07
-6.79414e-08
4.77395e-07
-1.06026e-07
4.58852e-07
-1.56568e-07
4.29461e-07
-2.23216e-07
3.67879e-07
-3.04362e-07
2.59337e-07
-4.01273e-07
1.36396e-07
-5.15945e-07
5.22547e-08
-6.33327e-07
4.92516e-08
-7.04542e-07
1.69198e-07
-6.60609e-07
3.83977e-07
-5.43518e-07
4.18954e-07
-4.95868e-07
6.53663e-08
-6.08638e-07
-6.35491e-07
-7.82764e-07
-1.3577e-06
-2.40412e-06
-6.83381e-07
6.83258e-07
-3.88595e-09
-6.81219e-07
5.92471e-07
-6.01611e-07
9.02737e-07
-3.13237e-07
9.86159e-07
-8.35824e-08
8.90866e-07
9.52908e-08
6.60344e-07
2.30521e-07
4.50517e-07
2.1311e-07
5.7305e-07
-1.21024e-07
1.1241e-06
-5.51877e-07
1.28083e-06
-1.60855e-07
1.10078e-07
1.16034e-06
-1.71167e-06
1.80853e-06
-1.82929e-06
1.0977e-07
5.04045e-07
-2.35804e-06
3.46586e-06
-2.98359e-06
5.5194e-06
-2.15257e-06
3.63807e-06
1.83609e-06
3.63436e-06
-4.48338e-09
6.87655e-07
2.79286e-07
-9.69691e-07
5.11596e-07
-8.33933e-07
6.39499e-07
-4.41467e-07
6.46115e-07
-9.04159e-08
5.56582e-07
1.85463e-07
4.09274e-07
3.79439e-07
2.66361e-07
3.57098e-07
2.35568e-07
-9.00707e-08
4.02918e-07
-7.20023e-07
3.20476e-07
-8.03035e-08
-3.5064e-07
1.79139e-06
-8.31068e-07
2.28864e-06
-3.12165e-07
-4.16843e-07
1.06425e-06
-3.76432e-06
2.72781e-06
-4.64719e-06
4.10218e-06
-3.52703e-06
3.24782e-06
2.58896e-06
6.87846e-06
3.58444e-07
3.35475e-07
3.69233e-07
-9.80131e-07
3.85313e-07
-8.50022e-07
4.00584e-07
-4.56745e-07
3.64367e-07
-5.42411e-08
2.74319e-07
2.75531e-07
1.49351e-07
5.04698e-07
4.43005e-09
5.01108e-07
-1.07663e-07
2.17258e-08
-1.65661e-07
-6.61759e-07
-3.02516e-07
6.41945e-08
-4.98046e-07
1.98693e-06
-3.30032e-07
2.12057e-06
3.47285e-07
-1.09436e-06
1.11269e-06
-4.52977e-06
2.07554e-06
-5.61009e-06
2.7126e-06
-4.18725e-06
2.24781e-06
3.01569e-06
9.12243e-06
3.96875e-07
-6.14491e-08
2.99792e-07
-8.82973e-07
2.03476e-07
-7.5365e-07
1.5345e-07
-4.06727e-07
9.6298e-08
2.89417e-09
1.10972e-08
3.60708e-07
-1.07239e-07
6.23323e-07
-2.56468e-07
6.49637e-07
-4.23582e-07
1.87599e-07
-6.15151e-07
-4.68927e-07
-6.67351e-07
1.42221e-07
-5.14176e-07
1.83376e-06
-4.09642e-09
1.61049e-06
5.80926e-07
-1.6867e-06
9.65145e-07
-4.91403e-06
1.47278e-06
-6.11776e-06
1.74992e-06
-4.49164e-06
1.22834e-06
3.54101e-06
1.03469e-05
2.63382e-07
-3.24876e-07
1.07442e-07
-7.27137e-07
-3.86451e-08
-6.07595e-07
-1.18514e-07
-3.26869e-07
-1.79114e-07
6.3485e-08
-2.52293e-07
4.33876e-07
-3.62098e-07
7.33538e-07
-5.00352e-07
7.90207e-07
-6.85233e-07
3.71248e-07
-9.36793e-07
-2.18632e-07
-9.36877e-07
1.82669e-07
-5.30772e-07
1.42765e-06
1.42294e-07
9.37427e-07
5.62212e-07
-2.12507e-06
6.82852e-07
-5.03466e-06
8.74469e-07
-6.30943e-06
9.44117e-07
-4.56133e-06
2.78504e-07
4.20661e-06
1.08209e-05
3.77523e-08
-3.62694e-07
-1.77505e-07
-5.11964e-07
-3.40778e-07
-4.44321e-07
-4.21612e-07
-2.4604e-07
-4.70774e-07
1.12658e-07
-5.19661e-07
4.82702e-07
-6.05672e-07
8.19517e-07
-7.21945e-07
9.0814e-07
-8.90223e-07
5.39734e-07
-1.11813e-06
8.88339e-09
-1.10429e-06
1.76312e-07
-5.7854e-07
9.56682e-07
1.1344e-07
2.78929e-07
3.7216e-07
-2.38382e-06
2.98728e-07
-4.96125e-06
2.50132e-07
-6.26086e-06
1.29292e-07
-4.43646e-06
-5.01027e-07
4.62676e-06
1.03202e-05
-2.74394e-07
-8.83013e-08
-5.34528e-07
-2.51831e-07
-6.89755e-07
-2.89092e-07
-7.55475e-07
-1.80307e-07
-7.81257e-07
1.38652e-07
-7.93681e-07
4.94778e-07
-8.37311e-07
8.6305e-07
-9.16709e-07
9.87445e-07
-1.04452e-06
6.67488e-07
-1.20808e-06
1.74136e-07
-1.14195e-06
1.09699e-07
-6.3386e-07
4.47771e-07
-5.93791e-08
-2.95601e-07
8.10069e-08
-2.52425e-06
-1.52056e-07
-4.72824e-06
-4.19012e-07
-5.99395e-06
-5.96088e-07
-4.20692e-06
-8.85384e-07
4.87725e-06
9.43514e-06
-6.80989e-07
5.92688e-07
-9.51538e-07
1.8717e-08
-1.07499e-06
-1.65641e-07
-1.11484e-06
-1.40449e-07
-1.11333e-06
1.36538e-07
-1.07771e-06
4.58627e-07
-1.06357e-06
8.48483e-07
-1.0846e-06
1.00814e-06
-1.15138e-06
7.33885e-07
-1.23846e-06
2.61682e-07
-1.12812e-06
-5.12713e-09
-6.97434e-07
1.33702e-08
-2.56362e-07
-7.36717e-07
-2.50367e-07
-2.53029e-06
-6.35839e-07
-4.34281e-06
-1.10729e-06
-5.52247e-06
-1.3005e-06
-3.95949e-06
-1.02276e-06
4.56078e-06
8.41269e-06
-3.07948e-09
-4.2373e-07
3.3449e-08
-2.02464e-07
1.09999e-07
-7.42055e-08
1.70306e-07
9.93818e-08
2.16525e-07
2.40246e-07
2.42762e-07
3.49751e-07
2.49332e-07
4.24678e-07
2.27221e-07
4.87988e-07
1.75416e-07
5.29198e-07
1.04053e-07
5.30214e-07
-5.6383e-09
5.39154e-07
-1.67937e-07
5.30179e-07
-3.69644e-07
4.61047e-07
-6.05997e-07
3.72752e-07
-8.69689e-07
3.15949e-07
-1.12744e-06
3.07003e-07
-1.30762e-06
3.49375e-07
-1.33916e-06
4.15518e-07
-1.31367e-06
3.93466e-07
-1.44954e-06
2.0123e-07
-2.0094e-06
-7.56252e-08
-3.04966e-06
-3.17281e-07
-6.69822e-07
-4.78261e-06
1.25076e-09
-4.24967e-07
1.47497e-07
-3.48697e-07
3.10114e-07
-2.36777e-07
4.50047e-07
-4.0263e-08
5.65514e-07
1.24787e-07
6.51861e-07
2.63405e-07
7.09458e-07
3.67084e-07
7.24152e-07
4.73294e-07
6.80743e-07
5.72608e-07
5.89783e-07
6.21176e-07
4.41991e-07
5.31084e-07
2.68827e-07
5.27144e-07
5.36088e-08
4.95991e-07
-2.11606e-07
4.5893e-07
-4.95385e-07
4.22443e-07
-7.56037e-07
3.90183e-07
-9.58822e-07
3.68936e-07
-1.08907e-06
3.55214e-07
-1.21504e-06
3.33328e-07
-1.46778e-06
2.94827e-07
-1.94894e-06
2.76163e-07
-2.64045e-06
2.6577e-07
1.90236e-07
-3.57432e-06
2.73158e-07
-2.24534e-07
3.82721e-07
-1.37597e-07
4.34048e-07
-8.56088e-08
4.78141e-07
-3.50763e-08
5.19848e-07
1.3132e-09
5.49808e-07
1.54805e-08
5.44187e-07
2.38684e-08
5.34889e-07
2.1337e-08
5.1922e-07
1.46986e-08
4.6894e-07
5.2943e-09
3.92169e-07
0
3.31271e-07
0
2.49762e-07
1.60841e-07
1.5557e-07
1.64918e-07
6.38034e-08
1.6756e-07
-2.39574e-08
1.67995e-07
-9.62854e-08
1.64648e-07
-1.43875e-07
1.41813e-07
-1.88768e-07
9.84841e-08
-2.50245e-07
6.90228e-08
-3.47607e-07
6.12107e-08
-4.9137e-07
3.98902e-08
1.18234e-08
-7.0522e-07
3.05091e-08
-3.16858e-08
2.74056e-08
-9.81322e-10
1.96828e-08
-7.99115e-10
1.14936e-08
0
1.12734e-08
-2.2776e-09
1.03307e-08
-4.03806e-10
4.70607e-09
2.56698e-09
2.93203e-09
0
3.41547e-09
0
3.06182e-09
0
2.89091e-09
0
2.25487e-09
0
1.52886e-09
0
1.44085e-09
0
1.67819e-09
0
8.7583e-10
0
1.72958e-10
0
-1.84444e-10
0
-7.9676e-10
0
-6.90751e-10
0
-7.91182e-10
0
-6.69861e-10
0
0
-3.90687e-09
1.78437e-09
-1.36612e-08
1.65191e-09
-1.8014e-09
-2.85102e-09
0
-1.64511e-08
0
-1.98318e-08
0
-1.65834e-08
-4.10566e-09
-1.58207e-08
6.57046e-11
-2.65508e-08
-5.83099e-09
-1.20791e-08
-1.01995e-08
-1.99788e-09
-5.69353e-09
5.61241e-09
-3.18077e-09
1.2059e-08
-1.28834e-09
1.71723e-08
3.7883e-10
1.92194e-08
2.28982e-09
2.08611e-08
2.66123e-09
2.37446e-09
2.80989e-09
5.71333e-09
3.07397e-09
1.18226e-08
-2.38823e-12
2.55802e-08
-6.22035e-11
2.54636e-08
1.03363e-09
2.28914e-08
6.03892e-09
1.8297e-08
8.05371e-09
3.61598e-09
-3.00583e-10
-2.42923e-09
-3.57233e-09
1.17508e-10
-7.37844e-09
-3.37362e-10
7.03183e-10
-3.67219e-09
0
-6.84987e-09
2.67645e-10
-6.57764e-09
-7.4685e-09
-3.94655e-09
-4.73508e-09
1.09653e-09
-1.01111e-08
2.8988e-09
-9.14838e-09
3.83208e-09
-3.41567e-09
4.12028e-09
-2.63981e-10
4.84682e-09
-1.49393e-13
4.78401e-09
1.506e-11
3.18506e-09
6.09163e-11
-7.7134e-10
0
1.77638e-09
1.63339e-09
3.81747e-09
7.71002e-10
4.26015e-09
-1.77855e-11
8.26713e-09
-2.04705e-09
2.15364e-09
0
1.74373e-09
4.93618e-10
1.02014e-10
3.6108e-10
3.03759e-09
9.18404e-10
-4.81388e-09
2.57982e-10
-3.95511e-09
-3.95879e-09
-2.81165e-10
4.87388e-10
1.03478e-09
2.80183e-10
1.46361e-09
2.31351e-12
1.97348e-09
-3.50729e-09
3.03349e-09
-3.51159e-09
3.169e-09
-2.68347e-09
1.04282e-09
-5.86736e-10
2.64329e-10
-6.90616e-12
1.60791e-13
1.06663e-13
-7.11524e-14
1.99326e-15
-3.04237e-13
0
-3.65918e-12
0
-4.15612e-10
0
-1.59071e-11
0
-2.0072e-12
3.52829e-14
-8.01139e-12
-1.01354e-10
-1.34966e-09
-7.98688e-10
-7.66152e-10
-3.31065e-10
-6.31772e-10
5.61718e-10
-3.24894e-10
1.78196e-10
1.53546e-09
1.37483e-09
-3.2476e-10
1.25994e-13
-1.02046e-09
-1.7196e-12
-7.26802e-10
-1.97945e-11
7.50522e-10
1.15495e-12
9.12007e-10
0
7.91463e-10
-7.96102e-13
6.24833e-10
-2.18605e-15
7.55372e-11
-4.97772e-14
0
-3.86131e-13
-7.95288e-15
0
-1.45357e-14
2.68218e-14
-1.20915e-13
2.79938e-14
-6.46284e-12
2.70314e-12
-7.53606e-12
4.88441e-12
-6.54192e-13
0
0
0
-1.19224e-11
1.12881e-12
-2.09653e-09
3.33484e-11
-2.3008e-09
-1.85965e-10
-1.65128e-09
-5.7774e-10
-7.70572e-10
-1.16772e-10
-1.99664e-11
1.41356e-10
1.3647e-10
2.33299e-09
2.20033e-13
5.21898e-14
-1.09652e-13
-3.90568e-14
-1.99327e-13
-1.18292e-13
9.9393e-13
0
7.95539e-13
-3.5901e-14
1.79535e-15
-2.65174e-15
2.05156e-16
-1.02064e-15
-4.75289e-14
-2.33601e-15
-2.36957e-14
1.71461e-14
-2.43195e-14
1.80544e-14
-1.11244e-13
2.76855e-14
-3.92905e-12
1.32291e-12
-2.32113e-11
7.41328e-12
-1.20639e-11
1.52246e-11
-6.52248e-12
5.74044e-12
0
5.16269e-14
-5.28722e-12
6.18702e-12
-1.4189e-11
2.11926e-14
-9.34898e-10
-5.33689e-13
-1.18749e-09
-1.87277e-10
-7.00738e-10
-4.00795e-10
-1.90414e-10
-1.18993e-10
-3.682e-13
1.9407e-10
5.80516e-14
1.15267e-15
1.58114e-13
-4.63102e-15
1.68037e-13
-1.69226e-14
1.37231e-14
1.14286e-14
4.41036e-16
-6.98451e-16
4.05092e-16
-4.00263e-16
-6.13949e-16
-3.81592e-16
-1.88069e-15
-3.75323e-17
-7.14904e-15
2.34112e-14
-1.57589e-12
1.58847e-12
-3.06108e-12
3.0553e-12
-4.47675e-12
6.68978e-12
-7.07142e-12
0
-5.06145e-12
7.14062e-14
-3.36082e-13
0
-2.80369e-13
2.94308e-15
-1.68081e-14
7.20619e-16
-5.47225e-15
0
-5.28674e-13
-3.03889e-14
-1.87212e-10
-6.25465e-13
-3.11179e-11
-1.47438e-11
-5.56011e-14
-3.83155e-12
-3.74147e-13
-4.30723e-14
9.90087e-15
-1.79717e-15
2.42068e-13
-2.21651e-14
1.95538e-13
1.30582e-14
0
1.03466e-14
4.48973e-16
1.78886e-16
-6.54505e-18
1.94111e-17
-6.97517e-16
1.23646e-16
-2.98176e-15
1.89451e-15
-2.53063e-12
1.53882e-12
-6.18721e-12
4.65528e-12
-5.80433e-12
6.01924e-12
-2.95493e-12
3.54336e-12
-1.05788e-13
0
-3.37176e-14
1.91883e-17
-8.06084e-15
0
-4.59048e-16
2.56277e-15
-1.00099e-16
5.04888e-17
-6.12051e-15
1.62893e-16
-2.65932e-13
-1.99166e-13
-3.2431e-13
-2.23122e-12
-3.84779e-13
-1.6227e-11
-6.80427e-13
-5.03522e-12
-1.53007e-12
-1.23581e-13
6.23874e-15
-1.10995e-15
3.30565e-14
-3.91484e-15
2.26e-14
4.33984e-16
1.11368e-15
2.27779e-17
-7.1392e-18
1.32677e-15
-3.86772e-16
3.632e-16
-1.18193e-15
8.8286e-16
-6.83575e-13
1.01303e-13
-5.44021e-12
2.04856e-12
-4.54894e-12
5.28846e-12
-3.40893e-12
1.32273e-12
-3.88751e-13
0
-7.89176e-14
1.82292e-14
-1.55819e-14
2.61432e-14
-8.68993e-16
8.51702e-16
-1.24405e-16
1.67003e-16
-3.60546e-16
5.77161e-17
-6.32072e-16
7.86889e-17
-4.867e-12
-8.75966e-13
-7.32632e-12
-1.04682e-11
-1.56658e-11
-1.40533e-11
-2.40384e-11
-1.3239e-11
-7.11854e-12
-7.02979e-12
1.72252e-16
0
9.55106e-18
0
-3.2597e-17
1.32475e-15
-1.36655e-16
1.46647e-16
-1.53446e-15
7.81354e-16
0
5.10384e-15
0
1.22009e-14
-8.5458e-13
1.57455e-13
-1.22717e-12
0
-3.97661e-13
0
-1.97086e-14
0
-2.33606e-14
0
-2.05856e-14
6.25381e-15
-3.34146e-15
4.79038e-15
-1.13792e-16
2.41432e-16
-1.08523e-16
8.06836e-17
-1.82057e-16
4.8674e-17
-4.57971e-16
1.24806e-16
-9.80367e-12
-9.5449e-14
-1.5987e-11
-4.21923e-12
-1.94723e-11
-1.04792e-11
-2.16129e-11
-1.10095e-11
-7.37979e-12
-2.12628e-11
-3.10034e-14
-3.61468e-14
-3.72347e-14
8.23895e-15
-1.12645e-15
3.48397e-14
-9.25112e-16
6.19359e-17
-2.83348e-15
1.07383e-15
-6.24398e-15
6.05559e-15
-4.31642e-14
1.28265e-14
-1.36792e-14
0
-4.58824e-15
0
-5.27388e-16
0
-2.09181e-16
6.88911e-18
-1.10517e-15
3.94669e-17
-8.91044e-16
0
-2.10891e-16
4.94463e-18
-2.53503e-16
7.76828e-17
-2.37542e-16
1.59323e-16
-7.77237e-17
9.45868e-17
0
9.06257e-18
0
-4.8252e-17
-7.05788e-12
-1.18671e-15
-1.68049e-11
-4.86095e-13
-2.33769e-11
-4.34869e-12
-1.09486e-13
-3.02947e-12
-1.93212e-13
-3.03797e-14
-7.63578e-14
1.68659e-13
-1.65484e-15
9.48415e-14
-1.54565e-15
8.23701e-17
-3.77548e-15
1.33697e-15
-6.84778e-15
2.1629e-15
-5.05485e-15
1.63534e-15
-3.03931e-15
1.81009e-16
-9.56637e-16
5.03556e-16
-1.68271e-16
1.44433e-16
-5.87142e-17
3.79883e-17
-2.24755e-17
7.16855e-18
-2.25855e-17
5.6623e-19
-6.26547e-17
1.54579e-18
-1.1249e-16
2.38564e-17
-1.14515e-16
3.15061e-17
-1.17511e-16
2.91939e-17
-1.19277e-16
1.08684e-17
-1.30614e-16
-3.69851e-17
-1.23529e-15
-8.1871e-17
-4.87222e-13
-1.00104e-16
-9.51711e-16
-1.33136e-16
-1.31192e-16
-1.10448e-13
-2.55164e-13
1.22851e-13
-1.56275e-13
3.47692e-13
-1.63278e-15
1.7692e-13
-1.51843e-15
1.04274e-16
-2.06607e-15
7.94392e-16
-2.08319e-15
7.31858e-16
-1.31563e-15
3.57911e-16
-7.21305e-16
1.9539e-16
-2.19687e-16
8.37476e-17
-4.1164e-17
2.18903e-17
-4.337e-18
5.96173e-18
-4.83976e-19
1.73145e-18
-4.97532e-19
3.32459e-19
-2.62244e-18
6.55197e-19
-1.36409e-17
4.38885e-18
-5.38939e-17
3.48926e-18
-1.48132e-16
1.80678e-17
-2.27903e-16
1.65637e-17
-1.57628e-16
-1.76782e-17
-1.71452e-16
-5.34355e-17
-1.88477e-16
-6.69819e-17
-2.14315e-16
-9.02211e-17
-2.75985e-17
-4.53455e-16
-2.92861e-13
4.6766e-13
-2.35507e-13
5.68037e-13
-9.02969e-16
2.96172e-13
-7.87945e-16
1.27439e-16
-7.4322e-16
2.42083e-16
-5.09143e-16
2.46949e-16
-1.91213e-16
6.9196e-17
-5.33937e-17
1.13619e-17
-9.74348e-18
5.76675e-18
-1.89728e-18
3.42952e-18
4.04094e-18
2.33391e-20
4.42619e-18
-2.39023e-18
3.32609e-18
-2.46737e-18
8.20189e-19
-1.68627e-18
-2.12328e-18
-3.56661e-19
-9.37875e-18
7.17308e-19
-8.33237e-17
2.58856e-18
-2.33452e-16
8.55955e-18
-2.94549e-16
-3.60426e-18
-2.9036e-16
-1.38578e-17
-2.86612e-16
-3.34924e-17
-2.20735e-16
-3.15733e-17
-1.46284e-17
-4.71966e-17
-3.65864e-13
8.64284e-13
-3.28443e-13
8.08242e-13
-4.35854e-16
4.0889e-13
-3.22665e-16
1.52636e-16
-2.13576e-16
1.49802e-16
-9.85194e-17
1.42994e-16
-8.52057e-18
1.3773e-17
-1.72273e-18
2.9752e-18
4.00824e-18
3.52411e-20
6.61462e-18
-2.35553e-18
8.23534e-18
-3.68729e-18
7.97711e-18
-4.31436e-18
6.70216e-18
-3.84873e-18
4.73219e-18
-2.87565e-18
2.28342e-18
-1.7057e-18
-4.44971e-19
-6.2926e-19
-3.52234e-18
7.89848e-20
-3.47759e-17
1.05584e-18
-1.03304e-16
-3.0553e-20
-1.35385e-16
-7.23793e-19
-1.47301e-16
-2.42445e-18
-1.26964e-16
-3.39901e-18
-2.66994e-18
-5.75462e-17
-5.17187e-13
3.58795e-13
-4.16114e-13
9.84845e-13
-4.20427e-16
3.88003e-13
-3.08527e-16
1.79128e-16
-1.91604e-16
1.7127e-16
-2.84862e-17
1.56046e-16
7.99986e-21
1.07526e-17
3.37254e-18
-5.30446e-21
6.59968e-18
-2.05014e-18
8.23438e-18
-3.70781e-18
8.81279e-18
-4.27584e-18
8.39787e-18
-4.19194e-18
7.35318e-18
-3.58685e-18
5.99429e-18
-2.72404e-18
4.52308e-18
-1.8205e-18
2.97111e-18
-1.0262e-18
1.33975e-18
-4.25027e-19
-7.35438e-20
-7.90078e-20
-1.45242e-18
2.46386e-20
-7.6652e-18
6.57494e-20
-1.41346e-17
3.56878e-20
-1.5486e-17
6.88919e-22
-5.01548e-20
-1.30231e-17
-3.23257e-13
1.96942e-13
-2.304e-13
1.16962e-12
-6.40421e-16
1.40795e-13
-5.29503e-16
2.066e-16
-3.51614e-16
5.55188e-16
-3.62547e-17
2.98607e-16
6.27812e-21
1.68892e-17
2.49189e-18
-4.32925e-21
4.86706e-18
-1.53434e-18
6.07727e-18
-2.69708e-18
6.55934e-18
-3.03041e-18
6.41973e-18
-2.9161e-18
5.81911e-18
-2.49298e-18
4.94943e-18
-1.90476e-18
3.98654e-18
-1.288e-18
3.0759e-18
-7.47424e-19
2.26978e-18
-3.44001e-19
1.55816e-18
-8.73254e-20
9.08214e-19
3.3031e-20
3.42752e-19
7.00782e-20
6.30044e-21
6.85644e-20
-1.46823e-19
4.83912e-20
2.52503e-20
-3.14414e-19
-1.94494e-13
0
-1.32486e-13
2.83718e-13
-1.15254e-15
1.08377e-15
-1.0444e-15
2.37169e-16
-6.48388e-16
1.36375e-15
-6.1548e-17
4.99328e-16
-1.12037e-17
3.83419e-17
-2.8281e-18
8.72502e-18
1.28528e-18
2.63884e-18
2.38662e-18
-7.26036e-19
3.1419e-18
-1.18119e-18
3.5284e-18
-1.34811e-18
3.50461e-18
-1.28347e-18
3.15922e-18
-1.03943e-18
2.65521e-18
-7.15635e-19
2.12863e-18
-4.09095e-19
1.6434e-18
-1.73608e-19
1.23345e-18
-2.13919e-20
9.01071e-19
3.6481e-20
6.32284e-19
5.42499e-20
4.11989e-19
5.24835e-20
2.35714e-19
4.10958e-20
2.66109e-20
1.01275e-19
-9.04948e-15
5.70042e-16
-6.21347e-16
2.26555e-16
-8.25238e-16
8.07369e-16
-1.03572e-15
1.57824e-15
-7.48812e-16
1.55197e-15
-9.97898e-17
6.3529e-16
-3.88337e-17
7.97113e-17
-2.36426e-17
3.69004e-17
-1.09914e-17
2.06816e-17
-3.17334e-18
8.19996e-18
4.38544e-19
2.36796e-18
1.14077e-18
-1.88177e-19
1.49684e-18
-4.019e-19
1.56678e-18
-4.13626e-19
1.43496e-18
-3.13546e-19
1.20643e-18
-1.7803e-19
9.55461e-19
-6.03821e-20
7.28147e-19
9.76167e-21
5.41845e-19
3.16458e-20
3.95774e-19
3.77977e-20
2.80427e-19
3.47718e-20
1.85367e-19
2.78819e-20
1.98617e-20
1.07367e-19
-6.48472e-17
6.9171e-16
-1.68534e-16
3.25908e-16
-8.12651e-16
9.69839e-16
-9.24778e-16
1.99287e-15
-6.07192e-16
1.648e-15
-1.29497e-16
4.70387e-16
-7.89869e-17
1.31034e-16
-6.01474e-17
8.28353e-17
-3.96061e-17
5.41975e-17
-1.95412e-17
2.91263e-17
-6.38073e-18
1.15176e-17
-9.12166e-19
3.0148e-18
3.57453e-19
4.38858e-19
5.78214e-19
-9.50841e-20
6.23795e-19
-1.03792e-19
5.69108e-19
-5.94336e-20
4.67392e-19
-8.40446e-21
3.59907e-19
1.35111e-20
2.66498e-19
2.2159e-20
1.93224e-19
2.33461e-20
1.3831e-19
2.04074e-20
9.5443e-20
1.61398e-20
1.19566e-20
5.88318e-20
-3.9996e-17
7.9498e-16
-1.05227e-16
3.90121e-16
-5.18417e-16
5.84416e-16
-6.14805e-16
1.21617e-15
-3.07378e-16
9.36238e-16
-1.32493e-16
2.88277e-16
-1.07521e-16
1.70268e-16
-9.01017e-17
1.27005e-16
-6.85035e-17
8.70184e-17
-4.06402e-17
5.28409e-17
-1.72611e-17
2.42224e-17
-4.54506e-18
7.78736e-18
-4.78487e-19
1.48956e-18
1.4372e-19
1.15668e-19
2.16563e-19
-2.3572e-20
2.25977e-19
-1.41637e-20
1.94949e-19
2.66197e-21
1.51698e-19
9.93366e-21
1.11024e-19
1.3113e-20
7.8489e-20
1.27634e-20
5.47154e-20
1.06143e-20
3.77445e-20
8.10075e-21
5.9897e-21
2.41655e-20
-3.2666e-17
3.15885e-15
-5.77089e-17
4.14156e-16
-1.0654e-16
6.3223e-16
-1.61738e-16
6.16487e-16
-1.26325e-16
3.46954e-16
-1.12514e-16
2.24949e-16
-1.104e-16
1.88982e-16
-9.91955e-17
1.58104e-16
-8.06861e-17
1.11593e-16
-5.40876e-17
7.11007e-17
-2.6369e-17
3.57286e-17
-7.85497e-18
1.23833e-17
-1.0705e-18
2.39161e-18
1.67873e-20
1.77351e-19
6.07221e-20
-2.58668e-21
7.75039e-20
-1.89447e-21
7.04518e-20
2.64646e-21
5.51026e-20
5.72384e-21
3.94828e-20
6.81044e-21
2.68106e-20
6.25773e-21
1.77397e-20
4.9533e-21
1.17812e-20
3.58703e-21
2.53237e-21
7.65337e-21
-2.49156e-17
1.96243e-14
-4.33885e-17
4.31613e-16
-5.71356e-17
6.44962e-16
-6.77866e-17
6.26433e-16
-7.61787e-17
3.54952e-16
-8.27652e-17
2.26532e-16
-9.10742e-17
1.9415e-16
-8.879e-17
1.71248e-16
-7.5262e-17
1.2834e-16
-5.39813e-17
8.27549e-17
-2.80921e-17
4.27143e-17
-8.16906e-18
1.4394e-17
-9.26354e-19
2.47517e-18
-1.79296e-20
1.59434e-19
1.53355e-20
2.27044e-22
2.34546e-20
7.68547e-23
2.2074e-20
1.57326e-21
1.71299e-20
2.83956e-21
1.18642e-20
3.17301e-21
7.61557e-21
2.78297e-21
4.65198e-21
2.10029e-21
2.8174e-21
1.4359e-21
9.34935e-22
1.79166e-21
0
3.80661e-14
-1.44339e-13
1.30339e-12
-1.75067e-13
5.84144e-12
-6.24849e-17
3.77818e-12
-5.0681e-17
3.42757e-16
-5.47484e-17
2.30215e-16
-6.24091e-17
1.94437e-16
-6.36125e-17
1.7394e-16
-5.64841e-17
1.34222e-16
-4.12106e-17
8.656e-17
-2.07973e-17
4.36694e-17
-5.27237e-18
1.41555e-17
-4.20778e-19
2.00722e-18
-5.93867e-21
6.76531e-20
3.7916e-21
1.70047e-22
6.05874e-21
1.33784e-22
5.71665e-21
7.86056e-22
4.31316e-21
1.26909e-21
2.82802e-21
1.34215e-21
1.67091e-21
1.12549e-21
9.05746e-22
8.1073e-22
4.58908e-22
5.24675e-22
3.15095e-22
2.55922e-22
0
3.83764e-14
-1.14779e-13
2.2144e-12
-2.83723e-13
6.03552e-12
-2.21434e-13
5.06127e-12
-2.5931e-17
1.11441e-12
-2.94026e-17
2.33296e-16
-3.15753e-17
1.96226e-16
-3.14533e-17
1.75733e-16
-2.99182e-17
1.35172e-16
-2.18563e-17
8.68304e-17
-1.02678e-17
4.2409e-17
-1.95051e-18
1.14493e-17
-8.72934e-20
1.04173e-18
-1.04861e-21
1.68519e-20
7.9048e-22
7.76037e-24
1.15573e-21
8.36545e-23
1.02003e-21
3.45842e-22
6.99115e-22
5.14244e-22
3.97136e-22
5.18386e-22
1.87024e-22
4.17933e-22
6.69517e-23
2.89695e-22
9.5708e-24
1.79979e-22
1.03147e-22
-2.22511e-23
3.37295e-15
3.50039e-14
2.70273e-14
1.69042e-12
7.4349e-14
6.01374e-12
5.21868e-14
5.10633e-12
0
1.40056e-12
2.66068e-19
4.34919e-16
-1.36603e-18
1.97722e-16
-2.67983e-18
1.72386e-16
-3.21551e-18
1.28686e-16
-2.58943e-18
7.89803e-17
-1.08935e-18
3.37892e-17
-1.40062e-19
7.01051e-18
-3.14671e-21
4.01857e-19
-3.85671e-23
3.20993e-21
2.07365e-23
6.41589e-25
1.2687e-24
4.28463e-23
-3.5542e-23
1.41507e-22
-7.64349e-23
1.94051e-22
-9.77895e-23
1.85807e-22
-9.64636e-23
1.43312e-22
-8.06082e-23
9.50086e-23
-5.99074e-23
5.6225e-23
3.04785e-23
-4.08385e-23
1.16299e-15
3.38405e-14
6.11705e-14
2.32111e-13
4.02407e-13
5.69638e-12
4.16762e-13
5.11591e-12
0
6.75082e-13
2.62632e-17
9.42511e-16
2.53437e-17
1.98754e-16
2.48053e-17
1.63012e-16
1.91769e-17
1.1446e-16
1.15797e-17
6.35186e-17
4.12467e-18
2.2318e-17
4.82732e-19
3.15219e-18
9.43237e-21
9.64203e-20
1.68091e-23
3.06322e-22
1.04511e-24
2.57895e-25
-1.09127e-22
2.03368e-23
-1.56425e-22
5.43716e-23
-1.52666e-22
6.83665e-23
-1.23469e-22
6.15055e-23
-8.80753e-23
4.48602e-23
-5.71618e-23
2.81455e-23
-3.44168e-23
1.57314e-23
8.02176e-24
-1.94973e-23
1.7353e-15
3.2105e-14
8.58317e-14
3.47125e-14
3.14013e-13
0
1.11266e-13
2.08221e-15
0
0
0
7.99606e-16
4.74087e-17
2.10132e-16
4.33466e-17
1.48534e-16
3.1683e-17
9.36738e-17
1.65944e-17
4.47594e-17
4.07464e-18
1.13449e-17
2.3915e-19
8.67169e-19
1.77889e-21
1.05484e-20
2.13117e-22
1.0573e-23
-2.50155e-23
-3.44214e-24
-9.07362e-23
8.0456e-24
-1.03872e-22
1.91442e-23
-8.90719e-23
2.21583e-23
-6.44226e-23
1.85774e-23
-4.12622e-23
1.26781e-23
-2.40515e-23
7.44532e-24
-1.29906e-23
3.88922e-24
1.84838e-24
-6.58773e-24
2.18728e-15
3.00136e-14
2.93799e-15
2.33057e-14
2.24705e-15
1.72605e-16
8.09564e-16
6.84232e-17
1.4356e-16
1.21283e-16
1.12175e-16
3.1216e-16
6.35942e-17
2.10844e-16
5.03206e-17
1.23345e-16
3.28024e-17
6.81108e-17
1.27932e-17
2.48324e-17
1.67719e-18
3.61163e-18
3.68945e-20
1.10438e-19
8.56659e-23
4.14765e-22
1.227e-23
1.88222e-25
-3.15189e-23
-3.79151e-24
-5.14442e-23
2.66788e-24
-5.01497e-23
6.05197e-24
-3.85181e-23
6.48138e-24
-2.5292e-23
5.03515e-24
-1.47541e-23
3.18473e-24
-7.82654e-24
1.73124e-24
-3.83762e-24
8.35304e-25
3.65636e-25
-1.76123e-24
2.36482e-15
2.51823e-14
3.34016e-15
2.30861e-14
6.00069e-16
6.5124e-15
2.25641e-16
1.77298e-15
1.13452e-16
5.29868e-16
8.35952e-17
2.3422e-16
6.64645e-17
1.4318e-16
4.58508e-17
8.46911e-17
2.32642e-17
3.80023e-17
5.27292e-18
8.53249e-18
2.66889e-19
5.18849e-19
1.68459e-21
4.76297e-21
1.16611e-24
5.24702e-24
3.40107e-25
1.20023e-25
-1.95545e-23
-2.49142e-24
-2.37832e-23
6.92636e-25
-1.99817e-23
1.67533e-24
-1.3737e-23
1.67735e-24
-8.1657e-24
1.20209e-24
-4.32302e-24
6.98163e-25
-2.07887e-24
3.47304e-25
-9.2157e-25
1.52806e-25
6.07666e-26
-3.81126e-25
1.96536e-15
1.16882e-14
3.56203e-15
1.53967e-14
1.29496e-15
8.38937e-15
4.64997e-16
2.85149e-15
1.45334e-16
7.41916e-16
7.24591e-17
2.115e-16
4.9119e-17
9.24784e-17
2.85406e-17
4.28945e-17
9.21345e-18
1.24374e-17
8.74275e-19
1.24581e-18
1.26292e-20
2.3093e-20
2.14361e-23
5.85291e-23
4.61951e-24
3.67761e-26
-5.48145e-24
-1.88712e-24
-9.66798e-24
-1.42505e-24
-9.19677e-24
1.19376e-25
-6.73819e-24
3.97335e-25
-4.1348e-24
3.76961e-25
-2.20941e-24
2.48081e-25
-1.05258e-24
1.30985e-25
-4.54605e-25
5.88776e-26
-1.8038e-25
2.32856e-26
8.28097e-27
-6.65095e-26
6.93957e-16
1.43894e-15
1.88734e-15
3.53589e-15
1.43383e-15
3.93957e-15
5.37981e-16
2.13486e-15
1.44516e-16
6.21814e-16
5.2227e-17
1.44719e-16
2.54511e-17
4.36984e-17
9.67281e-18
1.23506e-17
1.44417e-18
1.65004e-18
4.13786e-20
5.26805e-20
1.50838e-22
2.6368e-22
1.07887e-25
2.74956e-25
5.35891e-26
2.88572e-26
-3.36355e-24
-1.20761e-24
-3.84101e-24
-6.83471e-25
-3.02605e-24
4.11389e-28
-1.93571e-24
7.85617e-26
-1.05213e-24
7.22629e-26
-5.00172e-25
4.34662e-26
-2.1195e-25
2.06215e-26
-8.11736e-26
8.25223e-27
-2.84299e-26
2.88418e-27
9.0009e-28
-9.20684e-27
5.79499e-17
2.39763e-17
3.57539e-16
1.30104e-16
5.05114e-16
3.47801e-16
2.85646e-16
3.29813e-16
8.17216e-17
1.50635e-16
2.23965e-17
3.98901e-17
7.01476e-18
9.07032e-18
1.33512e-18
1.34423e-18
6.63856e-20
6.4602e-20
4.91202e-22
5.88351e-22
6.58768e-25
1.14363e-24
2.47894e-25
1.78436e-25
-9.40839e-25
-5.2691e-25
-1.56341e-24
-6.14069e-25
-1.32147e-24
-2.90666e-25
-8.57703e-25
-3.92268e-26
-4.73758e-25
1.2383e-26
-2.25096e-25
1.16171e-26
-9.38721e-26
6.36017e-27
-3.48542e-26
2.67264e-27
-1.16428e-26
9.34478e-28
-3.53445e-27
2.82477e-28
7.55279e-29
-9.85675e-28
8.99432e-19
6.94496e-20
1.227e-17
6.45339e-19
3.02179e-17
3.52527e-18
3.39584e-17
5.90798e-18
1.4174e-17
5.05859e-18
3.81977e-18
2.16231e-18
7.72186e-19
4.7732e-19
6.12982e-20
3.98059e-20
8.99813e-22
7.48489e-22
2.24153e-24
2.92842e-24
7.14453e-25
4.48576e-27
-1.49542e-25
-1.12542e-25
-5.68466e-25
-3.43673e-25
-6.04143e-25
-2.69147e-25
-4.05405e-25
-1.12096e-25
-2.12682e-25
-2.15254e-26
-9.88906e-26
1.38018e-27
-4.02307e-26
1.5392e-27
-1.44352e-26
7.6629e-28
-4.60388e-27
2.79814e-28
-1.31225e-27
8.3294e-29
-3.36982e-28
2.11407e-29
4.68644e-30
-7.88242e-29
6.36819e-21
1.94447e-22
1.01188e-19
2.03173e-21
3.68969e-19
7.54156e-21
4.90773e-19
1.55374e-20
4.45948e-19
2.01308e-20
1.67877e-19
1.56837e-20
2.62379e-20
4.42795e-21
9.54787e-22
2.97438e-22
5.69803e-24
3.90698e-24
9.20742e-27
1.27975e-26
4.41668e-27
4.12625e-27
-1.59841e-25
-1.29326e-25
-2.52474e-25
-1.69547e-25
-2.06511e-25
-1.07302e-25
-1.1326e-25
-3.99521e-26
-4.73423e-26
-8.19708e-27
-1.77482e-26
4.16553e-29
-5.98695e-27
1.65213e-28
-1.79702e-27
7.54262e-29
-4.78727e-28
2.32179e-29
-1.12854e-28
5.64286e-30
-2.36796e-29
1.14801e-30
2.00658e-31
-4.4768e-30
4.30388e-23
3.80898e-25
8.25386e-22
1.16253e-23
1.87274e-21
2.5504e-23
2.46582e-21
3.73141e-23
2.51187e-21
3.82882e-23
1.46508e-21
3.00079e-23
2.37465e-22
1.03378e-23
6.56725e-24
8.89645e-25
3.04668e-26
1.47242e-26
8.15871e-27
8.98985e-27
-3.03957e-26
-3.03864e-26
-8.55838e-26
-7.59304e-26
-9.60137e-26
-7.30925e-26
-6.44843e-26