/*--------------------------------*- C++ -*----------------------------------*\
  =========                 |
  \\      /  F ield         | OpenFOAM: The Open Source CFD Toolbox
   \\    /   O peration     | Website:  https://openfoam.org
    \\  /    A nd           | Version:  9
     \\/     M anipulation  |
\*---------------------------------------------------------------------------*/
FoamFile
{
    format      ascii;
    class       volScalarField;
    location    "7.63";
    object      epsilon;
}
// * * * * * * * * * * * * * * * * * * * * * * * * * * * * * * * * * * * * * //

dimensions      [0 2 -3 0 0 0 0];

internalField   nonuniform List<scalar> 
2268
(
0.000136313
0.000752308
0.00134583
0.00188069
0.00236041
0.00278922
0.00316986
0.00350428
0.00379501
0.00404954
0.00427688
0.00448462
0.00467361
0.00482398
0.00488257
0.00475374
0.0043288
0.00375465
0.00310726
0.00251706
0.00199914
0.00131645
0.000453498
0.000282393
0.000499953
0.000745747
0.000974012
0.00117996
0.00136379
0.00152663
0.00166993
0.0017954
0.00190576
0.00200343
0.00209027
0.00216569
0.00222287
0.00224539
0.00220719
0.0020895
0.00193223
0.00171227
0.00145531
0.00117743
0.000890216
0.000704263
0.000482716
0.000523218
0.000681617
0.000839508
0.000985242
0.00111654
0.00123348
0.00133694
0.00142821
0.00150891
0.00158051
0.0016437
0.00169744
0.00173712
0.00175336
0.00173395
0.00167403
0.00158785
0.00145994
0.00130415
0.00114578
0.00102585
0.00117122
0.000680637
0.000586287
0.00069629
0.000819213
0.00093626
0.00104305
0.00113878
0.00122392
0.00129948
0.00136669
0.0014267
0.00147976
0.00152473
0.00155797
0.00157308
0.00156315
0.00152699
0.00147154
0.00139044
0.00129768
0.00122525
0.00124027
0.00171373
0.000872043
0.000662748
0.000737534
0.000837047
0.00093551
0.00102668
0.00110901
0.0011826
0.00124827
0.00130711
0.00136004
0.00140721
0.00144747
0.00147781
0.00149353
0.00149035
0.00146866
0.00143319
0.00138504
0.00134145
0.00134355
0.00149517
0.00238084
0.00105903
0.000745895
0.000791994
0.000873484
0.000957914
0.00103739
0.00110972
0.0011747
0.00123303
0.00128571
0.00133355
0.00137668
0.00141402
0.00144301
0.00146005
0.00146248
0.00145186
0.00143267
0.00141096
0.00140863
0.00147987
0.00178635
0.00329955
0.0012451
0.000833628
0.000854878
0.000921339
0.00099414
0.00106393
0.00112796
0.00118579
0.00123801
0.00128562
0.00132936
0.00136938
0.00140469
0.00143309
0.00145177
0.00145916
0.00145798
0.0014537
0.00145427
0.00148618
0.00161869
0.00210654
0.0048382
0.00143354
0.000925405
0.000924271
0.000977465
0.00103996
0.00110115
0.00115775
0.00120911
0.00125583
0.00129889
0.00133906
0.00137644
0.00141019
0.00143838
0.00145884
0.00147076
0.00147787
0.00148726
0.00150679
0.00156454
0.0017383
0.00237461
0.00802502
0.000615582
0.00215095
0.00334382
0.00395856
0.00433761
0.00452493
0.00464656
0.00468089
0.0044349
0.00382035
0.00306705
0.00235503
0.0018863
0.00189773
0.0019528
0.00180373
0.00124494
0.000741621
0.000152571
0.000641405
0.00116374
0.00156781
0.00180141
0.00195092
0.00203958
0.00209096
0.00209603
0.00201316
0.0018427
0.00161396
0.00133837
0.0011305
0.00105137
0.000976629
0.000868545
0.00065328
0.000447663
0.000224268
0.000866434
0.00110908
0.00132795
0.00146162
0.00154907
0.00160407
0.00163351
0.00162783
0.00156847
0.00146514
0.00132274
0.00114195
0.0009935
0.000910138
0.000831065
0.000738701
0.000594337
0.000457915
0.000381222
0.00116852
0.00120398
0.00130467
0.00137378
0.00142317
0.00145614
0.00147186
0.00145962
0.001408
0.00132797
0.0012195
0.00108299
0.000963844
0.000883143
0.000807408
0.000727342
0.000618512
0.000523945
0.000563917
0.00160536
0.00137917
0.00135465
0.00136505
0.00138316
0.00139825
0.00140337
0.00138673
0.00133957
0.00127177
0.00118296
0.00107379
0.000973241
0.000895735
0.000823373
0.000753376
0.000668022
0.000609409
0.000769464
0.00229362
0.00161037
0.00143631
0.00138996
0.00138065
0.00138047
0.00137696
0.00135749
0.00131432
0.00125539
0.00118078
0.00109088
0.00100329
0.000928009
0.000858253
0.000794395
0.000724152
0.000697135
0.000994219
0.00355465
0.0018768
0.00152678
0.00142944
0.00139701
0.00138406
0.0013736
0.00135263
0.00131383
0.00126325
0.00120055
0.00112531
0.00104711
0.000972821
0.000904007
0.000842605
0.000780637
0.000781615
0.0012457
0.0065873
0.00211935
0.00160669
0.00147322
0.00142332
0.00140024
0.00138445
0.00136319
0.00132937
0.00128775
0.00123623
0.00117264
0.0011014
0.00102716
0.00095614
0.000894133
0.000837566
0.000866513
0.00154836
0.00172947
0.00107552
0.00104188
0.00107576
0.00112317
0.00117172
0.00121728
0.00125897
0.00129741
0.00133374
0.00136869
0.0014023
0.00143394
0.00146208
0.00148529
0.00150377
0.00152226
0.00154988
0.00159347
0.00167585
0.00185484
0.00229057
0.00358014
0.00215091
0.0012997
0.00122299
0.00123147
0.00125951
0.00129194
0.00132258
0.00135076
0.00137771
0.001405
0.00143345
0.00146294
0.00149265
0.00152145
0.00154837
0.00157403
0.00160291
0.00164294
0.00169904
0.00178062
0.00191547
0.00215947
0.00258824
0.00270933
0.00156383
0.00142529
0.00140293
0.00141147
0.00142809
0.00144057
0.00145295
0.00146732
0.00148557
0.00150841
0.00153543
0.00156531
0.00159638
0.00162745
0.00165866
0.00169387
0.0017384
0.0017926
0.00186017
0.00195061
0.00208191
0.00225433
0.00349875
0.00186688
0.00162653
0.00157617
0.001571
0.0015727
0.00155805
0.00155437
0.00155604
0.00156593
0.00158479
0.00161196
0.00164507
0.00168136
0.00171872
0.00175486
0.00179412
0.00184047
0.00188543
0.00193834
0.00199397
0.002055
0.00213126
0.00445331
0.00211708
0.00179667
0.00174871
0.0017026
0.0016468
0.00162596
0.00163255
0.00163039
0.00163584
0.0016535
0.0016815
0.00171741
0.00175576
0.00179035
0.00181308
0.00183815
0.0018752
0.00192375
0.00197234
0.00201023
0.00204659
0.00209281
0.00440539
0.00226896
0.0019029
0.00188892
0.00176108
0.00167952
0.00166479
0.00167657
0.00167844
0.00168157
0.00169852
0.00172724
0.00176491
0.00180931
0.0018487
0.00186155
0.0018827
0.0019217
0.00196931
0.00202717
0.00205194
0.00205217
0.00206025
0.00171657
0.0019304
0.00180959
0.00176596
0.00170867
0.00167542
0.00167386
0.00168415
0.00169013
0.00170402
0.0017277
0.00175825
0.00179329
0.00183208
0.00186427
0.00188317
0.00190346
0.00193437
0.00196897
0.00200943
0.00203563
0.00203419
0.00203366
0.00176529
0.00201681
0.00177718
0.00171039
0.00167929
0.00166495
0.00166723
0.00167906
0.00169464
0.00171557
0.0017427
0.00177469
0.00181077
0.00184723
0.00187648
0.00189824
0.00191946
0.00194473
0.00197238
0.00200023
0.00202165
0.00202859
0.00202706
0.00176775
0.00200413
0.00174234
0.00166775
0.00164612
0.00164542
0.00165705
0.00167526
0.00169698
0.0017225
0.00175254
0.00178749
0.00182719
0.00186638
0.0018967
0.00191747
0.0019367
0.00195787
0.00197944
0.00199991
0.00201747
0.0020284
0.00202991
0.00747608
0.0019896
0.00171006
0.00163424
0.00161849
0.00162679
0.00164627
0.00167097
0.00169842
0.00172849
0.00176199
0.00179998
0.00184204
0.0018827
0.00191429
0.001937
0.00195702
0.00197691
0.00199543
0.00201195
0.00202635
0.00203702
0.00204159
0.00176564
0.00196378
0.00168976
0.00161442
0.00160166
0.00161459
0.00163896
0.00166852
0.00170075
0.00173505
0.00177183
0.00181187
0.00185445
0.00189537
0.00192936
0.0019561
0.00197947
0.00200101
0.00201968
0.00203521
0.00204834
0.00205882
0.00206564
0.00176569
0.00196063
0.00168361
0.00160702
0.00159478
0.00160949
0.00163654
0.0016694
0.00170533
0.00174322
0.00178286
0.00182452
0.00186747
0.001909
0.00194592
0.00197737
0.00200508
0.00202984
0.0020509
0.0020681
0.00208243
0.00209433
0.0021036
0.00176733
0.00196651
0.00168905
0.00160907
0.00159567
0.00161064
0.00163911
0.00167429
0.00171308
0.00175397
0.00179625
0.00183978
0.00188391
0.00192695
0.00196705
0.00200328
0.00203573
0.00206462
0.00208949
0.00211029
0.00212796
0.00214312
0.00215586
0.00746914
0.00200707
0.00170285
0.00161819
0.00160274
0.00161727
0.00164656
0.00168351
0.00172467
0.00176823
0.00181324
0.00185925
0.0019056
0.00195121
0.00199486
0.00203578
0.00207333
0.00210717
0.00213698
0.00216284
0.00218548
0.00220543
0.00222281
0.00176771
0.00202211
0.00172251
0.00163281
0.00161502
0.00162889
0.00165877
0.00169728
0.00174067
0.00178695
0.00183503
0.00188421
0.00193383
0.00198304
0.00203097
0.00207684
0.00211992
0.00215958
0.00219545
0.00222763
0.00225658
0.00228264
0.00230584
0.0017657
0.00206931
0.00174695
0.00165197
0.0016319
0.00164517
0.00167568
0.00171582
0.00176164
0.001811
0.00186268
0.00191584
0.00196973
0.00202362
0.00207676
0.0021284
0.00217777
0.00222421
0.00226732
0.00230705
0.00234361
0.00237708
0.00240735
0.00176602
0.00210583
0.00177532
0.00167512
0.00165298
0.00166591
0.00169733
0.00173944
0.00178814
0.00184117
0.00189717
0.00195517
0.0020144
0.00207414
0.00213365
0.00219222
0.0022491
0.0023036
0.00235525
0.00240389
0.00244942
0.00249172
0.00253046
0.00176521
0.00215758
0.00180713
0.00170185
0.00167799
0.00169102
0.00172385
0.00176849
0.00182074
0.00187819
0.00193938
0.00200327
0.00206903
0.00213592
0.00220322
0.00227019
0.00233609
0.00240023
0.00246203
0.00252113
0.00257725
0.00262999
0.00267884
0.00747594
0.00221476
0.00184188
0.00173195
0.00170685
0.00172055
0.00175545
0.00180336
0.00185996
0.00192276
0.0019902
0.00206119
0.00213487
0.00221044
0.00228717
0.00236431
0.00244108
0.00251674
0.00259061
0.0026621
0.00273074
0.00279588
0.00285677
0.00746794
0.00227095
0.00188012
0.00176538
0.00173955
0.00175461
0.00179238
0.00184444
0.00190638
0.00197563
0.00205058
0.0021301
0.00221329
0.00229933
0.00238744
0.00247683
0.00256667
0.00265613
0.00274439
0.00283064
0.00291415
0.00299407
0.00306939
0.0017666
0.00231234
0.00192061
0.00180194
0.00177613
0.00179338
0.00183493
0.00189216
0.00196059
0.0020376
0.00212154
0.00221126
0.00230584
0.00240443
0.00250621
0.00261033
0.00271588
0.00282189
0.00292737
0.00303129
0.00313259
0.00323021
0.00332285
0.00176791
0.00236814
0.00196331
0.00184166
0.00181674
0.00183708
0.00188344
0.00194702
0.00202325
0.00210953
0.00220419
0.00230607
0.00241425
0.00252786
0.00264604
0.00276785
0.00289227
0.00301817
0.00314434
0.00326947
0.00339219
0.00351113
0.00362465
0.00176583
0.00243217
0.00200848
0.00188469
0.00186154
0.00188598
0.00193829
0.00200953
0.00209509
0.00219237
0.00229975
0.00241609
0.00254048
0.00267204
0.00280986
0.00295293
0.00310006
0.00324994
0.00340107
0.00355181
0.00370041
0.00384511
0.00398386
0.00176771
0.00248678
0.0020563
0.00193125
0.00191077
0.00194036
0.00199988
0.00208025
0.00217687
0.00228716
0.00240958
0.00254305
0.00268672
0.00283971
0.00300108
0.00316971
0.00334425
0.00352311
0.00370447
0.00388626
0.00406625
0.00424221
0.00441155
0.0017638
0.00254917
0.00210686
0.00198154
0.00196461
0.00200049
0.0020686
0.00215976
0.00226937
0.00239498
0.00253512
0.00268887
0.00285543
0.003034
0.00322361
0.00342305
0.00363073
0.00384475
0.00406284
0.00428242
0.00450065
0.00471463
0.00492114
0.00176643
0.00261724
0.00216127
0.00203556
0.00202316
0.0020666
0.00214484
0.0022486
0.0023734
0.00251692
0.0026779
0.00285557
0.00304932
0.00325842
0.00348194
0.00371853
0.00396638
0.00422319
0.00448611
0.00475188
0.00501684
0.00527722
0.00552896
0.00746846
0.00270465
0.00221856
0.00209324
0.00208648
0.00213886
0.00222889
0.00234728
0.00248971
0.00265408
0.00283944
0.00304529
0.00327126
0.00351682
0.00378108
0.00406261
0.00435932
0.00466837
0.0049862
0.0053086
0.00563086
0.00594804
0.00625494
0.00747065
0.00277193
0.0022774
0.00215423
0.00215452
0.00221737
0.002321
0.00245621
0.00261893
0.00280746
0.00302122
0.00326015
0.00352425
0.0038133
0.00412656
0.00446253
0.0048188
0.0051919
0.00557727
0.00596946
0.00636229
0.00674924
0.00712354
0.00748177
0.00283589
0.00233777
0.00221842
0.00222723
0.00230215
0.00242127
0.00257564
0.00276158
0.00297789
0.00322457
0.00350217
0.00381128
0.00415215
0.00452434
0.00492637
0.00535547
0.00580735
0.0062762
0.0067548
0.00723495
0.00770796
0.00816484
0.00747447
0.00290699
0.00239989
0.00228577
0.00230448
0.00239308
0.00252968
0.00270567
0.00291791
0.00316592
0.00345052
0.00377312
0.00413516
0.00453764
0.00498067
0.00546293
0.0059813
0.00653051
0.00710302
0.00768923
0.00827804
0.00885768
0.00941609
0.00176771
0.00295847
0.00246357
0.00235598
0.002386
0.00248995
0.00264602
0.00284611
0.00308785
0.00337171
0.00369962
0.00407422
0.00449819
0.00497371
0.00550176
0.00608151
0.00670956
0.00737947
0.00808142
0.0088025
0.00952742
0.01024
0.0109237
0.00176674
0.0030246
0.00252791
0.00242853
0.00247146
0.00259242
0.0027699
0.0029965
0.00327088
0.00359479
0.00397167
0.00440585
0.0049018
0.00546345
0.00609329
0.00679141
0.00755446
0.00837465
0.00923923
0.0101306
0.0110274
0.0119068
0.0127459
0.00748072
0.00309731
0.00259201
0.00250305
0.00256066
0.00270025
0.00290085
0.00315608
0.00346595
0.00383391
0.00426542
0.00476709
0.00534592
0.00600842
0.0067595
0.00760106
0.00853036
0.00953838
0.0106086
0.0117169
0.0128329
0.0139236
0.0149567
0.00748692
0.00314757
0.00265531
0.00257973
0.00265394
0.00281351
0.00303843
0.00332374
0.00367131
0.00408677
0.00457817
0.00515515
0.0058282
0.00660758
0.00750199
0.00851657
0.00965042
0.0108938
0.0122259
0.0136133
0.0150123
0.0163739
0.0176509
0.00748653
0.00319355
0.00271867
0.00266042
0.00275301
0.00293309
0.0031824
0.00349812
0.00388444
0.00434975
0.00490534
0.00556475
0.00634308
0.00725595
0.00831782
0.00953939
0.0109239
0.0124627
0.0141303
0.0158811
0.017651
0.019365
0.0209518
0.00176883
0.00321939
0.00278682
0.0027509
0.00286233
0.00306137
0.00333304
0.00367748
0.00410183
0.00461764
0.00524003
0.00598733
0.00688062
0.00794284
0.00919695
0.0106628
0.012352
0.0142607
0.0163605
0.0185907
0.0208559
0.0230376
0.0250224
0.00747121
0.00327247
0.00287643
0.00286578
0.00299158
0.00320317
0.00349123
0.00385967
0.00431873
0.00488328
0.0055726
0.0064105
0.00742542
0.0086499
0.010119
0.0118669
0.0139205
0.0162886
0.0189464
0.0218175
0.0247605
0.0275802
0.0300829
0.00176612
0.00334625
0.00303971
0.00303946
0.0031593
0.00336629
0.00365807
0.00404149
0.0045288
0.00513741
0.00589044
0.00681759
0.00795574
0.00934936
0.0110498
0.0131123
0.0155896
0.0185178
0.0218923
0.0256304
0.0295293
0.0332545
0.0364398
0.00747691
0.00381775
0.00344012
0.00334754
0.00339619
0.00356004
0.003833
0.00421751
0.00472347
0.00536841
0.00617816
0.0071879
0.00844351
0.0100031
0.0119381
0.0143327
0.0172794
0.0208656
0.0251418
0.0300575
0.0353537
0.0404471
0.044535
0.0144973
0.00650298
0.00458907
0.00393953
0.00374025
0.00378792
0.00400933
0.00437796
0.00489129
0.0055626
0.00641828
0.00749786
0.00885569
0.0105638
0.0127158
0.0154307
0.0188554
0.0231601
0.028513
0.0349992
0.0424106
0.0497979
0.0550305
0.147744
0.0239816
0.00810724
0.00504109
0.00420027
0.00402896
0.00416707
0.0045066
0.00501789
0.00570505
0.00659283
0.00772339
0.00915772
0.0109797
0.0133031
0.0162814
0.0201219
0.0251032
0.0315902
0.0400106
0.0506437
0.0625814
0.0689374
1.53736
0.124997
0.0174493
0.00661434
0.0046414
0.00420968
0.00426801
0.00458123
0.00508752
0.00578153
0.00668571
0.0078433
0.00931891
0.0112034
0.0136229
0.0167536
0.020847
0.0262739
0.0336115
0.0438276
0.0587176
0.082018
0.0876819
0.00867972
0.00696724
0.00701214
0.00857935
0.00305073
0.00308462
0.00306866
0.00299354
0.00235729
0.00238086
0.00236631
0.00231399
0.00216835
0.00217645
0.00216692
0.0021394
0.00211232
0.00211391
0.00210351
0.00207502
0.00206232
0.00206172
0.00205731
0.00204087
0.00203205
0.0020306
0.00202783
0.0020183
0.00202247
0.00201949
0.00201604
0.00200957
0.00202596
0.0020231
0.00201973
0.00201497
0.00204087
0.00203963
0.00203757
0.00203446
0.0020679
0.00206857
0.00206831
0.00206696
0.00210847
0.00211092
0.0021125
0.00211298
0.00216349
0.00216772
0.00217108
0.00217341
0.00223374
0.00224002
0.00224535
0.00224963
0.00232079
0.00232955
0.00233727
0.00234385
0.00242719
0.00243897
0.00244958
0.00245894
0.00255619
0.00257162
0.00258575
0.00259849
0.00271164
0.00273147
0.00274986
0.00276672
0.00289806
0.0029232
0.00294674
0.00296858
0.00312087
0.00315239
0.00318214
0.00321001
0.00338661
0.00342582
0.00346307
0.0034982
0.0037032
0.00375171
0.00379799
0.0038419
0.00408031
0.00414002
0.00419723
0.00425173
0.00452963
0.00460291
0.00467331
0.00474058
0.00506544
0.00515512
0.00524145
0.00532413
0.00570506
0.0058146
0.00592016
0.00602139
0.00646962
0.00660322
0.006732
0.00685555
0.00738506
0.00754776
0.00770453
0.00785488
0.00848326
0.00868116
0.0088716
0.00905399
0.00980368
0.0100441
0.0102749
0.0104955
0.0113954
0.0116872
0.0119664
0.0122323
0.0133202
0.0136739
0.0140108
0.0143301
0.0156561
0.0160842
0.0164896
0.0168714
0.0185029
0.0190204
0.0195064
0.0199603
0.02199
0.0226139
0.0231936
0.0237289
0.0262866
0.0270357
0.0277216
0.0283458
0.0316182
0.0325106
0.0333115
0.0340262
0.0382899
0.0393362
0.0402501
0.0410442
0.0467197
0.0479071
0.0489056
0.0497428
0.0574806
0.0587358
0.0597359
0.0605348
0.0713238
0.0724384
0.0732602
0.0738756
0.0890562
0.0895952
0.0899446
0.0901826
0.0032611
0.00206259
0.00168423
0.00153784
0.00147158
0.00143745
0.00141604
0.00139603
0.00137113
0.00134432
0.00131101
0.00126233
0.00119859
0.00112202
0.00104305
0.000976261
0.000927271
0.000991441
0.00192057
0.00243365
0.00198096
0.00174094
0.00161442
0.00154581
0.00150768
0.00148571
0.0014714
0.00146004
0.00145004
0.00143808
0.00140427
0.00134162
0.0012553
0.00116579
0.00109007
0.0010445
0.00113402
0.00223444
0.00215924
0.00194668
0.00178919
0.00168636
0.00162345
0.0015877
0.00156997
0.00156286
0.00156264
0.00156645
0.0015716
0.0015471
0.00148235
0.00138933
0.00129201
0.00120937
0.00116483
0.00125958
0.00234295
0.00206818
0.00195807
0.00184548
0.0017593
0.00170239
0.00167038
0.00165845
0.00165868
0.00166742
0.00168186
0.00170344
0.00168398
0.00162
0.0015281
0.00142548
0.00134051
0.0013006
0.00140917
0.00276797
0.00201995
0.0019492
0.00187924
0.00182069
0.00177783
0.00175095
0.00174393
0.00175146
0.0017605
0.00176042
0.00176084
0.00178255
0.00175468
0.00160751
0.00149232
0.00142135
0.00141359
0.00158179
0.00277386
0.0020014
0.00195653
0.00189799
0.0018513
0.00182238
0.00181148
0.00181463
0.00182175
0.00182583
0.00180933
0.00181068
0.00181448
0.00175844
0.00166017
0.00157409
0.0015171
0.00151751
0.00174191
0.0030149
0.00199464
0.00196565
0.00192253
0.00188741
0.00186295
0.00185001
0.00184719
0.00183871
0.00182828
0.00181555
0.0018187
0.00184405
0.00180477
0.00169491
0.00162641
0.00158792
0.00159607
0.00176402
0.00112377
0.00199418
0.00196906
0.00193794
0.00190891
0.00188504
0.00186804
0.00185326
0.00183423
0.00181651
0.00180571
0.00181627
0.00183765
0.00179963
0.00170055
0.00161905
0.00157763
0.00160856
0.00189415
0.00490264
0.00200457
0.00198545
0.00196235
0.00193723
0.00191189
0.00189062
0.00186821
0.00184344
0.00181843
0.00179891
0.00179219
0.00179121
0.00176592
0.0017012
0.00161947
0.00156834
0.00160228
0.00191168
0.00115921
0.00202768
0.00201445
0.00199726
0.00197454
0.00194824
0.00192367
0.0018972
0.00186663
0.00183358
0.00180262
0.00177609
0.0017506
0.00172041
0.00167788
0.00161303
0.0015612
0.00158165
0.00184944
0.00115938
0.00206307
0.00205357
0.00203969
0.00201889
0.00199336
0.00196794
0.00193839
0.00190206
0.0018622
0.00182173
0.00178087
0.0017368
0.0016889
0.00164105
0.00159081
0.0015487
0.00155144
0.00173577
0.00115899
0.00211181
0.0021049
0.00209262
0.00207342
0.00204912
0.00202254
0.00199037
0.0019508
0.00190625
0.00185868
0.00180813
0.00175239
0.00169005
0.00162619
0.00157271
0.00153479
0.00152947
0.00166269
0.00489352
0.00217523
0.00217147
0.00216094
0.0021431
0.00211946
0.00209152
0.00205753
0.00201616
0.00196851
0.00191591
0.00185867
0.00179568
0.00172537
0.00164904
0.00157989
0.00153116
0.00151986
0.00159998
0.00115913
0.00225473
0.00225506
0.00224742
0.00223157
0.00220882
0.00218026
0.00214509
0.00210238
0.00205256
0.00199648
0.00193468
0.00186693
0.00179241
0.001711
0.00162899
0.00156213
0.00153688
0.00159509
0.00115796
0.00235265
0.00235773
0.00235417
0.00234157
0.00232083
0.00229278
0.00225721
0.00221366
0.00216235
0.00210396
0.00203924
0.0019687
0.00189266
0.00181177
0.0017285
0.00165425
0.00161989
0.00168904
0.00487265
0.00247218
0.00248296
0.00248457
0.00247643
0.00245894
0.00243265
0.00239768
0.00235399
0.00230189
0.00224214
0.00217576
0.00210397
0.00202836
0.0019512
0.00187612
0.00181421
0.00180392
0.00194117
0.00112086
0.00261716
0.0026349
0.00264286
0.00264029
0.00262719
0.00260386
0.00257055
0.00252753
0.00247532
0.0024149
0.00234764
0.00227553
0.00220134
0.00212928
0.00206626
0.00202811
0.00206498
0.00232165
0.00111937
0.00279201
0.00281822
0.00283387
0.00283806
0.00283048
0.00281124
0.00278061
0.00273904
0.00268729
0.00262658
0.00255871
0.00248635
0.00241341
0.002346
0.00229445
0.00228054
0.00236583
0.00277428
0.00506109
0.0030019
0.0030384
0.00306332
0.00307562
0.0030748
0.00306075
0.00303374
0.00299431
0.00294341
0.00288248
0.00281374
0.00274045
0.00266752
0.00260269
0.00255929
0.00256436
0.00268769
0.00319303
0.00619078
0.00325306
0.00330202
0.00333809
0.00336013
0.00336743
0.00335975
0.00333727
0.00330057
0.00325072
0.00318937
0.00311905
0.00304353
0.00296855
0.00290322
0.00286343
0.00288143
0.00304026
0.00364591
0.0072971
0.00355303
0.00361703
0.00366654
0.00370023
0.00371725
0.00371722
0.0037002
0.00366678
0.00361805
0.00355583
0.00348287
0.00340335
0.00332365
0.00325401
0.00321241
0.00323545
0.00341453
0.0040893
0.0081918
0.00391095
0.00399311
0.00405876
0.00410641
0.00413503
0.00414409
0.00413356
0.00410395
0.00405635
0.00399263
0.00391571
0.00383004
0.00374252
0.00366432
0.00361508
0.00363451
0.00382091
0.00454413
0.0090221
0.00433795
0.00444197
0.00452699
0.00459131
0.00463373
0.00465357
0.00465068
0.00462546
0.00457896
0.00451303
0.00443065
0.00433645
0.00423775
0.00414647
0.00408389
0.00409233
0.00427813
0.00504473
0.0099129
0.0048475
0.00497778
0.00508596
0.00517013
0.0052289
0.00526147
0.00526756
0.00524745
0.00520207
0.00513319
0.00504377
0.00493852
0.00482514
0.00471637
0.00463485
0.00462651
0.00480801
0.00562482
0.0109728
0.00545596
0.00561767
0.00575344
0.00586111
0.00593919
0.00598673
0.00600335
0.00598921
0.0059451
0.00587261
0.00577462
0.00565591
0.00552439
0.00539353
0.00528789
0.00525812
0.00543435
0.00631657
0.0122954
0.00618315
0.00638235
0.00655079
0.00668615
0.00678684
0.0068519
0.00688086
0.00687378
0.00683129
0.00675481
0.00664698
0.00651247
0.00635936
0.00620199
0.00606727
0.0060118
0.00618248
0.00714637
0.0139058
0.00705315
0.00729684
0.00750372
0.00767143
0.00779842
0.00788381
0.00792719
0.00792858
0.00788843
0.00780791
0.00768932
0.00753706
0.0073593
0.00717127
0.00700257
0.00691684
0.0070807
0.00813881
0.0158032
0.00809528
0.00839143
0.0086432
0.00884833
0.00900558
0.00911437
0.00917452
0.00918611
0.00914947
0.00906542
0.00893583
0.00876466
0.00855995
0.00833766
0.00813027
0.00800929
0.00816373
0.00932605
0.0180159
0.00934527
0.00970291
0.0100066
0.0102545
0.0104461
0.0105815
0.010661
0.0106848
0.0106534
0.0105672
0.0104275
0.0102376
0.0100049
0.00974607
0.00949616
0.00933513
0.0094769
0.0107517
0.0205709
0.010847
0.0112761
0.011639
0.0119351
0.0121651
0.0123301
0.0124315
0.0124702
0.0124465
0.0123607
0.0122132
0.0120066
0.0117475
0.0114522
0.0111583
0.0109545
0.011083
0.0124884
0.0236236
0.0126545
0.0131656
0.0135951
0.0139443
0.0142161
0.0144136
0.0145395
0.0145957
0.014583
0.0145014
0.014351
0.0141327
0.0138522
0.0135249
0.0131902
0.0129462
0.0130689
0.0146479
0.0274923
0.0148347
0.0154386
0.0159413
0.0163475
0.0166634
0.0168951
0.0170476
0.0171243
0.0171267
0.0170551
0.0169089
0.0166881
0.0163966
0.0160487
0.0156846
0.0154121
0.0155482
0.0173701
0.0324808
0.0174708
0.0181775
0.0187581
0.019223
0.0195836
0.0198501
0.0200304
0.0201302
0.0201525
0.0200981
0.0199665
0.0197571
0.0194724
0.0191251
0.0187559
0.0184822
0.0186679
0.0208248
0.0388549
0.0206668
0.0214838
0.0221437
0.0226659
0.0230687
0.023368
0.0235759
0.0237008
0.0237479
0.0237194
0.0236159
0.0234372
0.0231858
0.0228742
0.0225435
0.0223209
0.0226221
0.0252428
0.0469809
0.0245531
0.0254825
0.0262176
0.0267903
0.0272289
0.0275562
0.027789
0.0279396
0.0280157
0.0280222
0.0279621
0.0278383
0.0276565
0.0274323
0.0272116
0.0271338
0.0276726
0.0309655
0.0575137
0.0292928
0.0303276
0.0311249
0.0317345
0.032197
0.0325432
0.0327955
0.0329697
0.0330772
0.0331265
0.0331253
0.0330828
0.0330139
0.0329464
0.0329425
0.033167
0.0341676
0.038498
0.0714539
0.0350901
0.0362073
0.0370413
0.0376652
0.0381335
0.038485
0.0387473
0.0389398
0.0390775
0.0391734
0.0392421
0.039304
0.0393916
0.0395605
0.0399155
0.0406867
0.0425496
0.0485956
0.0903837
0.0421968
0.0433495
0.0441786
0.0447838
0.0452329
0.0455714
0.0458302
0.0460313
0.0461924
0.0463316
0.0464717
0.0466481
0.0469205
0.0473941
0.0482622
0.0499112
0.0533092
0.0624037
0.117262
0.0509181
0.0520258
0.05279
0.0533338
0.0537333
0.0540364
0.0542743
0.0544692
0.0546403
0.0548089
0.0550055
0.0552809
0.0557272
0.0565177
0.0579907
0.0608467
0.0667491
0.0815033
0.158021
0.0616088
0.0625538
0.0631778
0.0636115
0.0639284
0.0641716
0.064368
0.0645373
0.0646971
0.064869
0.0650863
0.0654086
0.0659511
0.0669484
0.0689057
0.0729908
0.0822452
0.107096
0.225501
0.0746583
0.0752981
0.0757039
0.0759815
0.076185
0.0763441
0.0764772
0.0765975
0.076718
0.0768554
0.0770375
0.0773162
0.0777977
0.0787158
0.0806306
0.0850395
0.0966367
0.135107
0.349794
0.0904643
0.0906784
0.0908103
0.0909004
0.0909676
0.0910219
0.0910696
0.0911154
0.091164
0.0912225
0.0913025
0.0914266
0.0916425
0.092061
0.0929763
0.095322
0.102895
0.139167
0.579922
)
;

boundaryField
{
    leftWall
    {
        type            epsilonWallFunction;
        value           nonuniform List<scalar> 
50
(
0.000136313
0.000282393
0.000482716
0.000680637
0.000872043
0.00105903
0.0012451
0.00143354
0.00172947
0.00215091
0.00270933
0.00349875
0.00445331
0.00440539
0.00171657
0.00176529
0.00176775
0.00747608
0.00176564
0.00176569
0.00176733
0.00746914
0.00176771
0.0017657
0.00176602
0.00176521
0.00747594
0.00746794
0.0017666
0.00176791
0.00176583
0.00176771
0.0017638
0.00176643
0.00746846
0.00747065
0.00748177
0.00747447
0.00176771
0.00176674
0.00748072
0.00748692
0.00748653
0.00176883
0.00747121
0.00176612
0.00747691
0.0144973
0.147744
1.53736
)
;
    }
    rightWall
    {
        type            epsilonWallFunction;
        value           nonuniform List<scalar> 
50
(
0.000152571
0.000224268
0.000381222
0.000563917
0.000769464
0.000994219
0.0012457
0.00154836
0.00192057
0.00223444
0.00234295
0.00276797
0.00277386
0.0030149
0.00112377
0.00490264
0.00115921
0.00115938
0.00115899
0.00489352
0.00115913
0.00115796
0.00487265
0.00112086
0.00111937
0.00506109
0.00619078
0.0072971
0.0081918
0.0090221
0.0099129
0.0109728
0.0122954
0.0139058
0.0158032
0.0180159
0.0205709
0.0236236
0.0274923
0.0324808
0.0388549
0.0469809
0.0575137
0.0714539
0.0903837
0.117262
0.158021
0.225501
0.349794
0.579922
)
;
    }
    lowerWall
    {
        type            epsilonWallFunction;
        value           nonuniform List<scalar> 
62
(
0.000136313
0.000752308
0.00134583
0.00188069
0.00236041
0.00278922
0.00316986
0.00350428
0.00379501
0.00404954
0.00427688
0.00448462
0.00467361
0.00482398
0.00488257
0.00475374
0.0043288
0.00375465
0.00310726
0.00251706
0.00199914
0.00131645
0.000453498
0.000453498
0.000704263
0.00117122
0.00171373
0.00238084
0.00329955
0.0048382
0.00802502
0.00867972
0.00696724
0.00701214
0.00857935
0.000615582
0.000641405
0.000866434
0.00116852
0.00160536
0.00229362
0.00355465
0.0065873
0.000615582
0.00215095
0.00334382
0.00395856
0.00433761
0.00452493
0.00464656
0.00468089
0.0044349
0.00382035
0.00306705
0.00235503
0.0018863
0.00189773
0.0019528
0.00180373
0.00124494
0.000741621
0.000152571
)
;
    }
    atmosphere
    {
        type            inletOutlet;
        inletValue      uniform 0.1;
        value           nonuniform List<scalar> 
46
(
0.1
0.124997
0.0174493
0.00661434
0.0046414
0.00420968
0.00426801
0.00458123
0.00508752
0.00578153
0.00668571
0.0078433
0.00931891
0.0112034
0.0136229
0.0167536
0.020847
0.0262739
0.0336115
0.0438276
0.0587176
0.1
0.1
0.1
0.1
0.1
0.1
0.1
0.1
0.1
0.1
0.1
0.1
0.1
0.1
0.1
0.1
0.1
0.1
0.1
0.1
0.1
0.1
0.1
0.1
0.579922
)
;
    }
    defaultFaces
    {
        type            empty;
    }
}


// ************************************************************************* //
