/*--------------------------------*- C++ -*----------------------------------*\
  =========                 |
  \\      /  F ield         | OpenFOAM: The Open Source CFD Toolbox
   \\    /   O peration     | Website:  https://openfoam.org
    \\  /    A nd           | Version:  9
     \\/     M anipulation  |
\*---------------------------------------------------------------------------*/
FoamFile
{
    format      ascii;
    class       volScalarField;
    location    "2.3";
    object      p;
}
// * * * * * * * * * * * * * * * * * * * * * * * * * * * * * * * * * * * * * //

dimensions      [1 -1 -2 0 0 0 0];

internalField   nonuniform List<scalar> 
2268
(
702.404
702.584
703.402
704.717
706.418
708.512
710.953
713.725
716.821
720.233
723.942
727.914
732.093
736.401
740.733
744.943
748.812
751.922
754.509
757.022
758.741
758.447
755.884
643.544
643.691
644.453
645.768
647.543
649.692
652.198
655.044
658.222
661.719
665.51
669.548
673.767
678.084
682.393
686.547
690.419
694.046
697.046
698.565
699.397
698.779
696.34
584.56
584.777
585.514
586.84
588.644
590.851
593.43
596.362
599.635
603.231
607.116
611.235
615.51
619.855
624.169
628.313
632.212
636.123
639.344
640.422
640.186
639.155
636.544
525.455
525.769
526.504
527.845
529.679
531.94
534.585
537.595
540.955
544.643
548.619
552.821
557.168
561.57
565.932
570.136
574.106
578.103
581.527
582.597
581.756
579.99
576.722
466.227
466.638
467.395
468.755
470.623
472.934
475.639
478.716
482.15
485.917
489.976
494.265
498.698
503.186
507.636
511.949
516.033
520.041
523.612
524.939
523.953
521.506
517.012
406.861
407.371
408.167
409.556
411.465
413.83
416.592
419.728
423.225
427.059
431.196
435.577
440.114
444.712
449.282
453.738
457.983
462.05
465.636
467.451
466.914
464.225
457.394
347.359
347.959
348.809
350.242
352.208
354.639
357.462
360.652
364.202
368.096
372.309
376.791
381.454
386.188
390.902
395.531
399.988
404.239
407.955
410.464
411.174
408.83
396.702
287.714
288.412
289.32
290.813
292.864
295.388
298.287
301.534
305.133
309.081
313.373
317.985
322.813
327.72
332.606
337.435
342.154
346.722
350.715
354.375
356.914
355.376
335.32
776.049
774.984
771.716
765.602
758.022
749.73
741.408
733.455
730.023
725.959
721.139
716.665
710.878
707.391
704.87
702.387
699.351
697.414
696.739
717.991
715.823
711.82
705.621
698.309
690.293
682.438
676.592
673.435
668.655
663.071
658.579
654.323
650.487
647.355
644.68
641.737
640.021
639.409
660.218
657.345
652.44
646.011
638.924
631.442
624.507
619.842
615.581
610.801
605.176
600.79
597.508
593.401
590.04
586.81
583.55
581.754
581.083
602.771
599.498
593.795
587.04
580.072
573.114
566.714
562.842
558.515
552.463
547.271
542.865
540.01
536.044
532.355
528.968
525.695
523.623
523.53
545.483
541.911
535.438
528.378
521.486
515.068
509.373
507.637
503.928
495.351
489.531
484.728
481.449
477.577
473.979
471.882
472.098
469.409
468.978
488.348
484.01
476.983
469.764
462.935
457.139
453.144
454.001
450.029
441.412
432.98
426.41
422.053
418.106
415.319
414.354
416.541
416.76
416.39
431.807
425.364
418.248
411.092
404.242
399.017
397.159
400.327
396.003
387.554
376.248
367.713
362.238
358.41
356.513
356.047
358.521
361
362.243
375.472
365.818
359.255
352.465
345.317
340.239
340.13
343.993
340.262
331.473
318.023
308.332
301.9
298.9
297.763
297.379
299.255
302.332
304.876
194.249
195.053
196.027
197.623
199.848
202.565
205.601
208.926
212.58
216.59
221.011
225.879
231.059
236.32
241.524
246.712
251.906
257.186
262.613
267.596
272.447
273.444
267.557
73.8587
74.3548
75.3246
76.8667
78.9279
81.3634
83.9343
86.6507
89.614
92.8961
96.6004
100.918
105.806
110.935
115.971
121.094
126.665
132.702
139.098
145.412
150.949
153.003
151.544
9.36918
9.50107
10.0343
10.5975
11.1208
11.8111
12.7637
13.9628
15.3264
16.9297
18.5854
20.1868
22.0326
24.4731
27.2269
30.2304
33.7749
37.2398
40.7217
44.2941
48.4554
51.2094
51.551
0.635133
0.756808
0.88495
0.845865
0.567225
0.353164
0.430009
0.756799
1.16327
1.73423
2.20299
2.16647
1.92662
2.31841
3.05445
3.921
4.90396
4.97545
4.59243
3.72142
3.43533
3.48538
3.39481
0.305723
0.313843
0.354425
0.342017
0.295702
0.253972
0.312509
0.472384
0.642841
0.838825
1.05378
1.18582
1.26501
1.63543
1.95295
2.20904
2.2936
2.14411
1.58623
0.780952
0.235256
0.161012
0.298197
-0.191892
-0.239276
-0.23724
-0.200525
-0.11241
-0.00970276
-0.00226081
-0.0495349
-0.0347493
0.0250001
0.161535
0.274567
0.320811
0.461394
0.770253
0.897911
0.740329
0.594078
0.464126
0.0545228
-0.0839496
-0.0836889
-0.0153834
-0.667144
-0.736842
-0.763011
-0.776321
-0.716194
-0.57337
-0.638006
-0.860665
-0.936133
-0.906716
-0.77683
-0.754483
-0.816708
-0.919052
-0.725412
-0.506456
-0.43713
-0.372707
-0.340955
-0.306401
-0.291809
-0.290857
-0.261228
-1.0221
-1.10352
-1.13846
-1.20755
-1.22954
-1.21862
-1.26419
-1.32308
-1.33073
-1.34662
-1.37953
-1.40143
-1.39013
-1.41846
-1.42765
-1.34598
-1.12018
-0.810002
-0.697754
-0.647044
-0.58428
-0.617737
-0.749227
-1.30157
-1.37064
-1.38296
-1.42207
-1.47147
-1.50504
-1.5144
-1.5062
-1.50723
-1.52074
-1.54226
-1.5581
-1.55714
-1.55811
-1.55878
-1.54052
-1.50187
-1.40914
-1.36313
-1.2865
-1.2069
-1.2744
-1.42839
-1.57503
-1.60689
-1.58283
-1.59449
-1.61569
-1.63114
-1.63816
-1.6403
-1.64414
-1.65491
-1.66965
-1.67843
-1.6802
-1.68578
-1.69246
-1.69974
-1.72643
-1.76617
-1.76376
-1.74512
-1.72359
-1.7189
-1.72869
-1.78472
-1.78517
-1.75646
-1.75106
-1.75688
-1.76404
-1.76906
-1.77238
-1.77709
-1.78538
-1.79594
-1.80403
-1.80914
-1.81613
-1.82515
-1.83725
-1.85719
-1.87302
-1.87806
-1.88273
-1.88125
-1.86865
-1.85314
-1.9134
-1.9138
-1.90091
-1.89413
-1.89435
-1.89769
-1.90128
-1.90474
-1.90937
-1.91589
-1.92368
-1.93092
-1.93736
-1.94477
-1.95371
-1.96469
-1.97894
-1.99095
-1.99498
-1.99303
-1.98604
-1.97683
-1.96989
-2.02645
-2.03378
-2.03153
-2.02819
-2.02786
-2.02973
-2.03246
-2.03572
-2.03993
-2.04531
-2.05151
-2.05783
-2.06417
-2.07123
-2.07926
-2.08834
-2.09839
-2.10689
-2.1108
-2.11025
-2.10581
-2.09919
-2.0924
-2.14988
-2.15765
-2.15916
-2.15831
-2.15852
-2.16001
-2.1623
-2.16525
-2.16898
-2.17354
-2.17873
-2.18423
-2.19001
-2.1963
-2.20316
-2.21045
-2.21772
-2.22359
-2.22658
-2.22657
-2.2238
-2.21907
-2.21335
-2.27816
-2.28423
-2.2862
-2.28659
-2.28732
-2.28878
-2.29087
-2.29355
-2.29686
-2.30079
-2.30522
-2.31
-2.31507
-2.32049
-2.3262
-2.33197
-2.33737
-2.34158
-2.34377
-2.34379
-2.3418
-2.33824
-2.33367
-2.40722
-2.41124
-2.41272
-2.41368
-2.41479
-2.41632
-2.41832
-2.42079
-2.42376
-2.42719
-2.43102
-2.43515
-2.43952
-2.4441
-2.44878
-2.45333
-2.45742
-2.46052
-2.46214
-2.46214
-2.4606
-2.4578
-2.45411
-2.53533
-2.538
-2.53878
-2.53996
-2.54129
-2.54288
-2.54482
-2.54713
-2.54981
-2.55284
-2.55617
-2.55974
-2.56347
-2.56731
-2.57113
-2.57473
-2.57786
-2.58018
-2.58138
-2.58135
-2.58012
-2.57786
-2.57481
-2.66267
-2.66402
-2.6645
-2.6657
-2.66708
-2.66869
-2.67056
-2.67272
-2.67516
-2.67786
-2.68078
-2.68387
-2.68705
-2.69026
-2.69338
-2.69625
-2.69868
-2.70044
-2.70133
-2.70126
-2.70024
-2.69839
-2.69585
-2.78956
-2.7898
-2.79003
-2.79107
-2.79238
-2.79392
-2.79571
-2.79772
-2.79995
-2.80237
-2.80494
-2.80762
-2.81034
-2.81304
-2.81561
-2.81792
-2.81984
-2.82119
-2.82186
-2.82177
-2.82092
-2.81938
-2.81725
-2.91602
-2.91546
-2.91541
-2.91617
-2.91733
-2.91876
-2.92041
-2.92227
-2.9243
-2.92648
-2.92876
-2.9311
-2.93345
-2.93573
-2.93787
-2.93977
-2.94131
-2.94238
-2.94289
-2.9428
-2.94209
-2.9408
-2.93902
-3.04197
-3.04097
-3.04064
-3.0411
-3.04205
-3.04332
-3.04482
-3.04651
-3.04835
-3.05031
-3.05234
-3.0544
-3.05644
-3.0584
-3.06021
-3.06179
-3.06306
-3.06394
-3.06436
-3.06427
-3.06368
-3.06262
-3.06113
-3.16748
-3.16627
-3.1657
-3.16589
-3.16662
-3.1677
-3.16903
-3.17054
-3.1722
-3.17395
-3.17577
-3.17759
-3.17939
-3.18109
-3.18265
-3.184
-3.18508
-3.18583
-3.18619
-3.18613
-3.18566
-3.18478
-3.18354
-3.29267
-3.29136
-3.29062
-3.29059
-3.2911
-3.29198
-3.29313
-3.29446
-3.29594
-3.29752
-3.29914
-3.30077
-3.30236
-3.30386
-3.30523
-3.30641
-3.30735
-3.30801
-3.30834
-3.30833
-3.30796
-3.30725
-3.30623
-3.41762
-3.41626
-3.41541
-3.4152
-3.41552
-3.41621
-3.41718
-3.41835
-3.41966
-3.42107
-3.42252
-3.42398
-3.4254
-3.42675
-3.42796
-3.42902
-3.42986
-3.43046
-3.43078
-3.43081
-3.43054
-3.42999
-3.42916
-3.54241
-3.54104
-3.54011
-3.53975
-3.53991
-3.54044
-3.54125
-3.54226
-3.54342
-3.54468
-3.54598
-3.5473
-3.54858
-3.54979
-3.55088
-3.55183
-3.5526
-3.55316
-3.55349
-3.55356
-3.55338
-3.55296
-3.5523
-3.66713
-3.66574
-3.66475
-3.66429
-3.66432
-3.66471
-3.66538
-3.66626
-3.66728
-3.6684
-3.66957
-3.67076
-3.67191
-3.67301
-3.674
-3.67487
-3.67558
-3.67611
-3.67644
-3.67656
-3.67646
-3.67615
-3.67564
-3.79184
-3.79042
-3.78938
-3.78885
-3.78878
-3.78906
-3.78961
-3.79037
-3.79127
-3.79227
-3.79333
-3.79439
-3.79543
-3.79642
-3.79733
-3.79812
-3.79878
-3.79929
-3.79962
-3.79978
-3.79974
-3.79953
-3.79914
-3.91658
-3.91513
-3.91407
-3.91348
-3.91333
-3.91353
-3.91399
-3.91464
-3.91544
-3.91632
-3.91726
-3.91822
-3.91916
-3.92005
-3.92087
-3.9216
-3.92221
-3.92269
-3.92302
-3.9232
-3.92323
-3.9231
-3.92282
-4.0414
-4.03994
-4.03886
-4.03822
-4.03802
-4.03815
-4.03853
-4.03909
-4.03978
-4.04056
-4.0414
-4.04225
-4.04308
-4.04388
-4.04462
-4.04528
-4.04584
-4.0463
-4.04663
-4.04683
-4.0469
-4.04683
-4.04664
-4.16632
-4.16486
-4.16377
-4.16311
-4.16286
-4.16293
-4.16324
-4.16371
-4.16431
-4.16499
-4.16572
-4.16646
-4.1672
-4.16791
-4.16856
-4.16916
-4.16967
-4.1701
-4.17042
-4.17063
-4.17074
-4.17073
-4.17062
-4.29133
-4.2899
-4.2888
-4.28813
-4.28786
-4.28788
-4.28812
-4.28851
-4.28901
-4.28959
-4.29022
-4.29086
-4.29149
-4.29211
-4.29269
-4.29321
-4.29368
-4.29407
-4.29438
-4.29461
-4.29474
-4.29478
-4.29473
-4.41642
-4.41503
-4.41396
-4.41329
-4.41299
-4.41297
-4.41314
-4.41346
-4.41387
-4.41435
-4.41487
-4.41541
-4.41595
-4.41647
-4.41697
-4.41743
-4.41784
-4.4182
-4.4185
-4.41873
-4.41888
-4.41896
-4.41896
-4.54158
-4.54025
-4.53921
-4.53855
-4.53825
-4.53818
-4.53829
-4.53853
-4.53886
-4.53924
-4.53966
-4.5401
-4.54054
-4.54097
-4.54139
-4.54178
-4.54215
-4.54247
-4.54276
-4.54299
-4.54316
-4.54327
-4.54331
-4.66679
-4.66552
-4.66454
-4.6639
-4.66359
-4.66349
-4.66354
-4.66371
-4.66395
-4.66424
-4.66457
-4.66491
-4.66525
-4.66559
-4.66593
-4.66625
-4.66656
-4.66686
-4.66713
-4.66736
-4.66755
-4.66769
-4.66777
-4.79202
-4.79084
-4.78992
-4.78932
-4.78899
-4.78887
-4.78887
-4.78897
-4.78913
-4.78934
-4.78957
-4.78981
-4.79006
-4.79031
-4.79056
-4.79081
-4.79107
-4.79134
-4.7916
-4.79184
-4.79205
-4.79222
-4.79233
-4.91726
-4.91618
-4.91533
-4.91476
-4.91445
-4.9143
-4.91426
-4.9143
-4.91439
-4.91452
-4.91466
-4.91481
-4.91496
-4.91511
-4.91527
-4.91544
-4.91565
-4.91589
-4.91615
-4.91642
-4.91665
-4.91684
-4.91698
-5.04248
-5.04151
-5.04074
-5.04022
-5.03992
-5.03976
-5.03969
-5.03968
-5.03971
-5.03976
-5.03982
-5.03987
-5.03992
-5.03998
-5.04003
-5.04012
-5.04025
-5.04047
-5.04077
-5.04106
-5.04133
-5.04155
-5.04172
-5.16766
-5.1668
-5.16612
-5.16566
-5.16539
-5.16523
-5.16514
-5.1651
-5.16507
-5.16506
-5.16504
-5.165
-5.16495
-5.16489
-5.16483
-5.1648
-5.16484
-5.16506
-5.16543
-5.16579
-5.1661
-5.16635
-5.16654
-5.29276
-5.29202
-5.29143
-5.29105
-5.29083
-5.29069
-5.2906
-5.29053
-5.29047
-5.2904
-5.2903
-5.29018
-5.29004
-5.28986
-5.28967
-5.28948
-5.28939
-5.28962
-5.29014
-5.2906
-5.29096
-5.29124
-5.29145
-5.41775
-5.41712
-5.41665
-5.41639
-5.41625
-5.41615
-5.41608
-5.416
-5.4159
-5.41578
-5.41562
-5.41541
-5.41515
-5.41484
-5.41448
-5.41409
-5.41376
-5.41405
-5.41492
-5.41556
-5.41597
-5.41624
-5.41644
-5.54254
-5.54211
-5.54184
-5.54178
-5.54177
-5.54174
-5.54169
-5.54159
-5.54145
-5.54125
-5.54097
-5.54062
-5.54018
-5.53964
-5.53899
-5.53817
-5.53733
-5.53764
-5.53966
-5.54069
-5.54113
-5.54137
-5.54153
-5.66759
-5.66728
-5.66719
-5.66726
-5.66731
-5.66732
-5.66726
-5.66714
-5.66696
-5.6667
-5.66636
-5.66592
-5.66537
-5.66465
-5.66364
-5.66181
-5.65865
-5.65939
-5.66412
-5.66576
-5.66628
-5.66651
-5.66664
280.139
282.589
283.277
282.887
154.443
154.879
154.154
153.025
51.1656
50.5933
50.3365
50.2372
3.59205
3.75636
4.25646
5.17197
0.488706
0.628834
0.811911
1.04052
0.0656828
0.122673
0.170746
0.219069
-0.242747
-0.287365
-0.330344
-0.402516
-0.76396
-0.830038
-0.958337
-1.06654
-1.45597
-1.35013
-1.47142
-1.50877
-1.75363
-1.73333
-1.69716
-1.68237
-1.85068
-1.84492
-1.83599
-1.82671
-1.96674
-1.96309
-1.95762
-1.95172
-2.08795
-2.08445
-2.08035
-2.07608
-2.20891
-2.20583
-2.20256
-2.19924
-2.32985
-2.32723
-2.32449
-2.32171
-2.45088
-2.44864
-2.4463
-2.44393
-2.57207
-2.57016
-2.56815
-2.56611
-2.69351
-2.69188
-2.69016
-2.68841
-2.81526
-2.81387
-2.81239
-2.81088
-2.93733
-2.93614
-2.93487
-2.93357
-3.0597
-3.05869
-3.0576
-3.05649
-3.18234
-3.18149
-3.18057
-3.17961
-3.30523
-3.30451
-3.30373
-3.30292
-3.42834
-3.42774
-3.42709
-3.4264
-3.55163
-3.55114
-3.5506
-3.55003
-3.6751
-3.6747
-3.67426
-3.67379
-3.79872
-3.79841
-3.79805
-3.79768
-3.92249
-3.92225
-3.92197
-3.92167
-4.0464
-4.04621
-4.046
-4.04577
-4.17044
-4.1703
-4.17014
-4.16998
-4.29461
-4.29451
-4.2944
-4.29428
-4.41889
-4.41883
-4.41876
-4.41868
-4.54329
-4.54326
-4.54321
-4.54316
-4.66778
-4.66778
-4.66776
-4.66774
-4.79237
-4.79239
-4.79239
-4.79239
-4.91705
-4.91708
-4.9171
-4.91712
-5.04181
-5.04185
-5.04189
-5.04192
-5.16664
-5.1667
-5.16674
-5.16678
-5.29156
-5.29162
-5.29166
-5.29171
-5.41655
-5.4166
-5.41665
-5.41669
-5.54162
-5.54167
-5.54171
-5.54174
-5.66671
-5.66674
-5.66677
-5.6668
278.179
272.261
267.268
262.169
259.206
257.6
256.576
256.622
251.899
243.262
234.641
227.116
220.744
214.831
208.696
205.045
205.451
208.197
211.423
150.804
149.271
149.946
152.607
155.877
156.635
154.377
150.809
146.594
142.15
136.918
130.962
123.414
112.473
99.7494
89.8548
85.3134
85.7223
90.1395
50.8584
53.9235
59.0829
64.6842
67.6465
67.3391
64.6191
61.4854
59.2595
55.9477
51.6684
46.7225
40.5465
32.6803
24.5414
18.2211
14.6154
13.7404
16.1962
7.13627
9.96652
12.6894
13.8236
13.9574
13.4279
12.2078
10.9849
9.85957
8.37774
6.54551
4.41115
2.25282
0.754125
0.403307
0.467526
0.156161
-0.0751138
-0.00977113
1.19897
0.540428
0.12049
-0.0372612
-0.133154
-0.25687
-0.324322
-0.276472
-0.263231
-0.235904
-0.221035
-0.209992
-0.159672
-0.114244
-0.141098
-0.211343
-0.304233
-0.341188
-0.312846
0.210156
0.0930751
-0.0437262
-0.103639
-0.141154
-0.228091
-0.343129
-0.353719
-0.343275
-0.304373
-0.325851
-0.377384
-0.449162
-0.521696
-0.549992
-0.563583
-0.56549
-0.558372
-0.536234
-0.54886
-0.548156
-0.552408
-0.591097
-0.670843
-0.805292
-0.917623
-0.976728
-0.982843
-0.920117
-0.939813
-0.989131
-1.02402
-1.04947
-1.05054
-1.0199
-0.917108
-0.873698
-0.838835
-1.17368
-1.1843
-1.13008
-1.12023
-1.1523
-1.20979
-1.26516
-1.30347
-1.31221
-1.32001
-1.33185
-1.34659
-1.34686
-1.32803
-1.30645
-1.29559
-1.2603
-1.23371
-1.20569
-1.52143
-1.535
-1.53827
-1.53129
-1.52527
-1.51166
-1.50422
-1.50607
-1.50685
-1.51194
-1.5009
-1.48725
-1.47579
-1.46391
-1.45275
-1.44895
-1.45773
-1.46709
-1.46374
-1.67459
-1.67563
-1.68393
-1.68638
-1.68144
-1.6703
-1.65077
-1.63862
-1.63358
-1.63103
-1.62405
-1.61485
-1.60539
-1.59499
-1.58841
-1.58777
-1.59308
-1.60686
-1.61389
-1.8133
-1.80788
-1.80733
-1.80562
-1.80043
-1.7907
-1.77817
-1.7687
-1.76273
-1.7584
-1.7523
-1.74467
-1.73643
-1.7285
-1.72316
-1.72307
-1.72603
-1.73337
-1.73675
-1.94278
-1.93616
-1.9324
-1.92842
-1.9227
-1.91446
-1.90489
-1.89706
-1.8916
-1.88715
-1.88112
-1.87384
-1.86719
-1.8631
-1.85931
-1.8576
-1.85809
-1.85972
-1.86084
-2.06928
-2.06245
-2.05706
-2.0517
-2.0457
-2.03853
-2.03079
-2.02402
-2.01875
-2.01412
-2.0081
-2.00141
-1.99583
-1.99231
-1.98985
-1.98727
-1.98542
-1.98386
-1.98431
-2.19382
-2.18738
-2.18152
-2.17564
-2.16954
-2.16304
-2.15643
-2.15037
-2.14506
-2.14004
-2.13456
-2.12892
-2.1239
-2.11984
-2.1162
-2.11267
-2.10897
-2.10628
-2.10768
-2.31712
-2.31127
-2.30564
-2.29992
-2.29394
-2.28794
-2.28207
-2.27657
-2.27147
-2.26659
-2.26162
-2.2567
-2.25216
-2.24809
-2.24418
-2.2401
-2.23538
-2.23165
-2.2331
-2.43998
-2.43463
-2.42937
-2.42404
-2.41852
-2.41305
-2.40775
-2.40275
-2.39803
-2.3935
-2.38907
-2.3848
-2.38084
-2.37722
-2.37378
-2.37031
-2.36629
-2.36336
-2.3641
-2.5627
-2.55789
-2.55304
-2.54813
-2.54316
-2.53824
-2.53349
-2.52897
-2.52469
-2.52063
-2.51675
-2.5131
-2.50981
-2.50693
-2.50447
-2.50253
-2.50114
-2.50013
-2.49959
-2.68546
-2.68118
-2.6768
-2.67236
-2.6679
-2.66352
-2.65928
-2.65524
-2.65143
-2.64783
-2.64448
-2.64143
-2.63879
-2.63665
-2.63517
-2.63465
-2.6356
-2.63664
-2.63469
-2.80834
-2.80458
-2.80067
-2.79671
-2.79274
-2.78884
-2.78508
-2.7815
-2.77814
-2.77501
-2.77213
-2.76959
-2.76749
-2.76594
-2.76508
-2.76518
-2.76651
-2.76879
-2.76776
-2.93138
-2.92809
-2.92466
-2.92115
-2.91764
-2.9142
-2.91088
-2.90772
-2.90478
-2.90207
-2.89962
-2.8975
-2.8958
-2.89461
-2.89404
-2.89419
-2.89503
-2.89651
-2.89622
-3.0546
-3.05175
-3.04874
-3.04567
-3.04259
-3.03956
-3.03665
-3.03389
-3.03132
-3.02897
-3.02689
-3.02512
-3.02371
-3.02273
-3.02224
-3.0222
-3.02243
-3.02303
-3.02163
-3.17799
-3.17553
-3.17293
-3.17025
-3.16756
-3.16492
-3.16237
-3.15997
-3.15774
-3.15571
-3.15393
-3.15243
-3.15124
-3.1504
-3.1499
-3.1497
-3.14956
-3.1497
-3.14802
-3.30154
-3.29944
-3.2972
-3.29488
-3.29255
-3.29026
-3.28805
-3.28596
-3.28402
-3.28228
-3.28075
-3.27946
-3.27844
-3.27769
-3.27719
-3.27688
-3.2766
-3.27635
-3.27507
-3.42524
-3.42345
-3.42154
-3.41955
-3.41755
-3.41557
-3.41366
-3.41185
-3.41018
-3.40868
-3.40736
-3.40624
-3.40534
-3.40465
-3.40414
-3.40375
-3.40334
-3.4028
-3.40157
-3.54906
-3.54756
-3.54594
-3.54425
-3.54253
-3.54084
-3.5392
-3.53765
-3.53621
-3.53491
-3.53377
-3.5328
-3.532
-3.53135
-3.53082
-3.53033
-3.52977
-3.52898
-3.52773
-3.67299
-3.67175
-3.67039
-3.66897
-3.66751
-3.66607
-3.66467
-3.66335
-3.66212
-3.661
-3.66001
-3.65916
-3.65844
-3.65782
-3.65726
-3.65668
-3.65595
-3.65489
-3.65343
-3.79703
-3.79601
-3.79489
-3.7937
-3.79248
-3.79127
-3.79008
-3.78896
-3.78791
-3.78696
-3.78611
-3.78536
-3.7847
-3.7841
-3.78352
-3.78286
-3.78196
-3.78063
-3.77882
-3.92116
-3.92034
-3.91942
-3.91844
-3.91744
-3.91642
-3.91543
-3.91449
-3.91361
-3.9128
-3.91207
-3.91141
-3.91082
-3.91025
-3.90965
-3.90894
-3.90794
-3.90642
-3.90442
-4.04538
-4.04473
-4.04399
-4.0432
-4.04238
-4.04155
-4.04073
-4.03995
-4.03921
-4.03853
-4.03791
-4.03735
-4.03681
-4.03628
-4.0357
-4.03497
-4.03395
-4.03238
-4.03022
-4.16968
-4.16918
-4.16861
-4.16798
-4.16732
-4.16665
-4.16598
-4.16534
-4.16474
-4.16418
-4.16366
-4.16318
-4.16271
-4.16222
-4.16165
-4.16094
-4.15993
-4.15838
-4.15616
-4.29407
-4.2937
-4.29326
-4.29277
-4.29225
-4.29172
-4.29119
-4.29068
-4.2902
-4.28975
-4.28933
-4.28893
-4.28852
-4.28807
-4.28752
-4.28679
-4.28574
-4.28415
-4.28226
-4.41854
-4.41828
-4.41795
-4.41758
-4.41718
-4.41678
-4.41637
-4.41597
-4.4156
-4.41525
-4.41492
-4.4146
-4.41426
-4.41386
-4.41331
-4.41252
-4.41128
-4.4094
-4.4074
-4.54309
-4.54291
-4.54268
-4.54242
-4.54212
-4.54182
-4.54151
-4.54122
-4.54094
-4.54069
-4.54045
-4.54021
-4.53995
-4.53961
-4.53909
-4.53824
-4.53678
-4.53457
-4.53179
-4.66771
-4.66761
-4.66746
-4.66727
-4.66707
-4.66685
-4.66663
-4.66642
-4.66623
-4.66606
-4.66592
-4.66577
-4.66561
-4.66536
-4.66493
-4.66414
-4.66267
-4.66039
-4.65737
-4.7924
-4.79235
-4.79227
-4.79215
-4.79202
-4.79187
-4.79173
-4.79159
-4.79147
-4.79138
-4.79132
-4.79127
-4.79122
-4.79112
-4.79086
-4.79027
-4.78902
-4.78686
-4.78395
-4.91715
-4.91715
-4.91712
-4.91705
-4.91697
-4.91688
-4.9168
-4.91672
-4.91666
-4.91664
-4.91665
-4.91671
-4.91679
-4.91686
-4.91684
-4.91656
-4.91566
-4.91365
-4.91069
-5.04197
-5.042
-5.042
-5.04198
-5.04194
-5.04189
-5.04185
-5.04181
-5.0418
-5.04183
-5.04191
-5.04205
-5.04226
-5.04253
-5.04281
-5.04295
-5.04252
-5.0407
-5.03768
-5.16684
-5.1669
-5.16693
-5.16693
-5.16692
-5.1669
-5.16688
-5.16687
-5.16689
-5.16695
-5.16707
-5.16728
-5.1676
-5.16807
-5.16868
-5.16935
-5.16957
-5.16796
-5.16475
-5.29177
-5.29184
-5.29188
-5.2919
-5.2919
-5.2919
-5.2919
-5.29191
-5.29193
-5.292
-5.29214
-5.29237
-5.29276
-5.29338
-5.29434
-5.29566
-5.29681
-5.29568
-5.29257
-5.41676
-5.41682
-5.41687
-5.41689
-5.41691
-5.41691
-5.41691
-5.41692
-5.41694
-5.41699
-5.4171
-5.41731
-5.41768
-5.41833
-5.41949
-5.42152
-5.4242
-5.42424
-5.42223
-5.54179
-5.54185
-5.54189
-5.54191
-5.54192
-5.54193
-5.54192
-5.54192
-5.54192
-5.54194
-5.54199
-5.5421
-5.54234
-5.54283
-5.54389
-5.54658
-5.55223
-5.55472
-5.55619
-5.66684
-5.66688
-5.66692
-5.66694
-5.66695
-5.66695
-5.66693
-5.66691
-5.66689
-5.66687
-5.66686
-5.66688
-5.66697
-5.66726
-5.66809
-5.67126
-5.68404
-5.68695
-5.69365
)
;

boundaryField
{
    leftWall
    {
        type            calculated;
        value           nonuniform List<scalar> 
50
(
702.404
643.544
584.56
525.455
466.227
406.861
347.359
287.714
194.249
73.8587
9.36918
0.635133
0.305723
-0.191892
-0.667144
-1.0221
-1.30157
-1.57503
-1.78472
-1.9134
-2.02645
-2.14988
-2.27816
-2.40722
-2.53533
-2.66267
-2.78956
-2.91602
-3.04197
-3.16748
-3.29267
-3.41762
-3.54241
-3.66713
-3.79184
-3.91658
-4.0414
-4.16632
-4.29133
-4.41642
-4.54158
-4.66679
-4.79202
-4.91726
-5.04248
-5.16766
-5.29276
-5.41775
-5.54254
-5.66759
)
;
    }
    rightWall
    {
        type            calculated;
        value           nonuniform List<scalar> 
50
(
696.739
639.409
581.083
523.53
468.978
416.39
362.243
304.876
211.423
90.1395
16.1962
-0.00977113
-0.312846
-0.536234
-0.838835
-1.20569
-1.46374
-1.61389
-1.73675
-1.86084
-1.98431
-2.10768
-2.2331
-2.3641
-2.49959
-2.63469
-2.76776
-2.89622
-3.02163
-3.14802
-3.27507
-3.40157
-3.52773
-3.65343
-3.77882
-3.90442
-4.03022
-4.15616
-4.28226
-4.4074
-4.53179
-4.65737
-4.78395
-4.91069
-5.03768
-5.16475
-5.29257
-5.42223
-5.55619
-5.69365
)
;
    }
    lowerWall
    {
        type            calculated;
        value           nonuniform List<scalar> 
62
(
731.834
732.013
732.832
734.146
735.847
737.942
740.382
743.155
746.251
749.662
753.371
757.343
761.522
765.831
770.163
774.373
778.241
781.071
783.293
786.245
788.028
787.612
785.072
755.884
696.34
636.544
576.722
517.012
457.394
396.702
335.32
342.734
345.183
345.845
345.427
776.049
717.991
660.218
602.771
545.483
488.348
431.807
375.472
805.172
804.105
800.875
794.781
787.228
779.098
770.654
762.155
759.161
755.253
750.509
745.97
739.271
735.649
733.128
730.645
727.609
725.672
725.146
)
;
    }
    atmosphere
    {
        type            calculated;
        value           nonuniform List<scalar> 
46
(
-5.72904
-5.72904
-5.72904
-5.72904
-5.72904
-5.72904
-5.72904
-5.72904
-5.72904
-5.72904
-5.72904
-5.72904
-5.72904
-5.72904
-5.72904
-5.72904
-5.72904
-5.72904
-5.72905
-5.72907
-5.72911
-5.72916
-5.72921
-5.72925
-5.72928
-5.7293
-5.72932
-5.72936
-5.7294
-5.72944
-5.72946
-5.72946
-5.72946
-5.72944
-5.72942
-5.72938
-5.72935
-5.72932
-5.72928
-5.72925
-5.72923
-5.7292
-5.72916
-5.72909
-5.72904
-5.77629
)
;
    }
    defaultFaces
    {
        type            empty;
    }
}


// ************************************************************************* //
