/*--------------------------------*- C++ -*----------------------------------*\
  =========                 |
  \\      /  F ield         | OpenFOAM: The Open Source CFD Toolbox
   \\    /   O peration     | Website:  https://openfoam.org
    \\  /    A nd           | Version:  9
     \\/     M anipulation  |
\*---------------------------------------------------------------------------*/
FoamFile
{
    format      ascii;
    class       volScalarField;
    location    "0.02";
    object      p_rgh;
}
// * * * * * * * * * * * * * * * * * * * * * * * * * * * * * * * * * * * * * //

dimensions      [1 -1 -2 0 0 0 0];

internalField   nonuniform List<scalar> 
2268
(
1173.21
1167.82
1152.97
1126.54
1087.68
1035.96
970.49
889.562
790.219
665.887
516.503
283.075
26.3389
4.74149
3.2487
3.05095
2.83944
2.6513
2.50976
2.40054
2.32155
2.27301
2.2524
1174.06
1168.37
1153.37
1126.83
1087.89
1036.1
970.595
889.656
790.364
666.261
519.044
279.848
30.9303
3.43203
3.13831
3.03327
2.83081
2.64812
2.50734
2.39807
2.31884
2.26992
2.24842
1176.66
1170.55
1155.16
1128.32
1089.19
1037.33
971.884
891.162
792.398
669.397
527.056
289.424
36.4796
3.5949
3.14089
3.008
2.81386
2.63857
2.49986
2.39078
2.31087
2.2607
2.23737
1181.18
1174.93
1159.17
1131.9
1092.48
1040.61
975.441
895.369
797.925
677.589
542.42
315.367
41.7288
3.58458
3.11954
2.97871
2.791
2.62246
2.48633
2.37736
2.29609
2.24385
2.21828
1187.77
1181.67
1165.89
1138.38
1098.79
1047.1
982.574
903.743
808.553
692.502
565.521
354.07
46.7112
3.50822
3.07026
2.93979
2.75962
2.59831
2.46531
2.35646
2.27342
2.21883
2.19028
1196.52
1190.71
1175.37
1148.09
1108.66
1057.5
994.039
917.046
824.894
714.267
595.393
400.291
51.5218
3.40384
3.00558
2.88886
2.71862
2.56548
2.43627
2.32787
2.24294
2.1859
2.15215
1207.47
1201.98
1187.37
1160.8
1121.98
1071.72
1009.74
935.066
846.469
741.869
630.221
450.531
56.2217
3.28577
2.93296
2.82744
2.66926
2.52491
2.40006
2.29252
2.20533
2.14486
2.10216
1220.62
1215.41
1201.56
1175.99
1138.17
1089.14
1028.96
956.915
872.159
773.795
666.939
502.437
61.066
3.15908
2.85774
2.75844
2.6144
2.47883
2.35859
2.25208
2.16133
2.09217
2.03541
1.26152
1.25328
1.2367
1.21411
1.18818
1.16108
1.13422
1.10856
1.08458
1.06266
1.04289
1.02542
1.0102
0.997323
0.986741
0.978548
0.972759
0.969378
0.968046
1.26259
1.25383
1.23703
1.21432
1.1883
1.16113
1.13422
1.10853
1.08453
1.0626
1.04282
1.02534
1.01012
0.997236
0.986646
0.978443
0.97264
0.969246
0.967867
1.26561
1.25569
1.23811
1.21496
1.18862
1.16123
1.13417
1.10839
1.08433
1.06237
1.04257
1.02508
1.00985
0.996953
0.986346
0.97811
0.972264
0.968813
0.967355
1.27092
1.2594
1.24034
1.2162
1.18921
1.16138
1.13403
1.10807
1.08391
1.06188
1.04205
1.02453
1.00928
0.996368
0.98573
0.977434
0.971512
0.967984
0.966485
1.27882
1.26515
1.24402
1.2182
1.19007
1.16151
1.1337
1.10745
1.08313
1.06099
1.0411
1.02355
1.00828
0.995336
0.984658
0.976288
0.970289
0.966723
0.965237
1.28958
1.27288
1.24922
1.22094
1.19113
1.16152
1.13307
1.10642
1.08186
1.05959
1.03962
1.02202
1.00673
0.993755
0.983037
0.974603
0.96857
0.965032
0.963591
1.30309
1.28328
1.25611
1.22431
1.19226
1.1613
1.13204
1.10491
1.08007
1.05764
1.03758
1.01993
1.00461
0.991613
0.980864
0.972395
0.966384
0.962925
0.961536
1.32374
1.29985
1.26513
1.22814
1.19326
1.16073
1.13057
1.10291
1.07777
1.05516
1.03502
1.01732
1.00198
0.988964
0.978199
0.96973
0.96378
0.96041
0.959065
1244.57
1239.74
1226.9
1202.94
1167.03
1120.31
1063.27
995.604
917.118
827.961
725.185
584.372
68.0623
2.98883
2.74207
2.64599
2.52492
2.40265
2.28962
2.18502
2.08728
1.9914
1.87153
1286.3
1281.88
1270.16
1248.2
1215.11
1172.03
1119.73
1058.29
987.981
909.325
818.088
698.636
71.1016
2.78591
2.58722
2.50256
2.40047
2.2937
2.19129
2.09312
1.99749
1.90093
1.79619
1336.52
1332.49
1321.88
1301.93
1271.81
1232.64
1185.3
1130.09
1067.53
998.303
918.587
815.63
71.6431
2.61239
2.43829
2.36293
2.27423
2.18042
2.08844
1.99849
1.90976
1.82059
1.72706
1394.54
1390.89
1381.32
1363.35
1336.19
1300.92
1258.46
1209.24
1153.86
1093.1
1023.57
934.455
70.7784
2.43899
2.29248
2.2257
2.14794
2.06539
1.98329
1.90189
1.82092
1.73964
1.65619
1459.64
1456.35
1447.77
1431.66
1407.34
1375.84
1338.03
1294.4
1245.61
1192.42
1131.85
1054.63
68.9418
2.26898
2.14947
2.09076
2.02262
1.95022
1.87745
1.80461
1.73174
1.65873
1.58502
1531.11
1528.16
1520.52
1506.17
1484.54
1456.57
1423.11
1384.65
1341.85
1295.41
1242.75
1175.83
66.4231
2.10597
2.00961
1.95824
1.89876
1.83559
1.77164
1.70721
1.64253
1.57786
1.5132
1608.28
1605.67
1598.89
1586.19
1567.07
1542.39
1512.95
1479.22
1441.83
1401.43
1355.75
1297.83
63.4081
1.94995
1.87286
1.82816
1.77654
1.72186
1.66623
1.60991
1.55326
1.49667
1.44038
1690.54
1688.22
1682.26
1671.08
1654.28
1632.65
1606.89
1577.47
1544.96
1509.94
1470.45
1420.44
60.0296
1.7999
1.73893
1.7004
1.65603
1.6092
1.56139
1.51284
1.46391
1.41504
1.36651
1777.27
1775.24
1770.03
1760.26
1745.6
1726.75
1704.36
1678.85
1650.73
1620.54
1586.54
1543.5
56.3914
1.65466
1.60743
1.57473
1.53713
1.49764
1.45724
1.41609
1.37455
1.333
1.29173
1867.95
1866.18
1861.65
1853.18
1840.48
1824.17
1804.85
1782.88
1758.73
1732.86
1703.77
1666.92
52.5796
1.51318
1.47795
1.45086
1.41969
1.38714
1.35379
1.31974
1.28526
1.25069
1.21626
1962.05
1960.53
1956.63
1949.34
1938.42
1924.43
1907.89
1889.14
1868.57
1846.6
1821.92
1790.61
48.6706
1.37463
1.3501
1.32849
1.30349
1.27757
1.25102
1.22381
1.19614
1.16826
1.14034
2059.13
2057.83
2054.49
2048.27
2038.97
2027.09
2013.08
1997.24
1979.92
1961.48
1940.82
1914.53
44.7389
1.23869
1.22355
1.2073
1.18827
1.16878
1.14884
1.12831
1.10728
1.08589
1.06424
2158.76
2157.65
2154.81
2149.54
2141.71
2131.75
2120.04
2106.85
2092.49
2077.29
2060.33
2038.64
40.8702
1.10574
1.09809
1.08701
1.07379
1.06059
1.04719
1.03329
1.01881
1.00377
0.9882
2260.58
2259.64
2257.24
2252.83
2246.33
2238.11
2228.49
2217.71
2206.07
2193.86
2180.35
2162.94
37.2312
0.977102
0.973549
0.967206
0.959669
0.952756
0.945973
0.93877
0.93086
0.922119
0.912525
2364.36
2363.55
2361.48
2357.79
2352.46
2345.8
2338.09
2329.52
2320.36
2310.93
2300.75
2287.48
34.1757
0.856362
0.849564
0.84708
0.84527
0.844927
0.845096
0.844845
0.843647
0.841238
0.837553
2469.61
2468.63
2466.6
2463.35
2458.99
2453.74
2447.74
2441.14
2434.19
2427.3
2420.56
2412.19
31.6212
0.752322
0.725346
0.724983
0.729432
0.736536
0.744435
0.75167
0.757477
0.761509
0.763695
2574.34
2573.13
2571.21
2568.5
2565.19
2561.32
2556.88
2551.97
2546.77
2541.81
2538.07
2535.64
28.6812
0.654332
0.596178
0.597294
0.609863
0.626799
0.643992
0.659589
0.672821
0.683425
0.691467
2686.17
2685.76
2684.66
2683.17
2681.39
2679.15
2676.43
2673.2
2669.47
2665.57
2662.74
2660.56
50.3146
0.427548
0.437797
0.453704
0.483487
0.515318
0.544305
0.569379
0.590458
0.607698
0.621462
2463.79
2481.35
2484.64
2480.15
2474.56
2468.1
2460.58
2451.43
2439.35
2423.44
2398.15
2332.57
113.086
-0.0129232
0.236318
0.298136
0.353997
0.404848
0.447469
0.48264
0.511603
0.535261
0.55442
-1.73111
-1.30851
-1.46606
-1.46198
-1.46119
-1.44641
-1.41997
-1.38657
-1.35337
-1.33714
-1.34514
-1.24116
-0.577839
-0.246027
0.00176052
0.136887
0.230524
0.301639
0.357266
0.401751
0.437834
0.467209
0.491143
-1.31439
-1.27169
-1.26941
-1.25148
-1.22665
-1.19466
-1.1544
-1.10475
-1.04482
-0.974678
-0.891025
-0.770595
-0.579757
-0.327299
-0.114931
0.029504
0.134766
0.215268
0.278595
0.329424
0.370772
0.404595
0.432371
-1.22615
-1.19898
-1.1884
-1.17092
-1.14625
-1.1141
-1.07403
-1.02513
-0.966235
-0.895221
-0.805537
-0.683068
-0.520481
-0.329585
-0.164287
-0.0358064
0.0656697
0.147001
0.212899
0.266823
0.31129
0.348074
0.378604
-1.10916
-1.0992
-1.08994
-1.07391
-1.04983
-1.01773
-0.977551
-0.928595
-0.869705
-0.798914
-0.711872
-0.601252
-0.465623
-0.320704
-0.188992
-0.0774068
0.0160767
0.0941188
0.159266
0.213771
0.259488
0.297834
0.330048
-1.00801
-1.00266
-0.993639
-0.977756
-0.953784
-0.921987
-0.882418
-0.834514
-0.777324
-0.709495
-0.6289
-0.533044
-0.423096
-0.308538
-0.200288
-0.103554
-0.019106
0.0537227
0.116135
0.169471
0.214984
0.253711
0.286657
-0.916091
-0.912408
-0.904066
-0.888746
-0.86548
-0.834746
-0.796757
-0.751164
-0.697336
-0.63451
-0.561874
-0.47908
-0.387983
-0.293886
-0.202973
-0.119043
-0.0435492
0.0232838
0.0818615
0.132885
0.177136
0.215318
0.248201
-0.831564
-0.828566
-0.820922
-0.80647
-0.784399
-0.755312
-0.719577
-0.677056
-0.627418
-0.570355
-0.505739
-0.434001
-0.356878
-0.277693
-0.200228
-0.127194
-0.0600314
0.000678292
0.0549021
0.102929
0.145198
0.182145
0.214335
-0.75347
-0.750826
-0.743784
-0.730308
-0.709691
-0.6826
-0.649502
-0.610416
-0.565245
-0.513977
-0.456825
-0.394463
-0.328342
-0.260704
-0.194009
-0.130227
-0.0705974
-0.0157997
0.0339125
0.0785796
0.118407
0.153633
0.184653
-0.68118
-0.67878
-0.672301
-0.659859
-0.640837
-0.615921
-0.585628
-0.55009
-0.509364
-0.46361
-0.413195
-0.358828
-0.301679
-0.243339
-0.185504
-0.129624
-0.0767308
-0.0274853
0.0177667
0.0589259
0.0960461
0.129224
0.158726
-0.614159
-0.611969
-0.606047
-0.594669
-0.577303
-0.554623
-0.52716
-0.495122
-0.458659
-0.418019
-0.373621
-0.326125
-0.276473
-0.225837
-0.175443
-0.126381
-0.0795186
-0.0354134
0.00554417
0.0431825
0.0774638
0.108391
0.136131
-0.551906
-0.549915
-0.544544
-0.534237
-0.518531
-0.498065
-0.473369
-0.444691
-0.412233
-0.376277
-0.337243
-0.295715
-0.252452
-0.208347
-0.164323
-0.121225
-0.0797783
-0.0403792
-0.00349834
0.0306863
0.0620872
0.0906471
0.116463
-0.493958
-0.492162
-0.487329
-0.478074
-0.463989
-0.445667
-0.423622
-0.398119
-0.36938
-0.337693
-0.30345
-0.267157
-0.22943
-0.190965
-0.152474
-0.114614
-0.077924
-0.0429705
-0.00995653
0.0208827
0.0494194
0.0755587
0.0993473
-0.439874
-0.438271
-0.433962
-0.425721
-0.413189
-0.396912
-0.377376
-0.354843
-0.329536
-0.301733
-0.271787
-0.24013
-0.207265
-0.173747
-0.140139
-0.106968
-0.0746957
-0.0437268
-0.0143242
0.0133065
0.0390321
0.0627399
0.0844432
-0.389227
-0.387812
-0.38401
-0.376736
-0.365678
-0.351335
-0.334151
-0.314379
-0.292233
-0.267969
-0.241896
-0.214382
-0.185841
-0.15672
-0.127471
-0.0985211
-0.0702523
-0.0429891
-0.016986
0.00757443
0.0305599
0.0518519
0.0714424
-0.341601
-0.340368
-0.337051
-0.330691
-0.321024
-0.308498
-0.293513
-0.276305
-0.257072
-0.236042
-0.213485
-0.189708
-0.165055
-0.13989
-0.114577
-0.0894653
-0.0648684
-0.0410585
-0.0182583
0.0033666
0.0236908
0.0425983
0.0600692
-0.296595
-0.295537
-0.292675
-0.287178
-0.27882
-0.267998
-0.255069
-0.240246
-0.223707
-0.205651
-0.186307
-0.165935
-0.144818
-0.123252
-0.101534
-0.0799461
-0.0587488
-0.0381695
-0.0183997
0.000414818
0.0181573
0.0347198
0.0500775
-0.253832
-0.252938
-0.250503
-0.245816
-0.238689
-0.229469
-0.218469
-0.205874
-0.19184
-0.176536
-0.160158
-0.142919
-0.125052
-0.106797
-0.0883949
-0.0700756
-0.0520522
-0.0345133
-0.0176202
-0.00150549
0.0137304
0.0279898
0.0412479
-0.212963
-0.212224
-0.210186
-0.206258
-0.200293
-0.192586
-0.183402
-0.172901
-0.161211
-0.148478
-0.13486
-0.120534
-0.105687
-0.0905113
-0.0752008
-0.0599411
-0.0449049
-0.030247
-0.0161024
-0.00258396
0.0102147
0.0222096
0.0333836
-0.173657
-0.173076
-0.171404
-0.168185
-0.163317
-0.157046
-0.149586
-0.141065
-0.13159
-0.121277
-0.110256
-0.098666
-0.0866547
-0.0743743
-0.061977
-0.0496097
-0.0374092
-0.0254993
-0.0139902
-0.00297932
0.00744137
0.0172036
0.0263071
-0.135591
-0.135199
-0.133867
-0.131317
-0.127495
-0.122598
-0.116787
-0.110156
-0.10279
-0.0947786
-0.0862222
-0.0772273
-0.0679063
-0.0583754
-0.0487502
-0.0391424
-0.0296555
-0.0203837
-0.0114123
-0.00282561
0.00526741
0.0128149
0.0198544
-0.0985437
-0.0984821
-0.0974751
-0.0955705
-0.0927648
-0.0891946
-0.0849651
-0.0801438
-0.0747919
-0.0689762
-0.0627687
-0.0562465
-0.0494904
-0.0425837
-0.0356087
-0.0286446
-0.0217633
-0.0150281
-0.00849147
-0.00221798
0.0035977
0.00890583
0.0138678
-0.0619826
-0.0635045
-0.0622172
-0.06079
-0.0589608
-0.0566722
-0.0539675
-0.0508885
-0.0474751
-0.0437705
-0.0398212
-0.0356764
-0.0313878
-0.0270081
-0.0225888
-0.0181779
-0.0138167
-0.00953258
-0.00531228
-0.00114332
0.0024385
0.00536118
0.00818241
-0.0204724
-0.0292015
-0.0246273
-0.0233483
-0.0224673
-0.0215208
-0.0204467
-0.0192409
-0.017913
-0.016479
-0.0149577
-0.0133687
-0.0117327
-0.0100704
-0.00840041
-0.00673832
-0.00509317
-0.00345336
-0.00171691
0.000367212
0.00147705
0.00195831
0.00267157
1.69294
1.62551
1.57009
1.51242
1.68514
1.62064
1.56598
1.51325
1.6438
1.5907
1.54119
1.49415
1.58892
1.54509
1.5023
1.46144
1.52822
1.49106
1.45426
1.419
1.4644
1.4325
1.40078
1.37031
1.39832
1.37086
1.34353
1.31721
1.33043
1.3069
1.28346
1.26084
1.2611
1.24114
1.22124
1.20199
1.19069
1.17404
1.15741
1.14127
1.11954
1.10599
1.09242
1.0792
1.04798
1.03737
1.0267
1.01624
0.976315
0.968515
0.960615
0.952792
0.90488
0.899796
0.894561
0.88927
0.834048
0.831598
0.828936
0.826084
0.764243
0.764352
0.764172
0.763663
0.695955
0.698528
0.70073
0.702454
0.629727
0.634644
0.639094
0.642918
0.566193
0.573271
0.579787
0.585537
0.506013
0.514996
0.523335
0.530784
0.449785
0.460344
0.4702
0.479073
0.397929
0.409693
0.420723
0.430717
0.350646
0.363237
0.375096
0.385899
0.307938
0.321004
0.333363
0.34468
0.269655
0.282884
0.295449
0.307013
0.235539
0.248668
0.26119
0.272766
0.20527
0.218087
0.230356
0.241748
0.178498
0.190833
0.202683
0.213729
0.154862
0.166588
0.177888
0.188459
0.134012
0.145032
0.155683
0.165678
0.115617
0.125861
0.135786
0.145126
0.0993658
0.108783
0.117929
0.126555
0.0849745
0.0935319
0.101858
0.109728
0.0721847
0.0798596
0.0873388
0.0944214
0.0607627
0.0675415
0.0741563
0.08043
0.0504973
0.0563723
0.0621115
0.0675619
0.0411965
0.0461638
0.051021
0.0556385
0.0326838
0.0367418
0.0407132
0.0444921
0.0247954
0.0279434
0.0310276
0.0339648
0.0173743
0.0196143
0.021812
0.0239052
0.0102414
0.0115727
0.0128868
0.0141402
0.00328081
0.00370291
0.00413835
0.00456248
1.40425
1.33489
1.27989
1.23352
1.19395
1.15892
1.12736
1.0989
1.07331
1.05046
1.03021
1.01246
0.997119
0.984104
0.973348
0.964925
0.959093
0.95584
0.954556
1.42443
1.34591
1.28452
1.23344
1.19037
1.15304
1.1201
1.09086
1.06486
1.04183
1.02154
1.00383
0.988575
0.975654
0.964999
0.956691
0.950998
0.947857
0.946627
1.41991
1.34205
1.27899
1.22631
1.18173
1.14327
1.10964
1.08002
1.05389
1.03087
1.01069
0.993148
0.97807
0.965328
0.954845
0.946704
0.94116
0.938125
0.936939
1.3977
1.32509
1.26401
1.21212
1.16772
1.12929
1.09571
1.06623
1.04032
1.01756
0.997678
0.98043
0.965639
0.953163
0.94292
0.934988
0.929611
0.92668
0.925537
1.36387
1.29807
1.24097
1.19147
1.14855
1.11111
1.07829
1.04946
1.02412
1.0019
0.982509
0.965711
0.951325
0.939206
0.92927
0.92159
0.916397
0.913574
0.912476
1.32243
1.26362
1.21136
1.16522
1.12466
1.08896
1.0575
1.02977
1.00535
0.983924
0.965223
0.949031
0.935169
0.923498
0.913937
0.906556
0.901571
0.898866
0.897814
1.27566
1.2236
1.17648
1.13423
1.09662
1.06321
1.03356
1.00729
0.984102
0.963711
0.945893
0.930453
0.917232
0.906099
0.89698
0.889943
0.885194
0.882619
0.881618
1.22496
1.1793
1.13738
1.0993
1.06501
1.03425
1.00675
0.982259
0.960544
0.941394
0.924625
0.910073
0.897598
0.887086
0.878473
0.871825
0.867339
0.864907
0.863962
1.1713
1.13171
1.09493
1.06113
1.03035
1.0025
0.9774
0.95491
0.934871
0.917133
0.901554
0.888005
0.87637
0.866554
0.858503
0.852286
0.848089
0.845813
0.84493
1.1154
1.0816
1.04985
1.02034
0.993186
0.968376
0.945844
0.925517
0.907304
0.891111
0.876837
0.864386
0.853669
0.84461
0.83717
0.831419
0.827535
0.825428
0.824611
1.05787
1.02961
1.00274
0.977473
0.953975
0.932288
0.91242
0.894361
0.878079
0.863526
0.850641
0.839361
0.829624
0.821372
0.814583
0.809328
0.805776
0.80385
0.803103
0.999206
0.976255
0.954122
0.933029
0.913162
0.894616
0.877457
0.861725
0.847436
0.834585
0.823148
0.81309
0.804375
0.796968
0.79086
0.786124
0.78292
0.781182
0.780509
0.939877
0.92203
0.904477
0.887448
0.871152
0.855724
0.841274
0.827886
0.815617
0.804499
0.794539
0.785734
0.778069
0.77153
0.766122
0.761921
0.759076
0.757532
0.756935
0.880309
0.867372
0.854234
0.841143
0.828325
0.815953
0.804176
0.793114
0.78286
0.773476
0.765002
0.757457
0.750853
0.745193
0.740495
0.736837
0.734356
0.73301
0.73249
0.820923
0.812698
0.803799
0.794494
0.785034
0.775626
0.766453
0.757668
0.749393
0.741721
0.734718
0.728426
0.722877
0.718094
0.714106
0.710991
0.708876
0.707728
0.707284
0.762141
0.758415
0.753555
0.747862
0.741612
0.735046
0.72838
0.721795
0.71544
0.709434
0.703866
0.698801
0.694289
0.690369
0.687081
0.684503
0.682748
0.681795
0.681428
0.704389
0.704917
0.703869
0.701583
0.698368
0.694496
0.690213
0.685727
0.68121
0.676805
0.672619
0.66874
0.665232
0.66215
0.659543
0.657488
0.656085
0.655323
0.655029
0.648089
0.652592
0.655093
0.655976
0.655591
0.654239
0.652191
0.649681
0.646901
0.644012
0.641142
0.638392
0.635846
0.633567
0.631614
0.630061
0.628996
0.628418
0.628195
0.593668
0.601803
0.607545
0.611336
0.613548
0.614515
0.614533
0.613856
0.612693
0.611222
0.609585
0.6079
0.60626
0.604741
0.603407
0.60233
0.601587
0.601183
0.601028
0.541531
0.552894
0.561528
0.567922
0.572471
0.575539
0.577437
0.578434
0.578753
0.578587
0.578092
0.577394
0.576597
0.575786
0.575032
0.5744
0.573956
0.573715
0.573623
0.492034
0.50616
0.517297
0.525962
0.532569
0.537497
0.541071
0.54357
0.545228
0.546246
0.546789
0.546993
0.546969
0.546809
0.546587
0.546365
0.546198
0.546107
0.546074
0.445446
0.461835
0.475059
0.485645
0.494013
0.500549
0.505585
0.509402
0.512244
0.514316
0.515788
0.516802
0.517475
0.517903
0.518163
0.518314
0.518398
0.518442
0.518463
0.401944
0.420081
0.434965
0.447112
0.456937
0.464821
0.471096
0.476045
0.479911
0.4829
0.485187
0.486915
0.488204
0.489154
0.489843
0.490325
0.490633
0.490799
0.490867
0.361602
0.380984
0.397106
0.410457
0.421434
0.430407
0.437699
0.443589
0.448316
0.452084
0.455067
0.457409
0.459231
0.460635
0.461698
0.462469
0.462972
0.463244
0.463354
0.324408
0.344563
0.36152
0.375731
0.387563
0.39737
0.40546
0.412102
0.417526
0.421934
0.425494
0.428349
0.430621
0.432408
0.433788
0.434806
0.435476
0.435839
0.435984
0.290277
0.310776
0.328196
0.342942
0.355348
0.365744
0.374419
0.381627
0.38759
0.392499
0.396518
0.399787
0.402423
0.404524
0.406166
0.407388
0.408196
0.408634
0.408808
0.259069
0.279532
0.297078
0.312062
0.32478
0.335534
0.344592
0.35219
0.358537
0.363814
0.368177
0.371761
0.374679
0.377026
0.378873
0.380257
0.381175
0.381673
0.38187
0.230602
0.250703
0.268079
0.283033
0.295823
0.306722
0.315973
0.323794
0.330379
0.335896
0.340493
0.344297
0.347416
0.349942
0.351941
0.353445
0.354446
0.354988
0.355203
0.204673
0.224137
0.241084
0.25577
0.268418
0.279267
0.288538
0.296427
0.303112
0.308748
0.313474
0.317409
0.320653
0.323293
0.325393
0.326977
0.328033
0.328605
0.328831
0.181064
0.199661
0.21596
0.230173
0.242488
0.253114
0.262246
0.270061
0.276719
0.282363
0.28712
0.2911
0.294397
0.297091
0.29924
0.300867
0.301952
0.302541
0.302772
0.159552
0.177095
0.192563
0.206127
0.217942
0.22819
0.237042
0.244654
0.251171
0.25672
0.261418
0.265364
0.268645
0.271336
0.273489
0.275121
0.276212
0.276803
0.277035
0.139917
0.156258
0.170741
0.183506
0.194679
0.204415
0.212862
0.220157
0.226427
0.231788
0.236344
0.240184
0.243387
0.246021
0.248134
0.249738
0.250811
0.251393
0.25162
0.121948
0.136968
0.150343
0.162184
0.172593
0.1817
0.189632
0.196509
0.202441
0.20753
0.211868
0.215535
0.218603
0.221132
0.223164
0.22471
0.225744
0.226305
0.226523
0.105444
0.119049
0.131216
0.14203
0.151572
0.159951
0.167274
0.173644
0.179155
0.183898
0.187951
0.191387
0.194268
0.196647
0.198563
0.200021
0.200997
0.201526
0.201732
0.0902118
0.102332
0.11321
0.122913
0.131503
0.13907
0.145703
0.151489
0.15651
0.16084
0.164551
0.167702
0.17035
0.17254
0.174306
0.175651
0.176553
0.177041
0.177231
0.0760734
0.0866543
0.0961809
0.104704
0.112271
0.118956
0.124831
0.129969
0.134437
0.1383
0.141615
0.144437
0.146811
0.148778
0.150365
0.151575
0.152387
0.152827
0.152998
0.0628587
0.0718593
0.0799852
0.0872743
0.0937624
0.0995071
0.104568
0.109002
0.112866
0.116213
0.11909
0.121543
0.123609
0.125323
0.126707
0.127764
0.128473
0.128857
0.129006
0.0504071
0.0577974
0.0644853
0.070498
0.0758615
0.0806202
0.0848202
0.0885069
0.0917246
0.0945154
0.0969183
0.0989689
0.100699
0.102134
0.103296
0.104183
0.104778
0.105102
0.105228
0.0385655
0.044324
0.0495462
0.0542506
0.0584548
0.0621912
0.065494
0.0683975
0.0709349
0.0731384
0.0750378
0.0766603
0.0780303
0.0791687
0.0800901
0.0807949
0.0812695
0.0815288
0.08163
0.0271819
0.0312918
0.0350285
0.0384015
0.0414208
0.044108
0.0464865
0.0485799
0.0504115
0.0520036
0.0533773
0.0545519
0.0555447
0.0563705
0.0570403
0.0575549
0.0579054
0.0581005
0.0581778
0.0160948
0.0185492
0.020789
0.0228165
0.0246348
0.0262557
0.0276924
0.0289584
0.0300672
0.0310321
0.0318655
0.0325789
0.0331828
0.0336861
0.0340963
0.0344161
0.0346425
0.0347784
0.0348365
0.00522339
0.00603301
0.00677692
0.00745553
0.00806684
0.00861357
0.00909955
0.00952886
0.00990575
0.0102344
0.0105189
0.010763
0.0109703
0.0111437
0.0112857
0.0113982
0.0114831
0.0115441
0.0115767
)
;

boundaryField
{
    leftWall
    {
        type            fixedFluxPressure;
        gradient        uniform 0;
        value           nonuniform List<scalar> 
50
(
1173.21
1174.06
1176.66
1181.18
1187.77
1196.52
1207.47
1220.62
1244.57
1286.3
1336.52
1394.54
1459.64
1531.11
1608.28
1690.54
1777.27
1867.95
1962.05
2059.13
2158.76
2260.58
2364.36
2469.61
2574.34
2686.17
2463.79
-1.73111
-1.31439
-1.22615
-1.10916
-1.00801
-0.916091
-0.831564
-0.75347
-0.68118
-0.614159
-0.551906
-0.493958
-0.439874
-0.389227
-0.341601
-0.296595
-0.253832
-0.212963
-0.173657
-0.135591
-0.0985437
-0.0619826
-0.0204724
)
;
    }
    rightWall
    {
        type            fixedFluxPressure;
        gradient        uniform 0;
        value           nonuniform List<scalar> 
50
(
0.968046
0.967867
0.967355
0.966485
0.965237
0.963591
0.961536
0.959065
0.954556
0.946627
0.936939
0.925537
0.912476
0.897814
0.881618
0.863962
0.84493
0.824611
0.803103
0.780509
0.756935
0.73249
0.707284
0.681428
0.655029
0.628195
0.601028
0.573623
0.546074
0.518463
0.490867
0.463354
0.435984
0.408808
0.38187
0.355203
0.328831
0.302772
0.277035
0.25162
0.226523
0.201732
0.177231
0.152998
0.129006
0.105228
0.08163
0.0581778
0.0348365
0.0115767
)
;
    }
    lowerWall
    {
        type            fixedFluxPressure;
        gradient        uniform 0;
        value           nonuniform List<scalar> 
62
(
1173.21
1167.82
1152.97
1126.54
1087.68
1035.96
970.49
889.562
790.219
665.887
516.503
283.075
26.3389
4.74149
3.2487
3.05095
2.83944
2.6513
2.50976
2.40054
2.32155
2.27301
2.2524
2.2524
2.24842
2.23737
2.21828
2.19028
2.15215
2.10216
2.03541
1.69294
1.62551
1.57009
1.51242
1.26152
1.26259
1.26561
1.27092
1.27882
1.28958
1.30309
1.32374
1.26152
1.25328
1.2367
1.21411
1.18818
1.16108
1.13422
1.10856
1.08458
1.06266
1.04289
1.02542
1.0102
0.997323
0.986741
0.978548
0.972759
0.969378
0.968046
)
;
    }
    atmosphere
    {
        type            totalPressure;
        rho             rho;
        psi             none;
        gamma           1;
        p0              uniform 0;
        value           nonuniform List<scalar> 
46
(
-0.00124454
-0.00144086
-0.00133297
-0.0012606
-0.00117934
-0.00108655
-0.000983559
-0.000873193
-0.000758799
-0.000643874
-0.000531833
-0.000425823
-0.00032857
-0.000242258
-0.000168464
-0.000108126
-6.15689e-05
-2.85756e-05
-8.53686e-06
-4.40511e-07
0
0
0
0
0
0
0
0
0
0
0
0
0
0
0
0
0
0
0
0
0
0
0
0
0
0
)
;
    }
    defaultFaces
    {
        type            empty;
    }
}


// ************************************************************************* //
