/*--------------------------------*- C++ -*----------------------------------*\
  =========                 |
  \\      /  F ield         | OpenFOAM: The Open Source CFD Toolbox
   \\    /   O peration     | Website:  https://openfoam.org
    \\  /    A nd           | Version:  9
     \\/     M anipulation  |
\*---------------------------------------------------------------------------*/
FoamFile
{
    format      ascii;
    class       volScalarField;
    location    "5.39";
    object      epsilon;
}
// * * * * * * * * * * * * * * * * * * * * * * * * * * * * * * * * * * * * * //

dimensions      [0 2 -3 0 0 0 0];

internalField   nonuniform List<scalar> 
2268
(
0.000423103
0.00216084
0.00378513
0.00522212
0.00649276
0.0076196
0.00862414
0.00952201
0.0103233
0.0110335
0.0116656
0.0122482
0.0127617
0.0131917
0.01347
0.0134236
0.0125589
0.010629
0.00882681
0.00763856
0.00638047
0.00454092
0.00126423
0.000837223
0.00146949
0.00216065
0.00278876
0.00334827
0.0038445
0.0042842
0.00467385
0.00501853
0.00532254
0.00559204
0.00583337
0.0060407
0.00620723
0.00631031
0.00629579
0.006058
0.00560428
0.00504015
0.00441137
0.00366254
0.00288532
0.00213546
0.0013906
0.00153268
0.00198811
0.00243102
0.00283525
0.00319789
0.00352107
0.00380843
0.00406366
0.00429016
0.00449142
0.00467026
0.00482366
0.00494605
0.00502239
0.00502221
0.00490463
0.00468297
0.00436726
0.00396775
0.00353195
0.00321562
0.0035891
0.00192339
0.00170271
0.00202762
0.0023784
0.00270913
0.0030103
0.0032808
0.00352248
0.00373816
0.00393075
0.0041029
0.00425643
0.00438931
0.00449645
0.00456618
0.00457867
0.00451523
0.00438765
0.00419445
0.00395307
0.0037488
0.00379372
0.0051936
0.00242744
0.00190477
0.00213591
0.0024256
0.00270944
0.00297222
0.00321018
0.00342384
0.00361542
0.00378759
0.00394271
0.00408222
0.00420464
0.00430535
0.00437494
0.00439999
0.00437268
0.00430656
0.00420326
0.00409117
0.00408543
0.00448099
0.00707461
0.00290838
0.00211818
0.0022747
0.0025186
0.00276816
0.00300317
0.00321767
0.00341114
0.00358545
0.00374317
0.0038866
0.00401705
0.0041335
0.00423182
0.00430448
0.00434255
0.00434481
0.00432801
0.00430146
0.00430254
0.00447856
0.0052793
0.00961171
0.00337303
0.00233502
0.00242911
0.00263658
0.00285924
0.00307246
0.00326842
0.00344584
0.00360643
0.00375285
0.00388746
0.00401154
0.00412453
0.0042229
0.00430077
0.00435261
0.0043815
0.00440656
0.00444501
0.00454238
0.00487961
0.00617076
0.0138146
0.0038256
0.00255199
0.00259228
0.00276986
0.00297048
0.00316565
0.00334601
0.00350974
0.00365862
0.00379554
0.00392303
0.00404244
0.00415366
0.00425387
0.0043387
0.00440518
0.00445883
0.00451917
0.00460871
0.00477752
0.00522602
0.0069548
0.0228292
0.000970729
0.00478409
0.00762942
0.0091979
0.0100016
0.0103484
0.0105121
0.0107564
0.0110395
0.010659
0.00888216
0.00697804
0.00535497
0.0066631
0.00927273
0.00842605
0.0059317
0.00355329
0.00135919
0.00125664
0.00274884
0.00375048
0.00434884
0.00467273
0.0048216
0.00488464
0.00493419
0.00495479
0.00479051
0.00437152
0.0039213
0.00352376
0.00373437
0.00407546
0.00370942
0.0029742
0.00222609
0.00160339
0.00215965
0.00276687
0.00331458
0.00364572
0.00382111
0.00389625
0.00391949
0.00392352
0.00389201
0.00375448
0.00352375
0.00328534
0.00306647
0.00309875
0.00313404
0.00287243
0.00243284
0.00197796
0.00208324
0.00326014
0.00313397
0.00336021
0.00351351
0.00358948
0.00361037
0.00360165
0.00357796
0.00352185
0.00339232
0.00321932
0.0030505
0.00291242
0.00290408
0.00283831
0.00259469
0.00225391
0.00191364
0.00236642
0.00457026
0.00366124
0.00356532
0.00356015
0.00355123
0.00352398
0.00348506
0.00343778
0.00336527
0.0032402
0.00309395
0.00296714
0.00288354
0.00285764
0.0027513
0.00249823
0.00218718
0.00190063
0.00249984
0.00643116
0.00431283
0.00384091
0.00368377
0.0035983
0.00352668
0.00345858
0.00338942
0.00330397
0.00318264
0.00305573
0.00296167
0.00290922
0.00287037
0.00275302
0.00248136
0.00216132
0.00189966
0.00252211
0.00990369
0.00506731
0.00413903
0.00384208
0.0036894
0.00357758
0.00348172
0.00339197
0.0032953
0.00317786
0.0030668
0.00299519
0.00295318
0.00290668
0.00279279
0.00250393
0.00215427
0.00190051
0.00248338
0.0178953
0.00576774
0.0044124
0.00401142
0.0038046
0.00365775
0.00353619
0.00342707
0.00331988
0.00320547
0.00310507
0.00304251
0.00299765
0.00294835
0.00284428
0.0025474
0.00216477
0.00190433
0.00242132
0.00451534
0.0028896
0.00285588
0.00299436
0.0031658
0.00333662
0.00349543
0.00363981
0.00377211
0.00389587
0.00401396
0.00412796
0.00423814
0.00434326
0.00444092
0.00453099
0.00462039
0.00472641
0.00487172
0.00510106
0.00556702
0.00675307
0.0103938
0.00539472
0.00332826
0.00321809
0.00332361
0.00346578
0.00361058
0.00374467
0.00386499
0.00397655
0.00408493
0.00419372
0.0043048
0.00441892
0.00453645
0.00465695
0.00478134
0.00491321
0.00505852
0.0052287
0.00545584
0.00581679
0.00646001
0.00758119
0.00643707
0.00378383
0.00360631
0.00370134
0.00380483
0.0039195
0.00402711
0.00411822
0.00420467
0.0042962
0.00439682
0.00450826
0.00463133
0.0047666
0.0049151
0.00507852
0.00525519
0.00542947
0.00559606
0.00579363
0.00605376
0.00640957
0.00685751
0.00731248
0.00423636
0.0040529
0.0042002
0.00418117
0.00426183
0.00434694
0.00439527
0.00444513
0.00451459
0.0046061
0.00472012
0.00485623
0.00501265
0.00519205
0.00539958
0.00563332
0.00583476
0.0059725
0.00613836
0.00632747
0.00652074
0.00675065
0.00810715
0.00466901
0.0044493
0.00453202
0.00450283
0.00466534
0.00474156
0.0047013
0.0046879
0.00472313
0.00480434
0.00492277
0.00506782
0.00522901
0.00541002
0.00561989
0.00584966
0.00602786
0.00621928
0.00641315
0.00654711
0.00668248
0.00686697
0.00825228
0.00491596
0.0046354
0.00477638
0.00474193
0.00497638
0.00511774
0.00500527
0.00491832
0.00491202
0.00497416
0.00508263
0.00521792
0.00537157
0.00555455
0.0057867
0.00603103
0.0061539
0.00634546
0.00660908
0.00676526
0.00678694
0.00687708
0.00798619
0.00502993
0.00462823
0.00471724
0.00468991
0.00485229
0.00495224
0.00497186
0.00497323
0.0049994
0.0050668
0.00517211
0.00530778
0.00546807
0.00565345
0.00585406
0.00603763
0.0061643
0.00632473
0.00647722
0.00658911
0.00665557
0.00666467
0.00838007
0.00497782
0.00456067
0.00453949
0.00458214
0.00470067
0.00481888
0.00489516
0.00495354
0.00502035
0.0051108
0.00522754
0.00536771
0.00552337
0.00568329
0.00583348
0.0059777
0.00611682
0.00624461
0.0063362
0.00640452
0.00643289
0.00642698
0.00886104
0.00500017
0.00451681
0.004457
0.00451242
0.00462554
0.00475478
0.00486
0.00494642
0.00503295
0.00513128
0.00524407
0.00536889
0.00549951
0.00562945
0.00575669
0.00588875
0.00601441
0.0061127
0.00617911
0.00622062
0.006227
0.00621483
0.00933869
0.00510278
0.00452624
0.00443541
0.00448054
0.0045838
0.0047089
0.00482576
0.00492835
0.00502525
0.0051245
0.00522838
0.00533534
0.00544343
0.00555214
0.00566349
0.0057776
0.00587753
0.00594987
0.00600094
0.00603318
0.0060429
0.00600998
0.00984129
0.00524185
0.00457521
0.00444607
0.00446968
0.00455585
0.00466876
0.00478464
0.00489303
0.00499489
0.0050939
0.00519141
0.00528713
0.00538182
0.00547711
0.0055737
0.00566727
0.00574534
0.00580256
0.0058441
0.00586939
0.0058714
0.00583409
0.0102564
0.00538192
0.0046396
0.00447155
0.00447042
0.00453731
0.00463528
0.00474346
0.00485037
0.00495277
0.00505083
0.00514469
0.00523467
0.00532209
0.00540819
0.00549235
0.00557024
0.00563451
0.00568235
0.00571556
0.00573259
0.00572791
0.00569378
0.0106046
0.00550875
0.00470451
0.00450207
0.00447795
0.00452686
0.00461029
0.00470848
0.00481008
0.00490989
0.00500592
0.00509733
0.00518419
0.00526726
0.00534693
0.00542211
0.00548964
0.00554544
0.00558709
0.00561422
0.0056255
0.00561778
0.00558786
0.0109004
0.00562061
0.00476471
0.00453292
0.0044888
0.00452229
0.00459296
0.0046813
0.00477634
0.00487202
0.00496528
0.00505457
0.00513937
0.00521967
0.0052952
0.00536479
0.00542626
0.0054771
0.00551527
0.00553949
0.00554865
0.00554118
0.0055161
0.0111627
0.00571845
0.00481821
0.00456143
0.00450019
0.00452066
0.00458071
0.00466055
0.00474929
0.0048407
0.00493119
0.00501874
0.00510227
0.00518114
0.00525465
0.00532163
0.00538045
0.00542935
0.00546668
0.00549108
0.00550154
0.00549731
0.00547821
0.0114008
0.00580301
0.0048639
0.00458577
0.00450998
0.00451955
0.00457097
0.00464397
0.00472764
0.00481565
0.00490416
0.00499083
0.00507419
0.00515317
0.00522677
0.00529383
0.00535297
0.0054028
0.005442
0.00546939
0.00548407
0.00548556
0.0054737
0.011616
0.00587471
0.0049011
0.00460475
0.00451675
0.00451743
0.00456211
0.0046301
0.00471035
0.00479642
0.00488434
0.00497154
0.00505626
0.00513718
0.0052131
0.00528282
0.00534509
0.00539869
0.0054425
0.00547549
0.00549684
0.00550601
0.00550272
0.0118081
0.00593381
0.0049295
0.00461771
0.00451977
0.00451356
0.00455346
0.00461837
0.00469707
0.00478303
0.00487215
0.0049617
0.00504973
0.00513472
0.00521535
0.00529037
0.00535855
0.00541873
0.00546985
0.00551094
0.00554117
0.00555988
0.00556661
0.0119715
0.00597952
0.00494873
0.00462435
0.00451881
0.00450782
0.00454499
0.00460887
0.00468809
0.00477601
0.00486842
0.00496247
0.00505606
0.00514755
0.00523549
0.00531855
0.00539549
0.00546509
0.00552625
0.005578
0.00561938
0.0056496
0.00566803
0.0120987
0.00601048
0.00495849
0.00462463
0.00451397
0.00450046
0.00453709
0.00460214
0.00468411
0.00477627
0.00487432
0.00497531
0.00507704
0.00517772
0.00527581
0.00536988
0.00545858
0.00554061
0.00561473
0.00567987
0.00573492
0.00577892
0.00581106
0.0121874
0.00602615
0.00495878
0.00461878
0.00450564
0.004492
0.00453041
0.00459898
0.00468611
0.00478501
0.00489131
0.00500198
0.00511472
0.00522764
0.00533905
0.0054474
0.00555119
0.00564896
0.0057393
0.00582091
0.00589255
0.00595302
0.00600132
0.0122362
0.00602657
0.00494997
0.00460733
0.00449444
0.00448317
0.00452581
0.00460039
0.00469529
0.00480367
0.00492112
0.00504455
0.00517156
0.00530015
0.00542848
0.00555483
0.00567749
0.00579479
0.0059051
0.00600682
0.00609849
0.00617866
0.00624607
0.0122421
0.0060122
0.00493277
0.004591
0.00448115
0.00447484
0.00452429
0.00460757
0.00471306
0.00483393
0.00496577
0.00510543
0.00525042
0.00539862
0.00554802
0.00569668
0.00584264
0.00598394
0.00611863
0.00624481
0.00636066
0.00646443
0.00655456
0.0122076
0.00598432
0.00490817
0.00457072
0.00446673
0.00446803
0.00452702
0.00462185
0.00474101
0.00487771
0.00502755
0.00518738
0.00535462
0.00552701
0.00570234
0.00587841
0.00605294
0.00622359
0.00638801
0.0065439
0.00668898
0.00682109
0.00693833
0.0121401
0.00594483
0.00487737
0.00454753
0.0044522
0.00446387
0.00453525
0.00464471
0.00478089
0.00493711
0.00510906
0.00529357
0.00548801
0.00568996
0.005897
0.00610659
0.00631603
0.00652254
0.00672322
0.00691524
0.00709573
0.007262
0.00741172
0.0120456
0.0058956
0.0048416
0.00452253
0.00443868
0.00446356
0.00455035
0.00467774
0.00483461
0.00501449
0.00521317
0.00542755
0.00565497
0.00589285
0.0061385
0.00638899
0.00664111
0.00689144
0.00713643
0.00737252
0.00759604
0.00780364
0.00799239
0.0119286
0.00583824
0.00480207
0.00449683
0.00442733
0.00446836
0.00457375
0.00472262
0.00490421
0.00511234
0.00534303
0.00559328
0.00586046
0.00614184
0.00643442
0.00673481
0.00703913
0.00734317
0.00764246
0.00793247
0.0082085
0.00846628
0.00870211
0.0117921
0.00577386
0.0047598
0.00447154
0.00441933
0.00447957
0.00460691
0.00478108
0.00499179
0.0052333
0.00550197
0.00579503
0.00610993
0.00644384
0.00679343
0.00715473
0.00752304
0.0078931
0.00825919
0.00861548
0.00895583
0.00927475
0.00956755
0.0116339
0.00570254
0.00471563
0.00444774
0.00441588
0.0044985
0.00465131
0.00485482
0.00509944
0.00538001
0.0056934
0.00603726
0.00640922
0.00680644
0.00722524
0.00766097
0.00810793
0.00855941
0.00900806
0.00944619
0.00986573
0.0102595
0.0106213
0.0114382
0.0056237
0.00467056
0.00442671
0.0044183
0.0045265
0.0047084
0.0049455
0.00522912
0.00555496
0.00592064
0.00632442
0.00676433
0.00723764
0.00774039
0.00826716
0.00881095
0.00936328
0.00991451
0.0104543
0.0109718
0.0114576
0.0119036
0.0112041
0.0055415
0.00462714
0.00441027
0.00442812
0.00456496
0.0047795
0.0050545
0.00538247
0.00576022
0.00618647
0.00666041
0.0071808
0.00774525
0.00834968
0.0089879
0.00965137
0.0103292
0.0110087
0.0116756
0.0123154
0.012915
0.0134637
0.0109715
0.00546583
0.00458828
0.00439985
0.00444643
0.00461487
0.00486556
0.00518276
0.00556049
0.0059971
0.0064928
0.0070482
0.00766325
0.00833636
0.00906368
0.00983841
0.0106503
0.0114854
0.0123265
0.0131541
0.0139475
0.0146886
0.0153631
0.0107154
0.00538845
0.00455276
0.00439597
0.00447417
0.00467715
0.00496726
0.00533067
0.00576335
0.00626569
0.00684
0.00748892
0.00821431
0.00901615
0.00989153
0.0108336
0.0118304
0.0128641
0.0139114
0.0149441
0.0159326
0.0168509
0.0176795
0.0104288
0.00530477
0.00451982
0.00439957
0.00451272
0.0047529
0.00508509
0.00549797
0.00599004
0.0065644
0.00722616
0.00798089
0.00883337
0.00978641
0.0108395
0.0119869
0.0132157
0.0145035
0.0158175
0.0171162
0.0183552
0.0194962
0.0205129
0.0100971
0.00521299
0.00449099
0.00441359
0.00456498
0.00484409
0.00521964
0.00568368
0.00623807
0.00688934
0.00764626
0.0085184
0.00951499
0.0106437
0.0119089
0.013309
0.014832
0.0164502
0.0181165
0.0197667
0.0213311
0.0227522
0.0239957
0.00968989
0.00511345
0.00447291
0.00444584
0.00463733
0.00495451
0.00537182
0.00588599
0.00650306
0.00723369
0.00809119
0.00909045
0.0102472
0.0115772
0.0130943
0.0148065
0.0167076
0.018765
0.0209089
0.0230345
0.0250259
0.0267967
0.028306
0.00915818
0.0050153
0.00448628
0.00451535
0.00474289
0.00509102
0.00554314
0.00610198
0.00677824
0.00758707
0.00854697
0.00967953
0.0110097
0.012566
0.0143796
0.0164785
0.0188727
0.0215285
0.0243401
0.0271268
0.0296828
0.0318805
0.033684
0.00844097
0.00497929
0.00459496
0.00466645
0.00490669
0.00526454
0.00573516
0.00632683
0.00705383
0.00793506
0.00899421
0.0102608
0.0117721
0.0135763
0.0157332
0.018309
0.0213515
0.02484
0.0286172
0.0323563
0.0356607
0.0383537
0.0404467
0.00790948
0.00535214
0.00499744
0.0049973
0.00517066
0.00548839
0.00594706
0.00655216
0.00731623
0.008259
0.00940823
0.0108019
0.012493
0.0145566
0.0170976
0.0202475
0.0241329
0.0287885
0.0340084
0.0391968
0.0434825
0.0466891
0.0489937
0.0161055
0.00823618
0.00632098
0.0057042
0.0055883
0.00576868
0.00616959
0.00676318
0.0075472
0.00853643
0.00976016
0.0112644
0.0131194
0.0154342
0.018374
0.0221714
0.0270983
0.0333528
0.0407859
0.0483976
0.0539045
0.0574887
0.0597905
0.151919
0.0268796
0.010464
0.00707926
0.0061753
0.00607832
0.00637483
0.00693574
0.00772401
0.00874265
0.0100195
0.0116068
0.0135907
0.0161141
0.0194096
0.023836
0.0298912
0.0381489
0.0489649
0.0613438
0.0680184
0.0714482
0.0733181
1.53806
0.129246
0.0212715
0.00906997
0.00675373
0.00631691
0.00650878
0.00703703
0.00782203
0.00885414
0.0101587
0.0117908
0.013847
0.0164927
0.0200091
0.0248594
0.0317759
0.0419057
0.0571775
0.0813754
0.0872912
0.0891876
0.0899723
0.0246092
0.0195439
0.0190473
0.0228336
0.00878436
0.0087948
0.00865782
0.00840076
0.00710956
0.00714058
0.00705422
0.006865
0.00686399
0.00685922
0.00675143
0.00658524
0.00690542
0.00680545
0.00666044
0.00651438
0.00679835
0.0067354
0.00661691
0.00646974
0.00665213
0.00660309
0.00646659
0.00635366
0.00640264
0.00632625
0.0062368
0.00614874
0.00614968
0.00609147
0.0060297
0.00596711
0.00594225
0.00589344
0.00584436
0.00579532
0.00577758
0.00573718
0.0056953
0.00565238
0.00564796
0.00561461
0.00557861
0.00554042
0.00555025
0.00552244
0.00549155
0.00545791
0.00548508
0.00546183
0.0054355
0.00540632
0.0054533
0.00543425
0.00541225
0.00538747
0.00545511
0.00544029
0.00542266
0.00540229
0.00549099
0.00548069
0.00546761
0.00545183
0.00556253
0.00555716
0.00554902
0.00553814
0.00567261
0.00567278
0.00567012
0.00566465
0.00582561
0.00583209
0.00583563
0.00583624
0.00602743
0.00604118
0.00605185
0.00605939
0.00628571
0.00630794
0.00632685
0.00634239
0.00661012
0.00664228
0.00667081
0.00669565
0.00701273
0.00705659
0.00709642
0.00713213
0.00750848
0.0075662
0.00761936
0.00766785
0.00811585
0.00819003
0.00825897
0.00832251
0.0088575
0.0089513
0.00903896
0.0091203
0.00976122
0.00987847
0.00998838
0.0100908
0.010861
0.0110063
0.0111426
0.0112699
0.0121985
0.0123772
0.012545
0.0127016
0.013825
0.0140437
0.0142485
0.0144394
0.0158041
0.0160701
0.0163184
0.016549
0.0182154
0.0185371
0.0188358
0.0191118
0.0211607
0.0215468
0.0219026
0.022229
0.024772
0.02523
0.0256482
0.0260282
0.0292227
0.0297565
0.0302379
0.0306702
0.0347399
0.0353447
0.0358815
0.0363567
0.0416143
0.0422692
0.0428394
0.0433355
0.0502009
0.0508605
0.0514219
0.0519004
0.0609028
0.0614913
0.061979
0.0623857
0.0741344
0.0745503
0.0748851
0.0751581
0.0902708
0.0904163
0.09053
0.0906209
0.00882871
0.00573259
0.00471329
0.00426363
0.00400064
0.00381049
0.00365381
0.0035169
0.00339349
0.00328012
0.00318634
0.00312014
0.00306193
0.00300908
0.00291942
0.00262885
0.00221931
0.00193725
0.00228476
0.00690362
0.00568695
0.00499872
0.00458196
0.00429313
0.00406811
0.00387456
0.00370474
0.00355734
0.00343193
0.00332697
0.00324062
0.00316707
0.00310627
0.00302273
0.00279647
0.00245716
0.00220257
0.00242392
0.00638099
0.00573295
0.00524183
0.0048856
0.00459938
0.00435738
0.00412997
0.00392794
0.00375405
0.00360807
0.00348977
0.0033947
0.00331979
0.0032587
0.0031846
0.00304978
0.0028858
0.00282032
0.00347922
0.00626934
0.00583432
0.00546562
0.00518894
0.00491622
0.00467356
0.00440023
0.00416042
0.00395834
0.00379083
0.00365998
0.00356173
0.00349781
0.00345947
0.00341852
0.00338443
0.0034468
0.00372417
0.00563844
0.00628358
0.00593348
0.00564022
0.00541078
0.00514638
0.00494213
0.00463983
0.00436639
0.00414289
0.00396107
0.00381489
0.00370359
0.00363131
0.00358293
0.00355043
0.00357987
0.00368516
0.00417204
0.00985444
0.00627811
0.0059932
0.0057738
0.00559194
0.00530744
0.00509398
0.00479076
0.00451676
0.0042879
0.00410028
0.00394176
0.00380178
0.00370276
0.00364627
0.00363145
0.00366637
0.00386749
0.00424725
0.00829737
0.00621448
0.00595058
0.00578953
0.00570707
0.00539877
0.00520364
0.00492258
0.00464105
0.00439942
0.00419923
0.00402053
0.00385622
0.00373319
0.00364898
0.00359523
0.00369864
0.00405183
0.00441802
0.00680104
0.00600748
0.00581344
0.00566819
0.00555105
0.00534871
0.00515632
0.00492931
0.00467936
0.00444323
0.00424301
0.00406405
0.00389365
0.00373325
0.00360416
0.00351642
0.00354714
0.00374452
0.00422462
0.00698858
0.00585404
0.00568222
0.00553323
0.00538954
0.00521285
0.00502336
0.00482947
0.00462338
0.00441474
0.00422085
0.00404539
0.00387899
0.00371023
0.00356197
0.00345238
0.00343397
0.00355026
0.00402499
0.00770679
0.00570889
0.00555951
0.00541309
0.00527014
0.00511021
0.00493206
0.00474824
0.00456386
0.00437012
0.00418052
0.00400219
0.00383381
0.00367414
0.00352477
0.00340469
0.00335484
0.00341898
0.0038382
0.00750066
0.00557798
0.00545035
0.00531476
0.00518097
0.00503908
0.00487487
0.00469797
0.00452179
0.004341
0.00415941
0.00397776
0.00380289
0.00363787
0.00348068
0.00335034
0.00327293
0.00328461
0.00356959
0.00631175
0.00547363
0.00536215
0.00524038
0.00511701
0.00498606
0.00483392
0.00466737
0.00450187
0.00433484
0.00415895
0.00397892
0.00380265
0.00362967
0.00345945
0.00330605
0.00319096
0.00315673
0.00336136
0.00509191
0.00539823
0.00529994
0.00519141
0.00507664
0.00495203
0.00480978
0.00465616
0.00450269
0.00434501
0.00417745
0.00400703
0.00383766
0.00366702
0.00349335
0.00332564
0.00318186
0.00310392
0.00320766
0.00471142
0.00535382
0.00526702
0.00517
0.00506332
0.00494474
0.0048116
0.00466939
0.0045248
0.00437522
0.00421863
0.004061
0.0039041
0.0037444
0.00358273
0.00342874
0.00330239
0.00326049
0.00347456
0.0047644
0.00534217
0.00526576
0.00517857
0.00508025
0.00496901
0.00484471
0.00471176
0.00457445
0.00443234
0.00428553
0.00413857
0.00399333
0.00384897
0.00370948
0.00358673
0.00350491
0.00353125
0.00389513
0.00599385
0.00536426
0.0052978
0.0052196
0.00512947
0.00502637
0.00491083
0.0047862
0.00465571
0.00452035
0.00438137
0.00424235
0.00410611
0.00397522
0.00385694
0.00376644
0.00373224
0.00382808
0.00432331
0.00730489
0.0054213
0.00536488
0.00529575
0.00521397
0.00511923
0.00501228
0.00489557
0.00477171
0.00464246
0.00450976
0.00437686
0.00424747
0.00412656
0.00402388
0.00395757
0.0039614
0.00411613
0.00472946
0.00840988
0.00551562
0.00546979
0.00541033
0.00533746
0.00525132
0.00515275
0.0050436
0.00492613
0.0048024
0.00467478
0.00454659
0.00442218
0.00430803
0.00421561
0.00416535
0.0041957
0.00439751
0.00510986
0.00926303
0.00565091
0.00561664
0.00556774
0.00550452
0.00542734
0.00533704
0.00523517
0.00512371
0.00500486
0.00488124
0.00475635
0.00463505
0.00452481
0.0044383
0.00439788
0.00444633
0.00468489
0.00548268
0.00996743
0.00583236
0.00581094
0.00577373
0.00572102
0.00565327
0.00557131
0.00547649
0.00537061
0.00525591
0.00513515
0.00501204
0.00489187
0.00478281
0.00469853
0.00466326
0.00472439
0.00499563
0.00588368
0.0106428
0.00606673
0.00605979
0.00603563
0.00599448
0.00593681
0.0058634
0.00577549
0.00567475
0.00556341
0.0054443
0.00532134
0.00520017
0.00508958
0.0050042
0.00497026
0.00504048
0.00534461
0.00634354
0.0114168
0.00636263
0.00637217
0.00636272
0.0063344
0.00628764
0.00622319
0.00614217
0.0060462
0.00593741
0.00581872
0.0056942
0.00556982
0.00545496
0.00536528
0.00532916
0.00540502
0.00574085
0.00686765
0.0124477
0.00673085
0.00675931
0.00676655
0.00675261
0.00671786
0.00666298
0.00658904
0.00649756
0.00639062
0.00627115
0.00614335
0.00601353
0.00589167
0.00579453
0.00575281
0.00583056
0.00619323
0.00744825
0.0138489
0.00718478
0.0072351
0.00726144
0.00726377
0.00724241
0.007198
0.00713154
0.00704447
0.00693881
0.00681747
0.00668475
0.00654727
0.0064157
0.0063081
0.00625783
0.00633499
0.00672245
0.00810781
0.0156025
0.00774095
0.00781665
0.00786497
0.00788585
0.0078796
0.00784685
0.00778855
0.00770605
0.00760132
0.00747719
0.00733805
0.0071908
0.00704685
0.00692595
0.0068648
0.00694127
0.00735949
0.00889671
0.0177018
0.00841966
0.00852492
0.00859862
0.00864074
0.00865168
0.0086321
0.00858296
0.00850552
0.00840165
0.0082741
0.00812724
0.00796826
0.00780935
0.00767206
0.00759726
0.00767261
0.00812969
0.00986098
0.0201629
0.00924575
0.00938545
0.00948845
0.00955493
0.00958549
0.00958095
0.00954232
0.00947085
0.00936822
0.00923702
0.00908151
0.00890899
0.00873231
0.00857487
0.00848189
0.00855115
0.00904142
0.010952
0.0226844
0.0102495
0.0104292
0.010566
0.0106603
0.0107132
0.010726
0.0106996
0.0106354
0.0105349
0.0104004
0.0102358
0.0100483
0.00985122
0.00966937
0.00955199
0.00960634
0.010116
0.0121744
0.0251498
0.0114678
0.0116938
0.0118691
0.011995
0.0120734
0.0121058
0.0120939
0.0120388
0.011942
0.0118052
0.011632
0.0114291
0.0112095
0.0109992
0.0108506
0.0108794
0.0113924
0.0135699
0.0276382
0.0129451
0.0132243
0.0134432
0.0136047
0.0137115
0.0137664
0.0137712
0.0137277
0.0136368
0.0135001
0.0133201
0.0131028
0.0128604
0.0126191
0.0124337
0.0124282
0.0129343
0.0152372
0.0306177
0.0147358
0.0150753
0.015343
0.0155436
0.0156817
0.0157615
0.0157858
0.0157567
0.0156752
0.0155421
0.0153593
0.0151311
0.0148688
0.0145974
0.0143735
0.0143294
0.0148275
0.0172906
0.034386
0.0169062
0.017313
0.0176337
0.0178762
0.0180479
0.0181548
0.0182013
0.01819
0.0181221
0.0179983
0.0178191
0.0175875
0.0173127
0.0170184
0.0167615
0.0166824
0.0171791
0.0198419
0.0389902
0.0195371
0.020017
0.0203936
0.0206795
0.0208857
0.0210212
0.0210921
0.0211023
0.0210536
0.0209463
0.0207805
0.0205578
0.0202855
0.0199849
0.0197122
0.0196157
0.0201326
0.0230497
0.04463
0.0227287
0.0232847
0.0237173
0.0240455
0.0242854
0.0244494
0.0245463
0.0245815
0.024558
0.0244765
0.0243372
0.0241415
0.0238955
0.0236192
0.0233681
0.0232973
0.0238894
0.0271795
0.0519882
0.0266046
0.0272346
0.0277188
0.0280846
0.0283544
0.0285449
0.0286679
0.0287308
0.0287383
0.0286927
0.0285959
0.0284509
0.0282658
0.0280623
0.0278989
0.0279406
0.0287242
0.0326128
0.0619932
0.0313186
0.0320118
0.0325363
0.0329301
0.0332223
0.0334344
0.0335812
0.0336727
0.0337157
0.0337155
0.0336775
0.0336102
0.0335293
0.0334667
0.0334947
0.0338016
0.0349963
0.0398616
0.0756132
0.0370598
0.0377927
0.0383374
0.0387431
0.0390459
0.0392711
0.0394365
0.0395543
0.0396342
0.0396853
0.0397192
0.0397543
0.0398227
0.0399821
0.0403442
0.0411589
0.0431599
0.0496773
0.0943535
0.044058
0.0447903
0.0453247
0.0457198
0.0460165
0.0462425
0.0464174
0.0465551
0.0466677
0.0467689
0.0468783
0.0470286
0.0472779
0.0477317
0.0485871
0.0502456
0.0537276
0.0632261
0.121165
0.0525852
0.0532598
0.0537438
0.0540999
0.0543696
0.0545805
0.0547515
0.0548972
0.0550312
0.0551706
0.0553427
0.0555956
0.0560192
0.0567857
0.0582359
0.0610817
0.0670364
0.0821879
0.162719
0.0629568
0.0635048
0.0638931
0.0641789
0.0643983
0.0645749
0.0647247
0.0648606
0.0649958
0.0651483
0.0653489
0.0656547
0.0661788
0.0671548
0.0690897
0.0731632
0.0824724
0.107784
0.231483
0.0755348
0.0758893
0.0761394
0.0763251
0.0764709
0.0765921
0.0766996
0.0768024
0.0769102
0.0770379
0.0772112
0.0774806
0.0779508
0.0788549
0.080755
0.0851601
0.0968211
0.135755
0.355045
0.0907448
0.0908603
0.0909424
0.0910046
0.0910551
0.0910991
0.0911401
0.0911815
0.0912273
0.0912837
0.0913617
0.0914834
0.0916959
0.0921101
0.093021
0.0953668
0.102964
0.139403
0.581487
)
;

boundaryField
{
    leftWall
    {
        type            epsilonWallFunction;
        value           nonuniform List<scalar> 
50
(
0.000423103
0.000837223
0.0013906
0.00192339
0.00242744
0.00290838
0.00337303
0.0038256
0.00451534
0.00539472
0.00643707
0.00731248
0.00810715
0.00825228
0.00798619
0.00838007
0.00886104
0.00933869
0.00984129
0.0102564
0.0106046
0.0109004
0.0111627
0.0114008
0.011616
0.0118081
0.0119715
0.0120987
0.0121874
0.0122362
0.0122421
0.0122076
0.0121401
0.0120456
0.0119286
0.0117921
0.0116339
0.0114382
0.0112041
0.0109715
0.0107154
0.0104288
0.0100971
0.00968989
0.00915818
0.00844097
0.00790948
0.0161055
0.151919
1.53806
)
;
    }
    rightWall
    {
        type            epsilonWallFunction;
        value           nonuniform List<scalar> 
50
(
0.00135919
0.00160339
0.00208324
0.00236642
0.00249984
0.00252211
0.00248338
0.00242132
0.00228476
0.00242392
0.00347922
0.00563844
0.00985444
0.00829737
0.00680104
0.00698858
0.00770679
0.00750066
0.00631175
0.00509191
0.00471142
0.0047644
0.00599385
0.00730489
0.00840988
0.00926303
0.00996743
0.0106428
0.0114168
0.0124477
0.0138489
0.0156025
0.0177018
0.0201629
0.0226844
0.0251498
0.0276382
0.0306177
0.034386
0.0389902
0.04463
0.0519882
0.0619932
0.0756132
0.0943535
0.121165
0.162719
0.231483
0.355045
0.581487
)
;
    }
    lowerWall
    {
        type            epsilonWallFunction;
        value           nonuniform List<scalar> 
62
(
0.000423103
0.00216084
0.00378513
0.00522212
0.00649276
0.0076196
0.00862414
0.00952201
0.0103233
0.0110335
0.0116656
0.0122482
0.0127617
0.0131917
0.01347
0.0134236
0.0125589
0.010629
0.00882681
0.00763856
0.00638047
0.00454092
0.00126423
0.00126423
0.00213546
0.0035891
0.0051936
0.00707461
0.00961171
0.0138146
0.0228292
0.0246092
0.0195439
0.0190473
0.0228336
0.000970729
0.00125664
0.00215965
0.00326014
0.00457026
0.00643116
0.00990369
0.0178953
0.000970729
0.00478409
0.00762942
0.0091979
0.0100016
0.0103484
0.0105121
0.0107564
0.0110395
0.010659
0.00888216
0.00697804
0.00535497
0.0066631
0.00927273
0.00842605
0.0059317
0.00355329
0.00135919
)
;
    }
    atmosphere
    {
        type            inletOutlet;
        inletValue      uniform 0.1;
        value           nonuniform List<scalar> 
46
(
0.1
0.129246
0.0212715
0.00906997
0.00675373
0.00631691
0.00650878
0.00703703
0.00782203
0.00885414
0.0101587
0.0117908
0.013847
0.0164927
0.0200091
0.0248594
0.0317759
0.0419057
0.0571775
0.1
0.1
0.1
0.1
0.1
0.1
0.1
0.1
0.1
0.1
0.1
0.1
0.1
0.1
0.1
0.1
0.1
0.1
0.1
0.1
0.1
0.1
0.1
0.1
0.1
0.1
0.581487
)
;
    }
    defaultFaces
    {
        type            empty;
    }
}


// ************************************************************************* //
