/*--------------------------------*- C++ -*----------------------------------*\
  =========                 |
  \\      /  F ield         | OpenFOAM: The Open Source CFD Toolbox
   \\    /   O peration     | Website:  https://openfoam.org
    \\  /    A nd           | Version:  9
     \\/     M anipulation  |
\*---------------------------------------------------------------------------*/
FoamFile
{
    format      ascii;
    class       volVectorField;
    location    "5.39";
    object      U;
}
// * * * * * * * * * * * * * * * * * * * * * * * * * * * * * * * * * * * * * //

dimensions      [0 1 -1 0 0 0 0];

internalField   nonuniform List<vector> 
2268
(
(-0.0020247 0.000900205 0)
(-0.00494806 0.000693221 0)
(-0.00735313 0.000612112 0)
(-0.00972822 0.000578618 0)
(-0.0119248 0.000552962 0)
(-0.0139895 0.000522901 0)
(-0.0158562 0.000462843 0)
(-0.017436 0.000373902 0)
(-0.018628 0.000254686 0)
(-0.0193663 0.000112944 0)
(-0.0195914 -4.22114e-05 0)
(-0.0192272 -0.000239062 0)
(-0.0181647 -0.000489049 0)
(-0.0162017 -0.000818636 0)
(-0.013093 -0.00120742 0)
(-0.00901794 -0.00153652 0)
(-0.00412533 -0.00106256 0)
(-0.00338325 0.00146739 0)
(-0.0116345 0.00352087 0)
(-0.0233379 0.00309368 0)
(-0.0286264 -4.29957e-05 0)
(-0.0221039 -0.00393773 0)
(-0.00810711 -0.00396213 0)
(-0.00177321 0.00241101 0)
(-0.00465217 0.00199402 0)
(-0.00716558 0.00180845 0)
(-0.00966671 0.00167946 0)
(-0.0119709 0.00156774 0)
(-0.0140971 0.00143807 0)
(-0.015985 0.00125481 0)
(-0.0175665 0.00100879 0)
(-0.0187714 0.000705419 0)
(-0.0195502 0.000359361 0)
(-0.019869 -2.56638e-05 0)
(-0.0196835 -0.00047738 0)
(-0.0189028 -0.00103688 0)
(-0.0174151 -0.00173506 0)
(-0.0151279 -0.00250739 0)
(-0.0122327 -0.00302535 0)
(-0.00905044 -0.00196358 0)
(-0.00828681 0.00265824 0)
(-0.0126523 0.00635848 0)
(-0.0188288 0.00544242 0)
(-0.0210038 5.56327e-05 0)
(-0.0178864 -0.00716441 0)
(-0.00888753 -0.0105759 0)
(-0.00156759 0.00379566 0)
(-0.00446835 0.00323722 0)
(-0.00703528 0.00298604 0)
(-0.00959636 0.00278901 0)
(-0.0119665 0.0025962 0)
(-0.0141446 0.00236553 0)
(-0.0160753 0.00205578 0)
(-0.0177023 0.00165554 0)
(-0.0189701 0.00117469 0)
(-0.0198388 0.000634866 0)
(-0.0202807 3.85293e-05 0)
(-0.0202649 -0.00064562 0)
(-0.0197416 -0.00147132 0)
(-0.0186553 -0.00246162 0)
(-0.016994 -0.0035126 0)
(-0.0149324 -0.0041566 0)
(-0.0126129 -0.00282524 0)
(-0.0114455 0.00313393 0)
(-0.012753 0.00771697 0)
(-0.0149883 0.00648623 0)
(-0.0155801 -6.07529e-05 0)
(-0.0134605 -0.00938834 0)
(-0.00685955 -0.0162141 0)
(-0.00147174 0.00517372 0)
(-0.00437332 0.00454474 0)
(-0.00701202 0.00422416 0)
(-0.00963754 0.00395681 0)
(-0.0120794 0.00367843 0)
(-0.0143235 0.00334211 0)
(-0.0163176 0.00290322 0)
(-0.0180116 0.0023497 0)
(-0.0193579 0.00169547 0)
(-0.0203241 0.000968846 0)
(-0.020892 0.000175634 0)
(-0.0210475 -0.000720774 0)
(-0.020769 -0.00177354 0)
(-0.0200431 -0.0029941 0)
(-0.0189091 -0.00424129 0)
(-0.0175492 -0.00497688 0)
(-0.0160202 -0.00360552 0)
(-0.0143629 0.0028207 0)
(-0.0130718 0.00774814 0)
(-0.012285 0.0065231 0)
(-0.010995 -0.000520671 0)
(-0.00871389 -0.0111865 0)
(-0.00367536 -0.0202165 0)
(-0.00143207 0.00651488 0)
(-0.00433579 0.0058825 0)
(-0.007065 0.00550441 0)
(-0.00976837 0.00516903 0)
(-0.012293 0.00480434 0)
(-0.0146171 0.00436109 0)
(-0.0166917 0.00379263 0)
(-0.0184699 0.00308762 0)
(-0.0199086 0.00226427 0)
(-0.0209805 0.00135868 0)
(-0.0216776 0.000381733 0)
(-0.0220014 -0.000701944 0)
(-0.0219517 -0.00194472 0)
(-0.0215425 -0.00334094 0)
(-0.0208423 -0.00471445 0)
(-0.0200488 -0.00549681 0)
(-0.0192379 -0.00422015 0)
(-0.0172181 0.00172923 0)
(-0.0138866 0.0066389 0)
(-0.0106772 0.00549348 0)
(-0.00725239 -0.00176692 0)
(-0.00418774 -0.0126866 0)
(-0.000449119 -0.0221464 0)
(-0.00141717 0.00785021 0)
(-0.00435477 0.00724292 0)
(-0.00719016 0.00681907 0)
(-0.00998271 0.00641818 0)
(-0.0125984 0.00596792 0)
(-0.0150122 0.00541878 0)
(-0.0171786 0.00472227 0)
(-0.0190521 0.00386846 0)
(-0.0205913 0.00288021 0)
(-0.0217723 0.00180321 0)
(-0.0225959 0.000655947 0)
(-0.0230771 -0.000593311 0)
(-0.0232299 -0.00199605 0)
(-0.0230803 -0.00352857 0)
(-0.0227013 -0.00498471 0)
(-0.0222658 -0.0057914 0)
(-0.0218327 -0.00469177 0)
(-0.019726 0.000154242 0)
(-0.0152062 0.00462101 0)
(-0.0100414 0.00347816 0)
(-0.00482382 -0.00381829 0)
(-0.00108061 -0.0141393 0)
(0.00194205 -0.0224686 0)
(-0.00142115 0.00922742 0)
(-0.00443072 0.00863347 0)
(-0.0073863 0.00817593 0)
(-0.0102722 0.00771134 0)
(-0.0129813 0.00717578 0)
(-0.0154881 0.00652206 0)
(-0.0177508 0.00569886 0)
(-0.0197235 0.00469771 0)
(-0.0213646 0.00354634 0)
(-0.0226521 0.00230233 0)
(-0.0235931 0.000993862 0)
(-0.0242133 -0.000406541 0)
(-0.0245333 -0.00194972 0)
(-0.0245777 -0.00360014 0)
(-0.0244017 -0.00513139 0)
(-0.0241108 -0.00598738 0)
(-0.0236772 -0.00514968 0)
(-0.0215705 -0.00153052 0)
(-0.016583 0.00199083 0)
(-0.0101739 0.000714865 0)
(-0.004169 -0.00621469 0)
(-0.000399401 -0.0155636 0)
(0.00226183 -0.0224043 0)
(-0.00150201 0.0102811 0)
(-0.00459983 0.0101114 0)
(-0.00763949 0.0096213 0)
(-0.0106153 0.00908432 0)
(-0.0134147 0.00845623 0)
(-0.0160111 0.00769521 0)
(-0.0183669 0.00674342 0)
(-0.0204347 0.00559326 0)
(-0.0221724 0.00427624 0)
(-0.0235584 0.00286439 0)
(-0.0246028 0.00139645 0)
(-0.0253369 -0.000154393 0)
(-0.0257828 -0.0018272 0)
(-0.0259552 -0.00359828 0)
(-0.0258787 -0.00523203 0)
(-0.0255818 -0.00620745 0)
(-0.0249393 -0.00572115 0)
(-0.0227104 -0.00322827 0)
(-0.0176928 -0.000882107 0)
(-0.0110595 -0.00235627 0)
(-0.00522225 -0.00848738 0)
(-0.00196018 -0.0165263 0)
(-0.00168047 -0.0225459 0)
(-0.00984716 0.00186422 0)
(-0.000272972 -0.00367148 0)
(0.011494 -0.00329897 0)
(0.0201627 -0.00222335 0)
(0.0261971 -0.00137607 0)
(0.0301052 -0.000843554 0)
(0.0327159 -0.000584917 0)
(0.035459 -0.000912508 0)
(0.039812 -0.00182443 0)
(0.0480019 -0.00221775 0)
(0.0506043 0.000507407 0)
(0.0440592 0.0036695 0)
(0.0210168 0.00839466 0)
(-0.0136774 0.00435207 0)
(-0.00389806 -0.00667536 0)
(0.0199382 -0.00663749 0)
(0.0338427 -0.00198867 0)
(0.0313883 0.00249852 0)
(0.0162294 0.00612897 0)
(-0.00166126 0.00263512 0)
(0.00599472 -0.00644705 0)
(0.0126478 -0.00610636 0)
(0.0183542 -0.00445331 0)
(0.0228731 -0.00304623 0)
(0.0262326 -0.00208166 0)
(0.0288494 -0.00171367 0)
(0.031615 -0.00237421 0)
(0.0353542 -0.00392272 0)
(0.0405421 -0.0036562 0)
(0.0412004 0.00243884 0)
(0.0351054 0.00877363 0)
(0.0186014 0.0169459 0)
(0.00211246 0.00780174 0)
(0.00994327 -0.0102641 0)
(0.0210947 -0.0110992 0)
(0.0276982 -0.00244006 0)
(0.0246028 0.005441 0)
(0.0181324 0.0142499 0)
(0.00505356 0.00015236 0)
(0.00921453 -0.00853547 0)
(0.0131315 -0.00807188 0)
(0.0172155 -0.00620861 0)
(0.0208196 -0.00448391 0)
(0.0236555 -0.0032125 0)
(0.0259068 -0.00274905 0)
(0.0281441 -0.00357529 0)
(0.0306751 -0.00538771 0)
(0.0336845 -0.00461353 0)
(0.0329957 0.0042222 0)
(0.0262632 0.0126467 0)
(0.0162074 0.0212051 0)
(0.0118334 0.00795338 0)
(0.0167817 -0.0127922 0)
(0.0215075 -0.0137106 0)
(0.0234177 -0.0022145 0)
(0.0175012 0.00745627 0)
(0.0145648 0.0219344 0)
(0.00690996 -0.00354508 0)
(0.0102525 -0.00997555 0)
(0.0130116 -0.00952215 0)
(0.0161995 -0.00765201 0)
(0.0191918 -0.00572047 0)
(0.0215896 -0.00417684 0)
(0.023377 -0.00356239 0)
(0.0248681 -0.00437702 0)
(0.0260912 -0.00617078 0)
(0.0271348 -0.00496451 0)
(0.0259084 0.00603666 0)
(0.0203344 0.0155785 0)
(0.0159658 0.0224846 0)
(0.0182738 0.00697613 0)
(0.0211106 -0.0136739 0)
(0.021323 -0.0145528 0)
(0.0197693 -0.00042949 0)
(0.0115228 0.00969708 0)
(0.00979917 0.0275652 0)
(0.00634429 -0.00723125 0)
(0.0099881 -0.0112565 0)
(0.0124487 -0.0106903 0)
(0.0151758 -0.00886373 0)
(0.0177549 -0.00678102 0)
(0.0197743 -0.0049682 0)
(0.0210967 -0.0041236 0)
(0.021842 -0.0047447 0)
(0.021752 -0.0062632 0)
(0.0207544 -0.00473611 0)
(0.0196034 0.00721684 0)
(0.0170295 0.0171249 0)
(0.0173358 0.021686 0)
(0.0226851 0.00542705 0)
(0.0234415 -0.0132265 0)
(0.0199996 -0.0139464 0)
(0.016129 0.00242698 0)
(0.00646403 0.0120978 0)
(0.00506422 0.0308455 0)
(0.00527736 -0.0104947 0)
(0.00924515 -0.0126149 0)
(0.011668 -0.0117588 0)
(0.0141338 -0.00992455 0)
(0.0164253 -0.00769708 0)
(0.0181436 -0.00558845 0)
(0.0190793 -0.0044433 0)
(0.0192195 -0.00471004 0)
(0.0180679 -0.00571168 0)
(0.0153092 -0.00391809 0)
(0.014314 0.00739169 0)
(0.0151545 0.0170864 0)
(0.0192637 0.0195735 0)
(0.0252277 0.00407329 0)
(0.023555 -0.0116385 0)
(0.0171496 -0.0122042 0)
(0.0122975 0.00562916 0)
(0.00277584 0.0146232 0)
(0.000963966 0.0322857 0)
(0.00426318 -0.0135363 0)
(0.00846758 -0.0140753 0)
(0.0108387 -0.0127916 0)
(0.0130839 -0.0108872 0)
(0.0151489 -0.00851202 0)
(0.0166642 -0.00608124 0)
(0.0173569 -0.00458264 0)
(0.0171098 -0.00438608 0)
(0.0153514 -0.00472661 0)
(0.0117804 -0.00272887 0)
(0.010735 0.00686785 0)
(0.0138617 0.0156334 0)
(0.0204898 0.0167514 0)
(0.0256809 0.00349197 0)
(0.0217269 -0.00914676 0)
(0.0129696 -0.00958525 0)
(0.00793089 0.00847952 0)
(-0.000141622 0.0173084 0)
(-0.00299677 0.0322071 0)
(0.00493319 -0.0164626 0)
(0.00791907 -0.0153484 0)
(0.0100579 -0.0137316 0)
(0.012014 -0.0117528 0)
(0.01385 -0.00925855 0)
(0.0152519 -0.00652555 0)
(0.0158929 -0.00465033 0)
(0.0155221 -0.00392275 0)
(0.0136118 -0.00358468 0)
(0.0101531 -0.00151203 0)
(0.00922988 0.00612602 0)
(0.0132261 0.0133583 0)
(0.0204132 0.0139197 0)
(0.024198 0.00376606 0)
(0.0186601 -0.00590726 0)
(0.00792904 -0.00617699 0)
(0.00276247 0.0107683 0)
(-0.00266134 0.0198964 0)
(-0.00628298 0.0305187 0)
(-0.00143143 0.0142489 0)
(-0.00474189 0.0130461 0)
(-0.00802091 0.0122139 0)
(-0.0111648 0.0114686 0)
(-0.0141011 0.0106469 0)
(-0.0168228 0.00969591 0)
(-0.0193051 0.00852876 0)
(-0.0215005 0.00713711 0)
(-0.0233698 0.00555117 0)
(-0.0248922 0.00386874 0)
(-0.0260758 0.00214532 0)
(-0.0269399 0.000354906 0)
(-0.0275088 -0.00153457 0)
(-0.0277866 -0.00352543 0)
(-0.0277431 -0.00539868 0)
(-0.0273054 -0.00671732 0)
(-0.0262264 -0.00692496 0)
(-0.0236625 -0.00604035 0)
(-0.0189207 -0.00541673 0)
(-0.0130159 -0.00708603 0)
(-0.0082139 -0.0115392 0)
(-0.00628501 -0.0168405 0)
(-0.0110233 -0.0193319 0)
(-0.00188613 0.0130434 0)
(-0.00537084 0.0144421 0)
(-0.00872062 0.0141835 0)
(-0.011906 0.0135177 0)
(-0.0148701 0.0126812 0)
(-0.0176137 0.0116476 0)
(-0.0201152 0.0103291 0)
(-0.0223342 0.00876287 0)
(-0.024271 0.00697884 0)
(-0.0259166 0.00507412 0)
(-0.0272192 0.00311278 0)
(-0.028135 0.00107811 0)
(-0.0286646 -0.00106951 0)
(-0.028847 -0.00332445 0)
(-0.0287083 -0.00553153 0)
(-0.0281454 -0.00740004 0)
(-0.026756 -0.00860061 0)
(-0.023919 -0.00936508 0)
(-0.0194987 -0.0102378 0)
(-0.0143825 -0.0117947 0)
(-0.0101256 -0.0141742 0)
(-0.00785469 -0.0164635 0)
(-0.00801329 -0.0174285 0)
(-0.00372089 0.0200846 0)
(-0.00645453 0.0189642 0)
(-0.00986316 0.0174462 0)
(-0.013878 0.0160981 0)
(-0.0174476 0.0151076 0)
(-0.0198775 0.0139426 0)
(-0.0217787 0.0123432 0)
(-0.0235277 0.0104828 0)
(-0.0251875 0.00844621 0)
(-0.0267738 0.00623885 0)
(-0.0280645 0.00395345 0)
(-0.0288476 0.00159262 0)
(-0.0290953 -0.000861911 0)
(-0.0289912 -0.00336793 0)
(-0.0287026 -0.00582552 0)
(-0.0280628 -0.00806792 0)
(-0.0263352 -0.0100169 0)
(-0.0230049 -0.0119018 0)
(-0.0187698 -0.0136171 0)
(-0.0141721 -0.0150061 0)
(-0.00997392 -0.0163008 0)
(-0.0074664 -0.0176934 0)
(-0.00686587 -0.0185324 0)
(-0.00967491 0.0267281 0)
(-0.00293462 0.020303 0)
(-0.006477 0.0193539 0)
(-0.0162587 0.018854 0)
(-0.0245162 0.0169873 0)
(-0.0242457 0.0146519 0)
(-0.0227439 0.0133749 0)
(-0.0226388 0.0114216 0)
(-0.022931 0.00956792 0)
(-0.0241492 0.00723576 0)
(-0.0254111 0.00463929 0)
(-0.0260089 0.00188647 0)
(-0.0259649 -0.000801183 0)
(-0.0257414 -0.00346322 0)
(-0.0253686 -0.00604893 0)
(-0.0244998 -0.00853601 0)
(-0.0214657 -0.0115539 0)
(-0.0162085 -0.0139149 0)
(-0.0145171 -0.015123 0)
(-0.0133642 -0.0170469 0)
(-0.0089494 -0.0179363 0)
(-0.00558458 -0.0187779 0)
(-0.00627412 -0.0188963 0)
(-0.00151994 0.0297816 0)
(0.00199553 0.0232107 0)
(-0.00190275 0.035566 0)
(-0.0190969 0.0517889 0)
(-0.0266375 0.0280949 0)
(-0.0233997 0.0131833 0)
(-0.0245738 0.0161238 0)
(-0.0258731 0.0128064 0)
(-0.0253292 0.0126616 0)
(-0.0243143 0.0112345 0)
(-0.0229694 0.00743179 0)
(-0.0203825 0.00232971 0)
(-0.0163139 -0.00191017 0)
(-0.0115946 -0.00522942 0)
(-0.0070814 -0.00924604 0)
(-0.00286985 -0.0151006 0)
(0.00263491 -0.0252692 0)
(0.00973154 -0.0307261 0)
(0.00987479 -0.0149238 0)
(-0.00329299 -0.0295245 0)
(-0.00411055 -0.0323058 0)
(-0.00595638 -0.0250153 0)
(-0.010266 -0.0192265 0)
(0.0041837 0.029161 0)
(0.00297718 0.0200484 0)
(-0.000123624 0.0333343 0)
(0.0114459 0.0439904 0)
(0.023892 0.019942 0)
(0.019336 0.0103345 0)
(0.00481942 0.021702 0)
(-0.00867761 0.0132446 0)
(-0.0159822 0.00959955 0)
(-0.017422 0.00705052 0)
(-0.0161465 0.00222718 0)
(-0.0133386 -0.00365059 0)
(-0.00976535 -0.00810261 0)
(-0.00621846 -0.0104055 0)
(-0.00388498 -0.0124754 0)
(-0.00477545 -0.0143339 0)
(-0.0111292 -0.0202514 0)
(-0.0188755 -0.0247645 0)
(-0.0164154 -0.00061899 0)
(-0.013638 -0.0112953 0)
(-0.0213595 -0.0177484 0)
(-0.0307037 -0.0136214 0)
(-0.0201301 -0.023987 0)
(0.0126202 0.0176875 0)
(0.0111853 0.0253223 0)
(0.00830216 0.0301751 0)
(0.021383 0.0271167 0)
(0.0285722 0.0194289 0)
(0.0205385 0.0244839 0)
(0.015912 0.0364094 0)
(0.0120726 0.0269605 0)
(0.00617697 0.0160035 0)
(0.00240366 0.0085933 0)
(0.000677035 0.00149977 0)
(-0.000544781 -0.00523876 0)
(-0.00246168 -0.0101636 0)
(-0.00542501 -0.011605 0)
(-0.00981581 -0.0112999 0)
(-0.0154669 -0.00949236 0)
(-0.0201562 -0.012791 0)
(-0.024614 -0.022142 0)
(-0.0234884 -0.0154063 0)
(-0.0232809 -0.0103803 0)
(-0.0319347 -0.0101745 0)
(-0.0282555 -0.0185713 0)
(-0.0160267 -0.0362992 0)
(-0.000574418 0.00704315 0)
(0.00658492 0.0232951 0)
(0.0122113 0.0236927 0)
(0.0170139 0.0174316 0)
(0.0177351 0.0224334 0)
(0.0155523 0.0284309 0)
(0.0161664 0.0345262 0)
(0.0175674 0.0293762 0)
(0.0160831 0.0205433 0)
(0.0135881 0.0121622 0)
(0.0109284 0.00473977 0)
(0.00774462 -0.00134592 0)
(0.00361397 -0.00496865 0)
(-0.00142053 -0.00539629 0)
(-0.00690493 -0.00408918 0)
(-0.0118677 -0.0034206 0)
(-0.0149598 -0.0103897 0)
(-0.0180391 -0.0174834 0)
(-0.0210693 -0.0143559 0)
(-0.0216245 -0.00653354 0)
(-0.0185116 -0.0103946 0)
(-0.0121516 -0.0281627 0)
(-0.0128306 -0.0370463 0)
(-0.00151309 0.00945191 0)
(0.00313996 0.0166832 0)
(0.0079978 0.0185078 0)
(0.00998293 0.0181444 0)
(0.0101066 0.0226151 0)
(0.0107062 0.0275238 0)
(0.0133219 0.0304976 0)
(0.0162526 0.0275086 0)
(0.0170893 0.0212427 0)
(0.0161711 0.0142232 0)
(0.0140263 0.00779344 0)
(0.0108333 0.00269673 0)
(0.0067744 -2.25867e-06 0)
(0.00239171 -0.000219046 0)
(-0.00140873 0.000432355 0)
(-0.00376752 -0.000538666 0)
(-0.00625942 -0.00793272 0)
(-0.0106608 -0.0135975 0)
(-0.0141156 -0.0117489 0)
(-0.0128783 -0.00986147 0)
(-0.00800228 -0.0169478 0)
(-0.00668417 -0.0294094 0)
(-0.0136585 -0.0304098 0)
(-0.000223556 0.0070171 0)
(0.00151811 0.0131154 0)
(0.00375436 0.0158765 0)
(0.00455957 0.0179178 0)
(0.00499383 0.0217011 0)
(0.0065364 0.0253952 0)
(0.0094688 0.0270973 0)
(0.0125404 0.0250968 0)
(0.0142548 0.0205812 0)
(0.0143821 0.0151873 0)
(0.0130822 0.0100838 0)
(0.0105731 0.00604035 0)
(0.00733519 0.00380442 0)
(0.0041721 0.00320079 0)
(0.00183052 0.0027852 0)
(0.000730469 0.00081464 0)
(-0.00101024 -0.00476982 0)
(-0.00466633 -0.00955326 0)
(-0.00721041 -0.0105449 0)
(-0.00651099 -0.0125763 0)
(-0.00535302 -0.0189405 0)
(-0.00808254 -0.0247343 0)
(-0.0139144 -0.0239421 0)
(-0.000398437 0.00761649 0)
(-2.45469e-06 0.0120857 0)
(0.000747518 0.0149183 0)
(0.00106177 0.0174618 0)
(0.00165668 0.0205449 0)
(0.00326747 0.0231695 0)
(0.00581623 0.0241705 0)
(0.00847951 0.022693 0)
(0.0102995 0.0193998 0)
(0.010883 0.0154131 0)
(0.0102031 0.0115951 0)
(0.00846961 0.00851578 0)
(0.00620516 0.00650555 0)
(0.00412737 0.00538725 0)
(0.00269324 0.00416353 0)
(0.00187324 0.00182053 0)
(0.000546935 -0.00246948 0)
(-0.00180286 -0.0066551 0)
(-0.00357793 -0.00957998 0)
(-0.00410515 -0.0128584 0)
(-0.00516605 -0.0170831 0)
(-0.00843244 -0.0198611 0)
(-0.0129512 -0.0196924 0)
(-0.000562226 0.00792685 0)
(-0.000883126 0.0120327 0)
(-0.000985225 0.0147355 0)
(-0.000960369 0.0171186 0)
(-0.000443784 0.0194934 0)
(0.000879199 0.0212825 0)
(0.00285482 0.0218135 0)
(0.00493002 0.0206177 0)
(0.00646368 0.018192 0)
(0.00708237 0.015312 0)
(0.00674703 0.012512 0)
(0.00569556 0.0101142 0)
(0.00432515 0.00823232 0)
(0.00307494 0.00674315 0)
(0.00219771 0.00506885 0)
(0.00157998 0.00261763 0)
(0.0006123 -0.000934042 0)
(-0.000941151 -0.00481992 0)
(-0.00240967 -0.00840033 0)
(-0.00361144 -0.0116457 0)
(-0.00538872 -0.0145263 0)
(-0.00838273 -0.0160882 0)
(-0.0119907 -0.0161151 0)
(-0.000731936 0.00882469 0)
(-0.00139643 0.0125303 0)
(-0.00189973 0.0149601 0)
(-0.00208482 0.0169687 0)
(-0.00176305 0.0187083 0)
(-0.000816996 0.0198687 0)
(0.000600754 0.0200688 0)
(0.00208076 0.019057 0)
(0.00317806 0.0172381 0)
(0.00367012 0.01513 0)
(0.00356927 0.0129939 0)
(0.0030406 0.0109939 0)
(0.00231822 0.00920148 0)
(0.00164865 0.00752487 0)
(0.00116382 0.00563988 0)
(0.000768973 0.00321597 0)
(0.000130689 9.87752e-05 0)
(-0.000943687 -0.00346355 0)
(-0.00229061 -0.00699919 0)
(-0.00382478 -0.00996482 0)
(-0.00581353 -0.0120978 0)
(-0.00841391 -0.0130376 0)
(-0.0112362 -0.0131207 0)
(-0.000849586 0.00994012 0)
(-0.0016917 0.0132975 0)
(-0.00239978 0.0154153 0)
(-0.0027471 0.0170103 0)
(-0.00264297 0.0182261 0)
(-0.00205723 0.0189131 0)
(-0.00112693 0.0188727 0)
(-0.000149027 0.0180051 0)
(0.000579766 0.0165815 0)
(0.000956536 0.0149217 0)
(0.00101348 0.0131599 0)
(0.00082637 0.011392 0)
(0.000519892 0.0096637 0)
(0.000228655 0.00790786 0)
(1.36499e-05 0.00594514 0)
(-0.000197599 0.00359699 0)
(-0.000599725 0.000789402 0)
(-0.00138307 -0.00236402 0)
(-0.00260423 -0.00552098 0)
(-0.00420964 -0.00815103 0)
(-0.0061719 -0.00985497 0)
(-0.00837511 -0.010582 0)
(-0.0105521 -0.0107704 0)
(-0.000938965 0.0112093 0)
(-0.00190011 0.0142235 0)
(-0.00273 0.0160171 0)
(-0.00320162 0.0172236 0)
(-0.00328911 0.0180167 0)
(-0.0030024 0.0183449 0)
(-0.00245589 0.0181209 0)
(-0.00184755 0.0173301 0)
(-0.00135586 0.0161268 0)
(-0.00104507 0.0146976 0)
(-0.000904455 0.0131349 0)
(-0.000895627 0.0115006 0)
(-0.000954802 0.00981584 0)
(-0.00101858 0.00803796 0)
(-0.00107103 0.0060714 0)
(-0.00117425 0.00382616 0)
(-0.00145914 0.00128332 0)
(-0.00207232 -0.00145567 0)
(-0.00311444 -0.00414723 0)
(-0.00458378 -0.00640488 0)
(-0.00633374 -0.00788412 0)
(-0.0081331 -0.00862965 0)
(-0.0098281 -0.00895965 0)
(-0.00102688 0.0126131 0)
(-0.00208068 0.0152653 0)
(-0.00299381 0.0167217 0)
(-0.0035606 0.017576 0)
(-0.00379669 0.0180225 0)
(-0.0037297 0.018068 0)
(-0.00344899 0.017688 0)
(-0.00308333 0.0168983 0)
(-0.0027443 0.01579 0)
(-0.002481 0.0144712 0)
(-0.00229784 0.0130096 0)
(-0.00218001 0.0114461 0)
(-0.00210106 0.00979246 0)
(-0.0020397 0.0080259 0)
(-0.00200552 0.00610018 0)
(-0.00205442 0.00398005 0)
(-0.00228197 0.00167997 0)
(-0.00279443 -0.000704224 0)
(-0.00366477 -0.00298475 0)
(-0.00487759 -0.00490464 0)
(-0.00629919 -0.00626111 0)
(-0.00774541 -0.00707673 0)
(-0.00909976 -0.00753135 0)
(-0.00111396 0.014143 0)
(-0.00224617 0.0163956 0)
(-0.00321924 0.017504 0)
(-0.00385811 0.0180325 0)
(-0.00419998 0.0181815 0)
(-0.00428021 0.0179884 0)
(-0.00416959 0.0174602 0)
(-0.00395577 0.016621 0)
(-0.00371378 0.015529 0)
(-0.00348429 0.0142502 0)
(-0.00328133 0.0128323 0)
(-0.00310616 0.0113043 0)
(-0.00295493 0.00967641 0)
(-0.00282979 0.00794102 0)
(-0.00275271 0.00608196 0)
(-0.00277251 0.00409553 0)
(-0.0029589 0.00201338 0)
(-0.00338313 -7.99848e-05 0)
(-0.00408727 -0.00204563 0)
(-0.00504854 -0.00371742 0)
(-0.00616693 -0.00497707 0)
(-0.0073126 -0.005831 0)
(-0.00839725 -0.0063817 0)
(-0.00119999 0.0157889 0)
(-0.00239344 0.0175908 0)
(-0.00340698 0.0183443 0)
(-0.00409648 0.0185618 0)
(-0.00450729 0.018441 0)
(-0.00467887 0.0180325 0)
(-0.00467082 0.0173568 0)
(-0.00454788 0.0164387 0)
(-0.00436532 0.0153179 0)
(-0.00415894 0.0140371 0)
(-0.00394851 0.0126299 0)
(-0.00374549 0.0111187 0)
(-0.0035591 0.00951493 0)
(-0.00340347 0.00782127 0)
(-0.00330476 0.00603929 0)
(-0.00330372 0.00418194 0)
(-0.00345027 0.00228676 0)
(-0.00378987 0.000424069 0)
(-0.00434369 -0.00130621 0)
(-0.00508857 -0.00279634 0)
(-0.00595391 -0.00397405 0)
(-0.00685111 -0.00483949 0)
(-0.00771492 -0.00545332 0)
(-0.00127303 0.0175373 0)
(-0.00251134 0.0188309 0)
(-0.00354863 0.0192238 0)
(-0.00426712 0.0191367 0)
(-0.00471637 0.0187606 0)
(-0.00493901 0.0181488 0)
(-0.00498847 0.0173253 0)
(-0.00491707 0.0163125 0)
(-0.00476942 0.0151381 0)
(-0.00457837 0.0138315 0)
(-0.00436677 0.0124171 0)
(-0.00415193 0.0109133 0)
(-0.00394997 0.0093327 0)
(-0.00378013 0.00768458 0)
(-0.00366829 0.00597997 0)
(-0.00364727 0.00423932 0)
(-0.00375228 0.00249955 0)
(-0.00401156 0.000817132 0)
(-0.00443421 -0.000736547 0)
(-0.00499988 -0.00209051 0)
(-0.0056595 -0.0031988 0)
(-0.00635283 -0.00405942 0)
(-0.00703244 -0.00470939 0)
(-0.00131257 0.0193611 0)
(-0.00258642 0.0201022 0)
(-0.00363348 0.0201219 0)
(-0.00435816 0.0197321 0)
(-0.00482054 0.0191096 0)
(-0.00506571 0.0183025 0)
(-0.00514348 0.0173325 0)
(-0.00509911 0.0162174 0)
(-0.00497117 0.0149771 0)
(-0.00479037 0.0136323 0)
(-0.00458077 0.0122014 0)
(-0.00436255 0.0107001 0)
(-0.00415476 0.00914143 0)
(-0.0039779 0.00753804 0)
(-0.00385544 0.00590531 0)
(-0.00381325 0.00426581 0)
(-0.00387599 0.00265277 0)
(-0.00406099 0.00111067 0)
(-0.00437102 -0.000309236 0)
(-0.00478943 -0.00155922 0)
(-0.00528194 -0.00260902 0)
(-0.00580714 -0.00345608 0)
(-0.00633064 -0.00412369 0)
(-0.00132248 0.0212219 0)
(-0.00261192 0.021391 0)
(-0.00364868 0.0210148 0)
(-0.00435642 0.0203251 0)
(-0.00481136 0.0194649 0)
(-0.00505928 0.0184703 0)
(-0.00514697 0.0173572 0)
(-0.00511502 0.0161383 0)
(-0.00499798 0.0148274 0)
(-0.00482463 0.0134389 0)
(-0.00461899 0.011987 0)
(-0.00440199 0.0104853 0)
(-0.00419323 0.00894635 0)
(-0.00401242 0.00738399 0)
(-0.00387992 0.00581473 0)
(-0.00381586 0.00426037 0)
(-0.00383757 0.00274939 0)
(-0.00395562 0.00131646 0)
(-0.00416983 -1.26202e-06 0)
(-0.00446696 -0.00117089 0)
(-0.00482265 -0.00217191 0)
(-0.00520794 -0.00300191 0)
(-0.00559761 -0.00367609 0)
(-0.00130986 0.0230834 0)
(-0.00257663 0.0226709 0)
(-0.00357497 0.0218784 0)
(-0.00424757 0.0208966 0)
(-0.00468063 0.0198098 0)
(-0.00491861 0.0186372 0)
(-0.00500528 0.0173872 0)
(-0.0049776 0.0160669 0)
(-0.00486699 0.0146848 0)
(-0.00470019 0.0132511 0)
(-0.00450023 0.0117765 0)
(-0.00428746 0.0102722 0)
(-0.00408064 0.00875004 0)
(-0.00389771 0.00722338 0)
(-0.00375587 0.0057081 0)
(-0.00367076 0.00422379 0)
(-0.00365463 0.00279417 0)
(-0.00371399 0.00144609 0)
(-0.00384732 0.000206801 0)
(-0.00404424 -0.000900492 0)
(-0.00428717 -0.00186159 0)
(-0.00455525 -0.00267453 0)
(-0.00482966 -0.00334979 0)
(-0.00125015 0.0248941 0)
(-0.00245246 0.0239026 0)
(-0.00339193 0.0226965 0)
(-0.00402132 0.021435 0)
(-0.00442432 0.0201342 0)
(-0.00464483 0.0187946 0)
(-0.00472433 0.0174155 0)
(-0.00469684 0.0159987 0)
(-0.00459094 0.0145481 0)
(-0.00443116 0.0130699 0)
(-0.00423885 0.011572 0)
(-0.00403293 0.0100634 0)
(-0.00383057 0.00855455 0)
(-0.00364752 0.00705757 0)
(-0.00349809 0.00558672 0)
(-0.00339441 0.00415886 0)
(-0.00334528 0.00279334 0)
(-0.0033547 0.00151092 0)
(-0.00342069 0.000331776 0)
(-0.00353513 -0.000727487 0)
(-0.003685 -0.00165688 0)
(-0.00385484 -0.00245503 0)
(-0.00403028 -0.00312967 0)
(-0.00114193 0.0265842 0)
(-0.00224428 0.0250473 0)
(-0.00310695 0.0234586 0)
(-0.00368299 0.0219324 0)
(-0.00404759 0.0204315 0)
(-0.00424445 0.0189369 0)
(-0.00431273 0.0174386 0)
(-0.0042834 0.0159322 0)
(-0.00418206 0.0144173 0)
(-0.00403065 0.0128968 0)
(-0.00384834 0.0113759 0)
(-0.00365206 0.00986148 0)
(-0.00345695 0.00836236 0)
(-0.00327652 0.00688893 0)
(-0.00312246 0.00545347 0)
(-0.00300422 0.00407007 0)
(-0.00292816 0.00275425 0)
(-0.00289674 0.00152206 0)
(-0.00290793 0.000388502 0)
(-0.0029553 -0.000634438 0)
(-0.00302896 -0.00153974 0)
(-0.00311713 -0.00232669 0)
(-0.0032085 -0.00300146 0)
(-0.00101386 0.0281045 0)
(-0.00198757 0.0260758 0)
(-0.00274762 0.0241461 0)
(-0.00324994 0.0223763 0)
(-0.00356326 0.0206931 0)
(-0.00372913 0.0190591 0)
(-0.00378253 0.0174539 0)
(-0.00375021 0.0158668 0)
(-0.00365408 0.0142936 0)
(-0.00351295 0.0127341 0)
(-0.00334333 0.0111911 0)
(-0.00315981 0.00966959 0)
(-0.00297528 0.00817667 0)
(-0.002801 0.00672095 0)
(-0.0026464 0.00531262 0)
(-0.00251875 0.00396319 0)
(-0.0024227 0.002685 0)
(-0.00235972 0.00149038 0)
(-0.00232789 0.000390513 0)
(-0.00232204 -0.000605957 0)
(-0.00233448 -0.00149422 0)
(-0.00235596 -0.00227426 0)
(-0.00237734 -0.0029514 0)
(-0.000879338 0.0294322 0)
(-0.00170195 0.026964 0)
(-0.00233292 0.0247325 0)
(-0.00273843 0.0227483 0)
(-0.00298569 0.0209083 0)
(-0.00311301 0.0191556 0)
(-0.00314845 0.0174592 0)
(-0.00311272 0.0158027 0)
(-0.00302299 0.0141785 0)
(-0.0028944 0.0125842 0)
(-0.00274046 0.0110206 0)
(-0.00257316 0.00949123 0)
(-0.00240304 0.00800135 0)
(-0.00223916 0.00655796 0)
(-0.00208892 0.00516937 0)
(-0.00195785 0.00384482 0)
(-0.00184927 0.00259403 0)
(-0.00176402 0.00142644 0)
(-0.00170033 0.00035034 0)
(-0.00165399 -0.000628113 0)
(-0.00161888 -0.00150583 0)
(-0.00158757 -0.00228349 0)
(-0.00155252 -0.00296602 0)
(-0.000744957 0.0305551 0)
(-0.00139895 0.0276896 0)
(-0.00187553 0.025191 0)
(-0.00216097 0.0230281 0)
(-0.00232825 0.0210659 0)
(-0.00241125 0.0192217 0)
(-0.0024272 0.0174533 0)
(-0.00238855 0.0157405 0)
(-0.00230694 0.014074 0)
(-0.00219348 0.01245 0)
(-0.00205846 0.010868 0)
(-0.00191113 0.00933025 0)
(-0.00175964 0.00784073 0)
(-0.00161091 0.00640495 0)
(-0.00147051 0.00502958 0)
(-0.00134245 0.00372202 0)
(-0.00122905 0.00248989 0)
(-0.00113066 0.00134041 0)
(-0.0010457 0.000279672 0)
(-0.000970725 -0.000688081 0)
(-0.000900759 -0.00156115 0)
(-0.000829723 -0.00234088 0)
(-0.000751271 -0.00303212 0)
(-0.000617103 0.0314659 0)
(-0.00108672 0.0282321 0)
(-0.00138389 0.0254927 0)
(-0.00152646 0.0231955 0)
(-0.0016032 0.0211582 0)
(-0.00164005 0.0192554 0)
(-0.00163728 0.0174365 0)
(-0.00159725 0.0156818 0)
(-0.00152592 0.0139825 0)
(-0.00143039 0.0123344 0)
(-0.00131769 0.0107368 0)
(-0.00119431 0.00919082 0)
(-0.00106597 0.0076995 0)
(-0.000937493 0.00626723 0)
(-0.00081271 0.0048994 0)
(-0.000694324 0.00360198 0)
(-0.000583774 0.00238101 0)
(-0.000481099 0.00124202 0)
(-0.000384877 0.000189451 0)
(-0.000292287 -0.000773948 0)
(-0.000199288 -0.00164762 0)
(-0.000100838 -0.00243361 0)
(8.46762e-06 -0.00313684 0)
(-0.000493431 0.0321673 0)
(-0.000759168 0.0285745 0)
(-0.000856214 0.0256101 0)
(-0.000840038 0.0232335 0)
(-0.000824062 0.0211831 0)
(-0.000818295 0.0192582 0)
(-0.000799374 0.0174107 0)
(-0.000759808 0.0156287 0)
(-0.000700953 0.0139063 0)
(-0.000626244 0.0122407 0)
(-0.000539473 0.0106308 0)
(-0.000444253 0.00907727 0)
(-0.000343815 0.0075826 0)
(-0.000240897 0.00615039 0)
(-0.00013766 0.00478515 0)
(-3.55827e-05 0.00349189 0)
(6.46348e-05 0.00227555 0)
(0.000163206 0.00114048 0)
(0.000261353 8.98877e-05 0)
(0.000361325 -0.000874633 0)
(0.000466376 -0.00175352 0)
(0.000580691 -0.00254949 0)
(0.00070892 -0.00326774 0)
(-0.000299625 0.0326329 0)
(-0.000331486 0.0287018 0)
(-0.000253905 0.0255522 0)
(-0.000113844 0.0231513 0)
(-1.86804e-05 0.0211426 0)
(2.94893e-05 0.0192314 0)
(6.43838e-05 0.0173768 0)
(0.00010283 0.0155825 0)
(0.00014722 0.0138481 0)
(0.000197983 0.0121721 0)
(0.000254873 0.0105539 0)
(0.000317377 0.00899422 0)
(0.000384881 0.00749518 0)
(0.000456772 0.00606009 0)
(0.000532532 0.00469311 0)
(0.000611824 0.00339873 0)
(0.00069461 0.00218128 0)
(0.000781272 0.00104438 0)
(0.000872769 -9.57626e-06 0)
(0.00097077 -0.000979907 0)
(0.00107779 -0.00186793 0)
(0.00119725 -0.00267709 0)
(0.00133319 -0.00341299 0)
(4.54474e-05 0.032745 0)
(0.0002574 0.0286212 0)
(0.000451366 0.0253741 0)
(0.000654666 0.0229925 0)
(0.000798574 0.0210457 0)
(0.000885487 0.0191753 0)
(0.000937862 0.0173344 0)
(0.000973693 0.0155446 0)
(0.00100035 0.0138105 0)
(0.00102283 0.0121325 0)
(0.00104494 0.0105108 0)
(0.00106952 0.00894669 0)
(0.00109869 0.00744261 0)
(0.00113396 0.0060021 0)
(0.00117639 0.00462944 0)
(0.00122674 0.00332913 0)
(0.00128551 0.00210539 0)
(0.00135319 0.000961585 0)
(0.00143035 -0.000100372 0)
(0.00151801 -0.00108046 0)
(0.00161788 -0.00198084 0)
(0.00173271 -0.00280579 0)
(0.00186602 -0.00356149 0)
(0.000498529 0.0323111 0)
(0.000953484 0.0283518 0)
(0.00124219 0.025122 0)
(0.00148086 0.0228016 0)
(0.00164483 0.0209149 0)
(0.00175376 0.0190943 0)
(0.00181622 0.0172868 0)
(0.0018423 0.0155192 0)
(0.00184384 0.0137987 0)
(0.00183099 0.0121274 0)
(0.00181174 0.0105071 0)
(0.00179228 0.00894035 0)
(0.00177729 0.00743058 0)
(0.00177027 0.00598218 0)
(0.00177375 0.00460006 0)
(0.00178941 0.00328927 0)
(0.00181827 0.00205441 0)
(0.00186075 0.000899064 0)
(0.00191693 -0.000174938 0)
(0.00198698 -0.00116804 0)
(0.00207171 -0.00208328 0)
(0.00217316 -0.00292596 0)
(0.00229449 -0.00370311 0)
(0.000943983 0.0313084 0)
(0.00169094 0.027856 0)
(0.00209756 0.0248087 0)
(0.00236341 0.0225992 0)
(0.00253631 0.0207702 0)
(0.00264947 0.0190028 0)
(0.00270188 0.0172467 0)
(0.00270159 0.0155176 0)
(0.00266492 0.0138223 0)
(0.00260639 0.0121651 0)
(0.00253749 0.01055 0)
(0.00246708 0.00898157 0)
(0.00240192 0.00746498 0)
(0.00234711 0.00600593 0)
(0.00230637 0.00461048 0)
(0.00228222 0.00328467 0)
(0.00227604 0.002034 0)
(0.00228811 0.000862756 0)
(0.00231783 -0.000226869 0)
(0.00236423 -0.00123558 0)
(0.00242702 -0.00216741 0)
(0.00250751 -0.00302908 0)
(0.00260868 -0.00382881 0)
(0.00132368 0.0297645 0)
(0.00241057 0.0270854 0)
(0.00298521 0.0244102 0)
(0.00330855 0.0223756 0)
(0.00348872 0.0206238 0)
(0.003579 0.0189271 0)
(0.00359078 0.0172376 0)
(0.00354065 0.0155581 0)
(0.00344881 0.0138951 0)
(0.00333242 0.0122559 0)
(0.00320494 0.0106475 0)
(0.00307675 0.00907694 0)
(0.00295583 0.00755148 0)
(0.0028483 0.00607855 0)
(0.00275874 0.00466563 0)
(0.00269035 0.00332011 0)
(0.00264485 0.00204887 0)
(0.00262235 0.00085744 0)
(0.00262138 -0.000251056 0)
(0.00263948 -0.0012773 0)
(0.0026748 -0.00222663 0)
(0.00272795 -0.00310784 0)
(0.002802 -0.0039308 0)
(0.0017042 0.0277054 0)