/*--------------------------------*- C++ -*----------------------------------*\
  =========                 |
  \\      /  F ield         | OpenFOAM: The Open Source CFD Toolbox
   \\    /   O peration     | Website:  https://openfoam.org
    \\  /    A nd           | Version:  9
     \\/     M anipulation  |
\*---------------------------------------------------------------------------*/
FoamFile
{
    format      ascii;
    class       volScalarField;
    location    "3.41";
    object      p;
}
// * * * * * * * * * * * * * * * * * * * * * * * * * * * * * * * * * * * * * //

dimensions      [1 -1 -2 0 0 0 0];

internalField   nonuniform List<scalar> 
2268
(
751.672
751.428
750.761
749.618
748.029
746.026
743.65
740.949
737.978
734.801
731.49
728.12
724.763
721.481
718.322
715.309
712.469
709.735
707.52
706.684
706.678
706.835
706.848
692.846
692.581
691.914
690.766
689.178
687.18
684.809
682.11
679.14
675.96
672.639
669.252
665.869
662.559
659.375
656.352
653.587
651.323
649.99
648.667
648.044
648.098
648.212
634.097
633.818
633.144
631.987
630.394
628.393
626.017
623.312
620.333
617.138
613.796
610.382
606.97
603.634
600.44
597.454
594.886
593.387
592.178
590.802
589.585
589.226
589.399
575.44
575.163
574.485
573.315
571.709
569.692
567.299
564.574
561.568
558.342
554.964
551.512
548.063
544.698
541.502
538.566
536.146
534.982
533.954
532.587
530.97
530.281
530.449
516.879
516.615
515.937
514.755
513.128
511.083
508.661
505.901
502.852
499.576
496.146
492.641
489.142
485.739
482.526
479.623
477.226
475.977
475.077
473.662
471.883
471.195
471.458
458.421
458.173
457.499
456.305
454.649
452.567
450.105
447.297
444.189
440.843
437.342
433.768
430.203
426.742
423.487
420.561
418.126
416.608
415.539
414.087
412.438
411.931
412.443
400.067
399.839
399.17
397.962
396.27
394.14
391.627
388.76
385.576
382.142
378.552
374.892
371.242
367.702
364.379
361.391
358.871
357.096
355.736
354.251
352.743
352.369
353.222
341.826
341.612
340.944
339.718
337.979
335.789
333.217
330.282
327.004
323.463
319.768
316.009
312.257
308.619
305.201
302.114
299.473
297.458
295.853
294.294
292.815
292.357
294.104
713.806
715.134
717.245
719.882
722.728
725.913
729.445
733.274
737.237
740.85
744.474
746.22
748.473
751.508
755.347
756.183
755.045
755.079
755.774
655.317
656.241
658.189
660.852
663.801
667.161
670.889
674.851
678.883
682.633
686.026
688.715
692.087
694.723
697.265
698.284
697.836
698.245
698.922
596.338
597.189
598.992
601.662
604.702
608.229
612.135
616.285
620.535
624.397
627.919
631.915
635.437
637.808
638.968
640.151
640.517
640.665
641.588
536.921
537.91
539.771
542.488
545.625
549.294
553.32
557.686
562.184
566.139
569.948
575.153
578.514
580.501
580.941
582.14
583.98
583.193
584.101
477.34
478.571
480.558
483.319
486.511
490.304
494.426
498.929
503.665
507.801
511.845
517.548
521.271
522.743
523.225
524.612
527.314
526.65
526.606
417.569
419.287
421.324
424.103
427.325
431.264
435.44
439.997
444.97
449.312
453.586
459.109
463.142
464.655
465.612
467.279
470.041
470.449
469.016
357.723
360.078
362.052
364.815
368.045
372.211
376.375
380.897
386.032
390.677
395.221
400.497
404.468
406.49
408.031
410.04
412.532
413.947
412.326
296.279
300.721
302.714
305.478
308.608
313.136
317.832
322.132
327.225
332.225
337.302
342.203
346.039
348.461
350.476
352.868
355.495
357.317
357.126
250.939
250.752
250.083
248.829
246.998
244.691
242.015
238.965
235.514
231.757
227.864
223.927
219.983
216.148
212.532
209.231
206.348
203.982
202.044
200.343
198.834
197.822
197.663
127.923
127.924
127.359
126.133
124.157
121.631
118.807
115.593
111.992
108.241
104.466
100.666
96.9066
93.2786
89.8715
86.752
84.0126
81.7034
79.8208
78.3178
77.1726
76.6343
77.106
34.2026
34.3307
33.9661
33.2216
32.2298
30.9522
29.4266
27.72
25.9828
24.2459
22.4526
20.6081
18.8556
17.2272
15.6968
14.3185
13.1636
12.1481
11.2735
10.5214
9.87836
9.53785
9.70881
0.218526
0.319452
0.190526
0.061503
0.290148
0.518086
0.484025
0.571013
0.873608
1.01403
1.02477
0.960222
0.919604
0.872431
0.772865
0.647761
0.578207
0.425272
0.238559
0.0188339
-0.240116
-0.359013
-0.253768
-0.188212
-0.163385
-0.153338
-0.228258
-0.13603
0.026251
0.106775
0.163661
0.255689
0.338357
0.340865
0.307245
0.270875
0.222915
0.162318
0.102729
-2.14763e-06
-0.138541
-0.289094
-0.438415
-0.546443
-0.575005
-0.540857
-0.59855
-0.635363
-0.567611
-0.617188
-0.647404
-0.627794
-0.564474
-0.557743
-0.632188
-0.681814
-0.706317
-0.695931
-0.705499
-0.729052
-0.721668
-0.711268
-0.773439
-0.833907
-0.861921
-0.883506
-0.862969
-0.837936
-0.811447
-0.960333
-0.990742
-0.980609
-0.970887
-1.00711
-1.06645
-1.12562
-1.17176
-1.21402
-1.25824
-1.2748
-1.28005
-1.2811
-1.27542
-1.27083
-1.25906
-1.23011
-1.18709
-1.13105
-1.09639
-1.07913
-1.07867
-1.08897
-1.32245
-1.33423
-1.34498
-1.2994
-1.31038
-1.34282
-1.37559
-1.40212
-1.40848
-1.4027
-1.40278
-1.40304
-1.39905
-1.39437
-1.38863
-1.37991
-1.36771
-1.35118
-1.33509
-1.29994
-1.28463
-1.29066
-1.32006
-1.56919
-1.56496
-1.56282
-1.54899
-1.5488
-1.55436
-1.54818
-1.53999
-1.53762
-1.53318
-1.53064
-1.52877
-1.52568
-1.52161
-1.517
-1.51161
-1.50566
-1.4999
-1.50032
-1.49196
-1.48161
-1.47687
-1.48696
-1.69175
-1.68638
-1.68803
-1.69092
-1.6907
-1.68342
-1.6758
-1.66959
-1.66515
-1.66079
-1.65767
-1.65515
-1.65226
-1.64877
-1.64474
-1.64055
-1.63644
-1.63387
-1.63615
-1.63933
-1.63669
-1.62854
-1.62318
-1.81076
-1.80789
-1.80856
-1.80916
-1.80885
-1.80557
-1.8006
-1.79558
-1.79136
-1.78746
-1.7843
-1.78147
-1.77848
-1.7753
-1.77196
-1.76865
-1.76566
-1.76373
-1.764
-1.76417
-1.7618
-1.75811
-1.75516
-1.93159
-1.93005
-1.93012
-1.93049
-1.92994
-1.92772
-1.92423
-1.92041
-1.91686
-1.91352
-1.91048
-1.90762
-1.90475
-1.90189
-1.89905
-1.89633
-1.89395
-1.89226
-1.89163
-1.89103
-1.88933
-1.88707
-1.88543
-2.05318
-2.05266
-2.05268
-2.0527
-2.05207
-2.05038
-2.04783
-2.0449
-2.04195
-2.03905
-2.03625
-2.03357
-2.03096
-2.02841
-2.02595
-2.02366
-2.02166
-2.02013
-2.01918
-2.01842
-2.01733
-2.0159
-2.01488
-2.1753
-2.17557
-2.17573
-2.17561
-2.17497
-2.17361
-2.17164
-2.1693
-2.16682
-2.1643
-2.16182
-2.15941
-2.15706
-2.1548
-2.15265
-2.15067
-2.14894
-2.14754
-2.14653
-2.14574
-2.14498
-2.14412
-2.1435
-2.29779
-2.29864
-2.29905
-2.29897
-2.29837
-2.29725
-2.29565
-2.29374
-2.29164
-2.28946
-2.28728
-2.28513
-2.28304
-2.28104
-2.27914
-2.27741
-2.27588
-2.2746
-2.2736
-2.2728
-2.27213
-2.2716
-2.27123
-2.42065
-2.4219
-2.42258
-2.4226
-2.42211
-2.42116
-2.41984
-2.41824
-2.41646
-2.41458
-2.41267
-2.41077
-2.40892
-2.40714
-2.40547
-2.40393
-2.40256
-2.4014
-2.40044
-2.39967
-2.39905
-2.39859
-2.39831
-2.54389
-2.54541
-2.54629
-2.54644
-2.54606
-2.54528
-2.54417
-2.54282
-2.5413
-2.53967
-2.53801
-2.53634
-2.5347
-2.53312
-2.53164
-2.53027
-2.52904
-2.52797
-2.52708
-2.52636
-2.52579
-2.52538
-2.52516
-2.66757
-2.6692
-2.6702
-2.67045
-2.67018
-2.66954
-2.66861
-2.66746
-2.66616
-2.66475
-2.6633
-2.66183
-2.66038
-2.65898
-2.65766
-2.65644
-2.65533
-2.65437
-2.65355
-2.65288
-2.65235
-2.65199
-2.6518
-2.79165
-2.79328
-2.7943
-2.79462
-2.79444
-2.79392
-2.79313
-2.79216
-2.79103
-2.78982
-2.78854
-2.78725
-2.78598
-2.78474
-2.78356
-2.78246
-2.78147
-2.7806
-2.77985
-2.77923
-2.77876
-2.77843
-2.77826
-2.91607
-2.91761
-2.91858
-2.91892
-2.9188
-2.91838
-2.91772
-2.91688
-2.91591
-2.91486
-2.91375
-2.91261
-2.91149
-2.91039
-2.90934
-2.90836
-2.90747
-2.90668
-2.906
-2.90544
-2.90501
-2.90471
-2.90456
-3.04078
-3.04214
-3.043
-3.04333
-3.04325
-3.0429
-3.04234
-3.04162
-3.04079
-3.03987
-3.0389
-3.03791
-3.03691
-3.03594
-3.03501
-3.03414
-3.03334
-3.03263
-3.03202
-3.03151
-3.03112
-3.03085
-3.03071
-3.16569
-3.16683
-3.16754
-3.16782
-3.16776
-3.16747
-3.16699
-3.16637
-3.16565
-3.16485
-3.164
-3.16313
-3.16226
-3.1614
-3.16058
-3.1598
-3.15909
-3.15846
-3.15791
-3.15746
-3.15711
-3.15687
-3.15674
-3.29073
-3.29163
-3.29217
-3.29237
-3.29232
-3.29206
-3.29165
-3.29111
-3.29049
-3.28979
-3.28906
-3.2883
-3.28753
-3.28678
-3.28605
-3.28537
-3.28474
-3.28418
-3.28369
-3.28329
-3.28298
-3.28277
-3.28266
-3.41584
-3.41648
-3.41683
-3.41695
-3.41689
-3.41666
-3.41631
-3.41584
-3.4153
-3.41471
-3.41407
-3.41341
-3.41274
-3.41208
-3.41144
-3.41084
-3.41029
-3.4098
-3.40937
-3.40902
-3.40875
-3.40857
-3.40848
-3.54094
-3.54135
-3.5415
-3.54155
-3.54148
-3.54127
-3.54096
-3.54057
-3.5401
-3.53959
-3.53904
-3.53847
-3.53789
-3.53732
-3.53677
-3.53625
-3.53576
-3.53534
-3.53497
-3.53466
-3.53444
-3.53429
-3.53422
-3.66599
-3.6662
-3.66619
-3.66617
-3.66608
-3.66589
-3.66562
-3.66528
-3.66489
-3.66445
-3.66398
-3.66349
-3.663
-3.66251
-3.66203
-3.66158
-3.66117
-3.66081
-3.66049
-3.66024
-3.66005
-3.65993
-3.65988
-3.79097
-3.79099
-3.79088
-3.79082
-3.7907
-3.79052
-3.79029
-3.79
-3.78967
-3.7893
-3.7889
-3.78849
-3.78807
-3.78766
-3.78726
-3.78688
-3.78653
-3.78622
-3.78596
-3.78575
-3.7856
-3.78551
-3.78549
-3.91591
-3.91576
-3.91558
-3.91548
-3.91534
-3.91517
-3.91497
-3.91472
-3.91445
-3.91414
-3.91382
-3.91348
-3.91313
-3.91278
-3.91244
-3.91213
-3.91184
-3.91159
-3.91138
-3.91121
-3.9111
-3.91104
-3.91104
-4.04085
-4.04053
-4.04029
-4.04015
-4.04
-4.03985
-4.03967
-4.03947
-4.03925
-4.039
-4.03873
-4.03846
-4.03817
-4.03789
-4.03761
-4.03735
-4.03712
-4.03692
-4.03675
-4.03663
-4.03655
-4.03652
-4.03654
-4.16578
-4.16535
-4.16504
-4.16485
-4.16471
-4.16457
-4.16442
-4.16426
-4.16408
-4.16388
-4.16367
-4.16344
-4.16322
-4.16299
-4.16277
-4.16256
-4.16238
-4.16223
-4.1621
-4.16202
-4.16197
-4.16196
-4.162
-4.29073
-4.29022
-4.28985
-4.28963
-4.28948
-4.28935
-4.28922
-4.28909
-4.28895
-4.28879
-4.28863
-4.28845
-4.28827
-4.28809
-4.28792
-4.28776
-4.28763
-4.28751
-4.28743
-4.28738
-4.28736
-4.28738
-4.28743
-4.4157
-4.41515
-4.41475
-4.41449
-4.41432
-4.4142
-4.41409
-4.41398
-4.41386
-4.41375
-4.41362
-4.41348
-4.41335
-4.41321
-4.41308
-4.41296
-4.41286
-4.41279
-4.41274
-4.41272
-4.41273
-4.41276
-4.41283
-4.54069
-4.54012
-4.53969
-4.53942
-4.53924
-4.53912
-4.53902
-4.53893
-4.53884
-4.53875
-4.53865
-4.53855
-4.53844
-4.53834
-4.53824
-4.53816
-4.53809
-4.53805
-4.53803
-4.53804
-4.53807
-4.53813
-4.53821
-4.6657
-4.66512
-4.66468
-4.6644
-4.66423
-4.66411
-4.66402
-4.66394
-4.66387
-4.6638
-4.66373
-4.66365
-4.66357
-4.66349
-4.66342
-4.66336
-4.66332
-4.6633
-4.66331
-4.66335
-4.6634
-4.66348
-4.66357
-4.79072
-4.79013
-4.78969
-4.78943
-4.78927
-4.78916
-4.78908
-4.78902
-4.78896
-4.78891
-4.78885
-4.78879
-4.78872
-4.78865
-4.78859
-4.78855
-4.78853
-4.78855
-4.78859
-4.78865
-4.78872
-4.78881
-4.78891
-4.91576
-4.91514
-4.91473
-4.9145
-4.91437
-4.91428
-4.9142
-4.91415
-4.9141
-4.91406
-4.91401
-4.91395
-4.91389
-4.91383
-4.91378
-4.91374
-4.91374
-4.91378
-4.91385
-4.91394
-4.91403
-4.91414
-4.91424
-5.04081
-5.04016
-5.03978
-5.0396
-5.03951
-5.03944
-5.03939
-5.03934
-5.0393
-5.03926
-5.03921
-5.03916
-5.03909
-5.03902
-5.03896
-5.03892
-5.03893
-5.03899
-5.0391
-5.03922
-5.03934
-5.03946
-5.03957
-5.16588
-5.16518
-5.16484
-5.16474
-5.16471
-5.16468
-5.16464
-5.1646
-5.16456
-5.16452
-5.16446
-5.16439
-5.16431
-5.16422
-5.16414
-5.16409
-5.16409
-5.16418
-5.16435
-5.16451
-5.16466
-5.16479
-5.16491
-5.29099
-5.29022
-5.28992
-5.28994
-5.28999
-5.28999
-5.28996
-5.28992
-5.28988
-5.28982
-5.28975
-5.28966
-5.28956
-5.28944
-5.28933
-5.28924
-5.28921
-5.28935
-5.2896
-5.28983
-5.29
-5.29014
-5.29025
-5.41614
-5.41532
-5.41512
-5.41528
-5.41541
-5.41543
-5.41539
-5.41533
-5.41526
-5.41518
-5.41507
-5.41495
-5.41481
-5.41465
-5.4145
-5.41435
-5.41423
-5.41443
-5.41488
-5.41519
-5.41538
-5.41551
-5.41561
-5.54123
-5.54061
-5.54081
-5.54103
-5.54112
-5.54107
-5.54095
-5.54081
-5.54066
-5.5405
-5.54033
-5.54013
-5.53992
-5.53969
-5.53947
-5.5392
-5.53878
-5.5391
-5.54013
-5.54062
-5.54082
-5.54092
-5.54099
-5.66572
-5.66865
-5.66804
-5.66751
-5.66716
-5.66686
-5.66659
-5.66634
-5.6661
-5.66587
-5.66563
-5.66538
-5.6651
-5.66477
-5.66433
-5.66357
-5.66245
-5.66295
-5.66525
-5.66601
-5.66624
-5.66633
-5.66637
196.74
197.735
199.45
201.434
77.4591
78.1945
79.5587
81.1336
10.1297
10.6248
11.3406
12.1784
-0.022515
0.127507
0.222898
0.260746
-0.484852
-0.463847
-0.435961
-0.422212
-0.809373
-0.807237
-0.828161
-0.818879
-1.1261
-1.13916
-1.134
-1.13274
-1.33125
-1.33252
-1.33191
-1.3394
-1.48739
-1.48646
-1.48782
-1.49382
-1.62258
-1.62292
-1.62419
-1.62739
-1.75489
-1.75524
-1.75623
-1.75804
-1.88541
-1.88573
-1.88642
-1.88752
-2.01499
-2.01518
-2.0156
-2.01625
-2.14357
-2.1437
-2.14395
-2.14432
-2.27121
-2.2713
-2.2715
-2.27178
-2.39835
-2.39844
-2.39861
-2.39884
-2.5252
-2.52528
-2.52543
-2.52562
-2.65183
-2.6519
-2.65202
-2.65218
-2.77828
-2.77834
-2.77844
-2.77857
-2.90457
-2.90461
-2.9047
-2.90481
-3.03071
-3.03075
-3.03082
-3.03092
-3.15674
-3.15677
-3.15684
-3.15692
-3.28266
-3.28269
-3.28275
-3.28283
-3.40849
-3.40852
-3.40857
-3.40865
-3.53423
-3.53426
-3.53432
-3.53439
-3.65991
-3.65994
-3.66
-3.66006
-3.78552
-3.78556
-3.78561
-3.78568
-3.91108
-3.91112
-3.91117
-3.91124
-4.03659
-4.03663
-4.03669
-4.03675
-4.16206
-4.1621
-4.16216
-4.16223
-4.2875
-4.28754
-4.2876
-4.28766
-4.4129
-4.41295
-4.41301
-4.41307
-4.53829
-4.53834
-4.53839
-4.53845
-4.66365
-4.6637
-4.66375
-4.66381
-4.78899
-4.78904
-4.7891
-4.78915
-4.91433
-4.91438
-4.91443
-4.91448
-5.03965
-5.0397
-5.03975
-5.0398
-5.16498
-5.16503
-5.16508
-5.16512
-5.29032
-5.29036
-5.2904
-5.29044
-5.41567
-5.4157
-5.41573
-5.41576
-5.54103
-5.54105
-5.54107
-5.54109
-5.6664
-5.6664
-5.66641
-5.66642
204.634
207.665
209.816
213.542
218.318
223.531
228.967
233.903
238.375
242.687
247.016
251.279
255.014
257.922
260.518
263.543
266.759
269.172
271.056
83.9494
89.1385
93.3592
97.9146
102.948
107.664
112.82
118.104
122.171
125.382
128.205
131.421
134.655
137.578
140.273
143.016
146.17
149.401
151.585
13.7878
16.8364
19.9038
22.1955
24.1256
25.9273
28.2124
30.8793
33.2293
35.1275
36.8037
38.5244
40.2692
41.9604
43.4967
44.6493
45.9175
47.5508
48.7869
0.211886
-0.181204
-0.293833
-0.285279
-0.166869
-0.0419707
-0.121471
-0.0758941
0.237022
0.652153
1.06773
1.45138
1.77081
2.10041
2.39146
2.54695
2.5596
2.19774
2.01306
-0.444031
-0.503923
-0.521076
-0.513207
-0.469426
-0.431335
-0.429948
-0.434438
-0.44655
-0.462829
-0.48465
-0.513232
-0.563563
-0.560513
-0.56212
-0.583947
-0.65307
-0.701837
-0.670531
-0.796583
-0.763291
-0.762014
-0.764049
-0.770352
-0.777101
-0.77851
-0.79375
-0.808228
-0.816696
-0.831581
-0.854571
-0.881714
-0.892637
-0.89656
-0.912016
-0.94076
-0.970783
-0.948903
-1.10286
-1.06702
-1.05872
-1.07
-1.11441
-1.14553
-1.15381
-1.16173
-1.17093
-1.17741
-1.18477
-1.19
-1.18794
-1.19773
-1.20345
-1.20497
-1.20353
-1.20921
-1.20889
-1.34944
-1.34866
-1.35125
-1.35933
-1.3752
-1.38735
-1.39162
-1.3943
-1.39825
-1.40157
-1.40185
-1.40164
-1.39973
-1.4032
-1.40864
-1.41042
-1.40779
-1.40032
-1.40397
-1.50919
-1.51512
-1.52123
-1.52337
-1.52224
-1.52081
-1.52404
-1.52648
-1.52777
-1.52926
-1.52957
-1.52993
-1.53032
-1.53247
-1.53612
-1.5402
-1.54545
-1.54136
-1.54361
-1.63467
-1.6398
-1.64444
-1.6475
-1.64759
-1.64752
-1.6492
-1.65117
-1.65279
-1.65356
-1.65341
-1.65488
-1.65694
-1.65952
-1.66149
-1.66301
-1.66497
-1.6639
-1.66587
-1.76201
-1.76599
-1.76966
-1.77221
-1.77302
-1.77358
-1.77525
-1.77707
-1.77873
-1.77962
-1.78051
-1.78338
-1.78654
-1.78783
-1.78697
-1.78614
-1.7868
-1.78707
-1.78874
-1.8898
-1.89278
-1.89565
-1.89791
-1.89931
-1.90058
-1.90259
-1.90447
-1.90622
-1.90817
-1.91082
-1.9135
-1.91505
-1.91421
-1.91208
-1.91171
-1.91218
-1.91249
-1.91369
-2.0176
-2.0198
-2.02211
-2.02423
-2.02626
-2.02822
-2.03018
-2.03205
-2.03381
-2.03665
-2.03979
-2.04148
-2.04126
-2.04046
-2.03958
-2.04034
-2.04142
-2.0417
-2.04184
-2.14515
-2.14681
-2.14868
-2.15063
-2.15275
-2.15502
-2.15691
-2.15847
-2.16008
-2.16264
-2.16523
-2.1665
-2.16694
-2.16763
-2.16865
-2.1698
-2.17062
-2.17116
-2.17116
-2.27238
-2.27366
-2.2752
-2.27688
-2.27873
-2.2807
-2.28247
-2.28396
-2.2856
-2.28769
-2.28978
-2.29132
-2.29258
-2.29432
-2.2963
-2.29727
-2.29736
-2.29798
-2.29799
-2.39931
-2.40033
-2.4016
-2.40303
-2.4046
-2.40626
-2.40785
-2.40937
-2.41098
-2.41282
-2.41467
-2.4163
-2.41785
-2.41973
-2.42157
-2.42237
-2.42278
-2.4238
-2.42336
-2.52599
-2.52682
-2.52788
-2.5291
-2.53046
-2.5319
-2.53335
-2.5348
-2.53633
-2.538
-2.53968
-2.54128
-2.54284
-2.54449
-2.54601
-2.54703
-2.54779
-2.54887
-2.54887
-2.65249
-2.65318
-2.65407
-2.65513
-2.65631
-2.65759
-2.65891
-2.66026
-2.66169
-2.6632
-2.66474
-2.66625
-2.66772
-2.66919
-2.67051
-2.67151
-2.67224
-2.67288
-2.67299
-2.77883
-2.77941
-2.78017
-2.78109
-2.78213
-2.78328
-2.78448
-2.78574
-2.78705
-2.78843
-2.78983
-2.79122
-2.79257
-2.79387
-2.795
-2.79585
-2.79636
-2.79654
-2.79597
-2.90503
-2.90553
-2.90619
-2.90699
-2.90792
-2.90894
-2.91004
-2.91119
-2.9124
-2.91366
-2.91494
-2.9162
-2.91743
-2.91857
-2.91955
-2.92025
-2.92059
-2.92058
-2.9198
-3.03112
-3.03155
-3.03213
-3.03284
-3.03367
-3.03459
-3.03558
-3.03664
-3.03774
-3.03889
-3.04005
-3.0412
-3.0423
-3.04331
-3.04417
-3.04478
-3.04507
-3.04504
-3.04446
-3.1571
-3.15748
-3.158
-3.15864
-3.15938
-3.16021
-3.16111
-3.16207
-3.16308
-3.16412
-3.16517
-3.16621
-3.16719
-3.16809
-3.16886
-3.16942
-3.16971
-3.16967
-3.16912
-3.28299
-3.28334
-3.2838
-3.28437
-3.28504
-3.28579
-3.28661
-3.28748
-3.2884
-3.28934
-3.29029
-3.29122
-3.2921
-3.29291
-3.2936
-3.29412
-3.29441
-3.29435
-3.29378
-3.4088
-3.40912
-3.40954
-3.41006
-3.41066
-3.41134
-3.41209
-3.41288
-3.41371
-3.41456
-3.41541
-3.41624
-3.41703
-3.41774
-3.41836
-3.41885
-3.41915
-3.41909
-3.4185
-3.53454
-3.53483
-3.53521
-3.53569
-3.53624
-3.53686
-3.53753
-3.53825
-3.539
-3.53976
-3.54052
-3.54126
-3.54196
-3.54258
-3.54312
-3.54356
-3.54386
-3.54381
-3.5434
-3.6602
-3.66048
-3.66084
-3.66127
-3.66177
-3.66233
-3.66294
-3.66359
-3.66427
-3.66495
-3.66563
-3.66628
-3.66688
-3.66742
-3.66786
-3.6682
-3.6684
-3.66825
-3.66789
-3.78581
-3.78607
-3.7864
-3.7868
-3.78726
-3.78777
-3.78833
-3.78891
-3.78952
-3.79013
-3.79073
-3.7913
-3.79181
-3.79225
-3.79257
-3.79276
-3.79274
-3.79237
-3.7917
-3.91137
-3.91162
-3.91192
-3.91229
-3.91271
-3.91318
-3.91368
-3.91421
-3.91475
-3.9153
-3.91583
-3.91632
-3.91675
-3.91709
-3.91729
-3.9173
-3.91703
-3.91643
-3.91556
-4.03688
-4.03711
-4.0374
-4.03774
-4.03813
-4.03855
-4.03901
-4.03948
-4.03997
-4.04046
-4.04093
-4.04135
-4.04171
-4.04197
-4.04207
-4.04194
-4.04147
-4.0407
-4.03958
-4.16235
-4.16257
-4.16284
-4.16315
-4.16351
-4.16389
-4.1643
-4.16474
-4.16518
-4.16561
-4.16603
-4.1664
-4.16671
-4.16691
-4.16695
-4.16676
-4.16623
-4.16544
-4.16429
-4.28779
-4.288
-4.28825
-4.28853
-4.28886
-4.28921
-4.28958
-4.28997
-4.29037
-4.29076
-4.29113
-4.29147
-4.29174
-4.29191
-4.29193
-4.29175
-4.29128
-4.29059
-4.28968
-4.41319
-4.41339
-4.41362
-4.41388
-4.41418
-4.4145
-4.41483
-4.41519
-4.41554
-4.4159
-4.41624
-4.41654
-4.41679
-4.41696
-4.41699
-4.41686
-4.41648
-4.41587
-4.41503
-4.53857
-4.53875
-4.53897
-4.53921
-4.53947
-4.53976
-4.54007
-4.54038
-4.54071
-4.54103
-4.54135
-4.54163
-4.54187
-4.54204
-4.5421
-4.54202
-4.54173
-4.54118
-4.54035
-4.66392
-4.6641
-4.66429
-4.66451
-4.66475
-4.66501
-4.66528
-4.66557
-4.66586
-4.66616
-4.66645
-4.66671
-4.66695
-4.66713
-4.66722
-4.6672
-4.667
-4.66651
-4.66573
-4.78926
-4.78942
-4.7896
-4.78979
-4.79
-4.79023
-4.79048
-4.79073
-4.791
-4.79127
-4.79153
-4.79179
-4.79202
-4.79222
-4.79234
-4.79237
-4.79222
-4.79174
-4.791
-4.91458
-4.91472
-4.91488
-4.91506
-4.91524
-4.91544
-4.91566
-4.91588
-4.91612
-4.91636
-4.91661
-4.91685
-4.91708
-4.91729
-4.91744
-4.9175
-4.91738
-4.91685
-4.91599
-5.03989
-5.04002
-5.04016
-5.04031
-5.04047
-5.04064
-5.04082
-5.04102
-5.04122
-5.04144
-5.04166
-5.04189
-5.04212
-5.04234
-5.04252
-5.04263
-5.04251
-5.04195
-5.04098
-5.1652
-5.16531
-5.16543
-5.16555
-5.16568
-5.16583
-5.16598
-5.16614
-5.16631
-5.1665
-5.16669
-5.1669
-5.16713
-5.16736
-5.16759
-5.16776
-5.16772
-5.16716
-5.16618
-5.2905
-5.29059
-5.29069
-5.29079
-5.29089
-5.291
-5.29112
-5.29125
-5.29139
-5.29154
-5.2917
-5.29189
-5.2921
-5.29234
-5.29263
-5.29291
-5.29301
-5.29251
-5.29161
-5.41581
-5.41588
-5.41594
-5.41602
-5.41609
-5.41617
-5.41626
-5.41635
-5.41645
-5.41656
-5.41668
-5.41683
-5.41701
-5.41725
-5.41758
-5.41805
-5.41842
-5.41802
-5.41735
-5.54111
-5.54116
-5.5412
-5.54124
-5.54129
-5.54133
-5.54139
-5.54144
-5.5415
-5.54157
-5.54164
-5.54174
-5.54186
-5.54206
-5.54247
-5.54335
-5.54417
-5.54382
-5.5437
-5.66643
-5.66645
-5.66646
-5.66648
-5.66649
-5.66651
-5.66652
-5.66654
-5.66655
-5.66657
-5.6666
-5.66663
-5.6667
-5.66686
-5.66741
-5.66953
-5.66997
-5.66939
-5.66988
)
;

boundaryField
{
    leftWall
    {
        type            calculated;
        value           nonuniform List<scalar> 
50
(
751.672
692.846
634.097
575.44
516.879
458.421
400.067
341.826
250.939
127.923
34.2026
0.218526
-0.188212
-0.59855
-0.960333
-1.32245
-1.56919
-1.69175
-1.81076
-1.93159
-2.05318
-2.1753
-2.29779
-2.42065
-2.54389
-2.66757
-2.79165
-2.91607
-3.04078
-3.16569
-3.29073
-3.41584
-3.54094
-3.66599
-3.79097
-3.91591
-4.04085
-4.16578
-4.29073
-4.4157
-4.54069
-4.6657
-4.79072
-4.91576
-5.04081
-5.16588
-5.29099
-5.41614
-5.54123
-5.66572
)
;
    }
    rightWall
    {
        type            calculated;
        value           nonuniform List<scalar> 
50
(
755.774
698.922
641.588
584.101
526.606
469.016
412.326
357.126
271.056
151.585
48.7869
2.01306
-0.670531
-0.948903
-1.20889
-1.40397
-1.54361
-1.66587
-1.78874
-1.91369
-2.04184
-2.17116
-2.29799
-2.42336
-2.54887
-2.67299
-2.79597
-2.9198
-3.04446
-3.16912
-3.29378
-3.4185
-3.5434
-3.66789
-3.7917
-3.91556
-4.03958
-4.16429
-4.28968
-4.41503
-4.54035
-4.66573
-4.791
-4.91599
-5.04098
-5.16618
-5.29161
-5.41735
-5.5437
-5.66988
)
;
    }
    lowerWall
    {
        type            calculated;
        value           nonuniform List<scalar> 
62
(
781.102
780.857
780.19
779.048
777.459
775.456
773.08
770.378
767.407
764.231
760.92
757.55
754.192
750.91
747.752
744.739
741.898
739.14
736.414
735.979
736.039
736.091
736.08
706.848
648.212
589.399
530.449
471.458
412.443
353.222
294.104
259.337
260.328
262.033
263.995
713.806
655.317
596.338
536.921
477.34
417.569
357.723
296.279
742.933
744.262
746.372
749.01
751.885
755.07
758.602
762.578
766.611
770.131
773.755
775.292
776.73
779.765
783.604
784.441
783.323
783.337
784.033
)
;
    }
    atmosphere
    {
        type            calculated;
        value           nonuniform List<scalar> 
46
(
-5.72912
-5.72906
-5.72904
-5.72904
-5.72904
-5.72904
-5.72904
-5.72904
-5.72904
-5.72904
-5.72904
-5.72904
-5.72904
-5.72904
-5.72904
-5.72904
-5.72904
-5.72904
-5.72904
-5.72905
-5.72906
-5.72906
-5.72907
-5.72908
-5.72908
-5.72909
-5.72909
-5.72909
-5.7291
-5.7291
-5.7291
-5.7291
-5.7291
-5.7291
-5.72909
-5.72909
-5.72908
-5.72907
-5.72907
-5.72906
-5.72905
-5.72904
-5.72904
-5.72926
-5.72904
-5.73507
)
;
    }
    defaultFaces
    {
        type            empty;
    }
}


// ************************************************************************* //
