/*--------------------------------*- C++ -*----------------------------------*\
  =========                 |
  \\      /  F ield         | OpenFOAM: The Open Source CFD Toolbox
   \\    /   O peration     | Website:  https://openfoam.org
    \\  /    A nd           | Version:  9
     \\/     M anipulation  |
\*---------------------------------------------------------------------------*/
FoamFile
{
    format      ascii;
    class       volScalarField;
    location    "2.44";
    object      nut;
}
// * * * * * * * * * * * * * * * * * * * * * * * * * * * * * * * * * * * * * //

dimensions      [0 2 -1 0 0 0 0];

internalField   nonuniform List<scalar> 
2268
(
3.43127e-05
4.29788e-05
5.26417e-05
5.91908e-05
6.41128e-05
6.79837e-05
7.10933e-05
7.3621e-05
7.56965e-05
7.74166e-05
7.88448e-05
8.00069e-05
8.08969e-05
8.14917e-05
8.18265e-05
8.1803e-05
8.11083e-05
7.9331e-05
7.72983e-05
7.47787e-05
6.98699e-05
5.87777e-05
3.40258e-05
8.14188e-05
0.000368497
0.000490194
0.00056669
0.000621736
0.000663354
0.00069524
0.000719727
0.000738665
0.000753568
0.000765495
0.000774978
0.000782193
0.000787163
0.000788405
0.000784085
0.000773436
0.000754283
0.000724661
0.000675912
0.000593376
0.000444443
0.000114469
9.88391e-05
0.000647047
0.000933796
0.0011113
0.00123618
0.00132822
0.00139671
0.00144747
0.001485
0.00151287
0.0015335
0.00154813
0.00155704
0.00155989
0.00155438
0.0015371
0.00150426
0.00144957
0.00136547
0.00123365
0.00102551
0.000697915
0.000135154
0.000111995
0.000845307
0.0012904
0.00157088
0.00176752
0.00191092
0.00201601
0.00209233
0.00214712
0.00218601
0.0022128
0.00222943
0.00223627
0.00223246
0.00221493
0.00217875
0.00211704
0.0020193
0.00187134
0.00164767
0.00131426
0.000838
0.000150768
0.000122689
0.000992736
0.00157647
0.0019535
0.00221902
0.00241194
0.00255217
0.00265273
0.00272347
0.00277197
0.00280334
0.00282018
0.00282299
0.00281047
0.00277881
0.00272172
0.00262976
0.00248882
0.00227884
0.00196849
0.00152079
0.000917292
0.000165327
0.000131924
0.00110829
0.00181015
0.00227463
0.00260413
0.00284343
0.00301655
0.00313964
0.00322495
0.00328185
0.0033167
0.0033328
0.00333082
0.00330918
0.00326355
0.00318664
0.00306718
0.00288835
0.00262566
0.00224224
0.00169439
0.000970721
0.000183844
0.000140272
0.00120298
0.00200513
0.00254774
0.00293566
0.00321757
0.00342085
0.00356442
0.00366277
0.00372692
0.00376442
0.00377934
0.00377263
0.00374261
0.00368477
0.00359132
0.00344995
0.00324244
0.00294184
0.0025066
0.00188045
0.0010393
0.000212229
0.000148093
0.00128312
0.00217118
0.00278351
0.00322443
0.00354497
0.0037754
0.00393721
0.00404692
0.00411716
0.00415666
0.00417029
0.00415944
0.00412255
0.00405529
0.00394993
0.00379389
0.00356906
0.00324874
0.00279057
0.00212759
0.00119329
0.000254049
3.13104e-05
5.57156e-05
6.43663e-05
6.78032e-05
6.88381e-05
6.85961e-05
6.65368e-05
6.20413e-05
5.72201e-05
5.52462e-05
5.61675e-05
5.63926e-05
5.48556e-05
5.46471e-05
5.52137e-05
5.33276e-05
4.73376e-05
3.87685e-05
3.92396e-05
0.000119738
0.000419594
0.000552875
0.000604605
0.000618207
0.000612979
0.000586743
0.000504399
0.000456897
0.000479132
0.000527025
0.000544426
0.000518517
0.000517721
0.000514793
0.000482578
0.000406596
0.000283204
9.08131e-05
0.000143731
0.000685898
0.0010042
0.00114257
0.00118644
0.00118338
0.00113726
0.00101623
0.00093743
0.000964164
0.00103349
0.0010619
0.00103026
0.00101518
0.000989268
0.000908126
0.000742441
0.000489651
0.000103886
0.000165035
0.000882719
0.00136321
0.00158737
0.00166781
0.00167563
0.00162555
0.00149829
0.0014084
0.00142582
0.00148943
0.00151461
0.0014797
0.00144425
0.00138574
0.00125405
0.00101029
0.000643528
0.000112515
0.000187269
0.00106791
0.0016811
0.00197485
0.00208803
0.00211013
0.0020665
0.00194912
0.0018593
0.00186116
0.00190473
0.00191603
0.0018728
0.00181463
0.00172148
0.00154252
0.00123217
0.000765438
0.000118806
0.00021295
0.0012673
0.00198958
0.002332
0.00246909
0.00250465
0.00247215
0.00237119
0.00228631
0.00227032
0.00228757
0.00227845
0.00222138
0.00213974
0.00201377
0.00179237
0.00142411
0.000868399
0.000123151
0.000245499
0.00149323
0.00230485
0.00267372
0.0028243
0.00287007
0.00284922
0.00276564
0.00268638
0.00265306
0.00264256
0.00260964
0.00253492
0.00242996
0.0022748
0.0020166
0.00159713
0.000957874
0.000127683
0.000291254
0.00177263
0.00263457
0.00300625
0.00316043
0.00321231
0.00320113
0.0031327
0.0030576
0.00300895
0.00297206
0.00291443
0.00282014
0.00269256
0.00251095
0.00222249
0.00176216
0.00104507
0.000134134
0.000159927
0.00139241
0.00239681
0.0031068
0.00362282
0.00399785
0.00426615
0.00445303
0.00457802
0.00465609
0.00469786
0.00470966
0.0046938
0.00464912
0.00457165
0.00445404
0.00428506
0.00404892
0.00372326
0.00327453
0.00265432
0.00182685
0.000896707
0.00017401
0.00150466
0.00263001
0.00345087
0.00405195
0.00448524
0.0047911
0.00500079
0.00513827
0.00522192
0.0052652
0.00527687
0.00526084
0.00521664
0.00514142
0.00502996
0.00487518
0.00466766
0.00439709
0.00405315
0.00362497
0.00311365
0.00257044
0.000190022
0.00158768
0.00281774
0.00374478
0.00442365
0.00490272
0.00523231
0.00545246
0.00559305
0.00567622
0.00571849
0.00573147
0.00572056
0.00568458
0.00562121
0.00552883
0.00540399
0.00524065
0.00503532
0.00479272
0.00452058
0.00422932
0.00396063
0.00021678
0.00164493
0.00297322
0.004014
0.00477473
0.00528953
0.00562529
0.00583963
0.00597179
0.00604798
0.00608745
0.00610448
0.00610442
0.00608135
0.00603205
0.0059621
0.00587021
0.00574828
0.00559362
0.00542368
0.00525718
0.00509163
0.00495319
0.000240022
0.00175065
0.00314645
0.00427019
0.00510748
0.00562344
0.00593406
0.00614068
0.00626714
0.00633634
0.00637452
0.00640123
0.0064231
0.00642001
0.00638429
0.00633373
0.00626704
0.00617378
0.00605208
0.00592989
0.0058398
0.00572402
0.00565956
0.000252875
0.00186362
0.00331233
0.0044207
0.00522351
0.00575044
0.00610571
0.00633926
0.00647824
0.00655391
0.00659506
0.00662857
0.00666413
0.00667747
0.00666174
0.00663466
0.00658487
0.00650008
0.00639276
0.00629271
0.00619281
0.00611604
0.00611168
0.000253968
0.00185593
0.00333729
0.00443806
0.00523658
0.00580684
0.00621579
0.00648397
0.00663869
0.00672269
0.00676871
0.00680613
0.00684491
0.00686443
0.0068638
0.00686023
0.00682387
0.00674384
0.00665703
0.00658297
0.00650849
0.00645504
0.00644638
0.000240119
0.00153834
0.00315355
0.00430899
0.00517136
0.00581
0.00627567
0.00658278
0.00675371
0.00684499
0.00689547
0.00693492
0.00698187
0.00700315
0.00699823
0.00699767
0.00696801
0.00691209
0.00685842
0.00682623
0.00678637
0.00673812
0.00671082
0.000221315
0.00116472
0.00278094
0.00409046
0.00505938
0.00577912
0.00629216
0.00662423
0.00681957
0.00692466
0.00697835
0.00701541
0.00705605
0.00707627
0.00707793
0.00708213
0.00706721
0.007035
0.00700176
0.00697705
0.00694885
0.00692588
0.00689389
0.00020331
0.00116611
0.00267668
0.00397355
0.00499386
0.00574843
0.0062745
0.00661796
0.00683341
0.00695675
0.0070208
0.00705917
0.00709176
0.0071142
0.00713113
0.00714756
0.00714808
0.00713061
0.00710536
0.00707993
0.00705278
0.00702456
0.00698383
0.000211125
0.00149255
0.00284897
0.00403466
0.00499805
0.00572272
0.00624005
0.00658876
0.00681379
0.00695027
0.00702828
0.00707543
0.00711069
0.00713999
0.0071675
0.00719435
0.00720858
0.00720492
0.00718795
0.00716385
0.007135
0.00710195
0.00707054
0.00023497
0.00169769
0.00301219
0.00410548
0.00499935
0.00568939
0.0061937
0.00654306
0.0067748
0.00692209
0.00701307
0.00707157
0.00711497
0.00715255
0.00718838
0.00722242
0.00724735
0.00725825
0.00725541
0.00724153
0.0072201
0.00719694
0.00717934
0.000239406
0.00176223
0.00309606
0.00414339
0.00498587
0.00564362
0.00613372
0.00648212
0.00672042
0.00687857
0.00698232
0.0070529
0.0071063
0.00715254
0.00719584
0.00723654
0.00727068
0.00729457
0.007307
0.00730891
0.00730325
0.00729526
0.0072898
0.000236176
0.00175115
0.00310235
0.00413364
0.00494497
0.00557818
0.0060567
0.00640522
0.00665128
0.00682134
0.00693847
0.00702177
0.00708604
0.00714133
0.00719234
0.00724009
0.00728305
0.00731882
0.00734589
0.00736432
0.00737582
0.00738347
0.00738964
0.000229603
0.00170078
0.00305097
0.00407486
0.00486874
0.00548663
0.00595876
0.00631034
0.00656625
0.00674983
0.00688157
0.00697871
0.00705501
0.00712036
0.00718011
0.00723581
0.00728781
0.00733476
0.00737535
0.00740906
0.0074364
0.00745854
0.00747599
0.00022135
0.00163028
0.00295845
0.00397229
0.00475568
0.00536595
0.00583736
0.00619567
0.00646392
0.00666294
0.00681096
0.0069236
0.00701365
0.00709073
0.00716078
0.00722581
0.00728749
0.00734533
0.00739834
0.00744569
0.00748698
0.00752201
0.00755015
0.000211989
0.00154882
0.00283647
0.00383355
0.00460882
0.0052167
0.0056922
0.00606061
0.0063436
0.00656009
0.00672615
0.00685624
0.00696218
0.00705316
0.00713537
0.00721151
0.00728386
0.00735274
0.0074174
0.00747694
0.00753041
0.00757678
0.00761469
0.000201628
0.0014589
0.00269254
0.00366652
0.0044337
0.00504214
0.00552534
0.00590622
0.00620558
0.00644089
0.00662696
0.00677667
0.00690087
0.00700823
0.00710492
0.00719418
0.00727842
0.00735859
0.00743445
0.00750513
0.00756946
0.00762579
0.00767243
0.000190749
0.00135202
0.00253004
0.00347899
0.00423744
0.0048471
0.0053383
0.00573343
0.00605114
0.00630716
0.00651494
0.00668613
0.00683068
0.00695668
0.00707011
0.00717445
0.00727215
0.00736453
0.00745167
0.00753282
0.00760672
0.00767173
0.00772601
0.000180657
0.00123385
0.00235332
0.00327556
0.0040252
0.00463686
0.00513752
0.00554786
0.00588476
0.00616241
0.00639298
0.00658702
0.00675357
0.00690008
0.00703219
0.00715336
0.00726599
0.00737156
0.00747036
0.00756182
0.00764474
0.00771755
0.00777843
0.000171113
0.00113221
0.00218527
0.00307481
0.00381166
0.00442301
0.00493191
0.0053567
0.0057124
0.00601167
0.00626539
0.00648302
0.00667267
0.00684105
0.00699331
0.00713271
0.00726148
0.00738111
0.00749202
0.0075938
0.00768541
0.00776544
0.00783223
0.000162312
0.00105372
0.00203981
0.00289074
0.00360938
0.0042164
0.00473071
0.00516794
0.00554107
0.00586117
0.00613776
0.00637913
0.00659236
0.00678337
0.00695665
0.00711516
0.00726084
0.0073951
0.00751841
0.00763049
0.00773053
0.00781734
0.0078895
0.000154431
0.000995684
0.00192048
0.00273052
0.0034269
0.00402577
0.00454235
0.00498957
0.00537834
0.00571801
0.00601667
0.00628134
0.00651804
0.00673174
0.00692625
0.00710407
0.00726686
0.00741582
0.00755145
0.0076736
0.0077817
0.00787482
0.00795184
0.000147471
0.000952011
0.00182456
0.00259572
0.00326872
0.00385727
0.00437387
0.00482906
0.00523177
0.00558962
0.00590921
0.00619626
0.00645564
0.00669137
0.00690652
0.0071031
0.00728243
0.00744554
0.00759291
0.00772455
0.00784009
0.00793891
0.0080202
0.000141282
0.000917376
0.0017476
0.0024851
0.00313663
0.00371504
0.00423098
0.0046931
0.00510851
0.00548322
0.00582236
0.00613036
0.00641096
0.00666726
0.0069016
0.00711552
0.00731004
0.00748604
0.007644
0.00778407
0.00790613
0.00800984
0.00809469
0.000135676
0.000888826
0.00168631
0.00239722
0.00303162
0.00360221
0.00411845
0.00458747
0.00501486
0.00540516
0.00576217
0.00608913
0.00638876
0.00666331
0.00691452
0.00714353
0.00735113
0.00753809
0.00770493
0.00785195
0.00797926
0.0080868
0.00817436
0.000130531
0.000865729
0.00163974
0.00233205
0.00295515
0.00352171
0.00404031
0.00451687
0.00495572
0.00536017
0.00573289
0.00607614
0.00639183
0.00668155
0.00694654
0.00718767
0.00740559
0.00760102
0.00777457
0.0079267
0.00805774
0.00816788
0.00825717
0.00012584
0.000849145
0.00160915
0.00229129
0.00290953
0.00347636
0.00399962
0.00448431
0.00493377
0.00535039
0.00573604
0.00609226
0.00642037
0.00672152
0.00699665
0.00724647
0.00747154
0.00767263
0.00785046
0.00800564
0.00813871
0.00825009
0.00834009
0.000121733
0.000840979
0.0015971
0.00227751
0.00289701
0.00346789
0.00399748
0.00449013
0.00494859
0.00537471
0.00576987
0.0061352
0.0064717
0.00678026
0.00706166
0.00731656
0.00754551
0.00774937
0.00792896
0.00808508
0.00821846
0.00832973
0.00841938
0.000118428
0.000842855
0.00160563
0.00229213
0.00291789
0.00349532
0.00403164
0.00453103
0.00499607
0.00542843
0.00582934
0.0061998
0.00654065
0.0068527
0.00713667
0.00739323
0.00762298
0.00782686
0.00800583
0.00816088
0.00829292
0.00840278
0.00849112
0.000116157
0.000854915
0.00163418
0.00233322
0.00296859
0.00355352
0.00409575
0.00459984
0.0050686
0.00550386
0.00590695
0.00627889
0.00662055
0.00693269
0.00721603
0.00747127
0.00769911
0.00790058
0.00807684
0.00822902
0.00835826
0.00846555
0.00855173
0.000115055
0.000875227
0.0016784
0.00239433
0.00304097
0.00363319
0.0041799
0.0046865
0.00515636
0.00559172
0.00599414
0.00636475
0.00670448
0.00701408
0.00729429
0.00754585
0.00776957
0.00796664
0.0081384
0.00828624
0.00841147
0.00851527
0.00859859
0.000115103
0.000900433
0.00173101
0.00246567
0.00312392
0.00372273
0.00427264
0.00478013
0.00524935
0.005683
0.00608294
0.00645044
0.00678647
0.00709177
0.00736709
0.00761322
0.00783113
0.00802223
0.00818815
0.00833053
0.0084509
0.00855055
0.00863055
0.000116138
0.00092716
0.00178433
0.00253712
0.00320639
0.00381117
0.0043636
0.00487132
0.00533921
0.00577047
0.0061672
0.00653081
0.00686226
0.00716228
0.00743158
0.00767106
0.00788194
0.00806597
0.00822517
0.00836149
0.00847659
0.00857184
0.00864835
0.000117912
0.000953003
0.00183267
0.0026011
0.00328019
0.00389051
0.00444547
0.00495359
0.00542039
0.00584946
0.00624311
0.00660282
0.00692949
0.00722378
0.0074864
0.00771842
0.00792146
0.00809785
0.00825012
0.00838045
0.0084905
0.00858158
0.00865473
0.000120147
0.000976516
0.00187303
0.00265361
0.003341
0.00395658
0.00451443
0.00502364
0.00549012
0.00591775
0.00630896
0.00666522
0.0069873
0.00727575
0.00753126
0.00775527
0.0079501
0.00811899
0.00826508
0.00839054
0.00849663
0.00858431
0.00865454
0.000122565
0.000996668
0.00190436
0.00269354
0.00338772
0.00400832
0.00456954
0.00508065
0.00554777
0.00597489
0.00636449
0.00671792
0.00703574
0.00731829
0.00756633
0.00778195
0.00796879
0.00813146
0.00827365
0.00839684
0.00850107
0.00858662
0.00865444
0.000124904
0.00101237
0.00192639
0.00272135
0.00342111
0.00404657
0.00461157
0.00512529
0.00559386
0.00602132
0.00641007
0.00676125
0.00707506
0.00735153
0.00759165
0.00779878
0.00797888
0.00813858
0.00828156
0.00840698
0.00851233
0.00859703
0.00866257
0.00012692
0.0010223
0.00193906
0.00273808
0.00344276
0.00407298
0.004642
0.00515875
0.00562932
0.00605771
0.00644617
0.00679548
0.00710533
0.00737538
0.00760716
0.00780635
0.00798289
0.00814628
0.00829853
0.00843263
0.00854182
0.00862573
0.0086878
0.000128387
0.00102495
0.00194247
0.0027452
0.00345466
0.00408953
0.00466249
0.00518231
0.00565502
0.00608456
0.00647299
0.00682064
0.00712655
0.00738998
0.0076135
0.00780663
0.00798571
0.00816498
0.00834207
0.00849207
0.00860446
0.0086839
0.00873872
0.000129189
0.0010188
0.00193808
0.00274531
0.00345942
0.00409838
0.0046747
0.0051971
0.00567163
0.00610218
0.00649063
0.00683683
0.00713918
0.00739662
0.0076132
0.00780346
0.00799315
0.00820772
0.00844584
0.0086138
0.00871785
0.00878182
0.00882195
0.000129185
0.00101513
0.00193389
0.00274354
0.00346044
0.00410186
0.00468017
0.00520408
0.00567966
0.0061108
0.00649923
0.0068445
0.00714457
0.00739824
0.0076107
0.00780072
0.00800408
0.00827176
0.00869145
0.00883844
0.00889644
0.00892436
0.00893981
0.000269101
0.000261622
0.000265847
0.000282333
0.0021998
0.00213379
0.0021492
0.00226787
0.0038303
0.00379544
0.00380741
0.00387274
0.00490601
0.00488788
0.00487795
0.00487915
0.00563713
0.0056153
0.00558879
0.00555763
0.00608698
0.00606748
0.00603996
0.00600311
0.00641631
0.00639865
0.00637635
0.00634044
0.00666523
0.00664078
0.00661263
0.00657253
0.00683802
0.00680563
0.00677511
0.00675039
0.00694662
0.0069283
0.00691431
0.00690413
0.00705506
0.0070491
0.00704446
0.00703998
0.007174
0.00717232
0.00717045
0.00716751
0.00728967
0.0072899
0.00728918
0.00728683
0.00739424
0.0073965
0.00739726
0.00739598
0.00748583
0.00749072
0.00749363
0.00749413
0.00756553
0.0075734
0.00757891
0.00758167
0.0076355
0.00764644
0.00765468
0.00765991
0.00769831
0.00771217
0.00772308
0.00773074
0.00775653
0.00777313
0.00778654
0.00779648
0.00781296
0.00783203
0.00784768
0.00785968
0.0078703
0.00789152
0.00790913
0.00792292
0.00793069
0.00795378
0.00797306
0.00798835
0.00799576
0.00802045
0.00804112
0.00805766
0.00806646
0.00809246
0.00811428
0.00813181
0.00814283
0.00816988
0.00819257
0.00821085
0.00822388
0.00825167
0.00827498
0.00829376
0.00830754
0.00833575
0.0083594
0.00837846
0.00839074
0.00841906
0.00844278
0.00846191
0.00846977
0.00849789
0.00852145
0.00854045
0.00854073
0.00856839
0.00859155
0.00861027
0.00860012
0.00862708
0.00864968
0.00866798
0.00864542
0.0086715
0.00869341
0.00871119
0.0086756
0.00870069
0.00872182
0.00873904
0.00869152
0.00871558
0.00873589
0.00875252
0.00869606
0.0087191
0.00873861
0.00875464
0.00869413
0.00871618
0.00873487
0.00875028
0.00869232
0.00871334
0.00873112
0.00874579
0.00869841
0.00871813
0.0087347
0.00874833
0.00872054
0.0087383
0.00875305
0.00876507
0.0087662
0.00878079
0.00879272
0.00880232
0.00884085
0.00885065
0.00885851
0.00886475
0.00894664
0.0089501
0.00895284
0.00895499
0.00142009
0.00252873
0.00318371
0.00351013
0.00365877
0.0037152
0.00371419
0.00366577
0.0035938
0.00352416
0.00345002
0.00335521
0.00322942
0.00306788
0.00284863
0.00252069
0.00201081
0.00119669
0.000147014
0.00288592
0.00352189
0.0039277
0.00415569
0.00426891
0.00431112
0.00430564
0.00426362
0.0041924
0.00409968
0.0039875
0.00385088
0.00368533
0.00348406
0.00322356
0.0028533
0.00228773
0.00139004
0.000170143
0.00406741
0.00435813
0.00458259
0.00472671
0.00480066
0.00481949
0.00479878
0.00474874
0.0046708
0.00456324
0.00442551
0.00425626
0.00405682
0.00381739
0.00351425
0.00310004
0.00248295
0.00149796
0.000189984
0.00490858
0.00501357
0.0051246
0.00521092
0.00525274
0.00524509
0.00520259
0.00513714
0.00504535
0.00491987
0.00475959
0.00456691
0.00433768
0.0040611
0.00371625
0.00325916
0.00260359
0.00156313
0.000203894
0.00550653
0.0055117
0.00555764
0.00559989
0.00561279
0.00558287
0.00552031
0.00543675
0.00532607
0.00518065
0.00499635
0.0047779
0.00452018
0.00420884
0.00382821
0.00333712
0.00265645
0.00159265
0.000219899
0.00593934
0.00591227
0.0059186
0.00591887
0.00589685
0.00584292
0.00576431
0.00566441
0.0055322
0.00536204
0.00515139
0.00490281
0.00461085
0.00426288
0.00384069
0.00330793
0.0025953
0.00153621
0.000220254
0.0062692
0.00623391
0.00621678
0.00618813
0.00613646
0.00605696
0.00595752
0.00583722
0.0056815
0.00548343
0.00524187
0.00495778
0.00462469
0.00422938
0.00375016
0.00315665
0.00241567
0.00139143
0.000207866
0.00651652
0.00648473
0.00645467
0.00640763
0.00633357
0.00623202
0.00611103
0.00596403
0.00578002
0.00554958
0.00527248
0.00494951
0.00457439
0.00413446
0.00360577
0.0029514
0.00215279
0.00115566
0.000195857
0.00672041
0.00669096
0.00665023
0.00658788
0.00649523
0.00637356
0.0062286
0.00605394
0.00583905
0.00557455
0.00525949
0.00489501
0.00447893
0.00400694
0.00346224
0.0028039
0.00200452
0.00106344
0.000185482
0.00688739
0.00685738
0.0068094
0.00673584
0.00663032
0.00649276
0.00632521
0.00612276
0.00587654
0.00557803
0.00522441
0.00481663
0.00435768
0.00385286
0.00329827
0.00266939
0.00194367
0.00108893
0.000177994
0.00702759
0.00699644
0.00694464
0.00686464
0.00675097
0.00660165
0.00641573
0.00618892
0.00591393
0.00558315
0.00519232
0.00474128
0.00423387
0.00368078
0.00309339
0.00247095
0.00180197
0.00103153
0.000171282
0.00715622
0.00712367
0.00706892
0.00698472
0.00686553
0.00670778
0.00650849
0.0062631
0.00596514
0.00560765
0.00518551
0.00469644
0.00414149
0.00353024
0.00288107
0.00221801
0.0015627
0.000881009
0.000161168
0.00727634
0.00724327
0.00718681
0.00710013
0.00697761
0.00681466
0.00660705
0.00634979
0.00603674
0.00566132
0.00521777
0.00470169
0.00411093
0.00344932
0.00273452
0.00200434
0.00131867
0.000712396
0.000148582
0.00738735
0.00735543
0.00729894
0.00721167
0.00708805
0.00692309
0.00671194
0.00644939
0.00612955
0.00574619
0.00529327
0.00476523
0.00415752
0.00346982
0.00271473
0.00193312
0.00120792
0.000615969
0.000133873
0.00748853
0.00745945
0.00740468
0.00731865
0.0071961
0.00703204
0.00682152
0.00655939
0.00624011
0.00585797
0.00540723
0.00488226
0.00427791
0.00359188
0.00283194
0.00203231
0.00127186
0.000630861
0.000124618
0.00757991
0.00755492
0.00750325
0.00742
0.00730034
0.00713956
0.0069329
0.00667552
0.00636238
0.00598839
0.0055485
0.00503771
0.0044513
0.0037863
0.00304563
0.00224806
0.00144306
0.000704317
0.00013254
0.0076623
0.00764206
0.00759439
0.00751499
0.00739953
0.00724367
0.00704306
0.00679325
0.00648975
0.00612811
0.00570395
0.00521299
0.00465103
0.00401458
0.00330228
0.0025176
0.00167451
0.000823266
0.000143479
0.00773723
0.00772189
0.00767862
0.00760364
0.0074931
0.00734312
0.00714973
0.00690893
0.00661671
0.00626912
0.00586223
0.00539206
0.00485435
0.0042444
0.00355673
0.00278405
0.00191757
0.00097285
0.000152932
0.00780677
0.00779609
0.0077572
0.00768678
0.00758141
0.00743761
0.00725181
0.0070204
0.00673971
0.00640605
0.00601565
0.00556433
0.00504702
0.00445698
0.00378436
0.00301393
0.00212423
0.00110594
0.000160099
0.00787326
0.00786677
0.00783199
0.00776595
0.0076656
0.00752782
0.0073494
0.007127
0.00685715
0.00653624
0.00616031
0.0057246
0.00522273
0.00464551
0.0039789
0.00320129
0.0022822
0.00119956
0.000165215
0.00793927
0.00793625
0.00790506
0.00784302
0.00774731
0.00761507
0.00744343
0.00722922
0.00696902
0.0066591
0.00629512
0.00587148
0.0053803
0.00480997
0.00414308
0.00335385
0.00240771
0.00127874
0.000169229
0.00800698
0.00800681
0.00797855
0.00791984
0.00782817
0.00770092
0.0075353
0.00732823
0.00707625
0.00677536
0.00642069
0.00600578
0.00552107
0.00495292
0.00428137
0.00347826
0.00250804
0.0013449
0.000172855
0.00807814
0.00808025
0.00805433
0.00799831
0.00790996
0.00778682
0.00762622
0.00742506
0.00717979
0.00688608
0.00653844
0.00612938
0.0056482
0.00507949
0.00440131
0.00358341
0.00258806
0.0013869
0.000175964
0.00815375
0.00815763
0.00813354
0.00807968
0.00799402
0.00787427
0.00771779
0.00752146
0.00728154
0.00699335
0.00665075
0.00624539
0.00576546
0.00519422
0.00450813
0.00367528
0.00265592
0.00142004
0.000178141
0.00823388
0.00823909
0.00821643
0.0081643
0.00808087
0.00796395
0.00781091
0.00761855
0.0073829
0.00709889
0.00675981
0.00635649
0.00587618
0.00530102
0.00460624
0.00375852
0.00271643
0.00144873
0.000179564
0.00831753
0.00832371
0.00830217
0.00825153
0.00817006
0.00805564
0.00790562
0.00771668
0.00748459
0.00720387
0.00686726
0.00646486
0.00598308
0.00540311
0.00469915
0.00383666
0.00277271
0.00147491
0.000180533
0.00840264
0.00840951
0.00838893
0.00833967
0.00826011
0.00814814
0.00800105
0.00781535
0.00758654
0.00730872
0.00697409
0.00657207
0.00608829
0.00550309
0.00478974
0.00391257
0.00282717
0.00149987
0.000181464
0.00848621
0.00849358
0.00847392
0.00842613
0.00834865
0.00823935
0.00809543
0.00791322
0.0076879
0.00741316
0.00708062
0.00667908
0.00619338
0.00560303
0.00488037
0.00398862
0.00288182
0.00152485
0.000182444
0.00856463
0.00857239
0.00855374
0.00850767
0.00843264
0.00832651
0.00818635
0.00800826
0.00778714
0.00751621
0.00718654
0.00678623
0.00629934
0.00570448
0.00497297
0.00406678
0.00293832
0.00155089
0.000183418
0.00863415
0.00864226
0.0086248
0.00858082
0.00850879
0.00840653
0.00827098
0.00809804
0.00788225
0.00761642
0.007291
0.00689336
0.00640669
0.00580857
0.0050691
0.00414877
0.0029981
0.0015787
0.000184361
0.00869142
0.00869991
0.00868388
0.00864242
0.00857403
0.00847648
0.00834659
0.00818007
0.00797115
0.00771214
0.0073929
0.007
0.00651562
0.00591613
0.00517012
0.00423623
0.00306278
0.00160965
0.000185035
0.00873409
0.00874304
0.00872868
0.0086902
0.0086261
0.00853415
0.00841109
0.00825243
0.00805211
0.007802
0.00749131
0.00710574
0.00662632
0.00602797
0.00527742
0.00433103
0.00313442
0.00164565
0.000185473
0.00876136
0.00877082
0.00875838
0.00872327
0.0086641
0.00857862
0.00846354
0.00831425
0.00812442
0.00788551
0.00758606
0.00721082
0.00673952
0.00614533
0.00539275
0.00443528
0.00321503
0.00168704
0.00018694
0.00877424
0.00878429
0.00877393
0.00874256
0.00868885
0.00861064
0.00850467
0.00836625
0.00818888
0.00796363
0.0076784
0.00731688
0.0068573
0.00627068
0.0055188
0.00455161
0.00330665
0.00173417
0.000190214
0.00877576
0.00878639
0.00877824
0.00875084
0.00870305
0.00863284
0.00853704
0.008411
0.00824814
0.00803923
0.00777155
0.00742769
0.00698402
0.00640892
0.00566052
0.00468438
0.00341272
0.00179021
0.000195016
0.00877072
0.00878185
0.0087759
0.00875263
0.00871113
0.00864957
0.00856497
0.00845284
0.00830665
0.00811707
0.00787087
0.00754949
0.00712716
0.0065687
0.00582718
0.00484196
0.00353927
0.00185916
0.000201376
0.00876532
0.00877669
0.0087728
0.00875371
0.00871878
0.00866644
0.00859402
0.00849734
0.00837016
0.00820327
0.00798327
0.00769063
0.00729726
0.00676338
0.00603454
0.00504013
0.00369755
0.00194498
0.000209745
0.00876648
0.00877757
0.00877545
0.00876048
0.00873228
0.00868964
0.00863028
0.00855051
0.00844467
0.00830413
0.00811585
0.00786
0.00750652
0.00701037
0.00630631
0.00530648
0.00390981
0.00205276
0.000221494
0.00878101
0.00879107
0.00879028
0.00877924
0.00875783
0.00872518
0.00867951
0.00861782
0.00853536
0.00842466
0.00827395
0.00806441
0.0077656
0.00732812
0.00667346
0.00568503
0.00421952
0.00220002
0.000236564
0.00881494
0.00882304
0.00882304
0.00881563
0.00880088
0.00877823
0.00874647
0.00870344
0.00864561
0.00856731
0.00845919
0.00830549
0.00807877
0.0077299
0.00716975
0.00624174
0.0047093
0.00240961
0.000255638
0.00887287
0.00887811
0.00887838
0.00887423
0.0088658
0.00885282
0.0088346
0.0088099
0.00877666
0.00873144
0.00866841
0.00857725
0.00843856
0.00821354
0.00781905
0.00706859
0.00555688
0.00270862
0.000278152
0.00895777
0.00895956
0.00895971
0.00895843
0.00895579
0.00895171
0.00894601
0.0089383
0.00892795
0.00891392
0.00889436
0.00886591
0.00882191
0.00874742
0.00860301
0.00826089
0.00720832
0.00307893
0.000300228
)
;

boundaryField
{
    leftWall
    {
        type            nutkWallFunction;
        Cmu             0.09;
        kappa           0.41;
        E               9.8;
        value           nonuniform List<scalar> 
50
(
6.47564e-06
9.74732e-06
1.17201e-05
1.31852e-05
1.4363e-05
1.53718e-05
1.62778e-05
1.71217e-05
1.83903e-05
1.99001e-05
2.16505e-05
2.63511e-05
2.92198e-05
3.07719e-05
3.07972e-05
2.8991e-05
2.6723e-05
2.43762e-05
2.35337e-05
2.49779e-05
2.55191e-05
2.50219e-05
2.40686e-05
2.28805e-05
2.15306e-05
2.00305e-05
1.84645e-05
1.70016e-05
1.56136e-05
1.43298e-05
1.3175e-05
1.21485e-05
1.12282e-05
1.03872e-05
9.60871e-06
8.89424e-06
8.26546e-06
7.7586e-06
7.41109e-06
7.24519e-06
7.25817e-06
7.42431e-06
7.70436e-06
8.05458e-06
8.4318e-06
8.79545e-06
9.10822e-06
9.33627e-06
9.46198e-06
9.46363e-06
)
;
    }
    rightWall
    {
        type            nutkWallFunction;
        Cmu             0.09;
        kappa           0.41;
        E               9.8;
        value           nonuniform List<scalar> 
50
(
7.96432e-06
1.08601e-05
1.23305e-05
1.32848e-05
1.39723e-05
1.44443e-05
1.49309e-05
1.56255e-05
1.70121e-05
1.95053e-05
2.1632e-05
2.37817e-05
2.59309e-05
2.59762e-05
2.52788e-05
2.36178e-05
2.11711e-05
1.69576e-05
1.57996e-05
1.43125e-05
1.24387e-05
1.0215e-05
8.90373e-06
1.04463e-05
1.20841e-05
1.33737e-05
1.40682e-05
1.49914e-05
1.56997e-05
1.62221e-05
1.66739e-05
1.69867e-05
1.7098e-05
1.7246e-05
1.74177e-05
1.75569e-05
1.76947e-05
1.78284e-05
1.77831e-05
1.77668e-05
1.81364e-05
1.86175e-05
1.93031e-05
2.02086e-05
2.13528e-05
2.29851e-05
2.50722e-05
2.77257e-05
3.08261e-05
3.38151e-05
)
;
    }
    lowerWall
    {
        type            nutkWallFunction;
        Cmu             0.09;
        kappa           0.41;
        E               9.8;
        value           nonuniform List<scalar> 
62
(
2.94644e-06
5.20175e-06
6.3835e-06
7.16958e-06
7.75372e-06
8.20976e-06
8.5744e-06
8.86992e-06
9.11209e-06
9.31261e-06
9.47914e-06
9.61495e-06
9.71943e-06
9.78978e-06
9.82795e-06
9.8263e-06
9.74827e-06
9.54502e-06
9.30834e-06
9.01654e-06
8.4466e-06
7.14444e-06
4.09935e-06
4.09935e-06
1.35466e-05
1.58301e-05
1.75279e-05
1.90958e-05
2.1062e-05
2.40316e-05
2.83142e-05
2.98035e-05
2.90493e-05
2.94708e-05
3.11237e-05
3.7455e-06
1.40771e-05
1.66802e-05
1.89488e-05
2.12884e-05
2.39672e-05
2.73265e-05
3.19833e-05
3.7455e-06
6.76919e-06
7.79718e-06
8.20124e-06
8.32199e-06
8.29192e-06
8.0463e-06
7.51033e-06
6.93462e-06
6.70135e-06
6.81328e-06
6.83811e-06
6.65452e-06
6.63019e-06
6.69972e-06
6.47186e-06
5.74739e-06
4.69287e-06
3.31362e-06
)
;
    }
    atmosphere
    {
        type            calculated;
        value           nonuniform List<scalar> 
46
(
0.000129185
0.00101513
0.00193389
0.00274354
0.00346044
0.00410186
0.00468017
0.00520408
0.00567966
0.0061108
0.00649923
0.0068445
0.00714457
0.00739824
0.0076107
0.00780072
0.00800408
0.00827176
0.009
0.009
0.009
0.009
0.009
0.009
0.009
0.009
0.009
0.009
0.009
0.009
0.009
0.009
0.009
0.009
0.009
0.009
0.009
0.009
0.009
0.009
0.009
0.009
0.009
0.009
0.00307893
0.000300228
)
;
    }
    defaultFaces
    {
        type            empty;
    }
}


// ************************************************************************* //
