/*--------------------------------*- C++ -*----------------------------------*\
  =========                 |
  \\      /  F ield         | OpenFOAM: The Open Source CFD Toolbox
   \\    /   O peration     | Website:  https://openfoam.org
    \\  /    A nd           | Version:  9
     \\/     M anipulation  |
\*---------------------------------------------------------------------------*/
FoamFile
{
    format      ascii;
    class       surfaceScalarField;
    location    "1.1";
    object      phi;
}
// * * * * * * * * * * * * * * * * * * * * * * * * * * * * * * * * * * * * * //

dimensions      [0 3 -1 0 0 0 0];

internalField   nonuniform List<scalar> 
760
(
1.22823e-08
-1.22496e-08
-2.86758e-08
4.09578e-08
-1.21742e-07
9.30657e-08
-2.4893e-07
1.27188e-07
-3.93397e-07
1.44467e-07
-5.41474e-07
1.48078e-07
-6.81282e-07
1.39807e-07
-8.01137e-07
1.19855e-07
-8.88856e-07
8.77191e-08
-9.32445e-07
4.35893e-08
-9.21979e-07
-1.04656e-08
-8.52707e-07
-6.92723e-08
-7.27738e-07
-1.24968e-07
-5.6018e-07
-1.67558e-07
-3.72884e-07
-1.87296e-07
-1.95303e-07
-1.7758e-07
-5.7324e-08
-1.37979e-07
1.90247e-08
-7.63484e-08
2.93779e-08
-1.03528e-08
2.93782e-08
-4.27447e-08
3.04949e-08
-2.02308e-07
2.00521e-07
-4.63496e-07
3.54254e-07
-7.93072e-07
4.56763e-07
-1.15691e-06
5.08306e-07
-1.52352e-06
5.14689e-07
-1.86344e-06
4.79727e-07
-2.14792e-06
4.04336e-07
-2.34887e-06
2.8867e-07
-2.44088e-06
1.35598e-07
-2.40543e-06
-4.59189e-08
-2.23531e-06
-2.39397e-07
-1.94043e-06
-4.19847e-07
-1.55006e-06
-5.57921e-07
-1.11206e-06
-6.25304e-07
-6.8657e-07
-6.03067e-07
-3.34293e-07
-4.90255e-07
-1.00965e-07
-3.09676e-07
-1.62005e-09
-1.09697e-07
2.7758e-08
-1.09277e-07
1.39773e-07
-3.98869e-07
4.90112e-07
-8.22672e-07
7.78057e-07
-1.33192e-06
9.66005e-07
-1.88008e-06
1.05647e-06
-2.42394e-06
1.05856e-06
-2.92243e-06
9.78216e-07
-3.33554e-06
8.17445e-07
-3.62498e-06
5.78104e-07
-3.75706e-06
2.67682e-07
-3.70759e-06
-9.5386e-08
-3.46772e-06
-4.79268e-07
-3.04979e-06
-8.3778e-07
-2.49098e-06
-1.11673e-06
-1.85302e-06
-1.26326e-06
-1.21573e-06
-1.24036e-06
-6.63055e-07
-1.04293e-06
-2.63294e-07
-7.09437e-07
-4.84163e-08
-3.24575e-07
-2.06585e-08
-1.71709e-07
3.11481e-07
-5.86869e-07
9.05272e-07
-1.16497e-06
1.35616e-06
-1.83888e-06
1.63991e-06
-2.55107e-06
1.76866e-06
-3.25023e-06
1.75771e-06
-3.88809e-06
1.61608e-06
-4.41777e-06
1.34712e-06
-4.79429e-06
9.54625e-07
-4.97759e-06
4.50988e-07
-4.9375e-06
-1.35485e-07
-4.65985e-06
-7.56909e-07
-4.15351e-06
-1.34412e-06
-3.45595e-06
-1.8143e-06
-2.63581e-06
-2.0834e-06
-1.78885e-06
-2.08732e-06
-1.02405e-06
-1.80773e-06
-4.39911e-07
-1.29358e-06
-9.72195e-08
-6.67266e-07
-1.17878e-07
-2.27111e-07
5.38592e-07
-7.56575e-07
1.43474e-06
-1.47542e-06
2.075e-06
-2.29855e-06
2.46304e-06
-3.15891e-06
2.62902e-06
-3.99983e-06
2.59863e-06
-4.76926e-06
2.38551e-06
-5.41665e-06
1.99451e-06
-5.89262e-06
1.4306e-06
-6.15113e-06
7.09495e-07
-6.15404e-06
-1.32569e-07
-5.87693e-06
-1.03402e-06
-5.31808e-06
-1.90297e-06
-4.50704e-06
-2.62533e-06
-3.51253e-06
-3.07791e-06
-2.44382e-06
-3.15603e-06
-1.43962e-06
-2.81193e-06
-6.40294e-07
-2.09291e-06
-1.49217e-07
-1.15834e-06
-2.67095e-07
-2.74044e-07
8.12636e-07
-9.01823e-07
2.06251e-06
-1.7428e-06
2.91598e-06
-2.69647e-06
3.41671e-06
-3.6884e-06
3.62096e-06
-4.65912e-06
3.56935e-06
-5.55573e-06
3.28211e-06
-6.32678e-06
2.76557e-06
-6.92036e-06
2.02417e-06
-7.28465e-06
1.07378e-06
-7.37165e-06
-4.55602e-08
-7.14174e-06
-1.26393e-06
-6.57529e-06
-2.46942e-06
-5.68446e-06
-3.51616e-06
-4.52864e-06
-4.23373e-06
-3.22519e-06
-4.45947e-06
-1.94565e-06
-4.09147e-06
-8.86127e-07
-3.15243e-06
-2.12114e-07
-1.83236e-06
-4.79209e-07
-3.10745e-07
1.12338e-06
-1.01652e-06
2.76828e-06
-1.95561e-06
3.85508e-06
-3.01572e-06
4.47682e-06
-4.11762e-06
4.72286e-06
-5.20158e-06
4.6533e-06
-6.2166e-06
4.29712e-06
-7.11317e-06
3.66214e-06
-7.8392e-06
2.75021e-06
-8.33861e-06
1.57318e-06
-8.55194e-06
1.67771e-07
-8.42316e-06
-1.39271e-06
-7.90722e-06
-2.98536e-06
-6.98869e-06
-4.43469e-06
-5.70439e-06
-5.51803e-06
-4.16756e-06
-5.99631e-06
-2.57901e-06
-5.68003e-06
-1.20338e-06
-4.52806e-06
-2.95505e-07
-2.74023e-06
-7.74713e-07
-3.35229e-07
1.45861e-06
-1.09446e-06
3.52751e-06
-2.10182e-06
4.86244e-06
-3.23699e-06
5.61198e-06
-4.41847e-06
5.90435e-06
-5.58869e-06
5.82352e-06
-6.70132e-06
5.40975e-06
-7.71192e-06
4.67275e-06
-8.57163e-06
3.60991e-06
-9.22314e-06
2.2247e-06
-9.59919e-06
5.4382e-07
-9.62593e-06
-1.36597e-06
-9.23067e-06
-3.38062e-06
-8.36078e-06
-5.30458e-06
-7.01387e-06
-6.86494e-06
-5.2778e-06
-7.73237e-06
-3.36648e-06
-7.59135e-06
-1.61786e-06
-6.27669e-06
-4.1011e-07
-3.94797e-06
-1.18482e-06
-3.45948e-07
1.80456e-06
-1.13079e-06
4.31235e-06
-2.17102e-06
5.90268e-06
-3.34153e-06
6.78249e-06
-4.5607e-06
7.12352e-06
-5.77525e-06
7.03807e-06
-6.94622e-06
6.58071e-06
-8.0378e-06
5.76433e-06
-9.00893e-06
4.58104e-06
-9.80676e-06
3.02252e-06
-1.03622e-05
1.09924e-06
-1.0589e-05
-1.13919e-06
-1.03888e-05
-3.58078e-06
-9.66666e-06
-6.02671e-06
-8.36424e-06
-8.16736e-06
-6.51467e-06
-9.58195e-06
-4.3112e-06
-9.79482e-06
-2.15075e-06
-8.43714e-06
-5.67839e-07
-5.53088e-06
-1.75266e-06
-3.42948e-07
2.14751e-06
-1.12471e-06
5.09411e-06
-2.15868e-06
6.93664e-06
-3.3169e-06
7.94071e-06
-4.51937e-06
8.32598e-06
-5.71902e-06
8.23773e-06
-6.88692e-06
7.7486e-06
-7.99966e-06
6.87708e-06
-9.02935e-06
5.61073e-06
-9.93503e-06
3.92821e-06
-1.06552e-05
1.81939e-06
-1.11011e-05
-6.93286e-07
-1.11594e-05
-3.52249e-06
-1.06947e-05
-6.49134e-06
-9.58223e-06
-9.27988e-06
-7.76864e-06
-1.13955e-05
-5.3752e-06
-1.21883e-05
-2.81159e-06
-1.10007e-05
-7.82043e-07
-7.56043e-06
-2.53471e-06
-3.29437e-07
2.47694e-06
-1.08327e-06
5.84794e-06
-2.07173e-06
7.92511e-06
-3.16441e-06
9.03338e-06
-4.28451e-06
9.44608e-06
-5.39359e-06
9.34681e-06
-6.47544e-06
8.83046e-06
-7.52273e-06
7.92436e-06
-8.526e-06
6.614e-06
-9.46399e-06
4.8662e-06
-1.02946e-05
2.64997e-06
-1.09382e-05
-4.96476e-08
-1.1287e-05
-3.17367e-06
-1.11764e-05
-6.60193e-06
-1.04181e-05
-1.00382e-05
-8.84956e-06
-1.2964e-05
-6.45983e-06
-1.4578e-05
-3.5864e-06
-1.38742e-05
-1.06708e-06
-1.00797e-05
-3.60179e-06
-3.13902e-07
2.79084e-06
-1.02587e-06
6.55991e-06
-1.93481e-06
8.83405e-06
-2.90653e-06
1.00051e-05
-3.87055e-06
1.04101e-05
-4.80083e-06
1.02771e-05
-5.69732e-06
9.72695e-06
-6.57194e-06
8.79899e-06
-7.43777e-06
7.47983e-06
-8.2993e-06
5.72773e-06
-9.1413e-06
3.49197e-06
-9.92131e-06
7.30367e-07
-1.05371e-05
-2.55789e-06
-1.08329e-05
-6.30615e-06
-1.05758e-05
-1.02953e-05
-9.49306e-06
-1.40468e-05
-7.39094e-06
-1.66801e-05
-4.41995e-06
-1.68452e-05
-1.43551e-06
-1.30642e-05
-5.0373e-06
-3.13341e-07
3.10419e-06
-9.89823e-07
7.23639e-06
-1.79582e-06
9.64005e-06
-2.59204e-06
1.08013e-05
-3.32135e-06
1.11394e-05
-3.97731e-06
1.09331e-05
-4.58094e-06
1.03306e-05
-5.16627e-06
9.38432e-06
-5.77087e-06
8.08443e-06
-6.42777e-06
6.38464e-06
-7.15632e-06
4.22051e-06
-7.95028e-06
1.52433e-06
-8.75304e-06
-1.75514e-06
-9.43706e-06
-5.62213e-06
-9.76743e-06
-9.96496e-06
-9.39252e-06
-1.44217e-05
-7.91944e-06
-1.81532e-05
-5.19569e-06
-1.95689e-05
-1.88964e-06
-1.63702e-05
-6.92694e-06
-3.59009e-07
3.46319e-06
-1.03725e-06
7.91463e-06
-1.72915e-06
1.03319e-05
-2.29422e-06
1.13664e-05
-2.70452e-06
1.15497e-05
-2.98591e-06
1.12144e-05
-3.18738e-06
1.0532e-05
-3.36756e-06
9.56449e-06
-3.58803e-06
8.3049e-06
-3.9087e-06
6.70531e-06
-4.38214e-06
4.69395e-06
-5.04395e-06
2.18613e-06
-5.89362e-06
-9.05472e-07
-6.86422e-06
-4.65152e-06
-7.77038e-06
-9.0588e-06
-8.24725e-06
-1.39448e-05
-7.74028e-06
-1.86602e-05
-5.71916e-06
-2.159e-05
-2.40296e-06
-1.96864e-05
-9.3299e-06
-5.06835e-07
3.97003e-06
-1.26198e-06
8.66978e-06
-1.82916e-06
1.08991e-05
-2.09102e-06
1.16283e-05
-2.08094e-06
1.15396e-05
-1.87657e-06
1.10101e-05
-1.56367e-06
1.02191e-05
-1.22724e-06
9.22806e-06
-9.50152e-07
8.02781e-06
-8.13834e-07
6.56899e-06
-8.97491e-07
4.77761e-06
-1.27434e-06
2.56298e-06
-2.0007e-06
-1.79118e-07
-3.08874e-06
-3.56348e-06
-4.4516e-06
-7.69594e-06
-5.79963e-06
-1.25968e-05
-6.51725e-06
-1.79425e-05
-5.70595e-06
-2.24013e-05
-2.88692e-06
-2.25055e-05
-1.22168e-05
-8.51862e-07
4.82189e-06
-1.78163e-06
9.59954e-06
-2.16341e-06
1.12809e-05
-1.98654e-06
1.14514e-05
-1.40402e-06
1.09571e-05
-5.70542e-07
1.01766e-05
3.83571e-07
9.26503e-06
1.34834e-06
8.2633e-06
2.22487e-06
7.15128e-06
2.9183e-06
5.87557e-06
3.33221e-06
4.36369e-06
3.36633e-06
2.52887e-06
2.91781e-06
2.69406e-07
1.89846e-06
-2.54414e-06
2.71873e-07
-6.06935e-06
-1.83108e-06
-1.04938e-05
-3.89172e-06
-1.58819e-05
-4.76738e-06
-2.15257e-05
-3.14806e-06
-2.41248e-05
-1.53649e-05
-1.52708e-06
6.34897e-06
-2.63352e-06
1.0706e-05
-2.56448e-06
1.12119e-05
-1.63972e-06
1.05266e-05
-2.20138e-07
9.53752e-06
1.44465e-06
8.51182e-06
3.18494e-06
7.52473e-06
4.87706e-06
6.57117e-06
6.41995e-06
5.60839e-06
7.71854e-06
4.57697e-06
8.67275e-06
3.40948e-06
9.17002e-06
2.03161e-06
9.07815e-06
3.61269e-07
8.25428e-06
-1.72026e-06
6.5498e-06
-4.36487e-06
3.89773e-06
-7.84176e-06
5.67394e-07
-1.25516e-05
-2.37684e-06
-1.85815e-05
-2.8561e-06
-2.36455e-05
-1.8221e-05
-2.58789e-06
8.93687e-06
-3.22714e-06
1.13452e-05
-1.86749e-06
9.85222e-06
4.30046e-07
8.2291e-06
3.06232e-06
6.90524e-06
5.74649e-06
5.82765e-06
8.33336e-06
4.93786e-06
1.07296e-05
4.17496e-06
1.28632e-05
3.47478e-06
1.46628e-05
2.77732e-06
1.60445e-05
2.02783e-06
1.69022e-05
1.17392e-06
1.70979e-05
1.65553e-07
1.64674e-05
-1.0898e-06
1.47859e-05
-2.68339e-06
1.18041e-05
-4.85989e-06
7.40069e-06
-8.14819e-06
2.25685e-06
-1.34376e-05
-1.19882e-06
-2.01898e-05
-1.94198e-05
-2.63254e-06
1.15694e-05
-7.23933e-08
8.78508e-06
4.22469e-06
5.55513e-06
8.42802e-06
4.02577e-06
1.22477e-05
3.08553e-06
1.56643e-05
2.41111e-06
1.86853e-05
1.91679e-06
2.13211e-05
1.53922e-06
2.35715e-05
1.22432e-06
2.54165e-05
9.32366e-07
2.681e-05
6.34323e-07
2.76746e-05
3.09283e-07
2.78983e-05
-5.80864e-08
2.73404e-05
-5.31922e-07
2.57574e-05
-1.10038e-06
2.28034e-05
-1.90592e-06
1.79648e-05
-3.3096e-06
1.09249e-05
-6.39768e-06
3.1832e-06
-1.24481e-05
-1.62366e-05
1.15694e-05
2.03545e-05
2.59096e-05
2.99354e-05
3.30209e-05
3.5432e-05
3.73488e-05
3.8888e-05
4.01124e-05
4.10447e-05
4.1679e-05
4.19883e-05
4.19302e-05
4.13983e-05
4.02979e-05
3.8392e-05
3.50824e-05
2.86847e-05
1.62366e-05
)
;

boundaryField
{
    movingWall
    {
        type            calculated;
        value           uniform 0;
    }
    fixedWalls
    {
        type            calculated;
        value           uniform 0;
    }
    frontAndBack
    {
        type            empty;
        value           nonuniform List<scalar> 0();
    }
}


// ************************************************************************* //
