/*--------------------------------*- C++ -*----------------------------------*\
  =========                 |
  \\      /  F ield         | OpenFOAM: The Open Source CFD Toolbox
   \\    /   O peration     | Website:  https://openfoam.org
    \\  /    A nd           | Version:  9
     \\/     M anipulation  |
\*---------------------------------------------------------------------------*/
FoamFile
{
    format      ascii;
    class       volVectorField;
    location    "1.1";
    object      U;
}
// * * * * * * * * * * * * * * * * * * * * * * * * * * * * * * * * * * * * * //

dimensions      [0 1 -1 0 0 0 0];

internalField   nonuniform List<vector> 
400
(
(0.000247777 -0.000249817 0)
(6.8633e-05 0.000126166 0)
(-0.00132713 0.000544799 0)
(-0.00360199 0.000816662 0)
(-0.00638242 0.000956397 0)
(-0.009365 0.000998651 0)
(-0.0122976 0.000961974 0)
(-0.0149471 0.000847236 0)
(-0.0170738 0.000645964 0)
(-0.0184301 0.000353013 0)
(-0.0187877 -2.12978e-05 0)
(-0.0179892 -0.000444133 0)
(-0.01601 -0.000853237 0)
(-0.0130104 -0.00116878 0)
(-0.00935713 -0.00131003 0)
(-0.00559061 -0.00122057 0)
(-0.00232998 -0.000894171 0)
(-0.000125851 -0.000393614 0)
(0.00072411 0.000133706 0)
(0.000397657 0.000378476 0)
(-0.000139977 -8.14817e-05 0)
(-0.00190262 0.00181556 0)
(-0.00623496 0.00366758 0)
(-0.0123253 0.00491129 0)
(-0.0194193 0.00555171 0)
(-0.026871 0.00567806 0)
(-0.0340777 0.00534567 0)
(-0.0404584 0.00456304 0)
(-0.0454387 0.00331997 0)
(-0.0484695 0.00163414 0)
(-0.0490905 -0.000404144 0)
(-0.0470231 -0.00260418 0)
(-0.0422791 -0.00467205 0)
(-0.0352475 -0.00624959 0)
(-0.026715 -0.00698973 0)
(-0.0177999 -0.00666095 0)
(-0.00976967 -0.00525398 0)
(-0.00375331 -0.00305451 0)
(-0.000419146 -0.000679816 0)
(0.000265891 0.000758553 0)
(-0.000668353 0.00144092 0)
(-0.00428262 0.00630394 0)
(-0.0116265 0.0105387 0)
(-0.0212395 0.0133626 0)
(-0.0320421 0.0147708 0)
(-0.0431718 0.0149004 0)
(-0.0537981 0.0138446 0)
(-0.0631077 0.0116302 0)
(-0.0703078 0.00827318 0)
(-0.0746594 0.00387002 0)
(-0.075559 -0.0013177 0)
(-0.0726507 -0.00681269 0)
(-0.06595 -0.0119315 0)
(-0.0559463 -0.0158632 0)
(-0.0436429 -0.017829 0)
(-0.0304986 -0.0173047 0)
(-0.0182221 -0.0142559 0)
(-0.00841464 -0.00930025 0)
(-0.00221299 -0.00375001 0)
(-5.95795e-05 0.000285547 0)
(-0.00115593 0.00427532 0)
(-0.00655275 0.0134096 0)
(-0.0168004 0.0206516 0)
(-0.0297012 0.0253205 0)
(-0.0438441 0.0275201 0)
(-0.0582082 0.0274753 0)
(-0.07182 0.0253286 0)
(-0.0837256 0.021132 0)
(-0.0929953 0.0149429 0)
(-0.0987593 0.00696199 0)
(-0.10029 -0.00234266 0)
(-0.0971151 -0.0121647 0)
(-0.0891578 -0.0213653 0)
(-0.076864 -0.0285908 0)
(-0.0612964 -0.0325089 0)
(-0.0441349 -0.0321619 0)
(-0.0275008 -0.0273713 0)
(-0.0135593 -0.019046 0)
(-0.00412057 -0.0092493 0)
(-0.000362526 -0.00114634 0)
(-0.00157929 0.00829316 0)
(-0.00858432 0.0229206 0)
(-0.0214886 0.0337027 0)
(-0.0373812 0.0403787 0)
(-0.0545398 0.043329 0)
(-0.0718283 0.0429415 0)
(-0.0881948 0.0394339 0)
(-0.102615 0.0328884 0)
(-0.114082 0.0233985 0)
(-0.121625 0.0112562 0)
(-0.124378 -0.00288253 0)
(-0.121685 -0.0178963 0)
(-0.11325 -0.0321828 0)
(-0.0993157 -0.043783 0)
(-0.0808405 -0.0506679 0)
(-0.0596192 -0.0512251 0)
(-0.0381985 -0.0448872 0)
(-0.0194767 -0.032689 0)
(-0.0062271 -0.0174506 0)
(-0.000652033 -0.00356725 0)
(-0.00193173 0.0133417 0)
(-0.0103095 0.034574 0)
(-0.0255123 0.0493982 0)
(-0.0440108 0.0582433 0)
(-0.0638202 0.0619355 0)
(-0.0837334 0.0611157 0)
(-0.102676 0.0561132 0)
(-0.119615 0.0470411 0)
(-0.133515 0.0340033 0)
(-0.143329 0.017334 0)
(-0.148037 -0.00218983 0)
(-0.146732 -0.0231926 0)
(-0.138774 -0.0436523 0)
(-0.124028 -0.0609615 0)
(-0.103151 -0.0722255 0)
(-0.0778829 -0.0748629 0)
(-0.0511516 -0.0675147 0)
(-0.0267535 -0.0510142 0)
(-0.00881026 -0.0288931 0)
(-0.000992352 -0.00710558 0)
(-0.00220183 0.0192343 0)
(-0.0116588 0.048009 0)
(-0.0286976 0.0673208 0)
(-0.0493033 0.078505 0)
(-0.0712939 0.0829858 0)
(-0.0934368 0.0817496 0)
(-0.114689 0.0752782 0)
(-0.134065 0.0637139 0)
(-0.150557 0.0471314 0)
(-0.163083 0.0258305 0)
(-0.170471 0.000601617 0)
(-0.171535 -0.0270528 0)
(-0.16521 -0.0547799 0)
(-0.150806 -0.079337 0)
(-0.128436 -0.0968156 0)
(-0.0995103 -0.103291 0)
(-0.0671363 -0.096027 0)
(-0.0360652 -0.0750651 0)
(-0.0122254 -0.0444313 0)
(-0.0014671 -0.0120692 0)
(-0.0023748 0.0257454 0)
(-0.0125602 0.0627747 0)
(-0.03087 0.0869315 0)
(-0.0529513 0.100614 0)
(-0.0764932 0.105972 0)
(-0.10028 0.104428 0)
(-0.12335 0.0966613 0)
(-0.144825 0.0828455 0)
(-0.163793 0.0629826 0)
(-0.179201 0.0372481 0)
(-0.189797 0.00630975 0)
(-0.194143 -0.0283774 0)
(-0.190719 -0.0642913 0)
(-0.178174 -0.0976679 0)
(-0.155815 -0.123533 0)
(-0.124328 -0.136264 0)
(-0.0865658 -0.131008 0)
(-0.0480279 -0.106038 0)
(-0.0168705 -0.0652521 0)
(-0.00217864 -0.0189741 0)
(-0.00243957 0.0326114 0)
(-0.01296 0.0783415 0)
(-0.0318893 0.107574 0)
(-0.0546772 0.123861 0)
(-0.0789434 0.130181 0)
(-0.103524 0.128479 0)
(-0.127585 0.119686 0)
(-0.150419 0.104023 0)
(-0.171288 0.0813857 0)
(-0.189273 0.0517422 0)
(-0.203161 0.0154959 0)
(-0.211383 -0.0261382 0)
(-0.21205 -0.0707176 0)
(-0.203134 -0.114211 0)
(-0.182938 -0.150712 0)
(-0.150965 -0.172708 0)
(-0.109121 -0.172448 0)
(-0.0630185 -0.14502 0)
(-0.02317 -0.092817 0)
(-0.00326118 -0.0285671 0)
(-0.00240041 0.0395494 0)
(-0.0128616 0.0941308 0)
(-0.0317192 0.128495 0)
(-0.0543314 0.14737 0)
(-0.0782925 0.154653 0)
(-0.102521 0.1529 0)
(-0.126352 0.143362 0)
(-0.149311 0.126341 0)
(-0.170927 0.101625 0)
(-0.190541 0.0689208 0)
(-0.207146 0.0282521 0)
(-0.219243 -0.0196073 0)
(-0.224793 -0.072597 0)
(-0.22124 -0.126819 0)
(-0.205827 -0.175825 0)
(-0.176485 -0.210356 0)
(-0.133322 -0.219196 0)
(-0.0809058 -0.192511 0)
(-0.0315437 -0.128693 0)
(-0.0049034 -0.0418541 0)
(-0.00229292 0.046303 0)
(-0.0123787 0.109585 0)
(-0.0305211 0.14889 0)
(-0.0520217 0.170121 0)
(-0.0744787 0.178183 0)
(-0.0969296 0.17634 0)
(-0.11893 0.166247 0)
(-0.1403 0.148344 0)
(-0.160916 0.122343 0)
(-0.180513 0.0876907 0)
(-0.198477 0.0439756 0)
(-0.213627 -0.00862811 0)
(-0.224106 -0.0688235 0)
(-0.22715 -0.133264 0)
(-0.219141 -0.195644 0)
(-0.196302 -0.245588 0)
(-0.156157 -0.268412 0)
(-0.100666 -0.247731 0)
(-0.0423122 -0.174209 0)
(-0.00737362 -0.0601326 0)
(-0.00220719 0.0527239 0)
(-0.0118042 0.124282 0)
(-0.0287621 0.168005 0)
(-0.0482482 0.191013 0)
(-0.0678946 0.199365 0)
(-0.0869332 0.197149 0)
(-0.105213 0.186503 0)
(-0.122911 0.168077 0)
(-0.140323 0.141571 0)
(-0.15766 0.106214 0)
(-0.174862 0.0611687 0)
(-0.191384 0.00593277 0)
(-0.205834 -0.0591334 0)
(-0.215667 -0.131803 0)
(-0.216986 -0.206769 0)
(-0.204571 -0.273676 0)
(-0.172969 -0.315257 0)
(-0.119957 -0.307807 0)
(-0.0554713 -0.229826 0)
(-0.011027 -0.0849993 0)
(-0.00232719 0.0589071 0)
(-0.0117046 0.138106 0)
(-0.0273305 0.18524 0)
(-0.0440095 0.208939 0)
(-0.0594842 0.216673 0)
(-0.0733439 0.213478 0)
(-0.0858566 0.202039 0)
(-0.0976306 0.183269 0)
(-0.109422 0.156919 0)
(-0.121967 0.122084 0)
(-0.135826 0.0775759 0)
(-0.151183 0.0222689 0)
(-0.167477 -0.0444272 0)
(-0.18296 -0.121839 0)
(-0.194126 -0.206491 0)
(-0.195113 -0.289563 0)
(-0.177818 -0.353152 0)
(-0.134835 -0.367143 0)
(-0.0702686 -0.29417 0)
(-0.0162446 -0.118237 0)
(-0.00300757 0.0654134 0)
(-0.0130673 0.151453 0)
(-0.0276448 0.200251 0)
(-0.0408179 0.22282 0)
(-0.0506653 0.228499 0)
(-0.0574591 0.223378 0)
(-0.0620892 0.210677 0)
(-0.065683 0.19156 0)
(-0.0694698 0.165863 0)
(-0.0746816 0.132627 0)
(-0.0824633 0.0904518 0)
(-0.0937355 0.0377519 0)
(-0.108918 -0.0269433 0)
(-0.127466 -0.104484 0)
(-0.147093 -0.193791 0)
(-0.162537 -0.289127 0)
(-0.164254 -0.374781 0)
(-0.1398 -0.417406 0)
(-0.0845657 -0.362812 0)
(-0.0231994 -0.161382 0)
(-0.00491847 0.0736584 0)
(-0.0175208 0.165453 0)
(-0.0316791 0.212915 0)
(-0.0404361 0.2315 0)
(-0.0428183 0.233086 0)
(-0.0403582 0.224799 0)
(-0.0348491 0.210229 0)
(-0.0280277 0.190668 0)
(-0.0215762 0.165987 0)
(-0.0171333 0.135213 0)
(-0.0163043 0.0968627 0)
(-0.020626 0.0491192 0)
(-0.0314326 -0.0100391 0)
(-0.0495196 -0.08265 0)
(-0.0744398 -0.170011 0)
(-0.10292 -0.270497 0)
(-0.126057 -0.373713 0)
(-0.128021 -0.448488 0)
(-0.0940693 -0.427447 0)
(-0.0312725 -0.214971 0)
(-0.00925111 0.0866456 0)
(-0.0274925 0.182072 0)
(-0.0414489 0.222977 0)
(-0.0436002 0.233333 0)
(-0.0354581 0.228209 0)
(-0.0207098 0.215389 0)
(-0.00234062 0.198405 0)
(0.0172665 0.178388 0)
(0.0360547 0.155101 0)
(0.0521217 0.127535 0)
(0.063585 0.0942131 0)
(0.0685043 0.0533171 0)
(0.064853 0.00268811 0)
(0.0506816 -0.0602815 0)
(0.0244797 -0.138567 0)
(-0.013465 -0.234639 0)
(-0.0573884 -0.345843 0)
(-0.0914083 -0.450051 0)
(-0.0916918 -0.476124 0)
(-0.0379485 -0.278052 0)
(-0.0177204 0.110457 0)
(-0.0453554 0.203253 0)
(-0.0558616 0.228293 0)
(-0.0450431 0.224595 0)
(-0.0203721 0.209993 0)
(0.0113668 0.191693 0)
(0.0460229 0.172324 0)
(0.0807985 0.152364 0)
(0.113529 0.131235 0)
(0.142314 0.107823 0)
(0.165257 0.0807261 0)
(0.180288 0.0483085 0)
(0.184989 0.00863853 0)
(0.176683 -0.0407736 0)
(0.152344 -0.10341 0)
(0.109256 -0.184518 0)
(0.0480905 -0.28968 0)
(-0.0201471 -0.412357 0)
(-0.0673261 -0.493253 0)
(-0.0372014 -0.346373 0)
(-0.0307487 0.156278 0)
(-0.067032 0.225352 0)
(-0.0568508 0.217298 0)
(-0.0171705 0.193989 0)
(0.0339293 0.169759 0)
(0.087989 0.1476 0)
(0.141196 0.127932 0)
(0.191353 0.110101 0)
(0.236914 0.0930089 0)
(0.276521 0.0754431 0)
(0.308681 0.0561701 0)
(0.331564 0.0339104 0)
(0.342743 0.00722964 0)
(0.33937 -0.0256717 0)
(0.317594 -0.0676075 0)
(0.272595 -0.124176 0)
(0.199875 -0.206464 0)
(0.0998594 -0.326963 0)
(-0.00545803 -0.456466 0)
(-0.0153914 -0.3987 0)
(-0.0282291 0.226603 0)
(-0.0421767 0.22369 0)
(0.0373231 0.165997 0)
(0.126932 0.12807 0)
(0.208216 0.10212 0)
(0.280613 0.0826566 0)
(0.344926 0.067659 0)
(0.401465 0.0556474 0)
(0.450332 0.0452856 0)
(0.491357 0.0354752 0)
(0.523916 0.0253203 0)
(0.546831 0.0140416 0)
(0.558167 0.000882359 0)
(0.555608 -0.0148592 0)
(0.535336 -0.0349011 0)
(0.491859 -0.0626011 0)
(0.416846 -0.107527 0)
(0.297158 -0.193991 0)
(0.132859 -0.333151 0)
(0.0673813 -0.369495 0)
(0.261518 0.137397 0)
(0.324122 0.118113 0)
(0.455358 0.0773789 0)
(0.560453 0.051991 0)
(0.633142 0.0365452 0)
(0.686944 0.0263677 0)
(0.729414 0.0194338 0)
(0.763616 0.0145658 0)
(0.79106 0.0109087 0)
(0.812529 0.007857 0)
(0.828192 0.004987 0)
(0.837715 0.00199538 0)
(0.840329 -0.00136237 0)
(0.834716 -0.00512241 0)
(0.818663 -0.00986692 0)
(0.788867 -0.0164533 0)
(0.737908 -0.0274008 0)
(0.647977 -0.0518007 0)
(0.474691 -0.111389 0)
(0.341588 -0.155791 0)
)
;

boundaryField
{
    movingWall
    {
        type            fixedValue;
        value           uniform (1 0 0);
    }
    fixedWalls
    {
        type            noSlip;
    }
    frontAndBack
    {
        type            empty;
    }
}


// ************************************************************************* //
