/*--------------------------------*- C++ -*----------------------------------*\
  =========                 |
  \\      /  F ield         | OpenFOAM: The Open Source CFD Toolbox
   \\    /   O peration     | Website:  https://openfoam.org
    \\  /    A nd           | Version:  9
     \\/     M anipulation  |
\*---------------------------------------------------------------------------*/
FoamFile
{
    format      ascii;
    class       surfaceScalarField;
    location    "5.05";
    object      alphaPhi0.water;
}
// * * * * * * * * * * * * * * * * * * * * * * * * * * * * * * * * * * * * * //

dimensions      [0 3 -1 0 0 0 0];

internalField   nonuniform List<scalar> 
4432
(
2.46881e-07
-2.46881e-07
5.40764e-07
-2.93882e-07
8.31669e-07
-2.90904e-07
1.09976e-06
-2.68089e-07
1.33861e-06
-2.38846e-07
1.54527e-06
-2.06663e-07
1.72182e-06
-1.76556e-07
1.87408e-06
-1.52256e-07
2.00763e-06
-1.33548e-07
2.12542e-06
-1.17796e-07
2.23089e-06
-1.05474e-07
2.33005e-06
-9.91667e-08
2.43376e-06
-1.03713e-07
2.55882e-06
-1.25056e-07
2.72114e-06
-1.62329e-07
2.90068e-06
-1.79531e-07
2.88272e-06
1.79563e-08
2.11604e-06
7.66039e-07
7.69543e-07
1.34571e-06
-4.07183e-07
1.17646e-06
-8.66843e-07
4.59298e-07
-5.51688e-07
-3.15945e-07
-5.52477e-07
2.70871e-07
-5.17749e-07
5.54747e-07
-5.77755e-07
8.34875e-07
-5.71032e-07
1.1001e-06
-5.33306e-07
1.34165e-06
-4.80401e-07
1.55567e-06
-4.20686e-07
1.74294e-06
-3.63826e-07
1.90667e-06
-3.15985e-07
2.04954e-06
-2.76426e-07
2.17225e-06
-2.40507e-07
2.2751e-06
-2.08333e-07
2.36061e-06
-1.8468e-07
2.43332e-06
-1.76426e-07
2.49843e-06
-1.90169e-07
2.55668e-06
-2.20581e-07
2.58461e-06
-2.07465e-07
2.47912e-06
1.23305e-07
1.95501e-06
1.29024e-06
1.04386e-06
2.25696e-06
1.77589e-07
2.04282e-06
-3.39886e-07
9.77955e-07
-4.2838e-07
-2.27423e-07
-9.82272e-07
2.876e-07
-8.05346e-07
5.68222e-07
-8.58375e-07
8.42072e-07
-8.4488e-07
1.10522e-06
-7.96445e-07
1.34857e-06
-7.23755e-07
1.56717e-06
-6.39282e-07
1.76061e-06
-5.57274e-07
1.93058e-06
-4.85947e-07
2.07787e-06
-4.2372e-07
2.20106e-06
-3.63697e-07
2.29831e-06
-3.05585e-07
2.36924e-06
-2.55608e-07
2.41397e-06
-2.21162e-07
2.43086e-06
-2.07058e-07
2.41291e-06
-2.02629e-07
2.34031e-06
-1.34872e-07
2.17483e-06
2.83653e-07
1.76659e-06
1.64749e-06
1.23858e-06
2.73634e-06
6.24524e-07
2.6252e-06
1.20456e-07
1.47306e-06
-1.44997e-07
3.80594e-08
-1.12724e-06
2.95851e-07
-1.1012e-06
5.79287e-07
-1.14181e-06
8.53667e-07
-1.11926e-06
1.1186e-06
-1.06137e-06
1.36557e-06
-9.7073e-07
1.589e-06
-8.62708e-07
1.78776e-06
-7.56037e-07
1.96252e-06
-6.60704e-07
2.1127e-06
-5.73894e-07
2.23502e-06
-4.86014e-07
2.32571e-06
-3.96276e-07
2.38217e-06
-3.12063e-07
2.40136e-06
-2.40353e-07
2.37721e-06
-1.82907e-07
2.29869e-06
-1.24119e-07
2.14896e-06
1.48586e-08
1.91702e-06
4.91339e-07
1.6614e-06
1.90051e-06
1.38958e-06
3.00789e-06
9.88302e-07
3.02625e-06
5.77064e-07
1.88295e-06
2.03367e-07
4.12577e-07
-9.23915e-07
2.99902e-07
-1.4011e-06
5.89251e-07
-1.43115e-06
8.68936e-07
-1.39895e-06
1.13905e-06
-1.33148e-06
1.39143e-06
-1.22311e-06
1.62018e-06
-1.09145e-06
1.82388e-06
-9.59744e-07
2.00264e-06
-8.39463e-07
2.15485e-06
-7.26099e-07
2.27556e-06
-6.06725e-07
2.35934e-06
-4.80058e-07
2.40206e-06
-3.54777e-07
2.39877e-06
-2.37072e-07
2.34118e-06
-1.25316e-07
2.21676e-06
3.05741e-10
2.01559e-06
2.16021e-07
1.76202e-06
7.44914e-07
1.62733e-06
2.02433e-06
1.50433e-06
3.13066e-06
1.29916e-06
3.2312e-06
1.0154e-06
2.20401e-06
5.35873e-07
8.93069e-07
-3.88028e-07
3.03189e-07
-1.70429e-06
6.00232e-07
-1.72819e-06
8.8791e-07
-1.68663e-06
1.1654e-06
-1.60897e-06
1.42432e-06
-1.48203e-06
1.65859e-06
-1.32572e-06
1.86684e-06
-1.168e-06
2.04891e-06
-1.02153e-06
2.20245e-06
-8.79649e-07
2.32106e-06
-7.25331e-07
2.39797e-06
-5.5698e-07
2.4283e-06
-3.85109e-07
2.40648e-06
-2.15254e-07
2.32389e-06
-4.27251e-08
2.17064e-06
1.53548e-07
1.94388e-06
4.42781e-07
1.6869e-06
1.0019e-06
1.5957e-06
2.10871e-06
1.59923e-06
3.1445e-06
1.56695e-06
3.26325e-06
1.3504e-06
2.46519e-06
8.0993e-07
1.43356e-06
4.21873e-07
3.07764e-07
-2.01205e-06
6.1346e-07
-2.03389e-06
9.10069e-07
-1.98324e-06
1.19581e-06
-1.89471e-06
1.46159e-06
-1.74781e-06
1.70116e-06
-1.5653e-06
1.9134e-06
-1.38024e-06
2.09802e-06
-1.20616e-06
2.25218e-06
-1.03381e-06
2.3682e-06
-8.41356e-07
2.43848e-06
-6.27272e-07
2.45815e-06
-4.04776e-07
2.42211e-06
-1.79226e-07
2.32321e-06
5.61744e-08
2.15566e-06
3.21094e-07
1.9258e-06
6.72648e-07
1.69191e-06
1.23578e-06
1.62016e-06
2.18046e-06
1.70638e-06
3.08025e-06
1.76731e-06
3.26901e-06
1.57564e-06
2.66306e-06
1.03636e-06
1.97284e-06
1.45824e-06
3.14602e-07
-2.32666e-06
6.28259e-07
-2.34755e-06
9.33497e-07
-2.28849e-06
1.22721e-06
-2.18842e-06
1.49943e-06
-2.02004e-06
1.74374e-06
-1.8096e-06
1.95928e-06
-1.59578e-06
2.14563e-06
-1.3925e-06
2.29954e-06
-1.18772e-06
2.41237e-06
-9.54189e-07
2.47623e-06
-6.91137e-07
2.48702e-06
-4.15566e-07
2.44103e-06
-1.33229e-07
2.33341e-06
1.63792e-07
2.16316e-06
4.91344e-07
1.94459e-06
8.91216e-07
1.73775e-06
1.44263e-06
1.6774e-06
2.24082e-06
1.77903e-06
2.97862e-06
1.86228e-06
3.18576e-06
1.7167e-06
2.80865e-06
1.25872e-06
2.43082e-06
2.71695e-06
-1.09398e-06
1.09201e-06
-6.90088e-07
-4.06217e-07
-2.79368e-07
-4.13956e-07
-5.7602e-08
-2.23013e-07
-5.70971e-09
-5.21204e-08
-6.57241e-08
6.00201e-08
-1.49417e-07
8.36984e-08
-1.03533e-07
-4.58772e-08
3.16313e-07
-4.19772e-07
9.97534e-07
-6.79775e-07
9.63035e-07
3.45278e-08
-1.44985e-07
1.10805e-06
-2.40391e-06
2.27255e-06
-3.21243e-06
7.6569e-07
-9.49926e-07
-2.29285e-06
1.45819e-06
-2.40856e-06
2.75316e-06
-1.29539e-06
2.26383e-06
4.85996e-07
2.25322e-06
-4.29639e-07
1.51968e-06
-3.94134e-07
-4.43395e-07
-3.36598e-07
-4.71496e-07
-3.24033e-07
-2.35581e-07
-3.70153e-07
-6.00333e-09
-4.55058e-07
1.46064e-07
-5.19512e-07
1.49143e-07
-4.6223e-07
-1.0382e-07
-1.85018e-07
-6.99301e-07
1.23672e-07
-9.88911e-07
-2.9759e-08
1.87987e-07
-8.43092e-07
1.92141e-06
-1.91127e-06
3.28842e-06
-1.63954e-06
4.51141e-07
-2.41368e-07
-3.69146e-06
1.26899e-06
-3.91935e-06
2.11383e-06
-2.14067e-06
2.04436e-06
5.55848e-07
4.287e-06
-5.92156e-08
1.59234e-06
-2.74301e-07
-2.28685e-07
-4.13292e-07
-3.32586e-07
-5.22561e-07
-1.26316e-07
-6.36557e-07
1.08011e-07
-7.59068e-07
2.68574e-07
-8.45396e-07
2.35474e-07
-8.40993e-07
-1.08219e-07
-7.24471e-07
-8.1574e-07
-5.82532e-07
-1.13054e-06
-8.46599e-07
4.45306e-07
-1.30417e-06
2.35236e-06
-1.37669e-06
3.36073e-06
-7.75429e-07
-1.88783e-07
8.40061e-08
-4.55132e-06
1.07183e-06
-4.90761e-06
1.5833e-06
-2.65259e-06
1.58335e-06
5.55757e-07
5.85976e-06
6.46962e-10
1.59169e-06
-2.85253e-07
5.71814e-08
-5.29655e-07
-8.82286e-08
-7.18182e-07
6.21933e-08
-8.83512e-07
2.73345e-07
-1.04028e-06
4.25351e-07
-1.166e-06
3.61948e-07
-1.23695e-06
-3.68123e-08
-1.2644e-06
-7.89644e-07
-1.26136e-06
-1.1176e-06
-1.4043e-06
5.92766e-07
-1.51752e-06
2.46547e-06
-1.05238e-06
2.89544e-06
-3.6259e-07
-8.81248e-07
1.8138e-07
-5.09573e-06
8.41649e-07
-5.56832e-06
1.11528e-06
-2.92666e-06
1.1477e-06
5.23033e-07
7.04306e-06
-5.83428e-08
1.64997e-06
-3.76455e-07
3.75301e-07
-6.82273e-07
2.17598e-07
-9.24999e-07
3.04912e-07
-1.12965e-06
4.78002e-07
-1.31958e-06
6.15289e-07
-1.48451e-06
5.29531e-07
-1.62697e-06
1.03977e-07
-1.77472e-06
-6.42712e-07
-1.9056e-06
-9.59298e-07
-1.82682e-06
5.83369e-07
-1.60097e-06
2.2395e-06
-8.7168e-07
2.16603e-06
-2.02003e-07
-1.57905e-06
1.00514e-07
-5.4003e-06
5.18253e-07
-5.98646e-06
6.39091e-07
-3.02607e-06
7.37304e-07
4.27706e-07
7.78054e-06
-1.30803e-07
1.78084e-06
-5.06828e-07
7.51323e-07
-8.61991e-07
5.72764e-07
-1.14364e-06
5.866e-07
-1.3774e-06
7.11663e-07
-1.59409e-06
8.31991e-07
-1.79229e-06
7.29805e-07
-1.98352e-06
2.94661e-07
-2.21079e-06
-4.17669e-07
-2.438e-06
-7.28129e-07
-2.19376e-06
4.34911e-07
-1.68396e-06
1.72959e-06
-8.1997e-07
1.30193e-06
-2.75641e-07
-2.15944e-06
-1.85864e-07
-5.49003e-06
4.02521e-08
-6.20861e-06
1.3352e-07
-3.08902e-06
3.25343e-07
2.36752e-07
8.10605e-06
-1.88826e-07
1.96966e-06
-6.61155e-07
1.22365e-06
-1.0586e-06
9.7021e-07
-1.36966e-06
8.97806e-07
-1.62357e-06
9.65462e-07
-1.85594e-06
1.06426e-06
-2.07274e-06
9.46321e-07
-2.28788e-06
5.09786e-07
-2.54178e-06
-1.63801e-07
-2.7559e-06
-5.12745e-07
-2.51107e-06
2.29256e-07
-1.83005e-06
1.10512e-06
-9.42437e-07
4.12966e-07
-5.58708e-07
-2.54312e-06
-6.37763e-07
-5.41093e-06
-5.81475e-07
-6.25693e-06
-4.49371e-07
-3.2076e-06
-2.01818e-07
-1.17825e-08
7.9044e-06
-3.12359e-07
2.282e-06
-8.39719e-07
1.75099e-06
-1.26248e-06
1.39296e-06
-1.59712e-06
1.23243e-06
-1.86441e-06
1.23273e-06
-2.10133e-06
1.30117e-06
-2.31494e-06
1.15993e-06
-2.52687e-06
7.21701e-07
-2.75779e-06
7.47624e-08
-2.9195e-06
-3.54015e-07
-2.68369e-06
-1.04667e-08
-1.98233e-06
4.03765e-07
-1.19722e-06
-3.72108e-07
-9.60072e-07
-2.78023e-06
-1.18564e-06
-5.18532e-06
-1.35447e-06
-6.08804e-06
-1.15682e-06
-3.39171e-06
-9.3106e-07
-2.50957e-07
6.75392e-06
6.8133e-07
-3.00798e-06
1.37501e-06
-3.04122e-06
2.05223e-06
-2.9657e-06
2.70144e-06
-2.83762e-06
3.29911e-06
-2.61769e-06
3.83204e-06
-2.34252e-06
4.2998e-06
-2.06353e-06
4.69859e-06
-1.79129e-06
5.02259e-06
-1.51171e-06
5.24933e-06
-1.18092e-06
5.36335e-06
-8.05147e-07
5.36172e-06
-4.13922e-07
5.24377e-06
-1.5278e-08
5.00721e-06
4.00358e-07
4.6638e-06
8.34755e-07
4.25824e-06
1.29677e-06
3.9036e-06
1.79727e-06
3.80044e-06
2.34397e-06
3.95884e-06
2.82022e-06
4.093e-06
3.0516e-06
3.89435e-06
3.0073e-06
3.44428e-06
2.88088e-06
2.90065e-06
3.26059e-06
6.44686e-07
-2.86266e-06
1.34071e-06
-2.94437e-06
2.0098e-06
-2.87432e-06
2.65005e-06
-2.7575e-06
3.24738e-06
-2.54747e-06
3.79442e-06
-2.28348e-06
4.28116e-06
-2.00874e-06
4.68422e-06
-1.72037e-06
4.98037e-06
-1.40962e-06
5.16247e-06
-1.06156e-06
5.23223e-06
-6.86249e-07
5.19962e-06
-3.00713e-07
5.07039e-06
7.93304e-08
4.85335e-06
4.46902e-07
4.58015e-06
8.07109e-07
4.2837e-06
1.16213e-06
4.04558e-06
1.49712e-06
3.95295e-06
1.80668e-06
3.97804e-06
2.08244e-06
3.92089e-06
2.31452e-06
3.58873e-06
2.46764e-06
2.98508e-06
2.56605e-06
2.67144e-06
2.26419e-06
3.01427e-07
-1.59427e-08
4.8618e-07
-1.04659e-08
6.74795e-07
-9.2487e-09
8.34622e-07
-3.63222e-09
1.01895e-06
-1.0685e-08
1.22776e-06
-3.04485e-08
1.41856e-06
-3.0288e-08
1.55617e-06
-2.33976e-08
1.63115e-06
-1.67316e-08
1.66852e-06
-1.14827e-08
1.68062e-06
-6.20322e-09
1.66512e-06
-8.55251e-10
1.61829e-06
2.90077e-09
1.5549e-06
2.74333e-09
1.4868e-06
3.46161e-09
1.4304e-06
5.91335e-09
1.39298e-06
1.07444e-08
1.35776e-06
2.50393e-09
1.30703e-06
0
1.23945e-06
6.7769e-10
1.10805e-06
3.55924e-09
8.757e-07
0
0
5.39775e-07
1.22532e-09
-1.9506e-08
1.20521e-09
-1.28049e-08
1.28218e-09
-1.17022e-08
7.91466e-10
-5.50404e-09
8.58672e-10
-1.32058e-08
1.61046e-09
-3.37757e-08
2.15706e-09
-3.3462e-08
2.42752e-09
-2.63152e-08
2.54884e-09
-1.95204e-08
2.62375e-09
-1.42386e-08
2.66618e-09
-8.93252e-09
2.68711e-09
-3.56821e-09
2.90417e-09
0
3.70153e-09
0
5.0896e-09
0
7.42624e-09
0
1.13662e-08
0
1.10115e-08
0
6.58418e-09
1.59304e-09
8.60132e-09
6.34447e-12
9.23973e-09
9.43271e-12
8.07256e-09
0
0
1.48845e-09
-2.464e-09
-1.55365e-08
-2.00467e-09
-1.17566e-08
-2.52153e-09
-6.87627e-09
0
-1.09329e-09
-2.53531e-09
-1.15707e-08
-6.69166e-10
-2.03716e-08
-3.47937e-10
-1.75256e-08
-1.68466e-09
-1.69265e-08
2.02443e-10
-1.3899e-08
4.8748e-09
-1.24836e-08
9.7033e-09
-9.5316e-09
1.55601e-08
-5.20369e-09
2.09232e-08
-1.14914e-09
2.43358e-08
8.08689e-10
2.48569e-08
3.69286e-09
2.40941e-08
4.96939e-09
8.54528e-09
-1.36379e-09
2.30607e-09
3.237e-09
7.39632e-09
3.2159e-10
7.58985e-09
1.25442e-09
3.02593e-09
1.69847e-09
7.21477e-10
2.76809e-09
4.05088e-09
-7.39351e-10
-1.27905e-09
-7.23034e-09
-1.46376e-09
-6.91797e-09
7.19734e-10
-8.24428e-09
3.73051e-09
-7.5402e-09
7.46596e-09
-9.09076e-09
9.69144e-10
-1.50518e-09
-2.4515e-10
-1.27996e-10
-1.07934e-09
-1.43832e-11
-1.18189e-09
-2.48238e-14
-8.55348e-10
-3.06209e-14
6.16518e-12
-5.99835e-14
1.40803e-09
-1.99462e-12
2.60886e-09
-2.87476e-12
2.84338e-09
-2.79758e-12
2.06028e-09
6.38163e-13
3.63398e-10
0
-1.00873e-09
0
-4.12654e-10
1.29151e-09
2.31602e-10
3.49234e-09
-1.27239e-09
2.42569e-10
-3.33374e-09
0
-2.22156e-09
0
2.24025e-09
-2.02023e-09
8.24134e-12
-5.5548e-15
-8.23893e-11
-6.31904e-14
4.95673e-10
-1.9003e-13
1.43071e-09
-3.31071e-14
2.09773e-10
-3.91826e-14
1.11751e-10
-2.15793e-11
6.54443e-14
-1.6208e-11
-4.91158e-15
-1.43129e-11
-9.73687e-15
-2.00544e-14
-1.14542e-14
-2.89583e-14
-1.46784e-14
-5.68151e-14
-1.88526e-14
-1.99106e-12
-2.56187e-14
-2.87764e-12
-2.84778e-12
0
-3.26631e-12
1.06666e-12
-5.89853e-12
0
-1.97337e-10
0
-9.41447e-10
0
-5.90546e-10
0
-6.19784e-10
0
-4.68718e-10
1.71574e-11
-1.13216e-09
2.38181e-10
6.22238e-10
-1.14781e-09
6.24071e-17
-9.57043e-15
2.99143e-16
-6.73782e-14
-6.22664e-17
-1.94061e-13
-8.1242e-16
-3.84064e-14
-3.54936e-14
-1.41592e-14
-2.16198e-11
-1.24501e-15
-8.15485e-12
-6.90733e-16
-3.49282e-14
-4.81432e-14
-2.67578e-14
-2.82795e-14
-3.74968e-14
-1.82752e-14
-3.61418e-13
-2.40038e-13
-7.44462e-12
-3.16348e-12
-1.16301e-11
-2.15088e-12
-1.95601e-12
2.36938e-12
-9.40994e-13
3.49851e-14
0
2.60882e-13
-3.8491e-10
1.51324e-10
-8.25603e-10
2.76389e-10
-1.20883e-09
1.2024e-10
0
0
-4.82195e-11
4.23083e-10
-6.63241e-10
6.76375e-10
4.18871e-10
-8.90254e-10
3.511e-16
-5.83677e-15
-4.95418e-15
-2.24913e-13
-1.53281e-14
-7.13595e-13
-9.54385e-15
-1.63297e-13
-1.72108e-15
-1.95253e-15
-1.79789e-15
-1.16852e-15
-1.84238e-15
-8.38255e-16
-4.86518e-14
-1.43039e-15
0
0
-1.76661e-14
-1.21125e-15
-8.52735e-12
-3.00856e-13
-2.3459e-11
-3.09211e-12
-1.70221e-11
6.31758e-13
-6.39513e-13
2.92537e-12
-6.40305e-13
2.7982e-14
0
2.4061e-13
-9.14044e-11
0
-3.57787e-10
3.00167e-13
-3.33846e-10
8.67048e-13
-3.3263e-10
1.64859e-10
-4.33985e-10
2.37988e-10
-3.28871e-10
0
0
-1.71095e-10
-3.97403e-15
-7.44775e-15
-8.53424e-14
-4.53994e-13
-8.2623e-14
-5.60832e-13
-1.35863e-15
-1.99761e-13
-1.82208e-15
-1.4894e-15
-2.00099e-15
-9.89923e-16
-2.126e-15
-7.13574e-16
-2.34422e-15
-1.2136e-15
-7.19143e-16
-1.9582e-15
0
-1.95087e-12
-6.92734e-12
-6.69829e-13
-2.5289e-11
-3.66331e-13
-1.62218e-11
1.52621e-12
-7.17562e-13
0
-7.19505e-13
2.52184e-14
-5.87252e-13
1.44199e-13
-5.3982e-13
3.43602e-14
-7.49513e-13
0
-1.37081e-11
0
-3.6353e-11
0
-2.12006e-12
0
-3.7336e-13
0
3.05374e-14
-4.03567e-13
-1.39387e-14
-5.93058e-15
-1.08638e-13
-1.90206e-13
-1.94712e-13
-3.1866e-13
-1.5513e-15
-9.84684e-14
-1.8743e-15
-1.16672e-15
-2.11277e-15
-7.51778e-16
-6.08829e-16
-2.21895e-15
-8.88884e-14
-3.95488e-13
-1.02197e-11
-1.03223e-12
-1.13736e-11
-6.56291e-13
-1.25205e-11
-1.65345e-13
-9.40116e-13
2.4583e-13
-4.93622e-14
0
-6.49663e-14
0
-6.25867e-14
1.92287e-14
-1.32673e-14
5.18742e-16
-2.44365e-14
3.47636e-15
-8.3879e-13
3.18235e-13
-6.40835e-12
9.49907e-12
-8.79786e-12
8.78915e-12
-1.42846e-12
6.94053e-12
-8.46035e-14
2.08156e-12
4.62223e-14
-1.01054e-13
-4.16461e-16
-1.10134e-15
-4.23492e-14
-3.08461e-15
-4.69272e-14
-6.92543e-15
-9.66655e-15
-2.61875e-15
-2.0035e-15
-1.60196e-15
-2.09035e-15
-6.68191e-16
-3.51243e-15
-8.96206e-16
-7.74081e-12
-2.07363e-13
-8.39896e-12
-2.29376e-13
-9.08184e-12
1.65989e-13
-2.598e-13
1.37264e-13
-2.18498e-14
1.36486e-15
-1.24764e-14
1.50424e-15
-8.63619e-15
3.29869e-15
-6.98251e-16
6.11228e-16
-3.14147e-16
1.75681e-16
-1.07147e-15
3.74698e-15
-9.79624e-12
1.9651e-12
-2.23394e-11
1.53098e-11
-2.7618e-11
1.41111e-11
-2.38039e-11
1.4117e-11
-1.10229e-13
8.62084e-12
4.15812e-14
-1.05659e-13
-5.34316e-16
-2.84897e-14
-5.34898e-17
-3.14608e-14
-6.9304e-17
-6.91933e-15
-2.64377e-15
-5.20487e-17
-3.60968e-15
-9.25333e-16
-5.51281e-17
-2.31119e-15
0
-4.04726e-15
-3.95373e-12
3.26926e-14
-7.26944e-12
9.36885e-14
-1.94088e-12
0
-2.02987e-14
0
-2.71324e-14
1.65465e-15
-1.2584e-14
4.92733e-15
-1.02098e-15
3.87663e-15
-4.33797e-16
1.60964e-16
-1.75428e-16
1.76912e-16
-6.07273e-16
4.00559e-15
-1.16239e-11
1.6473e-12
-2.60503e-11
7.28559e-12
-2.37664e-11
1.18709e-11
-1.95683e-11
9.96249e-12
-6.2337e-14
6.11416e-12
3.80005e-14
-5.88262e-14
-7.66455e-14
-8.03252e-14
-5.22263e-14
-3.27808e-13
-1.62043e-15
-1.78122e-14
-1.65229e-15
-2.49725e-17
-1.08209e-16
-5.49901e-16
0
-5.70909e-17
-3.58794e-13
7.56769e-15
-1.15939e-13
0
-1.45446e-14
0
-1.58448e-15
0
-5.04285e-15
0
-1.17983e-14
1.87099e-15
-5.90491e-15
2.35879e-15
-5.17748e-16
3.40128e-16
-3.61012e-16
1.48347e-16
-2.19251e-17
1.44824e-16
0
2.39564e-16
0
0
-1.01309e-11
0
-1.61113e-11
1.28168e-12
-6.40337e-12
1.55182e-12
-6.82656e-14
0
3.43296e-14
-6.46631e-14
-1.73552e-13
-8.89092e-14
-4.55066e-14
-1.97922e-13
-3.42283e-15
-1.16625e-14
-3.4574e-15
-6.73859e-18
-1.00106e-14
1.81895e-16
-2.15826e-14
1.59375e-15
-3.38458e-15
0
-8.80964e-16
0
-1.97314e-16
3.40953e-17
-2.76417e-16
1.54149e-17
-1.66205e-15
5.81531e-17
-1.49795e-15
1.20561e-16
-3.661e-16
3.1391e-17
-2.96048e-16
2.5275e-17
-2.8424e-16
1.00329e-16
-2.70162e-16
1.08329e-16
-2.55531e-16
1.17802e-16
-6.39237e-16
2.93235e-17
-8.73888e-14
0
-1.60919e-13
2.55703e-16
-2.54876e-14
7.07456e-17
-1.56148e-13
0
7.94917e-14
-1.46816e-13
-2.63643e-13
-4.04895e-14
-1.09221e-13
-9.43683e-14
-2.44162e-15
-7.00915e-17
-2.47867e-15
8.68816e-18
-3.86999e-15
3.6588e-16
-2.96028e-15
2.92904e-16
-6.30332e-16
5.31338e-17
-3.44681e-16
5.32987e-17
-8.28983e-17
3.94967e-17
-3.6884e-17
7.33737e-18
-5.38151e-17
9.71504e-19
-1.05529e-17
5.6154e-19
-1.86336e-17
4.06819e-18
-7.79087e-17
2.3316e-18
-1.49804e-16
2.28542e-17
-2.46976e-16
6.18377e-17
-2.61118e-16
1.09796e-16
-2.52957e-16
1.13829e-16
-3.28476e-16
1.01231e-16
-2.6686e-16
4.93553e-17
-6.83717e-17
1.91728e-17
-3.7388e-14
2.48361e-16
2.32949e-15
-8.00795e-14
-2.78984e-13
-6.96978e-14
-1.34925e-13
3.94415e-14
-8.31894e-16
3.49039e-16
-9.1128e-16
2.2904e-17
-9.08988e-16
1.56362e-16
-3.12044e-16
8.25171e-17
-1.61074e-16
1.74597e-17
-8.00366e-17
1.44966e-17
-1.31864e-17
4.60103e-18
-5.42095e-19
2.66946e-18
-1.78398e-19
1.14963e-19
3.10888e-19
2.27097e-20
-9.80197e-19
-1.20181e-19
-3.6547e-18
3.87415e-19
-4.2473e-17
1.09498e-18
-1.62841e-16
1.95346e-17
-2.7181e-16
7.63016e-17
-2.81973e-16
1.13814e-16
-2.60699e-16
1.11829e-16
-2.00605e-16
8.95396e-17
-8.44385e-17
5.58398e-17
-8.86581e-17
2.68685e-17
0
-4.69304e-16
-1.956e-13
1.26321e-13
-1.36619e-13
1.97881e-13
-2.16433e-16
8.88116e-16
-2.14166e-16
3.58806e-17
-2.03014e-16
5.1232e-17
-4.61177e-17
3.12772e-17
-1.40725e-17
2.64449e-18
-2.89822e-18
3.10351e-18
9.79645e-19
5.35271e-19
4.22725e-18
-4.13005e-19
4.95525e-18
-1.74782e-18
4.43961e-18
-2.02629e-18
2.62629e-18
-1.80696e-18
-1.83481e-19
-1.06744e-18
-1.38221e-18
7.44345e-20
-2.50612e-17
3.2719e-18
-8.49597e-17
4.99789e-18
-1.26891e-16
1.63573e-17
-1.22153e-16
2.4188e-17
-1.14967e-16
2.39837e-17
-8.35947e-17
2.97431e-17
-3.11295e-17
2.03889e-17
4.24338e-18
-1.17508e-17
-1.95978e-13
3.22657e-13
-1.75045e-13
4.09675e-13
-8.35604e-17
1.5823e-14
-8.09999e-17
4.84175e-17
-6.44275e-17
4.94026e-17
-4.58993e-18
2.50045e-17
-2.78321e-19
2.76181e-19
2.82377e-18
1.3653e-21
4.8918e-18
-1.39147e-18
6.39206e-18
-2.29337e-18
6.71732e-18
-2.87977e-18
6.14211e-18
-2.9327e-18
4.96502e-18
-2.61524e-18
3.38043e-18
-2.06968e-18
1.37988e-18
-1.38097e-18
-5.8417e-19
-5.51615e-19
-1.51476e-18
2.27884e-19
-6.21574e-18
1.32456e-18
-1.17269e-17
3.32057e-18
-1.59892e-17
6.08065e-19
-1.5303e-17
9.60894e-19
-1.07593e-17
1.48983e-18
1.4997e-18
-5.85001e-18
-1.95685e-13
5.187e-13
-2.07643e-13
4.41203e-13
-9.46996e-17
2.73632e-14
-9.14541e-17
6.04152e-17
-5.89678e-17
6.88411e-17
-2.07953e-18
2.87213e-17
1.5807e-18
2.15527e-19
3.60833e-18
-9.49233e-19
5.0678e-18
-1.99723e-18
5.81897e-18
-2.61982e-18
5.89472e-18
-2.83927e-18
5.44261e-18
-2.73775e-18
4.6672e-18
-2.42147e-18
3.73632e-18
-1.9976e-18
2.76684e-18
-1.54169e-18
1.84637e-18
-1.10111e-18
1.01851e-18
-7.08634e-19
2.09272e-19
-3.77469e-19
-4.96347e-20
-7.52671e-20
-5.22161e-20
1.7508e-20
-2.00107e-19
3.58549e-20
-4.79818e-19
1.22714e-19
2.31077e-19
-7.47634e-19
-1.88007e-13
7.07065e-13
-2.73401e-14
3.32628e-13
-1.19989e-16
1.32518e-16
-1.48966e-16
7.87467e-17
-6.85976e-17
2.19026e-16
-3.1592e-18
3.67722e-17
8.85717e-19
1.49689e-18
2.20651e-18
-6.06058e-19
3.19818e-18
-1.36773e-18
3.69482e-18
-1.82104e-18
3.8128e-18
-1.9535e-18
3.6147e-18
-1.88761e-18
3.19031e-18
-1.68633e-18
2.64749e-18
-1.40875e-18
2.08685e-18
-1.10965e-18
1.57163e-18
-8.31644e-19
1.13397e-18
-5.96479e-19
7.7965e-19
-4.1113e-19
5.11681e-19
-2.71712e-19
3.18048e-19
-1.73232e-19
1.66401e-19
-1.06136e-19
5.19754e-20
-5.5629e-20
-1.76581e-20
-2.44015e-21
-1.15928e-13
1.0105e-14
-2.16415e-16
5.10647e-14
-1.86132e-16
9.25682e-17
-3.05758e-16
3.80875e-16
-1.01844e-16
4.75482e-16
-1.02941e-17
7.30497e-17
-3.67385e-18
9.06475e-18
-7.73101e-19
3.69368e-18
8.24691e-19
1.31739e-18
1.39801e-18
-5.1956e-19
1.71586e-18
-8.05564e-19
1.79519e-18
-9.11723e-19
1.69559e-18
-8.84985e-19
1.47839e-18
-7.78914e-19
1.20996e-18
-6.34765e-19
9.4163e-19
-4.86659e-19
7.03204e-19
-3.55631e-19
5.09269e-19
-2.50317e-19
3.59751e-19
-1.71962e-19
2.46684e-19
-1.16376e-19
1.60316e-19
-7.74569e-20
9.46783e-20
-4.95694e-20
-2.9206e-20
4.91254e-20
-1.68812e-15
2.96793e-16
-1.88015e-16
1.83352e-16
-3.96964e-16
6.41647e-16
-4.42798e-16
7.5786e-16
-1.39881e-16
5.97757e-16
-2.70702e-17
1.17248e-16
-1.75777e-17
3.10053e-17
-1.17304e-17
2.02549e-17
-5.60784e-18
1.18902e-17
-1.5834e-18
4.95828e-18
2.34788e-19
1.51154e-18
5.59284e-19
-1.35406e-19
6.76838e-19
-2.94801e-19
6.63274e-19
-3.27352e-19
5.80765e-19
-2.95128e-19
4.70727e-19
-2.38208e-19
3.58603e-19
-1.78344e-19
2.61828e-19
-1.25896e-19
1.86056e-19
-8.56275e-20
1.29715e-19
-5.71379e-20
8.79958e-20
-3.78015e-20
5.61198e-20
-2.46161e-20
-1.52246e-20
3.21418e-20
-3.73519e-17
2.92172e-16
-1.80926e-16
2.41992e-16
-3.87315e-16
8.16599e-16
-3.54622e-16
9.40541e-16
-1.41547e-16
6.45801e-16
-5.03548e-17
1.43027e-16
-4.05687e-17
6.73244e-17
-3.19863e-17
5.02698e-17
-2.01412e-17
3.34835e-17
-9.47031e-18
1.78031e-17
-2.98765e-18
7.16846e-18
-4.00883e-19
1.98436e-18
1.59296e-19
3.14811e-19
2.33318e-19
-8.24204e-20
2.32564e-19
-1.09242e-19
2.01966e-19
-9.86073e-20
1.57989e-19
-7.75826e-20
1.15557e-19
-5.50339e-20
8.10541e-20
-3.6578e-20
5.55481e-20
-2.33984e-20
3.74977e-20
-1.46933e-20
2.44383e-20
-9.12744e-21
-5.47982e-21
1.43892e-20
-3.1849e-17
3.27166e-16
-1.50461e-16
2.75963e-16
-3.29496e-16
8.1437e-16
-3.42225e-16
9.48938e-16
-1.16191e-16
5.00349e-16
-6.93281e-17
1.53818e-16
-6.19417e-17
1.06238e-16
-5.26654e-17
8.42231e-17
-3.77654e-17
5.919e-17
-2.06796e-17
3.54185e-17
-8.04546e-18
1.6075e-17
-1.91299e-18
5.17149e-18
-1.63729e-19
1.01017e-18
6.17029e-20
7.53114e-20
7.86809e-20
-3.10142e-20
7.62003e-20
-3.51158e-20
6.1623e-20
-3.01125e-20
4.4988e-20
-2.14815e-20
3.07934e-20
-1.37696e-20
2.029e-20
-8.22409e-21
1.31662e-20
-4.68278e-21
8.46657e-21
-2.57958e-21
-1.35853e-21
5.06555e-21
-2.37542e-17
4.23113e-16
-7.59716e-17
2.61481e-16
-1.73919e-16
3.80936e-16
-1.67185e-16
4.26846e-16
-8.29629e-17
2.50361e-16
-7.43533e-17
1.58668e-16
-7.28935e-17
1.3318e-16
-6.45152e-17
1.13549e-16
-5.00897e-17
8.17665e-17
-3.06719e-17
5.24298e-17
-1.29655e-17
2.5659e-17
-3.14225e-18
8.39878e-18
-3.09061e-19
1.49105e-18
1.2714e-20
9.88662e-20
2.37633e-20
-7.04417e-21
2.6063e-20
-1.14403e-20
2.17282e-20
-1.0814e-20
1.57483e-20
-7.67728e-21
1.04513e-20
-4.65453e-21
6.54001e-21
-2.5115e-21
3.95847e-21
-1.21505e-21
2.39831e-21
-5.11864e-22
-1.59914e-22
1.43607e-21
-1.78804e-17
1.00653e-15
-3.13279e-17
2.74397e-16
-4.24171e-17
3.91492e-16
-5.17788e-17
3.57207e-16
-5.80458e-17
1.8474e-16
-6.34015e-17
1.56033e-16
-6.76767e-17
1.40938e-16
-6.55834e-17
1.28257e-16
-5.33063e-17
9.91005e-17
-3.45092e-17
6.45562e-17
-1.46389e-17
3.21552e-17
-3.13268e-18
9.87206e-18
-2.42489e-19
1.51959e-18
2.37104e-21
8.91313e-20
6.87256e-21
-1.5006e-21
8.21508e-21
-3.69231e-21
6.9843e-21
-3.68684e-21
5.01746e-21
-2.55206e-21
3.21574e-21
-1.42951e-21
1.89402e-21
-6.57948e-22
1.04855e-21
-2.28451e-22
5.68777e-22
-2.81661e-23
1.49381e-23
3.31072e-22
-1.43708e-17
4.74297e-15
-2.45457e-17
2.84039e-16
-3.19073e-17
3.98322e-16
-3.79389e-17
3.62706e-16
-4.32907e-17
1.8944e-16
-4.81936e-17
1.58665e-16
-5.45194e-17
1.44103e-16
-5.53487e-17
1.32205e-16
-4.75096e-17
1.07082e-16
-3.1251e-17
6.97682e-17
-1.26615e-17
3.40088e-17
-2.30745e-18
9.94521e-18
-1.14002e-19
1.25317e-18
4.86318e-22
3.50755e-20
1.98424e-21
-3.69565e-22
2.42461e-21
-1.24934e-21
2.05511e-21
-1.2313e-21
1.43464e-21
-8.03044e-22
8.75699e-22
-3.93148e-22
4.81013e-22
-1.32917e-22
2.41296e-22
-7.10168e-24
1.1308e-22
1.1808e-23
1.30262e-23
6.03279e-23
0
1.40098e-14
-7.41265e-14
5.413e-13
-1.11814e-13
3.6048e-12
-2.22918e-14
2.90655e-12
-3.95307e-17
1.17358e-13
-3.52985e-17
1.59243e-16
-3.88857e-17
1.42211e-16
-3.81743e-17
1.34613e-16
-3.546e-17
1.08891e-16
-2.33546e-17
7.07946e-17
-8.90763e-18
3.41507e-17
-1.20061e-18
8.69066e-18
-3.12937e-20
6.90643e-19
8.84646e-23
8.81342e-21
5.32122e-22
-8.69507e-23
6.48177e-22
-4.23169e-22
5.34578e-22
-4.00652e-22
3.56489e-22
-2.37313e-22
2.04377e-22
-9.37286e-23
1.03101e-22
-1.22771e-23
4.58505e-23
6.21774e-24
1.75114e-23
7.60172e-24
5.885e-24
6.70796e-24
0
1.73829e-14
-8.12887e-14
1.43357e-12
-1.97163e-13
3.72837e-12
-1.81733e-13
3.29444e-12
-2.93542e-17
9.36179e-13
-2.71398e-17
1.61858e-16
-2.33177e-17
1.43242e-16
-2.47555e-17
1.35313e-16
-2.19062e-17
1.05992e-16
-1.40949e-17
6.77409e-17
-4.53585e-18
2.92467e-17
-3.92419e-19
5.62821e-18
-4.85181e-21
2.6093e-19
8.85301e-24
1.39439e-21
1.32385e-22
-1.27476e-23
1.52122e-22
-1.5113e-22
1.17265e-22
-1.30555e-22
7.21375e-23
-6.69656e-23
3.70439e-23
-1.81636e-23
1.58137e-23
1.77284e-24
5.17923e-24
3.6775e-24
7.69525e-25
3.16258e-24
2.10064e-24
-1.25334e-24
2.8176e-15
1.73019e-14
1.301e-15
1.16263e-12
-1.38661e-14
3.75181e-12
-1.39444e-14
3.30334e-12
-1.40416e-17
9.68144e-13
-1.10379e-17
1.63707e-16
-8.0306e-18
1.45103e-16
-9.44423e-18
1.30072e-16
-8.72193e-18
9.74896e-17
-5.33874e-18
5.73962e-17
-1.33747e-18
2.06401e-17
-6.87379e-20
2.73872e-18
-3.67919e-22
6.74007e-20
4.37992e-25
1.38251e-22
2.65474e-23
-1.20881e-24
2.6215e-23
-5.76119e-23
1.7561e-23
-4.24436e-23
8.83179e-24
-1.81191e-23
3.09159e-24
-2.15054e-24
2.78545e-25
1.26638e-24
-1.32096e-24
1.44505e-24
-1.5828e-24
1.04528e-24
6.18692e-25
-1.24109e-24
3.18021e-15
1.68889e-14
3.34446e-14
3.10712e-13
1.65864e-13
3.62796e-12
1.55146e-13
3.32317e-12
0
3.71904e-13
1.41613e-17
4.77367e-16
5.65036e-18
1.4307e-16
4.05609e-18
1.21121e-16
1.78002e-18
8.39185e-17
3.97574e-19
4.31777e-17
-3.71972e-21
1.17438e-17
-1.08251e-21
9.1753e-19
-4.11927e-24
1.01736e-20
4.85422e-25
8.30076e-24
8.75073e-25
-1.20353e-23
1.03995e-25
-2.20019e-23
-1.04911e-24
-1.37214e-23
-1.95101e-24
-4.75565e-24
-2.17156e-24
7.32677e-26
-1.86159e-24
5.03538e-25
-1.3362e-24
4.50052e-25
-8.41019e-25
2.85956e-25
1.52209e-25
-4.77949e-25
3.1588e-15
1.76217e-14
5.3556e-14
2.09243e-14
1.5557e-13
4.66539e-15
3.94353e-14
0
0
1.54177e-16
4.7561e-18
4.56224e-16
1.69135e-17
1.58488e-16
1.33729e-17
1.0841e-16
7.95252e-18
6.54378e-17
2.86595e-18
2.71958e-17
3.38585e-19
4.75154e-18
5.79302e-21
1.74243e-19
7.88785e-24
7.05039e-22
6.48741e-25
2.26914e-25
-1.92821e-24
-7.83212e-24
-3.00415e-24
-8.25658e-24
-2.86358e-24
-4.39518e-24
-2.23446e-24
-1.22805e-24
-1.53063e-24
7.01423e-26
-9.43753e-25
1.52299e-25
-5.28999e-25
1.15603e-25
-2.72832e-25
6.52475e-26
3.11403e-26
-1.30855e-25
1.20382e-15
1.76944e-14
1.14796e-15
8.42972e-15
8.76263e-16
1.08691e-16
3.28564e-16
2.00505e-17
6.43356e-17
2.18238e-16
5.18478e-17
2.68863e-16
2.62245e-17
1.60388e-16
1.71723e-17
8.68781e-17
8.78699e-18
4.28506e-17
2.2092e-18
1.23726e-17
1.25378e-19
1.09071e-18
7.50544e-22
1.42945e-20
3.20921e-25
1.74464e-23
3.83849e-26
1.03703e-25
-1.7628e-24
-3.74533e-24
-2.00434e-24
-3.00721e-24
-1.56514e-24
-1.37576e-24
-1.02278e-24
-3.17307e-25
-5.93513e-25
2.41833e-26
-3.11941e-25
3.71527e-26
-1.50022e-25
2.45921e-26
-6.67549e-26
1.23106e-26
5.2183e-27
-2.77459e-26
1.64403e-15
1.61726e-14
1.3172e-15
1.13189e-14
3.44586e-16
3.52404e-15
1.6858e-16
1.35801e-15
8.86733e-17
5.96421e-16
4.93835e-17
2.58766e-16
2.77261e-17
1.17028e-16
1.47684e-17
5.48401e-17
5.50368e-18
1.98475e-17
7.2599e-19
3.15129e-18
1.45363e-20
1.04937e-19
2.46781e-23
4.0309e-22
2.71669e-24
1.66741e-25
-3.55935e-25
-7.04465e-25
-1.07431e-24
-1.69507e-24
-9.32158e-25
-1.05972e-24
-6.1075e-25
-4.16176e-25
-3.44007e-25
-8.30443e-26
-1.7369e-25
5.72089e-27
-7.94564e-26
7.38706e-27
-3.32147e-26
4.29185e-27
-1.282e-26
1.88791e-27
7.00176e-28
-4.61263e-27
1.6435e-15
8.40402e-15
1.97717e-15
9.47412e-15
8.64907e-16
5.20501e-15
3.85481e-16
2.275e-15
1.39985e-16
8.43122e-16
4.64309e-17
2.60729e-16
1.95933e-17
7.45762e-17
7.81456e-18
2.38885e-17
1.68736e-18
4.92766e-18
8.5841e-20
3.16167e-19
4.83919e-22
3.13435e-21
2.43662e-25
3.65262e-24
4.67622e-26
9.16519e-26
-4.05662e-25
-6.83888e-25
-5.24268e-25
-7.15735e-25
-3.6057e-25
-3.62277e-25
-1.95445e-25
-1.21149e-25
-9.36329e-26
-2.17906e-26
-4.08188e-26
1.00136e-27
-1.61582e-26
1.19186e-27
-5.8267e-27
6.04833e-28
-1.93051e-27
2.29938e-28
7.3006e-29
-5.93194e-28
7.5658e-16
1.00271e-15
1.48309e-15
2.48575e-15
1.07394e-15
2.99031e-15
4.85271e-16
1.97747e-15
1.53358e-16
7.66906e-16
3.71894e-17
1.91591e-16
9.07691e-18
3.46229e-17
2.00967e-18
5.57815e-18
1.84509e-19
4.61008e-19
2.82588e-21
9.08269e-21
4.39195e-24
2.63748e-23
7.13466e-25
1.47601e-26
-5.62337e-26
-1.01103e-25
-2.49332e-25
-3.91215e-25
-2.23119e-25
-2.89101e-25
-1.23858e-25
-1.21272e-25
-5.41959e-26
-3.40454e-26
-2.13788e-26
-5.57156e-27
-7.8449e-27
1.26576e-28
-2.63463e-27
1.54619e-28
-8.03596e-28
6.74659e-29
-2.23681e-28
2.15771e-29
5.67778e-30
-5.73157e-29
6.88481e-17
9.40714e-18
3.5559e-16
8.8531e-17
4.78079e-16
3.73193e-16
3.22486e-16
4.42187e-16
1.03039e-16
2.49842e-16
1.77507e-17
6.20834e-17
2.1556e-18
7.30759e-18
1.90503e-19
4.83021e-19
5.57447e-21
1.24453e-20
2.45029e-23
7.28132e-23
1.64278e-26
9.39233e-26
5.10944e-27
9.72428e-27
-8.47814e-26
-1.47969e-25
-1.24647e-25
-1.93229e-25
-8.62343e-26
-1.13071e-25
-3.91692e-26
-4.01067e-26
-1.34938e-26
-9.31465e-27
-4.1983e-27
-1.35543e-27
-1.24387e-27
9.69462e-30
-3.42425e-28
1.61006e-29
-8.54233e-29
5.82865e-30
-1.9283e-29
1.49493e-30
3.08983e-31
-3.96943e-30
5.93456e-19
2.72928e-21
1.21278e-17
2.76685e-19
4.73013e-17
5.64932e-18
5.09879e-17
1.50044e-17
2.34897e-17
1.37454e-17
3.47889e-18
4.4509e-18
2.04622e-19
4.15345e-19
5.74507e-21
1.18724e-20
4.94273e-23
1.04458e-22
8.96725e-26