/*--------------------------------*- C++ -*----------------------------------*\
  =========                 |
  \\      /  F ield         | OpenFOAM: The Open Source CFD Toolbox
   \\    /   O peration     | Website:  https://openfoam.org
    \\  /    A nd           | Version:  9
     \\/     M anipulation  |
\*---------------------------------------------------------------------------*/
FoamFile
{
    format      ascii;
    class       surfaceScalarField;
    location    "9.86";
    object      alphaPhi0.water;
}
// * * * * * * * * * * * * * * * * * * * * * * * * * * * * * * * * * * * * * //

dimensions      [0 3 -1 0 0 0 0];

internalField   nonuniform List<scalar> 
4432
(
-1.10448e-07
1.10448e-07
-2.00162e-07
8.9713e-08
-2.73208e-07
7.30468e-08
-3.31856e-07
5.86478e-08
-3.75687e-07
4.38293e-08
-4.04495e-07
2.88069e-08
-4.18563e-07
1.40679e-08
-4.20375e-07
1.81314e-09
-4.13784e-07
-6.59153e-09
-3.9957e-07
-1.42146e-08
-3.73004e-07
-2.65664e-08
-3.26458e-07
-4.6546e-08
-2.48366e-07
-7.80924e-08
-1.35234e-07
-1.13133e-07
-7.34857e-10
-1.34501e-07
1.07904e-07
-1.0864e-07
1.21579e-07
-1.36765e-08
4.10145e-08
8.05622e-08
-2.20669e-07
2.61737e-07
-5.99504e-07
3.78576e-07
-7.06778e-07
1.06597e-07
-5.34987e-07
-1.71786e-07
-5.35027e-07
-1.02478e-07
2.12925e-07
-1.87729e-07
1.74963e-07
-2.61067e-07
1.46384e-07
-3.22319e-07
1.19898e-07
-3.70601e-07
9.21092e-08
-4.05012e-07
6.32184e-08
-4.26219e-07
3.52742e-08
-4.35966e-07
1.15598e-08
-4.36486e-07
-6.07162e-09
-4.2855e-07
-2.21515e-08
-4.09896e-07
-4.52203e-08
-3.74861e-07
-8.15829e-08
-3.17078e-07
-1.35877e-07
-2.3429e-07
-1.95923e-07
-1.38034e-07
-2.30759e-07
-6.19071e-08
-1.8477e-07
-5.10297e-08
-2.45577e-08
-1.10436e-07
1.39987e-07
-2.31788e-07
3.82945e-07
-3.65747e-07
5.12277e-07
-4.35208e-07
1.75732e-07
-3.92867e-07
-2.14124e-07
-9.27895e-07
-9.58391e-08
3.08765e-07
-1.79571e-07
2.58694e-07
-2.54427e-07
2.21239e-07
-3.1902e-07
1.8449e-07
-3.71748e-07
1.44836e-07
-4.11609e-07
1.03079e-07
-4.38795e-07
6.24594e-08
-4.54874e-07
2.76389e-08
-4.61915e-07
9.68777e-10
-4.60432e-07
-2.36347e-08
-4.49352e-07
-5.6301e-08
-4.24761e-07
-1.06174e-07
-3.82352e-07
-1.78288e-07
-3.19949e-07
-2.58328e-07
-2.4501e-07
-3.05697e-07
-1.82704e-07
-2.4708e-07
-1.72022e-07
-3.52428e-08
-2.11578e-07
1.79641e-07
-2.36965e-07
4.09026e-07
-2.44284e-07
5.19337e-07
-2.73066e-07
2.04406e-07
-2.73677e-07
-2.13508e-07
-1.20157e-06
-9.09901e-08
3.99755e-07
-1.74863e-07
3.42566e-07
-2.52121e-07
2.98496e-07
-3.20507e-07
2.52875e-07
-3.77866e-07
2.02194e-07
-4.23095e-07
1.48307e-07
-4.5626e-07
9.56243e-08
-4.78594e-07
4.99725e-08
-4.91953e-07
1.4327e-08
-4.97192e-07
-1.83964e-08
-4.93848e-07
-5.96459e-08
-4.79554e-07
-1.2047e-07
-4.50777e-07
-2.07066e-07
-4.04591e-07
-3.04516e-07
-3.43061e-07
-3.67213e-07
-2.83694e-07
-3.06451e-07
-2.65891e-07
-5.30592e-08
-2.84234e-07
1.98087e-07
-2.51962e-07
3.77317e-07
-1.85012e-07
4.52128e-07
-1.73266e-07
1.92633e-07
-1.8768e-07
-1.99091e-07
-1.38925e-06
-8.77912e-08
4.87546e-07
-1.72768e-07
4.27542e-07
-2.53137e-07
3.78865e-07
-3.25815e-07
3.25552e-07
-3.88219e-07
2.64597e-07
-4.3924e-07
1.99327e-07
-4.78761e-07
1.35145e-07
-5.07652e-07
7.88634e-08
-5.27686e-07
3.43602e-08
-5.39847e-07
-6.23677e-09
-5.44417e-07
-5.50773e-08
-5.40121e-07
-1.24767e-07
-5.24026e-07
-2.23162e-07
-4.9203e-07
-3.36514e-07
-4.40811e-07
-4.18399e-07
-3.77418e-07
-3.69689e-07
-3.45177e-07
-8.53469e-08
-3.39096e-07
1.91938e-07
-2.76908e-07
3.15452e-07
-1.62877e-07
3.38499e-07
-1.17275e-07
1.47009e-07
-1.2547e-07
-1.90798e-07
-1.51443e-06
-8.56259e-08
5.73171e-07
-1.72751e-07
5.14665e-07
-2.56919e-07
4.63033e-07
-3.34397e-07
4.03029e-07
-4.02362e-07
3.32562e-07
-4.59764e-07
2.56729e-07
-5.06251e-07
1.81631e-07
-5.42224e-07
1.14837e-07
-5.69298e-07
6.14332e-08
-5.88517e-07
1.29818e-08
-6.00791e-07
-4.28049e-08
-6.05854e-07
-1.19705e-07
-6.01422e-07
-2.27596e-07
-5.82794e-07
-3.55143e-07
-5.42831e-07
-4.58364e-07
-4.72778e-07
-4.3943e-07
-4.17529e-07
-1.40938e-07
-3.86149e-07
1.60563e-07
-3.05005e-07
2.34311e-07
-1.71324e-07
2.04912e-07
-9.67869e-08
7.26858e-08
-4.61874e-08
-2.40439e-07
-1.55982e-06
-8.37117e-08
6.56882e-07
-1.74433e-07
6.05385e-07
-2.62994e-07
5.51593e-07
-3.45614e-07
4.85649e-07
-4.19645e-07
4.06594e-07
-4.84111e-07
3.21195e-07
-5.38297e-07
2.35818e-07
-5.81962e-07
1.58503e-07
-6.16433e-07
9.59053e-08
-6.42603e-07
3.9153e-08
-6.61985e-07
-2.34229e-08
-6.75168e-07
-1.06522e-07
-6.80957e-07
-2.21808e-07
-6.75003e-07
-3.61099e-07
-6.48478e-07
-4.84891e-07
-5.80988e-07
-5.06003e-07
-4.92432e-07
-2.2705e-07
-4.20359e-07
8.55295e-08
-3.31179e-07
1.45134e-07
-2.00191e-07
7.41833e-08
-8.68559e-08
-4.01211e-08
6.55806e-08
-3.92887e-07
-1.49445e-06
-8.44073e-08
7.41288e-07
-1.78258e-07
6.99235e-07
-2.70634e-07
6.43968e-07
-3.58414e-07
5.7343e-07
-4.38966e-07
4.87149e-07
-5.1122e-07
3.93454e-07
-5.73894e-07
2.98497e-07
-6.25908e-07
2.10523e-07
-6.68079e-07
1.38081e-07
-7.00816e-07
7.18941e-08
-7.2624e-07
2.00369e-09
-7.45514e-07
-8.7246e-08
-7.59159e-07
-2.08162e-07
-7.63847e-07
-3.56412e-07
-7.50594e-07
-4.98145e-07
-7.02566e-07
-5.52952e-07
-5.78679e-07
-3.47012e-07
-4.52121e-07
-4.3038e-08
-3.48361e-07
3.94102e-08
-2.26184e-07
-4.7039e-08
-6.40852e-08
-2.03589e-07
1.67386e-07
-6.25473e-07
-1.32736e-06
-6.04007e-07
6.04048e-07
-4.971e-07
-1.06842e-07
9.0744e-08
-5.88031e-07
6.2536e-07
-5.34803e-07
1.01197e-06
-3.86626e-07
1.30734e-06
-2.95374e-07
1.49336e-06
-1.91552e-07
1.5701e-06
-7.83171e-08
1.60379e-06
-3.42002e-08
1.70943e-06
-1.07679e-07
1.57925e-06
1.29368e-07
7.98392e-07
7.80043e-07
8.57017e-08
7.13201e-07
-3.49371e-08
1.20639e-07
-1.19968e-08
-2.29404e-08
-1.61727e-07
1.4973e-07
-4.85692e-07
3.23965e-07
-5.1415e-07
2.84572e-08
-5.14151e-07
-4.29681e-07
1.03366e-06
-1.88782e-07
-3.47771e-07
2.43944e-07
-1.0208e-06
6.16554e-07
-9.07418e-07
8.89576e-07
-6.59654e-07
1.07129e-06
-4.77087e-07
1.19573e-06
-3.15994e-07
1.269e-06
-1.51588e-07
1.25087e-06
-1.60771e-08
1.17625e-06
-3.30558e-08
1.09621e-06
2.04945e-07
8.05493e-07
1.07e-06
4.2049e-07
1.09911e-06
2.33752e-07
3.08004e-07
1.07542e-07
1.0327e-07
-1.09289e-07
3.66561e-07
-4.49551e-07
6.63976e-07
-5.44818e-07
1.23312e-07
-1.0598e-06
-2.30239e-07
1.26382e-06
4.88988e-08
-6.25194e-07
3.69967e-07
-1.34173e-06
6.24233e-07
-1.16168e-06
8.12815e-07
-8.48242e-07
9.38782e-07
-6.03064e-07
1.02629e-06
-4.03519e-07
1.06756e-06
-1.92854e-07
1.01362e-06
3.78385e-08
8.77314e-07
1.03252e-07
7.56281e-07
3.23326e-07
7.04789e-07
1.12077e-06
5.72769e-07
1.23042e-06
4.0651e-07
4.77284e-07
2.08198e-07
3.01581e-07
-3.60023e-08
6.10831e-07
-3.46495e-07
9.74353e-07
-4.59562e-07
2.36263e-07
-1.51926e-06
-3.82848e-08
1.29566e-06
2.63853e-07
-9.28106e-07
4.85636e-07
-1.56264e-06
6.39085e-07
-1.31512e-06
7.57147e-07
-9.66306e-07
8.38002e-07
-6.83988e-07
8.95989e-07
-4.61626e-07
9.15659e-07
-2.12519e-07
8.43608e-07
1.09765e-07
6.95234e-07
2.51333e-07
5.68989e-07
4.49031e-07
6.14833e-07
1.07647e-06
6.34325e-07
1.2102e-06
5.09489e-07
6.06661e-07
2.94e-07
5.17079e-07
5.18746e-08
8.52977e-07
-2.00018e-07
1.22594e-06
-2.94749e-07
3.31661e-07
-1.81458e-06
2.19924e-07
1.07402e-06
4.90909e-07
-1.19625e-06
5.88943e-07
-1.66067e-06
6.53503e-07
-1.37968e-06
7.1152e-07
-1.02432e-06
7.5347e-07
-7.26096e-07
7.87008e-07
-4.9533e-07
7.92625e-07
-2.1844e-07
7.18285e-07
1.84006e-07
5.82533e-07
3.87032e-07
4.78437e-07
5.53204e-07
5.47749e-07
1.00734e-06
6.33528e-07
1.13159e-06
5.39026e-07
7.01784e-07
3.65263e-07
6.88426e-07
1.74853e-07
1.04341e-06
-2.27345e-08
1.42355e-06
-1.05046e-07
4.13376e-07
-1.9202e-06
5.2984e-07
5.44057e-07
6.84376e-07
-1.3479e-06
6.6853e-07
-1.64483e-06
6.60926e-07
-1.37208e-06
6.70692e-07
-1.03409e-06
6.79347e-07
-7.34746e-07
6.92199e-07
-5.08179e-07
6.93035e-07
-2.19517e-07
6.27113e-07
2.49789e-07
5.15497e-07
4.98703e-07
4.43913e-07
6.24788e-07
5.1239e-07
9.38857e-07
5.93987e-07
1.04999e-06
5.15173e-07
7.806e-07
4.00027e-07
7.98991e-07
3.13037e-07
1.12441e-06
2.02728e-07
1.52917e-06
9.85606e-08
5.1722e-07
-1.82175e-06
7.85296e-07
-2.39996e-07
8.08273e-07
-1.36963e-06
7.12686e-07
-1.54926e-06
6.56429e-07
-1.31582e-06
6.31294e-07
-1.00896e-06
6.121e-07
-7.15552e-07
6.05032e-07
-5.01221e-07
6.08735e-07
-2.23567e-07
5.61002e-07
2.96125e-07
4.79448e-07
5.80255e-07
4.37835e-07
6.66401e-07
4.99028e-07
8.77664e-07
5.57108e-07
9.91912e-07
4.78497e-07
8.59212e-07
4.15267e-07
8.60382e-07
4.39685e-07
1.09703e-06
4.3338e-07
1.53251e-06
3.30688e-07
6.21198e-07
-1.49118e-06
8.15455e-07
-1.05662e-06
8.32334e-07
-1.38661e-06
7.17184e-07
-1.43412e-06
6.37403e-07
-1.23605e-06
5.91418e-07
-9.62983e-07
5.51e-07
-6.75134e-07
5.22025e-07
-4.72241e-07
5.23532e-07
-2.27414e-07
5.12018e-07
3.03804e-07
4.70098e-07
6.21773e-07
4.50302e-07
6.86197e-07
5.06296e-07
8.2167e-07
5.4194e-07
9.56269e-07
4.63529e-07
9.26415e-07
4.59256e-07
8.58365e-07
5.16663e-07
1.04614e-06
6.23621e-07
1.43464e-06
5.4116e-07
7.03871e-07
-9.50134e-07
-1.74309e-07
9.15596e-07
-3.85543e-07
9.10472e-07
-5.97481e-07
8.55904e-07
-8.03166e-07
7.7911e-07
-9.98078e-07
6.82056e-07
-1.18028e-06
5.75652e-07
-1.34487e-06
4.63078e-07
-1.48511e-06
3.50757e-07
-1.60165e-06
2.54617e-07
-1.69194e-06
1.62176e-07
-1.75815e-06
6.82013e-08
-1.811e-06
-3.43994e-08
-1.85374e-06
-1.65426e-07
-1.88418e-06
-3.25973e-07
-1.89082e-06
-4.91496e-07
-1.82167e-06
-6.21987e-07
-1.56443e-06
-6.03665e-07
-1.18307e-06
-4.15873e-07
-8.05256e-07
-3.41447e-07
-4.42413e-07
-4.11746e-07
-3.82556e-08
-6.12793e-07
2.31374e-07
-8.96848e-07
-1.19576e-06
1.0094e-07
-2.03811e-07
8.03738e-07
-4.10552e-07
8.00357e-07
-5.96341e-07
7.46151e-07
-8.05647e-07
7.10583e-07
-1.03209e-06
6.57113e-07
-1.25129e-06
5.77568e-07
-1.4571e-06
4.87655e-07
-1.64577e-06
3.95513e-07
-1.80203e-06
3.02594e-07
-1.91347e-06
2.02174e-07
-1.97875e-06
9.91279e-08
-2.00502e-06
-6.99479e-09
-2.01192e-06
-1.27711e-07
-2.0137e-06
-2.62587e-07
-2.01335e-06
-4.02008e-07
-1.98404e-06
-5.3829e-07
-1.81104e-06
-6.34735e-07
-1.42841e-06
-6.51657e-07
-9.21134e-07
-6.95534e-07
-4.03796e-07
-7.68069e-07
2.48807e-08
-8.7626e-07
3.01396e-07
-9.85588e-07
-1.0959e-06
4.10316e-07
-1.03352e-07
3.48729e-11
-1.80473e-07
0
-2.67803e-07
0
-3.32355e-07
7.34651e-09
-3.90397e-07
1.46828e-08
-4.59571e-07
1.48458e-08
-5.40059e-07
9.97209e-09
-6.19839e-07
6.40643e-09
-6.87375e-07
3.32439e-09
-7.38804e-07
1.02854e-09
-7.69519e-07
0
-7.74987e-07
-4.50173e-09
-7.67255e-07
-5.03261e-10
-7.59455e-07
-7.68313e-10
-7.56175e-07
-1.06134e-09
-7.5651e-07
-1.56921e-09
-7.30077e-07
-2.46999e-09
-5.93675e-07
-2.26593e-09
-3.92446e-07
-8.35289e-10
-1.72982e-07
-9.87159e-10
1.45316e-08
-1.43918e-09
1.21941e-07
-1.2983e-09
-6.46089e-10
1.76341e-07
4.34262e-11
8.19972e-14
-5.05852e-12
0
-1.26423e-09
0
-1.92901e-09
0
-1.50336e-09
0
-1.31947e-09
0
-1.35277e-09
0
-1.07675e-09
0
-8.36403e-10
0
-7.22377e-10
0
-4.05392e-10
0
-3.94859e-10
-1.41577e-10
-3.8106e-10
-6.8642e-10
-3.74195e-10
-9.41327e-10
-3.70005e-10
-1.22689e-09
-3.50102e-10
-1.74416e-09
-2.7824e-10
-2.68983e-09
-1.95788e-10
-2.49222e-09
-1.62457e-10
-1.01288e-09
-8.78908e-11
-1.20607e-09
1.53543e-11
-1.68432e-09
9.36613e-11
-1.51715e-09
-7.64099e-10
7.07288e-11
-7.51224e-11
1.31302e-10
-2.58458e-10
1.99836e-10
-5.32242e-10
1.12218e-10
-3.25984e-09
2.40092e-10
-2.74856e-09
-4.37952e-11
-2.72241e-09
4.6726e-10
-2.6329e-09
8.95682e-10
-2.96615e-09
2.81134e-10
-2.50038e-09
1.08129e-10
-2.00645e-09
8.04714e-11
-1.46934e-09
-3.23318e-13
-5.92159e-10
-5.29062e-11
2.67767e-10
-8.01109e-11
7.3081e-10
-7.87618e-11
1.23558e-09
-8.02268e-11
1.15202e-09
-1.45359e-11
4.37106e-10
-4.86847e-14
1.51418e-10
-1.2468e-09
5.0328e-12
-2.86386e-10
4.16308e-10
-4.90663e-10
1.98189e-10
-9.77331e-10
9.83199e-11
-9.28468e-10
3.28547e-11
0
-2.07672e-10
0
-1.82425e-10
0
2.73329e-10
2.42672e-10
1.93749e-10
0
-3.75294e-13
2.07587e-12
-2.42155e-11
1.88782e-12
-6.44618e-12
1.92909e-13
-4.86216e-13
0
-3.48828e-13
-9.04651e-16
-4.57581e-14
-3.07794e-14
-4.61784e-14
-1.80901e-12
1.87454e-15
-5.44437e-11
5.71682e-14
-8.03347e-11
8.18907e-14
-7.8886e-11
8.13164e-14
-8.02256e-11
1.70868e-14
-1.44406e-11
1.70604e-15
-1.78475e-14
-4.49616e-11
-5.21601e-12
-3.4916e-11
-8.77958e-11
-1.20896e-10
-5.48809e-11
-2.52379e-10
-1.81399e-10
-2.26645e-10
-3.27088e-10
0
-4.55943e-11
-6.83197e-14
0
-6.35025e-12
1.15221e-15
1.14958e-11
0
1.24093e-13
0
-1.50119e-14
1.51252e-13
-1.99767e-14
0
-7.53906e-15
0
-1.26176e-14
0
-2.32881e-14
9.4515e-15
-5.1122e-14
-3.25996e-15
-2.55971e-12
-1.22575e-12
4.11456e-13
-3.42137e-11
1.28552e-11
-4.95705e-11
1.25813e-11
-3.54155e-11
1.01708e-11
-3.36883e-11
1.39429e-14
-6.41519e-12
-2.92814e-16
-3.60987e-15
-5.21242e-12
-3.87906e-15
-2.81289e-13
-2.45907e-15
-5.18441e-13
-1.78878e-15
-3.77842e-11
-9.14984e-15
-1.17384e-10
-1.54596e-12
-1.93637e-11
-3.99482e-11
-2.3746e-16
3.92343e-15
-2.49093e-15
4.14487e-15
-1.02391e-14
1.78066e-15
-1.28693e-13
4.43057e-13
-2.92445e-13
2.63959e-12
-6.42226e-14
2.46318e-12
-2.41613e-14
1.02712e-12
-8.75573e-14
1.07301e-12
-4.61258e-14
2.13353e-13
0
-1.93672e-13
6.61518e-14
-4.54719e-13
-1.16639e-12
-1.77854e-15
-2.41346e-12
-6.60765e-14
-1.9545e-12
-2.10663e-12
-3.79068e-12
-1.10665e-11
-3.33536e-15
-1.0307e-11
-4.66748e-15
-2.2754e-15
-7.27692e-15
-1.26697e-15
-9.53317e-15
-2.00557e-16
-1.13023e-14
-1.67396e-17
-1.69326e-14
-3.51582e-15
-1.54788e-12
-1.49625e-14
-1.43545e-12
-2.82156e-12
-1.81521e-16
5.65044e-15
-3.41025e-16
4.93488e-15
-1.51548e-15
4.0981e-15
-5.63749e-13
6.10427e-13
-5.75073e-13
2.7219e-12
-4.73291e-13
2.42479e-12
-1.67177e-13
2.95343e-12
-4.14758e-13
1.20209e-12
-4.61278e-13
3.24019e-13
-2.3223e-13
-4.48687e-13
-1.10087e-16
-2.56205e-16
-2.75541e-16
-5.80077e-15
-2.2085e-15
-6.83257e-14
-2.09477e-12
-1.83453e-14
-5.76135e-12
-1.5444e-12
-1.21066e-13
-3.23209e-12
-8.76527e-15
-1.14575e-13
-1.03236e-14
2.93579e-16
-1.18644e-14
1.34321e-15
-1.32429e-14
1.36398e-15
-1.63086e-14
-4.48941e-16
0
-5.42074e-13
-1.5237e-11
-2.39948e-11
-1.8312e-16
6.74915e-15
-9.09162e-17
5.43913e-15
0
4.52741e-15
-2.59354e-13
7.46267e-14
-7.08579e-13
1.16059e-12
-5.55542e-13
2.33514e-12
-2.3033e-13
6.28282e-13
-7.72807e-13
5.50937e-13
-7.6047e-13
3.75828e-13
-2.01013e-15
-3.34034e-13
-2.01028e-15
-1.45021e-16
-4.12354e-14
-5.10373e-16
-1.35259e-14
-3.68422e-13
0
0
-8.14856e-13
0
-1.00727e-12
-1.17072e-13
-1.1015e-14
-2.47107e-14
-1.18546e-14
1.13464e-15
-1.26936e-14
2.18435e-15
-1.36553e-14
2.32571e-15
-1.51314e-14
1.01253e-15
-1.80451e-11
-6.85834e-13
-2.49487e-11
-5.21822e-11
-1.02176e-16
7.3553e-15
-2.5061e-16
5.58583e-15
-8.43777e-16
5.11828e-15
-8.66025e-15
3.86727e-15
-3.06469e-13
0
-1.36976e-13
3.71445e-13
-4.79421e-14
0
-8.14707e-13
3.96499e-13
-8.04922e-13
4.30189e-13
-8.61639e-16
5.85022e-15
-8.35447e-16
-7.17394e-17
-7.94516e-16
-4.40276e-16
-2.09006e-12
-5.46959e-13
-3.05017e-12
-4.31833e-12
-3.43657e-13
-2.77475e-12
-8.65246e-14
-2.90129e-13
-2.64612e-14
-1.22563e-16
-3.26328e-14
2.93096e-15
-1.79633e-14
5.06234e-15
0
4.20934e-15
0
1.57442e-15
-1.63929e-11
-1.00869e-13
-9.72791e-12
-4.19e-11
-3.07347e-17
1.1455e-14
-1.02992e-16
5.65632e-15
-1.76929e-16
5.19033e-15
-3.91758e-16
4.07953e-15
-1.06321e-14
1.51884e-15
-7.62451e-15
3.96738e-15
0
5.86052e-14
-6.5517e-13
5.34261e-13
-6.77668e-13
5.09004e-13
-1.11883e-15
6.06199e-14
-1.1077e-15
6.48149e-18
-1.29842e-15
-1.5406e-16
-7.34854e-12
-3.02153e-13
-8.24203e-12
-2.97884e-12
-7.3425e-12
-3.21012e-12
-3.08556e-14
-1.11015e-12
-3.11712e-14
6.98298e-18
-3.08199e-14
2.35218e-15
-2.69735e-14
6.00787e-15
-4.83925e-15
4.22027e-15
-2.89237e-15
8.88677e-16
0
-1.45398e-14
-1.24575e-14
-1.27347e-12
3.46544e-16
2.79546e-14
2.3494e-16
2.85023e-13
-6.24908e-16
2.58326e-13
-1.40823e-16
5.95928e-15
-9.08862e-17
1.82694e-15
-4.81722e-16
4.72493e-15
-1.1009e-13
3.68487e-13
-4.19436e-13
1.0628e-12
-6.09501e-14
1.24257e-13
-4.12292e-16
1.67101e-16
-4.0077e-16
8.03231e-17
-4.84997e-16
1.55955e-17
-2.62814e-12
-9.48365e-15
-8.67566e-12
-9.47496e-13
-9.64206e-12
-1.77956e-12
-8.59892e-12
-1.68913e-12
-2.16309e-14
3.6114e-14
-2.07619e-14
1.33877e-15
-1.80679e-14
1.95323e-15
-1.88898e-14
1.76103e-15
-8.64999e-15
1.71695e-16
-3.57098e-15
-4.16995e-15
-1.12925e-14
-3.85161e-15
1.23796e-15
3.23607e-14
4.37235e-15
2.8209e-13
2.38785e-15
2.60468e-13
-4.47111e-17
2.6453e-14
0
2.07479e-15
-2.48385e-14
9.02192e-14
-2.63736e-13
1.43058e-12
-3.82712e-13
1.25399e-12
-3.93306e-16
1.55922e-13
-3.50868e-16
2.10038e-16
-3.32202e-16
1.47047e-16
-3.15823e-16
8.02349e-17
-9.67137e-15
7.67432e-19
-2.66382e-12
-2.42044e-14
-7.80419e-12
-5.8406e-13
-8.66521e-12
-3.82276e-13
-9.89547e-15
7.10602e-14
-9.81833e-15
1.1188e-15
-9.33633e-15
1.32692e-15
-9.78055e-15
9.05497e-16
-1.12811e-14
-3.80371e-16
-1.64477e-14
-3.6184e-15
-1.12766e-14
-2.1206e-14
7.26293e-16
2.44691e-14
7.48896e-15
2.75485e-13
7.15154e-15
2.60963e-13
2.90525e-16
2.54789e-14
0
2.12467e-15
-9.15803e-14
3.51119e-13
-2.26194e-13
1.64931e-12
-1.94787e-13
1.30131e-12
-5.386e-16
1.38459e-13
-5.13381e-16
2.69799e-16
-3.62929e-16
2.36417e-16
-7.96641e-17
1.74728e-16
0
2.84154e-17
-1.36886e-13
0
-1.27388e-12
-2.28915e-16
-1.60325e-12
-7.89833e-15
-5.15338e-13
0
-1.28543e-14
7.93168e-15
-1.2651e-14
9.81192e-16
-1.39842e-14
5.24009e-16
-1.2395e-14
-1.00593e-15
-1.91299e-14
-3.08567e-15
-3.15678e-15
-1.98433e-14
1.44622e-15
6.77331e-15
7.48557e-15
2.16437e-14
5.35368e-15
7.27589e-14
5.52534e-16
9.21784e-15
4.54013e-16
2.16275e-15
-4.45458e-14
1.77091e-13
-1.89704e-13
1.88e-12
-1.38324e-13
6.73017e-13
-3.35841e-16
3.87143e-16
-3.64339e-16
3.60495e-16
-3.43262e-16
4.25728e-16
-1.41743e-16
2.42909e-16
-6.94736e-17
3.22256e-17
-6.6978e-17
8.93364e-18
-2.96719e-16
4.36869e-18
-2.13052e-15
1.18821e-18
-2.75726e-14
0
-1.50526e-14
2.6362e-16
-1.88644e-14
1.14866e-15
-1.66377e-14
6.14374e-16
-1.38941e-14
-9.01504e-16
-2.74785e-15
-7.59109e-16
-2.48762e-16
-5.42168e-16
6.33897e-17
1.7541e-15
1.33695e-16
2.58291e-15
7.54887e-16
1.26729e-15
1.9059e-16
1.02085e-15
8.78482e-17
2.20482e-15
-1.45515e-15
1.58375e-14
-3.64872e-14
0
-4.12892e-16
2.15128e-17
-2.19041e-16
1.09559e-16
-3.18913e-16
4.27443e-16
-2.89798e-16
4.84667e-16
-7.4152e-17
1.38655e-16
-5.19921e-17
2.82578e-17
-5.9549e-17
1.98579e-17
-6.72092e-17
1.54082e-17
-7.47928e-17
1.23052e-17
-4.03966e-16
9.81647e-18
-4.22389e-15
0
-7.45634e-15
1.9729e-16
-7.58712e-15
7.38088e-17
-2.83509e-15
-8.54023e-17
-6.86304e-16
-7.04504e-17
-5.99491e-17
-2.10504e-17
3.0156e-17
1.51811e-15
4.68414e-17
2.35428e-15
5.47976e-17
1.02096e-15
9.8195e-17
9.92807e-16
3.79487e-16
6.82052e-15
4.44866e-17
8.44493e-16
-1.99003e-17
0
-1.4283e-17
1.34459e-17
-1.08839e-16
1.20444e-16
-1.76291e-16
3.11258e-16
-1.05656e-16
2.3439e-16
-2.92274e-17
4.22237e-17
-3.87839e-17
1.62336e-17
-5.33566e-17
2.34132e-17
-6.04164e-17
2.22628e-17
-6.58057e-17
1.79958e-17
-7.37215e-17
1.15169e-17
-2.31829e-16
4.76753e-18
-2.70759e-16
9.44552e-19
-1.86706e-16
0
-1.41796e-16
-9.73975e-19
-1.29395e-16
-1.26011e-18
-1.48534e-18
-9.3265e-18
2.97316e-17
1.28111e-15
1.87037e-15
3.50923e-13
3.50849e-17
6.90377e-15
7.8491e-17
1.13299e-15
3.01669e-16
7.25769e-15
3.39452e-17
2.40469e-15
-1.08845e-18
3.60748e-17
-5.42222e-18
1.7254e-17
-4.32938e-17
5.52925e-17
-5.35739e-17
8.50029e-17
-1.53131e-17
3.49961e-17
-8.14033e-18
4.18201e-18
-1.89828e-17
3.73999e-18
-3.43283e-17
1.37438e-17
-4.0195e-17
1.62855e-17
-4.17636e-17
1.36637e-17
-2.98277e-17
8.13895e-18
-1.52999e-17
2.0622e-18
-6.71043e-18
3.53114e-19
-3.13676e-18
5.14593e-20
-2.56143e-18
-5.89886e-20
-2.49114e-18
-8.71009e-20
-1.11926e-19
-5.20014e-19
9.36476e-15
7.43703e-13
1.39796e-14
7.45119e-13
0
1.23715e-14
4.58092e-17
1.18491e-15
1.99155e-16
5.66885e-15
4.60663e-18
6.26118e-16
-7.35122e-19
3.01746e-17
-2.12161e-18
1.81114e-17
-5.76707e-18
8.72355e-18
-4.77096e-18
5.52731e-18
-4.42552e-19
9.18126e-19
-5.61342e-19
1.00456e-18
-3.94815e-18
1.76776e-19
-1.0424e-17
2.16273e-18
-1.24187e-17
3.41432e-18
-1.20447e-17
2.89878e-18
-6.5293e-18
1.43925e-18
-2.6557e-18
3.71254e-19
-1.30989e-18
8.13977e-20
-6.47076e-19
1.71062e-20
-2.86016e-19
-2.84848e-21
-2.17092e-19
-4.81369e-21
-5.09763e-21
-1.87012e-19
1.26841e-14
7.25905e-13
9.73602e-15
4.20705e-13
0
6.14046e-15
3.81309e-17
1.09593e-15
1.1288e-16
2.59522e-15
2.95578e-19
4.96684e-17
-5.67045e-19
2.1515e-17
-3.30092e-19
1.46133e-17
-2.23452e-19
3.09477e-19
-6.00871e-20
1.0193e-18
3.95827e-20
9.37198e-20
-3.27807e-21
-1.16592e-19
-1.29679e-19
6.75332e-21
-7.36607e-19
4.38795e-19
-9.34417e-19
7.4236e-20
-7.73552e-19
6.8446e-20
-3.12174e-19
3.82096e-20
-1.09319e-19
8.37712e-20
-4.94162e-20
1.89893e-20
-1.77404e-20
3.76226e-21
-1.29896e-21
9.01797e-22
-2.47977e-22
4.24477e-21
4.80946e-21
-9.12069e-22
1.44602e-14
7.06295e-13
0
1.31662e-14
5.10201e-18
5.97383e-16
2.94945e-17
7.61501e-16
3.50574e-17
5.21309e-16
1.90684e-19
1.00507e-17
-2.26353e-19
1.27011e-17
-2.15665e-20
7.83189e-18
3.66213e-20
1.34682e-20
1.08521e-19
-3.49519e-19
1.91193e-19
-6.33268e-19
1.92131e-19
-7.42375e-19
9.18426e-20
-5.20388e-19
-1.95554e-21
-1.78443e-19
-4.32908e-21
2.7694e-21
-4.03025e-21
4.64512e-21
3.40727e-20
1.06405e-22
4.68083e-20
-1.79627e-20
4.33254e-20
-1.57007e-20
3.45774e-20
-7.09229e-21
2.46566e-20
-1.90789e-22
1.59037e-20
3.39901e-21
4.00844e-21
9.51355e-21
5.45327e-15
6.95671e-13
6.35243e-19
1.59292e-14
1.35032e-17
4.73898e-16
1.44126e-17
3.07781e-16
2.48939e-18
7.98038e-17
1.14363e-19
8.70069e-18
-2.83518e-20
3.98433e-18
1.75836e-20
1.33784e-18
7.42325e-20
-5.23392e-19
1.39111e-19
-1.02397e-18
1.97868e-19
-1.12524e-18
2.09014e-19
-1.04216e-18
1.69965e-19
-7.59102e-19
1.23444e-19
-4.40257e-19
9.67282e-20
-2.32429e-19
8.37191e-20
-1.33245e-19
7.39398e-20
-8.36221e-20
5.9815e-20
-5.17647e-20
4.47506e-20
-2.70023e-20
3.12586e-20
-1.05025e-20
2.04148e-20
-1.26512e-21
1.25153e-20
1.69655e-21
2.15991e-21
7.29489e-21
6.38857e-15
6.89273e-13
0
3.9744e-13
4.7958e-19
4.79934e-16
2.38057e-18
8.77963e-17
7.78994e-19
6.49536e-17
4.39518e-20
8.77116e-18
2.46098e-21
7.09835e-19
1.20484e-20
9.17693e-20
5.33673e-20
-8.0056e-19
1.00564e-19
-1.21555e-18
1.38207e-19
-1.21997e-18
1.49439e-19
-1.04162e-18
1.3456e-19
-7.56221e-19
1.10252e-19
-4.77921e-19
8.80781e-20
-2.81786e-19
6.99421e-20
-1.63599e-19
5.34366e-20
-9.38044e-20
3.83054e-20
-5.0206e-20
2.58654e-20
-2.34136e-20
1.66677e-20
-8.56571e-21
1.03066e-20
-1.42031e-21
6.08586e-21
6.64767e-22
9.29072e-22
3.39021e-21
4.46338e-15
6.848e-13
5.33469e-15
6.81146e-13
0
3.45173e-15
1.71182e-18
7.0863e-17
1.64767e-18
6.51663e-17
4.38046e-20
9.88009e-18
1.84206e-21
6.01417e-19
1.99024e-22
8.39606e-20
1.71818e-20
-6.29604e-19
4.45477e-20
-9.58662e-19
6.82399e-20
-9.65998e-19
7.90594e-20
-8.17761e-19
7.59082e-20
-5.98937e-19
6.49339e-20
-3.89523e-19
5.18742e-20
-2.3442e-19
3.93923e-20
-1.34073e-19
2.8019e-20
-7.27947e-20
1.85337e-20
-3.60982e-20
1.14838e-20
-1.55868e-20
6.80045e-21
-5.36719e-21
3.93683e-21
-9.85259e-22
2.23788e-21
2.23051e-22
3.36143e-22
1.22752e-21
3.75524e-15
6.81034e-13
8.24557e-15
6.76645e-13
0
4.30387e-15
1.80788e-18
7.87028e-17
2.23961e-18
8.7264e-17
8.33381e-20
1.36506e-17
1.92696e-20
1.69524e-18
1.21703e-20
1.15328e-18
-3.38593e-22
-5.94087e-20
6.30785e-21
-3.44146e-19
1.87222e-20
-4.67558e-19
2.8504e-20
-4.63736e-19
3.16424e-20
-3.76019e-19
2.89398e-20
-2.5951e-19
2.34685e-20
-1.58822e-19
1.75156e-20
-8.93311e-20
1.19329e-20
-4.66958e-20
7.42693e-21
-2.19046e-20
4.25761e-21
-8.86626e-21
2.29757e-21
-2.86053e-21
1.21444e-21
-5.2811e-22
6.48307e-22
6.9267e-23
1.07839e-22
3.64459e-22
2.78846e-15
6.78236e-13
3.07875e-15
3.66269e-13
0
8.83911e-16
3.30582e-18
1.66914e-16
3.91744e-18
1.46337e-16
2.41722e-19
2.32955e-17
1.48835e-19
6.65383e-18
1.1559e-19
5.84434e-18
5.02179e-20
4.22252e-18
1.07523e-20
2.33837e-18
1.15694e-22
9.77889e-19
3.99147e-21
-5.22732e-20
8.31016e-21
-1.4686e-19
9.46412e-21
-1.38556e-19
8.22812e-21
-9.19805e-20
6.27323e-21
-5.14303e-20
4.21051e-21
-2.62372e-20
2.51451e-21
-1.17884e-20
1.35052e-21
-4.50942e-21
6.6577e-22
-1.36297e-21
3.17047e-22
-2.41887e-22
1.53334e-22
2.11999e-23
3.3668e-23
9.16323e-23
6.79778e-16
3.43304e-13
0
0
1.93289e-18
3.46271e-16
7.73354e-18
3.65223e-16
6.22865e-18
2.43234e-16
7.65253e-19
4.25751e-17
6.58862e-19
1.90135e-17
6.03484e-19
1.75773e-17
4.05747e-19
1.42902e-17
1.93792e-19
9.52658e-18
5.71884e-20
4.94038e-18
5.70448e-21
1.73816e-18
3.40654e-22
2.91046e-19
1.65811e-21
-4.76347e-20
1.96768e-21
-4.56574e-20
1.69394e-21
-2.63018e-20
1.18219e-21
-1.32918e-20
6.99168e-22
-5.77748e-21
3.58841e-22
-2.10047e-21
1.63831e-22
-5.95277e-22
7.11411e-23
-9.95665e-23
3.1424e-23
6.71743e-24
1.10737e-23
1.9692e-23
2.32239e-16
1.89968e-16
3.51858e-18
1.86913e-16
9.30869e-18
3.17724e-16
1.7911e-17
4.48214e-16
1.01349e-17
3.00862e-16
2.13623e-18
7.31476e-17
2.00736e-18
4.15087e-17
1.92213e-18
3.83034e-17
1.43748e-18
3.14441e-17
8.37343e-19
2.20053e-17
3.36249e-19
1.20357e-17
7.6509e-20
4.58013e-18
5.25775e-21
9.41649e-19
1.43151e-22
3.42993e-20
5.42668e-23
-1.79484e-20
2.23468e-22
-1.20807e-20
2.1231e-22
-6.17441e-21
1.38844e-22
-2.6197e-21
7.20014e-23
-9.09536e-22
3.15895e-23
-2.42144e-22
1.30686e-23
-3.80204e-23
5.5207e-24
2.14294e-24
3.53972e-24
3.35747e-24
3.0968e-18
1.86351e-16
3.81216e-18
1.86409e-16
1.33549e-17
3.82249e-16
2.44448e-17
4.67624e-16
1.40584e-17
3.00462e-16
4.94696e-18
1.05594e-16
4.68259e-18
7.20192e-17
4.5034e-18
6.62498e-17
3.44854e-18
5.4016e-17
2.16684e-18
3.82971e-17
9.59745e-19
2.14105e-17
2.38524e-19
7.94916e-18
2.01955e-20
1.41261e-18
3.18866e-21
6.18253e-20
-1.73567e-22
-3.89842e-21
-1.52116e-22
-4.98664e-21
-3.68798e-23
-2.66349e-21
3.55808e-24
-1.1113e-21
5.35072e-24
-3.69505e-22
2.91913e-24
-9.27751e-23
1.23851e-24
-1.37258e-23
4.89817e-25
6.67698e-25
1.07621e-24
2.5014e-25
2.547e-18
1.84016e-16
5.69514e-18
1.83477e-16
2.18001e-17
3.80933e-16
2.9873e-17
4.2254e-16
1.69016e-17
2.67265e-16
8.83725e-18
1.13211e-16
8.72009e-18
9.71936e-17
8.45324e-18
9.18412e-17
6.45955e-18
7.66211e-17
4.14763e-18
5.48634e-17
1.89611e-18
3.077e-17
4.43406e-19
1.07097e-17
3.03956e-20
1.55587e-18
5.66467e-21
6.36739e-20
-1.58557e-23
-1.90556e-22
-1.47354e-22
-1.89097e-21
-7.98644e-23
-1.08033e-21
-3.24826e-23
-4.4589e-22
-1.11661e-23
-1.4213e-22
-3.49519e-24
-3.3654e-23
-1.0931e-24
-4.65122e-24
-3.92901e-25
1.98515e-25
3.00381e-25
-1.79707e-25
4.01593e-18
2.06155e-16
7.0635e-18
1.52223e-16
2.0448e-17
2.62474e-16
2.35737e-17
2.04978e-16
1.64963e-17
1.59072e-16
1.21979e-17
1.11361e-16
1.23356e-17
1.02677e-16
1.22134e-17
1.00629e-16
9.94524e-18
8.97975e-17
6.42216e-18
6.6466e-17
2.86604e-18
3.67479e-17
5.96633e-19
1.17985e-17
3.37523e-20
1.58465e-18
2.75353e-22
5.11977e-20
1.0057e-23
8.63778e-23
-7.73694e-23
-6.77977e-22
-4.98157e-23
-4.1768e-22
-2.26369e-23
-1.7083e-22
-8.51546e-24
-5.2124e-23
-2.82597e-24
-1.15973e-23
-8.7277e-25
-1.48099e-24
-2.83413e-25
5.40534e-26
7.47854e-26
-1.10603e-25
9.25526e-18
4.20562e-16
6.8906e-18
1.35945e-16
1.2289e-17
1.37718e-16
1.22428e-17
2.04387e-16
1.44937e-17
1.14189e-16
1.44796e-17
1.0617e-16
1.45218e-17
1.02731e-16
1.44384e-17
1.02278e-16
1.26638e-17
9.26166e-17
8.25272e-18
7.01506e-17
3.50731e-18
3.82627e-17
6.65444e-19
1.20258e-17
3.17554e-20
1.39883e-18
1.52889e-22
2.71663e-20
1.09676e-23
7.15226e-23
-3.33219e-23
-2.37574e-22
-2.36823e-23
-1.56293e-22
-1.09943e-23
-6.30335e-23
-4.06767e-24
-1.82988e-23
-1.287e-24
-3.7863e-24
-3.6478e-25
-4.38405e-25
-1.06077e-25
1.31787e-26
1.63093e-26
-3.72372e-26
2.75658e-17
7.21146e-16
8.65132e-18
1.54115e-16
1.2158e-17
1.33574e-16
1.49219e-17
2.00978e-16
1.63925e-17
1.12107e-16
1.67456e-17
1.05206e-16
1.73539e-17
1.08477e-16
1.63282e-17
1.03447e-16
1.4058e-17
9.36758e-17
9.26908e-18
7.11777e-17
3.84519e-18
3.88523e-17
6.65068e-19
1.13821e-17
2.11463e-20
9.64931e-19
4.8873e-23
1.02564e-20
4.12097e-24
1.05225e-23
-1.32502e-23
-8.41172e-23
-9.89733e-24
-5.74381e-23
-4.5313e-24
-2.25645e-23
-1.59303e-24
-6.16029e-24
-4.63993e-25
-1.16612e-24
-1.16795e-25
-1.19878e-25
-2.97033e-26
2.80145e-27
3.04175e-27
-9.26681e-27
9.82294e-17
6.82563e-16
1.86849e-15
2.27937e-14
3.99825e-17
1.96133e-15
7.45212e-14
1.54802e-12
4.27856e-17
7.45898e-14
1.90262e-17
1.28355e-16
1.89749e-17
1.06679e-16
1.72932e-17
9.93335e-17
1.51984e-17
9.26643e-17
9.89738e-18
7.10144e-17
3.83938e-18
3.68694e-17
5.20062e-19
8.90774e-18
9.48907e-21
4.92779e-19
9.94945e-24
2.74572e-21
7.09886e-25
9.29115e-25
-5.12037e-24
-3.06341e-23
-3.84058e-24
-2.09522e-23
-1.685e-24
-7.87472e-24
-5.48097e-25
-1.98907e-24
-1.42704e-25
-3.37437e-25
-3.08818e-26
-3.00677e-26
-6.63825e-27
5.08055e-28
4.73159e-28
-1.79751e-27
1.23919e-16
6.18641e-16
6.97565e-14
2.78625e-14
3.48905e-13
1.59684e-12
2.45688e-13
1.65402e-12
8.50641e-14
1.5002e-12
2.95539e-17
2.98568e-13
4.00747e-18
1.25725e-16
1.55593e-17
8.12247e-17
1.56832e-17
8.74092e-17
9.86755e-18
6.67763e-17
3.23077e-18
3.07014e-17
2.92171e-19
5.42199e-18
2.73823e-21
1.72788e-19
1.25947e-24
4.54824e-22
8.80058e-26
6.95188e-26
-1.96853e-24
-1.15464e-23
-1.42187e-24
-7.63353e-24
-5.80701e-25
-2.68492e-24
-1.70156e-25
-6.15265e-25
-3.84415e-26
-9.14221e-26
-6.90472e-27
-6.878e-27
-1.20215e-27
7.74341e-29
5.99152e-29
-2.72924e-28
1.47503e-16
5.31387e-16
2.74117e-14
6.58537e-16
3.92209e-13
1.23518e-12
3.93786e-13
1.65521e-12
3.32324e-13
1.56444e-12
2.04059e-17
3.81376e-13
1.34102e-18
1.57544e-16
1.48612e-17
8.0564e-17
1.49906e-17
8.10227e-17
8.65597e-18
5.73827e-17
2.14813e-18
2.13688e-17
1.1089e-19
2.42029e-18
4.58231e-22
3.71996e-20
8.23456e-26
3.85171e-23
7.02364e-27
4.33482e-26
-7.66532e-25
-4.53578e-24
-5.10038e-25
-2.78572e-24
-1.88208e-25
-8.95164e-25
-4.83321e-26
-1.82263e-25
-9.19087e-27
-2.31783e-26
-1.32089e-27
-1.43406e-27
-1.77005e-28
9.82061e-30
6.03016e-30
-3.2038e-29
4.95326e-16
7.52807e-16
6.49449e-16
5.6797e-16
3.13908e-13
1.75749e-13
4.30781e-13
1.54111e-12
1.62688e-13
7.31486e-13
0
1.03106e-13
2.57243e-17
1.51771e-16
1.51399e-17
8.19987e-17
1.37445e-17
7.32704e-17
6.30174e-18
4.33651e-17
1.04898e-18
1.1629e-17
2.58765e-20
7.1042e-19
3.82629e-23
4.19246e-21
2.51308e-24
1.47924e-24
-6.53811e-27
-4.11811e-26
-3.07186e-25
-1.87091e-24
-1.79051e-25
-1.01885e-24
-5.80278e-26
-2.92315e-25
-1.27125e-26
-5.18537e-26
-1.97368e-27
-5.5244e-27
-2.18628e-28
-2.74295e-28
-2.11997e-29
1.04516e-30
4.7635e-31
-2.84553e-30
1.02138e-15
7.67187e-16
3.29448e-15
1.72575e-15
5.72198e-14
4.17201e-16
1.97441e-13
0
7.95505e-15
0
0
6.42627e-17
1.36557e-17
1.41379e-16