/*--------------------------------*- C++ -*----------------------------------*\
  =========                 |
  \\      /  F ield         | OpenFOAM: The Open Source CFD Toolbox
   \\    /   O peration     | Website:  https://openfoam.org
    \\  /    A nd           | Version:  9
     \\/     M anipulation  |
\*---------------------------------------------------------------------------*/
FoamFile
{
    format      ascii;
    class       volScalarField;
    location    "1.71";
    object      alpha.water;
}
// * * * * * * * * * * * * * * * * * * * * * * * * * * * * * * * * * * * * * //

dimensions      [0 0 0 0 0 0 0];

internalField   nonuniform List<scalar> 
2268
(
1
1
1
1
1
1
1
1
1
1
1
1
1
1
1
1
1
0.990628
0.976812
0.9774
0.994445
0.987457
0.986244
1
1
1
1
1
1
1
1
1
1
1
1
1
1
1
1
1
0.99189
0.976778
0.976777
0.994434
0.996035
0.986244
1
1
1
1
1
1
1
1
1
1
1
1
1
1
1
1
1
0.998778
0.978659
0.976777
0.994705
0.999907
0.993804
1
1
1
1
1
1
1
1
1
1
1
1
1
1
1
1
0.999999
1
0.996343
0.99338
0.998502
0.999991
0.999991
1
1
1
1
1
1
1
1
1
1
1
1
1
1
1
1
1
1
1
0.999999
0.999991
0.999991
0.999977
1
1
1
1
1
1
1
1
1
1
1
1
1
1
1
1
1
1
1
1
0.999992
0.999919
0.999841
1
1
1
1
1
1
1
1
1
1
1
1
1
1
1
1
1
1
1
1
0.999976
0.999893
0.999874
1
1
1
1
1
1
1
1
1
1
1
1
1
1
1
1
1
1
1
1
0.999986
0.999986
0.999985
0.997787
0.997219
0.994928
0.991968
0.991823
0.991638
0.984054
0.977458
0.984821
0.996794
0.997766
0.997766
0.98086
0.956807
0.962867
0.973166
0.966633
0.962618
0.962618
0.997787
0.984378
0.966349
0.95246
0.952531
0.952316
0.955269
0.949238
0.9574
0.993887
0.997767
0.997769
0.994092
0.95643
0.956424
0.972748
0.967811
0.962618
0.962618
0.997768
0.996057
0.989666
0.979882
0.931241
0.865915
0.86434
0.887959
0.954033
0.99766
0.997769
0.997771
0.997774
0.958797
0.956424
0.976706
0.980151
0.975317
0.972713
0.99245
0.999071
0.999815
0.999815
0.999815
0.969437
0.861325
0.860934
0.895138
0.992279
0.99777
0.997774
0.997775
0.970845
0.956424
0.984375
0.97901
0.965938
0.972705
0.98995
0.997598
0.999814
0.999815
0.999815
0.999815
0.943612
0.860934
0.880061
0.98942
0.99777
0.997775
0.997774
0.992578
0.989068
0.989592
0.853085
0.914076
0.972631
0.996702
0.999452
0.99981
0.999814
0.999815
0.999815
0.992748
0.928445
0.96065
0.990658
0.976191
0.99777
0.997599
0.994977
0.994721
0.884647
0.831465
0.854162
0.965117
0.999731
0.999764
0.999803
0.999812
0.999812
0.999815
0.999796
0.947195
0.979166
0.990608
0.852249
0.688852
0.956425
0.994535
0.994021
0.951246
0.883603
0.913396
0.869545
0.999728
0.999731
0.999732
0.999648
0.999714
0.999784
0.999781
0.911839
0.636322
0.728756
0.67148
0.626782
0.661745
0.961097
0.993764
0.992497
0.991326
0.958988
0.504552
0.999999
0.999999
0.999999
0.999999
1
1
1
1
1
1
1
0.999999
0.999999
0.999999
0.999999
0.999998
0.999998
1
1
1
1
0.999459
0.999077
0.978993
0.982532
0.986455
0.988633
0.98988
0.990447
0.989991
0.989879
0.990477
0.990403
0.990895
0.992104
0.993905
0.995996
0.998105
0.999538
0.999844
0.999814
0.999859
0.999969
1
0.99951
0.998365
0.356749
0.379173
0.400491
0.414876
0.424405
0.429289
0.427959
0.428231
0.43142
0.429975
0.432138
0.441321
0.458044
0.480484
0.511474
0.555269
0.613064
0.678179
0.734692
0.77918
0.805173
0.792054
0.749904
1.75274e-07
1.74646e-07
1.91204e-07
1.37759e-06
3.85779e-06
2.6234e-06
2.62399e-06
2.6234e-06
2.6468e-06
3.63316e-06
7.90067e-06
1.30311e-05
1.4857e-05
1.49995e-05
1.54107e-05
1.81356e-05
2.38951e-05
0.00155709
0.0122584
0.0225816
0.0278227
0.0262115
0.0107887
1.75274e-07
1.52069e-06
0.000334607
0.000828077
0.000877847
0.000517083
2.6234e-06
2.6468e-06
0.000724128
0.00265853
0.00302559
0.00119721
0.000178284
0.000301586
0.00168928
0.00237385
0.0015156
0.00112954
0.00112948
0.00113425
0.00118001
0.0012535
0.00129046
2.77521e-07
8.54556e-06
0.0012677
0.00206253
0.00206519
0.00206501
0.00146707
0.000103785
0.00390751
0.00496205
0.00496205
0.00496205
0.00185958
0.00213334
0.00571689
0.00571962
0.00537746
0.0011295
0.00136431
0.00486492
0.00618631
0.00438679
0.00486897
1.04055e-06
0.000276164
0.000429762
1.21715e-08
4.7657e-06
8.80011e-05
0.000182423
5.91489e-05
0.00025694
0.000726614
0.00235208
0.00238817
0.00204786
0.00570951
0.00571962
0.00571126
0.00451017
0.00413429
0.00932046
0.00985729
0.00985741
0.00829915
0.00125678
1.34902e-06
8.52113e-05
8.55919e-06
1.2195e-08
1.21714e-08
1.98068e-07
1.09057e-06
4.04739e-06
8.57343e-07
1.28255e-06
1.13196e-06
2.71761e-05
0.000801509
0.00197986
0.00218687
0.00134645
0.00023754
0.00270553
0.00984982
0.00986014
0.00984982
0.00189374
9.68354e-07
8.29267e-07
6.92512e-06
1.48141e-07
1.41257e-07
1.67272e-08
2.35043e-07
3.38259e-07
3.67145e-07
7.61164e-07
1.10972e-06
8.62705e-07
9.9042e-06
2.57575e-05
2.14607e-05
2.78837e-10
1.24093e-09
3.7556e-08
0.000206208
0.00529686
0.00984982
0.0097025
0.00306576
3.42499e-07
2.51158e-07
6.62512e-07
3.7674e-06
9.92439e-07
9.55698e-11
1.14501e-07
1.89942e-07
4.18348e-07
1.21725e-06
1.21816e-06
7.52741e-07
7.43591e-08
1.55366e-08
2.67339e-10
2.44399e-10
2.78837e-10
1.29158e-09
-3.00719e-09
-3.74434e-09
0.00228384
0.00427445
0.000733332
1.18331e-07
1.00891e-08
1.39573e-07
1.44719e-06
1.08e-07
6.21547e-11
4.15242e-09
1.37834e-08
1.24079e-07
6.26469e-07
8.78e-07
2.76714e-07
1.51895e-11
2.06955e-11
4.7273e-12
1.43042e-10
1.04843e-08
2.36082e-08
3.87889e-10
3.81868e-10
3.94305e-10
4.28226e-10
6.18742e-10
8.40432e-08
3.10769e-09
1.04439e-07
1.23151e-08
6.21548e-11
6.21548e-11
6.21548e-11
6.76332e-11
3.575e-10
2.96535e-09
2.13436e-08
3.02794e-11
3.29298e-13
4.62942e-13
2.84359e-13
4.30006e-11
1.00404e-09
1.75499e-09
3.78533e-10
6.59134e-10
8.38062e-10
1.2711e-09
3.03249e-09
2.11249e-07
3.09783e-09
7.31141e-08
5.4107e-11
7.71151e-11
8.88742e-11
7.28468e-11
6.32887e-11
5.44525e-11
3.51822e-11
1.55361e-11
3.35487e-13
-1.62834e-31
-6.10629e-32
5.57713e-17
8.73806e-13
5.58522e-12
2.38336e-11
3.65366e-10
1.97587e-09
3.80363e-08
6.49072e-08
2.07449e-08
2.13735e-06
2.44174e-09
2.07072e-08
5.07317e-11
7.76363e-11
7.9812e-11
7.16419e-11
6.35196e-11
5.49177e-11
3.1604e-11
1.12639e-11
1.88389e-12
-4.88202e-13
-1.03075e-12
-1.04114e-12
-6.30891e-13
0
-2.23352e-15
0
1.63875e-09
7.76606e-08
1.11374e-07
8.26606e-08
3.35263e-06
1.24736e-09
4.99822e-11
5.06715e-11
6.09879e-11
6.09997e-11
5.77797e-11
5.44123e-11
4.66797e-11
2.97753e-11
1.13985e-11
1.34146e-12
-1.16372e-12
-2.14926e-12
-2.29741e-12
-1.79311e-12
-8.98662e-13
-1.35168e-13
-3.06231e-14
0
3.03756e-08
1.02261e-07
2.30672e-08
3.82374e-12
4.26926e-10
4.30182e-11
5.05919e-11
5.6897e-11
5.75842e-11
5.37753e-11
4.84068e-11
4.05601e-11
2.65378e-11
9.83681e-12
4.35087e-13
-1.7507e-12
-3.01234e-12
-3.4251e-12
-3.08794e-12
-2.25643e-12
-1.25275e-12
-4.80203e-13
1.63285e-12
0
-1.65436e-27
7.76499e-09
2.3318e-09
1.02975e-10
4.29183e-11
5.04436e-11
5.59724e-11
5.68646e-11
5.35689e-11
4.49475e-11
3.33171e-11
1.95373e-11
6.4906e-12
-7.25014e-14
-2.13384e-12
-3.5696e-12
-4.27995e-12
-4.23995e-12
-3.64695e-12
-2.78038e-12
-1.76359e-12
-5.18983e-13
-2.74614e-13
-1.42896e-14
-1.7975e-14
2.68284e-19
3.66258e-11
4.25906e-11
4.96465e-11
5.3771e-11
5.42922e-11
5.14555e-11
4.19186e-11
2.76332e-11
1.38806e-11
4.10498e-12
-2.50664e-13
-2.10702e-12
-3.60582e-12
-4.5584e-12
-4.82647e-12
-4.51484e-12
-3.81509e-12
-2.91496e-12
-1.94743e-12
-9.51629e-13
-1.14234e-13
-1.0973e-13
-1.00836e-14
2.89447e-11
4.14263e-11
4.70969e-11
4.85369e-11
4.73686e-11
4.35479e-11
3.48618e-11
2.21743e-11
1.00447e-11
2.51294e-12
-2.36876e-13
-1.72101e-12
-3.08946e-12
-4.10917e-12
-4.5627e-12
-4.44444e-12
-3.92408e-12
-3.18675e-12
-2.37636e-12
-1.57471e-12
-8.43106e-13
-3.34576e-13
-7.59469e-14
2.6764e-11
3.80902e-11
4.15845e-11
4.00191e-11
3.6398e-11
3.06221e-11
2.25734e-11
1.35885e-11
5.91766e-12
1.34736e-12
-1.34324e-13
-1.17123e-12
-2.25005e-12
-3.13652e-12
-3.59358e-12
-3.60043e-12
-3.27051e-12
-2.7383e-12
-2.13012e-12
-1.53285e-12
-9.90739e-13
-5.31233e-13
-1.86139e-13
2.4271e-11
3.16959e-11
3.26605e-11
2.93786e-11
2.40745e-11
1.76057e-11
1.08805e-11
5.44641e-12
2.09507e-12
4.15583e-13
-9.29652e-14
-6.8622e-13
-1.40973e-12
-2.04476e-12
-2.40331e-12
-2.46081e-12
-2.26404e-12
-1.91453e-12
-1.50867e-12
-1.11723e-12
-7.82551e-13
-5.04114e-13
-2.82159e-13
1.97391e-11
2.26798e-11
2.16677e-11
1.79976e-11
1.28759e-11
7.75387e-12
3.70083e-12
1.35111e-12
3.79467e-13
3.2191e-14
-8.63513e-14
-3.7319e-13
-7.73131e-13
-1.14903e-12
-1.38203e-12
-1.42889e-12
-1.31572e-12
-1.10756e-12
-8.67133e-13
-6.40006e-13
-4.57363e-13
-3.16937e-13
-2.08134e-13
1.21492e-11
1.2448e-11
1.08517e-11
8.00919e-12
4.75962e-12
2.18006e-12
7.30484e-13
1.78081e-13
2.05024e-14
-4.77616e-15
-6.95962e-14
-2.00568e-13
-3.79739e-13
-5.58353e-13
-6.77099e-13
-7.00451e-13
-6.403e-13
-5.31591e-13
-4.08744e-13
-2.95277e-13
-2.05453e-13
-1.43607e-13
-9.96028e-14
4.0221e-12
4.02918e-12
3.17713e-12
1.98897e-12
9.1719e-13
2.89882e-13
6.1974e-14
7.77213e-15
1.6024e-16
-1.08713e-14
-4.33246e-14
-1.00709e-13
-1.72738e-13
-2.39505e-13
-2.81335e-13
-2.8594e-13
-2.57462e-13
-2.09747e-13
-1.57488e-13
-1.10708e-13
-7.3862e-14
-4.94588e-14
-3.42814e-14
4.35101e-13
5.05327e-13
3.63661e-13
1.87905e-13
6.39677e-14
1.32166e-14
1.66162e-15
5.8948e-17
-1.17073e-15
-7.32536e-15
-2.14294e-14
-4.32049e-14
-6.77651e-14
-8.85631e-14
-9.91729e-14
-9.69435e-14
-8.44591e-14
-6.6821e-14
-4.88208e-14
-3.34323e-14
-2.17373e-14
-1.37465e-14
-8.90682e-15
9.89492e-15
1.61272e-14
1.09764e-14
4.80374e-15
1.25842e-15
1.87847e-16
9.0821e-18
-6.82945e-17
-8.89084e-16
-3.5399e-15
-8.6311e-15
-1.54508e-14
-2.22283e-14
-2.72451e-14
-2.88247e-14
-2.67995e-14
-2.23164e-14
-1.69315e-14
-1.18865e-14
-7.82976e-15
-4.89981e-15
-2.94516e-15
-1.75453e-15
5.66343e-17
1.2959e-16
8.99198e-17
3.72687e-17
8.78002e-18
6.30985e-19
6.83345e-21
-6.4455e-17
-4.19808e-16
-1.32656e-15
-2.79019e-15
-4.46081e-15
-5.88516e-15
-6.72482e-15
-6.6645e-15
-5.8343e-15
-4.59315e-15
-3.30444e-15
-2.20414e-15
-1.38113e-15
-8.22682e-16
-4.70811e-16
-2.61383e-16
8.86409e-20
2.16425e-19
2.1518e-19
1.01305e-19
1.0803e-20
-7.46245e-20
-1.82269e-18
-3.00685e-17
-1.44027e-16
-3.80831e-16
-6.98288e-16
-9.97999e-16
-1.20966e-15
-1.27883e-15
-1.17733e-15
-9.61361e-16
-7.08373e-16
-4.78268e-16
-2.99976e-16
-1.76977e-16
-9.93294e-17
-5.3581e-17
-2.80329e-17
-8.00894e-19
-4.97338e-19
-5.28503e-19
-5.66455e-19
-5.39778e-19
-4.84023e-19
-1.11696e-18
-9.36936e-18
-3.57881e-17
-8.0661e-17
-1.29361e-16
-1.65609e-16
-1.84811e-16
-1.7947e-16
-1.52192e-16
-1.14843e-16
-7.84323e-17
-4.92059e-17
-2.87346e-17
-1.58063e-17
-8.27927e-18
-4.17017e-18
-2.03774e-18
-4.78208e-19
-5.7704e-19
-5.23226e-19
-4.26185e-19
-3.24114e-19
-2.33949e-19
-3.61137e-19
-1.98509e-18
-6.23502e-18
-1.2062e-17
-1.6963e-17
-1.96087e-17
-2.01235e-17
-1.77947e-17
-1.37689e-17
-9.50822e-18
-5.9596e-18
-3.44004e-18
-1.85223e-18
-9.40986e-19
-4.55759e-19
-2.12444e-19
-9.61183e-20
-1.1068e-19
-1.69103e-19
-1.5521e-19
-1.20361e-19
-8.44459e-20
-5.52369e-20
-6.91141e-20
-2.79759e-19
-7.33525e-19
-1.22139e-18
-1.51745e-18
-1.61628e-18
-1.50064e-18
-1.1947e-18
-8.34546e-19
-5.21958e-19
-2.97226e-19
-1.56306e-19
-7.68553e-20
-3.57247e-20
-1.58557e-20
-6.78057e-21
-2.81665e-21
-1.51157e-20
-2.66317e-20
-2.44874e-20
-1.8326e-20
-1.21322e-20
-7.38147e-21
-8.04342e-21
-2.55502e-20
-5.63023e-20
-8.12659e-20
-9.11916e-20
-8.95522e-20
-7.38331e-20
-5.22651e-20
-3.25896e-20
-1.82662e-20
-9.35523e-21
-4.43899e-21
-1.97477e-21
-8.32429e-22
-3.35676e-22
-1.30621e-22
-4.93129e-23
-1.36086e-21
-2.55522e-21
-2.30025e-21
-1.65261e-21
-1.03586e-21
-5.90399e-22
-5.77582e-22
-1.48638e-21
-2.77942e-21
-3.56159e-21
-3.74657e-21
-3.23671e-21
-2.33201e-21
-1.44992e-21
-7.98181e-22
-3.96813e-22
-1.81001e-22
-7.67581e-23
-3.06097e-23
-1.1595e-23
-4.21049e-24
-1.47741e-24
-4.56931e-25
-8.78523e-23
-1.63064e-22
-1.3917e-22
-9.44192e-23
-5.56691e-23
-2.97476e-23
-2.65113e-23
-5.64429e-23
-9.19715e-23
-1.10178e-22
-1.0203e-22
-7.55448e-23
-4.69617e-23
-2.5362e-23
-1.2198e-23
-5.32442e-24
-2.14134e-24
-8.03502e-25
-2.84371e-25
-9.58454e-26
-3.10349e-26
-9.61108e-27
1.88728e-26
-4.63858e-24
-7.98931e-24
-6.19637e-24
-3.85939e-24
-2.11146e-24
-1.05844e-24
-8.68464e-25
-1.57127e-24
-2.32134e-24
-2.39214e-24
-1.85436e-24
-1.161e-24
-6.15602e-25
-2.85589e-25
-1.1868e-25
-4.49758e-26
-1.57667e-26
-5.17404e-27
-1.6059e-27
-4.75794e-28
-1.35647e-28
-1.92576e-29
7.35725e-27
-2.36151e-25
-3.66399e-25
-2.49795e-25
-1.38828e-25
-6.92452e-26
-3.24095e-26
-2.45216e-26
-3.68934e-26
-4.38469e-26
-3.66947e-26
-2.3479e-26
-1.22731e-26
-5.47963e-27
-2.15457e-27
-7.62762e-28
-2.47256e-28
-7.43851e-29
-2.10043e-29
-5.62205e-30
-1.43923e-30
-3.45301e-31
5.13672e-30
1.73356e-27
-1.21538e-26
-1.70739e-26
-1.02047e-26
-4.99462e-27
-2.21049e-27
-9.17594e-28
-5.88081e-28
-6.77987e-28
-6.28431e-28
-4.20627e-28
-2.18556e-28
-9.37046e-29
-3.45601e-29
-1.12857e-29
-3.33203e-30
-9.0376e-31
-2.28108e-31
-5.41601e-32
-1.22129e-32
-2.63857e-33
3.29571e-33
8.1006e-31
2.52549e-28
-5.66834e-28
-7.15895e-28
-3.7069e-28
-1.57034e-28
-5.98926e-29
-2.12664e-29
-1.14362e-29
-1.01607e-29
-7.23763e-30
-3.78883e-30
-1.55896e-30
-5.33716e-31
-1.58102e-31
-4.16437e-32
-9.94882e-33
-2.18884e-33
-4.48974e-34
-8.67644e-35
-1.59453e-35
-2.80872e-36
5.45042e-34
8.16889e-32
1.97564e-29
-2.42862e-29
-2.69118e-29
-1.17792e-29
-4.26007e-30
-1.38103e-30
-4.12197e-31
-1.88742e-31
-1.30481e-31
-7.02365e-32
-2.78969e-32
-8.75849e-33
-2.29805e-33
-5.23462e-34
-1.06296e-34
-1.96169e-35
-3.33933e-36
-5.30655e-37
-7.95322e-38
-1.13463e-38
-9.28748e-40
1.39537e-35
3.44008e-33
4.97165e-31
-9.84697e-31
-9.13457e-31
-3.30541e-31
-1.01667e-31
-2.78544e-32
-6.87966e-33
-2.77372e-33
-1.52286e-33
-5.97843e-34
-1.70194e-34
-3.81898e-35
-7.1621e-36
-1.16682e-36
-1.69569e-37
-2.24075e-38
-2.73223e-39
-3.11092e-40
-3.34156e-41
-3.41759e-42
3.44669e-40
1.66803e-37
5.18138e-35
1.22561e-32
-3.78552e-32
-2.71238e-32
-8.87023e-33
-2.24264e-33
-5.16745e-34
-1.02567e-34
-3.90718e-35
-1.70586e-35
-4.46797e-36
-8.10112e-37
-1.1394e-37
-1.32917e-38
-1.34066e-39
-1.2021e-40
-9.77348e-42
-7.31446e-43
-5.10067e-44
-3.34913e-45
-2.07792e-46
4.95331e-41
5.73987e-39
2.02565e-37
1.90228e-36
-1.3481e-33
-6.84353e-34
-2.33625e-34
-5.3981e-35
-9.61873e-36
-1.42841e-36
-5.89226e-37
-1.9315e-37
-2.52691e-38
-2.00183e-39
-1.15189e-40
-5.28473e-42
-2.04172e-43
-6.88059e-45
-2.0727e-46
-5.68335e-48
-1.43898e-49
-3.40511e-51
-7.61241e-53
-1.22445e-54
1.05575e-49
4.62832e-47
6.33765e-46
0.999082
0.99906
0.992233
0.990519
0.9961
0.992005
0.98648
0.979158
0.686168
0.615757
0.527455
0.425679
0.00132175
0.00125222
0.00123193
0.00122636
0.00149198
0.0019485
0.00216533
0.00154668
0.0104127
0.0104127
0.0104127
0.0103889
0.00112762
0.0014501
0.00121138
0.00113035
0.000179559
0.000209569
0.000253242
0.00106667
9.68354e-07
0.000235333
0.000439568
0.00452021
3.42538e-07
0.000236845
0.000498281
0.00199741
1.10588e-06
3.32515e-05
0.000164434
0.000923865
5.2107e-06
3.02932e-05
0.000314528
0.000639378
1.02589e-05
7.52939e-05
0.000152324
1.25718e-05
3.62265e-06
4.13215e-12
4.32957e-12
8.10461e-12
3.80146e-12
3.72404e-12
4.2745e-12
5.76744e-11
3.359e-12
2.87869e-12
3.66524e-12
8.33046e-11
2.24355e-11
2.35887e-12
3.31224e-11
3.38256e-10
1.02103e-13
5.51232e-13
1.08268e-10
2.24131e-09
0
2.27127e-13
4.89658e-11
2.68884e-09
-4.77197e-14
6.83773e-13
1.95677e-11
2.22538e-11
-1.43868e-13
-4.20759e-14
2.06367e-13
1.56631e-12
-1.46655e-13
-9.65955e-14
-5.52858e-14
-5.93299e-15
-8.01485e-14
-6.23839e-14
-4.59833e-14
-2.89793e-14
-2.86886e-14
-2.40696e-14
-1.96846e-14
-1.53211e-14
-7.2462e-15
-6.07322e-15
-5.13169e-15
-4.27026e-15
-1.3424e-15
-1.06143e-15
-8.67791e-16
-7.23216e-16
-1.88224e-16
-1.37002e-16
-1.02395e-16
-7.94377e-17
-1.93778e-17
-1.33224e-17
-9.14701e-18
-6.34365e-18
-1.34848e-18
-8.85759e-19
-5.77289e-19
-3.73174e-19
-6.048e-20
-3.77368e-20
-2.33449e-20
-1.43031e-20
-1.67327e-21
-9.84324e-22
-5.72551e-22
-3.27654e-22
-2.72943e-23
-1.46782e-23
-7.2652e-24
-2.83285e-24
-1.5602e-25
6.01489e-26
6.01498e-25
1.34457e-24
7.85412e-26
1.74842e-25
4.06974e-25
7.97012e-25
2.6091e-26
6.06033e-26
1.50744e-25
3.20252e-25
6.21815e-27
1.42404e-26
3.57783e-26
9.44404e-26
9.15515e-28
2.03768e-27
6.41112e-27
2.79163e-26
7.21953e-29
1.6678e-28
1.07665e-27
7.39235e-27
1.96645e-30
6.78917e-30
1.44584e-28
1.01011e-27
6.84717e-32
4.64874e-31
1.38524e-29
7.21577e-29
2.69593e-36
5.9937e-36
2.36805e-34
1.04097e-33
4.61889e-46
1.17764e-46
8.7884e-48
0
0.997506
0.999219
0.986426
0.914341
0.908391
0.971628
0.953723
0.597803
0.530111
0.530116
0.715591
0.624528
0.600999
0.640288
0.821321
0.983294
0.914545
0.550833
0.386881
0.913837
0.704882
0.456554
0.240375
0.258789
0.515249
0.528257
0.579502
0.738719
0.76677
0.76921
0.769277
0.768049
0.606977
0.528143
0.660698
0.667887
0.507841
0.386881
0.202384
0.00122634
0.00123623
0.00148166
0.0148873
0.226841
0.377809
0.594403
0.725761
0.759906
0.769277
0.769282
0.769316
0.76934
0.532048
0.285686
0.457967
0.508755
0.501538
0.00122625
0.00122636
0.0012263
0.00123621
0.0855397
0.17655
0.209505
0.223495
0.273631
0.30838
0.376813
0.450267
0.519556
0.601489
0.499563
0.143633
0.265252
0.418772
0.50187
0.00122636
0.00122623
0.00131258
0.0206583
0.0285947
0.00624321
0.0704043
0.0907516
0.108397
0.0875779
0.0706369
0.0956642
0.137713
0.187435
0.267555
0.105682
0.0594112
0.146606
0.381111
0.00297861
0.00122886
0.00147089
0.00576513
0.00248795
0.00472655
0.0517402
0.0716387
0.0939199
0.095098
0.0710517
0.0117632
0.00483614
0.0188965
0.0571498
0.0689878
0.0373207
0.0314495
0.0909237
0.00266758
0.0110022
0.0150998
0.01119
0.00331761
0.00216659
0.00436033
0.0130867
0.0209693
0.0361766
0.0307914
0.00482116
0.0048211
0.00482629
0.0308863
0.046815
0.0477147
0.0305761
0.0177258
0.0117951
0.0192918
0.0193005
0.0192918
0.0191935
0.00797867
0.00651235
0.00616265
0.00553576
0.00516517
0.00800563
0.00482114
0.00482196
0.00482112
0.00928049
0.0173837
0.0215658
0.0184624
0.00602904
0.0173111
0.0193005
0.0188719
0.0108227
0.00857978
0.0138107
0.011983
0.00916378
0.00663223
0.00501953
0.00662013
0.00784505
0.007824
0.00752595
0.00276377
0.000485611
7.71694e-05
0.000315604
9.59115e-05
0.00973739
0.0134791
0.00217706
1.35725e-07
1.35725e-07
1.64558e-05
1.15732e-07
0.000135926
0.00158828
0.00226237
0.00533283
0.00786295
0.00786295
0.00786295
0.00490675
9.44864e-05
6.5644e-05
6.57244e-05
7.2416e-05
0.000790132
3.27371e-09
3.24248e-09
5.38424e-07
1.93772e-06
1.15732e-07
1.15721e-07
1.15729e-07
1.16584e-07
1.91985e-07
0.000869217
0.00361015
0.00439692
0.00581722
0.00262831
6.5644e-05
6.5644e-05
6.5644e-05
7.09149e-05
3.24983e-09
3.24248e-09
3.5345e-09
2.59771e-06
5.01182e-06
3.79901e-06
1.15705e-07
1.15735e-07
4.55487e-07
1.48639e-06
5.08463e-06
5.04399e-05
0.000223849
0.000416726
0.000300859
0.000136793
8.33736e-05
0.000106208
5.40898e-05
3.25175e-09
3.46078e-09
2.59083e-08
1.85591e-06
2.93508e-06
1.15705e-07
1.15705e-07
1.15705e-07
1.15811e-07
5.23355e-07
5.57035e-06
0.000182951
0.000291936
0.000278496
0.000123803
0.000154828
0.000155079
0.000110016
1.73563e-05
5.33091e-09
4.55342e-07
2.23098e-06
1.308e-06
1.15746e-07
1.15723e-07
1.15705e-07
1.15723e-07
1.1708e-07
4.88452e-06
0.000137549
0.000181879
0.000168928
2.74502e-05
1.17563e-05
7.17152e-05
9.10577e-05
1.9982e-05
1.51212e-08
5.15608e-08
4.20651e-06
7.92532e-06
7.66905e-06
1.045e-06
1.15746e-07
1.15723e-07
1.15795e-07
1.26076e-07
1.55672e-05
3.0146e-05
1.97216e-05
1.08564e-06
4.98647e-09
9.90659e-08
1.8426e-07
4.73768e-07
1.75399e-08
4.82976e-09
1.76759e-07
6.38587e-06
7.92496e-06
7.92555e-06
7.63823e-06
4.1714e-07
1.15795e-07
1.15981e-07
9.19401e-07
1.59848e-06
5.8067e-07
3.72457e-10
4.30302e-10
4.21318e-09
1.00031e-08
1.28593e-08
4.75631e-09
4.46434e-09
4.65339e-09
8.63071e-10
2.27394e-06
7.9192e-06
7.92333e-06
7.90696e-06
3.02053e-06
1.15982e-07
1.16009e-07
2.39212e-07
5.24073e-07
2.89318e-07
3.74842e-10
3.98904e-10
3.96593e-09
1.0358e-08
1.43009e-08
4.46434e-09
4.46434e-09
8.44975e-09
7.79483e-09
6.10403e-09
7.97916e-07
5.67886e-06
5.01858e-06
3.35465e-07
1.1606e-07
1.16135e-07
1.81295e-07
5.21929e-07
5.20693e-07
1.84187e-07
2.25201e-10
4.27841e-10
3.10973e-09
8.15903e-08
5.86947e-07
5.49983e-07
8.45241e-09
8.99748e-09
5.99212e-09
2.39811e-14
2.52653e-14
5.63885e-14
6.43398e-08
1.49663e-07
1.52694e-07
2.45546e-07
5.20659e-07
4.59489e-07
2.3317e-08
2.24733e-10
2.22891e-10
3.33927e-10
9.06604e-09
8.27469e-07
1.64419e-06
8.49787e-09
3.21382e-13
2.26793e-14
2.35231e-14
2.41667e-14
2.52653e-14
5.63759e-14
3.09749e-12
4.41472e-08
2.73165e-07
4.06151e-07
9.20472e-08
2.43368e-10
2.42399e-10
2.22481e-10
2.09169e-10
7.10046e-10
3.16299e-07
3.99844e-06
1.55869e-05
1.94875e-12
2.51114e-14
1.33921e-13
1.99599e-13
7.87129e-14
7.89376e-14
1.10915e-13
2.0486e-12
9.80071e-08
3.00999e-07
3.00803e-07
1.36773e-07
1.99033e-10
1.98975e-10
1.99033e-10
3.33832e-10
9.06668e-08
1.18845e-05
5.77777e-05
5.69107e-14
9.96559e-15
1.06819e-14
2.02313e-14
1.35453e-14
9.18304e-14
3.52628e-13
3.59514e-13
2.17743e-12
8.85257e-08
2.99803e-07
2.85091e-07
2.61355e-08
1.99033e-10
1.9898e-10
2.02922e-10
1.30111e-07
1.05717e-05
5.77778e-05
-6.96271e-15
-1.43436e-15
-2.09015e-16
1.68288e-16
6.19414e-16
6.43452e-15
9.19926e-14
7.00248e-13
2.93212e-11
1.94201e-09
5.75449e-08
1.12339e-07
3.10789e-08
1.95272e-09
2.0067e-10
2.76736e-10
1.34467e-07
3.10631e-06
5.77777e-05
-7.57216e-15
-3.21948e-15
-1.19027e-15
-3.44075e-16
-4.64349e-17
6.86389e-16
1.11396e-14
2.70218e-13
2.90282e-11
7.67561e-11
1.62996e-10
3.28781e-10
1.83882e-09
1.70188e-09
2.66769e-10
1.35748e-09
4.76315e-08
4.93198e-08
5.69935e-05
-2.60981e-15
-1.45375e-15
-7.47543e-16
-3.48546e-16
-1.32427e-16
5.348e-17
1.29824e-15
1.12703e-14
1.07695e-11
4.95081e-11
5.50691e-11
7.33114e-11
1.29424e-10
2.72522e-10
1.80806e-10
1.7016e-10
4.39557e-11
4.39557e-11
3.32752e-05
-4.81772e-16
-3.09586e-16
-1.91581e-16
-1.10648e-16
-5.057e-17
2.0907e-17
5.31443e-16
7.3401e-15
1.16959e-12
1.07016e-11
1.60404e-11
3.0505e-11
6.63367e-11
9.72497e-11
1.26658e-10
1.42854e-10
9.32257e-11
4.39557e-11
4.25709e-05
-5.1951e-17
-3.62012e-17
-2.5975e-17
-1.74621e-17
-6.22635e-18
3.65797e-17
3.64309e-16
3.26788e-15
4.18389e-14
5.04964e-13
2.03319e-12
8.21253e-12
2.4433e-11
4.74837e-11
8.67567e-11
1.36209e-10
1.03168e-10
4.43408e-11
4.93619e-05
-3.51143e-18
-2.39665e-18
-1.922e-18
-1.13098e-18
2.68137e-18
3.9724e-17
3.14861e-16
2.11009e-15
1.20283e-14
6.5414e-14
3.7487e-13
2.06041e-12
7.9816e-12
2.21916e-11
6.07128e-11
1.29335e-10
9.62124e-11
4.46359e-11
4.93644e-05
-1.68135e-19
-9.37901e-20
-4.80615e-20
2.09819e-19
3.69323e-18
3.69313e-17
2.8769e-16
1.87573e-15
1.06681e-14
5.45581e-14
2.57183e-13
1.1345e-12
4.36558e-12
1.42889e-11
5.45839e-11
1.21781e-10
4.54521e-11
4.5112e-11
4.88041e-05
-5.57685e-21
-5.59013e-24
1.50185e-20
2.72892e-19
3.3744e-18
3.38655e-17
2.7517e-16
1.83227e-15
1.04323e-14
5.27048e-14
2.43775e-13
1.04049e-12
3.94654e-12
1.30271e-11
6.13982e-11
9.93357e-11
4.53854e-11
4.62524e-06
4.90166e-05
-1.38009e-23
1.31709e-20
1.6356e-19
7.97347e-19
4.54352e-18
3.6459e-17
2.94271e-16
2.02613e-15
1.16373e-14
5.73889e-14
2.56629e-13
1.06922e-12
3.99011e-12
1.38062e-11
8.87915e-11
1.18605e-10
4.52634e-11
1.10845e-05
4.90166e-05
4.2645e-22
2.44237e-19
4.92696e-18
2.77358e-17
7.81203e-17
1.81122e-16
6.06704e-16
3.12364e-15
1.73273e-14
8.57588e-14
3.6838e-13
1.47183e-12
5.16229e-12
2.63937e-11
1.3019e-10
1.35488e-10
4.50632e-11
1.12872e-05
4.90166e-05
1.28929e-21
1.2822e-18
3.73639e-17
2.94017e-16
1.08458e-15
2.6746e-15
6.05316e-15
1.54502e-14
4.96108e-14
1.92217e-13
7.83389e-13
3.20648e-12
1.04963e-11
4.44473e-11
1.31954e-10
1.30923e-10
4.49314e-11
3.50267e-06
4.90148e-05
1.99181e-21
2.98193e-18
1.18814e-16
1.31182e-15
6.42662e-15
2.0679e-14
5.72002e-14
1.4265e-13
3.19395e-13
7.46223e-13
2.37176e-12
6.77396e-12
1.4263e-11
3.67642e-11
9.83208e-11
7.34007e-11
4.49314e-11
4.49314e-11
3.12308e-05
2.10504e-21
3.97291e-18
2.26042e-16
3.63468e-15
2.35319e-14
9.57194e-14
3.18621e-13
9.10247e-13
1.87919e-12
3.52006e-12
5.92155e-12
1.22565e-11
1.39245e-11
1.70799e-11
1.94728e-11
4.30856e-11
1.61856e-10
8.88648e-11
2.92651e-05
8.05245e-22
3.02898e-18
2.8322e-16
6.56461e-15
5.9751e-14
2.96179e-13
1.21762e-12
3.98027e-12
7.8282e-12
9.77134e-12
1.54523e-11
2.42685e-11
1.40469e-10
5.24477e-11
2.05327e-10
2.38368e-09
1.89151e-09
1.45923e-10
4.5553e-05
2.55818e-22
6.72512e-19
1.60764e-16
7.93534e-15
1.02061e-13
6.68003e-13
3.20106e-12
1.20056e-11
2.13483e-11
1.91332e-11
1.82725e-11
1.4635e-10
1.21525e-09
3.31972e-09
5.77578e-09
6.25587e-09
4.8274e-10
5.9261e-07
4.55534e-05
4.33599e-23
1.36922e-19
4.18672e-17
4.39803e-15
1.11166e-13
1.05716e-12
6.59831e-12
2.82808e-11
4.8421e-11
3.76202e-11
1.82786e-11
7.16211e-10
5.5758e-09
7.67601e-09
7.67601e-09
7.33429e-09
4.60958e-10
3.99459e-08
4.55434e-05
2.43666e-24
1.57865e-20
7.33893e-18
1.1313e-15
4.89829e-14
9.20915e-13
7.67688e-12
4.40985e-11
9.83106e-11
8.67685e-11
1.84189e-11
8.81938e-10
6.16303e-09
7.55546e-09
5.68578e-09
4.05222e-09
4.51824e-10
4.3335e-10
3.96178e-05
7.0464e-26
1.26818e-21
5.95471e-19
1.71976e-16
1.55154e-14
4.13471e-13
6.53125e-12
4.45354e-11
1.44875e-10
1.88326e-10
1.50463e-10
6.81282e-10
3.24682e-09
2.50053e-09
4.48978e-10
4.28049e-10
4.2856e-10
4.28079e-10
3.95259e-05
2.3776e-33
1.84234e-26
3.13202e-21
7.57936e-18
1.9272e-15
9.66155e-14
2.92641e-12
4.00941e-11
1.77947e-10
2.38598e-10
2.38851e-10
2.8586e-10
3.7348e-10
3.81163e-10
8.38733e-08
1.35341e-07
1.01322e-08
4.3335e-10
3.92562e-05
4.47556e-44
3.64837e-36
2.37872e-27
1.0547e-21
4.92873e-18
2.29101e-15
4.05843e-13
1.83719e-11
9.85581e-11
2.20841e-10
2.34673e-10
2.30459e-10
2.30459e-10
5.91957e-08
2.8915e-07
2.8915e-07
1.78671e-07
4.97125e-10
1.42079e-05
)
;

boundaryField
{
    leftWall
    {
        type            zeroGradient;
    }
    rightWall
    {
        type            zeroGradient;
    }
    lowerWall
    {
        type            zeroGradient;
    }
    atmosphere
    {
        type            inletOutlet;
        inletValue      uniform 0;
        value           nonuniform List<scalar> 
46
(
0
0
0
0
0
0
0
0
0
0
0
0
0
0
0
0
0
0
0
0
0
0
0
0
0
0
0
0
0
0
0
0
0
0
0
9.85581e-11
2.20841e-10
2.34673e-10
2.30459e-10
2.30459e-10
5.91957e-08
2.8915e-07
2.8915e-07
1.78671e-07
4.97125e-10
1.42079e-05
)
;
    }
    defaultFaces
    {
        type            empty;
    }
}


// ************************************************************************* //
