/*--------------------------------*- C++ -*----------------------------------*\
  =========                 |
  \\      /  F ield         | OpenFOAM: The Open Source CFD Toolbox
   \\    /   O peration     | Website:  https://openfoam.org
    \\  /    A nd           | Version:  9
     \\/     M anipulation  |
\*---------------------------------------------------------------------------*/
FoamFile
{
    format      ascii;
    class       volScalarField;
    location    "9.53";
    object      alpha.water;
}
// * * * * * * * * * * * * * * * * * * * * * * * * * * * * * * * * * * * * * //

dimensions      [0 0 0 0 0 0 0];

internalField   nonuniform List<scalar> 
2268
(
1
0.999999
0.999999
0.999998
0.999999
1
0.999999
0.999998
0.999997
0.999998
1
1
1
0.999999
1
1
1
1
0.999392
0.998254
0.99947
0.999996
0.999935
0.999999
0.999998
0.999997
0.999998
0.999999
0.999999
0.999997
0.999997
0.999997
0.999998
0.999999
0.999999
1
0.999999
0.999999
0.999998
0.999999
1
0.998693
0.998254
0.999668
0.999996
0.999996
0.999997
0.999996
0.999997
0.999998
0.999999
0.999999
0.999999
0.999999
0.999999
0.999999
0.999999
0.999999
1
1
0.999997
0.999989
0.999999
1
0.998619
0.998254
0.999753
0.999996
0.999995
0.999999
0.999998
0.999999
0.999999
0.999999
1
0.999999
0.999999
0.999999
0.999999
1
1
1
1
0.999995
0.999939
0.999958
0.999989
0.999327
0.998254
0.999733
0.999996
0.999841
1
0.999999
1
1
0.999999
0.999999
0.999999
0.999999
1
1
1
1
1
1
1
0.999768
0.999638
0.999894
0.999925
0.99899
0.999812
0.999314
0.999637
1
0.999999
1
1
1
0.999999
0.999999
0.999999
0.999999
1
1
1
1
1
1
0.999594
0.998744
0.999973
0.999973
0.999973
0.999972
0.996262
0.999601
1
1
1
1
1
1
1
1
0.999999
0.999999
0.999999
1
1
1
1
0.999974
0.995133
0.993413
0.999973
0.999973
0.994947
0.994319
0.999516
1
1
1
1
1
1
1
1
0.999999
0.999999
0.999999
1
1
1
1
1
0.993367
0.989924
0.993633
0.996477
0.992324
0.995822
0.999881
0.999808
0.999686
0.999585
0.999585
0.999755
0.999962
0.997655
0.995788
0.995783
0.995489
0.99241
0.992408
0.996715
0.998687
0.998687
0.998687
0.998687
0.998687
0.998686
0.999809
0.999809
0.99999
0.999988
0.999998
0.999997
0.999997
0.999997
0.999992
0.999992
0.997719
0.992408
0.992538
0.998677
0.998687
0.998687
0.99844
0.996628
0.997525
0.999809
0.998033
0.999991
0.999998
0.999998
0.999994
0.999964
0.999956
0.999938
0.999982
0.99978
0.992408
0.992408
0.995813
0.998687
0.998595
0.995816
0.995816
0.995833
0.995528
0.996188
0.999998
0.999998
0.999998
0.999952
0.999819
0.999765
0.999575
0.999534
0.999755
0.997323
0.993266
0.996634
0.998687
0.998687
0.997562
0.996517
0.998497
0.992399
0.9975
0.999998
0.999997
0.999996
0.999883
0.999876
0.999863
0.999399
0.999374
0.99938
0.999689
0.999352
0.999483
0.997605
0.9985
0.998499
0.998498
0.998498
0.992399
0.998091
0.999997
0.999991
0.999986
0.999997
0.999997
0.999842
0.999563
0.999669
0.999689
0.999689
0.999689
0.999689
0.997022
0.992259
0.992563
0.998456
0.998433
0.995288
0.999559
0.999997
0.999997
0.999997
0.999997
0.999997
0.999463
0.998368
0.999689
0.999689
0.999689
0.999689
0.999646
0.994291
0.991282
0.990865
0.996127
0.998433
0.999967
0.999996
0.999997
0.999997
0.999997
0.999997
0.999997
0.999023
0.992645
0.993724
0.999211
0.999689
0.99966
0.996413
0.992516
0.996672
0.990865
0.995024
0.998432
1
1
1
1
1
1
1
1
0.999999
0.999999
0.999999
1
1
1
1
1
1
0.995465
0.990169
0.991411
0.996676
0.999997
0.999997
0.990437
0.990451
0.99043
0.990912
0.991883
0.992619
0.993067
0.9931
0.991365
0.989292
0.986907
0.984272
0.982662
0.981804
0.982024
0.983527
0.985626
0.987273
0.98727
0.986023
0.983691
0.980215
0.976628
0.367471
0.368003
0.368066
0.366915
0.364623
0.362161
0.359142
0.356081
0.353735
0.351662
0.34954
0.347235
0.344086
0.34023
0.335876
0.331638
0.328891
0.32873
0.328721
0.326876
0.324508
0.323365
0.324145
0.000371151
0.00037102
0.000371134
0.00037102
0.000371117
0.000370614
0.000370019
0.000369487
0.000368988
0.000368677
0.000368555
0.000368612
0.000368612
0.000429957
0.000571669
0.000785886
0.00105897
0.000748059
0.00039505
0.000422126
0.000501179
0.000499072
0.000367361
0.000620449
0.000620393
0.000429057
0.000672904
0.00145317
0.00147575
0.00147478
0.00154092
0.00169833
0.00169953
0.00169981
0.00166688
0.00157578
0.00151759
0.00150522
0.00148225
0.00128077
0.000886469
0.000376878
0.000421664
0.000500493
0.000492848
0.000331499
0.000243978
0.000253436
0.00027176
0.000243723
6.56715e-08
6.56376e-08
6.57167e-08
2.67407e-05
6.63084e-08
6.63138e-08
7.253e-08
7.22526e-08
8.64711e-08
6.07691e-06
6.62612e-06
6.95468e-06
1.98625e-05
0.000135482
0.000239641
0.000203983
0.000216586
0.000241658
0.000145633
2.0685e-09
2.05718e-09
1.53922e-06
3.11446e-06
6.56384e-08
6.57167e-08
6.58684e-08
6.59332e-08
6.60918e-08
6.63133e-08
7.2013e-07
3.02653e-05
4.35456e-05
4.35445e-05
4.35452e-05
1.32514e-05
1.34384e-07
3.27949e-07
3.3031e-06
7.04839e-09
1.20641e-06
2.78745e-05
6.25137e-05
2.07029e-09
2.04783e-09
1.9334e-08
2.7176e-07
6.37951e-07
9.30781e-07
1.58568e-07
3.57351e-07
8.36645e-07
5.51309e-07
8.67021e-07
1.15512e-05
1.97767e-05
1.38122e-05
6.6177e-06
9.78364e-06
1.0785e-07
6.01328e-09
6.02039e-09
6.01396e-09
6.01888e-09
1.33063e-08
4.50763e-07
2.06262e-09
2.04714e-09
1.98736e-09
1.43383e-07
1.63097e-06
1.74653e-06
1.47162e-06
1.26545e-06
2.57433e-06
2.57433e-06
8.59845e-07
4.12044e-10
4.12021e-10
4.32249e-10
1.93979e-06
7.13896e-06
1.64171e-06
6.01246e-09
6.01248e-09
6.01275e-09
6.01397e-09
6.01903e-09
3.33508e-07
2.22766e-09
2.09122e-09
1.956e-09
3.76435e-08
1.2543e-06
1.74653e-06
1.60438e-06
1.22901e-06
2.57433e-06
2.57433e-06
4.49829e-07
4.0578e-10
2.16043e-08
2.21506e-08
1.12447e-07
5.44422e-07
7.37922e-07
6.01248e-09
6.01251e-09
6.01251e-09
6.01274e-09
4.51675e-08
1.30308e-05
2.17279e-09
1.7496e-09
1.7496e-09
1.99663e-09
3.3523e-07
1.2368e-06
3.96945e-07
6.8936e-07
2.57433e-06
1.91639e-06
3.97974e-10
3.98958e-10
2.41616e-07
1.60991e-06
1.68459e-06
1.3681e-07
9.27406e-09
1.22427e-08
1.57942e-08
1.3515e-08
7.44128e-09
1.25553e-07
1.43784e-05
3.12569e-09
1.93643e-09
7.27637e-09
1.59669e-09
2.01169e-09
3.40414e-08
2.0688e-08
3.48298e-07
2.57367e-06
8.45043e-07
3.97442e-10
3.97974e-10
1.68278e-07
4.3088e-06
5.50127e-06
3.74555e-06
9.25982e-09
9.24363e-09
1.49808e-08
1.81317e-08
1.17764e-08
1.52217e-08
3.55968e-07
7.67654e-09
8.56441e-08
9.30377e-08
4.17675e-09
6.56931e-10
6.56926e-10
1.987e-08
1.11039e-06
1.72773e-06
3.9732e-10
3.97313e-10
3.97441e-10
5.61566e-08
3.49881e-06
5.50114e-06
5.50127e-06
3.5301e-06
5.49157e-09
5.49574e-09
9.36644e-09
9.28069e-09
4.6102e-09
2.88037e-09
1.00981e-08
1.01353e-07
1.01353e-07
1.26844e-08
6.56931e-10
1.31772e-08
7.90153e-07
1.42163e-06
1.00742e-06
3.97313e-10
4.11911e-10
4.82306e-10
2.41333e-10
6.12901e-08
3.12975e-06
5.49913e-06
4.69216e-06
5.49158e-09
5.49157e-09
5.49158e-09
7.7901e-09
9.51673e-09
1.11681e-08
7.92228e-09
9.86701e-08
1.01351e-07
1.20105e-08
6.62987e-10
1.32458e-07
1.4217e-06
1.42178e-06
5.4602e-07
3.9732e-10
5.22655e-10
5.5791e-10
2.11493e-10
1.27192e-09
1.70421e-07
7.47083e-07
8.61893e-07
1.76325e-07
5.49158e-09
5.63301e-09
1.18235e-08
1.07937e-08
1.71914e-08
3.0414e-09
2.2403e-08
5.69255e-08
5.57565e-09
7.27956e-10
8.45543e-08
1.29057e-06
1.33797e-06
7.22422e-11
4.24208e-10
6.86387e-10
5.62342e-10
1.41137e-10
6.4345e-11
6.4781e-11
7.02128e-11
8.03173e-10
1.10848e-08
9.28697e-09
1.27317e-08
1.27317e-08
6.29851e-09
8.63712e-10
4.33419e-10
3.7342e-10
1.12177e-09
7.50845e-10
9.59839e-10
3.55585e-08
1.47124e-07
1.90388e-07
7.2085e-11
4.42586e-10
6.62853e-10
3.6406e-10
8.30951e-11
5.88601e-11
5.88613e-11
5.88753e-11
6.48832e-11
6.16264e-10
3.44275e-09
5.23579e-09
4.34295e-09
1.35702e-09
3.51019e-10
3.73419e-10
3.73435e-10
4.04301e-10
4.35232e-10
2.73198e-09
1.19741e-08
1.43399e-10
1.1621e-11
7.20819e-11
3.34077e-10
3.8913e-10
1.31472e-10
3.9125e-11
5.08011e-11
5.9781e-11
6.04414e-11
5.96677e-11
6.82333e-11
1.15624e-10
1.21104e-10
8.77599e-11
1.01252e-10
1.06059e-10
1.15129e-08
5.29796e-08
2.44776e-09
4.48816e-10
3.3829e-09
4.45265e-09
5.01265e-11
1.14433e-11
4.37415e-11
1.26801e-10
9.64538e-11
1.99737e-11
1.00013e-11
2.96565e-11
4.23556e-11
4.44621e-11
3.9908e-11
2.45446e-11
1.20058e-11
5.57485e-12
2.835e-12
2.01765e-12
1.67796e-12
2.59139e-07
2.59023e-07
4.93187e-09
4.83405e-10
2.86538e-09
9.52363e-10
2.15785e-11
1.1443e-11
1.22227e-11
1.63608e-11
6.46765e-12
6.74361e-13
8.36551e-13
7.13692e-12
1.33192e-11
1.43915e-11
1.1301e-11
5.48104e-12
2.25786e-12
1.13035e-12
5.59558e-13
2.58924e-13
2.00465e-13
2.7647e-07
2.08012e-07
2.32784e-09
4.55684e-10
1.53409e-09
8.26607e-11
1.35304e-11
9.86634e-12
1.1072e-12
3.46891e-13
2.38474e-14
-2.68845e-13
-1.81176e-13
2.97994e-13
9.04701e-13
1.00701e-12
6.35961e-13
2.395e-13
8.47254e-14
3.67459e-14
1.18081e-14
3.79565e-16
1.05829e-16
2.7647e-07
2.56831e-08
2.48425e-10
3.33932e-10
4.00396e-10
9.03438e-12
8.17276e-12
5.79856e-12
1.00974e-31
-3.90999e-13
-6.01126e-13
-7.82718e-13
-6.62005e-13
-3.34956e-13
-8.02422e-14
1.51162e-16
-3.09151e-14
-7.79028e-14
-8.39078e-14
-7.15045e-14
-5.385e-14
-3.67085e-14
-2.27959e-14
2.76426e-07
1.07001e-10
1.07001e-10
1.50884e-10
5.52915e-11
4.18691e-12
3.00657e-12
1.39936e-12
-3.83316e-13
-7.84256e-13
-9.37753e-13
-9.68233e-13
-8.18637e-13
-5.7153e-13
-3.71092e-13
-2.55108e-13
-1.9681e-13
-1.55869e-13
-1.17057e-13
-8.30892e-14
-5.57611e-14
-3.52507e-14
-2.10028e-14
2.76482e-07
1.03335e-07
3.03919e-10
4.36964e-11
2.78539e-11
4.22015e-12
4.42146e-13
5.37793e-14
-5.07917e-13
-8.33261e-13
-9.26199e-13
-8.86979e-13
-7.39738e-13
-5.49135e-13
-3.85746e-13
-2.70186e-13
-1.91908e-13
-1.33966e-13
-8.96571e-14
-5.74823e-14
-3.56559e-14
-2.14391e-14
-1.23915e-14
2.76482e-07
2.76482e-07
1.52199e-09
3.00801e-11
2.92736e-11
4.64212e-12
3.00401e-13
5.70579e-14
-3.39408e-13
-5.86299e-13
-6.66974e-13
-6.40728e-13
-5.39847e-13
-4.10043e-13
-2.92304e-13
-2.01627e-13
-1.36035e-13
-8.81371e-14
-5.42694e-14
-3.18605e-14
-1.81462e-14
-1.0237e-14
-5.72496e-15
2.76482e-07
2.76482e-07
1.61857e-09
3.58224e-11
3.78623e-11
6.15652e-12
7.93144e-13
5.48712e-13
1.00081e-13
-1.29737e-13
-2.59857e-13
-3.19134e-13
-3.09118e-13
-2.52542e-13
-1.83591e-13
-1.24666e-13
-8.11502e-14
-4.97577e-14
-2.85982e-14
-1.54593e-14
-8.00708e-15
-4.12999e-15
-2.17715e-15
2.76482e-07
2.07137e-07
4.50175e-10
6.82914e-11
6.15291e-11
1.01466e-11
2.95444e-12
2.70262e-12
2.04899e-12
1.18612e-12
4.8084e-13
3.69606e-14
-9.57388e-14
-1.22867e-13
-9.92813e-14
-6.72753e-14
-4.28608e-14
-2.51979e-14
-1.36586e-14
-6.84883e-15
-3.22673e-15
-1.50107e-15
-7.19384e-16
2.20293e-07
1.85851e-08
1.35042e-10
1.48059e-10
1.02766e-10
1.83052e-11
8.44518e-12
8.22393e-12
7.05284e-12
5.00087e-12
2.76492e-12
1.06239e-12
1.70367e-13
-3.37387e-14
-4.59002e-14
-3.24521e-14
-2.05699e-14
-1.17217e-14
-6.03648e-15
-2.82437e-15
-1.21871e-15
-5.16473e-16
-2.27412e-16
1.47456e-08
7.67902e-11
1.31415e-10
2.02972e-10
1.34037e-10
3.1554e-11
1.87391e-11
1.82522e-11
1.59004e-11
1.18806e-11
6.99537e-12
2.90333e-12
6.67083e-13
2.03973e-14
-1.62022e-14
-1.40988e-14
-9.10318e-15
-5.07767e-15
-2.49985e-15
-1.09741e-15
-4.39222e-16
-1.75621e-16
-7.46685e-17
7.67813e-11
7.675e-11
1.65307e-10
2.07299e-10
1.36048e-10
4.74886e-11
3.33595e-11
3.23184e-11
2.79275e-11
2.11851e-11
1.27774e-11
5.23259e-12
1.082e-12
5.65979e-14
-2.4102e-15
-5.50363e-15
-3.75707e-15
-2.06781e-15
-9.76843e-16
-4.05054e-16
-1.52521e-16
-5.74767e-17
-2.35057e-17
7.675e-11
7.67499e-11
1.65137e-10
1.88223e-10
1.2257e-10
5.45311e-11
4.72369e-11
4.67371e-11
4.07608e-11
3.10697e-11
1.8843e-11
7.29436e-12
1.24442e-12
5.81052e-14
-2.20757e-17
-1.99258e-15
-1.46387e-15
-7.99147e-16
-3.62711e-16
-1.42219e-16
-5.02082e-17
-1.7748e-17
-6.96588e-18
8.72726e-11
6.49587e-11
1.16913e-10
9.94802e-11
7.80238e-11
5.34608e-11
5.217e-11
5.33545e-11
4.94765e-11
3.8691e-11
2.31662e-11
8.27561e-12
1.23406e-12
4.71047e-14
1.05803e-16
-6.91046e-16
-5.46245e-16
-2.95592e-16
-1.28531e-16
-4.74259e-17
-1.55254e-17
-5.08812e-18
-1.88038e-18
1.77421e-10
5.15037e-11
5.19474e-11
5.14854e-11
5.14853e-11
5.14853e-11
5.19996e-11
5.396e-11
5.19021e-11
4.16323e-11
2.44767e-11
8.31165e-12
1.0861e-12
2.71279e-14
6.25557e-17
-2.36882e-16
-1.9821e-16
-1.05486e-16
-4.35953e-17
-1.49617e-17
-4.4556e-18
-1.32542e-18
-4.52675e-19
3.48426e-10
5.1486e-11
5.14854e-11
5.14853e-11
5.14853e-11
5.14853e-11
5.5684e-11
5.43851e-11
5.18351e-11
4.17317e-11
2.43165e-11
7.76701e-12
7.76427e-13
1.13061e-14
1.52193e-17
-8.26104e-17
-7.08562e-17
-3.65548e-17
-1.41712e-17
-4.44329e-18
-1.17559e-18
-3.09933e-19
-9.56445e-20
3.48308e-10
1.18795e-08
3.64363e-08
4.46373e-07
4.60485e-08
3.26266e-09
5.1967e-11
5.19781e-11
5.07942e-11
4.10114e-11
2.28457e-11
6.18751e-12
4.24065e-13
3.41582e-15
1.8698e-18
-2.9667e-17
-2.51704e-17
-1.23416e-17
-4.40845e-18
-1.23474e-18
-2.82061e-19
-6.38069e-20
-1.73453e-20
3.48415e-10
2.81428e-08
6.98232e-07
8.19965e-07
7.5845e-07
9.99848e-08
4.3555e-11
4.35276e-11
4.78581e-11
3.82557e-11
1.9135e-11
3.94035e-12
1.66126e-13
6.81533e-16
1.45407e-19
-1.10356e-17
-8.92488e-18
-4.06208e-18
-1.30895e-18
-3.19395e-19
-6.09942e-20
-1.13757e-20
-2.63572e-21
3.48576e-10
7.68672e-09
8.19965e-07
8.19965e-07
8.19965e-07
1.53797e-07
4.31671e-11
4.23313e-11
4.39129e-11
3.28422e-11
1.36058e-11
1.89819e-12
4.2697e-14
7.62932e-17
4.22075e-21
-4.28374e-18
-3.16336e-18
-1.30324e-18
-3.70492e-19
-7.67708e-20
-1.1854e-20
-1.73735e-21
-3.27593e-22
7.91915e-10
7.9205e-10
3.27265e-07
8.19965e-07
5.58462e-07
5.84065e-08
5.24588e-11
4.23109e-11
3.90573e-11
2.49486e-11
7.75512e-12
6.3491e-13
6.31511e-15
4.02362e-18
-2.88612e-19
-1.74381e-18
-1.12009e-18
-4.08101e-19
-1.00218e-19
-1.72143e-20
-2.08056e-21
-2.25975e-22
-3.24895e-23
1.59343e-09
1.34452e-09
6.79012e-10
1.67655e-07
2.77775e-08
1.95873e-09
6.37369e-11
4.65464e-11
3.28145e-11
1.58778e-11
3.20691e-12
1.2662e-13
4.49581e-16
9.46422e-20
-3.9818e-19
-7.26429e-19
-3.95706e-19
-1.25319e-19
-2.61248e-20
-3.64568e-21
-3.35819e-22
-2.54297e-23
-2.53181e-24
7.48363e-10
1.27734e-09
5.95355e-10
2.64122e-10
1.00574e-10
8.12533e-11
8.12492e-11
4.97661e-11
2.44023e-11
7.71414e-12
8.08792e-13
1.19286e-14
1.25183e-17
6.01269e-22
-2.70417e-19
-3.03191e-19
-1.39727e-19
-3.80853e-20
-6.66482e-21
-7.4555e-22
-5.1371e-23
-2.56811e-24
-1.54662e-25
-6.39982e-27
7.13653e-10
7.07299e-10
3.86437e-10
2.04982e-10
1.51522e-10
1.01042e-10
4.59848e-11
1.49452e-11
2.46037e-12
9.65197e-14
3.98811e-16
1.14938e-19
-2.74577e-20
-1.53696e-19
-1.2635e-19
-4.95726e-20
-1.16104e-20
-1.70279e-21
-1.52313e-22
-7.76185e-24
-2.438e-25
-7.43456e-27
-8.94185e-28
1.35242e-10
5.8185e-10
5.46081e-10
4.1407e-10
2.39558e-10
9.92948e-11
2.88359e-11
4.64181e-12
2.81032e-13
2.99793e-15
2.90476e-18
3.30347e-22
-3.96483e-20
-8.11726e-20
-5.26677e-20
-1.77955e-20
-3.61101e-21
-4.49966e-22
-3.29336e-23
-1.2822e-24
-2.34498e-26
-2.53272e-28
0.999997
0.999997
0.999997
0.999997
0.976824
0.976956
0.977628
0.977586
0.323336
0.322581
0.322391
0.322947
0.000282869
0.000515866
0.00056705
0.000483866
0.000247112
0.000514766
0.000567615
0.000453467
6.78889e-05
0.000220456
0.000358907
0.000345215
2.36267e-05
7.08177e-06
1.24986e-06
3.72984e-06
2.14519e-06
7.20589e-08
6.98253e-08
4.34641e-08
1.01596e-05
1.89787e-05
1.1026e-05
2.7919e-06
2.1163e-05
2.11631e-05
2.11633e-05
2.11632e-05
2.11631e-05
2.11633e-05
2.11633e-05
2.11633e-05
4.87497e-06
1.82976e-05
2.11631e-05
2.11623e-05
2.18277e-09
2.18277e-09
2.18277e-09
2.18294e-09
1.22356e-08
6.23375e-09
5.25103e-09
2.54883e-09
2.44216e-08
2.4499e-08
6.51711e-08
1.31462e-07
7.34974e-10
5.75011e-10
9.46597e-08
2.39287e-07
2.16541e-11
4.44683e-13
2.64212e-11
3.41897e-08
7.57314e-12
4.44211e-13
1.23567e-13
2.64945e-14
3.6987e-13
2.50581e-13
1.22688e-13
2.64392e-14
1.81009e-13
1.33107e-13
7.52437e-14
4.13897e-14
6.44903e-16
-9.5634e-17
-9.04448e-16
-1.35279e-15
-1.31202e-14
-1.04354e-14
-8.28938e-15
-6.56523e-15
-1.19222e-14
-9.35088e-15
-7.38344e-15
-5.85217e-15
-6.79261e-15
-5.11197e-15
-3.91231e-15
-3.03562e-15
-3.11962e-15
-2.25709e-15
-1.63696e-15
-1.19824e-15
-1.22583e-15
-8.73501e-16
-6.13011e-16
-4.17182e-16
-4.34061e-16
-3.01118e-16
-2.09345e-16
-1.3927e-16
-1.45243e-16
-9.72733e-17
-6.52937e-17
-4.3082e-17
-4.73279e-17
-3.06513e-17
-1.97764e-17
-1.26365e-17
-1.44828e-17
-9.08287e-18
-5.66318e-18
-3.48775e-18
-4.14164e-18
-2.49625e-18
-1.49417e-18
-8.82162e-19
-1.06777e-18
-6.13147e-19
-3.49446e-19
-1.96332e-19
-2.42843e-19
-1.31556e-19
-7.06645e-20
-3.73846e-20
-4.77697e-20
-2.40971e-20
-1.20414e-20
-5.91894e-21
-7.92527e-21
-3.66311e-21
-1.6756e-21
-7.52694e-22
-1.07651e-21
-4.4642e-22
-1.83061e-22
-7.35625e-23
-1.15655e-22
-4.17732e-23
-1.49195e-23
-5.20975e-24
-9.41514e-24
-2.83172e-24
-8.44022e-25
-2.45515e-25
-5.50668e-25
-1.27634e-25
-2.95717e-26
-6.69609e-27
-2.13917e-26
-3.28374e-27
-5.16522e-28
-8.04288e-29
-4.7996e-28
-3.47551e-29
-2.69986e-30
-2.1725e-31
-3.69013e-30
-5.01847e-32
-6.80646e-34
-9.81745e-36
0.999997
0.999997
0.999997
0.999997
0.999492
0.997371
0.997076
0.997769
0.992358
0.985305
0.985303
0.987817
0.987545
0.987548
0.996377
0.996673
0.996029
0.996501
0.997727
0.979685
0.977535
0.974507
0.972089
0.971164
0.971765
0.972335
0.975123
0.983052
0.988586
0.989567
0.989571
0.989637
0.989853
0.990207
0.989501
0.988731
0.984447
0.981899
0.325363
0.325129
0.327374
0.33066
0.334564
0.338986
0.343147
0.346348
0.349108
0.352859
0.356454
0.359655
0.36247
0.363503
0.362707
0.363537
0.365082
0.365943
0.366739
0.000284893
0.000750941
0.000764793
0.000750854
0.000695416
0.000456028
0.000288785
0.00019648
0.000185911
0.000185759
0.000185567
0.000185485
0.000185567
0.000185485
0.000185632
0.000185901
0.000186152
0.000186416
0.000186676
0.000254061
0.000751604
0.000753731
0.000739236
0.000748086
0.000774483
0.000777986
0.000780601
0.000780679
0.000773317
0.000674527
0.000464016
0.000208842
0.000464098
0.000550545
0.000550542
0.000550545
0.000550507
0.000472261
0.000192678
0.000134921
0.000157339
0.000139711
0.000107255
7.96637e-05
6.50918e-05
5.57819e-05
2.75042e-05
8.92276e-06
8.92386e-06
1.83178e-05
8.04658e-05
8.68637e-05
9.3921e-05
0.00012801
0.000143234
0.0001409
0.000171682
1.78422e-05
1.44837e-08
1.7762e-08
1.92494e-07
3.48904e-07
5.36429e-06
6.26135e-06
5.86877e-06
5.86803e-06
1.41997e-05
2.55511e-05
3.23431e-05
3.33542e-05
1.82351e-05
1.90409e-06
5.15091e-07
5.15087e-07
5.15087e-07
5.15087e-07
1.46179e-08
1.43187e-08
1.46097e-08
2.04247e-06
2.42533e-05
3.35939e-05
3.35978e-05
1.8975e-05
2.76722e-05
4.54882e-05
4.54949e-05
4.54949e-05
4.54949e-05
3.00815e-05
1.01984e-06
5.15089e-07
5.15087e-07
5.15087e-07
5.15087e-07
8.44934e-07
1.43187e-08
1.43187e-08
1.33851e-05
3.36183e-05
3.36186e-05
2.47034e-05
2.86039e-05
2.60891e-05
1.13337e-05
2.16549e-05
3.24031e-05
3.16511e-05
5.61941e-06
5.1509e-07
5.15087e-07
5.15087e-07
5.15087e-07
5.15087e-07
1.65243e-05
7.09164e-08
1.96992e-08
4.27062e-06
1.13843e-05
6.49805e-06
6.93952e-08
1.48704e-07
3.25449e-10
3.25483e-10
3.25449e-10
3.78345e-10
2.1821e-06
5.69898e-06
5.15271e-07
5.15087e-07
5.15087e-07
5.15087e-07
5.17729e-07
2.11632e-05
1.74836e-05
2.21172e-09
2.19002e-09
2.19002e-09
2.18997e-09
2.56543e-07
4.72612e-07
1.87151e-07
2.97234e-10
5.33847e-08
3.89928e-06
7.8966e-06
4.40634e-06
5.15087e-07
5.15087e-07
5.15101e-07
5.18568e-07
5.18568e-07
1.56828e-05
7.77212e-06
2.91564e-08
2.19116e-09
2.19002e-09
2.1952e-07
4.74427e-07
4.72715e-07
1.49878e-07
2.66578e-10
4.19023e-07
7.34615e-06
7.90507e-06
5.93711e-06
5.15088e-07
5.15087e-07
5.15088e-07
5.15088e-07
5.1509e-07
2.18299e-09
2.26301e-09
3.10681e-09
2.57132e-09
9.43607e-09
1.22151e-08
8.5263e-09
2.64131e-10
2.64131e-10
2.64133e-10
2.66578e-10
2.76183e-06
7.90507e-06
7.90279e-06
2.77951e-06
5.15087e-07
5.15088e-07
5.15089e-07
5.15092e-07
3.07054e-09
2.2452e-09
2.23252e-09
2.23288e-09
1.90741e-09
2.64136e-10
2.64132e-10
2.64131e-10
2.64132e-10
2.99169e-10
2.98719e-10
1.41136e-08
3.48989e-06
6.79202e-06
3.53846e-06
8.70255e-07
3.19122e-06
3.22009e-06
1.40139e-06
1.53795e-07
1.14059e-07
2.23891e-08
6.32742e-10
6.32635e-10
5.33816e-10
2.91557e-10
2.66314e-10
4.58236e-10
5.53245e-10
3.75623e-10
6.69568e-11
6.62595e-11
6.76288e-11
6.02051e-07
1.01141e-05
1.04682e-05
1.04683e-05
1.04656e-05
2.39288e-07
2.39287e-07
2.18941e-07
1.61306e-08
1.31313e-09
8.95361e-10
5.30187e-09
9.2297e-09
2.99501e-09
3.05838e-10
2.04649e-10
7.55082e-11
6.54966e-11
6.6342e-11
8.4418e-07
8.24947e-06
1.04682e-05
7.74331e-06
4.17909e-06
1.63457e-07
2.39275e-07
2.39263e-07
2.30312e-07
5.327e-09
9.29632e-10
3.38965e-08
6.39093e-08
3.01912e-08
2.34455e-09
2.85866e-11
4.4892e-11
6.54192e-11
1.85723e-10
1.79858e-08
3.73311e-07
1.25256e-06
1.14438e-12
1.16205e-12
3.28065e-11
7.25636e-08
2.09846e-07
1.76707e-07
1.44403e-08
1.73313e-09
4.92366e-08
6.39093e-08
6.39093e-08
2.48715e-08
2.85828e-11
3.56488e-11
1.24156e-10
5.68383e-10
1.88199e-10
1.03783e-12
1.03832e-12
1.09899e-12
1.15804e-12
2.29968e-19
2.31964e-41
-7.54206e-32
3.5318e-20
9.07398e-10
2.19694e-09
2.90839e-08
6.39093e-08
6.25778e-08
2.41145e-08
2.85721e-11
2.85687e-11
4.7397e-11
5.17513e-11
5.73199e-11
1.03533e-12
3.66684e-11
2.67047e-09
1.19075e-11
1.42396e-14
-2.51931e-16
-1.51528e-16
-5.60773e-32
3.53165e-20
7.26868e-19
6.87321e-16
4.52982e-09
8.41994e-09
2.96747e-10
9.11309e-11
2.7572e-11
3.82914e-11
5.26942e-12
6.67696e-13
1.03492e-12
1.27573e-12
2.56831e-08
9.81436e-07
-1.4812e-15
-1.0954e-15
-4.97967e-16
2.73322e-16
1.59159e-15
2.76629e-15
2.76627e-15
2.77055e-15
2.78933e-15
2.83485e-15
3.38536e-13
8.88883e-12
2.15316e-11
1.58815e-12
6.58512e-13
7.21606e-13
4.60712e-13
3.69652e-08
2.09426e-06
-5.20352e-15
-2.7203e-15
-1.2027e-15
7.36675e-19
3.43899e-15
1.43661e-14
2.98413e-14
6.8338e-14
1.2297e-13
1.63769e-13
2.19624e-13
4.11615e-13
5.59875e-13
2.14105e-13
9.68694e-14
4.5715e-13
4.57181e-13
2.62086e-09
2.09429e-06
-4.64593e-15
-2.61244e-15
-1.44337e-15
-7.55707e-16
-3.20556e-16
0
1.2802e-15
1.93929e-14
6.3631e-14
8.02326e-14
8.3132e-14
1.47531e-13
1.67223e-13
5.3033e-14
2.69216e-14
3.89211e-13
1.84868e-12
6.71564e-13
2.09425e-06
-2.3766e-15
-1.35264e-15
-7.66681e-16
-4.3214e-16
-2.39976e-16
-1.28109e-16
-5.77117e-17
-6.7892e-20
2.32002e-16
1.47129e-15
2.48879e-15
4.18841e-15
1.18292e-14
6.04716e-15
1.17773e-14
3.54143e-13
1.82712e-12
6.71539e-13
2.08238e-06
-8.92234e-16
-4.94501e-16
-2.74532e-16
-1.52765e-16
-8.52686e-17
-4.80454e-17
-2.66725e-17
-1.32859e-17
-2.81746e-18
3.12398e-18
2.38826e-17
8.27234e-17
3.0286e-16
1.27629e-15
8.79663e-15
3.23645e-13
1.81459e-12
6.71564e-13
5.36394e-07
-2.74147e-16
-1.45669e-16
-7.74316e-17
-4.15821e-17
-2.27567e-17
-1.25322e-17
-6.74087e-18
-3.16854e-18
-8.80241e-19
7.89967e-19
1.07452e-17
4.92653e-17
2.30959e-16
1.13768e-15
8.5425e-15
3.13342e-13
1.94876e-12
8.53994e-13
8.53995e-13
-7.44276e-17
-3.70997e-17
-1.89327e-17
-9.8586e-18
-5.15972e-18
-2.54867e-18
-1.013e-18
7.03454e-20
1.38679e-18
9.05692e-18
2.02169e-17
5.13461e-17
2.25804e-16
1.13068e-15
1.08861e-14
3.18097e-13
2.27758e-12
1.20167e-12
1.02808e-12
-1.9734e-17
-8.96328e-18
-4.18342e-18
-1.99987e-18
-8.8798e-19
4.81482e-38
6.63495e-19
6.07515e-18
2.94865e-17
8.67577e-17
1.69028e-16
2.94634e-16
8.82154e-16
6.09347e-15
6.48732e-14
5.34762e-13
2.79808e-12
1.20191e-12
8.23643e-07
-5.20898e-18
-2.11913e-18
-8.7881e-19
-3.61544e-19
2.55904e-21
1.15558e-18
1.15365e-17
5.71063e-17
2.08217e-16
6.19578e-16
1.78248e-15
8.13374e-15
4.5313e-14
2.39248e-13
7.45374e-13
2.1456e-12
4.15002e-12
1.20333e-12
2.17704e-06
-1.33771e-18
-4.96331e-19
-1.83272e-19
-5.18091e-20
3.82474e-19
7.59889e-18
6.49117e-17
3.21436e-16
1.37775e-15
6.31245e-15
4.21685e-14
2.86349e-13
1.28022e-12
4.04394e-12
6.20251e-12
8.45752e-12
8.47485e-12
1.20408e-12
2.17709e-06
-3.16094e-19
-1.08388e-19
-3.58534e-20
9.25035e-21
1.09674e-18
2.11144e-17
2.59914e-16
1.77597e-15
1.22232e-14
8.89094e-14
6.67822e-13
3.54602e-12
1.14257e-11
2.39556e-11
2.74345e-11
2.38999e-11
2.00465e-11
1.20492e-12
2.16761e-06
-6.52981e-20
-2.06786e-20
-5.81062e-21
3.62334e-20
1.67603e-18
4.21471e-17
7.31405e-16
8.3736e-15
8.28091e-14
6.42655e-13
3.85876e-12
1.56423e-11
3.93886e-11
6.14413e-11
6.58607e-11
4.92562e-11
4.22108e-11
1.2077e-12
2.1022e-06
-1.13874e-20
-3.29029e-21
-5.24136e-22
3.866e-20
2.06603e-18
6.11156e-17
1.39114e-15
2.56589e-14
2.85541e-13
2.03776e-12
9.80711e-12
3.27531e-11
7.05245e-11
9.02299e-11
9.75765e-11
8.59317e-11
8.48319e-11
1.21931e-12
2.10231e-06
-1.62331e-21
-4.19706e-22
8.2374e-23
3.49542e-20
2.17031e-18
6.93069e-17
1.88403e-15
4.83422e-14
5.38162e-13
3.49733e-12
1.44512e-11
4.2781e-11
8.51182e-11
9.8458e-11
1.05617e-10
2.08711e-10
2.74072e-10
1.23265e-12
2.10223e-06
-1.82159e-22
-4.08454e-23
1.09067e-22
1.97505e-20
1.92404e-18
6.89179e-17
2.0368e-15
6.2377e-14
6.75504e-13
4.10353e-12
1.5812e-11
4.41798e-11
8.60649e-11
8.91382e-11
7.35051e-11
1.03227e-09
1.54768e-09
1.28759e-12
1.0692e-06
-1.53273e-23
-2.74943e-24
3.83113e-23
8.14353e-21
1.00998e-18
4.45009e-17
1.80552e-15
6.50941e-14
6.90815e-13
4.01983e-12
1.40003e-11
3.09363e-11
5.92565e-11
4.66186e-11
4.20797e-12
3.02273e-09
4.25514e-09
1.82383e-10
1.82439e-10
-9.05226e-25
-8.25725e-26
1.29179e-23
2.88165e-21
3.62309e-19
1.60083e-17
8.3474e-16
4.7248e-14
4.58464e-13
2.26743e-12
6.42756e-12
1.07714e-11
2.11512e-11
1.26109e-11
1.01475e-12
4.195e-09
5.13616e-09
1.82439e-10
1.90782e-07
-3.40346e-26
9.70749e-27
2.83898e-24
7.92865e-22
1.04599e-19
4.20393e-18
2.16886e-16
1.61366e-14
1.43512e-13
6.31298e-13
1.56176e-12
2.36172e-12
4.27354e-12
1.77564e-12
1.01475e-12
3.01514e-09
4.94045e-09
3.69146e-10
6.59109e-07
-6.91984e-28
1.4156e-27
3.84014e-25
1.43015e-22
2.15177e-20
8.38162e-19
3.82167e-17
3.15057e-15
2.61762e-14
1.05901e-13
2.34579e-13
3.45444e-13
5.62366e-13
1.19606e-13
3.24894e-12
4.9159e-10
1.92052e-09
1.07244e-09
6.59119e-07
-5.48798e-30
1.06056e-28
2.77199e-26
1.5025e-23
2.54961e-21
1.06374e-19
4.41054e-18
3.70331e-16
2.87078e-15
1.06701e-14
2.14862e-14
3.06425e-14
4.49656e-14
4.24183e-15
1.34742e-11
2.05641e-11
1.24264e-10
2.94522e-23
6.48516e-07
-7.67569e-33
6.11714e-33
4.80344e-28
7.52674e-25
1.29874e-22
5.94137e-21
2.55953e-19
2.04981e-17
1.4779e-16
5.03767e-16
9.37585e-16
1.30192e-15
1.66653e-15
3.26141e-16
5.98364e-13
2.27822e-20
2.94522e-23
1.33613e-23
6.04545e-07
-6.63636e-38
-4.93937e-40
4.49736e-36
6.14739e-31
1.09671e-27
2.6266e-25
4.70764e-23
3.59716e-21
1.7648e-20
5.11033e-20
8.55795e-20
1.0486e-19
4.20945e-20
1.50614e-21
6.28194e-17
1.30306e-17
1.14552e-19
3.00927e-39
5.61367e-07
)
;

boundaryField
{
    leftWall
    {
        type            zeroGradient;
    }
    rightWall
    {
        type            zeroGradient;
    }
    lowerWall
    {
        type            zeroGradient;
    }
    atmosphere
    {
        type            inletOutlet;
        inletValue      uniform 0;
        value           nonuniform List<scalar> 
46
(
0
1.35242e-10
5.8185e-10
5.46081e-10
4.1407e-10
2.39558e-10
9.92948e-11
2.88359e-11
4.64181e-12
2.81032e-13
2.99793e-15
2.90476e-18
3.30347e-22
-3.96483e-20
-8.11726e-20
-5.26677e-20
-1.77955e-20
-3.61101e-21
-4.49966e-22
-3.29336e-23
-1.2822e-24
-2.34498e-26
0
0
0
0
0
0
0
0
0
0
0
0
0
0
0
0
0
0
0
0
0
0
0
5.61367e-07
)
;
    }
    defaultFaces
    {
        type            empty;
    }
}


// ************************************************************************* //
