/*--------------------------------*- C++ -*----------------------------------*\
  =========                 |
  \\      /  F ield         | OpenFOAM: The Open Source CFD Toolbox
   \\    /   O peration     | Website:  https://openfoam.org
    \\  /    A nd           | Version:  9
     \\/     M anipulation  |
\*---------------------------------------------------------------------------*/
FoamFile
{
    format      ascii;
    class       volScalarField;
    location    "9";
    object      alpha.water;
}
// * * * * * * * * * * * * * * * * * * * * * * * * * * * * * * * * * * * * * //

dimensions      [0 0 0 0 0 0 0];

internalField   nonuniform List<scalar> 
2268
(
1
1
0.999999
0.999998
0.999999
1
0.999999
0.999999
0.999997
0.999998
0.999999
0.999999
0.999999
0.999999
0.999999
0.999999
1
1
0.999248
0.998094
0.999152
0.999996
0.999908
0.999999
0.999998
0.999997
0.999997
1
0.999999
0.999997
0.999997
0.999997
0.999998
0.999999
0.999999
0.999999
0.999999
0.999999
0.999998
0.999999
1
0.998704
0.998093
0.999589
0.999996
0.999993
0.999997
0.999997
0.999997
0.999999
0.999999
1
0.999999
0.999999
0.999999
0.999999
0.999999
0.999999
1
1
0.999998
0.999987
0.999999
1
0.998885
0.998093
0.999765
0.999996
0.999995
0.999998
0.999999
0.999999
1
1
1
1
1
1
1
1
1
1
1
1
0.999936
0.999934
0.999981
0.999628
0.998093
0.999778
0.999996
0.999881
1
1
1
1
1
1
1
1
1
1
1
1
1
1
1
0.999842
0.999517
0.999866
0.999982
0.999416
0.99989
0.998997
0.999764
1
1
1
1
1
1
1
1
1
1
1
1
1
1
1
0.999782
0.99823
0.999982
0.999982
0.999982
0.999982
0.996921
0.999716
1
1
1
1
1
1
1
1
1
1
1
1
1
1
0.999999
1
0.996311
0.991
0.999363
0.999982
0.994371
0.993685
0.999625
1
1
1
1
1
1
1
1
0.999999
0.999999
0.999999
0.999999
1
0.999999
0.999999
1
0.995608
0.987776
0.99038
0.99461
0.989876
0.995449
0.999898
0.999778
0.999748
0.999483
0.999483
0.999686
0.999473
0.996011
0.995449
0.995481
0.994634
0.992309
0.99231
0.99583
0.998686
0.998686
0.998686
0.998686
0.998686
0.998686
0.999778
0.999758
0.999998
0.999985
0.999996
0.999996
0.999996
0.999958
0.999958
0.99994
0.996615
0.99231
0.992478
0.998686
0.998686
0.998686
0.998372
0.996751
0.996998
0.997398
0.998183
0.999998
0.999997
0.999996
0.99999
0.999962
0.999959
0.999922
0.999937
0.999495
0.992498
0.992479
0.996567
0.998686
0.998686
0.996437
0.995642
0.995647
0.992311
0.996912
0.999998
0.999998
0.999997
0.999941
0.999798
0.999762
0.999512
0.999468
0.999718
0.998641
0.996148
0.997578
0.998323
0.998685
0.997159
0.996211
0.99844
0.992311
0.998228
0.999998
0.999996
0.999989
0.999845
0.99982
0.999826
0.999347
0.999346
0.999402
0.999687
0.999687
0.999346
0.996915
0.997714
0.998096
0.99844
0.99844
0.992311
0.999192
0.999997
0.999991
0.999979
0.99999
0.999981
0.999832
0.999463
0.999687
0.999687
0.999687
0.999687
0.999687
0.99608
0.990395
0.990649
0.99844
0.99844
0.998132
0.99994
0.999997
0.999993
0.999995
0.999997
0.999997
0.999437
0.997811
0.999388
0.999687
0.999687
0.999687
0.999005
0.993392
0.994444
0.990082
0.996811
0.99844
1
1
0.999999
0.999998
0.999998
0.999997
0.999996
0.999332
0.991049
0.989978
0.9971
0.999687
0.999271
0.992621
0.991015
0.996879
0.990112
0.995704
0.998439
1
1
1
1
1
1
0.999999
0.999999
0.999999
0.999999
0.999999
1
1
1
1
1
0.999962
0.996695
0.990029
0.990028
0.995745
0.999988
1
0.963794
0.963757
0.964449
0.965727
0.968217
0.9713
0.974089
0.976156
0.977973
0.979633
0.981031
0.982324
0.984668
0.987502
0.991178
0.996028
0.999987
0.999988
0.999992
0.999994
0.999995
0.999995
0.9996
0.271068
0.272821
0.275144
0.278404
0.281882
0.286362
0.292374
0.300205
0.309395
0.319595
0.330603
0.341951
0.352744
0.362972
0.372396
0.381312
0.392058
0.405628
0.417326
0.423678
0.426155
0.427067
0.427617
0.000476425
0.000476313
0.000475461
0.000464707
0.000477935
0.0004868
0.000491816
0.00049391
0.000489942
0.000488556
0.000488558
0.000513943
0.000524411
0.000636755
0.000837758
0.00111661
0.00142602
0.00101468
0.00059247
0.000652632
0.000789391
0.000863928
0.000885367
0.000659324
0.000663968
0.000540407
0.00046071
0.00105504
0.00150294
0.00177096
0.00181677
0.00184842
0.00192412
0.00194194
0.00193991
0.00187908
0.0017278
0.0017081
0.00167666
0.0015029
0.00104955
0.000496087
0.000545859
0.000610919
0.000567571
0.000448981
0.000221364
0.000213796
0.000233549
0.00025382
7.42172e-05
5.53794e-08
5.53794e-08
5.53794e-08
5.53794e-08
5.53794e-08
5.6385e-08
5.6359e-08
6.40375e-08
3.52079e-05
3.67032e-05
4.25264e-05
7.45695e-05
0.000227079
0.000279719
0.00026498
0.000274471
0.000333604
0.000252717
5.74207e-08
3.38198e-07
4.29519e-07
5.93472e-07
6.77726e-08
6.66247e-08
5.53794e-08
5.53794e-08
5.53794e-08
5.53801e-08
5.56827e-08
1.8229e-05
5.32934e-05
5.32927e-05
5.32936e-05
2.5248e-05
2.38826e-06
2.33272e-06
5.07472e-06
2.37386e-06
1.8835e-05
4.74797e-05
8.01293e-05
2.33528e-09
2.33643e-09
8.92477e-09
2.9348e-07
1.07251e-06
1.30327e-06
3.37922e-07
2.79189e-07
8.13981e-07
6.59939e-07
3.81268e-07
1.20102e-05
3.17868e-05
3.15535e-05
1.49241e-05
1.15561e-05
2.70584e-06
4.00197e-07
6.01619e-09
6.01365e-09
6.1905e-09
4.78255e-08
2.70124e-06
2.33517e-09
2.33517e-09
2.33629e-09
1.26268e-07
1.36168e-06
1.78347e-06
1.67268e-06
8.98346e-07
2.57595e-06
2.57595e-06
1.46877e-06
4.07725e-10
4.07723e-10
4.16398e-10
1.89186e-06
8.28739e-06
5.64354e-06
6.01619e-09
6.01008e-09
6.01008e-09
6.01181e-09
6.03292e-09
6.07524e-09
2.33517e-09
2.33517e-09
2.33517e-09
7.49287e-09
8.15051e-07
1.78346e-06
1.51429e-06
8.83192e-07
2.57595e-06
2.57595e-06
1.08359e-06
4.04107e-10
8.79398e-09
3.08463e-08
1.1222e-07
7.86123e-07
1.19829e-06
4.34715e-08
6.01008e-09
6.01008e-09
6.01008e-09
6.0118e-09
6.24392e-07
2.39448e-09
2.33517e-09
2.33517e-09
2.49091e-09
1.49269e-07
7.95248e-07
3.22251e-07
3.36515e-07
2.52275e-06
2.44769e-06
3.22488e-08
3.96672e-10
2.35436e-08
8.01351e-07
1.22159e-06
4.07806e-07
1.2628e-08
1.26094e-08
1.70544e-08
1.96103e-08
1.31197e-08
1.23795e-08
6.00895e-06
5.42743e-09
4.9823e-08
5.87971e-08
1.54802e-09
5.14102e-10
5.8858e-10
1.28353e-09
2.2899e-07
2.24578e-06
1.29434e-06
3.92848e-10
3.9285e-10
3.99094e-10
2.00003e-06
5.67644e-06
5.41225e-06
6.83568e-07
1.15004e-08
1.14905e-08
2.11645e-08
1.80104e-08
1.16158e-08
4.64063e-07
1.02703e-08
1.02709e-07
1.02703e-07
8.69582e-09
5.14102e-10
5.14101e-10
9.46288e-08
1.24273e-06
1.73904e-06
9.21178e-08
3.9285e-10
3.91766e-10
3.15913e-10
1.56941e-06
5.67639e-06
5.67644e-06
5.51989e-06
7.32175e-07
5.46394e-09
7.52156e-09
8.97154e-09
6.32e-09
6.32667e-09
9.20372e-09
1.02709e-07
1.02709e-07
1.29029e-08
5.14102e-10
2.33759e-08
9.24896e-07
1.48524e-06
1.11259e-06
4.15183e-10
4.80808e-10
5.8031e-10
2.9574e-10
9.58505e-09
1.22299e-06
5.41757e-06
5.51587e-06
1.55023e-06
5.4641e-09
5.46394e-09
7.53214e-09
9.56321e-09
8.89641e-09
4.43244e-09
5.298e-08
8.70474e-08
7.82011e-09
5.20875e-10
1.02897e-07
1.48516e-06
1.48524e-06
5.96049e-07
4.15178e-10
5.9634e-10
6.4473e-10
2.88065e-10
6.50937e-11
4.71992e-08
4.79107e-07
8.7424e-07
3.90268e-07
5.46394e-09
5.75585e-09
1.2452e-08
1.12807e-08
1.29897e-08
7.55977e-10
9.92427e-10
1.009e-08
1.75591e-09
5.48425e-10
4.79153e-08
9.33912e-07
1.13104e-06
5.22736e-11
4.15131e-10
7.38639e-10
6.4241e-10
1.73329e-10
6.50578e-11
7.21798e-11
9.12488e-11
8.53892e-11
8.54969e-10
6.77739e-09
1.33585e-08
1.33586e-08
9.28482e-09
1.24183e-09
3.64437e-10
3.64437e-10
3.65527e-10
3.87059e-10
1.83842e-09
2.04493e-08
2.15778e-08
5.81872e-08
5.19903e-11
4.15127e-10
6.64181e-10
3.91395e-10
8.74279e-11
5.8064e-11
6.12427e-11
5.98157e-11
5.94854e-11
1.90728e-10
2.00986e-09
4.36414e-09
4.58026e-09
1.92544e-09
6.56008e-10
3.64437e-10
3.64437e-10
7.20682e-10
3.98453e-10
3.46357e-09
1.06414e-08
2.10434e-11
1.16236e-11
5.19847e-11
2.71089e-10
3.26162e-10
1.19365e-10
3.19885e-11
4.55972e-11
5.9228e-11
6.08702e-11
5.94852e-11
5.76163e-11
7.09542e-11
7.04113e-11
6.32708e-11
9.7676e-11
1.44425e-10
1.74766e-07
1.98459e-07
1.97916e-09
4.89585e-10
3.30563e-09
3.70795e-09
2.10941e-11
1.15267e-11
2.57756e-11
7.59288e-11
5.9482e-11
1.26848e-11
5.44049e-12
2.2131e-11
3.73736e-11
4.15169e-11
3.95248e-11
2.68769e-11
1.37271e-11
6.6505e-12
3.3269e-12
2.13444e-12
1.99437e-12
2.75751e-07
2.61087e-07
1.27584e-09
4.9165e-10
2.25153e-09
4.02216e-10
1.67882e-11
1.15263e-11
5.77445e-12
5.6934e-12
2.17776e-12
2.29777e-13
2.34796e-13
3.60517e-12
9.34294e-12
1.11848e-11
9.71256e-12
5.403e-12
2.3878e-12
1.23792e-12
6.58734e-13
2.88018e-13
2.22507e-13
2.75751e-07
8.80323e-08
2.09452e-10
4.07422e-10
8.29094e-10
1.87488e-11
1.14359e-11
8.91909e-12
3.77436e-13
2.60114e-14
-1.36802e-14
-4.75099e-13
-4.00459e-13
6.16443e-14
4.28459e-13
5.78079e-13
4.21153e-13
1.78024e-13
6.90285e-14
3.25755e-14
1.30828e-14
1.63046e-15
8.01635e-16
2.75688e-07
3.16526e-10
6.20208e-11
2.21678e-10
1.35281e-10
4.48336e-12
5.81929e-12
3.64313e-12
-2.02027e-13
-5.99859e-13
-7.99227e-13
-9.16789e-13
-7.91654e-13
-4.7464e-13
-2.28557e-13
-1.11999e-13
-9.63001e-14
-1.06278e-13
-9.78943e-14
-7.93698e-14
-5.8263e-14
-3.94339e-14
-2.45584e-14
2.76339e-07
2.1394e-08
5.49665e-11
6.8731e-11
2.90953e-11
3.97549e-12
1.2928e-12
3.73985e-13
-5.20231e-13
-8.99841e-13
-1.02758e-12
-1.01769e-12
-8.64896e-13
-6.30269e-13
-4.26487e-13
-2.954e-13
-2.19983e-13
-1.67576e-13
-1.23432e-13
-8.69629e-14
-5.84062e-14
-3.72582e-14
-2.2478e-14
2.76481e-07
2.44813e-07
4.14867e-11
2.9786e-11
2.76931e-11
4.07316e-12
1.86269e-13
7.9509e-35
-5.32684e-13
-8.28391e-13
-9.06776e-13
-8.59317e-13
-7.21986e-13
-5.48143e-13
-3.92458e-13
-2.76311e-13
-1.95068e-13
-1.35233e-13
-9.03899e-14
-5.82435e-14
-3.65507e-14
-2.23336e-14
-1.31457e-14
2.76481e-07
2.76481e-07
6.36899e-10
3.02445e-11
3.21307e-11
4.75427e-12
3.31563e-13
1.11361e-13
-2.47288e-13
-4.75159e-13
-5.67822e-13
-5.62508e-13
-4.87177e-13
-3.79806e-13
-2.76204e-13
-1.92722e-13
-1.30825e-13
-8.52282e-14
-5.29339e-14
-3.14927e-14
-1.82885e-14
-1.05311e-14
-6.01368e-15
2.76481e-07
2.67143e-07
5.1089e-11
4.8332e-11
4.82624e-11
7.06694e-12
1.43166e-12
1.11152e-12
5.4957e-13
1.04128e-13
-1.12308e-13
-2.17176e-13
-2.46063e-13
-2.16117e-13
-1.62742e-13
-1.12744e-13
-7.45962e-14
-4.64156e-14
-2.71166e-14
-1.49532e-14
-7.94744e-15
-4.20464e-15
-2.26471e-15
2.76481e-07
6.79413e-08
5.13477e-11
1.07918e-10
8.19852e-11
1.26586e-11
4.98433e-12
4.59078e-12
3.59852e-12
2.27567e-12
1.04152e-12
2.63751e-13
-3.81754e-14
-9.24019e-14
-8.24768e-14
-5.77946e-14
-3.78279e-14
-2.27531e-14
-1.26208e-14
-6.49481e-15
-3.15785e-15
-1.51538e-15
-7.41995e-16
6.73403e-08
7.96268e-11
9.93309e-11
1.93492e-10
1.22559e-10
2.30043e-11
1.27242e-11
1.21973e-11
1.02774e-11
7.2409e-12
3.99832e-12
1.54647e-12
3.07981e-13
-1.57502e-14
-3.53221e-14
-2.65128e-14
-1.74645e-14
-1.02638e-14
-5.44365e-15
-2.62909e-15
-1.17728e-15
-5.17481e-16
-2.33182e-16
7.96209e-11
7.94341e-11
1.56794e-10
2.11326e-10
1.35574e-10
3.77664e-11
2.54549e-11
2.43123e-11
2.0628e-11
1.51978e-11
8.79684e-12
3.55244e-12
7.89868e-13
3.57542e-14
-1.09178e-14
-1.0978e-14
-7.45588e-15
-4.31591e-15
-2.19825e-15
-1.00051e-15
-4.17931e-16
-1.74301e-16
-7.60367e-17
7.94341e-11
7.94333e-11
1.78533e-10
2.08188e-10
1.30487e-10
5.12316e-11
4.06941e-11
3.92536e-11
3.32518e-11
2.48573e-11
1.47008e-11
5.75908e-12
1.08376e-12
5.41553e-14
-1.05076e-15
-4.11804e-15
-2.9811e-15
-1.70959e-15
-8.37996e-16
-3.61534e-16
-1.42679e-16
-5.62986e-17
-2.36634e-17
7.96452e-11
7.41078e-11
1.54202e-10
1.55286e-10
1.00877e-10
5.36482e-11
5.1048e-11
5.12113e-11
4.48785e-11
3.3966e-11
2.01195e-11
7.33684e-12
1.14278e-12
5.01098e-14
0
-1.45148e-15
-1.13157e-15
-6.44491e-16
-3.03894e-16
-1.24209e-16
-4.60661e-17
-1.71254e-17
-6.92512e-18
1.0629e-10
5.56725e-11
7.60717e-11
5.58298e-11
5.94489e-11
5.21668e-11
5.247e-11
5.41025e-11
5.0861e-11
3.96079e-11
2.30537e-11
7.77761e-12
1.07994e-12
3.38576e-14
6.13839e-17
-4.97315e-16
-4.14103e-16
-2.33154e-16
-1.05211e-16
-4.04776e-17
-1.39469e-17
-4.83449e-18
-1.84743e-18
2.84173e-10
5.14395e-11
5.14182e-11
5.14105e-11
5.1403e-11
5.1403e-11
5.18514e-11
5.41358e-11
5.1758e-11
4.08966e-11
2.34458e-11
7.60188e-12
8.57084e-13
1.58896e-14
2.88141e-17
-1.70642e-16
-1.48246e-16
-8.15943e-17
-3.48882e-17
-1.24686e-17
-3.9125e-18
-1.23942e-18
-4.39625e-19
3.92203e-10
2.34639e-09
5.14443e-11
4.78504e-08
5.14042e-11
5.1403e-11
5.85696e-11
5.41213e-11
5.14159e-11
4.06609e-11
2.28361e-11
6.61548e-12
5.31858e-13
5.47447e-15
4.93669e-18
-5.99475e-17
-5.24883e-17
-2.77639e-17
-1.10806e-17
-3.60709e-18
-1.00621e-18
-2.84899e-19
-9.17745e-20
3.92051e-10
3.27125e-08
3.77925e-07
8.02417e-07
3.07059e-07
1.83713e-08
5.03563e-11
5.03484e-11
4.97546e-11
3.90568e-11
2.03177e-11
4.71094e-12
2.45227e-13
1.35243e-15
4.51212e-19
-2.17453e-17
-1.84932e-17
-9.19779e-18
-3.36012e-18
-9.72665e-19
-2.34222e-19
-5.74968e-20
-1.64281e-20
3.92094e-10
6.91882e-08
8.23245e-07
8.2325e-07
8.23245e-07
1.01557e-07
4.43487e-11
4.43157e-11
4.63244e-11
3.49222e-11
1.56249e-11
2.60012e-12
7.82818e-14
2.0862e-16
1.96586e-20
-8.20218e-18
-6.49738e-18
-2.96339e-18
-9.69025e-19
-2.42934e-19
-4.8821e-20
-1.00018e-20
-2.4593e-21
3.92159e-10
2.15075e-08
7.51518e-07
8.23248e-07
7.44854e-07
6.65567e-08
4.73978e-11
4.30704e-11
4.17312e-11
2.80988e-11
9.91176e-12
1.04403e-12
1.54764e-14
1.63503e-17
-5.17895e-20
-3.24003e-18
-2.27478e-18
-9.27656e-19
-2.65355e-19
-5.60852e-20
-9.07547e-21
-1.47968e-21
-3.00005e-22
1.09141e-09
1.25944e-09
1.38272e-07
5.75142e-07
1.57541e-07
9.01931e-09
5.15743e-11
4.45749e-11
3.56748e-11
1.94825e-11
4.82444e-12
2.7185e-13
1.61665e-15
6.00769e-19
-5.50168e-19
-1.32162e-18
-7.91858e-19
-2.82636e-19
-6.92262e-20
-1.20251e-20
-1.51107e-21
-1.84313e-22
-2.90043e-23
1.80501e-09
1.56905e-09
8.36532e-10
1.33379e-08
4.68757e-10
7.55786e-11
7.08837e-11
4.70243e-11
2.75365e-11
1.08048e-11
1.5731e-12
3.7882e-14
7.33421e-17
6.94263e-21
-4.20322e-19
-5.40974e-19
-2.74093e-19
-8.43426e-20
-1.73842e-20
-2.43024e-21
-2.30038e-22
-1.95594e-23
-2.17386e-24
6.7462e-10
1.24565e-09
7.25649e-10
2.63972e-10
1.36234e-10
1.18988e-10
9.03252e-11
4.49835e-11
1.79113e-11
4.19693e-12
2.7534e-13
2.17001e-15
1.17337e-18
5.39901e-24
-2.41875e-19
-2.20675e-19
-9.47487e-20
-2.49326e-20
-4.27914e-21
-4.75005e-22
-3.31584e-23
-1.83108e-24
-1.24449e-25
-8.25696e-27
6.08964e-10
7.78047e-10
5.48156e-10
3.23169e-10
2.02486e-10
9.59614e-11
3.62251e-11
8.86352e-12
9.28041e-13
1.929e-14
3.88045e-17
5.16984e-21
-4.64006e-20
-1.27366e-19
-8.98825e-20
-3.29396e-20
-7.41494e-21
-1.05946e-21
-9.32049e-23
-4.736e-24
-1.58789e-25
-5.36639e-27
-1.36717e-27
9.00833e-11
5.59502e-10
5.80651e-10
4.39275e-10
2.29934e-10
8.36414e-11
1.82245e-11
1.93807e-12
6.29777e-14
3.07669e-16
1.45254e-19
5.14655e-24
-4.35168e-20
-6.38565e-20
-3.66482e-20
-1.16087e-20
-2.26007e-21
-2.73333e-22
-1.95513e-23
-7.53006e-25
-1.39296e-26
-1.55101e-28
1
1
1
1
1
1
1
1
0.429634
0.428959
0.42729
0.424788
0.000785277
0.000814718
0.000813792
0.000742818
0.000197409
0.000392703
0.000635663
0.000558789
6.7236e-05
0.000149958
0.000391057
0.000497493
6.71506e-05
5.02027e-05
6.34953e-05
2.82523e-05
1.00891e-05
7.95311e-08
7.82458e-08
3.19711e-08
4.58021e-07
5.11473e-06
7.49459e-06
5.32668e-06
1.90143e-05
2.10984e-05
2.10983e-05
2.10981e-05
2.10966e-05
2.10983e-05
2.10978e-05
2.10978e-05
2.37919e-06
1.6162e-05
2.10963e-05
2.10973e-05
1.6171e-08
2.46896e-08
2.53412e-09
2.42932e-07
1.41595e-08
6.77573e-09
2.52916e-09
2.48654e-09
3.38946e-08
3.38672e-08
3.79817e-08
6.28801e-08
1.92837e-09
1.65343e-09
1.69952e-08
1.71987e-07
1.37268e-10
1.14922e-12
7.67896e-12
1.21853e-08
2.40599e-11
1.14827e-12
1.95542e-13
3.3906e-14
4.74863e-13
3.30745e-13
2.15185e-13
6.60409e-14
2.09422e-13
1.78572e-13
1.11585e-13
6.21319e-14
2.26377e-15
1.65571e-15
-8.89734e-17
-7.63525e-16
-1.41435e-14
-1.12608e-14
-8.96505e-15
-7.11035e-15
-1.28993e-14
-1.01664e-14
-8.07265e-15
-6.43733e-15
-7.33612e-15
-5.54846e-15
-4.26976e-15
-3.3356e-15
-3.34987e-15
-2.44137e-15
-1.78215e-15
-1.31348e-15
-1.30324e-15
-9.37064e-16
-6.63927e-16
-4.56395e-16
-4.57128e-16
-3.19709e-16
-2.24475e-16
-1.51584e-16
-1.51553e-16
-1.02348e-16
-6.93006e-17
-4.62633e-17
-4.8905e-17
-3.19547e-17
-2.0794e-17
-1.33994e-17
-1.47921e-17
-9.3653e-18
-5.88787e-18
-3.65425e-18
-4.18184e-18
-2.54631e-18
-1.5371e-18
-9.14455e-19
-1.06664e-18
-6.19142e-19
-3.55961e-19
-2.01541e-19
-2.40099e-19
-1.31561e-19
-7.13069e-20
-3.80217e-20
-4.67452e-20
-2.38686e-20
-1.2039e-20
-5.96523e-21
-7.67378e-21
-3.59375e-21
-1.65989e-21
-7.51711e-22
-1.03072e-21
-4.33672e-22
-1.79651e-22
-7.27919e-23
-1.09333e-22
-4.01536e-23
-1.44987e-23
-5.10635e-24
-8.75961e-24
-2.68886e-24
-8.11424e-25
-2.3822e-25
-5.00378e-25
-1.19207e-25
-2.80528e-26
-6.42212e-27
-1.86234e-26
-2.98047e-27
-4.79974e-28
-7.59262e-29
-3.81058e-28
-2.94829e-29
-2.39456e-30
-1.98742e-31
-2.36382e-30
-3.42797e-32
-4.99517e-34
-7.75418e-36
1
1
1
0.999999
0.999313
0.997032
0.996802
0.997676
0.993307
0.982769
0.983139
0.98408
0.983698
0.984698
0.996871
0.996879
0.995561
0.995304
0.997675
0.999998
0.999404
0.994453
0.98943
0.985152
0.981618
0.978234
0.97722
0.981686
0.981955
0.98077
0.979135
0.977011
0.974245
0.969681
0.965781
0.96423
0.958338
0.954509
0.420212
0.410996
0.404193
0.397567
0.39052
0.382958
0.37398
0.363269
0.352545
0.344919
0.334945
0.324745
0.315806
0.306986
0.297457
0.292056
0.289212
0.287958
0.288068
0.000616547
0.000827666
0.000922862
0.000898729
0.000769653
0.000476165
0.000253763
0.000227475
0.000227279
0.000227001
0.000226738
0.000226622
0.000226562
0.000226622
0.000226727
0.000226852
0.000226906
0.00022765
0.000252707
0.000302927
0.000744039
0.000901131
0.000849084
0.000848466
0.000871238
0.000880123
0.000880142
0.000880099
0.000825081
0.000714321
0.000515789
0.000226444
0.000496039
0.00059734
0.00059734
0.000597347
0.000597081
0.000534763
0.000302655
0.000261907
0.000228699
0.000234976
0.000191809
0.000151608
0.000124686
0.000103189
5.53431e-05
5.9359e-06
5.93381e-06
5.93938e-06
9.63278e-05
8.22018e-05
8.94056e-05
0.000121666
0.00012992
0.000154814
0.000195018
3.59573e-05
1.38782e-05
1.39918e-08
1.40145e-08
1.40491e-08
2.62287e-06
3.59515e-06
3.22623e-06
3.22624e-06
7.33878e-06
1.99805e-05
2.51391e-05
2.85261e-05
9.94336e-06
5.5945e-07
5.15251e-07
5.15253e-07
5.15236e-07
5.15225e-07
2.80135e-08
1.30884e-08
1.39674e-08
1.55218e-08
1.1499e-05
3.49212e-05
3.61366e-05
2.26188e-05
1.83174e-05
4.9539e-05
4.95523e-05
4.95534e-05
4.95523e-05
2.26717e-05
5.15234e-07
5.15226e-07
5.15225e-07
5.15225e-07
5.15225e-07
1.4567e-06
1.30884e-08
1.30884e-08
2.19198e-06
3.60333e-05
3.77323e-05
3.70294e-05
3.71691e-05
3.60552e-05
2.00026e-05
3.01475e-05
4.5009e-05
4.65948e-05
8.949e-06
5.15226e-07
5.15225e-07
5.15225e-07
5.15225e-07
5.15225e-07
1.89639e-05
1.146e-06
1.49823e-08
1.40555e-06
1.46376e-05
1.73319e-05
2.11731e-09
1.83112e-08
2.97071e-10
2.97071e-10
2.97069e-10
3.16792e-10
6.7401e-06
8.35874e-06
8.50236e-07
5.15225e-07
5.15225e-07
5.16453e-07
5.18811e-07
2.10973e-05
2.07203e-05
3.88027e-06
2.15839e-09
2.15886e-09
2.15839e-09
5.46053e-08
5.33079e-07
4.23188e-07
2.79145e-10
1.32317e-08
8.28831e-07
7.01223e-06
8.98632e-06
1.29262e-06
5.15225e-07
5.15225e-07
5.18875e-07
5.18878e-07
2.10969e-05
1.93254e-05
4.35731e-06
2.1599e-09
2.15839e-09
4.0369e-08
5.51552e-07
5.95881e-07
4.20315e-07
2.60572e-10
2.22259e-08
2.37607e-06
9.00423e-06
8.99434e-06
5.37766e-07
5.15225e-07
5.15225e-07
5.15225e-07
5.15228e-07
9.35442e-07
1.10148e-06
1.68814e-08
2.15936e-09
4.41579e-09
2.24956e-08
1.52266e-08
3.26131e-08
2.59952e-10
2.59924e-10
2.60572e-10
3.71342e-07
7.49514e-06
8.98632e-06
6.53008e-06
5.15225e-07
5.15225e-07
5.15227e-07
5.15232e-07
2.44422e-09
2.40953e-09
2.40205e-09
2.4019e-09
3.20242e-09
1.42128e-09
2.59874e-10
2.59902e-10
2.59884e-10
3.09311e-10
3.09542e-10
3.49124e-08
2.97727e-06
7.23428e-06
7.23153e-06
2.20203e-06
8.25547e-07
1.90543e-06
9.41306e-07
9.01735e-08
9.82261e-08
3.05565e-08
8.69613e-10
8.68799e-10
6.6651e-10
3.95704e-10
2.59876e-10
3.94601e-10
6.58106e-10
5.99916e-10
5.85715e-11
5.84289e-11
5.87764e-11
1.15281e-07
3.70409e-06
1.05216e-05
1.05404e-05
9.233e-06
2.42939e-07
2.42939e-07
2.37132e-07
4.00461e-08
2.60259e-09
6.01263e-10
1.9992e-09
4.97751e-09
3.57693e-09
5.12374e-10
3.89303e-10
1.20854e-10
5.83583e-11
5.84289e-11
3.59638e-08
6.41646e-06
1.05357e-05
1.05429e-05
1.0016e-05
1.36019e-07
2.42939e-07
2.42931e-07
2.42924e-07
5.5032e-08
6.01263e-10
1.85267e-08
5.34284e-08
3.88577e-08
3.93063e-09
3.92981e-11
4.62656e-11
5.83472e-11
9.27798e-11
1.62384e-10
1.45826e-06
5.41386e-06
3.57421e-06
1.13679e-12
1.68592e-15
5.84605e-08
2.13303e-07
2.37767e-07
6.1918e-08
6.10893e-10
3.27363e-08
6.39491e-08
6.39498e-08
3.84679e-08
3.92357e-11
3.92109e-11
6.98166e-11
4.19812e-10
1.96983e-09
1.09976e-12
1.09983e-12
1.09993e-12
1.13062e-12
1.66476e-15
-2.02012e-31
1.03398e-28
1.98861e-09
2.28213e-09
1.86707e-09
2.4323e-08
6.39129e-08
6.39374e-08
4.53022e-08
3.87059e-10
2.91847e-11
4.72319e-11
6.78886e-11
1.82166e-10
1.09971e-12
1.12087e-12
1.14812e-11
1.18407e-12
2.31321e-14
-1.62884e-16
-1.33008e-16
0
1.44064e-19
1.39823e-16
5.05455e-10
8.0608e-09
1.87092e-08
3.01578e-09
1.76406e-10
2.9188e-11
4.45489e-11
9.35792e-12
8.87373e-13
1.09982e-12
1.96237e-12
4.97774e-10
6.23972e-10
-1.11181e-15
-9.78109e-16
-5.34871e-16
1.47791e-16
1.10117e-15
1.43829e-15
1.44078e-15
1.45038e-15
1.47697e-15
1.53498e-15
2.0811e-15
1.0481e-11
3.38743e-11
2.79203e-12
8.87538e-13
9.258e-13
8.69772e-13
2.95921e-09
1.06657e-06
-5.64336e-15
-2.96805e-15
-1.36566e-15
9.86076e-35
2.95059e-15
1.52751e-14
3.14994e-14
6.91886e-14
1.26197e-13
1.67942e-13
2.29822e-13
5.13895e-13
8.20903e-13
3.40688e-13
1.60875e-13
5.22238e-13
8.69703e-13
6.16192e-13
2.10338e-06
-5.12968e-15
-2.91495e-15
-1.6258e-15
-8.60408e-16
-3.72583e-16
-4.93038e-35
1.19828e-15
2.25031e-14
8.43706e-14
1.12009e-13
1.20694e-13
2.30515e-13
2.75969e-13
9.01829e-14
4.08168e-14
4.18645e-13
1.9328e-12
6.16169e-13
2.10344e-06
-2.62432e-15
-1.51523e-15
-8.69595e-16
-4.95426e-16
-2.77603e-16
-1.4938e-16
-6.80613e-17
-1.67175e-18
3.32225e-16
2.39985e-15
4.2788e-15
7.62644e-15
2.28076e-14
1.06868e-14
1.53627e-14
3.97601e-13
1.97943e-12
6.16255e-13
2.10336e-06
-9.82642e-16
-5.53461e-16
-3.11828e-16
-1.75788e-16
-9.91842e-17
-5.64749e-17
-3.17163e-17
-1.60513e-17
-3.3336e-18
4.96474e-18
3.51178e-17
1.16209e-16
3.88051e-16
1.51474e-15
1e-14
3.75795e-13
1.97536e-12
6.16441e-13
2.08153e-06
-3.00687e-16
-1.6265e-16
-8.78217e-17
-4.78176e-17
-2.65228e-17
-1.48423e-17
-8.1571e-18
-4.03574e-18
-1.41852e-18
7.27543e-19
1.13184e-17
5.25898e-17
2.54968e-16
1.26086e-15
9.54831e-15
3.55673e-13
1.98309e-12
6.16669e-13
4.79225e-07
-8.11558e-17
-4.1231e-17
-2.1428e-17
-1.13587e-17
-6.06057e-18
-3.11959e-18
-1.39272e-18
0
6.05462e-19
5.33605e-18
1.52937e-17
5.21354e-17
2.45647e-16
1.23105e-15
1.0291e-14
3.5239e-13
2.19767e-12
1.19243e-12
1.19243e-12
-2.13998e-17
-9.92013e-18
-4.72578e-18
-2.30278e-18
-1.06992e-18
-2.15748e-19
3.31003e-19
3.39598e-18
1.91895e-17
5.96381e-17
1.19711e-16
1.9554e-16
4.88614e-16
2.68276e-15
3.48594e-14
4.21142e-13
2.65728e-12
1.19243e-12
1.15476e-08
-5.60345e-18
-2.31962e-18
-9.79073e-19
-4.12046e-19
-2.08409e-20
7.91642e-19
7.91677e-18
4.10777e-17
1.53814e-16
4.44921e-16
1.03229e-15
2.89737e-15
1.23322e-14
6.75494e-14
3.12344e-13
1.1942e-12
3.48078e-12
1.19245e-12
1.35321e-06
-1.41965e-18
-5.35045e-19
-2.00787e-19
-5.99146e-20
2.96612e-19
6.08119e-18
4.77042e-17
2.32825e-16
9.20049e-16
3.39414e-15
1.5876e-14
9.47226e-14
4.3223e-13
1.48871e-12
2.76991e-12
4.83733e-12
5.92193e-12
1.1938e-12
2.22321e-06
-3.31612e-19
-1.15361e-19
-3.87183e-20
7.84853e-21
1.04357e-18
1.84645e-17
2.02815e-16
1.22472e-15
6.94808e-15
4.26904e-14
3.09422e-13
1.72092e-12
5.84161e-12
1.30884e-11
1.53687e-11
1.57068e-11
1.37e-11
1.19446e-12
2.22325e-06
-6.78147e-20
-2.1776e-20
-6.18462e-21
3.92422e-20
1.71133e-18
4.05398e-17
6.34563e-16
6.05727e-15
5.2973e-14
3.99087e-13
2.53981e-12
1.08664e-11
2.83465e-11
4.63289e-11
4.75705e-11
3.7496e-11
3.28382e-11
1.19577e-12
2.20245e-06
-1.17152e-20
-3.43141e-21
-5.1821e-22
4.28843e-20
2.2407e-18
6.41301e-17
1.3585e-15
2.1565e-14
2.30675e-13
1.66932e-12
8.49576e-12
2.94184e-11
6.36306e-11
8.34596e-11
8.80955e-11
6.98576e-11
6.90625e-11
1.20061e-12
2.13206e-06
-1.65472e-21
-4.33462e-22
1.26953e-22
4.10427e-20
2.42541e-18
7.74333e-17
2.0319e-15
4.75709e-14
5.27498e-13
3.4871e-12
1.4927e-11
4.49241e-11
8.68088e-11
9.95383e-11
1.08298e-10
1.37371e-10
1.6283e-10
1.21293e-12
2.13203e-06
-1.83982e-22
-4.17099e-23
1.34028e-22
2.54011e-20
2.31124e-18
7.983e-17
2.31267e-15
6.85488e-14
7.46213e-13
4.5929e-12
1.76708e-11
4.96167e-11
9.20623e-11
9.89918e-11
1.03164e-10
5.81309e-10
7.79917e-10
1.2461e-12
2.03612e-06
-1.53372e-23
-2.7483e-24
5.01446e-23
1.08609e-20
1.361e-18
5.98601e-17
2.25289e-15
7.5212e-14
8.05435e-13
4.78467e-12
1.74329e-11
4.23623e-11
7.74839e-11
6.34697e-11
3.51843e-11
2.49591e-09
3.25771e-09
1.40981e-12
3.32579e-07
-8.97245e-25
-7.19651e-26
1.7483e-23
3.95929e-21
5.13663e-19
2.3827e-17
1.25351e-15
6.47691e-14
6.52261e-13
3.39623e-12
1.00981e-11
1.78371e-11
3.50125e-11
2.0489e-11
2.96035e-13
4.54804e-09
5.46496e-09
2.13762e-12
1.16053e-07
-3.34059e-26
1.35544e-26
4.01619e-24
1.14102e-21
1.54775e-19
6.55257e-18
3.58632e-16
2.66076e-14
2.45434e-13
1.11791e-12
2.83668e-12
4.35151e-12
8.06877e-12
3.10786e-12
2.96035e-13
4.62335e-09
5.46531e-09
3.56038e-12
6.38237e-07
-6.72084e-28
1.98701e-27
5.63204e-25
2.15897e-22
3.37046e-20
1.37219e-18
6.67414e-17
5.69999e-15
4.92025e-14
2.05657e-13
4.66125e-13
6.96644e-13
1.1589e-12
1.85716e-13
4.88436e-13
1.33978e-09
3.71209e-09
2.27429e-09
7.17216e-07
-5.25858e-30
1.51881e-28
4.19857e-26
2.35617e-23
4.21955e-21
1.84855e-19
8.10342e-18
7.15784e-16
5.78581e-15
2.22745e-14
4.60087e-14
6.70223e-14
1.00428e-13
4.33646e-15
2.27134e-11
7.78023e-11
4.16814e-10
4.34699e-23
7.17063e-07
-7.21545e-33
8.9051e-33
7.35413e-28
1.22258e-24
2.24764e-22
1.09111e-20
4.98001e-19
4.21302e-17
3.17732e-16
1.12501e-15
2.15838e-15
3.07839e-15
4.01667e-15
6.33772e-16
1.50713e-12
7.00829e-20
4.34698e-23
7.58088e-24
6.8434e-07
-5.63641e-38
-4.47687e-40
8.40747e-36
1.26987e-30
2.49332e-27
6.54285e-25
1.27846e-22
1.05841e-20
5.58006e-20
1.72489e-19
3.05603e-19
3.92457e-19
1.6089e-19
5.0956e-21
4.54567e-16
3.42451e-17
5.4224e-20
-2.23409e-39
6.23199e-07
)
;

boundaryField
{
    leftWall
    {
        type            zeroGradient;
    }
    rightWall
    {
        type            zeroGradient;
    }
    lowerWall
    {
        type            zeroGradient;
    }
    atmosphere
    {
        type            inletOutlet;
        inletValue      uniform 0;
        value           nonuniform List<scalar> 
46
(
0
9.00833e-11
5.59502e-10
5.80651e-10
4.39275e-10
2.29934e-10
8.36414e-11
1.82245e-11
1.93807e-12
6.29777e-14
3.07669e-16
1.45254e-19
5.14655e-24
-4.35168e-20
-6.38565e-20
-3.66482e-20
-1.16087e-20
-2.26007e-21
-2.73333e-22
-1.95513e-23
-7.53006e-25
-1.39296e-26
0
0
0
0
0
0
0
0
0
0
0
0
0
0
0
0
0
0
0
0
0
0
0
6.23199e-07
)
;
    }
    defaultFaces
    {
        type            empty;
    }
}


// ************************************************************************* //
