/*--------------------------------*- C++ -*----------------------------------*\
  =========                 |
  \\      /  F ield         | OpenFOAM: The Open Source CFD Toolbox
   \\    /   O peration     | Website:  https://openfoam.org
    \\  /    A nd           | Version:  9
     \\/     M anipulation  |
\*---------------------------------------------------------------------------*/
FoamFile
{
    format      ascii;
    class       volScalarField;
    location    "9";
    object      epsilon;
}
// * * * * * * * * * * * * * * * * * * * * * * * * * * * * * * * * * * * * * //

dimensions      [0 2 -3 0 0 0 0];

internalField   nonuniform List<scalar> 
2268
(
8.57039e-05
0.000486107
0.000875087
0.0012308
0.00155319
0.00184295
0.00210014
0.00232493
0.00251867
0.00268486
0.00282978
0.00296027
0.00307792
0.00316949
0.00319949
0.00311075
0.00289116
0.0025796
0.00216807
0.00172319
0.00133402
0.000784083
0.000253393
0.000180771
0.000319278
0.000476168
0.000624195
0.000759383
0.000881044
0.00098929
0.00108457
0.00116772
0.00124008
0.00130348
0.00135937
0.00140713
0.00144194
0.00145336
0.00142805
0.00136875
0.00127535
0.00114283
0.000971508
0.000774218
0.000547312
0.000408307
0.000311901
0.000336515
0.000435913
0.000536919
0.000631124
0.000716485
0.000792666
0.000859997
0.00091918
0.000971158
0.00101692
0.00105696
0.00109044
0.00111427
0.00112293
0.00111076
0.00107957
0.00102731
0.000949412
0.000848952
0.000736854
0.000627536
0.000690223
0.000441694
0.000378711
0.000446
0.000523775
0.000598705
0.000667375
0.000728943
0.000783557
0.000831818
0.000874485
0.000912235
0.000945265
0.000972775
0.000992504
0.00100088
0.000994878
0.000975794
0.000942329
0.00089202
0.000831677
0.000776958
0.000756297
0.00102136
0.000566945
0.00042909
0.000472686
0.000534833
0.000597343
0.000655483
0.000707926
0.000754638
0.000796134
0.00083307
0.00086597
0.00089493
0.000919255
0.000937196
0.000946212
0.000944443
0.000933029
0.000911959
0.000881531
0.000851851
0.000845195
0.00091281
0.00143333
0.000688966
0.000483627
0.000507632
0.000557614
0.000610738
0.000661026
0.000706701
0.000747577
0.000784118
0.000816913
0.000846403
0.000872653
0.000895084
0.00091231
0.000922413
0.000924131
0.000918622
0.000907221
0.000893035
0.000889313
0.000927379
0.00109779
0.00200405
0.000810264
0.000541278
0.000547942
0.000587647
0.000632981
0.00067677
0.000716832
0.000752874
0.000785348
0.000814811
0.000841646
0.000865908
0.000887123
0.000904178
0.000915577
0.000920406
0.000919955
0.000916705
0.000916096
0.000934257
0.00101328
0.00130752
0.00292646
0.000934727
0.000601721
0.000592407
0.000623017
0.0006615
0.000699521
0.000734542
0.000766224
0.000795068
0.00082162
0.000846213
0.000868879
0.000889231
0.000906368
0.000919115
0.000926793
0.00093087
0.000934754
0.000945214
0.000980288
0.00108973
0.00149994
0.0049821
0.000473098
0.00143584
0.00232628
0.00271161
0.0029001
0.00299069
0.00297251
0.00291067
0.00274506
0.00250943
0.00218366
0.00176509
0.00158255
0.00157045
0.00141309
0.0011181
0.000726215
0.000400304
0.000104375
0.000529261
0.00081256
0.00110317
0.00125378
0.00133272
0.00137262
0.00137629
0.00135236
0.00129302
0.00120345
0.00109219
0.000957361
0.000850449
0.000768169
0.000679056
0.000554064
0.000397351
0.000263228
0.000185704
0.00072076
0.000762884
0.000920439
0.00100518
0.00105128
0.00107467
0.00107679
0.00105857
0.0010182
0.000958674
0.000880657
0.000792395
0.000710785
0.000639524
0.000568165
0.000481295
0.000379685
0.000301812
0.000318832
0.000853068
0.000809289
0.000890696
0.00093289
0.00095661
0.00096826
0.000966376
0.000949044
0.000915722
0.000868284
0.000805795
0.00073752
0.000670585
0.000607834
0.000546126
0.00047803
0.000404102
0.000362441
0.000463359
0.00102328
0.000907405
0.000914065
0.000918219
0.000922498
0.000923889
0.000917568
0.000899759
0.000869922
0.000829386
0.00077727
0.000720839
0.000663519
0.000607224
0.000552345
0.000496479
0.000440731
0.000426077
0.00061701
0.00134155
0.00104768
0.000961917
0.000928852
0.000915599
0.000907836
0.00089726
0.000878662
0.000851068
0.000815433
0.000771024
0.000722713
0.000672004
0.000620898
0.000571761
0.000524872
0.000481994
0.000488336
0.000779791
0.00196977
0.00121332
0.00101721
0.0009507
0.000922582
0.000907003
0.000892724
0.000873509
0.000847864
0.00081625
0.000777946
0.000735605
0.000689756
0.00064278
0.00059852
0.00055846
0.000525759
0.000550936
0.000959439
0.00364278
0.00136293
0.00106611
0.000976094
0.000936824
0.000915063
0.000897869
0.000878438
0.0008549
0.000827061
0.00079378
0.000756017
0.000713992
0.000670241
0.000629475
0.000594114
0.00057061
0.000613723
0.00114764
0.00111865
0.000698451
0.000667132
0.000685033
0.000713783
0.000743422
0.000770955
0.000796108
0.000819575
0.00084192
0.000863363
0.000883859
0.000903107
0.000920481
0.000935223
0.000946996
0.000957425
0.000970945
0.000995095
0.00104739
0.00117023
0.00148043
0.0023978
0.00139098
0.000851722
0.000789205
0.000790108
0.000805884
0.000823835
0.000840316
0.000855625
0.000871262
0.000887882
0.000905316
0.000923126
0.000940895
0.000958247
0.000974855
0.000990804
0.00100749
0.00102896
0.00106156
0.00111678
0.0012192
0.00141305
0.00176026
0.00176997
0.00104729
0.000938302
0.000918805
0.000919098
0.000922789
0.000925024
0.000927527
0.000933785
0.000944369
0.000958158
0.000973778
0.000990342
0.00100753
0.00102522
0.00104403
0.00106542
0.0010918
0.00112626
0.00117502
0.00125117
0.00137085
0.00153084
0.00260053
0.00127657
0.00110849
0.00106742
0.00104342
0.00103006
0.00101508
0.00100151
0.000997689
0.00100328
0.0010153
0.00103091
0.00104798
0.00106598
0.00108492
0.00110636
0.00113244
0.00116201
0.00119426
0.00123245
0.00128536
0.00136366
0.00146454
0.00326631
0.00147582
0.0012216
0.00112687
0.00106933
0.00105944
0.0010593
0.00104865
0.00104456
0.00105254
0.00106824
0.00108763
0.00110631
0.0011223
0.00113745
0.00115395
0.00117578
0.00120416
0.00125014
0.00129205
0.00132324
0.00137563
0.00146346
0.00101425
0.00140391
0.00117616
0.00110434
0.00106834
0.00106482
0.00106114
0.00105919
0.00106216
0.00107508
0.00109641
0.00112302
0.00115044
0.00117154
0.00118249
0.00119548
0.00122099
0.00124544
0.00128041
0.00132808
0.00135856
0.00138516
0.00143696
0.00152658
0.00122912
0.00111904
0.00107653
0.00105767
0.00105782
0.00105967
0.00106084
0.00106916
0.00108603
0.00110951
0.00113704
0.00116439
0.00118616
0.00120061
0.00121687
0.00124012
0.00126212
0.00128627
0.00132079
0.00135336
0.0013819
0.00142371
0.00164869
0.00119806
0.00109002
0.00105549
0.00104557
0.00104782
0.00105465
0.001063
0.00107584
0.00109479
0.00111885
0.00114614
0.00117234
0.00119449
0.00121334
0.00123177
0.00125179
0.00127251
0.0012944
0.00132095
0.00134853
0.0013747
0.00140328
0.00171236
0.00120046
0.00107873
0.00104334
0.0010361
0.00104131
0.00105228
0.00106602
0.00108323
0.00110482
0.00113041
0.00115888
0.00118666
0.0012103
0.00123107
0.00125109
0.0012709
0.00129032
0.00131015
0.00133166
0.00135406
0.00137595
0.00139672
0.00174872
0.00120958
0.00107663
0.00103803
0.00103146
0.00103878
0.00105302
0.0010711
0.00109248
0.0011172
0.00114494
0.00117492
0.0012044
0.00123045
0.00125395
0.00127645
0.00129749
0.0013166
0.00133475
0.00135308
0.00137182
0.00139038
0.00140735
0.00176337
0.00122016
0.00108012
0.00103803
0.00103122
0.00104009
0.00105698
0.00107865
0.00110383
0.00113177
0.00116183
0.00119333
0.00122443
0.00125311
0.00127971
0.00130513
0.00132837
0.00134862
0.00136684
0.00138439
0.00140182
0.00141886
0.00143424
0.00176836
0.00123369
0.00108837
0.00104279
0.00103519
0.00104508
0.00106413
0.00108879
0.00111726
0.00114816
0.00118051
0.00121379
0.00124683
0.0012783
0.00130811
0.00133652
0.00136255
0.00138528
0.00140551
0.00142461
0.00144312
0.0014608
0.00147663
0.00176823
0.00125308
0.00110089
0.0010516
0.00104305
0.00105367
0.00107454
0.00110169
0.00113291
0.00116643
0.00120117
0.00123667
0.00127214
0.00130675
0.00134005
0.0013718
0.00140124
0.00142758
0.00145139
0.00147381
0.00149528
0.00151556
0.00153384
0.00176867
0.00127497
0.00111608
0.0010637
0.00105443
0.00106576
0.00108827
0.00111759
0.0011512
0.00118721
0.00122464
0.00126295
0.00130151
0.00133971
0.00137699
0.00141278
0.00144646
0.00147747
0.00150614
0.00153327
0.00155916
0.00158359
0.00160594
0.0017681
0.00130216
0.00113426
0.00107898
0.00106919
0.00108128
0.00110541
0.00113679
0.00117275
0.00121149
0.00125208
0.00129386
0.00133625
0.00137868
0.0014206
0.00146136
0.00150033
0.00153709
0.0015718
0.00160491
0.00163658
0.00166659
0.00169437
0.001769
0.00132974
0.00115521
0.00109746
0.00108729
0.00110022
0.00112603
0.00115964
0.00119825
0.00124024
0.00128461
0.00133065
0.00137772
0.00142528
0.00147274
0.00151948
0.0015649
0.0016086
0.00165059
0.00169103
0.0017299
0.00176692
0.00180152
0.00176935
0.00136325
0.00117965
0.00111923
0.00110877
0.00112267
0.00115034
0.00118651
0.00122836
0.00127426
0.00132319
0.00137437
0.00142713
0.00148089
0.00153506
0.00158903
0.00164223
0.00169425
0.00174492
0.00179416
0.00184177
0.00188736
0.00193028
0.00176503
0.00141374
0.00120807
0.00114437
0.0011337
0.0011488
0.00117866
0.00121793
0.00126369
0.00131431
0.00136869
0.00142602
0.00148561
0.00154685
0.00160913
0.00167184
0.0017344
0.00179635
0.00185735
0.0019171
0.00197521
0.00203113
0.00208408
0.00176228
0.00146397
0.00123958
0.00117297
0.00116225
0.00117888
0.00121144
0.00125443
0.0013049
0.00136113
0.00142199
0.00148665
0.00155441
0.00162461
0.00169665
0.00176987
0.00184366
0.00191746
0.00199077
0.00206307
0.00213375
0.00220207
0.00226712
0.00746236
0.0015174
0.0012747
0.00120513
0.00119463
0.00121325
0.00124911
0.00129658
0.00135263
0.0014155
0.00148405
0.00155741
0.00163488
0.00171581
0.00179952
0.00188534
0.00197258
0.00206056
0.00214857
0.00223588
0.00232165
0.0024049
0.00248452
0.00176701
0.00154896
0.00131357
0.001241
0.00123107
0.00125223
0.00129212
0.00134492
0.00140758
0.00147829
0.00155591
0.00163959
0.00172861
0.00182231
0.00191998
0.00202089
0.00212425
0.0022292
0.00233485
0.00244018
0.00254409
0.00264534
0.00274258
0.00176247
0.00162142
0.00135634
0.00128074
0.0012718
0.00129615
0.00134088
0.00140003
0.00147048
0.00155043
0.00163876
0.00173464
0.00183738
0.0019463
0.00206066
0.00217965
0.00230234
0.00242769
0.00255454
0.00268159
0.0028074
0.0029304
0.00304895
0.00746763
0.00168512
0.00140261
0.00132447
0.00131706
0.00134533
0.00139585
0.00146249
0.0015421
0.00163292
0.00173387
0.0018442
0.00196322
0.00209029
0.00222462
0.0023653
0.00251124
0.00266118
0.00281363
0.00296693
0.00311924
0.0032686
0.00341295
0.00176585
0.00173613
0.00145274
0.00137228
0.00136702
0.00140007
0.00145745
0.00153288
0.00162323
0.00172682
0.00184265
0.00197006
0.00210844
0.00225716
0.00241541
0.00258218
0.00275617
0.00293583
0.00311929
0.00330443
0.00348893
0.00367026
0.0038459
0.0074675
0.00182004
0.00150669
0.00142427
0.00142186
0.00146063
0.00152607
0.0016118
0.00171472
0.00183327
0.00196661
0.00211421
0.00227559
0.00245017
0.00263714
0.00283534
0.00304326
0.00325897
0.00348013
0.00370402
0.00392767
0.0041479
0.0043615
0.00176437
0.00188638
0.00156418
0.00148041
0.00148167
0.00152723
0.0016021
0.0016998
0.00181737
0.00195341
0.00210733
0.00227879
0.0024675
0.002673
0.00289447
0.00313064
0.0033797
0.00363927
0.00390638
0.00417758
0.00444901
0.00471661
0.00497633
0.00176464
0.00195907
0.00162535
0.00154067
0.0015465
0.00160005
0.00168584
0.00179741
0.00193196
0.0020884
0.00226642
0.00246603
0.00268721
0.00292966
0.00319264
0.00347473
0.00377381
0.00408688
0.00441019
0.00473929
0.00506918
0.00539463
0.00571043
0.00176427
0.00204505
0.00168951
0.00160483
0.00161628
0.00167914
0.00177753
0.00190505
0.00205921
0.0022393
0.00244548
0.00267821
0.00293789
0.00322449
0.0035374
0.00387511
0.00423507
0.00461357
0.0050058
0.00540599
0.00580762
0.00620388
0.00658803
0.00176883
0.00211197
0.00175613
0.00167265
0.00169086
0.00176446
0.00187725
0.00202302
0.00219968
0.00240708
0.002646
0.00291755
0.00322271
0.00356196
0.0039349
0.00433996
0.00477411
0.00523276
0.00570974
0.0061975
0.00668747
0.00717067
0.00763829
0.0017659
0.002207
0.00182548
0.00174372
0.00176993
0.00185582
0.00198494
0.0021514
0.00235367
0.00259237
0.00286914
0.00318598
0.00354471
0.00394652
0.00439145
0.00487795
0.00540252
0.00595945
0.00654082
0.00713675
0.00773592
0.00832634
0.00889636
0.00176827
0.00227868
0.00189565
0.00181736
0.00185307
0.0019529
0.00210035
0.00229
0.00252114
0.00279539
0.00311553
0.0034848
0.00390621
0.004382
0.00491292
0.00549766
0.00613224
0.0068097
0.00751993
0.00825
0.00898481
0.00970828
0.0104046
0.00176773
0.0023624
0.00196534
0.00189291
0.00193985
0.00205532
0.00222305
0.00243835
0.00270159
0.00301571
0.00338502
0.00381438
0.0043085
0.00487108
0.00550407
0.00620671
0.00697476
0.0077999
0.00866942
0.00956647
0.0104709
0.0113607
0.0122142
0.00746797
0.00244374
0.0020348
0.0019703
0.00203008
0.00216274
0.00235249
0.00259564
0.00289395
0.00325207
0.00367629
0.00417365
0.00475106
0.0054144
0.0061674
0.00701048
0.00793958
0.00894521
0.0100118
0.0111177
0.0122359
0.0133359
0.0143871
0.00176795
0.00250081
0.00210431
0.0020497
0.00212394
0.00227508
0.0024881
0.0027607
0.00309643
0.00350212
0.00398653
0.00455946
0.00523079
0.00600936
0.00690162
0.00791013
0.00903198
0.0102573
0.0115679
0.0129364
0.0143267
0.015696
0.0169995
0.00176813
0.00256061
0.00217383
0.00213248
0.00222271
0.00239288
0.00262942
0.00293197
0.00330638
0.00376209
0.00431088
0.00496596
0.00574098
0.00664876
0.00769973
0.00890012
0.01025
0.0117408
0.0133531
0.0150541
0.0167956
0.0185161
0.0201478
0.00176732
0.00261171
0.00224539
0.00222273
0.00232984
0.00251791
0.00277631
0.0031075
0.00352009
0.00402655
0.0046421
0.00538395
0.00627035
0.00731927
0.00854678
0.00996509
0.0115801
0.0133886
0.0153733
0.0174977
0.0196993
0.0218886
0.0239577
0.00176774
0.00263796
0.00233271
0.00233298
0.00245345
0.00265394
0.00292905
0.00328474
0.0037326
0.00428814
0.0049702
0.00580037
0.00680223
0.00800014
0.00941781
0.0110765
0.0129928
0.0151749
0.0176159
0.020282
0.0230972
0.0259299
0.0286006
0.00176579
0.00273647
0.0024849
0.00249378
0.00260943
0.00280725
0.00308793
0.00346014
0.00393737
0.00453744
0.00528241
0.00619828
0.00731438
0.00866256
0.0102762
0.0121896
0.0144362
0.0170462
0.0200372
0.0233953
0.027041
0.0307871
0.034322
0.00748165
0.00318138
0.0028498
0.00277138
0.00282392
0.00298524
0.00325175
0.00362811
0.00412585
0.00476295
0.00556354
0.00655743
0.00777967
0.00927018
0.0110738
0.0132414
0.0158313
0.0189091
0.0225409
0.0267676
0.0315453
0.0366383
0.0414969
0.0137597
0.00570561
0.00387957
0.00329432
0.00312865
0.0031901
0.00341396
0.00377935
0.00428709
0.0049515
0.00579682
0.00685561
0.00816793
0.00978148
0.0117531
0.0141525
0.0170688
0.0206181
0.0249461
0.0302101
0.0365046
0.0436533
0.0507602
0.143491
0.0222174
0.00703256
0.00425883
0.00353023
0.00340311
0.00355675
0.00389915
0.00440779
0.00508907
0.0059655
0.00707098
0.00844925
0.0101543
0.0122533
0.0148337
0.0180157
0.0219721
0.0269538
0.0333119
0.0414817
0.0517779
0.0633738
1.53667
0.122506
0.0156582
0.00564862
0.00391374
0.00356115
0.00364704
0.00396799
0.00447377
0.00516261
0.0060549
0.00718488
0.00859819
0.0103524
0.0125207
0.0152016
0.0185362
0.0227392
0.0281509
0.0353305
0.0452445
0.0597017
0.0824585
0.00582277
0.00469492
0.0048214
0.00599457
0.00212887
0.00216814
0.00215842
0.00208975
0.00162601
0.00164753
0.00163265
0.00158399
0.00151767
0.0015229
0.00150431
0.00146669
0.00153294
0.00153945
0.00149386
0.0014423
0.0014766
0.00149771
0.00147171
0.00142958
0.00145954
0.00146408
0.00144386
0.00141284
0.00142302
0.00142482
0.00141415
0.00139762
0.00140789
0.00141008
0.00140649
0.00139917
0.00141575
0.0014184
0.00141827
0.00141596
0.00144224
0.00144562
0.00144736
0.00144772
0.00148572
0.0014903
0.00149361
0.00149582
0.00154511
0.00155136
0.00155651
0.0015606
0.00162032
0.00162866
0.00163598
0.00164225
0.00171275
0.00172367
0.00173356
0.00174237
0.00182481
0.00183884
0.00185181
0.00186362
0.0019595
0.00197727
0.0019939
0.00200928
0.00212045
0.00214271
0.00216371
0.00218337
0.00231209
0.00233975
0.00236603
0.00239082
0.00253987
0.00257405
0.00260668
0.00263765
0.00281045
0.00285249
0.0028928
0.00293122
0.00313195
0.00318349
0.00323306
0.00328048
0.00351424
0.00357727
0.00363801
0.00369625
0.00396931
0.00404619
0.00412039
0.00419168
0.00451165
0.00460524
0.00469566
0.00478261
0.00515882
0.00527258
0.00538251
0.00548825
0.00593205
0.00607014
0.00620353
0.00633179
0.00685703
0.00702448
0.00718608
0.00734129
0.00796475
0.00816769
0.0083632
0.00855067
0.00929274
0.00953866
0.00977501
0.0100011
0.0108865
0.0111846
0.0114703
0.0117425
0.0128013
0.0131632
0.0135086
0.0138363
0.0151048
0.0155453
0.0159634
0.0163579
0.0178814
0.0184196
0.0189269
0.019402
0.0212389
0.0218997
0.0225171
0.0230897
0.0253197
0.026136
0.0268895
0.0275791
0.0303191
0.0313336
0.0322541
0.033081
0.0365165
0.0377826
0.0389025
0.0398816
0.0443314
0.045907
0.0472461
0.0483708
0.0544316
0.0563435
0.0578667
0.0590696
0.0679452
0.0700472
0.0715468
0.0726226
0.0867908
0.088282
0.0891341
0.0896493
0.00216238
0.00136549
0.00111662
0.00101464
0.000964667
0.000936131
0.00091585
0.000896905
0.000877125
0.000855366
0.000828772
0.000796711
0.000759586
0.000719557
0.000681243
0.00065005
0.000638433
0.00070045
0.00134044
0.00165038
0.0013142
0.00114582
0.00105738
0.00100778
0.000977909
0.00095793
0.000942226
0.000928281
0.00091414
0.000894995
0.000868297
0.000834606
0.000795707
0.000755441
0.000723735
0.000716606
0.000789862
0.00148657
0.00145193
0.00128124
0.00116734
0.00109685
0.00105375
0.0010272
0.00101041
0.000999108
0.000990963
0.00098422
0.00097187
0.00094837
0.000915144
0.000876139
0.000833614
0.000799087
0.000788185
0.00085846
0.00170735
0.00138882
0.00127729
0.00119368
0.00113697
0.00110089
0.00107884
0.00106589
0.00105882
0.00105591
0.00105641
0.00105105
0.00102976
0.000996758
0.000959517
0.00091585
0.000877809
0.000857887
0.000881386
0.00273339
0.00136766
0.00128268
0.0012214
0.00117618
0.00114619
0.00112809
0.00111719
0.00111031
0.00110547
0.00110294
0.00109913
0.00109183
0.00107592
0.0010322
0.000993406
0.000958518
0.000956692
0.00107818
0.00222443
0.00137168
0.00129653
0.00124596
0.00120941
0.00118653
0.00117236
0.00116037
0.00115007
0.0011431
0.00114148
0.00114037
0.00114247
0.00113401
0.00109618
0.00106554
0.00103562
0.00103955
0.00119621
0.00298974
0.00136678
0.00131222
0.00127378
0.00124303
0.00122242
0.00120902
0.0011949
0.00118235
0.00117536
0.00117505
0.00118156
0.00120125
0.00120065
0.00113853
0.00109703
0.00107352
0.00107959
0.00115837
0.00115692
0.00136939
0.00133062
0.00129963
0.00127498
0.00125691
0.00124246
0.00122765
0.00121488
0.00120713
0.00120551
0.001209
0.00121539
0.00119868
0.00114704
0.00110377
0.00108269
0.00110419
0.00127209
0.00115812
0.00138414
0.00135814
0.0013336
0.00131301
0.00129665
0.0012809
0.00126523
0.00125154
0.00124222
0.00123728
0.00123347
0.00122353
0.00119431
0.00115132
0.00111197
0.00108909
0.00110938
0.00127421
0.00115778
0.00140959
0.00139459
0.00137637
0.00135965
0.0013447
0.00132802
0.00131041
0.00129435
0.00128169
0.00127197
0.00126072
0.00123904
0.00119925
0.00115626
0.00111909
0.00109349
0.00110368
0.00122466
0.00115933
0.00144644
0.00143947
0.00142777
0.00141498
0.00140112
0.0013838
0.00136428
0.00134537
0.00132814
0.00131203
0.00129329
0.00126416
0.00121879
0.00117051
0.00113043
0.0011023
0.00110416
0.00119687
0.0011568
0.00149781
0.00149583
0.00148935
0.00147967
0.00146662
0.00144933
0.00142894
0.00140744
0.00138556
0.00136289
0.001337
0.00130279
0.00125558
0.00120274
0.00115703
0.00112542
0.00112329
0.00119966
0.00115629
0.00156567
0.00156766
0.00156481
0.00155747
0.00154553
0.00152884
0.00150811
0.00148448
0.00145854
0.00143017
0.00139818
0.00136003
0.00131269
0.00125827
0.00120742
0.00117269
0.00117138
0.00124484
0.001156
0.00165082
0.00165717
0.00165783
0.00165297
0.00164262
0.00162684
0.00160602
0.0015808
0.00155164
0.00151871
0.00148174
0.00143999
0.00139245
0.00133915
0.0012868
0.00125142
0.00125546
0.00132574
0.00115738
0.00175507
0.00176658
0.00177153
0.00176993
0.00176186
0.00174743
0.00172689
0.00170065
0.00166912
0.00163268
0.00159164
0.00154637
0.00149738
0.00144545
0.00139546
0.0013636
0.00137809
0.00149127
0.00113058
0.00188118
0.00189888
0.00190915
0.00191183
0.00190691
0.00189451
0.00187484
0.00184821
0.00181504
0.00177589
0.00173146
0.00168275
0.00163126
0.00157923
0.00153213
0.00150511
0.00152904
0.00168402
0.00112916
0.00203261
0.00205773
0.00207452
0.0020826
0.00208187
0.00207236
0.00205427
0.00202788
0.00199368
0.00195235
0.0019049
0.00185281
0.0017983
0.00174485
0.00169919
0.00167626
0.00170964
0.00190774
0.00115869
0.00221361
0.00224762
0.0022723
0.00228707
0.00229166
0.00228602
0.00227027
0.00224474
0.00220993
0.00216669
0.00211627
0.00206055
0.00200237
0.00194627
0.00190041
0.0018815
0.00192993
0.00218668
0.00116025
0.00242936
0.00247405
0.00250825
0.00253117
0.00254234
0.00254161
0.00252902
0.00250487
0.00246975
0.00242459
0.00237087
0.00231081
0.00224783
0.00218739
0.00213915
0.00212256
0.0021863
0.00251567
0.00490389
0.00268621
0.00274376
0.0027894
0.00282214
0.00284133
0.00284664
0.00283804
0.00281578
0.00278046
0.00273313
0.00267542
0.00260988
0.00254043
0.00247339
0.00241992
0.00240251
0.00247826
0.00286625
0.0054248
0.00299187
0.00306489
0.00312427
0.00316881
0.00319763
0.00321026
0.00320653
0.00318662
0.00315114
0.00310116
0.00303849
0.00296593
0.00288788
0.00281154
0.00274961
0.0027278
0.00281173
0.00325366
0.00619966
0.0033557
0.00344731
0.00352317
0.00358179
0.00362213
0.0036435
0.0036456
0.00362853
0.00359283
0.00353961
0.00347076
0.00338934
0.00330026
0.00321157
0.00313777
0.00310821
0.0031979
0.00369443
0.00709476
0.00378903
0.00390294
0.00399847
0.00407388
0.00412788
0.00415962
0.00416865
0.00415494
0.00411897
0.00406181
0.00398544
0.0038931
0.00379024
0.00368593
0.00359655
0.00355577
0.00365009
0.0042125
0.00815443
0.00430554
0.00444613
0.00456508
0.00466037
0.00473051
0.00477448
0.00479169
0.004782
0.00474575
0.00468395
0.00459862
0.00449322
0.00437363
0.00424997
0.00414086
0.00408488
0.00418157
0.00481438
0.0093525
0.00492177
0.00509416
0.00524085
0.00535958
0.00544869
0.00550702
0.00553387
0.00552898
0.00549257
0.00542558
0.00532994
0.00520921
0.0050697
0.00492266
0.00478913
0.00471323
0.00480885
0.00551475
0.0107069
0.00565767
0.00586783
0.00604724
0.00619343
0.00630467
0.00637977
0.00641795
0.0064189
0.00638272
0.00631016
0.00620299
0.00606479
0.00590218
0.0057275
0.00556439
0.00546297
0.00555289
0.00633259
0.0122227
0.00653733
0.00679215
0.00700992
0.00718808
0.00732496
0.00741949
0.00747101
0.00747915
0.00744389
0.00736577
0.00724629
0.00708884
0.00690023
0.00669374
0.00649568
0.00636269
0.00644173
0.00729622
0.0139303
0.00758987
0.00789726
0.00815968
0.00837476
0.00854112
0.00865806
0.00872516
0.00874219
0.00870906
0.008626
0.00849415
0.00831649
0.00809976
0.00785795
0.00762005
0.00744992
0.00751466
0.00845468
0.0159654
0.00885039
0.00921942
0.00953354
0.00979088
0.00999079
0.0101333
0.0102185
0.0102465
0.0102173
0.0101308
0.0099877
0.00979026
0.00954478
0.00926568
0.00898455
0.0087735
0.00882443
0.00987646
0.0185225
0.0103615
0.0108026
0.011176
0.0114812
0.0117188
0.0118899
0.011996
0.0120376
0.0120149
0.0119277
0.0117761
0.0115613
0.011289
0.0109734
0.0106485
0.0103958
0.010438
0.011642
0.02178
0.0121751
0.0126998
0.0131409
0.0134995
0.0137785
0.0139814
0.0141109
0.014169
0.0141563
0.0140727
0.0139174
0.013691
0.0133974
0.0130505
0.012686
0.0123957
0.0124388
0.0138418
0.0258623
0.0143546
0.0149761
0.015493
0.0159101
0.0162338
0.0164707
0.0166262
0.0167039
0.0167057
0.0166315
0.0164803
0.0162516
0.0159478
0.0155815
0.0151895
0.0148736
0.014935
0.0165921
0.0309289
0.016978
0.0177106
0.0183115
0.018791
0.0191612
0.0194333
0.0196165
0.0197169
0.0197381
0.019681
0.0195447
0.019328
0.0190323
0.0186683
0.0182734
0.0179584
0.018071
0.0200609
0.0372836
0.020143
0.0210015
0.0216929
0.0222365
0.0226526
0.0229593
0.0231705
0.023296
0.0233418
0.0233107
0.023203
0.0230181
0.0227573
0.0224311
0.022077
0.0218149
0.0220427
0.0244881
0.0453712
0.0239735
0.0249714
0.025756
0.0263612
0.0268191
0.0271566
0.0273939
0.0275454
0.0276205
0.0276247
0.0275612
0.0274325
0.0272432
0.0270069
0.0267655
0.0266499
0.0271137
0.0302182
0.0558312
0.0286286
0.0297743
0.0306479
0.0313054
0.0317954
0.0321557
0.032414
0.0325899
0.0326967
0.0327442
0.0327405
0.0326946
0.0326204
0.0325437
0.0325222
0.0327113
0.0336348
0.0377545
0.0695876
0.0343155
0.0356045
0.0365499
0.0372402
0.0377451
0.0381149
0.038385
0.0385799
0.0387173
0.038812
0.0388792
0.0389394
0.0390241
0.039187
0.0395284
0.0402684
0.0420553
0.0478716
0.0883226
0.0413043
0.0427054
0.0436845
0.0443743
0.044868
0.045228
0.0454958
0.0456996
0.0458608
0.0459993
0.0461389
0.0463151
0.046587
0.0470581
0.0479176
0.0495425
0.052874
0.0617483
0.115217
0.0499421
0.051376
0.0523211
0.0529606
0.0534081
0.0537333
0.0539799
0.0541774
0.0543487
0.054517
0.0547138
0.0549904
0.0554384
0.0562297
0.0576996
0.0605403
0.0663913
0.0809563
0.156137
0.0606561
0.0619702
0.0627799
0.0633049
0.0636649
0.0639268
0.0641302
0.0643013
0.064461
0.0646327
0.0648508
0.0651751
0.0657208
0.0667216
0.0686805
0.072758
0.0819722
0.106642
0.22357
0.0739257
0.0748846
0.0754343
0.0757772
0.0760095
0.0761803
0.0763171
0.076438
0.0765581
0.0766954
0.0768783
0.0771591
0.077644
0.0785665
0.0804854
0.0848925
0.0964577
0.13472
0.347391
0.0901916
0.0905362
0.0907202
0.090832
0.090908
0.0909655
0.0910139
0.0910594
0.0911077
0.091166
0.0912463
0.0913713
0.0915888
0.0920095
0.0929273
0.0952746
0.102842
0.139054
0.579111
)
;

boundaryField
{
    leftWall
    {
        type            epsilonWallFunction;
        value           nonuniform List<scalar> 
50
(
8.57039e-05
0.000180771
0.000311901
0.000441694
0.000566945
0.000688966
0.000810264
0.000934727
0.00111865
0.00139098
0.00176997
0.00260053
0.00326631
0.00101425
0.00152658
0.00164869
0.00171236
0.00174872
0.00176337
0.00176836
0.00176823
0.00176867
0.0017681
0.001769
0.00176935
0.00176503
0.00176228
0.00746236
0.00176701
0.00176247
0.00746763
0.00176585
0.0074675
0.00176437
0.00176464
0.00176427
0.00176883
0.0017659
0.00176827
0.00176773
0.00746797
0.00176795
0.00176813
0.00176732
0.00176774
0.00176579
0.00748165
0.0137597
0.143491
1.53667
)
;
    }
    rightWall
    {
        type            epsilonWallFunction;
        value           nonuniform List<scalar> 
50
(
0.000104375
0.000185704
0.000318832
0.000463359
0.00061701
0.000779791
0.000959439
0.00114764
0.00134044
0.00148657
0.00170735
0.00273339
0.00222443
0.00298974
0.00115692
0.00115812
0.00115778
0.00115933
0.0011568
0.00115629
0.001156
0.00115738
0.00113058
0.00112916
0.00115869
0.00116025
0.00490389
0.0054248
0.00619966
0.00709476
0.00815443
0.0093525
0.0107069
0.0122227
0.0139303
0.0159654
0.0185225
0.02178
0.0258623
0.0309289
0.0372836
0.0453712
0.0558312
0.0695876
0.0883226
0.115217
0.156137
0.22357
0.347391
0.579111
)
;
    }
    lowerWall
    {
        type            epsilonWallFunction;
        value           nonuniform List<scalar> 
62
(
8.57039e-05
0.000486107
0.000875087
0.0012308
0.00155319
0.00184295
0.00210014
0.00232493
0.00251867
0.00268486
0.00282978
0.00296027
0.00307792
0.00316949
0.00319949
0.00311075
0.00289116
0.0025796
0.00216807
0.00172319
0.00133402
0.000784083
0.000253393
0.000253393
0.000408307
0.000690223
0.00102136
0.00143333
0.00200405
0.00292646
0.0049821
0.00582277
0.00469492
0.0048214
0.00599457
0.000473098
0.000529261
0.00072076
0.000853068
0.00102328
0.00134155
0.00196977
0.00364278
0.000473098
0.00143584
0.00232628
0.00271161
0.0029001
0.00299069
0.00297251
0.00291067
0.00274506
0.00250943
0.00218366
0.00176509
0.00158255
0.00157045
0.00141309
0.0011181
0.000726215
0.000400304
0.000104375
)
;
    }
    atmosphere
    {
        type            inletOutlet;
        inletValue      uniform 0.1;
        value           nonuniform List<scalar> 
46
(
0.1
0.122506
0.0156582
0.00564862
0.00391374
0.00356115
0.00364704
0.00396799
0.00447377
0.00516261
0.0060549
0.00718488
0.00859819
0.0103524
0.0125207
0.0152016
0.0185362
0.0227392
0.0281509
0.0353305
0.0452445
0.0597017
0.1
0.1
0.1
0.1
0.1
0.1
0.1
0.1
0.1
0.1
0.1
0.1
0.1
0.1
0.1
0.1
0.1
0.1
0.1
0.1
0.1
0.1
0.1
0.579111
)
;
    }
    defaultFaces
    {
        type            empty;
    }
}


// ************************************************************************* //
