/*--------------------------------*- C++ -*----------------------------------*\
  =========                 |
  \\      /  F ield         | OpenFOAM: The Open Source CFD Toolbox
   \\    /   O peration     | Website:  https://openfoam.org
    \\  /    A nd           | Version:  9
     \\/     M anipulation  |
\*---------------------------------------------------------------------------*/
FoamFile
{
    format      ascii;
    class       volScalarField;
    location    "9";
    object      nut;
}
// * * * * * * * * * * * * * * * * * * * * * * * * * * * * * * * * * * * * * //

dimensions      [0 2 -1 0 0 0 0];

internalField   nonuniform List<scalar> 
2268
(
8.73008e-06
1.03522e-05
1.25934e-05
1.41094e-05
1.52464e-05
1.61403e-05
1.68583e-05
1.7439e-05
1.79102e-05
1.82955e-05
1.86189e-05
1.89009e-05
1.91482e-05
1.93367e-05
1.9398e-05
1.92177e-05
1.87529e-05
1.80549e-05
1.70403e-05
1.57871e-05
1.44984e-05
1.21463e-05
8.33313e-06
2.0222e-05
8.51043e-05
0.000115888
0.000135288
0.000149237
0.000159866
0.000168167
0.000174716
0.000179921
0.000184095
0.000187473
0.000190207
0.000192299
0.000193506
0.000193313
0.000190867
0.000184015
0.00017366
0.000159875
0.000146703
0.000135046
9.99439e-05
2.65397e-05
2.42534e-05
0.000144426
0.000215568
0.000261776
0.000295153
0.000320582
0.000340424
0.000356052
0.000368425
0.00037827
0.000386146
0.000392442
0.000397224
0.000400011
0.000399652
0.000394159
0.00038036
0.000359697
0.000333033
0.000302347
0.000261605
0.000173207
3.1618e-05
2.72352e-05
0.000186115
0.000294284
0.000367335
0.000420904
0.000462015
0.000494247
0.000519735
0.000539974
0.000556089
0.000568944
0.000579138
0.000586804
0.000591275
0.000590902
0.000582875
0.000563595
0.000534486
0.000496354
0.000446389
0.000370847
0.00023128
3.60305e-05
2.9598e-05
0.000217558
0.000357741
0.000455734
0.000528752
0.000585275
0.000629841
0.00066525
0.000693486
0.000716027
0.000733996
0.000748156
0.000758689
0.000764806
0.000764546
0.000754649
0.000731247
0.000695281
0.000646587
0.000577481
0.000467828
0.000281284
4.0336e-05
3.15845e-05
0.000242639
0.000410314
0.000531026
0.000622342
0.00069363
0.000750148
0.000795256
0.000831373
0.000860292
0.00088334
0.000901407
0.000914718
0.000922415
0.000922394
0.000911245
0.000884938
0.000843537
0.000785463
0.000699002
0.0005585
0.000327362
4.50982e-05
3.33379e-05
0.000263399
0.000454874
0.000596227
0.000704629
0.000789917
0.000857876
0.000912338
0.000956108
0.000991253
0.00101927
0.00104114
0.00105713
0.00106636
0.00106673
0.00105487
0.00102679
0.00098141
0.000915743
0.000815292
0.000649858
0.000376544
5.11859e-05
3.49605e-05
0.000280976
0.000493357
0.000653554
0.000777896
0.000876398
0.000955234
0.00101864
0.00106979
0.00111096
0.00114381
0.00116937
0.00118797
0.00119876
0.0011997
0.00118763
0.00115875
0.00111103
0.00104012
0.000930558
0.000750295
0.000444621
6.11464e-05
1.02537e-05
1.48521e-05
1.74467e-05
1.83637e-05
1.8784e-05
1.89797e-05
1.89412e-05
1.88081e-05
1.84443e-05
1.79031e-05
1.70936e-05
1.59233e-05
1.53461e-05
1.53085e-05
1.47746e-05
1.36619e-05
1.18314e-05
9.70074e-06
9.74653e-06
3.32937e-05
0.000117483
0.000157681
0.000176661
0.000185539
0.000189154
0.000189816
0.000187662
0.000182811
0.000176988
0.000164829
0.000148153
0.000143336
0.000150584
0.000144363
0.000130882
0.000108075
7.29146e-05
2.34956e-05
3.6913e-05
0.000206648
0.00030321
0.00035206
0.000375767
0.000385845
0.000388008
0.000383735
0.000373418
0.000359396
0.000339721
0.000315094
0.000304087
0.000304988
0.00028915
0.000257354
0.000203664
0.000122904
2.81286e-05
3.905e-05
0.000271122
0.000423814
0.000505759
0.00054697
0.000565266
0.000570031
0.000564536
0.000549738
0.000529276
0.000504751
0.000476243
0.000457243
0.000444985
0.00041603
0.000365359
0.000283467
0.00016488
3.18568e-05
4.15043e-05
0.000319521
0.000525896
0.000640652
0.000699609
0.00072665
0.000734679
0.000728847
0.000710896
0.000685837
0.000657478
0.000625481
0.000597618
0.000570828
0.000527513
0.000459117
0.00035374
0.000204851
3.50429e-05
4.54171e-05
0.000363173
0.000618968
0.00076278
0.000837628
0.000872815
0.000884192
0.000878616
0.000858659
0.000830294
0.00079842
0.000762282
0.000725361
0.000684533
0.000626966
0.000542271
0.000417183
0.00024293
3.78834e-05
5.16159e-05
0.000415395
0.000712077
0.000877755
0.000964926
0.00100679
0.00102107
0.00101597
0.000994769
0.000963873
0.000928534
0.000887583
0.000841746
0.00078792
0.000716684
0.000616522
0.000473418
0.000276245
4.06001e-05
6.33822e-05
0.000489663
0.000812803
0.000989909
0.00108477
0.00113122
0.00114758
0.00114279
0.00112072
0.00108773
0.00104885
0.00100263
0.000948222
0.000882531
0.000798197
0.000683035
0.000522692
0.000303489
4.3095e-05
3.71197e-05
0.000304831
0.000546139
0.000733406
0.000881099
0.000999179
0.00109431
0.0011713
0.0012338
0.00128439
0.00132484
0.00135624
0.00137892
0.00139216
0.00139428
0.00138269
0.00135402
0.00130499
0.00123
0.00111512
0.000936789
0.000671777
0.00033206
3.99116e-05
0.000329839
0.000604603
0.000824517
0.000999917
0.00114077
0.00125469
0.00134741
0.00142323
0.00148512
0.00153495
0.00157379
0.00160197
0.00161913
0.00162424
0.00161549
0.00159028
0.00154544
0.00147613
0.00137321
0.00122408
0.00102037
0.000771826
4.32372e-05
0.000349145
0.000657618
0.000909134
0.00110827
0.00126749
0.00139637
0.00150187
0.00158903
0.001661
0.00171963
0.00176587
0.00180007
0.00182217
0.00183181
0.00182806
0.00180935
0.00177326
0.00171627
0.00163352
0.00151998
0.00137723
0.00122397
4.90533e-05
0.000363742
0.00071161
0.000995433
0.00121196
0.00138451
0.00152438
0.00163951
0.00173598
0.00181686
0.00188388
0.00193793
0.00197889
0.00200685
0.00202223
0.00202498
0.0020147
0.00198878
0.00194521
0.00188357
0.00180228
0.00170722
0.00161783
5.29359e-05
0.000414836
0.000792969
0.00108377
0.00130843
0.00149235
0.00164332
0.00176649
0.0018701
0.0019586
0.00203309
0.00209443
0.00214193
0.00217504
0.00219575
0.00220449
0.0022013
0.00218418
0.00215531
0.00211418
0.00205908
0.00199768
0.00194537
0.000245795
0.000466137
0.000827031
0.00111758
0.00136145
0.00156568
0.00173398
0.00187243
0.00198756
0.0020851
0.00216762
0.00223654
0.00229133
0.00233106
0.00235639
0.00236989
0.00237335
0.0023637
0.00234318
0.00231957
0.00228779
0.00224914
0.00221463
0.000254782
0.000562169
0.000880185
0.00116573
0.00141481
0.00162934
0.00181054
0.00196196
0.00208943
0.00219745
0.00228889
0.0023656
0.00242745
0.00247356
0.00250496
0.00252409
0.00253307
0.00253118
0.00251974
0.00250647
0.00249112
0.0024721
0.00245396
0.000274953
0.000602342
0.000922356
0.00121109
0.00146596
0.00168798
0.00187878
0.00204127
0.00217959
0.00229754
0.00239797
0.00248277
0.00255188
0.00260492
0.00264322
0.00266878
0.00268357
0.00268951
0.00268834
0.00268487
0.00268057
0.00267445
0.00266795
0.00028552
0.000623519
0.000953812
0.00125034
0.00151239
0.00174205
0.00194136
0.00211309
0.00226088
0.00238794
0.00249697
0.00258972
0.00266635
0.00272674
0.00277232
0.00280519
0.00282729
0.00284109
0.00284899
0.00285405
0.00285783
0.00286019
0.00286161
0.000291578
0.000636695
0.000977089
0.00128298
0.00155354
0.00179128
0.00199886
0.00217917
0.00233555
0.00247097
0.00258788
0.002688
0.00277183
0.00283968
0.002893
0.00293371
0.00296366
0.00298517
0.00300075
0.0030127
0.00302244
0.00303028
0.00303634
0.000294058
0.000644092
0.000994018
0.00131013
0.00159001
0.00183629
0.0020521
0.00224065
0.00240503
0.00254811
0.00267222
0.00277912
0.00286973
0.00294479
0.00300564
0.00305399
0.00309144
0.00312009
0.00314219
0.0031597
0.00317385
0.00318509
0.00319335
0.000294924
0.000647447
0.00100677
0.00133351
0.00162303
0.00187797
0.0021019
0.00229827
0.00247021
0.00262033
0.00275101
0.00286415
0.00296102
0.00304269
0.00311042
0.00316566
0.00320981
0.00324473
0.00327236
0.0032944
0.00331189
0.00332523
0.00333426
0.000294944
0.000647019
0.00101677
0.00135453
0.0016537
0.00191718
0.00214895
0.0023527
0.00253158
0.00268819
0.00282489
0.0029437
0.0030462
0.00313369
0.0032074
0.00326859
0.00331852
0.00335878
0.00339108
0.00341682
0.00343688
0.00345161
0.00346081
0.000295042
0.000645928
0.00102595
0.00137424
0.00168274
0.00195451
0.00219379
0.00240441
0.00258958
0.00275198
0.00289411
0.00301806
0.00312556
0.00321806
0.0032968
0.00336296
0.00341774
0.00346251
0.0034987
0.00352749
0.00354964
0.00356543
0.00357471
0.00029498
0.000643072
0.00103431
0.00139299
0.00171058
0.00199037
0.00223679
0.00245375
0.0026446
0.0028122
0.00295912
0.00308756
0.00319935
0.00329604
0.00337893
0.00344921
0.00350801
0.00355653
0.00359598
0.00362735
0.00365129
0.00366809
0.00367766
0.000295159
0.000641256
0.00104242
0.00141108
0.00173753
0.00202506
0.0022782
0.00250101
0.00269699
0.0028692
0.00302032
0.00315261
0.00326802
0.00336816
0.00345443
0.00352804
0.0035901
0.00364171
0.0036839
0.00371753
0.00374316
0.00376109
0.00377132
0.000295253
0.000638009
0.00105005
0.00142877
0.00176389
0.00205881
0.00231823
0.00254639
0.00274698
0.00292325
0.00307798
0.00321353
0.00333193
0.00343489
0.00352388
0.00360017
0.00366488
0.00371905
0.0037636
0.00379929
0.00382664
0.00384596
0.0038573
0.000294593
0.00062887
0.00105712
0.00144625
0.00178985
0.00209181
0.00235704
0.00259005
0.00279476
0.00297455
0.00313233
0.00327058
0.00339142
0.00349665
0.00358784
0.0036663
0.00373321
0.00378956
0.00383624
0.00387394
0.00390317
0.0039242
0.00393716
0.00029428
0.000622103
0.00106463
0.00146369
0.00181552
0.00212415
0.00239478
0.00263217
0.00284048
0.00302326
0.00318356
0.003324
0.00344679
0.00355385
0.00364683
0.00372712
0.00379593
0.00385428
0.00390303
0.00394283
0.00397418
0.00399736
0.00401248
6.9422e-05
0.000615728
0.00107236
0.00148121
0.001841
0.00215595
0.00243154
0.00267285
0.00288426
0.00306953
0.00323187
0.00337403
0.00349837
0.00360692
0.00370141
0.00378332
0.00385392
0.00391425
0.00396516
0.00400731
0.00404117
0.00406699
0.00408488
0.000295216
0.000620502
0.00108031
0.00149885
0.00186635
0.00218725
0.00246741
0.00271218
0.00292622
0.00311352
0.00327746
0.00342097
0.00354654
0.00365633
0.00375218
0.00383566
0.00390809
0.00397055
0.0040239
0.00406878
0.00410565
0.00413472
0.00415606
0.000294238
0.000611142
0.00108833
0.00151663
0.00189158
0.0022181
0.00250241
0.00275022
0.00296647
0.00315538
0.00332057
0.00346512
0.00359171
0.00370263
0.00379983
0.00388497
0.00395943
0.00402433
0.00408054
0.00412869
0.00416918
0.0042022
0.00422773
6.94817e-05
0.000606629
0.00109681
0.00153454
0.0019167
0.00224851
0.0025366
0.00278704
0.00300511
0.00319529
0.00336144
0.00350685
0.00363436
0.00374641
0.00384509
0.00393213
0.00400899
0.0040768
0.00413645
0.00418852
0.00423337
0.00427111
0.00430164
0.000295238
0.000609046
0.0011056
0.00155263
0.0019417
0.00227846
0.00256997
0.0028227
0.00304226
0.00323346
0.00340038
0.00354656
0.00367502
0.00378835
0.00388877
0.00397811
0.00405787
0.00412921
0.00419298
0.00424975
0.00429979
0.00434312
0.00437952
6.95195e-05
0.000601437
0.00111465
0.00157085
0.00196655
0.00230792
0.00260251
0.00285723
0.00307804
0.00327007
0.0034377
0.00358468
0.00371425
0.00382916
0.00393173
0.0040239
0.00410719
0.0041828
0.00425152
0.00431387
0.00437001
0.00441984
0.00446303
0.00029478
0.000602136
0.00112411
0.00158914
0.00199114
0.00233681
0.00263419
0.00289065
0.00311256
0.00330536
0.00347374
0.00362169
0.00375265
0.00386954
0.00397481
0.00407047
0.00415807
0.00423878
0.00431337
0.00438225
0.00444547
0.00450279
0.00455369
0.000295305
0.000601741
0.00113371
0.00160738
0.00201537
0.00236501
0.00266492
0.00292296
0.00314588
0.00333951
0.0035088
0.00365801
0.00379079
0.00391021
0.00401884
0.00411874
0.00421151
0.00429828
0.00437973
0.00445617
0.0045275
0.00459331
0.00465291
0.000294795
0.000598925
0.00114361
0.00162543
0.00203902
0.00239235
0.0026946
0.00295412
0.0031781
0.0033727
0.00354319
0.00369407
0.00382919
0.00395179
0.00406453
0.00416955
0.00426843
0.00436226
0.00445163
0.00453671
0.00461723
0.00469258
0.00476187
0.00029603
0.000602354
0.00115367
0.001643
0.00206182
0.00241857
0.00272303
0.00298405
0.00320923
0.00340508
0.00357716
0.00373021
0.0038683
0.0039948
0.00411249
0.00422354
0.00432953
0.00443149
0.00452991
0.00462476
0.0047156
0.00480158
0.00488157
0.000295179
0.000599091
0.0011632
0.00165978
0.00208338
0.0024433
0.00274993
0.00301257
0.00323922
0.00343671
0.00361087
0.0037667
0.00390843
0.00403962
0.00416312
0.00428116
0.00439531
0.00450652
0.00461515
0.00472098
0.00482333
0.00492109
0.00501283
0.000296145
0.000602078
0.0011726
0.00167539
0.00210319
0.00246604
0.00277487
0.00303939
0.00326793
0.00346757
0.0036444
0.00380365
0.00394976
0.00408642
0.00421662
0.00434262
0.00446601
0.00458765
0.00470773
0.00482585
0.004941
0.00505177
0.00515639
0.000295628
0.000602103
0.00118151
0.00168915
0.00212041
0.002486
0.00279724
0.0030641
0.00329509
0.00349751
0.00367768
0.00384103
0.00399222
0.00413514
0.0042729
0.00440786
0.0045416
0.00467491
0.00480783
0.00493966
0.00506907
0.00519423
0.00531296
6.95676e-05
0.00060117
0.00118828
0.00169949
0.00213367
0.00250207
0.0028162
0.00308609
0.0033203
0.00352626
0.00371046
0.0038786
0.00403556
0.00418546
0.00433162
0.00447651
0.00462176
0.00476812
0.00491542
0.00506263
0.00520799
0.00534913
0.00548338
0.00029579
0.000603877
0.00119088
0.00170433
0.00214102
0.00251265
0.0028306
0.0031046
0.00334305
0.00355341
0.00374238
0.00391593
0.00407926
0.00423679
0.00439211
0.00454791
0.00470591
0.00486683
0.00503028
0.00519485
0.00535819
0.00551729
0.00566874
0.00029586
0.000601118
0.00118683
0.00170048
0.00213956
0.00251555
0.00283895
0.00311867
0.00336268
0.00357844
0.00377291
0.00395241
0.00412259
0.00428828
0.00445344
0.00462108
0.00479311
0.00497025
0.00515191
0.00533622
0.00552012
0.00569966
0.00587046
0.000295728
0.000593934
0.00117252
0.00168307
0.00212498
0.00250775
0.00283941
0.00312721
0.00337851
0.00360079
0.00380141
0.00398728
0.00416461
0.00433881
0.00451434
0.00469464
0.00488195
0.00507708
0.00527932
0.00548629
0.00569408
0.00589747
0.00609054
0.000296332
0.000583196
0.00113927
0.00164304
0.00209064
0.00248529
0.00282989
0.00312919
0.00338989
0.00361986
0.0038272
0.00401965
0.00420421
0.00438701
0.00457318
0.00476673
0.00497037
0.00518522
0.00541061
0.00564382
0.00587999
0.00611217
0.0063319
0.000295279
0.000545825
0.00106618
0.00156438
0.00202722
0.00244365
0.00280855
0.00312389
0.00339643
0.00363518
0.00384958
0.00404855
0.00424011
0.00443127
0.00462795
0.00483489
0.00505545
0.00529138
0.00554246
0.00580618
0.00607701
0.00634568
0.00659927
6.97774e-05
0.000443172
0.000914743
0.00142465
0.00192455
0.00237949
0.00277488
0.00311155
0.00339826
0.00364654
0.00386795
0.00407302
0.00427099
0.00446982
0.0046763
0.00489601
0.0051332
0.00539065
0.00566942
0.00596831
0.00628248
0.00660048
0.00690118
8.57262e-05
0.0002424
0.000653383
0.00120761
0.00177896
0.00229462
0.00273161
0.0030941
0.00339628
0.00365403
0.00388185
0.00409218
0.00429552
0.0045008
0.00471565
0.00494651
0.00519868
0.00547639
0.00578303
0.0061209
0.00648946
0.00687882
0.00725526
0.000187393
0.00011578
0.000349101
0.000935674
0.00160785
0.00220246
0.00268708
0.00307592
0.0033924
0.00365818
0.00389104
0.00410528
0.00431252
0.0045225
0.00474351
0.00498274
0.00524645
0.00554053
0.00587146
0.00624769
0.00668022
0.00717641
0.00770398
0.000413115
0.000137193
0.000163504
0.000702941
0.00146823
0.00213422
0.00265633
0.0030636
0.00338923
0.00365981
0.00389552
0.00411186
0.00432117
0.00453362
0.00475792
0.00500165
0.0052717
0.00557509
0.00592086
0.00632384
0.00681269
0.00744823
0.00837091
6.47881e-05
6.02933e-05
6.08091e-05
6.53612e-05
0.000588458
0.000556468
0.000554397
0.000583524
0.00113768
0.00111163
0.00111146
0.00113756
0.00157884
0.00156646
0.00156726
0.00158033
0.00192932
0.00192678
0.00192747
0.00193319
0.0022043
0.0022079
0.00221221
0.00221627
0.00245048
0.00245239
0.00245571
0.00245854
0.00266779
0.0026693
0.0026715
0.00267337
0.00286372
0.00286533
0.00286652
0.00286693
0.0030396
0.00304092
0.00304115
0.00304013
0.00319662
0.00319742
0.00319673
0.00319443
0.00333697
0.00333716
0.00333562
0.00333226
0.00346284
0.00346246
0.00346021
0.00345604
0.00357622
0.00357541
0.00357268
0.00356798
0.00367898
0.003678
0.00367506
0.00367011
0.00377287
0.00377201
0.00376915
0.00376427
0.00385951
0.00385907
0.00385662
0.00385214
0.00394049
0.00394078
0.00393906
0.0039353
0.0040174
0.00401874
0.00401808
0.00401539
0.0040919
0.00409463
0.00409537
0.00409409
0.00416571
0.00417017
0.00417266
0.00417316
0.00424057
0.00424714
0.00425177
0.00425441
0.00431829
0.00432734
0.00433449
0.00433966
0.0044006
0.00441255
0.00442259
0.00443067
0.00448919
0.00450443
0.00451777
0.00452913
0.0045856
0.00460455
0.00462158
0.0046366
0.00469123
0.00471428
0.00473539
0.00475443
0.00480726
0.00483483
0.00486039
0.00488381
0.00493471
0.00496719
0.00499758
0.00502573
0.0050744
0.00511222
0.0051478
0.005181
0.0052271
0.00527065
0.0053118
0.00535038
0.00539356
0.00544328
0.00549036
0.00553462
0.00557469
0.00563102
0.0056844
0.00573462
0.00577167
0.00583509
0.00589514
0.00595158
0.00598612
0.00605718
0.00612426
0.0061871
0.00622034
0.00629968
0.00637417
0.00644352
0.00647779
0.00656622
0.00664843
0.00672417
0.00676406
0.0068625
0.00695252
0.00703402
0.00708888
0.00719807
0.00729507
0.00738035
0.0074705
0.00758934
0.00768955
0.00777342
0.00794479
0.00806377
0.00815478
0.00822489
0.00858014
0.00865816
0.00870668
0.0087388
0.000334011
0.000709914
0.000991199
0.00116546
0.00126483
0.00131519
0.0013332
0.00132831
0.00130536
0.00126927
0.00122441
0.00116931
0.00110194
0.00101907
0.000914784
0.000776913
0.000590914
0.000339134
4.53883e-05
0.000778569
0.00104933
0.00126257
0.00140686
0.00149438
0.00153983
0.00155479
0.00154695
0.00152109
0.00148018
0.00142719
0.0013606
0.00127789
0.00117541
0.00104703
0.000881383
0.000664302
0.000374998
4.69798e-05
0.00123095
0.00139632
0.00154111
0.00164676
0.00171358
0.00174761
0.00175523
0.00174154
0.00171041
0.00166422
0.00160287
0.00152489
0.0014284
0.00130936
0.00116066
0.000972077
0.000729946
0.000412021
4.91793e-05
0.00162359
0.00171767
0.00180851
0.00187782
0.00192179
0.00194131
0.00193878
0.00191703
0.00187881
0.00182544
0.00175531
0.00166631
0.00155758
0.00142452
0.0012592
0.00105227
0.000793022
0.000472777
5.73201e-05
0.00195041
0.00200376
0.00205741
0.00209686
0.0021198
0.00212467
0.00211113
0.00208016
0.00203305
0.00197034
0.00189025
0.00179137
0.00167231
0.00152537
0.00134553
0.00112002
0.000829876
0.000450047
5.36975e-05
0.0022244
0.0022541
0.00228264
0.00230088
0.00230662
0.0022978
0.00227236
0.00223031
0.00217247
0.00209936
0.00200917
0.0019012
0.00177353
0.00161967
0.00143071
0.00119379
0.000887324
0.000475324
5.91998e-05
0.0024637
0.00247734
0.00248793
0.00248924
0.00248012
0.0024582
0.00242028
0.00236619
0.00229691
0.00221314
0.00211385
0.0019987
0.00186283
0.00169596
0.00149702
0.00125461
0.000953504
0.000588383
0.000294476
0.0026758
0.00267726
0.00267364
0.00266186
0.00264044
0.0026064
0.00255679
0.0024913
0.00241055
0.00231483
0.00220346
0.00207491
0.0019239
0.00174417
0.00153276
0.00127974
0.000965325
0.000562851
0.000295304
0.00286593
0.00285818
0.00284341
0.00282078
0.00278887
0.00274388
0.00268343
0.00260716
0.00251513
0.00240684
0.00228137
0.00213635
0.00196774
0.00177187
0.00154608
0.00128116
0.000958479
0.000556053
0.000295125
0.00303606
0.00302184
0.00299865
0.00296724
0.00292602
0.00287137
0.00280121
0.00271494
0.00261206
0.00249164
0.00235182
0.00218965
0.00200201
0.0017888
0.00154736
0.00126999
0.000943047
0.000557205
0.000295322
0.00318783
0.00316895
0.00314002
0.00310169
0.00305252
0.00298965
0.00291119
0.00281618
0.00270357
0.00257183
0.00241863
0.00224083
0.00203551
0.00180307
0.00154321
0.00125194
0.000922972
0.000551503
0.000294589
0.00332364
0.00330125
0.00326829
0.00322471
0.00316926
0.00309983
0.00301465
0.0029124
0.00279158
0.00265019
0.00248555
0.00229441
0.00207377
0.00182335
0.00154462
0.00123726
0.000901938
0.000540999
0.000294412
0.00344593
0.00342103
0.00338511
0.00333771
0.00327768
0.00320332
0.00311298
0.0030051
0.00287787
0.00272897
0.00255548
0.00235403
0.00212135
0.00185621
0.00156014
0.00123576
0.000889156
0.000528727
0.000294093
0.00355691
0.00353039
0.00349249
0.00344253
0.00337939
0.00330161
0.00320762
0.00309574
0.00296397
0.00280985
0.00263033
0.00242196
0.00218123
0.00190588
0.00159609
0.00125553
0.000892599
0.00052321
0.000294971
0.00365861
0.00363131
0.00359235
0.00354095
0.00347602
0.0033962
0.00329997
0.00318562
0.0030511
0.00289389
0.00271096
0.00249884
0.00225393
0.00197318
0.00165508
0.00130118
0.000915999
0.000509804
0.00029289
0.00375288
0.0037256
0.00368648
0.00363468
0.00356911
0.00348849
0.00339132
0.00327589
0.00314015
0.00298163
0.00279737
0.00258396
0.00233776
0.00205521
0.00173324
0.00136955
0.000962315
0.000516686
0.00029323
0.00384141
0.00381495
0.00377656
0.00372533
0.00366017
0.00357983
0.00348283
0.00336748
0.00323176
0.00307323
0.00288902
0.00267577
0.0024297
0.00214669
0.00182202
0.00144957
0.00102169
0.000537416
0.000295123
0.0039258
0.003901
0.0038642
0.00381445
0.00375065
0.00367153
0.00357565
0.00346129
0.00332646
0.00316875
0.0029853
0.0027727
0.0025269
0.00224298
0.00191455
0.00153237
0.00108349
0.000561169
0.000295897
0.00400769
0.00398539
0.00395102
0.00390361
0.00384201
0.00376495
0.00367093
0.00355824
0.00342486
0.00326838
0.00308587
0.00287378
0.00262766
0.00234175
0.00200817
0.00161543
0.00114749
0.000591468
6.99184e-05
0.00408879
0.00406982
0.00403872
0.00399444
0.00393581
0.00386147
0.0037699
0.00365935
0.00352774
0.00337259
0.00319087
0.00297879
0.00273147
0.00244237
0.00210236
0.0016983
0.00121194
0.000627444
7.23578e-05
0.00417087
0.00415606
0.00412902
0.00408863
0.00403363
0.00396259
0.00387393
0.00376581
0.00363608
0.00348216
0.00330086
0.00308813
0.00283865
0.00254519
0.00219762
0.00178137
0.00127629
0.000663546
7.56523e-05
0.00425574
0.00424592
0.00422371
0.00418791
0.00413713
0.00406987
0.00398445
0.00387893
0.00375107
0.00359814
0.00341677
0.00320266
0.00295008
0.00265112
0.00229485
0.00186554
0.00134127
0.000701203
7.91334e-05
0.00434522
0.0043412
0.00432457
0.00429399
0.00424796
0.00418489
0.00410296
0.00400014
0.00387403
0.00372178
0.00353982
0.00332354
0.00306693
0.00276161
0.00239574
0.00195228
0.00140731
0.000737337
8.28955e-05
0.00444109
0.00444367
0.00443331
0.00440854
0.00436775
0.00430919
0.00423096
0.00413086
0.00400637
0.00385444
0.00367136
0.00345229
0.00319084
0.00287813
0.00250154
0.00204279
0.00147601
0.000774908
8.67733e-05
0.00454502
0.00455497
0.00455154
0.00453312
0.00449798
0.00444425
0.00436986
0.0042725
0.00414949
0.00399763
0.00381295
0.00359039
0.00332318
0.00300199
0.00261349
0.00213825
0.00154841
0.000814776
9.07755e-05
0.00465855
0.00467658
0.00468069
0.00466913
0.00464002
0.00459137
0.004521
0.00442643
0.00430481
0.00415274
0.00396601
0.00373926
0.00346539
0.00313462
0.00273292
0.00223977
0.00162538
0.000857447
9.48704e-05
0.00478302
0.00480983
0.00482204
0.00481778
0.00479505
0.00475175
0.00468556
0.00459386
0.00447359
0.00432111
0.00413194
0.0039004
0.00361901
0.0032775
0.00286121
0.00234852
0.00170774
0.000903361
9.90974e-05
0.00491958
0.0049558
0.00497664
0.00498007
0.00496404
0.00492634
0.00486452
0.00477581
0.00465694
0.00450398
0.00431213
0.00407532
0.00378562
0.00343226
0.00299988
0.00246577
0.00179634
0.00095273
0.00010371
0.0050692
0.00511542
0.00514531
0.00515679
0.00514774
0.00511587
0.00505866
0.00497316
0.00485587
0.00470256
0.00450799
0.00426563
0.00396699
0.00360069
0.00315063
0.002593
0.0018922
0.0010059
0.00010898
0.00523267
0.00528941
0.00532872
0.00534851
0.00534665
0.00532085
0.00526852
0.00518657
0.00507125
0.00491794
0.00472091
0.00447299
0.00416501
0.00378482
0.00331546
0.00273196
0.00199669
0.00106364
0.000115032
0.00541071
0.00547838
0.00552737
0.00555563
0.0055611
0.00554158
0.00549445
0.00541652
0.00530376
0.00515114
0.00495228
0.00469922
0.00438187
0.00398705
0.00349677
0.00288482
0.00211153
0.00112716
0.000121814
0.00560402
0.00568291
0.00574167
0.00577839
0.00579121
0.0057781
0.00573653
0.00566322
0.0055539
0.00540302
0.00520347
0.00494626
0.00462004
0.00421027
0.00369754
0.00305424
0.00223877
0.00119772
0.000129301
0.00581344
0.00590364
0.005972
0.00601693
0.00603692
0.00603025
0.00599457
0.00592662
0.00582188
0.00567428
0.00547581
0.00521619
0.00488242
0.00445801
0.00392159
0.00324374
0.00238095
0.00127655
0.000137612
0.00604003
0.00614134
0.00621878
0.00627131
0.006298
0.0062976
0.00626809
0.00620632
0.0061076
0.0059653
0.00577045
0.0055112
0.00517235
0.00473471
0.00417398
0.00345813
0.00254164
0.00136531
0.00014692
0.00628524
0.00639701
0.00648248
0.00654151
0.00657403
0.00657945
0.00655626
0.00650152
0.00641049
0.00627607
0.00608826
0.00583343
0.00549365
0.00504596
0.00446162
0.0037044
0.00272617
0.00146651
0.00015744
0.0065511
0.00667196
0.00676367
0.00682746
0.0068644
0.00687483
0.00685786
0.00681095
0.00672943
0.00660594
0.00642954
0.00618477
0.00585044
0.00539864
0.00479393
0.00399299
0.00294299
0.00158415
0.000169434
0.00684037
0.00696785
0.00706296
0.00712891
0.00716827
0.00718245
0.0071713
0.00713281
0.00706265
0.00695342
0.00679365
0.00656626
0.00624671
0.00580091
0.00518379
0.0043398
0.00320618
0.00172482
0.000183449
0.00715681
0.00728663
0.00738087
0.00744539
0.0074845
0.00750069
0.00749459
0.00746483
0.0074076
0.00731595
0.0071785
0.00697738
0.00668529
0.00626155
0.00564823
0.00476955
0.00354075
0.00190107
0.000200448
0.00750522
0.00763022
0.00771748
0.00777598
0.00781158
0.00782766
0.00782547
0.00780426
0.007761
0.00768973
0.00758008
0.00741493
0.00716612
0.00678796
0.00620821
0.00532052
0.00399372
0.00214119
0.00022182
0.00789075
0.00799961
0.00807189
0.00811902
0.00814761
0.00816129
0.00816156
0.0081482
0.0081191
0.0080698
0.00799212
0.00787174
0.00768339
0.00738171
0.00688484
0.00604974
0.00465793
0.00251718
0.00025002
0.00831628
0.00839317
0.00844138
0.00847189
0.00849028
0.00849945
0.00850063
0.00849387
0.00847805
0.00845052
0.00840626
0.008336
0.00822224
0.00803013
0.00768641
0.00703071
0.00572363
0.0032459
0.000289588
0.00877611
0.00880405
0.00882065
0.00883091
0.00883709
0.00884028
0.00884095
0.00883917
0.00883463
0.00882653
0.00881334
0.00879211
0.00875701
0.00869541
0.00857602
0.00830728
0.00757029
0.00520501
0.000343373
)
;

boundaryField
{
    leftWall
    {
        type            nutkWallFunction;
        Cmu             0.09;
        kappa           0.41;
        E               9.8;
        value           nonuniform List<scalar> 
50
(
1.35297e-06
2.27381e-06
2.81438e-06
3.20674e-06
3.51379e-06
3.76958e-06
3.99374e-06
4.20016e-06
4.4724e-06
4.82214e-06
5.23157e-06
4.65898e-08
1.48547e-06
2.74254e-09
0
0
0
0
0
0
0
0
0
0
8.59178e-10
0
0
0
0
0
0
0
0
0
0
0
7.66334e-09
0
7.87983e-09
1.89021e-09
0
3.86006e-09
4.84941e-09
2.21144e-09
8.84383e-09
0
0
2.5941e-06
1.80068e-05
4.87262e-05
)
;
    }
    rightWall
    {
        type            nutkWallFunction;
        Cmu             0.09;
        kappa           0.41;
        E               9.8;
        value           nonuniform List<scalar> 
50
(
1.73678e-06
2.71203e-06
3.32169e-06
3.80316e-06
4.20918e-06
4.56735e-06
4.90595e-06
5.21526e-06
5.4971e-06
5.69201e-06
5.9609e-06
1.21196e-07
1.07817e-06
0
0
0
0
2.50173e-09
0
0
0
0
0
7.53508e-09
0
4.83432e-09
1.07574e-09
4.01363e-07
9.57497e-07
1.5399e-06
2.15291e-06
2.78055e-06
3.42384e-06
4.06161e-06
4.72768e-06
5.45464e-06
6.29271e-06
7.24091e-06
8.28562e-06
9.42907e-06
1.06869e-05
1.20836e-05
1.36463e-05
1.53963e-05
1.74353e-05
1.98863e-05
2.29231e-05
2.68697e-05
3.23092e-05
3.95507e-05
)
;
    }
    lowerWall
    {
        type            nutkWallFunction;
        Cmu             0.09;
        kappa           0.41;
        E               9.8;
        value           nonuniform List<scalar> 
62
(
2.77518e-07
8.79478e-07
1.20786e-06
1.42539e-06
1.58648e-06
1.71201e-06
1.81214e-06
1.89273e-06
1.95786e-06
2.01094e-06
2.05537e-06
2.09401e-06
2.12782e-06
2.15352e-06
2.16184e-06
2.13715e-06
2.07371e-06
1.97766e-06
1.83719e-06
1.66209e-06
1.48012e-06
1.14245e-06
5.74705e-07
5.74705e-07
3.11488e-06
3.77249e-06
4.33336e-06
4.87289e-06
5.46185e-06
6.20158e-06
7.3906e-06
7.8264e-06
7.29597e-06
7.35901e-06
7.89892e-06
8.65421e-07
3.98732e-06
4.44447e-06
4.71189e-06
5.01606e-06
5.49913e-06
6.25384e-06
7.65535e-06
8.65421e-07
1.53086e-06
1.89335e-06
2.01953e-06
2.07676e-06
2.10333e-06
2.09803e-06
2.07989e-06
2.03002e-06
1.95531e-06
1.84323e-06
1.68016e-06
1.60005e-06
1.5946e-06
1.51974e-06
1.36185e-06
1.09752e-06
7.82493e-07
3.58769e-07
)
;
    }
    atmosphere
    {
        type            calculated;
        value           nonuniform List<scalar> 
46
(
0.009
0.000137193
0.000163504
0.000702941
0.00146823
0.00213422
0.00265633
0.0030636
0.00338923
0.00365981
0.00389552
0.00411186
0.00432117
0.00453362
0.00475792
0.00500165
0.0052717
0.00557509
0.00592086
0.00632384
0.00681269
0.00744823
0.009
0.009
0.009
0.009
0.009
0.009
0.009
0.009
0.009
0.009
0.009
0.009
0.009
0.009
0.009
0.009
0.009
0.009
0.009
0.009
0.009
0.009
0.009
0.000343373
)
;
    }
    defaultFaces
    {
        type            empty;
    }
}


// ************************************************************************* //
