/*--------------------------------*- C++ -*----------------------------------*\
  =========                 |
  \\      /  F ield         | OpenFOAM: The Open Source CFD Toolbox
   \\    /   O peration     | Website:  https://openfoam.org
    \\  /    A nd           | Version:  9
     \\/     M anipulation  |
\*---------------------------------------------------------------------------*/
FoamFile
{
    format      ascii;
    class       surfaceScalarField;
    location    "9";
    object      phi;
}
// * * * * * * * * * * * * * * * * * * * * * * * * * * * * * * * * * * * * * //

dimensions      [0 3 -1 0 0 0 0];

internalField   nonuniform List<scalar> 
4432
(
-3.98438e-08
3.98438e-08
-5.0201e-08
1.03552e-08
-4.43128e-08
-5.88428e-09
-2.85167e-08
-1.57961e-08
-4.05441e-09
-2.44607e-08
2.78064e-08
-3.18586e-08
6.56131e-08
-3.78069e-08
1.06386e-07
-4.07722e-08
1.47387e-07
-4.10021e-08
1.87871e-07
-4.04848e-08
2.31229e-07
-4.33611e-08
2.86365e-07
-5.51377e-08
3.65561e-07
-7.91986e-08
4.74855e-07
-1.09298e-07
5.98946e-07
-1.24093e-07
6.80368e-07
-8.14245e-08
6.25833e-07
5.45341e-08
4.22749e-07
2.0308e-07
-8.03459e-09
4.30782e-07
-5.45377e-07
5.37339e-07
-7.56176e-07
2.10797e-07
-5.94142e-07
-1.62036e-07
-5.94148e-07
-2.7602e-08
6.74505e-08
-3.49066e-08
1.7657e-08
-2.84762e-08
-1.23101e-08
-1.23841e-08
-3.18865e-08
1.09003e-08
-4.77449e-08
4.04818e-08
-6.14378e-08
7.39669e-08
-7.12938e-08
1.08591e-07
-7.5397e-08
1.4222e-07
-7.46353e-08
1.74505e-07
-7.27733e-08
2.07925e-07
-7.67862e-08
2.48248e-07
-9.54662e-08
3.02524e-07
-1.3348e-07
3.72661e-07
-1.7944e-07
4.4617e-07
-1.97607e-07
4.85365e-07
-1.20625e-07
4.32442e-07
1.07454e-07
2.6517e-07
3.70345e-07
2.01237e-08
6.75824e-07
-2.52557e-07
8.10014e-07
-4.27111e-07
3.85343e-07
-4.43422e-07
-1.45721e-07
-1.03758e-06
-1.80063e-08
8.54611e-08
-2.25117e-08
2.21589e-08
-1.70251e-08
-1.77951e-08
-2.96718e-09
-4.59441e-08
1.78704e-08
-6.85842e-08
4.39443e-08
-8.75113e-08
7.28509e-08
-1.00203e-07
1.01789e-07
-1.04337e-07
1.28814e-07
-1.01665e-07
1.53445e-07
-9.74079e-08
1.77229e-07
-1.00576e-07
2.03991e-07
-1.22233e-07
2.38459e-07
-1.67953e-07
2.81976e-07
-2.2296e-07
3.26696e-07
-2.42329e-07
3.45972e-07
-1.39907e-07
2.93131e-07
1.60294e-07
1.57475e-07
5.05998e-07
2.45168e-08
8.08779e-07
-9.19331e-08
9.26462e-07
-2.2332e-07
5.16724e-07
-2.99838e-07
-6.92011e-08
-1.33742e-06
-1.12502e-08
9.6714e-08
-1.35744e-08
2.4479e-08
-8.30067e-09
-2.30699e-08
3.7915e-09
-5.80378e-08
2.16734e-08
-8.64701e-08
4.38899e-08
-1.0973e-07
6.807e-08
-1.24388e-07
9.13945e-08
-1.27666e-07
1.11956e-07
-1.22233e-07
1.29007e-07
-1.14464e-07
1.432e-07
-1.14775e-07
1.56937e-07
-1.35976e-07
1.73845e-07
-1.84865e-07
1.95957e-07
-2.45076e-07
2.21099e-07
-2.67472e-07
2.33909e-07
-1.52721e-07
1.91132e-07
2.03071e-07
8.83501e-08
6.08777e-07
1.85809e-08
8.78548e-07
-9.41228e-09
9.54456e-07
-9.38195e-08
6.01126e-07
-1.81051e-07
1.80313e-08
-1.51847e-06
-6.84196e-09
1.03557e-07
-6.77643e-09
2.44082e-08
-1.78833e-09
-2.80615e-08
8.3146e-09
-6.8145e-08
2.27844e-08
-1.00947e-07
4.06523e-08
-1.27603e-07
5.97056e-08
-1.43449e-07
7.71357e-08
-1.45103e-07
9.10903e-08
-1.36196e-07
1.00516e-07
-1.23897e-07
1.05195e-07
-1.19462e-07
1.06381e-07
-1.37168e-07
1.07107e-07
-1.85595e-07
1.10332e-07
-2.48304e-07
1.19315e-07
-2.76454e-07
1.32468e-07
-1.65875e-07
1.08899e-07
2.26644e-07
3.82843e-08
6.79393e-07
7.39784e-09
9.09437e-07
3.15112e-08
9.30345e-07
-1.85152e-08
6.5115e-07
-7.83353e-08
7.78525e-08
-1.59681e-06
-3.7456e-09
1.07302e-07
-1.77678e-09
2.24325e-08
2.93966e-09
-3.27837e-08
1.05703e-08
-7.57835e-08
2.09377e-08
-1.11326e-07
3.36816e-08
-1.40358e-07
4.69171e-08
-1.56697e-07
5.79293e-08
-1.56128e-07
6.50307e-08
-1.4331e-07
6.69047e-08
-1.25782e-07
6.24932e-08
-1.1506e-07
5.19896e-08
-1.26671e-07
3.79329e-08
-1.71542e-07
2.3693e-08
-2.34066e-07
1.62295e-08
-2.68988e-07
2.76937e-08
-1.77336e-07
3.47008e-08
2.19645e-07
-2.9869e-09
7.17089e-07
-7.2817e-09
9.13741e-07
3.305e-08
8.90022e-07
2.16186e-08
6.62584e-07
2.98367e-08
6.96374e-08
-1.56697e-06
-1.17328e-09
1.08473e-07
2.10308e-09
1.91482e-08
6.05231e-09
-3.67395e-08
1.05271e-08
-8.02669e-08
1.57895e-08
-1.16601e-07
2.23007e-08
-1.46882e-07
2.87219e-08
-1.63132e-07
3.25794e-08
-1.6e-07
3.25425e-08
-1.43287e-07
2.71382e-08
-1.2039e-07
1.45081e-08
-1.02441e-07
-6.17069e-09
-1.06e-07
-3.30208e-08
-1.44697e-07
-6.33104e-08
-2.03778e-07
-8.86769e-08
-2.43618e-07
-8.73741e-08
-1.78635e-07
-5.42801e-08
1.8656e-07
-3.92983e-08
7.02116e-07
-3.14538e-08
9.05905e-07
6.38433e-09
8.52193e-07
4.27872e-08
6.26186e-07
1.51833e-07
-3.94049e-08
-1.41514e-06
1.30538e-09
1.07164e-07
3.74111e-09
1.67053e-08
8.01965e-09
-4.10228e-08
8.43626e-09
-8.0688e-08
7.26322e-09
-1.15433e-07
6.08304e-09
-1.45709e-07
4.39538e-09
-1.61451e-07
1.58564e-10
-1.55771e-07
-7.30115e-09
-1.35834e-07
-1.93726e-08
-1.08326e-07
-3.89122e-08
-8.29073e-08
-6.74995e-08
-7.74175e-08
-1.04268e-07
-1.07931e-07
-1.47617e-07
-1.60431e-07
-1.89901e-07
-2.01334e-07
-2.117e-07
-1.56835e-07
-1.66293e-07
1.41156e-07
-8.81875e-08
6.24013e-07
-5.87309e-08
8.7645e-07
-1.81771e-08
8.1164e-07
7.79508e-08
5.30057e-07
2.16454e-07
-1.7791e-07
-1.19869e-06
-9.83549e-07
9.83549e-07
-7.94453e-07
-1.89084e-07
-2.01596e-07
-5.92852e-07
2.51724e-07
-4.53311e-07
5.74695e-07
-3.22965e-07
8.19406e-07
-2.4471e-07
9.45011e-07
-1.25603e-07
1.04498e-06
-9.9974e-08
1.08915e-06
-4.41702e-08
1.08856e-06
5.90253e-10
8.42567e-07
2.45985e-07
1.05638e-07
7.36923e-07
-5.77669e-07
6.8331e-07
-6.68225e-07
9.05468e-08
-6.2382e-07
-4.43976e-08
-5.95393e-07
-2.84384e-08
-6.42445e-07
4.7058e-08
-4.26004e-07
-2.16446e-07
-4.26002e-07
-7.76424e-07
1.75998e-06
-4.73866e-07
-4.91624e-07
-1.00277e-07
-9.66431e-07
1.8165e-07
-7.3523e-07
3.72556e-07
-5.13862e-07
4.97956e-07
-3.7011e-07
6.1147e-07
-2.3912e-07
6.77524e-07
-1.66031e-07
6.43202e-07
-9.85772e-09
5.20621e-07
1.23165e-07
3.72945e-07
3.9366e-07
8.68739e-08
1.02298e-06
-2.09694e-07
9.79887e-07
-3.71443e-07
2.52277e-07
-4.51027e-07
3.51984e-08
-5.48168e-07
6.86878e-08
-7.31519e-07
2.30415e-07
-6.61063e-07
-2.86908e-07
-1.08706e-06
-4.58621e-07
2.21861e-06
-2.11195e-07
-7.39034e-07
-7.06326e-09
-1.17055e-06
1.42836e-07
-8.85121e-07
2.47801e-07
-6.18819e-07
3.20751e-07
-4.43059e-07
3.94164e-07
-3.12534e-07
4.31001e-07
-2.02869e-07
3.66677e-07
5.44589e-08
2.07474e-07
2.82361e-07
8.0402e-08
5.20732e-07
2.85517e-08
1.07482e-06
-3.99536e-08
1.0484e-06
-1.86336e-07
3.98642e-07
-3.20828e-07
1.69699e-07
-4.74867e-07
2.22714e-07
-6.97551e-07
4.53101e-07
-6.86114e-07
-2.98349e-07
-1.77318e-06
-1.02636e-07
2.32125e-06
3.0159e-08
-8.71814e-07
7.05847e-08
-1.21097e-06
1.08119e-07
-9.22646e-07
1.44588e-07
-6.55279e-07
1.75332e-07
-4.738e-07
2.16727e-07
-3.53931e-07
2.35816e-07
-2.21959e-07
1.65161e-07
1.25108e-07
1.3317e-08
4.34197e-07
-9.23052e-08
6.26355e-07
-3.6908e-08
1.0194e-06
3.25859e-09
1.00824e-06
-8.85518e-08
4.90435e-07
-2.14351e-07
2.95503e-07
-3.66143e-07
3.74494e-07
-5.65351e-07
6.52309e-07
-5.28071e-07
-3.35634e-07
-2.30125e-06
2.57992e-07
2.06326e-06
2.19667e-07
-8.33474e-07
1.16291e-07
-1.10758e-06
6.57182e-08
-8.72062e-07
4.80357e-08
-6.37585e-07
4.29445e-08
-4.68703e-07
5.84379e-08
-3.69425e-07
6.82075e-08
-2.31729e-07
9.1625e-09
1.84148e-07
-1.12049e-07
5.55399e-07
-1.81026e-07
6.95332e-07
-9.66032e-08
9.34963e-07
-8.50397e-09
9.2014e-07
-6.33657e-08
5.45279e-07
-1.25603e-07
3.5774e-07
-2.06596e-07
4.55475e-07
-3.54759e-07
8.00469e-07
-3.12729e-07
-3.7767e-07
-2.61398e-06
5.2837e-07
1.5349e-06
3.1993e-07
-6.25019e-07
1.1756e-07
-9.05191e-07
9.55442e-09
-7.64041e-07
-4.65609e-08
-5.81454e-07
-8.11885e-08
-4.34065e-07
-8.70527e-08
-3.63558e-07
-7.71581e-08
-2.41623e-07
-1.14983e-07
2.2197e-07
-2.04222e-07
6.44626e-07
-2.30588e-07
7.21695e-07
-1.34196e-07
8.38553e-07
-4.20707e-08
8.28012e-07
-7.91299e-08
5.8232e-07
-7.5381e-08
3.53986e-07
-2.94527e-08
4.09533e-07
-7.22939e-08
8.43303e-07
-7.73972e-08
-3.72574e-07
-2.69139e-06
5.70063e-07
9.64845e-07
3.00825e-07
-3.55768e-07
7.09824e-08
-6.75336e-07
-6.22847e-08
-6.3076e-07
-1.4069e-07
-5.03035e-07
-1.97614e-07
-3.7713e-07
-2.25061e-07
-3.36107e-07
-2.12178e-07
-2.54505e-07
-2.17447e-07
2.27238e-07
-2.70004e-07
6.97173e-07
-2.57718e-07
7.09406e-07
-1.55399e-07
7.36217e-07
-6.76056e-08
7.40214e-07
-8.95748e-08
6.04272e-07
-2.57082e-08
2.90112e-07
1.14717e-07
2.69095e-07
1.91094e-07
7.66918e-07
1.78662e-07
-3.60149e-07
-2.51273e-06
3.4823e-07
6.16624e-07
1.83402e-07
-1.90933e-07
-1.39412e-08
-4.77988e-07
-1.46031e-07
-4.98666e-07
-2.32382e-07
-4.1668e-07
-3.04049e-07
-3.05458e-07
-3.51827e-07
-2.88329e-07
-3.53831e-07
-2.52502e-07
-3.08846e-07
1.82251e-07
-3.08661e-07
6.96981e-07
-2.63069e-07
6.63811e-07
-1.56103e-07
6.2924e-07
-7.00438e-08
6.54151e-07
-5.48917e-08
5.89111e-07
5.9368e-08
1.75848e-07
2.01958e-07
1.26499e-07
4.12398e-07
5.56473e-07
3.99338e-07
-3.47094e-07
-2.11339e-06
2.01151e-08
8.70455e-08
3.82737e-08
-1.45899e-09
2.94182e-08
-3.21693e-08
8.65799e-09
-5.99269e-08
-2.0754e-08
-8.60186e-08
-5.44797e-08
-1.1198e-07
-9.1593e-08
-1.24333e-07
-1.31668e-07
-1.1569e-07
-1.73408e-07
-9.40908e-08
-2.18995e-07
-6.27352e-08
-2.76671e-07
-2.52283e-08
-3.53032e-07
-1.05611e-09
-4.49635e-07
-1.13278e-08
-5.68647e-07
-4.14206e-08
-6.98914e-07
-7.10698e-08
-7.93487e-07
-6.22668e-08
-7.32951e-07
8.06141e-08
-5.0096e-07
3.92014e-07
-2.55246e-07
6.30725e-07
-3.47369e-08
5.91118e-07
1.77165e-07
3.1814e-07
1.09399e-07
-1.10157e-07
-4.26866e-07
-6.62432e-07
4.26384e-08
4.44025e-08
3.5603e-08
5.56726e-09
1.49001e-08
-1.14795e-08
-2.51588e-08
-1.98846e-08
-9.17001e-08
-1.94959e-08
-1.82256e-07
-2.14444e-08
-2.80814e-07
-2.57932e-08
-3.72012e-07
-2.45103e-08
-4.49588e-07
-1.65288e-08
-5.10259e-07
-2.07466e-09
-5.62496e-07
2.70029e-08
-6.16806e-07
5.32533e-08
-6.83972e-07
5.5843e-08
-7.75532e-07
5.01481e-08
-8.94046e-07
4.74586e-08
-1.0089e-06
5.26002e-08
-1.01764e-06
8.93737e-08
-8.20435e-07
1.94831e-07
-4.65439e-07
2.75749e-07
-1.42451e-07
2.68146e-07
1.10361e-08
1.64664e-07
-1.25517e-07
2.64054e-08
-2.2332e-08
-5.30038e-07
-4.51694e-08
8.95613e-08
-1.39571e-07
9.99085e-08
-2.53529e-07
1.02376e-07
-3.89146e-07
1.15595e-07
-5.10686e-07
1.01885e-07
-6.29693e-07
9.73946e-08
-7.53914e-07
9.82645e-08
-8.69014e-07
9.04429e-08
-9.61551e-07
7.58835e-08
-1.01691e-06
5.31924e-08
-1.02944e-06
3.94693e-08
-1.00491e-06
2.86943e-08
-1.00515e-06
5.6098e-08
-1.04998e-06
9.50279e-08
-1.1307e-06
1.28262e-07
-1.24351e-06
1.65526e-07
-1.24474e-06
9.07324e-08
-1.0182e-06
-3.15454e-08
-6.52469e-07
-8.97957e-08
-3.12456e-07
-7.16797e-08
-1.55896e-07
8.28097e-09
-2.54772e-07
1.25424e-07
2.43156e-07
-5.20168e-07
5.07374e-07
-4.17791e-07
2.79944e-07
3.26844e-07
-2.73108e-07
6.55512e-07
-1.18449e-06
1.02713e-06
-1.25034e-06
1.67859e-07
-1.06233e-06
-9.05216e-08
-8.59779e-07
-1.04206e-07
-8.93875e-07
1.24606e-07
-1.00442e-06
1.86484e-07
-1.03106e-06
7.98598e-08
-1.01176e-06
2.01789e-08
-9.41776e-07
-4.12981e-08
-9.39549e-07
5.38386e-08
-1.08023e-06
2.35648e-07
-1.17979e-06
2.27751e-07
-1.11247e-06
9.81042e-08
-7.37027e-07
-2.84806e-07
-4.87793e-07
-2.80865e-07
-6.128e-07
3.51355e-08
-4.23869e-07
-2.60697e-07
-1.90015e-07
-2.25679e-07
-1.13462e-07
4.87652e-08
4.40802e-07
-3.11293e-07
-1.50009e-07
-2.67102e-07
-1.01266e-06
1.18954e-06
-3.0424e-06
2.68533e-06
-5.16828e-06
3.15313e-06
-5.51692e-06
5.16661e-07
-4.67875e-06
-9.28512e-07
-3.26964e-06
-1.51316e-06
-2.36394e-06
-7.80968e-07
-1.84641e-06
-3.30938e-07
-1.27057e-06
-4.95913e-07
-6.77887e-07
-5.725e-07
3.3214e-08
-7.52431e-07
7.13133e-07
-6.26144e-07
1.1258e-06
-1.77105e-07
1.60108e-06
-2.47633e-07
2.17072e-06
-4.71657e-07
2.6483e-06
-7.62545e-07
2.73844e-06
-3.71217e-07
1.32597e-06
1.44743e-06
2.13462e-07
8.51749e-07
-6.82555e-08
5.60338e-08
3.36107e-08
-5.30369e-08
1.51302e-06
-1.03861e-06
-7.44055e-07
4.76986e-07
-1.56123e-06
2.00673e-06
-1.15897e-06
2.28303e-06
5.29974e-08
1.94109e-06
-5.24096e-07
1.09366e-06
-1.3237e-06
-1.2901e-07
-1.87893e-06
-9.58031e-07
-1.81231e-06
-8.47711e-07
-1.51243e-06
-6.30941e-07
-1.37005e-06
-6.38389e-07
-1.2654e-06
-6.77256e-07
-1.02093e-06
-9.97017e-07
-3.71208e-07
-1.27596e-06
5.51796e-07
-1.10019e-06
1.0618e-06
-7.57688e-07
8.91963e-07
-3.01808e-07
3.97869e-08
8.97059e-08
-5.96973e-07
2.65562e-07
-6.2824e-07
1.47867e-06
-1.29013e-06
1.51362e-06
-2.02803e-06
7.9393e-07
-2.18136e-06
1.004e-07
1.36087e-06
-2.02896e-06
-7.96722e-07
1.27362e-06
-1.03073e-06
2.2408e-06
-8.06992e-07
2.05926e-06
-4.60737e-07
1.5948e-06
-4.11646e-07
1.04451e-06
-8.44566e-07
3.03847e-07
-1.36357e-06
-4.3908e-07
-1.60563e-06
-6.05728e-07
-1.64586e-06
-5.90825e-07
-1.70538e-06
-5.78946e-07
-1.76058e-06
-6.2213e-07
-1.63401e-06
-1.12366e-06
-1.09901e-06
-1.81101e-06
-5.56241e-07
-1.64303e-06
-2.53054e-07
-1.06096e-06
-3.19892e-07
-2.35042e-07
-7.73461e-07
5.43334e-07
-1.49446e-06
9.86692e-07
-1.72121e-06
1.70555e-06
-2.05255e-06
1.84507e-06
-2.55602e-06
1.29744e-06
-3.13435e-06
6.78699e-07
8.89783e-07
-2.66333e-06
-6.36369e-07
1.90991e-06
-6.98516e-07
2.3029e-06
-6.80107e-07
2.0408e-06
-6.73399e-07
1.58803e-06
-7.04903e-07
1.07594e-06
-8.87569e-07
4.86417e-07
-1.27e-06
-5.67376e-08
-1.55204e-06
-3.23785e-07
-1.66411e-06
-4.78876e-07
-1.69415e-06
-5.4903e-07
-1.6482e-06
-6.68197e-07
-1.63128e-06
-1.14069e-06
-1.74507e-06
-1.69731e-06
-1.79106e-06
-1.59711e-06
-1.87877e-06
-9.73333e-07
-1.87173e-06
-2.42212e-07
-1.9577e-06
6.29187e-07
-2.2532e-06
1.28214e-06
-2.35228e-06
1.80461e-06
-2.42091e-06
1.91373e-06
-2.67884e-06
1.55543e-06
-3.02742e-06
1.02733e-06
7.12564e-07
-2.85016e-06
-3.24716e-07
2.23462e-06
-4.3092e-07
2.409e-06
-5.28561e-07
2.13834e-06
-6.50418e-07
1.70978e-06
-7.75488e-07
1.2009e-06
-9.64481e-07
6.75282e-07
-1.24974e-06
2.28398e-07
-1.49414e-06
-7.95018e-08
-1.62008e-06
-3.53059e-07
-1.66463e-06
-5.04613e-07
-1.68042e-06
-6.52527e-07
-1.84356e-06
-9.77695e-07
-2.23228e-06
-1.30872e-06
-2.58687e-06
-1.24263e-06
-2.75712e-06
-8.03191e-07
-2.81308e-06
-1.86367e-07
-2.78252e-06
5.98517e-07
-2.79889e-06
1.29843e-06
-2.74648e-06
1.75213e-06
-2.70783e-06
1.87503e-06
-2.79819e-06
1.64575e-06
-2.96319e-06
1.1923e-06
6.36634e-07
-2.8873e-06
-2.45297e-07
2.47986e-06
-3.3726e-07
2.50077e-06
-4.33856e-07
2.23477e-06
-5.64647e-07
1.8404e-06
-7.31905e-07
1.36799e-06
-9.37913e-07
8.81125e-07
-1.18485e-06
4.75182e-07
-1.39964e-06
1.35162e-07
-1.55789e-06
-1.94919e-07
-1.68544e-06
-3.77164e-07
-1.84077e-06
-4.97293e-07
-2.10686e-06
-7.11705e-07
-2.50779e-06
-9.07883e-07
-2.86397e-06
-8.86535e-07
-3.06298e-06
-6.04248e-07
-3.15002e-06
-9.93859e-08
-3.1226e-06
5.71041e-07
-3.02236e-06
1.19815e-06
-2.88556e-06
1.61531e-06
-2.76338e-06
1.75285e-06
-2.72105e-06
1.60341e-06
-2.74134e-06
1.21261e-06
5.56001e-07
-2.66069e-06
-1.85431e-07
2.66519e-06
-2.67419e-07
2.58251e-06
-3.53201e-07
2.32033e-06
-4.72758e-07
1.95973e-06
-6.38343e-07
1.53336e-06
-8.46614e-07
1.08921e-06
-1.06624e-06
6.9464e-07
-1.26772e-06
3.36511e-07
-1.46336e-06
6.03635e-10
-1.67225e-06
-1.68369e-07
-1.90623e-06
-2.63391e-07
-2.20611e-06
-4.119e-07
-2.57796e-06
-5.36104e-07
-2.90473e-06
-5.59826e-07
-3.08738e-06
-4.21649e-07
-3.14395e-06
-4.2849e-08
-3.10425e-06
5.31305e-07
-2.97951e-06
1.0734e-06
-2.80356e-06
1.43936e-06
-2.61808e-06
1.56737e-06
-2.46476e-06
1.45011e-06
-2.34976e-06
1.09762e-06
4.55586e-07
-2.2493e-06
-1.31736e-07
2.79677e-06
-2.05922e-07
2.6564e-06
-2.83564e-07
2.39771e-06
-3.92704e-07
2.06863e-06
-5.42953e-07
1.68339e-06
-7.31498e-07
1.27756e-06
-9.24123e-07
8.87098e-07
-1.11307e-06
5.25318e-07
-1.33947e-06
2.26895e-07
-1.5959e-06
8.79636e-08
-1.85063e-06
-8.73e-09
-2.142e-06
-1.20598e-07
-2.46544e-06
-2.12713e-07
-2.75784e-06
-2.67479e-07
-2.93986e-06
-2.39676e-07
-2.99887e-06
1.61308e-08
-2.93138e-06
4.63786e-07
-2.80044e-06
9.42442e-07
-2.60981e-06
1.24872e-06
-2.38678e-06
1.34433e-06
-2.1639e-06
1.22722e-06
-1.9632e-06
8.96929e-07
3.45458e-07
-1.85306e-06
-8.63193e-08
2.88292e-06
-1.50467e-07
2.72023e-06
-2.21379e-07
2.46835e-06
-3.1917e-07
2.16618e-06
-4.52296e-07
1.81631e-06
-6.14872e-07
1.43995e-06
-7.82328e-07
1.0544e-06
-9.68348e-07
7.1121e-07
-1.20843e-06
4.66871e-07
-1.46421e-06
3.43663e-07
-1.71054e-06
2.37541e-07
-1.96766e-06
1.36474e-07
-2.23169e-06
5.12859e-08
-2.48433e-06
-1.48751e-08
-2.69148e-06
-3.25484e-08
-2.77633e-06
1.00961e-07
-2.72147e-06
4.08917e-07
-2.58976e-06
8.10716e-07
-2.3979e-06
1.05684e-06
-2.16732e-06
1.11375e-06
-1.93061e-06
9.90509e-07
-1.72529e-06
6.91598e-07
2.30797e-07
-1.61062e-06
-4.7522e-08
2.93026e-06
-9.90868e-08
2.77149e-06
-1.61551e-07
2.53057e-06
-2.46795e-07
2.25121e-06
-3.61978e-07
1.93131e-06
-5.04553e-07
1.58237e-06
-6.56247e-07
1.20597e-06
-8.4703e-07
9.01892e-07
-1.08101e-06
7.00772e-07
-1.31246e-06
5.7505e-07
-1.53481e-06
4.5985e-07
-1.75343e-06
3.55072e-07
-1.96721e-06
2.65062e-07
-2.17727e-06
1.95182e-07
-2.37398e-06
1.64163e-07
-2.48954e-06
2.16526e-07
-2.49516e-06
4.14539e-07
-2.3799e-06
6.95452e-07
-2.19872e-06
8.75661e-07
-1.98523e-06
9.00263e-07
-1.773e-06
7.78279e-07
-1.60094e-06
5.1954e-07
1.49261e-07
-1.51939e-06
-1.58877e-08
2.94596e-06
-5.21907e-08
2.80755e-06
-1.04671e-07
2.58286e-06
-1.77033e-07
2.3234e-06
-2.7562e-07
2.02975e-06
-4.02228e-07
1.70886e-06
-5.58299e-07
1.36195e-06
-7.47374e-07
1.0909e-06
-9.62101e-07
9.15453e-07
-1.1651e-06
7.78023e-07
-1.35899e-06
6.53729e-07
-1.54553e-06
5.41606e-07
-1.72524e-06
4.44787e-07
-1.89801e-06
3.67974e-07
-2.05827e-06
3.24451e-07
-2.1863e-06
3.44586e-07
-2.22732e-06
4.55582e-07
-2.15027e-06
6.18421e-07
-1.99964e-06
7.2504e-07
-1.82126e-06
7.21901e-07
-1.64882e-06
6.05855e-07
-1.5172e-06
3.87948e-07
9.47341e-08
-1.46265e-06
7.4994e-09
2.93831e-06
-1.28435e-08
2.82771e-06
-5.53079e-08
2.62519e-06
-1.17282e-07
2.38526e-06
-2.03283e-07
2.11566e-06
-3.18172e-07
1.82368e-06
-4.7794e-07
1.52167e-06
-6.6232e-07
1.27525e-06
-8.49471e-07
1.10259e-06
-1.02608e-06
9.5463e-07
-1.19452e-06
8.22182e-07
-1.35579e-06
7.02907e-07
-1.51004e-06
5.99065e-07
-1.65708e-06
5.15052e-07
-1.79301e-06
4.60427e-07
-1.90031e-06
4.51928e-07
-1.94412e-06
4.99425e-07
-1.90079e-06
5.75125e-07
-1.79299e-06
6.17271e-07
-1.65815e-06
5.87087e-07
-1.52824e-06
4.75965e-07
-1.43238e-06
2.92116e-07
5.79603e-08
-1.39556e-06
2.41644e-08
2.91404e-06
1.61119e-08
2.83567e-06
-1.85756e-08
2.65981e-06
-7.46856e-08
2.44132e-06
-1.53879e-07
2.19481e-06
-2.61873e-07
1.93165e-06
-4.09976e-07
1.66976e-06
-5.78453e-07
1.44372e-06
-7.39911e-07
1.26406e-06
-8.94436e-07
1.10918e-06
-1.04171e-06
9.69486e-07
-1.18236e-06
8.436e-07
-1.31615e-06
7.32893e-07
-1.44186e-06
6.40816e-07
-1.55491e-06
5.73525e-07
-1.64184e-06
5.38906e-07
-1.68074e-06
5.38366e-07
-1.65834e-06
5.52764e-07
-1.58715e-06
5.4611e-07
-1.49247e-06
4.92443e-07
-1.39998e-06
3.83496e-07
-1.33248e-06
2.24656e-07
3.27774e-08
-1.30726e-06
3.46088e-08
2.87938e-06
3.46952e-08
2.83557e-06
3.26487e-09
2.69123e-06
-4.91053e-08
2.49369e-06
-1.2339e-07
2.2691e-06
-2.23717e-07
2.03199e-06
-3.5183e-07
1.79788e-06
-4.94714e-07
1.58663e-06
-6.35699e-07
1.40507e-06
-7.70731e-07
1.24424e-06
-8.99702e-07
1.0985e-06
-1.02246e-06
9.664e-07
-1.13826e-06
8.4874e-07
-1.24518e-06
7.47785e-07
-1.33855e-06
6.66942e-07
-1.40883e-06
6.09225e-07
-1.44297e-06
5.72558e-07
-1.43397e-06
5.438e-07
-1.38942e-06
5.01591e-07
-1.32614e-06
4.29191e-07
-1.26287e-06
3.2025e-07
-1.21648e-06
1.7829e-07
1.5303e-08
-1.19897e-06
3.98363e-08
2.83953e-06
4.02719e-08
2.83517e-06
1.19551e-08
2.71957e-06
-3.58289e-08
2.5415e-06
-1.03083e-07
2.33639e-06
-1.91412e-07
2.12035e-06
-2.99609e-07
1.90611e-06
-4.19014e-07
1.70607e-06
-5.39302e-07
1.5254e-06
-6.56143e-07
1.36112e-06
-7.6818e-07
1.21057e-06
-8.74557e-07
1.07282e-06
-9.74047e-07
9.48272e-07
-1.06443e-06
8.38209e-07
-1.14162e-06
7.44176e-07
-1.19907e-06
6.66708e-07
-1.22923e-06
6.02756e-07
-1.22871e-06
5.43314e-07
-1.2025e-06
4.75407e-07
-1.16175e-06
3.88466e-07
-1.11961e-06
2.78132e-07
-1.0881e-06
1.46794e-07
2.76374e-09
-1.07554e-06
3.69232e-08
2.80263e-06
3.26012e-08
2.83955e-06
1.00139e-08
2.74221e-06
-3.01269e-08
2.58169e-06
-8.76137e-08
2.39392e-06
-1.62207e-07
2.19499e-06
-2.51722e-07
1.99567e-06
-3.50312e-07
1.8047e-06
-4.51274e-07
1.6264e-06
-5.50771e-07
1.46065e-06
-6.46791e-07
1.30663e-06
-7.37914e-07
1.16397e-06
-8.22569e-07
1.03296e-06
-8.98522e-07
9.14195e-07
-9.6246e-07
8.08145e-07
-1.00996e-06
7.14236e-07
-1.03671e-06
6.29533e-07
-1.04125e-06
5.47879e-07
-1.02706e-06
4.61235e-07
-1.00158e-06
3.6301e-07
-9.73861e-07
2.50425e-07
-9.52246e-07
1.25192e-07
-6.98218e-09
-9.42488e-07
2.6306e-08
2.77636e-06
2.19597e-08
2.84397e-06
5.05359e-09
2.75917e-06
-2.68216e-08
2.61362e-06
-7.36675e-08
2.44081e-06
-1.34492e-07
2.25585e-06
-2.0707e-07
2.06829e-06
-2.87331e-07
1.885e-06
-3.7074e-07
1.70984e-06
-4.54047e-07
1.54399e-06
-5.35066e-07
1.38767e-06
-6.12075e-07
1.24101e-06
-6.83335e-07
1.10424e-06
-7.46754e-07
9.77638e-07
-7.99711e-07
8.61125e-07
-8.39229e-07
7.53775e-07
-8.62827e-07
6.53151e-07
-8.70001e-07
5.5507e-07
-8.63247e-07
4.54495e-07
-8.47584e-07
3.47359e-07
-8.29152e-07
2.32003e-07
-8.13669e-07
1.09717e-07
-1.55701e-08
-8.05074e-07
1.52877e-08
2.76111e-06
1.47081e-08
2.84461e-06
2.04981e-09
2.77188e-06
-2.26057e-08
2.63832e-06
-5.93456e-08
2.4776e-06
-1.07328e-07
2.30388e-06
-1.6482e-07
2.12582e-06
-2.29005e-07
1.94921e-06
-2.96702e-07
1.77756e-06
-3.65235e-07
1.61255e-06
-4.32485e-07
1.45495e-06
-4.96643e-07
1.30519e-06
-5.55947e-07
1.16357e-06
-6.08501e-07
1.03021e-06
-6.52234e-07
9.04872e-07
-6.85096e-07
7.86651e-07
-7.05619e-07
6.73687e-07
-7.13718e-07
5.63179e-07
-7.11188e-07
4.51975e-07
-7.01427e-07
3.37606e-07
-6.88578e-07
2.19161e-07
-6.76511e-07
9.76543e-08
-2.41847e-08
-6.67892e-07
2.95469e-09
2.7582e-06
9.32479e-09
2.8383e-06
1.06016e-09
2.78019e-06
-1.69483e-08
2.65637e-06
-4.41646e-08
2.50485e-06
-8.03356e-08
2.34008e-06
-1.24413e-07
2.16992e-06
-1.74501e-07
1.99932e-06
-2.28303e-07
1.83139e-06
-2.83624e-07
1.66789e-06
-3.38512e-07
1.50985e-06
-3.91195e-07
1.35788e-06
-4.39975e-07
1.21236e-06
-4.83154e-07
1.0734e-06
-5.19061e-07
9.40789e-07
-5.4622e-07
8.13819e-07
-5.63703e-07
6.91179e-07
-5.71565e-07
5.71049e-07
-5.71077e-07
4.51493e-07
-5.64532e-07
3.31067e-07
-5.5471e-07
2.09344e-07
-5.44202e-07
8.71502e-08
-3.35961e-08
-5.34787e-07
-3.42063e-09
2.76165e-06
3.56943e-09
2.83135e-06
-2.91856e-11
2.78383e-06
-1.05333e-08
2.66691e-06
-2.81816e-08
2.52253e-06
-5.33015e-08
2.36523e-06
-8.53829e-08
2.20203e-06
-1.23128e-07
2.03709e-06
-1.64796e-07
1.87307e-06
-2.08544e-07
1.71165e-06
-2.52593e-07
1.55391e-06
-2.95257e-07
1.40056e-06
-3.34935e-07
1.25204e-06
-3.70103e-07
1.10857e-06
-3.99365e-07
9.70058e-07
-4.21589e-07
8.36049e-07
-4.36124e-07
7.0572e-07
-4.43026e-07
5.77958e-07
-4.43166e-07
4.51638e-07
-4.38077e-07
3.25983e-07
-4.29609e-07
2.0088e-07
-4.19479e-07
7.7024e-08
-4.4217e-08
-4.08853e-07
-5.02302e-09
2.7667e-06
-3.06843e-09
2.82943e-06
-9.39605e-10
2.78173e-06
-2.95117e-09
2.66894e-06
-1.08982e-08
2.5305e-06
-2.56891e-08
2.38004e-06
-4.71189e-08
2.22347e-06
-7.41928e-08
2.06418e-06
-1.05477e-07
1.90437e-06
-1.39349e-07
1.74553e-06
-1.74159e-07
1.58873e-06
-2.08312e-07
1.43472e-06
-2.40302e-07
1.28404e-06
-2.68743e-07
1.13702e-06
-2.92426e-07
9.93747e-07
-3.10419e-07
8.54049e-07
-3.222e-07
7.17507e-07
-3.27774e-07
5.83537e-07
-3.27702e-07
4.51572e-07
-3.22995e-07
3.21281e-07
-3.14868e-07
1.92759e-07
-3.04446e-07
6.66074e-08
-5.61736e-08
-2.92482e-07
-6.84982e-09
2.77357e-06
-7.98595e-09
2.83059e-06
4.40987e-10
2.77332e-06
7.64223e-09
2.66176e-06
8.97808e-09
2.52918e-06
3.44179e-09
2.38559e-06
-8.81611e-09
2.23575e-06
-2.69539e-08
2.08233e-06
-4.96554e-08
1.92708e-06
-7.54058e-08
1.7713e-06
-1.02634e-07
1.61597e-06
-1.29816e-07
1.46191e-06
-1.55528e-07
1.30976e-06
-1.78484e-07
1.15998e-06
-1.97601e-07
1.01287e-06
-2.12065e-07
8.68519e-07
-2.21406e-07
7.26854e-07
-2.2556e-07
5.87698e-07
-2.24863e-07
4.50882e-07
-2.19962e-07
3.16386e-07
-2.11645e-07
1.84449e-07
-2.00643e-07
5.56112e-08
-6.93747e-08
-1.87433e-07
-1.09917e-08
2.78457e-06
-7.56355e-09
2.82719e-06
8.86501e-09
2.75691e-06
2.39211e-08
2.64673e-06
3.31826e-08
2.51994e-06
3.53135e-08
2.38348e-06
3.04005e-08
2.24068e-06
1.93028e-08
2.09344e-06
3.29522e-09
1.9431e-06
-1.6137e-08
1.79074e-06
-3.74758e-08
1.63732e-06
-5.92376e-08
1.48368e-06
-8.00706e-08
1.3306e-06
-9.87559e-08
1.17868e-06
-1.14299e-07
1.02842e-06
-1.25957e-07
8.80184e-07
-1.3328e-07
7.34186e-07
-1.36142e-07
5.90568e-07
-1.34715e-07
4.49463e-07
-1.29402e-07
3.1108e-07
-1.20708e-07
1.75763e-07
-1.09104e-07
4.40151e-08
-8.35739e-08
-9.48943e-08
-1.02017e-08
2.79479e-06
3.45508e-09
2.81355e-06
2.62124e-08
2.73417e-06
4.74297e-08
2.62553e-06
6.27871e-08
2.5046e-06
7.06998e-08
2.37558e-06
7.11939e-08
2.2402e-06
6.51556e-08
2.0995e-06
5.39042e-08
1.95437e-06
3.89375e-08
1.80572e-06
2.17806e-08
1.65449e-06
3.87649e-09
1.5016e-06
-1.34249e-08
1.34791e-06
-2.90184e-08
1.19428e-06
-4.19627e-08
1.04138e-06
-5.15593e-08
8.8979e-07
-5.7371e-08
7.40007e-07
-5.92241e-08
5.9243e-07
-5.71825e-08
4.47431e-07
-5.14868e-08
3.05393e-07
-4.24639e-08
1.66749e-07
-3.04222e-08
3.19818e-08
-9.84243e-08
-1.55601e-08
1.13481e-09
2.79367e-06
2.2948e-08
2.79176e-06
5.16686e-08
2.70547e-06
7.80462e-08
2.59917e-06
9.80024e-08
2.48466e-06
1.09907e-07
2.36369e-06
1.1385e-07
2.23627e-06
1.10873e-07
2.10249e-06
1.02439e-07
1.96282e-06
9.01341e-08
1.81804e-06
7.55118e-08
1.66912e-06
6.00096e-08
1.51711e-06
4.48865e-08
1.36305e-06
3.12418e-08
1.20794e-06
1.99486e-08
1.05268e-06
1.16604e-08
8.98089e-07
6.8007e-09
7.44877e-07
5.56907e-09
5.93672e-07
7.96729e-09
4.45042e-07
1.38514e-08
2.99519e-07
2.3002e-08
1.57607e-07
3.52036e-08
1.97891e-08
-1.13522e-07
5.0314e-08
1.8038e-08
2.77564e-06
4.80407e-08
2.76178e-06
8.30733e-08
2.67045e-06
1.1467e-07
2.56759e-06
1.3843e-07
2.46092e-06
1.52817e-07
2.34932e-06
1.5834e-07
2.23077e-06
1.56468e-07
2.10438e-06
1.48965e-07
1.97034e-06
1.37579e-07
1.82944e-06
1.23916e-07
1.6828e-06
1.094e-07
1.53164e-06
9.52547e-08
1.37721e-06
8.2506e-08
1.2207e-06
7.19718e-08
1.06323e-06
6.42608e-08
9.05812e-07
5.97748e-08
7.49374e-07
5.8719e-08
5.94739e-07
6.11281e-08
4.42644e-07
6.69084e-08
2.93748e-07
7.58948e-08
1.4863e-07
8.79157e-08
7.77707e-09
-1.28443e-07
1.02848e-07
3.42492e-08
2.7414e-06
7.53116e-08
2.72075e-06
1.18724e-07
2.62706e-06
1.56517e-07
2.52981e-06
1.83701e-07
2.43375e-06
1.99144e-07
2.3339e-06
2.04365e-07
2.22556e-06
2.01662e-07
2.1071e-06
1.93287e-07
1.97873e-06
1.81203e-07
1.84154e-06
1.67078e-07
1.69694e-06
1.52305e-07
1.54643e-06
1.38044e-07
1.39148e-06
1.25245e-07
1.23351e-06
1.14658e-07
1.07383e-06
1.0684e-07
9.13643e-07
1.02161e-07
7.54065e-07
1.00818e-07
5.96093e-07
1.02852e-07
4.4062e-07
1.08188e-07
2.88423e-07
1.16675e-07
1.40153e-07
1.28151e-07
-3.69083e-09
-1.42765e-07
1.42484e-07
4.99103e-08
2.6915e-06
1.0442e-07
2.66626e-06
1.58504e-07
2.573e-06
2.0369e-07
2.48465e-06
2.33779e-07
2.40368e-06
2.48505e-07
2.31919e-06
2.51329e-07
2.22276e-06
2.45852e-07
2.11259e-06
2.34932e-07
1.98967e-06
2.20739e-07
1.85575e-06
2.04946e-07
1.71275e-06
1.88876e-07
1.56251e-06
1.73591e-07
1.40678e-06
1.59942e-07
1.24717e-06
1.486e-07
1.08518e-06
1.40062e-07
9.22193e-07
1.34663e-07
7.59476e-07
1.32579e-07
5.98188e-07
1.33846e-07
4.39363e-07
1.38382e-07
2.83897e-07
1.46027e-07
1.32516e-07
1.56591e-07
-1.42473e-08
-1.5609e-07
1.69927e-07
6.77942e-08
2.62372e-06
1.3753e-07
2.59655e-06
2.03836e-07
2.50671e-06
2.57271e-07
2.43123e-06
2.88695e-07
2.37227e-06
3.00113e-07
2.30779e-06
2.98122e-07
2.22477e-06
2.88004e-07
2.12273e-06
2.73132e-07
2.00455e-06
2.55734e-07
1.87317e-06
2.37377e-07
1.73112e-06
2.1924e-07
1.58067e-06
2.02243e-07
1.42379e-06
1.87122e-07
1.26231e-06
1.74455e-07
1.09786e-06
1.64678e-07
9.31981e-07
1.58087e-07
7.66077e-07
1.54839e-07
6.01446e-07
1.54957e-07
4.39255e-07
1.58345e-07
2.80518e-07
1.64815e-07
1.26054e-07
1.74135e-07
-2.35606e-08
-1.6805e-07
1.86104e-07
9.4504e-08
2.52923e-06
1.80695e-07
2.51038e-06
2.58907e-07
2.42852e-06
3.18659e-07
2.37149e-06
3.47609e-07
2.34334e-06
3.51903e-07
2.30351e-06
3.42725e-07
2.23396e-06
3.26556e-07
2.13891e-06
3.06851e-07
2.02428e-06
2.85626e-07
1.89441e-06
2.64205e-07
1.75256e-06
2.4355e-07
1.60134e-06
2.2441e-07
1.44295e-06
2.0739e-07
1.27934e-06
1.92975e-07
1.11229e-06
1.81542e-07
9.43425e-07
1.73354e-07
7.74275e-07
1.68556e-07
6.06254e-07
1.67167e-07
4.40653e-07
1.69077e-07
2.78615e-07
1.74065e-07
1.21073e-07
1.81836e-07
-3.13255e-08
-1.78318e-07
1.92112e-07
1.47075e-07
2.38216e-06
2.52715e-07
2.40475e-06
3.36111e-07
2.34514e-06
3.84466e-07
2.32316e-06
4.05574e-07
2.32225e-06
3.99652e-07
2.30945e-06
3.82138e-07
2.25149e-06
3.59619e-07
2.16145e-06
3.35011e-07
2.0489e-06
3.09925e-07
1.91951e-06
2.85373e-07
1.77712e-06
2.6208e-07
1.62464e-06
2.4062e-07
1.46442e-06
2.2147e-07
1.2985e-06
2.05031e-07
1.12874e-06
1.91628e-07
9.56838e-07
1.81505e-07
7.84407e-07
1.74811e-07
6.12957e-07
1.71576e-07
4.43895e-07
1.71698e-07
2.78501e-07
1.74923e-07
1.17854e-07
1.8088e-07
-3.72778e-08
-1.86613e-07
1.89181e-07
2.39326e-07
2.14285e-06
3.68961e-07
2.27513e-06
4.35801e-07
2.27831e-06
4.57523e-07
2.30145e-06
4.57828e-07
2.32196e-06
4.39645e-07
2.32765e-06
4.14211e-07
2.27694e-06
3.85984e-07
2.18968e-06
3.57035e-07
2.07786e-06
3.28502e-07
1.94805e-06
3.01088e-07
1.80455e-06
2.75302e-07
1.65044e-06
2.5156e-07
1.48817e-06
2.30227e-07
1.31985e-06
2.11626e-07
1.14735e-06
1.96043e-07
9.72429e-07
1.83715e-07
7.96743e-07
1.74811e-07
6.21868e-07
1.69404e-07
4.49308e-07
1.67429e-07
2.80482e-07
1.68631e-07
1.16657e-07
1.7255e-07
-4.11933e-08
-1.92692e-07
1.78635e-07
3.65144e-07
1.77772e-06
5.17525e-07
2.12276e-06
5.47795e-07
2.24805e-06
5.37596e-07
2.31166e-06
5.0528e-07
2.35429e-06
4.72925e-07
2.36001e-06
4.39505e-07
2.31037e-06
4.05977e-07
2.22322e-06
3.73228e-07
2.11062e-06
3.41753e-07
1.97954e-06
3.1189e-07
1.83442e-06
2.83916e-07
1.67842e-06
2.58089e-07
1.51401e-06
2.34664e-07
1.34328e-06
2.13893e-07
1.16813e-06
1.96023e-07
9.90306e-07
1.81289e-07
8.11484e-07
1.69896e-07
6.33267e-07
1.61988e-07
4.57222e-07
1.57587e-07
2.84887e-07
1.56496e-07
1.17752e-07
1.58183e-07
-4.28778e-08
-1.96354e-07
1.61849e-07
5.02788e-07
1.27494e-06
6.68957e-07
1.9566e-06
6.64681e-07
2.25234e-06
6.11603e-07
2.36474e-06
5.50989e-07
2.41491e-06
5.02288e-07
2.40872e-06
4.59581e-07
2.35309e-06
4.20589e-07
2.26222e-06
3.84348e-07
2.14687e-06
3.50394e-07
2.0135e-06
3.18545e-07