/*--------------------------------*- C++ -*----------------------------------*\
  =========                 |
  \\      /  F ield         | OpenFOAM: The Open Source CFD Toolbox
   \\    /   O peration     | Website:  https://openfoam.org
    \\  /    A nd           | Version:  9
     \\/     M anipulation  |
\*---------------------------------------------------------------------------*/
FoamFile
{
    format      ascii;
    class       volVectorField;
    location    "9";
    object      U;
}
// * * * * * * * * * * * * * * * * * * * * * * * * * * * * * * * * * * * * * //

dimensions      [0 1 -1 0 0 0 0];

internalField   nonuniform List<vector> 
2268
(
(-0.000304438 0.000111548 0)
(-0.000584889 1.95998e-05 0)
(-0.000563163 -3.30826e-05 0)
(-0.000437177 -6.41557e-05 0)
(-0.000197353 -9.23095e-05 0)
(0.000129248 -0.000117415 0)
(0.00053505 -0.000138139 0)
(0.000992882 -0.000149131 0)
(0.00146729 -0.000150114 0)
(0.00193321 -0.000147121 0)
(0.0024001 -0.000155937 0)
(0.00293502 -0.000198872 0)
(0.0036713 -0.000291976 0)
(0.00474228 -0.000415334 0)
(0.00611771 -0.000489508 0)
(0.00752323 -0.000346425 0)
(0.00791396 0.00017174 0)
(0.00647227 0.000686912 0)
(0.00329984 0.00169628 0)
(-0.0035096 0.00221514 0)
(-0.00856874 0.000719356 0)
(-0.00886932 -0.000819747 0)
(-0.00449311 -0.00197205 0)
(-0.000208849 0.000312 0)
(-0.000410325 8.60135e-05 0)
(-0.00038595 -4.59547e-05 0)
(-0.000250638 -0.000129198 0)
(-1.69946e-05 -0.000198611 0)
(0.000292041 -0.000258576 0)
(0.000661 -0.000304204 0)
(0.00105912 -0.000325671 0)
(0.00145487 -0.000325832 0)
(0.00183122 -0.00032112 0)
(0.00219685 -0.00034316 0)
(0.00259807 -0.000432823 0)
(0.00311816 -0.000613006 0)
(0.00382907 -0.000832514 0)
(0.00469025 -0.000927035 0)
(0.00549018 -0.000582839 0)
(0.00558816 0.000449878 0)
(0.00426496 0.00163599 0)
(0.0019745 0.00319893 0)
(-0.00154381 0.00390799 0)
(-0.00418265 0.00169215 0)
(-0.00575514 -0.000960325 0)
(-0.00411927 -0.00461937 0)
(-0.00012526 0.000421755 0)
(-0.000273506 0.000108988 0)
(-0.000247836 -8.18607e-05 0)
(-0.000129733 -0.000213884 0)
(7.69811e-05 -0.000319584 0)
(0.000350831 -0.000409024 0)
(0.000673518 -0.000471137 0)
(0.00101222 -0.000494397 0)
(0.00133669 -0.000485996 0)
(0.0016319 -0.000470646 0)
(0.0019018 -0.000492343 0)
(0.00217626 -0.000605446 0)
(0.00251159 -0.000837327 0)
(0.00295618 -0.00111491 0)
(0.00348626 -0.00121435 0)
(0.00397642 -0.000713465 0)
(0.00392897 0.000740224 0)
(0.00271493 0.00242242 0)
(0.00106152 0.0040919 0)
(-0.000467349 0.00478472 0)
(-0.00169501 0.00249115 0)
(-0.00355618 -0.000609273 0)
(-0.00304303 -0.00658886 0)
(-7.24488e-05 0.000496512 0)
(-0.000174465 0.000130439 0)
(-0.000140049 -0.000108727 0)
(-3.82604e-05 -0.000281852 0)
(0.000138222 -0.000421496 0)
(0.000372451 -0.000536696 0)
(0.000646046 -0.000611665 0)
(0.000925243 -0.000632725 0)
(0.00118039 -0.000611886 0)
(0.00139646 -0.000580824 0)
(0.00157137 -0.000592566 0)
(0.00172078 -0.000711844 0)
(0.00188418 -0.00097149 0)
(0.00210177 -0.00128549 0)
(0.0023771 -0.00139523 0)
(0.00268537 -0.000793252 0)
(0.00264847 0.00100645 0)
(0.00167082 0.00305315 0)
(0.000477341 0.0046001 0)
(3.96037e-05 0.00512129 0)
(-0.000280539 0.00306524 0)
(-0.00195724 -0.000119346 0)
(-0.0019454 -0.00786798 0)
(-4.28299e-05 0.000542589 0)
(-0.000105292 0.000135634 0)
(-5.74475e-05 -0.000136851 0)
(2.93286e-05 -0.000342211 0)
(0.000172323 -0.000509547 0)
(0.000361457 -0.000645708 0)
(0.000580682 -0.000729127 0)
(0.000796508 -0.000743356 0)
(0.000980126 -0.000705451 0)
(0.00111626 -0.000652417 0)
(0.00119627 -0.000643362 0)
(0.00122277 -0.000751617 0)
(0.00122351 -0.00101807 0)
(0.00123596 -0.00135275 0)
(0.00128981 -0.00148682 0)
(0.00146543 -0.000864293 0)
(0.00153928 0.00118933 0)
(0.000894752 0.00352837 0)
(7.05088e-05 0.00485617 0)
(0.00019268 0.00510785 0)
(0.000380997 0.00343705 0)
(-0.000831239 0.000332372 0)
(-0.000781841 -0.00852129 0)
(-2.43878e-05 0.000570644 0)
(-5.37927e-05 0.000129686 0)
(4.69277e-06 -0.000165155 0)
(7.41445e-05 -0.000392773 0)
(0.000177618 -0.000579484 0)
(0.000312821 -0.000731066 0)
(0.000468904 -0.000818686 0)
(0.000614169 -0.000822128 0)
(0.000721754 -0.000763642 0)
(0.000776988 -0.000683529 0)
(0.000764841 -0.00064403 0)
(0.000675327 -0.000725931 0)
(0.000526407 -0.000980972 0)
(0.000351825 -0.0013222 0)
(0.000194886 -0.00149233 0)
(0.000215813 -0.00093614 0)
(0.000440421 0.00123103 0)
(0.000231009 0.00382975 0)
(-0.000242003 0.00495252 0)
(0.00010162 0.00492756 0)
(0.000485957 0.00361591 0)
(2.72585e-05 0.000505184 0)
(0.000756723 -0.00864012 0)
(-8.58926e-06 0.000617477 0)
(-7.89489e-06 0.000126805 0)
(5.12317e-05 -0.000195375 0)
(9.73962e-05 -0.000430739 0)
(0.000151852 -0.000625697 0)
(0.000220539 -0.000786108 0)
(0.00030082 -0.000874178 0)
(0.000365119 -0.000864077 0)
(0.000390495 -0.00078374 0)
(0.000364571 -0.000674165 0)
(0.000266671 -0.000597418 0)
(7.46776e-05 -0.000640667 0)
(-0.000203287 -0.000868723 0)
(-0.000541555 -0.00120042 0)
(-0.0008998 -0.00140509 0)
(-0.00110436 -0.000975862 0)
(-0.000835827 0.00111311 0)
(-0.000457577 0.00388474 0)
(-0.000457881 0.00496288 0)
(-0.000202614 0.00473399 0)
(0.000259579 0.00353522 0)
(0.000861574 0.000169965 0)
(0.00243617 -0.00836975 0)
(7.77348e-06 0.00047669 0)
(2.35869e-05 2.87061e-05 0)
(8.019e-05 -0.00022991 0)
(0.000103457 -0.000440583 0)
(9.66411e-05 -0.00062929 0)
(8.25299e-05 -0.00079302 0)
(7.02957e-05 -0.000880422 0)
(4.00653e-05 -0.000857099 0)
(-2.43125e-05 -0.000758323 0)
(-0.000130629 -0.000622328 0)
(-0.000303837 -0.000505632 0)
(-0.000576757 -0.000501266 0)
(-0.000952292 -0.000690765 0)
(-0.00141836 -0.000996122 0)
(-0.00195173 -0.00121897 0)
(-0.00241696 -0.000925305 0)
(-0.00228548 0.000883399 0)
(-0.00141044 0.00360835 0)
(-0.000787404 0.00484363 0)
(-0.00052453 0.00451131 0)
(0.000161565 0.00313213 0)
(0.0016602 -0.000647441 0)
(0.00290412 -0.00727935 0)
(-0.0114207 0.00297444 0)
(-0.0117513 -0.000372819 0)
(-0.00568826 -0.00211222 0)
(0.000846535 -0.00157104 0)
(0.00485022 -0.00113358 0)
(0.00819534 -0.000897956 0)
(0.010228 -0.000366324 0)
(0.0113801 -0.000341171 0)
(0.0123923 -0.00026562 0)
(0.0125763 -0.000248177 0)
(0.0119941 0.000761151 0)
(0.00682165 0.00278284 0)
(-0.0043859 0.00251942 0)
(-0.00829701 5.22881e-05 0)
(-0.00733229 -0.000342517 0)
(-0.00670891 -0.000311833 0)
(-0.00722594 -0.000132833 0)
(-0.00758575 -0.000915417 0)
(-0.00187499 -0.000853645 0)
(-0.0113914 0.00689917 0)
(-0.00706098 -0.00166176 0)
(-0.00323489 -0.00401399 0)
(0.000801669 -0.00309527 0)
(0.00330557 -0.00218032 0)
(0.00507019 -0.00159173 0)
(0.00635835 -0.000943996 0)
(0.00749 -0.000693621 0)
(0.00785558 -0.000183949 0)
(0.0067133 0.000258144 0)
(0.00525682 0.0016514 0)
(0.00324985 0.00467774 0)
(-0.00131361 0.00441785 0)
(-0.0036188 0.0008741 0)
(-0.00473825 -0.000124614 0)
(-0.00541171 7.31333e-06 0)
(-0.00736216 0.000619806 0)
(-0.00940088 -0.00125035 0)
(-0.00541262 -0.00341539 0)
(-0.0075977 0.0098541 0)
(-0.00336063 -0.00313546 0)
(-0.00117055 -0.005355 0)
(0.000940816 -0.00405812 0)
(0.00230505 -0.00282758 0)
(0.00327411 -0.00202193 0)
(0.0040661 -0.00138067 0)
(0.00486633 -0.000921554 0)
(0.00489653 0.000101427 0)
(0.00336574 0.00100293 0)
(0.00135513 0.00226627 0)
(0.000605547 0.0051951 0)
(2.75221e-05 0.00504468 0)
(-0.00115872 0.00164014 0)
(-0.00294845 0.000496369 0)
(-0.00425622 0.000700096 0)
(-0.00668542 0.00168424 0)
(-0.00927853 -0.00143566 0)
(-0.0061089 -0.00705463 0)
(-0.00274907 0.0114791 0)
(0.000189125 -0.00407794 0)
(0.000542758 -0.00591725 0)
(0.00102551 -0.004482 0)
(0.00144694 -0.00315221 0)
(0.00181158 -0.00226443 0)
(0.00219494 -0.00164826 0)
(0.00271417 -0.00104257 0)
(0.0026096 0.000447133 0)
(0.00111606 0.00177303 0)
(-0.000830734 0.00283393 0)
(-0.000996752 0.0051174 0)
(0.000152507 0.005035 0)
(-0.000142093 0.0022073 0)
(-0.0017901 0.00118456 0)
(-0.00303696 0.00152088 0)
(-0.00527216 0.00274785 0)
(-0.0075391 -0.00157386 0)
(-0.00447792 -0.0101675 0)
(0.00239712 0.0111379 0)
(0.00321682 -0.00426932 0)
(0.00172246 -0.00573224 0)
(0.000920905 -0.00442671 0)
(0.000594681 -0.00318576 0)
(0.000473006 -0.00232229 0)
(0.00050651 -0.00178247 0)
(0.000806322 -0.00110603 0)
(0.000715575 0.000775188 0)
(-0.000542197 0.00244308 0)
(-0.00206338 0.00325431 0)
(-0.0018608 0.00476246 0)
(-0.000243557 0.00469321 0)
(-0.000111979 0.00255225 0)
(-0.00122123 0.00166139 0)
(-0.00168538 0.00212954 0)
(-0.00307657 0.00362283 0)
(-0.00482102 -0.0017815 0)
(-0.00239048 -0.0122547 0)
(0.00654019 0.0088901 0)
(0.00502685 -0.00358419 0)
(0.00215035 -0.00493208 0)
(0.000539278 -0.00401057 0)
(-0.000301786 -0.00299126 0)
(-0.000793059 -0.00221887 0)
(-0.00106052 -0.00180392 0)
(-0.00093129 -0.00115632 0)
(-0.000894777 0.00102328 0)
(-0.00180317 0.0029679 0)
(-0.00282871 0.00348471 0)
(-0.00231331 0.0043139 0)
(-0.000676108 0.00424557 0)
(-0.00050911 0.00277541 0)
(-0.00113213 0.00180432 0)
(-0.000474788 0.00220227 0)
(-0.000334153 0.0041164 0)
(-0.00136337 -0.00184315 0)
(-0.000235564 -0.0132534 0)
(0.00749507 0.00593148 0)
(0.0049632 -0.00231642 0)
(0.00176782 -0.00381581 0)
(-0.000138833 -0.00339506 0)
(-0.00125253 -0.00265103 0)
(-0.00199386 -0.00198733 0)
(-0.00252208 -0.00172145 0)
(-0.00257314 -0.00121871 0)
(-0.00233759 0.00113081 0)
(-0.00276601 0.00333495 0)
(-0.00328958 0.00352371 0)
(-0.00252223 0.00383055 0)
(-0.000976438 0.00381469 0)
(-0.000834425 0.00293394 0)
(-0.000961266 0.00161771 0)
(0.000471141 0.00169913 0)
(0.00199217 0.00402128 0)
(0.00214243 -0.00178106 0)
(0.00223489 -0.0129757 0)
(0.00401624 0.00382876 0)
(0.00339713 -0.00115349 0)
(0.00074048 -0.00275496 0)
(-0.00105658 -0.00273927 0)
(-0.00224594 -0.00224111 0)
(-0.00311764 -0.00166786 0)
(-0.00384245 -0.00152978 0)
(-0.00416285 -0.00123818 0)
(-0.00378608 0.00102279 0)
(-0.00352783 0.00344739 0)
(-0.00344365 0.00338108 0)
(-0.00249747 0.00333371 0)
(-0.00108697 0.00340807 0)
(-0.000752344 0.00294768 0)
(-0.000189032 0.00115653 0)
(0.00137614 0.000960892 0)
(0.00358523 0.00328018 0)
(0.00514069 -0.00169849 0)
(0.00449362 -0.0113519 0)
(0.000116502 0.000998089 0)
(0.00017418 0.00035609 0)
(0.000203381 1.81565e-05 0)
(0.000121883 -0.000235907 0)
(-1.63254e-05 -0.000461043 0)
(-0.000193487 -0.0006588 0)
(-0.00038403 -0.000762069 0)
(-0.000588628 -0.000733928 0)
(-0.000807103 -0.000625108 0)
(-0.00103574 -0.000464483 0)
(-0.00130355 -0.000288934 0)
(-0.00165536 -0.000198066 0)
(-0.00211474 -0.000323184 0)
(-0.00269859 -0.000567316 0)
(-0.0034096 -0.000788326 0)
(-0.00411949 -0.000698723 0)
(-0.00428772 0.000479755 0)
(-0.00341529 0.00272666 0)
(-0.00202724 0.00414602 0)
(-0.000782532 0.00382792 0)
(0.000429475 0.0021497 0)
(0.00158681 -0.00126093 0)
(-0.000773053 -0.00393043 0)
(0.000291039 -0.000194829 0)
(0.000222564 -0.000494441 0)
(0.000184301 -0.000562351 0)
(7.78656e-06 -0.000617763 0)
(-0.0002861 -0.000669701 0)
(-0.000715373 -0.000736539 0)
(-0.00123377 -0.000740153 0)
(-0.00175567 -0.00063947 0)
(-0.00221487 -0.000476222 0)
(-0.00258298 -0.000265086 0)
(-0.00287681 -2.48767e-05 0)
(-0.00314213 0.000173722 0)
(-0.00344557 0.000205886 0)
(-0.00386823 0.000160963 0)
(-0.00446232 9.65488e-05 0)
(-0.00518632 0.000110897 0)
(-0.00564202 0.000578476 0)
(-0.00512919 0.00174291 0)
(-0.00350997 0.00264465 0)
(-0.00152 0.00253063 0)
(-7.1091e-05 0.00149105 0)
(0.000178559 7.68473e-05 0)
(-0.00172236 -0.000484122 0)
(0.000256827 0.000462905 0)
(-0.000660814 0.000369639 0)
(-0.000923006 0.000189745 0)
(-0.00174323 0.000101732 0)
(-0.00246648 0.0001851 0)
(-0.00306635 0.000234259 0)
(-0.00370051 0.000197078 0)
(-0.00434827 0.000139876 0)
(-0.00493407 0.000118825 0)
(-0.00534642 0.000157369 0)
(-0.00551635 0.000231299 0)
(-0.00544205 0.000316655 0)
(-0.00533378 0.000374851 0)
(-0.00544865 0.000435546 0)
(-0.00582865 0.000529905 0)
(-0.00645534 0.000643519 0)
(-0.00687969 0.00070066 0)
(-0.00625984 0.000874498 0)
(-0.00454834 0.0010209 0)
(-0.00247638 0.00106819 0)
(-0.000944878 0.000877849 0)
(-0.00075208 0.000520188 0)
(-0.00213741 0.000438557 0)
(0.0047165 0.000912944 0)
(0.00164912 0.000727024 0)
(9.25666e-05 0.000515872 0)
(-0.0041983 0.000670427 0)
(-0.00664174 0.000539572 0)
(-0.00614588 0.000653002 0)
(-0.00507827 0.000692797 0)
(-0.00467814 0.000619811 0)
(-0.00513154 0.000488067 0)
(-0.00552783 0.000347791 0)
(-0.00555122 0.000331619 0)
(-0.00524574 0.000235278 0)
(-0.00498015 0.000362351 0)
(-0.00535697 0.000456317 0)
(-0.00602707 0.000530793 0)
(-0.00619976 0.000683432 0)
(-0.00517504 0.000337651 0)
(-0.00353209 -0.000164837 0)
(-0.00304655 -0.000295654 0)
(-0.00266519 -0.000333067 0)
(-0.00128989 -4.77017e-05 0)
(-0.000403976 0.000293236 0)
(-0.00112002 0.000663593 0)
(-0.00077296 -0.00631738 0)
(-0.00113112 0.00324348 0)
(-0.0110923 0.00842049 0)
(-0.0236489 0.0125466 0)
(-0.0294963 0.00184616 0)
(-0.0276082 -0.00208087 0)
(-0.0211962 -0.0024346 0)
(-0.0149675 0.000354748 0)
(-0.0111173 0.00135632 0)
(-0.00829002 0.000258428 0)
(-0.00526688 -0.000393521 0)
(-0.0017502 -0.00110006 0)
(0.00203652 -0.000105756 0)
(0.0050695 0.00191304 0)
(0.007475 0.00173308 0)
(0.0102705 9.36136e-05 0)
(0.012939 -0.00372371 0)
(0.0149053 -0.00421901 0)
(0.0119915 5.20947e-05 0)
(0.00359189 -0.00324422 0)
(-0.000680845 -0.00309105 0)
(0.000308592 -6.21331e-06 0)
(-0.000329834 0.00584625 0)
(-0.00194594 0.00313383 0)
(-0.00691492 0.0104125 0)
(-0.00874908 0.0167416 0)
(-0.00134765 0.0165753 0)
(0.00104967 0.00464525 0)
(-0.00563138 -0.00457814 0)
(-0.00923814 -0.00959371 0)
(-0.0101441 -0.00633776 0)
(-0.00888489 -0.00368773 0)
(-0.00770567 -0.00412427 0)
(-0.00717492 -0.00429786 0)
(-0.00642092 -0.00547236 0)
(-0.00402777 -0.00553579 0)
(0.000577741 -0.00353057 0)
(0.00479012 -0.00357398 0)
(0.00600278 -0.0034749 0)
(0.00270412 -0.00282936 0)
(-0.00202 -0.000409076 0)
(-0.00314379 0.0104617 0)
(-0.00488389 0.00882453 0)
(-0.00928464 0.00295666 0)
(-0.0116453 -0.000294787 0)
(-0.0114785 0.00917429 0)
(-0.00293772 0.00258941 0)
(-0.00556708 0.0111634 0)
(-0.00557591 0.0103706 0)
(-0.00294357 0.00767013 0)
(-0.00155925 0.00600376 0)
(-0.00329223 0.00196039 0)
(-0.00612746 -0.00330765 0)
(-0.0082683 -0.00427776 0)
(-0.00884317 -0.0038084 0)
(-0.00902848 -0.00365423 0)
(-0.00942784 -0.00381658 0)
(-0.00935378 -0.00626642 0)
(-0.00756764 -0.00915359 0)
(-0.00437453 -0.00822568 0)
(-0.00181354 -0.00533328 0)
(-0.00100273 -0.000912462 0)
(-0.00256005 0.00292543 0)
(-0.00634943 0.00361091 0)
(-0.00876634 0.00844259 0)
(-0.00984209 0.00932454 0)
(-0.0124051 0.00576833 0)
(-0.0159292 0.00183104 0)
(-0.0169163 0.00609257 0)
(-0.0029154 0.0104358 0)
(-0.00383658 0.0126747 0)
(-0.00373769 0.011044 0)
(-0.00355333 0.0084354 0)
(-0.00347162 0.00570559 0)
(-0.00408001 0.0020348 0)
(-0.00579985 -0.00117666 0)
(-0.00776073 -0.002446 0)
(-0.0087819 -0.00287238 0)
(-0.00906874 -0.00298403 0)
(-0.00896588 -0.00344328 0)
(-0.00881147 -0.00630709 0)
(-0.0091016 -0.00989097 0)
(-0.0095126 -0.00923692 0)
(-0.00981477 -0.00579207 0)
(-0.00994349 -0.00133414 0)
(-0.010118 0.00348789 0)
(-0.011359 0.00648275 0)
(-0.0124451 0.00961291 0)
(-0.0126693 0.0103735 0)
(-0.013573 0.00801388 0)
(-0.0156704 0.00474031 0)
(-0.0167264 0.00390231 0)
(-0.00150133 0.0107433 0)
(-0.0020934 0.0125269 0)
(-0.00252806 0.0111904 0)
(-0.00313831 0.00884231 0)
(-0.00375376 0.00607086 0)
(-0.00456622 0.00310368 0)
(-0.00593872 0.000535614 0)
(-0.0074827 -0.00103483 0)
(-0.00847866 -0.00225109 0)
(-0.00885498 -0.00289856 0)
(-0.00889906 -0.00366011 0)
(-0.00930536 -0.00585534 0)
(-0.010884 -0.00831557 0)
(-0.0130266 -0.00784096 0)
(-0.0144916 -0.00491226 0)
(-0.0150529 -0.0011921 0)
(-0.0150211 0.00339939 0)
(-0.0150145 0.00715811 0)
(-0.0149183 0.00974387 0)
(-0.0145417 0.0103749 0)
(-0.0146593 0.00884051 0)
(-0.0156067 0.00617417 0)
(-0.0161848 0.00352841 0)
(-0.00119083 0.0129462 0)
(-0.00156461 0.0132655 0)
(-0.00200256 0.0118045 0)
(-0.00263561 0.00958613 0)
(-0.00343391 0.0069224 0)
(-0.00443285 0.00421032 0)
(-0.00570073 0.00193659 0)
(-0.00699908 0.000167421 0)
(-0.0079983 -0.00152276 0)
(-0.00871141 -0.00247915 0)
(-0.00937752 -0.00321876 0)
(-0.0104483 -0.00463164 0)
(-0.0123409 -0.00600041 0)
(-0.0145432 -0.00574304 0)
(-0.0160972 -0.00379139 0)
(-0.016833 -0.000769652 0)
(-0.0169242 0.00318091 0)
(-0.0165513 0.00681142 0)
(-0.0158802 0.0091667 0)
(-0.0150981 0.00988436 0)
(-0.0146364 0.00890823 0)
(-0.014697 0.00663287 0)
(-0.0146817 0.00318382 0)
(-0.000933069 0.01398 0)
(-0.0011811 0.0137512 0)
(-0.0016142 0.0123183 0)
(-0.00216208 0.0102834 0)
(-0.00293632 0.00785143 0)
(-0.00395849 0.00534571 0)
(-0.0051363 0.00318996 0)
(-0.00628111 0.0012814 0)
(-0.00733739 -0.000566291 0)
(-0.00839963 -0.00153866 0)
(-0.00954086 -0.00211527 0)
(-0.0109498 -0.00304233 0)
(-0.0128319 -0.00385275 0)
(-0.0148333 -0.00385603 0)
(-0.0162541 -0.00274729 0)
(-0.0168862 -0.000367102 0)
(-0.0168922 0.00298375 0)
(-0.0164065 0.00615747 0)
(-0.0155581 0.00827593 0)
(-0.0145318 0.00901934 0)
(-0.0135909 0.00833933 0)
(-0.0128814 0.00632717 0)
(-0.0122968 0.00271291 0)
(-0.000650654 0.0147739 0)
(-0.000864689 0.0141542 0)
(-0.00127931 0.012746 0)
(-0.00176511 0.0108922 0)
(-0.00246752 0.0087084 0)
(-0.00339949 0.0064197 0)
(-0.00443439 0.00429889 0)
(-0.00544858 0.00233374 0)
(-0.00656087 0.000594678 0)
(-0.0078602 -0.000238421 0)
(-0.00921787 -0.000739502 0)
(-0.010675 -0.00140439 0)
(-0.0123722 -0.00196015 0)
(-0.0141106 -0.00218961 0)
(-0.0154437 -0.00178095 0)
(-0.0160987 -8.69782e-05 0)
(-0.0160457 0.00266859 0)
(-0.0154748 0.00543933 0)
(-0.0145733 0.00726081 0)
(-0.0134229 0.00787963 0)
(-0.0121839 0.0072665 0)
(-0.0110008 0.00542372 0)
(-0.0100754 0.00217086 0)
(-0.000411032 0.0153723 0)
(-0.000590155 0.0145288 0)
(-0.000974046 0.0131432 0)
(-0.00141019 0.0114449 0)
(-0.00203305 0.00946975 0)
(-0.00284188 0.00736265 0)
(-0.00372691 0.00525894 0)
(-0.00466016 0.00334575 0)
(-0.00581189 0.00187734 0)
(-0.00716538 0.00117732 0)
(-0.00851476 0.000647044 0)
(-0.00985785 9.23682e-05 0)
(-0.0112753 -0.00037163 0)
(-0.0127155 -0.000713957 0)
(-0.0140088 -0.000732027 0)
(-0.0148228 0.000281362 0)
(-0.0148952 0.00231745 0)
(-0.014359 0.00470009 0)
(-0.0134488 0.00620412 0)
(-0.0122753 0.00661853 0)
(-0.010977 0.00596931 0)
(-0.00972533 0.00427112 0)
(-0.00876212 0.00154314 0)
(-0.000217151 0.0157312 0)
(-0.000343754 0.0148424 0)
(-0.000680857 0.0135042 0)
(-0.00106261 0.0119372 0)
(-0.00160026 0.0101346 0)
(-0.00229656 0.00817541 0)
(-0.0030817 0.0061095 0)
(-0.00399482 0.00436039 0)
(-0.00515156 0.00316933 0)
(-0.00642744 0.00250949 0)
(-0.00765019 0.00192087 0)
(-0.00882685 0.00137376 0)
(-0.00999001 0.000909524 0)
(-0.0111503 0.000539322 0)
(-0.0122893 0.000372093 0)
(-0.0131795 0.000835952 0)
(-0.0135195 0.00217898 0)
(-0.0131968 0.00401729 0)
(-0.0123574 0.00517383 0)
(-0.0112498 0.00539264 0)
(-0.010059 0.00472519 0)
(-0.00896962 0.00321901 0)
(-0.00821479 0.000992931 0)
(-6.86269e-05 0.0158938 0)
(-0.000129347 0.0150771 0)
(-0.00040353 0.0138135 0)
(-0.000726384 0.0123596 0)
(-0.00117958 0.0107056 0)
(-0.00178223 0.00889197 0)
(-0.0025396 0.0069359 0)
(-0.00347316 0.005387 0)
(-0.0045797 0.00438594 0)
(-0.00571947 0.00368634 0)
(-0.00678693 0.00304116 0)
(-0.00780443 0.00245778 0)
(-0.00878566 0.00195657 0)
(-0.00973659 0.00156149 0)
(-0.0106623 0.00134801 0)
(-0.0114865 0.00151726 0)
(-0.011971 0.00231984 0)
(-0.0118614 0.00350217 0)
(-0.0112052 0.00426628 0)
(-0.0102719 0.00432037 0)
(-0.00928305 0.00367719 0)
(-0.00841976 0.00239782 0)
(-0.00787324 0.000630218 0)
(3.23651e-05 0.0159068 0)
(4.09003e-05 0.0152247 0)
(-0.000163659 0.0140655 0)
(-0.000434795 0.0127165 0)
(-0.000822508 0.011197 0)
(-0.00135626 0.00954153 0)
(-0.00210023 0.00779031 0)
(-0.00304133 0.00640252 0)
(-0.00405957 0.0054728 0)
(-0.00504654 0.004708 0)
(-0.00597165 0.00401323 0)
(-0.00685465 0.00338827 0)
(-0.00770101 0.00284679 0)
(-0.00851309 0.00241424 0)
(-0.00928993 0.00214993 0)
(-0.00997915 0.00216691 0)
(-0.0104183 0.00256925 0)
(-0.0104158 0.00318714 0)
(-0.00997266 0.00357083 0)
(-0.00927718 0.00347465 0)
(-0.00852587 0.00286456 0)
(-0.00788343 0.00179225 0)
(-0.00749863 0.000392442 0)
(8.27631e-05 0.0158115 0)
(0.000163418 0.0152946 0)
(1.64976e-05 0.0142683 0)
(-0.000222823 0.0130294 0)
(-0.000577758 0.0116379 0)
(-0.00107405 0.010145 0)
(-0.00177151 0.00862842 0)
(-0.00264273 0.00736138 0)
(-0.00354467 0.00641508 0)
(-0.00439806 0.00559662 0)
(-0.00520653 0.00486021 0)
(-0.0059787 0.00419788 0)
(-0.00671601 0.00361886 0)
(-0.00741646 0.00314462 0)
(-0.00807 0.00281639 0)
(-0.00863086 0.00269377 0)
(-0.00899143 0.00280188 0)
(-0.00903505 0.00301986 0)
(-0.00875803 0.00309776 0)
(-0.00827871 0.00286486 0)
(-0.007744 0.00227423 0)
(-0.0072874 0.00136134 0)
(-0.00702045 0.000231574 0)
(0.000119587 0.015643 0)
(0.000245091 0.0153092 0)
(0.000129192 0.014443 0)
(-9.58739e-05 0.0133204 0)
(-0.000432503 0.012052 0)
(-0.000897715 0.0107091 0)
(-0.0015192 0.0093793 0)
(-0.00226529 0.00820427 0)
(-0.00303961 0.00723006 0)
(-0.00378337 0.00637452 0)
(-0.0044921 0.00560263 0)
(-0.0051681 0.00490578 0)
(-0.00580998 0.00428951 0)
(-0.00641199 0.00376895 0)
(-0.00695925 0.00336861 0)
(-0.00741403 0.00311442 0)
(-0.00770784 0.00300067 0)
(-0.00777454 0.00294324 0)
(-0.00761382 0.00279692 0)
(-0.00730007 0.00245078 0)
(-0.00693628 0.00186517 0)
(-0.00662219 0.00106307 0)
(-0.00643872 0.000120733 0)
(0.000162399 0.0154306 0)
(0.000264752 0.0153024 0)
(0.000164638 0.0146024 0)
(-3.95801e-05 0.0135924 0)
(-0.000347234 0.0124366 0)
(-0.000764464 0.0112198 0)
(-0.00129878 0.0100176 0)
(-0.00192227 0.00891121 0)
(-0.00257484 0.00793229 0)
(-0.00321469 0.00705248 0)
(-0.00383024 0.00625129 0)
(-0.00441767 0.00552226 0)
(-0.00497235 0.00486832 0)
(-0.00548601 0.00429852 0)
(-0.00594296 0.00382504 0)
(-0.00631407 0.00345538 0)
(-0.00655676 0.00317404 0)
(-0.00663509 0.00292323 0)
(-0.00655202 0.00261563 0)
(-0.00635549 0.0021809 0)
(-0.00611578 0.00159073 0)
(-0.00590405 0.000860361 0)
(-0.00577754 4.30156e-05 0)
(0.000158587 0.0152167 0)
(0.000225918 0.0153102 0)
(0.000134016 0.0147403 0)
(-3.05028e-05 0.0138314 0)
(-0.000294465 0.0127751 0)
(-0.000650381 0.0116602 0)
(-0.00109623 0.0105493 0)
(-0.00160945 0.00949657 0)
(-0.00215182 0.00852695 0)
(-0.00269344 0.00763468 0)
(-0.00322023 0.00681131 0)
(-0.00372433 0.00605362 0)
(-0.00419851 0.00536325 0)
(-0.00463317 0.00474479 0)
(-0.00501383 0.0042028 0)
(-0.00531896 0.00373597 0)
(-0.00552227 0.00332759 0)
(-0.0056048 0.00293809 0)
(-0.0055712 0.0025138 0)
(-0.00545326 0.00201065 0)
(-0.00529848 0.00141013 0)
(-0.00515623 0.000722864 0)
(-0.0050663 -1.44939e-05 0)
(9.32958e-05 0.0150458 0)
(0.000167196 0.0153337 0)
(8.64849e-05 0.0148486 0)
(-3.67831e-05 0.0140262 0)
(-0.000251724 0.0130569 0)
(-0.000542696 0.0120249 0)
(-0.000904837 0.0109844 0)
(-0.00132074 0.00997617 0)
(-0.00176506 0.00902206 0)
(-0.00221593 0.00812613 0)
(-0.00265937 0.00728744 0)
(-0.00308567 0.00650565 0)
(-0.00348605 0.00578203 0)
(-0.00385059 0.00511858 0)
(-0.00416669 0.00451581 0)
(-0.00441864 0.00396903 0)
(-0.00459012 0.0034636 0)
(-0.00467129 0.00297257 0)
(-0.00466712 0.00246242 0)
(-0.00459914 0.00190585 0)
(-0.0044994 0.00129146 0)
(-0.00440159 0.000627117 0)
(-0.00433295 -6.19733e-05 0)
(4.34958e-05 0.0149342 0)
(0.000110323 0.0153485 0)
(5.7108e-05 0.0149293 0)
(-3.74079e-05 0.0141785 0)
(-0.000205471 0.0132818 0)
(-0.000434464 0.0123172 0)
(-0.000720484 0.0113331 0)
(-0.00105101 0.0103632 0)
(-0.00140879 0.00942736 0)
(-0.00177748 0.00853379 0)
(-0.00214438 0.00768568 0)
(-0.00249934 0.00688475 0)
(-0.00283305 0.00613242 0)
(-0.00313586 0.00542948 0)
(-0.00339704 0.00477479 0)
(-0.00360501 0.00416309 0)
(-0.00374935 0.00358282 0)
(-0.00382494 0.00301579 0)
(-0.00383622 0.00244096 0)
(-0.00379793 0.0018416 0)
(-0.00373165 0.00121121 0)
(-0.00366015 0.000555857 0)
(-0.00360184 -0.000107023 0)
(-2.89188e-05 0.0148852 0)
(6.37114e-05 0.0153332 0)
(3.89418e-05 0.0149853 0)
(-3.03082e-05 0.0142935 0)
(-0.000152646 0.0134539 0)
(-0.000323588 0.012543 0)
(-0.000540918 0.0116052 0)
(-0.000796432 0.0106692 0)
(-0.00107821 0.00975283 0)
(-0.00137377 0.0088658 0)
(-0.00167195 0.00801324 0)
(-0.00196288 0.00719809 0)
(-0.0022374 0.00642215 0)
(-0.00248641 0.00568595 0)
(-0.00270077 0.00498808 0)
(-0.00287164 0.00432405 0)
(-0.00299202 0.00368544 0)
(-0.00305908 0.00306019 0)
(-0.00307634 0.00243522 0)
(-0.00305388 0.00180055 0)
(-0.00300618 0.00115285 0)
(-0.00294849 0.000497002 0)
(-0.00289311 -0.000154822 0)
(-7.14886e-05 0.0148857 0)
(2.69864e-05 0.0152973 0)
(1.49343e-05 0.0150163 0)
(-1.92774e-05 0.0143709 0)
(-9.46009e-05 0.0135748 0)
(-0.000209569 0.0127074 0)
(-0.00036434 0.0118089 0)
(-0.00055378 0.0109039 0)
(-0.000769282 0.0100081 0)
(-0.0010009 0.00913087 0)
(-0.00123878 0.00827807 0)
(-0.00147365 0.00745336 0)
(-0.00169668 0.00665893 0)
(-0.00189947 0.00589561 0)
(-0.00207405 0.00516249 0)
(-0.00221342 0.00445642 0)
(-0.00231244 0.00377173 0)
(-0.00236928 0.00310081 0)
(-0.00238646 0.00243579 0)
(-0.00237077 0.00177105 0)
(-0.00233186 0.0011053 0)
(-0.00227986 0.00044259 0)
(-0.00222287 -0.000208465 0)
(-6.83698e-05 0.01491 0)
(-3.40835e-06 0.0152727 0)
(-1.45467e-05 0.0150205 0)
(-2.39742e-06 0.0144051 0)
(-2.87598e-05 0.0136436 0)
(-8.96415e-05 0.0128139 0)
(-0.000187714 0.0119514 0)
(-0.000319513 0.0110766 0)
(-0.000478164 0.0102026 0)
(-0.000655184 0.00933799 0)
(-0.000841637 0.00848865 0)
(-0.00102875 0.00765857 0)
(-0.00120816 0.00685042 0)
(-0.00137205 0.00606558 0)
(-0.00151335 0.00530401 0)
(-0.00162615 0.00456406 0)
(-0.00170637 0.00384246 0)
(-0.0017525 0.00313482 0)
(-0.00176612 0.00243684 0)
(-0.0017517 0.00174574 0)
(-0.00171558 0.00106159 0)
(-0.00166442 0.000387825 0)
(-0.00160349 -0.000269315 0)
(-6.60558e-05 0.0149446 0)
(-3.06991e-05 0.0152717 0)
(-3.05822e-05 0.0149934 0)
(3.17307e-05 0.0143909 0)
(5.30623e-05 0.0136603 0)
(4.21211e-05 0.012867 0)
(-6.39294e-06 0.0120402 0)
(-8.95206e-05 0.0111962 0)
(-0.000201 0.0103458 0)
(-0.000333067 0.00949648 0)
(-0.000477283 0.00865379 0)
(-0.000625246 0.00782199 0)
(-0.00076898 0.00700424 0)
(-0.000901147 0.00620263 0)
(-0.00101531 0.00541819 0)
(-0.00110626 0.00465073 0)
(-0.00117046 0.00389901 0)
(-0.00120645 0.00316109 0)
(-0.00121499 0.00243515 0)
(-0.00119892 0.00172038 0)
(-0.00116236 0.00101774 0)
(-0.0011096 0.000330283 0)
(-0.00104405 -0.000337379 0)
(-9.12463e-05 0.014997 0)
(-5.08554e-05 0.0152685 0)
(-9.7084e-06 0.0149278 0)
(9.67919e-05 0.0143297 0)
(0.000162069 0.0136298 0)
(0.00019284 0.0128739 0)
(0.000184736 0.012084 0)
(0.000140369 0.0112725 0)
(6.58163e-05 0.0104477 0)
(-3.13009e-05 0.00961596 0)
(-0.000142734 0.00878257 0)
(-0.000260275 0.00795199 0)
(-0.000376278 0.00712799 0)
(-0.000483783 0.00631341 0)
(-0.000576782 0.00551043 0)
(-0.00065055 0.00472028 0)
(-0.000701836 0.0039434 0)
(-0.000729091 0.00317979 0)
(-0.000732499 0.00242946 0)
(-0.000713739 0.00169298 0)
(-0.000675433 0.000971992 0)
(-0.000620365 0.000269257 0)
(-0.00055071 -0.000411666 0)
(-0.000103684 0.0150605 0)
(-2.25181e-05 0.0152273 0)
(6.79272e-05 0.0148223 0)
(0.00020494 0.0142304 0)
(0.000304967 0.0135613 0)
(0.000367774 0.0128444 0)
(0.000389648 0.0120934 0)
(0.000373308 0.0113161 0)
(0.000325041 0.0105187 0)
(0.000252684 0.00970636 0)
(0.000164526 0.00888422 0)
(6.87117e-05 0.00805701 0)
(-2.7394e-05 0.00722911 0)
(-0.000117137 0.00640438 0)
(-0.000194791 0.00558605 0)
(-0.000256013 0.00477667 0)
(-0.000297738 0.00397818 0)
(-0.00031834 0.00319211 0)
(-0.000317581 0.0024199 0)
(-0.000296387 0.00166318 0)
(-0.000256415 0.000924083 0)
(-0.000199483 0.000205234 0)
(-0.00012702 -0.000490512 0)
(-6.17546e-05 0.015092 0)
(7.05323e-05 0.0151343 0)
(0.000194912 0.0146832 0)
(0.000355079 0.0141012 0)
(0.000482296 0.0134645 0)
(0.000568342 0.0127889 0)
(0.000609988 0.012079 0)
(0.000610898 0.0113379 0)
(0.000578257 0.0105693 0)
(0.000520533 0.00977761 0)
(0.000446306 0.00896784 0)
(0.000363685 0.00814525 0)
(0.000279947 0.00731493 0)
(0.000201456 0.00648185 0)
(0.000133534 0.00565026 0)
(8.02912e-05 0.00482398 0)
(4.46218e-05 0.00400626 0)
(2.81746e-05 0.00319994 0)
(3.14372e-05 0.00240757 0)
(5.39452e-05 0.00163168 0)
(9.46208e-05 0.000874784 0)
(0.000152212 0.00013948 0)
(0.000225705 -0.000571838 0)
(-7.38703e-06 0.015043 0)
(0.000186303 0.0149957 0)
(0.000351558 0.0145123 0)
(0.000539014 0.0139453 0)
(0.000690785 0.0133458 0)
(0.00079345 0.0127161 0)
(0.000845427 0.0120511 0)
(0.000853059 0.0113485 0)
(0.000825593 0.0106099 0)
(0.000772705 0.00983934 0)
(0.000703499 0.0090422 0)
(0.000626144 0.00822451 0)
(0.000547753 0.0073924 0)
(0.000474372 0.00655176 0)
(0.000410958 0.00570807 0)
(0.000361342 0.00486626 0)
(0.000328229 0.00403077 0)
(0.000313225 0.00320556 0)
(0.000316928 0.00239418 0)
(0.000339109 0.00159985 0)
(0.000378993 0.000825496 0)
(0.000435606 7.37258e-05 0)
(0.000508109 -0.000653369 0)
(5.05836e-05 0.0149023 0)
(0.000304937 0.0148055 0)
(0.000525794 0.0143029 0)
(0.000750259 0.0137593 0)
(0.000927818 0.0132079 0)
(0.00104157 0.0126338 0)
(0.00109438 0.0120196 0)
(0.00109816 0.0113584 0)
(0.0010657 0.0106505 0)
(0.00100845 0.00990069 0)
(0.000936129 0.00911546 0)
(0.000856909 0.00830205 0)
(0.000777614 0.00746775 0)
(0.000703885 0.00661958 0)
(0.000640273 0.0057641 0)
(0.000590279 0.00490735 0)
(0.000556384 0.00405483 0)
(0.000540087 0.00321148 0)
(0.00054199 0.00238173 0)
(0.000561943 0.00156945 0)
(0.000599272 0.000777964 0)
(0.000653073 9.92801e-06 0)
(0.000722505 -0.000732789 0)
(0.00010409 0.0146763 0)
(0.000428662 0.0145494 0)
(0.000716729 0.014042 0)
(0.000988988 0.013536 0)
(0.00119385 0.0130523 0)
(0.00131149 0.0125499 0)
(0.00135398 0.0119952 0)
(0.00134276 0.011378 0)
(0.00129558 0.0107006 0)
(0.00122573 0.00996995 0)
(0.00114334 0.00919482 0)
(0.00105628 0.0083841 0)
(0.000970888 0.00754645 0)
(0.000892243 0.00669004 0)
(0.000824414 0.00582247 0)
(0.000770526 0.00495078 0)
(0.0007328 0.00408141 0)
(0.000712594 0.00322021 0)
(0.00071045 0.00237237 0)
(0.0007262 0.00154241 0)
(0.000759139 0.000734048 0)
(0.000808263 -4.99452e-05 0)
(0.000872595 -0.000807871 0)
(0.000176207 0.0143624 0)
(0.000568032 0.0142152 0)
(0.000935446 0.0137162 0)
(0.00126241 0.013267 0)
(0.00149139 0.0128834 0)
(0.00160066 0.0124761 0)
(0.00161857 0.01199 0)
(0.00158079 0.011418 0)
(0.00151026 0.0107687 0)