/*--------------------------------*- C++ -*----------------------------------*\
  =========                 |
  \\      /  F ield         | OpenFOAM: The Open Source CFD Toolbox
   \\    /   O peration     | Website:  https://openfoam.org
    \\  /    A nd           | Version:  9
     \\/     M anipulation  |
\*---------------------------------------------------------------------------*/
FoamFile
{
    format      ascii;
    class       volScalarField;
    location    "3.4";
    object      p_rgh;
}
// * * * * * * * * * * * * * * * * * * * * * * * * * * * * * * * * * * * * * //

dimensions      [1 -1 -2 0 0 0 0];

internalField   nonuniform List<scalar> 
2268
(
782.323
782.029
781.292
780.062
778.375
776.265
773.777
770.959
767.869
764.571
761.152
757.679
754.225
750.854
747.616
744.529
741.618
738.795
736.022
735.555
735.571
735.584
735.535
782.369
782.058
781.322
780.088
778.403
776.296
773.81
770.992
767.901
764.603
761.164
757.666
754.181
750.778
747.509
744.411
741.557
738.253
736.071
735.018
735.707
735.857
735.616
782.498
782.173
781.433
780.192
778.502
776.391
773.898
771.07
767.965
764.646
761.181
757.65
754.13
750.695
747.412
744.348
741.572
737.227
735.889
734.473
734.768
735.838
735.98
782.725
782.402
781.657
780.405
778.7
776.572
774.059
771.207
768.071
764.714
761.207
757.632
754.07
750.601
747.311
744.3
741.816
738.79
735.296
733.893
735.366
735.734
735.871
783.056
782.741
781.995
780.729
779.002
776.844
774.299
771.408
768.224
764.811
761.246
757.613
753.995
750.482
747.172
744.18
741.728
740.318
737.465
736.494
736.132
735.495
735.71
783.495
783.192
782.445
781.165
779.407
777.209
774.62
771.677
768.427
764.939
761.298
757.59
753.9
750.325
746.97
743.957
741.457
739.88
738.76
737.272
735.606
735.081
735.55
784.046
783.756
783.01
781.711
779.914
777.664
775.02
772.013
768.68
765.097
761.361
757.562
753.781
750.123
746.696
743.62
741.032
739.199
737.792
736.273
734.745
734.359
735.151
784.715
784.435
783.684
782.363
780.514
778.199
775.491
772.409
768.976
765.278
761.431
757.526
753.638
749.877
746.352
743.176
740.466
738.392
736.739
735.143
733.634
733.16
734.927
741.752
743.193
745.386
748.126
751.096
754.372
757.994
762.071
766.202
769.859
773.533
775.247
776.768
779.886
783.75
784.689
783.706
783.816
784.57
741.643
743.027
745.1
748.017
751.256
754.726
758.531
762.597
766.672
770.205
773.751
774.706
776.909
779.648
784.651
784.915
784.247
785.029
785.411
742.216
743.203
745.086
747.864
750.98
754.631
758.644
762.724
766.416
770.726
774.368
773.152
776.785
779.939
786.097
787.401
781.926
785.041
786.022
741.596
742.722
744.697
747.524
750.744
754.536
758.677
762.627
766.57
771.107
775.519
773.201
776.39
782.546
786.821
787.558
780.688
781.299
786.104
740.763
742.164
744.32
747.197
750.493
754.397
758.634
763.139
766.854
771.9
776.307
778.814
777.425
785.118
787.917
789.453
783.965
775.998
786.175
739.831
741.774
743.929
746.827
750.151
754.084
758.5
763.172
768.218
772.751
777.129
782.492
785.932
788.092
789.104
790.899
793.757
775.115
786.136
738.819
741.408
743.516
746.394
749.716
753.514
757.875
762.922
768.186
772.968
777.281
781.965
786.376
788.693
790.326
792.446
795.031
779.447
773.031
736.324
740.925
743.057
745.92
749.131
753.746
748.914
754.152
764.302
769.266
771.461
780.907
786.847
789.439
791.564
794.063
796.781
791.139
766.982
785.95
785.687
784.927
783.568
781.617
779.177
776.357
773.148
769.526
765.599
761.544
757.452
753.366
749.406
745.681
742.289
739.335
736.908
734.917
733.166
731.593
730.489
730.201
787.75
787.734
787.002
785.542
783.34
780.618
777.582
774.149
767.855
758.152
748
738.137
727.081
716.083
705.691
696.274
688.198
682.062
677.336
673.122
668.832
665.576
664.755
468.648
470.397
466.468
456.96
441.374
421.051
400.046
373.244
344.711
318.566
292.463
266.297
241.778
219.293
199.077
181.773
167.726
156.684
147.763
140.032
132.897
127.559
125.608
6.01395
5.97114
6.28435
5.76066
4.83047
4.19713
2.2567
2.17035
2.46816
2.60509
2.61054
2.54113
2.49904
2.44891
2.36563
2.22205
2.11872
1.94598
1.74662
1.51711
1.27214
1.17072
1.29744
3.26102
5.37485
2.32592
2.03774
5.17944
7.0151
3.92976
4.00315
8.71408
9.74989
9.75085
8.09075
7.92038
8.1972
6.65246
5.07969
6.58515
6.46909
6.31635
5.29149
2.29269
1.13725
1.18152
2.69672
3.09847
3.95673
1.92759
3.01315
6.12399
7.6905
7.71584
7.6506
8.9542
8.75194
8.84107
8.831
8.20379
8.20645
8.2057
6.83396
4.43394
2.24565
0.800123
0.760131
0.895863
1.27013
3.09367
3.08221
4.03728
1.87243
1.97021
1.90961
1.84284
2.7534
1.94601
0.189376
0.0104857
0.187565
0.00806982
0.00927833
0.0140158
0.0258918
0.0554091
0.0986692
1.21772
0.734836
0.620546
0.617541
1.46607
3.13114
2.03208
2.28275
2.42966
2.42023
2.34569
1.17584
0.00747529
0.000532682
0.00651503
0.00686962
0.00661283
0.0111558
0.0196918
0.0220549
0.0462021
0.183577
0.194191
0.860574
1.22507
1.01779
0.571629
0.833039
0.156811
0.00377103
0.0227393
0.860902
0.957523
0.268044
-1.78962e-05
-0.00574902
-0.00333621
0.00122921
0.0042156
0.00639124
0.0187147
0.029684
0.01987
0.0236483
0.0296853
0.0367604
0.179535
0.817299
0.923413
0.551291
0.0682066
-0.033804
-0.027042
-0.0295206
-0.0324449
-0.032617
-0.0251
-0.0169987
-0.0104001
-0.00577972
-0.00104106
0.007017
0.00979862
0.00849393
0.011444
0.0154362
0.019709
0.0238922
0.0265608
0.024165
0.0212543
0.0323775
0.0782848
0.0379826
-0.0272189
-0.0231263
-0.0237587
-0.0249662
-0.0253268
-0.0218092
-0.0165618
-0.0112636
-0.00649079
0.0025619
0.00601959
0.00733129
0.0066284
0.0099124
0.013347
0.0167085
0.0198012
0.0217904
0.0215593
0.0216512
0.0248647
0.033616
0.034675
-0.0227937
-0.0208511
-0.0208967
-0.0212273
-0.0208615
-0.0185762
-0.0149164
-0.0108991
-0.00612755
-0.00039996
0.00115893
0.00247059
0.00552955
0.00847388
0.0113603
0.0141325
0.0165838
0.0183296
0.0190755
0.0224109
0.0341272
0.0374264
0.0391227
-0.0191004
-0.0184612
-0.0183784
-0.018323
-0.0176943
-0.0159328
-0.0132551
-0.0101249
-0.00700804
-0.00405819
-0.00114211
0.00165446
0.00436776
0.00700977
0.00955816
0.0119271
0.0139917
0.015578
0.0165707
0.0210838
0.0331305
0.0346158
0.0356736
-0.0159305
-0.0160251
-0.0161053
-0.0160323
-0.0153431
-0.0139097
-0.01183
-0.00936961
-0.00676885
-0.00413657
-0.00155264
0.000963273
0.00340495
0.00575691
0.00799037
0.0100455
0.0118447
0.0132992
0.0143683
0.0151972
0.0166958
0.0278788
0.0315743
-0.0131266
-0.0134085
-0.0137895
-0.014178
-0.0135237
-0.0123191
-0.0106303
-0.00860957
-0.00641016
-0.00413496
-0.0018558
0.000386511
0.00256542
0.00465642
0.00662879
0.00843848
0.0100356
0.0113722
0.0124339
0.0132875
0.0140114
0.0146283
0.0152374
-0.010622
-0.011126
-0.0119103
-0.0125887
-0.0120309
-0.0110135
-0.0096072
-0.00791512
-0.00604354
-0.00407601
-0.00207646
-9.17971e-05
0.00184443
0.00370347
0.0054548
0.00706366
0.00849598
0.00972338
0.0107377
0.0115646
0.0122338
0.0127448
0.0130599
-0.00852556
-0.00933997
-0.010191
-0.0110869
-0.010758
-0.00990724
-0.00872399
-0.00729088
-0.00568835
-0.00398456
-0.00223522
-0.000484635
0.00123224
0.00288552
0.00444615
0.00588503
0.00717639
0.00830064
0.00924977
0.01003
0.0106497
0.0111033
0.0113657
-0.00694299
-0.00783513
-0.00879942
-0.00981889
-0.00965154
-0.00894752
-0.00794841
-0.00672671
-0.00534841
-0.00387043
-0.00234054
-0.000798635
0.000721994
0.00219242
0.00358562
0.0048763
0.00604304
0.00706996
0.00794792
0.00867362
0.00924554
0.00965607
0.00988886
-0.00587884
-0.0066819
-0.00772344
-0.00889493
-0.00867614
-0.00809652
-0.0072518
-0.00620615
-0.00501667
-0.00373199
-0.00239323
-0.00103564
0.00031036
0.00161783
0.00286194
0.00402022
0.00507383
0.00600852
0.00681417
0.007483
0.00800913
0.0083847
0.00859882
-0.00515422
-0.00653602
-0.00744621
-0.00795779
-0.00780139
-0.00732436
-0.00660917
-0.00571225
-0.00468346
-0.00356506
-0.00239272
-0.00119743
-6.51666e-06
0.00115534
0.00226546
0.0033036
0.00425273
0.00509961
0.00583364
0.00644514
0.00692664
0.0072706
0.00746957
-0.00462288
-0.0059725
-0.00682007
-0.00711665
-0.00700386
-0.00660796
-0.00600038
-0.00522982
-0.00433931
-0.00336529
-0.00233876
-0.00128693
-0.000234261
0.000796787
0.0017855
0.00271348
0.00356521
0.00432828
0.00499218
0.0055467
0.00598402
0.00629713
0.00648078
-0.00427886
-0.00540937
-0.00610474
-0.00635398
-0.0062617
-0.00592751
-0.00540878
-0.00474622
-0.00397586
-0.00312854
-0.00223109
-0.00130736
-0.000379149
0.000533178
0.00141072
0.00223675
0.00299704
0.00368011
0.00427583
0.0047742
0.00516766
0.00544976
0.00561659
-0.00405757
-0.00494778
-0.00546315
-0.00564234
-0.0055547
-0.00526701
-0.00482191
-0.0042523
-0.00358713
-0.00285207
-0.00207015
-0.00126216
-0.000447375
0.000355898
0.00113054
0.00186135
0.00253539
0.00314204
0.00367182
0.00411529
0.00446533
0.00471605
0.0048643
-0.0038786
-0.00447949
-0.00485133
-0.00495366
-0.00486587
-0.00461515
-0.00423235
-0.0037433
-0.00317085
-0.00253608
-0.00185852
-0.00115611
-0.000445686
0.000256508
0.000935143
0.00157654
0.00216896
0.00270266
0.00316888
0.00355886
0.00386605
0.00408496
0.00421287
-0.00370241
-0.00341199
-0.00164852
-0.00293579
-0.00418444
-0.00396871
-0.00363859
-0.00321956
-0.00272931
-0.00218473
-0.00160207
-0.000996552
-0.000382615
0.000225534
0.000814361
0.00137167
0.00188685
0.00235101
0.00275609
0.00309408
0.00335896
0.0035456
0.00365151
-0.00346006
-0.00283061
-0.000558679
-0.000514718
-0.00302702
-0.00333085
-0.00304429
-0.0026863
-0.00226933
-0.00180633
-0.00131033
-0.000793935
-0.000269227
0.000251536
0.000756539
0.00123498
0.0016773
0.00207539
0.00242187
0.00270948
0.00293274
0.00308684
0.00316947
-0.00319668
-0.00270077
0.000131071
0.000211702
-0.00193005
-0.00270678
-0.00245659
-0.0021526
-0.00180157
-0.00141264
-0.000995832
-0.000561139
-0.000118679
0.000321336
0.00074862
0.00115361
0.00152767
0.00186343
0.00215414
0.00239333
0.00257605
0.00269789
0.00275673
-0.00288563
-0.00270079
0.000641328
0.000554037
-0.00168793
-0.00210207
-0.00188566
-0.0016304
-0.00133906
-0.00101739
-0.000672618
-0.000312431
5.50866e-05
0.000421288
0.000777273
0.00111457
0.00142539
0.00170298
0.00194125
0.00213452
0.00227847
0.00236912
0.00240465
-0.00256122
-0.00223177
-0.00150328
-0.0015443
-0.00164661
-0.00152819
-0.00134401
-0.00113323
-0.000895709
-0.000634484
-0.000354405
-6.11102e-05
0.000239027
0.000538727
0.000830265
0.00110609
0.00135911
0.00158317
0.00177287
0.00192335
0.00203096
0.00209229
0.00210587
-0.00224071
-0.00179322
-0.00148559
-0.00129914
-0.0011493
-0.00100271
-0.000847046
-0.00067527
-0.000484868
-0.000276634
-5.33211e-05
0.000181208
0.000422009
0.000662985
0.000897367
0.00111833
0.00131939
0.00149494
0.00164029
0.0017515
0.00182569
0.00186007
0.00185358
-0.00194309
-0.00142259
-0.00106114
-0.000836781
-0.000678638
-0.000542327
-0.00040887
-0.00026886
-0.000117728
4.57988e-05
0.000220891
0.000405273
0.00059525
0.000785708
0.000970597
0.00114362
0.00129875
0.00143091
0.00153619
0.00161168
0.00165539
0.00166525
0.00164069
-0.00167773
-0.00111807
-0.000713065
-0.000456379
-0.00028749
-0.000155857
-3.79028e-05
7.79499e-05
0.000198012
0.000325416
0.000461094
0.000604226
0.000752218
0.000900691
0.00104404
0.00117622
0.00129147
0.00138516
0.00145427
0.00149716
0.00151295
0.00150041
0.00145947
-0.00143788
-0.00086216
-0.000428473
-0.000149364
2.72023e-05
0.000156142
0.000263527
0.000361783
0.000458295
0.000557707
0.000662537
0.000773304
0.0008883
0.00100357
0.00111357
0.00121212
0.00129338
0.001353
0.00138905
0.00140166
0.00139137
0.00135801
0.00130199
-0.00121708
-0.000630934
-0.000188008
9.68081e-05
0.000273332
0.000398249
0.000497558
0.000582926
0.000661978
0.000740502
0.000822452
0.000909504
0.00100054
0.00109162
0.00117673
0.00124898
0.00130189
0.00133101
0.00133594
0.00131942
0.00128406
0.00123089
0.00116083
-0.00101277
-0.00041346
2.3448e-05
0.000295113
0.000460382
0.000577109
0.000668406
0.000743514
0.00080954
0.000873135
0.000939515
0.00101127
0.00108749
0.00116373
0.00123282
0.00128639
0.00131643
0.00131749
0.0012914
0.00124541
0.00118504
0.00111272
0.00102966
-0.000820514
-0.000201375
0.000216187
0.000455504
0.000596188
0.00069815
0.000779433
0.000845262
0.000901534
0.000955473
0.00101332
0.00107825
0.00114915
0.00122048
0.00128322
0.00132658
0.00133953
0.00131327
0.00125328
0.00117528
0.00108902
0.000998093
0.000903464
-0.000638761
1.31871e-05
0.000400091
0.000584978
0.000684075
0.00076219
0.000830235
0.000887344
0.000937176
0.000987046
0.00104383
0.00111092
0.00118661
0.00126389
0.00133143
0.00137511
0.00137832
0.00132302
0.00122088
0.00110505
0.000990955
0.000882189
0.000778207
-0.000473111
0.000229497
0.000579364
0.000683235
0.0007192
0.000762993
0.000815275
0.000865557
0.000913582
0.00096601
0.00102981
0.00110821
0.0011989
0.00129374
0.00137947
0.00143803
0.00144334
0.00135368
0.00119258
0.00102923
0.00088489
0.000760019
0.000650264
-0.000338964
0.000430034
0.000737727
0.000728399
0.000681524
0.000686168
0.000725329
0.00077426
0.000827311
0.000889874
0.000968492
0.00106605
0.00118018
0.00130277
0.00142037
0.00151347
0.0015449
0.0014099
0.00115735
0.00093395
0.000760104
0.000624563
0.000515532
-0.000244964
0.000579188
0.000787152
0.000631987
0.000510055
0.000495882
0.000542741
0.00060959
0.000685405
0.000774008
0.00088127
0.0010098
0.00115779
0.00131737
0.00147504
0.0016273
0.00175358
0.00154796
0.00110097
0.000788999
0.000595576
0.000464497
0.000368568
-8.60333e-05
0.00053679
0.000342361
0.000125666
4.6132e-05
9.93661e-05
0.000223405
0.000369929
0.000523913
0.000687209
0.000865885
0.00106334
0.00127954
0.00150779
0.00173791
0.0020059
0.00244424
0.00211645
0.00107831
0.000578062
0.000377283
0.000273247
0.000206433
0.000681884
-0.00226015
-0.00163811
-0.00110536
-0.000751795
-0.000450189
-0.000170769
8.28216e-05
0.000319293
0.000553272
0.000794672
0.0010524
0.00133728
0.00166817
0.00211286
0.00287233
0.00397986
0.00349201
0.00118289
0.000415087
0.000183703
9.24272e-05
4.92099e-05
729.181
730.028
731.634
733.469
659.733
655.404
655.12
658.066
124.563
127.415
134.813
144.945
1.63642
2.15812
2.68035
3.17478
1.36907
4.15152
5.12309
5.13686
2.99317
4.36511
2.96324
2.73023
1.44437
0.626093
0.16177
1.1892
0.654806
0.21264
0.0872342
0.14812
0.0488888
0.0716682
0.0572713
0.0423391
0.0385785
0.0381485
0.0385206
0.0339391
0.0309756
0.0306357
0.0296402
0.0278254
0.0389501
0.0333202
0.0247121
0.0234607
0.0355967
0.0354208
0.0323885
0.0198783
0.0184261
0.0182925
0.0184324
0.017768
0.0150812
0.0149844
0.0148298
0.0146146
0.0130616
0.0129978
0.0128615
0.0126644
0.011367
0.0113127
0.0112016
0.0110427
0.00990061
0.00986036
0.00977311
0.00964646
0.00862188
0.00859486
0.00852733
0.00842558
0.00750149
0.00748526
0.00743333
0.00735078
0.00651774
0.00650945
0.00646938
0.00640156
0.00565479
0.00565161
0.00562015
0.00556339
0.00490046
0.00489981
0.00487412
0.00482526
0.00424408
0.00424363
0.00422123
0.00417766
0.00367519
0.00367304
0.00365193
0.0036116
0.00318359
0.0031784
0.00315717
0.00311868
0.00276014
0.00275116
0.00272893
0.00269138
0.00239717
0.00238405
0.00236029
0.00232301
0.00208806
0.00207072
0.00204501
0.00200739
0.00182644
0.0018049
0.00177683
0.00173825
0.0016052
0.00157955
0.00154877
0.00150871
0.00141642
0.00138678
0.00135314
0.0013114
0.00125192
0.00121855
0.00118222
0.001139
0.0011042
0.00106755
0.00102903
0.000984974
0.000967137
0.000927885
0.000887969
0.000844025
0.000836124
0.000795205
0.000754928
0.000712228
0.00070775
0.000666413
0.00062704
0.000586852
0.000579263
0.000539177
0.000502259
0.000465986
0.000448142
0.000411645
0.000379129
0.000348337
0.000311689
0.000282142
0.000256577
0.000233215
0.000168169
0.00015
0.000134996
0.000121398
2.93487e-05
2.07179e-05
1.3988e-05
8.27835e-06
736.691
739.92
742.198
739.241
724.774
731.308
735.841
729.953
741.907
757.199
775.626
783.785
787.721
790.803
793.398
796.655
799.958
798.476
768.595
653.163
641.985
624.045
636.024
663.564
688.722
705.562
712.378
717.616
726.909
739.648
751.55
762.21
767.774
770.387
784.203
801.282
804.161
803.51
167.378
216.792
264.347
296.499
322.227
345.439
380.963
422.91
450.78
465.149
472.679
483.979
498.747
513.313
526.597
536.635
551.573
588.952
610.749
2.6886
1.57138
1.34799
1.4076
1.93898
2.44322
2.19449
3.88989
9.4435
15.8571
22.2369
28.498
34.0333
39.108
43.724
46.2605
48.3594
44.8703
41.9047
4.48684
1.36492
1.34716
1.35508
1.69475
2.49206
1.7718
1.65337
1.86791
1.97364
1.99012
1.99303
2.06068
2.07517
2.12093
1.97718
1.82149
1.86484
1.86922
1.81237
1.33156
1.33289
1.33027
2.61126
3.06641
3.06587
3.05049
2.9902
3.00063
2.98561
2.96214
1.9056
2.35835
2.41361
2.39746
1.62982
1.18614
1.88904
2.35434
2.41612
2.47132
2.45943
2.41455
2.43921
2.31532
2.10738
2.07878
2.18192
1.9806
1.85904
1.70689
1.65914
1.81815
1.85894
1.56078
0.873793
1.42809
1.02215
1.05423
1.2953
1.25014
0.544929
0.0267895
0.171353
0.190902
0.0933346
0.089296
0.0914722
0.156316
0.21228
0.125975
0.0867375
0.18181
0.574061
0.449213
0.384999
0.0263171
0.0203535
0.0142145
0.0117522
0.0133688
0.0156961
0.0144531
0.01342
0.0124414
0.010281
0.00928336
0.00921507
0.032982
0.0721981
0.00329598
-0.00332912
-0.00830397
-0.00454087
-0.00690494
0.025953
0.0207775
0.0160718
0.0132072
0.0131343
0.0132093
0.011376
0.00950981
0.00991974
0.00894394
0.00925224
0.0774175
0.126747
0.124053
0.0725181
-0.000515668
-0.00243475
-0.00151264
-0.00357461
0.0237803
0.0197763
0.0161068
0.0135934
0.0128097
0.0259367
0.0480998
0.0379121
0.0107317
0.0281763
0.122145
0.134775
0.131612
0.0941816
0.00132284
0.00205624
0.00442514
0.00150537
-0.000886884
0.0214679
0.0181624
0.0152909
0.0130483
0.0294342
0.05383
0.0518103
0.0499299
0.0232624
0.0705111
0.141737
0.139046
0.0467602
0.00849673
0.0134808
0.0695548
0.0872312
0.0611932
0.0391738
0.0184865
0.0162943
0.0140075
0.011901
0.0224901
0.0541949
0.0522396
0.0361768
0.00846006
0.0303784
0.0567038
0.0254066
-0.00485567
0.0113276
0.089034
0.0902835
0.0891827
0.0887659
0.088345
0.016503
0.0144499
0.0126002
0.0110325
0.0109793
0.0168759
0.0189409
0.00524423
0.00126476
-0.00120843
-0.00391868
-0.00525524
-0.00567583
0.0247295
0.0929627
0.0918801
0.0354292
0.0154389
0.0709871
0.0140749
0.0128231
0.0115074
0.00992243
0.00789644
0.00587128
0.00406224
0.00255938
0.00092021
-0.00116809
-0.00328999
-0.00487304
-0.00616504
0.00923334
0.0382325
0.00955092
-0.0111293
-0.0117506
0.00634007
0.0122412
0.0112663
0.0100369
0.00862109
0.00730326
0.00602677
0.00409123
0.00233663
0.000724628
-0.00111912
-0.00299718
-0.00465146
-0.00596765
-0.00648549
-0.00933416
-0.0108871
-0.0113252
-0.00615314
0.0371855
0.0107027
0.00990935
0.0088877
0.00771286
0.00691623
0.00573221
0.0043038
0.00255783
0.000553175
-0.0011161
-0.00281793
-0.00443326
-0.00600036
-0.00768203
-0.00926796
-0.0103245
-0.0111187
-0.0109984
0.03677
0.00937202
0.00872306
0.00786663
0.00684449
0.00581824
0.00511692
0.00395632
0.00261482
0.000724526
-0.00114064
-0.00268984
-0.0042109
-0.00570842
-0.00719677
-0.00855323
-0.00958315
-0.0103596
-0.0110375
-0.0101459
0.00820029
0.00766098
0.00693434
0.00605066
0.00503629
0.00397757
0.00303117
0.00186682
0.000414988
-0.00108332
-0.00239837
-0.00385311
-0.0053446
-0.0066709
-0.00783217
-0.00870575
-0.00924506
-0.00945484
-0.00654232
0.00716318
0.00670813
0.00608436
0.0053147
0.00442147
0.00342709
0.00235418
0.00121704
2.63333e-05
-0.00106551
-0.00222733
-0.0034972
-0.00486423
-0.00616389
-0.00715979
-0.00788229
-0.00824009
-0.00824301
0.0383579
0.00624296
0.00585302
0.00531125
0.00463517
0.00384332
0.0029538
0.0019846
0.000949269
-0.000142895
-0.00125045
-0.00228439
-0.00336928
-0.00459449
-0.00569905
-0.00657077
-0.00719719
-0.00749359
-0.0074663
0.0469541
0.00542677
0.00508714
0.00461104
0.00401221
0.00330615
0.00250789
0.00163265
0.000693794
-0.000296756
-0.00132463
-0.0023672
-0.0033931
-0.00438372
-0.00528652
-0.00605604
-0.00662388
-0.00691166
-0.00687577
0.0497202
0.00470472
0.00440383
0.00398064
0.00344613
0.00281343
0.00209542
0.00130553
0.000456757
-0.000438007
-0.00136334
-0.00229929
-0.00322101
-0.00410029
-0.0049045
-0.00559332
-0.00611762
-0.00640887
-0.00635186
0.0514941
0.00406844
0.00379734
0.0034171
0.00293669
0.00236738
0.00172039
0.00100789
0.000242287
-0.000563303
-0.00139363
-0.0022302
-0.00305104
-0.00383149
-0.00454414
-0.00515906
-0.00564572
-0.0059496
-0.00588595
0.0541543
0.00351021
0.00326217
0.00291722
0.00248287
0.00196883
0.00138495
0.000742487
5.31604e-05
-0.000670198
-0.00141274
-0.00215708
-0.00288322
-0.00356907
-0.00419116
-0.00472754
-0.00516322
-0.00546065
-0.00540758
0.055448
0.00302273
0.00279285
0.00247741
0.00208272
0.00161722
0.0010897
0.000510459
-0.000109363
-0.000757349
-0.00141905
-0.00207767
-0.00271402
-0.0033067
-0.00383292
-0.00427191
-0.00461029
-0.00481078
-0.0046716
0.00907668
0.00259924
0.00238398
0.00209359
0.0017335
0.00131092
0.000833738
0.000311469
-0.000245368
-0.000824783
-0.0014126
-0.00199215
-0.00254388
-0.00304506
-0.0034697
-0.00378972
-0.0039747
-0.00396389
-0.00360324
-0.00295323
0.00223342
0.00203024
0.00176144
0.00143173
0.00104728
0.000615138
0.00014405
-0.000356102
-0.000873791
-0.00139511
-0.00190326
-0.00237778
-0.0027936
-0.00311959
-0.00331612
-0.00332619
-0.00305872
-0.00246292
-0.0016041
0.00191922
0.00172618
0.00147623
0.00117343
0.000823018
0.000431204
5.95498e-06
-0.000443565
-0.000906429
-0.00136916
-0.00181505
-0.00222303
-0.00256614
-0.00280919
-0.00290304
-0.00276984
-0.00230075
-0.00153062
0.00639181
0.00165043
0.0014661
0.00123287
0.000954164
0.000634339
0.000278768
-0.000105458
-0.000510027
-0.000924835
-0.00133719
-0.00173101
-0.00208559
-0.00237387
-0.00255994
-0.00259284
-0.00239194
-0.00185566
-0.00106417
0.058774
0.00142052
0.00124397
0.00102594
0.000769202
0.000477214
0.000154478
-0.000192891
-0.000557603
-0.000930632
-0.00130049
-0.00165237
-0.00196703
-0.00221924
-0.00237574
-0.00239096
-0.00219682
-0.00171341
-0.00101835
0.0641952
0.00122271
0.00105361
0.000849955
0.000613776
0.000347612
5.50591e-05
-0.000258842
-0.000587969
-0.000924607
-0.00125881
-0.0015776
-0.00186401
-0.00209569
-0.00224353
-0.00226927
-0.00211974
-0.00172895
-0.00111368
0.065903
0.00105041
0.000889142
0.000699712
0.000483379
0.000241759
-2.24849e-05
-0.000305446
-0.000602269
-0.000906712
-0.0012106
-0.00150315
-0.00177005
-0.00199229
-0.00214501
-0.00219654
-0.00210522
-0.00180872
-0.00125107
0.0676229
0.000897749
0.000745312
0.000570584
0.000374018
0.000156331
-8.07363e-05
-0.000334416
-0.000601146
-0.000876237
-0.00115342
-0.00142425
-0.00167727
-0.00189682
-0.00206187
-0.00214582
-0.00211456
-0.00190443
-0.00140091
0.0692445
0.000759908
0.000617808
0.000458741
0.000282367
8.85496e-05
-0.000121822
-0.000347064
-0.000584866
-0.000832081
-0.00108437
-0.00133569
-0.00157748
-0.00179724
-0.00197694
-0.00209249
-0.00211063
-0.00195689
-0.00147078
0.0481053
0.000633224
0.000503325
0.000361207
0.000205789
3.61828e-05
-0.000147464
-0.000344422
-0.00055352
-0.000773064
-0.0010006
-0.00123252
-0.00146325
-0.00168346
-0.00187765
-0.00202189
-0.00207634
-0.00194165
-0.00141377
0.0346104
0.00051508
0.000399477
0.000275773
0.000142256
-2.56505e-06
-0.000159117
-0.000327423
-0.000507277
-0.000698267
-0.000899708
-0.00111046
-0.00132835
-0.00154793
-0.00175744
-0.00193395
-0.00202804
-0.00191077
-0.00134053
0.0352116
0.000403602
0.000304536
0.000200756
9.01112e-05
-2.92641e-05
-0.000158168
-0.000297124
-0.000446631
-0.000607298
-0.000779974
-0.000965974
-0.00116713
-0.00138336
-0.00160971
-0.00182944
-0.00198446
-0.00193369
-0.00137793
0.0375375
0.000297518
0.00021735
0.00013496
4.80771e-05
-4.52294e-05
-0.000145896
-0.000254663
-0.000372401
-0.000500345
-0.000640443
-0.000796163
-0.000973289
-0.00117846
-0.00141777
-0.00168277
-0.00195763
-0.0020484
-0.00156287
0.0381877
0.000196426
0.000137741
7.81519e-05
1.57678e-05
-5.10055e-05
-0.000122967
-0.000200787
-0.000285322
-0.000377894
-0.000480801
-0.000598634
-0.000739634
-0.000915959
-0.001148
-0.00147091
-0.0019492
-0.00230652
-0.00190519
0.0385345
0.000100089
6.49075e-05
2.91947e-05
-8.18711e-06
-4.8142e-05
-9.10846e-05
-0.000137372
-0.000187503
-0.000242345
-0.000303667
-0.000375498
-0.000465779
-0.000588641
-0.000784283
-0.00118418
-0.00191976
-0.0028167
-0.00253148
0.0316006
-3.82337e-08
-1.33659e-05
-2.62152e-05
-3.90506e-05
-5.20706e-05
-6.5339e-05
-7.89428e-05
-9.30555e-05
-0.000108088
-0.000125133
-0.000147235
-0.000182428
-0.000249333
-0.000406179
-0.000847056
-0.00280573
-0.00330288
-0.00293193
0.00250871
)
;

boundaryField
{
    leftWall
    {
        type            fixedFluxPressure;
        gradient        uniform 0;
        value           nonuniform List<scalar> 
50
(
782.323
782.369
782.498
782.725
783.056
783.495
784.046
784.715
785.95
787.75
468.648
6.01395
3.26102
2.69672
3.09367
3.13114
0.156811
-0.033804
-0.0272189
-0.0227937
-0.0191004
-0.0159305
-0.0131266
-0.010622
-0.00852556
-0.00694299
-0.00587884
-0.00515422
-0.00462288
-0.00427886
-0.00405757
-0.0038786
-0.00370241
-0.00346006
-0.00319668
-0.00288563
-0.00256122
-0.00224071
-0.00194309
-0.00167773
-0.00143788
-0.00121708
-0.00101277
-0.000820514
-0.000638761
-0.000473111
-0.000338964
-0.000244964
-8.60333e-05
0.000681884
)
;
    }
    rightWall
    {
        type            fixedFluxPressure;
        gradient        uniform 0;
        value           nonuniform List<scalar> 
50
(
784.57
785.411
786.022
786.104
786.175
786.136
773.031
766.982
768.595
803.51
610.749
41.9047
1.86922
1.88904
1.42809
0.384999
-0.00690494
-0.00357461
-0.000886884
0.0391738
0.088345
0.0709871
0.00634007
0.0371855
0.03677
-0.0101459
-0.00654232
0.0383579
0.0469541
0.0497202
0.0514941
0.0541543
0.055448
0.00907668
-0.00295323
-0.0016041
0.00639181
0.058774
0.0641952
0.065903
0.0676229
0.0692445
0.0481053
0.0346104
0.0352116
0.0375375
0.0381877
0.0385345
0.0316006
0.00250871
)
;
    }
    lowerWall
    {
        type            fixedFluxPressure;
        gradient        uniform 0;
        value           nonuniform List<scalar> 
62
(
782.323
782.029
781.292
780.062
778.375
776.265
773.777
770.959
767.869
764.571
761.152
757.679
754.225
750.854
747.616
744.529
741.618
738.795
736.022
735.555
735.571
735.584
735.535
735.535
735.616
735.98
735.871
735.71
735.55
735.151
734.927
729.181
730.028
731.634
733.469
741.752
741.643
742.216
741.596
740.763
739.831
738.819
736.324
741.752
743.193
745.386
748.126
751.096
754.372
757.994
762.071
766.202
769.859
773.533
775.247
776.768
779.886
783.75
784.689
783.706
783.816
784.57
)
;
    }
    atmosphere
    {
        type            totalPressure;
        rho             rho;
        psi             none;
        gamma           1;
        p0              uniform 0;
        value           nonuniform List<scalar> 
46
(
-7.96965e-05
-1.80616e-05
0
0
0
0
0
0
0
0
0
0
0
0
0
0
0
-6.03683e-07
-3.06288e-06
-8.52734e-06
-1.62177e-05
-2.49954e-05
-3.39643e-05
-4.01432e-05
-4.39284e-05
-4.74075e-05
-5.05502e-05
-5.53048e-05
-6.02915e-05
-6.35542e-05
-6.5059e-05
-6.48257e-05
-6.29137e-05
-5.94175e-05
-5.44684e-05
-4.8242e-05
-4.09727e-05
-3.29775e-05
-2.46882e-05
-1.66709e-05
-9.55594e-06
-3.84128e-06
-2.96285e-07
0
0
0
)
;
    }
    defaultFaces
    {
        type            empty;
    }
}


// ************************************************************************* //
