/*--------------------------------*- C++ -*----------------------------------*\
  =========                 |
  \\      /  F ield         | OpenFOAM: The Open Source CFD Toolbox
   \\    /   O peration     | Website:  https://openfoam.org
    \\  /    A nd           | Version:  9
     \\/     M anipulation  |
\*---------------------------------------------------------------------------*/
FoamFile
{
    format      ascii;
    class       volScalarField;
    location    "4.62";
    object      p_rgh;
}
// * * * * * * * * * * * * * * * * * * * * * * * * * * * * * * * * * * * * * //

dimensions      [1 -1 -2 0 0 0 0];

internalField   nonuniform List<scalar> 
2268
(
757.923
757.948
758.13
758.492
759.025
759.723
760.574
761.562
762.667
763.866
765.127
766.418
767.697
768.916
770.013
770.904
771.566
771.894
772.444
773.143
773.962
774.707
774.89
757.925
757.962
758.147
758.516
759.054
759.754
760.602
761.585
762.68
763.864
765.107
766.375
767.628
768.815
769.88
770.753
771.456
771.978
772.274
773.405
774.199
774.831
775.017
757.895
757.944
758.136
758.514
759.058
759.762
760.612
761.593
762.682
763.855
765.084
766.336
767.572
768.745
769.808
770.716
771.448
770.454
770.546
771.818
773.872
774.836
775.15
757.828
757.879
758.076
758.464
759.017
759.729
760.584
761.568
762.659
763.832
765.059
766.308
767.544
768.726
769.821
770.811
771.663
769.239
770.269
770.604
772.499
774.945
775.237
757.722
757.767
757.967
758.364
758.928
759.649
760.515
761.509
762.609
763.792
765.029
766.29
767.543
768.751
769.897
770.985
772.141
771.118
769.9
770.294
773.62
775.128
775.401
757.575
757.608
757.811
758.216
758.792
759.526
760.406
761.415
762.533
763.735
764.993
766.278
767.559
768.805
770.007
771.184
772.472
774.171
771.391
772.211
775.384
775.389
775.63
757.382
757.405
757.61
758.024
758.614
759.363
760.261
761.29
762.433
763.663
764.952
766.269
767.588
768.875
770.131
771.378
772.706
774.423
775.862
776.361
775.929
775.684
775.949
757.144
757.164
757.374
757.799
758.403
759.17
760.086
761.139
762.312
763.578
764.906
766.265
767.626
768.953
770.252
771.547
772.894
774.453
775.775
776.299
776.096
775.933
776.282
766.206
766.817
766.582
765.569
764.13
762.439
760.576
758.606
756.654
754.305
751.545
749.473
746.044
745.667
747.038
746.695
745.183
743.958
745.033
766.112
767.093
766.77
765.87
764.534
762.874
760.976
759.01
756.701
754.219
751.598
749.506
745.369
745.377
746.988
746.005
744.513
743.648
745.441
766.883
767.109
766.68
765.793
764.524
762.986
761.242
759.199
756.782
754.22
750.102
745.65
745.01
747.429
746.916
745.643
744.203
743.13
744.421
767.262
767.209
766.714
765.81
764.554
763.037
761.271
758.904
756.743
754.161
745.962
745.172
744.284
748.174
747.128
745.637
744.169
742.704
738.202
767.228
767.273
766.827
765.911
764.634
763.106
761.144
758.877
757.111
755.291
747.32
744.544
743.44
748.783
747.509
745.888
744.382
742.553
735.481
767.267
767.413
767.03
766.081
764.749
763.196
761.383
759.394
757.765
756.258
754.229
747.155
751.12
750.241
747.952
746.271
740.314
741.757
734.631
767.258
767.7
767.323
766.321
764.865
763.241
761.605
759.932
758.211
756.429
756.075
755.574
753.759
750.425
748.4
746.842
736.596
736.772
734.162
767.32
768.416
767.8
766.689
765.147
763.408
761.665
759.949
757.776
754.705
754.373
755.218
753.345
750.558
748.838
747.861
738.65
730.241
736.687
756.739
756.739
756.947
757.382
758.01
758.803
759.752
760.848
762.081
763.421
764.83
766.268
767.707
769.092
770.441
771.782
773.136
774.504
775.628
776.215
776.276
776.146
776.042
734.703
733.794
734.233
735.126
736.84
739.021
741.691
744.936
748.682
752.796
757.203
760.934
764.37
765.83
767.122
768.567
770.272
772.073
773.519
774.257
774.246
773.779
773.077
257.566
256.198
256.398
258.319
260.896
264.521
269.539
275.277
282.318
289.801
297.905
307.462
318.993
331.664
345.04
358.346
372.127
384.366
393.865
398.924
398.935
396.16
392.346
2.41122
2.36241
2.33696
2.40901
2.97411
3.61384
3.79758
3.50062
3.18679
2.95067
2.82703
2.65757
1.62532
1.58367
1.5355
1.46489
1.26456
1.14708
1.07675
0.999097
0.982883
0.952589
0.846768
2.37901
2.35704
2.20248
2.21398
2.85914
3.53263
4.79901
6.97099
7.00513
7.02128
7.05557
7.06521
7.06334
7.05218
7.03504
7.00127
3.78788
3.0496
2.87634
2.78072
3.52107
3.49118
2.13765
2.02522
2.25187
2.15666
2.12535
2.32571
2.53956
2.96912
2.16909
2.42449
2.79098
3.0266
3.2125
3.08307
2.96795
2.65903
2.57993
3.45367
3.42212
3.29255
2.23849
1.47316
1.53602
0.602822
1.04852
0.978728
0.926426
0.949196
0.804143
0.504294
0.207409
0.154594
0.0311024
0.00505145
0.000327279
-0.00304156
-0.00328699
-0.00257633
0.000885966
0.00407905
0.324
0.260652
0.29858
0.435813
0.282544
0.331237
0.479927
0.0117671
0.0119831
0.013211
0.0124613
0.0115773
0.0245594
0.0354176
0.0156772
0.00742502
0.00448634
0.00182096
7.28822e-05
0.000775439
0.00205746
0.000233693
0.000209411
0.00103154
0.250213
0.411876
0.373375
0.274154
0.313174
0.628295
0.0104987
0.0108085
0.0113689
0.0111126
0.0103863
0.00953378
0.00850938
0.00771336
0.00641501
0.0043844
0.00236236
0.00353048
0.00672848
0.00607813
-0.000916142
-0.00175722
-0.00286538
0.0369283
0.178928
0.292365
0.270549
0.322602
0.479244
0.00940875
0.00989812
0.0100747
0.00961102
0.00897056
0.00832694
0.00756823
0.00675549
0.00562735
0.00413832
0.00379142
0.00516661
0.00591689
0.00217588
-0.00158484
-0.00265165
-0.00442282
-0.00762329
-0.0106439
-0.00788393
0.0305209
0.00311261
-0.0145607
0.00835896
0.008721
0.00875395
0.00822356
0.00769845
0.00715856
0.00651459
0.00577721
0.00677093
0.00757019
0.00621902
0.00307644
-0.000133704
-0.00108505
-0.00192212
-0.00304974
-0.0046523
-0.00668258
-0.00848622
-0.00939914
-0.00987272
-0.0104078
-0.0111397
0.00739371
0.00740894
0.00729298
0.00699073
0.00658464
0.00610216
0.00552625
0.00603504
0.00828923
0.00726422
0.00484803
0.000869351
-0.000124509
-0.00103003
-0.00194218
-0.00298653
-0.00424464
-0.00577175
-0.00207636
0.00317752
0.00378288
-0.00197764
-0.00836879
0.0065469
0.00644733
0.00625446
0.00596842
0.00560871
0.00517675
0.00467173
0.00499583
0.00518354
0.0037539
0.0016979
0.00069648
-0.000153059
-0.00100814
-0.00188664
-0.00284373
-0.00392238
-0.00472441
0.00394745
0.0066287
0.0061835
0.00593701
-0.00332678
0.00595285
0.00593409
0.00540802
0.00509573
0.00476141
0.00437834
0.0039293
0.00339656
0.00269061
0.00199579
0.0012743
0.000530159
-0.000229799
-0.00100875
-0.00181236
-0.00266876
-0.00359272
-0.00457555
-0.00485566
0.00295172
0.00771686
0.00155699
-0.00667234
0.0055119
0.00548766
0.00469678
0.00434388
0.00403192
0.00367771
0.00326481
0.00277745
0.0022329
0.00164156
0.00101676
0.000365794
-0.000307511
-0.00100004
-0.00171639
-0.00246553
-0.00324721
-0.00404616
-0.00482349
-0.00549753
-0.00590656
-0.00597279
-0.00569287
0.00506658
0.00490287
0.00406509
0.00369565
0.00340193
0.00307813
0.00271157
0.00229588
0.00183112
0.00132521
0.000786517
0.000220916
-0.000367444
-0.000975286
-0.00160171
-0.00224586
-0.00290004
-0.00354556
-0.00414834
-0.00464415
-0.00495483
-0.00504473
-0.00493163
0.00460915
0.00439919
0.00347717
0.00313471
0.00285742
0.00256394
0.00224027
0.00187937
0.00147968
0.00104523
0.000581403
9.27794e-05
-0.000416793
-0.000943514
-0.0014835
-0.00203119
-0.00257576
-0.00309857
-0.00357154
-0.00395292
-0.00419795
-0.00428558
-0.00422958
0.00442441
0.00395716
0.00302205
0.00264853
0.00238724
0.00212098
0.00183428
0.00151951
0.00117418
0.000800065
0.000400815
-1.9849e-05
-0.000458389
-0.000910751
-0.00137171
-0.00183386
-0.00228585
-0.00271095
-0.00308691
-0.00338607
-0.0035813
-0.00365941
-0.00362684
0.00405934
0.00363079
0.00264907
0.00222795
0.00198334
0.0017419
0.00148776
0.00121304
0.000914423
0.00059225
0.000248927
-0.000112433
-0.000488448
-0.000874948
-0.00126627
-0.00165463
-0.00202939
-0.00237644
-0.00267858
-0.00291672
-0.00307379
-0.00314123
-0.00312187
0.00371575
0.0032879
0.00225902
0.0018654
0.00163816
0.00141968
0.00119465
0.000955273
0.000697603
0.000420829
0.00012631
-0.000183395
-0.000505016
-0.000834345
-0.00116573
-0.00149172
-0.00180286
-0.0020876
-0.00233278
-0.00252491
-0.00265262
-0.00271003
-0.00269809
0.00313374
0.00293828
0.00180879
0.00155493
0.00134498
0.00114726
0.000948039
0.000739563
0.000517519
0.000280255
2.82423e-05
-0.000236527
-0.000510982
-0.000791006
-0.0010712
-0.00134477
-0.00160353
-0.00183814
-0.00203852
-0.00219486
-0.00229923
-0.00234724
-0.00233897
0.00227972
0.00206721
0.00153073
0.00129267
0.001099
0.000920108
0.000743479
0.00056157
0.000369929
0.000166445
-4.90228e-05
-0.000274982
-0.000508663
-0.000746199
-0.000982629
-0.00121192
-0.00142717
-0.00162082
-0.00178511
-0.00191277
-0.001998
-0.00203746
-0.00203085
0.00195377
0.00158633
0.00129436
0.00107386
0.000896618
0.000735726
0.00057935
0.000420354
0.00025447
7.95128e-05
-0.000104926
-0.000297695
-0.000496359
-0.000697434
-0.00089652
-0.00108844
-0.00126744
-0.0014275
-0.00156261
-0.00166728
-0.0017372
-0.0017698
-0.00176476
0.00168237
0.00135382
0.00109168
0.000893365
0.00073444
0.00059147
0.000453845
0.000315031
0.000171208
2.04113e-05
-0.000137763
-0.000302335
-0.000471186
-0.000641284
-0.000808863
-0.000969599
-0.00111883
-0.00125178
-0.0013638
-0.00145072
-0.0015093
-0.00153756
-0.00153521
0.00142721
0.00114336
0.000918644
0.000747337
0.000608331
0.000483178
0.000362921
0.00024205
0.000117342
-1.28157e-05
-0.000148691
-0.000289387
-0.000433068
-0.000577171
-0.000718574
-0.000853764
-0.000979025
-0.00109061
-0.00118492
-0.00125876
-0.00130963
-0.00133596
-0.00133747
0.00118885
0.000955082
0.000774209
0.000633225
0.000514526
0.000405866
0.000301043
0.000195843
8.76063e-05
-2.49232e-05
-0.00014188
-0.000262436
-0.00038503
-0.000507547
-0.000627468
-0.000741994
-0.000848202
-0.000943155
-0.00102405
-0.00108838
-0.00113416
-0.00116008
-0.00116581
0.000969825
0.000789269
0.000660535
0.000551309
0.000449887
0.000354717
0.000262923
0.000171055
7.68138e-05
-2.08022e-05
-0.000121822
-0.000225511
-0.000330564
-0.000435282
-0.00053767
-0.00063553
-0.000726572
-0.000808483
-0.000879036
-0.000936215
-0.000978379
-0.00100441
-0.00101388
0.000773712
0.000741747
0.00130448
0.000774448
0.000409357
0.000324432
0.000243987
0.000163722
8.14501e-05
-3.56657e-06
-9.12335e-05
-0.000180884
-0.000271434
-0.000361534
-0.000449631
-0.000534012
-0.000612885
-0.000684412
-0.000746787
-0.000798346
-0.000837691
-0.000863845
-0.000876377
0.000597487
0.00139449
0.00388186
0.00365322
0.000738396
0.000308182
0.000240023
0.000170993
9.94857e-05
2.53295e-05
-5.10974e-05
-0.00012908
-0.000207669
-0.000285793
-0.000362252
-0.000435733
-0.000504841
-0.00056811
-0.000624058
-0.000671274
-0.000708541
-0.00073501
-0.000750296
0.000439842
0.00151734
0.00390756
0.00388538
0.00151982
0.00030191
0.000248684
0.000191073
0.000129541
6.48895e-05
-2.0159e-06
-7.02752e-05
-0.000138993
-0.000207311
-0.000274322
-0.00033906
-0.000400467
-0.000457396
-0.00050862
-0.000552917
-0.000589177
-0.000616658
-0.000635027
0.000308529
0.000990127
0.00395825
0.0039517
0.00135228
0.000309029
0.000270092
0.000222848
0.000170031
0.000113476
5.45622e-05
-5.59632e-06
-6.61434e-05
-0.000126406
-0.000185755
-0.000243552
-0.000299084
-0.000351493
-0.000399766
-0.00044278
-0.000479468
-0.000509102
-0.000531355
0.000204401
0.000362662
0.00263106
0.00202647
0.000572013
0.000333831
0.000304231
0.000264537
0.000218409
0.000168297
0.000115925
6.25093e-05
8.80891e-06
-4.47185e-05
-9.77584e-05
-0.000150045
-0.000201233
-0.000250773
-0.000297834
-0.0003413
-0.000379989
-0.000413067
-0.000440116
0.000130785
0.000271792
0.000376634
0.000377383
0.000384564
0.000374047
0.000348223
0.000312617
0.000270865
0.00022554
0.000178453
0.000130757
8.30197e-05
3.54108e-05
-1.21523e-05
-5.98582e-05
-0.000107811
-0.000155825
-0.000203246
-0.000248816
-0.000291005
-0.000328688
-0.000361238
8.87331e-05
0.000275444
0.000388929
0.000429254
0.00043427
0.000421365
0.000395871
0.000361854
0.000322706
0.000280958
0.000238346
0.000195839
0.000153748
0.000111861
6.9593e-05
2.61758e-05
-1.90794e-05
-6.64858e-05
-0.000115619
-0.000164853
-0.000211908
-0.000255111
-0.000293526
7.88617e-05
0.000301792
0.000437362
0.00048167
0.000483366
0.000467266
0.000440472
0.000406728
0.000369275
0.00033059
0.000292274
0.000255083
0.000219012
0.000183388
0.000147008
0.000108363
6.5966e-05
1.87337e-05
-3.33632e-05
-8.79602e-05
-0.000141288
-0.000190766
-0.000235104
0.000104372
0.000350796
0.000492544
0.000530679
0.000525473
0.000505048
0.000476192
0.000442294
0.000406484
0.000371146
0.00033772
0.000306731
0.000277825
0.000249818
0.000220797
0.000188333
0.000149834
0.00010291
4.63839e-05
-1.60111e-05
-7.74781e-05
-0.000134036
-0.000184152
0.000184122
0.000430825
0.000551125
0.000569474
0.000553803
0.000528364
0.000497501
0.000463972
0.000430718
0.000399932
0.000372837
0.0003497
0.000329838
0.000311593
0.000292331
0.000268596
0.00023635
0.000190838
0.000127729
5.32965e-05
-1.9245e-05
-8.39491e-05
-0.00013954
0.000331286
0.000547546
0.000602878
0.000586478
0.000559161
0.000529724
0.00049814
0.000466674
0.000437967
0.000413841
0.000395193
0.000382038
0.00037348
0.000367583
0.000361212
0.000350087
0.000328698
0.000288046
0.000214993
0.000121099
3.31558e-05
-4.08473e-05
-0.000101181
0.000550232
0.000683584
0.000619761
0.000563947
0.000530055
0.000500059
0.000470713
0.000444483
0.000423471
0.000408842
0.000401054
0.000399942
0.000404643
0.000413354
0.000423009
0.000429272
0.00042613
0.00039867
0.000310059
0.000183586
7.51019e-05
-7.85281e-06
-7.04582e-05
0.000727814
0.000718518
0.000550882
0.000481756
0.000456272
0.00043428
0.000414694
0.000400898
0.000393957
0.00039408
0.000401295
0.000415478
0.000436198
0.000462355
0.000491621
0.000520688
0.000545294
0.00054541
0.000429552
0.000232828
9.40196e-05
6.93276e-06
-5.10804e-05
0.00100526
0.000672127
0.000431977
0.000355812
0.000347533
0.000349038
0.00035723
0.000372814
0.000394564
0.000421732
0.000454372
0.00049302
0.000538414
0.000590861
0.000649451
0.00071483
0.000793979
0.000858178
0.000696034
0.000284751
8.24977e-05
-1.22459e-06
-4.52018e-05
0.000773434
-0.000193533
1.92939e-05
9.51006e-05
0.000162599
0.000218811
0.000269898
0.000319788
0.000369612
0.000420296
0.000473269
0.000530587
0.000595033
0.000669892
0.000759646
0.000883622
0.00111845
0.0015296
0.00128486
0.000387099
9.73702e-05
1.03238e-05
-2.43765e-05
776.142
775.784
775.246
774.467
772.482
771.986
771.256
769.915
388.663
385.683
381.701
375.512
0.868874
0.88905
0.88458
0.862787
1.89069
2.81485
2.80462
1.80796
0.868316
2.5011
1.81281
1.42297
0.556871
0.924403
1.0951
0.668974
1.00044
0.9253
0.586141
0.128702
0.418606
0.07408
0.0379082
-0.00213871
-0.0135979
-0.0116832
-0.00990119
-0.00597764
-0.01052
-0.00961365
-0.00850794
-0.00791648
-0.00862552
-0.00819923
-0.00766489
-0.00710016
-0.00732217
-0.00702281
-0.00667727
-0.00624378
-0.00634056
-0.00610313
-0.00584146
-0.00552459
-0.00531941
-0.00514712
-0.0051387
-0.0049211
-0.00468837
-0.00456266
-0.00446703
-0.00430386
-0.004103
-0.00400421
-0.00388347
-0.00374855
-0.00353259
-0.00345765
-0.00336908
-0.00326669
-0.00305003
-0.0029917
-0.00292241
-0.00284136
-0.00264185
-0.00259521
-0.00253971
-0.00247432
-0.00229352
-0.00225555
-0.00221055
-0.00215744
-0.00199346
-0.00196258
-0.00192632
-0.00188357
-0.00173452
-0.00171
-0.00168137
-0.00164757
-0.00151213
-0.00149344
-0.00147146
-0.0014452
-0.00132144
-0.00130791
-0.00129155
-0.00127148
-0.0011561
-0.00114698
-0.00113531
-0.0011204
-0.00100938
-0.001004
-0.000996414
-0.000986087
-0.000876072
-0.000874044
-0.000870244
-0.000864311
-0.000753684
-0.000754845
-0.000754748
-0.000753159
-0.000642141
-0.000646458
-0.000649983
-0.000652589
-0.000542531
-0.000549944
-0.000556881
-0.000563309
-0.000455673
-0.000466001
-0.000475973
-0.000485649
-0.000381255
-0.000394197
-0.000406716
-0.000418962
-0.00031779
-0.000332972
-0.000347522
-0.000361673
-0.000263181
-0.000280211
-0.0002963
-0.00031176
-0.000215476
-0.000233946
-0.000251103
-0.000267322
-0.000173444
-0.000192873
-0.00021056
-0.000226949
-0.000136759
-0.000156469
-0.00017397
-0.000189788
-0.000105873
-0.000124742
-0.000141017
-0.000155297
-8.20367e-05
-9.78852e-05
-0.000111308
-0.00012285
-6.82381e-05
-7.85247e-05
-8.64292e-05
-9.28694e-05
-3.91045e-05
-4.51712e-05
-4.95215e-05
-5.2756e-05
770.634
770.108
768.8
767.42
761.963
756.569
753.809
752.72
753.339
755.021
755.828
754.644
752.873
750.695
749.402
748.224
739.663
730.903
741.059
765.654
763.141
757.482
751.812
747.251
741.368
731.885
721.357
714.603
715.075
717.95
718.201
711.158
696.385
687.223
694.211
718.516
731.734
739.433
360.558
352.741
350.46
348.959
347.562
345.685
343.579
337.697
325.339
307.36
289.787
275.641
266.699
262.626
258.251
250.798
243.095
239.197
228.877
0.826254
0.836827
0.821444
0.797088
0.859628
0.94704
0.921856
0.892644
0.891264
0.948346
1.21122
1.51116
1.52534
1.5555
2.00956
1.52861
0.978717
0.928153
0.956973
1.01421
1.03152
1.05034
0.990054
1.35309
2.2658
1.98543
1.72702
1.63808
1.58808
1.50571
1.49595
1.49124
1.49053
1.96194
1.36679
0.959819
0.947518
0.951253
1.18768
1.45257
1.42634
1.00533
1.80218
2.33058
2.3251
2.32542
2.32453
2.32562
2.3247
2.28471
2.22095
2.23941
2.24268
2.03311
1.78157
1.50575
1.48984
1.36332
1.49424
1.49302
1.49549
1.42258
0.839069
0.553804
0.564875
0.516335
0.472609
0.45404
0.44413
0.438746
0.409123
0.417476
0.701142
0.928301
0.885777
1.03993
0.489122
0.612969
0.543912
0.583006
0.182865
0.00763157
0.0113091
0.0146192
0.0188985
0.0236026
0.0274058
0.0300036
0.0314525
0.0321579
0.0300108
0.139079
0.0388495
0.037964
0.0817753
-0.00681298
-0.00980868
-0.00903687
-0.00666515
-0.00103344
0.00479202
0.00937066
0.0134072
0.0197376
0.0492625
0.0897875
0.0940105
0.078128
0.0386806
0.0259069
0.0235509
0.0238877
0.0241192
0.0229704
-0.0073672
-0.00763429
-0.00647265
-0.00392599
6.87343e-05
0.00436728
0.00788031
0.011662
0.0523897
0.131149
0.131995
0.133229
0.0759682
0.0239535
0.0241375
0.0231492
0.0228444
0.0225768
0.0218258
-0.00694597
-0.00629687
-0.00486174
-0.00112549
0.0111435
0.0154247
0.00794699
0.0226526
0.123254
0.133511
0.0998193
0.0363569
0.0446732
0.0722303
0.0678754
0.0535114
0.0387968
0.0246085
0.020515
-0.00620552
-0.00536953
-0.00371789
0.0213198
0.0417315
0.0392127
0.0133907
0.0663391
0.125499
0.0904104
0.0129171
0.0377871
0.0975798
0.0988962
0.099441
0.100031
0.100824
0.0779593
0.0338258
-0.00554165
-0.00478807
3.76117e-05
0.0390129
0.043017
0.0444791
0.0421042
0.0253196
0.0264629
0.00290014
0.0110077
0.0873494
0.0983333
0.0991092
0.0499417
0.0297812
0.0294215
0.0367286
0.044144
-0.00499047
-0.00435968
-0.00342945
0.0209287
0.0443477
0.028633
0.00317363
0.000760457
0.00113336
0.00239104
0.00433071
0.033676
0.0594272
0.0144711
0.0082165
0.0097336
0.0108613
0.0176991
0.0415449
-0.00445911
-0.00381733
-0.00326792
-0.00227803
0.000109095
-0.000165852
-0.00048575
0.000393351
0.00109692
0.00219945
0.00386361
0.00387286
0.003981
0.00552077
0.00702784
0.00813422
0.00971838
0.0356674
0.0475495
-0.00392939
-0.00340457
-0.00298753
-0.00267998
-0.00216977
-0.00142429
-0.000499155
0.000288025
0.000983832
0.00178311
0.00253116
0.00303166
0.00374462
0.00479045
0.00577796
0.00641231
0.00721057
0.0322747
0.0468782
-0.00350305
-0.00314557
-0.00263933
-0.00168517
-0.00111251
-0.000906571
-0.000457049
0.000219418
0.000852188
0.00150621
0.00212693
0.00266523
0.00328183
0.00400223
0.00459728
0.00485425
0.00460647
0.00632165
0.04665
-0.00307112
-0.00276598
-0.00236369
-0.00138182
-0.000793905
-0.000227832
0.000225678
0.000227394
0.000714459
0.00127113
0.00180317
0.00228334
0.00277473
0.00326426
0.00360153
0.00363349
0.0032561
0.00238246
0.0278875
-0.00268311
-0.00242277
-0.00212317
-0.00172305
-0.000942418
-0.000115314
0.000347706
0.000317307
0.000592135
0.00112865
0.00167765
0.00201924
0.00232228
0.00263137
0.00282566
0.00277278
0.00241881
0.00186108
0.00163466
-0.00234486
-0.00212231
-0.00185948
-0.00156012
-0.00120988
-0.000769628
-0.000322405
5.65494e-05
0.000536352
0.00109038
0.00146684
0.00181161
0.00197138
0.00211291
0.00224655
0.00220733
0.00197727
0.00170791
0.00171928
-0.00205145
-0.001862
-0.00163458
-0.00137346
-0.00107785
-0.000750163
-0.000400966
-4.53941e-05
0.00030711
0.000699709
0.00109726
0.00137381
0.00152029
0.00169745
0.00181635
0.00183145
0.00174424
0.00166413
0.00175806
-0.00179754
-0.00163792
-0.00144413
-0.0012205
-0.000969248
-0.000694312
-0.000403831
-0.000108441
0.000181909
0.000460666
0.000722973
0.000964394
0.00117971
0.00135898
0.00149158
0.00157606
0.0016283
0.0016853
0.00180753
-0.00157858
-0.00144591
-0.00128319
-0.00109462
-0.000883712
-0.000654858
-0.000414624
-0.000170834
6.91532e-05
0.0003001
0.00051836
0.000721456
0.000908052
0.00107743
0.00123278
0.00139119
0.00158281
0.00177301
0.00192564
-0.00139045
-0.00128174
-0.00114702
-0.000990357
-0.000815652
-0.000627282
-0.000430705
-0.000231916
-3.63892e-05
0.000151969
0.000330961
0.000500318
0.000662542
0.000824279
0.000997081
0.00121591
0.00153166
0.00196002
0.00284832
-0.00122851
-0.0011408
-0.00103102
-0.000903014
-0.000760685
-0.000608143
-0.000450012
-0.000291025
-0.00013532
1.42949e-05
0.000156778
0.000293391
0.000428776
0.0005725
0.000742698
0.000976993
0.00133664
0.00285933
0.0349956
-0.00108748
-0.00101827
-0.000930731
-0.000828474
-0.00071517
-0.000594575
-0.000470665
-0.000347313
-0.000227735
-0.00011406
-6.70059e-06
9.61221e-05
0.000199284
0.000311838
0.000450046
0.000644945
0.000936352
0.00319066
0.0509826
-0.000962344
-0.000909752
-0.000842329
-0.000763339
-0.000676166
-0.000584214
-0.000490963
-0.000399722
-0.000313201
-0.000233135
-0.000159863
-9.18852e-05
-2.53178e-05
4.65706e-05
0.000134853
0.000257509
0.000425326
0.0010298
0.0519685
-0.000849409
-0.000812138
-0.000763092
-0.000705198
-0.000641559
-0.000575294
-0.000509543
-0.000447264
-0.000390922
-0.000342167
-0.000301548
-0.00026819
-0.000239505
-0.000211107
-0.000176776
-0.000129289
-6.54302e-05
-3.88919e-06
0.0530923
-0.000746863
-0.000723823
-0.000691547
-0.000652666
-0.000610077
-0.000566688
-0.000525433
-0.000489095
-0.000460065
-0.000440076
-0.000429992
-0.000429562
-0.000437217
-0.000450099
-0.000464778
-0.000478697
-0.000482504
-0.000425044
0.0513845
-0.000654361
-0.000644386
-0.000627136
-0.000605094
-0.000581021
-0.000557699
-0.000537957
-0.000524526
-0.000519829
-0.000525756
-0.000543464
-0.000573127
-0.000613668
-0.000662608
-0.000716788
-0.000772935
-0.000809475
-0.00072026
0.0364854
-0.00057221
-0.000573791
-0.000569607
-0.000562069
-0.000553874
-0.000547747
-0.000546491
-0.000552869
-0.000569401
-0.000598155
-0.000640514
-0.000696845
-0.000766073
-0.00084523
-0.000930059
-0.00101526
-0.00106943
-0.000941256
0.0382502
-0.000500421
-0.000511753
-0.000518466
-0.000522961
-0.00052792
-0.000536065
-0.000550233
-0.000573269
-0.00060784
-0.000656205
-0.000719908
-0.00079932
-0.000892948
-0.000996694
-0.00110444
-0.00120864
-0.00127316
-0.00113418
0.0391666
-0.000438242
-0.000457354
-0.000472695
-0.0004867
-0.000502072
-0.000521565
-0.000548086
-0.000584616
-0.000634011
-0.000698758
-0.000780554
-0.000879619
-0.00099358
-0.00111607
-0.00123631
-0.00133774
-0.00136994
-0.00117235
0.00948782
-0.00038417
-0.000409075
-0.000430794
-0.000451826
-0.000474917
-0.000502878
-0.000538718
-0.000585591
-0.000646618
-0.000724618
-0.000821577
-0.000937668
-0.00106953
-0.0012077
-0.00133368
-0.00141309
-0.00136513
-0.0010281
-0.000387999
-0.000336315
-0.0003651
-0.000391034
-0.000416704
-0.000444916
-0.000478543
-0.00052071
-0.000574786
-0.000644253
-0.000732466
-0.000842073
-0.000973835
-0.00112436
-0.00128229
-0.00142255
-0.00149353
-0.00138367
-0.000934715
0.0104127
-0.000292839
-0.000323672
-0.000351757
-0.000379792
-0.000410639
-0.000447216
-0.00049275
-0.000550834
-0.000625406
-0.000720603
-0.00084028
-0.000986955
-0.00115927
-0.00134715
-0.0015243
-0.00163031
-0.00153145
-0.00104777
0.0208052
-0.000252261
-0.000283324
-0.000311579
-0.00033983
-0.000370958
-0.000407864
-0.000453807
-0.000512557
-0.000588521
-0.000686789
-0.000812958
-0.000972658
-0.00116916
-0.00139823
-0.00163962
-0.00183301
-0.00182648
-0.00136086
0.0210554
-0.000213533
-0.000242943
-0.000269462
-0.00029593
-0.000325152
-0.000359889
-0.00040329
-0.000459154
-0.000532212
-0.000628454
-0.000755513
-0.000923095
-0.00114154
-0.00141817
-0.00174852
-0.00208778
-0.002264
-0.00185042
0.0201895
-0.000175911
-0.000201671
-0.000224626
-0.000247496
-0.000272833
-0.000303068
-0.000341016
-0.000390219
-0.000455363
-0.0005429
-0.000662095
-0.000826641
-0.00105524
-0.00137199
-0.00180388
-0.00235629
-0.00286126
-0.0025459
0.0178367
-0.00013878
-0.000158721
-0.000176343
-0.000193974
-0.00021364
-0.000237199
-0.000266834
-0.000305403
-0.000356897
-0.000427228
-0.000525793
-0.000667993
-0.000878372
-0.00119811
-0.00169693
-0.00246691
-0.00357866
-0.00355021
0.0170353
-0.000101136
-0.0001131
-0.000124057
-0.00013529
-0.000147988
-0.000163194
-0.00018216
-0.000206586
-0.000238966
-0.000283241
-0.000346209
-0.000440273
-0.000588091
-0.00083435
-0.00126677
-0.00220798
-0.00415308
-0.00496159
0.0151418
-5.64956e-05
-6.27764e-05
-6.89329e-05
-7.54242e-05
-8.25574e-05
-9.05663e-05
-9.97488e-05
-0.000110534
-0.000123597
-0.000140145
-0.000162662
-0.000196895
-0.000256548
-0.000374327
-0.000622402
-0.001337
-0.00363166
-0.00677162
0.00468296
)
;

boundaryField
{
    leftWall
    {
        type            fixedFluxPressure;
        gradient        uniform 0;
        value           nonuniform List<scalar> 
50
(
757.923
757.925
757.895
757.828
757.722
757.575
757.382
757.144
756.739
734.703
257.566
2.41122
2.37901
2.02522
1.04852
0.0117671
0.0104987
0.00940875
0.00835896
0.00739371
0.0065469
0.00595285
0.0055119
0.00506658
0.00460915
0.00442441
0.00405934
0.00371575
0.00313374
0.00227972
0.00195377
0.00168237
0.00142721
0.00118885
0.000969825
0.000773712
0.000597487
0.000439842
0.000308529
0.000204401
0.000130785
8.87331e-05
7.88617e-05
0.000104372
0.000184122
0.000331286
0.000550232
0.000727814
0.00100526
0.000773434
)
;
    }
    rightWall
    {
        type            fixedFluxPressure;
        gradient        uniform 0;
        value           nonuniform List<scalar> 
50
(
745.033
745.441
744.421
738.202
735.481
734.631
734.162
736.687
741.059
739.433
228.877
0.956973
0.951253
1.48984
1.03993
0.0817753
0.0229704
0.0218258
0.020515
0.0338258
0.044144
0.0415449
0.0475495
0.0468782
0.04665
0.0278875
0.00163466
0.00171928
0.00175806
0.00180753
0.00192564
0.00284832
0.0349956
0.0509826
0.0519685
0.0530923
0.0513845
0.0364854
0.0382502
0.0391666
0.00948782
-0.000387999
0.0104127
0.0208052
0.0210554
0.0201895
0.0178367
0.0170353
0.0151418
0.00468296
)
;
    }
    lowerWall
    {
        type            fixedFluxPressure;
        gradient        uniform 0;
        value           nonuniform List<scalar> 
62
(
757.923
757.948
758.13
758.492
759.025
759.723
760.574
761.562
762.667
763.866
765.127
766.418
767.697
768.916
770.013
770.904
771.566
771.894
772.444
773.143
773.962
774.707
774.89
774.89
775.017
775.15
775.237
775.401
775.63
775.949
776.282
776.142
775.784
775.246
774.467
766.206
766.112
766.883
767.262
767.228
767.267
767.258
767.32
766.206
766.817
766.582
765.569
764.13
762.439
760.576
758.606
756.654
754.305
751.545
749.473
746.044
745.667
747.038
746.695
745.183
743.958
745.033
)
;
    }
    atmosphere
    {
        type            totalPressure;
        rho             rho;
        psi             none;
        gamma           1;
        p0              uniform 0;
        value           nonuniform List<scalar> 
46
(
-0.000142233
0
0
0
0
0
0
0
0
0
0
0
0
0
0
0
0
0
-5.5062e-08
-1.13218e-06
-3.7166e-06
-7.50008e-06
-1.20857e-05
-1.57582e-05
-1.82526e-05
-2.08154e-05
-2.34364e-05
-2.79904e-05
-3.44686e-05
-4.10682e-05
-4.77447e-05
-5.44773e-05
-6.12554e-05
-6.80629e-05
-7.48594e-05
-8.15591e-05
-8.80034e-05
-9.39276e-05
-9.89096e-05
-0.000102276
-0.000102887
-9.8598e-05
-8.47961e-05
-5.21645e-05
-3.25684e-07
0
)
;
    }
    defaultFaces
    {
        type            empty;
    }
}


// ************************************************************************* //
