/*--------------------------------*- C++ -*----------------------------------*\
  =========                 |
  \\      /  F ield         | OpenFOAM: The Open Source CFD Toolbox
   \\    /   O peration     | Website:  https://openfoam.org
    \\  /    A nd           | Version:  9
     \\/     M anipulation  |
\*---------------------------------------------------------------------------*/
FoamFile
{
    format      ascii;
    class       volScalarField;
    location    "9.41";
    object      alpha.water;
}
// * * * * * * * * * * * * * * * * * * * * * * * * * * * * * * * * * * * * * //

dimensions      [0 0 0 0 0 0 0];

internalField   nonuniform List<scalar> 
2268
(
1
0.999999
0.999999
0.999998
1
1
0.999999
0.999998
0.999997
0.999998
1
1
1
1
1
1
1
1
0.999262
0.998238
0.999445
0.999995
0.999932
0.999999
0.999998
0.999997
0.999998
1
1
0.999997
0.999997
0.999997
0.999998
1
1
1
1
0.999999
0.999999
0.999999
0.99999
0.998599
0.998238
0.999694
0.999995
0.999995
0.999997
0.999997
0.999997
0.999999
0.999999
1
0.999999
0.999999
0.999999
0.999999
0.999999
1
1
1
0.999997
0.999989
0.999999
0.999979
0.998628
0.998238
0.999796
0.999995
0.999995
0.999998
0.999998
0.999999
1
0.999999
1
1
0.999999
1
1
1
1
1
1
0.999993
0.999935
0.999947
0.999975
0.999359
0.998238
0.999785
0.999995
0.999848
1
1
1
1
1
1
0.999999
0.999999
1
1
1
1
1
1
0.999998
0.999745
0.999578
0.999901
0.999918
0.999129
0.999836
0.999066
0.999655
1
1
1
1
1
1
0.999999
0.999999
0.999999
1
1
1
1
1
1
0.999541
0.998504
0.999978
0.999978
0.999978
0.999919
0.996168
0.999653
1
1
1
1
1
1
1
1
0.999999
0.999999
1
1
1
1
1
0.999862
0.994722
0.992829
0.999978
0.999784
0.994226
0.994152
0.999667
1
1
1
1
1
1
1
1
1
0.999999
0.999999
1
1
1
1
0.999945
0.993209
0.988951
0.992076
0.995169
0.991222
0.996309
0.999889
0.999795
0.99972
0.999567
0.999567
0.999747
0.999935
0.997481
0.995758
0.995758
0.995394
0.992394
0.992394
0.996153
0.998687
0.998687
0.998686
0.998686
0.998686
0.998686
0.999795
0.999795
0.99999
0.999987
0.999998
0.999997
0.999997
0.999997
0.999986
0.999986
0.997775
0.992391
0.992389
0.998505
0.998687
0.998687
0.998535
0.996675
0.99738
0.999795
0.997959
0.999977
0.999998
0.999998
0.999994
0.999965
0.999957
0.999936
0.999978
0.999978
0.9926
0.992389
0.99573
0.998687
0.998687
0.99584
0.995789
0.995832
0.994031
0.996081
0.999995
0.999998
0.999998
0.999956
0.999823
0.99977
0.999571
0.999515
0.999748
0.997987
0.993721
0.996574
0.998687
0.998687
0.997625
0.996403
0.99844
0.99235
0.997515
0.999997
0.999997
0.999998
0.999882
0.999869
0.999867
0.999409
0.99937
0.99937
0.999689
0.999494
0.999534
0.99757
0.998378
0.99844
0.99844
0.99844
0.99235
0.998285
0.999997
0.999991
0.999985
0.999997
0.999997
0.999861
0.999546
0.999665
0.999689
0.999689
0.999689
0.999689
0.997165
0.992195
0.992273
0.998408
0.99844
0.996758
0.999703
0.999997
0.999997
0.999997
0.999997
0.999997
0.999565
0.998239
0.999689
0.999689
0.999689
0.999689
0.999689
0.994318
0.991664
0.990823
0.996249
0.99844
0.999997
0.999997
0.999997
0.999997
0.999997
0.999997
0.999997
0.999545
0.992378
0.992918
0.998905
0.999689
0.999689
0.996616
0.99231
0.996713
0.990823
0.995073
0.998439
1
1
1
1
1
1
1
1
1
0.999999
0.999999
1
1
0.999999
0.999998
0.999988
0.999926
0.995017
0.989728
0.990668
0.996701
0.999895
0.999898
0.999556
0.999574
0.999512
0.999551
0.999695
0.999762
0.999731
0.998991
0.995747
0.992245
0.988291
0.984088
0.980799
0.978305
0.976957
0.976944
0.977267
0.977226
0.976367
0.973865
0.969812
0.965412
0.961348
0.424087
0.42273
0.419904
0.415132
0.407895
0.399599
0.390826
0.381681
0.373234
0.364663
0.356008
0.347377
0.337987
0.328189
0.318343
0.309306
0.302804
0.29886
0.295111
0.290134
0.284927
0.281167
0.279623
0.000541451
0.000540914
0.000540251
0.000540914
0.000738197
0.00119453
0.00115248
0.00103024
0.000782856
0.000623661
0.000550542
0.000360543
0.000320555
0.000320538
0.000332113
0.000328192
0.000306202
0.000299939
0.000299974
0.00029994
0.000304511
0.000327946
0.000335978
0.000654072
0.000674314
0.000539737
0.000596116
0.00152368
0.00164225
0.00164247
0.0015829
0.00175663
0.00178873
0.0017886
0.00173163
0.00160725
0.00155322
0.00154044
0.00148931
0.00125649
0.000879536
0.000378992
0.000418164
0.000502544
0.000502137
0.00033955
0.000263297
0.000285084
0.000266765
0.000245543
7.62496e-05
6.16271e-08
2.05755e-05
6.93559e-05
3.78614e-05
1.05838e-05
6.3552e-08
6.3552e-08
7.42164e-08
1.00193e-07
1.25154e-07
1.42137e-07
7.53101e-07
9.88461e-05
0.000239967
0.000195138
0.000202821
0.000233373
0.000161374
9.35325e-08
4.12927e-07
6.6759e-07
4.68221e-06
6.15926e-08
6.15562e-08
6.15591e-08
6.15562e-08
6.15935e-08
6.18108e-08
9.35169e-08
2.46784e-05
4.52239e-05
4.52243e-05
4.5074e-05
1.78204e-05
7.18347e-07
9.60677e-08
5.01842e-07
6.20526e-09
1.58861e-07
1.95328e-05
6.51188e-05
2.10385e-09
2.0997e-09
1.25765e-08
2.76043e-07
5.75833e-07
9.6209e-07
1.62222e-07
2.74023e-07
7.70311e-07
5.89035e-07
5.29354e-07
1.07249e-05
2.0792e-05
1.66121e-05
6.57388e-06
1.06056e-05
1.13863e-06
5.37267e-08
6.01092e-09
6.01075e-09
6.0122e-09
6.24652e-09
1.23074e-07
2.09928e-09
2.09716e-09
2.04012e-09
1.06606e-07
1.55068e-06
1.75649e-06
1.52767e-06
1.03362e-06
2.5748e-06
2.57479e-06
1.2185e-06
4.03883e-10
4.03874e-10
4.16046e-10
1.29801e-06
6.95643e-06
2.8668e-06
6.01055e-09
6.01053e-09
6.0106e-09
6.01075e-09
6.0122e-09
3.75664e-07
2.24807e-09
2.1301e-09
2.0325e-09
2.1284e-08
1.14619e-06
1.75649e-06
1.6652e-06
1.0462e-06
2.57479e-06
2.57479e-06
7.61656e-07
3.99132e-10
1.7185e-08
2.35454e-08
7.59598e-08
4.5059e-07
7.8997e-07
6.01055e-09
6.01055e-09
6.01055e-09
6.0106e-09
6.05329e-09
1.03945e-05
2.2084e-09
1.71867e-09
1.71872e-09
1.83219e-09
2.73004e-07
1.23456e-06
4.26066e-07
5.10789e-07
2.57479e-06
2.20192e-06
3.94107e-10
3.94265e-10
1.18861e-07
1.40158e-06
1.7907e-06
2.6144e-07
1.02692e-08
1.21908e-08
1.69468e-08
1.58727e-08
8.16714e-09
1.19372e-08
1.19218e-05
3.355e-09
5.75721e-09
1.22981e-08
1.62229e-09
7.77911e-10
2.83196e-08
1.88668e-08
2.44541e-07
2.52428e-06
1.07721e-06
3.94074e-10
3.94107e-10
4.32057e-08
3.68617e-06
5.53443e-06
4.51682e-06
1.02536e-08
1.02406e-08
1.32211e-08
1.92331e-08
1.314e-08
1.16938e-08
1.79104e-07
8.00451e-09
9.05433e-08
9.78373e-08
5.47805e-09
6.09652e-10
6.09652e-10
1.47708e-08
1.10053e-06
1.75434e-06
3.24596e-08
3.94107e-10
3.94074e-10
5.75241e-09
2.8839e-06
5.53409e-06
5.53445e-06
4.38602e-06
5.49351e-09
5.48763e-09
8.28905e-09
9.17794e-09
5.16681e-09
2.17654e-09
9.74554e-09
1.02433e-07
1.02438e-07
1.33828e-08
6.09652e-10
1.09541e-08
7.52662e-07
1.44807e-06
1.07035e-06
4.33677e-10
4.37534e-10
5.19872e-10
2.43211e-10
6.12982e-09
2.50205e-06
5.53427e-06
5.11144e-06
1.70648e-07
5.48772e-09
5.48763e-09
7.74457e-09
9.57897e-09
1.09232e-08
7.31368e-09
9.28645e-08
1.02436e-07
1.19557e-08
6.11e-10
9.43809e-08
1.44803e-06
1.44808e-06
5.84111e-07
4.33698e-10
5.50612e-10
5.89541e-10
2.33268e-10
2.12592e-10
1.13292e-07
6.25042e-07
8.27754e-07
2.36829e-07
5.48763e-09
5.66326e-09
1.20699e-08
1.07458e-08
1.64258e-08
2.46251e-09
1.61901e-08
4.69229e-08
4.9925e-09
6.29602e-10
6.55952e-08
1.22036e-06
1.34396e-06
1.11843e-08
4.33643e-10
7.01089e-10
5.89813e-10
1.52273e-10
6.4924e-11
6.0957e-11
6.12069e-11
1.34063e-10
4.40963e-09
8.90158e-09
1.30318e-08
1.30318e-08
6.74087e-09
7.93842e-10
3.81123e-10
3.69008e-10
4.83952e-10
5.99694e-10
1.0233e-09
3.09103e-08
1.14786e-07
1.67591e-07
6.24865e-11
4.33623e-10
6.68887e-10
3.82261e-10
8.54086e-11
5.88183e-11
5.92873e-11
5.93061e-11
6.16222e-11
4.62272e-10
2.95891e-09
4.8173e-09
4.23648e-09
1.42543e-09
4.04116e-10
3.69008e-10
3.68994e-10
4.53619e-10
4.27274e-10
2.79797e-09
1.16107e-08
1.54538e-10
1.16705e-11
6.24752e-11
3.20542e-10
3.82664e-10
1.33528e-10
3.74663e-11
4.94586e-11
5.96908e-11
6.05645e-11
5.95048e-11
6.4628e-11
9.10155e-11
8.77724e-11
6.71847e-11
9.63693e-11
1.10615e-10
3.32215e-08
7.09507e-08
2.80987e-09
4.41346e-10
3.3553e-09
4.41863e-09
5.89749e-11
1.14543e-11
3.79081e-11
1.1638e-10
9.03325e-11
1.8739e-11
8.64287e-12
2.75759e-11
4.11199e-11
4.36689e-11
3.9834e-11
2.51121e-11
1.24082e-11
5.85403e-12
2.93241e-12
1.94299e-12
1.51679e-12
2.71665e-07
2.71478e-07
4.99221e-09
4.79031e-10
2.7729e-09
8.64865e-10
2.13859e-11
1.1454e-11
1.05914e-11
1.37065e-11
5.48475e-12
5.52059e-13
6.05893e-13
6.07757e-12
1.22558e-11
1.34947e-11
1.08497e-11
5.44222e-12
2.27802e-12
1.14903e-12
5.75761e-13
2.60818e-13
2.01033e-13
2.76483e-07
1.87928e-07
1.87535e-09
4.46784e-10
1.3932e-09
6.81167e-11
1.31762e-11
9.87508e-12
8.85802e-13
2.45607e-13
1.82725e-14
-3.18982e-13
-2.44435e-13
2.16632e-13
7.63497e-13
8.74163e-13
5.69614e-13
2.18357e-13
7.79123e-14
3.36746e-14
1.08681e-14
1.66502e-17
-3.94352e-16
2.76483e-07
1.64998e-08
1.6345e-10
3.13331e-10
3.31206e-10
8.23962e-12
7.75074e-12
5.47843e-12
0
-4.34366e-13
-6.3512e-13
-8.14383e-13
-6.96741e-13
-3.72043e-13
-1.21747e-13
-2.8373e-14
-5.02356e-14
-8.6763e-14
-8.86422e-14
-7.44677e-14
-5.55777e-14
-3.76417e-14
-2.32792e-14
2.76483e-07
9.3789e-11
9.36111e-11
1.31124e-10
4.64919e-11
4.17242e-12
2.62749e-12
1.15686e-12
-4.07233e-13
-8.08436e-13
-9.58455e-13
-9.8256e-13
-8.3356e-13
-5.88566e-13
-3.86773e-13
-2.66569e-13
-2.03601e-13
-1.59425e-13
-1.19018e-13
-8.42321e-14
-5.64631e-14
-3.56947e-14
-2.12807e-14
2.76483e-07
1.37199e-07
3.93869e-10
3.87106e-11
2.78302e-11
4.26946e-12
3.61408e-13
3.77125e-14
-5.12876e-13
-8.34569e-13
-9.25469e-13
-8.84612e-13
-7.39395e-13
-5.5179e-13
-3.89219e-13
-2.72784e-13
-1.93298e-13
-1.3455e-13
-8.98851e-14
-5.75901e-14
-3.57575e-14
-2.15567e-14
-1.25055e-14
2.76483e-07
2.76483e-07
1.75617e-09
3.09519e-11
2.96912e-11
4.75389e-12
3.01652e-13
6.37676e-14
-3.2177e-13
-5.6541e-13
-6.48503e-13
-6.26287e-13
-5.30449e-13
-4.05009e-13
-2.89804e-13
-2.00236e-13
-1.35135e-13
-8.75432e-14
-5.39185e-14
-3.16846e-14
-1.80845e-14
-1.02435e-14
-5.76091e-15
2.76483e-07
2.76483e-07
1.60801e-09
3.81047e-11
3.96024e-11
6.44028e-12
8.92853e-13
6.40393e-13
1.76528e-13
-9.17394e-14
-2.29309e-13
-2.97873e-13
-2.96095e-13
-2.45158e-13
-1.79393e-13
-1.2222e-13
-7.97522e-14
-4.8993e-14
-2.82144e-14
-1.52883e-14
-7.94402e-15
-4.11856e-15
-2.18608e-15
2.76483e-07
1.81171e-07
3.59769e-10
7.49767e-11
6.54497e-11
1.07814e-11
3.31011e-12
3.03393e-12
2.32929e-12
1.38799e-12
5.86537e-13
8.24017e-14
-8.25145e-14
-1.161e-13
-9.56256e-14
-6.51896e-14
-4.17269e-14
-2.46226e-14
-1.33938e-14
-6.74175e-15
-3.1907e-15
-1.49388e-15
-7.21447e-16
1.93659e-07
9.57853e-09
1.31572e-10
1.5881e-10
1.07711e-10
1.94235e-11
9.24328e-12
8.9722e-12
7.68076e-12
5.4549e-12
3.02186e-12
1.16875e-12
2.00522e-13
-2.87853e-14
-4.34327e-14
-3.10948e-14
-1.98541e-14
-1.13761e-14
-5.88733e-15
-2.76872e-15
-1.20181e-15
-5.13392e-16
-2.28003e-16
6.76398e-09
7.76052e-11
1.3157e-10
2.05263e-10
1.3527e-10
3.30484e-11
2.00744e-11
1.94657e-11
1.688e-11
1.25876e-11
7.40015e-12
3.06311e-12
7.03928e-13
2.48203e-14
-1.47719e-14
-1.33524e-14
-8.71584e-15
-4.89708e-15
-2.42605e-15
-1.07182e-15
-4.32191e-16
-1.74489e-16
-7.48579e-17
7.76052e-11
7.75648e-11
1.69859e-10
2.07828e-10
1.3554e-10
4.86158e-11
3.49613e-11
3.38077e-11
2.90991e-11
2.20164e-11
1.32446e-11
5.38987e-12
1.09838e-12
5.73161e-14
-1.76012e-15
-5.14561e-15
-3.57029e-15
-1.98272e-15
-9.43666e-16
-3.94329e-16
-1.49836e-16
-5.70805e-17
-2.35549e-17
7.80415e-11
7.67209e-11
1.64841e-10
1.83547e-10
1.18967e-10
5.44479e-11
4.82468e-11
4.78482e-11
4.17605e-11
3.17915e-11
1.92122e-11
7.36585e-12
1.23639e-12
5.75137e-14
1.97215e-34
-1.84772e-15
-1.38198e-15
-7.62095e-16
-3.48792e-16
-1.37945e-16
-4.91749e-17
-1.75882e-17
-6.96258e-18
9.00737e-11
6.26977e-11
1.07797e-10
8.88189e-11
7.31624e-11
5.31823e-11
5.22828e-11
5.3594e-11
4.98855e-11
3.90179e-11
2.3252e-11
8.21934e-12
1.21386e-12
4.49555e-14
1.03089e-16
-6.38771e-16
-5.1317e-16
-2.80451e-16
-1.22969e-16
-4.57719e-17
-1.51361e-17
-5.0279e-18
-1.87481e-18
1.95701e-10
5.15278e-11
5.14892e-11
5.14831e-11
5.1483e-11
5.1483e-11
5.19862e-11
5.40042e-11
5.19e-11
4.15434e-11
2.43197e-11
8.20521e-12
1.04647e-12
2.48298e-14
5.5264e-17
-2.19017e-16
-1.85596e-16
-9.96404e-17
-4.15022e-17
-1.43653e-17
-4.32233e-18
-1.30604e-18
-4.50251e-19
3.60961e-10
1.2887e-10
5.14831e-11
5.1483e-11
5.1483e-11
5.1483e-11
5.61618e-11
5.43638e-11
5.17675e-11
4.15535e-11
2.40703e-11
7.56271e-12
7.26938e-13
9.94412e-15
1.24273e-17
-7.65645e-17
-6.62041e-17
-3.43909e-17
-1.34233e-17
-4.2422e-18
-1.13409e-18
-3.04496e-19
-9.4899e-20
3.60826e-10
1.46587e-08
8.24542e-08
5.34113e-07
8.71491e-08
5.71087e-09
5.15969e-11
5.16053e-11
5.05918e-11
4.06726e-11
2.23821e-11
5.88963e-12
3.83255e-13
2.8789e-15
1.44368e-18
-2.75753e-17
-2.34796e-17
-1.15645e-17
-4.15314e-18
-1.17132e-18
-2.70325e-19
-6.24667e-20
-1.71649e-20
3.60926e-10
3.5477e-08
7.52834e-07
8.20043e-07
7.88562e-07
1.04803e-07
4.3555e-11
4.35223e-11
4.75522e-11
3.76298e-11
1.84279e-11
3.64117e-12
1.43841e-13
5.44365e-16
1.04402e-19
-1.02934e-17
-8.3116e-18
-3.78947e-18
-1.22555e-18
-3.00738e-19
-5.79947e-20
-1.10865e-20
-2.60047e-21
3.61077e-10
9.34537e-09
8.20043e-07
8.20043e-07
8.20043e-07
1.34384e-07
4.39994e-11
4.28894e-11
4.34872e-11
3.19021e-11
1.28001e-11
1.6894e-12
3.50141e-14
5.66976e-17
2.62612e-21
-4.01255e-18
-2.93963e-18
-1.2096e-18
-3.44451e-19
-7.16668e-20
-1.11641e-20
-1.68288e-21
-3.21997e-22
8.46622e-10
8.46769e-10
2.72179e-07
8.07313e-07
4.65632e-07
4.23421e-08
5.20049e-11
4.28743e-11
3.84322e-11
2.37831e-11
7.0656e-12
5.36987e-13
4.82012e-15
2.75466e-18
-3.53575e-19
-1.63802e-18
-1.03763e-18
-3.76598e-19
-9.24477e-20
-1.59149e-20
-1.93741e-21
-2.17025e-22
-3.17683e-23
1.6393e-09
1.3974e-09
6.86128e-10
1.02047e-07
1.14158e-08
8.01813e-10
6.52972e-11
4.70403e-11
3.17984e-11
1.47275e-11
2.78619e-12
9.95483e-14
3.12252e-16
5.86859e-20
-4.0845e-19
-6.80841e-19
-3.65103e-19
-1.14933e-19
-2.39006e-20
-3.33551e-21
-3.08736e-22
-2.41327e-23
-2.45557e-24
7.41106e-10
1.28321e-09
6.16187e-10
2.59248e-10
1.01199e-10
8.94641e-11
8.3797e-11
4.89082e-11
2.30138e-11
6.84917e-12
6.53022e-13
8.46015e-15
7.73952e-18
3.2507e-22
-2.6522e-19
-2.82914e-19
-1.2835e-19
-3.4715e-20
-6.04747e-21
-6.74876e-22
-4.6574e-23
-2.39774e-24
-1.47931e-25
-6.79465e-27
6.92738e-10
7.20499e-10
4.19276e-10
2.28535e-10
1.64244e-10
1.00804e-10
4.41029e-11
1.35226e-11
2.03195e-12
6.98802e-14
2.47411e-16
6.28679e-20
-3.21344e-20
-1.47935e-19
-1.17341e-19
-4.53379e-20
-1.05238e-20
-1.53354e-21
-1.36464e-22
-6.92963e-24
-2.22453e-25
-6.93529e-27
-9.84963e-28
1.25408e-10
5.80866e-10
5.58098e-10
4.25665e-10
2.4004e-10
9.6366e-11
2.63858e-11
3.91333e-12
2.08873e-13
1.88859e-15
1.55894e-18
1.67859e-22
-4.08675e-20
-7.71946e-20
-4.86841e-20
-1.62113e-20
-3.25841e-21
-4.02986e-22
-2.92762e-23
-1.12925e-24
-2.05242e-26
-2.22158e-28
0.999906
0.999927
0.999947
0.999969
0.963251
0.963737
0.96457
0.964621
0.278463
0.277994
0.278451
0.279934
0.00024457
0.000414236
0.000521202
0.000387303
0.000242217
0.000509046
0.000527097
0.000504854
5.54823e-05
0.00018699
0.000345161
0.000340385
3.47395e-05
1.04987e-05
1.93967e-08
1.93967e-08
2.49514e-06
1.85541e-07
1.82255e-07
1.90581e-08
7.90197e-06
1.5348e-05
1.38457e-05
4.53534e-06
2.11623e-05
2.11622e-05
2.11622e-05
2.11621e-05
2.11625e-05
2.11623e-05
2.1162e-05
2.1162e-05
3.85191e-06
1.59504e-05
2.11595e-05
2.06321e-05
2.17549e-09
2.17387e-09
2.17281e-09
2.17277e-09
1.30874e-08
6.56036e-09
5.68766e-09
2.35357e-09
2.60422e-08
2.59281e-08
5.67926e-08
1.19855e-07
7.91954e-10
5.8454e-10
5.71365e-08
2.40053e-07
2.98223e-11
5.25508e-13
1.40144e-13
2.56536e-08
9.63737e-12
5.37667e-13
1.39885e-13
1.6048e-14
3.79265e-13
2.66531e-13
1.40458e-13
3.20464e-14
1.84198e-13
1.40243e-13
8.05222e-14
4.47113e-14
5.1002e-16
-1.54369e-16
-8.52566e-16
-1.30714e-15
-1.33627e-14
-1.06148e-14
-8.4288e-15
-6.67569e-15
-1.20966e-14
-9.49139e-15
-7.50036e-15
-5.95019e-15
-6.884e-15
-5.18535e-15
-3.97134e-15
-3.08446e-15
-3.15849e-15
-2.28844e-15
-1.6614e-15
-1.21734e-15
-1.23894e-15
-8.84325e-16
-6.21762e-16
-4.23937e-16
-4.37962e-16
-3.04266e-16
-2.11947e-16
-1.4146e-16
-1.46311e-16
-9.81381e-17
-6.59818e-17
-4.36541e-17
-4.76061e-17
-3.08817e-17
-1.99586e-17
-1.2777e-17
-1.45464e-17
-9.13757e-18
-5.70583e-18
-3.51893e-18
-4.15013e-18
-2.50599e-18
-1.50236e-18
-8.88237e-19
-1.06766e-18
-6.14326e-19
-3.50696e-19
-1.97318e-19
-2.42321e-19
-1.31563e-19
-7.07903e-20
-3.75068e-20
-4.75704e-20
-2.40542e-20
-1.20418e-20
-5.92819e-21
-7.87595e-21
-3.64993e-21
-1.67277e-21
-7.52598e-22
-1.06748e-21
-4.43983e-22
-1.82431e-22
-7.34271e-23
-1.14396e-22
-4.1461e-23
-1.48406e-23
-5.19083e-24
-9.28244e-24
-2.80373e-24
-8.37779e-25
-2.44139e-25
-5.4018e-25
-1.25931e-25
-2.92707e-26
-6.64237e-27
-2.07826e-26
-3.21895e-27
-5.08869e-28
-7.94979e-29
-4.55984e-28
-3.35181e-29
-2.63033e-30
-2.13138e-31
-3.30335e-30
-4.57601e-32
-6.32636e-34
-9.29645e-36
0.999997
0.999997
0.999996
0.999996
0.999395
0.997161
0.996794
0.997705
0.993419
0.98502
0.985019
0.987571
0.987291
0.987267
0.996059
0.996763
0.995993
0.996399
0.997683
0.965283
0.965014
0.963558
0.962695
0.963487
0.965691
0.967705
0.97156
0.981238
0.988445
0.991484
0.993467
0.995392
0.996595
0.996567
0.99644
0.996319
0.993
0.9905
0.284648
0.28821
0.294033
0.301566
0.310165
0.31951
0.329004
0.337901
0.346636
0.356949
0.36644
0.375357
0.384128
0.391419
0.396056
0.401502
0.407089
0.410624
0.413385
0.000243909
0.000387428
0.000438065
0.000348971
0.000274664
0.000223329
0.000193918
0.000180814
0.000180774
0.000180608
0.000180444
0.000180388
0.000180413
0.000180388
0.000180463
0.000231705
0.00027357
0.0003171
0.000345998
0.000242215
0.000764754
0.000764757
0.000762068
0.000767855
0.000793219
0.000793265
0.000793265
0.00079324
0.000792435
0.000712801
0.000488745
0.000232186
0.000490401
0.000578307
0.000578282
0.000578279
0.000561816
0.00050498
0.000215885
0.000119621
0.000148897
0.000130736
9.62602e-05
7.17524e-05
6.21477e-05
5.74688e-05
3.2267e-05
7.46336e-06
7.4668e-06
2.5541e-05
8.71371e-05
0.000103222
0.000119713
0.000154764
0.000168161
0.000179245
0.000182369
1.08854e-05
1.3895e-08
1.598e-08
3.98914e-08
1.90709e-07
4.65148e-06
5.55455e-06
5.47792e-06
5.47645e-06
1.34534e-05
2.51901e-05
2.99559e-05
3.03045e-05
1.59994e-05
2.24863e-06
5.16805e-07
5.1515e-07
5.15147e-07
5.15155e-07
1.3895e-08
1.38813e-08
1.3895e-08
1.91649e-06
2.37419e-05
3.38672e-05
3.38724e-05
1.88816e-05
2.69862e-05
4.70627e-05
4.70706e-05
4.70706e-05
4.70706e-05
2.79975e-05
5.93606e-07
5.15144e-07
5.15145e-07
5.15146e-07
5.15147e-07
1.30377e-06
1.38819e-08
1.38819e-08
1.25972e-05
3.38605e-05
3.38727e-05
2.58844e-05
2.97774e-05
2.81994e-05
1.28206e-05
2.45071e-05
3.65605e-05
3.48905e-05
5.36107e-06
5.15144e-07
5.15142e-07
5.15144e-07
5.15145e-07
5.15146e-07
1.77655e-05
6.60553e-07
2.63822e-08
3.68566e-06
1.16084e-05
7.49272e-06
5.80624e-08
1.30082e-07
3.20361e-10
3.20373e-10
3.20361e-10
3.45697e-10
2.95972e-06
6.33709e-06
5.15288e-07
5.15141e-07
5.15142e-07
5.15149e-07
5.1778e-07
2.11616e-05
1.91733e-05
2.172e-09
2.16364e-09
2.16403e-09
2.16367e-09
2.40438e-07
4.86241e-07
2.11867e-07
2.96561e-10
1.80102e-08
3.3044e-06
8.16151e-06
5.43434e-06
5.1514e-07
5.15139e-07
5.15144e-07
5.18641e-07
5.18641e-07
1.68147e-05
9.28397e-06
3.32483e-07
2.16482e-09
2.16364e-09
1.94368e-07
4.86488e-07
4.86488e-07
1.8931e-07
2.6843e-10
2.21167e-07
6.56193e-06
8.16151e-06
6.13381e-06
5.15139e-07
5.15138e-07
5.15139e-07
5.15141e-07
5.15145e-07
2.17259e-09
2.17268e-09
2.1726e-09
2.36289e-09
8.98519e-09
1.34455e-08
9.30758e-09
5.35907e-09
2.64087e-10
2.64099e-10
2.68509e-10
2.55866e-06
8.16151e-06
8.15998e-06
3.28717e-06
5.15139e-07
5.15139e-07
5.15142e-07
5.15149e-07
2.76399e-09
2.21526e-09
2.17268e-09
2.24425e-09
2.08452e-09
2.64011e-10
2.64003e-10
2.64003e-10
2.64003e-10
2.96555e-10
2.96741e-10
3.79723e-08
3.42949e-06
7.15518e-06
4.46225e-06
5.49464e-07
2.4317e-06
2.71349e-06
1.11202e-06
1.43895e-07
1.18591e-07
2.68433e-08
6.54294e-10
6.53909e-10
5.50274e-10
3.02255e-10
2.64684e-10
4.55702e-10
5.77618e-10
4.08379e-10
6.55825e-11
6.46577e-11
6.57796e-11
2.76402e-07
8.87908e-06
1.04746e-05
1.04746e-05
1.04737e-05
2.40062e-07
2.40063e-07
2.261e-07
2.17906e-08
1.76276e-09
7.95502e-10
4.64662e-09
8.29383e-09
3.14127e-09
3.41545e-10
2.33255e-10
8.10444e-11
6.36884e-11
6.46577e-11
6.57636e-07
8.36285e-06
1.04746e-05
9.30168e-06
5.23206e-06
1.53748e-07
2.40066e-07
2.40066e-07
2.36364e-07
1.26153e-08
7.97195e-10
3.06287e-08
6.32246e-08
3.11916e-08
2.323e-09
2.85269e-11
4.54029e-11
6.36081e-11
1.57512e-10
1.69004e-08
8.0175e-07
2.37353e-06
1.09578e-12
1.10688e-12
2.99392e-18
6.59327e-08
2.07558e-07
1.88334e-07
2.03884e-08
1.15363e-09
4.6473e-08
6.39118e-08
6.39118e-08
2.71303e-08
2.85203e-11
3.60054e-11
1.05429e-10
6.03893e-10
9.1265e-10
1.06122e-12
1.06158e-12
1.07543e-12
1.7614e-12
7.39113e-19
-4.93537e-35
-5.04871e-32
6.09377e-20
9.90975e-10
2.06035e-09
2.8512e-08
6.39118e-08
6.34904e-08
2.75434e-08
2.85026e-11
2.84967e-11
4.78699e-11
5.63732e-11
7.90542e-11
1.05921e-12
1.07604e-11
7.96858e-10
7.03165e-12
1.55856e-14
-2.44979e-16
-1.52358e-16
-4.02516e-32
6.09361e-20
9.66264e-18
2.62892e-11
5.33768e-09
1.02399e-08
5.92962e-10
1.00212e-10
2.8128e-11
3.96867e-11
5.9707e-12
7.08453e-13
1.05882e-12
1.70573e-12
1.40854e-08
5.24726e-07
-1.45887e-15
-1.09452e-15
-5.13514e-16
2.50136e-16
1.49018e-15
2.43158e-15
2.43175e-15
2.43693e-15
2.45785e-15
2.50632e-15
2.99153e-13
9.52951e-12
2.39129e-11
1.79765e-12
7.08557e-13
7.65131e-13
6.4681e-13
2.83264e-08
2.09564e-06
-5.28916e-15
-2.76903e-15
-1.23406e-15
9.86076e-35
3.35068e-15
1.45418e-14
3.02304e-14
6.88703e-14
1.24058e-13
1.65401e-13
2.26354e-13
4.38269e-13
6.12074e-13
2.37777e-13
1.093e-13
4.70658e-13
4.70693e-13
3.66576e-09
2.09566e-06
-4.72447e-15
-2.66173e-15
-1.47329e-15
-7.73006e-16
-3.28928e-16
0
1.2942e-15
2.03059e-14
6.79317e-14
8.66345e-14
9.10745e-14
1.64082e-13
1.8796e-13
5.94206e-14
2.95335e-14
3.97276e-13
1.87994e-12
6.5733e-13
2.09564e-06
-2.41573e-15
-1.37866e-15
-7.83383e-16
-4.42568e-16
-2.46275e-16
-1.31705e-16
-5.93744e-17
1.54074e-36
2.55729e-16
1.64421e-15
2.8161e-15
4.81535e-15
1.3783e-14
6.83876e-15
1.24978e-14
3.67721e-13
1.86512e-12
6.573e-13
2.0954e-06
-9.06599e-16
-5.04051e-16
-2.80679e-16
-1.56628e-16
-8.76505e-17
-4.95178e-17
-2.75693e-17
-1.37847e-17
-2.89973e-18
3.48629e-18
2.60132e-17
8.9027e-17
3.19933e-16
1.32841e-15
9.08364e-15
3.35599e-13
1.8505e-12
6.5733e-13
9.96716e-07
-2.78436e-16
-1.48473e-16
-7.91802e-17
-4.26516e-17
-2.34152e-17
-1.295e-17
-7.00188e-18
-3.32446e-18
-9.9271e-19
7.7713e-19
1.09252e-17
5.02168e-17
2.36899e-16
1.1669e-15
8.78367e-15
3.22997e-13
1.94416e-12
7.79374e-13
7.79374e-13
-7.55397e-17
-3.77973e-17
-1.93618e-17
-1.01238e-17
-5.32253e-18
-2.65321e-18
-1.08643e-18
5.35836e-20
1.19148e-18
8.1376e-18
1.89998e-17
5.15403e-17
2.30669e-16
1.15285e-15
1.0639e-14
3.24727e-13
2.25979e-12
1.21314e-12
9.96396e-13
-2.00148e-17
-9.1305e-18
-4.28055e-18
-2.05325e-18
-9.19905e-19
-3.94881e-20
5.84737e-19
5.45344e-18
2.71582e-17
8.06409e-17
1.57072e-16
2.65527e-16
7.3938e-16
4.82229e-15
5.54205e-14
4.95968e-13
2.76032e-12
1.21328e-12
4.47259e-07
-5.28245e-18
-2.15541e-18
-8.96636e-19
-3.70462e-19
2.42875e-21
1.07113e-18
1.07145e-17
5.34902e-17
1.9567e-16
5.75542e-16
1.5522e-15
6.30739e-15
3.35506e-14
1.7934e-13
6.07848e-13
1.86908e-12
3.95154e-12
1.21427e-12
2.18434e-06
-1.35314e-18
-5.03384e-19
-1.86392e-19
-5.32275e-20
3.62831e-19
7.29074e-18
6.10392e-17
3.00253e-16
1.25637e-15
5.44799e-15
3.3937e-14
2.26557e-13
1.02021e-12
3.2801e-12
5.19507e-12
7.47839e-12
7.77497e-12
1.21474e-12
2.18438e-06
-3.1904e-19
-1.09665e-19
-3.63633e-20
9.11047e-21
1.09038e-18
2.06337e-17
2.47817e-16
1.64213e-15
1.08241e-14
7.62529e-14
5.71668e-13
3.06858e-12
9.996e-12
2.1249e-11
2.43268e-11
2.18672e-11
1.85157e-11
1.21537e-12
2.18298e-06
-6.57812e-20
-2.08808e-20
-5.8761e-21
3.69464e-20
1.68984e-18
4.20045e-17
7.13777e-16
7.85612e-15
7.5862e-14
5.86156e-13
3.56517e-12
1.461e-11
3.70174e-11
5.83156e-11
6.19008e-11
4.65448e-11
4.01414e-11
1.21767e-12
2.12966e-06
-1.14514e-20
-3.31648e-21
-5.21789e-22
3.95759e-20
2.10774e-18
6.19837e-17
1.39191e-15
2.49009e-14
2.7516e-13
1.96957e-12
9.59096e-12
3.22445e-11
6.93594e-11
8.91498e-11
9.6123e-11
8.19457e-11
8.06857e-11
1.22373e-12
2.1142e-06
-1.62964e-21
-4.22282e-22
9.13186e-23
3.62533e-20
2.22622e-18
7.11861e-17
1.9228e-15
4.84696e-14
5.39301e-13
3.51816e-12
1.46314e-11
4.34501e-11
8.57898e-11
9.87693e-11
1.06598e-10
1.87003e-10
2.37669e-10
1.2382e-12
2.11273e-06
-1.82558e-22
-4.10089e-23
1.14048e-22
2.08616e-20
2.00768e-18
7.13514e-17
2.09776e-15
6.39233e-14
6.93251e-13
4.21981e-12
1.62304e-11
4.54943e-11
8.76465e-11
9.18201e-11
8.13861e-11
9.21072e-10
1.34398e-09
1.28437e-12
1.33709e-06
-1.53343e-23
-2.74919e-24
4.05721e-23
8.66371e-21
1.07866e-18
4.76119e-17
1.90478e-15
6.73937e-14
7.17124e-13
4.19806e-12
1.47964e-11
3.33912e-11
6.34183e-11
5.01559e-11
9.91838e-12
2.94201e-09
4.063e-09
9.74606e-11
1.5548e-08
-9.04011e-25
-8.04969e-26
1.37754e-23
3.08555e-21
3.90872e-19
1.74693e-17
9.14829e-16
5.09288e-14
4.98438e-13
2.49262e-12
7.13361e-12
1.20762e-11
2.37494e-11
1.40816e-11
8.0084e-13
4.2868e-09
5.22042e-09
9.73719e-11
1.5447e-07
-3.39236e-26
1.04591e-26
3.05567e-24
8.57366e-22
1.13882e-19
4.63118e-18
2.4223e-16
1.80462e-14
1.61822e-13
7.17291e-13
1.78428e-12
2.70679e-12
4.92641e-12
2.01252e-12
8.0084e-13
3.38861e-09
5.10592e-09
2.18004e-10
6.70378e-07
-6.88209e-28
1.52051e-27
4.16477e-25
1.56206e-22
2.37106e-20
9.33064e-19
4.31663e-17
3.58934e-15
3.0083e-14
1.22616e-13
2.7305e-13
4.03581e-13
6.60363e-13
1.331e-13
2.67589e-12
6.21357e-10
2.26121e-09
1.61753e-09
6.70388e-07
-5.44161e-30
1.1435e-28
3.02678e-26
1.65424e-23
2.84195e-21
1.19914e-19
5.03536e-18
4.2775e-16
3.34773e-15
1.25439e-14
2.54103e-14
3.64251e-14
5.37197e-14
4.4369e-15
1.50999e-11
2.73019e-11
1.64634e-10
3.072e-23
6.62922e-07
-7.57593e-33
6.6224e-33
5.25697e-28
8.34831e-25
1.46125e-22
6.77548e-21
2.9575e-19
2.39832e-17
1.74706e-16
6.00758e-16
1.12607e-15
1.57362e-15
2.02377e-15
3.80167e-16
7.34912e-13
2.90339e-20
3.072e-23
1.23149e-23
6.21662e-07
-6.39448e-38
-4.83267e-40
5.13469e-36
7.17688e-31
1.30823e-27
3.1985e-25
5.84609e-23
4.54938e-21
2.26903e-20
6.66991e-20
1.13166e-19
1.40199e-19
5.65607e-20
1.97652e-21
1.00237e-16
1.64329e-17
1.02565e-19
3.00927e-39
5.74174e-07
)
;

boundaryField
{
    leftWall
    {
        type            zeroGradient;
    }
    rightWall
    {
        type            zeroGradient;
    }
    lowerWall
    {
        type            zeroGradient;
    }
    atmosphere
    {
        type            inletOutlet;
        inletValue      uniform 0;
        value           nonuniform List<scalar> 
46
(
0
1.25408e-10
5.80866e-10
5.58098e-10
4.25665e-10
2.4004e-10
9.6366e-11
2.63858e-11
3.91333e-12
2.08873e-13
1.88859e-15
1.55894e-18
1.67859e-22
-4.08675e-20
-7.71946e-20
-4.86841e-20
-1.62113e-20
-3.25841e-21
-4.02986e-22
-2.92762e-23
-1.12925e-24
-2.05242e-26
0
0
0
0
0
0
0
0
0
0
0
0
0
0
0
0
0
0
0
0
0
0
0
5.74174e-07
)
;
    }
    defaultFaces
    {
        type            empty;
    }
}


// ************************************************************************* //
