/*--------------------------------*- C++ -*----------------------------------*\
  =========                 |
  \\      /  F ield         | OpenFOAM: The Open Source CFD Toolbox
   \\    /   O peration     | Website:  https://openfoam.org
    \\  /    A nd           | Version:  9
     \\/     M anipulation  |
\*---------------------------------------------------------------------------*/
FoamFile
{
    format      ascii;
    class       volVectorField;
    location    "3.01";
    object      U;
}
// * * * * * * * * * * * * * * * * * * * * * * * * * * * * * * * * * * * * * //

dimensions      [0 1 -1 0 0 0 0];

internalField   nonuniform List<vector> 
2268
(
(-0.00310127 0.00111974 0)
(-0.00494227 -0.000165409 0)
(-0.00339163 -0.000694062 0)
(-0.00138454 -0.00083713 0)
(0.00126525 -0.000917332 0)
(0.00402613 -0.000914396 0)
(0.00674253 -0.000860695 0)
(0.0092957 -0.000782102 0)
(0.0116168 -0.000685164 0)
(0.013646 -0.000575192 0)
(0.0153593 -0.000470849 0)
(0.0168025 -0.000392065 0)
(0.0180542 -0.000354355 0)
(0.0192638 -0.000395355 0)
(0.0206779 -0.0005511 0)
(0.0224116 -0.000858307 0)
(0.0255011 -0.00122412 0)
(0.0256638 0.0014607 0)
(0.0173585 0.00429029 0)
(0.00510138 0.0033567 0)
(-0.000975651 0.000647942 0)
(-0.00180474 -0.000569561 0)
(0.000730228 -4.6645e-05 0)
(-0.00131484 0.00273253 0)
(-0.00246159 8.38714e-05 0)
(-0.00131579 -0.00112286 0)
(0.000364813 -0.00163788 0)
(0.00266015 -0.0019057 0)
(0.0051291 -0.00196345 0)
(0.0076113 -0.0018965 0)
(0.00999611 -0.00176256 0)
(0.0122123 -0.00157984 0)
(0.0141914 -0.0013625 0)
(0.015895 -0.00115007 0)
(0.0173432 -0.000982936 0)
(0.0185781 -0.000884837 0)
(0.0196552 -0.000900864 0)
(0.0206489 -0.00106497 0)
(0.0214627 -0.00136928 0)
(0.0220389 -0.00124386 0)
(0.0210511 0.00280732 0)
(0.0171058 0.00677605 0)
(0.0107849 0.00630801 0)
(0.00544263 0.00259511 0)
(0.00178224 -7.27609e-05 0)
(0.0010975 -0.000441364 0)
(-0.000207254 0.00308618 0)
(-0.000913955 -8.05603e-05 0)
(3.64988e-05 -0.00169053 0)
(0.0013863 -0.00247914 0)
(0.00329124 -0.002901 0)
(0.00540368 -0.00301531 0)
(0.00757388 -0.00294219 0)
(0.00971034 -0.00276377 0)
(0.011748 -0.00250444 0)
(0.0136136 -0.00218394 0)
(0.015258 -0.00185991 0)
(0.0166828 -0.00158852 0)
(0.0178952 -0.00139312 0)
(0.0188857 -0.00131373 0)
(0.0196269 -0.001359 0)
(0.0199094 -0.00142056 0)
(0.0193349 -0.000782198 0)
(0.0181025 0.00364267 0)
(0.0163786 0.00802437 0)
(0.013492 0.00826107 0)
(0.00973836 0.00463201 0)
(0.00536344 0.00166853 0)
(0.00212012 0.000904432 0)
(0.000297192 0.00318591 0)
(8.25488e-05 -0.000216175 0)
(0.000891873 -0.00214161 0)
(0.00196527 -0.00317917 0)
(0.0035036 -0.00374753 0)
(0.00526085 -0.00393183 0)
(0.00710945 -0.00387609 0)
(0.00898333 -0.0036829 0)
(0.0108294 -0.00337729 0)
(0.0125704 -0.00298022 0)
(0.0141473 -0.00256571 0)
(0.0155497 -0.00220145 0)
(0.0167556 -0.00190139 0)
(0.0177068 -0.00169356 0)
(0.0183186 -0.00155498 0)
(0.0183602 -0.00129489 0)
(0.017404 -0.000150726 0)
(0.0163114 0.00410346 0)
(0.0159365 0.00856029 0)
(0.015259 0.00929284 0)
(0.0128434 0.00645338 0)
(0.0084946 0.00389244 0)
(0.00359051 0.00308295 0)
(0.000522902 0.00299432 0)
(0.000667279 -0.00045708 0)
(0.00133274 -0.00250817 0)
(0.00214395 -0.00374026 0)
(0.00333985 -0.00444649 0)
(0.00475173 -0.00470696 0)
(0.00627879 -0.00468777 0)
(0.0078868 -0.00450878 0)
(0.00953971 -0.0041879 0)
(0.0111561 -0.00374148 0)
(0.0126675 -0.00325944 0)
(0.0140582 -0.00281807 0)
(0.0152845 -0.00241308 0)
(0.0162522 -0.00205854 0)
(0.0168536 -0.00170581 0)
(0.016899 -0.00111505 0)
(0.0160953 0.000411379 0)
(0.015365 0.00429303 0)
(0.0158075 0.00847435 0)
(0.0164069 0.00964773 0)
(0.0149602 0.00801452 0)
(0.011132 0.00640445 0)
(0.00506101 0.00624771 0)
(0.000637417 0.00269941 0)
(0.000925086 -0.000731606 0)
(0.00140649 -0.00279047 0)
(0.00194457 -0.00415872 0)
(0.00281118 -0.00498923 0)
(0.00388651 -0.00532744 0)
(0.00509461 -0.00536174 0)
(0.00643813 -0.00522723 0)
(0.00790188 -0.0049246 0)
(0.00939906 -0.00445845 0)
(0.0108524 -0.00393595 0)
(0.0122479 -0.00344081 0)
(0.0135272 -0.00294169 0)
(0.0145696 -0.00244173 0)
(0.015266 -0.0018822 0)
(0.0154887 -0.0010127 0)
(0.0151046 0.000739754 0)
(0.01491 0.00424844 0)
(0.0158811 0.0080091 0)
(0.0171344 0.00958822 0)
(0.0165091 0.00922691 0)
(0.0136793 0.00904159 0)
(0.00669201 0.0103073 0)
(0.000708909 0.00246257 0)
(0.000940095 -0.000982009 0)
(0.00117082 -0.00296368 0)
(0.00140878 -0.00442521 0)
(0.00194597 -0.00537002 0)
(0.00268825 -0.00578711 0)
(0.00357963 -0.00589213 0)
(0.00466209 -0.00583515 0)
(0.00594327 -0.00558739 0)
(0.00732927 -0.00513308 0)
(0.00873433 -0.00460076 0)
(0.0101524 -0.00408291 0)
(0.0115172 -0.00351017 0)
(0.0126871 -0.00288098 0)
(0.0135621 -0.00214491 0)
(0.0140737 -0.00106945 0)
(0.0142099 0.000787362 0)
(0.014614 0.0039603 0)
(0.0160216 0.00732855 0)
(0.0177554 0.00922324 0)
(0.0180337 0.00996267 0)
(0.0166664 0.0116127 0)
(0.00917262 0.0156605 0)
(0.000716106 0.0015008 0)
(0.00075609 -0.00112946 0)
(0.000716439 -0.00292995 0)
(0.000614097 -0.00448791 0)
(0.000806324 -0.00556183 0)
(0.0012124 -0.00607074 0)
(0.00178971 -0.00627239 0)
(0.002617 -0.00633387 0)
(0.00372355 -0.00618459 0)
(0.0050075 -0.00577849 0)
(0.00637465 -0.00527219 0)
(0.00783065 -0.00477349 0)
(0.00930727 -0.00415554 0)
(0.0106459 -0.00342344 0)
(0.0117588 -0.00255299 0)
(0.012624 -0.00134394 0)
(0.0133086 0.000532282 0)
(0.0143143 0.00340109 0)
(0.0161677 0.00642842 0)
(0.018424 0.00847076 0)
(0.0198461 0.00992516 0)
(0.0201188 0.0131726 0)
(0.0168444 0.0261345 0)
(0.00896284 -0.00427277 0)
(0.033893 -0.00731368 0)
(0.0535594 -0.00528314 0)
(0.0661814 -0.00299278 0)
(0.0724779 -0.00118174 0)
(0.0739702 0.000388555 0)
(0.0697201 0.00235672 0)
(0.0570084 0.00513559 0)
(0.0355248 0.00580225 0)
(0.0212576 0.00168575 0)
(0.0209732 0.000400434 0)
(0.0128721 0.00467401 0)
(-0.00437407 0.00331676 0)
(-0.00691217 -0.00248185 0)
(0.00998464 -0.00758436 0)
(0.0337482 -0.00554083 0)
(0.0437642 0.000780754 0)
(0.0278848 0.00614017 0)
(0.00472402 0.00381323 0)
(0.0168178 -0.0140634 0)
(0.0348283 -0.0140734 0)
(0.0474783 -0.00964038 0)
(0.0557654 -0.00559845 0)
(0.0599581 -0.00235254 0)
(0.0613776 0.000875758 0)
(0.0580975 0.00553855 0)
(0.0478689 0.0106835 0)
(0.0329581 0.0110825 0)
(0.0216961 0.00477129 0)
(0.016519 0.00269961 0)
(0.0107434 0.00789028 0)
(0.00280861 0.00552602 0)
(0.00201932 -0.00407786 0)
(0.0101767 -0.0127993 0)
(0.024301 -0.0102828 0)
(0.0328944 0.00236693 0)
(0.0251618 0.0123881 0)
(0.00774392 0.00990052 0)
(0.0167165 -0.0248894 0)
(0.0319093 -0.0198707 0)
(0.0414678 -0.0131893 0)
(0.0477311 -0.00763501 0)
(0.0508288 -0.00331127 0)
(0.0519437 0.00126272 0)
(0.0486774 0.0082591 0)
(0.0401736 0.0149843 0)
(0.0301431 0.0152318 0)
(0.0214176 0.00824117 0)
(0.0149061 0.00518106 0)
(0.0110339 0.00954737 0)
(0.00812412 0.00648148 0)
(0.00747048 -0.00489758 0)
(0.00942912 -0.0155686 0)
(0.0161002 -0.014486 0)
(0.0248598 0.00202386 0)
(0.0225891 0.016805 0)
(0.00810983 0.016168 0)
(0.0128092 -0.0344602 0)
(0.0271812 -0.0250802 0)
(0.0354545 -0.0163484 0)
(0.0406939 -0.00937512 0)
(0.0431903 -0.00413723 0)
(0.0443822 0.00161909 0)
(0.0417872 0.0106534 0)
(0.0351848 0.0182737 0)
(0.0285262 0.0183422 0)
(0.0216762 0.0114128 0)
(0.0151281 0.00744113 0)
(0.012772 0.0102032 0)
(0.0127718 0.00692332 0)
(0.0114198 -0.00457866 0)
(0.00829733 -0.0157894 0)
(0.00840734 -0.0172333 0)
(0.0167892 -0.000528982 0)
(0.0220867 0.0198834 0)
(0.0116254 0.0225589 0)
(0.00805294 -0.0414785 0)
(0.0224172 -0.0298782 0)
(0.0300053 -0.0192189 0)
(0.0344689 -0.0108512 0)
(0.0364956 -0.00490351 0)
(0.037985 0.00170266 0)
(0.0365172 0.0124745 0)
(0.0319079 0.0206013 0)
(0.0277745 0.020533 0)
(0.0226685 0.0141381 0)
(0.0170593 0.00935029 0)
(0.0157525 0.0101863 0)
(0.0168112 0.00707573 0)
(0.0143804 -0.00305791 0)
(0.00763502 -0.0139226 0)
(0.00211147 -0.018009 0)
(0.00687327 -0.00488642 0)
(0.019157 0.0196196 0)
(0.0191556 0.0301966 0)
(0.00485282 -0.0469758 0)
(0.0189978 -0.0345968 0)
(0.02567 -0.0218151 0)
(0.0291255 -0.0120283 0)
(0.0305515 -0.00561096 0)
(0.0323232 0.00139123 0)
(0.0322461 0.0135879 0)
(0.0298699 0.0220063 0)
(0.0279373 0.0219025 0)
(0.0245403 0.0162281 0)
(0.0204764 0.0107352 0)
(0.0198404 0.009959 0)
(0.0205668 0.00739502 0)
(0.0169721 -0.000603099 0)
(0.00801289 -0.0105102 0)
(-0.0013663 -0.0165983 0)
(-0.00267978 -0.00852167 0)
(0.00996179 0.014567 0)
(0.0236971 0.0389673 0)
(0.00765098 -0.0544041 0)
(0.0178575 -0.0388412 0)
(0.0227599 -0.0238524 0)
(0.0247152 -0.0127626 0)
(0.0252468 -0.00615002 0)
(0.0269445 0.000686671 0)
(0.0283203 0.0139021 0)
(0.0287395 0.0223664 0)
(0.0291218 0.0225507 0)
(0.0272819 0.0176386 0)
(0.0249276 0.0115235 0)
(0.0246614 0.00987675 0)
(0.0244159 0.00813733 0)
(0.0198285 0.00246069 0)
(0.00966856 -0.0060691 0)
(-0.00197171 -0.013318 0)
(-0.00884094 -0.00960296 0)
(-0.00369758 0.00779794 0)
(0.0137654 0.0453809 0)
(0.0232956 -0.0622625 0)
(0.0198092 -0.0404931 0)
(0.0212382 -0.0245953 0)
(0.0211683 -0.012851 0)
(0.0206591 -0.0063846 0)
(0.0217075 -0.000175223 0)
(0.0244342 0.0131105 0)
(0.0279525 0.0213517 0)
(0.030802 0.0223656 0)
(0.0309746 0.0182502 0)
(0.0301365 0.0118716 0)
(0.0296715 0.010147 0)
(0.0283276 0.00930522 0)
(0.0231661 0.00580968 0)
(0.0127382 -0.0010946 0)
(-4.82941e-05 -0.00861773 0)
(-0.0109713 -0.00742925 0)
(-0.0160649 0.00517059 0)
(-0.0092015 0.0439243 0)
(0.00152014 0.00375103 0)
(0.000819851 8.29004e-05 0)
(-5.48937e-05 -0.00211879 0)
(-0.000845252 -0.00412538 0)
(-0.00124889 -0.00552569 0)
(-0.00138027 -0.00624045 0)
(-0.00127769 -0.00665663 0)
(-0.000828272 -0.00697551 0)
(1.9493e-05 -0.00705402 0)
(0.00115944 -0.00678535 0)
(0.00248593 -0.00637968 0)
(0.00401639 -0.00598881 0)
(0.00568878 -0.00534977 0)
(0.00732823 -0.00450639 0)
(0.00886521 -0.00350318 0)
(0.0103289 -0.00219246 0)
(0.0118562 -0.000378964 0)
(0.0137707 0.00204687 0)
(0.0163613 0.00456037 0)
(0.0195582 0.00646258 0)
(0.0232059 0.00805625 0)
(0.0281302 0.0110568 0)
(0.0405802 0.0178588 0)
(0.00109369 -0.00266292 0)
(-0.00105687 -0.00188277 0)
(-0.0019628 -0.00302006 0)
(-0.00327818 -0.00485164 0)
(-0.0043926 -0.00625928 0)
(-0.00517293 -0.00697591 0)
(-0.00549166 -0.00748263 0)
(-0.00536645 -0.00798168 0)
(-0.0048128 -0.00824324 0)
(-0.00380147 -0.00808725 0)
(-0.00241581 -0.00780578 0)
(-0.000765351 -0.00756054 0)
(0.00111425 -0.00700528 0)
(0.00312901 -0.00618016 0)
(0.00522341 -0.00525268 0)
(0.00744325 -0.00411757 0)
(0.0099098 -0.00267849 0)
(0.0128208 -0.000912508 0)
(0.0163049 0.000778011 0)
(0.0204215 0.00186186 0)
(0.0252684 0.00205924 0)
(0.031337 0.00154648 0)
(0.0412322 -0.000743557 0)
(-0.00483765 0.00373043 0)
(-0.00506539 0.00314159 0)
(-0.00369776 0.000554154 0)
(-0.00604993 -0.00259229 0)
(-0.00988347 -0.00477668 0)
(-0.0119302 -0.00577787 0)
(-0.0116093 -0.00671858 0)
(-0.0109054 -0.007996 0)
(-0.0105395 -0.0088419 0)
(-0.00926401 -0.00888866 0)
(-0.00688345 -0.00878347 0)
(-0.00466789 -0.00873346 0)
(-0.00255013 -0.00832927 0)
(-0.000157949 -0.00752647 0)
(0.00243712 -0.00659953 0)
(0.00524484 -0.00555402 0)
(0.00843926 -0.00446104 0)
(0.0121351 -0.00313282 0)
(0.0165586 -0.00188097 0)
(0.0217776 -0.00128091 0)
(0.0274643 -0.00183646 0)
(0.0335753 -0.00317022 0)
(0.041093 -0.00542825 0)
(-0.0484336 0.013378 0)
(-0.008117 -0.00248063 0)
(0.00960026 0.000999564 0)
(0.00211299 9.58269e-05 0)
(-0.0169918 -0.00156137 0)
(-0.0236797 -0.00431344 0)
(-0.016589 -0.00599916 0)
(-0.01233 -0.0066936 0)
(-0.0154189 -0.00765219 0)
(-0.0147852 -0.00966564 0)
(-0.00845121 -0.00975798 0)
(-0.00583756 -0.00914801 0)
(-0.00464846 -0.00956373 0)
(-0.00245558 -0.00930229 0)
(0.000167186 -0.00874819 0)
(0.00357178 -0.00814458 0)
(0.00776958 -0.00792432 0)
(0.0119021 -0.00735179 0)
(0.0173729 -0.0070215 0)
(0.0254388 -0.00701983 0)
(0.0332344 -0.0075309 0)
(0.0379541 -0.00887499 0)
(0.0425602 -0.0118793 0)
(-0.03947 0.0682944 0)
(0.0143357 -0.0793175 0)
(0.0604836 -0.0253918 0)
(0.0355924 0.0502912 0)
(-0.066777 0.0480504 0)
(-0.083161 -0.0157725 0)
(-0.0612444 -0.0283652 0)
(-0.0411783 -0.0134984 0)
(-0.036342 -0.00084507 0)
(-0.0231348 -0.0282326 0)
(-0.00786526 -0.0264813 0)
(0.00582101 -0.0174046 0)
(0.0141901 -0.0182593 0)
(0.0190239 -0.0169188 0)
(0.0249254 -0.0177158 0)
(0.0340926 -0.0187759 0)
(0.0416657 -0.0164031 0)
(0.039237 -0.0111404 0)
(0.0390877 -0.0178401 0)
(0.0484839 -0.0236877 0)
(0.0580597 -0.0176999 0)
(0.0447704 -0.00883637 0)
(0.0249661 -0.0188817 0)
(0.0435962 0.0445598 0)
(0.0312534 -0.0832214 0)
(0.0226777 -0.0378455 0)
(0.0288818 0.105948 0)
(-0.000874112 0.110813 0)
(-0.0115846 -0.0110345 0)
(-0.0115683 -0.0455751 0)
(0.000396285 -0.0331436 0)
(0.0125572 -0.00961443 0)
(0.0137393 -0.0327139 0)
(0.0118757 -0.0335104 0)
(0.0162336 -0.0257159 0)
(0.0204741 -0.0218956 0)
(0.0251763 -0.020361 0)
(0.0345639 -0.0240855 0)
(0.0483008 -0.0280385 0)
(0.0640345 -0.0238532 0)
(0.0769269 -0.00216782 0)
(0.073572 -0.0151288 0)
(0.0706626 -0.0311413 0)
(0.068785 -0.014113 0)
(0.0436996 0.0343979 0)
(0.0251988 -0.0231935 0)
(0.0442788 -0.0105755 0)
(0.00767528 -0.0552243 0)
(-0.0319972 -0.0309334 0)
(-0.00478993 0.0836672 0)
(0.0552615 0.0965606 0)
(0.0725541 0.000923916 0)
(0.0518627 -0.0409089 0)
(0.0412082 -0.038956 0)
(0.0449575 -0.0188436 0)
(0.0406135 -0.0273843 0)
(0.024047 -0.0308656 0)
(0.0184014 -0.027538 0)
(0.0166698 -0.0225505 0)
(0.0176837 -0.0258421 0)
(0.0239269 -0.0338559 0)
(0.0329166 -0.0414915 0)
(0.0435056 -0.0420733 0)
(0.0660271 -0.0152669 0)
(0.0910238 -0.00926596 0)
(0.0853654 -0.0269508 0)
(0.0624136 0.00226746 0)
(0.0556063 0.0594137 0)
(0.0557971 -0.0171935 0)
(0.030523 -0.019595 0)
(-0.00564318 -0.000821557 0)
(-0.0365055 -0.0230751 0)
(0.00139262 0.0214934 0)
(0.0599836 0.0264613 0)
(0.0977735 0.000420238 0)
(0.095432 -0.0217518 0)
(0.0591685 -0.028241 0)
(0.0480727 -0.0137944 0)
(0.0428038 -0.00975959 0)
(0.0308734 -0.0190329 0)
(0.0196162 -0.0225948 0)
(0.0118559 -0.0186312 0)
(0.00893243 -0.0295541 0)
(0.00890634 -0.0420077 0)
(0.0103251 -0.0510719 0)
(0.0149626 -0.0584774 0)
(0.0282826 -0.0455009 0)
(0.0497804 -0.0290839 0)
(0.0706727 -0.0196876 0)
(0.0758277 0.0196638 0)
(0.0788541 0.0490924 0)
(0.0736953 -0.00299128 0)
(0.00202933 -0.0330466 0)
(0.0186095 0.0177972 0)
(0.00966721 -0.0214664 0)
(0.0201196 -0.0153435 0)
(0.0530764 -0.0147107 0)
(0.0732263 -0.0171268 0)
(0.0655679 0.00187839 0)
(0.0518258 -0.00181925 0)
(0.0414494 -0.00249863 0)
(0.034231 -0.00250816 0)
(0.026151 -0.00620273 0)
(0.018268 -0.00984129 0)
(0.0136238 -0.0126404 0)
(0.0114367 -0.0252512 0)
(0.00770179 -0.0386135 0)
(0.00394489 -0.0491905 0)
(0.00156902 -0.0613011 0)
(0.00293383 -0.0582287 0)
(0.0132947 -0.0496537 0)
(0.0272757 -0.034346 0)
(0.0402178 0.00772387 0)
(0.052618 0.0415253 0)
(0.0461472 0.0273225 0)
(0.00271567 -0.047251 0)
(0.0228851 -0.0130056 0)
(0.0312964 -0.0216892 0)
(0.0310531 -0.029608 0)
(0.0339708 -0.0304005 0)
(0.0317052 -0.0163188 0)
(0.0286001 0.000905316 0)
(0.0255201 0.00375011 0)
(0.0205934 0.00348378 0)
(0.0160407 0.00187775 0)
(0.0115904 -0.00150313 0)
(0.00766885 -0.00566636 0)
(0.00570577 -0.0114378 0)
(0.00448004 -0.0223268 0)
(0.00226543 -0.0334477 0)
(-0.000116837 -0.0450063 0)
(-0.00471386 -0.0566878 0)
(-0.0103766 -0.0591098 0)
(-0.0123159 -0.0583804 0)
(-0.0129327 -0.0440286 0)
(-0.00913674 -0.00402575 0)
(0.00151382 0.0342154 0)
(0.00438485 0.0374787 0)
(-0.00119653 -0.0532001 0)
(0.0100948 -0.0247949 0)
(0.0148494 -0.0230162 0)
(0.0120252 -0.0240263 0)
(0.00670164 -0.0208617 0)
(0.000840387 -0.00950163 0)
(-0.00175907 0.00227502 0)
(-0.0026613 0.00648929 0)
(-0.00447143 0.00685974 0)
(-0.00644089 0.0049668 0)
(-0.00833896 0.00123777 0)
(-0.00985885 -0.0039077 0)
(-0.0105224 -0.0109592 0)
(-0.0112393 -0.0208716 0)
(-0.0130042 -0.0313419 0)
(-0.0159808 -0.0414499 0)
(-0.0209554 -0.049586 0)
(-0.0268182 -0.0521319 0)
(-0.0336132 -0.0532308 0)
(-0.0433684 -0.0410458 0)
(-0.0469487 -0.00908807 0)
(-0.0394468 0.0243091 0)
(-0.0305294 0.033961 0)
(-0.00691789 -0.0512876 0)
(-0.00522655 -0.0287698 0)
(-0.00638141 -0.0216568 0)
(-0.01125 -0.0180607 0)
(-0.0178966 -0.0130433 0)
(-0.0237404 -0.00472219 0)
(-0.0265096 0.00340884 0)
(-0.0273077 0.00732012 0)
(-0.0278926 0.00790299 0)
(-0.028427 0.00598268 0)
(-0.0288873 0.00210711 0)
(-0.0291519 -0.00341713 0)
(-0.0292175 -0.0106915 0)
(-0.0297669 -0.0197198 0)
(-0.0315323 -0.0290766 0)
(-0.0348252 -0.0375182 0)
(-0.0399697 -0.0435141 0)
(-0.0465598 -0.0451853 0)
(-0.0547378 -0.0424842 0)
(-0.0637771 -0.0306726 0)
(-0.0681571 -0.00874729 0)
(-0.063459 0.0151053 0)
(-0.0547377 0.0261594 0)
(-0.0115609 -0.0410021 0)
(-0.0173394 -0.0246059 0)
(-0.0234898 -0.0167093 0)
(-0.0302897 -0.0116657 0)
(-0.0371837 -0.00654821 0)
(-0.0426734 -0.000414525 0)
(-0.0456651 0.00506094 0)
(-0.0467896 0.00789814 0)
(-0.047116 0.00809442 0)
(-0.0470787 0.00601127 0)
(-0.0468701 0.00204231 0)
(-0.0465898 -0.00352064 0)
(-0.0464621 -0.0105088 0)
(-0.0470403 -0.0185294 0)
(-0.0488509 -0.0265113 0)
(-0.0521591 -0.0333025 0)
(-0.0570633 -0.0376413 0)
(-0.0632547 -0.0382307 0)
(-0.0704012 -0.0342758 0)
(-0.0771802 -0.0240146 0)
(-0.0801155 -0.0080898 0)
(-0.0767983 0.0083755 0)
(-0.0697526 0.0184222 0)
(-0.0143127 -0.0247286 0)
(-0.0250242 -0.0146915 0)
(-0.0346943 -0.00866407 0)
(-0.0431336 -0.00429161 0)
(-0.0503644 -0.000226506 0)
(-0.0557987 0.00389731 0)
(-0.0590701 0.00721423 0)
(-0.0605976 0.00870616 0)
(-0.06107 0.00816775 0)
(-0.0609538 0.00572823 0)
(-0.0605647 0.00164334 0)
(-0.0601581 -0.00380361 0)
(-0.0600535 -0.010295 0)
(-0.0606903 -0.0173107 0)
(-0.0624413 -0.023983 0)
(-0.0654745 -0.029347 0)
(-0.0697405 -0.0324108 0)
(-0.0748795 -0.0322617 0)
(-0.0803103 -0.0282969 0)
(-0.0847939 -0.0199914 0)
(-0.0862708 -0.00833302 0)
(-0.0835403 0.0034935 0)
(-0.0779223 0.0119062 0)
(-0.0154229 -0.00513781 0)
(-0.028814 -0.00133386 0)
(-0.0405821 0.00156011 0)
(-0.0501663 0.00400151 0)
(-0.0577863 0.00629063 0)
(-0.0633639 0.00839181 0)
(-0.0669264 0.0097767 0)
(-0.0688325 0.00986034 0)
(-0.0695895 0.00842375 0)
(-0.0696387 0.00549516 0)
(-0.0693447 0.00125226 0)
(-0.0690312 -0.00403515 0)
(-0.0690326 -0.0100043 0)
(-0.0696956 -0.016135 0)
(-0.0712757 -0.0217176 0)
(-0.0738498 -0.0259826 0)
(-0.0772847 -0.0281857 0)
(-0.0811983 -0.0277166 0)
(-0.0849813 -0.0242439 0)
(-0.0876716 -0.0177549 0)
(-0.0880707 -0.00914927 0)
(-0.0855961 -0.000387903 0)
(-0.0810035 0.006522 0)
(-0.0152569 0.0157274 0)
(-0.0296257 0.0136951 0)
(-0.0423193 0.0130028 0)
(-0.0524659 0.0128993 0)
(-0.0603193 0.0130379 0)
(-0.0660305 0.0130971 0)
(-0.0698184 0.0126682 0)
(-0.0720293 0.0113544 0)
(-0.0730838 0.00896018 0)
(-0.073387 0.00547488 0)
(-0.0733053 0.00103211 0)
(-0.0731714 -0.00412332 0)
(-0.0732952 -0.00964358 0)
(-0.0739471 -0.0150645 0)
(-0.0752963 -0.0198178 0)
(-0.0773563 -0.0233122 0)
(-0.0799611 -0.0250124 0)
(-0.082754 -0.0245285 0)
(-0.0852093 -0.0217159 0)
(-0.0866384 -0.0167463 0)
(-0.0863436 -0.0103309 0)
(-0.0840495 -0.00368773 0)
(-0.0802098 0.00200306 0)
(-0.0141889 0.036192 0)
(-0.0283336 0.0290243 0)
(-0.0410388 0.0247943 0)
(-0.05117 0.0219876 0)
(-0.0589741 0.0198653 0)
(-0.0646723 0.0179223 0)
(-0.068558 0.0157806 0)
(-0.070966 0.0131229 0)
(-0.0722643 0.00977507 0)
(-0.0728183 0.00571044 0)
(-0.0729702 0.00103168 0)
(-0.073029 -0.00405077 0)
(-0.073264 -0.00923332 0)
(-0.0738837 -0.0141293 0)
(-0.0749971 -0.018296 0)
(-0.0765827 -0.0212941 0)
(-0.078475 -0.0227506 0)
(-0.0803706 -0.022427 0)
(-0.0818572 -0.0202849 0)
(-0.0824603 -0.0165346 0)
(-0.0817674 -0.0117054 0)
(-0.0796469 -0.00657126 0)
(-0.0763739 -0.00185675 0)
(-0.0125665 0.0550915 0)
(-0.0256377 0.0436538 0)
(-0.037656 0.0362257 0)
(-0.0472729 0.030842 0)
(-0.0547148 0.0265321 0)
(-0.0601991 0.0227035 0)
(-0.0640272 0.0189758 0)
(-0.0665081 0.0150657 0)
(-0.0679648 0.010812 0)
(-0.06872 0.00617801 0)
(-0.0690772 0.00123964 0)
(-0.0693076 -0.00383224 0)
(-0.0696357 -0.00878938 0)
(-0.0702206 -0.0133255 0)
(-0.0711317 -0.0171061 0)
(-0.072332 -0.0198136 0)
(-0.0736748 -0.0211959 0)
(-0.0749168 -0.0211137 0)
(-0.0757501 -0.0195817 0)
(-0.0758519 -0.016794 0)
(-0.0749714 -0.0131344 0)
(-0.0730413 -0.00910921 0)
(-0.0702279 -0.00518552 0)
(-0.0106636 0.0717306 0)
(-0.0220803 0.0569047 0)
(-0.0328887 0.0467583 0)
(-0.0415858 0.0390788 0)
(-0.0483816 0.0327853 0)
(-0.0534556 0.027258 0)
(-0.057074 0.0221088 0)
(-0.0595055 0.0170709 0)
(-0.0610276 0.0119911 0)
(-0.0619164 0.00682358 0)
(-0.0624315 0.00161887 0)
(-0.0628007 -0.00349251 0)
(-0.0632058 -0.00831849 0)
(-0.0637667 -0.0126269 0)
(-0.0645272 -0.016173 0)
(-0.0654467 -0.0187339 0)
(-0.0664029 -0.020144 0)
(-0.0672078 -0.0203278 0)
(-0.0676365 -0.0193237 0)
(-0.0674688 -0.017294 0)
(-0.0665458 -0.0145164 0)
(-0.0648282 -0.0113326 0)
(-0.0624149 -0.00805907 0)
(-0.00864092 0.0856758 0)
(-0.0180383 0.0683108 0)
(-0.0272741 0.0559824 0)
(-0.0347514 0.0463867 0)
(-0.0406795 0.0384058 0)
(-0.0451802 0.031421 0)
(-0.0484594 0.0250476 0)
(-0.0507356 0.0190332 0)
(-0.0522371 0.0132304 0)
(-0.0531924 0.00758561 0)
(-0.0538152 0.00212591 0)
(-0.0542903 -0.0030561 0)
(-0.0547607 -0.00782 0)
(-0.0553152 -0.0119975 0)
(-0.0559805 -0.015416 0)
(-0.0567176 -0.0179244 0)
(-0.0574282 -0.0194186 0)
(-0.0579694 -0.0198634 0)
(-0.0581779 -0.0193056 0)
(-0.0579009 -0.0178767 0)
(-0.0570329 -0.0157799 0)
(-0.0555465 -0.0132538 0)
(-0.0534988 -0.010523 0)
(-0.00657413 0.0966957 0)
(-0.013744 0.0775899 0)
(-0.0211968 0.0636217 0)
(-0.0272685 0.0525469 0)
(-0.0321821 0.0432296 0)
(-0.0359941 0.0350641 0)
(-0.0388385 0.0276868 0)
(-0.0408773 0.0208642 0)
(-0.0422885 0.0144577 0)
(-0.0432528 0.00840758 0)
(-0.0439394 0.0027208 0)
(-0.0444925 -0.00254342 0)
(-0.0450207 -0.00728907 0)
(-0.0455876 -0.0114006 0)
(-0.0462076 -0.0147619 0)
(-0.046845 -0.0172753 0)
(-0.0474216 -0.0188802 0)
(-0.047829 -0.0195667 0)
(-0.0479477 -0.0193835 0)
(-0.0476691 -0.0184365 0)
(-0.0469192 -0.0168773 0)
(-0.0456757 -0.014879 0)
(-0.0439696 -0.0126076 0)
(-0.00446302 0.104676 0)
(-0.00933093 0.0846115 0)
(-0.0149274 0.0695304 0)
(-0.0195116 0.0574377 0)
(-0.023344 0.0471588 0)
(-0.0264079 0.0381048 0)
(-0.0287606 0.0299533 0)
(-0.0305077 0.0224993 0)
(-0.0317784 0.0156168 0)
(-0.0327079 0.00924382 0)
(-0.0334235 0.00337106 0)
(-0.0340328 -0.0019699 0)
(-0.034614 -0.00671947 0)
(-0.0352098 -0.0108041 0)
(-0.0358247 -0.0141507 0)
(-0.0364262 -0.0167013 0)
(-0.0369513 -0.0184253 0)
(-0.037317 -0.0193292 0)
(-0.0374341 -0.0194604 0)
(-0.0372231 -0.0189052 0)
(-0.0366292 -0.0177799 0)
(-0.0356325 -0.0162146 0)
(-0.0342478 -0.0143369 0)
(-0.00214759 0.109599 0)
(-0.00479558 0.0893847 0)
(-0.00864513 0.0737048 0)
(-0.0117781 0.061033 0)
(-0.014537 0.0501632 0)
(-0.0168433 0.0405072 0)
(-0.0186827 0.0318073 0)
(-0.0201093 0.0238974 0)
(-0.0212076 0.0166689 0)
(-0.0220717 0.0100608 0)
(-0.0227909 0.00405221 0)
(-0.0234397 -0.00134704 0)
(-0.02407 -0.00610592 0)
(-0.0247065 -0.0101831 0)
(-0.0253453 -0.0135379 0)
(-0.025956 -0.0161406 0)
(-0.0264864 -0.0179817 0)
(-0.0268715 -0.0190778 0)
(-0.0270431 -0.0194739 0)
(-0.0269409 -0.019242 0)
(-0.0265222 -0.0184737 0)
(-0.0257686 -0.0172704 0)
(-0.024685 -0.0157333 0)
(0.000557913 0.111305 0)
(-0.000122108 0.0920532 0)
(-0.00248643 0.0763076 0)
(-0.00431097 0.0634146 0)
(-0.00607855 0.0522715 0)
(-0.00765502 0.0422742 0)
(-0.00898483 0.0332367 0)
(-0.0100811 0.0250382 0)
(-0.0109902 0.01759 0)
(-0.0117688 0.0108355 0)
(-0.0124728 0.00474612 0)
(-0.0131474 -0.000684297 0)
(-0.0138215 -0.00544596 0)
(-0.0145044 -0.0095215 0)
(-0.0151847 -0.0128936 0)
(-0.0158326 -0.0155525 0)
(-0.0164035 -0.0175028 0)
(-0.0168448 -0.018767 0)
(-0.0171027 -0.0193879 0)
(-0.0171299 -0.0194261 0)
(-0.0168917 -0.0189565 0)
(-0.0163707 -0.0180605 0)
(-0.0155659 -0.0168206 0)
(0.00318879 0.108954 0)
(0.0043422 0.0931412 0)
(0.00336711 0.0775909 0)
(0.00264438 0.0647428 0)
(0.00175362 0.0535546 0)
(0.000857279 0.0434346 0)
(1.83246e-05 0.034248 0)
(-0.000750023 0.0259149 0)
(-0.00146155 0.0183665 0)
(-0.00214103 0.0115517 0)
(-0.00281435 0.00543814 0)
(-0.0035013 8.77534e-06 0)
(-0.00421094 -0.00474157 0)
(-0.00493896 -0.0088122 0)
(-0.00566722 -0.0122018 0)
(-0.00636541 -0.0149142 0)
(-0.00699413 -0.0169626 0)
(-0.00750929 -0.018373 0)
(-0.00786715 -0.0191853 0)
(-0.00802916 -0.019452 0)
(-0.00796617 -0.0192354 0)
(-0.00766162 -0.0186032 0)
(-0.00711104 -0.0176244 0)
(0.00526126 0.103368 0)
(0.00806149 0.0924275 0)
(0.00851643 0.0776667 0)
(0.00878554 0.0651464 0)
(0.00870044 0.0540897 0)
(0.00843938 0.0440256 0)
(0.00806962 0.034856 0)
(0.00762335 0.0265281 0)
(0.00711445 0.0189896 0)
(0.00654633 0.012196 0)
(0.00591912 0.00611388 0)
(0.00523527 0.000719943 0)
(0.00450303 -0.00400047 0)
(0.00373854 -0.00805714 0)
(0.00296607 -0.0114589 0)
(0.00221691 -0.0142176 0)
(0.00152723 -0.0163516 0)
(0.00093513 -0.017888 0)
(0.000477358 -0.0188637 0)
(0.000186254 -0.0193249 0)
(8.7068e-05 -0.0193247 0)
(0.000195515 -0.0189208 0)
(0.000518302 -0.0181721 0)
(0.0062993 0.0956591 0)
(0.0105817 0.0898303 0)
(0.0125451 0.0765513 0)
(0.0138174 0.0646571 0)
(0.0145295 0.053915 0)
(0.0148837 0.0440734 0)
(0.0149692 0.0350723 0)
(0.0148426 0.0268773 0)
(0.0145435 0.0194501 0)
(0.0141008 0.0127538 0)
(0.0135375 0.00675631 0)
(0.0128758 0.00143253 0)
(0.0121389 -0.00323678 0)
(0.0113534 -0.00726683 0)
(0.0105489 -0.0106716 0)
(0.00975818 -0.013467 0)
(0.00901521 -0.015673 0)
(0.00835388 -0.0173164 0)
(0.00780588 -0.0184312 0)
(0.00739908 -0.0190581 0)
(0.00715589 -0.0192437 0)
(0.00709136 -0.0190378 0)
(0.00721379 -0.0184923 0)
(0.00627817 0.0869652 0)
(0.0118038 0.0855408 0)
(0.015241 0.0742071 0)
(0.0175606 0.0632328 0)
(0.0190857 0.0530291 0)
(0.02005 0.0435864 0)
(0.0205865 0.0348997 0)
(0.0207825 0.0269571 0)
(0.0207037 0.0197356 0)
(0.0204027 0.0132073 0)
(0.0199237 0.00734512 0)
(0.0193061 0.00212577 0)
(0.0185864 -0.00247007 0)
(0.0178001 -0.00645862 0)
(0.016982 -0.00985493 0)
(0.016166 -0.0126752 0)
(0.0153848 -0.0149391 0)
(0.0146691 -0.0166714 0)
(0.0140467 -0.0179028 0)
(0.0135423 -0.0186701 0)
(0.013176 -0.0190145 0)
(0.0129627 -0.0189803 0)
(0.0129119 -0.0186137 0)
(0.0056312 0.0782474 0)
(0.0120256 0.0799478 0)
(0.0167074 0.0706639 0)
(0.0200188 0.0608574 0)
(0.0223335 0.0514277 0)
(0.0238972 0.0425652 0)
(0.0248796 0.0343358 0)
(0.0253999 0.0267593 0)
(0.0255505 0.0198315 0)
(0.0254065 0.0135374 0)
(0.0250314 0.00785826 0)
(0.0244798 0.00277656 0)
(0.0237999 -0.0017231 0)
(0.0230351 -0.00565399 0)
(0.0222244 -0.00902868 0)
(0.021403 -0.0118609 0)
(0.0206025 -0.0141676 0)
(0.0198509 -0.0159706 0)
(0.0191731 -0.0172976 0)
(0.0185908 -0.0181817 0)
(0.0181231 -0.0186603 0)
(0.0177845 -0.0187738 0)
(0.017586 -0.0185639 0)
(0.0048538 0.0700411 0)
(0.0116835 0.0735057 0)
(0.0172508 0.0661111 0)
(0.0213836 0.0576171 0)
(0.0243948 0.0491494 0)
(0.0265065 0.0410297 0)
(0.0279062 0.0333888 0)
(0.0287381 0.0262821 0)
(0.0291169 0.0197283 0)
(0.0291377 0.0137284 0)
(0.0288801 0.00827621 0)
(0.0284119 0.00336333 0)
(0.0277912 -0.00101805 0)
(0.0270679 -0.00487486 0)
(0.0262846 -0.00821411 0)
(0.0254776 -0.0110445 0)
(0.0246771 -0.0133784 0)
(0.0239087 -0.0152339 0)
(0.0231943 -0.0166354 0)
(0.0225536 -0.0176136 0)
(0.0220044 -0.0182033 0)
(0.0215618 -0.018442 0)
(0.0212386 -0.0183685 0)
(0.0042417 0.0624533 0)
(0.0111575 0.0666353 0)
(0.0172376 0.060848 0)
(0.0219495 0.0536931 0)
(0.0254974 0.0462989 0)
(0.0280558 0.0390412 0)
(0.0298097 0.0320936 0)
(0.0309157 0.0255422 0)
(0.0315038 0.0194295 0)
(0.0316829 0.013775 0)
(0.0315452 0.00858749 0)
(0.0311685 0.00387087 0)
(0.0306186 -0.000372213 0)
(0.0299508 -0.00413958 0)
(0.0292105 -0.00743 0)
(0.0284341 -0.0102448 0)
(0.0276505 -0.0125902 0)
(0.026882 -0.0144796 0)
(0.0261475 -0.0159347 0)
(0.0254645 -0.0169845 0)
(0.0248506 -0.0176628 0)
(0.0243219 -0.0180057 0)
(0.0238933 -0.0180495 0)
(0.00388118 0.0553622 0)
(0.0106864 0.0596472 0)
(0.016976 0.0551853 0)
(0.0220139 0.0493151 0)
(0.0259048 0.0430326 0)
(0.028772 0.0367031 0)
(0.0307856 0.0305164 0)
(0.0321032 0.0245801 0)
(0.0328606 0.0189574 0)
(0.0331743 0.0136869 0)
(0.0331439 0.00879332 0)
(0.032854 0.00429467 0)
(0.0323757 0.000205966 0)
(0.031768 -0.00345932 0)
(0.0310783 -0.00668944 0)
(0.0303428 -0.0094762 0)
(0.0295876 -0.0118179 0)
(0.0288313 -0.0137227 0)
(0.0280887 -0.0152101 0)
(0.0273754 -0.0163091 0)
(0.0267089 -0.0170542 0)
(0.0261073 -0.0174813 0)
(0.0255884 -0.0176255 0)
(0.00374231 0.0485797 0)
(0.0103725 0.0527183 0)
(0.0166704 0.0493766 0)
(0.0218191 0.0447096 0)
(0.0258623 0.0395268 0)
(0.0288871 0.0341448 0)
(0.0310472 0.0287486 0)
(0.0324942 0.0234583 0)
(0.0333626 0.0183539 0)
(0.0337702 0.0134909 0)
(0.0338191 0.00890994 0)
(0.0335969 0.00464343 0)
(0.0331781 0.00071959 0)
(0.0326239 -0.00283538 0)
(0.0319829 -0.00599735 0)
(0.0312903 -0.00874636 0)
(0.0305687 -0.0110708 0)
(0.0298309 -0.0129728 0)
(0.0290865 -0.0144708 0)
(0.0283486 -0.0155965 0)
(0.0276358 -0.0163875 0)
(0.0269694 -0.0168809 0)
(0.0263713 -0.0171106 0)
(0.00375901 0.0419282 0)
(0.0102347 0.0459152 0)
(0.0164387 0.0435927 0)
(0.0215422 0.0400643 0)
(0.0255733 0.0359494 0)
(0.0286098 0.0315021 0)
(0.0307977 0.026895 0)
(0.0322814 0.0222552 0)
(0.03319 0.0176765 0)
(0.0336374 0.0132292 0)
(0.0337241 0.00896832 0)
(0.0335376 0.00493963 0)
(0.0331532 0.00118443 0)
(0.0326338 -0.00225782 0)
(0.0320288 -0.00534903 0)
(0.031372 -0.00805493 0)
(0.0306814 -0.0103513 0)
(0.0299617 -0.0122328 0)
(0.0292149 -0.0137195 0)
(0.0284513 -0.0148497 0)
(0.0276923 -0.0156672 0)
(0.0269644 -0.0162116 0)
(0.0262943 -0.0165158 0)
(0.00387244 0.0352688 0)
(0.0102689 0.0392271 0)
(0.0163548 0.0379269 0)
(0.0213114 0.0355193 0)
(0.0251965 0.0324455 0)
(0.0281126 0.0289047 0)
(0.0302134 0.0250628 0)
(0.0316396 0.0210565 0)
(0.0325123 0.0169929 0)
(0.0329381 0.0129555 0)
(0.0330119 0.00901147 0)
(0.0328183 0.0052182 0)
(0.0324319 0.00162864 0)
(0.0319165 -0.00170492 0)
(0.031323 -0.00472933 0)
(0.030685 -0.00739296 0)
(0.030015 -0.00965442 0)
(0.029306 -0.0114989 0)
(0.0285485 -0.0129516 0)
(0.0277504 -0.0140647 0)
(0.0269391 -0.014892 0)
(0.0261488 -0.0154768 0)
(0.0254124 -0.0158495 0)
(0.0040548 0.0284914 0)
(0.0104867 0.0325866 0)
(0.0164806 0.0324157 0)
(0.0212238 0.031177 0)
(0.0248502 0.0291392 0)
(0.0275274 0.0264711 0)
(0.0294357 0.0233546 0)