/*--------------------------------*- C++ -*----------------------------------*\
  =========                 |
  \\      /  F ield         | OpenFOAM: The Open Source CFD Toolbox
   \\    /   O peration     | Website:  https://openfoam.org
    \\  /    A nd           | Version:  9
     \\/     M anipulation  |
\*---------------------------------------------------------------------------*/
FoamFile
{
    format      ascii;
    class       volScalarField;
    location    "7.9";
    object      p;
}
// * * * * * * * * * * * * * * * * * * * * * * * * * * * * * * * * * * * * * //

dimensions      [0 2 -2 0 0 0 0];

internalField   nonuniform List<scalar> 
918
(
23.6053
23.8856
1.02508
23.02
1.01339
23.4021
3.58512
14.0763
19.3774
3.11272
2.80477
14.5597
20.945
17.1863
13.3094
0.968204
14.3165
2.42425
18.5927
1.41754
13.3158
20.5839
21.6728
19.4206
14.314
14.662
18.9074
1.25275
0.113677
0.315166
0.965159
0.433906
0.194663
21.939
22.6156
22.5539
15.636
10.5757
3.93269
4.15014
3.29214
3.08615
14.1136
14.2133
6.2093
14.059
14.0564
16.7815
19.2452
19.3886
19.6832
19.4715
19.8581
6.01531
2.97721
2.7948
3.09515
3.16313
3.04742
2.89456
2.88256
2.67412
2.52729
14.046
14.6319
14.682
14.4307
14.3838
22.7617
22.0047
22.3394
21.4458
21.5912
20.5212
20.1356
17.5621
17.9146
16.788
16.407
13.0925
13.0435
13.5393
13.7825
0.152946
1.12451
1.27084
14.3196
14.3488
14.3645
14.3798
8.38495
2.40111
2.41362
18.0332
17.6094
20.6154
20.8824
20.3294
20.1438
1.58532
1.61995
1.19354
1.21918
0.989355
13.637
13.79
19.372
18.5391
14.3312
14.2419
14.3065
11.703
14.1088
14.1906
15.6328
16.0858
15.2704
15.7109
18.4774
18.0593
19.3439
19.7812
0.430851
0.16606
0.740635
0.37187
0.569678
15.5047
15.3013
15.7415
15.8019
16.0326
10.5782
10.4995
10.5557
10.4737
4.50571
4.82127
2.50057
2.8427
2.671
10.0168
14.2281
14.2686
5.1685
5.86165
5.53003
6.68015
7.05463
16.1484
16.584
16.3234
17.8681
17.0734
17.4215
19.9472
19.437
19.7372
6.41125
6.66794
5.65553
5.30517
2.43017
2.67236
2.61069
3.19565
3.17712
3.2782
3.42443
2.76824
2.62273
3.11158
2.98376
3.04282
2.34964
2.20708
13.7752
13.567
14.3044
14.4822
15.2287
15.0832
14.7961
14.9608
19.3307
19.7341
19.7676
19.3834
11.7837
10.2982
14.0407
14.3121
0.313333
0.266758
0.142189
0.393309
0.399545
0.160824
2.06016
1.8698
1.45218
1.72009
14.3083
14.2636
8.6254
8.84918
8.21814
7.95842
16.4458
16.5966
17.2312
16.8306
2.10394
1.78986
1.93569
13.9485
13.8198
13.9309
11.1521
10.6005
12.1721
12.4411
14.2358
14.256
14.2611
15.9914
16.3096
20.132
20.4027
20.2295
20.6153
21.6781
21.3294
20.9446
14.6891
15.0923
14.9338
16.2592
15.8926
16.1119
15.3204
15.6247
15.4819
10.5283
10.5748
10.2809
10.3597
10.4144
10.3596
9.94604
9.81671
14.3465
14.3055
14.3282
7.56648
8.04983
4.92967
4.60738
12.7295
13.3871
13.0692
18.9604
18.2827
19.0157
18.6448
18.1949
18.5184
10.5841
10.5385
10.5759
15.2294
14.5718
14.9209
2.49833
2.13095
2.30013
9.0471
9.14187
7.03962
7.67099
7.33512
16.611
16.9514
17.6314
16.7433
17.2108
17.7181
17.4962
10.0949
10.2336
10.1475
9.7963
9.68543
9.97518
8.61452
9.20845
3.68649
4.3301
4.03233
9.31114
9.55464
9.39842
18.7664
19.301
0.804895
1.24745
19.7288
19.4521
0.164209
0.285413
14.5641
12.8229
7.5759
17.3293
16.7684
19.1046
3.33481
6.1724
2.9657
3.45701
2.74191
14.7518
14.4081
13.5124
0.481205
1.28105
1.75424
3.07155
18.5469
17.8721
18.9866
19.3072
19.3612
0.701182
0.949161
0.590525
1.33073
1.09302
1.32277
15.694
15.7778
4.62624
18.993
19.2968
19.3149
17.7899
18.7432
17.8006
0.965822
0.67054
0.749888
10.3147
12.3235
14.5266
14.0763
14.2765
14.2986
14.0499
15.1811
14.8574
14.8157
15.2975
14.2365
14.1043
8.01219
6.70213
8.36715
8.02118
17.231
16.8185
16.6315
16.3781
18.2196
17.7453
18.5959
17.9834
18.4452
18.7325
3.15627
3.31817
3.1762
2.71196
6.22894
6.69665
5.57568
5.6934
4.33515
2.64907
2.71067
2.91048
2.79013
3.06099
2.75931
3.02883
2.6678
2.37916
2.37603
3.03885
2.82859
2.71555
14.7237
14.6686
14.4736
14.518
14.5084
14.6212
13.7007
14.0975
13.7317
12.5905
13.153
12.6939
0.815191
0.666072
0.545835
1.36185
1.39919
1.15354
0.883814
1.22928
1.20532
0.893597
1.59323
1.56033
3.37114
2.87674
8.95102
8.07292
7.01346
16.9386
17.7394
16.9093
18.1478
18.5648
18.6708
18.2916
17.7834
15.8575
15.8539
15.514
15.4659
5.04405
4.01265
5.25785
4.86798
10.6632
14.3001
12.0417
11.0217
11.3153
13.5851
14.2428
13.8845
14.069
13.608
13.1074
13.8354
13.3482
13.4554
13.2029
16.0278
16.5026
16.1091
15.5294
15.5497
10.7689
12.1548
5.80341
5.94512
7.49128
6.83387
13.8109
14.1906
14.1772
13.8374
14.0393
14.0161
13.8511
14.0077
14.1292
14.0304
11.9574
10.3737
9.30342
9.29898
14.3345
12.5034
13.1072
12.5636
16.2501
16.7686
16.3821
15.7877
16.2704
15.7436
15.7634
15.97
17.3357
17.0842
16.8555
17.2426
3.26669
3.20992
3.83348
3.34149
3.23106
3.00039
3.66282
4.90297
4.56717
6.82672
7.36359
4.73931
3.63896
3.98394
4.98984
5.66809
5.66774
4.09767
4.58253
5.01632
4.53983
5.29245
4.81035
2.87599
3.1672
3.03532
3.01092
3.47744
3.96244
3.47743
2.59686
2.74077
2.44997
2.30883
3.66451
3.20555
3.23639
3.81696
1.18593
1.38473
1.50017
2.50398
1.9857
2.04864
15.3128
14.9574
15.0911
14.3871
14.4611
14.4121
14.0282
15.3829
15.1077
15.2062
13.8663
13.9541
13.771
14.0606
14.458
14.7536
15.5863
15.3037
14.5584
14.7104
14.3635
14.2884
13.6297
13.0744
13.0127
1.13943
0.843184
1.01628
0.960927
0.641782
0.831282
2.22528
1.62854
2.03333
1.75977
1.99433
1.49543
1.36799
4.4644
5.25662
4.22065
3.61638
3.31753
9.00652
9.12259
8.25574
7.96007
8.29348
8.52935
8.47872
7.21238
7.65054
7.46514
10.0753
9.72164
17.7223
17.6669
17.3388
17.1795
17.4052
6.02362
7.81415
7.05094
8.12999
10.3743
10.6875
9.42298
8.81717
9.58539
9.6375
14.2767
14.3621
13.7977
14.261
14.2869
12.035
13.0417
13.6559
13.447
14.0026
14.0937
13.2127
13.7637
13.6351
12.9279
12.9793
12.3215
12.6356
12.1702
11.987
14.204
14.0988
14.366
13.9228
14.2922
13.89
14.184
14.2094
14.4845
13.5745
12.9996
13.0231
13.4377
13.1411
13.4804
13.6362
9.41181
10.0635
10.5446
11.0996
10.8087
10.575
10.4312
10.7529
10.7384
11.0044
10.9224
10.7565
11.6899
13.7249
14.0008
14.1414
13.889
13.9164
13.6172
13.91
13.8305
14.1735
14.2681
14.3184
13.3294
13.5391
13.7458
13.6267
11.8104
10.2503
10.1004
9.69447
7.84138
8.28604
11.1716
10.0952
9.14485
9.21821
12.3761
11.0205
11.8269
12.2057
10.8889
10.5234
13.1467
13.9703
14.1764
13.8642
12.2215
12.3392
12.7908
13.2483
13.4469
13.9347
15.9999
16.5714
16.6504
16.3758
16.2363
16.3331
16.0808
16.1861
16.6605
16.786
16.6167
3.07675
3.18168
3.13348
3.05701
3.29016
3.10356
4.14649
4.14203
3.34336
3.51616
3.53151
3.61903
3.14433
3.16616
4.93582
5.17387
5.44598
4.96717
6.29868
6.90524
7.46676
7.17831
5.90868
5.97022
6.27574
3.64918
3.62873
3.37667
3.81569
3.88825
2.75956
2.40326
2.19513
2.7307
2.82679
2.2022
1.89294
1.96101
2.43609
2.22301
1.96246
15.1171
14.8792
14.8986
14.68
14.734
15.1237
15.3422
15.1476
15.2826
15.333
14.9409
14.8238
14.9959
1.86764
1.5467
1.69202
1.69948
1.69044
1.62977
1.7977
7.70067
6.53634
6.91014
6.13897
4.36903
4.85423
9.69748
10.1141
10.157
9.84648
9.63683
9.99352
9.86301
9.85281
8.36803
9.43415
8.97279
9.3744
9.41105
9.47649
9.18042
9.20827
10.7152
10.7492
9.60253
10.2572
9.50231
8.15764
8.31813
9.26681
10.2072
10.5662
10.4122
10.1042
9.88278
10.2851
10.3171
10.4042
10.3908
8.86969
8.81134
8.4032
14.1847
14.1286
14.2719
14.2494
14.3966
14.167
13.9986
14.2829
14.3474
14.1213
11.2622
11.3331
11.5907
12.3822
12.4487
12.2296
11.4922
13.3273
12.9465
13.6618
13.5945
13.6202
13.1991
13.0119
13.3268
10.2686
11.6242
11.1539
11.4323
10.2748
9.54452
13.4206
13.4626
13.5655
13.8577
13.783
14.3721
15.9681
15.8364
15.8866
15.9306
15.5415
15.5763
4.30176
3.97547
4.69086
4.65359
4.21801
3.92392
2.36476
2.07532
1.89244
1.76618
1.9598
2.03303
8.28617
8.29349
6.47963
7.47419
6.0934
5.15762
5.02931
6.13445
7.28315
7.36477
8.59929
9.29467
8.85944
8.69014
8.01978
8.3454
10.2776
10.3727
10.2714
10.596
10.1349
11.9248
11.4989
11.8621
13.522
13.2063
12.5809
12.4645
12.4682
13.0862
12.0955
11.3196
12.0244
12.7173
12.6767
11.3084
11.0534
11.4916
11.4421
10.3418
10.8847
10.6395
10.9889
10.6759
)
;

boundaryField
{
    wall-4
    {
        type            zeroGradient;
    }
    velocity-inlet-5
    {
        type            zeroGradient;
    }
    velocity-inlet-6
    {
        type            zeroGradient;
    }
    pressure-outlet-7
    {
        type            fixedValue;
        value           uniform 0;
    }
    wall-8
    {
        type            zeroGradient;
    }
    frontAndBackPlanes
    {
        type            empty;
    }
}


// ************************************************************************* //
