# vtk DataFile Version 2.0
track0
ASCII
DATASET POLYDATA
POINTS 12040 float
-0.0205 0.001 1e-05
-0.02052 0.000999985 1e-05
-0.02054 0.000999974 1e-05
-0.02056 0.000999965 1e-05
-0.02058 0.000999959 1e-05
-0.0206 0.000999956 1e-05
-0.0205 0.00367778 1e-05
-0.02052 0.00367778 1e-05
-0.02054 0.00367777 1e-05
-0.02056 0.00367777 1e-05
-0.02058 0.00367777 1e-05
-0.0206 0.00367777 1e-05
-0.0205 0.00635556 1e-05
-0.02052 0.00635555 1e-05
-0.02054 0.00635555 1e-05
-0.02056 0.00635555 1e-05
-0.02058 0.00635555 1e-05
-0.0206 0.00635555 1e-05
-0.0205 0.00903333 1e-05
-0.02052 0.00903333 1e-05
-0.02054 0.00903333 1e-05
-0.02056 0.00903333 1e-05
-0.02058 0.00903333 1e-05
-0.0206 0.00903333 1e-05
-0.0205 0.0117111 1e-05
-0.02052 0.0117111 1e-05
-0.02054 0.0117111 1e-05
-0.02056 0.0117111 1e-05
-0.02058 0.0117111 1e-05
-0.0206 0.0117111 1e-05
-0.0205 0.0143889 1e-05
-0.02052 0.0143889 1e-05
-0.02054 0.0143889 1e-05
-0.02056 0.0143889 1e-05
-0.02058 0.0143889 1e-05
-0.0206 0.0143889 1e-05
-0.0205 0.0170667 1e-05
-0.02052 0.0170667 1e-05
-0.02054 0.0170667 1e-05
-0.02056 0.0170667 1e-05
-0.02058 0.0170667 1e-05
-0.0206 0.0170667 1e-05
-0.0205 0.0197444 1e-05
-0.02052 0.0197444 1e-05
-0.02054 0.0197444 1e-05
-0.02056 0.0197444 1e-05
-0.02058 0.0197444 1e-05
-0.0206 0.0197444 1e-05
-0.0205 0.0224222 1e-05
-0.02052 0.0224222 1e-05
-0.02054 0.0224222 1e-05
-0.02056 0.0224222 1e-05
-0.02058 0.0224222 1e-05
-0.0206 0.0224222 1e-05
-0.0205 0.0251 1e-05
-0.02052 0.0250998 1e-05
-0.02054 0.0250997 1e-05
-0.02056 0.0250995 1e-05
-0.02058 0.0250995 1e-05
-0.0206 0.0250994 1e-05
-0.0205 0.001 1e-05
-0.0202034 0.00100022 1e-05
-0.0199069 0.00100067 1e-05
-0.0196103 0.00100133 1e-05
-0.0193137 0.00100219 1e-05
-0.0190172 0.00100326 1e-05
-0.0187132 0.00100467 1e-05
-0.0184093 0.00100589 1e-05
-0.0181054 0.00100711 1e-05
-0.0178015 0.00100832 1e-05
-0.0174976 0.00100954 1e-05
-0.0172058 0.00101083 1e-05
-0.016914 0.00101193 1e-05
-0.0166222 0.00101303 1e-05
-0.0163305 0.00101413 1e-05
-0.0160387 0.00101523 1e-05
-0.0157586 0.00101637 1e-05
-0.0154784 0.00101745 1e-05
-0.0151983 0.00101856 1e-05
-0.0149182 0.00101972 1e-05
-0.0146381 0.0010209 1e-05
-0.0143745 0.00102209 1e-05
-0.014111 0.00102327 1e-05
-0.0138475 0.00102449 1e-05
-0.0135839 0.00102574 1e-05
-0.0133614 0.00102682 1e-05
-0.0133478 0.00102688 1e-05
-0.0133342 0.00102695 1e-05
-0.0133206 0.00102702 1e-05
-0.013307 0.00102709 1e-05
-0.0132934 0.00102715 1e-05
-0.0130353 0.00102844 1e-05
-0.0127771 0.00102974 1e-05
-0.0125189 0.00103106 1e-05
-0.0122607 0.0010324 1e-05
-0.0120025 0.00103375 1e-05
-0.0117547 0.00103506 1e-05
-0.0115068 0.00103637 1e-05
-0.0112589 0.00103769 1e-05
-0.0110111 0.00103902 1e-05
-0.0107632 0.00104035 1e-05
-0.0105252 0.00104162 1e-05
-0.0102873 0.0010429 1e-05
-0.0100493 0.00104418 1e-05
-0.00981133 0.00104546 1e-05
-0.00957337 0.00104673 1e-05
-0.00934491 0.00104795 1e-05
-0.00911645 0.00104918 1e-05
-0.00888799 0.00105039 1e-05
-0.00865954 0.00105161 1e-05
-0.00843108 0.00105282 1e-05
-0.00821175 0.00105398 1e-05
-0.00799242 0.00105514 1e-05
-0.00777309 0.00105629 1e-05
-0.00755376 0.00105744 1e-05
-0.00733443 0.00105859 1e-05
-0.00712387 0.00105968 1e-05
-0.0069133 0.00106077 1e-05
-0.00670273 0.00106185 1e-05
-0.00649216 0.00106293 1e-05
-0.0062816 0.00106401 1e-05
-0.00607944 0.00106504 1e-05
-0.00587729 0.00106606 1e-05
-0.00567514 0.00106708 1e-05
-0.00547298 0.0010681 1e-05
-0.00527083 0.00106911 1e-05
-0.00507675 0.00107008 1e-05
-0.00488267 0.00107104 1e-05
-0.0046886 0.001072 1e-05
-0.00449452 0.00107296 1e-05
-0.00430044 0.00107391 1e-05
-0.00411412 0.00107481 1e-05
-0.0039278 0.00107572 1e-05
-0.00374147 0.00107663 1e-05
-0.00355515 0.00107753 1e-05
-0.00336883 0.00107842 1e-05
-0.00318995 0.00107928 1e-05
-0.00301107 0.00108013 1e-05
-0.00283219 0.00108098 1e-05
-0.00265331 0.00108183 1e-05
-0.00247443 0.00108268 1e-05
-0.0023027 0.00108349 1e-05
-0.00213097 0.0010843 1e-05
-0.00195924 0.00108511 1e-05
-0.0017875 0.00108591 1e-05
-0.00161577 0.00108672 1e-05
-0.0014509 0.00108748 1e-05
-0.00128603 0.00108825 1e-05
-0.00112116 0.00108902 1e-05
-0.000956289 0.00108979 1e-05
-0.000791418 0.00109057 1e-05
-0.000633135 0.0010913 1e-05
-0.000474851 0.00109204 1e-05
-0.000316567 0.00109278 1e-05
-0.000158284 0.00109352 1e-05
0 0.00109426 1e-05
0.000105677 0.00109475 1e-05
0.000211355 0.00109524 1e-05
0.000317032 0.00109573 1e-05
0.00042271 0.00109621 1e-05
0.000528387 0.00109669 1e-05
0.000634886 0.00109717 1e-05
0.000741385 0.00109765 1e-05
0.000847885 0.00109813 1e-05
0.000954384 0.0010986 1e-05
0.00106088 0.00109906 1e-05
0.00116821 0.00109953 1e-05
0.00127554 0.00109999 1e-05
0.00138286 0.00110045 1e-05
0.00149019 0.0011009 1e-05
0.00159752 0.00110134 1e-05
0.00170568 0.00110178 1e-05
0.00181384 0.00110222 1e-05
0.001922 0.00110264 1e-05
0.00203016 0.00110306 1e-05
0.00213833 0.00110347 1e-05
0.00224733 0.00110387 1e-05
0.00235633 0.00110427 1e-05
0.00246533 0.00110465 1e-05
0.00257434 0.00110503 1e-05
0.00268334 0.0011054 1e-05
0.00279319 0.00110576 1e-05
0.00290304 0.00110612 1e-05
0.00301289 0.00110647 1e-05
0.00312274 0.00110681 1e-05
0.00323259 0.00110714 1e-05
0.00334329 0.00110747 1e-05
0.003454 0.00110779 1e-05
0.0035647 0.0011081 1e-05
0.0036754 0.00110841 1e-05
0.00378611 0.0011087 1e-05
0.00389767 0.00110899 1e-05
0.00400924 0.00110927 1e-05
0.0041208 0.00110955 1e-05
0.00423237 0.00110982 1e-05
0.00434393 0.00111008 1e-05
0.00445636 0.00111033 1e-05
0.00456879 0.00111058 1e-05
0.00468123 0.00111082 1e-05
0.00479366 0.00111105 1e-05
0.00490609 0.00111128 1e-05
0.0050194 0.00111149 1e-05
0.0051327 0.0011117 1e-05
0.00524601 0.0011119 1e-05
0.00535932 0.0011121 1e-05
0.00547262 0.00111228 1e-05
0.00558681 0.00111246 1e-05
0.005701 0.00111263 1e-05
0.00581518 0.0011128 1e-05
0.00592937 0.00111296 1e-05
0.00604356 0.00111311 1e-05
0.00615863 0.00111325 1e-05
0.00627371 0.00111338 1e-05
0.00638878 0.00111351 1e-05
0.00650386 0.00111363 1e-05
0.00661893 0.00111375 1e-05
0.0067349 0.00111385 1e-05
0.00685087 0.00111395 1e-05
0.00696684 0.00111404 1e-05
0.00708281 0.00111412 1e-05
0.00719878 0.0011142 1e-05
0.00728915 0.00111425 1e-05
0.00737953 0.0011143 1e-05
0.0074699 0.00111434 1e-05
0.00756027 0.00111438 1e-05
0.00764678 0.00111442 1e-05
0.00767405 0.00111442 1e-05
0.00770132 0.00111443 1e-05
0.00772859 0.00111444 1e-05
0.00775586 0.00111445 1e-05
0.00778313 0.00111446 1e-05
0.00790091 0.00111449 1e-05
0.00801869 0.00111451 1e-05
0.00813647 0.00111452 1e-05
0.00825425 0.00111453 1e-05
0.00837203 0.00111453 1e-05
0.00849073 0.00111451 1e-05
0.00860942 0.0011145 1e-05
0.00872812 0.00111447 1e-05
0.00884682 0.00111444 1e-05
0.00896551 0.0011144 1e-05
0.00908513 0.00111434 1e-05
0.00920475 0.00111428 1e-05
0.00932437 0.00111422 1e-05
0.00944398 0.00111414 1e-05
0.0095636 0.00111406 1e-05
0.00968415 0.00111396 1e-05
0.0098047 0.00111386 1e-05
0.00992525 0.00111375 1e-05
0.0100458 0.00111363 1e-05
0.0101663 0.00111351 1e-05
0.0102878 0.00111336 1e-05
0.0104093 0.00111322 1e-05
0.0105308 0.00111307 1e-05
0.0106523 0.00111291 1e-05
0.0107738 0.00111274 1e-05
0.0108962 0.00111255 1e-05
0.0110186 0.00111237 1e-05
0.0111411 0.00111217 1e-05
0.0112635 0.00111197 1e-05
0.0113859 0.00111175 1e-05
0.0115093 0.00111152 1e-05
0.0116327 0.00111129 1e-05
0.0117561 0.00111104 1e-05
0.0118795 0.0011108 1e-05
0.0120028 0.00111054 1e-05
0.0121272 0.00111025 1e-05
0.0122515 0.00110998 1e-05
0.0123759 0.00110969 1e-05
0.0125002 0.00110939 1e-05
0.0126245 0.00110909 1e-05
0.0127498 0.00110876 1e-05
0.0128752 0.00110843 1e-05
0.0130005 0.0011081 1e-05
0.0131258 0.00110775 1e-05
0.0132511 0.0011074 1e-05
0.0133774 0.00110702 1e-05
0.0135036 0.00110665 1e-05
0.0136299 0.00110626 1e-05
0.0137562 0.00110587 1e-05
0.0138825 0.00110547 1e-05
0.0140098 0.00110504 1e-05
0.014137 0.00110462 1e-05
0.0142643 0.00110418 1e-05
0.0143915 0.00110374 1e-05
0.0145188 0.00110329 1e-05
0.0146471 0.00110281 1e-05
0.0147753 0.00110234 1e-05
0.0149036 0.00110185 1e-05
0.0150318 0.00110136 1e-05
0.0151601 0.00110085 1e-05
0.0152893 0.00110033 1e-05
0.0154186 0.0010998 1e-05
0.0155478 0.00109927 1e-05
0.0156771 0.00109872 1e-05
0.0158063 0.00109816 1e-05
0.0159366 0.00109759 1e-05
0.0160668 0.00109701 1e-05
0.0161971 0.00109642 1e-05
0.0163274 0.00109582 1e-05
0.0164576 0.00109521 1e-05
0.0165889 0.00109459 1e-05
0.0167201 0.00109396 1e-05
0.0168514 0.00109332 1e-05
0.0169827 0.00109267 1e-05
0.0171139 0.001092 1e-05
0.0172462 0.00109133 1e-05
0.0173785 0.00109065 1e-05
0.0175108 0.00108995 1e-05
0.0176431 0.00108925 1e-05
0.0177754 0.00108853 1e-05
0.0179087 0.00108781 1e-05
0.018042 0.00108708 1e-05
0.0181753 0.00108633 1e-05
0.0183087 0.00108556 1e-05
0.018442 0.0010848 1e-05
0.0185763 0.00108403 1e-05
0.0187107 0.00108324 1e-05
0.018845 0.00108243 1e-05
0.0189794 0.00108162 1e-05
0.0191137 0.0010808 1e-05
0.0192491 0.00107998 1e-05
0.0193845 0.00107914 1e-05
0.0195199 0.00107828 1e-05
0.0196553 0.00107741 1e-05
0.0197907 0.00107654 1e-05
0.0199272 0.00107567 1e-05
0.0200636 0.00107477 1e-05
0.0202001 0.00107386 1e-05
0.0203365 0.00107293 1e-05
0.020473 0.00107201 1e-05
0.0206105 0.00107109 1e-05
0.020748 0.00107014 1e-05
0.0208855 0.00106917 1e-05
0.021023 0.00106819 1e-05
0.0211606 0.00106721 1e-05
0.0212991 0.00106624 1e-05
0.0214377 0.00106524 1e-05
0.0215763 0.00106422 1e-05
0.0217149 0.00106318 1e-05
0.0218535 0.00106215 1e-05
0.0219931 0.00106113 1e-05
0.0221328 0.00106007 1e-05
0.0222724 0.001059 1e-05
0.0224121 0.00105791 1e-05
0.0225517 0.00105683 1e-05
0.0226925 0.00105575 1e-05
0.0228332 0.00105464 1e-05
0.022974 0.00105351 1e-05
0.0231147 0.00105236 1e-05
0.0232555 0.00105123 1e-05
0.0233973 0.0010501 1e-05
0.0235391 0.00104893 1e-05
0.023681 0.00104775 1e-05
0.0238228 0.00104655 1e-05
0.0239647 0.00104536 1e-05
0.0241076 0.00104417 1e-05
0.0242505 0.00104296 1e-05
0.0243935 0.00104171 1e-05
0.0245364 0.00104046 1e-05
0.0246794 0.00103922 1e-05
0.0248234 0.00103797 1e-05
0.0249675 0.0010367 1e-05
0.0251115 0.0010354 1e-05
0.0252556 0.00103409 1e-05
[...]
POINT_DATA 12040
 FIELD attributes 3
age 1 12040 float
0 -2e-05 -4e-05 -6e-05 -8e-05 -0.0001
0 -2e-05 -4e-05 -6e-05 -8e-05 -0.0001
0 -2e-05 -4e-05 -6e-05 -8e-05 -0.0001
0 -2e-05 -4e-05 -6e-05 -8e-05 -0.0001
0 -2e-05 -4e-05 -6e-05 -8e-05 -0.0001
0 -2e-05 -4e-05 -6e-05 -8e-05 -0.0001
0 -2e-05 -4e-05 -6e-05 -8e-05 -0.0001
0 -2e-05 -4e-05 -6e-05 -8e-05 -0.0001
0 -2e-05 -4e-05 -6e-05 -8e-05 -0.0001
0 -2.00009e-05 -4.00018e-05 -6.00027e-05 -8.00036e-05 -0.000100002
0 0.000296567 0.000593135 0.000889702 0.00118627 0.00148284 0.00178676 0.00209069 0.00239461 0.00269853 0.00300245 0.00329423 0.00358601 0.00387779 0.00416957 0.00446135 0.00474147 0.00502159 0.00530171 0.00558183 0.00586196 0.0061255 0.00638904 0.00665258 0.00691612 0.00713868 0.00715227 0.00716585 0.00717944 0.00719302 0.00720661 0.0074648 0.00772298 0.00798117 0.00823935 0.00849754 0.00874541 0.00899328 0.00924116 0.00948903 0.0097369 0.00997487 0.0102128 0.0104508 0.0106888 0.0109267 0.0111552 0.0113837 0.0116121 0.0118406 0.012069 0.0122884 0.0125077 0.012727 0.0129464 0.0131657 0.0133763 0.0135868 0.0137974 0.014008 0.0142186 0.0144207 0.0146229 0.014825 0.0150272 0.0152293 0.0154234 0.0156175 0.0158116 0.0160057 0.0161997 0.0163861 0.0165724 0.0167587 0.016945 0.0171314 0.0173102 0.0174891 0.017668 0.0178469 0.0180258 0.0181975 0.0183692 0.018541 0.0187127 0.0188844 0.0190493 0.0192142 0.0193791 0.0195439 0.0197088 0.0198671 0.0200254 0.0201837 0.0203419 0.0205002 0.0206059 0.0207116 0.0208173 0.0209229 0.0210286 0.0211351 0.0212416 0.0213481 0.0214546 0.0215611 0.0216684 0.0217758 0.0218831 0.0219904 0.0220978 0.0222059 0.0223141 0.0224222 0.0225304 0.0226386 0.0227476 0.0228566 0.0229656 0.0230746 0.0231836 0.0232934 0.0234033 0.0235131 0.023623 0.0237328 0.0238435 0.0239542 0.024065 0.0241757 0.0242864 0.0243979 0.0245095 0.0246211 0.0247326 0.0248442 0.0249566 0.025069 0.0251815 0.0252939 0.0254063 0.0255197 0.025633 0.0257463 0.0258596 0.0259729 0.0260871 0.0262013 0.0263154 0.0264296 0.0265438 0.0266589 0.026774 0.026889 0.0270041 0.0271192 0.0272352 0.0273511 0.0274671 0.0275831 0.027699 0.0277894 0.0278798 0.0279702 0.0280605 0.028147 0.0281743 0.0282016 0.0282289 0.0282561 0.0282834 0.0284012 0.028519 0.0286367 0.0287545 0.0288723 0.028991 0.0291097 0.0292284 0.0293471 0.0294658 0.0295854 0.029705 0.0298246 0.0299442 0.0300639 0.0301844 0.030305 0.0304255 0.0305461 0.0306666 0.0307881 0.0309096 0.0310311 0.0311525 0.031274 0.0313965 0.0315189 0.0316413 0.0317638 0.0318862 0.0320096 0.0321329 0.0322563 0.0323797 0.0325031 0.0326274 0.0327518 0.0328761 0.0330005 0.0331248 0.0332501 0.0333754 0.0335007 0.033626 0.0337513 0.0338776 0.0340039 0.0341302 0.0342565 0.0343828 0.03451 0.0346373 0.0347646 0.0348918 0.0350191 0.0351473 0.0352756 0.0354038 0.0355321 0.0356604 0.0357896 0.0359189 0.0360481 0.0361774 0.0363066 0.0364369 0.0365671 0.0366974 0.0368276 0.0369579 0.0370892 0.0372204 0.0373517 0.037483 0.0376142 0.0377465 0.0378788 0.0380111 0.0381434 0.0382757 0.038409 0.0385423 0.0386757 0.038809 0.0389423 0.0390766 0.039211 0.0393454 0.0394797 0.0396141 0.0397495 0.0398849 0.0400203 0.0401557 0.0402911 0.0404275 0.040564 0.0407004 0.0408369 0.0409733 0.0411109 0.0412484 0.0413859 0.0415234 0.0416609 0.0417995 0.0419381 0.0420767 0.0422153 0.0423538 0.0424935 0.0426332 0.0427728 0.0429125 0.0430522 0.0431929 0.0433337 0.0434744 0.0436152 0.0437559 0.0438977 0.0440396 0.0441814 0.0443233 0.0444651 0.0446081 0.044751 0.044894 0.0450369 0.0451799 0.0453239 0.045468 0.045612 0.0457561 0.0459001 0.0460453 0.0461905 0.0463357 0.0464809 0.046626 0.0467723 0.0469187 0.047065 0.0472113 0.0473576 0.047505 0.0476525 0.0477999 0.0479474 0.0480948 0.0482434 0.048392 0.0485406 0.0486892 0.0488378 0.0489875 0.0491373 0.049287 0.0494368 0.0495865 0.0497374 0.0498883 0.0500392 0.0501902 0.0503411 0.0504932 0.0506452 0.0507973 0.0509494 0.0511015 0.0512548 0.0514081 0.0515613 0.0517146 0.0518679 0.0520223 0.0521768 0.0523312 0.0524857 0.0526402 0.0527958 0.0529515 0.0531072 0.0532628 0.0534185 0.0535754 0.0537322 0.0538891 0.054046 0.0542029 0.054361 0.0545191 0.0546772 0.0548352 0.0549933 0.0550299 0.0550664 0.0551029 0.0551395 0.0551756 0.0552985 0.0554214 0.0555442 0.0556671 0.05579 0.0559505 0.0561111 0.0562717 0.0564322 0.0565928 0.0567546 0.0569164 0.0570782 0.0572401 0.0574019 0.0575649 0.057728 0.0578911 0.0580542 0.0582172 0.0583816 0.0585459 0.0587103 0.0588746 0.059039 0.0592046 0.0593702 0.0595358 0.0597014 0.0598671 0.060034 0.0602009 0.0603678 0.0605347 0.0607016 0.0608698 0.061038 0.0612062 0.0613745 0.0615427 0.0617122 0.0618817 0.0620512 0.0622207 0.0623903 0.0625611 0.0627319 0.0629028 0.0630736 0.0632445 0.0634166 0.0635888 0.063761 0.0639331 0.0641053 0.0642788 0.0644523 0.0646258 0.0647993 0.0649729 0.0651477 0.0653226 0.0654974 0.0656723 0.0658472 0.0660234 0.0661996 0.0663758 0.0665521 0.0667283 0.0669059 0.0670835 0.0672611 0.0674387 0.0676163 0.0677952 0.0679742 0.0681532 0.0683322 0.0685112 0.0686915 0.0688719 0.0690523 0.0692327 0.069413 0.0695948 0.0697766 0.0699584 0.0701401 0.0703219 0.0705051 0.0706883 0.0708715 0.0710547 0.0712379 0.0714225 0.0716072 0.0717918 0.0719764 0.0721611 0.0723471 0.0725332 0.0727192 0.0729053 0.0730914 0.0732789 0.0734664 0.0736539 0.0738414 0.074029 0.0742038 0.0743786 0.0745535 0.0747283 0.0748926 0.0749089 0.0749251 0.0749414 0.0749576 0.0749739 0.0751643 0.0753548 0.0755452 0.0757357 0.0759261 0.0761181 0.07631 0.076502 0.0766939 0.0768859 0.0770793 0.0772727 0.0774662 0.0776596 0.0778531 0.078048 0.078243 0.0784379 0.0786329 0.0788278 0.0790243 0.0792208 0.0794172 0.0796137 0.0798102 0.0800082 0.0802062 0.0804042 0.0806022 0.0808003 0.0809998 0.0811994 0.0813989 0.0815985 0.0817981 0.0819992 0.0822003 0.0824014 0.0826025 0.0828037 0.0830064 0.0832091 0.0834117 0.0836144 0.0838172 0.0840214 0.0842257 0.08443 0.0846343 0.0848386 0.0850444 0.0852503 0.0854562 0.0856621 0.085868 0.0860755 0.086283 0.0864905 0.0866979 0.0869055 0.0871146 0.0873237 0.0875328 0.0877419 0.0879511 0.0881618 0.0883726 0.0885834 0.0887941 0.0890049 0.0890221 0.0890393 0.0890565 0.0890737 0.0890908 0.089286 0.0894813 0.0896765 0.0898717 0.090067 0.0902811 0.0904952 0.0907092 0.0909233 0.0911374 0.0913532 0.0915689 0.0917847 0.0920005 0.0922163 0.0924337 0.0926512 0.0928686 0.0930861 0.0933036 0.0935228 0.0937419 0.0939611 0.0941803 0.0943995 0.0946204 0.0948413 0.0950622 0.0952831 0.095504 0.0957266 0.0959493 0.0961719 0.0963945 0.0966172 0.0968416 0.097066 0.0972904 0.0975148 0.0977392 0.0979654 0.0981915 0.0984177 0.0986438 0.0988701 0.099019 0.0991679 0.0993169 0.0994658 0.0996084 0.0996887 0.099769 0.0998492 0.0999295 0.10001 0.10024 0.100469 0.100699 0.100929 0.101159 0.10139 0.101622 0.101853 0.102085 0.102316 0.10255 0.102783 0.103017 0.10325 0.103484 0.103719 0.103954 0.104189 0.104424 0.10466 0.104897 0.105134 0.105371 0.105608 0.105845 0.106084 0.106323 0.106562 0.106801 0.10704 0.107281 0.107522 0.107763 0.108004 0.108245 0.108348 0.108451 0.108554 0.108656 0.108757 0.108897 0.109038 0.109178 0.109318 0.109459 0.109704 0.109948 0.110193 0.110438 0.110683 0.110929 0.111176 0.111423 0.111669 0.111916 0.112165 0.112413 0.112662 0.112911 0.113159 0.11341 0.113661 0.113911 0.114162 0.114413 0.114665 0.114918 0.115171 0.115423 0.115676 0.115931 0.116185 0.11644 0.116695 0.116949 0.116964 0.116978 0.116992 0.117006 0.117021 0.117263 0.117505 0.117748 0.11799 0.118233 0.118492 0.11875 0.119009 0.119268 0.119527 0.119787 0.120048 0.120309 0.12057 0.120831 0.121094 0.121357 0.12162 0.121883 0.122146 0.122411 0.122676 0.122941 0.123206 0.123471 0.12371 0.123949 0.124188 0.124428 0.124655 0.124686 0.124716 0.124746 0.124776 0.124807 0.125076 0.125345 0.125615 0.125884 0.126154 0.126425 0.126697 0.126968 0.127239 0.127511 0.127785 0.128059 0.128332 0.128606 0.12888 0.129156 0.129432 0.129707 0.129983 0.130259 0.130538 0.130816 0.131094 0.131372 0.13165 0.13168 0.131709 0.131739 0.131768 0.131798 0.132048 0.132299 0.13255 0.132801 0.133053 0.133335 0.133618 0.133901 0.134183 0.134466 0.134751 0.135036 0.135321 0.135606 0.135892 0.136179 0.136466 0.136753 0.137041 0.137328 0.137571 0.137814 0.138056 0.138299 0.138531 0.13858 0.13863 0.138679 0.138728 0.138777 0.139069 0.139361 0.139653 0.139945 0.140238 0.140532 0.140827 0.141121 0.141416 0.14171 0.142007 0.142304 0.142601 0.142898 0.143195 0.143494 0.143794 0.144093 0.144393 0.144692 0.144736 0.14478 0.144824 0.144868 0.144912 0.14517 0.145428 0.145686 0.145944 0.146202 0.146506 0.14681 0.147115 0.147419 0.147724 0.148031 0.148338 0.148644 0.148951 0.149259 0.149568 0.149877 0.150187 0.150496 0.150806 0.150842 0.150878 0.150914 0.15095 0.150985 0.151262 0.151538 0.151814 0.15209 0.152367 0.152681 0.152996 0.153311 0.153625 0.15394 0.154258 0.154575 0.154892 0.15521 0.155527 0.155782 0.156037 0.156292 0.156547 0.156793 0.15686 0.156927 0.156994 0.157061 0.157128 0.15745 0.157773 0.158096 0.158418 0.158742 0.159067 0.159392 0.159718 0.160043 0.160369 0.160697 0.161025 0.161353 0.161682 0.16201 0.162084 0.162158 0.162232 0.162306 0.162379 0.162636 0.162893 0.163151 0.163408 0.163665 0.163999 0.164333 0.164666 0.165 0.165334 0.165671 0.166007 0.166344 0.16668 0.167017 0.167173 0.167329 0.167485 0.167641 0.167794 0.167978 0.168162 0.168346 0.16853 0.168714 0.169057 0.169399 0.169741 0.170083 0.170426 0.170771 0.171116 0.171461 0.171806 0.172151 0.172341 0.172531 0.172721 0.17291 0.173098 0.173256 0.173415 0.173573 0.173732 0.173891 0.174241 0.174592 0.174943 0.175293 0.175644 0.175998 0.176351 0.176705 0.177059 0.177412 0.177551 0.17769 0.177829 0.177968 0.178106 0.178324 0.178541 0.178759 0.178977 0.179194 0.179553 0.179912 0.180272 0.180631 0.18099 0.181352 0.181714 0.182076 0.182438 0.182799 0.182847 0.182895 0.182942 0.18299 0.183037 0.183354 0.183672 0.183989 0.184306 0.184623 0.18499 0.185357 0.185725 0.186092 0.186459 0.186768 0.187077 0.187385 0.187694 0.188009 0.188069 0.188129 0.188189 0.188249 0.188309 0.188682 0.189054 0.189427 0.1898 0.190172 0.190547 0.190923 0.191298 0.191673 0.192048 0.192269 0.19249 0.192711 0.192933 0.19316 0.193315 0.193471 0.193626 0.193781 0.193936 0.194317 0.194697 0.195078 0.195458 0.195838 0.196221 0.196604 0.196987 0.19737 0.197752 0.197935 0.198119 0.198302 0.198486 0.198676 0.198876 0.199077 0.199277 0.199478 0.199678 0.200066 0.200454 0.200842 0.20123 0.201617 0.202008 0.202399 0.202789 0.20318 0.203569 0.203818 0.204067 0.204315 0.204564 0.204828 0.204969 0.205111 0.205252 0.205393 0.205534 0.20593 0.206325 0.206721 0.207117 0.207512 0.20791 0.208308 0.208707 0.209105 0.209502 0.209903 0.210304 0.210705 0.211106 0.211507 0.21162 0.211733 0.211846 0.211959 0.212076 0.212366 0.212655 0.212945 0.213235 0.213524 0.213931 0.214337 0.214743 0.21515 0.215556 0.215965 0.216374 0.216783 0.217192 0.217601 0.218013 0.218425 0.218837 0.219249 0.219661 0.220015 0.22037 0.220725 0.22108 0.221501 0.221547 0.221594 0.221641 0.221688 0.221734 0.222152 0.22257 0.222988 0.223405 0.223823 0.224243 0.224664 0.225085 0.225505 0.225925 0.226349 0.226772 0.227196 0.227619 0.228042 0.228452 0.228862 0.229272 0.229682 0.230091 0.230517 0.230942 0.231368 0.231793 0.232218 0.232248 0.232277 0.232307 0.232337 0.232366 0.232779 0.233191 0.233603 0.234016 0.234428 0.234887 0.235346 0.235805 0.236264 0.236723 0.2372 0.237677 0.238153 0.23863 0.239107 0.239603 0.240098 0.240593 0.241089 0.241584 0.241877 0.242169 0.242461 0.242754 0.243085 0.2433 0.243514 0.243729 0.243944 0.244158 0.244693 0.245228 0.245763 0.246298 0.246833 0.247389 0.247944 0.2485 0.249056 0.249612 0.250189 0.250767 0.251344 0.251922 0.2525 0.2531 0.2537 0.2543 0.2549 0.255501 0.256124 0.256748 0.257372 0.257995 0.258619 0.259001 0.259384 0.259766 0.260148 0.26059 0.260844 0.261098 0.261352 0.261606 0.26186 0.262533 0.263207 0.26388 0.264554 0.265227 0.265927 0.266627 0.267327 0.268027 0.268727 0.269454 0.270181 0.270909 0.271636 0.272363 0.273119 0.273875 0.27463 0.275386 0.276142 0.276927 0.277713 0.278498 0.279283 0.280069 0.280885 0.281701 0.282517 0.283333 0.284149 0.284997 0.285845 0.286693 0.287541 0.288389 0.28927 0.290151 0.291032 0.291913 0.292795 0.29371 0.294626 0.295541 0.296457 0.297373 0.297498 0.297623 0.297749 0.297874 0.298007 0.298831 0.299656 0.30048 0.301304 0.302129 0.303117 0.304106 0.305094 0.306083 0.307071 0.308098 0.309124 0.310151 0.311177 0.312202