/*--------------------------------*- C++ -*----------------------------------*\
  =========                 |
  \\      /  F ield         | OpenFOAM: The Open Source CFD Toolbox
   \\    /   O peration     | Website:  https://openfoam.org
    \\  /    A nd           | Version:  9
     \\/     M anipulation  |
\*---------------------------------------------------------------------------*/
FoamFile
{
    format      ascii;
    class       volScalarField;
    location    "6.49";
    object      epsilon;
}
// * * * * * * * * * * * * * * * * * * * * * * * * * * * * * * * * * * * * * //

dimensions      [0 2 -3 0 0 0 0];

internalField   nonuniform List<scalar> 
2268
(
0.000223143
0.00116699
0.00205678
0.00286186
0.00358616
0.00423923
0.0048322
0.00537295
0.00586447
0.00631112
0.00672309
0.0071145
0.0074859
0.00780387
0.00797894
0.00783527
0.00715877
0.00611312
0.00499907
0.00407579
0.00333528
0.0023001
0.00070234
0.000452723
0.000783914
0.00115639
0.00150432
0.00181946
0.00210273
0.00235714
0.00258586
0.00279179
0.00297831
0.00314928
0.0033067
0.00344801
0.00356101
0.00361836
0.00357351
0.00339104
0.00313338
0.00278127
0.00239557
0.00197198
0.00152607
0.00113418
0.00076753
0.000830561
0.00107457
0.0013207
0.00154835
0.001754
0.00193824
0.00210296
0.00225053
0.00238371
0.00250498
0.00261481
0.00271066
0.00278466
0.00282149
0.00279877
0.00270591
0.0025711
0.00237402
0.00214168
0.00190009
0.00170732
0.00187328
0.00107739
0.000930952
0.00110158
0.00129673
0.00148302
0.00165315
0.00180609
0.00194289
0.00206545
0.002176
0.00227639
0.00236682
0.00244506
0.00250536
0.00253763
0.002529
0.00247601
0.00239311
0.00227007
0.00213049
0.0020189
0.00202688
0.00271793
0.00137537
0.00104817
0.00116413
0.00132474
0.00148425
0.001632
0.00176569
0.00188573
0.00199361
0.00209115
0.00217986
0.00225993
0.00232958
0.00238445
0.0024176
0.0024211
0.00239384
0.00234441
0.00227245
0.00220461
0.00220238
0.00241914
0.00380919
0.0016644
0.00117336
0.00124423
0.00137811
0.00151734
0.00164838
0.00176791
0.00187587
0.00197344
0.00206211
0.0021432
0.00221699
0.00228212
0.00233535
0.00237188
0.00238671
0.00237957
0.00235699
0.00232571
0.00231742
0.00241487
0.00287179
0.00527978
0.0019498
0.00130438
0.00133586
0.00144744
0.00156979
0.00168684
0.00179455
0.0018926
0.00198193
0.00206378
0.00213933
0.00220897
0.00227177
0.00232536
0.00236646
0.00239204
0.00240214
0.00240314
0.00240596
0.00244647
0.00263078
0.00335856
0.00743084
0.00224576
0.00144244
0.00143735
0.00152924
0.00163642
0.00174063
0.00183744
0.00192645
0.00200847
0.00208451
0.00215563
0.00222234
0.00228405
0.00233908
0.0023852
0.00242058
0.00244577
0.00246745
0.00249866
0.00257565
0.00281757
0.00378302
0.0122379
0.000746841
0.003085
0.00483476
0.00576886
0.00628031
0.0064991
0.00669096
0.00689034
0.00691053
0.00624091
0.00502212
0.00384529
0.00280568
0.00277925
0.00359466
0.00355415
0.00229853
0.00128935
0.000413066
0.000809063
0.00173168
0.00235944
0.00271971
0.00292939
0.00304338
0.00311992
0.00317062
0.00314311
0.00294089
0.0026618
0.00228323
0.00190067
0.00175913
0.00174849
0.001628
0.00120796
0.000814016
0.00048838
0.0012432
0.001696
0.00203166
0.00222384
0.00234098
0.0024119
0.00245881
0.00248102
0.00244431
0.00231342
0.00215958
0.00194147
0.00170243
0.00155752
0.00146326
0.00133992
0.00106577
0.00078999
0.00063431
0.00186936
0.00190553
0.00202919
0.00210623
0.00216055
0.0021984
0.00222497
0.0022319
0.00218963
0.00208032
0.00196097
0.00180268
0.00162526
0.00149717
0.00139428
0.00127477
0.00105534
0.000826187
0.000771771
0.00267413
0.00223663
0.00213885
0.00211126
0.00211165
0.00212009
0.00212863
0.00212317
0.00207591
0.00197611
0.0018696
0.00174125
0.00159993
0.00149063
0.00139161
0.00127792
0.0010894
0.000891256
0.000929164
0.00378698
0.00264221
0.00229431
0.00216827
0.00212066
0.00210229
0.0020938
0.00207698
0.0020251
0.00193101
0.00183289
0.00172355
0.00160794
0.00151667
0.00141746
0.00130827
0.00114056
0.000973688
0.00111333
0.00558898
0.00307948
0.00245879
0.00224668
0.00215819
0.00211587
0.00209124
0.0020635
0.00200751
0.00191816
0.00183085
0.00173755
0.00164272
0.00156404
0.00145761
0.00134941
0.00119582
0.00106421
0.00133689
0.00943686
0.00344142
0.00260119
0.00232973
0.00220976
0.00214687
0.0021072
0.00206906
0.00200977
0.00192583
0.00185257
0.00177668
0.001698
0.00161946
0.00150501
0.00139448
0.00125193
0.00115865
0.00162981
0.00268295
0.00165571
0.0016038
0.00167039
0.00175653
0.00184184
0.00192215
0.00199752
0.00206876
0.00213662
0.0022019
0.00226514
0.00232625
0.00238439
0.00243823
0.00248699
0.00253226
0.00258115
0.00264676
0.00275857
0.00300865
0.00367724
0.00578903
0.00329577
0.00197455
0.00187709
0.00191604
0.00197272
0.00202778
0.00208063
0.00213392
0.00218854
0.00224468
0.00230223
0.00236129
0.00242217
0.00248417
0.00254625
0.00260748
0.0026691
0.00273622
0.00281766
0.00293134
0.00312447
0.00349848
0.00423348
0.00395537
0.00236107
0.0022346
0.00224625
0.00226487
0.00227484
0.00228632
0.00230868
0.00234054
0.00238106
0.00242826
0.00248103
0.00253969
0.00260402
0.00267275
0.00274329
0.00281457
0.00288892
0.00297207
0.00307408
0.00321134
0.00341541
0.00370824
0.00482993
0.00284154
0.00272109
0.00268695
0.00265182
0.00259618
0.00254863
0.00253216
0.00253294
0.00255151
0.00258384
0.00262622
0.00267929
0.00274399
0.00281897
0.00289837
0.00297513
0.00304765
0.00313021
0.00322527
0.00332118
0.00343142
0.00356688
0.00599404
0.0032565
0.00320181
0.00288288
0.00277077
0.00270917
0.00266588
0.00266163
0.00267325
0.00269806
0.00273562
0.00278192
0.00283804
0.0029103
0.00299604
0.00309025
0.0031757
0.00322828
0.00330292
0.00338824
0.00342397
0.0034718
0.00351929
0.00639638
0.00340709
0.00307346
0.00288513
0.00286866
0.00281923
0.00270349
0.00267861
0.00270068
0.00274868
0.00281228
0.00288256
0.00296115
0.00305282
0.00314361
0.00322098
0.00327598
0.00329382
0.00331933
0.00337284
0.00340756
0.00344321
0.00348457
0.00695219
0.00340759
0.00303254
0.00284874
0.00279858
0.00276003
0.00271384
0.00270601
0.00272759
0.00277211
0.00283516
0.00290608
0.00298142
0.00306025
0.00312943
0.0031834
0.00321569
0.003237
0.00326777
0.00330569
0.00333476
0.00336781
0.00339265
0.00746557
0.00318834
0.00281932
0.00272769
0.00269262
0.00268242
0.00269191
0.00271634
0.00275379
0.00280002
0.00285647
0.00291788
0.00297542
0.00302887
0.00308201
0.00313102
0.00317062
0.00320222
0.00323394
0.00326354
0.00328591
0.00330639
0.0033162
0.00747137
0.00299431
0.00267979
0.002623
0.00261152
0.00262379
0.00265834
0.00270439
0.00275655
0.0028119
0.00287029
0.00292783
0.00297743
0.00301894
0.00305941
0.00310169
0.00314312
0.00317854
0.00320775
0.0032328
0.00325385
0.00326779
0.00326405
0.00747042
0.0029266
0.00260842
0.0025504
0.00255255
0.00258048
0.00262729
0.00268357
0.00274392
0.00280576
0.00286702
0.00292325
0.00296987
0.00300846
0.00304605
0.00308678
0.00312656
0.00316062
0.00318863
0.0032125
0.00322958
0.0032353
0.0032262
0.00747213
0.00293147
0.00258469
0.00251419
0.0025179
0.00255182
0.00260281
0.00266231
0.00272563
0.00278997
0.00285225
0.00290831
0.00295586
0.00299721
0.0030373
0.00307832
0.00311691
0.00315041
0.00317853
0.00320083
0.00321376
0.0032154
0.00320636
0.00176921
0.00295326
0.00259082
0.00250479
0.00250349
0.00253679
0.00258742
0.00264665
0.00270999
0.00277428
0.0028363
0.00289298
0.00294343
0.00298929
0.00303311
0.00307558
0.00311456
0.0031486
0.00317721
0.0031989
0.00321096
0.00321311
0.00320692
0.00747143
0.00303603
0.00261402
0.00251208
0.00250329
0.00253287
0.00258109
0.0026387
0.00270081
0.00276404
0.00282558
0.00288342
0.00293707
0.0029872
0.00303474
0.00307956
0.00312036
0.00315615
0.00318624
0.0032092
0.00322334
0.00322884
0.00322708
0.00748685
0.00308951
0.00264454
0.00252913
0.00251252
0.00253733
0.00258246
0.00263809
0.00269876
0.00276105
0.00282263
0.00288206
0.00293877
0.0029927
0.00304388
0.00309184
0.00313564
0.00317446
0.00320748
0.00323357
0.00325176
0.00326223
0.00326594
0.00176928
0.0031356
0.00267907
0.00255198
0.00252795
0.00254797
0.00259003
0.00264378
0.00270342
0.00276552
0.002828
0.00288956
0.00294942
0.00300714
0.00306229
0.00311421
0.00316212
0.00320521
0.00324266
0.00327355
0.00329726
0.0033139
0.00332402
0.00176826
0.00319183
0.00271631
0.0025784
0.00254758
0.00256327
0.0026027
0.00265507
0.00271445
0.00277735
0.00284167
0.00290608
0.00296965
0.00303169
0.00309154
0.00314846
0.00320166
0.00325034
0.0032937
0.00333096
0.00336161
0.00338563
0.00340323
0.00746413
0.00326537
0.00275485
0.00260703
0.00257022
0.00258232
0.00261986
0.00267172
0.0027318
0.00279654
0.00286375
0.00293197
0.00300017
0.00306749
0.00313315
0.00319634
0.00325625
0.00331205
0.00336293
0.00340817
0.00344727
0.00348
0.00350632
0.00747205
0.00332122
0.00279409
0.00263715
0.00259522
0.00260466
0.00264131
0.00269371
0.00275561
0.00282335
0.00289462
0.00296786
0.00304192
0.00311584
0.00318875
0.00325978
0.00332807
0.00339275
0.00345298
0.003508
0.00355723
0.00360023
0.00363671
0.00748594
0.00337214
0.00283377
0.0026684
0.00262229
0.00263014
0.00266704
0.0027212
0.00278619
0.00285824
0.00293494
0.00301464
0.00309609
0.00317826
0.00326019
0.00334095
0.0034196
0.00349521
0.00356687
0.00363373
0.00369503
0.00375016
0.00379856
0.00747486
0.00343664
0.00287391
0.00270058
0.00265133
0.0026588
0.00269725
0.00275451
0.002824
0.00290185
0.00298557
0.00307343
0.00316411
0.00325651
0.00334957
0.0034423
0.00353367
0.00362263
0.00370816
0.00378927
0.003865
0.0039345
0.00399697
0.00746699
0.00349744
0.00291425
0.00273362
0.0026824
0.00269081
0.00273221
0.00279406
0.00286965
0.002955
0.00304757
0.00314559
0.00324767
0.00335263
0.00345935
0.00356672
0.00367359
0.00377879
0.00388112
0.00397937
0.00407238
0.00415901
0.0042382
0.00747611
0.00355645
0.0029545
0.00276748
0.00271565
0.00272647
0.00277234
0.00284042
0.00292385
0.00301863
0.00312218
0.00323268
0.00334871
0.003469
0.00359237
0.00371756
0.0038433
0.00396821
0.00409087
0.00420982
0.00432361
0.00443079
0.00452998
0.0074956
0.00361153
0.00299449
0.00280223
0.00275134
0.00276612
0.00281812
0.0028942
0.00298746
0.00309385
0.00321081
0.0033365
0.00346946
0.00360839
0.00375197
0.00389883
0.0040475
0.00419635
0.00434368
0.0044877
0.00462659
0.00475852
0.00488176
0.00750458
0.00368508
0.0030331
0.00283793
0.00278979
0.00281022
0.0028701
0.00295614
0.00306141
0.0031819
0.00331507
0.0034591
0.00361253
0.003774
0.0039421
0.00411528
0.00429182
0.00446981
0.00464715
0.00482164
0.00499098
0.00515289
0.00530516
0.00761328
0.00373226
0.00306992
0.00287503
0.00283144
0.00285922
0.00292887
0.00302702
0.00314676
0.00328416
0.00343675
0.0036028
0.00378087
0.00396957
0.00416737
0.00437253
0.00458304
0.00479658
0.00501056
0.00522221
0.00542865
0.00562698
0.00581443
0.00771326
0.00377581
0.00310678
0.00291407
0.00287667
0.0029136
0.00299505
0.00310765
0.00324458
0.00340207
0.00357781
0.00377018
0.00397783
0.00419937
0.00443317
0.00467726
0.00492925
0.0051863
0.00544518
0.00570236
0.00595416
0.0061969
0.00642705
0.00780666
0.00381799
0.00314431
0.00295538
0.00292586
0.0029738
0.00306923
0.00319884
0.00335601
0.0035372
0.00374034
0.00396406
0.00420715
0.00446828
0.00474575
0.00503732
0.00534012
0.00565063
0.00596474
0.00627792
0.0065854
0.00688242
0.00716455
0.00789579
0.0038594
0.00318278
0.00299921
0.00297929
0.00304022
0.00315197
0.00330138
0.00348214
0.00369107
0.0039265
0.00418741
0.00447289
0.00478175
0.00511226
0.00546186
0.00582711
0.00620357
0.00658595
0.00696831
0.00734437
0.00770793
0.00805317
0.00798076
0.00390003
0.00322226
0.00304571
0.00303718
0.00311319
0.00324372
0.00341593
0.00362395
0.00386514
0.00413842
0.00444331
0.00477939
0.00514577
0.00554075
0.00596148
0.00640376
0.00686195
0.00732911
0.00779737
0.00825822
0.00870347
0.00912551
0.0080591
0.00393928
0.00326259
0.00309491
0.00309967
0.00319293
0.00334483
0.00354301
0.00378224
0.00406067
0.00437804
0.00473474
0.00513106
0.00556669
0.00604013
0.00654824
0.00708592
0.00764587
0.00821885
0.00879416
0.00936042
0.00990657
0.0104221
0.00812278
0.00397593
0.00330351
0.0031468
0.00316688
0.0032796
0.00345551
0.00368291
0.00395751
0.00427854
0.00464692
0.00506428
0.0055321
0.00605098
0.00661991
0.00723556
0.00789173
0.008579
0.00928492
0.00999474
0.0106927
0.0113636
0.0119933
0.00816322
0.00400975
0.00334508
0.00320146
0.00323887
0.00337327
0.00357578
0.00383565
0.00414983
0.00451902
0.00494587
0.00543376
0.00598594
0.00660455
0.00728958
0.00803781
0.00884182
0.00968939
0.0105635
0.0114436
0.0123073
0.0131333
0.0139025
0.00817603
0.00404171
0.00338699
0.00325871
0.0033157
0.00347397
0.00370546
0.00400077
0.00435853
0.00478147
0.00527452
0.00584362
0.00649464
0.00723217
0.00805806
0.00896981
0.0099589
0.0110095
0.0120983
0.0131958
0.0142697
0.0152897
0.0162295
0.00814325
0.00406573
0.00342799
0.0033189
0.00339802
0.00358207
0.0038444
0.00417747
0.0045822
0.00506398
0.00563084
0.00629224
0.00705783
0.00793603
0.00893201
0.0100452
0.0112665
0.0125757
0.0139406
0.0153187
0.0166624
0.0179268
0.0190756
0.00805532
0.00407766
0.00346864
0.00338419
0.00348799
0.00369889
0.00399267
0.00436452
0.00481834
0.00536296
0.00601042
0.00677486
0.0076713
0.00871395
0.00991356
0.0112737
0.0127862
0.0144262
0.0161496
0.0178941
0.0195883
0.0211639
0.0225699
0.007892
0.00407608
0.00351421
0.00346125
0.00359097
0.00382748
0.00415089
0.00456022
0.00506317
0.0056727
0.00640575
0.00728248
0.00832524
0.00955669
0.0109966
0.0126566
0.0145325
0.016596
0.0187873
0.0210158
0.0231723
0.0251513
0.0268761
0.00761814
0.00406846
0.00358305
0.00356689
0.00371842
0.00397377
0.00432037
0.00476223
0.00531123
0.0059848
0.00680546
0.00780065
0.00900221
0.0104447
0.0121618
0.0141789
0.0165023
0.0191035
0.0219054
0.024779
0.0275582
0.030074
0.032201
0.00176896
0.00408204
0.00373213
0.00374072
0.00389233
0.00414729
0.00450266
0.00496684
0.00555479
0.00628773
0.00719376
0.00830847
0.0096753
0.0113445
0.0133694
0.015798
0.0186565
0.0219254
0.0255143
0.0292504
0.0328906
0.0361555
0.0388053
0.00750198
0.00453928
0.00415246
0.00407203
0.00414958
0.0043596
0.00469739
0.00516751
0.00578314
0.00656662
0.00755045
0.00877848
0.0103071
0.0122054
0.0145527
0.0174291
0.0208941
0.0249538
0.0295232
0.0344046
0.0392788
0.0436771
0.0470327
0.0160107
0.00745133
0.00542762
0.00473607
0.00453614
0.00461563
0.00489688
0.00535242
0.00598183
0.00680348
0.00785184
0.00917787
0.0108508
0.01296
0.0156142
0.0189331
0.0230236
0.0279416
0.0336522
0.0400139
0.0467329
0.0530793
0.0573878
0.155152
0.0260521
0.00934854
0.00599132
0.00506308
0.00489126
0.0050776
0.00550185
0.0061327
0.00697853
0.00807298
0.00947191
0.0112551
0.0135296
0.0164316
0.0201201
0.0247552
0.0304649
0.0373339
0.0454628
0.0549935
0.0653539
0.0707096
1.53828
0.127309
0.0194302
0.00777078
0.005571
0.00509976
0.00519408
0.00558893
0.00621597
0.00707288
0.0081913
0.00962938
0.0114729
0.0138394
0.0168823
0.020786
0.0257494
0.0319661
0.0396715
0.0494072
0.0626975
0.0833872
0.0883593
0.0154476
0.011879
0.0112244
0.013017
0.00520501
0.00524661
0.00516469
0.00499902
0.00392821
0.00398222
0.00395459
0.00385315
0.0036706
0.00369671
0.00366549
0.0035901
0.00356331
0.00357815
0.00355276
0.0034926
0.00356723
0.00358159
0.00353928
0.00347778
0.00342744
0.00342801
0.00340267
0.00336714
0.00330878
0.00329902
0.00328485
0.00326535
0.00324649
0.00323168
0.00321569
0.00319866
0.0032094
0.00319631
0.00318159
0.00316565
0.00319293
0.0031826
0.00317055
0.00315697
0.00319709
0.0031893
0.00317985
0.00316885
0.00322109
0.00321583
0.00320893
0.00320043
0.0032642
0.00326167
0.00325747
0.00325164
0.00332707
0.00332757
0.00332637
0.00332347
0.00341173
0.00341568
0.00341785
0.00341824
0.0035211
0.00352899
0.00353501
0.00353914
0.00365876
0.00367121
0.00368166
0.00369008
0.00382909
0.00384685
0.00386246
0.00387589
0.00403746
0.00406147
0.00408315
0.00410245
0.00429052
0.00432192
0.0043508
0.00437705
0.00459639
0.00463662
0.00467407
0.00470859
0.00496509
0.0050159
0.00506357
0.00510797
0.00540886
0.00547235
0.0055323
0.00558853
0.00594269
0.00602143
0.0060961
0.00616651
0.00658491
0.00668201
0.00677437
0.00686175
0.00735808
0.00747726
0.00759083
0.00769849
0.00828971
0.00843545
0.00857439
0.00870619
0.00941391
0.00959147
0.00976062
0.009921
0.0107728
0.0109884
0.0111933
0.0113873
0.0124188
0.0126794
0.0129265
0.0131595
0.0144173
0.0147311
0.0150271
0.0153052
0.0168503
0.0172263
0.0175788
0.0179077
0.0198215
0.0202695
0.0206858
0.0210709
0.0234621
0.023992
0.0244788
0.0249241
0.0279381
0.0285592
0.0291212
0.0296278
0.033458
0.0341781
0.0348164
0.0353804
0.040284
0.0411071
0.0418159
0.0424251
0.0487533
0.0496719
0.0504312
0.0510593
0.0593228
0.0602937
0.0610509
0.0616448
0.0726398
0.0735193
0.0741504
0.0746112
0.089521
0.0899629
0.0902395
0.0904215
0.00535088
0.0034382
0.00275066
0.00245166
0.00229952
0.00221061
0.00215022
0.00209731
0.0020347
0.00196204
0.00191029
0.00186345
0.00180032
0.0017046
0.00157975
0.00146492
0.00134373
0.00130319
0.00209441
0.00406306
0.00327869
0.00283794
0.00258212
0.00242432
0.00231939
0.00224293
0.00217916
0.0021179
0.0020591
0.00201876
0.00198987
0.0019263
0.00180753
0.00167922
0.0015717
0.00149124
0.00153522
0.00273813
0.00356972
0.0031869
0.00290483
0.00269535
0.00254816
0.00244422
0.00236626
0.00230351
0.002249
0.00220034
0.00216541
0.00214175
0.00206531
0.00192569
0.00178957
0.00169247
0.00165048
0.00176458
0.00310357
0.0034193
0.00318998
0.00300287
0.00281364
0.00268419
0.00259682
0.00252973
0.00247765
0.00243781
0.0024033
0.00238013
0.00236837
0.00226151
0.0020863
0.00192072
0.00182606
0.00182051
0.00204858
0.00347409
0.00336299
0.00320045
0.00306025
0.00291716
0.00282017
0.00273906
0.00266787
0.00262167
0.00258874
0.00253313
0.00245917
0.00240948
0.00234595
0.00220993
0.00205602
0.00195098
0.00196861
0.00220536
0.00421862
0.00337356
0.0032677
0.0031653
0.00300831
0.00289246
0.00280584
0.00273244
0.00267653
0.00263191
0.00257301
0.00248371
0.0024287
0.00235806
0.00223577
0.00210939
0.00204088
0.00207501
0.00237287
0.00499696
0.00330697
0.00323675
0.00315988
0.00303877
0.00294348
0.00287802
0.0028138
0.00275634
0.00269456
0.00261901
0.0025227
0.00242858
0.0023352
0.00223537
0.00215278
0.00211314
0.00215626
0.00249331
0.00526373
0.00322746
0.00317114
0.00310829
0.00302829
0.0029614
0.00291492
0.00286767
0.00280275
0.00272383
0.00264295
0.00254977
0.00244657
0.00234357
0.00225099
0.00217443
0.00214375
0.00221128
0.00258417
0.00505499
0.00316788
0.00311775
0.00306168
0.00300107
0.00294939
0.00291209
0.00286975
0.00279425
0.00271138
0.00263567
0.00254861
0.00244906
0.00236449
0.00228496
0.00219818
0.00215015
0.0022084
0.00258794
0.00499442
0.00313755
0.00309266
0.00304453
0.00299505
0.0029477
0.00290541
0.00285248
0.00277331
0.00269378
0.00261874
0.00253115
0.00243205
0.00235744
0.00229363
0.00221115
0.00214704
0.00217031
0.00247614
0.00491571
0.00313244
0.00309276
0.00305094
0.00300757
0.00295975
0.00290843
0.00284618
0.00276816
0.00268814
0.0026086
0.00251946
0.00241945
0.00233342
0.00226636
0.00219715
0.00213798
0.00213173
0.00233389
0.00115809
0.0031483
0.00311345
0.00307495
0.00303317
0.00298416
0.002928
0.0028626
0.00278491
0.00270271
0.00261885
0.00252786
0.00242773
0.00232934
0.00224425
0.00217272
0.00212739
0.00211996
0.00226041
0.00489828
0.00318386
0.00315383
0.00311768
0.0030755
0.00302557
0.00296807
0.00290197
0.00282572
0.00274359
0.00265752
0.00256463
0.00246384
0.0023605
0.00226246
0.00217838
0.00212896
0.00212666
0.00223183
0.00489408
0.00323931
0.0032146
0.00318194
0.00314091
0.00309127
0.00303369
0.00296804
0.00289386
0.00281283
0.00272598
0.00263201
0.00253072
0.00242559
0.00232254
0.00223141
0.00217086
0.0021647
0.00226389
0.00476033
0.00331588
0.00329715
0.0032694
0.00323181
0.00318443
0.00312821
0.00306382
0.00299135
0.00291139
0.00282449
0.00273033
0.00262933
0.00252436
0.00242107
0.00232935
0.00226483
0.00225286
0.00234693
0.00485
0.00341593
0.00340394
0.00338217
0.00334964
0.0033063
0.003253
0.00319069
0.00311983
0.00304085
0.00295425
0.00286038
0.00276031
0.00265704
0.00255657
0.00246942
0.00241233
0.00241562
0.00256029
0.00490082
0.00354281
0.00353846
0.00352359
0.00349723
0.00345915
0.00340994
0.00335049
0.0032815
0.00320358
0.00311745
0.00302406
0.00292516
0.0028244
0.00272858
0.00264995
0.00261038
0.00265564
0.00291707
0.00490368
0.00370064
0.00370506
0.00369811
0.00367884
0.0036469
0.0036026
0.00354668
0.00347995
0.00340324
0.00331763
0.00322464
0.00312677
0.00302849
0.00293775
0.00286904
0.00285092
0.00295218
0.00339234
0.00535987
0.00389447
0.00390909
0.00391128
0.0039001
0.00387512
0.00383643
0.00378462
0.00372051
0.00364516
0.00356
0.00346708
0.00336966
0.00327311
0.00318661
0.0031268
0.00312771
0.00327579
0.00386095
0.0065062
0.00413048
0.00415708
0.00416993
0.00416808
0.00415101
0.00411868
0.00407152
0.00401038
0.00393647
0.00385152
0.00375811
0.00366018
0.00356405
0.00348019
0.00342737
0.00344433
0.00363181
0.00435371
0.0078891
0.00441628
0.00445706
0.00448246
0.00449148
0.00448351
0.00445842
0.00441655
0.00435871
0.00428623
0.00420113
0.00410641
0.00400668
0.0039092
0.00382589
0.00377801
0.00380938
0.00403377
0.00488008
0.00944068
0.00476116
0.00481881
0.00485907
0.00488085
0.00488349
0.00486675
0.0048309
0.00477674
0.00470567
0.0046199
0.00452283
0.00441967
0.00431862
0.00423327
0.00418803
0.00423382
0.00450297
0.00549937
0.0112552
0.00517649
0.00525424
0.00531214
0.005349
0.00536407
0.00535705
0.00532815
0.00527812
0.00520841
0.00512136
0.00502067
0.00491207
0.00480468
0.00471392
0.00466755
0.0047233
0.00503107
0.00616298
0.0129438
0.00567612
0.00577782
0.00585666
0.00591134
0.00594102
0.00594536
0.00592451
0.00587919
0.00581082
0.00572181
0.00561605
0.00549972
0.00538277
0.00528203
0.00522803
0.00528394
0.00561212
0.00682997
0.0142565
0.00627692
0.00640712
0.00651074
0.00658639
0.00663322
0.00665084
0.00663937
0.00659949
0.00653256
0.00644099
0.00632869
0.00620207
0.00607163
0.00595526
0.00588558
0.00592978
0.00625901
0.0075226
0.0153757
0.00699941
0.00716338
0.00729617
0.00739639
0.00746322
0.00749633
0.00749583
0.00746235
0.00739716
0.0073025
0.00718219
0.0070426
0.00689448
0.00675648
0.0066629
0.00668466
0.00700257
0.00830558
0.0166451
0.00786854
0.00807226
0.00823916
0.00836794
0.00845794
0.008509
0.0085213
0.00849542
0.00843249
0.0083345
0.00820495
0.00804993
0.00788016
0.00771478
0.0075898
0.0075808
0.00788247
0.00924269
0.0182763
0.0089146
0.00916482
0.00937124
0.00953285
0.0096494
0.00972104
0.00974817
0.0097314
0.00967166
0.00957058
0.00943113
0.00925888
0.0090642
0.00886654
0.0087039
0.00865808
0.00894333
0.0103905
0.0203974
0.0101745
0.0104786
0.0107303
0.0109291
0.0110756
0.0111705
0.0112147
0.0112088
0.0111538
0.0110506
0.0109016
0.0107116
0.0104901
0.0102568
0.0100518
0.00996478
0.0102351
0.0117988
0.0230381
0.0116933
0.0120592
0.0123617
0.0126019
0.0127815
0.0129023
0.0129658
0.0129732
0.0129249
0.0128218
0.0126652
0.0124587
0.0122109
0.011941
0.0116914
0.0115605
0.0118174
0.0135223
0.0262141
0.0135262
0.0139615
0.0143202
0.0146053
0.0148207
0.0149696
0.0150547
0.0150777
0.0150394
0.0149399
0.0147797
0.014561
0.0142909
0.0139876
0.0136951
0.0135212
0.0137683
0.0156385
0.0299899
0.0157406
0.0162525
0.0166714
0.0170038
0.0172564
0.0174349
0.0175436
0.0175851
0.0175607
0.0174702
0.0173132
0.0170905
0.0168074
0.0164805
0.0161547
0.0159466
0.0161964
0.0182762
0.0346462
0.0184197
0.0190134
0.0194945
0.0198744
0.0201641
0.0203725
0.020506
0.020569
0.0205633
0.020489
0.0203453
0.0201319
0.0198524
0.0195217
0.0191846
0.0189667
0.0192525
0.0216331
0.0407228
0.0216656
0.0223432
0.0228849
0.0233096
0.0236338
0.0238705
0.0240292
0.024116
0.0241342
0.024085
0.0239678
0.0237826
0.0235326
0.0232319
0.0229256
0.0227485
0.0231366
0.0259619
0.0487118
0.0256043
0.0263623
0.026958
0.0274204
0.0277732
0.0280342
0.0282165
0.0283285
0.0283757
0.0283611
0.0282862
0.0281535
0.0279687
0.0277491
0.0275437
0.0275
0.0281125
0.0315997
0.0591728
0.0303906
0.031217
0.031853
0.0323406
0.0327119
0.0329902
0.0331921
0.0333288
0.0334084
0.033437
0.0334204
0.0333671
0.0332913
0.0332219
0.0332239
0.0334698
0.0345296
0.0390451
0.0730744
0.0362136
0.0370847
0.0377381
0.0382319
0.0386071
0.038892
0.0391063
0.0392641
0.0393763
0.0394531
0.039507
0.0395571
0.0396348
0.0397963
0.0401483
0.0409279
0.0428336
0.0490553
0.0920489
0.0433024
0.0441788
0.0448165
0.0452907
0.0456504
0.0459274
0.0461436
0.0463147
0.0464543
0.0465773
0.0467043
0.0468691
0.0471304
0.0475929
0.0484511
0.0500973
0.0535208
0.0627741
0.118981
0.0519325
0.0527559
0.0533342
0.0537572
0.054078
0.0543294
0.0545328
0.0547045
0.0548593
0.0550157
0.0552021
0.0554678
0.0559035
0.0566817
0.0581417
0.0609888
0.0669064
0.0818058
0.159767
0.0624319
0.0631235
0.0635906
0.0639275
0.0641842
0.0643896
0.0645621
0.064716
0.0648655
0.0650299
0.0652407
0.0655562
0.0660903
0.067077
0.0690224
0.0730998
0.0823782
0.107452
0.228423
0.0751852
0.075651
0.0759543
0.0761715
0.0763392
0.0764771
0.0765975
0.0767103
0.0768262
0.0769605
0.0771398
0.0774149
0.0778914
0.0788025
0.080709
0.0851135
0.0967356
0.13541
0.352144
0.0906302
0.0907864
0.0908858
0.0909575
0.0910144
0.0910631
0.0911078
0.091152
0.0912
0.0912581
0.0913377
0.091461
0.0916755
0.0920916
0.093004
0.0953481
0.10293
0.139275
0.580741
)
;

boundaryField
{
    leftWall
    {
        type            epsilonWallFunction;
        value           nonuniform List<scalar> 
50
(
0.000223143
0.000452723
0.00076753
0.00107739
0.00137537
0.0016644
0.0019498
0.00224576
0.00268295
0.00329577
0.00395537
0.00482993
0.00599404
0.00639638
0.00695219
0.00746557
0.00747137
0.00747042
0.00747213
0.00176921
0.00747143
0.00748685
0.00176928
0.00176826
0.00746413
0.00747205
0.00748594
0.00747486
0.00746699
0.00747611
0.0074956
0.00750458
0.00761328
0.00771326
0.00780666
0.00789579
0.00798076
0.0080591
0.00812278
0.00816322
0.00817603
0.00814325
0.00805532
0.007892
0.00761814
0.00176896
0.00750198
0.0160107
0.155152
1.53828
)
;
    }
    rightWall
    {
        type            epsilonWallFunction;
        value           nonuniform List<scalar> 
50
(
0.000413066
0.00048838
0.00063431
0.000771771
0.000929164
0.00111333
0.00133689
0.00162981
0.00209441
0.00273813
0.00310357
0.00347409
0.00421862
0.00499696
0.00526373
0.00505499
0.00499442
0.00491571
0.00115809
0.00489828
0.00489408
0.00476033
0.00485
0.00490082
0.00490368
0.00535987
0.0065062
0.0078891
0.00944068
0.0112552
0.0129438
0.0142565
0.0153757
0.0166451
0.0182763
0.0203974
0.0230381
0.0262141
0.0299899
0.0346462
0.0407228
0.0487118
0.0591728
0.0730744
0.0920489
0.118981
0.159767
0.228423
0.352144
0.580741
)
;
    }
    lowerWall
    {
        type            epsilonWallFunction;
        value           nonuniform List<scalar> 
62
(
0.000223143
0.00116699
0.00205678
0.00286186
0.00358616
0.00423923
0.0048322
0.00537295
0.00586447
0.00631112
0.00672309
0.0071145
0.0074859
0.00780387
0.00797894
0.00783527
0.00715877
0.00611312
0.00499907
0.00407579
0.00333528
0.0023001
0.00070234
0.00070234
0.00113418
0.00187328
0.00271793
0.00380919
0.00527978
0.00743084
0.0122379
0.0154476
0.011879
0.0112244
0.013017
0.000746841
0.000809063
0.0012432
0.00186936
0.00267413
0.00378698
0.00558898
0.00943686
0.000746841
0.003085
0.00483476
0.00576886
0.00628031
0.0064991
0.00669096
0.00689034
0.00691053
0.00624091
0.00502212
0.00384529
0.00280568
0.00277925
0.00359466
0.00355415
0.00229853
0.00128935
0.000413066
)
;
    }
    atmosphere
    {
        type            inletOutlet;
        inletValue      uniform 0.1;
        value           nonuniform List<scalar> 
46
(
0.1
0.127309
0.0194302
0.00777078
0.005571
0.00509976
0.00519408
0.00558893
0.00621597
0.00707288
0.0081913
0.00962938
0.0114729
0.0138394
0.0168823
0.020786
0.0257494
0.0319661
0.0396715
0.0494072
0.0626975
0.1
0.1
0.1
0.1
0.1
0.1
0.1
0.1
0.1
0.1
0.1
0.1
0.1
0.1
0.1
0.1
0.1
0.1
0.1
0.1
0.1
0.1
0.1
0.1
0.580741
)
;
    }
    defaultFaces
    {
        type            empty;
    }
}


// ************************************************************************* //
