/*--------------------------------*- C++ -*----------------------------------*\
  =========                 |
  \\      /  F ield         | OpenFOAM: The Open Source CFD Toolbox
   \\    /   O peration     | Website:  https://openfoam.org
    \\  /    A nd           | Version:  9
     \\/     M anipulation  |
\*---------------------------------------------------------------------------*/
FoamFile
{
    format      ascii;
    class       surfaceScalarField;
    location    "90";
    object      phi;
}
// * * * * * * * * * * * * * * * * * * * * * * * * * * * * * * * * * * * * * //

dimensions      [0 3 -1 0 0 0 0];

internalField   nonuniform List<scalar> 
24170
(
3.12899e-06
5.94167e-08
3.04657e-06
8.2421e-08
2.9734e-06
7.31616e-08
2.90466e-06
6.87366e-08
2.84018e-06
6.44724e-08
2.78265e-06
5.75173e-08
2.73309e-06
4.95565e-08
2.69084e-06
4.22457e-08
2.65479e-06
3.60419e-08
2.62387e-06
3.0914e-08
2.59706e-06
2.68066e-08
2.57344e-06
2.36068e-08
2.55227e-06
2.11737e-08
2.53272e-06
1.95442e-08
2.51412e-06
1.8596e-08
2.49396e-06
2.01538e-08
2.47239e-06
2.15729e-08
4.36259e-08
2.42876e-06
3.45306e-06
2.36046e-08
3.45699e-06
7.849e-08
3.4505e-06
7.96513e-08
3.43899e-06
8.02396e-08
3.42414e-06
7.93203e-08
3.4068e-06
7.48562e-08
3.38744e-06
6.89097e-08
3.36674e-06
6.29441e-08
3.34536e-06
5.74123e-08
3.32389e-06
5.23787e-08
3.30279e-06
4.79021e-08
3.28232e-06
4.40784e-08
3.26263e-06
4.08597e-08
3.24369e-06
3.84725e-08
3.2256e-06
3.66924e-08
3.20815e-06
3.75956e-08
3.19195e-06
3.77723e-08
5.22369e-08
3.18334e-06
3.66815e-06
1.79713e-08
3.67917e-06
6.74696e-08
3.68535e-06
7.34618e-08
3.68932e-06
7.62625e-08
3.69084e-06
7.78009e-08
3.68976e-06
7.59258e-08
3.68649e-06
7.21815e-08
3.68147e-06
6.79587e-08
3.67509e-06
6.3786e-08
3.66766e-06
5.98021e-08
3.65944e-06
5.61138e-08
3.65066e-06
5.28597e-08
3.64145e-06
5.00645e-08
3.63193e-06
4.7988e-08
3.62205e-06
4.65716e-08
3.61242e-06
4.72187e-08
3.60185e-06
4.83399e-08
5.60539e-08
3.59803e-06
3.92584e-06
1.75236e-08
3.93588e-06
5.74288e-08
3.94248e-06
6.6859e-08
3.94795e-06
7.07918e-08
3.95227e-06
7.34791e-08
3.95509e-06
7.30978e-08
3.95661e-06
7.0662e-08
3.95705e-06
6.75131e-08
3.9566e-06
6.42326e-08
3.95539e-06
6.10073e-08
3.95354e-06
5.79574e-08
3.95116e-06
5.52407e-08
3.9483e-06
5.29196e-08
3.94506e-06
5.123e-08
3.94141e-06
5.02162e-08
3.93793e-06
5.06927e-08
3.93428e-06
5.19875e-08
5.60919e-08
3.93425e-06
4.20818e-06
1.64654e-08
4.21594e-06
4.9674e-08
4.22158e-06
6.12129e-08
4.2266e-06
6.57617e-08
4.23125e-06
6.88305e-08
4.23509e-06
6.92547e-08
4.23809e-06
6.76538e-08
4.24037e-06
6.52337e-08
4.24201e-06
6.25836e-08
4.2431e-06
5.99104e-08
4.24371e-06
5.73429e-08
4.24391e-06
5.5038e-08
4.24374e-06
5.30847e-08
4.2433e-06
5.16732e-08
4.24263e-06
5.08818e-08
4.24218e-06
5.11358e-08
4.24206e-06
5.21017e-08
5.41865e-08
4.24397e-06
4.51069e-06
1.4858e-08
4.51683e-06
4.35357e-08
4.52202e-06
5.60226e-08
4.52675e-06
6.10276e-08
4.53135e-06
6.42264e-08
4.53546e-06
6.51436e-08
4.53896e-06
6.41495e-08
4.54192e-06
6.22792e-08
4.54439e-06
6.01106e-08
4.54643e-06
5.78642e-08
4.54809e-06
5.56771e-08
4.54943e-06
5.36966e-08
4.55049e-06
5.20235e-08
4.55136e-06
5.07996e-08
4.55214e-06
5.00952e-08
4.55318e-06
5.00984e-08
4.55469e-06
5.05857e-08
5.13978e-08
4.55748e-06
4.83431e-06
1.32636e-08
4.83957e-06
3.82712e-08
4.84464e-06
5.09562e-08
4.84925e-06
5.64081e-08
4.85377e-06
5.97047e-08
4.85794e-06
6.09671e-08
4.86164e-06
6.04503e-08
4.86489e-06
5.90233e-08
4.86775e-06
5.72447e-08
4.87026e-06
5.53456e-08
4.87247e-06
5.34689e-08
4.87441e-06
5.17495e-08
4.87614e-06
5.02873e-08
4.87776e-06
4.91819e-08
4.87937e-06
4.84783e-08
4.88124e-06
4.82281e-08
4.88358e-06
4.82443e-08
4.82149e-08
4.88676e-06
5.18103e-06
1.18137e-08
5.1857e-06
3.3601e-08
5.19064e-06
4.60157e-08
5.1952e-06
5.18451e-08
5.19967e-06
5.52353e-08
5.20388e-06
5.67532e-08
5.20769e-06
5.66307e-08
5.21113e-06
5.55827e-08
5.21423e-06
5.41374e-08
5.21704e-06
5.25346e-08
5.21959e-06
5.0919e-08
5.22192e-06
4.94134e-08
5.2241e-06
4.81087e-08
5.22621e-06
4.70717e-08
5.22836e-06
4.63205e-08
5.23075e-06
4.58353e-08
5.23354e-06
4.54509e-08
4.48673e-08
5.23689e-06
5.55268e-06
1.04753e-08
5.55683e-06
2.94375e-08
5.56158e-06
4.12676e-08
5.5661e-06
4.73231e-08
5.57054e-06
5.07855e-08
5.5748e-06
5.24911e-08
5.57873e-06
5.26984e-08
5.58232e-06
5.19854e-08
5.58562e-06
5.08357e-08
5.58865e-06
4.94944e-08
5.59146e-06
4.81045e-08
5.5941e-06
4.67778e-08
5.59661e-06
4.55923e-08
5.59908e-06
4.45917e-08
5.60163e-06
4.37741e-08
5.60437e-06
4.30888e-08
5.60742e-06
4.23964e-08
4.1455e-08
5.61083e-06
5.95102e-06
9.22912e-09
5.95473e-06
2.5725e-08
5.95924e-06
3.67549e-08
5.96371e-06
4.28551e-08
5.96814e-06
4.63523e-08
5.97244e-06
4.81871e-08
5.97647e-06
4.86622e-08
5.98021e-06
4.82426e-08
5.98369e-06
4.73564e-08
5.98693e-06
4.6248e-08
5.98998e-06
4.50566e-08
5.99287e-06
4.38823e-08
5.99567e-06
4.27907e-08
5.99845e-06
4.18108e-08
6.00129e-06
4.09294e-08
6.00428e-06
4.00895e-08
6.0075e-06
3.91802e-08
3.80282e-08
6.01092e-06
6.37797e-06
8.07476e-09
6.38129e-06
2.23924e-08
6.38556e-06
3.2482e-08
6.38996e-06
3.84514e-08
6.39437e-06
4.1935e-08
6.39871e-06
4.38465e-08
6.40284e-06
4.45273e-08
6.40672e-06
4.43565e-08
6.41037e-06
4.37034e-08
6.41381e-06
4.28016e-08
6.41708e-06
4.17857e-08
6.42022e-06
4.07442e-08
6.42327e-06
3.97328e-08
6.42631e-06
3.87705e-08
6.42939e-06
3.78428e-08
6.43258e-06
3.68979e-08
6.4359e-06
3.58571e-08
3.45979e-08
6.43933e-06
5.74174e-06
7.16295e-09
5.7443e-06
1.98349e-08
5.74772e-06
2.90576e-08
5.75138e-06
3.4789e-08
5.75509e-06
3.82172e-08
5.75878e-06
4.01567e-08
5.76234e-06
4.09632e-08
5.76573e-06
4.09655e-08
5.76894e-06
4.04847e-08
5.772e-06
3.97382e-08
5.77493e-06
3.88546e-08
5.77775e-06
3.79145e-08
5.78052e-06
3.69649e-08
5.78326e-06
3.60236e-08
5.78602e-06
3.50751e-08
5.78884e-06
3.40806e-08
5.79171e-06
3.29807e-08
3.1695e-08
5.79461e-06
6.99912e-06
6.19728e-09
7.00183e-06
1.71248e-08
7.00554e-06
2.53382e-08
7.00964e-06
3.06893e-08
7.01387e-06
3.39833e-08
7.01811e-06
3.59058e-08
7.02227e-06
3.68059e-08
7.02626e-06
3.69651e-08
7.03009e-06
3.66514e-08
7.03377e-06
3.6061e-08
7.03731e-06
3.53124e-08
7.04074e-06
3.44784e-08
7.0441e-06
3.35999e-08
7.04742e-06
3.26918e-08
7.05075e-06
3.17462e-08
7.05409e-06
3.0735e-08
7.05744e-06
2.96247e-08
2.83577e-08
7.06077e-06
8.53186e-06
5.18255e-09
8.53469e-06
1.42891e-08
8.53868e-06
2.13484e-08
8.54321e-06
2.61528e-08
8.54798e-06
2.92079e-08
8.55283e-06
3.10456e-08
8.55765e-06
3.19892e-08
8.56234e-06
3.22713e-08
8.56687e-06
3.21094e-08
8.57126e-06
3.16672e-08
8.57552e-06
3.10553e-08
8.57966e-06
3.03331e-08
8.58371e-06
2.954e-08
8.58771e-06
2.86884e-08
8.59167e-06
2.77798e-08
8.5956e-06
2.67989e-08
8.59949e-06
2.57318e-08
2.45408e-08
8.6033e-06
1.04003e-05
4.12703e-09
1.04032e-05
1.13447e-08
1.04075e-05
1.71046e-08
1.04124e-05
2.1182e-08
1.04178e-05
2.38627e-08
1.04233e-05
2.55277e-08
1.04288e-05
2.64414e-08
1.04343e-05
2.67971e-08
1.04396e-05
2.67552e-08
1.04448e-05
2.64509e-08
1.04499e-05
2.59699e-08
1.04549e-05
2.53719e-08
1.04597e-05
2.46829e-08
1.04645e-05
2.39238e-08
1.04692e-05
2.3096e-08
1.04738e-05
2.22019e-08
1.04782e-05
2.12375e-08
2.01808e-08
1.04826e-05
1.26779e-05
3.03134e-09
1.26809e-05
8.28374e-09
1.26854e-05
1.25986e-08
1.26909e-05
1.57586e-08
1.26968e-05
1.79073e-08
1.2703e-05
1.92831e-08
1.27094e-05
2.00803e-08
1.27158e-05
2.04403e-08
1.2722e-05
2.04796e-08
1.27282e-05
2.02898e-08
1.27342e-05
1.99418e-08
1.27401e-05
1.94773e-08
1.27458e-05
1.89249e-08
1.27515e-05
1.82972e-08
1.2757e-05
1.76068e-08
1.27623e-05
1.6857e-08
1.27675e-05
1.60587e-08
1.519e-08
1.27724e-05
1.54543e-05
1.88222e-09
1.54576e-05
5.0538e-09
1.54624e-05
7.7627e-09
1.54683e-05
9.81001e-09
1.5475e-05
1.12484e-08
1.54821e-05
1.22014e-08
1.54893e-05
1.27801e-08
1.54967e-05
1.30705e-08
1.5504e-05
1.31416e-08
1.55113e-05
1.30477e-08
1.55184e-05
1.28312e-08
1.55253e-05
1.25222e-08
1.55321e-05
1.21393e-08
1.55387e-05
1.16947e-08
1.55451e-05
1.11976e-08
1.55513e-05
1.06563e-08
1.55573e-05
1.0082e-08
9.45829e-09
1.5563e-05
1.88389e-05
6.34279e-10
1.88424e-05
1.52601e-09
1.88478e-05
2.41339e-09
1.88544e-05
3.12918e-09
1.8862e-05
3.66826e-09
1.88701e-05
4.05684e-09
1.88786e-05
4.3171e-09
1.88872e-05
4.47013e-09
1.88958e-05
4.5346e-09
1.89043e-05
4.52565e-09
1.89127e-05
4.45447e-09
1.89209e-05
4.33114e-09
1.89288e-05
4.16289e-09
1.89366e-05
3.95521e-09
1.89441e-05
3.71293e-09
1.89513e-05
3.44135e-09
1.89582e-05
3.14966e-09
2.82135e-09
1.89648e-05
2.29648e-05
-8.22341e-10
2.29689e-05
-2.59467e-09
2.29752e-05
-3.87959e-09
2.29831e-05
-4.77765e-09
2.29921e-05
-5.33093e-09
2.30018e-05
-5.63198e-09
2.30119e-05
-5.76181e-09
2.30221e-05
-5.7813e-09
2.30324e-05
-5.72095e-09
2.30425e-05
-5.61977e-09
2.30524e-05
-5.49745e-09
2.30621e-05
-5.37785e-09
2.30716e-05
-5.26373e-09
2.30807e-05
-5.16574e-09
2.30895e-05
-5.08018e-09
2.30979e-05
-5.01401e-09
2.3106e-05
-4.9584e-09
-4.93548e-09
2.31138e-05
1.68119e-05
-1.9734e-09
1.68151e-05
-5.80911e-09
1.682e-05
-8.79274e-09
1.68261e-05
-1.08976e-08
1.6833e-05
-1.22099e-08
1.68403e-05
-1.29515e-08
1.68478e-05
-1.33191e-08
1.68555e-05
-1.34064e-08
1.6863e-05
-1.33052e-08
1.68705e-05
-1.30726e-08
1.68778e-05
-1.27762e-08
1.68848e-05
-1.24392e-08
1.68916e-05
-1.20955e-08
1.68982e-05
-1.17454e-08
1.69045e-05
-1.14093e-08
1.69106e-05
-1.10809e-08
1.69164e-05
-1.0772e-08
-1.04873e-08
1.6922e-05
1.46357e-05
-3.07954e-09
1.46388e-05
-8.94008e-09
1.46436e-05
-1.35872e-08
1.46495e-05
-1.67632e-08
1.46559e-05
-1.86561e-08
1.46627e-05
-1.9719e-08
1.46696e-05
-2.02162e-08
1.46764e-05
-2.02933e-08
1.46832e-05
-2.0073e-08
1.46898e-05
-1.96778e-08
1.46962e-05
-1.91775e-08
1.47024e-05
-1.8625e-08
1.47083e-05
-1.80449e-08
1.47141e-05
-1.74614e-08
1.47195e-05
-1.68831e-08
1.47248e-05
-1.63228e-08
1.47298e-05
-1.57784e-08
-1.52698e-08
1.47345e-05
1.27412e-05
-4.1163e-09
1.27443e-05
-1.21092e-08
1.27492e-05
-1.84947e-08
1.2755e-05
-2.25228e-08
1.27611e-05
-2.47871e-08
1.27675e-05
-2.6061e-08
1.27739e-05
-2.6608e-08
1.27801e-05
-2.65772e-08
1.27862e-05
-2.61765e-08
1.27921e-05
-2.55699e-08
1.27978e-05
-2.48475e-08
1.28032e-05
-2.40655e-08
1.28084e-05
-2.32541e-08
1.28134e-05
-2.24446e-08
1.28182e-05
-2.16435e-08
1.28227e-05
-2.087e-08
1.28271e-05
-2.01175e-08
-1.94054e-08
1.28312e-05
1.10918e-05
-4.985e-09
1.10951e-05
-1.53696e-08
1.11002e-05
-2.36925e-08
1.1106e-05
-2.82537e-08
1.11118e-05
-3.06598e-08
1.11178e-05
-3.20412e-08
1.11237e-05
-3.25316e-08
1.11295e-05
-3.23124e-08
1.1135e-05
-3.16842e-08
1.11403e-05
-3.08436e-08
1.11453e-05
-2.98863e-08
1.11501e-05
-2.8866e-08
1.11547e-05
-2.78302e-08
1.1159e-05
-2.67982e-08
1.11632e-05
-2.57962e-08
1.11671e-05
-2.48217e-08
1.11709e-05
-2.38872e-08
-2.2992e-08
1.11745e-05
9.65584e-06
-5.61494e-09
9.6593e-06
-1.8829e-08
9.6647e-06
-2.91024e-08
9.67029e-06
-3.38472e-08
9.67597e-06
-3.6343e-08
9.68168e-06
-3.77509e-08
9.68718e-06
-3.80385e-08
9.6924e-06
-3.75368e-08
9.69736e-06
-3.66466e-08
9.70208e-06
-3.55614e-08
9.70655e-06
-3.43628e-08
9.7108e-06
-3.3109e-08
9.71482e-06
-3.18465e-08
9.71862e-06
-3.06063e-08
9.72223e-06
-2.94018e-08
9.72564e-06
-2.82429e-08
9.72888e-06
-2.71302e-08
-2.60638e-08
9.73195e-06
8.40534e-06
-5.60556e-09
8.40969e-06
-2.31774e-08
8.41498e-06
-3.43971e-08
8.42009e-06
-3.89599e-08
8.42556e-06
-4.18193e-08
8.4311e-06
-4.3292e-08
8.43633e-06
-4.32785e-08
8.44121e-06
-4.24161e-08
8.44576e-06
-4.12058e-08
8.45002e-06
-3.98251e-08
8.454e-06
-3.83433e-08
8.45771e-06
-3.68237e-08
8.46118e-06
-3.53143e-08
8.46442e-06
-3.38437e-08
8.46744e-06
-3.24266e-08
8.47026e-06
-3.10707e-08
8.47291e-06
-2.97759e-08
-2.85468e-08
8.47539e-06
7.31456e-06
-2.88523e-09
7.32123e-06
-2.98509e-08
7.32683e-06
-4.00021e-08
7.33186e-06
-4.39876e-08
7.33735e-06
-4.7311e-08
7.34278e-06
-4.8728e-08
7.34779e-06
-4.82894e-08
7.35234e-06
-4.69787e-08
7.35648e-06
-4.53485e-08
7.36021e-06
-4.3558e-08
7.36356e-06
-4.16908e-08
7.36654e-06
-3.98132e-08
7.36921e-06
-3.79859e-08
7.37159e-06
-3.62283e-08
7.37372e-06
-3.45552e-08
7.37562e-06
-3.29713e-08
7.37731e-06
-3.14759e-08
-3.00646e-08
7.37884e-06
6.36246e-06
4.71507e-09
6.37193e-06
-3.93188e-08
6.3794e-06
-4.74757e-08
6.3861e-06
-5.06912e-08
6.39246e-06
-5.36744e-08
6.39787e-06
-5.41374e-08
6.40227e-06
-5.2696e-08
6.40587e-06
-5.05851e-08
6.4088e-06
-4.82871e-08
6.41114e-06
-4.58953e-08
6.41293e-06
-4.34811e-08
6.41424e-06
-4.11312e-08
6.41514e-06
-3.88908e-08
6.41569e-06
-3.67799e-08
6.41594e-06
-3.48097e-08
6.41594e-06
-3.2978e-08
6.41575e-06
-3.12876e-08
-2.97125e-08
6.41541e-06
5.54121e-06
8.96616e-09
5.55035e-06
-4.84639e-08
5.5584e-06
-5.55281e-08
5.56615e-06
-5.84441e-08
5.57267e-06
-6.0201e-08
5.57707e-06
-5.85408e-08
5.5794e-06
-5.50289e-08
5.58006e-06
-5.12475e-08
5.57941e-06
-4.76485e-08
5.57775e-06
-4.42333e-08
5.57529e-06
-4.1023e-08
5.57222e-06
-3.80618e-08
5.56868e-06
-3.53567e-08
5.56479e-06
-3.28988e-08
5.56066e-06
-3.06831e-08
5.55637e-06
-2.86956e-08
5.55202e-06
-2.69343e-08
-2.5354e-08
5.54766e-06
4.86005e-06
-2.34726e-08
4.86539e-06
-5.38184e-08
4.86527e-06
-5.54028e-08
4.86223e-06
-5.54071e-08
4.85709e-06
-5.50778e-08
4.84965e-06
-5.11004e-08
4.84002e-06
-4.5405e-08
4.8287e-06
-3.99391e-08
4.81622e-06
-3.51715e-08
4.80305e-06
-3.10618e-08
4.78957e-06
-2.75438e-08
4.77605e-06
-2.45553e-08
4.7627e-06
-2.20129e-08
4.74965e-06
-1.98485e-08
4.73697e-06
-1.80132e-08
4.72475e-06
-1.64743e-08
4.71308e-06
-1.52718e-08
-1.49231e-08
4.70265e-06
4.1792e-06
4.12538e-06
4.06998e-06
4.01457e-06
3.9595e-06
3.90839e-06
3.86299e-06
3.82305e-06
3.78788e-06
3.75682e-06
3.72927e-06
3.70471e-06
3.6827e-06
3.66285e-06
3.64484e-06
3.62836e-06
3.61309e-06
3.59816e-06
2.26508e-08
-2.28589e-08
5.56267e-08
-3.31612e-08
8.77726e-08
-3.23251e-08
1.16188e-07
-2.85301e-08
1.3903e-07
-2.29828e-08
1.5541e-07
-1.64862e-08
1.65092e-07
-9.8127e-09
1.68806e-07
-3.83203e-09
1.68708e-07
-8.54474e-11
1.64852e-07
3.61823e-09
1.53208e-07
1.13473e-08
1.36035e-07
1.69161e-08
1.14577e-07
2.11526e-08
9.00227e-08
2.43514e-08
6.31002e-08
2.66077e-08
3.50251e-08
2.79247e-08
5.99892e-09
2.86781e-08
-2.37425e-08
2.96221e-08
-5.67113e-08
3.26366e-08
-9.58999e-08
3.91069e-08
-1.44671e-07
4.84777e-08
-2.01331e-07
5.66197e-08
-2.6241e-07
6.08327e-08
-3.2749e-07
6.50524e-08
-3.9663e-07
6.89141e-08
-4.69399e-07
7.27276e-08
-5.46005e-07
7.63736e-08
-6.25654e-07
7.95857e-08
-7.08022e-07
8.21433e-08
-7.92061e-07
8.39548e-08
-8.77252e-07
8.49608e-08
-9.62538e-07
8.51819e-08
-1.04741e-06
8.46533e-08
-1.13101e-06
8.34792e-08
-1.21297e-06
8.17532e-08
-1.29271e-06
7.9608e-08
-1.37005e-06
7.71439e-08
-1.44465e-06
7.44838e-08
-1.51653e-06
7.17058e-08
-1.58554e-06
6.89037e-08
-1.65181e-06
6.61274e-08
-1.71535e-06
6.34415e-08
-1.77635e-06
6.08704e-08
-1.83489e-06
5.84542e-08
-1.89121e-06
5.61982e-08
-1.94543e-06
5.41238e-08
-1.99776e-06
5.22243e-08
-2.04837e-06
5.05094e-08
-2.09744e-06
4.89657e-08
-2.14515e-06
4.75961e-08
-2.19163e-06
4.63848e-08
-2.23708e-06
4.53288e-08
-2.28161e-06
4.44138e-08
-2.32538e-06
4.36374e-08
-2.36849e-06
4.29862e-08
-2.41111e-06
4.24546e-08
-2.45328e-06
4.20332e-08
-2.49518e-06
4.17177e-08
-2.53682e-06
4.15002e-08
-2.5784e-06
4.13719e-08
-2.61987e-06
4.13293e-08
-2.66145e-06
4.13646e-08
-2.70306e-06
4.14767e-08
-2.74493e-06
4.16521e-08
-2.78694e-06
4.18932e-08
-2.82934e-06
4.21808e-08
-2.87197e-06
4.25229e-08
-2.91508e-06
4.28945e-08
-2.95847e-06
4.33072e-08
-3.0024e-06
4.37276e-08
-3.04662e-06
4.41729e-08
-3.09142e-06
4.46022e-08
-3.13649e-06
4.50364e-08
-3.18212e-06
4.54233e-08
-3.22796e-06
4.57929e-08
-3.27429e-06
4.60877e-08
-3.32072e-06
4.63412e-08
-3.36747e-06
4.65024e-08
-3.41412e-06
4.66057e-08
-3.46094e-06
4.6578e-08
-3.50743e-06
4.64589e-08
-3.55381e-06
4.61765e-08
-3.59954e-06
4.57665e-08
-3.64485e-06
4.51301e-08
-3.68911e-06
4.43066e-08
-3.73242e-06
4.32054e-08
-3.77415e-06
4.18754e-08
-3.81422e-06
4.02399e-08
-3.85213e-06
3.8318e-08
-3.88758e-06
3.6095e-08
-3.92046e-06
3.34452e-08
-3.95029e-06
3.03455e-08
-3.9766e-06
2.67307e-08
-3.99876e-06
2.25854e-08
-4.01625e-06
1.78638e-08
-4.02848e-06
1.26118e-08
-4.03511e-06
6.93101e-09
-4.03607e-06
1.23496e-09
-4.03166e-06
-4.23266e-09
-4.02185e-06
-9.70874e-09
-4.00643e-06
-1.54358e-08
-3.98498e-06
-2.16307e-08
-3.95766e-06
-2.76481e-08
-3.92419e-06
-3.39774e-08
-3.88407e-06
-4.06515e-08
-3.83735e-06
-4.73339e-08
-3.78361e-06
-5.42354e-08
-3.72295e-06
-6.1161e-08
-3.65492e-06
-6.83509e-08
-3.57976e-06
-7.54582e-08
-3.49756e-06
-8.23203e-08
-3.40835e-06
-8.92856e-08
-3.31225e-06
-9.60082e-08
-3.20951e-06
-1.02609e-07
-3.10028e-06
-1.08937e-07
-2.98494e-06
-1.15001e-07
-2.86377e-06
-1.20697e-07
-2.73723e-06
-1.26028e-07
-2.60571e-06
-1.30898e-07
-2.4698e-06
-1.35288e-07
-2.33e-06
-1.39129e-07
-2.18692e-06
-1.42405e-07
-2.04112e-06
-1.45092e-07
-1.89318e-06
-1.47167e-07
-1.74374e-06
-1.48643e-07
-1.5934e-06
-1.49507e-07
-1.4428e-06
-1.49799e-07
-1.29249e-06
-1.4952e-07
-1.14303e-06
-1.48763e-07
-9.9485e-07
-1.47515e-07
-8.48441e-07
-1.45887e-07
-7.04129e-07
-1.43851e-07
-5.62317e-07
-1.41514e-07
-4.23256e-07
-1.38841e-07
-2.86986e-07
-1.36214e-07
-1.52847e-07
-1.34158e-07
-1.99065e-08
-1.33107e-07
1.11707e-07
-1.31857e-07
2.39754e-07
-1.28438e-07
3.6287e-07
-1.23565e-07
4.80683e-07
-1.18299e-07
5.93151e-07
-1.12928e-07
7.00312e-07
-1.07585e-07
8.02261e-07
-1.02343e-07
8.9914e-07
-9.7244e-08
9.911e-07
-9.23051e-08
1.07834e-06
-8.75547e-08
1.16103e-06
-8.29921e-08
1.23939e-06
-7.86304e-08
1.31359e-06
-7.44606e-08
1.38384e-06
-7.04874e-08
1.45033e-06
-6.67107e-08
1.51323e-06
-6.31131e-08
1.57271e-06
-5.96745e-08
1.62893e-06
-5.64048e-08
1.68205e-06
-5.32987e-08
1.73225e-06
-5.03593e-08
1.77967e-06
-4.75766e-08
1.82447e-06
-4.49471e-08
1.86678e-06
-4.24531e-08
1.90674e-06
-4.00938e-08
1.94448e-06
-3.78619e-08
1.98012e-06
-3.57561e-08
2.01378e-06
-3.37641e-08
2.04555e-06
-3.1879e-08
2.07555e-06
-3.0093e-08
2.10385e-06
-2.84011e-08
2.13054e-06
-2.6773e-08
2.15565e-06
-2.5194e-08
2.1792e-06
-2.36343e-08
2.20117e-06
-2.20415e-08
2.22143e-06
-2.03431e-08
2.23981e-06
-1.84445e-08
2.25589e-06
-1.61514e-08
2.26891e-06
-1.30913e-08
2.27736e-06
-8.51911e-09
2.27642e-06
8.76942e-10
2.25731e-06
1.90491e-08
2.19953e-06
5.77207e-08
1.23055e-07
2.07642e-06
3.41239e-08
-5.71531e-08
6.32685e-08
-6.24408e-08
8.41434e-08
-5.33087e-08
9.88058e-08
-4.32655e-08
1.08362e-07
-3.262e-08
1.13362e-07
-2.15524e-08
1.13861e-07
-1.03909e-08
1.09363e-07
5.86933e-10
9.79411e-08
1.12383e-08
7.97322e-08
2.17174e-08
5.89552e-08
3.20018e-08
3.41558e-08
4.16044e-08
4.89512e-09
5.02921e-08
-2.89089e-08
5.80648e-08
-6.75419e-08
6.51329e-08
-1.11518e-07
7.18316e-08
-1.61588e-07
7.86475e-08
-2.18245e-07
8.62175e-08
-2.80887e-07
9.51855e-08
-3.47601e-07
1.0577e-07
-4.16465e-07
1.17261e-07
-4.87857e-07
1.27971e-07
-5.63675e-07
1.36581e-07
-6.42639e-07
1.43982e-07
-7.24434e-07
1.50638e-07
-8.07927e-07
1.56178e-07
-8.92167e-07
1.60535e-07
-9.76243e-07
1.63613e-07
-1.05953e-06
1.65343e-07
-1.14135e-06
1.65725e-07
-1.2213e-06
1.64815e-07
-1.29891e-06
1.6273e-07
-1.37398e-06
1.59631e-07
-1.44628e-06
1.55714e-07
-1.51579e-06
1.51174e-07
-1.58246e-06
1.46204e-07
-1.64638e-06
1.40974e-07
-1.7076e-06
1.35638e-07
-1.76629e-06
1.30322e-07
-1.82258e-06
1.2513e-07
-1.87666e-06
1.20137e-07
-1.92868e-06
1.15403e-07
-1.97884e-06
1.10964e-07
-2.02728e-06
1.06845e-07
-2.0742e-06
1.03057e-07
-2.11974e-06
9.96056e-08
-2.16406e-06
9.64826e-08
-2.20729e-06
9.36827e-08
-2.24957e-06
9.11907e-08
-2.29103e-06
8.89946e-08
-2.33178e-06
8.70749e-08
-2.37194e-06
8.54187e-08
-2.4116e-06
8.40075e-08
-2.45086e-06
8.28278e-08
-2.48981e-06
8.18611e-08
-2.52854e-06
8.10947e-08
-2.56711e-06
8.0513e-08
-2.60559e-06
8.01048e-08
-2.64404e-06
7.98539e-08
-2.68253e-06
7.97488e-08
-2.72107e-06
7.97761e-08
-2.75974e-06
7.99254e-08
-2.79855e-06
8.01829e-08
-2.83754e-06
8.05345e-08
-2.87671e-06
8.09666e-08
-2.91611e-06
8.14634e-08
-2.95569e-06
8.20111e-08
-2.99549e-06
8.25914e-08
-3.03546e-06
8.31905e-08
-3.07561e-06
8.37855e-08
-3.11587e-06
8.43631e-08
-3.15625e-06
8.4894e-08
-3.19664e-06
8.53645e-08
-3.23704e-06
8.57411e-08
-3.27733e-06
8.6009e-08
-3.31749e-06
8.61337e-08
-3.35734e-06
8.61089e-08
-3.39684e-06
8.58961e-08
-3.43578e-06
8.54812e-08
-3.47413e-06
8.48178e-08
-3.51162e-06
8.38941e-08
-3.54818e-06
8.26568e-08
-3.58353e-06
8.10868e-08
-3.61759e-06
7.91231e-08
-3.65005e-06
7.67511e-08
-3.68079e-06
7.39169e-08
-3.70947e-06
7.06123e-08
-3.73593e-06
6.67914e-08
-3.75977e-06
6.24729e-08
-3.78088e-06
5.75726e-08
-3.79913e-06
5.20699e-08
-3.81441e-06
4.59223e-08
-3.82653e-06
3.91191e-08
-3.8354e-06
3.17044e-08
-3.841e-06
2.36882e-08
-3.84332e-06
1.51361e-08
-3.84231e-06
6.07738e-09
-3.83747e-06
-3.46886e-09
-3.82806e-06
-1.35825e-08
-3.81349e-06
-2.42595e-08
-3.79348e-06
-3.55293e-08
-3.76791e-06
-4.73706e-08
-3.73623e-06
-5.9651e-08
-3.69818e-06
-7.23864e-08
-3.65373e-06
-8.55421e-08
-3.60241e-06
-9.9057e-08
-3.54418e-06
-1.12853e-07
-3.47876e-06
-1.26876e-07
-3.40634e-06
-1.41028e-07
-3.32674e-06
-1.55211e-07
-3.2399e-06
-1.69265e-07
-3.14605e-06
-1.8315e-07
-3.04525e-06
-1.96785e-07
-2.93767e-06
-2.10069e-07
-2.82357e-06
-2.22879e-07
-2.70324e-06
-2.35094e-07
-2.57708e-06
-2.46588e-07
-2.4455e-06
-2.57278e-07
-2.309e-06
-2.67037e-07
-2.16813e-06
-2.75783e-07
-2.02346e-06
-2.83408e-07
-1.87561e-06
-2.89863e-07
-1.72519e-06
-2.95095e-07
-1.57285e-06
-2.99085e-07
-1.41921e-06
-3.01827e-07
-1.26493e-06
-3.03337e-07
-1.11063e-06
-3.03657e-07
-9.56895e-07
-3.02848e-07
-8.04274e-07
-3.01005e-07
-6.53266e-07
-2.98199e-07
-5.04298e-07
-2.94577e-07
-3.57754e-07
-2.9018e-07
-2.138e-07
-2.85309e-07
-7.22913e-08
-2.80257e-07
6.65371e-08
-2.75004e-07
2.01683e-07
-2.6932e-07
3.31606e-07
-2.63091e-07
4.55595e-07
-2.55968e-07
5.74555e-07
-2.47569e-07
6.89054e-07
-2.38282e-07
7.99109e-07
-2.28579e-07
9.04696e-07
-2.18737e-07
1.00582e-06
-2.08905e-07
1.10249e-06
-1.99211e-07
1.19477e-06
-1.89713e-07
1.28276e-06
-1.80473e-07
1.36656e-06
-1.71523e-07
1.4463e-06
-1.629e-07
1.52211e-06
-1.546e-07
1.59414e-06
-1.4664e-07
1.66252e-06
-1.39011e-07
1.7274e-06
-1.31729e-07
1.78893e-06
-1.24766e-07
1.84726e-06
-1.18124e-07
1.90253e-06
-1.11797e-07
1.9549e-06
-1.05785e-07
2.00452e-06
-1.00075e-07
2.0515e-06
-9.46687e-08
2.09601e-06
-8.95435e-08
2.13815e-06
-8.46899e-08
2.17806e-06
-8.00934e-08
2.21587e-06
-7.57507e-08
2.25168e-06
-7.16457e-08
2.28561e-06
-6.77666e-08
2.31776e-06
-6.40951e-08
2.34822e-06
-6.06221e-08
2.37708e-06
-5.73246e-08
2.40441e-06
-5.41619e-08
2.43025e-06
-5.10918e-08
2.45462e-06
-4.80587e-08
2.47749e-06
-4.49639e-08
2.49877e-06
-4.1675e-08
2.51827e-06
-3.7994e-08
2.53565e-06
-3.35775e-08
2.5503e-06
-2.77897e-08
2.56125e-06
-1.95119e-08
2.56806e-06
-5.97857e-09
2.56966e-06
1.74082e-08
2.56352e-06
6.38224e-08
1.52511e-07
2.53402e-06
2.52285e-08
-8.2513e-08
4.01954e-08
-7.75065e-08
4.85889e-08
-6.17807e-08
5.17136e-08
-4.6442e-08
5.02738e-08
-3.12378e-08
4.46756e-08
-1.60005e-08
3.49744e-08
-7.42807e-10
2.10156e-08
1.44962e-08
2.53275e-09
2.9665e-08
-2.04466e-08
4.46433e-08
-4.7663e-08
5.91615e-08
-7.91769e-08
7.30695e-08
-1.15245e-07
8.63079e-08
-1.56154e-07
9.89351e-08
-2.02181e-07
1.11112e-07
-2.53478e-07
1.23096e-07
-3.10051e-07
1.35174e-07
-3.71456e-07
1.47591e-07
-4.36732e-07
1.60415e-07
-5.04443e-07
1.73453e-07
-5.73448e-07
1.86221e-07
-6.43525e-07
1.98019e-07
-7.15406e-07
2.08417e-07
-7.88611e-07
2.17159e-07
-8.62232e-07
2.24211e-07
-9.356e-07
2.29512e-07
-1.00815e-06
2.33034e-07
-1.07936e-06
2.34787e-07
-1.1489e-06
2.34827e-07
-1.21647e-06
2.33261e-07
-1.28197e-06
2.30255e-07
-1.3453e-06
2.26016e-07
-1.40649e-06
2.20772e-07
-1.46557e-06
2.14752e-07
-1.52262e-06
2.08175e-07
-1.57771e-06
2.01247e-07
-1.63094e-06
1.94149e-07
-1.68238e-06
1.87037e-07
-1.73214e-06
1.8004e-07
-1.78031e-06
1.73261e-07
-1.827e-06
1.66779e-07
-1.87228e-06
1.60649e-07
-1.91627e-06
1.5491e-07
-1.95904e-06
1.49586e-07
-2.00071e-06
1.44687e-07
-2.04136e-06
1.40215e-07
-2.08108e-06
1.36164e-07
-2.11996e-06
1.32524e-07
-2.15809e-06
1.29279e-07
-2.19555e-06
1.26414e-07
-2.23242e-06
1.23907e-07
-2.26879e-06
1.21741e-07
-2.30472e-06
1.19895e-07
-2.34029e-06
1.18351e-07
-2.37557e-06
1.17088e-07
-2.41062e-06
1.16087e-07
-2.44549e-06
1.1533e-07
-2.48025e-06
1.14799e-07
-2.51493e-06
1.14475e-07
-2.54959e-06
1.14341e-07
-2.58426e-06
1.1438e-07
-2.61898e-06
1.14573e-07
-2.65377e-06
1.14903e-07
-2.68866e-06
1.1535e-07
-2.72366e-06
1.15893e-07
-2.75878e-06
1.16513e-07
-2.79403e-06
1.17187e-07
-2.8294e-06
1.17893e-07
-2.86488e-06
1.18606e-07
-2.90045e-06
1.19301e-07
-2.9361e-06
1.19951e-07
-2.97178e-06
1.20526e-07
-3.00746e-06
1.20997e-07
-3.0431e-06
1.21329e-07
-3.07863e-06
1.2149e-07
-3.11401e-06
1.21448e-07
-3.14912e-06
1.2117e-07
-3.1839e-06
1.2062e-07
-3.21823e-06
1.19761e-07
-3.25201e-06
1.18548e-07
-3.28511e-06
1.16945e-07
-3.31739e-06
1.14901e-07
-3.34871e-06
1.12373e-07
-3.37893e-06
1.09308e-07
-3.40787e-06
1.05667e-07
-3.43537e-06
1.01401e-07
-3.46122e-06
9.64764e-08
-3.48522e-06
9.08631e-08
-3.50712e-06
8.45228e-08
-3.52673e-06
7.74362e-08
-3.54396e-06
6.95264e-08
-3.55865e-06
6.07631e-08
-3.57053e-06
5.11571e-08
-3.57941e-06
4.06903e-08
-3.585e-06
2.93902e-08
-3.58702e-06
1.72318e-08
-3.5851e-06
4.22476e-09
-3.57887e-06
-9.6877e-09
-3.56794e-06
-2.45213e-08
-3.55199e-06
-4.02761e-08
-3.53073e-06
-5.69262e-08
-3.50388e-06
-7.44326e-08
-3.47108e-06
-9.27434e-08
-3.43205e-06
-1.11742e-07
-3.38658e-06
-1.31371e-07
-3.33439e-06
-1.5155e-07
-3.27537e-06
-1.72171e-07
-3.20934e-06
-1.93118e-07
-3.1363e-06
-2.14256e-07
-3.05614e-06
-2.35466e-07
-2.96891e-06
-2.56586e-07
-2.87463e-06
-2.77419e-07
-2.7735e-06
-2.97904e-07
-2.66564e-06
-3.17828e-07
-2.55136e-06
-3.37047e-07
-2.43095e-06
-3.55334e-07
-2.30481e-06
-3.7253e-07
-2.17339e-06
-3.88459e-07
-2.03721e-06
-4.02966e-07
-1.89682e-06
-4.15899e-07
-1.75282e-06
-4.2713e-07
-1.60584e-06
-4.36563e-07
-1.45651e-06
-4.44132e-07
-1.30548e-06
-4.49809e-07
-1.15341e-06
-4.53588e-07
-1.00093e-06
-4.55505e-07
-8.48666e-07
-4.55617e-07
-6.97205e-07
-4.54035e-07
-5.47069e-07
-4.50878e-07
-3.98759e-07
-4.46293e-07
-2.52666e-07
-4.40476e-07
-1.09012e-07
-4.33696e-07
3.19176e-08
-4.26131e-07
1.6945e-07
-4.17737e-07
3.0294e-07
-4.0847e-07
4.31952e-07
-3.98354e-07
5.56154e-07
-3.87348e-07
6.7542e-07
-3.7533e-07
7.90032e-07
-3.6231e-07
9.00193e-07
-3.48588e-07
1.00596e-06
-3.3449e-07
1.10735e-06
-3.20257e-07
1.2044e-06
-3.06071e-07
1.29716e-06
-2.92064e-07
1.3857e-06
-2.78338e-07
1.47011e-06
-2.64959e-07
1.5505e-06
-2.51984e-07
1.627e-06
-2.39451e-07
1.69972e-06
-2.27377e-07
1.7688e-06
-2.15771e-07
1.83437e-06
-2.04637e-07
1.89659e-06
-1.93989e-07
1.9556e-06
-1.83823e-07
2.01157e-06
-1.74127e-07
2.06462e-06
-1.64894e-07
2.1149e-06
-1.56109e-07
2.16255e-06
-1.47765e-07
2.2077e-06
-1.39854e-07
2.25048e-06
-1.3236e-07
2.29102e-06
-1.25265e-07
2.32944e-06
-1.18554e-07
2.36587e-06
-1.12211e-07
2.40041e-06
-1.06219e-07
2.43317e-06
-1.00557e-07
2.46425e-06
-9.52076e-08
2.49375e-06
-9.01492e-08
2.52174e-06
-8.53472e-08
2.54829e-06
-8.07472e-08
2.57346e-06
-7.62871e-08
2.59725e-06
-7.18788e-08
2.61965e-06
-6.73899e-08
2.64058e-06
-6.26329e-08
2.65988e-06
-5.73234e-08
2.67727e-06
-5.09994e-08
2.69231e-06
-4.28576e-08
2.7043e-06
-3.15266e-08
2.71256e-06
-1.42653e-08
2.71638e-06
1.35665e-08
2.71736e-06
6.28181e-08
1.51563e-07
2.71828e-06
9.13755e-09
-9.17622e-08
9.17437e-09
-7.76211e-08
5.66193e-09
-5.83292e-08
-1.34055e-09
-3.9481e-08
-1.17512e-08
-2.08709e-08
-2.54922e-08
-2.29334e-09
-4.25916e-08
1.63172e-08
-6.30958e-08
3.49677e-08
-8.7087e-08
5.36191e-08
-1.1464e-07
7.21643e-08
-1.45947e-07
9.04326e-08
-1.81198e-07
1.08291e-07
-2.20596e-07
1.25672e-07
-2.64256e-07
1.4257e-07
-3.12211e-07
1.59035e-07
-3.64288e-07
1.7515e-07
-4.20135e-07
1.90988e-07
-4.79113e-07
2.06546e-07
-5.40434e-07
2.217e-07
-6.03193e-07
2.36189e-07
-6.66653e-07
2.49644e-07
-7.3034e-07
2.61682e-07
-7.93999e-07
2.72037e-07
-8.57351e-07
2.80484e-07
-9.20067e-07
2.86886e-07
-9.81785e-07
2.91199e-07
-1.04225e-06
2.93452e-07
-1.10123e-06
2.93735e-07
-1.15863e-06
2.92188e-07
-1.2144e-06
2.88996e-07
-1.26856e-06
2.84376e-07
-1.32115e-06
2.78569e-07
-1.37223e-06
2.71815e-07
-1.42185e-06
2.64347e-07
-1.4701e-06
2.56386e-07
-1.51702e-06
2.48131e-07
-1.56266e-06
2.39759e-07
-1.60708e-06
2.31422e-07
-1.65032e-06
2.23247e-07
-1.69242e-06
2.15336e-07
-1.73344e-06
2.07765e-07
-1.77341e-06
2.00595e-07
-1.8124e-06
1.93865e-07
-1.85044e-06
1.87602e-07
-1.8876e-06
1.8182e-07
-1.92394e-06
1.76523e-07
-1.95951e-06
1.71706e-07
-1.99438e-06
1.6736e-07
-2.0286e-06
1.63472e-07
-2.06225e-06
1.60024e-07
-2.09537e-06
1.56998e-07
-2.12804e-06
1.54373e-07
-2.1603e-06
1.52128e-07
-2.19223e-06
1.50241e-07
-2.22388e-06
1.48691e-07
-2.25529e-06
1.47456e-07
-2.28652e-06
1.46515e-07
-2.31762e-06
1.45847e-07
-2.34862e-06
1.45429e-07
-2.37957e-06
1.45241e-07
-2.41051e-06
1.45261e-07
-2.44146e-06
1.45468e-07
-2.47245e-06
1.45839e-07
-2.50351e-06
1.4635e-07
-2.53465e-06
1.46977e-07
-2.56589e-06
1.47694e-07
-2.59723e-06
1.48473e-07
-2.62868e-06
1.49287e-07
-2.66023e-06
1.50106e-07
-2.69188e-06
1.50898e-07
-2.7236e-06
1.5163e-07
-2.75538e-06
1.52264e-07
-2.78718e-06
1.52763e-07
-2.81898e-06
1.53087e-07
-2.85072e-06
1.53196e-07
-2.88236e-06
1.53045e-07
-2.91382e-06
1.52594e-07
-2.94503e-06
1.51795e-07
-2.97591e-06
1.506e-07
-3.00635e-06
1.48957e-07
-3.03625e-06
1.46814e-07
-3.06549e-06
1.44116e-07
-3.09395e-06
1.40805e-07
-3.12149e-06
1.36823e-07
-3.14796e-06
1.32116e-07
-3.17321e-06
1.26628e-07
-3.19704e-06
1.2031e-07
-3.21926e-06
1.13114e-07
-3.23961e-06
1.05011e-07
-3.25795e-06
9.59103e-08
-3.27409e-06
8.57969e-08
-3.28783e-06
7.45921e-08
-3.29889e-06
6.22805e-08
-3.30699e-06
4.88317e-08
-3.31181e-06
3.42342e-08
-3.31302e-06
1.84509e-08
-3.31029e-06
1.47018e-09
-3.30327e-06
-1.67473e-08
-3.29167e-06
-3.62063e-08
-3.27518e-06
-5.68971e-08
-3.2535e-06
-7.87929e-08
-3.22634e-06
-1.01839e-07
-3.19342e-06
-1.25973e-07
-3.15443e-06
-1.51056e-07
-3.10912e-06
-1.76998e-07
-3.05728e-06
-2.03671e-07
-2.99873e-06
-2.30956e-07
-2.93335e-06
-2.58684e-07
-2.86104e-06
-2.86709e-07
-2.78174e-06
-3.14848e-07
-2.69548e-06
-3.42899e-07
-2.6023e-06
-3.70601e-07
-2.50235e-06
-3.97816e-07
-2.39583e-06
-4.24278e-07
-2.28299e-06
-4.49777e-07
-2.16416e-06
-4.74019e-07
-2.03974e-06
-4.96785e-07
-1.91018e-06
-5.17823e-07
-1.77599e-06
-5.36938e-07
-1.63775e-06
-5.53917e-07
-1.49605e-06
-5.68604e-07
-1.35151e-06