/*--------------------------------*- C++ -*----------------------------------*\
  =========                 |
  \\      /  F ield         | OpenFOAM: The Open Source CFD Toolbox
   \\    /   O peration     | Website:  https://openfoam.org
    \\  /    A nd           | Version:  9
     \\/     M anipulation  |
\*---------------------------------------------------------------------------*/
FoamFile
{
    format      ascii;
    class       volScalarField;
    location    "6.14";
    object      nut;
}
// * * * * * * * * * * * * * * * * * * * * * * * * * * * * * * * * * * * * * //

dimensions      [0 2 -1 0 0 0 0];

internalField   nonuniform List<scalar> 
2268
(
1.27656e-05
1.4707e-05
1.77752e-05
1.98233e-05
2.13454e-05
2.25414e-05
2.35147e-05
2.43224e-05
2.49989e-05
2.55694e-05
2.60734e-05
2.6517e-05
2.69117e-05
2.72383e-05
2.74225e-05
2.73015e-05
2.65268e-05
2.50867e-05
2.35602e-05
2.23134e-05
2.09354e-05
1.86638e-05
1.24967e-05
2.90779e-05
0.000116129
0.000156868
0.000182684
0.000201322
0.000215748
0.000227458
0.000237244
0.000245533
0.000252491
0.000258191
0.000263149
0.000267366
0.00027048
0.000271556
0.00026888
0.000259331
0.000234796
0.000212815
0.000198319
0.000186638
0.000144203
3.98201e-05
3.45584e-05
0.000197306
0.000290185
0.000350472
0.000393977
0.000427361
0.000454063
0.000475992
0.000494229
0.000509372
0.000521868
0.000532487
0.000541194
0.000547182
0.000548516
0.000541766
0.000520946
0.000477383
0.000434765
0.000398728
0.000351574
0.000242915
4.70801e-05
3.86074e-05
0.000254665
0.000395391
0.00048993
0.000558956
0.000612035
0.000654329
0.000688819
0.000717266
0.000740735
0.000759993
0.000776003
0.000788669
0.000796823
0.000797824
0.00078722
0.000758095
0.000703147
0.000643959
0.000582843
0.000493231
0.000321358
5.31685e-05
4.18165e-05
0.00029805
0.000480161
0.000606309
0.000699696
0.000771935
0.000829558
0.000876458
0.000914998
0.00094666
0.00097246
0.000993509
0.00100965
0.00101946
0.00101989
0.00100611
0.000971499
0.000910029
0.000837569
0.000751889
0.000621533
0.000391329
5.89464e-05
4.4507e-05
0.000332888
0.000550627
0.000705288
0.000821281
0.000911643
0.000983958
0.00104285
0.00109117
0.00113076
0.00116284
0.0011886
0.0012079
0.00121913
0.00121909
0.00120301
0.001165
0.00110005
0.00101712
0.000909884
0.000743628
0.000455977
6.53441e-05
4.68601e-05
0.000362181
0.000610908
0.000791129
0.000927827
0.00103508
0.00112126
0.00119157
0.00124927
0.00129646
0.00133452
0.00136474
0.001387
0.00139965
0.00139951
0.00138212
0.00134233
0.00127591
0.00118517
0.00106114
0.00086537
0.000524692
7.3595e-05
4.89787e-05
0.000387762
0.000663802
0.000866942
0.00102248
0.00114533
0.0012445
0.00132559
0.00139219
0.00144659
0.00149038
0.00152482
0.00154999
0.00156423
0.00156453
0.00154683
0.00150664
0.00143998
0.00134455
0.00120999
0.000996729
0.000617973
8.7085e-05
1.19894e-05
2.01096e-05
2.33102e-05
2.47256e-05
2.54694e-05
2.58555e-05
2.6167e-05
2.64803e-05
2.65563e-05
2.56921e-05
2.39839e-05
2.19031e-05
1.97429e-05
2.00966e-05
2.24073e-05
2.18788e-05
1.88764e-05
1.56607e-05
1.73274e-05
3.99218e-05
0.000164943
0.000214821
0.00023789
0.000248547
0.00025341
0.000255422
0.00025513
0.000249815
0.000234675
0.000203287
0.000176685
0.000151866
0.000151802
0.000189203
0.000181542
0.00014886
0.000108528
3.64743e-05
4.73177e-05
0.000276299
0.000404363
0.000467007
0.000496687
0.000510079
0.000515317
0.000514463
0.000502907
0.000471167
0.000413758
0.000361301
0.000317595
0.000316334
0.000362996
0.000340452
0.000269427
0.000178069
3.93984e-05
5.43846e-05
0.000353687
0.000556289
0.000661727
0.000713363
0.000736935
0.000745765
0.00074414
0.000727382
0.000684046
0.000610163
0.000540668
0.000485872
0.000478754
0.000511444
0.000469647
0.000364591
0.000222657
4.10883e-05
6.11757e-05
0.000418154
0.000684965
0.000830029
0.000902822
0.000936429
0.00094863
0.000946024
0.000925011
0.00087444
0.000791237
0.000711644
0.000649261
0.000631671
0.000639893
0.000576375
0.000441001
0.000252999
4.2817e-05
6.88752e-05
0.000479666
0.000802562
0.000981293
0.00107222
0.00111456
0.00112953
0.00112577
0.00110125
0.00104645
0.000959015
0.000873478
0.000804812
0.00077343
0.000753697
0.000667543
0.000505965
0.000280501
4.44232e-05
7.96233e-05
0.000545161
0.000918687
0.00112296
0.00122747
0.00127645
0.00129332
0.00128821
0.00126076
0.00120357
0.00111527
0.00102606
0.000951215
0.000903863
0.00085647
0.00074782
0.000564251
0.000311401
4.60708e-05
9.61153e-05
0.000631541
0.00104313
0.00126065
0.00137301
0.00142608
0.00144376
0.00143706
0.00140709
0.00134852
0.00126107
0.00116944
0.00108779
0.00102341
0.000950479
0.000820207
0.000617509
0.00034806
4.79405e-05
5.19397e-05
0.000423859
0.000738004
0.000973476
0.00115593
0.00130142
0.00141974
0.00151695
0.00159696
0.0016623
0.00171469
0.00175512
0.00178422
0.00180058
0.00180183
0.00178485
0.00174614
0.00168168
0.00158545
0.0014447
0.00123157
0.000909135
0.000477975
5.54353e-05
0.000464648
0.000821243
0.00109233
0.00130396
0.00147444
0.00161444
0.00173036
0.00182634
0.00190505
0.00196824
0.00201696
0.00205202
0.0020728
0.00207799
0.00206564
0.00203306
0.00197611
0.00188861
0.00176178
0.00158259
0.00134121
0.00105034
5.89857e-05
0.000499425
0.000897316
0.00119956
0.00143333
0.00162339
0.00178101
0.00191254
0.00202216
0.00211257
0.00218561
0.00224256
0.00228409
0.00231035
0.00232112
0.00231569
0.00229218
0.00224649
0.0021735
0.00207123
0.00193522
0.00176868
0.0015946
6.17991e-05
0.000520704
0.000970143
0.00130104
0.00154775
0.00175374
0.00192646
0.00207138
0.00219272
0.00229332
0.00237532
0.00244026
0.00248831
0.00252066
0.00253773
0.00254007
0.00252714
0.00249387
0.00243482
0.00235846
0.00226201
0.00215225
0.00204809
6.55841e-05
0.000546501
0.00103147
0.00137466
0.00163747
0.00186333
0.00205249
0.0022111
0.00234343
0.00245331
0.00254366
0.00261638
0.00267128
0.00270875
0.00273105
0.00274003
0.00273533
0.00271134
0.00266592
0.00261095
0.00254641
0.00247878
0.00241454
6.95615e-05
0.00057816
0.00104654
0.00139844
0.00167793
0.00193658
0.00214883
0.00232566
0.00247201
0.00259265
0.00269197
0.0027716
0.00283276
0.00287604
0.00290443
0.00292056
0.00292339
0.00290822
0.0028767
0.00283967
0.00279985
0.00275785
0.00271658
6.74555e-05
0.000573144
0.00106015
0.00142757
0.00172803
0.00199298
0.00221964
0.00241409
0.00257631
0.00271045
0.00282036
0.00290891
0.00297772
0.00302809
0.00306298
0.00308605
0.00309658
0.00309167
0.00307387
0.0030506
0.00302826
0.00300315
0.00297663
6.99127e-05
0.000571749
0.00106614
0.00146238
0.00178602
0.00205854
0.0022932
0.00249611
0.002669
0.00281455
0.00293518
0.00303331
0.0031107
0.00316923
0.00321234
0.00324428
0.00326359
0.00326891
0.00326353
0.00325329
0.00324141
0.00322638
0.0032103
6.97634e-05
0.000576931
0.00108934
0.00150562
0.00184479
0.0021275
0.00236944
0.00257876
0.0027589
0.00291239
0.00304129
0.00314762
0.0032334
0.00330103
0.00335424
0.00339599
0.00342467
0.00343989
0.00344542
0.00344537
0.00344167
0.00343401
0.00342641
6.97404e-05
0.000590273
0.00111848
0.00154797
0.00189919
0.00219254
0.00244297
0.00265922
0.00284586
0.00300592
0.00314174
0.00325548
0.00334959
0.00342671
0.00348997
0.00354118
0.00357907
0.00360406
0.00361947
0.00362804
0.00363122
0.00362987
0.00362729
6.97936e-05
0.000603748
0.00114428
0.00158513
0.00194771
0.00225191
0.0025116
0.00273552
0.00292896
0.00309556
0.00323812
0.00335918
0.00346145
0.00354761
0.00362002
0.00367977
0.00372645
0.00376082
0.00378517
0.0038014
0.00381075
0.00381464
0.00381533
6.98857e-05
0.000614349
0.00116458
0.00161681
0.00199097
0.00230607
0.00257529
0.00280737
0.00300809
0.00318158
0.00333111
0.00345955
0.00356971
0.00366412
0.00374476
0.00381229
0.00386715
0.00391002
0.00394232
0.00396541
0.00398046
0.0039889
0.00399229
7.01221e-05
0.000621399
0.00118069
0.00164458
0.00203039
0.0023562
0.0026349
0.00287535
0.00308367
0.00326439
0.00342108
0.00355686
0.00367453
0.00377649
0.0038645
0.00393929
0.00400154
0.00405189
0.00409121
0.00412049
0.00414076
0.00415328
0.00415918
6.99675e-05
0.000625271
0.00119465
0.00167024
0.00206731
0.00240345
0.00269142
0.00294023
0.00315628
0.00334436
0.00350828
0.00365125
0.00377605
0.003885
0.00397977
0.00406124
0.00412999
0.00418682
0.00423226
0.00426705
0.00429206
0.0043083
0.00431662
0.00029719
0.000630102
0.00120824
0.00169505
0.00210273
0.00244861
0.00274555
0.0030026
0.00322636
0.00342177
0.0035928
0.00374273
0.00387432
0.00398977
0.00409071
0.00417815
0.00425269
0.00431507
0.0043658
0.00440543
0.00443467
0.0044543
0.00446492
7.03684e-05
0.000632151
0.00122246
0.00171939
0.00213702
0.00249224
0.00279779
0.00306286
0.00329414
0.00349673
0.00367468
0.00383128
0.00396923
0.00409067
0.00419722
0.00428997
0.00436962
0.00443677
0.00449201
0.00453582
0.00456875
0.00459139
0.00460414
7.08812e-05
0.000637621
0.00123667
0.00174319
0.0021703
0.0025345
0.0028484
0.00312123
0.0033598
0.00356931
0.00375385
0.00391671
0.00406054
0.00418744
0.00429903
0.00439645
0.00448051
0.00455176
0.00461083
0.00465818
0.00469427
0.00471952
0.0047342
7.13646e-05
0.000642941
0.00125056
0.0017664
0.00220268
0.00257554
0.0028975
0.00317781
0.00342337
0.00363944
0.00383014
0.00399875
0.00414791
0.00427969
0.00439571
0.00449718
0.00458498
0.00465974
0.00472201
0.00477232
0.00481105
0.00483853
0.00485493
7.18112e-05
0.000648049
0.00126409
0.00178903
0.00223418
0.00261542
0.00294513
0.00323259
0.00348475
0.00370692
0.00390326
0.00407705
0.00423092
0.00436695
0.00448679
0.00459168
0.0046826
0.00476024
0.00482517
0.00487791
0.00491884
0.00494822
0.00496618
7.22206e-05
0.000652974
0.00127726
0.00181106
0.00226482
0.00265411
0.00299123
0.00328545
0.00354375
0.00377149
0.00397288
0.0041512
0.00430912
0.00444873
0.00457173
0.00467943
0.00477285
0.00485281
0.0049199
0.00497464
0.00501741
0.00504847
0.00506792
7.25916e-05
0.000657758
0.00129008
0.00183249
0.00229457
0.00269156
0.00303568
0.00333618
0.00360008
0.00383281
0.00403858
0.00422075
0.00438201
0.00452452
0.00465002
0.00475991
0.00485529
0.00493706
0.00500588
0.00506229
0.00510668
0.00513931
0.0051603
7.29268e-05
0.000662401
0.00130256
0.0018533
0.00232334
0.00272764
0.00307829
0.00338453
0.00365344
0.00389048
0.00409993
0.00428522
0.00444911
0.00459383
0.0047212
0.00483272
0.00492958
0.00501275
0.00508299
0.00514086
0.0051868
0.00522106
0.00524377
7.32319e-05
0.000666859
0.00131465
0.00187343
0.00235107
0.0027622
0.00311884
0.00343023
0.00370348
0.00394411
0.00415652
0.0043442
0.00451001
0.00465628
0.00478495
0.00489761
0.00499556
0.00507986
0.00515136
0.00521069
0.00525827
0.00529439
0.00531918
7.34951e-05
0.00067114
0.00132636
0.00189286
0.00237765
0.00279509
0.00315712
0.00347298
0.00374985
0.00399335
0.00420797
0.00439733
0.0045644
0.00471165
0.00484113
0.00495456
0.00505337
0.00513871
0.00521151
0.00527244
0.00532197
0.00536038
0.0053878
7.37079e-05
0.000675313
0.00133771
0.00191154
0.00240299
0.00282615
0.0031929
0.00351252
0.00379227
0.0040379
0.00425402
0.0044444
0.00461215
0.0047599
0.00488985
0.00500386
0.00510348
0.00518996
0.00526432
0.00532726
0.00537926
0.00542061
0.00545139
7.38846e-05
0.000679415
0.00134871
0.00192943
0.00242697
0.00285519
0.00322595
0.00354859
0.0038305
0.00407755
0.00429452
0.00448535
0.00465334
0.00480128
0.00493154
0.00504613
0.00514673
0.00523471
0.00531111
0.00537671
0.00543195
0.00547709
0.00551215
7.4037e-05
0.000683447
0.00135933
0.00194643
0.00244943
0.00288202
0.00325605
0.00358098
0.00386434
0.00411218
0.00432947
0.00452034
0.00468828
0.00483629
0.00496692
0.00508234
0.00518436
0.00527443
0.00535365
0.00542279
0.00548227
0.00553226
0.0055727
7.41702e-05
0.00068739
0.00136949
0.0019624
0.00247018
0.00290639
0.00328297
0.00360951
0.00389371
0.00414183
0.00435905
0.00454971
0.00471753
0.00486573
0.00499704
0.00511381
0.00521795
0.005311
0.00539407
0.00546789
0.00553281
0.0055889
0.00563595
7.42839e-05
0.000691188
0.00137904
0.0019771
0.00248889
0.00292799
0.00330645
0.00363401
0.00391857
0.00416661
0.00438356
0.004574
0.00474189
0.00489066
0.00502325
0.00514216
0.00524941
0.00534659
0.00543479
0.00551467
0.00558643
0.00565
0.00570499
7.43677e-05
0.000694732
0.00138773
0.00199018
0.00250514
0.00294639
0.00332612
0.00365425
0.0039389
0.00418676
0.0044035
0.00459397
0.00476237
0.00491237
0.00504711
0.00516923
0.00528086
0.00538358
0.00547843
0.00556594
0.00564612
0.00571868
0.00578297
7.43853e-05
0.000697826
0.00139491
0.00200062
0.00251808
0.00296098
0.00334162
0.00367013
0.00395484
0.00420267
0.00441953
0.00461054
0.00478016
0.0049323
0.00507031
0.00519697
0.00531448
0.00542439
0.00552765
0.00562457
0.00571489
0.00579802
0.00587302
7.43525e-05
0.000698548
0.00139883
0.00200742
0.00252693
0.00297113
0.00335256
0.00368154
0.00396658
0.00421481
0.00443238
0.00462468
0.00479646
0.00495188
0.0050945
0.00522726
0.00535238
0.00547138
0.00558502
0.00569332
0.00579566
0.00589105
0.00597813
7.42318e-05
0.000696677
0.00139889
0.00200958
0.00253062
0.00297598
0.00335839
0.0036883
0.00397429
0.00422366
0.0044428
0.00463736
0.00481242
0.00497242
0.00512117
0.00526176
0.00539646
0.00552668
0.00565294
0.00577485
0.00589128
0.0060007
0.00610123
7.39931e-05
0.000692703
0.00139452
0.00200573
0.00252764
0.00297429
0.00335836
0.00369013
0.00397812
0.00422969
0.00445146
0.00464941
0.00482898
0.00499497
0.00515148
0.00530178
0.00544823
0.00559209
0.00573354
0.00587163
0.00600453
0.00612991
0.00624522
7.36061e-05
0.000686497
0.00138423
0.00199344
0.00251552
0.0029642
0.00335137
0.00368664
0.00397815
0.00423329
0.00445892
0.00466145
0.00484677
0.00502014
0.00518604
0.00534806
0.00550865
0.00566893
0.00582864
0.00598604
0.00613823
0.00628177
0.00641317
7.2997e-05
0.000676301
0.00136406
0.00196793
0.00249021
0.00294298
0.00333599
0.0036773
0.00397442
0.00423475
0.00446554
0.00467377
0.00486596
0.00504797
0.00522484
0.0054006
0.00557794
0.00575793
0.00593971
0.00612043
0.00629556
0.00645991
0.00660864
7.20131e-05
0.000657616
0.00132508
0.00192019
0.00244513
0.00290684
0.00331048
0.00366161
0.003967
0.00423429
0.00447146
0.00468632
0.00488621
0.00507783
0.00526699
0.00545841
0.00565532
0.00585893
0.00606778
0.00627738
0.00648052
0.00666904
0.0068361
7.04425e-05
0.000619136
0.00124825
0.00183426
0.00237058
0.00285117
0.00327325
0.00363939
0.00395614
0.00423214
0.00447663
0.00469865
0.00490665
0.00510837
0.00531065
0.00551932
0.00573862
0.00597046
0.0062131
0.00645984
0.00669878
0.00691593
0.00710156
0.000297444
0.000528263
0.00109498
0.00168553
0.00225503
0.00277222
0.00322404
0.0036114
0.00394259
0.00422862
0.00448086
0.00471002
0.00492592
0.00513751
0.00535296
0.00557963
0.00582363
0.00608876
0.00637429
0.00667137
0.00695966
0.00721124
0.0074133
8.9734e-05
0.000318843
0.000816837
0.00145058
0.00209245
0.00267153
0.00316608
0.0035803
0.00392791
0.00422433
0.00448396
0.00471954
0.00494237
0.00516269
0.00539014
0.00563403
0.00590336
0.00620596
0.0065457
0.00691525
0.00728121
0.00757292
0.00778231
0.000191843
0.000143739
0.000462962
0.00114679
0.00190021
0.0025638
0.00310907
0.00355155
0.00391476
0.00422023
0.00448582
0.00472632
0.00495434
0.00518125
0.005418
0.00567593
0.00596758
0.00630734
0.00671095
0.00718826
0.00770648
0.00803166
0.00822084
0.00041326
0.000141719
0.000229336
0.00088246
0.00174317
0.00248466
0.00307061
0.00353323
0.00390661
0.00421757
0.00448658
0.00472977
0.00496059
0.00519105
0.00543291
0.00569884
0.00600413
0.00636978
0.00682941
0.00744676
0.00836311
0.00863356
0.00873373
9.0985e-05
8.44991e-05
8.41804e-05
8.93133e-05
0.00082458
0.000784354
0.000779529
0.000809906
0.00149593
0.00146259
0.00145688
0.00147932
0.00199458
0.00197307
0.00196673
0.00197667
0.00237943
0.00236482
0.00235961
0.00236445
0.00269477
0.00268669
0.00268436
0.00268704
0.00296665
0.00296363
0.00296172
0.00296107
0.00320557
0.00320341
0.00320187
0.00320095
0.00342446
0.00342319
0.00342157
0.00341969
0.00362602
0.00362483
0.00362312
0.00362075
0.00381425
0.00381289
0.00381093
0.00380817
0.00399155
0.0039901
0.00398786
0.00398467
0.00415901
0.00415761
0.00415519
0.00415161
0.00431718
0.00431597
0.0043135
0.00430963
0.0044663
0.00446538
0.00446295
0.00445891
0.00460638
0.00460579
0.0046035
0.0045994
0.00473729
0.00473708
0.004735
0.00473093
0.00485887
0.00485908
0.00485727
0.00485335
0.00497099
0.00497167
0.00497023
0.00496658
0.00507366
0.0050749
0.00507394
0.00507072
0.00516712
0.00516903
0.00516873
0.00516612
0.0052519
0.00525469
0.00525524
0.00525349
0.00532898
0.00533288
0.00533457
0.00533395
0.00539974
0.00540509
0.00540824
0.00540912
0.00546606
0.00547324
0.00547826
0.00548104
0.00553026
0.00553973
0.00554708
0.00555221
0.00559504
0.00560731
0.00561748
0.00562546
0.00566338
0.00567899
0.0056925
0.00570382
0.00573841
0.0057579
0.00577528
0.00579042
0.00582328
0.00584719
0.00586892
0.00588835
0.00592107
0.00594987
0.0059764
0.00600049
0.0060347
0.00606883
0.00610049
0.00612951
0.00616698
0.00620675
0.00624377
0.00627787
0.00632065
0.00636625
0.00640868
0.00644781
0.00649857
0.00654998
0.00659765
0.00664148
0.00670391
0.00676081
0.00681319
0.00686103
0.00694049
0.00700206
0.00705808
0.0071087
0.00721308
0.00727762
0.00733535
0.00738671
0.00752752
0.00759185
0.00764803
0.00769694
0.00789022
0.00794872
0.00799816
0.00804002
0.00830567
0.00834929
0.00838464
0.00841358
0.00876938
0.00878635
0.00879941
0.00880972
0.000438743
0.000910804
0.00126143
0.00147183
0.00158804
0.00164466
0.00166272
0.00165333
0.00161986
0.00156087
0.00147543
0.00138068
0.00128728
0.00119566
0.00108566
0.000923347
0.000694971
0.000405864
5.16757e-05
0.00103142
0.00134062
0.00159053
0.00175968
0.00186079
0.00191114
0.00192452
0.0019098
0.00187117
0.00180835
0.00172168
0.00161986
0.00150895
0.00138594
0.00123604
0.0010379
0.000779471
0.000455184
5.75168e-05
0.00157219
0.0017509
0.00191673
0.00204075
0.00211899
0.00215678
0.0021618
0.00214017
0.00209458
0.00202652
0.00193605
0.0018263
0.00169862
0.00154888
0.00136634
0.00113731
0.000849387
0.000488284
6.22853e-05
0.00201884
0.00211913
0.00222356
0.002308
0.00236276
0.00238515
0.00237929
0.00234975
0.00229723
0.00222224
0.00212531
0.00200628
0.00186283
0.00169038
0.00148017
0.0012217
0.000901847
0.000502651
6.70442e-05
0.00238618
0.00244324
0.00250478
0.00255744
0.00259181
0.00259896
0.00258094
0.00254324
0.00248403
0.00240112
0.00229512
0.00216504
0.00200795
0.00181529
0.00157974
0.00129364
0.000942578
0.00051192
6.88632e-05
0.00269788
0.00272955
0.00276206
0.00278768
0.00280015
0.00279273
0.00276562
0.00272042
0.0026534
0.00256177
0.00244367
0.00229932
0.0021273
0.0019189
0.00166979
0.00136579
0.000990097
0.00053224
6.98901e-05
0.00296468
0.00297972
0.00299445
0.00300187
0.00299526
0.00297286
0.00293405
0.00287813
0.00280021
0.0026979
0.00256906
0.00241206
0.00222588
0.00200642
0.00174733
0.00143394
0.00104653
0.000563633
7.20038e-05
0.00320105
0.00320388
0.00320358
0.00319491
0.00317245
0.00313551
0.00308477
0.00301665
0.00292574
0.00281098
0.00267171
0.00250523
0.00230575
0.00207466
0.00180419
0.00148185
0.00108899
0.000596098
7.42272e-05
0.0034165
0.00341019
0.00339786
0.00337544
0.00333941
0.00328946
0.00322633
0.00314461
0.0030389
0.00290889
0.00275462
0.00257387
0.00236288
0.00211876
0.00183444
0.0015015
0.0011015
0.000601281
7.46779e-05
0.00361568
0.0036033
0.00358259
0.00355013
0.00350315
0.00344122
0.00336484
0.00326831
0.00314712
0.00300047
0.00282753
0.00262672
0.00239765
0.0021369
0.0018381
0.0014916
0.0010842
0.000585537
7.2846e-05
0.00380192
0.00378547
0.00375865
0.00371845
0.00366238
0.00358977
0.00350056
0.00339012
0.00325433
0.0030915
0.00289973
0.002677
0.00242335
0.00213721
0.00181604
0.00145515
0.00104238
0.00055325
6.99853e-05
0.00397739
0.00395782
0.00392611
0.00387953
0.00381583
0.00373414
0.00363388
0.00351137
0.00336267
0.00318539
0.00297682
0.00273411
0.00245596
0.00214152
0.00179104
0.00140645
0.000984697
0.000514214
6.97462e-05
0.00414341
0.00412114
0.00408534
0.00403345
0.00396343
0.00387433
0.00376507
0.00363258
0.00347317
0.00328385
0.00306138
0.00280259
0.00250519
0.00216779
0.00179102
0.0013803
0.00094387
0.000488826
0.000294813
0.00430063
0.00427599
0.00423678
0.00418062
0.0041056
0.00401064
0.00389431
0.00375388
0.00358597
0.00338726
0.00315435
0.00288402
0.00257362
0.00222148
0.00182785
0.00139761
0.000941808
0.000476333
6.88981e-05
0.00444928
0.00442267
0.00438069
0.00432122
0.00424244
0.00414303
0.00402139
0.00387501
0.00370073
0.00349524
0.00325516
0.00297726
0.00265878
0.00229786
0.00189419
0.00145059
0.000976802
0.00049494
0.000294439
0.00458935
0.00456123
0.00451714
0.00445521
0.00437372
0.00427118
0.00414585
0.00399535
0.00381674
0.00360681
0.00336221
0.00307963
0.00275606
0.002389
0.00197691
0.00152004
0.00102371
0.000508896
6.98561e-05
0.00472069
0.00469159
0.00464605
0.00458247
0.00449923
0.00439473
0.00426715
0.0041142
0.00393309
0.00372068
0.00347363
0.0031884
0.00286142
0.00248915
0.0020683
0.00159664
0.00107672
0.00052908
7.23444e-05
0.00484316
0.00481362
0.00476734
0.00470291
0.00461881
0.00451341
0.00438486
0.00423091
0.00404886
0.00383561
0.00358772
0.00330134
0.00297217
0.00259537
0.00216555
0.00167762
0.00113134
0.000549887
7.55443e-05
0.00495671
0.00492729
0.00488098
0.0048165
0.00473241
0.0046271
0.00449871
0.00434499
0.00416331
0.00395056
0.00370314
0.00341686
0.00308668
0.00270651
0.00226889
0.00176565
0.00119285
0.000574933
7.90743e-05
0.00506148
0.00503277
0.00498715
0.00492342
0.00484021
0.00473591
0.00460865
0.00445623
0.00427598
0.00406477
0.00381886
0.00353372
0.00320372
0.00282178
0.00237888
0.00186447
0.00127103
0.00061913
8.32167e-05
0.00515786
0.00513053
0.00508634
0.00502418
0.00494267
0.00484024
0.004715
0.00456473
0.00438675
0.00417788
0.00393421
0.00365096
0.00332204
0.00293969
0.00249386
0.00197241
0.00136454
0.000680887
8.77702e-05
0.00524665
0.0052214
0.00517945
0.00511966
0.00504069
0.00494093
0.00481847
0.00467106
0.00449598
0.00428995
0.00404895
0.00376792
0.00344042
0.00305808
0.00261002
0.00208246
0.00146147
0.000747312
9.24548e-05
0.00532906
0.00530669
0.0052678
0.00521123
0.0051356
0.00503926
0.00492025
0.00477627
0.00460452
0.00440162
0.00416338
0.0038845
0.0035581
0.00317514
0.00272369
0.00218715
0.00154867
0.000801177
9.74443e-05
0.00540677
0.00538817
0.00535323
0.00530073
0.00522923
0.00513701
0.00502204
0.00488194
0.00471381
0.00451413
0.0042785
0.00400134
0.0036753
0.0032903
0.00283363
0.00228727
0.00162933
0.000846168
0.000101982
0.00548194
0.00546806
0.00543799
0.00539042
0.00532382
0.00523638
0.00512599
0.00499013
0.0048258
0.0046293
0.00439596
0.00411991
0.0037934
0.0034059
0.00294315
0.00238537
0.001707
0.000888984
0.000105543
0.0055571
0.00554896
0.00552471
0.00548292
0.00542196
0.00533992
0.00523457
0.00510326
0.00494285
0.00474945
0.00451818
0.00424283
0.00391519
0.00352411
0.00305417
0.00248382
0.00178448
0.000932311
0.000108387
0.00563513
0.00563377
0.00561625
0.00558106
0.00552644
0.00545037
0.00535051
0.00522409
0.00506776
0.00487741
0.00464793
0.00437273
0.00404314
0.00364737
0.00316901
0.00258491
0.00186369
0.000976954
0.000111331
0.00571909
0.0057255
0.00571559
0.00568773
0.00564008
0.00557052
0.00547658
0.00535535
0.00520326
0.00501596
0.00478799
0.00451239
0.00417998
0.00377836
0.00329019
0.00269083
0.00194622
0.00102335
0.000114911
0.00581206
0.00582715
0.00582561
0.00580571
0.00576555
0.00570295
0.00561533
0.00549961
0.00535198
0.0051678
0.0049412
0.00466474
0.00432869
0.00391999
0.00342041
0.00280391
0.00203383
0.00107247
0.000119254
0.00591703
0.00594155
0.00594894
0.00593747
0.0059052
0.00584993
0.005769
0.00565914
0.00551631
0.00533548
0.0051103
0.00483272
0.00449235
0.00407535
0.0035626
0.00292672
0.00212854
0.00112571
0.000124241
0.00603675
0.00607122
0.0060879
0.00608508
0.00606093
0.00601325
0.00593933
0.00583577
0.00569825
0.00552126
0.00529788
0.00501928
0.0046742
0.00424784
0.00372004
0.00306211
0.00223258
0.00118451
0.000129759
0.00617372
0.00621834
0.00624432
0.00625014
0.00623411
0.00619415
0.00612757
0.00603084
0.00589933
0.00572705
0.00550631
0.00522733
0.00487765
0.00444118
0.00389646
0.00321339
0.00234837
0.00125009
0.000135881
0.0063301
0.00638469
0.00641962
0.0064337
0.00642555
0.00639329
0.00633433
0.00624506
0.00612056
0.00595429
0.00573767
0.00545969
0.00510631
0.00465964
0.00409635
0.00338461
0.00247875
0.00132348
0.000142996
0.00650781
0.00657166
0.0066147
0.00663629
0.00663547
0.00661072
0.00655961
0.00647854
0.00636234
0.00620389
0.00599366
0.0057191
0.00536411
0.0049082
0.00432531
0.00358106
0.00262761
0.00140636
0.000151455
0.00670854
0.00678029
0.00683005
0.00685792
0.00686356
0.00684589
0.00680278
0.00673071
0.00662437
0.00647614
0.00627546
0.00600806
0.0056552
0.00519282
0.00459057
0.00381008
0.00280068
0.00150179
0.000161375
0.00693379
0.00701128
0.00706571
0.00709813
0.00710897
0.00709771
0.0070626
0.00700034
0.00690563
0.00677051
0.00658352
0.00632861
0.00598392
0.00552057
0.00490177
0.00408224
0.00300661
0.00161408
0.000172934
0.00718491
0.00726497
0.00732126
0.00735599
0.00737041
0.0073646
0.00733729
0.00728554
0.00720426
0.00708548
0.00691719
0.00668184
0.00635429
0.00589968
0.00527179
0.00441338
0.00325931
0.00174975
0.000186591
0.00746291
0.0075412
0.0075958
0.00763012
0.00764619
0.00764463
0.00762466
0.00758384
0.0075176
0.00741838
0.00727433
0.00706717
0.00676911
0.00633886
0.00571756
0.00482796
0.00358325
0.00192097
0.000203102
0.00776813
0.00783909
0.00788786
0.00791877
0.00793434
0.0079356
0.00792222
0.00789234
0.00784219
0.00776524
0.00765076
0.00748124
0.00722819
0.00684544
0.00625995
0.00536406
0.00402472
0.0021543
0.000224026
0.00809951
0.0081567
0.00819529
0.00821979
0.00823275
0.00823531
0.00822746
0.00820796
0.00817409
0.00812093
0.00804
0.00791673
0.0077256
0.00742089
0.0069201
0.00607887
0.00467653
0.0025203
0.000252217
0.00845359
0.00849067
0.00851523
0.00853083
0.00853938
0.00854178
0.00853815
0.00852784
0.0085093
0.00847959
0.0084335
0.00836163
0.00824631
0.00805249
0.00770644
0.00704671
0.00573146
0.00324063
0.000291174
0.00882361
0.00883611
0.00884431
0.00884954
0.0088525
0.00885352
0.00885268
0.00884979
0.00884441
0.00883564
0.00882188
0.00880013
0.00876451
0.00870229
0.00858205
0.00831179
0.00757159
0.0052005
0.000343758
)
;

boundaryField
{
    leftWall
    {
        type            nutkWallFunction;
        Cmu             0.09;
        kappa           0.41;
        E               9.8;
        value           nonuniform List<scalar> 
50
(
2.22848e-06
3.4464e-06
4.14867e-06
4.65855e-06
5.05798e-06
5.38997e-06
5.67836e-06
5.93652e-06
6.29412e-06
6.71418e-06
7.14085e-06
4.6949e-06
5.23956e-06
4.32893e-06
6.14662e-08
6.99656e-09
0
0
0
9.78146e-09
1.9974e-08
1.6775e-08
1.93624e-08
8.13551e-08
1.68153e-07
2.48424e-07
3.22441e-07
3.90162e-07
4.51424e-07
5.06691e-07
5.56886e-07
5.97817e-07
6.31863e-07
6.60672e-07
6.85448e-07
7.07017e-07
7.25341e-07
7.38674e-07
7.40979e-07
7.3487e-07
7.14401e-07
6.74494e-07
6.10074e-07
5.08835e-07
3.45241e-07
8.34523e-08
2.25527e-08
3.23507e-06
1.86476e-05
4.8745e-05
)
;
    }
    rightWall
    {
        type            nutkWallFunction;
        Cmu             0.09;
        kappa           0.41;
        E               9.8;
        value           nonuniform List<scalar> 
50
(
3.44392e-06
4.39517e-06
4.76223e-06
4.9734e-06
5.18693e-06
5.3835e-06
5.58392e-06
5.81042e-06
6.25582e-06
6.95611e-06
7.5318e-06
5.33486e-06
5.40286e-06
3.9715e-06
6.60072e-07
7.39443e-07
8.03495e-07
4.90404e-07
1.16951e-08
0
1.67705e-09
0
6.76131e-11
2.07939e-09
4.11541e-07
9.38933e-07
1.58045e-06
2.32707e-06
3.06003e-06
3.80945e-06
4.60132e-06
5.29069e-06
5.74807e-06
6.195e-06
6.65523e-06
7.23206e-06
7.90438e-06
8.66889e-06
9.49193e-06
1.04099e-05
1.14925e-05
1.27691e-05
1.42372e-05
1.59321e-05
1.79129e-05
2.02759e-05
2.32427e-05
2.71826e-05
3.25324e-05
3.96067e-05
)
;
    }
    lowerWall
    {
        type            nutkWallFunction;
        Cmu             0.09;
        kappa           0.41;
        E               9.8;
        value           nonuniform List<scalar> 
62
(
7.36929e-07
1.51044e-06
1.93922e-06
2.21981e-06
2.42582e-06
2.58631e-06
2.71611e-06
2.82331e-06
2.91276e-06
2.98802e-06
3.05411e-06
3.11211e-06
3.16363e-06
3.20632e-06
3.23069e-06
3.21561e-06
3.11538e-06
2.92722e-06
2.72421e-06
2.55723e-06
2.3718e-06
2.06154e-06
1.19332e-06
1.19332e-06
4.80952e-06
5.70527e-06
6.4437e-06
7.13487e-06
7.88961e-06
8.84802e-06
1.03935e-05
1.08306e-05
1.0091e-05
1.00593e-05
1.06522e-05
1.12215e-06
4.82558e-06
5.73244e-06
6.58539e-06
7.39316e-06
8.29338e-06
9.53055e-06
1.1408e-05
1.12215e-06
2.25711e-06
2.68722e-06
2.87503e-06
2.97324e-06
3.02415e-06
3.06528e-06
3.10668e-06
3.11692e-06
3.00331e-06
2.77687e-06
2.49851e-06
2.20691e-06
2.26105e-06
2.57311e-06
2.50104e-06
2.09292e-06
1.64668e-06
1.17428e-06
)
;
    }
    atmosphere
    {
        type            calculated;
        value           nonuniform List<scalar> 
46
(
0.009
0.000141719
0.000229336
0.00088246
0.00174317
0.00248466
0.00307061
0.00353323
0.00390661
0.00421757
0.00448658
0.00472977
0.00496059
0.00519105
0.00543291
0.00569884
0.00600413
0.00636978
0.00682941
0.00744676
0.009
0.009
0.009
0.009
0.009
0.009
0.009
0.009
0.009
0.009
0.009
0.009
0.009
0.009
0.009
0.009
0.009
0.009
0.009
0.009
0.009
0.009
0.009
0.009
0.009
0.000343758
)
;
    }
    defaultFaces
    {
        type            empty;
    }
}


// ************************************************************************* //
