/*--------------------------------*- C++ -*----------------------------------*\
  =========                 |
  \\      /  F ield         | OpenFOAM: The Open Source CFD Toolbox
   \\    /   O peration     | Website:  https://openfoam.org
    \\  /    A nd           | Version:  9
     \\/     M anipulation  |
\*---------------------------------------------------------------------------*/
FoamFile
{
    format      ascii;
    class       volScalarField;
    location    "32.85";
    object      p;
}
// * * * * * * * * * * * * * * * * * * * * * * * * * * * * * * * * * * * * * //

dimensions      [0 2 -2 0 0 0 0];

internalField   nonuniform List<scalar> 
918
(
23.4688
23.5756
0.953059
22.8862
1.01746
23.092
3.27209
13.7846
19.242
2.93406
2.62534
14.4081
20.635
16.8764
12.9926
0.924845
14.0516
2.24612
18.4597
1.39831
12.9918
20.4475
21.5362
19.2838
14.1209
14.3716
18.5973
1.14521
0.107783
0.254983
0.97934
0.411023
0.1475
21.6289
22.3056
22.2439
15.4946
10.4022
3.59729
3.80185
2.98256
2.80555
13.8273
13.9272
5.86682
13.7635
13.7592
16.6435
19.1101
19.2537
19.5469
19.3359
19.7223
5.97371
2.78523
2.60521
2.8761
2.9505
2.98292
2.69769
2.67924
2.48299
2.33705
13.8875
14.4812
14.5363
14.2675
14.2152
22.4516
21.6947
22.0294
21.1358
21.2812
20.2111
19.8255
17.2521
17.6045
16.4783
16.0975
12.783
12.7441
13.2125
13.4623
0.1455
1.07587
1.22301
14.0586
14.0951
14.0951
14.1096
8.28245
2.18797
2.19072
17.9001
17.4765
20.4814
20.7486
20.1957
20.0101
1.53017
1.52615
1.15082
1.18151
0.950714
13.3331
13.4873
19.2352
18.4021
14.1545
14.0545
14.1295
11.4996
13.9098
13.9831
15.3211
15.7767
14.9659
15.4024
18.1673
17.7493
19.0339
19.4711
0.39314
0.154549
0.687481
0.318218
0.516555
15.3629
15.1575
15.6105
15.6613
15.8925
10.407
10.3376
10.381
10.3009
4.14916
4.46377
2.25492
2.56949
2.42037
9.86557
13.9435
13.9903
4.81072
5.51508
5.17839
6.34956
6.72395
16.0092
16.4458
16.1846
17.7309
16.9358
17.284
19.8131
19.3023
19.6027
6.36823
6.60263
5.60787
5.24916
2.23818
2.48774
2.42979
2.98188
2.95991
3.21762
3.34601
2.69836
2.55498
2.89332
2.77672
2.82882
2.1663
2.03647
13.6115
13.3976
14.1505
14.329
15.0963
14.9479
14.6545
14.8233
19.0206
19.4241
19.4576
19.0734
11.5447
10.1552
13.7168
13.9923
0.302153
0.264628
0.138293
0.380817
0.400792
0.142755
2.01552
1.82699
1.40538
1.68071
14.0562
14.016
8.52305
8.74267
8.11892
7.86276
16.3142
16.4644
17.0986
16.6984
1.96283
1.67658
1.80643
13.6503
13.5228
13.6296
10.9347
10.3681
11.9773
12.2471
13.9912
14.035
14.031
15.6808
15.9992
19.822
20.0926
19.9195
20.3053
21.3681
21.0194
20.6346
14.5388
14.9472
14.7856
16.1279
15.7615
15.981
15.1889
15.4935
15.3515
10.3693
10.4156
10.1192
10.197
10.2456
10.1926
9.80279
9.67582
14.0769
14.0319
14.056
7.25203
7.75008
4.86895
4.54015
12.5434
13.2166
12.8922
18.6503
17.9727
18.7057
18.3348
17.8848
18.2083
10.4264
10.3881
10.4214
14.9167
14.2545
14.6065
2.44106
2.07686
2.23996
8.93864
9.03205
6.97068
7.58728
7.25039
16.3009
16.6412
17.3214
16.4331
16.9008
17.4081
17.1862
9.93882
10.0716
9.98852
9.65924
9.55279
9.73482
8.33534
8.94866
3.61259
4.26901
3.965
9.20003
9.42999
9.27725
18.6298
19.1646
0.765806
1.15316
19.5947
19.3183
0.138986
0.241848
14.2531
12.5507
7.26228
17.197
16.6296
18.9694
3.19233
6.1024
2.81011
3.38063
2.68635
14.6152
14.2492
13.3403
0.452905
1.25636
1.70963
2.89589
18.4102
17.735
18.8512
19.1713
19.2256
0.687526
0.912796
0.584147
1.24269
1.0313
1.2763
15.5507
15.6488
4.32328
18.8581
19.1624
19.1802
17.6569
18.6096
17.6671
0.935396
0.642337
0.707294
10.0803
12.1212
14.2133
13.7659
13.9629
13.985
13.7359
14.8692
14.5387
14.5036
14.9885
13.966
13.8207
7.73408
6.38297
8.06854
7.7089
17.0984
16.6863
16.4931
16.2388
18.0846
17.6107
18.461
17.8495
18.3113
18.5981
2.94336
3.13306
3.01184
2.52046
6.14318
6.60582
5.48798
5.63344
4.25922
2.42912
2.5276
2.75366
2.58438
2.93133
2.67893
2.9429
2.57924
2.32358
2.32176
2.93108
2.73896
2.60452
14.5936
14.5321
14.333
14.371
14.3534
14.4691
13.5348
13.9395
13.5673
12.3983
12.9795
12.5068
0.825495
0.663087
0.524877
1.32384
1.3509
1.11108
0.834712
1.17385
1.20201
0.814454
1.54565
1.44548
3.15532
2.64381
8.83991
7.96764
6.90095
16.8002
17.602
16.7717
18.0124
18.4294
18.5348
18.1552
17.647
15.7295
15.7246
15.3847
15.3382
4.77066
3.73132
4.96673
4.53581
10.4775
14.065
11.8423
10.8035
11.0998
13.4239
13.9285
13.5808
13.7178
13.2929
12.821
13.5129
13.0467
13.148
12.927
15.7174
16.1926
15.7991
15.2196
15.2396
10.5985
12.0152
5.46524
5.63924
7.24381
6.53763
13.5094
13.9324
13.9172
13.5556
13.7434
13.7445
13.6053
13.7795
13.8593
13.7539
11.8242
10.1436
9.04488
9.03846
14.0764
12.3458
12.93
12.4134
16.1202
16.6366
16.2513
15.6457
16.1308
15.6026
15.6299
15.843
17.2012
16.9508
16.7205
17.1074
3.0548
3.00354
3.64713
3.13316
3.03634
2.81936
3.48365
4.75815
4.41588
6.71819
7.26891
4.5799
3.37255
3.79277
4.80782
5.54119
5.51099
3.96924
4.50103
4.93002
4.44051
5.22413
4.72866
2.71794
3.02533
2.86346
2.8372
3.38185
3.88018
3.37574
2.48073
2.59281
2.25705
2.11931
3.53625
2.99623
3.03308
3.67881
1.10644
1.3287
1.44102
2.41406
1.91323
1.97903
15.1822
14.8263
14.9599
14.2392
14.3066
14.2477
13.8722
15.2397
14.9617
15.0611
13.7096
13.7963
13.6096
13.9049
14.3209
14.6202
15.452
15.1731
14.4122
14.5632
14.2141
14.1424
13.4643
12.9014
12.8408
1.11244
0.824584
0.984123
0.910987
0.606211
0.798568
2.18323
1.57281
1.97059
1.72641
1.95972
1.40373
1.30243
4.25295
5.06384
3.96354
3.365
3.06195
8.89834
9.00985
8.15853
7.85654
8.19808
8.42675
8.37648
7.13434
7.56137
7.37441
9.91523
9.57954
17.5864
17.5305
17.2017
17.0428
17.2693
5.76219
7.66503
6.79888
7.91503
10.2064
10.502
9.31065
8.70482
9.45613
9.53407
14.0467
14.1228
13.5637
14.0496
14.0781
11.8348
12.882
13.4969
13.3114
13.8312
13.9121
12.9731
13.5618
13.4771
12.7598
12.8127
12.1275
12.4661
11.9942
11.7932
14.0558
13.9505
14.2202
13.7711
14.1504
13.7147
14.0299
14.0279
14.3085
13.4105
12.8318
12.8502
13.2765
12.9766
13.3225
13.4866
9.30825
9.94834
10.387
10.9228
10.63
10.4121
10.2793
10.581
10.5579
10.8292
10.7485
10.5994
11.5603
13.4156
13.7006
13.802
13.5991
13.6453
13.3379
13.6107
13.54
13.9193
14.0072
14.0569
13.1376
13.2936
13.4884
13.3721
11.6749
10.0967
9.94895
9.50896
7.57657
8.04627
11.0252
9.90201
8.91722
8.98917
12.1683
10.8057
11.619
12.0422
10.6938
10.3057
12.9709
13.759
13.9789
13.7031
12.0599
12.1857
12.6354
13.0786
13.2679
13.7236
15.86
16.4356
16.5135
16.2376
16.0996
16.1994
15.9495
16.0526
16.5267
16.6532
16.4845
2.88023
2.9939
2.9239
2.84925
3.08571
2.86128
3.95639
3.9473
3.1567
3.33696
3.35688
3.46232
2.93135
2.97444
4.82636
5.062
5.33367
4.83216
6.17534
6.81626
7.39757
7.08313
5.78972
5.86902
6.18431
3.50751
3.53341
3.25174
3.70929
3.76196
2.61174
2.23921
2.04433
2.56545
2.66663
2.05148
1.76857
1.81777
2.33217
2.051
1.80499
14.9747
14.733
14.7544
14.5342
14.5888
14.9837
15.2045
15.0146
15.153
15.204
14.8031
14.692
14.8631
1.8187
1.49353
1.62277
1.581
1.64351
1.54989
1.73808
7.60554
6.41563
6.80309
5.9785
4.12049
4.6414
9.53861
9.96004
9.99851
9.70967
9.49961
9.86538
9.71616
9.7089
8.26315
9.33184
8.86776
9.26056
9.28196
9.34968
9.06433
9.08051
10.5842
10.6177
9.48274
10.1224
9.3311
7.9319
8.0989
9.11257
10.0862
10.4043
10.2495
9.97955
9.75094
10.114
10.1687
10.2288
10.218
8.75153
8.71143
8.31088
13.9684
13.8749
14.0215
14.0266
14.1535
13.9785
13.8155
14.0927
14.147
13.9313
11.0773
11.1362
11.382
12.1287
12.1807
12.0916
11.3363
13.1004
12.756
13.3939
13.3407
13.4131
13.0034
12.8266
13.0969
10.0805
11.4535
10.9864
11.2496
10.063
9.30655
13.2231
13.2773
13.3426
13.6156
13.5736
14.157
15.8299
15.6998
15.7471
15.7902
15.4018
15.4391
4.17548
3.82937
4.55099
4.5065
4.06466
3.76473
2.28666
1.96877
1.78091
1.65614
1.88946
1.95057
8.16234
8.1894
6.33381
7.35533
5.8761
4.93433
4.78973
5.95544
7.1367
7.19557
8.51316
9.18924
8.74839
8.57364
7.91798
8.24755
10.1158
10.2102
10.1107
10.4296
9.96236
11.712
11.2942
11.6431
13.257
12.9667
12.3686
12.2552
12.22
12.813
11.9473
11.179
11.8915
12.5469
12.5051
11.1177
10.8727
11.2994
11.2834
10.1976
10.7177
10.4797
10.8322
10.5475
)
;

boundaryField
{
    wall-4
    {
        type            zeroGradient;
    }
    velocity-inlet-5
    {
        type            zeroGradient;
    }
    velocity-inlet-6
    {
        type            zeroGradient;
    }
    pressure-outlet-7
    {
        type            fixedValue;
        value           uniform 0;
    }
    wall-8
    {
        type            zeroGradient;
    }
    frontAndBackPlanes
    {
        type            empty;
    }
}


// ************************************************************************* //
