/*--------------------------------*- C++ -*----------------------------------*\
  =========                 |
  \\      /  F ield         | OpenFOAM: The Open Source CFD Toolbox
   \\    /   O peration     | Website:  https://openfoam.org
    \\  /    A nd           | Version:  9
     \\/     M anipulation  |
\*---------------------------------------------------------------------------*/
FoamFile
{
    format      ascii;
    class       surfaceScalarField;
    location    "13.1";
    object      phi;
}
// * * * * * * * * * * * * * * * * * * * * * * * * * * * * * * * * * * * * * //

dimensions      [0 3 -1 0 0 0 0];

internalField   nonuniform List<scalar> 
1300
(
11.2529
1.87548
-4.37855
11.2529
-4.87348
1.87548
-4.18781
4.18781
-1.20829
1.20829
5.71233
5.54053
-2.40027
2.40027
-2.885
2.885
-2.8656
2.8656
-1.06194
1.06194
-1.02829
1.02829
0.698453
-0.698454
-3.33792
3.33792
-1.47029
1.47029
-2.90632
2.90632
6.12822
-6.12822
-3.36284
3.36284
-0.756721
0.756721
-4.26325
15.5161
6.9896
6.9896
-2.38
2.38
-1.25478
1.25478
1.41034
-1.41034
9.42784
-9.42784
-5.04929
-6.06611
1.86459
-13.7048
-3.00889
-3.00889
-2.7054
2.7054
-0.829928
1.04555
3.47541
-3.47541
-0.772392
0.772392
-4.26326
0.0754467
-4.26326
3.98413
0.203689
3.98413
-1.35012
0.141833
-1.35012
4.61169
-4.61169
1.09673
0.111561
1.09673
3.92767
-3.92767
-5.71003
11.4224
5.54283
-5.3206
20.8367
-5.93226
11.4728
-3.91617
3.91617
-2.31071
-0.0895687
-2.31071
2.413
-0.012725
2.413
-3.95726
3.95726
-2.66547
-0.219526
-2.66547
2.99853
-0.113537
2.99853
3.66082
-3.66082
-2.92029
0.0546872
-2.92029
2.71476
0.150847
2.71476
0.771042
1.10443
-2.64652
3.69207
-1.10443
0.0424987
1.02614
0.0357985
1.02614
-1.01454
-0.0137477
-1.01454
1.04994
-0.0216467
1.04994
0.739121
-0.0406678
0.739121
-0.757354
0.0589003
-0.757354
-8.52331
-8.90434
-3.46724
0.129319
-3.46724
-1.48575
0.0154618
-1.48575
1.50926
-0.0389763
1.50926
-2.56497
2.56497
-3.23451
0.32819
-3.23451
4.8066
1.32162
4.8066
5.04614
6.20672
16.299
-16.299
10.1708
-3.07244
-0.290394
-3.07244
-3.54835
-5.87949
3.54835
-0.185513
-0.821146
0.0644253
-0.821146
5.62645
1.36316
5.62645
2.59405
0.120707
-2.59405
0.214048
4.60553
-4.60553
1.42887
0.951134
1.42887
-1.19127
1.19127
1.12368
-0.0737438
-1.12368
-0.131098
1.386
0.0243354
1.386
-1.40975
-0.000595265
-1.40975
7.45176
-13.5179
-7.90132
3.1498
0.188122
-3.1498
0.140907
3.56146
-0.0860518
3.56146
-3.31107
3.31107
-3.60996
0.134547
-3.60996
-0.695272
-0.0771209
-0.695272
0.85957
-0.0871776
0.85957
-4.50502
0.241761
-4.50502
-3.6619
0.427397
3.6619
0.322222
1.27757
-1.27757
-1.45644
0.106323
-1.45644
-4.5893
0.0842749
4.5893
0.0223951
-4.71211
0.100417
-4.71211
-3.71183
0.101876
3.71183
0.215838
4.58908
1.03737
-4.58908
0.66141
-5.36952
11.5762
-5.88334
11.4262
-3.54687
-0.369296
-3.54687
4.09382
-0.177658
4.09382
2.58072
0.325594
-2.58072
0.270017
2.54859
-0.135585
2.54859
-3.91497
-0.0422953
-3.91497
3.75546
0.201807
3.75546
2.5967
-0.0481185
-2.5967
-0.0687674
2.98535
0.0131828
2.98535
3.66504
-0.0042132
3.66504
-3.53549
-0.125335
-3.53549
3.18152
-3.18152
3.08395
0.0975723
-3.08395
0.163659
-5.07402
5.07343
-0.00799927
-5.06602
1.01814
1.01814
0.782746
-0.043625
0.782746
-0.862178
0.104824
-0.862178
8.36941
-16.2707
8.80288
-17.3262
7.40339
-21.1082
7.96074
-16.8651
3.75838
-3.75838
3.68599
0.0723863
-3.68599
0.218756
-1.46503
-0.0207152
-1.46503
-2.32684
-0.238131
-2.32684
2.89915
-0.334187
2.89915
-3.74281
3.74281
-4.12521
0.382404
4.12521
0.681393
3.05313
-0.067775
-3.05313
-0.0193154
0.943015
0.153713
-0.943015
0.121869
4.83438
-0.228845
4.83438
-4.07051
-0.535017
-4.07051
-1.4818
0.0167668
1.4818
-0.0529326
-1.25885
0.0675857
-1.25885
-5.0745
0.00847749
-5.0387
-1.40127
-1.40127
1.30414
4.9962
-3.58264
0.0471492
3.58264
-0.0211763
3.52806
0.214745
-3.52806
0.216988
-3.26523
0.0837051
3.26523
0.0458458
-0.672244
-0.0230274
-0.672244
-1.0558
1.0558
-0.936642
-0.11916
0.936642
-0.077072
1.43526
-0.157694
1.43526
1.48891
0.0203494
-1.48891
0.0324695
-4.95855
0.24644
-4.95855
4.09397
-0.000143999
4.09397
-3.93865
-0.13187
3.93865
-0.273609
-0.00372194
5.07715
-1.01442
-0.000125082
1.01442
-5.10149
5.10136
-0.677492
0.00524795
0.677492
0.105254
1.02937
0.161896
-1.02937
0.167191
3.78835
-0.0328933
-3.78835
0.0299684
-2.04275
-0.284087
-2.04275
-3.22222
-0.324651
3.22222
-0.323063
-5.11511
-0.0780104
5.19312
-5.13676
1.33686
0.0491439
-1.33686
5.1505
-1.16798
-0.109589
1.16798
-0.11218
1.6376
-0.202333
1.6376
5.07934
-0.244964
-5.07934
0.120791
-4.09609
0.181126
4.09609
-0.00212609
-1.81015
-0.232604
1.81015
-0.172548
-13.1279
14.4911
7.70879
-6.42539
-7.09248
-12.3049
4.44725
7.12899
14.618
-11.5385
-9.56973
-11.3976
2.86057
-2.69338
-3.76396
3.72329
23.3894
-23.289
-18.3999
19.0813
20.776
-20.5601
5.70861
5.71375
15.8682
-15.9578
-20.9971
20.6278
15.6259
-15.8455
21.9
-21.9423
-25.5277
25.4948
-16.1136
16.1683
-20.2785
20.1532
-21.0281
20.7545
-8.27744
-9.04874
16.1919
-16.0626
20.4773
-20.7677
-19.2298
19.558
10.0473
4.44383
11.0846
-6.24685
11.9555
-5.22593
12.9347
8.38891
-16.6664
7.88182
-14.9743
9.354
11.1233
-9.16849
-3.13639
-17.9651
17.879
-17.2622
17.308
23.8263
-23.7508
-6.17271
11.8865
-5.25346
12.3824
-11.4091
-6.99079
10.0875
4.53053
8.7809
7.41104
-8.96903
-2.42854
-24.7
24.4551
-25.603
25.068
0.0962395
2.42814
-2.52438
1.35102
-0.857836
3.28597
2.00274
2.10756
2.45238
-2.29049
0.241001
-2.76538
-2.89648
-5.42823
5.53455
5.25684
-5.14528
16.3618
7.02755
16.3842
-16.6245
-6.66445
-16.3781
11.3646
7.71666
11.747
12.06
8.71592
12.1619
10.3595
-10.3314
-0.028133
-11.4773
21.8368
1.5551
-18.4681
-13.9375
8.90627
6.96198
8.89355
-9.87698
-6.08083
-9.60696
-11.113
-9.88409
-11.4377
12.3598
8.26806
12.1821
-15.2761
15.274
9.47685
6.14909
9.36332
-9.09718
-6.74829
-9.16594
27.3132
-6.55957
-20.7536
-13.056
-12.4717
12.8542
9.04586
14.1324
11.3624
14.1624
8.80335
18.5098
-17.8492
5.37751
-9.95649
-6.15715
-9.79283
9.27617
6.89216
9.42702
-11.7602
-8.51833
-11.713
-11.9741
-9.05403
11.9783
8.17483
-12.5109
-13.0921
12.6427
8.11179
7.76119
-17.3309
9.10388
-18.1526
-10.7587
-5.3039
-10.54
10.8331
6.56871
-17.4018
-5.83328
23.944
-12.8206
20.8076
-11.1814
-9.58635
-11.2007
-14.6406
-4.58921
-14.2132
-8.11877
7.83468
-8.94149
8.6073
26.9435
-16.1678
-10.7757
-12.3779
-8.18221
11.7165
-0.631875
-12.8361
12.8079
-0.880627
12.0541
16.4979
15.866
-10.8824
-6.3798
-10.6654
10.2755
7.03257
10.3592
15.9034
7.92292
16.1071
-16.596
-7.15483
-16.3542
4.94024
-5.01736
5.74746
-5.73069
15.5266
9.54136
-15.2978
-9.40227
22.9829
-10.7864
-12.1965
-5.13492
5.26845
-0.13353
-1.84895
-0.497932
0.258789
-1.94094
-1.82302
1.88204
0.225521
5.49397
3.67096
-2.41414
2.48172
2.77898
2.70524
-0.19124
2.54648
-2.54123
19.0923
-11.5474
-7.54494
13.7888
-13.7045
-2.56544
-19.1837
16.6183
2.6797
3.07584
-3.01142
-4.00326
-1.42497
-3.97079
3.01675
2.24009
3.17047
2.13181
3.40273
-8.22907
1.60071
6.62835
-6.09725
-3.54457
-13.3553
-6.33499
19.6903
16.5784
7.87667
-16.6992
0.321108
5.34787
-5.38685
-1.55053
-11.8047
8.47395
-10.0245
-15.2749
-6.42339
21.6983
-9.5819
-1.0835
9.36716
2.37989
-10.8752
-7.08983
10.7407
1.42124
-12.0633
23.9723
-11.909
-18.4431
8.51671
13.3201
16.2334
-17.8629
9.31761
8.5453
-4.54283
7.50744
1.38611
7.37186
-19.8385
13.7577
11.2685
8.28957
-11.5941
1.98709
-17.8514
25.109
-22.1564
-2.95264
12.861
12.2481
13.5817
13.3618
-7.89726
21.479
-3.50748
-18.6489
21.3589
-13.0693
15.6439
-28.7132
-29.0056
10.3567
-18.0104
22.002
-3.99158
-5.15038
-10.1257
23.1608
-2.05624
-21.1046
10.1259
-13.9809
-11.8625
25.8434
-20.5405
18.6107
-6.36012
-12.2506
-12.6041
-9.33826
12.4229
2.85107
-25.6829
31.0604
-7.17307
7.99745
1.36587
8.01063
10.6427
-15.8815
5.2388
9.89775
-16.2579
6.86238
-22.7439
-12.0457
23.9323
-11.8867
-17.3496
-15.633
-1.71662
4.79096
26.2695
-16.1534
11.9382
4.21517
8.46837
1.8908
-8.56594
-1.2269
0.978423
16.1121
-17.0906
10.4054
10.5261
11.746
4.36614
10.7654
7.11357
-10.7443
-0.968757
-14.7824
5.72836
-6.60755
-14.5528
20.2812
-16.2644
1.71159
-10.3013
-14.0017
24.303
-16.4584
11.4302
12.5421
18.4628
-19.6157
5.61397
-9.75268
-9.86303
10.6504
-17.258
7.48292
12.7982
15.5947
2.50259
12.676
11.2563
-19.2447
1.09211
18.6674
-16.2388
3.87045
10.2919
-15.8086
0.17567
-10.3643
2.61362
-15.4342
-14.7882
16.3672
-20.9564
-12.346
13.4033
2.70373
-13.7255
-0.487701
-5.04199
-3.07678
-5.27459
-3.30949
-5.63199
-11.2068
-1.96456
-9.2422
5.87012
-6.76937
-4.66832
7.09244
1.51486
-5.03909
4.92951
-5.6905
5.48817
-0.210734
13.0187
15.6553
7.4731
-8.47585
15.949
-15.5109
23.4339
-29.5846
14.0737
15.8566
-23.0114
-13.728
2.7577
2.18253
2.67052
13.6368
-14.612
0.97515
-13.4663
17.7847
-4.31841
-19.879
6.41273
-6.24221
5.22649
0.520963
5.20578
1.43092
6.86728
-8.2982
-4.29977
-4.3527
-9.13535
-13.847
22.9824
4.78998
-13.1181
8.32812
-12.1198
16.9098
0.119212
-13.2373
17.0563
-10.189
17.5773
-12.0006
5.57662
12.7939
22.3727
-9.57877
16.2214
-6.68
7.02794
-16.6067
-6.81909
-11.3029
18.1951
-13.0001
14.7117
-1.10453
15.8162
-13.8106
3.02421
-2.06464
8.46151
8.67556
16.8102
-12.444
11.993
-18.673
-4.6137
-16.1704
-3.37218
1.04038
-13.9052
12.8648
12.2028
-11.1624
-3.29847
9.14588
-5.84741
5.79237
-2.89662
-2.89575
-1.88325
-3.1341
1.90628
0.640202
6.43258
0.501082
-3.39771
-2.04015
-1.9349
10.4419
8.65038
-3.92039
3.78686
3.6616
-0.585755
0.976889
2.19358
4.68568
-3.70879
0.69597
3.98971
-2.31545
3.87582
1.47205
-3.89617
-0.0746207
-3.43108
11.905
3.19727
-5.43736
1.72857
2.36014
-13.9075
19.6947
-11.3992
-8.29552
22.0549
3.02267
-14.4219
16.161
-13.4813
8.0453
-14.3803
-6.37659
-19.8579
-12.8304
-10.7433
19.0714
-12.2391
20.1158
3.79653
-20.4369
24.2334
-12.7855
6.36211
-9.53534
11.0074
-4.12432
-5.41102
11.3179
10.3804
-11.066
-0.738701
0.251817
8.50506
-8.25324
-1.51941
-7.61667
-16.407
17.8282
-8.2579
17.5755
7.69106
-7.63191
25.2074
6.56711
-14.199
-11.876
-12.9595
-5.65372
10.5796
-1.84097
-7.32497
-14.0916
7.37309
-0.00123287
-19.0424
22.1022
-3.05985
-12.0804
-1.6773
14.5383
-18.1538
1.89594
-11.2914
10.8108
12.1969
12.1957
-20.8735
-0.231088
-12.6054
3.2401
-15.8455
15.4882
-6.87595
17.2327
-16.1179
11.4496
-14.603
14.28
-1.5655
14.648
-9.40923
6.10559
-15.4438
-12.5928
14.6009
-8.45179
15.9667
-10.2185
26.1853
-17.3916
14.6466
11.5386
-2.79817
-8.40252
-14.187
11.3888
0.459668
8.4703
17.8314
-10.7178
16.8626
8.9137
-18.6664
-8.34427
-25.8612
7.19479
-13.3191
-7.354
14.5488
11.1088
12.9996
4.68577
-11.7727
17.702
-19.4186
-5.81536
-8.97281
14.7922
-3.4034
10.2284
-19.2012
-5.20585
13.1526
-0.225119
-12.9275
3.01517
-15.3612
5.14213
-20.5033
15.8143
-16.302
1.80739
-8.0496
-3.2317
-3.34388
-2.21068
-3.47982
-7.70472
5.49404
-1.29199
3.63751
-12.6503
12.4251
-5.13447
10.6285
-4.13614
-1.13845
4.30869
1.17948
11.808
3.03962
-16.7676
-9.33601
14.7474
-5.41137
1.10594
-10.8655
3.88185
8.04907
14.0058
-24.6673
1.65589
-15.1118
-4.15118
6.33372
4.9947
17.1975
2.58547
6.68248
-0.348759
9.26795
2.32176
2.24469
-11.2744
12.2496
1.59035
15.6641
-1.88855
7.46517
3.31723
3.33269
2.05415
5.74222
2.93334
8.76643
0.468226
-3.88447
2.09637
-4.03127
-1.30134
-4.07489
-0.3516
3.7747
-4.1263
10.6299
-1.9795
5.21851
-1.94648
-5.03334
6.97981
-9.49142
-5.61909
-1.62938
-5.70441
7.43298
6.20062
-5.80359
-3.68782
2.42819
-15.2585
11.9521
-12.6908
-2.3104
21.923
-9.54622
1.29297
-3.1841
-6.3237
-7.74866
7.82328
24.1908
1.01663
12.2818
18.8449
11.755
1.03724
12.0793
-16.0709
-10.6646
-16.302
-0.813792
13.7245
5.66954
20.5999
17.2082
13.8048
-5.39644
-24.8151
20.7485
-8.49895
16.4301
-3.5026
-17.0007
14.5274
8.90647
-17.2311
0.929113
-16.0716
-24.5705
-0.363445
12.7886
-11.4445
10.3061
7.22931
2.01289
-2.47552
-0.868363
2.59468
-0.349983
8.91797
-0.176717
-8.33182
8.50853
-3.59799
2.29665
-0.484386
4.27124
6.49543
4.51592
-3.81589
-7.9422
-8.88223
-5.02531
-17.1778
2.5125
-8.71313
5.78195
-3.4853
2.8862
5.02324
10.2417
-1.61651
-9.54587
7.46392
-4.57772
5.66402
)
;

boundaryField
{
    wall-4
    {
        type            calculated;
        value           uniform 0;
    }
    velocity-inlet-5
    {
        type            calculated;
        value           uniform -11.2529;
    }
    velocity-inlet-6
    {
        type            calculated;
        value           uniform -1.87548;
    }
    pressure-outlet-7
    {
        type            calculated;
        value           nonuniform List<scalar> 8(4.37855 4.87348 11.1154 11.8402 17.4276 15.3531 17.1723 15.3641);
    }
    wall-8
    {
        type            calculated;
        value           uniform 0;
    }
    frontAndBackPlanes
    {
        type            empty;
        value           nonuniform List<scalar> 0();
    }
}


// ************************************************************************* //
