/*--------------------------------*- C++ -*----------------------------------*\
  =========                 |
  \\      /  F ield         | OpenFOAM: The Open Source CFD Toolbox
   \\    /   O peration     | Website:  https://openfoam.org
    \\  /    A nd           | Version:  9
     \\/     M anipulation  |
\*---------------------------------------------------------------------------*/
FoamFile
{
    format      ascii;
    class       volScalarField;
    location    "7.3";
    object      p;
}
// * * * * * * * * * * * * * * * * * * * * * * * * * * * * * * * * * * * * * //

dimensions      [0 2 -2 0 0 0 0];

internalField   nonuniform List<scalar> 
918
(
23.6823
23.9542
1.03101
23.0963
1.01705
23.4706
3.65113
14.1559
19.454
3.16843
2.84549
14.6457
21.0136
17.2548
13.3776
0.985344
14.4049
2.46728
18.6688
1.41143
13.3903
20.6608
21.7498
19.4976
14.4011
14.7273
18.9759
1.25823
0.113442
0.320805
0.965703
0.438649
0.206601
22.0075
22.6842
22.6225
15.7149
10.6188
4.00636
4.22868
3.35795
3.14605
14.1933
14.294
6.29636
14.1375
14.1339
16.8589
19.3218
19.4652
19.7601
19.5482
19.9349
6.038
3.03555
2.8518
3.15901
3.22617
3.07598
2.94021
2.93287
2.71558
2.56713
14.1339
14.7194
14.7689
14.5198
14.4732
22.8302
22.0732
22.408
21.5143
21.6598
20.5897
20.2041
17.6306
17.9831
16.8565
16.4755
13.1591
13.1081
13.6097
13.8521
0.153563
1.14583
1.29279
14.4084
14.4379
14.4518
14.4658
8.42653
2.4483
2.46235
18.1092
17.6854
20.6917
20.9587
20.4056
20.2201
1.58558
1.63065
1.19068
1.21461
0.986585
13.7098
13.8638
19.449
18.6162
14.4203
14.3293
14.3936
11.7936
14.1964
14.2788
15.7016
16.1542
15.338
15.7792
18.5459
18.1279
19.4125
19.8497
0.433318
0.166081
0.758868
0.388272
0.58797
15.5839
15.3813
15.8178
15.8805
16.1108
10.6211
10.5418
10.5988
10.5168
4.58821
4.90551
2.55136
2.90043
2.7248
10.0584
14.3098
14.3505
5.25407
5.94741
5.61524
6.77002
7.14687
16.2263
16.6614
16.4011
17.9453
17.1507
17.4987
20.0235
19.5135
19.8136
6.43596
6.6993
5.67873
5.32933
2.47895
2.72591
2.66078
3.25689
3.23752
3.30763
3.45536
2.79908
2.65371
3.16988
3.03596
3.09917
2.38655
2.2408
13.8661
13.6601
14.3911
14.5684
15.3081
15.1647
14.8817
15.0441
19.3992
19.8027
19.8361
19.452
11.8385
10.3397
14.111
14.382
0.31355
0.267014
0.1439
0.400126
0.399943
0.163995
2.08228
1.89216
1.47442
1.74117
14.3984
14.3555
8.6665
8.88985
8.25941
7.99867
16.5215
16.6725
17.3072
16.9065
2.12953
1.80402
1.95774
14.0252
13.8938
14.0071
11.2446
10.6924
12.2647
12.5376
14.329
14.3458
14.3518
16.06
16.3782
20.2005
20.4712
20.2981
20.6839
21.7467
21.398
21.0132
14.7736
15.1733
15.0166
16.3349
15.9685
16.1877
15.3987
15.7013
15.5589
10.5704
10.6172
10.3223
10.4012
10.4569
10.4019
9.98715
9.85806
14.4308
14.3873
14.4118
7.65797
8.14027
4.9546
4.63397
12.8254
13.4794
13.1615
19.0289
18.3513
19.0842
18.7134
18.2634
18.5869
10.6265
10.5805
10.6184
15.2983
14.6414
14.9901
2.52696
2.15657
2.32584
9.08789
9.18254
7.07306
7.70909
7.37297
16.6795
17.0199
17.7
16.8119
17.2794
17.7866
17.5647
10.1369
10.2753
10.1891
9.83754
9.72657
10.0643
8.70403
9.29626
3.71559
4.35598
4.05921
9.35147
9.59585
9.43965
18.8434
19.378
0.804568
1.25252
19.8051
19.5284
0.17284
0.303424
14.6327
12.8845
7.66606
17.4051
16.8461
19.1812
3.38337
6.20174
3.0041
3.48284
2.76271
14.8346
14.4934
13.6008
0.485626
1.29615
1.75597
3.11699
18.6239
17.9493
19.0632
19.3841
19.4379
0.702168
0.948141
0.590007
1.33831
1.09465
1.32219
15.7733
15.8532
4.69583
19.0696
19.3732
19.3914
17.8659
18.8194
17.8767
0.982734
0.686561
0.766214
10.4041
12.4124
14.5958
14.1449
14.3456
14.3676
14.1188
15.2499
14.9274
14.8845
15.3659
14.3156
14.1807
8.1028
6.79185
8.46316
8.11911
17.3069
16.8943
16.7091
16.456
18.2962
17.8217
18.6725
18.0597
18.5215
18.8088
3.22355
3.37872
3.22955
2.76925
6.26477
6.73549
5.60928
5.71865
4.36217
2.69754
2.75353
2.95248
2.84474
3.10236
2.78422
3.05774
2.70001
2.40084
2.39697
3.07751
2.85405
2.75083
14.8049
14.7531
14.5574
14.6024
14.5918
14.7056
13.788
14.1839
13.8236
12.681
13.2446
12.7911
0.815962
0.669668
0.551243
1.37791
1.41859
1.16018
0.889753
1.23177
1.20211
0.900438
1.60182
1.5793
3.42818
2.9307
8.99156
8.1146
7.06468
17.0161
17.8166
16.9866
18.2245
18.6415
18.7476
18.3685
17.8604
15.9325
15.9294
15.5897
15.5422
5.11773
4.08119
5.33696
4.95354
10.7088
14.3905
12.1328
11.1116
11.4093
13.6652
14.3118
13.9525
14.1455
13.6786
13.1715
13.9056
13.4147
13.5238
13.2653
16.0964
16.5711
16.1776
15.5979
15.6183
10.8137
12.2034
5.8932
6.03198
7.57463
6.92791
13.8839
14.2685
14.2574
13.9136
14.116
14.0952
13.9228
14.0769
14.204
14.109
12.0167
10.4677
9.39784
9.39063
14.4199
12.5646
13.1698
12.6331
16.3255
16.8444
16.4577
15.8662
16.3482
15.8222
15.84
16.0454
17.4121
17.1603
16.9322
17.3194
3.33085
3.27191
3.89495
3.39933
3.28784
3.05162
3.71716
4.95506
4.61979
6.86959
7.40652
4.79353
3.71098
4.04203
5.05007
5.71879
5.72268
4.13773
4.61003
5.04694
4.57302
5.31864
4.83917
2.9194
3.20698
3.08509
3.0595
3.50641
3.99112
3.51004
2.62744
2.77662
2.49274
2.34923
3.70369
3.26239
3.28979
3.86089
1.20991
1.40495
1.52031
2.52909
2.0114
2.07718
15.3904
15.0374
15.1706
14.4694
14.5463
14.4991
14.1114
15.4626
15.1876
15.2866
13.9525
14.0417
13.8583
14.1456
14.5429
14.8357
15.6632
15.3802
14.6413
14.7946
14.4478
14.3731
13.7169
13.1703
13.1035
1.15167
0.852411
1.02661
0.974243
0.654247
0.841437
2.24479
1.65116
2.05405
1.77885
2.01347
1.50707
1.38098
4.52733
5.32293
4.29656
3.68202
3.38157
9.04606
9.16314
8.29546
8.00183
8.33298
8.5704
8.51938
7.24837
7.68957
7.50478
10.1166
9.76246
17.7991
17.7438
17.416
17.2566
17.482
6.09716
7.87581
7.12806
8.19563
10.4179
10.7322
9.46342
8.85662
9.62396
9.67308
14.3636
14.4501
13.8924
14.3474
14.3744
12.1237
13.1124
13.725
13.516
14.0785
14.1693
13.3026
13.8441
13.7122
13.0125
13.0571
12.4148
12.7188
12.258
12.0772
14.2925
14.1846
14.4524
14.0099
14.3749
13.9724
14.2634
14.2995
14.5689
13.661
13.0846
13.1055
13.5182
13.2314
13.5672
13.7229
9.45776
10.1036
10.5869
11.1447
10.8531
10.6185
10.4729
10.7979
10.7841
11.0503
10.9678
10.8002
11.7385
13.7953
14.071
14.2172
13.9636
13.9865
13.689
13.9832
13.9039
14.2569
14.3491
14.4016
13.392
13.6104
13.8152
13.6981
11.8633
10.3212
10.1633
9.76876
7.93084
8.36636
11.2399
10.1685
9.22278
9.30034
12.4587
11.1118
11.9145
12.2779
10.9708
10.6117
13.2179
14.0448
14.2485
13.9304
12.2906
12.4042
12.8551
13.3123
13.5106
14.002
16.0782
16.6484
16.7277
16.4535
16.3137
16.4097
16.1565
16.262
16.737
16.8619
16.6924
3.12988
3.23369
3.19442
3.11535
3.35706
3.17789
4.20646
4.20481
3.39938
3.57188
3.58892
3.66947
3.2053
3.22258
4.97376
5.21516
5.48695
5.0138
6.34822
6.94232
7.5008
7.21834
5.95606
6.01253
6.31384
3.6901
3.65995
3.41596
3.84887
3.92633
2.79489
2.4427
2.2339
2.76866
2.8673
2.23705
1.91648
1.9876
2.45774
2.2572
1.99458
15.1974
14.9616
14.9793
14.7617
14.8155
15.2037
15.4209
15.2256
15.3593
15.4103
15.0214
14.9042
15.0762
1.88374
1.56453
1.70647
1.72408
1.70637
1.64549
1.80863
7.74091
6.58418
6.95971
6.19293
4.4373
4.91927
9.74098
10.1541
10.1977
9.88591
9.67709
10.0302
9.90354
9.89383
8.40844
9.47039
9.01105
9.41418
9.45207
9.51786
9.21896
9.26132
10.7658
10.8048
9.65192
10.3053
9.56453
8.23143
8.39342
9.32599
10.2612
10.6071
10.4555
10.1444
9.92421
10.3282
10.3563
10.4479
10.4342
8.91361
8.85849
8.46028
14.2644
14.2183
14.3593
14.3292
14.4797
14.2552
14.0825
14.3662
14.4339
14.2075
11.3102
11.3819
11.6429
12.4396
12.5093
12.2737
11.5403
13.3854
13.0004
13.7277
13.6605
13.6801
13.261
13.0689
13.3902
10.3454
11.696
11.2269
11.5077
10.3581
9.63189
13.4906
13.5325
13.6393
13.9344
13.857
14.4429
16.0461
15.914
15.9649
16.0092
15.6197
15.6539
4.34335
4.02276
4.73728
4.70236
4.26862
3.97579
2.38614
2.10353
1.91819
1.79212
1.98082
2.05993
8.3343
8.33497
6.53356
7.51972
6.15336
5.22098
5.10238
6.19094
7.33165
7.41636
8.63643
9.33131
8.89806
8.73177
8.06251
8.38622
10.3184
10.4143
10.3127
10.6363
10.178
11.9773
11.5491
11.9149
13.5821
13.265
12.6343
12.516
12.5269
13.1481
12.1549
11.3823
12.0821
12.7761
12.7372
11.357
11.1001
11.5414
11.4875
10.3863
10.9297
10.6833
11.0341
10.7194
)
;

boundaryField
{
    wall-4
    {
        type            zeroGradient;
    }
    velocity-inlet-5
    {
        type            zeroGradient;
    }
    velocity-inlet-6
    {
        type            zeroGradient;
    }
    pressure-outlet-7
    {
        type            fixedValue;
        value           uniform 0;
    }
    wall-8
    {
        type            zeroGradient;
    }
    frontAndBackPlanes
    {
        type            empty;
    }
}


// ************************************************************************* //
