/*--------------------------------*- C++ -*----------------------------------*\
  =========                 |
  \\      /  F ield         | OpenFOAM: The Open Source CFD Toolbox
   \\    /   O peration     | Website:  https://openfoam.org
    \\  /    A nd           | Version:  9
     \\/     M anipulation  |
\*---------------------------------------------------------------------------*/
FoamFile
{
    format      ascii;
    class       volScalarField;
    location    "2.26";
    object      p_rgh;
}
// * * * * * * * * * * * * * * * * * * * * * * * * * * * * * * * * * * * * * //

dimensions      [1 -1 -2 0 0 0 0];

internalField   nonuniform List<scalar> 
2268
(
727.779
727.936
728.595
729.578
730.834
732.345
734.103
736.137
738.471
741.135
744.157
747.551
751.306
755.381
759.704
764.152
768.541
772.275
775.367
779.397
782.498
783.333
782.152
727.783
727.879
728.466
729.448
730.735
732.288
734.11
736.203
738.603
741.338
744.435
747.899
751.709
755.819
760.159
764.614
769.061
772.838
775.783
779.048
782.481
782.889
781.786
727.693
727.85
728.369
729.328
730.63
732.224
734.096
736.253
738.725
741.541
744.72
748.262
752.137
756.296
760.674
765.174
769.709
773.941
775.881
778.455
782.224
782.456
781.086
727.518
727.776
728.262
729.198
730.502
732.121
734.03
736.237
738.767
741.648
744.896
748.506
752.448
756.67
761.115
765.705
770.364
775.044
776.48
778.162
781.179
782.396
780.576
727.262
727.619
728.118
729.027
730.329
731.963
733.898
736.136
738.703
741.627
744.924
748.591
752.601
756.9
761.435
766.147
770.962
775.969
780.37
780.293
783.231
783.023
780.361
726.924
727.374
727.902
728.787
730.093
731.743
733.695
735.949
738.535
741.481
744.809
748.524
752.604
756.994
761.638
766.493
771.501
776.65
781.759
785.22
786.264
784.808
780.458
726.503
727.037
727.602
728.459
729.787
731.461
733.429
735.691
738.279
741.23
744.574
748.332
752.493
756.991
761.764
766.782
772.024
777.442
782.826
787.003
789.4
788.616
779.928
725.998
726.614
727.225
728.034
729.415
731.129
733.124
735.391
737.971
740.911
744.26
748.069
752.343
756.99
761.92
767.124
772.653
778.491
784.447
789.789
794.439
795.39
779.454
819.527
817.515
813.768
807.061
798.654
789.318
779.252
769.577
765.881
760.818
755.108
749.221
741.435
736.362
732.4
728.312
723.555
719.957
718.242
820.041
817.198
813.143
806.238
798.035
788.86
779.4
769.549
768.188
762.294
755.763
749.516
741.074
735.915
731.297
726.983
723.451
720.7
719.148
820.773
818.069
812.803
805.624
797.615
789.008
780.979
766.768
768.456
763.241
756.588
750.347
741.07
735.239
730.34
728.097
723.917
720.371
718.405
822.16
818.856
813.144
805.738
797.829
789.751
782.26
764.937
750.573
763.552
757.439
751.47
742.579
734.794
733.986
727.785
717.64
715.01
708.26
824.546
820.185
813.998
806.231
798.379
790.814
781.443
751.278
745.443
744.677
756.058
752.296
746.624
742.077
737.397
724.833
699.874
695.697
694.384
827.043
822.544
814.986
806.827
799.014
791.96
776.786
748.399
743.32
732.785
749.951
752.737
746.89
741.815
737.474
733.484
720.425
694.289
692.973
828.919
823.636
815.573
807.395
799.561
792.891
783.585
749.19
741.091
739.365
759.9
752.754
745.874
740.961
737.442
735.098
735.11
725.821
709.198
832.477
823.398
815.804
808.019
799.935
793.26
791.436
790.957
770.636
777.6
762.724
752.063
744.379
732.468
736.978
735.01
734.211
733.879
734.194
725.086
725.802
726.507
727.35
728.687
730.475
732.517
734.764
737.286
740.156
743.468
747.352
751.86
756.82
762.045
767.562
773.61
780.33
787.654
795.454
803.836
809.42
808.047
643.549
646.485
648.61
651.365
654.917
659.07
663.105
667.504
672.774
679.013
686.447
695.561
706.191
717.722
729.827
743.074
758.264
775.271
787.945
798.108
808.946
817.122
821.255
110.589
112.895
118.405
123.879
129.104
134.545
139.775
144.956
150.392
157.059
164.819
174.583
188.108
205.999
226.682
249.813
274.723
306.395
355.561
419.625
502.553
602.025
689.936
1.42322
1.5448
1.71713
1.74589
1.55473
1.26466
1.32543
1.83767
2.52078
3.41014
4.46182
5.23436
5.81552
5.67374
5.96204
7.23861
10.2027
12.4987
14.3628
17.3547
30.3528
59.1126
87.1401
1.46278
4.48089
5.6551
5.68367
3.69224
1.29971
1.35157
2.20554
2.9778
3.92245
9.43312
11.0261
9.75221
5.1707
5.60151
5.95367
16.4465
20.1711
19.7442
14.9011
5.58071
1.48108
1.48935
2.24882
5.74647
5.72961
5.76842
5.84706
3.44548
1.42756
7.79049
11.002
11.0542
11.1666
11.3159
9.47328
7.13853
20.3599
20.7422
20.8367
20.744
20.5606
15.8889
1.44649
1.3905
1.41497
2.03947
5.65019
3.11088
5.25344
5.88356
5.99451
6.02045
5.60336
3.17116
2.73857
6.72183
11.5355
8.17046
2.93409
7.01419
12.0869
16.1322
11.1202
1.71669
1.42629
1.38791
1.37407
1.37397
1.9526
3.40119
0.604457
0.326804
1.33845
2.96765
3.07237
0.869297
0.0731543
0.0670013
0.133247
0.496631
0.614535
0.089391
-0.000192502
0.0395563
0.146221
1.28729
9.88691
9.50702
1.23544
1.22509
1.1366
2.39274
1.66096
0.168749
0.0996345
0.067301
0.0370823
0.0199835
0.0262091
0.0323519
0.0270434
0.0116847
-0.00139597
-0.00696519
-0.000159256
-0.00538498
0.00229824
0.028615
3.8928
10.6333
10.6937
10.8275
10.7224
2.80235
2.44853
0.290086
0.0768369
0.0630302
0.0466503
0.0329496
0.024371
0.0225456
0.0227212
0.0179047
0.00727944
-0.00207444
-0.00452636
-0.00405795
-0.0102964
-0.0136412
0.000414396
0.149448
0.306427
1.64855
2.97276
3.31119
1.57168
0.691889
0.0121463
0.0339377
0.0366177
0.0323261
0.0266484
0.0199338
0.0174929
0.0155567
0.0110994
0.00381477
-0.00342173
-0.00791459
-0.0115752
-0.0187676
-0.0272136
-0.0277147
-0.0192592
-0.0568775
-0.0962562
-0.106247
-0.10818
-0.0937561
0.00390808
0.00603795
0.0155306
0.0206373
0.0209411
0.0192855
0.014903
0.0115921
0.00890734
0.00482893
-0.000690997
-0.00656661
-0.0118556
-0.0173881
-0.02501
-0.0340807
-0.0442583
-0.0610584
-0.0695594
-0.0692791
-0.070942
-0.0813042
-0.0759935
0.0131034
0.00837143
0.00976995
0.0124236
0.0127873
0.0118901
0.00989331
0.00648514
0.00361011
-0.000101633
-0.00471847
-0.0098121
-0.0150974
-0.0210163
-0.0283161
-0.0370891
-0.0483293
-0.0610993
-0.0713006
-0.076951
-0.0788375
-0.0762352
-0.0719478
0.0136422
0.00836966
0.00719388
0.00783169
0.00758048
0.00633324
0.00473652
0.00227986
-0.000462731
-0.00384577
-0.00790536
-0.0124736
-0.0174718
-0.0231311
-0.0297977
-0.0375617
-0.0463593
-0.0555804
-0.0632786
-0.0681132
-0.0697756
-0.0685724
-0.0653868
0.0106897
0.0068503
0.00665089
0.00495258
0.00421597
0.00292934
0.00119233
-0.000935271
-0.00351313
-0.00662074
-0.0102661
-0.0143896
-0.0189731
-0.0241224
-0.0299691
-0.0364698
-0.0434335
-0.0503191
-0.0560518
-0.0597502
-0.061194
-0.060463
-0.0581784
0.00753192
0.00508924
0.00670689
0.00357498
0.00202397
0.000623965
-0.00111331
-0.00319305
-0.00564975
-0.00852663
-0.0118327
-0.0155484
-0.0196685
-0.024226
-0.0292385
-0.0346168
-0.0401375
-0.0453808
-0.0497011
-0.0525472
-0.0537169
-0.0532783
-0.0515249
0.0050595
0.00367073
0.00590489
0.0046789
0.000664861
-0.000834126
-0.00258988
-0.0046287
-0.00697384
-0.00964934
-0.0126628
-0.0160053
-0.0196678
-0.0236446
-0.0279022
-0.0323321
-0.0367336
-0.0407929
-0.0441036
-0.0463122
-0.0472523
-0.0469473
-0.04555
0.00294233
0.00258047
0.00518071
0.00338943
-0.000112088
-0.00164854
-0.00339348
-0.00537526
-0.00760545
-0.0100953
-0.0128472
-0.0158515
-0.0190923
-0.0225438
-0.0261527
-0.029813
-0.0333561
-0.0365505
-0.0391278
-0.0408533
-0.0415992
-0.0413609
-0.0402202
0.00114371
0.0015951
0.00428679
0.00112166
-0.000520943
-0.00199096
-0.00367533
-0.00557034
-0.00767342
-0.00998396
-0.0124965
-0.0151971
-0.0180633
-0.0210602
-0.0241297
-0.0271771
-0.0300661
-0.0326246
-0.0346671
-0.0360324
-0.0366241
-0.0364264
-0.0354833
-0.000194458
0.000793189
0.00121068
0.000397236
-0.000647762
-0.00199087
-0.00356647
-0.00534368
-0.00730481
-0.00943774
-0.0117286
-0.014158
-0.0166986
-0.0193115
-0.0219404
-0.0245042
-0.0268945
-0.0289823
-0.0306347
-0.0317368
-0.0322157
-0.0320528
-0.0312716
-0.00106578
0.000130216
0.000565493
0.000268512
-0.000566089
-0.00174474
-0.00317566
-0.00481027
-0.00661732
-0.00857407
-0.0106588
-0.0128467
-0.015107
-0.0173996
-0.0196718
-0.0218555
-0.0238649
-0.0256021
-0.0269692
-0.0278822
-0.0282849
-0.0281594
-0.027518
-0.00155589
-0.000302858
0.000360801
0.00029754
-0.000327255
-0.0013236
-0.00259021
-0.0040677
-0.00571445
-0.00749875
-0.00939214
-0.0113654
-0.0133851
-0.0154114
-0.017396
-0.0192814
-0.020999
-0.0224738
-0.023632
-0.0244105
-0.0247656
-0.0246814
-0.0241639
-0.0017498
-0.000455565
0.000339949
0.000464518
3.41688e-05
-0.000780755
-0.00187926
-0.00319654
-0.00468407
-0.00630334
-0.00802051
-0.00980281
-0.0116155
-0.0134198
-0.0151716
-0.0168217
-0.0183145
-0.0195915
-0.020596
-0.0212794
-0.0216076
-0.0215668
-0.0211599
-0.00172042
-0.000404692
0.000478851
0.000750226
0.000488151
-0.000160213
-0.0010995
-0.00226349
-0.0035997
-0.00506497
-0.00662158
-0.00823428
-0.00986786
-0.011485
-0.0130458
-0.0145076
-0.0158246
-0.0169503
-0.01784
-0.0184559
-0.0187709
-0.0187735
-0.0184649
-0.00153764
-0.000202304
0.000742456
0.00112533
0.0010011
0.000496206
-0.000301164
-0.0013257
-0.00252321
-0.00384778
-0.00525929
-0.00672108
-0.00819811
-0.00965504
-0.0110557
-0.0123631
-0.013539
-0.0145456
-0.0153473
-0.0159142
-0.0162244
-0.0162686
-0.0160472
-0.00127298
9.30956e-05
0.00108252
0.00154855
0.0015323
0.00114482
0.000468225
-0.000433886
-0.00150705
-0.00270428
-0.00398444
-0.0053106
-0.00664851
-0.00796511
-0.00922788
-0.0104046
-0.0114632
-0.0123726
-0.0131041
-0.0136336
-0.0139435
-0.0140262
-0.0138818
-0.000991917
0.000414647
0.00143985
0.00196849
0.00203447
0.00173996
0.00116363
0.000367553
-0.000594414
-0.0016755
-0.00283493
-0.00403658
-0.00524774
-0.0064379
-0.00757807
-0.00864036
-0.00959772
-0.0104245
-0.0110973
-0.0115963
-0.0119075
-0.0120247
-0.0119478
-0.000747502
0.000696669
0.00175281
0.00233031
0.00245876
0.00223776
0.00174538
0.00104267
0.000182303
-0.000790218
-0.00183564
-0.00291969
-0.0040119
-0.00508458
-0.0061122
-0.00707079
-0.00793755
-0.0086912
-0.0093124
-0.00978498
-0.0100972
-0.0102443
-0.0102257
-0.000574994
0.00088965
0.00197097
0.00258699
0.00276378
0.00260315
0.00218437
0.0015676
0.000803705
-6.3931e-05
-0.000998501
-0.00196837
-0.00294587
-0.00390641
-0.00482779
-0.0056896
-0.00647272
-0.0071594
-0.00773353
-0.00818154
-0.00849358
-0.00866564
-0.00869702
-0.00048976
0.000971493
0.00206719
0.0027106
0.00292533
0.00281741
0.00246734
0.00193372
0.00126489
0.000501343
-0.000323169
-0.00118014
-0.00204504
-0.00289647
-0.00371553
-0.00448509
-0.00518923
-0.00581313
-0.00634312
-0.00676753
-0.00707774
-0.00727021
-0.0073438
-0.000490641
0.000946165
0.00203981
0.00269691
0.00294101
0.00288152
0.00259849
0.00214775
0.00157425
0.000915051
0.000200531
-0.000544127
-0.00129767
-0.00204196
-0.00276133
-0.00344178
-0.00407034
-0.00463464
-0.00512287
-0.00552446
-0.00583141
-0.00604022
-0.00614915
-0.000565944
0.000831286
0.00190393
0.00256008
0.00282626
0.00281232
0.00259536
0.00222726
0.00174892
0.00119371
0.000588535
-4.47367e-05
-0.00068814
-0.00132683
-0.00194842
-0.00254211
-0.00309778
-0.00360537
-0.00405427
-0.00443425
-0.00473714
-0.00495902
-0.00509735
-0.000698327
0.000646065
0.00168014
0.00232279
0.0026052
0.00263403
0.00248126
0.00219401
0.00180902
0.00135592
0.000858307
0.000334836
-0.000199773
-0.000734045
-0.00125908
-0.00176754
-0.00225251
-0.00270631
-0.00311901
-0.0034795
-0.00377855
-0.00401121
-0.00417402
-0.000867498
0.000408056
0.00138911
0.00200904
0.002303
0.00237113
0.00227896
0.00206879
0.00177339
0.00141901
0.00102614
0.000610445
0.000183459
-0.000246839
-0.000675387
-0.00109894
-0.00151462
-0.00191796
-0.00229896
-0.00264372
-0.00294056
-0.00318291
-0.00336629
-0.00105182
0.000136255
0.00105257
0.00164267
0.00194326
0.00204562
0.0020084
0.00186952
0.00165829
0.00139796
0.00110635
0.00079635
0.000476458
0.000151031
-0.000179198
-0.000516102
-0.000862677
-0.00121962
-0.00157609
-0.00191158
-0.00220984
-0.00246213
-0.00266314
-0.0012297
-0.00014638
0.000695509
0.00124847
0.00154857
0.00167738
0.00168706
0.0016117
0.00147768
0.00130578
0.00111149
0.000905354
0.000693083
0.000475453
0.000248393
3.48927e-06
-0.000271416
-0.000587698
-0.000932211
-0.00126951
-0.00157556
-0.00183944
-0.00205578
-0.00138021
-0.000413408
0.000346145
0.00085249
0.0011412
0.00128523
0.00133104
0.00130942
0.00124425
0.00115415
0.00105276
0.000948796
0.000845804
0.000741458
0.000626912
0.00048593
0.000291358
7.12454e-06
-0.000348762
-0.000706644
-0.0010304
-0.00130862
-0.00153804
-0.00148201
-0.000636075
3.48343e-05
0.000481891
0.000744119
0.00088864
0.000957183
0.000977507
0.000971083
0.000954564
0.000940098
0.00093534
0.000942829
0.000958585
0.000970687
0.000956294
0.000865106
0.000599056
0.000188995
-0.00021853
-0.000572734
-0.000867685
-0.00110661
-0.00150879
-0.000780461
-0.000204403
0.000165733
0.000381576
0.000508476
0.000583936
0.000632342
0.000672392
0.000718613
0.000781929
0.000869828
0.000985582
0.00112616
0.00128066
0.0014273
0.00148981
0.00121797
0.00067494
0.000179142
-0.000214112
-0.000522081
-0.000761955
-0.00142033
-0.000804583
-0.000344946
-8.89032e-05
4.79868e-05
0.000133298
0.000198267
0.000262076
0.000339616
0.000442886
0.000581923
0.000765208
0.000998558
0.00128247
0.0016116
0.00197634
0.00228499
0.00197884
0.00109223
0.000435093
9.69206e-06
-0.000289571
-0.000510434
-0.00113481
-0.000711064
-0.000452025
-0.00039118
-0.00038294
-0.000364492
-0.00031888
-0.00023587
-0.000105835
8.05541e-05
0.000333648
0.000665316
0.00108634
0.00160455
0.00223768
0.00303679
0.00386528
0.00355854
0.00156264
0.000526082
7.65447e-05
-0.000178436
-0.000354148
-0.00105593
-0.000769777
-0.000694967
-0.000764015
-0.00082643
-0.000837176
-0.000789862
-0.000681306
-0.000507373
-0.000262624
6.16909e-05
0.000481271
0.00102088
0.00171716
0.00270602
0.00451253
0.00764861
0.00694393
0.0022905
0.000673287
0.000151472
-8.31643e-05
-0.000217457
822.268
825.429
826.294
826.455
826.462
827.694
827.555
827.458
716.356
712.409
709.205
706.581
106.315
109.176
109.809
109.998
1.69726
1.91925
2.22285
11.5305
1.48996
1.5525
3.26763
8.60509
1.9752
4.42843
5.26281
5.17609
9.67714
12.638
12.5543
12.4553
3.66151
11.7553
13.0091
5.59405
-0.120734
-0.120165
-0.0886173
-0.0644568
-0.087733
-0.0840057
-0.0759615
-0.0657253
-0.0760367
-0.0743879
-0.0643728
-0.05134
-0.0695746
-0.0671368
-0.0606414
-0.0469973
-0.0624196
-0.0601283
-0.0575035
-0.054676
-0.0556254
-0.0537077
-0.0515581
-0.0492518
-0.0493996
-0.0477933
-0.045993
-0.0440638
-0.0437659
-0.0424104
-0.0408879
-0.0392528
-0.0387211
-0.0375749
-0.0362815
-0.034888
-0.0342268
-0.0332592
-0.0321602
-0.03097
-0.0302226
-0.02941
-0.0284803
-0.0274669
-0.0266485
-0.0259714
-0.0251907
-0.0243336
-0.0234503
-0.0228911
-0.0222417
-0.0215234
-0.0205805
-0.0201236
-0.0195892
-0.0189939
-0.018001
-0.0176319
-0.0171976
-0.016711
-0.0156822
-0.0153882
-0.0150402
-0.0146486
-0.0136017
-0.0133715
-0.0130972
-0.0127873
-0.0117405
-0.0115645
-0.0113522
-0.0111118
-0.010081
-0.00995063
-0.00979045
-0.00960837
-0.00860568
-0.00851405
-0.00839751
-0.0082643
-0.0072979
-0.00723914
-0.00715926
-0.00706694
-0.00614178
-0.00611099
-0.00606204
-0.0060039
-0.00512258
-0.00511558
-0.00509277
-0.00506315
-0.00422673
-0.00423997
-0.00423923
-0.00423329
-0.00344214
-0.0034725
-0.00349028
-0.00350379
-0.00275839
-0.00280308
-0.00283617
-0.00286531
-0.00216708
-0.00222342
-0.00226875
-0.0023099
-0.00166204
-0.0017272
-0.00178154
-0.00183106
-0.00123923
-0.00130982
-0.00136951
-0.00142355
-0.000896394
-0.00096784
-0.00102844
-0.00108273
-0.000633429
-0.000698444
-0.000754203
-0.00080435
-0.000455526
-0.000506967
-0.000550315
-0.000588954
-0.000288788
-0.000325931
-0.000358345
-0.000387435
825.531
821.434
816.339
807.151
761.875
713.361
723.612
756.096
753.894
715.978
673.797
644.415
632.144
676.982
722.418
734.298
731.645
730.716
730.933
826.977
824.697
795.492
687.723
645.382
645.564
657.411
680.762
629.093
606.244
598.936
588.638
584.726
606.63
597.857
591.148
585.454
584.553
617.198
665.131
592.124
559.056
590.338
652.632
652.43
649.945
639.136
630.684
620.147
608.704
589.715
551.417
448.903
312.963
204.307
153.236
130.123
131.995
128.824
194.236
288.783
333.455
336.477
316.517
287.577
270.198
245.195
208.652
165.772
115.865
64.3088
27.2863
12.1609
6.85051
1.81321
1.47623
1.58355
24.2012
26.7303
15.3583
10.3048
14.0012
20.5658
20.5515
3.51394
1.74819
1.74471
1.72806
1.69484
1.69349
1.69582
1.6439
1.52994
1.45685
1.4401
1.46219
10.3591
7.2091
3.42197
3.28837
5.74123
8.13905
7.10703
7.49128
7.04209
4.62841
4.88157
4.70379
4.40191
5.01363
4.91955
4.31854
1.54646
1.49093
1.43924
6.27189
8.69778
3.50103
3.17095
3.00672
2.74507
2.55501
2.50452
3.21452
5.83291
5.80042
5.73493
5.66487
3.99626
2.43858
2.77809
2.86546
2.89812
2.88567
10.6682
8.77219
8.42282
7.30339
7.15167
4.40298
2.50995
2.36314
2.79672
3.44942
2.42888
1.16752
0.196146
0.0905459
0.119743
0.168515
1.19365
2.2059
2.43839
0.281736
-0.0283177
1.43916
2.87343
3.73883
3.58473
1.31388
0.486402
0.018474
0.0157291
0.0296996
0.0464032
0.063187
0.0811134
0.161713
0.242916
0.202033
0.206777
0.4696
-0.0447629
-0.0420633
-0.0498812
-0.0545909
-0.0518144
-0.0380943
-0.00911892
0.00910457
0.0194691
0.0379051
0.0821423
0.084869
0.0708551
0.0878826
0.13018
0.209416
0.191738
0.12308
0.113727
-0.0514517
-0.0448946
-0.0445184
-0.0415042
-0.035747
-0.0241202
-0.00780467
0.00560181
0.0210009
0.10587
0.121271
0.130165
0.0784741
0.179719
0.246587
0.251217
0.251696
0.122945
0.0840294
-0.0423527
-0.0339444
-0.0365363
-0.0372906
-0.0305674
-0.0204793
-0.00794732
0.00307577
0.0219122
0.0973387
0.113353
0.043213
0.0452641
0.0972689
0.229646
0.251247
0.25313
0.172829
0.0756065
-0.0386403
-0.0310436
-0.024667
-0.0267654
-0.0262718
-0.0174136
-0.00721603
0.00343858
0.0133756
0.0159157
0.0237002
0.0329035
0.0413107
0.0477026
0.052583
0.0774951
0.0885455
0.0840986
0.072738
-0.0446678
-0.0280463
-0.0207007
-0.0140831
-0.0206617
-0.0148797
-0.00609529
0.00377383
0.0106221
0.0155492
0.022829
0.0305878
0.0379233
0.0442768
0.0499612
0.0554055
0.0606695
0.064603
0.0642613
-0.0452623
-0.0393313
-0.0226888
-0.0107775
-0.0155868
-0.0130387
-0.00561967
0.00245355
0.00943104
0.0145932
0.0212195
0.0279592
0.0344291
0.0404683
0.0462436
0.0519242
0.0577509
0.064803
0.0659734
-0.0407036
-0.0355752
-0.0301848
-0.0228765
-0.0165256
-0.0116362
-0.00511057
0.00120736
0.00741157
0.0141651
0.0194176
0.0250129
0.0306257
0.0358874
0.0412004
0.046829
0.0791346
0.156606
0.175223
-0.0363961
-0.0318857
-0.0270025
-0.0217821
-0.0162299
-0.010482
-0.00475013
0.000960911
0.00715968
0.0126389
0.0173239
0.0218809
0.0266104
0.0309306
0.0348461
0.0391426
0.122031
0.188513
0.189357
-0.0324439
-0.028499
-0.0241569
-0.0194992
-0.0145939
-0.00956035
-0.00451393
0.00065622
0.00632989
0.0110189
0.0147539
0.0187474
0.022634
0.0260061
0.0287022
0.0305221
0.0672274
0.165958
0.1855
-0.0288763
-0.0254474
-0.0216296
-0.017523
-0.0132118
-0.00879537
-0.00436944
-1.22759e-05
0.00439445
0.00921346
0.0124972
0.0158635
0.0189529
0.0215528
0.0233965
0.0241908
0.023522
0.0214078
0.183282
-0.0256762
-0.022714
-0.0193877
-0.0157967
-0.0120276
-0.00816685
-0.00429576
-0.000484297
0.00320992
0.0067413
0.0105405
0.0135613
0.0157641
0.0177587
0.0191301
0.0196492
0.0192441
0.0178121
0.0584541
-0.0228097
-0.0202668
-0.0173906
-0.0142726
-0.0109948
-0.00763371
-0.00426121
-0.000941578
0.00226884
0.00531983
0.00848262
0.0112004
0.0130481
0.014601
0.0157612
0.0163405
0.0164758
0.0159997
0.020934
-0.0202367
-0.0180693
-0.0156002
-0.0129108
-0.0100756
-0.0071629
-0.00423719
-0.00135765
0.00142191
0.00405101
0.00647635
0.00881663
0.0105852
0.0119765
0.0130333
0.0137256
0.0142338
0.0143909
0.12335
-0.0179189
-0.016087
-0.0139832
-0.011679
-0.00924089
-0.00672967
-0.00420323
-0.00171567
0.000683084
0.00294624
0.00502787
0.00688365
0.00847502
0.00977275
0.010761
0.0115085
0.0121618
0.0127139
0.129233
-0.0158245
-0.014291
-0.0125133
-0.0105535
-0.00847034
-0.00631774
-0.0041474
-0.0020081
5.49521e-05
0.00200007
0.00378864
0.00538684
0.00676897
0.00792186
0.00885772
0.00963603
0.0103815
0.011191
0.132009
-0.0139287
-0.0126595
-0.0111712
-0.00951794
-0.00775122
-0.00591837
-0.00406518
-0.00223502
-0.000467919
0.0012
0.00273723
0.00411893
0.0053305
0.00637229
0.00726868
0.00808144
0.00893119
0.00996347
0.135105
-0.0122128
-0.0111762
-0.00994374
-0.00856224
-0.00707674
-0.00552843
-0.00395738
-0.00240157
-0.000895775
0.000529506
0.00184929
0.00304658
0.004116
0.00506855
0.00593865
0.00679617
0.0077723
0.00903539
0.122859
-0.0106625
-0.00982928
-0.00882174
-0.00768023
-0.00644385
-0.00514813
-0.00382773
-0.00251545
-0.00124091
-2.92858e-05
0.00110034
0.00213763
0.00308472
0.00396106
0.00480992
0.00571184
0.00681764
0.00832501
0.122395
-0.00926613
-0.00860938
-0.00779843
-0.00686781
-0.00585123
-0.00477905
-0.00368092
-0.00258478
-0.00151548
-0.000493307
0.00046779
0.00136298
0.00220022
0.00300494
0.00382602
0.00475039
0.0059457
0.0120334
0.133111
-0.0080127
-0.00750804
-0.00686786
-0.00612151
-0.00529788
-0.00442271
-0.00352115
-0.00261675
-0.00173004
-0.000877033
-6.7299e-05
0.000698751
0.00143339
0.00216566
0.00294585
0.00385786
0.00506704
0.019313
0.13638
-0.00689168
-0.00651701
-0.00602409
-0.00543764
-0.0047823
-0.00407983
-0.00335143
-0.00261683
-0.00189283
-0.00119177
-0.000519546
0.0001271
0.000763967
0.0014228
0.00215342
0.00303058
0.00419904
0.0170549
0.139532
-0.00589254
-0.00562798
-0.00526089
-0.00481198
-0.00430226
-0.0037501
-0.00317339
-0.00258865
-0.00200962
-0.00144567
-0.000899616
-0.000364828
0.000178359
0.000765999
0.00145162
0.00231182
0.00349088
0.00520005
0.141604
-0.00500486
-0.00483252
-0.00457174
-0.00423987
-0.00385482
-0.00343222
-0.00298729
-0.00253407
-0.002084
-0.00164425
-0.00121529
-0.000787425
-0.000336278
0.000182109
0.000835716
0.00173151
0.00306363
0.00500181
0.0535637
-0.00421852
-0.00412229
-0.00395004
-0.00371631
-0.00343653
-0.00312414
-0.00279235
-0.00245349
-0.00211758
-0.00179067
-0.00147211
-0.00115036
-0.000797038
-0.000359171
0.000252205
0.00119145
0.00272786
0.0050219
0.0437086
-0.00352402
-0.00348935
-0.00338935
-0.00323634
-0.00304375
-0.00282339
-0.00258707
-0.00234611
-0.00211015
-0.00188549
-0.00167228
-0.00145994
-0.00121997
-0.000895827
-0.000386535
0.000491896
0.00205374
0.00444748
0.132326
-0.00291273
-0.00292637
-0.0028837
-0.0027953
-0.00267305
-0.00252752
-0.00236961
-0.00221031
-0.00205979
-0.00192606
-0.00181247
-0.00171317
-0.00160544
-0.00143818
-0.00111338
-0.000443791
0.000909973
0.00317352
0.134253
-0.00237715
-0.00242689
-0.00242781
-0.00238915
-0.00232152
-0.00223452
-0.00213844
-0.00204432
-0.00196354
-0.00190701
-0.00188347
-0.00189569
-0.00193307
-0.00195936
-0.00189249
-0.00155539
-0.000565923
0.00153385
0.13592
-0.00191094
-0.00198538
-0.00201723
-0.00201466
-0.00198713
-0.00194334
-0.001893
-0.00184724
-0.00181881
-0.00182209
-0.00187269
-0.00198515
-0.00216734
-0.00240856
-0.00265765
-0.00275696
-0.00227889
-0.000388606
0.124772
-0.0015088
-0.00159714
-0.00164831
-0.00166948
-0.00166889
-0.00165422
-0.00163434
-0.00162015
-0.00162523
-0.00166703
-0.00176807
-0.00195626
-0.00226287
-0.00271294
-0.00330762
-0.00395341
-0.00417692
-0.00255056
0.0829303
-0.00116632
-0.00125835
-0.00131833
-0.00135232
-0.00136711
-0.00136904
-0.00136574
-0.00136711
-0.0013864
-0.00144226
-0.00156212
-0.00178541
-0.00216695
-0.00277388
-0.00372444
-0.00508802
-0.00629092
-0.00516735
0.0692332
-0.000880426
-0.000966505
-0.00102595
-0.00106339
-0.00108376
-0.00109171
-0.00109308
-0.00109581
-0.00111099
-0.0011552
-0.00125545
-0.00145448
-0.00182059
-0.00246522
-0.00364319
-0.00574684
-0.0085609
-0.00865009
0.0662535
-0.000646528
-0.000716917
-0.00076794
-0.00080119
-0.000819288
-0.000824934
-0.000821817
-0.000815053
-0.000811748
-0.000822867
-0.000867499
-0.000978784
-0.00121761
-0.0017072
-0.00272612
-0.00535318
-0.0113417
-0.0140829
0.0587102
-0.000430587
-0.000482971
-0.000521497
-0.000545926
-0.000556718
-0.000554945
-0.000542543
-0.000522256
-0.000497664
-0.000473815
-0.000460056
-0.000476842
-0.000574416
-0.000869125
-0.00139202
-0.00442418
-0.017753
-0.0213574
0.0204075
)
;

boundaryField
{
    leftWall
    {
        type            fixedFluxPressure;
        gradient        uniform 0;
        value           nonuniform List<scalar> 
50
(
727.779
727.783
727.693
727.518
727.262
726.924
726.503
725.998
725.086
643.549
110.589
1.42322
1.46278
2.24882
2.03947
1.9526
2.39274
2.44853
0.691889
0.00390808
0.0131034
0.0136422
0.0106897
0.00753192
0.0050595
0.00294233
0.00114371
-0.000194458
-0.00106578
-0.00155589
-0.0017498
-0.00172042
-0.00153764
-0.00127298
-0.000991917
-0.000747502
-0.000574994
-0.00048976
-0.000490641
-0.000565944
-0.000698327
-0.000867498
-0.00105182
-0.0012297
-0.00138021
-0.00148201
-0.00150879
-0.00142033
-0.00113481
-0.00105593
)
;
    }
    rightWall
    {
        type            fixedFluxPressure;
        gradient        uniform 0;
        value           nonuniform List<scalar> 
50
(
718.242
719.148
718.405
708.26
694.384
692.973
709.198
734.194
730.933
617.198
131.995
1.58355
1.46219
1.43924
2.88567
2.43839
0.4696
0.113727
0.0840294
0.0756065
0.072738
0.0642613
0.0659734
0.175223
0.189357
0.1855
0.183282
0.0584541
0.020934
0.12335
0.129233
0.132009
0.135105
0.122859
0.122395
0.133111
0.13638
0.139532
0.141604
0.0535637
0.0437086
0.132326
0.134253
0.13592
0.124772
0.0829303
0.0692332
0.0662535
0.0587102
0.0204075
)
;
    }
    lowerWall
    {
        type            fixedFluxPressure;
        gradient        uniform 0;
        value           nonuniform List<scalar> 
62
(
727.779
727.936
728.595
729.578
730.834
732.345
734.103
736.137
738.471
741.135
744.157
747.551
751.306
755.381
759.704
764.152
768.541
772.275
775.367
779.397
782.498
783.333
782.152
782.152
781.786
781.086
780.576
780.361
780.458
779.928
779.454
822.268
825.429
826.294
826.455
819.527
820.041
820.773
822.16
824.546
827.043
828.919
832.477
819.527
817.515
813.768
807.061
798.654
789.318
779.252
769.577
765.881
760.818
755.108
749.221
741.435
736.362
732.4
728.312
723.555
719.957
718.242
)
;
    }
    atmosphere
    {
        type            totalPressure;
        rho             rho;
        psi             none;
        gamma           1;
        p0              uniform 0;
        value           nonuniform List<scalar> 
46
(
0
0
0
0
0
0
0
0
0
0
0
0
0
0
0
0
0
-4.31847e-07
-8.29448e-06
-3.21253e-05
-7.06588e-05
-0.000119025
-0.00017243
-0.000211743
-0.000237027
-0.000261592
-0.000285162
-0.00032303
-0.000366391
-0.000398044
-0.000416571
-0.000421719
-0.000414314
-0.000396098
-0.000369499
-0.000337327
-0.000302462
-0.000267553
-0.000234763
-0.000205504
-0.000179871
-0.000154859
-0.000118433
-5.52042e-05
0
0
)
;
    }
    defaultFaces
    {
        type            empty;
    }
}


// ************************************************************************* //
