/*--------------------------------*- C++ -*----------------------------------*\
  =========                 |
  \\      /  F ield         | OpenFOAM: The Open Source CFD Toolbox
   \\    /   O peration     | Website:  https://openfoam.org
    \\  /    A nd           | Version:  9
     \\/     M anipulation  |
\*---------------------------------------------------------------------------*/
FoamFile
{
    format      ascii;
    class       volVectorField;
    location    "14.6";
    object      U;
}
// * * * * * * * * * * * * * * * * * * * * * * * * * * * * * * * * * * * * * //

dimensions      [0 1 -1 0 0 0 0];

internalField   nonuniform List<vector> 
918
(
(2.47629 -0.138943 0)
(0.108704 0.722546 0)
(0.174008 1.09346 0)
(2.31834 0.153729 0)
(-0.058614 1.24139 -1.2038e-19)
(-0.0924034 0.643931 -5.32246e-18)
(0.523206 0.840069 -2.99689e-19)
(0.27658 0.153966 -2.99151e-20)
(3.00615 -0.0195639 0)
(-0.00892443 0.478712 0)
(-0.0181124 0.598001 0)
(0.605825 0.00669412 0)
(0.0107054 0.439105 0)
(-0.00288744 0.421698 0)
(0.0138929 0.342387 -1.30911e-18)
(-0.00540793 0.754827 -9.20832e-20)
(0.313606 0.0744561 2.15136e-18)
(0.0785083 0.640022 -2.26068e-19)
(1.52886 0.128622 0)
(-0.0283581 0.701749 0)
(0.196648 0.159075 -1.26878e-18)
(3.08302 -0.397378 0)
(2.92445 -0.505985 0)
(1.86116 -0.181103 0)
(0.512372 0.0401041 0)
(-0.0253363 0.521554 0)
(-0.00135329 0.494038 1.86597e-18)
(-0.0243848 1.44181 0)
(0.0729211 2.95266 0)
(0.169634 1.7888 0)
(-0.0414446 3.10234 0)
(0.0258765 1.60368 9.25555e-20)
(0.0220539 0.672453 0)
(-0.147425 0.775094 -2.03433e-22)
(-0.193914 1.0291 4.42842e-18)
(-0.0415772 1.04471 0)
(0.744407 -0.00602711 0)
(0.16321 0.249534 6.67204e-19)
(0.980686 1.49611 6.59738e-19)
(0.641217 0.774579 -5.21243e-19)
(0.789727 1.55839 6.30192e-20)
(0.412043 0.842983 -3.25458e-19)
(0.557164 0.309079 2.9421e-20)
(0.299141 0.154581 0)
(0.953434 0.560499 0)
(0.538006 0.306726 1.32198e-19)
(0.260516 0.164197 -1.35654e-19)
(0.871542 -0.0554885 0)
(3.02784 -0.00171126 0)
(3.00685 0.0178624 0)
(3.20086 -0.41774 0)
(3.04288 -0.0742188 0)
(3.03116 -0.0388452 0)
(0.017745 0.908912 -1.14535e-18)
(-0.0539904 0.975771 0)
(0.00257025 0.455753 0)
(-0.0293365 0.985264 0)
(-0.0120213 0.484679 0)
(-0.00217596 0.864214 0)
(-0.0528638 1.12545 0)
(-0.0129102 0.54869 0)
(-0.0267821 1.1811 0)
(-0.00678026 0.632535 0)
(0.789809 0.0115261 0)
(1.1705 -0.00165152 0)
(0.618722 0.0123324 0)
(1.12713 0.0175809 0)
(0.570462 0.00863092 0)
(0.225406 0.921982 1.96309e-18)
(0.0985379 1.2081 0)
(0.176302 1.06604 0)
(0.0331901 0.755774 2.20316e-23)
(0.0372233 0.498055 -2.93597e-18)
(0.0194616 0.747943 0)
(0.0059542 0.422033 0)
(-0.000700285 0.734554 4.52703e-24)
(0.000701222 0.414827 0)
(-0.0169395 0.743202 0)
(-0.0129536 0.428008 0)
(0.0505995 0.653966 0)
(0.0494196 0.46174 0)
(0.00866786 0.62403 1.23774e-18)
(0.00108351 0.345495 0)
(-0.0792306 4.66453 0)
(0.00785785 1.43353 9.14194e-20)
(-0.0104938 0.772981 -1.17489e-19)
(0.638764 0.152688 -7.50616e-19)
(0.322663 0.0657877 -7.28278e-19)
(0.647981 0.170461 -2.25393e-18)
(0.318982 0.095924 -1.45144e-18)
(0.0794463 0.626646 0)
(0.176405 1.3061 1.88012e-19)
(0.177732 0.725393 -2.99992e-19)
(2.06035 0.260928 0)
(1.10707 0.11844 0)
(3.03313 0.103884 0)
(3.10393 0.446056 0)
(2.8392 0.37745 -1.01189e-17)
(2.57811 0.361307 7.76442e-18)
(-0.071794 1.29243 0)
(-0.0115692 0.638362 0)
(-0.0170796 1.95509 0)
(-0.0533841 1.38262 0)
(-0.049887 0.697296 0)
(0.444593 0.299044 4.01631e-19)
(0.227554 0.165004 0)
(2.29608 -0.266405 0)
(1.3237 -0.119281 0)
(1.07793 0.0125563 0)
(1.01393 0.0186953 0)
(0.541761 0.0107451 0)
(1.01733 0.05603 0)
(0.822955 0.0704971 0)
(0.344265 0.02874 3.35969e-18)
(-0.00545449 0.451526 1.77784e-18)
(-0.0270852 0.784705 0)
(-0.0475027 0.847752 0)
(-0.0153107 0.460555 0)
(0.000131729 0.839724 1.81959e-18)
(7.20822e-05 0.487529 0)
(-0.00547902 0.845554 -5.60111e-18)
(-0.00488636 0.496761 1.88992e-18)
(0.0482184 3.63355 0)
(0.0353037 4.07944 0)
(-0.0165823 1.38414 -2.06578e-21)
(-0.0144034 1.33597 0)
(-0.00999229 0.727412 0)
(1.4098 0.0348233 0)
(0.760297 0.0153913 0)
(0.709681 0.014247 0)
(1.41591 -0.0328852 0)
(0.773389 -0.00876483 0)
(0.326546 0.486726 -8.37717e-19)
(0.1588 0.235593 0)
(0.329638 0.516343 9.38969e-20)
(0.165677 0.272163 0)
(1.22586 1.36902 1.68042e-19)
(0.769217 0.731494 -3.95388e-19)
(0.408045 1.41072 0)
(0.600607 1.51953 0)
(0.300298 0.808252 0)
(0.147632 0.358898 -4.44382e-19)
(0.611977 0.282605 0)
(0.315362 0.135272 3.9897e-19)
(1.41142 1.29043 0)
(1.57092 1.15533 0)
(0.865419 0.656083 4.64239e-19)
(1.71885 0.943698 0)
(1.05987 0.434667 2.30101e-20)
(1.47279 0.00809932 0)
(1.50088 -0.0292636 0)
(0.801811 -0.00443304 0)
(1.95038 -0.199794 0)
(1.65074 -0.148198 0)
(1.05212 -0.0889788 0)
(3.06126 0.164847 0)
(3.03105 0.0687804 0)
(3.01022 0.0531549 0)
(0.0336862 1.61768 6.07822e-19)
(0.0170175 0.835378 0)
(0.0165313 1.70487 1.07871e-18)
(0.00214508 0.942528 -9.69743e-19)
(0.0638377 1.1485 1.9042e-19)
(0.0473658 0.988451 0)
(0.0393026 0.52864 0)
(-0.0296453 1.01235 0)
(-0.00761368 0.521862 0)
(0.0166051 1.60737 -4.41991e-21)
(-0.0188011 0.863025 0)
(-0.054169 1.5722 -2.24995e-19)
(-0.0163743 0.813933 4.35682e-19)
(-0.00278636 1.03952 0)
(0.00966532 1.05605 0)
(-0.000523683 0.537364 0)
(0.00917527 1.19317 0)
(0.000203252 0.62522 0)
(1.46685 -0.00394732 0)
(0.788326 0.00793469 0)
(1.4395 0.0330442 0)
(0.761314 -0.000607678 0)
(0.675684 0.00530439 0)
(1.26262 0.0166121 0)
(1.20323 0.0472698 0)
(0.660083 0.0155118 0)
(-0.00580074 1.42077 -1.70535e-20)
(0.000184254 1.37708 0)
(0.00482008 0.732923 0)
(0.00172887 0.417221 0)
(0.288204 0.836668 0)
(0.256743 0.404127 -2.87567e-19)
(-0.00176696 0.636029 0)
(-0.00875261 0.367666 0)
(-3.75824e-05 4.37187 0)
(-0.0597588 4.65334 0)
(-0.0310908 4.57921 0)
(-0.0764726 3.30913 2.07346e-20)
(-0.0707587 4.56189 0)
(-0.0610245 4.1246 0)
(0.0040465 0.808464 1.07088e-20)
(0.0132257 1.54082 1.64967e-19)
(-0.0356525 1.47995 1.20715e-19)
(-0.00795708 0.813924 0)
(0.66672 0.106009 1.15248e-18)
(0.326556 0.0441908 -1.12947e-18)
(0.151367 1.14891 0)
(0.102308 0.58128 -2.7014e-19)
(0.119808 1.24949 -8.76735e-19)
(0.0523622 0.696193 8.72236e-19)
(0.809289 0.0240439 0)
(1.55689 0.0476473 0)
(1.70977 0.127635 0)
(0.919898 0.044511 0)
(0.00704282 1.207 0)
(0.0247566 1.21732 0)
(0.00389173 0.641732 0)
(0.487496 0.318492 1.20548e-18)
(0.44169 0.31274 -1.38918e-18)
(0.237198 0.165854 0)
(1.92969 0.151621 1.151e-19)
(1.1325 0.0924628 0)
(1.72039 0.117907 0)
(0.881947 0.0224399 0)
(0.680072 0.0858508 0)
(0.701337 0.0461632 -5.40237e-18)
(0.347426 0.0326113 1.99722e-18)
(0.0091018 0.807211 1.69759e-18)
(0.00220873 0.462482 4.08135e-20)
(-0.0108777 1.40842 -3.58663e-20)
(0.00613615 1.38675 1.36832e-18)
(-0.0149832 0.848955 6.30595e-20)
(-0.0119261 0.524486 -2.53362e-22)
(-0.107514 1.00068 -1.16689e-18)
(-0.0529602 1.3532 8.3543e-19)
(-0.0175323 1.35275 -1.3602e-18)
(1.42195 -0.0171651 0)
(1.44179 0.0202214 0)
(0.769506 -0.000239067 0)
(1.45237 0.0253522 0)
(1.36346 0.0462054 0)
(0.761662 0.0202869 0)
(1.30112 -0.00220352 0)
(1.31904 -0.00590343 0)
(0.695287 -0.00102497 0)
(0.308749 0.479523 -9.16954e-19)
(0.163371 0.245667 0)
(0.159412 0.31273 1.37383e-19)
(0.314003 0.594386 1.12552e-18)
(0.311839 0.556534 -6.66299e-19)
(0.159009 0.285868 1.30195e-18)
(0.282682 0.729047 2.18906e-18)
(0.150505 0.38666 3.95051e-19)
(0.639655 0.214283 1.53744e-18)
(0.630005 0.25517 3.99333e-19)
(0.318189 0.115511 7.49402e-19)
(1.9076 0.707803 -6.00352e-19)
(1.16029 0.333114 -7.02195e-19)
(-0.0366748 1.70805 4.63624e-19)
(-0.0124699 0.926932 0)
(1.601 0.0234018 0)
(1.51993 0.0650803 0)
(0.851703 0.026628 0)
(-0.00355923 1.38473 0)
(0.00507304 0.729575 2.50015e-18)
(0.00465011 0.731252 0)
(0.0020705 0.415097 -2.44708e-18)
(-0.0102773 1.38627 5.96888e-19)
(-0.00947385 1.4225 0)
(0.340781 0.494205 2.58408e-19)
(0.3644 0.552941 -8.64442e-19)
(0.173943 0.260914 7.82388e-19)
(-0.0256969 0.767325 -1.66667e-18)
(-0.0260606 0.689702 0)
(-0.0154141 0.412837 0)
(0.0293235 1.53324 -1.26232e-20)
(0.0302159 1.56179 -3.63751e-19)
(0.0170909 0.81382 -1.54491e-20)
(0.21625 1.05858 8.93004e-19)
(0.121163 0.51608 -5.94249e-19)
(0.0109972 1.49988 7.31638e-19)
(0.0554829 1.36713 -8.16945e-19)
(0.026433 0.769178 3.56985e-20)
(0.00748435 1.36614 -3.816e-18)
(-0.000239971 1.39327 4.41915e-18)
(0.00376948 0.829772 1.73662e-18)
(-0.0138448 0.805076 -1.72928e-18)
(-0.00431291 0.481393 -1.74227e-18)
(-0.0106572 1.41685 -4.50927e-18)
(-0.0152268 1.40032 4.59867e-18)
(0.291003 0.685253 0)
(0.304396 0.644 -2.29521e-18)
(0.154303 0.336614 9.93662e-19)
(0.285747 0.808331 1.18933e-18)
(0.140986 0.434172 -1.83506e-18)
(2.04859 0.319925 4.15465e-19)
(2.0403 0.542975 0)
(1.21291 0.219292 -4.0161e-19)
(-0.0745413 1.63121 -4.79198e-21)
(-0.0160835 1.69086 0)
(-0.0167021 0.921108 0)
(0.229846 0.958216 -3.23828e-19)
(0.251778 0.879924 -7.09302e-19)
(0.130531 0.470302 1.32932e-18)
(3.16441 -0.442888 0)
(3.34728 -0.414702 1.81117e-18)
(0.0553432 3.54163 0)
(0.0442382 2.87357 0)
(3.15926 0.249898 1.41895e-20)
(3.12355 0.506278 3.70879e-18)
(0.0186215 3.37629 -2.78289e-20)
(0.00778586 2.61436 0)
(-0.0412542 1.19622 1.55906e-18)
(0.193876 1.32364 0)
(3.45302 1.61169 -3.24979e-19)
(3.17434 0.272526 -2.96111e-20)
(3.14826 -0.118769 0)
(3.10047 -0.00042545 3.71066e-22)
(0.0397192 2.58324 0)
(0.152621 3.3232 0)
(-0.0600469 2.55686 0)
(-0.0301483 3.47658 3.1564e-19)
(-0.0309831 3.54439 1.99231e-19)
(2.63534 0.0483904 -1.36329e-20)
(3.04607 0.0306444 0)
(3.15521 0.0859687 0)
(-0.0636892 4.61001 0)
(-0.0492477 3.03821 0)
(-0.0768272 2.98528 0)
(0.643312 3.07933 2.67641e-19)
(3.33883 -0.422488 0)
(3.01136 -0.345832 0)
(3.1699 -0.0530635 2.27512e-18)
(3.2927 -0.328721 -2.73954e-18)
(3.10381 -0.125791 0)
(-0.0705926 4.52591 0)
(0.00537823 3.98312 0)
(-0.00355716 4.29619 0)
(-0.0330214 3.14877 0)
(-0.018275 2.91099 0)
(-0.0358132 2.48737 0)
(2.97376 -0.00334176 0)
(2.85091 0.0484761 -1.80472e-20)
(2.22248 3.01831 -3.25011e-19)
(3.15695 0.0444296 -2.27618e-18)
(3.19037 0.278159 2.76687e-18)
(3.0828 0.117322 0)
(3.39543 0.328865 2.0852e-18)
(3.35697 0.484341 -2.70406e-18)
(3.07115 0.41841 0)
(-0.0573806 3.29835 0)
(0.00330458 3.22214 8.5656e-20)
(-0.0316327 2.52819 -6.06607e-20)
(3.69915 0.551054 2.2636e-18)
(3.46616 0.206523 0)
(-0.150966 1.27142 -2.17154e-18)
(-0.0611826 0.882013 -1.35399e-19)
(-0.0826914 1.33782 2.99341e-18)
(-0.0339631 1.27122 -9.01932e-19)
(0.000692554 1.08959 0)
(-0.0266857 1.23944 6.96608e-19)
(-0.114642 1.38788 2.15209e-18)
(-0.0587116 1.34059 -1.31744e-18)
(-0.0768657 1.32061 0)
(1.30072 0.601097 0)
(1.19071 0.688618 0)
(3.53941 2.01399 9.54337e-19)
(3.02592 1.91855 -1.19183e-18)
(3.82553 1.6941 0)
(3.36586 1.14792 0)
(3.34942 0.280421 -3.91279e-18)
(2.89897 0.173066 4.83471e-18)
(3.35132 -0.15558 0)
(2.85457 -0.0762068 0)
(3.43642 0.0429423 0)
(3.59381 0.144969 0)
(3.28683 0.119831 0)
(3.55035 0.298507 0)
(3.40842 0.293015 0)
(3.32756 0.218027 0)
(0.0911431 2.7885 0)
(0.0318314 2.08146 0)
(0.118944 3.04208 0)
(0.0901412 2.197 0)
(0.208057 3.61723 0)
(0.138439 2.69921 -5.59354e-19)
(0.0461499 3.63006 0)
(0.00728892 3.03416 4.0548e-19)
(-0.0300804 3.20705 -5.16417e-19)
(-0.0645752 2.82773 0)
(-0.0269346 2.23237 0)
(-0.0790681 2.9291 0)
(-0.0576738 2.06806 0)
(-0.123605 4.73836 -2.45528e-19)
(-0.0880114 3.91758 2.7748e-19)
(-0.0818646 3.78679 3.08983e-19)
(-0.0554883 2.99809 0)
(-0.111551 3.7762 -4.58492e-19)
(-0.0412969 3.18238 -2.94886e-19)
(-0.0974208 4.76924 1.92382e-19)
(-0.107025 4.44361 -3.50722e-19)
(-0.0811315 4.31836 -3.78839e-19)
(3.03313 0.087751 3.3544e-18)
(2.29097 0.0320025 -4.22454e-18)
(2.89354 0.132227 -3.32334e-18)
(2.21206 0.0732158 4.15108e-18)
(3.36751 0.0270696 0)
(2.64196 -0.00283873 0)
(3.45215 0.0902373 0)
(3.31875 0.0186037 0)
(2.70457 0.00882664 0)
(3.67703 0.237327 0)
(3.43622 0.094645 0)
(2.85956 0.0557 0)
(-0.0314859 4.2805 -1.20998e-20)
(-0.0667187 4.63323 0)
(-0.0723542 4.50771 0)
(-0.0795551 3.45851 8.79198e-20)
(-0.0391054 2.73776 -3.46646e-21)
(-0.0927408 4.66043 1.1449e-19)
(-0.10531 4.46815 -1.15693e-19)
(-0.0869722 3.98906 0)
(-0.0653013 3.91686 0)
(-0.0323795 4.0317 0)
(-0.0770943 3.30562 0)
(-0.0450599 2.34661 0)
(0.935345 3.6316 -6.11774e-19)
(0.90915 2.82456 -1.77728e-19)
(0.435831 2.08058 -2.28939e-19)
(0.2543 2.3277 6.9881e-19)
(1.02026 4.2164 2.63781e-19)
(3.43301 -0.167513 0)
(3.32209 -0.256599 0)
(2.88318 -0.189545 0)
(3.47032 -0.0644256 0)
(3.34581 -0.147908 0)
(3.44893 -0.261069 0)
(3.51949 -0.283649 0)
(3.57947 -0.281199 0)
(3.22455 0.0931776 3.61478e-18)
(2.55556 0.0644278 -4.57088e-18)
(3.09705 0.106337 -3.55822e-18)
(2.50983 0.0565249 4.42736e-18)
(2.21874 3.38755 0)
(1.71779 2.91626 -4.48193e-19)
(2.54843 3.32368 -4.05216e-19)
(2.34179 2.50096 5.38439e-19)
(0.785855 1.22978 2.72846e-18)
(1.4514 0.216618 1.34194e-18)
(3.71806 0.301519 0)
(3.88744 0.568495 -1.84451e-18)
(3.29203 0.241939 -8.22431e-20)
(3.72511 0.437423 0)
(0.245121 1.31627 1.80099e-18)
(-0.012395 1.20373 -2.88399e-18)
(0.0633248 0.77115 1.61913e-18)
(0.281806 0.467923 -7.49888e-19)
(0.191652 1.3903 8.73302e-19)
(0.0532852 1.24004 0)
(0.0596002 1.09005 -1.13528e-18)
(0.198086 1.44772 -4.10322e-18)
(0.337268 1.56423 0)
(0.00860552 1.29016 1.19862e-19)
(-0.00977943 1.45729 -1.34326e-18)
(-0.0410906 1.30286 1.95281e-18)
(-0.0575636 1.41766 0)
(-0.0205697 1.38221 0)
(0.690031 1.06297 0)
(2.47849 2.46758 -1.06703e-18)
(2.61757 2.15 3.95956e-19)
(2.77065 2.85841 0)
(3.19886 3.04578 -3.9436e-19)
(3.14549 2.3916 2.82193e-20)
(0.814832 0.597499 -1.82631e-18)
(1.56898 0.695101 -1.62981e-20)
(1.24204 0.453638 8.72255e-19)
(1.29044 0.851702 5.95852e-20)
(0.950582 0.640856 -2.37307e-18)
(1.4781 0.719242 0)
(2.0097 1.10596 1.45682e-18)
(2.05063 1.02127 0)
(1.4272 0.797092 0)
(1.07257 0.554262 0)
(3.38618 2.17508 1.00698e-18)
(3.94 0.755 -1.86132e-18)
(3.83742 1.20753 0)
(3.52044 0.751941 0)
(1.39887 0.365944 1.33206e-18)
(3.27356 1.84176 -8.51358e-19)
(2.85445 1.65709 1.54615e-18)
(3.76313 1.37211 -1.83346e-18)
(3.09819 0.114594 2.46115e-18)
(3.1687 0.180717 -2.57613e-18)
(2.66207 0.0915823 0)
(3.30693 -0.0397224 0)
(3.20117 -0.0843873 -2.36391e-18)
(2.63207 -0.0321798 2.34308e-18)
(3.95643 0.0927677 0)
(3.76 0.14533 0)
(3.69371 0.155258 0)
(3.58836 0.204635 0)
(3.83263 0.0588496 0)
(3.7261 0.0521148 0)
(-0.0448043 2.51744 0)
(-0.0409386 2.02023 0)
(0.34355 3.97116 -4.11511e-19)
(0.651498 3.30894 -1.60863e-19)
(0.252294 3.01178 -3.59777e-19)
(0.337808 2.53084 5.76353e-19)
(0.44546 3.99414 0)
(0.455624 4.66165 -5.09764e-19)
(0.369823 4.71885 0)
(0.905805 4.38629 -3.79441e-19)
(0.672607 3.84261 9.69563e-19)
(0.584293 4.6395 4.46753e-19)
(0.727452 4.17704 -1.88102e-19)
(0.5879 4.30456 1.51316e-19)
(0.903309 4.6392 -6.63735e-19)
(0.735769 4.65431 0)
(0.847941 4.58071 5.04749e-19)
(-0.00882393 4.56835 -1.81178e-19)
(-0.0268823 3.6522 0)
(0.0878792 4.2923 5.48932e-19)
(-0.01589 4.39196 0)
(-0.010659 3.47263 -4.50902e-19)
(-0.0195766 2.92318 0)
(-0.114808 4.31221 -2.90127e-19)
(-0.122333 4.67362 0)
(-0.0649288 3.81238 0)
(-0.0522062 3.74363 3.26258e-19)
(-0.0568983 3.87702 1.03619e-20)
(-0.0430492 3.70776 6.25144e-19)
(-0.0447696 2.9447 4.06064e-21)
(-0.128579 4.69894 1.80462e-19)
(-0.118583 4.73304 1.03319e-19)
(-0.0213824 2.65906 0)
(-0.0016815 2.17034 0)
(-0.0589889 4.77866 4.86558e-19)
(-0.0646877 4.30749 4.25117e-19)
(-0.0996944 4.57982 -5.55397e-19)
(-0.00105107 4.74789 0)
(-0.0886126 4.50355 -3.09876e-19)
(-0.125513 4.12591 1.27838e-19)
(-0.092381 4.21696 -4.13976e-20)
(-0.0846921 4.71623 -2.1922e-19)
(-0.0957868 4.24264 -6.85764e-20)
(-0.0930634 4.19122 3.06389e-19)
(2.87234 0.0607501 -2.36075e-18)
(2.86019 0.0493143 2.27021e-18)
(2.33959 0.0343835 0)
(3.51296 0.190707 3.04258e-18)
(2.70686 0.125992 -3.30069e-18)
(2.25756 0.0640907 3.60521e-18)
(3.68594 0.333441 -4.01112e-19)
(3.20939 -0.04878 0)
(3.17138 -0.0139379 2.23451e-18)
(2.69018 -0.01254 -2.21689e-18)
(3.87709 0.120814 -1.25089e-19)
(3.77058 0.100814 1.07705e-18)
(4.15868 0.171547 0)
(4.22788 0.179174 -3.74667e-19)
(4.01458 0.143915 0)
(3.69632 0.154444 0)
(4.03244 0.0945385 0)
(3.71222 0.0868685 0)
(4.18472 0.112581 7.84517e-19)
(4.13744 0.0781227 -1.74583e-18)
(4.14004 0.112651 -8.47004e-19)
(4.18592 0.115223 -9.23361e-19)
(4.21465 0.226756 1.77189e-18)
(3.85299 0.187141 0)
(4.05895 0.298937 0)
(-0.0842471 4.54756 -1.36461e-19)
(-0.041403 4.61767 -1.17262e-20)
(-0.0766159 4.64062 0)
(-0.0637119 4.15445 1.38914e-19)
(-0.0618976 4.17811 2.26171e-20)
(-0.0647411 4.04005 -2.19833e-20)
(-0.0846793 3.49279 2.60927e-19)
(-0.150611 3.96978 -1.45115e-20)
(-0.111428 4.10336 7.47752e-20)
(-0.078234 3.36337 -1.32156e-19)
(-0.0270181 2.88876 1.58278e-19)
(-0.0862681 4.44731 5.17979e-21)
(-0.101529 4.63904 1.7138e-19)
(1.22949 4.33264 3.48559e-19)
(1.14646 4.51033 7.25013e-19)
(1.71703 3.43421 4.3337e-19)
(1.29177 3.52627 1.70849e-19)
(1.26946 2.85775 0)
(0.55489 2.34942 2.75638e-19)
(0.468955 1.76576 3.31747e-19)
(0.347228 2.59865 1.53492e-20)
(0.494508 3.20969 -1.16188e-18)
(0.637043 3.16733 8.78248e-19)
(0.437271 2.43505 0)
(0.297018 1.99812 -5.58776e-19)
(0.257023 3.10503 1.3968e-18)
(0.272567 2.74848 -3.19292e-20)
(0.15738 2.30201 -1.75128e-18)
(0.60089 1.4325 1.46802e-18)
(0.585143 1.64116 0)
(3.58363 -0.0752392 8.63481e-20)
(3.61859 -0.254179 -7.25251e-20)
(3.72131 -0.217828 -1.26527e-18)
(3.75924 -0.126152 1.28113e-18)
(3.67615 -0.0489867 0)
(2.43277 3.85267 0)
(2.6121 3.89891 0)
(2.88094 3.60662 0)
(2.73218 3.63127 0)
(0.866656 1.41368 -3.41291e-21)
(0.620658 1.05387 0)
(1.72785 3.41567 1.50343e-20)
(1.4313 3.49083 0)
(1.34324 2.98647 -1.28656e-18)
(1.4241 2.92449 8.26093e-19)
(1.7974 0.310754 0)
(1.43575 0.262498 3.51824e-19)
(2.41788 0.35862 2.18954e-18)
(1.79145 0.284761 -7.84771e-19)
(1.43017 0.112187 -2.49253e-18)
(4.26512 0.78452 -2.56182e-18)
(3.85984 0.99056 -3.65493e-20)
(3.30794 0.841937 2.06535e-18)
(3.8824 0.741795 1.81097e-18)
(3.13005 0.46442 -3.04146e-18)
(2.91755 0.451232 3.74577e-19)
(3.20203 0.6812 -8.1776e-19)
(2.98482 0.681573 0)
(3.76472 0.561236 1.53568e-18)
(4.09963 0.625541 0)
(4.09545 0.771595 0)
(4.04234 0.412767 8.22675e-19)
(4.29554 0.638072 -3.03568e-20)
(4.24505 0.710192 -4.52243e-19)
(4.17221 0.637759 0)
(3.61757 0.129287 1.71595e-18)
(4.19033 0.181605 2.14133e-18)
(4.09158 0.15018 -1.67724e-18)
(4.1379 0.238681 -1.44092e-18)
(3.74796 0.23655 -2.15359e-18)
(3.30856 0.374867 0)
(3.40723 0.300897 0)
(2.56226 0.190175 -1.26454e-18)
(2.1127 0.118878 4.76222e-19)
(4.03901 0.350418 1.93761e-18)
(4.2865 0.429255 -2.34372e-18)
(4.28597 0.485722 2.06633e-18)
(4.15913 0.489648 0)
(4.25577 0.333967 0)
(4.2653 0.320601 -9.79509e-19)
(4.21458 0.313641 -1.59426e-18)
(2.24179 3.50286 6.20133e-19)
(1.95723 3.2561 -6.83855e-19)
(1.46604 2.38327 -1.03381e-18)
(1.20377 2.01995 2.67347e-19)
(0.896842 1.39697 -2.63478e-18)
(0.804595 1.23099 9.23787e-19)
(0.609008 0.915868 -1.89177e-21)
(1.13064 1.80688 -1.1401e-18)
(1.15871 1.90609 1.70195e-18)
(0.988086 1.71961 5.06987e-19)
(0.796411 1.30404 -5.13619e-19)
(0.643366 1.08674 0)
(2.46809 2.62045 -1.15404e-19)
(0.720496 1.15312 8.59448e-19)
(0.94261 0.901541 1.15855e-18)
(0.768511 0.822781 1.34126e-18)
(1.09719 0.75532 1.34325e-18)
(1.48621 1.05596 -2.27369e-18)
(1.40209 1.08398 1.84235e-18)
(1.01586 0.775646 -6.78127e-19)
(0.827606 0.575167 1.49733e-18)
(1.62502 0.492619 -7.77752e-19)
(1.56976 0.511016 0)
(1.24733 0.409317 4.7274e-21)
(2.53092 1.52248 7.75978e-19)
(2.10146 1.27841 -2.81027e-18)
(1.70748 1.19588 9.46075e-21)
(1.68028 1.10164 0)
(2.87976 2.5995 8.73339e-19)
(3.44659 2.74207 1.03565e-18)
(3.25727 2.92403 -1.19387e-18)
(3.54843 2.75066 -4.2764e-19)
(3.4716 2.5841 -1.34773e-19)
(3.50236 2.77717 1.386e-19)
(3.68036 2.25665 -1.67713e-18)
(3.70106 2.48163 4.00775e-19)
(3.77542 2.42048 0)
(3.77517 2.1769 -5.78997e-19)
(4.0525 1.06809 5.79755e-19)
(4.27304 0.986328 1.00094e-18)
(4.29889 0.96001 1.01029e-18)
(4.05781 1.3223 -1.14813e-18)
(4.09853 1.34014 0)
(4.14717 1.22448 0)
(3.34138 1.23352 -1.52793e-20)
(2.43046 0.667314 0)
(2.73425 0.743804 9.30025e-19)
(3.24991 0.883398 -2.61903e-20)
(3.78111 1.5291 5.10081e-18)
(3.5804 1.75702 1.30957e-18)
(3.49345 1.53752 -1.33958e-18)
(3.05431 1.36984 1.43631e-18)
(2.77969 1.37172 8.23663e-19)
(2.32597 1.16036 -7.9771e-19)
(3.67203 -0.0857566 1.98251e-18)
(3.89467 -0.0291594 0)
(3.85891 -0.0667631 1.34064e-18)
(3.74284 -0.0596132 -2.98459e-18)
(3.98055 0.0370682 1.46038e-18)
(3.90452 0.11313 -3.07959e-18)
(3.73998 0.127719 0)
(3.55644 0.173287 -6.27861e-19)
(3.81202 0.122795 1.60356e-18)
(3.69202 0.191217 -8.2168e-19)
(3.6004 0.170919 5.9007e-19)
(-0.0851267 2.60905 0)
(-0.0556198 3.40933 0)
(-0.0365642 2.47406 0)
(-0.02446 1.98506 0)
(0.0337291 3.93317 6.72406e-19)
(0.129204 3.71299 -1.7385e-19)
(0.302115 4.63093 -2.29817e-19)
(0.237784 4.44372 2.42501e-19)
(-0.039949 4.28897 -4.98667e-19)
(-0.00336973 4.31994 3.74458e-19)
(0.0827314 3.86354 2.23659e-20)
(-0.000379866 3.55498 -4.68025e-19)
(-0.0206005 3.31399 -6.2445e-20)
(-0.0502032 3.67429 -5.6892e-20)
(0.139698 4.47935 -5.86262e-19)
(0.166668 4.29841 0)
(0.261491 4.63634 2.96078e-19)
(0.252885 4.70282 2.52975e-19)
(0.585447 4.45046 -2.25853e-19)
(0.404719 3.80924 0)
(0.454371 3.65608 -1.11589e-18)
(0.55828 4.02467 7.90681e-19)
(0.468921 4.56528 -6.14533e-19)
(0.358507 4.44223 3.30647e-19)
(0.291065 4.17577 0)
(-0.0515793 4.75237 -5.53405e-19)
(-0.0887651 4.51606 -6.41121e-19)
(-0.0918779 4.72775 0)
(-0.0419937 4.35552 -6.19288e-21)
(-0.0344845 4.63604 2.74287e-19)
(-0.129268 3.89752 4.49275e-20)
(-0.0627618 3.51301 -6.57151e-19)
(-0.106537 3.94627 1.75271e-19)
(-0.151898 4.52173 2.33347e-19)
(-0.090664 4.33304 0)
(-0.0717824 3.91297 0)
(-0.0871798 2.94497 2.02385e-19)
(-0.0557881 3.67216 -6.31467e-20)
(-0.0812451 3.65591 0)
(-0.0911947 2.72837 1.59471e-19)
(-0.048334 2.23308 -3.08872e-19)
(3.76056 0.0318116 0)
(3.73138 0.00719531 -2.03048e-19)
(4.17935 0.0670241 -1.43829e-18)
(4.08863 0.0453846 0)
(3.87552 0.0169697 0)
(4.14969 0.0363688 -1.24857e-20)
(4.10026 0.0343511 2.37624e-18)
(4.00036 0.079502 2.84232e-18)
(3.75641 0.118084 0)
(3.55873 0.109521 0)
(4.01375 0.0929995 1.4158e-18)
(3.70407 0.115387 0)
(3.47312 0.128312 0)
(-0.0935145 4.67834 0)
(-0.117326 4.65307 1.07839e-20)
(-0.090764 4.70102 6.35554e-20)
(-0.0700121 3.86671 0)
(-0.122707 4.53816 1.11315e-19)
(-0.079442 4.26589 -6.3662e-20)
(-0.064827 3.97166 0)
(1.41242 4.20204 0)
(1.19854 4.56829 -1.297e-18)
(1.21669 4.48639 0)
(1.56387 4.47183 1.48457e-18)
(1.57784 4.08995 0)
(1.48695 4.34836 -6.06867e-19)
(1.02598 2.27316 -3.40492e-20)
(0.720758 1.66981 -1.75026e-18)
(0.600142 1.2457 2.1353e-18)
(0.719015 1.86241 3.98108e-19)
(0.987832 2.45772 0)
(1.05089 2.41203 0)
(0.728855 1.71276 0)
(0.540348 1.35073 -1.39988e-18)
(1.21706 3.80157 -9.84481e-19)
(1.14019 3.02396 -2.35901e-19)
(1.33842 3.43605 1.92931e-19)
(0.605932 2.06942 0)
(0.628512 1.97067 0)
(0.468549 1.59465 -3.94065e-19)
(0.96794 2.75451 0)
(2.68916 3.56774 0)
(2.3997 3.02329 -1.45465e-18)
(2.56182 3.0365 -8.5835e-20)
(2.43321 3.4151 0)
(2.30561 3.16768 2.22132e-18)
(3.27891 3.07758 -3.89451e-19)
(3.12488 3.3071 0)
(3.10815 3.13268 6.30017e-19)
(2.86901 3.40634 0)
(2.88646 3.19973 0)
(1.22691 2.03389 -9.32533e-19)
(1.43389 2.43356 -7.00624e-19)
(1.77319 3.0108 1.20725e-18)
(1.71539 2.99058 -3.62872e-19)
(1.07798 1.84775 0)
(1.22284 2.23767 4.71945e-19)
(0.729145 1.30706 -7.17156e-19)
(0.590187 1.05874 -6.21576e-22)
(1.94969 3.71668 0)
(2.20836 3.75368 -5.42317e-19)
(2.34025 3.98251 0)
(2.2928 0.528679 0)
(1.62403 0.342446 0)
(1.21474 0.277331 0)
(2.21906 0.554392 -1.46424e-18)
(1.64362 0.403112 8.16883e-19)
(2.15008 0.128882 -9.84028e-19)
(2.63214 0.296988 0)
(2.47132 0.301288 4.13057e-19)
(1.77437 0.135628 1.6313e-18)
(1.53383 0.0812648 -1.03592e-18)
(0.755444 1.57174 8.59675e-19)
(0.973593 1.83935 0)
(0.544907 1.45352 1.56441e-18)
(0.532851 1.62651 -1.4283e-18)
(0.770201 1.82878 -9.91005e-19)
(2.09828 2.48169 1.33939e-18)
(2.12146 2.73288 0)
(1.60797 1.69667 -2.76849e-19)
(2.03545 2.00708 1.74646e-18)
(1.38125 1.30839 -4.24271e-19)
(1.61107 1.32824 4.51519e-19)
(2.13348 1.52437 1.02424e-18)
(2.46684 1.67983 0)
(2.30079 1.86915 0)
(2.0344 1.62 0)
(3.95446 2.06739 3.84238e-19)
(3.7666 1.88235 -1.26205e-18)
(3.82211 2.01885 1.04507e-18)
(3.90513 1.7625 -1.007e-18)
(4.15388 1.66359 0)
(4.11089 1.82885 -2.97515e-19)
(2.85773 1.16407 -1.89654e-18)
(2.98633 1.16295 -2.41102e-18)
(2.34953 1.04632 1.45592e-18)
(2.15442 0.937474 -1.41995e-18)
(2.47816 0.847092 -1.17771e-18)
(2.19303 0.779341 1.44827e-18)
(4.00842 0.0331358 -1.52719e-18)
(4.05273 0.0402751 3.1267e-18)
(3.76778 -0.066183 1.89883e-18)
(3.79097 -0.0740935 -2.28427e-18)
(3.95929 0.0100505 0)
(4.0559 0.0223361 -3.72557e-18)
(0.0791288 4.75218 1.067e-19)
(0.0501656 4.72112 0)
(0.173044 4.72389 9.52801e-19)
(0.194473 4.74028 -8.66843e-19)
(0.214249 4.7048 4.2853e-19)
(0.105527 4.64601 0)
(-0.115354 4.75863 0)
(-0.119914 4.40888 -6.21153e-20)
(-0.118958 4.34692 5.56832e-20)
(-0.127552 4.48614 7.48729e-21)
(-0.118429 4.70392 -1.01477e-19)
(-0.0960151 4.69236 5.51044e-20)
(1.88076 4.01823 -1.64239e-18)
(1.81943 4.02732 1.7399e-18)
(1.67552 4.39484 -8.5396e-19)
(1.69489 4.28427 7.61396e-20)
(2.24649 4.06054 0)
(1.84126 4.19281 -6.37187e-19)
(1.96869 3.93055 6.17957e-19)
(1.81181 4.36018 8.34153e-19)
(2.06697 4.20906 0)
(2.22061 4.089 0)
(1.14638 3.66 1.49659e-18)
(0.835544 2.84588 2.02834e-18)
(0.963474 3.0243 -1.39293e-18)
(0.75473 3.00727 -2.32552e-19)
(0.907955 3.76322 4.67115e-19)
(0.727807 3.39893 -1.13615e-18)
(0.757442 1.48698 -1.21848e-18)
(0.756853 1.33609 0)
(0.611341 1.13064 -1.33917e-18)
(1.12619 2.09224 0)
(1.10372 2.1795 0)
(1.38012 2.21057 -1.09276e-18)
(1.08026 2.03403 -1.03804e-18)
(1.03272 2.05331 1.10105e-18)
(1.05166 1.53392 0)
(1.43446 1.78033 -6.02356e-19)
(1.6514 2.14021 -8.56137e-19)
(1.43329 2.10174 0)
(0.883812 1.83214 7.14308e-19)
(0.795609 1.69092 0)
(2.92641 2.29457 -1.84544e-18)
(3.32929 2.46788 2.60599e-18)
(3.29189 2.19127 -2.59022e-18)
(2.63338 2.03001 -2.31127e-19)
(2.74682 1.94649 -9.73774e-19)
(1.28057 2.21206 7.97748e-19)
(1.3352 2.26905 -1.36225e-18)
(1.47592 2.35199 1.79559e-18)
(1.81369 2.58234 -1.16697e-18)
(1.91076 2.9584 -1.56842e-18)
(1.58457 2.51442 -1.18829e-19)
(1.65461 2.6561 1.37341e-18)
(1.83349 2.71817 9.67603e-20)
(2.03955 3.02211 6.50811e-19)
)
;

boundaryField
{
    wall-4
    {
        type            noSlip;
    }
    velocity-inlet-5
    {
        type            fixedValue;
        value           uniform (3 0 0);
    }
    velocity-inlet-6
    {
        type            fixedValue;
        value           uniform (0 1 0);
    }
    pressure-outlet-7
    {
        type            zeroGradient;
    }
    wall-8
    {
        type            noSlip;
    }
    frontAndBackPlanes
    {
        type            empty;
    }
}


// ************************************************************************* //
