# vtk DataFile Version 2.0
track0
ASCII
DATASET POLYDATA
POINTS 12084 float
-0.0205 0.001 1e-05
-0.02052 0.000999985 1e-05
-0.02054 0.000999974 1e-05
-0.02056 0.000999965 1e-05
-0.02058 0.000999959 1e-05
-0.0206 0.000999956 1e-05
-0.0205 0.00367778 1e-05
-0.02052 0.00367778 1e-05
-0.02054 0.00367777 1e-05
-0.02056 0.00367777 1e-05
-0.02058 0.00367777 1e-05
-0.0206 0.00367777 1e-05
-0.0205 0.00635556 1e-05
-0.02052 0.00635555 1e-05
-0.02054 0.00635555 1e-05
-0.02056 0.00635555 1e-05
-0.02058 0.00635555 1e-05
-0.0206 0.00635555 1e-05
-0.0205 0.00903333 1e-05
-0.02052 0.00903333 1e-05
-0.02054 0.00903333 1e-05
-0.02056 0.00903333 1e-05
-0.02058 0.00903333 1e-05
-0.0206 0.00903333 1e-05
-0.0205 0.0117111 1e-05
-0.02052 0.0117111 1e-05
-0.02054 0.0117111 1e-05
-0.02056 0.0117111 1e-05
-0.02058 0.0117111 1e-05
-0.0206 0.0117111 1e-05
-0.0205 0.0143889 1e-05
-0.02052 0.0143889 1e-05
-0.02054 0.0143889 1e-05
-0.02056 0.0143889 1e-05
-0.02058 0.0143889 1e-05
-0.0206 0.0143889 1e-05
-0.0205 0.0170667 1e-05
-0.02052 0.0170667 1e-05
-0.02054 0.0170667 1e-05
-0.02056 0.0170667 1e-05
-0.02058 0.0170667 1e-05
-0.0206 0.0170667 1e-05
-0.0205 0.0197444 1e-05
-0.02052 0.0197444 1e-05
-0.02054 0.0197444 1e-05
-0.02056 0.0197444 1e-05
-0.02058 0.0197444 1e-05
-0.0206 0.0197444 1e-05
-0.0205 0.0224222 1e-05
-0.02052 0.0224222 1e-05
-0.02054 0.0224222 1e-05
-0.02056 0.0224222 1e-05
-0.02058 0.0224222 1e-05
-0.0206 0.0224222 1e-05
-0.0205 0.0251 1e-05
-0.02052 0.0250998 1e-05
-0.02054 0.0250997 1e-05
-0.02056 0.0250995 1e-05
-0.02058 0.0250995 1e-05
-0.0206 0.0250994 1e-05
-0.0205 0.001 1e-05
-0.0202034 0.00100022 1e-05
-0.0199069 0.00100067 1e-05
-0.0196103 0.00100133 1e-05
-0.0193137 0.00100219 1e-05
-0.0190172 0.00100326 1e-05
-0.0187132 0.00100467 1e-05
-0.0184093 0.00100589 1e-05
-0.0181054 0.00100711 1e-05
-0.0178015 0.00100833 1e-05
-0.0174976 0.00100954 1e-05
-0.0172058 0.00101084 1e-05
-0.016914 0.00101194 1e-05
-0.0166222 0.00101304 1e-05
-0.0163305 0.00101414 1e-05
-0.0160387 0.00101524 1e-05
-0.0157586 0.00101638 1e-05
-0.0154784 0.00101746 1e-05
-0.0151983 0.00101858 1e-05
-0.0149182 0.00101973 1e-05
-0.0146381 0.00102092 1e-05
-0.0143757 0.0010221 1e-05
-0.0141133 0.00102328 1e-05
-0.013851 0.0010245 1e-05
-0.0135886 0.00102574 1e-05
-0.0133671 0.00102682 1e-05
-0.0133524 0.00102689 1e-05
-0.0133377 0.00102696 1e-05
-0.0133229 0.00102704 1e-05
-0.0133082 0.00102711 1e-05
-0.0132934 0.00102718 1e-05
-0.0130353 0.00102847 1e-05
-0.0127771 0.00102978 1e-05
-0.0125189 0.0010311 1e-05
-0.0122607 0.00103244 1e-05
-0.0120025 0.0010338 1e-05
-0.0117547 0.00103511 1e-05
-0.0115068 0.00103643 1e-05
-0.0112589 0.00103775 1e-05
-0.0110111 0.00103908 1e-05
-0.0107632 0.00104041 1e-05
-0.0105252 0.0010417 1e-05
-0.0102873 0.00104298 1e-05
-0.0100493 0.00104426 1e-05
-0.00981133 0.00104555 1e-05
-0.00957337 0.00104683 1e-05
-0.00934491 0.00104806 1e-05
-0.00911645 0.00104929 1e-05
-0.00888799 0.00105052 1e-05
-0.00865954 0.00105174 1e-05
-0.00843108 0.00105296 1e-05
-0.00821175 0.00105413 1e-05
-0.00799242 0.0010553 1e-05
-0.00777309 0.00105646 1e-05
-0.00755376 0.00105762 1e-05
-0.00733443 0.00105878 1e-05
-0.00712387 0.00105988 1e-05
-0.0069133 0.00106099 1e-05
-0.00670273 0.00106209 1e-05
-0.00649216 0.00106319 1e-05
-0.0062816 0.00106428 1e-05
-0.00607944 0.00106533 1e-05
-0.00587729 0.00106637 1e-05
-0.00567514 0.00106741 1e-05
-0.00547298 0.00106845 1e-05
-0.00527083 0.00106949 1e-05
-0.00507675 0.00107048 1e-05
-0.00488267 0.00107147 1e-05
-0.0046886 0.00107246 1e-05
-0.00449452 0.00107345 1e-05
-0.00430044 0.00107444 1e-05
-0.00411412 0.00107538 1e-05
-0.0039278 0.00107633 1e-05
-0.00374147 0.00107728 1e-05
-0.00355515 0.00107823 1e-05
-0.00336883 0.00107917 1e-05
-0.00318995 0.00108008 1e-05
-0.00301107 0.001081 1e-05
-0.00283219 0.00108192 1e-05
-0.00265331 0.00108284 1e-05
-0.00247443 0.00108377 1e-05
-0.0023027 0.00108466 1e-05
-0.00213097 0.00108557 1e-05
-0.00195924 0.00108648 1e-05
-0.00178751 0.0010874 1e-05
-0.00161577 0.00108834 1e-05
-0.0014509 0.00108923 1e-05
-0.00128603 0.00109015 1e-05
-0.00112116 0.00109109 1e-05
-0.00095629 0.00109205 1e-05
-0.000791418 0.00109303 1e-05
-0.000633135 0.00109399 1e-05
-0.000474851 0.00109498 1e-05
-0.000316568 0.001096 1e-05
-0.000158285 0.00109704 1e-05
0 0.00109812 1e-05
0.000105677 0.00109884 1e-05
0.000211355 0.00109958 1e-05
0.000317032 0.00110033 1e-05
0.000422709 0.00110108 1e-05
0.000528387 0.00110184 1e-05
0.000634886 0.00110259 1e-05
0.000741385 0.00110335 1e-05
0.000847885 0.00110409 1e-05
0.000954384 0.00110483 1e-05
0.00106088 0.00110556 1e-05
0.00116821 0.00110628 1e-05
0.00127554 0.00110699 1e-05
0.00138286 0.00110769 1e-05
0.00149019 0.00110837 1e-05
0.00159752 0.00110903 1e-05
0.00170568 0.00110969 1e-05
0.00181384 0.00111033 1e-05
0.001922 0.00111095 1e-05
0.00203016 0.00111156 1e-05
0.00213833 0.00111215 1e-05
0.00224733 0.00111273 1e-05
0.00235633 0.0011133 1e-05
0.00246533 0.00111385 1e-05
0.00257434 0.00111439 1e-05
0.00268334 0.00111492 1e-05
0.00279319 0.00111542 1e-05
0.00290304 0.00111592 1e-05
0.00301289 0.00111641 1e-05
0.00312274 0.00111688 1e-05
0.00323259 0.00111734 1e-05
0.00334329 0.00111778 1e-05
0.003454 0.00111821 1e-05
0.0035647 0.00111863 1e-05
0.0036754 0.00111904 1e-05
0.00378611 0.00111943 1e-05
0.00389767 0.00111981 1e-05
0.00400924 0.00112018 1e-05
0.0041208 0.00112053 1e-05
0.00423237 0.00112088 1e-05
0.00434393 0.0011212 1e-05
0.00445636 0.00112151 1e-05
0.00456879 0.00112182 1e-05
0.00468123 0.00112211 1e-05
0.00479366 0.00112239 1e-05
0.00490609 0.00112265 1e-05
0.0050194 0.0011229 1e-05
0.0051327 0.00112314 1e-05
0.00524601 0.00112336 1e-05
0.00535932 0.00112358 1e-05
0.00547262 0.00112378 1e-05
0.00558681 0.00112396 1e-05
0.005701 0.00112414 1e-05
0.00581518 0.00112431 1e-05
0.00592937 0.00112446 1e-05
0.00604356 0.0011246 1e-05
0.00615863 0.00112472 1e-05
0.00627371 0.00112484 1e-05
0.00638878 0.00112494 1e-05
0.00650386 0.00112503 1e-05
0.00661893 0.00112511 1e-05
0.0067349 0.00112518 1e-05
0.00685087 0.00112523 1e-05
0.00696684 0.00112528 1e-05
0.00708281 0.00112531 1e-05
0.00719878 0.00112533 1e-05
0.00731565 0.00112534 1e-05
0.00743252 0.00112534 1e-05
0.00754939 0.00112532 1e-05
0.00766626 0.0011253 1e-05
0.00778313 0.00112526 1e-05
0.00790091 0.00112521 1e-05
0.00801869 0.00112514 1e-05
0.00813647 0.00112507 1e-05
0.00825425 0.00112499 1e-05
0.00837203 0.00112489 1e-05
0.00840704 0.00112486 1e-05
0.00844205 0.00112483 1e-05
0.00847706 0.00112479 1e-05
0.00851207 0.00112476 1e-05
0.00854635 0.00112472 1e-05
0.00863018 0.00112463 1e-05
0.00871401 0.00112454 1e-05
0.00879784 0.00112444 1e-05
0.00888168 0.00112433 1e-05
0.00896551 0.00112422 1e-05
0.00908513 0.00112405 1e-05
0.00920475 0.00112386 1e-05
0.00932437 0.00112367 1e-05
0.00944398 0.00112347 1e-05
0.0095636 0.00112325 1e-05
0.00968415 0.00112302 1e-05
0.0098047 0.00112277 1e-05
0.00992525 0.00112252 1e-05
0.0100458 0.00112225 1e-05
0.0101663 0.00112197 1e-05
0.0102878 0.00112168 1e-05
0.0104093 0.00112137 1e-05
0.0105308 0.00112105 1e-05
0.0106523 0.00112072 1e-05
0.0107738 0.00112038 1e-05
0.0108962 0.00112002 1e-05
0.0110186 0.00111965 1e-05
0.0111411 0.00111927 1e-05
0.0112635 0.00111887 1e-05
0.0113859 0.00111847 1e-05
0.0115093 0.00111804 1e-05
0.0116327 0.0011176 1e-05
0.0117561 0.00111715 1e-05
0.0118795 0.00111669 1e-05
0.0120028 0.00111622 1e-05
0.0121272 0.00111573 1e-05
0.0122515 0.00111522 1e-05
0.0123759 0.00111471 1e-05
0.0125002 0.00111418 1e-05
0.0126245 0.00111364 1e-05
0.0127498 0.00111307 1e-05
0.0128752 0.0011125 1e-05
0.0130005 0.00111192 1e-05
0.0131258 0.00111132 1e-05
0.0132511 0.0011107 1e-05
0.0133774 0.00111007 1e-05
0.0135036 0.00110943 1e-05
0.0136299 0.00110877 1e-05
0.0137562 0.0011081 1e-05
0.0138825 0.00110742 1e-05
0.0140098 0.00110671 1e-05
0.014137 0.001106 1e-05
0.0142643 0.00110527 1e-05
0.0143915 0.00110452 1e-05
0.0145188 0.00110376 1e-05
0.0146471 0.00110299 1e-05
0.0147753 0.0011022 1e-05
0.0149036 0.00110139 1e-05
0.0150318 0.00110057 1e-05
0.0151601 0.00109973 1e-05
0.0152893 0.00109889 1e-05
0.0154186 0.00109802 1e-05
0.0155478 0.00109713 1e-05
0.0156771 0.00109623 1e-05
0.0158063 0.00109532 1e-05
0.0159366 0.0010944 1e-05
0.0160668 0.00109345 1e-05
0.0161971 0.00109249 1e-05
0.0163273 0.00109151 1e-05
0.0164576 0.00109051 1e-05
0.0165889 0.00108952 1e-05
0.0167201 0.00108849 1e-05
0.0168514 0.00108744 1e-05
0.0169827 0.00108637 1e-05
0.0171139 0.0010853 1e-05
0.0172462 0.00108422 1e-05
0.0173785 0.00108311 1e-05
0.0175108 0.00108197 1e-05
0.0176431 0.00108082 1e-05
0.0177754 0.00107966 1e-05
0.0179087 0.0010785 1e-05
0.018042 0.00107731 1e-05
0.0181753 0.00107608 1e-05
0.0183087 0.00107484 1e-05
0.018442 0.00107359 1e-05
0.0185763 0.00107234 1e-05
0.0187107 0.00107106 1e-05
0.018845 0.00106974 1e-05
0.0189794 0.0010684 1e-05
0.0191137 0.00106707 1e-05
0.0192491 0.00106572 1e-05
0.0193845 0.00106435 1e-05
0.0195199 0.00106293 1e-05
0.0196553 0.0010615 1e-05
0.0197907 0.00106007 1e-05
0.0199272 0.00105863 1e-05
0.0200636 0.00105716 1e-05
0.0202001 0.00105565 1e-05
0.0203365 0.00105412 1e-05
0.020473 0.00105259 1e-05
0.0206105 0.00105106 1e-05
0.020748 0.00104948 1e-05
0.0208855 0.00104787 1e-05
0.021023 0.00104623 1e-05
0.0211606 0.00104461 1e-05
0.0212991 0.00104297 1e-05
0.0214377 0.00104129 1e-05
0.0215763 0.00103957 1e-05
0.0217149 0.00103783 1e-05
0.0218535 0.0010361 1e-05
0.0219931 0.00103435 1e-05
0.0221328 0.00103257 1e-05
0.0222724 0.00103074 1e-05
0.0224121 0.00102889 1e-05
0.0225517 0.00102704 1e-05
0.0226925 0.00102519 1e-05
0.0228332 0.00102329 1e-05
0.022974 0.00102134 1e-05
0.0231147 0.00101938 1e-05
0.0232555 0.00101742 1e-05
0.0233973 0.00101544 1e-05
0.0235391 0.00101342 1e-05
0.023681 0.00101136 1e-05
0.0238228 0.00100928 1e-05
0.0239647 0.0010072 1e-05
0.0241076 0.0010051 1e-05
0.0242505 0.00100296 1e-05
0.0243935 0.00100078 1e-05
0.0245364 0.000998578 1e-05
0.0246794 0.000996369 1e-05
0.0248234 0.000994141 1e-05
0.0249675 0.000991868 1e-05
0.0251115 0.000989563 1e-05
0.0252556 0.000987236 1e-05
[...]
POINT_DATA 12084
 FIELD attributes 3
age 1 12084 float
0 -2e-05 -4e-05 -6e-05 -8e-05 -0.0001
0 -2e-05 -4e-05 -6e-05 -8e-05 -0.0001
0 -2e-05 -4e-05 -6e-05 -8e-05 -0.0001
0 -2e-05 -4e-05 -6e-05 -8e-05 -0.0001
0 -2e-05 -4e-05 -6e-05 -8e-05 -0.0001
0 -2e-05 -4e-05 -6e-05 -8e-05 -0.0001
0 -2e-05 -4e-05 -6e-05 -8e-05 -0.0001
0 -2e-05 -4e-05 -6e-05 -8e-05 -0.0001
0 -2e-05 -4e-05 -6e-05 -8e-05 -0.0001
0 -2.00009e-05 -4.00018e-05 -6.00027e-05 -8.00036e-05 -0.000100002
0 0.000296567 0.000593135 0.000889702 0.00118627 0.00148284 0.00178676 0.00209069 0.00239461 0.00269853 0.00300245 0.00329423 0.00358601 0.00387779 0.00416957 0.00446135 0.00474147 0.00502159 0.00530171 0.00558183 0.00586196 0.00612433 0.0063867 0.00664907 0.00691144 0.00713292 0.00714766 0.0071624 0.00717713 0.00719187 0.00720661 0.0074648 0.00772298 0.00798117 0.00823935 0.00849754 0.00874541 0.00899328 0.00924116 0.00948903 0.0097369 0.00997487 0.0102128 0.0104508 0.0106888 0.0109267 0.0111552 0.0113837 0.0116121 0.0118406 0.012069 0.0122884 0.0125077 0.012727 0.0129464 0.0131657 0.0133763 0.0135868 0.0137974 0.014008 0.0142186 0.0144207 0.0146229 0.014825 0.0150272 0.0152293 0.0154234 0.0156175 0.0158116 0.0160057 0.0161997 0.0163861 0.0165724 0.0167587 0.016945 0.0171314 0.0173102 0.0174891 0.017668 0.0178469 0.0180258 0.0181975 0.0183692 0.018541 0.0187127 0.0188844 0.0190493 0.0192142 0.0193791 0.0195439 0.0197088 0.0198671 0.0200254 0.0201837 0.020342 0.0205002 0.0206059 0.0207116 0.0208173 0.020923 0.0210286 0.0211351 0.0212416 0.0213482 0.0214547 0.0215612 0.0216685 0.0217758 0.0218831 0.0219905 0.0220978 0.022206 0.0223141 0.0224223 0.0225305 0.0226386 0.0227476 0.0228566 0.0229656 0.0230746 0.0231836 0.0232935 0.0234033 0.0235132 0.023623 0.0237329 0.0238436 0.0239543 0.024065 0.0241757 0.0242864 0.024398 0.0245095 0.0246211 0.0247327 0.0248442 0.0249567 0.0250691 0.0251815 0.025294 0.0254064 0.0255197 0.025633 0.0257463 0.0258596 0.0259729 0.0260871 0.0262013 0.0263155 0.0264297 0.0265439 0.0266589 0.026774 0.0268891 0.0270042 0.0271192 0.0272352 0.0273512 0.0274672 0.0275831 0.0276991 0.027816 0.0279328 0.0280497 0.0281666 0.0282834 0.0284012 0.028519 0.0286368 0.0287546 0.0288723 0.0289074 0.0289424 0.0289774 0.0290124 0.0290467 0.0291305 0.0292143 0.0292982 0.029382 0.0294658 0.0295854 0.0297051 0.0298247 0.0299443 0.0300639 0.0301845 0.030305 0.0304256 0.0305461 0.0306667 0.0307881 0.0309096 0.0310311 0.0311526 0.0312741 0.0313965 0.031519 0.0316414 0.0317638 0.0318862 0.0320096 0.032133 0.0322564 0.0323798 0.0325032 0.0326275 0.0327518 0.0328762 0.0330005 0.0331249 0.0332502 0.0333755 0.0335008 0.0336261 0.0337514 0.0338777 0.034004 0.0341303 0.0342566 0.0343828 0.0345101 0.0346374 0.0347646 0.0348919 0.0350192 0.0351474 0.0352757 0.0354039 0.0355322 0.0356604 0.0357897 0.035919 0.0360482 0.0361775 0.0363067 0.036437 0.0365672 0.0366975 0.0368277 0.036958 0.0370893 0.0372206 0.0373518 0.0374831 0.0376144 0.0377467 0.037879 0.0380112 0.0381435 0.0382758 0.0384092 0.0385425 0.0386758 0.0388091 0.0389425 0.0390768 0.0392112 0.0393455 0.0394799 0.0396143 0.0397497 0.0398851 0.0400205 0.0401559 0.0402913 0.0404277 0.0405642 0.0407007 0.0408371 0.0409736 0.0411111 0.0412486 0.0413861 0.0415237 0.0416612 0.0417998 0.0419384 0.042077 0.0422155 0.0423541 0.0424938 0.0426335 0.0427731 0.0429128 0.0430525 0.0431932 0.043334 0.0434748 0.0436155 0.0437563 0.0438981 0.04404 0.0441818 0.0443237 0.0444655 0.0446085 0.0447515 0.0448944 0.0450374 0.0451803 0.0453244 0.0454685 0.0456125 0.0457566 0.0459007 0.0460459 0.0461911 0.0463363 0.0464815 0.0466266 0.046773 0.0469193 0.0470656 0.0472119 0.0473583 0.0475057 0.0476532 0.0478007 0.0479481 0.0480956 0.0482442 0.0483928 0.0485414 0.04869 0.0488387 0.0489884 0.0491382 0.049288 0.0494377 0.0495875 0.0497384 0.0498894 0.0500403 0.0501913 0.0503422 0.0504001 0.0504579 0.0505158 0.0505737 0.0506299 0.0507245 0.0508191 0.0509136 0.0510082 0.0511028 0.0512561 0.0514094 0.0515627 0.051716 0.0518693 0.0520238 0.0521783 0.0523328 0.0524873 0.0526418 0.0527975 0.0529532 0.0531089 0.0532646 0.0534203 0.0535772 0.0537341 0.053891 0.054048 0.0542049 0.054363 0.0545212 0.0546793 0.0548375 0.0549956 0.055155 0.0553144 0.0554737 0.0556331 0.0557925 0.0559531 0.0561138 0.0562744 0.056435 0.0565956 0.0567575 0.0569194 0.0570813 0.0572431 0.057405 0.0575682 0.0577313 0.0578945 0.0580576 0.0582208 0.0583852 0.0585496 0.058714 0.0588784 0.0590429 0.0592086 0.0593743 0.05954 0.0597057 0.0598714 0.0600384 0.0602054 0.0603725 0.0605395 0.0607065 0.0608748 0.0610431 0.0612114 0.0613797 0.0615481 0.0617177 0.0618873 0.062057 0.0622266 0.0623962 0.0625672 0.0627382 0.0629091 0.0630801 0.0632511 0.0632542 0.0632573 0.0632604 0.0632635 0.0632666 0.0634358 0.063605 0.0637742 0.0639434 0.0641126 0.0642863 0.0644599 0.0646336 0.0648072 0.0649809 0.0651559 0.065331 0.065506 0.065681 0.065856 0.0660324 0.0662088 0.0663852 0.0665616 0.066738 0.0669158 0.0670936 0.0672714 0.0674491 0.067627 0.0678061 0.0679853 0.0681645 0.0683436 0.0685229 0.0687034 0.068884 0.0690646 0.0692452 0.0694258 0.0696078 0.0697898 0.0699718 0.0701538 0.0703359 0.0705193 0.0707027 0.0708861 0.0710696 0.0712531 0.0714379 0.0716228 0.0718077 0.0719925 0.0721775 0.0722716 0.0723657 0.0724598 0.0725539 0.0726458 0.0727385 0.0728311 0.0729238 0.0730165 0.0731091 0.0732969 0.0734847 0.0736725 0.0738603 0.0740481 0.0742374 0.0744266 0.0746159 0.0748052 0.0749945 0.0751852 0.0753759 0.0755667 0.0757574 0.0759482 0.0761405 0.0763327 0.0765249 0.0767172 0.0769094 0.0771032 0.0772969 0.0774907 0.0776844 0.0778782 0.0780734 0.0782687 0.078464 0.0786592 0.0788545 0.0790513 0.079248 0.0794448 0.0796416 0.0798384 0.0800367 0.080235 0.0804333 0.0806316 0.0808299 0.0808645 0.0808991 0.0809337 0.0809683 0.081003 0.0811682 0.0813335 0.0814987 0.0816639 0.0818291 0.0820305 0.0822319 0.0824333 0.0826347 0.0828361 0.083039 0.083242 0.0834449 0.0836478 0.0838508 0.0840553 0.0842598 0.0844643 0.0846688 0.0848733 0.0850794 0.0852854 0.0854915 0.0856976 0.0859036 0.0861113 0.0863189 0.0865266 0.0867343 0.0869419 0.0871511 0.0873604 0.0875696 0.0877789 0.0879881 0.0881989 0.0884098 0.0886206 0.0888315 0.0890423 0.0892547 0.0894672 0.0896797 0.0898921 0.0901046 0.0903186 0.0905327 0.0907468 0.0909609 0.0911749 0.0913117 0.0914484 0.0915852 0.0917219 0.091869 0.0919459 0.0920228 0.0920997 0.0921766 0.0922535 0.0924709 0.0926883 0.0929057 0.093123 0.0933404 0.0935594 0.0937785 0.0939975 0.0942166 0.0944356 0.0946563 0.094877 0.0950978 0.0953185 0.0955392 0.0957616 0.095984 0.0962064 0.0964289 0.0966513 0.0968754 0.0970996 0.0973237 0.0975478 0.0977719 0.0979978 0.0982237 0.0984496 0.0986754 0.0989013 0.0991289 0.0993565 0.0995841 0.0998117 0.100039 0.100269 0.100498 0.100727 0.100957 0.101186 0.101417 0.101649 0.10188 0.102111 0.102342 0.102575 0.102808 0.103041 0.103274 0.103507 0.103742 0.103976 0.104211 0.104446 0.104681 0.104917 0.105154 0.10539 0.105627 0.105864 0.106102 0.106341 0.106579 0.106818 0.107056 0.107296 0.107537 0.107777 0.108017 0.108258 0.1085 0.108742 0.108984 0.109227 0.109469 0.109713 0.109957 0.110201 0.110445 0.11069 0.110936 0.111182 0.111428 0.111674 0.11192 0.11207 0.112221 0.112371 0.112522 0.112653 0.112755 0.112856 0.112957 0.113059 0.11316 0.11341 0.11366 0.11391 0.11416 0.11441 0.114662 0.114914 0.115166 0.115419 0.115671 0.115925 0.116179 0.116433 0.116687 0.116941 0.117197 0.117454 0.11771 0.117966 0.118222 0.118481 0.118739 0.118997 0.119255 0.119514 0.119775 0.120035 0.120295 0.120556 0.120817 0.121079 0.121342 0.121605 0.121867 0.12213 0.122335 0.12254 0.122745 0.122949 0.123126 0.123191 0.123257 0.123323 0.123389 0.123455 0.123723 0.12399 0.124257 0.124524 0.124792 0.125062 0.125331 0.125601 0.12587 0.126141 0.126413 0.126685 0.126957 0.127229 0.127501 0.127776 0.12805 0.128325 0.128599 0.128875 0.128999 0.129123 0.129247 0.129371 0.129487 0.129641 0.129796 0.129951 0.130106 0.130261 0.130541 0.130821 0.131101 0.13138 0.131661 0.131944 0.132226 0.132509 0.132791 0.133075 0.133345 0.133616 0.133886 0.134157 0.134392 0.134414 0.134436 0.134458 0.134481 0.134503 0.134791 0.13508 0.135368 0.135656 0.135946 0.136237 0.136529 0.13682 0.137111 0.137404 0.137636 0.137867 0.138099 0.13833 0.138539 0.138607 0.138675 0.138743 0.138811 0.138879 0.139177 0.139474 0.139772 0.14007 0.14037 0.140671 0.140972 0.141273 0.141575 0.141878 0.141948 0.142018 0.142089 0.142159 0.142227 0.142462 0.142697 0.142932 0.143168 0.143404 0.143713 0.144021 0.144329 0.144637 0.144948 0.145084 0.145219 0.145355 0.14549 0.14562 0.145798 0.145976 0.146154 0.146333 0.146512 0.146828 0.147144 0.147459 0.147775 0.148094 0.148241 0.148388 0.148535 0.148682 0.148824 0.148998 0.149172 0.149346 0.149521 0.149696 0.150019 0.150343 0.150666 0.15099 0.151316 0.151437 0.151558 0.151679 0.1518 0.151918 0.152125 0.152333 0.15254 0.152748 0.152956 0.153287 0.153618 0.15395 0.154281 0.154614 0.154685 0.154757 0.154828 0.154899 0.15497 0.155234 0.155497 0.155761 0.156024 0.156289 0.156601 0.156913 0.157225 0.157537 0.157843 0.15787 0.157898 0.157925 0.157952 0.15798 0.158321 0.158662 0.159003 0.159344 0.159685 0.159883 0.160082 0.160281 0.160479 0.160679 0.160823 0.160968 0.161113 0.161257 0.161402 0.161748 0.162094 0.162439 0.162785 0.16313 0.163212 0.163294 0.163377 0.163459 0.163542 0.163807 0.164072 0.164337 0.164602 0.164865 0.165189 0.165513 0.165837 0.166161 0.166503 0.166524 0.166545 0.166566 0.166587 0.166608 0.166958 0.167308 0.167659 0.168009 0.168356 0.168611 0.168867 0.169122 0.169378 0.169652 0.169743 0.169834 0.169925 0.170017 0.170108 0.170459 0.170811 0.171163 0.171515 0.171863 0.17211 0.172357 0.172604 0.17285 0.17312 0.17322 0.173321 0.173421 0.173522 0.173622 0.173976 0.174329 0.174682 0.175036 0.175385 0.175721 0.176056 0.176391 0.176726 0.177114 0.177122 0.17713 0.177137 0.177145 0.177153 0.177508 0.177864 0.178219 0.178574 0.178926 0.179283 0.179639 0.179996 0.180352 0.180706 0.18096 0.181215 0.18147 0.181725 0.182015 0.18211 0.182206 0.182301 0.182397 0.182492 0.182852 0.183211 0.18357 0.18393 0.184287 0.184648 0.18501 0.185371 0.185732 0.186091 0.186455 0.186818 0.187181 0.187544 0.187906 0.188046 0.188186 0.188326 0.188467 0.188618 0.188841 0.189063 0.189286 0.189508 0.189731 0.190098 0.190466 0.190833 0.191201 0.191567 0.191937 0.192307 0.192677 0.193047 0.193416 0.193788 0.194161 0.194533 0.194906 0.195277 0.195652 0.196027 0.196402 0.196777 0.197151 0.1975 0.197849 0.198198 0.198547 0.198963 0.198978 0.198993 0.199009 0.199024 0.199039 0.199419 0.1998 0.20018 0.20056 0.20094 0.201323 0.201706 0.20209 0.202473 0.202855 0.203241 0.203627 0.204013 0.204399 0.204785 0.205174 0.205562 0.205951 0.20634 0.206729 0.20712 0.207512 0.207904 0.208295 0.208687 0.209082 0.209476 0.209871 0.210266 0.21066 0.211058 0.211456 0.211853 0.212251 0.212648 0.213049 0.21345 0.21385 0.214251 0.214652 0.215056 0.215459 0.215863 0.216267 0.21667 0.217077 0.217484 0.217891 0.218298 0.218705 0.219115 0.219525 0.219935 0.220344 0.220754 0.221167 0.221581 0.221994 0.222407 0.22282 0.222992 0.223164 0.223336 0.223508 0.22378 0.224004 0.224229 0.224453 0.224677 0.224901 0.225321 0.22574 0.226159 0.226579 0.226998 0.227419 0.22784 0.228262 0.228301 0.228463 0.228626 0.228788 0.22895 0.229112 0.229153 0.229194 0.229236 0.229277 0.22932 0.229688 0.230056 0.230423 0.230791 0.231159 0.231585 0.23201 0.232436 0.232861 0.233287 0.233729 0.234172 0.234614 0.235056 0.235499 0.235958 0.236418 0.236878 0.237337 0.237797 0.238275 0.238753 0.23923 0.239708 0.240186 0.240682 0.241179 0.241675 0.242171 0.242668 0.243184 0.2437 0.244216 0.244731 0.245248 0.245784 0.24632 0.246856 0.247392 0.247928 0.248485 0.249042 0.249599 0.250156 0.250713 0.251292 0.251871 0.252449 0.253028 0.253607 0.254208 0.25481 0.255411 0.256012 0.256614 0.257239 0.257864 0.258489 0.259113 0.259738 0.260388 0.261037 0.261686 0.262335 0.262985 0.263106 0.263227 0.263349 0.26347 0.263596 0.264149 0.264701 0.265253 0.265806 0.266358 0.267059 0.26776 0.268461 0.269162 0.269863 0.270591 0.271319 0.272048 0.272776 0.273504 0.274261 0.275018 0.275774 0.276531 0.277288 0.278074 0.27886 0.279646 0.280433 0.281219 0.282036 0.282853 0.283669 0.284486 0.285303 0.286152 0.287001 0.287849 0.288698 0.289547 0.290429 0.291311 0.292192 0.293074 0.293956 0.294872 0.295788 0.296705 0.297621 0.298537 0.299489 0.300441 0.301393 0.302344 0.303296 0.304285 0.305274 0.306263 0.307252 0.308241 0.309269 0.310296 0.311323 0.31235 0.313376