/*--------------------------------*- C++ -*----------------------------------*\
  =========                 |
  \\      /  F ield         | OpenFOAM: The Open Source CFD Toolbox
   \\    /   O peration     | Website:  https://openfoam.org
    \\  /    A nd           | Version:  9
     \\/     M anipulation  |
\*---------------------------------------------------------------------------*/
FoamFile
{
    format      ascii;
    class       volScalarField;
    location    "8.35";
    object      p;
}
// * * * * * * * * * * * * * * * * * * * * * * * * * * * * * * * * * * * * * //

dimensions      [0 2 -2 0 0 0 0];

internalField   nonuniform List<scalar> 
918
(
23.5603
23.8417
1.02154
22.9754
1.01047
23.3582
3.54261
14.0268
19.3326
3.07891
2.77818
14.5096
20.9011
17.1425
13.2657
0.95762
14.2623
2.3983
18.5483
1.41945
13.2683
20.5389
21.6278
19.3756
14.2614
14.6204
18.8635
1.24835
0.114168
0.311524
0.964597
0.430385
0.18705
21.895
22.5717
22.51
15.59
10.5503
3.88516
4.09978
3.25021
3.04777
14.0642
14.1633
6.15455
14.01
14.0079
16.7362
19.2004
19.3439
19.6382
19.4266
19.8132
5.9997
2.94223
2.76116
3.05515
3.12352
3.03058
2.86499
2.85004
2.64695
2.50084
13.9956
14.5815
14.6324
14.3783
14.331
22.7177
21.9608
22.2955
21.4019
21.5473
20.4772
20.0916
17.5182
17.8707
16.7442
16.3632
13.0498
13.0023
13.4941
13.7379
0.152225
1.1113
1.25738
14.2651
14.2942
14.3109
14.327
8.36038
2.37176
2.38248
17.9887
17.565
20.5708
20.8379
20.2848
20.0993
1.58265
1.6107
1.19459
1.22024
0.98968
13.5909
13.7433
19.3269
18.4941
14.2781
14.1893
14.2544
11.6477
14.0559
14.1371
15.5887
16.0421
15.2271
15.6672
18.4335
18.0154
19.3
19.7373
0.429122
0.166099
0.729275
0.361515
0.558332
15.4587
15.2549
15.6973
15.7561
15.987
10.5528
10.4744
10.5305
10.4486
4.45309
4.76775
2.46734
2.80485
2.63581
9.99379
14.1777
14.2181
5.11427
5.80747
5.47625
6.6238
6.99674
16.1029
16.5387
16.278
17.823
17.0282
17.3763
19.9026
19.3923
19.6925
6.39445
6.6476
5.63966
5.28901
2.40153
2.64105
2.58106
3.15652
3.13831
3.26107
3.40605
2.75007
2.60446
3.07383
2.94991
3.00638
2.32491
2.18427
13.7233
13.5136
14.2549
14.4329
15.1833
15.0369
14.7476
14.9136
19.2867
19.6902
19.7237
19.3395
11.7493
10.2732
13.9955
14.2673
0.313056
0.266552
0.141023
0.389059
0.39921
0.158448
2.04673
1.85619
1.43855
1.70732
14.253
14.2072
8.60139
8.82573
8.19342
7.93408
16.4016
16.5523
17.1869
16.7863
2.0862
1.77702
1.91976
13.9004
13.7732
13.8831
11.0953
10.5438
12.1164
12.3838
14.1784
14.2014
14.2057
15.9474
16.2657
20.0881
20.3587
20.1856
20.5714
21.6342
21.2855
20.9007
14.6406
15.0454
14.886
16.215
15.8485
16.0678
15.2756
15.5803
15.4375
10.5033
10.5494
10.2575
10.3363
10.3899
10.3354
9.92335
9.79383
14.2948
14.2551
14.2768
7.50895
7.99306
4.91353
4.59055
12.6731
13.3337
13.0152
18.9165
18.2388
18.9718
18.6009
18.151
18.4745
10.5586
10.5132
10.5504
15.1852
14.5272
14.8766
2.4812
2.11535
2.2844
9.02381
9.11885
7.01841
7.64768
7.31165
16.5671
16.9075
17.5875
16.6994
17.1669
17.6742
17.4523
10.0716
10.2102
10.1242
9.77353
9.66264
9.91996
8.55836
9.15377
3.66909
4.31424
4.016
9.28851
9.53177
9.37539
18.7214
19.2561
0.804595
1.24309
19.6841
19.4076
0.158951
0.274506
14.5201
12.7838
7.51973
17.285
16.7231
19.0598
3.30633
6.15324
2.94021
3.44139
2.72942
14.7043
14.3586
13.4607
0.478262
1.272
1.7512
3.0429
18.5019
17.8271
18.9417
19.2623
19.3164
0.700408
0.949193
0.590742
1.32395
1.08979
1.32114
15.6478
15.7341
4.58176
18.9483
19.2522
19.2702
17.7455
18.6987
17.7561
0.955658
0.661038
0.73995
10.2599
12.2701
14.4823
14.0324
14.2322
14.2544
14.0057
15.137
14.8125
14.7716
15.2537
14.1877
14.0567
7.95671
6.64649
8.30849
7.96037
17.1866
16.7741
16.5862
16.3327
18.1748
17.7006
18.5512
17.9388
18.4006
18.6878
3.11576
3.28151
3.14572
2.67847
6.20603
6.67238
5.55363
5.67623
4.31815
2.61711
2.68276
2.88294
2.75486
3.03518
2.7441
3.01122
2.64856
2.36627
2.36316
3.01438
2.81282
2.69398
14.6776
14.621
14.4254
14.4687
14.46
14.5726
13.6501
14.0477
13.6792
12.5369
13.0999
12.637
0.81488
0.663669
0.542375
1.35195
1.38735
1.14842
0.8789
1.22623
1.20689
0.887934
1.58631
1.54816
3.33435
2.84182
8.92784
8.04813
6.984
16.8933
17.6943
16.8641
18.103
18.52
18.6259
18.2466
17.7384
15.8139
15.81
15.4702
15.422
4.9973
3.96925
5.20825
4.81389
10.6357
14.245
11.9872
10.9668
11.2581
13.5371
14.1986
13.841
14.0199
13.5628
13.0666
13.7903
13.3057
13.4117
13.1631
15.9839
16.4587
16.0652
15.4855
15.5059
10.7417
12.1253
5.74727
5.89098
7.44075
6.77601
13.7649
14.1426
14.128
13.79
13.9913
13.9674
13.8068
13.9652
14.0827
13.9818
11.9221
10.3173
9.24583
9.24262
14.282
12.4666
13.0691
12.5228
16.2061
16.7243
16.3381
15.7418
16.2249
15.6978
15.7189
15.9262
17.291
17.0397
16.8108
17.1978
3.22659
3.17064
3.7975
3.30603
3.19748
2.96976
3.63085
4.87244
4.53623
6.80054
7.33677
4.70736
3.59559
3.94927
4.95325
5.63786
5.63465
4.07193
4.56459
4.99585
4.51829
5.27484
4.79124
2.84821
3.14188
3.00295
2.97983
3.45961
3.9448
3.45737
2.57745
2.71744
2.42191
2.28194
3.63968
3.16878
3.20215
3.78897
1.17059
1.37211
1.48774
2.48774
1.97009
2.03158
15.2683
14.912
15.0459
14.3384
14.4111
14.3605
13.9789
15.3366
15.0612
15.1595
13.8168
13.9039
13.7205
14.0114
14.4097
14.7069
15.5416
15.2595
14.511
14.6621
14.3153
14.2397
13.5787
13.019
12.9598
1.13152
0.837316
1.00945
0.95228
0.634019
0.824857
2.21357
1.6147
2.02046
1.74847
1.98295
1.4864
1.35886
4.42457
5.21633
4.17277
3.57381
3.27657
8.98411
9.09979
8.23226
7.93483
8.2704
8.50566
8.455
7.19019
7.62705
7.44092
10.052
9.69894
17.6774
17.6219
17.2937
17.1344
17.3602
5.97581
7.77828
7.00361
8.09032
10.3484
10.661
9.40018
8.79502
9.5634
9.61765
14.2235
14.3082
13.7401
14.2086
14.2339
11.9811
12.9993
13.614
13.4059
13.9568
14.0479
13.1576
13.7148
13.5886
12.8768
12.9323
12.2657
12.5856
12.1176
11.9325
14.1531
14.0495
14.3165
13.8724
14.2439
13.8404
14.1363
14.1557
14.4337
13.5235
12.9489
12.9741
13.39
13.0879
13.4297
13.5859
9.38661
10.0401
10.5193
11.072
10.7819
10.5488
10.4064
10.7256
10.7108
10.9763
10.8947
10.7301
11.6608
13.6801
13.9562
14.093
13.8423
13.8725
13.5723
13.8639
13.7844
14.1223
14.2184
14.2674
13.2911
13.495
13.7026
13.5825
11.7786
10.2074
10.0625
9.65076
7.78586
8.23721
11.1313
10.0516
9.09717
9.1682
12.3253
10.9658
11.7731
12.1621
10.8387
10.4702
13.1041
13.9251
14.1326
13.8241
12.1803
12.3002
12.7523
13.2096
13.4083
13.8935
15.9542
16.5265
16.6053
16.3305
16.1912
16.2884
16.0367
16.1418
16.6159
16.7417
16.5725
3.04199
3.1478
3.09429
3.01934
3.24976
3.05777
4.11011
4.104
3.30733
3.48069
3.49635
3.5873
3.10504
3.12968
4.91123
5.14705
5.41931
4.93755
6.26824
6.88218
7.44604
7.1537
5.87952
5.94325
6.25107
3.6231
3.6096
3.35237
3.795
3.86381
2.73641
2.37772
2.17018
2.70543
2.80036
2.17911
1.87755
1.9429
2.42099
2.19997
1.94097
15.0706
14.8318
14.8518
14.6329
14.6871
15.0776
15.2966
15.1027
15.2384
15.2886
14.8947
14.7781
14.9502
1.85727
1.53483
1.68233
1.68284
1.67975
1.61832
1.78914
7.67701
6.50664
6.88096
6.10512
4.32412
4.81319
9.67316
10.0916
10.1341
9.82462
9.61437
9.97306
9.84048
9.83006
8.34491
9.41418
8.95126
9.35225
9.3883
9.45348
9.15888
9.17725
10.6852
10.7165
9.57417
10.2288
9.4646
8.11275
8.27253
9.23169
10.1755
10.542
10.3864
10.0808
9.85874
10.2598
10.2944
10.3786
10.3656
8.84488
8.78562
8.37602
14.1359
14.0735
14.2184
14.2006
14.3457
14.114
13.9479
14.2325
14.295
14.0694
11.2326
11.3029
11.5583
12.3458
12.4103
12.2028
11.4629
13.2909
12.9131
13.6204
13.5533
13.5831
13.1612
12.977
13.2874
10.2226
11.5811
11.1104
11.3869
10.2244
9.49177
13.3782
13.4206
13.5205
13.8106
13.738
14.3289
15.9227
15.7912
15.841
15.8849
15.4958
15.531
4.27524
3.94569
4.66073
4.62253
4.18712
3.89216
2.35082
2.05724
1.87571
1.74906
1.94626
2.01619
8.25857
8.26933
6.44534
7.44642
6.05243
5.11771
4.98492
6.09833
7.2523
7.33126
8.57844
9.27401
8.83763
8.66638
7.99541
8.32216
10.2544
10.3489
10.2479
10.5726
10.1101
11.8921
11.4677
11.829
13.4837
13.1694
12.5474
12.4322
12.4311
13.0468
12.0598
11.2818
11.9899
12.6817
12.6401
11.2783
11.0247
11.4607
11.4143
10.3156
10.8575
10.6131
10.9616
10.6501
)
;

boundaryField
{
    wall-4
    {
        type            zeroGradient;
    }
    velocity-inlet-5
    {
        type            zeroGradient;
    }
    velocity-inlet-6
    {
        type            zeroGradient;
    }
    pressure-outlet-7
    {
        type            fixedValue;
        value           uniform 0;
    }
    wall-8
    {
        type            zeroGradient;
    }
    frontAndBackPlanes
    {
        type            empty;
    }
}


// ************************************************************************* //
