/*--------------------------------*- C++ -*----------------------------------*\
  =========                 |
  \\      /  F ield         | OpenFOAM: The Open Source CFD Toolbox
   \\    /   O peration     | Website:  https://openfoam.org
    \\  /    A nd           | Version:  9
     \\/     M anipulation  |
\*---------------------------------------------------------------------------*/
FoamFile
{
    format      ascii;
    class       volScalarField;
    location    "29.3";
    object      p;
}
// * * * * * * * * * * * * * * * * * * * * * * * * * * * * * * * * * * * * * //

dimensions      [0 2 -2 0 0 0 0];

internalField   nonuniform List<scalar> 
918
(
23.4693
23.5763
0.953271
22.8868
1.01697
23.0927
3.27298
13.7852
19.2426
2.93439
2.62487
14.4087
20.6357
16.8771
12.9933
0.925042
14.0522
2.24705
18.4602
1.39806
12.9925
20.448
21.5368
19.2843
14.1214
14.3722
18.598
1.14497
0.107904
0.255029
0.979231
0.41075
0.147569
21.6296
22.3063
22.2446
15.4952
10.4028
3.59812
3.80264
2.98346
2.8065
13.8279
13.9278
5.86749
13.7641
13.7598
16.6441
19.1106
19.2542
19.5474
19.3365
19.7228
5.97444
2.78563
2.60576
2.87627
2.95058
2.98314
2.69725
2.67891
2.48245
2.33647
13.888
14.4817
14.5369
14.2681
14.2157
22.4523
21.6953
22.0301
21.1364
21.2819
20.2118
19.8262
17.2527
17.6052
16.479
16.0981
12.7836
12.7448
13.2132
13.463
0.145394
1.0761
1.22334
14.0592
14.0957
14.0957
14.1102
8.28344
2.18887
2.19167
17.9006
17.4771
20.482
20.7492
20.1962
20.0107
1.52989
1.52575
1.15066
1.18123
0.950424
13.3338
13.4879
19.2357
18.4026
14.155
14.055
14.13
11.5001
13.9104
13.9837
15.3218
15.7773
14.9666
15.403
18.168
17.75
19.0346
19.4718
0.393058
0.154603
0.687622
0.318287
0.516732
15.3635
15.1581
15.6111
15.6619
15.8931
10.4077
10.3383
10.3817
10.3016
4.14992
4.46452
2.25587
2.57046
2.42136
9.86637
13.9441
13.9909
4.81145
5.51577
5.17911
6.3502
6.72458
16.0098
16.4464
16.1851
17.7314
16.9363
17.2845
19.8136
19.3028
19.6033
6.36909
6.60347
5.60863
5.24987
2.239
2.4884
2.43054
2.98187
2.95982
3.21796
3.34637
2.69864
2.55532
2.89316
2.77645
2.82861
2.16576
2.03595
13.6121
13.3981
14.151
14.3296
15.0968
14.9485
14.6551
14.8239
19.0213
19.4247
19.4582
19.0741
11.5454
10.1558
13.7175
13.993
0.302099
0.264572
0.138289
0.380971
0.400664
0.142567
2.01578
1.8273
1.40571
1.68109
14.0567
14.0165
8.52403
8.74364
8.11993
7.86374
16.3147
16.465
17.0991
16.6989
1.96236
1.67612
1.80598
13.651
13.5234
13.6303
10.9352
10.3686
11.9779
12.2477
13.9918
14.0356
14.0315
15.6815
15.9999
19.8226
20.0933
19.9202
20.306
21.3688
21.02
20.6353
14.5393
14.9477
14.7861
16.1284
15.762
15.9815
15.1894
15.4941
15.352
10.37
10.4163
10.1199
10.1978
10.2463
10.1934
9.80361
9.67664
14.0775
14.0325
14.0566
7.25265
7.75069
4.86959
4.54076
12.5439
13.2172
12.8927
18.651
17.9734
18.7063
18.3355
17.8855
18.209
10.4271
10.3887
10.422
14.9174
14.2552
14.6072
2.44128
2.07703
2.24004
8.93962
9.03298
6.97158
7.58824
7.25131
16.3015
16.6419
17.3221
16.4338
16.9014
17.4087
17.1868
9.93961
10.0724
9.98929
9.6601
9.55366
9.7354
8.33594
8.94925
3.61295
4.26957
3.96544
9.20096
9.43087
9.27814
18.6303
19.1652
0.765669
1.1529
19.5952
19.3189
0.139381
0.242269
14.2537
12.5513
7.26291
17.1976
16.6302
18.97
3.19282
6.10287
2.80965
3.38086
2.68658
14.6158
14.2497
13.3408
0.452852
1.25675
1.70907
2.89684
18.4108
17.7356
18.8517
19.1718
19.2262
0.687493
0.912586
0.584052
1.24208
1.03083
1.27578
15.5512
15.6494
4.32407
18.8587
19.163
19.1807
17.6575
18.6101
17.6677
0.935737
0.64277
0.707603
10.0809
12.1218
14.214
13.7665
13.9636
13.9857
13.7366
14.8699
14.5394
14.5043
14.9891
13.9666
13.8213
7.73468
6.38361
8.06914
7.7095
17.0989
16.6868
16.4937
16.2394
18.0852
17.6112
18.4616
17.85
18.3118
18.5987
2.94355
3.13327
3.01242
2.5211
6.14358
6.60655
5.4884
5.63409
4.25969
2.42843
2.52707
2.75343
2.58419
2.93151
2.67905
2.94312
2.57948
2.32387
2.32189
2.93117
2.73889
2.6046
14.5942
14.5326
14.3335
14.3716
14.354
14.4697
13.5353
13.9401
13.5678
12.3989
12.9801
12.5073
0.825854
0.663442
0.524957
1.32419
1.35132
1.11083
0.834445
1.17351
1.20178
0.813911
1.54531
1.445
3.15613
2.64469
8.84081
7.96861
6.90134
16.8008
17.6026
16.7722
18.013
18.4299
18.5353
18.1557
17.6475
15.73
15.7251
15.3853
15.3387
4.77132
3.73214
4.96742
4.5365
10.4782
14.0656
11.8428
10.804
11.1004
13.4245
13.9291
13.5815
13.7184
13.2935
12.8217
13.5136
13.0473
13.1487
12.9277
15.7181
16.1933
15.7998
15.2203
15.2402
10.5991
12.0158
5.46591
5.63989
7.24436
6.53823
13.5101
13.933
13.9178
13.5562
13.744
13.7451
13.6059
13.7801
13.8599
13.7545
11.8247
10.1442
9.04546
9.03905
14.077
12.3463
12.9306
12.414
16.1207
16.6372
16.2519
15.6463
16.1313
15.6031
15.6304
15.8436
17.2017
16.9514
16.7211
17.1079
3.05486
3.00357
3.64735
3.13382
3.03689
2.82012
3.48409
4.75854
4.41624
6.71867
7.26923
4.58026
3.37298
3.79314
4.80811
5.54163
5.51154
3.96952
4.50145
4.93026
4.44082
5.22475
4.72922
2.71802
3.02517
2.86339
2.83705
3.38203
3.88052
3.37601
2.48058
2.5924
2.25646
2.11873
3.53622
2.99588
3.03261
3.67886
1.10701
1.32915
1.44133
2.41398
1.91334
1.97931
15.1828
14.8269
14.9605
14.2397
14.3072
14.2483
13.8727
15.2402
14.9622
15.0616
13.7101
13.7969
13.6101
13.9055
14.3215
14.6207
15.4525
15.1737
14.4128
14.5637
14.2146
14.1429
13.4649
12.9019
12.8414
1.11278
0.824851
0.984191
0.910902
0.606269
0.798528
2.18356
1.5731
1.97065
1.72695
1.96017
1.40327
1.30243
4.25345
5.06404
3.96428
3.36574
3.06289
8.89918
9.01072
8.1594
7.85724
8.19879
8.42762
8.37737
7.1351
7.56228
7.37529
9.916
9.58036
17.5869
17.5311
17.2022
17.0433
17.2698
5.76265
7.66551
6.79944
7.91561
10.207
10.5027
9.3112
8.7054
9.45678
9.53468
14.0472
14.1234
13.5643
14.0502
14.0786
11.8353
12.8826
13.4974
13.3119
13.8317
13.9126
12.9736
13.5624
13.4777
12.7603
12.8133
12.1281
12.4666
11.9947
11.7938
14.0563
13.9511
14.2208
13.7716
14.1509
13.7152
14.0305
14.0284
14.309
13.411
12.8324
12.8508
13.277
12.9772
13.3231
13.4872
9.30875
9.9489
10.3877
10.9234
10.6307
10.4127
10.2799
10.5817
10.5585
10.8298
10.7492
10.6
11.5609
13.4163
13.7013
13.8027
13.5998
13.6459
13.3385
13.6114
13.5406
13.9199
14.0078
14.0575
13.1381
13.2942
13.489
13.3728
11.6754
10.0972
9.94946
9.50947
7.57713
8.04684
11.0257
9.90255
8.91779
8.98972
12.1689
10.8062
11.6196
12.0427
10.6943
10.3063
12.9715
13.7596
13.9794
13.7037
12.0605
12.1863
12.636
13.0792
13.2685
13.7242
15.8605
16.4362
16.5141
16.2381
16.1001
16.2
15.9501
16.0532
16.5272
16.6538
16.4851
2.88006
2.99374
2.92383
2.84915
3.08592
2.86141
3.95643
3.94725
3.15665
3.337
3.35702
3.46248
2.93127
2.97439
4.82654
5.06223
5.3339
4.83243
6.17557
6.81688
7.39828
7.08358
5.78994
5.86939
6.18482
3.5074
3.53363
3.25191
3.70935
3.76201
2.61136
2.23883
2.04405
2.56472
2.66626
2.05096
1.76805
1.81718
2.33168
2.05042
1.80453
14.9753
14.7336
14.7549
14.5348
14.5894
14.9842
15.2051
15.0151
15.1535
15.2046
14.8037
14.6926
14.8637
1.81855
1.49378
1.62261
1.58061
1.64362
1.54967
1.7377
7.60613
6.416
6.80347
5.97895
4.12105
4.64193
9.53932
9.96079
9.99925
9.71047
9.50037
9.86613
9.71693
9.70968
8.26367
9.33255
8.86834
9.26142
9.28277
9.35053
9.06507
9.08103
10.5847
10.6183
9.48325
10.1229
9.33163
7.93244
8.09944
9.11309
10.0867
10.405
10.2501
9.98011
9.75151
10.1147
10.1694
10.2295
10.2187
8.75203
8.7119
8.31138
13.969
13.8755
14.022
14.0272
14.1541
13.979
13.8161
14.0932
14.1475
13.9318
11.0779
11.1368
11.3826
12.1293
12.1814
12.0922
11.3369
13.101
12.7566
13.3946
13.3413
13.4137
13.004
12.8272
13.0975
10.0811
11.454
10.9869
11.2501
10.0635
9.30711
13.2237
13.2778
13.3432
13.6162
13.5742
14.1576
15.8304
15.7004
15.7477
15.7907
15.4024
15.4396
4.17563
3.82947
4.55092
4.50657
4.06484
3.7649
2.28667
1.96872
1.78074
1.65589
1.88941
1.95058
8.16274
8.1899
6.33422
7.35581
5.87665
4.93495
4.79041
5.95586
7.13712
7.19606
8.51375
9.19
8.7491
8.57439
7.91861
8.24825
10.1166
10.2109
10.1114
10.4303
9.96307
11.7127
11.2948
11.6437
13.2577
12.9674
12.3692
12.2558
12.2207
12.8137
11.9478
11.1795
11.892
12.5475
12.5057
11.1183
10.8733
11.3
11.284
10.1981
10.7183
10.4803
10.8328
10.5481
)
;

boundaryField
{
    wall-4
    {
        type            zeroGradient;
    }
    velocity-inlet-5
    {
        type            zeroGradient;
    }
    velocity-inlet-6
    {
        type            zeroGradient;
    }
    pressure-outlet-7
    {
        type            fixedValue;
        value           uniform 0;
    }
    wall-8
    {
        type            zeroGradient;
    }
    frontAndBackPlanes
    {
        type            empty;
    }
}


// ************************************************************************* //
