/*--------------------------------*- C++ -*----------------------------------*\
  =========                 |
  \\      /  F ield         | OpenFOAM: The Open Source CFD Toolbox
   \\    /   O peration     | Website:  https://openfoam.org
    \\  /    A nd           | Version:  9
     \\/     M anipulation  |
\*---------------------------------------------------------------------------*/
FoamFile
{
    format      ascii;
    class       volScalarField;
    location    "30";
    object      k;
}
// * * * * * * * * * * * * * * * * * * * * * * * * * * * * * * * * * * * * * //

dimensions      [0 2 -2 0 0 0 0];

internalField   nonuniform List<scalar> 
12225
(
0.362799
0.343985
0.327794
0.309873
0.295645
0.283634
0.27601
0.270827
0.270987
0.272961
0.277538
0.28294
0.292708
0.299953
0.312014
0.322138
0.335949
0.355926
0.440182
0.468799
0.461893
0.449137
0.451213
0.459495
0.476962
0.499881
0.528833
0.555757
0.588363
0.614103
0.646337
0.668354
0.700476
0.721884
0.758572
0.79582
0.390508
0.417866
0.420282
0.417023
0.411825
0.408281
0.408594
0.410734
0.416011
0.422378
0.433432
0.442141
0.456367
0.465938
0.482957
0.495347
0.517656
0.542335
0.377536
0.386969
0.391403
0.39138
0.390284
0.388077
0.385819
0.384353
0.383291
0.383382
0.384012
0.38525
0.387795
0.389993
0.394164
0.398617
0.406799
0.420804
0.374558
0.376088
0.378394
0.378673
0.378263
0.37726
0.37549
0.373839
0.372071
0.370665
0.369431
0.368475
0.367784
0.367275
0.367316
0.367759
0.370325
0.378098
0.373814
0.372709
0.372632
0.372371
0.371728
0.370829
0.369514
0.368093
0.366532
0.365016
0.363532
0.362204
0.360822
0.359495
0.357979
0.357379
0.358247
0.362932
0.373782
0.371744
0.370374
0.369276
0.368198
0.367098
0.365865
0.364551
0.363162
0.361763
0.360348
0.359047
0.357597
0.356206
0.354435
0.352954
0.353235
0.35649
0.373819
0.371564
0.369626
0.367967
0.36647
0.365081
0.363722
0.362377
0.361014
0.359692
0.358336
0.35711
0.355729
0.354407
0.352638
0.350937
0.350752
0.353064
0.37383
0.37156
0.369442
0.36752
0.365749
0.364128
0.362589
0.361147
0.359715
0.358397
0.357034
0.355852
0.354515
0.353262
0.351553
0.349827
0.349336
0.350884
0.373828
0.371569
0.369411
0.367405
0.365503
0.363755
0.362078
0.360543
0.359016
0.357668
0.356242
0.355093
0.353717
0.352533
0.350845
0.349214
0.348577
0.349452
0.373825
0.371571
0.369406
0.367383
0.365434
0.363636
0.361886
0.360295
0.358693
0.357321
0.355803
0.354714
0.353198
0.352153
0.35034
0.349316
0.348001
0.348441
0.373824
0.371569
0.369403
0.367376
0.365419
0.363604
0.361829
0.360217
0.358576
0.357197
0.355618
0.354556
0.352966
0.351958
0.350124
0.349166
0.347719
0.347845
0.373825
0.371564
0.369402
0.36737
0.365415
0.363592
0.361812
0.360191
0.358532
0.357155
0.355538
0.354487
0.352872
0.351866
0.350049
0.34906
0.347525
0.347339
0.373826
0.371559
0.369402
0.367362
0.365414
0.363582
0.361807
0.360182
0.358518
0.357144
0.355509
0.354455
0.352854
0.351844
0.350063
0.34923
0.347559
0.347027
0.373826
0.371555
0.3694
0.367357
0.365411
0.36358
0.361798
0.360186
0.358505
0.35715
0.355502
0.35444
0.352853
0.351867
0.350148
0.349227
0.347637
0.346967
0.373822
0.371561
0.369392
0.367363
0.3654
0.363586
0.361789
0.360193
0.358502
0.357155
0.355507
0.35443
0.352878
0.351878
0.35024
0.34922
0.347891
0.34654
0.37382
0.371561
0.36939
0.36736
0.365401
0.36358
0.361795
0.360185
0.358519
0.357145
0.355534
0.354417
0.352902
0.351902
0.350306
0.349248
0.347948
0.346452
0.373822
0.371555
0.369395
0.367347
0.365412
0.36356
0.361815
0.360158
0.358557
0.357102
0.355601
0.354376
0.352926
0.351957
0.350347
0.349289
0.347915
0.346352
0.373823
0.371554
0.369387
0.367353
0.365394
0.363576
0.361787
0.360192
0.358517
0.357156
0.355566
0.354405
0.352962
0.351896
0.350554
0.349248
0.348234
0.346518
0.373824
0.371553
0.369386
0.367355
0.365394
0.363583
0.361791
0.3602
0.358531
0.357157
0.355605
0.354372
0.35305
0.351824
0.350608
0.349353
0.348111
0.346345
0.373821
0.371557
0.369384
0.367362
0.365395
0.363591
0.361799
0.36021
0.358547
0.357169
0.355629
0.354386
0.353081
0.351837
0.350628
0.349373
0.34811
0.346333
0.373823
0.371555
0.369388
0.367363
0.365402
0.3636
0.361812
0.360231
0.358573
0.357203
0.355668
0.35444
0.353135
0.351896
0.350681
0.349442
0.348166
0.346405
0.373823
0.371557
0.369391
0.367371
0.365418
0.363636
0.361865
0.360313
0.358685
0.357337
0.355836
0.354644
0.353339
0.352149
0.350883
0.349761
0.348261
0.346624
0.373823
0.371557
0.369402
0.367435
0.365544
0.36386
0.362179
0.360726
0.35919
0.357896
0.356482
0.355314
0.35404
0.352873
0.351636
0.3503
0.348744
0.347188
0.373818
0.371561
0.369593
0.367908
0.366327
0.364931
0.363489
0.362203
0.36076
0.359546
0.358074
0.356965
0.355594
0.354346
0.353062
0.351567
0.349955
0.348466
0.373785
0.371992
0.371104
0.370273
0.36935
0.368345
0.367053
0.365726
0.364132
0.362741
0.361037
0.359761
0.358208
0.356782
0.355453
0.353695
0.351908
0.351224
0.374357
0.375574
0.377782
0.37787
0.377315
0.375951
0.373888
0.371778
0.369562
0.367661
0.365739
0.364281
0.362839
0.361641
0.36053
0.359233
0.35887
0.358893
0.379125
0.394317
0.398318
0.396682
0.392757
0.387838
0.383847
0.380687
0.378342
0.37701
0.376462
0.376654
0.37728
0.378338
0.380084
0.381667
0.384333
0.387877
0.408455
0.427475
0.422467
0.411202
0.40258
0.39792
0.398486
0.400697
0.405327
0.412138
0.419823
0.427837
0.437319
0.445002
0.455164
0.462057
0.472366
0.480944
0.366067
0.35342
0.341997
0.330241
0.319048
0.308549
0.299469
0.29191
0.285423
0.280524
0.276708
0.273823
0.272429
0.270944
0.270808
0.270989
0.271652
0.27326
0.0682877
0.0959041
0.111263
0.121576
0.129073
0.133234
0.125662
0.124658
0.125508
0.119546
0.156183
0.149054
0.186656
0.231937
0.276443
0.31429
0.34739
0.376844
0.403499
0.428
0.450713
0.472115
0.492278
0.511674
0.530143
0.548225
0.565565
0.582805
0.599432
0.616173
0.632311
0.648376
0.663162
0.677122
0.690247
0.705202
0.718236
0.724242
0.725887
0.736761
0.742955
0.754062
0.766664
0.78506
0.797748
0.79566
0.78304
0.788234
0.792116
0.803821
0.80003
0.792236
0.773673
0.789337
0.76582
0.773453
0.751902
0.763408
0.736573
0.736102
0.72964
0.733913
0.725309
0.713043
0.68508
0.705755
0.697858
0.688449
0.675891
0.665429
0.632665
0.637583
0.625112
0.589749
0.590827
0.579885
0.573253
0.564883
0.55749
0.549312
0.541811
0.533624
0.526024
0.517718
0.510176
0.502135
0.494992
0.487387
0.479863
0.471435
0.460979
0.450778
0.440842
0.431121
0.421198
0.411288
0.401212
0.392049
0.38516
0.379112
0.373067
0.366932
0.360675
0.354882
0.349136
0.342443
0.335654
0.329009
0.322546
0.315699
0.307837
0.298252
0.286677
0.273243
0.258113
0.243306
0.22446
0.22174
0.214024
0.203859
0.192656
0.185738
0.178825
0.18208
0.183548
0.18328
0.181485
0.1796
0.174623
0.173434
0.171679
0.171096
0.172447
0.170645
0.169012
0.170639
0.168285
0.165757
0.165882
0.164975
0.165956
0.165602
0.162718
0.161168
0.165538
0.171262
0.173762
0.174287
0.169651
0.171908
0.172374
0.176355
0.182007
0.180486
0.180008
0.180249
0.179982
0.180835
0.181435
0.182726
0.183587
0.188962
0.188332
0.188405
0.189619
0.190583
0.191432
0.193501
0.199274
0.198402
0.203104
0.202479
0.206971
0.204209
0.207889
0.204703
0.206708
0.201462
0.200049
0.194891
0.149028
0.178902
0.196934
0.208538
0.221527
0.235657
0.250822
0.279161
0.318369
0.368944
0.41484
0.441449
0.470113
0.497795
0.524558
0.550645
0.576909
0.603659
0.631144
0.659524
0.688711
0.718644
0.749128
0.780066
0.811232
0.842576
0.873874
0.905122
0.936104
0.966842
0.997118
1.02697
1.05617
1.08477
1.11259
1.13966
1.16564
1.1905
1.21458
1.2383
1.26106
1.28354
1.30569
1.32728
1.3474
1.36634
1.38457
1.3993
1.40458
1.42266
1.42417
1.41835
1.42691
1.4274
1.42478
1.41903
1.40131
1.39964
1.39342
1.38828
1.38195
1.37524
1.36638
1.35745
1.34775
1.33944
1.32859
1.3165
1.30448
1.29034
1.27609
1.26211
1.24535
1.22819
1.214
1.1989
1.18431
1.16959
1.15504
1.1404
1.12589
1.11125
1.0967
1.08198
1.06734
1.05261
1.03803
1.02343
1.00891
0.99403
0.978565
0.962693
0.946521
0.930096
0.913556
0.896811
0.879226
0.860995
0.842643
0.824247
0.805759
0.787177
0.76849
0.749876
0.731232
0.712751
0.692986
0.673006
0.653358
0.634139
0.61483
0.594752
0.572952
0.548857
0.522033
0.492986
0.461731
0.430929
0.398536
0.369905
0.343447
0.320239
0.302486
0.28785
0.277053
0.270404
0.261537
0.25627
0.249429
0.245686
0.244161
0.241112
0.240329
0.238321
0.236002
0.235305
0.235268
0.232265
0.230836
0.230199
0.228932
0.228569
0.227322
0.226327
0.225708
0.224892
0.22385
0.222533
0.221502
0.220528
0.219419
0.218634
0.218339
0.217116
0.216385
0.214019
0.21231
0.211606
0.210008
0.209088
0.210413
0.208899
0.208012
0.208181
0.210115
0.209119
0.210143
0.2112
0.210832
0.212537
0.211331
0.211296
0.211213
0.208767
0.208169
0.204663
0.20587
0.205633
0.212417
0.216576
0.270759
0.333786
0.369627
0.395377
0.424368
0.459072
0.492876
0.520461
0.543699
0.566657
0.591442
0.618227
0.648812
0.683083
0.719561
0.7582
0.798406
0.840231
0.882785
0.925464
0.967661
1.00896
1.04903
1.08774
1.12502
1.16095
1.19564
1.22927
1.26198
1.29398
1.32538
1.35646
1.38732
1.41808
1.44872
1.4793
1.50972
1.53993
1.56982
1.59926
1.6279
1.65544
1.68155
1.70606
1.72881
1.74931
1.76762
1.78312
1.79562
1.80632
1.81274
1.81634
1.82033
1.82663
1.8249
1.81994
1.81211
1.80475
1.79567
1.78486
1.77312
1.75978
1.74504
1.72955
1.71358
1.69689
1.67961
1.6616
1.64342
1.62448
1.6058
1.58682
1.56739
1.54795
1.52886
1.50968
1.49057
1.47145
1.45236
1.43325
1.41414
1.39495
1.37571
1.35633
1.33686
1.31725
1.2975
1.2776
1.25749
1.23704
1.21608
1.19454
1.1725
1.15016
1.12773
1.10539
1.08317
1.06104
1.03896
1.01685
0.994672
0.972428
0.95011
0.927761
0.905427
0.883207
0.860854
0.838565
0.816568
0.795013
0.773709
0.752396
0.729825
0.705055
0.677418
0.646737
0.612462
0.575607
0.536397
0.496348
0.458225
0.423288
0.392465
0.365823
0.344107
0.327236
0.313019
0.30195
0.292705
0.285104
0.279298
0.274377
0.270413
0.266995
0.263855
0.261101
0.25888
0.256239
0.253766
0.251554
0.249411
0.247543
0.245828
0.244162
0.242679
0.241046
0.239794
0.238396
0.237322
0.236148
0.23528
0.234125
0.233433
0.232252
0.231197
0.229975
0.228554
0.227287
0.225972
0.225063
0.22425
0.223546
0.222368
0.221612
0.220748
0.219522
0.218729
0.21806
0.217029
0.216228
0.215524
0.21417
0.213083
0.211696
0.210708
0.209335
0.20794
0.206608
0.207092
0.208985
0.396234
0.506114
0.556791
0.576144
0.585053
0.59325
0.604539
0.619631
0.640229
0.66722
0.700016
0.737682
0.779404
0.824294
0.871246
0.919558
0.968309
1.01678
1.06427
1.11034
1.15466
1.1971
1.23764
1.27644
1.31367
1.34961
1.38454
1.41877
1.45256
1.4862
1.51987
1.55379
1.58804
1.62271
1.65778
1.6932
1.72883
1.76452
1.80003
1.83508
1.86931
1.90241
1.93404
1.9639
1.99167
2.01703
2.03974
2.0595
2.07614
2.08961
2.09957
2.10628
2.11147
2.11912
2.11845
2.11389
2.10649
2.09701
2.08539
2.07177
2.05648
2.03958
2.02136
2.00214
1.98213
1.96138
1.94007
1.91824
1.8961
1.87364
1.85113
1.82845
1.80565
1.78282
1.76001
1.73717
1.71433
1.69147
1.66859
1.64567
1.62269
1.5996
1.57638
1.55298
1.52938
1.50554
1.48143
1.45705
1.43243
1.40756
1.38241
1.35699
1.33132
1.30553
1.27973
1.25403
1.2285
1.20315
1.17791
1.15274
1.12759
1.10247
1.07738
1.05232
1.02737
1.00253
0.977766
0.953125
0.928697
0.904577
0.880784
0.857177
0.833325
0.808744
0.782666
0.754896
0.723341
0.6875
0.647915
0.604605
0.55977
0.515605
0.474017
0.436187
0.4033
0.376006
0.353656
0.335683
0.321341
0.309892
0.300804
0.293443
0.287466
0.282492
0.278153
0.274342
0.271086
0.268102
0.265303
0.262646
0.260147
0.257833
0.255679
0.253652
0.251796
0.249993
0.248373
0.246812
0.245397
0.244026
0.242755
0.241434
0.240253
0.238934
0.23762
0.236317
0.234883
0.233548
0.232182
0.230915
0.229738
0.228671
0.227328
0.226139
0.224771
0.22342
0.222172
0.221043
0.219854
0.218692
0.21763
0.216309
0.215038
0.213857
0.212785
0.211912
0.210608
0.210248
0.210338
0.210965
0.498191
0.640192
0.689382
0.694877
0.682166
0.675267
0.677586
0.693096
0.719017
0.753439
0.794312
0.839869
0.888672
0.939451
0.991123
1.04289
1.09401
1.14395
1.19229
1.23879
1.28333
1.32597
1.36681
1.40614
1.44422
1.48141
1.51801
1.55439
1.59083
1.62762
1.66497
1.70305
1.74195
1.78173
1.82233
1.86368
1.90558
1.94783
1.99011
2.03208
2.07334
2.11349
2.15208
2.18871
2.22294
2.2544
2.28271
2.30755
2.32868
2.34589
2.35904
2.36823
2.37474
2.38307
2.38294
2.37817
2.36984
2.35853
2.34455
2.32821
2.30983
2.28966
2.26802
2.24518
2.22137
2.19678
2.17158
2.14591
2.11991
2.09368
2.06735
2.04092
2.01445
1.98795
1.96143
1.93492
1.90839
1.88183
1.85523
1.82857
1.80179
1.77488
1.74777
1.72043
1.69283
1.665
1.63695
1.60874
1.58041
1.55199
1.52344
1.4948
1.46608
1.43733
1.40863
1.38006
1.35164
1.3234
1.29531
1.26732
1.23944
1.21164
1.18394
1.15635
1.12893
1.10165
1.07455
1.0476
1.02083
0.994293
0.968013
0.941919
0.915828
0.889421
0.862308
0.834218
0.804231
0.772018
0.736948
0.695957
0.650915
0.603297
0.555189
0.508726
0.466006
0.428596
0.397013
0.371079
0.350256
0.333716
0.320657
0.310305
0.302053
0.295358
0.2898
0.285076
0.281056
0.277535
0.274354
0.271405
0.268653
0.266081
0.263674
0.261412
0.2593
0.257295
0.25541
0.253623
0.251941
0.250334
0.248786
0.247253
0.245791
0.244318
0.242835
0.2414
0.239921
0.238501
0.237078
0.235706
0.234353
0.233061
0.231659
0.230299
0.228879
0.227467
0.226144
0.224947
0.223762
0.222544
0.221353
0.220047
0.218787
0.217557
0.216415
0.215531
0.21439
0.214248
0.214196
0.214266
0.555151
0.708112
0.756687
0.758287
0.741212
0.732813
0.736655
0.756435
0.78817
0.828357
0.87427
0.923992
0.976026
1.02918
1.08253
1.1354
1.18724
1.23766
1.28641
1.3334
1.3786
1.42216
1.46426
1.5052
1.54531
1.58495
1.62446
1.66422
1.70452
1.74565
1.78783
1.83125
1.87597
1.92206
1.96943
2.01799
2.06751
2.11772
2.16825
2.21868
2.26851
2.31724
2.36428
2.40909
2.45111
2.48981
2.52473
2.55544
2.58162
2.60302
2.6195
2.63114
2.63888
2.64744
2.64726
2.64166
2.63175
2.61816
2.60138
2.58183
2.55989
2.53593
2.5103
2.48331
2.45525
2.42635
2.39683
2.36686
2.3366
2.30616
2.27564
2.24511
2.21458
2.18408
2.15362
2.12317
2.09274
2.06228
2.03178
2.00119
1.97047
1.93959
1.90855
1.87733
1.84596
1.81448
1.78292
1.75131
1.71967
1.68802
1.65637
1.62471
1.59306
1.56146
1.52993
1.49854
1.46729
1.43621
1.40527
1.37447
1.34381
1.31328
1.28289
1.25268
1.22264
1.19282
1.16319
1.13378
1.10457
1.07557
1.0468
1.01823
0.989772
0.961204
0.932255
0.902659
0.872026
0.840143
0.80636
0.769773
0.72932
0.683642
0.634165
0.583257
0.533595
0.487679
0.447157
0.412763
0.384491
0.361769
0.343773
0.329615
0.318478
0.309644
0.302535
0.296702
0.291845
0.287705
0.284074
0.280802
0.277797
0.275006
0.272394
0.269937
0.267622
0.265426
0.263338
0.261346
0.259447
0.257633
0.255876
0.254169
0.252513
0.250894
0.249278
0.247721
0.246163
0.244661
0.243167
0.241721
0.240275
0.238842
0.23735
0.235879
0.23444
0.233006
0.231674
0.230445
0.229252
0.227991
0.226745
0.22541
0.224126
0.222855
0.22168
0.220558
0.219642
0.21869
0.218367
0.218015
0.568205
0.717578
0.773027
0.780334
0.771511
0.768655
0.780139
0.80602
0.842869
0.88711
0.936162
0.988294
1.04211
1.09659
1.15096
1.20467
1.25728
1.30856
1.35833
1.40656
1.45332
1.49878
1.54316
1.58681
1.63003
1.67322
1.71673
1.76093
1.80614
1.85265
1.9007
1.95046
2.00204
2.05549
2.11074
2.16767
2.22603
2.28553
2.34572
2.4061
2.46606
2.52494
2.58201
2.63656
2.68783
2.73515
2.77787
2.81545
2.84746
2.87358
2.89374
2.90792
2.91682
2.92518
2.92435
2.91724
2.90502
2.88842
2.86807
2.84449
2.81818
2.7896
2.75916
2.72726
2.69422
2.66034
2.62586
2.591
2.55591
2.52073
2.48556
2.45046
2.41547
2.38059
2.34581
2.31112
2.27648
2.24186
2.20722
2.17255
2.13784
2.10309
2.06829
2.03345
1.99859
1.96373
1.92887
1.89405
1.85926
1.82452
1.78981
1.75515
1.72055
1.68602
1.65159
1.61728
1.58311
1.54909
1.51521
1.48149
1.44791
1.4145
1.38126
1.34822
1.31539
1.2828
1.25044
1.21833
1.18646
1.15485
1.12347
1.09236
1.06144
1.03058
0.999547
0.968139
0.936085
0.903184
0.869174
0.833494
0.795593
0.755124
0.708399
0.657373
0.604528
0.552805
0.504786
0.462295
0.42619
0.3965
0.37266
0.353828
0.33907
0.327512
0.318395
0.311112
0.305195
0.300282
0.296088
0.292405
0.28909
0.286047
0.283216
0.280558
0.278048
0.275664
0.273387
0.271207
0.269115
0.267105
0.26516
0.263277
0.261446
0.25967
0.257913
0.256216
0.254543
0.252921
0.251324
0.249769
0.248226
0.246672
0.245092
0.24353
0.242028
0.24056
0.239189
0.237864
0.236577
0.235242
0.233905
0.232516
0.231173
0.229822
0.22858
0.227267
0.226266
0.225052
0.224519
0.22355
0.557475
0.697651
0.758459
0.776589
0.780179
0.787651
0.80801
0.840216
0.881423
0.928756
0.980151
1.03409
1.08937
1.14513
1.20072
1.25569
1.30971
1.36259
1.41424
1.46467
1.51398
1.56236
1.61005
1.65737
1.70466
1.75229
1.80064
1.85007
1.90091
1.95349
2.00805
2.06481
2.12389
2.18537
2.24922
2.31533
2.38345
2.45326
2.52428
2.59594
2.66749
2.73812
2.80693
2.87296
2.93526
2.9929
3.04503
3.09089
3.12988
3.16155
3.1858
3.20276
3.21306
3.22095
3.21893
3.20965
3.19435
3.17391
3.14908
3.12054
3.08892
3.05478
3.01865
2.98098
2.94218
2.90257
2.86246
2.82207
2.78158
2.74115
2.70085
2.66076
2.6209
2.58126
2.54183
2.50261
2.46357
2.42468
2.38594
2.34732
2.30882
2.27041
2.23208
2.19383
2.15564
2.11752
2.07948
2.04152
2.00364
1.96581
1.92805
1.89034
1.85271
1.81516
1.77771
1.74037
1.70316
1.66608
1.62914
1.59235
1.55572
1.51926
1.483
1.44694
1.41113
1.37557
1.34028
1.30526
1.27055
1.23612
1.202
1.16821
1.13472
1.10142
1.06814
1.03471
1.00091
0.966583
0.931502
0.895436
0.858027
0.818865
0.777006
0.729253
0.676769
0.622337
0.569061
0.519658
0.476001
0.438975
0.408589
0.384262
0.365103
0.350141
0.338464
0.32929
0.321989
0.316064
0.311131
0.306904
0.303179
0.299815
0.296719
0.29383
0.291107
0.288523
0.286053
0.283683
0.281403
0.279201
0.277067
0.274996
0.272977
0.271017
0.269089
0.267217
0.265383
0.263595
0.261846
0.260135
0.258451
0.256763
0.255068
0.253395
0.251775
0.250202
0.24871
0.247246
0.245807
0.244342
0.242882
0.241394
0.239956
0.238485
0.237134
0.235638
0.234466
0.232987
0.232218
0.230779
0.525952
0.654008
0.722176
0.754675
0.773775
0.793274
0.82182
0.859659
0.904535
0.954385
1.00771
1.06328
1.12009
1.17742
1.23472
1.2916
1.3478
1.40315
1.45759
1.51113
1.56388
1.61602
1.66779
1.71952
1.77152
1.82416
1.87783
1.93289
1.9897
2.04858
2.10983
2.1737
2.24036
2.30997
2.38253
2.458
2.5362
2.61682
2.69938
2.78326
2.86762
2.9515
3.03377
3.11324
3.18865
3.25875
3.32238
3.37849
3.42623
3.46496
3.49439
3.51325
3.52661
3.53409
3.53056
3.51858
3.49951
3.47441
3.44423
3.4098
3.37193
3.33133
3.28862
3.24436
3.19903
3.153
3.10662
3.06013
3.01373
2.96756
2.92171
2.87626
2.83125
2.78666
2.74252
2.69879
2.65546
2.61249
2.56985
2.5275
2.48541
2.44353
2.40183
2.36029
2.31888
2.27759
2.23643
2.19536
2.15439
2.11349
2.07264
2.03186
1.99114
1.9505
1.90995
1.86949
1.82915
1.78892
1.74883
1.70887
1.66908
1.62947
1.59006
1.55087
1.51193
1.47326
1.43489
1.39682
1.3591
1.32171
1.28471
1.24813
1.21194
1.17606
1.14037
1.10473
1.06897
1.03292
0.996425
0.959289
0.921358
0.882325
0.84161
0.798319
0.748839
0.694596
0.638592
0.584019
0.533653
0.489367
0.451997
0.421476
0.397151
0.378064
0.3632
0.351619
0.342525
0.335274
0.32936
0.324404
0.320127
0.316338
0.3129
0.309729
0.306759
0.303954
0.301276
0.298709
0.296238
0.293844
0.291518
0.289249
0.287029
0.28486
0.282727
0.280645
0.278603
0.276604
0.274651
0.272735
0.270859
0.268996
0.26714
0.265311
0.263524
0.261781
0.260104
0.258454
0.256826
0.25519
0.253573
0.251935
0.250359
0.248723
0.247235
0.245537
0.244182
0.242385
0.241376
0.239454
0.48871
0.607402
0.678891
0.722365
0.755443
0.787116
0.822409
0.864988
0.913111
0.965512
1.02067
1.07787
1.13639
1.19565
1.25515
1.31456
1.37361
1.43215
1.49009
1.54744
1.60427
1.66077
1.71715
1.77371
1.83075
1.88864
1.94773
2.0084
2.071
2.13591
2.20342
2.27387
2.34749
2.42453
2.5051
2.58929
2.67702
2.7681
2.86214
2.95853
3.05642
3.1547
3.25203
3.34693
3.43777
3.52289
3.60069
3.66972
3.72872
3.77677
3.81352
3.83692
3.85306
3.86016
3.85507
3.84014
3.81686
3.78649
3.75022
3.70912
3.66419
3.6163
3.56624
3.51466
3.46213
3.40909
3.35589
3.30284
3.25015
3.19798
3.14645
3.09561
3.0455
2.99613
2.94745
2.89945
2.85206
2.80523
2.7589
2.713
2.66748
2.62228
2.57735
2.53264
2.4881
2.44373
2.39949
2.35537
2.31134
2.26738
2.22348
2.17961
2.1358
2.09205
2.04837
2.00478
1.96127
1.91787
1.87458
1.83143
1.78843
1.74562
1.70301
1.66063
1.6185
1.57666
1.53513
1.49394
1.45311
1.41269
1.37273
1.33326
1.29428
1.25571
1.21747
1.17945
1.14152
1.10353
1.06534
1.0268
0.98775
0.948059
0.907342
0.864996
0.819779
0.767909
0.711581
0.653883
0.59814
0.547158
0.502735
0.465557
0.435407
0.411499
0.392797
0.37824
0.36688
0.357919
0.350714
0.344781
0.339758
0.33539
0.331496
0.32796
0.324682
0.321613
0.318697
0.315916
0.313246
0.310654
0.308135
0.305662
0.303233
0.300838
0.298477
0.296152
0.293864
0.291614
0.289408
0.287242
0.28512
0.283027
0.280955
0.278913
0.276908
0.274942
0.273031
0.27115
0.269298
0.267452
0.265641
0.263814
0.262062
0.260227
0.258561
0.256637
0.255086
0.252974
0.251751
0.249146
0.453017
0.564181
0.637363
0.688927
0.731626
0.77266
0.815143
0.86077
0.91014
0.963391
1.02003
1.07903
1.1397
1.20158
1.26378
1.3262
1.38859
1.45079
1.51269
1.57428
1.63559
1.69677
1.75798
1.81949
1.88157
1.94455
2.00878
2.07459
2.14236
2.21245
2.28521
2.36101
2.44019
2.52311
2.61005
2.70127
2.7969
2.897
3.00136
3.10956
3.22079
3.33392
3.44742
3.55952
3.66817
3.77119
3.86637
3.95167
4.02528
4.08584
4.13271
4.16361
4.18452
4.19133
4.18522
4.16764
4.14014
4.10425
4.06146
4.01314
3.96055
3.90477
3.84678
3.78736
3.7272
3.6668
3.60661
3.54692
3.48799
3.42996
3.37293
3.31694
3.262
3.20808
3.15514
3.1031
3.05189
3.00142
2.9516
2.90236
2.8536
2.80524
2.75721
2.70945
2.66191
2.61455
2.56733
2.52024
2.47324
2.4263
2.37939
2.3325
2.28565
2.23884
2.19209
2.14539
2.09876
2.05221
2.00577
1.95945
1.91327
1.86728
1.82148
1.77592
1.73062
1.68562
1.64093
1.59661
1.55269
1.50922
1.46627
1.42389
1.38206
1.34074
1.29986
1.25934
1.21907
1.17895
1.13884
1.0986
1.0581
1.01719
0.97571
0.933197
0.888907
0.840813
0.786117
0.727292
0.667779
0.611097
0.559994
0.516051
0.479668
0.450386
0.427255
0.409165
0.395041
0.383936
0.375074
0.367855
0.361828
0.356669
0.352148
0.34811
0.344414
0.341001
0.337786
0.334754
0.331861
0.329056
0.32634
0.323657
0.321021
0.318394
0.315796
0.313211
0.310647
0.308112
0.305615
0.303154
0.300738
0.29836
0.296012
0.293699
0.291424
0.289187
0.286999
0.284848
0.282738
0.280647
0.278606
0.276556
0.274595
0.27254
0.27067
0.268513
0.266762
0.264357
0.262949
0.25984
0.420939
0.527032
0.600665
0.657355
0.706419
0.753105
0.800329
0.84945
0.901451
0.956275
1.01368
1.0734
1.13488
1.19773
1.26248
1.32828
1.39426
1.46034
1.5264
1.59238
1.65826
1.72411
1.79008
1.85634
1.92313
1.99072
2.05942
2.12953
2.20139
2.27535
2.35179
2.43113
2.51377
2.60021
2.69092
2.78642
2.88714
2.99349
3.10565
3.22356
3.34674
3.47406
3.60386
3.73428
3.86275
3.98648
4.10254
4.208
4.30024
4.37721
4.43769
4.47954
4.50575
4.51622
4.51093
4.49181
4.46073
4.41961
4.37035
4.31472
4.25432
4.19053
4.12454
4.0573
3.98961
3.92205
3.8551
3.78906
3.72419
3.66061
3.59841
3.53759
3.47814
3.42
3.36308
3.30729
3.25253
3.19867
3.14561
3.09324
3.04144
2.99012
2.93919
2.88857
2.83818
2.78799
2.73795
2.68803
2.63819
2.58839
2.53861
2.48884
2.43907
2.38932
2.3396
2.28991
2.24026
2.19068
2.14118
2.09178
2.04252
1.99343
1.94454
1.89588
1.84748
1.79939
1.75162
1.70424
1.65728
1.61082
1.56494
1.51967
1.475
1.43091
1.38735
1.34426
1.30155
1.25915
1.21693
1.17477
1.13254
1.09008
1.04723
1.00381
0.959158
0.912338
0.86055
0.802189
0.740479
0.679347
0.622362
0.571988
0.529346
0.494418
0.466461
0.444387
0.427043
0.413362
0.402444
0.393578
0.386228
0.379996
0.374604
0.36985
0.365557
0.361653
0.358029
0.354662
0.35148
0.348426
0.345481
0.342578
0.339733
0.336871
0.334047
0.331194
0.328339
0.325502
0.322682
0.319888
0.317136
0.314422
0.311744
0.309104
0.306508
0.303953
0.30145
0.298992
0.296588
0.294218
0.291916
0.289615
0.28742
0.285132
0.283044
0.280659
0.27871
0.276049
0.274464
0.271069
0.393813
0.496194
0.569652
0.629247
0.682089
0.732191
0.781985
0.832989
0.886221
0.941979
1.00033
1.06121
1.12452
1.18991
1.25649
1.32405
1.39332
1.46307
1.53312
1.6033
1.67352
1.74376
1.81405
1.88453
1.95534
2.02669
2.09883
2.17202
2.24653
2.3227
2.40087
2.48147
2.56497
2.65198
2.74314
2.83926
2.94114
3.04967
3.16558
3.2894
3.4212
3.5605
3.70586
3.85475
4.00417
4.15073
4.29102
4.42076
4.53618
4.63417
4.71249
4.76963
4.80606
4.82207
4.82002
4.80134
4.76821
4.72304
4.66825
4.60608
4.53853
4.46732
4.39388
4.31934
4.24462
4.17038
4.09714
4.02523
3.95487
3.8862
3.81926
3.75404
3.69048
3.6285
3.56798
3.5088
3.45081
3.39389
3.33788
3.28267
3.22811
3.1741
3.12052
3.06728
3.0143
2.96152
2.90888
2.85635
2.80388
2.75146
2.69901
2.64655
2.59406
2.54157
2.48906
2.43657
2.38409
2.33164
2.27925
2.22694
2.17476
2.12272
2.07089
2.01926
1.96791
1.91685
1.86614
1.81582
1.76595
1.71661
1.66789
1.6198
1.57236
1.52554
1.47932
1.43364
1.38845
1.34367
1.29922
1.25496
1.21077
1.16649
1.12195
1.07696
1.03122
0.983869
0.933859
0.876865
0.814156
0.749823
0.688034
0.631998
0.583523
0.543084
0.510215
0.483928
0.463045
0.446425
0.433072
0.42218
0.413141
0.405491
0.398901
0.393128
0.387977
0.383352
0.379136
0.375255
0.37165
0.368236
0.364966
0.361808
0.358706
0.355632
0.352561
0.349456
0.346322
0.343187
0.340023
0.33687
0.333755
0.330663
0.327603
0.324589
0.321623
0.318705
0.315847
0.313044
0.310313
0.307635
0.305044
0.302472
0.300022
0.297495
0.295181
0.292581
0.290437
0.287568
0.285811
0.28226
0.369614
0.470235
0.544236
0.605768
0.660765
0.712698
0.763811
0.815673
0.869427
0.925689
0.984701
1.04652
1.11104
1.17802
1.24706
1.31789
1.3897
1.46259
1.53614
1.61006
1.6841
1.75811
1.83204
1.90588
1.97971
2.05366
2.1279
2.20261
2.27802
2.35441
2.43208
2.51143
2.59291
2.67728
2.76511
2.85763
2.95604
3.06175
3.17616
3.30059
3.43585
3.58224
3.73901
3.90437
4.07551
4.24788
4.41535
4.57295
4.71617
4.84026
4.94166
5.01814
5.06943
5.09509
5.09973
5.0848
5.05224
5.00518
4.94663
4.87938
4.80592
4.72835
4.6484
4.56742
4.48647
4.40631
4.32749
4.25038
4.1752
4.10205
4.03097
3.96191
3.89478
3.82946
3.76582
3.7037
3.64293
3.58335
3.5248
3.46713
3.41019
3.35384
3.29797
3.24246
3.18722
3.13218
3.07727
3.02245
2.96768
2.91291
2.85811
2.80325
2.74833
2.69337
2.63837
2.58333
2.52827
2.47322
2.41818
2.3632
2.30832
2.25356
2.19897
2.14459
2.09047
2.03664
1.98316
1.93007
1.87746
1.82541
1.77398
1.72321
1.6731
1.62364
1.57483
1.52661
1.47894
1.43176
1.38499
1.33851
1.2922
1.24588
1.19938
1.15249
1.10497
1.05632
1.00554
0.950187
0.887079
0.820546
0.755118
0.694517
0.641082
0.595724
0.55826
0.527845
0.503333
0.483559
0.467475
0.454208
0.443105
0.43366
0.425494
0.418348
0.412014
0.40636
0.401272
0.396626
0.392364
0.388389
0.384647
0.381101
0.377631
0.374252
0.370874
0.367486
0.364073
0.360617
0.357125
0.35362
0.350133
0.34663
0.343151
0.339724
0.33634
0.333013
0.329753
0.326565
0.32347
0.320451
0.317544
0.31468
0.311957
0.309185
0.306634
0.303837
0.301487
0.298469
0.296503
0.292911
0.35191
0.451165
0.525014
0.587677
0.644053
0.697247
0.749405
0.80215
0.856966
0.914175
0.974106
1.03694
1.1027
1.17119
1.24207
1.31504
1.38915
1.46448
1.54076
1.61769
1.69482
1.77184
1.84852
1.92475
2.00048
2.07576
2.15064
2.22526
2.29976
2.37433
2.44924
2.52485
2.60138
2.67989
2.76138
2.84679
2.93739
3.03502
3.14183
3.26031
3.39284
3.54089
3.70464
3.88342
4.07255
4.26754
4.46381
4.65355
4.82861
4.9834
5.11308
5.21419
5.28516
5.32682
5.3398
5.33202
5.303
5.25657
5.19641
5.12594
5.0482
4.96573
4.88059
4.79439
4.70835
4.62333
4.53994
4.45857
4.37945
4.30266
4.22822
4.15605
4.08605
4.01806
3.95192
3.88745
3.82446
3.76277
3.70219
3.64257
3.58374
3.52554
3.46785
3.41053
3.35349
3.29664
3.23989
3.18322
3.12655
3.06987
3.01311
2.95626
2.89931
2.84227
2.78513
2.72792
2.67064
2.61331
2.55595
2.49861
2.44132
2.38412
2.32705
2.27018
2.21353
2.15717
2.10114
2.04551
1.99036
1.93579
1.88184
1.82855
1.77592
1.72397
1.67267
1.622
1.57191
1.52236
1.47325
1.42449
1.37593
1.32741
1.27873
1.22969
1.18
1.12945
1.07694
1.02174
0.958001
0.88986
0.821893
0.758021
0.700856
0.651592
0.610261
0.576157
0.548209
0.525272
0.506299
0.4904
0.476907
0.465307
0.455203
0.446326
0.438451
0.431419
0.425114
0.4194
0.414183
0.409397
0.404964
0.400804
0.396799
0.392909
0.389081
0.385245
0.38142
0.377553
0.373688
0.369812
0.365931
0.362025
0.358122
0.35426
0.350414
0.346627
0.342912
0.339288
0.335784
0.332389
0.329134
0.325955
0.322937
0.319909
0.317108
0.314119
0.311548
0.30842
0.306219
0.302647
0.332407
0.431543
0.50695
0.572699
0.631939
0.688748
0.744332
0.799989
0.856321
0.914519
0.975231
1.03879
1.10532
1.17474
1.24679
1.32118
1.39755
1.47547
1.55447
1.63394
1.71355
1.79282
1.8714
1.94903
2.02555
2.10088
2.17501
2.24797
2.31986
2.3908
2.46093
2.53022
2.59976
2.66979
2.74106
2.81487
2.89288
2.97749
3.07154
3.17851
3.30187
3.4447
3.60874
3.79418
3.99883
4.21889
4.44275
4.66288
4.87295
5.06277
5.22529
5.35572
5.45118
5.51259
5.53708
5.53868
5.51602
5.47264
5.413
5.34125
5.261
5.17527
5.0865
4.99653
4.90676
4.81817
4.73143
4.64694
4.56494
4.48552
4.40867
4.33428
4.26224
4.19237
4.12448
4.05836
3.99381
3.93066
3.86868
3.80773
3.74758
3.68812
3.62915
3.5706
3.5123
3.45417
3.39613
3.3381
3.28007
3.22195
3.16372
3.10536
3.04684
2.98816
2.92933
2.87036
2.81125
2.75202
2.6927
2.63333
2.57395
2.51461
2.45535
2.39623
2.3373
2.27863
2.22027
2.1623
2.10482
2.04789
1.99157
1.9359
1.88089
1.82655
1.77287
1.71982
1.66736
1.61544
1.56397
1.51285
1.46192
1.41102
1.35993
1.30846
1.25629
1.2033
1.14846
1.09143
1.02654
0.957116
0.887625
0.821867
0.762429
0.710563
0.666401
0.629335
0.598386
0.572471
0.550593
0.531913
0.515786
0.501722
0.489339
0.478361
0.468563
0.459781
0.451891
0.444742
0.438247
0.43233
0.426886
0.421828
0.417022
0.412394
0.407853
0.403377
0.398884
0.394472
0.390042
0.385659
0.381288
0.376925
0.372563
0.368218
0.363893
0.359601
0.355362
0.351233
0.34726
0.343436
0.339788
0.336256
0.332908
0.329597
0.326517
0.323321
0.320507
0.317268
0.314814
0.311263
0.312683
0.417813
0.496733
0.567023
0.631153
0.6912
0.749579
0.807694
0.866635
0.927199
0.990015
1.05549
1.12386
1.19513
1.26923
1.34588
1.42478
1.50531
1.58683
1.66867
1.75016
1.83085
1.91032
1.98822
2.06431
2.13841
2.21042
2.28031
2.34813
2.41398
2.47799
2.54061
2.6011
2.66053
2.7201
2.78091
2.84471
2.91409
2.9924
3.08398
3.19355
3.32574
3.48404
3.67005
3.88243
4.11679
4.36456
4.61818
4.85919
5.08152
5.27555
5.43458
5.55491
5.63678
5.67302
5.68346