/*--------------------------------*- C++ -*----------------------------------*\
  =========                 |
  \\      /  F ield         | OpenFOAM: The Open Source CFD Toolbox
   \\    /   O peration     | Website:  https://openfoam.org
    \\  /    A nd           | Version:  9
     \\/     M anipulation  |
\*---------------------------------------------------------------------------*/
FoamFile
{
    format      ascii;
    class       volScalarField::Internal;
    location    "30";
    object      tmp<kEpsilon:G>;
}
// * * * * * * * * * * * * * * * * * * * * * * * * * * * * * * * * * * * * * //

dimensions      [0 2 -3 0 0 0 0];

value           nonuniform List<scalar> 
12225
(
0
0
0
0
0
0
0
0
0
0
0
0
0
0
0
0
0
0
947.185
500.439
266.165
281.912
383.481
503.329
612.207
728.304
820.202
915.671
983.76
1056.15
1107.87
1167.69
1227.27
1297.54
1449.1
1660.69
85.8254
123.018
55.2639
17.3276
5.16333
4.29247
8.46313
16.5614
26.4238
38.9362
51.1259
65.5901
78.848
94.2072
109.714
126.113
153.571
183.514
5.16265
1.62605
0.648174
0.723031
0.48142
0.224177
0.0866563
0.275792
0.916152
2.12307
3.77901
6.12468
8.91883
12.6441
17.1348
22.9821
31.6968
45.1856
0.224519
0.124206
0.122455
0.232765
0.322899
0.309477
0.194486
0.0729464
0.0076881
0.026709
0.160932
0.461885
0.981558
1.81169
3.07403
4.91367
7.80626
13.4807
0.186635
0.170641
0.178512
0.222442
0.241293
0.218164
0.161838
0.104174
0.0560785
0.0223153
0.017097
0.0667819
0.206861
0.482283
0.96251
1.74968
3.05562
5.28405
0.138677
0.190716
0.170593
0.147802
0.139578
0.124985
0.0957246
0.0679446
0.0439068
0.0233409
0.012977
0.0289954
0.0949821
0.241301
0.511331
0.972725
1.69427
2.74025
0.109588
0.13755
0.117548
0.0967149
0.0908283
0.0821158
0.0604745
0.0399247
0.0234876
0.0100846
0.00324145
0.0147853
0.063462
0.172321
0.370697
0.7004
1.17793
1.85905
0.0869297
0.0997383
0.0881483
0.0754859
0.0714726
0.0629567
0.0436261
0.025401
0.0123556
0.00323941
0.000416344
0.0140793
0.059964
0.155839
0.322082
0.585829
0.94575
1.46232
0.069978
0.0774694
0.0717678
0.0647751
0.061916
0.0528416
0.0356342
0.0202728
0.0105033
0.00519679
0.00684647
0.0245778
0.0713939
0.161346
0.309244
0.531765
0.818652
1.22464
0.0567447
0.0613341
0.0590267
0.0531413
0.0528316
0.0468559
0.0329516
0.0204879
0.0133536
0.011737
0.0183306
0.0409921
0.090613
0.178764
0.314118
0.506829
0.740168
1.05996
0.0471507
0.0500964
0.0512157
0.0462553
0.0468309
0.0437959
0.0336984
0.0250054
0.0214403
0.0232029
0.0329751
0.0575884
0.107194
0.190422
0.313073
0.480709
0.677601
0.92951
0.0384226
0.0412969
0.0467191
0.0443818
0.04275
0.041786
0.0376529
0.0351567
0.0360699
0.0404162
0.0515537
0.0761678
0.121972
0.197036
0.305108
0.451306
0.62005
0.823793
0.0298455
0.0331498
0.0394542
0.0421703
0.040625
0.0399778
0.0407846
0.0446084
0.0507866
0.0591532
0.0732413
0.0988811
0.141708
0.208782
0.302347
0.427263
0.568001
0.72992
0.0229054
0.0270676
0.0330645
0.0391576
0.0409696
0.0409175
0.0446944
0.0529309
0.0642809
0.0782942
0.0976975
0.125955
0.16801
0.227541
0.306036
0.409958
0.521002
0.647317
0.0170042
0.0215495
0.0285872
0.0363739
0.0427327
0.0459829
0.0525918
0.0641027
0.0773475
0.0943543
0.11728
0.148966
0.190469
0.246368
0.313303
0.396541
0.481197
0.579665
0.0113744
0.0158126
0.0243099
0.0337516
0.0427668
0.050459
0.0619984
0.0784222
0.0936141
0.109462
0.131251
0.16212
0.202191
0.253227
0.309623
0.378619
0.446627
0.521584
0.00663762
0.0111033
0.0211506
0.0327645
0.0429803
0.0530785
0.0697066
0.0920403
0.110696
0.125498
0.144524
0.171574
0.207416
0.251852
0.29898
0.353838
0.40441
0.456581
0.00275475
0.00776832
0.0193703
0.0337057
0.0459711
0.0576084
0.0773662
0.103823
0.125665
0.140348
0.156166
0.179257
0.209664
0.246198
0.282709
0.322723
0.358525
0.391222
0.00110677
0.00732241
0.0208606
0.0377185
0.0524053
0.0667494
0.0894035
0.1169
0.137235
0.149333
0.163157
0.183443
0.209882
0.239267
0.267619
0.297163
0.319055
0.344398
0.0018094
0.00982971
0.0262822
0.0453749
0.0618889
0.079804
0.104302
0.130323
0.146824
0.157104
0.169892
0.189588
0.212752
0.237744
0.259224
0.282313
0.29286
0.316389
0.00450095
0.0149632
0.0349454
0.0551952
0.0734354
0.095463
0.121884
0.14445
0.156578
0.165454
0.178804
0.198342
0.219206
0.239375
0.255139
0.271122
0.273396
0.290507
0.00914492
0.0245211
0.0485352
0.066744
0.084174
0.108928
0.135893
0.154356
0.16403
0.173673
0.189628
0.209376
0.228721
0.244271
0.25506
0.264764
0.260147
0.26963
0.0164137
0.045096
0.0779437
0.0914627
0.103491
0.1268
0.148991
0.160328
0.166479
0.177599
0.195449
0.215695
0.232555
0.24478
0.250904
0.255
0.245842
0.247912
0.0363691
0.0767204
0.111297
0.13936
0.157981
0.181511
0.191257
0.185258
0.179083
0.183137
0.194655
0.206517
0.212603
0.2144
0.210938
0.206531
0.193945
0.190022
0.0686064
0.190223
0.0725245
0.0921698
0.199754
0.300207
0.329383
0.302246
0.264968
0.237886
0.217577
0.19674
0.17259
0.151691
0.135608
0.127031
0.126583
0.131818
0.689727
0.129684
0.254805
0.435087
0.334432
0.272122
0.221735
0.138601
0.0627715
0.0251834
0.0363785
0.100649
0.221616
0.407565
0.647855
0.947073
1.29178
1.63693
32.292
71.2463
43.584
18.9638
7.68918
3.07036
1.35
1.16539
1.98392
3.49689
5.49773
7.87801
10.4643
13.3868
16.2711
19.4341
22.3696
25.5416
455.88
256.9
102.496
70.9339
91.0306
126.035
165.244
201.727
236.383
268.073
296.163
321.827
343.783
364.216
381.444
397.082
410.896
423.45
0
0
0
0
0
0
0
0
0
0
0
0
0
0
0
0
0
0
0
0
0
0
0
0
4.80951
4.10469
3.18195
1.93489
0
2.87084
7.69241
14.7412
23.5922
33.903
45.399
57.8105
70.8933
84.4418
98.2472
112.199
126.112
139.984
153.622
167.127
180.274
193.252
205.799
218.188
230.13
241.901
252.97
263.232
272.159
281.542
291.063
296.742
299.492
304.214
306.855
309.835
312.532
317.058
321.186
319.413
316.878
312.652
307.751
298.271
299.205
286.867
284.483
282.107
274.899
260.971
257.495
253.149
245.08
235.864
227.17
212.959
207.523
192.901
186.942
178.884
172.999
168.913
156.501
151.964
143.799
131.141
126.194
118.981
112.715
106.242
100.106
93.9714
88.1006
82.2457
76.636
71.0623
65.7039
60.3791
55.2637
50.2179
45.3641
40.6186
35.9767
31.4851
27.1455
22.9677
18.9715
15.1127
11.4602
8.0615
4.91779
3.60052
5.53803
8.61026
11.8177
14.978
18.0238
20.894
23.5794
26.0467
28.2627
30.1638
31.6521
32.6508
33.1308
33.1181
32.7083
32.0237
31.2182
30.3564
29.6815
30.1173
31.168
31.7847
32.2797
32.7815
33.4783
35.1356
36.2479
36.6045
37.2313
37.5463
37.289
0
0
0
0
0
0
0
0
0
0
0
0
0
0
0
0
49.154
49.7546
0
0
0
52.5686
54.3424
55.7576
57.0772
56.9298
58.3758
58.0686
60.0753
60.4642
62.3583
62.3552
63.6853
65.325
65.0933
67.2176
67.8267
68.6206
71.0495
71.3624
71.9689
73.5955
75.5563
75.6682
75.7195
76.3508
76.6852
74.8306
73.3791
72.9697
65.0838
0
2.12433
0.559417
4.39987
16.387
35.6225
57.1643
78.7251
100.551
123.279
162.464
186.212
194.663
197.037
192.457
182.365
168.315
150.869
131.86
112.52
93.937
76.876
61.9057
49.2463
38.978
30.9799
25.0738
20.9915
18.4692
17.2342
17.0467
17.7039
19.0507
20.9327
23.1481
25.5364
28.0688
30.7417
33.3141
35.7116
37.9294
40.3895
43.5408
47.6292
51.5037
56.6955
61.5229
66.5983
71.4669
76.132
80.7317
85.0033
89.0774
94.2618
97.9428
98.8222
102.365
105.127
106.088
109.479
108.814
108.611
109.027
110.011
108.635
109.178
107.861
108.321
106.321
106.726
105.252
103.402
101.447
100.085
98.7859
97.5801
96.349
95.1867
94.081
93.0747
92.0767
91.1798
90.3275
89.5789
88.8226
88.1875
87.6625
87.4353
87.4599
87.7783
88.3546
88.8697
88.9536
88.3099
87.3578
85.9097
82.5663
78.4296
74.3625
70.1651
66.0087
61.9865
58.1703
54.7503
51.5667
48.8151
46.6411
45.0699
44.0724
43.5633
43.3374
43.1826
42.9132
42.3963
41.539
40.2145
37.957
34.3617
31.6447
31.244
27.1923
23.9774
24.1037
28.7921
28.3557
27.4553
26.2509
23.9609
21.1109
21.6819
21.9339
19.8539
21.3925
20.4551
19.6435
21.8927
19.9131
18.679
18.6539
19.5194
19.6468
20.3956
20.4526
21.1422
21.271
21.7786
21.7848
22.3104
22.3868
22.5792
23.1213
23.2344
23.5454
23.3681
22.8614
22.8925
22.1752
23.3704
23.9044
23.714
23.9418
24.5243
23.921
25.7147
26.1078
26.3487
26.7608
27.114
27.4095
28.0727
28.0256
27.4002
27.3157
27.4073
27.4102
27.5726
30.1026
32.4165
38.6058
47.7498
0
14.0491
31.3961
51.7749
79.5506
112.473
145.304
168.342
176.47
170.063
157.208
142.216
123.012
104.937
89.8891
76.0808
65.1003
58.3341
55.5162
56.144
59.3894
64.3389
70.1021
75.8951
81.0917
85.2532
88.1212
89.5939
89.6826
88.4926
86.2118
83.084
79.3825
75.4392
71.5485
67.9402
64.8856
62.772
61.9439
62.5288
64.7535
68.4571
73.5424
79.7705
86.8397
94.7659
103.148
111.987
120.917
129.543
138.024
145.538
154.272
161.562
167.312
172.134
176.756
180.272
182.398
183.809
183.688
183.421
182.888
181.702
179.964
178.257
175.94
173.429
170.225
167.515
164.047
160.501
157.346
154.313
151.285
148.268
145.261
142.297
139.414
136.613
133.873
131.225
128.67
126.209
123.816
121.523
119.264
117.041
114.665
112.178
109.385
105.645
101.035
95.9408
90.6094
85.6284
81.5401
78.2528
75.2103
72.0964
68.9003
65.6672
62.4444
59.33
56.3872
53.7582
51.5771
49.8496
48.664
47.9982
47.6268
47.4048
47.1586
46.6722
45.7056
44.0186
41.9109
39.6758
36.9556
34.0589
31.0823
29.2156
27.76
27.0433
26.0868
25.8892
25.2471
24.2783
23.3356
22.637
21.9681
21.1177
20.7417
20.1835
19.6652
19.2883
18.6778
17.9618
16.9925
16.4412
16.0351
15.6679
15.5327
15.3468
15.3681
15.3242
15.282
15.2891
15.3086
15.1056
15.2647
15.1476
15.3691
15.2777
15.2249
15.2457
15.1743
15.1087
15.0489
15.1793
15.1428
15.0132
15.2007
15.3739
15.1721
15.4701
15.6455
15.7699
15.6189
15.9229
15.9491
15.7853
15.653
16.0847
16.3267
16.4719
16.6278
16.7628
17.8557
20.4753
0
90.3968
137.637
157.946
166.515
165.238
155.442
138.45
118.855
99.6698
82.3515
68.1739
57.2518
50.5882
47.8059
48.3462
51.6379
57.0503
63.8918
71.5017
79.2207
86.4841
92.8289
97.912
101.505
103.499
103.892
102.742
100.229
96.5588
91.9834
86.7963
81.3155
75.8652
70.7631
66.3204
62.8527
60.6619
59.9942
60.9794
63.7194
68.2527
74.5702
82.5661
92.0137
102.737
114.411
126.758
139.383
152.018
164.241
175.085
186.678
196.714
205.525
212.861
218.987
223.741
227.084
229.178
229.889
229.747
228.863
227.301
225.119
222.566
219.455
215.989
212.03
207.991
203.629
199.211
194.911
190.713
186.6
182.443
178.317
174.259
170.282
166.396
162.593
158.906
155.378
151.967
148.555
144.967
140.982
136.562
131.734
126.836
121.962
116.999
111.916
106.768
101.676
96.779
92.2121
88.0291
84.0839
80.2505
76.492
72.8058
69.2052
65.7512
62.5117
59.5512
56.9422
54.7329
53.0312
51.7918
50.9311
50.3505
49.9234
49.4859
48.6458
47.2664
45.3832
43.2758
40.6367
37.4054
34.0441
31.3928
29.3045
27.1224
24.8995
23.5185
22.4414
21.333
20.3609
19.5913
18.9016
18.1863
17.6398
17.0311
16.2558
15.5923
15.1774
14.8341
14.3148
13.8272
13.4168
13.0842
12.7913
12.5416
12.3519
12.1633
12.0186
11.9004
11.8081
11.6799
11.5837
11.4873
11.4315
11.3145
11.1971
11.1061
10.9583
10.8981
10.8059
10.7283
10.6777
10.5928
10.4549
10.4135
10.2701
10.3946
10.4415
10.3717
10.4658
10.5475
10.5647
10.4486
10.5916
10.7843
11.0251
11.1984
11.642
12.3578
13.8466
16.0855
0
181.332
234.352
235.556
210.121
175.194
140.783
110.704
86.0587
67.7823
55.449
48.2979
45.2009
45.4578
48.3454
53.2705
59.7517
67.3508
75.5695
83.8958
91.8245
98.9079
104.747
109.108
111.816
112.801
112.09
109.742
105.93
100.867
94.8309
88.1311
81.1122
74.1493
67.6239
61.9097
57.3798
54.3805
53.2366
54.168
57.3479
62.8364
70.6011
80.5199
92.3749
105.879
120.69
136.425
152.615
168.808
184.514
198.725
213.329
226.13
237.511
247.121
254.899
260.873
265.18
267.899
269.144
269.186
268.121
266.11
263.322
259.903
255.884
251.397
246.502
241.376
236.074
230.762
225.494
220.284
215.119
209.998
204.93
199.957
195.083
190.367
185.756
181.219
176.629
171.748
166.51
160.896
154.991
148.98
142.992
137.186
131.542
125.936
120.314
114.74
109.308
104.104
99.1724
94.5084
90.0638
85.789
81.6655
77.6674
73.8054
70.1043
66.6289
63.4127
60.5022
57.9248
55.7332
53.9832
52.5829
51.4531
50.5144
49.6665
48.7893
47.7736
46.3339
44.583
42.2215
39.2205
35.934
32.8607
30.0696
27.2266
24.4886
22.3565
20.6741
19.2779
18.1741
17.2522
16.4429
15.7252
15.0869
14.448
13.7859
13.1612
12.7153
12.3602
11.9555
11.5488
11.1772
10.8432
10.5421
10.2715
10.0305
9.79729
9.59118
9.41967
9.2741
9.11255
8.96753
8.82729
8.70895
8.56608
8.43003
8.32176
8.2087
8.09758
7.98339
7.87884
7.78914
7.70827
7.60109
7.51734
7.40735
7.36905
7.33839
7.28616
7.28523
7.28355
7.27127
7.27994
7.33206
7.4093
7.63627
7.92342
8.40271
9.19732
10.4826
12.5975
0
212.508
259.478
242.968
201.273
157.593
119.318
90.7256
70.8603
58.1162
50.9123
47.909
48.1201
50.8805
55.6738
62.049
69.5903
77.8869
86.4499
94.847
102.636
109.456
114.917
118.789
120.896
121.159
119.567
116.193
111.21
104.852
97.4076
89.2186
80.6699
72.1735
64.1714
57.1152
51.4502
47.5973
45.9725
46.8635
50.5164
57.0187
66.3379
78.3338
92.7551
109.251
127.398
146.714
166.663
186.704
205.706
223.399
241.017
256.535
270.229
281.743
291.015
298.1
303.14
306.272
307.666
307.536
306.045
303.392
299.78
295.379
290.317
284.734
278.756
272.529
266.176
259.812
253.479
247.21
241.016
234.903
228.923
223.038
217.235
211.417
205.346
199.023
192.434
185.63
178.745
171.83
164.932
158.085
151.36
144.875
138.631
132.524
126.498
120.584
114.851
109.34
104.072
99.0354
94.2148
89.5896
85.1457
80.8631
76.7431
72.8082
69.0937
65.632
62.4419
59.5473
56.9595
54.78
52.9173
51.31
49.8898
48.5995
47.3734
46.1667
44.9036
43.5985
41.7302
39.2797
36.3913
33.3833
30.3202
27.2033
24.2152
21.6786
19.6092
17.9195
16.5784
15.4823
14.5522
13.756
13.0505
12.3887
11.751
11.1623
10.6841
10.2857
9.90141
9.53141
9.18808
8.87183
8.57873
8.30951
8.06131
7.82298
7.60528
7.41439
7.24619
7.07834
6.91723
6.7687
6.62867
6.48051
6.33866
6.2153
6.10025
5.98588
5.86987
5.75923
5.6586
5.56267
5.45883
5.35979
5.26073
5.18434
5.1257
5.07307
5.02816
4.99425
4.98189
4.98751
5.03328
5.12204
5.29329
5.56236
6.00117
6.70133
7.73609
9.44806
0
177.23
216.15
196.357
158.022
121.068
91.8879
71.5928
58.8093
51.576
48.5043
48.5773
51.1219
55.6674
61.8301
69.2543
77.5278
86.3084
95.1565
103.679
111.475
118.146
123.38
126.947
128.672
128.466
126.321
122.311
116.575
109.328
100.865
91.5319
81.7312
71.9262
62.6158
54.3192
47.575
42.8995
40.8197
41.7124
45.9225
53.5754
64.6572
79.0136
96.344
116.219
138.105
161.388
185.365
209.379
231.892
253.607
274.31
292.549
308.396
321.572
332.049
339.901
345.282
348.384
349.43
348.664
346.319
342.633
337.843
332.164
325.781
318.861
311.555
304.018
296.398
288.778
281.252
273.84
266.499
259.245
251.954
244.451
236.768
228.888
220.848
212.784
204.75
196.798
188.944
181.197
173.576
166.095
158.807
151.785
145.045
138.497
132.079
125.815
119.751
113.913
108.304
102.92
97.752
92.7973
88.0311
83.4466
79.0365
74.8305
70.8451
67.1115
63.6387
60.4475
57.5379
55.0147
52.7771
50.7737
48.945
47.2546
45.663
44.1715
42.7521
41.3983
39.9446
38.0968
35.7527
33.0616
30.1364
27.0719
24.059
21.3647
19.0464
17.1149
15.5438
14.2619
13.1948
12.2974
11.5189
10.8193
10.1771
9.59836
9.10381
8.6797
8.29304
7.93465
7.60441
7.29829
7.01371
6.75155
6.50891
6.27736
6.06063
5.86511
5.68913
5.51926
5.3548
5.20247
5.05816
4.91188
4.76947
4.64081
4.52275
4.40699
4.29033
4.17919
4.07523
3.97525
3.87644
3.78107
3.69135
3.61462
3.54818
3.48665
3.43536
3.39527
3.37311
3.37366
3.40781
3.47858
3.62042
3.84848
4.22015
4.81715
5.64786
6.95214
0
124.099
152.054
134.827
107.52
83.0632
64.9341
53.2537
46.6614
43.9175
44.1073
46.6266
51.0683
57.1162
64.4939
72.8538
81.897
91.2615
100.56
109.428
117.489
124.417
129.906
133.696
135.611
135.533
133.423
129.321
123.351
115.704
106.65
96.5364
85.7892
74.8921
64.4006
54.9212
47.0878
41.5334
38.9417
39.8047
44.6106
53.5485
66.6452
83.7385
104.474
128.323
154.611
182.514
211.318
239.699
266.385
292.269
316.181
337.071
354.899
369.454
380.741
388.873
394.052
396.539
396.635
394.655
390.905
385.676
379.239
371.861
363.784
355.195
346.29
337.239
328.103
319.005
309.963
300.789
291.45
282.023
272.477
262.869
253.305
243.834
234.504
225.338
216.343
207.538
198.931
190.52
182.303
174.284
166.494
158.997
151.798
144.818
138
131.363
124.936
118.738
112.765
107.021
101.499
96.1909
91.0789
86.1541
81.4209
76.8983
72.6111
68.5742
64.8076
61.3171
58.1357
55.3161
52.7703
50.4415
48.2863
46.2666
44.3658
42.5845
40.9273
39.4075
37.9347
36.3982
34.5817
32.3402
29.7546
26.9284
24.0442
21.3169
18.8761
16.7734
15.0146
13.5605
12.3541
11.3452
10.4861
9.73546
9.07028
8.48273
7.97478
7.53554
7.14479
6.79024
6.46602
6.16639
5.88933
5.63409
5.39713
5.17291
4.96176
4.7676
4.5894
4.4194
4.25581
4.10237
3.95692
3.81241
3.67133
3.54109
3.42071
3.30313
3.18719
3.07661
2.97289
2.87351
2.77786
2.68667
2.60243
2.52737
2.4609
2.40075
2.34893
2.30741
2.28203
2.27856
2.30065
2.35652
2.46406
2.64836
2.9472
3.42948
4.08162
5.09675
0
75.2637
92.7163
81.1767
65.0239
51.2941
41.8305
36.4202
34.2138
34.5609
37.0128
41.2934
47.1916
54.5021
62.9932
72.3934
82.3815
92.6391
102.802
112.507
121.402
129.146
135.442
140.041
142.738
143.386
141.922
138.345
132.731
125.228
116.081
105.61
94.2285
82.4525
70.8835
60.2015
51.1629
44.5484
41.2398
41.9018
47.2253
57.5126
72.8629
93.1247
117.881
146.465
178.03
211.46
245.924
279.621
311.397
341.834
368.915
392.4
411.927
427.425
438.951
446.696
450.955
452.084
450.483
446.573
440.76
433.379
424.805
415.323
405.124
394.469
383.526
372.269
360.725
349.074
337.362
325.614
313.947
302.426
291.107
280.021
269.179
258.59
248.268
238.217
228.433
218.915
209.659
200.655
191.892
183.367
175.094
167.126
159.465
152.042
144.802
137.758
130.936
124.343
117.983
111.852
105.952
100.26
94.7704
89.4709
84.3798
79.5102
74.89
70.5288
66.4535
62.6647
59.2314
56.1372
53.3139
50.7024
48.2681
45.9757
43.8169
41.7884
39.9029
38.1616
36.5512
34.9986
33.4187
31.6063
29.4151
26.9178
24.2559
21.6078
19.1245
16.8973
14.9731
13.3487
11.9923
10.8594
9.90706
9.09269
8.38901
7.77936
7.25521
6.80387
6.40759
6.05234
5.72967
5.43373
5.16151
4.91112
4.67787
4.4586
4.25146
4.05882
3.87994
3.70974
3.54683
3.3917
3.24402
3.09898
2.9581
2.82608
2.70244
2.58278
2.46671
2.35627
2.25293
2.15542
2.06292
1.9759
1.89597
1.82408
1.76031
1.70338
1.65414
1.61446
1.5882
1.57894
1.59147
1.63299
1.71736
1.86198
2.09678
2.46765
2.98048
3.74901
0
42.0748
49.9848
42.5629
34.2153
27.4596
23.4378
21.7742
22.114
24.2364
28.0407
33.4779
40.4702
48.8761
58.5117
69.046
80.2326
91.7048
103.117
114.104
124.311
133.413
141.104
147.112
151.225
153.265
153.12
150.738
146.144
139.426
130.765
120.441
108.841
96.4609
83.9276
72.0001
61.5477
53.5324
49.0896
49.1471
54.6847
66.2025
83.9309
107.766
137.235
171.495
209.432
249.533
290.79
330.538
368.466
403.629
434.38
460.348
481.218
497.022
507.981
514.457
516.891
515.787
511.707
505.113
496.434
486.187
474.715
462.118
448.639
434.635
420.302
405.782
391.269
376.911
362.813
349.043
335.635
322.596
309.934
297.653
285.749
274.213
263.037
252.209
241.714
231.539
221.67
212.089
202.786
193.746
184.975
176.522
168.382
160.49
152.799
145.315
138.063
131.046
124.27
117.726
111.413
105.311
99.41
93.7127
88.2343
82.9972
78.0173
73.3195
68.9205
64.8396
61.1509
57.7911
54.6962
51.8198
49.1242
46.5861
44.1929
41.9459
39.8487
37.901
36.0943
34.4116
32.8049
31.1919
29.3569
27.1932
24.7872
22.2775
19.8088
17.4991
15.4289
13.637
12.1185
10.8468
9.78405
8.89082
8.13311
7.48843
6.94068
6.47287
6.06469
5.70193
5.37493
5.07704
4.80394
4.55265
4.31738
4.09696
3.88743
3.69187
3.5089
3.33447
3.16788
3.00654
2.85234
2.70107
2.55555
2.41759
2.28692
2.16197
2.04277
1.92987
1.8246
1.72688
1.63558
1.55068
1.47336
1.40414
1.34281
1.28874
1.24248
1.2052
1.17939
1.16805
1.17511
1.2066
1.27276
1.38725
1.57263
1.86475
2.27153
2.87313
0
22.6057
23.0949
18.3318
14.2662
11.5276
10.2751
10.3931
11.87
14.7743
19.2393
25.3581
33.1387
42.4754
53.172
64.9633
77.5055
90.4478
103.422
116.062
128.014
138.939
148.532
156.516
162.647
166.719
168.582
168.126
165.305
160.126
152.695
143.198
131.946
119.39
106.136
92.9657
80.8548
70.9623
64.7471
63.4819
68.5901
80.8994
100.875
128.54
163.396
204.399
250.059
298.317
347.72
395.132
439.716
480.056
514.473
542.61
564.234
579.661
589.182
593.273
592.664
588.091
580.112
569.189
555.96
541.073
524.929
507.92
490.446
472.79
455.207
437.885
420.944
404.456
388.472
373.025
358.122
343.756
329.912
316.573
303.714
291.311
279.338
267.771
256.586
245.762
235.276
225.106
215.236
205.651
196.357
187.387
178.74
170.353
162.176
154.219
146.505
139.039
131.813
124.829
118.071
111.53
105.193
99.0779
93.1951
87.5711
82.2194
77.1738
72.4451
68.0868
64.1254
60.4914
57.1224
53.9788
51.023
48.2398
45.6163
43.1545
40.8487
38.6979
36.6875
34.8168
33.0785
31.4311
29.7798
27.9038
25.7439
23.3931
20.9711
18.6059
16.4036
14.4414
12.7458
11.3155
10.1226
9.13066
8.30186
7.60702
7.02425
6.52987
6.10028
5.72086
5.38069
5.07188
4.7895
4.52878
4.28224
4.05176
3.83138
3.62668
3.43271
3.24727
3.06998
2.89535
2.72854
2.56326
2.40712
2.25594
2.11225
1.97674
1.8485
1.72766
1.6156
1.51286
1.41791
1.33083
1.25236
1.18285
1.12164
1.06844
1.0235
0.987945
0.963092
0.951559
0.95627
0.982546
1.03792
1.13399
1.28714
1.52577
1.85995
2.34304
0
13.2676
8.7852
5.68582
3.92046
3.08587
3.06425
3.85862
5.65906
8.76418
13.4578
19.9291
28.2489
38.359
50.0657
63.0962
77.0265
91.5511
106.256
120.774
134.743
147.824
159.706
170.102
178.762
185.451
189.98
192.177
191.922
189.13
183.789
175.97
165.864
153.8
140.3
126.114
112.24
99.9944
91.2428
87.651
91.309
103.551
125.249
156.693
197.435
246.214
301.023
359.07
418.107
474.548
526.943
573.173
611.358
641.059
662.367
675.787
681.789
681.168
675.039
664.417
650.202
633.303
614.508
594.451
573.69
552.642
531.607
510.814
490.451
470.656
451.52
433.091
415.387
398.409
382.137
366.543
351.595
337.252
323.477
310.232
297.474
285.168
273.283
261.793
250.662
239.868
229.392
219.222
209.373
199.851
190.664
181.744
173.047
164.586
156.376
148.429
140.729
133.273
126.045
119.037
112.247
105.692
99.3944
93.3709
87.644
82.2422
77.1861
72.5483
68.3041
64.3833
60.7336
57.3109
54.0882
51.0484
48.1858
45.4968
42.9731
40.605
38.3817
36.3033
34.3773
32.5953
30.9014
29.2029
27.2479
25.0447
22.6769
20.2663
17.9379
15.7983
13.911
12.3014
10.9569
9.84229
8.92149
8.1589
7.52573
6.99051
6.52706
6.1183
5.75215
5.42005
5.11669
4.83399
4.56427
4.31295
4.0706
3.84721
3.63229
3.42498
3.22711
3.03008
2.84415
2.65785
2.48401
2.31278
2.14857
1.9969
1.85085
1.71373
1.58792
1.47257
1.36636
1.2701
1.18428
1.10865
1.04247
0.985614
0.938151
0.901187
0.875622
0.863594
0.867358
0.891534
0.94205
1.0288
1.16427
1.36929
1.65643
2.058
0
11.078
3.81017
2.37299
2.08164
2.2713
2.78014
3.77442
5.61473
8.74358
13.5573
20.3319
29.1612
39.9982
52.656
66.8749
82.3448
98.5301
115.082
131.589
147.69
163.031
177.297
190.204
201.503
210.969
218.397
223.592
226.388
226.616
224.164
218.947
210.996
200.462
187.666
173.192
157.944
143.249
131.399
124.433
125.392
136.34
158.775
193.483
240.325
297.892
363.461
433.27
503.526
570.149
630.433
681.969
722.773
752.22
770.664
779.044
778.761
771.346
758.2
740.715
720.092
697.316
673.164
648.281
623.185
598.269
573.804
549.991
526.969
504.832
483.624
463.362
444.032
425.605
408.033
391.265
375.244
359.922
345.244
331.149
317.596
304.534
291.929
279.733
267.927
256.457
245.329
234.546
224.085
213.986
204.222
194.735
185.485
176.482
167.749
159.284
151.082
143.123
135.402
127.906
120.646
113.639
106.916
100.487
94.3814
88.6237
83.2451
78.3216
73.7819
69.5643
65.621
61.9098
58.4087
55.1002
51.9838
49.0501
46.2887
43.6835
41.2314
38.9314
36.7931
34.8174
32.988
31.2399
29.4426
27.3554
25.0236
22.5585
20.0965
17.7706
15.6781
13.8698
12.3495
11.0886
10.0526
9.2016
8.49815
7.90406
7.3899
6.93474
6.52708
6.1556
5.81705
5.49777
5.19208
4.90796
4.63047
4.37815
4.12872
3.89791
3.66596
3.43909
3.22273
2.99372
2.8117
2.59735
2.40177
2.22476
2.05218
1.88904
1.74212
1.60393
1.47652
1.36247
1.26072
1.17066
1.09169
1.02395
0.967716
0.923733
0.892877
0.877047
0.878196
0.900089
0.947751
1.02945
1.15535
1.33931
1.59427
1.93765
0
15.1151
5.19361
6.5171
7.9731
9.23493
10.3562
11.6981
13.7606
17.0949
22.1859
29.3769
38.8343
50.5453
64.3398
79.8754
96.7992
114.757
133.212
151.742
169.937
187.417
203.849
218.943
232.464
244.198
253.97
261.61
266.938
269.835
270.171
267.645
262.032
253.521
242.194
228.35
212.594
196.026
181.196
170.465
167.907
176.572
198.954
236.649
289.394
355.846
433.209
516.243
599.197
676.614
744.712
799.769
841.073
868.475
882.475
885.027
878.087
863.553
843.233
818.761
791.525
762.634
732.953
703.146
673.702
644.965
617.162
590.425
564.851
540.477
517.305
495.305
474.436
454.624
435.813
417.9
400.841
384.556
368.977
354.036
339.672
325.841
312.479
299.565
287.023
274.842
263.023
251.576
240.483
229.771
219.41
209.32
199.484
189.908
180.623
171.616
162.879
154.393
146.155
138.157
130.413
122.949
115.788
108.953
102.472
96.3655
90.6868
85.4594
80.6105
76.0861
71.8361
67.8287
64.0386
60.4524
57.0685
53.875
50.8542
47.9969
45.2998
42.7648
40.3984
38.2055
36.181
34.2967
32.4627
30.4667
28.1288
25.5812
22.9666
20.4425
18.1311
16.1069
14.3899
12.9617
11.7873
10.823
10.0241
9.34875
8.761
8.23818
7.76942
7.33973
6.94412
6.57071
6.2143
5.88263
5.55866
5.25132
4.96051
4.67106
4.39599
4.1311
3.87079
3.63418
3.3921
3.15839
2.90906
2.71493
2.48864
2.28604
2.10765
1.93694
1.77771
1.63804
1.50927
1.39457
1.29315
1.20556
1.13233
1.07408
1.0312
1.00557
0.999105
1.015
1.05722
1.13289
1.25012
1.41779
1.64486
1.94264
0
24.6459
12.0802
16.7502
20.7772
23.8344
26.2997
28.697
31.6215
35.7174
41.5473
49.5417
59.9259
72.7447
87.7888
104.806
123.404
143.198
163.589
184.093
204.246
223.635
241.914
258.788
274.03
287.433
298.847
308.101
315.045
319.496
321.287
320.268
316.349
309.378
299.254
286.014
270.009
251.978
234.478
220.296
214.226
220.563
242.768
283.485
343.3
420.43
510.051
605.925
701.012
788.387
863.896
923.438
964.749
990.059
999.384
995.39
980.826
958.233
929.922
897.844
863.575
828.325
793.018
758.264
724.546
692.123
661.138
631.654
603.689
577.238
552.246
528.648
506.346
485.265
465.26
446.264
428.185
410.968
394.507
378.723
363.551
348.929
334.806
321.126
307.824
294.892
282.362
270.223
258.494
247.149
236.152
225.439
214.975
204.799
194.932
185.366
176.068
167.035
158.26
149.749
141.517
133.594
125.995
118.754
111.901
105.458
99.4891
93.9538
88.7896
83.9496
79.3884
75.0789
70.9981
67.1309
63.4709
60.0063
56.7137
53.5941
50.6462
47.8687
45.2662
42.8448
40.5985
38.5242
36.546
34.5395
32.1258
29.4466
26.6511
23.9129
21.3717
19.119
17.1912
15.5777
14.2411
13.1359
12.2114
11.4241
10.7351
10.117
9.56178
9.05336
8.5811
8.13974
7.71705
7.31666
6.9293
6.55923
6.20489
5.85741
5.53219
5.21324
4.8953
4.59134
4.30459
4.0146
3.74923
3.48444
3.23079
2.96558
2.76605
2.53277
2.3264
2.15064
1.98339
1.83241
1.69816
1.58155
1.48289
1.40261
1.3401
1.29728
1.27596
1.27918
1.30962
1.37356
1.47719
1.62572
1.82358
2.07627
0
39.2345
24.0152
32.4282
39.9612
46.0647
51.311
56.0789
61.0655
66.9611
74.4317
83.965
95.8656
110.215
126.929
145.757
166.277
187.967
210.259
232.635
254.579
275.602
295.297
313.358
329.56
343.706
355.67
365.345
372.626
377.393
379.525
378.864
375.193
368.289
357.961
344.083
326.817
306.715
286.176
268.619
259.765
264.609
287.337
332.069
399.774
487.858
591.491
702.572
812.215
912.332
995.529
1060.55
1101.14
1122.93
1126.25
1114.07
1090.35
1058.38
1020.98
980.465
938.567
896.603
855.391
815.635
777.624
741.568
707.504
675.387
645.164
616.749
590.053
564.946
541.32
519.02
497.893
477.829
458.761
440.604
423.252
406.607
390.596
375.15
360.214
345.713
331.632
317.926
304.634
291.78
279.34
267.301
255.605
244.188
233.031
222.193
211.681
201.484
191.561
181.909
172.533
163.447
154.674
146.24
138.166
130.481
123.221
116.431
110.129
104.249
98.7374
93.5462
88.648
84.0162
79.6252
75.4577
71.5036
67.7464
64.1623
60.7582
57.5465
54.5162
51.666
49.0002
46.5138
44.2077
42.0114
39.8424
37.2644
34.3862
31.3722
28.4008
25.6206
23.1289
20.9735
19.1504
17.6217
16.338
15.2487
14.3078
13.476
12.7253
12.0473
11.429
10.8551
10.3187
9.80672
9.32031
8.85111
8.39681
7.96692
7.55212
7.15564
6.77294
6.39013
6.02891
5.66311
5.31946
4.96272
4.64196
4.32354
4.03902
3.7609
3.4952
3.21318
3.01027
2.77001
2.56427
2.38348
2.22794
2.09565
1.98523
1.89488
1.82644
1.7814
1.76274
1.77238
1.81521
1.89603
2.01698
2.17929
2.3803
0
58.6484
41.7789
53.4695
64.5764
74.7305
84.1563
92.7929
101.263
110.24
120.42
132.359
146.449
162.864
181.587
202.392
224.871
248.451
272.555
296.554
319.87
341.975
362.45
380.917
397.119
410.869
422.043
430.622
436.631
439.953
440.563
438.358
433.127
424.845
412.925
397.243
377.721
354.929
330.798
309.702
298.511
302.815
328.235
379.562
457.195
559.518
678.351
805.291
929.158
1040.47
1130
1197.65
1237.05
1251.6
1247.25
1225.53
1191.87
1150.17
1103.76
1055.14
1006.19
958.092
911.773
867.65
826.029
786.975
750.391
716.163
684.147
654.202
626.164
599.871
575.18
551.902
529.877
508.967
489.091
470.144
452.02
434.613
417.851
401.671
385.993
370.787
356.004
341.643
327.709
314.202
301.103
288.398
276.042
263.966
252.186
240.735
229.626
218.834
208.318
198.075
188.135
178.506
169.216
160.301
151.785
143.702
136.075
128.968
122.323
116.091
110.228
104.69
99.4497
94.4963
89.7987
85.327
81.0726
77.015
73.1352
69.4452
65.96
62.672
59.5742
56.664
53.9295
51.3608
48.8754
46.3897
43.4921
40.3312
37.0623
33.8548
30.8477
28.1322
25.7531
23.7113
21.9705
20.4774
19.1854
18.0507
17.0327
16.1086
15.2713
14.5094
13.8016
13.1382
12.5099
11.9146
11.3451
10.7959
10.2785
9.78444
9.31112
8.85428
8.39628
7.9468
7.50833
7.07606
6.64879
6.27346
5.88035
5.50144
5.18183
4.84211
4.52507
4.22873
3.94378
3.66086
3.41609
3.21146
3.0376
2.88916
2.76292
2.66034
2.58276
2.53274
2.51227
2.52426
2.57219
2.65521
2.77408
2.91655
0
76.812
61.98
75.626
90.1052
105.106
119.853
133.278
145.992
158.677
172.1
186.871
203.392
221.912
242.482
264.902
288.81
313.7
338.96
363.991
388.171
410.964
431.853
450.433
466.376
479.519
489.745
497.045
501.286
502.582
500.973
496.422
488.64
477.352
462.653
444.098
421.563
395.877
368.324
344.832
333.402
340.274
371.77
431.346
519.801
633.857
766.315
904.813
1038.47
1156
1247.55
1313.94
1348.64
1354.82
1341.99
1311.34
1268.92
1219.2
1165.71
1111.04
1056.99
1004.74
954.944
908.027
864.159
823.23
785.1
749.58
716.475
685.594
656.722
629.676
604.266
580.327
557.689
536.207
515.765
496.255
477.553
459.582
442.264
425.524
409.314
393.576
378.296
363.466
349.065
335.075
321.484
308.288
295.435
282.888
270.671