/*--------------------------------*- C++ -*----------------------------------*\
  =========                 |
  \\      /  F ield         | OpenFOAM: The Open Source CFD Toolbox
   \\    /   O peration     | Website:  https://openfoam.org
    \\  /    A nd           | Version:  9
     \\/     M anipulation  |
\*---------------------------------------------------------------------------*/
FoamFile
{
    format      ascii;
    class       volScalarField;
    location    "5.2";
    object      nut;
}
// * * * * * * * * * * * * * * * * * * * * * * * * * * * * * * * * * * * * * //

dimensions      [0 2 -1 0 0 0 0];

internalField   nonuniform List<scalar> 
2268
(
1.54148e-05
1.77553e-05
2.14119e-05
2.38248e-05
2.56047e-05
2.69934e-05
2.81202e-05
2.90623e-05
2.98637e-05
3.05475e-05
3.11303e-05
3.16274e-05
3.20506e-05
3.24017e-05
3.26526e-05
3.2686e-05
3.21499e-05
3.07935e-05
2.89507e-05
2.73164e-05
2.57412e-05
2.24999e-05
1.39641e-05
3.51731e-05
0.000139952
0.000189911
0.000220807
0.000242609
0.00025911
0.000272148
0.000282727
0.000291413
0.000298533
0.000304314
0.000308942
0.000312516
0.000314953
0.000315816
0.000313973
0.00030633
0.000279021
0.000251086
0.000238428
0.000228672
0.000182407
4.64024e-05
4.17528e-05
0.00023168
0.000344462
0.000416944
0.000468469
0.000507404
0.00053801
0.000562681
0.000582796
0.000599158
0.000612314
0.000622692
0.000630521
0.000635633
0.000637076
0.000632342
0.000615257
0.000568656
0.000516397
0.000480016
0.000435255
0.000313112
5.55887e-05
4.65597e-05
0.000294448
0.000462708
0.000575603
0.000657313
0.000719542
0.00076859
0.000808129
0.000840348
0.000866548
0.000887601
0.000904141
0.000916475
0.000924312
0.000926225
0.000918667
0.00089413
0.000836909
0.000768127
0.000703593
0.000612329
0.000414299
6.33263e-05
5.03277e-05
0.000341308
0.000556322
0.000705811
0.000815924
0.000900553
0.000967561
0.00102169
0.00106584
0.0011018
0.00113072
0.00115342
0.00117024
0.00118076
0.00118317
0.00117334
0.00114336
0.00108073
0.00099987
0.000907716
0.000767465
0.000496233
7.07676e-05
5.34602e-05
0.000378583
0.000633178
0.000815269
0.000951458
0.00105704
0.00114105
0.00120909
0.0012647
0.00131008
0.00134664
0.00137533
0.0013965
0.00140967
0.00141279
0.00140149
0.00136785
0.00130258
0.00121245
0.00109581
0.000910115
0.000569002
7.79708e-05
5.61935e-05
0.000409459
0.000698094
0.000909197
0.00106911
0.00119405
0.00129395
0.00137513
0.00144163
0.00149601
0.00153991
0.00157437
0.00159978
0.00161562
0.00161977
0.00160769
0.00157212
0.00150567
0.00140883
0.00127257
0.00104924
0.000643702
8.64015e-05
5.86843e-05
0.000435775
0.000754147
0.000991143
0.00117258
0.00131531
0.00142998
0.0015235
0.00160034
0.00166333
0.00171428
0.00175431
0.00178388
0.00180246
0.001808
0.00179588
0.00175992
0.00169335
0.00159241
0.00144296
0.00119553
0.000741183
0.000100951
1.38776e-05
2.26919e-05
2.64284e-05
2.81115e-05
2.88364e-05
2.9093e-05
2.91777e-05
2.93718e-05
2.97316e-05
2.95051e-05
2.75755e-05
2.52715e-05
2.38423e-05
2.6382e-05
2.93259e-05
2.8177e-05
2.51759e-05
2.10757e-05
2.43204e-05
4.68652e-05
0.000180951
0.00023935
0.000268024
0.000281925
0.000287771
0.000290419
0.000292312
0.000290217
0.000278669
0.000253373
0.000213776
0.000189094
0.000225371
0.000254097
0.000237717
0.00019575
0.000133933
5.10548e-05
5.49129e-05
0.000310098
0.000448241
0.000520644
0.000556918
0.000573043
0.000579881
0.000582377
0.000576565
0.000552589
0.000502465
0.000438555
0.00040698
0.00046063
0.000483029
0.000440405
0.000352744
0.00023135
5.57277e-05
6.24916e-05
0.000405192
0.000618947
0.000736587
0.000797513
0.000825626
0.000836745
0.000838177
0.00082731
0.000793679
0.000729
0.000656909
0.00062416
0.000666144
0.000664714
0.000593145
0.00046646
0.000295692
5.82291e-05
6.96667e-05
0.000485769
0.00076511
0.000923761
0.00100812
0.00104805
0.00106322
0.00106289
0.00104664
0.00100582
0.000934842
0.000860863
0.000823512
0.000838475
0.000807432
0.000706016
0.000545308
0.000334362
5.93769e-05
7.72352e-05
0.00056234
0.000898266
0.00109153
0.00119596
0.0012462
0.00126484
0.00126267
0.00124145
0.00119542
0.00112233
0.00104722
0.00100035
0.000983785
0.000921167
0.000789286
0.000597168
0.000353305
5.94851e-05
8.71837e-05
0.000642884
0.00102819
0.00124759
0.00136718
0.00142546
0.0014466
0.00144269
0.00141712
0.0013672
0.00129314
0.0012154
0.00115541
0.0011075
0.00101334
0.000850683
0.00062806
0.00035437
5.89277e-05
0.000105135
0.000743284
0.00116393
0.00139779
0.0015266
0.00159017
0.00161264
0.00160696
0.00157756
0.00152437
0.00144885
0.00136654
0.00129132
0.00121407
0.00108937
0.000896578
0.000644331
0.000344614
5.8026e-05
6.17415e-05
0.000471357
0.000830142
0.00110319
0.0013152
0.00148364
0.00162005
0.00173207
0.00182468
0.00190102
0.00196309
0.00201209
0.00204852
0.00207204
0.00208023
0.00206949
0.00203468
0.00196938
0.0018659
0.00170717
0.00145579
0.00106003
0.000532172
6.54213e-05
0.00050941
0.000913189
0.00122645
0.00147253
0.00166974
0.00183089
0.00196447
0.00207588
0.00216845
0.00224426
0.00230454
0.00234991
0.00238001
0.00239335
0.00238738
0.00235788
0.00229897
0.00220282
0.00205601
0.00183796
0.00152875
0.00113985
6.87273e-05
0.000537881
0.000983087
0.00133163
0.00160674
0.00182814
0.00201032
0.00216269
0.00229079
0.00239807
0.00248652
0.00255743
0.00261147
0.00264868
0.00266872
0.00267001
0.00264926
0.00260109
0.00251949
0.00239578
0.00222193
0.00199662
0.00174264
7.27316e-05
0.000554666
0.00104156
0.00142378
0.00172305
0.00196558
0.00216693
0.0023362
0.00247908
0.00259942
0.0026992
0.0027799
0.00284217
0.00288648
0.00291367
0.00292358
0.00291389
0.00287791
0.00281288
0.00271354
0.00258029
0.00241957
0.00225591
7.77889e-05
0.000607337
0.00111533
0.00150903
0.00181872
0.00208207
0.00230456
0.00249006
0.00264621
0.00277831
0.00288884
0.00297854
0.00304839
0.00309825
0.00313093
0.00314878
0.00314963
0.00312057
0.00307193
0.00299878
0.00289898
0.00278269
0.00267217
7.65963e-05
0.00062903
0.00115876
0.00156408
0.00187613
0.00216026
0.00240972
0.00261672
0.00278817
0.00293279
0.00305404
0.00315272
0.00322945
0.00328493
0.0033226
0.00334644
0.00335251
0.0033284
0.00328443
0.00323677
0.00316835
0.00308181
0.00300758
7.51765e-05
0.000605429
0.00116689
0.00160317
0.00194634
0.00224463
0.00249905
0.0027197
0.00290733
0.00306568
0.00319788
0.00330495
0.00338828
0.00344947
0.00349203
0.00351994
0.00353072
0.00351416
0.00347986
0.00344022
0.00339159
0.00333522
0.00329121
7.53431e-05
0.000650325
0.00121127
0.0016651
0.00203222
0.00233661
0.00259767
0.00282501
0.00302115
0.00318863
0.00332933
0.00344381
0.00353342
0.00359998
0.00364678
0.00367704
0.00369308
0.0036891
0.00366719
0.0036363
0.00360304
0.00357031
0.00353983
7.61463e-05
0.00067407
0.0012602
0.00172962
0.00210742
0.00242144
0.00269028
0.00292476
0.00312832
0.0033029
0.00344978
0.00357023
0.00366559
0.00373792
0.00378976
0.00382552
0.0038484
0.00385587
0.00384757
0.00383022
0.00380968
0.00378771
0.00376486
7.77344e-05
0.000692982
0.00129773
0.00178077
0.00217148
0.00249692
0.00277505
0.00301674
0.0032267
0.00340726
0.00355994
0.00368618
0.00378757
0.00386603
0.00392496
0.00396826
0.00399866
0.00401562
0.00401925
0.00401389
0.00400357
0.00398987
0.00397245
7.91956e-05
0.000706947
0.00132704
0.00182358
0.00222729
0.00256439
0.00285211
0.00310124
0.0033174
0.00350365
0.00366201
0.00379414
0.00390187
0.00398762
0.00405465
0.00410624
0.00414465
0.00417041
0.00418431
0.00418899
0.00418703
0.00417962
0.00416635
8.04505e-05
0.000717657
0.00135114
0.00186099
0.00227742
0.00262582
0.00292299
0.00317965
0.00340211
0.00359412
0.00375821
0.00389648
0.00401111
0.00410463
0.00417998
0.00423994
0.00428653
0.00432077
0.00434363
0.00435673
0.0043617
0.00435936
0.00434977
8.14986e-05
0.000726495
0.00137208
0.00189479
0.00232346
0.00268266
0.00298897
0.0032532
0.00348214
0.00368011
0.0038502
0.00399491
0.00411667
0.00421798
0.00430149
0.00436958
0.0044241
0.00446625
0.00449696
0.00451728
0.00452822
0.00453044
0.00452436
8.23494e-05
0.00073441
0.00139111
0.00192601
0.00236622
0.00273571
0.00305088
0.00332267
0.00355825
0.00376245
0.00393881
0.00409018
0.00421911
0.00432805
0.00441938
0.00449522
0.00455723
0.00460663
0.00464429
0.00467095
0.00468729
0.00469387
0.00469125
8.30261e-05
0.00074179
0.00140878
0.00195503
0.00240609
0.0027854
0.0031092
0.00338853
0.00363091
0.00384159
0.00402445
0.00418258
0.00431861
0.00443492
0.00453371
0.00461685
0.00468589
0.00474195
0.00478586
0.00481823
0.00483958
0.00485041
0.00485125
8.35548e-05
0.00074861
0.00142505
0.00198188
0.00244323
0.00283197
0.00316421
0.0034511
0.00370043
0.00391777
0.00410726
0.00427216
0.00441514
0.00453854
0.00464439
0.0047344
0.00481
0.00487222
0.00492186
0.00495947
0.00498552
0.00500045
0.0050047
8.39895e-05
0.000754516
0.0014397
0.00200648
0.00247765
0.00287552
0.00321608
0.00351056
0.00376696
0.00399107
0.00418723
0.00435881
0.00450855
0.0046387
0.0047512
0.00484765
0.00492934
0.00499728
0.00505221
0.00509468
0.00512514
0.00514397
0.00515153
8.44002e-05
0.000759042
0.00145246
0.00202871
0.00250932
0.00291608
0.00326486
0.00356694
0.00383046
0.00406137
0.00426416
0.00444229
0.0045985
0.00473504
0.00485376
0.00495617
0.00504351
0.00511672
0.00517653
0.0052235
0.00525805
0.00528055
0.00529128
8.47636e-05
0.000762154
0.00146325
0.00204853
0.00253821
0.00295363
0.00331052
0.00362016
0.00389078
0.00412845
0.00433774
0.00452218
0.00468454
0.00482705
0.0049515
0.00505939
0.00515187
0.00522989
0.00529416
0.00534525
0.00538358
0.00540948
0.0054232
8.50229e-05
0.000764223
0.00147224
0.00206599
0.00256434
0.00298817
0.00335299
0.00367008
0.00394769
0.00419196
0.00440752
0.00459796
0.00476606
0.00491406
0.00504373
0.00515654
0.00525364
0.00533597
0.00540425
0.00545906
0.00550083
0.00552988
0.00554641
8.51697e-05
0.000765451
0.0014796
0.0020812
0.00258778
0.00301967
0.00339218
0.0037165
0.00400087
0.00425148
0.00447299
0.00466902
0.00484239
0.00499534
0.00512966
0.00524681
0.00534796
0.00543407
0.00550589
0.00556401
0.00560888
0.00564082
0.00566003
8.52e-05
0.000765951
0.00148547
0.00209429
0.0026086
0.00304815
0.00342801
0.00375923
0.00405004
0.00430661
0.00453364
0.00473476
0.00491284
0.00507013
0.00520847
0.00532934
0.00543396
0.00552331
0.00559819
0.00565923
0.0057069
0.00574153
0.00576332
8.51143e-05
0.000765811
0.00149001
0.00210543
0.00262693
0.00307367
0.00346042
0.00379812
0.00409491
0.00435695
0.00458895
0.00479458
0.00497673
0.00513771
0.00527941
0.00540338
0.00551087
0.00560294
0.00568045
0.00574407
0.0057943
0.00583149
0.00585585
8.49267e-05
0.000765154
0.0014934
0.00211481
0.00264291
0.00309628
0.00348939
0.00383301
0.00413521
0.00440213
0.00463847
0.00484794
0.00503348
0.00519747
0.00534186
0.00546828
0.00557809
0.00567243
0.00575221
0.00581816
0.00587082
0.00591057
0.0059376
8.46534e-05
0.000764116
0.00149585
0.00212261
0.00265667
0.00311604
0.00351486
0.00386376
0.00417072
0.00444183
0.00468182
0.00489441
0.00508262
0.0052489
0.00539534
0.00552365
0.00563531
0.00573156
0.00581338
0.00588157
0.00593671
0.00597917
0.00600913
8.43073e-05
0.000762806
0.00149751
0.00212897
0.0026683
0.00313295
0.00353678
0.00389024
0.00420122
0.00447579
0.00471867
0.00493364
0.00512381
0.00529174
0.00543964
0.00556938
0.00568257
0.00578053
0.00586436
0.00593491
0.00599277
0.00603831
0.00607166
8.38986e-05
0.000761299
0.00149848
0.00213394
0.00267779
0.00314696
0.00355502
0.00391227
0.00422652
0.00450378
0.00474881
0.00496546
0.00515693
0.00532595
0.00547488
0.00560575
0.00572032
0.00582005
0.00590612
0.0059794
0.00604049
0.0060897
0.00612716
8.34323e-05
0.000759635
0.00149876
0.00213748
0.00268503
0.0031579
0.0035694
0.00392967
0.00424643
0.00452566
0.00477216
0.00498987
0.00518211
0.00535182
0.00550152
0.00563347
0.00574957
0.00585141
0.00594024
0.00601693
0.00608204
0.00613585
0.00617838
8.28953e-05
0.000757772
0.00149819
0.00213933
0.00268973
0.00316547
0.00357964
0.00394221
0.0042608
0.00454139
0.0047888
0.00500708
0.00519977
0.00536998
0.0055205
0.00565376
0.00577187
0.00587651
0.00596896
0.00605008
0.00612034
0.00617992
0.00622868
8.22458e-05
0.000755433
0.00149629
0.00213897
0.00269137
0.00316922
0.00358537
0.00394963
0.00426954
0.00455102
0.00479898
0.00501761
0.00521065
0.0053815
0.00553317
0.00566836
0.00578931
0.00589781
0.00599514
0.00608204
0.00615889
0.00622566
0.00628197
8.14768e-05
0.000751663
0.00149198
0.00213543
0.00268913
0.00316847
0.00358611
0.00395169
0.00427262
0.0045548
0.00480321
0.00502223
0.00521588
0.00538781
0.00554137
0.00567945
0.00580448
0.00591829
0.00602209
0.00611648
0.00620162
0.00627717
0.00634245
8.0755e-05
0.0007445
0.0014836
0.00212738
0.00268191
0.00316238
0.0035813
0.00394812
0.0042701
0.00455311
0.00480221
0.00502202
0.00521684
0.00539069
0.00554721
0.00568954
0.00582024
0.00594117
0.0060534
0.00615729
0.00625263
0.0063387
0.00641442
7.99855e-05
0.000735967
0.00147182
0.00211457
0.00266912
0.00315039
0.00357062
0.00393894
0.00426236
0.00454665
0.00479701
0.00501831
0.00521521
0.0053921
0.00555296
0.00570121
0.00583951
0.00596969
0.00609263
0.0062083
0.006316
0.00641444
0.00650207
7.914e-05
0.000726448
0.0014564
0.002096
0.00264955
0.00313155
0.00355359
0.00392417
0.00424986
0.00453632
0.00478883
0.0050126
0.00521272
0.005394
0.00556081
0.00571684
0.00586493
0.00600682
0.0061431
0.00627317
0.00639562
0.0065084
0.00660935
7.81707e-05
0.000714863
0.0014354
0.00206933
0.00262111
0.00310441
0.00352953
0.00390384
0.00423321
0.00452308
0.00477892
0.00500634
0.00521092
0.00539801
0.00557244
0.00573829
0.00589858
0.00605501
0.0062077
0.00635526
0.00649521
0.00662448
0.00674005
7.69877e-05
0.000699051
0.00140475
0.00203013
0.00258024
0.00306677
0.00349753
0.003878
0.00421306
0.00450795
0.00476844
0.00500069
0.00521093
0.00540516
0.00558884
0.00576658
0.00594176
0.00611601
0.00628886
0.00645771
0.00661852
0.00676666
0.006898
7.54397e-05
0.000675052
0.00135642
0.00197028
0.00252112
0.00301549
0.00345648
0.00384675
0.00419013
0.00449186
0.00475831
0.00499641
0.00521326
0.0054157
0.00561004
0.00580171
0.00599468
0.00619066
0.00638843
0.00658364
0.00676974
0.00693959
0.00708751
7.33173e-05
0.00063233
0.00127277
0.00187515
0.00243507
0.00294674
0.00340545
0.00381057
0.00416534
0.00447571
0.00474915
0.00499377
0.00521775
0.00542901
0.00563503
0.00584242
0.00605618
0.00627847
0.00650739
0.00673622
0.00695418
0.00714939
0.00731396
7.18379e-05
0.000536735
0.00111702
0.00172157
0.00231151
0.00285748
0.0033448
0.00377082
0.00414002
0.00446039
0.00474134
0.00499257
0.0052236
0.00544367
0.00566169
0.00588593
0.00612304
0.00637653
0.00664474
0.00691855
0.00717985
0.00740524
0.00758454
9.32622e-05
0.000331801
0.000842197
0.00148668
0.0021448
0.00274967
0.00327824
0.00373063
0.00411618
0.00444692
0.00473508
0.0049923
0.0052296
0.00545762
0.00568688
0.00592763
0.00618903
0.0064776
0.00679492
0.00713272
0.00746189
0.00772264
0.00790893
0.000193151
0.000152713
0.000489765
0.00118485
0.00195126
0.00263778
0.0032156
0.00369572
0.00409677
0.00443653
0.00473053
0.00499237
0.00523443
0.00546857
0.00570677
0.00596128
0.00624428
0.00656747
0.00694193
0.00737436
0.00783772
0.00812914
0.00829854
0.000413267
0.000144084
0.000247357
0.000919157
0.00179373
0.00255678
0.00317436
0.00367427
0.00408541
0.00443064
0.00472798
0.00499238
0.00523702
0.00547452
0.00571775
0.00598025
0.00627657
0.00662375
0.00704792
0.00760343
0.00842317
0.00866838
0.00875921
0.000108772
9.89833e-05
9.71965e-05
0.000103964
0.000844363
0.000793411
0.00079179
0.00083426
0.00158698
0.00153444
0.00152372
0.00155321
0.00216703
0.00213033
0.00211513
0.00212222
0.0026202
0.00259648
0.00257949
0.00257308
0.00297708
0.00295932
0.00294479
0.00293403
0.0032693
0.00325755
0.00324476
0.00323234
0.00352044
0.00350776
0.00349494
0.00348558
0.00374607
0.00373383
0.00372279
0.00371412
0.0039556
0.00394463
0.00393429
0.00392494
0.00415208
0.00414225
0.00413218
0.00412206
0.00433772
0.00432885
0.00431905
0.00430845
0.00451424
0.00450625
0.00449685
0.0044861
0.00468301
0.00467592
0.00466706
0.00465645
0.0048449
0.00483877
0.00483058
0.00482034
0.00500027
0.00499515
0.00498773
0.00497803
0.00514901
0.00514494
0.00513838
0.00512932
0.00529065
0.00528763
0.00528198
0.00527366
0.00542442
0.00542247
0.00541776
0.00541026
0.00554944
0.00554857
0.00554484
0.00553823
0.00566484
0.00566506
0.00566237
0.00565673
0.00576993
0.00577128
0.00576968
0.00576511
0.00586432
0.00586688
0.00586647
0.00586309
0.0059481
0.00595198
0.00595292
0.00595089
0.00602191
0.00602731
0.00602981
0.00602937
0.00608713
0.00609433
0.00609868
0.00610015
0.0061459
0.00615528
0.00616186
0.0061656
0.00620108
0.00621308
0.00622233
0.00622878
0.00625617
0.00627129
0.00628369
0.00629331
0.00631511
0.00633389
0.00634994
0.0063632
0.00638215
0.0064051
0.00642528
0.00644259
0.00646153
0.00648913
0.00651383
0.00653554
0.00655734
0.00658997
0.0066195
0.00664582
0.00667338
0.00671131
0.00674579
0.00677676
0.00681319
0.00685646
0.00689583
0.00693123
0.00698022
0.00702861
0.00707243
0.00711171
0.00717816
0.00723096
0.00727832
0.00732044
0.00741126
0.007467
0.00751625
0.00755945
0.00768465
0.00774056
0.00778887
0.0078304
0.00800404
0.00805523
0.00809807
0.00813393
0.00837389
0.00841236
0.00844324
0.00846823
0.00879123
0.00880636
0.00881787
0.00882684
0.000521721
0.00103018
0.00139909
0.00163038
0.00176418
0.00183171
0.00185444
0.0018454
0.0018103
0.00175204
0.00167323
0.00158125
0.00148084
0.001358
0.00118741
0.00095129
0.000656743
0.000325913
5.61184e-05
0.00110365
0.00146395
0.00174779
0.00194257
0.00206143
0.00212196
0.0021387
0.00212274
0.00208044
0.00201461
0.00192699
0.0018187
0.00168705
0.0015215
0.0013062
0.00102786
0.000694518
0.000342543
5.78791e-05
0.00167573
0.00189924
0.00209886
0.00224744
0.00234157
0.00238851
0.00239461
0.00236915
0.00231806
0.00224348
0.00214564
0.00202314
0.00187061
0.00167913
0.0014367
0.00113306
0.000775662
0.000390303
6.77455e-05
0.00217079
0.00229869
0.00243012
0.00253601
0.00260359
0.0026353
0.00262711
0.00259012
0.00252933
0.00244579
0.00233906
0.00220631
0.00204139
0.00183731
0.00158522
0.00127526
0.000905751
0.000463233
7.89461e-05
0.00258378
0.00265157
0.00273162
0.00280036
0.00284284
0.00286341
0.00283885
0.0027894
0.00271925
0.00262778
0.00251361
0.00237288
0.00220067
0.00199336
0.00174517
0.00144574
0.00108096
0.000608919
9.01719e-05
0.00292576
0.00295842
0.00299987
0.00303409
0.00305743
0.00306059
0.0030261
0.00296692
0.00288808
0.00278801
0.00266361
0.0025101
0.00232571
0.00210872
0.00185163
0.0015383
0.00114955
0.000622948
8.16097e-05
0.00322133
0.00323047
0.00324559
0.00325744
0.0032561
0.00324057
0.00319496
0.00312705
0.00303943
0.00292906
0.00279123
0.00262292
0.00242387
0.00219164
0.00191748
0.00158291
0.00114693
0.000563379
7.98048e-05
0.00347518
0.00347059
0.0034672
0.00346003
0.00344066
0.0034063
0.00334909
0.00327253
0.00317518
0.00305313
0.00290093
0.00271735
0.00250165
0.00225162
0.0019612
0.00161736
0.00119343
0.000660498
8.43371e-05
0.00370265
0.00368813
0.00367095
0.00364722
0.00361088
0.00355935
0.00349125
0.00340598
0.0032985
0.003163
0.00299585
0.0027955
0.00256114
0.00229235
0.00198582
0.00163307
0.00121228
0.000678382
8.62411e-05
0.00391055
0.00388863
0.00386116
0.00382466
0.00377488
0.00371024
0.00363078
0.00353505
0.00341506
0.00326449
0.00308063
0.00286184
0.0026077
0.002318
0.00199101
0.00162226
0.00119457
0.000663566
8.30397e-05
0.0041049
0.00407689
0.00404151
0.00399554
0.00393566
0.00386052
0.00377012
0.00366252
0.00352861
0.0033627
0.00316189
0.00292404
0.00264819
0.00233359
0.0019801
0.00158592
0.00114048
0.000617389
7.64995e-05
0.00428934
0.00425648
0.00421494
0.00416168
0.00409371
0.00400966
0.0039091
0.00378924
0.0036419
0.00346157
0.00324536
0.00298992
0.00269238
0.00235093
0.00196452
0.00153104
0.0010478
0.000524987
7.02664e-05
0.0044659
0.00442952
0.00438318
0.00432402
0.00424932
0.00415747
0.0040477
0.00391643
0.00375706
0.0035645
0.00333517
0.00306443
0.00274838
0.00238435
0.00196968
0.00150112
0.000983536
0.000465285
6.88474e-05
0.00463585
0.0045971
0.00454701
0.00448301
0.00440265
0.00430419
0.0041863
0.00404527
0.00387589
0.00367335
0.0034333
0.00315087
0.00282198
0.00244418
0.00201488
0.00153155
0.00100156
0.0004712
7.15989e-05
0.00479984
0.00475962
0.00470668
0.00463883
0.00455385
0.00444996
0.00432529
0.00417647
0.00399909
0.00378862
0.0035406
0.00325053
0.00291493
0.00253179
0.00209978
0.00161813
0.00109052
0.000536358
7.75234e-05
0.00495799
0.00491703
0.00486209
0.00479135
0.00470281
0.00459464
0.00446471
0.00430995
0.00412648
0.00391014
0.00365673
0.00336225
0.00302371
0.00263943
0.00220859
0.00173038
0.00120237
0.000621006
8.30049e-05
0.00511001
0.00506892
0.0050128
0.0049401
0.00484902
0.00473771
0.00460396
0.00444492
0.00425712
0.00403674
0.0037799
0.0034829
0.0031428
0.00275749
0.0023252
0.00184282
0.00130209
0.000685947
8.73331e-05
0.00525531
0.00521463
0.00515808
0.0050843
0.00499164
0.00487827
0.004742
0.00458013
0.00438949
0.00416652
0.00390749
0.00360871
0.00326679
0.00287857
0.00244033
0.00194587
0.00138236
0.000727411
9.0219e-05
0.00539306
0.00535328
0.00529698
0.00522294
0.0051296
0.00501517
0.00487751
0.00471406
0.00452179
0.00429726
0.00403674
0.00373627
0.00339168
0.00299835
0.00255037
0.00203882
0.00144879
0.00076051
9.20966e-05
0.00552237
0.00548394
0.00542852
0.00535495
0.00526175
0.00514718
0.00500914
0.00484514
0.00465221
0.00442691
0.00416535
0.00386308
0.00351501
0.00311493
0.00265476
0.00212322
0.00150445
0.000783407
9.37329e-05
0.00564239
0.00560574
0.00555178
0.00547936
0.00538707
0.0052732
0.00513569
0.00497203
0.00477927
0.00455386
0.00429164
0.00398762
0.00363572
0.00322819
0.00275482
0.00220193
0.00155236
0.000796479
9.55168e-05
0.0057525
0.00571808
0.00566612
0.00559551
0.00550487
0.00539251
0.00525633
0.00509383
0.00490196
0.00467707
0.00441466
0.00410921
0.00375373
0.00333909
0.00285313
0.00227974
0.0015998
0.000808011
9.76799e-05
0.00585247
0.00582072
0.00577134
0.00570323
0.00561498
0.00550488
0.00537081
0.00521021
0.00501994
0.00479617
0.00453414
0.00422783
0.0038695
0.00344894
0.00295249
0.00236203
0.00165649
0.000832225
0.000100508
0.00594256
0.00591404
0.0058679
0.00580298
0.00571787
0.00561078
0.00547956
0.00532156
0.00513353
0.0049115
0.00465044
0.00434392
0.00398365
0.00355869
0.0030544
0.00245121
0.00172676
0.000875625
0.000104069
0.00602376
0.00599914
0.00595695
0.00589598
0.00581475
0.00571141
0.00558375
0.00542906
0.00524396
0.00502428
0.00476474
0.0044586
0.00409708
0.00366861
0.00315779
0.00254445
0.00180501
0.000929373
0.000108164
0.00609779
0.00607786
0.00604041
0.00598417
0.0059076
0.00580879
0.00568545
0.00553474
0.00535317
0.00513637
0.00487885
0.00457353
0.00421123
0.00377975
0.00326278
0.00263866
0.00188097
0.000974627
0.000112833
0.00616713
0.00615276
0.0061209
0.00607023
0.00599912
0.0059056
0.00578727
0.00564119
0.00546371
0.00525027
0.00499515
0.00469095
0.00432807
0.00389367
0.00337043
0.00273489
0.00195722
0.00101707
0.000117465
0.0062349
0.00622702
0.00620164
0.00615736
0.00609248
0.00600497
0.00589233
0.00575149
0.00557864
0.00536901
0.00511659
0.00481366
0.00445014
0.00401258
0.00348259
0.0028349
0.00203636
0.00106127
0.000121873
0.00630477
0.00630432
0.00628625
0.00624911
0.00619117
0.00611033
0.00600402
0.00586904
0.00570137
0.005496
0.00524656
0.00494495
0.00458056
0.00413927
0.00360169
0.0029408
0.00212025
0.00110887
0.000126038
0.00638072
0.00638854
0.0063785
0.00634914
0.00629874
0.00622518
0.00612581
0.00599729
0.0058354
0.0056348
0.00538871
0.00508849
0.00472293
0.00427714
0.00373071
0.00305499
0.00221058
0.00116054
0.000130367
0.00646679
0.00648355
0.00648207
0.00646094
0.00641853
0.00635274
0.00626088
0.00613949
0.00598409
0.00578894
0.00554674
0.00524817
0.00488121
0.00443005
0.00387319
0.00318037
0.00230925
0.00121695
0.000135371
0.00656689
0.00659299
0.0066003
0.00658761
0.00655343
0.00649577
0.00641197
0.00629842
0.00615038
0.00596165
0.00572425
0.00542797
0.00505971
0.00460243
0.00403331
0.00332048
0.00241887
0.00127978
0.000141011
0.00668455
0.00672
0.00673598
0.00673161
0.00670566
0.00665636
0.00658109
0.00647617
0.00633659
0.00615563
0.00592449
0.00563179
0.00526297
0.00479927
0.00421607
0.0034797
0.00254262
0.00135087
0.000147266
0.00682276
0.00686713
0.00689123
0.00689468
0.00687669
0.00683576
0.00676944
0.00667404
0.00654429
0.00637292
0.00615021
0.00586334
0.00549576
0.00502628
0.00442762
0.00366364
0.0026844
0.00143159
0.000154623
0.00698399
0.00703624
0.00706739
0.00707776
0.00706711
0.00703438
0.00697735
0.0068924
0.00677409
0.00661468
0.00640344
0.00612592
0.00576301
0.00529006
0.0046757
0.0038799
0.0028498
0.00152408
0.000163683
0.00717014
0.00722852
0.00726506
0.00728099
0.00727677
0.00725181
0.00720425
0.00713067
0.00702562
0.00688102
0.00668527
0.00642219
0.00606963
0.00559826
0.00497042
0.00413939
0.00304762
0.00163277
0.000174684
0.00738266
0.00744453
0.00748416
0.00750384
0.00750476
0.00748689
0.0074488
0.0073874
0.00729745
0.00717084
0.00699547
0.00675367
0.00642009
0.00595952
0.00532507
0.00445827
0.003292
0.00176463
0.000187909
0.0076225
0.00768419
0.00772396
0.00774515
0.00774965
0.00773793
0.00770903
0.00766032
0.00758709
0.00748166
0.00733209
0.00712
0.00681746
0.0063829
0.00575692
0.00486126
0.00360741
0.0019314
0.000204136
0.00788995
0.00794673
0.00798315
0.00800334
0.00800962
0.00800287
0.00798253
0.0079466
0.00789115
0.00780956
0.00769099
0.00751789
0.00726166
0.0068759
0.00628712
0.00538675
0.00404019
0.00215871
0.000225235
0.00818416
0.00823047
0.00825982
0.00827644
0.0082827
0.00827955
0.0082668
0.0082431
0.00820559
0.00814927
0.00806559
0.00793994
0.00774671
0.00744004
0.00693704
0.00609252
0.00468436
0.00251967
0.000253219
0.00850229
0.00853258
0.0085515
0.00856237
0.00856695
0.00856601
0.00855955
0.00854683
0.00852622
0.00849473
0.00844711
0.00837391
0.00825744
0.00806253
0.0077152
0.00705328
0.00573348
0.00323575
0.000291911
0.00883874
0.00884903
0.0088554
0.00885911
0.00886081
0.00886078
0.00885906
0.00885543
0.00884941
0.00884009
0.00882586
0.0088037
0.00876772
0.00870517
0.00858451
0.00831351
0.00757163
0.00519783
0.000343866
)
;

boundaryField
{
    leftWall
    {
        type            nutkWallFunction;
        Cmu             0.09;
        kappa           0.41;
        E               9.8;
        value           nonuniform List<scalar> 
50
(
2.78655e-06
4.2312e-06
5.05526e-06
5.64746e-06
6.10658e-06
6.4852e-06
6.81353e-06
7.11156e-06
7.47434e-06
7.90883e-06
8.30956e-06
4.78783e-06
7.51514e-06
6.40032e-06
2.40387e-06
8.99896e-07
1.02942e-06
1.29013e-06
1.53114e-06
1.73853e-06
1.91194e-06
2.05326e-06
2.16575e-06
2.25297e-06
2.3233e-06
2.39002e-06
2.44892e-06
2.49086e-06
2.51442e-06
2.518e-06
2.5018e-06
2.47085e-06
2.42599e-06
2.36923e-06
2.3022e-06
2.2257e-06
2.13755e-06
2.03089e-06
1.90468e-06
1.78617e-06
1.65977e-06
1.52082e-06
1.36138e-06
1.16653e-06
9.11109e-07
5.59914e-07
3.14773e-07
3.81049e-06
1.88447e-05
4.87461e-05
)
;
    }
    rightWall
    {
        type            nutkWallFunction;
        Cmu             0.09;
        kappa           0.41;
        E               9.8;
        value           nonuniform List<scalar> 
50
(
4.93238e-06
6.19687e-06
6.76025e-06
7.0601e-06
7.19734e-06
7.20984e-06
7.14177e-06
7.03209e-06
6.80092e-06
7.01383e-06
8.18839e-06
6.10894e-06
7.77266e-06
6.49997e-06
4.33257e-06
2.38346e-06
2.68786e-06
2.16622e-06
1.09408e-06
6.5818e-08
1.08229e-08
4.60246e-07
1.43842e-06
2.2285e-06
2.86378e-06
3.3299e-06
3.63022e-06
3.88836e-06
4.1706e-06
4.52052e-06
5.07321e-06
5.64819e-06
6.28692e-06
7.01109e-06
7.72708e-06
8.36584e-06
8.94122e-06
9.6082e-06
1.03781e-05
1.12108e-05
1.212e-05
1.32214e-05
1.45822e-05
1.61921e-05
1.81093e-05
2.0433e-05
2.34204e-05
2.73285e-05
3.26393e-05
3.96236e-05
)
;
    }
    lowerWall
    {
        type            nutkWallFunction;
        Cmu             0.09;
        kappa           0.41;
        E               9.8;
        value           nonuniform List<scalar> 
62
(
1.02879e-06
1.9385e-06
2.43687e-06
2.7598e-06
2.99537e-06
3.17775e-06
3.32489e-06
3.44737e-06
3.5512e-06
3.63956e-06
3.7147e-06
3.77866e-06
3.83299e-06
3.87795e-06
3.90997e-06
3.91417e-06
3.84557e-06
3.67211e-06
3.4344e-06
3.22121e-06
3.01437e-06
2.58234e-06
1.40264e-06
1.40264e-06
5.62069e-06
6.73304e-06
7.65487e-06
8.52968e-06
9.36483e-06
1.03312e-05
1.19773e-05
1.28686e-05
1.17718e-05
1.1564e-05
1.23201e-05
1.39375e-06
5.68411e-06
6.65747e-06
7.55989e-06
8.40325e-06
9.28268e-06
1.04225e-05
1.24381e-05
1.39375e-06
2.60771e-06
3.102e-06
3.32167e-06
3.41544e-06
3.44844e-06
3.45896e-06
3.48328e-06
3.52995e-06
3.5017e-06
3.25112e-06
2.94889e-06
2.76118e-06
3.09611e-06
3.48e-06
3.33169e-06
2.93942e-06
2.39164e-06
1.88117e-06
)
;
    }
    atmosphere
    {
        type            calculated;
        value           nonuniform List<scalar> 
46
(
0.009
0.000144084
0.000247357
0.000919157
0.00179373
0.00255678
0.00317436
0.00367427
0.00408541
0.00443064
0.00472798
0.00499238
0.00523702
0.00547452
0.00571775
0.00598025
0.00627657
0.00662375
0.00704792
0.00760343
0.009
0.009
0.009
0.009
0.009
0.009
0.009
0.009
0.009
0.009
0.009
0.009
0.009
0.009
0.009
0.009
0.009
0.009
0.009
0.009
0.009
0.009
0.009
0.009
0.009
0.000343866
)
;
    }
    defaultFaces
    {
        type            empty;
    }
}


// ************************************************************************* //
