# vtk DataFile Version 2.0
track0
ASCII
DATASET POLYDATA
POINTS 12060 float
-0.0205 0.001 1e-05
-0.02052 0.000999985 1e-05
-0.02054 0.000999974 1e-05
-0.02056 0.000999965 1e-05
-0.02058 0.000999959 1e-05
-0.0206 0.000999956 1e-05
-0.0205 0.00367778 1e-05
-0.02052 0.00367778 1e-05
-0.02054 0.00367777 1e-05
-0.02056 0.00367777 1e-05
-0.02058 0.00367777 1e-05
-0.0206 0.00367777 1e-05
-0.0205 0.00635556 1e-05
-0.02052 0.00635555 1e-05
-0.02054 0.00635555 1e-05
-0.02056 0.00635555 1e-05
-0.02058 0.00635555 1e-05
-0.0206 0.00635555 1e-05
-0.0205 0.00903333 1e-05
-0.02052 0.00903333 1e-05
-0.02054 0.00903333 1e-05
-0.02056 0.00903333 1e-05
-0.02058 0.00903333 1e-05
-0.0206 0.00903333 1e-05
-0.0205 0.0117111 1e-05
-0.02052 0.0117111 1e-05
-0.02054 0.0117111 1e-05
-0.02056 0.0117111 1e-05
-0.02058 0.0117111 1e-05
-0.0206 0.0117111 1e-05
-0.0205 0.0143889 1e-05
-0.02052 0.0143889 1e-05
-0.02054 0.0143889 1e-05
-0.02056 0.0143889 1e-05
-0.02058 0.0143889 1e-05
-0.0206 0.0143889 1e-05
-0.0205 0.0170667 1e-05
-0.02052 0.0170667 1e-05
-0.02054 0.0170667 1e-05
-0.02056 0.0170667 1e-05
-0.02058 0.0170667 1e-05
-0.0206 0.0170667 1e-05
-0.0205 0.0197444 1e-05
-0.02052 0.0197444 1e-05
-0.02054 0.0197444 1e-05
-0.02056 0.0197444 1e-05
-0.02058 0.0197444 1e-05
-0.0206 0.0197444 1e-05
-0.0205 0.0224222 1e-05
-0.02052 0.0224222 1e-05
-0.02054 0.0224222 1e-05
-0.02056 0.0224222 1e-05
-0.02058 0.0224222 1e-05
-0.0206 0.0224222 1e-05
-0.0205 0.0251 1e-05
-0.02052 0.0250998 1e-05
-0.02054 0.0250997 1e-05
-0.02056 0.0250995 1e-05
-0.02058 0.0250995 1e-05
-0.0206 0.0250994 1e-05
-0.0205 0.001 1e-05
-0.0202034 0.00100022 1e-05
-0.0199069 0.00100067 1e-05
-0.0196103 0.00100133 1e-05
-0.0193137 0.00100219 1e-05
-0.0190172 0.00100326 1e-05
-0.0187132 0.00100467 1e-05
-0.0184093 0.00100589 1e-05
-0.0181054 0.00100711 1e-05
-0.0178015 0.00100833 1e-05
-0.0174976 0.00100954 1e-05
-0.0172058 0.00101083 1e-05
-0.016914 0.00101194 1e-05
-0.0166222 0.00101304 1e-05
-0.0163305 0.00101413 1e-05
-0.0160387 0.00101523 1e-05
-0.0157586 0.00101637 1e-05
-0.0154784 0.00101745 1e-05
-0.0151983 0.00101857 1e-05
-0.0149182 0.00101972 1e-05
-0.0146381 0.00102091 1e-05
-0.0143748 0.00102209 1e-05
-0.0141115 0.00102327 1e-05
-0.0138482 0.00102449 1e-05
-0.0135849 0.00102574 1e-05
-0.0133625 0.00102682 1e-05
-0.0133487 0.00102689 1e-05
-0.0133349 0.00102695 1e-05
-0.0133211 0.00102702 1e-05
-0.0133073 0.00102709 1e-05
-0.0132934 0.00102716 1e-05
-0.0130353 0.00102845 1e-05
-0.0127771 0.00102975 1e-05
-0.0125189 0.00103107 1e-05
-0.0122607 0.00103241 1e-05
-0.0120025 0.00103376 1e-05
-0.0117547 0.00103507 1e-05
-0.0115068 0.00103638 1e-05
-0.0112589 0.0010377 1e-05
-0.0110111 0.00103903 1e-05
-0.0107632 0.00104036 1e-05
-0.0105252 0.00104164 1e-05
-0.0102873 0.00104292 1e-05
-0.0100493 0.0010442 1e-05
-0.00981133 0.00104547 1e-05
-0.00957337 0.00104675 1e-05
-0.00934491 0.00104797 1e-05
-0.00911645 0.0010492 1e-05
-0.00888799 0.00105042 1e-05
-0.00865954 0.00105164 1e-05
-0.00843108 0.00105285 1e-05
-0.00821175 0.00105401 1e-05
-0.00799242 0.00105517 1e-05
-0.00777309 0.00105632 1e-05
-0.00755376 0.00105748 1e-05
-0.00733443 0.00105862 1e-05
-0.00712387 0.00105971 1e-05
-0.0069133 0.00106081 1e-05
-0.00670273 0.0010619 1e-05
-0.00649216 0.00106298 1e-05
-0.0062816 0.00106406 1e-05
-0.00607944 0.00106509 1e-05
-0.00587729 0.00106612 1e-05
-0.00567514 0.00106714 1e-05
-0.00547298 0.00106816 1e-05
-0.00527083 0.00106918 1e-05
-0.00507675 0.00107015 1e-05
-0.00488267 0.00107112 1e-05
-0.0046886 0.00107208 1e-05
-0.00449452 0.00107304 1e-05
-0.00430044 0.001074 1e-05
-0.00411412 0.00107491 1e-05
-0.0039278 0.00107583 1e-05
-0.00374147 0.00107674 1e-05
-0.00355515 0.00107765 1e-05
-0.00336883 0.00107855 1e-05
-0.00318995 0.00107941 1e-05
-0.00301107 0.00108028 1e-05
-0.00283219 0.00108114 1e-05
-0.00265331 0.001082 1e-05
-0.00247443 0.00108286 1e-05
-0.0023027 0.00108368 1e-05
-0.00213097 0.00108451 1e-05
-0.00195924 0.00108533 1e-05
-0.0017875 0.00108616 1e-05
-0.00161577 0.00108698 1e-05
-0.0014509 0.00108776 1e-05
-0.00128603 0.00108855 1e-05
-0.00112116 0.00108935 1e-05
-0.000956289 0.00109015 1e-05
-0.000791418 0.00109095 1e-05
-0.000633135 0.00109172 1e-05
-0.000474851 0.00109249 1e-05
-0.000316567 0.00109327 1e-05
-0.000158284 0.00109406 1e-05
0 0.00109484 1e-05
0.000105677 0.00109537 1e-05
0.000211355 0.00109589 1e-05
0.000317032 0.00109642 1e-05
0.00042271 0.00109694 1e-05
0.000528387 0.00109746 1e-05
0.000634886 0.00109798 1e-05
0.000741385 0.00109849 1e-05
0.000847885 0.00109901 1e-05
0.000954384 0.00109952 1e-05
0.00106088 0.00110002 1e-05
0.00116821 0.00110052 1e-05
0.00127554 0.00110102 1e-05
0.00138286 0.00110151 1e-05
0.00149019 0.001102 1e-05
0.00159752 0.00110247 1e-05
0.00170568 0.00110294 1e-05
0.00181384 0.00110341 1e-05
0.001922 0.00110387 1e-05
0.00203016 0.00110431 1e-05
0.00213833 0.00110475 1e-05
0.00224733 0.00110518 1e-05
0.00235633 0.0011056 1e-05
0.00246533 0.00110602 1e-05
0.00257434 0.00110643 1e-05
0.00268334 0.00110682 1e-05
0.00279319 0.00110721 1e-05
0.00290304 0.00110759 1e-05
0.00301289 0.00110797 1e-05
0.00312274 0.00110833 1e-05
0.00323259 0.00110869 1e-05
0.00334329 0.00110904 1e-05
0.003454 0.00110938 1e-05
0.0035647 0.00110972 1e-05
0.0036754 0.00111005 1e-05
0.00378611 0.00111037 1e-05
0.00389767 0.00111068 1e-05
0.00400924 0.00111099 1e-05
0.0041208 0.00111129 1e-05
0.00423237 0.00111158 1e-05
0.00434393 0.00111186 1e-05
0.00445636 0.00111213 1e-05
0.00456879 0.0011124 1e-05
0.00468123 0.00111266 1e-05
0.00479366 0.00111291 1e-05
0.00490609 0.00111315 1e-05
0.0050194 0.00111339 1e-05
0.0051327 0.00111362 1e-05
0.00524601 0.00111384 1e-05
0.00535932 0.00111405 1e-05
0.00547262 0.00111426 1e-05
0.00558681 0.00111445 1e-05
0.005701 0.00111464 1e-05
0.00581518 0.00111483 1e-05
0.00592937 0.001115 1e-05
0.00604356 0.00111517 1e-05
0.00615863 0.00111532 1e-05
0.00627371 0.00111548 1e-05
0.00638878 0.00111562 1e-05
0.00650386 0.00111576 1e-05
0.00661893 0.00111588 1e-05
0.0067349 0.001116 1e-05
0.00685087 0.00111612 1e-05
0.00696684 0.00111622 1e-05
0.00708281 0.00111632 1e-05
0.00719878 0.00111641 1e-05
0.00731565 0.00111649 1e-05
0.00743252 0.00111656 1e-05
0.00754939 0.00111663 1e-05
0.00766626 0.00111669 1e-05
0.00778313 0.00111674 1e-05
0.0077968 0.00111674 1e-05
0.00781047 0.00111675 1e-05
0.00782414 0.00111675 1e-05
0.00783781 0.00111676 1e-05
0.00785139 0.00111676 1e-05
0.00795552 0.00111679 1e-05
0.00805965 0.00111682 1e-05
0.00816378 0.00111684 1e-05
0.00826791 0.00111685 1e-05
0.00837203 0.00111686 1e-05
0.00849073 0.00111686 1e-05
0.00860942 0.00111685 1e-05
0.00872812 0.00111683 1e-05
0.00884682 0.00111681 1e-05
0.00896551 0.00111677 1e-05
0.00908513 0.00111672 1e-05
0.00920475 0.00111667 1e-05
0.00932437 0.00111661 1e-05
0.00944398 0.00111654 1e-05
0.0095636 0.00111647 1e-05
0.00968415 0.00111637 1e-05
0.0098047 0.00111628 1e-05
0.00992525 0.00111617 1e-05
0.0100458 0.00111606 1e-05
0.0101663 0.00111594 1e-05
0.0102878 0.0011158 1e-05
0.0104093 0.00111565 1e-05
0.0105308 0.0011155 1e-05
0.0106523 0.00111535 1e-05
0.0107738 0.00111518 1e-05
0.0108962 0.00111499 1e-05
0.0110186 0.0011148 1e-05
0.0111411 0.0011146 1e-05
0.0112635 0.0011144 1e-05
0.0113859 0.00111418 1e-05
0.0115093 0.00111394 1e-05
0.0116327 0.0011137 1e-05
0.0117561 0.00111346 1e-05
0.0118795 0.0011132 1e-05
0.0120028 0.00111294 1e-05
0.0121272 0.00111265 1e-05
0.0122515 0.00111236 1e-05
0.0123759 0.00111207 1e-05
0.0125002 0.00111176 1e-05
0.0126245 0.00111145 1e-05
0.0127498 0.00111111 1e-05
0.0128752 0.00111077 1e-05
0.0130005 0.00111042 1e-05
0.0131258 0.00111006 1e-05
0.0132511 0.0011097 1e-05
0.0133774 0.00110931 1e-05
0.0135036 0.00110891 1e-05
0.0136299 0.00110851 1e-05
0.0137562 0.0011081 1e-05
0.0138825 0.00110768 1e-05
0.0140098 0.00110724 1e-05
0.014137 0.00110679 1e-05
0.0142643 0.00110634 1e-05
0.0143915 0.00110587 1e-05
0.0145188 0.0011054 1e-05
0.0146471 0.0011049 1e-05
0.0147753 0.0011044 1e-05
0.0149036 0.00110389 1e-05
0.0150318 0.00110337 1e-05
0.0151601 0.00110283 1e-05
0.0152893 0.00110229 1e-05
0.0154186 0.00110173 1e-05
0.0155478 0.00110116 1e-05
0.0156771 0.00110058 1e-05
0.0158063 0.00109999 1e-05
0.0159366 0.00109939 1e-05
0.0160668 0.00109878 1e-05
0.0161971 0.00109815 1e-05
0.0163274 0.00109751 1e-05
0.0164576 0.00109687 1e-05
0.0165889 0.00109621 1e-05
0.0167201 0.00109554 1e-05
0.0168514 0.00109486 1e-05
0.0169827 0.00109416 1e-05
0.0171139 0.00109346 1e-05
0.0172462 0.00109275 1e-05
0.0173785 0.00109202 1e-05
0.0175108 0.00109127 1e-05
0.0176431 0.00109052 1e-05
0.0177754 0.00108976 1e-05
0.0179087 0.00108899 1e-05
0.018042 0.00108821 1e-05
0.0181753 0.0010874 1e-05
0.0183087 0.00108659 1e-05
0.018442 0.00108577 1e-05
0.0185763 0.00108495 1e-05
0.0187107 0.0010841 1e-05
0.018845 0.00108324 1e-05
0.0189794 0.00108236 1e-05
0.0191137 0.00108149 1e-05
0.0192491 0.00108061 1e-05
0.0193845 0.0010797 1e-05
0.0195199 0.00107878 1e-05
0.0196553 0.00107784 1e-05
0.0197907 0.0010769 1e-05
0.0199272 0.00107597 1e-05
0.0200636 0.001075 1e-05
0.0202001 0.00107402 1e-05
0.0203365 0.00107302 1e-05
0.020473 0.00107203 1e-05
0.0206105 0.00107103 1e-05
0.020748 0.00107001 1e-05
0.0208855 0.00106896 1e-05
0.021023 0.0010679 1e-05
0.0211606 0.00106685 1e-05
0.0212991 0.00106579 1e-05
0.0214377 0.00106471 1e-05
0.0215763 0.0010636 1e-05
0.0217149 0.00106248 1e-05
0.0218535 0.00106137 1e-05
0.0219931 0.00106025 1e-05
0.0221328 0.00105911 1e-05
0.0222724 0.00105794 1e-05
0.0224121 0.00105675 1e-05
0.0225517 0.00105558 1e-05
0.0226925 0.0010544 1e-05
0.0228332 0.0010532 1e-05
0.022974 0.00105196 1e-05
0.0231147 0.00105072 1e-05
0.0232555 0.00104948 1e-05
0.0233973 0.00104824 1e-05
0.0235391 0.00104698 1e-05
0.023681 0.00104568 1e-05
0.0238228 0.00104437 1e-05
0.0239647 0.00104307 1e-05
0.0241076 0.00104177 1e-05
0.0242505 0.00104044 1e-05
0.0243935 0.00103907 1e-05
0.0245364 0.0010377 1e-05
0.0246794 0.00103634 1e-05
0.0248234 0.00103497 1e-05
0.0249675 0.00103358 1e-05
0.0251115 0.00103215 1e-05
0.0252556 0.00103071 1e-05
[...]
POINT_DATA 12060
 FIELD attributes 1
U 3 12060 float
10.0004 	0.00734837 	0 10.0004 	0.00587869 	0 10.0003 	0.00440902 	0 10.0002 	0.00293935 	0 10.0001 	0.00146967 	0 10 	0 	0
10.0001 	0.000879077 	0 10 	0.000703261 	0 10 	0.000527446 	0 10 	0.000351631 	0 10 	0.000175815 	0 10 	0 	0
10.0001 	0.000467364 	0 10.0001 	0.000373702 	0 10.0001 	0.00028004 	0 10 	0.000186377 	0 10 	9.2715e-05 	0 10 	0 	0
10 	0.000267792 	0 10 	0.000214234 	0 10 	0.000160675 	0 10 	0.000107117 	0 10 	5.35585e-05 	0 10 	0 	0
10 	8.21457e-05 	0 10 	6.57165e-05 	0 10 	4.92874e-05 	0 10 	3.28583e-05 	0 10 	1.64291e-05 	0 10 	0 	0
10 	-2.46474e-05 	0 10 	-1.97179e-05 	0 10 	-1.47884e-05 	0 10 	-9.85896e-06 	0 10 	-4.92948e-06 	0 10 	0 	0
10 	-0.000214989 	0 10 	-0.000171991 	0 10 	-0.000128994 	0 10 	-8.59957e-05 	0 10 	-4.29979e-05 	0 10 	0 	0
10 	-0.000376921 	0 10 	-0.000301537 	0 10 	-0.000226153 	0 10 	-0.000150768 	0 10 	-7.53842e-05 	0 10 	0 	0
9.99999 	-0.000426043 	0 9.99999 	-0.000340834 	0 9.99999 	-0.000255626 	0 10 	-0.000170417 	0 10 	-8.52085e-05 	0 10 	0 	0
9.17387 	0.0871273 	0 9.1308 	0.0697018 	0 9.08741 	0.0522761 	0 9.04368 	0.0348501 	0 8.99963 	0.017424 	0 8.95524 	0 	0
10.0004 	0.00734837 	0 10.0024 	0.0152072 	0 10.0045 	0.0222296 	0 10.0065 	0.0292075 	0 10.0086 	0.0361413 	0 10.0136 	0.0463339 	0 10.0164 	0.0402153 	0 10.0208 	0.0401666 	0 10.0253 	0.0401181 	0 10.0297 	0.0400698 	0 10.0356 	0.0445289 	0 10.0385 	0.0378919 	0 10.0424 	0.0378495 	0 10.0464 	0.037807 	0 10.0504 	0.0377645 	0 10.0545 	0.0408666 	0 10.0567 	0.0387906 	0 10.0591 	0.0401012 	0 10.0616 	0.0414134 	0 10.064 	0.0427273 	0 10.0661 	0.0451863 	0 10.0677 	0.0452985 	0 10.069 	0.0465013 	0 10.0703 	0.0477053 	0 10.0716 	0.0489105 	0 10.0728 	0.0499291 	0 10.0728 	0.0499928 	0 10.0729 	0.0500566 	0 10.073 	0.0501203 	0 10.0731 	0.0501841 	0 10.0731 	0.0502382 	0 10.0736 	0.0508671 	0 10.0742 	0.0514898 	0 10.0747 	0.052113 	0 10.0752 	0.0527367 	0 10.0757 	0.0531963 	0 10.0756 	0.0534946 	0 10.0752 	0.0536874 	0 10.0748 	0.0538803 	0 10.0745 	0.0540733 	0 10.074 	0.0540278 	0 10.0735 	0.0541763 	0 10.0724 	0.0541562 	0 10.0713 	0.0541362 	0 10.0702 	0.0541162 	0 10.0687 	0.0538271 	0 10.0683 	0.0539121 	0 10.0666 	0.0537833 	0 10.065 	0.0536544 	0 10.0634 	0.0535255 	0 10.0608 	0.0531105 	0 10.0608 	0.0531711 	0 10.0587 	0.052983 	0 10.0567 	0.0527948 	0 10.0547 	0.0526066 	0 10.0511 	0.05212 	0 10.0517 	0.0521822 	0 10.0494 	0.0519706 	0 10.047 	0.0517589 	0 10.0447 	0.0515472 	0 10.0401 	0.0510296 	0 10.0415 	0.051116 	0 10.039 	0.050904 	0 10.0364 	0.0506919 	0 10.0339 	0.0504798 	0 10.0281 	0.049949 	0 10.0305 	0.0500688 	0 10.0279 	0.0498763 	0 10.0252 	0.0496838 	0 10.0225 	0.0494912 	0 10.0156 	0.0489742 	0 10.0192 	0.0491424 	0 10.0164 	0.0489758 	0 10.0136 	0.0488092 	0 10.0108 	0.0486426 	0 10.0027 	0.0481352 	0 10.0075 	0.0483596 	0 10.0047 	0.048271 	0 10.0019 	0.0481825 	0 9.99915 	0.0480939 	0 9.98983 	0.0476799 	0 9.99599 	0.0480118 	0 9.99323 	0.0479763 	0 9.99048 	0.0479408 	0 9.98772 	0.0479053 	0 9.97719 	0.0474881 	0 9.98476 	0.0478925 	0 9.98213 	0.0480947 	0 9.9795 	0.0482971 	0 9.97687 	0.0484994 	0 9.96521 	0.0483838 	0 9.97438 	0.048975 	9.88989e-22 9.97251 	0.0491648 	6.63824e-21 9.97064 	0.0493547 	1.22873e-20 9.96878 	0.0495447 	1.79361e-20 9.95678 	0.0492161 	1.51397e-20 9.96736 	0.0495378 	1.05866e-19 9.96582 	0.0493826 	9.8384e-20 9.96428 	0.0492274 	9.08999e-20 9.96275 	0.0490722 	8.34138e-20 9.95058 	0.048453 	-1.68689e-20 9.96112 	0.0483754 	-4.58273e-20 9.95962 	0.0479929 	-5.0955e-20 9.95812 	0.0476104 	-5.60804e-20 9.95661 	0.0472278 	-6.12036e-20 9.94453 	0.0465716 	-2.36797e-20 9.95462 	0.0462591 	-2.08819e-20 9.95283 	0.045551 	-1.44989e-20 9.95103 	0.0448429 	-8.11645e-21 9.94924 	0.0441347 	-1.73463e-21 9.93716 	0.0432284 	8.04776e-21 9.94682 	0.042872 	-5.95264e-21 9.94472 	0.0419684 	-2.66287e-20 9.94262 	0.0410647 	-4.73072e-20 9.94051 	0.0401609 	-6.79882e-20 9.92835 	0.0389693 	-9.74367e-20 9.93749 	0.0387329 	-1.39468e-19 9.93499 	0.0378635 	-1.25756e-19 9.93248 	0.0369938 	-1.12036e-19 9.92997 	0.0361239 	-9.83059e-20 9.91769 	0.0348107 	-3.30749e-20 9.92616 	0.0347004 	4.05893e-20 9.92323 	0.0339176 	5.56108e-20 9.92029 	0.0331346 	7.06212e-20 9.91735 	0.0323513 	8.56207e-20 9.90501 	0.031021 	4.07515e-20 9.91273 	0.0309351 	-5.57855e-20 9.90937 	0.0301853 	-6.25869e-20 9.906 	0.0294352 	-6.93713e-20 9.90263 	0.0286849 	-7.61388e-20 9.89032 	0.027377 	-3.61035e-22 9.89716 	0.0272491 	7.14359e-20 9.89334 	0.0265092 	6.10714e-20 9.88951 	0.025769 	5.069e-20 9.88568 	0.0250286 	4.02917e-20 9.87347 	0.0237805 	-3.10045e-20 9.87926 	0.0235909 	-9.42862e-20 9.87494 	0.0228596 	-1.18943e-19 9.87062 	0.022128 	-1.43594e-19 9.86629 	0.0213961 	-1.68238e-19 9.85427 	0.0202311 	-1.5014e-19 9.85878 	0.0199799 	-1.74565e-19 9.85395 	0.0192612 	-1.60777e-19 9.84912 	0.0185422 	-1.46985e-19 9.84428 	0.0178229 	-1.33187e-19 9.83263 	0.0167514 	-9.14338e-20 9.83559 	0.0164467 	-7.72414e-20 9.83026 	0.0157445 	-5.67261e-20 9.82491 	0.015042 	-3.62128e-20 9.81956 	0.0143391 	-1.57015e-20 9.80853 	0.0133596 	2.64418e-21 9.80964 	0.0129928 	0 9.80381 	0.0123003 	0 9.79797 	0.0116075 	0 9.79212 	0.0109144 	0 9.78201 	0.0100209 	0 9.78089 	0.00957602 	-1.77223e-20 9.77458 	0.00888844 	-3.87357e-20 9.76826 	0.00820051 	-5.97512e-20 9.76193 	0.00751224 	-8.07687e-20 9.75311 	0.00670884 	-1.02931e-19 9.74933 	0.00616759 	-1.09738e-19 9.74254 	0.00548492 	-1.1054e-19 9.73575 	0.00480186 	-1.11336e-19 9.72895 	0.00411843 	-1.12127e-19 9.72185 	0.00342141 	-1.12238e-19 9.72135 	0.00335903 	-1.07535e-19 9.72051 	0.00328036 	-1.03789e-19 9.71967 	0.00320169 	-1.00043e-19 9.71883 	0.00312302 	-9.62978e-20 9.718 	0.00304486 	-9.25771e-20 9.71153 	0.00244199 	-6.40134e-20 9.70505 	0.00183878 	-3.54585e-20 9.69856 	0.00123523 	-6.91239e-21 9.69207 	0.000631326 	2.16249e-20 9.67994 	-0.000224733 	5.65004e-20 9.67734 	-0.000677833 	5.75543e-20 9.66957 	-0.00135714 	5.87923e-20 9.6618 	-0.00203694 	6.00276e-20 9.65401 	-0.00271722 	6.12603e-20 9.63439 	-0.00390294 	6.43637e-20 9.63701 	-0.00413221 	5.08344e-20 9.62883 	-0.00480939 	3.73027e-20 9.62063 	-0.0054871 	2.37696e-20 9.61242 	-0.00616534 	1.02351e-20 9.58653 	-0.00755372 	-1.01658e-21 9.59406 	-0.00760664 	-9.66528e-21 9.58548 	-0.00828279 	-2.25861e-20 9.57689 	-0.00895951 	-3.55055e-20 9.56828 	-0.00963681 	-4.84235e-20 9.53665 	-0.0111729 	-6.13565e-20 9.54866 	-0.0111017 	-6.20828e-20 9.53972 	-0.0117784 	-7.02098e-20 9.53076 	-0.0124558 	-7.8333e-20 9.52179 	-0.0131338 	-8.64524e-20 9.48505 	-0.0147585 	-1.06212e-19 9.50102 	-0.0146172 	-1.61036e-19 9.49174 	-0.0152952 	-1.50484e-19 9.48244 	-0.0159739 	-1.39948e-19 9.47314 	-0.0166532 	-1.29427e-19 9.432 	-0.0183056 	-4.57404e-20 9.45134 	-0.0181458 	-2.96984e-20 9.44175 	-0.0188254 	-2.09284e-20 9.43215 	-0.0195057 	-1.21574e-20 9.42253 	-0.0201867 	-3.38548e-21 9.37775 	-0.0218099 	0 9.39987 	-0.0216832 	0 9.39 	-0.0223657 	0 9.38012 	-0.0230491 	0 9.37022 	-0.0237331 	0 9.32255 	-0.0252735 	0 9.34686 	-0.0252329 	2.11125e-21 9.33674 	-0.0259191 	1.02582e-20 9.32661 	-0.0266061 	1.84041e-20 9.31646 	-0.0272939 	2.65491e-20 9.26664 	-0.0286954 	4.59104e-20 9.29256 	-0.0287887 	1.71882e-19 9.28222 	-0.0294772 	1.7516e-19 9.27186 	-0.0301665 	1.78456e-19 9.26149 	-0.0308567 	1.8177e-19 9.21021 	-0.0320674 	4.61262e-20 9.23723 	-0.0323352 	2.50692e-20 9.22669 	-0.0330247 	1.7742e-20 9.21614 	-0.0337151 	1.04137e-20 9.20463 	-0.0344127 	3.60181e-21 9.15346 	-0.0353824 	1.88584e-20 9.17868 	-0.035872 	1.15757e-19 9.1704 	-0.0365483 	1.23634e-19 9.15967 	-0.0372389 	1.25078e-19 9.1441 	-0.0379321 	1.12181e-19 9.09657 	-0.0386374 	4.29757e-21 9.11847 	-0.0393453 	-1.10293e-19 9.11358 	-0.0400385 	-1.40399e-19 9.1027 	-0.040729 	-1.517e-19 9.08378 	-0.0413657 	-1.42189e-19 9.0397 	-0.0418319 	-6.75074e-20 9.05851 	-0.0427345 	-1.9727e-19 9.05644 	-0.043488 	-2.37991e-19 9.04544 	-0.0441781 	-2.40628e-19 9.02383 	-0.0447133 	-1.924e-19 8.98299 	-0.0449664 	-5.19026e-20 8.99895 	-0.0460402 	-2.7278e-20 8.99921 	-0.0468911 	-1.22781e-20 8.9881 	-0.0475807 	-4.24749e-21 8.9644 	-0.0479767 	0 8.92658 	-0.0480425 	0 8.93992 	-0.0492645 	0 8.94206 	-0.0502433 	0 8.93087 	-0.0509322 	0 8.90562 	-0.0511585 	2.1572e-21 8.87058 	-0.0510621 	5.81831e-21 8.88155 	-0.0524109 	2.33266e-21 8.88516 	-0.0535418 	0 8.87391 	-0.05423 	0 8.84759 	-0.0542632 	2.60178e-21 8.8151 	-0.0540282 	6.26779e-21 8.82393 	-0.0554829 	2.78192e-21 8.82867 	-0.0567839 	1.46405e-21 8.81738 	-0.0574722 	8.71937e-21 8.79038 	-0.0572967 	2.69536e-20 8.76024 	-0.0569472 	4.73967e-20 8.76714 	-0.0584919 	1.86439e-19 8.77271 	-0.0599782 	3.16016e-19 8.7614 	-0.0606674 	3.19989e-19 8.73409 	-0.0602714 	1.87022e-19 8.70608 	-0.0598271 	4.79958e-20 8.71124 	-0.0614432 	2.78616e-20 8.71636 	-0.063061 	7.72909e-21 8.70483 	-0.0637077 	2.99336e-22 8.67876 	-0.0631892 	3.81961e-21 8.65269 	-0.0626704 	7.33973e-21 8.65631 	-0.0643411 	4.00533e-21 8.65987 	-0.0660135 	6.71952e-22 8.64876 	-0.0666287 	2.39801e-21 8.62445 	-0.0660507 	-1.89727e-21 8.60015 	-0.0654724 	-6.1915e-21 8.6024 	-0.0671825 	-5.42843e-20 8.60459 	-0.0688944 	-1.02382e-19 8.59394 	-0.0694799 	-1.03928e-19 8.57121 	-0.068861 	-5.99543e-20 8.5485 	-0.0682416 	-1.5978e-20 8.54954 	-0.0699885 	9.35803e-20 8.55053 	-0.0717372 	2.03132e-19 8.54036 	-0.0722969 	2.12606e-19 8.51907 	-0.0716479 	1.21298e-19 8.49779 	-0.0709984 	2.99905e-20 8.49778 	-0.0727747 	1.73566e-20 8.49772 	-0.0745527 	4.71829e-21 8.48806 	-0.0750863 	2.53214e-22 8.46804 	-0.0744127 	5.40175e-21 8.44804 	-0.0737386 	1.05521e-20 8.44711 	-0.0755208 	4.33256e-21 8.44613 	-0.0773046 	-1.8932e-21 8.43699 	-0.0778122 	-2.25685e-20 8.41812 	-0.0771372 	-7.78389e-20 8.39927 	-0.0764616 	-1.33112e-19 8.39753 	-0.0782409 	-2.7757e-19 8.39573 	-0.0800218 	-4.22021e-19 8.38714 	-0.0805077 	-4.04703e-19 8.36931 	-0.0798468 	-2.39088e-19 8.35149 	-0.0791853 	-7.34733e-20 8.34904 	-0.0809564 	6.34963e-20 8.34628 	-0.0826729 	1.9458e-19 8.33782 	-0.0831138 	1.9182e-19 8.32158 	-0.0825598 	9.98497e-20 8.30471 	-0.0819224 	4.36835e-22 8.30162 	-0.0836827 	-9.81632e-20 8.29751 	-0.0851983 	-1.80115e-19 8.28919 	-0.0856512 	-1.90182e-19 8.27494 	-0.0852898 	-1.26746e-19 8.25891 	-0.0846824 	-4.11341e-20 8.25526 	-0.0864304 	-2.88274e-20 8.25005 	-0.0877485 	-1.66342e-20 8.24185 	-0.0882152 	-4.6602e-21 8.22934 	-0.0880469 	1.38556e-20 8.21408 	-0.0874738 	3.65417e-20 8.20993 	-0.0892094 	1.24042e-20 8.20386 	-0.0903357 	-3.09278e-21 8.19577 	-0.0908175 	-9.45434e-21 8.18476 	-0.0908411 	-5.52719e-21 8.17021 	-0.0903054 	1.09456e-20 8.16561 	-0.0920286 	-7.43927e-21 8.15885 	-0.0929699 	-1.85473e-20 8.15087 	-0.0934684 	-2.55358e-20 8.14117 	-0.0936812 	-3.73514e-20 8.12725 	-0.0931855 	-6.11182e-20 8.12226 	-0.0948974 	5.80138e-20 8.11498 	-0.095661 	8.45747e-20 8.1071 	-0.0961777 	8.69911e-20 8.09854 	-0.0965764 	7.66825e-20 8.0852 	-0.0961225 	-2.53098e-20 8.07984 	-0.0978242 	7.51434e-20 8.07219 	-0.0984182 	8.32045e-20 8.0644 	-0.0989544 	8.64079e-20 8.05658 	-0.0994909 	8.95987e-20 8.044 	-0.0991249 	1.00911e-20 8.03812 	-0.100693 	-6.44542e-22 8.03043 	-0.10125 	-4.44277e-22 8.02271 	-0.101807 	-2.44039e-22 8.01498 	-0.102365 	-4.38277e-23 8.00364 	-0.102201 	1.70329e-20 7.99725 	-0.103587 	0 7.98963 	-0.104166 	0 7.98199 	-0.104745 	0 7.97433 	-0.105325 	0 7.96409 	-0.105359 	1.33206e-20 7.95731 	-0.10657 	0 7.94975 	-0.107173 	0 7.94218 	-0.107775 	0 7.93457 	-0.108379 	0 7.92529 	-0.108606 	0 7.91823 	-0.109652 	0 7.91073 	-0.110279 	0 7.90321 	-0.110906 	0 7.89566 	-0.111534 	0 7.88721 	-0.111952 	-5.23148e-21 7.87996 	-0.112839 	0 7.87251 	-0.113492 	0 7.86503 	-0.114145 	0 7.85753 	-0.114799 	0 7.84979 	-0.115402 	-2.5908e-21 7.84743 	-0.115679 	0 7.84502 	-0.1159 	0 7.84262 	-0.116121 	0 7.84021 	-0.116342 	0 7.83784 	-0.116559 	0 7.83266 	-0.117021 	0 7.82747 	-0.117482 	0 7.82226 	-0.117944 	0 7.81705 	-0.118406 	0 7.81242 	-0.11875 	0 7.80461 	-0.119568 	-9.05419e-21 7.797 	-0.120278 	-1.94992e-20 7.78936 	-0.12099 	-2.99424e-20 7.78169 	-0.121701 	-4.03835e-20 7.77546 	-0.122126 	-5.08378e-20 7.76734 	-0.123126 	-4.65639e-20 7.75974 	-0.123867 	-4.578e-20 7.75212 	-0.124608 	-4.4992e-20 7.74446 	-0.125349 	-4.41999e-20 7.7391 	-0.125638 	-4.90654e-20 7.73067 	-0.126818 	-3.77021e-20 7.72309 	-0.127588 	-2.63116e-20 7.71547 	-0.128359 	-1.49189e-20 7.70782 	-0.129131 	-3.52407e-21 7.70331 	-0.129293 	0 7.69456 	-0.130647 	-1.29847e-21 7.68698 	-0.13145 	-6.43006e-21 7.67936 	-0.132253 	-1.15605e-20 7.67171 	-0.133057 	-1.66899e-20 7.66803 	-0.1331 	-2.1795e-20 7.65895 	-0.134627 	-5.83548e-20 7.65135 	-0.135464 	-7.96855e-20 7.64373 	-0.136302 	-1.01018e-19 7.63644 	-0.137069 	-1.1905e-19 7.6332 	-0.137072 	-1.01411e-19 7.62405 	-0.138644 	-7.42041e-20 7.61616 	-0.139642 	-5.93078e-20 7.60852 	-0.140516 	-4.70711e-20 7.6021 	-0.141156 	-4.5798e-20 7.59876 	-0.141216 	-7.17824e-20 7.58962 	-0.142809 	-8.66888e-20 7.58136 	-0.143994 	-8.08625e-20 7.57368 	-0.144905 	-6.1172e-20 7.56809 	-0.145425 	-3.36601e-20 7.56465 	-0.145541 	1.904e-21 7.5555 	-0.147156 	6.37505e-21 7.54687 	-0.148525 	7.14086e-21 7.53915 	-0.149474 	1.63687e-21 7.53437 	-0.149878 	0 7.53081 	-0.150052 	0 7.52165 	-0.151689 	0 7.51263 	-0.153238 	0 7.50487 	-0.154226 	0 7.50087 	-0.15452 	0 7.4972 	-0.15475 	0 7.48801 	-0.156411 	0 7.47876 	-0.158072 	0 7.47133 	-0.159064 	-1.68448e-20 7.46755 	-0.159353 	-3.56637e-20 7.46375 	-0.159641 	-5.44817e-20 7.45452 	-0.161326 	-3.38869e-20 7.44523 	-0.163011 	-1.32837e-20 7.43827 	-0.164036 	2.80874e-21 7.43435 	-0.164384 	7.12296e-21 7.43041 	-0.164731 	1.14369e-20 7.42114 	-0.166442 	4.58214e-20 7.41181 	-0.168153 	8.02036e-20 7.40528 	-0.169213 	8.7822e-20 7.40121 	-0.169619 	7.20136e-20 7.39712 	-0.170025 	5.62018e-20 7.3878 	-0.171764 	3.04639e-20 7.37841 	-0.173503 	4.71517e-21 7.3723 	-0.174599 	8.0613e-21 7.36807 	-0.175064 	1.79133e-20 7.36383 	-0.175528 	2.7767e-20 7.35444 	-0.177297 	9.45806e-20 7.3452 	-0.179029 	1.57502e-19 7.33945 	-0.180132 	1.54818e-19 7.33489 	-0.180723 	9.62282e-20 7.33047 	-0.181246 	3.024e-20 7.32101 	-0.183046 	2.13918e-20 7.31259 	-0.18465 	1.53754e-20 7.3067 	-0.185799 	1.59727e-20 7.3016 	-0.1866 	2.20717e-20 7.29701 	-0.187181 	3.16486e-20 7.28746 	-0.189013 	9.66002e-20 7.27984 	-0.190495 	1.24404e-19 7.27379 	-0.191689 	1.21621e-19 7.26816 	-0.192698 	9.83289e-20 7.26337 	-0.193338 	3.42418e-20 7.25373 	-0.195202 	2.57053e-20 7.24687 	-0.196565 	1.70193e-20 7.24067 	-0.197805 	8.29899e-21 7.23449 	-0.19902 	0 7.22949 	-0.199716 	0 7.21997 	-0.201575 	0 7.21364 	-0.202861 	0 7.20726 	-0.204147 	0 7.20084 	-0.205433 	0 7.19532 	-0.206317 	0 7.18659 	-0.208051 	0 7.18008 	-0.209383 	0 7.17352 	-0.210714 	0 7.16692 	-0.212046 	0 7.16081 	-0.213143 	7.35439e-21 7.15284 	-0.214753 	5.42196e-21 7.14613 	-0.216129 	1.44342e-20 7.13938 	-0.217505 	2.34495e-20 7.13258 	-0.218881 	3.24681e-20 7.12589 	-0.220188 	4.2076e-20 7.12261 	-0.220856 	5.38981e-20 7.1197 	-0.221456 	5.55214e-20 7.11679 	-0.222055 	5.71393e-20 7.11386 	-0.222655 	5.87518e-20 7.11101 	-0.223237 	6.03126e-20 7.10685 	-0.224059 	6.30688e-20 7.10268 	-0.224881 	6.58167e-20 7.09848 	-0.225703 	6.85566e-20 7.09427 	-0.226525 	7.12882e-20 7.09079 	-0.227262 	8.09682e-20 7.08309 	-0.228809 	6.19806e-20 7.07576 	-0.23027 	4.97182e-20 7.06837 	-0.23173 	3.74312e-20 7.06093 	-0.233191 	2.51193e-20 7.05549 	-0.234421 	3.59011e-20 7.04684 	-0.236161 	3.24313e-20 7.03927 	-0.237665 	3.08899e-20 7.03165 	-0.239169 	2.93412e-20 7.02397 	-0.240673 	2.77852e-20 7.01962 	-0.241803 	3.66072e-20 7.00998 	-0.243735 	2.55927e-20 7.00218 	-0.245282 	2.44594e-20 6.99431 	-0.246829 	2.33188e-20 6.98682 	-0.248329 	2.38585e-20 6.98314 	-0.249406 	3.96316e-20 6.97303 	-0.251418 	5.47204e-20 6.96442 	-0.253116 	5.39018e-20 6.9563 	-0.254703 	4.74848e-20 6.94993 	-0.256094 	3.24053e-20 6.94597 	-0.257217 	5.51895e-21 6.93562 	-0.259261 	2.0433e-21 6.92595 	-0.261154 	-1.38766e-22 6.91756 	-0.262779 	-2.73316e-23 6.91232 	-0.264058 	0 6.90808 	-0.265226 	0 6.89746 	-0.2673 	0 6.88677 	-0.269375 	0 6.87843 	-0.271005 	-1.28294e-20 6.87393 	-0.272213 	-2.26355e-20 6.86938 	-0.273422 	-3.24361e-20 6.85849 	-0.275524 	-1.99323e-20 6.84752 	-0.277626 	-7.41658e-21 6.83951 	-0.279301 	3.17389e-21 6.83469 	-0.280547 	1.0483e-20 6.82983 	-0.281793 	1.77959e-20 6.81866 	-0.283921 	1.1666e-20 6.8074 	-0.28605 	5.54132e-21 6.7997 	-0.28777 	7.97314e-21 6.79456 	-0.289055 	2.89163e-20 6.78938 	-0.29034 	4.98594e-20 6.7779 	-0.292496 	2.77643e-20 6.76702 	-0.29458 	7.67921e-21 6.75953 	-0.296306 	-2.23959e-21 6.75348 	-0.297743 	-7.40695e-21 6.74796 	-0.299065 	-1.07076e-20 6.73617 	-0.301249 	-6.17185e-20 6.72653 	-0.303201 	-8.8943e-20 6.71872 	-0.304955 	-9.5938e-20 6.71141 	-0.3066 	-9.01058e-20 6.70555 	-0.307953 	-5.01906e-20 6.69344 	-0.310157 	-9.09711e-20 6.68505 	-0.311966 	-8.85265e-20 6.6769 	-0.313743 	-8.25391e-20 6.66869 	-0.315519 	-7.65347e-20 6.66209 	-0.31697 	-4.09869e-20 6.65095 	-0.319053 	-6.69911e-20 6.64252 	-0.320846 	-5.7183e-20 6.63403 	-0.322638 	-4.73524e-20 6.62548 	-0.324431 	-3.74994e-20 6.61754 	-0.326088 	-1.48431e-20 6.61038 	-0.327455 	-1.29205e-20 6.60432 	-0.328702 	-1.09182e-20 6.59823 	-0.32995 	-8.91677e-21 6.59212 	-0.331197 	-6.91633e-21 6.58627 	-0.332383 	-5.01407e-21 6.5833 	-0.332952 	-3.91547e-21 6.58032 	-0.333521 	-2.81667e-21 6.57734 	-0.334089 	-1.71767e-21 6.57436 	-0.334658 	-6.18461e-22 6.57171 	-0.335178 	0 6.562 	-0.337047 	0 6.55237 	-0.338858 	0 6.54267 	-0.340669 	0 6.5329 	-0.34248 	0 6.52452 	-0.344087 	0 6.51393 	-0.346144 	-7.32635e-22 6.50389 	-0.34796 	-3.25821e-21 6.49378 	-0.349775 	-5.7818e-21 6.4837 	-0.351576 	-8.29748e-21 6.47598 	-0.353041 	-1.06661e-20 6.46471 	-0.355194 	1.48213e-20 6.45401 	-0.357101 	2.39663e-20 6.44349 	-0.358916 	2.69255e-20 6.43419 	-0.360553 	1.28388e-20 6.42606 	-0.362019 	-1.78763e-20 6.41437 	-0.364163 	-1.02177e-20 6.40271 	-0.366261 	-2.53722e-21 6.39177 	-0.368069 	5.29125e-21 6.38326 	-0.369536 	9.81783e-21 6.37474 	-0.370998 	1.42931e-20 6.3626 	-0.37313 	8.63868e-21 6.35039 	-0.375261 	2.97974e-21 6.33979 	-0.377054 	6.42535e-21 6.33092 	-0.37851 	1.92035e-20 6.32198 	-0.379966 	3.1983e-20 6.3094 	-0.382083 	3.89761e-20 6.29674 	-0.3842 	4.59666e-20 6.28652 	-0.385983 	3.45164e-20 6.27712 	-0.387466 	1.46121e-20 6.26777 	-0.388913 	-6.25678e-21 6.25475 	-0.391015 	1.16399e-20 6.24292 	-0.392948 	1.89115e-20 6.23232 	-0.394709 	1.54287e-20 6.22188 	-0.396393 	6.38311e-21 6.21211 	-0.397828 	-2.03815e-20 6.1987 	-0.399901 	-1.37752e-20 6.18774 	-0.40164 	-4.89282e-21 6.17671 	-0.403378 	3.98918e-21 6.16561 	-0.405116 	1.28708e-20 6.15498 	-0.406672 	1.72028e-20 6.14485 	-0.40818 	1.82732e-20 6.1358 	-0.409537 	1.91457e-20 6.12671 	-0.410894 	2.00224e-20 6.11757 	-0.412251 	2.09034e-20 6.10886 	-0.413537 	2.17431e-20 6.10649 	-0.413902 	2.24165e-20 6.10412 	-0.414266 	2.30907e-20 6.10175 	-0.414631 	2.37658e-20 6.09937 	-0.414995 	2.44418e-20 6.09702 	-0.415319 	2.12371e-20 6.08587 	-0.417043 	1.6338e-20 6.07452 	-0.418716 	1.14534e-20 6.06311 	-0.420389 	6.5657e-21 6.05163 	-0.422062 	1.67484e-21 6.04024 	-0.423501 	-5.72508e-21 6.02923 	-0.425413 	0 6.01746 	-0.427039 	0 6.00562 	-0.428663 	0 5.99377 	-0.430212 	-1.87737e-21 5.98204 	-0.431479 	-1.06812e-20 5.97073 	-0.433389 	-3.86568e-21 5.959 	-0.435153 	1.35651e-21 5.94673 	-0.436724 	4.4918e-21 5.93459 	-0.438014 	1.39872e-20 5.92245 	-0.439226 	2.52737e-20 5.91071 	-0.441074 	4.39677e-20 5.89889 	-0.442922 	6.26642e-20 5.88655 	-0.444412 	6.38715e-20 5.87405 	-0.445562 	4.80119e-20 5.86149 	-0.446713 	3.21511e-20 5.84933 	-0.448494 	3.40654e-20 5.83709 	-0.450275 	3.59843e-20 5.82503 	-0.451711 	2.86472e-20 5.8122 	-0.452829 	1.45651e-20 5.79922 	-0.453914 	-2.01304e-22 5.78665 	-0.455623 	-2.38956e-20 5.77414 	-0.457129 	-3.69049e-20 5.76169 	-0.458475 	-4.14675e-20 5.74909 	-0.459787 	-4.37069e-20 5.73571 	-0.460802 	-2.45341e-20 5.72277 	-0.462372 	-6.85174e-22 5.70999 	-0.463639 	-6.12738e-21 5.69713 	-0