/*--------------------------------*- C++ -*----------------------------------*\
  =========                 |
  \\      /  F ield         | OpenFOAM: The Open Source CFD Toolbox
   \\    /   O peration     | Website:  https://openfoam.org
    \\  /    A nd           | Version:  9
     \\/     M anipulation  |
\*---------------------------------------------------------------------------*/
FoamFile
{
    format      ascii;
    class       surfaceScalarField;
    location    "7.37";
    object      phi;
}
// * * * * * * * * * * * * * * * * * * * * * * * * * * * * * * * * * * * * * //

dimensions      [0 3 -1 0 0 0 0];

internalField   nonuniform List<scalar> 
4432
(
1.1488e-07
-1.1488e-07
2.54034e-07
-1.39154e-07
3.95153e-07
-1.41121e-07
5.29858e-07
-1.34705e-07
6.57711e-07
-1.27856e-07
7.80056e-07
-1.22345e-07
8.97124e-07
-1.1707e-07
1.00773e-06
-1.10607e-07
1.10858e-06
-1.00855e-07
1.19799e-06
-8.9413e-08
1.27872e-06
-8.07319e-08
1.36113e-06
-8.24038e-08
1.46141e-06
-1.00283e-07
1.59142e-06
-1.30015e-07
1.73714e-06
-1.45711e-07
1.82413e-06
-8.6996e-08
1.68275e-06
1.41379e-07
1.19836e-06
4.84394e-07
4.25173e-07
7.73187e-07
-4.69534e-07
8.94708e-07
-9.08896e-07
4.39365e-07
-6.63603e-07
-2.45289e-07
-6.63597e-07
1.25723e-07
-2.40604e-07
2.62962e-07
-2.76392e-07
4.02596e-07
-2.80758e-07
5.39075e-07
-2.71183e-07
6.70403e-07
-2.59188e-07
7.95975e-07
-2.47918e-07
9.14771e-07
-2.3587e-07
1.02415e-06
-2.19988e-07
1.12084e-06
-1.97551e-07
1.20276e-06
-1.71331e-07
1.27167e-06
-1.49643e-07
1.33429e-06
-1.45021e-07
1.39992e-06
-1.65912e-07
1.4732e-06
-2.03295e-07
1.54207e-06
-2.14579e-07
1.55852e-06
-1.03445e-07
1.42001e-06
2.79885e-07
1.0355e-06
8.68904e-07
4.98463e-07
1.31023e-06
-5.92279e-08
1.4524e-06
-4.66042e-07
8.46187e-07
-5.34167e-07
-1.77159e-07
-1.19776e-06
1.3556e-07
-3.76166e-07
2.73457e-07
-4.14287e-07
4.11496e-07
-4.18799e-07
5.47755e-07
-4.07441e-07
6.79798e-07
-3.91234e-07
8.06048e-07
-3.74168e-07
9.24474e-07
-3.54296e-07
1.03179e-06
-3.27305e-07
1.12412e-06
-2.8988e-07
1.19878e-06
-2.45994e-07
1.2562e-06
-2.07055e-07
1.30043e-06
-1.89252e-07
1.33727e-06
-2.02745e-07
1.36931e-06
-2.35334e-07
1.38936e-06
-2.34633e-07
1.36756e-06
-8.16481e-08
1.22989e-06
4.17562e-07
9.15862e-07
1.18293e-06
5.42459e-07
1.68363e-06
1.98846e-07
1.79602e-06
-1.69229e-07
1.21427e-06
-3.43513e-07
-2.87409e-09
-1.54128e-06
1.4228e-07
-5.18447e-07
2.83276e-07
-5.5528e-07
4.22091e-07
-5.57616e-07
5.58964e-07
-5.44312e-07
6.9183e-07
-5.241e-07
8.18568e-07
-5.00904e-07
9.36472e-07
-4.72198e-07
1.04176e-06
-4.32587e-07
1.1299e-06
-3.78023e-07
1.19743e-06
-3.13519e-07
1.24339e-06
-2.53008e-07
1.26984e-06
-2.15698e-07
1.2805e-06
-2.13409e-07
1.2776e-06
-2.32425e-07
1.25965e-06
-2.16684e-07
1.21822e-06
-4.02291e-08
1.10118e-06
5.34601e-07
8.50915e-07
1.43319e-06
5.85617e-07
1.94892e-06
3.58681e-07
2.02295e-06
4.85389e-08
1.52441e-06
-1.37429e-07
1.8309e-07
-1.67871e-06
1.47319e-07
-6.65767e-07
2.92481e-07
-7.00438e-07
4.33822e-07
-6.98959e-07
5.72343e-07
-6.8283e-07
7.06451e-07
-6.58207e-07
8.33713e-07
-6.28163e-07
9.5098e-07
-5.89461e-07
1.05413e-06
-5.35737e-07
1.13806e-06
-4.61948e-07
1.19846e-06
-3.73913e-07
1.23308e-06
-2.87619e-07
1.24237e-06
-2.2499e-07
1.22871e-06
-1.9974e-07
1.19415e-06
-1.97868e-07
1.14176e-06
-1.64293e-07
1.08031e-06
2.12142e-08
1.00053e-06
6.14375e-07
8.03785e-07
1.62993e-06
6.21033e-07
2.13167e-06
4.66885e-07
2.17709e-06
2.16811e-07
1.77448e-06
7.24051e-08
3.27489e-07
-1.60631e-06
1.52119e-07
-8.17887e-07
3.01848e-07
-8.50163e-07
4.46597e-07
-8.43708e-07
5.87426e-07
-8.23656e-07
7.23025e-07
-7.93804e-07
8.5066e-07
-7.55796e-07
9.66899e-07
-7.05696e-07
1.06753e-06
-6.36362e-07
1.14701e-06
-5.41421e-07
1.20034e-06
-4.27242e-07
1.22412e-06
-3.11397e-07
1.21749e-06
-2.18355e-07
1.18173e-06
-1.63981e-07
1.11831e-06
-1.3445e-07
1.03214e-06
-7.81218e-08
9.40729e-07
1.12624e-07
8.86088e-07
6.69012e-07
7.68057e-07
1.74796e-06
6.49975e-07
2.24975e-06
5.38249e-07
2.28882e-06
3.745e-07
1.93822e-06
2.85886e-07
4.16094e-07
-1.32043e-06
1.57384e-07
-9.75271e-07
3.11898e-07
-1.00467e-06
4.6019e-07
-9.92002e-07
6.03502e-07
-9.66965e-07
7.40492e-07
-9.30794e-07
8.67998e-07
-8.83301e-07
9.82399e-07
-8.20097e-07
1.07969e-06
-7.3365e-07
1.15423e-06
-6.15959e-07
1.20062e-06
-4.73638e-07
1.21455e-06
-3.25318e-07
1.19404e-06
-1.97848e-07
1.13942e-06
-1.09367e-07
1.05112e-06
-4.61428e-08
9.3351e-07
3.9485e-08
8.05822e-07
2.40311e-07
7.31903e-07
7.42929e-07
7.1659e-07
1.76327e-06
6.62287e-07
2.30405e-06
5.9502e-07
2.35608e-06
5.72407e-07
1.96083e-06
4.78917e-07
5.09579e-07
-8.41511e-07
1.63464e-07
-1.13874e-06
3.22239e-07
-1.16345e-06
4.73921e-07
-1.14368e-06
6.19462e-07
-1.11251e-06
7.57377e-07
-1.06871e-06
8.8385e-07
-1.00978e-06
9.95105e-07
-9.31356e-07
1.08774e-06
-8.26293e-07
1.15653e-06
-6.84752e-07
1.19617e-06
-5.13275e-07
1.20166e-06
-3.30815e-07
1.17024e-06
-1.66425e-07
1.10129e-06
-4.04212e-08
9.94301e-07
6.08423e-08
8.52797e-07
1.80989e-07
6.96925e-07
3.96184e-07
5.8341e-07
8.56445e-07
6.24156e-07
1.72253e-06
6.45e-07
2.28321e-06
6.55954e-07
2.34513e-06
7.26536e-07
1.89025e-06
5.42334e-07
6.93781e-07
-2.99171e-07
-1.41181e-06
1.41181e-06
-9.81384e-07
-4.30419e-07
-4.77091e-07
-5.04296e-07
-1.60447e-07
-3.16641e-07
7.0044e-08
-2.30488e-07
2.10799e-07
-1.40754e-07
3.69685e-07
-1.58886e-07
6.29099e-07
-2.59414e-07
8.84005e-07
-2.54909e-07
7.58647e-07
1.25358e-07
1.76967e-07
5.81682e-07
-6.49087e-07
8.26054e-07
-1.66507e-06
1.01598e-06
-2.19076e-06
5.25689e-07
-1.9772e-06
-2.13553e-07
-1.30431e-06
-6.7289e-07
-7.32147e-07
-5.72167e-07
-2.86456e-08
-7.03502e-07
-2.86454e-08
-8.54607e-07
2.26641e-06
-6.13618e-07
-6.71399e-07
-4.27661e-07
-6.90253e-07
-3.08533e-07
-4.35767e-07
-2.33441e-07
-3.05579e-07
-1.46418e-07
-2.27776e-07
-1.71875e-08
-2.88121e-07
1.5809e-07
-4.34691e-07
2.68028e-07
-3.64848e-07
1.07918e-07
2.85469e-07
-3.06406e-07
9.96006e-07
-8.23672e-07
1.34332e-06
-1.35268e-06
1.54499e-06
-1.73175e-06
9.04761e-07
-1.69164e-06
-2.53668e-07
-1.33959e-06
-1.02493e-06
-1.00175e-06
-9.10014e-07
-4.28444e-07
-1.27681e-06
-4.57088e-07
-3.0997e-07
2.57638e-06
-3.51763e-07
-6.29603e-07
-4.01531e-07
-6.40485e-07
-4.21721e-07
-4.15579e-07
-4.28141e-07
-2.99162e-07
-4.00683e-07
-2.55233e-07
-3.26769e-07
-3.6204e-07
-2.14158e-07
-5.47304e-07
-1.60548e-07
-4.18459e-07
-3.32291e-07
4.57211e-07
-6.32929e-07
1.29665e-06
-9.22287e-07
1.63268e-06
-1.16808e-06
1.79079e-06
-1.42942e-06
1.16611e-06
-1.45508e-06
-2.28008e-07
-1.26568e-06
-1.21433e-06
-1.16799e-06
-1.00771e-06
-8.14132e-07
-1.63066e-06
-1.27122e-06
9.94188e-08
2.47696e-06
-2.01053e-07
-3.29133e-07
-4.22061e-07
-4.1948e-07
-5.42838e-07
-2.94807e-07
-6.12121e-07
-2.29884e-07
-6.39111e-07
-2.28244e-07
-6.20034e-07
-3.81122e-07
-5.57328e-07
-6.10012e-07
-5.15615e-07
-4.60173e-07
-6.53681e-07
5.95276e-07
-8.66871e-07
1.50984e-06
-1.01622e-06
1.78203e-06
-1.11694e-06
1.89151e-06
-1.26869e-06
1.31786e-06
-1.24856e-06
-2.48134e-07
-1.12598e-06
-1.33691e-06
-1.21611e-06
-9.17572e-07
-1.01973e-06
-1.82704e-06
-2.29094e-06
2.6495e-07
2.21201e-06
-1.83955e-07
1.19765e-07
-5.01066e-07
-1.02374e-07
-6.85959e-07
-1.09921e-07
-8.0283e-07
-1.13021e-07
-8.78197e-07
-1.52879e-07
-9.10677e-07
-3.48646e-07
-8.90647e-07
-6.30045e-07
-8.45009e-07
-5.05813e-07
-9.19281e-07
6.69547e-07
-1.05746e-06
1.64801e-06
-1.10157e-06
1.82614e-06
-1.10589e-06
1.89584e-06
-1.18157e-06
1.39354e-06
-1.04386e-06
-3.85836e-07
-9.18267e-07
-1.4625e-06
-1.07518e-06
-7.60658e-07
-9.46875e-07
-1.95534e-06
-3.23782e-06
1.68864e-07
2.04314e-06
-2.92759e-07
5.81376e-07
-6.35746e-07
2.40608e-07
-8.52177e-07
1.06502e-07
-1.00113e-06
3.59291e-08
-1.11676e-06
-3.72522e-08
-1.19826e-06
-2.67149e-07
-1.22199e-06
-6.06316e-07
-1.16652e-06
-5.6129e-07
-1.15499e-06
6.58022e-07
-1.22022e-06
1.71324e-06
-1.1777e-06
1.78363e-06
-1.0937e-06
1.81184e-06
-1.08911e-06
1.38896e-06
-8.38179e-07
-6.36762e-07
-6.61482e-07
-1.63919e-06
-7.43663e-07
-6.78472e-07
-7.00796e-07
-1.9982e-06
-3.93861e-06
-5.42604e-08
2.09739e-06
-4.88861e-07
1.01596e-06
-8.1203e-07
5.63774e-07
-1.03538e-06
3.29852e-07
-1.20252e-06
2.03065e-07
-1.34851e-06
1.08738e-07
-1.4747e-06
-1.40966e-07
-1.5492e-06
-5.3181e-07
-1.50045e-06
-6.10043e-07
-1.38986e-06
5.47435e-07
-1.33463e-06
1.658e-06
-1.23779e-06
1.68679e-06
-1.10398e-06
1.67803e-06
-9.11619e-07
1.1966e-06
-6.05829e-07
-9.4255e-07
-4.29099e-07
-1.81592e-06
-3.60288e-07
-7.47281e-07
-3.48886e-07
-2.0096e-06
-4.28749e-06
-3.88298e-07
2.48569e-06
-7.33235e-07
1.3609e-06
-1.01109e-06
8.41628e-07
-1.22702e-06
5.4578e-07
-1.40044e-06
3.76486e-07
-1.56531e-06
2.73616e-07
-1.72594e-06
1.96615e-08
-1.84935e-06
-4.08396e-07
-1.85489e-06
-6.04502e-07
-1.62575e-06
3.183e-07
-1.43563e-06
1.46788e-06
-1.26385e-06
1.51501e-06
-1.067e-06
1.48119e-06
-6.3895e-07
7.68544e-07
-3.58659e-07
-1.22284e-06
-2.35448e-07
-1.93913e-06
-2.91433e-08
-9.53587e-07
4.38028e-08
-2.08255e-06
-4.24369e-06
3.61739e-07
-1.50047e-06
7.15265e-07
-1.51698e-06
1.04971e-06
-1.47813e-06
1.36539e-06
-1.42819e-06
1.65952e-06
-1.36284e-06
1.92068e-06
-1.27093e-06
2.14026e-06
-1.15093e-06
2.31596e-06
-1.002e-06
2.43896e-06
-8.07739e-07
2.50178e-06
-5.76096e-07
2.49209e-06
-3.21126e-07
2.40018e-06
-7.45103e-08
2.22601e-06
1.33755e-07
1.96376e-06
3.23091e-07
1.62066e-06
5.24087e-07
1.24235e-06
7.74497e-07
9.66039e-07
1.13275e-06
1.04479e-06
1.64378e-06
1.24944e-06
2.07856e-06
1.43262e-06
2.16193e-06
1.4657e-06
1.85716e-06
7.77076e-07
1.3824e-06
1.12134e-06
-6.43438e-07
3.51047e-07
-1.85152e-06
7.31797e-07
-1.89773e-06
1.08734e-06
-1.83368e-06
1.40259e-06
-1.74344e-06
1.6879e-06
-1.64814e-06
1.92927e-06
-1.5123e-06
2.10427e-06
-1.32593e-06
2.21719e-06
-1.11491e-06
2.28416e-06
-8.74714e-07
2.31382e-06
-6.05755e-07
2.30296e-06
-3.10267e-07
2.2376e-06
-9.1532e-09
2.09148e-06
2.79881e-07
1.85724e-06
5.57332e-07
1.54615e-06
8.35176e-07
1.20226e-06
1.11838e-06
9.26014e-07
1.409e-06
8.69237e-07
1.70056e-06
1.01113e-06
1.93666e-06
1.09156e-06
2.08151e-06
8.33866e-07
2.11486e-06
1.33789e-07
2.08248e-06
2.08332e-06
-8.2819e-07
3.77607e-07
-2.22912e-06
5.93559e-07
-2.11366e-06
8.88833e-07
-2.12893e-06
1.2228e-06
-2.07738e-06
1.48187e-06
-1.90718e-06
1.6595e-06
-1.68989e-06
1.80291e-06
-1.46931e-06
1.88842e-06
-1.20039e-06
1.9193e-06
-9.0557e-07
1.92651e-06
-6.12952e-07
1.93864e-06
-3.22383e-07
1.93826e-06
-8.77226e-09
1.86055e-06
3.57595e-07
1.68117e-06
7.36702e-07
1.42097e-06
1.09536e-06
1.13513e-06
1.40421e-06
8.96793e-07
1.64731e-06
7.59075e-07
1.83824e-06
8.13605e-07
1.88209e-06
7.77039e-07
2.11803e-06
3.81718e-07
2.51014e-06
-2.33797e-07
2.69797e-06
2.76261e-06
-9.13112e-07
7.86111e-07
-3.01522e-06
2.68415e-07
-1.59599e-06
7.12702e-08
-1.93178e-06
8.42679e-07
-2.84892e-06
9.98089e-07
-2.06273e-06
6.51262e-07
-1.3432e-06
9.77901e-07
-1.79607e-06
1.40588e-06
-1.62847e-06
1.51981e-06
-1.01959e-06
1.52126e-06
-6.14463e-07
1.52462e-06
-3.25771e-07
1.57751e-06
-6.16693e-08
1.59302e-06
3.4211e-07
1.47903e-06
8.50739e-07
1.21589e-06
1.35857e-06
1.09451e-06
1.52568e-06
1.18228e-06
1.55964e-06
1.21113e-06
1.80949e-06
7.40593e-07
2.35275e-06
4.32656e-07
2.4261e-06
3.28538e-07
2.61437e-06
1.86413e-08
3.00799e-06
3.54379e-06
-7.62423e-07
-2.14535e-06
-8.69868e-07
-2.8076e-06
-9.33719e-07
-3.99426e-06
-7.44955e-07
-4.01955e-06
-2.82343e-06
-4.76289e-06
-1.31918e-06
-5.46883e-06
-6.37086e-07
-4.5348e-06
-2.72994e-06
-2.93134e-06
-3.2318e-06
-1.95628e-06
-1.99456e-06
-1.32894e-06
-1.24174e-06
-6.65629e-07
-9.89061e-07
-1.85261e-08
-7.08785e-07
6.38643e-07
-3.15109e-07
1.2635e-06
2.25794e-07
1.73312e-06
8.88835e-07
2.09642e-06
1.16224e-06
2.19325e-06
1.46267e-06
2.0643e-06
1.93828e-06
5.95656e-07
3.82122e-06
-7.21096e-07
3.74267e-06
-7.74694e-07
2.66775e-06
-8.70428e-07
3.10357e-06
4.35173e-06
-1.67818e-06
-5.98405e-08
-8.10089e-07
9.9523e-07
-1.98868e-06
1.46161e-06
-1.2115e-06
-1.25058e-06
-1.11333e-07
-2.4224e-06
-1.47422e-07
-1.88642e-06
-1.17313e-06
-2.60319e-06
-2.01323e-06
-3.1523e-06
-2.68273e-06
-2.98205e-06
-2.16485e-06
-2.67606e-06
-1.54775e-06
-2.61998e-06
-1.04515e-06
-2.723e-06
-6.0574e-07
-2.90504e-06
-1.33028e-07
-2.51626e-06
-1.62919e-07
-1.73824e-06
1.10897e-07
-1.5131e-06
9.37191e-07
-2.06328e-06
2.01296e-06
-2.63674e-06
2.51187e-06
-2.46912e-06
3.65374e-06
-2.93806e-06
4.2117e-06
-3.81411e-06
3.54375e-06
-4.10386e-06
3.39295e-06
3.66326e-06
-3.4161e-06
-6.58815e-07
-1.51417e-07
-1.45627e-06
-1.19117e-06
-1.47251e-06
-1.19531e-06
-1.87877e-06
2.94907e-07
-1.95833e-06
-6.78259e-08
-2.26104e-06
-8.70348e-07
-2.75174e-06
-1.52246e-06
-3.54163e-06
-1.89276e-06
-4.04499e-06
-1.66142e-06
-4.36422e-06
-1.22844e-06
-4.68991e-06
-7.19379e-07
-5.10647e-06
-1.89099e-07
-5.3438e-06
1.04371e-07
-4.99649e-06
-5.10163e-07
-4.34989e-06
-5.35642e-07
-3.74077e-06
3.28159e-07
-3.52274e-06
1.79504e-06
-3.74507e-06
2.73434e-06
-3.67633e-06
3.5852e-06
-3.79742e-06
4.33316e-06
-4.55339e-06
4.30038e-06
-4.45949e-06
3.29973e-06
2.8033e-06
-3.59887e-06
-7.08571e-07
5.57381e-07
-1.54749e-06
-3.52164e-07
-2.28306e-06
-4.59587e-07
-2.18282e-06
1.94816e-07
-2.25693e-06
6.41833e-09
-2.58323e-06
-5.43943e-07
-3.14024e-06
-9.65395e-07
-3.86374e-06
-1.16924e-06
-4.47935e-06
-1.04581e-06
-4.92586e-06
-7.81957e-07
-5.28373e-06
-3.61571e-07
-5.55889e-06
8.59661e-08
-5.59557e-06
1.40932e-07
-5.48184e-06
-6.24046e-07
-5.40669e-06
-6.10984e-07
-5.23719e-06
1.58446e-07
-4.86426e-06
1.42188e-06
-4.52283e-06
2.39263e-06
-4.27714e-06
3.33913e-06
-4.02591e-06
4.08145e-06
-3.73524e-06
4.00938e-06
-3.74432e-06
3.30858e-06
2.75091e-06
-3.6921e-06
-2.65009e-07
8.22487e-07
-9.73574e-07
3.56419e-07
-1.7014e-06
2.68346e-07
-1.94047e-06
4.33994e-07
-2.19869e-06
2.64724e-07
-2.63282e-06
-1.0975e-07
-3.17996e-06
-4.18218e-07
-3.8065e-06
-5.42677e-07
-4.35233e-06
-4.99965e-07
-4.75175e-06
-3.82527e-07
-5.012e-06
-1.01324e-07
-5.11171e-06
1.85652e-07
-5.10429e-06
1.33488e-07
-5.40378e-06
-3.24599e-07
-5.69081e-06
-3.24017e-07
-5.80324e-06
2.7082e-07
-5.51963e-06
1.13822e-06
-5.10961e-06
1.98255e-06
-4.70671e-06
2.93609e-06
-4.17125e-06
3.54569e-06
-3.74681e-06
3.58461e-06
-3.58349e-06
3.14493e-06
2.6523e-06
-3.48516e-06
-2.76802e-07
1.09922e-06
-7.95904e-07
8.7556e-07
-1.31065e-06
7.83161e-07
-1.64325e-06
7.66656e-07
-1.98648e-06
6.08003e-07
-2.43599e-06
3.39798e-07
-2.95129e-06
9.71157e-08
-3.4742e-06
-1.97328e-08
-3.92063e-06
-5.34712e-08
-4.26905e-06
-3.40303e-08
-4.50249e-06
1.32198e-07
-4.61904e-06
3.02298e-07
-4.73952e-06
2.54053e-07
-5.08824e-06
2.42089e-08
-5.45931e-06
4.71332e-08
-5.60381e-06
4.1542e-07
-5.46946e-06
1.00403e-06
-5.18326e-06
1.69657e-06
-4.7059e-06
2.45896e-06
-4.16113e-06
3.00111e-06
-3.69939e-06
3.12301e-06
-3.43231e-06
2.87793e-06
2.48317e-06
-3.26312e-06
-2.33171e-07
1.33235e-06
-6.20317e-07
1.26283e-06
-1.02589e-06
1.18882e-06
-1.37444e-06
1.11527e-06
-1.73247e-06
9.66069e-07
-2.14608e-06
7.53436e-07
-2.59589e-06
5.4695e-07
-3.0182e-06
4.02604e-07
-3.38858e-06
3.16948e-07
-3.71243e-06
2.89876e-07
-3.96915e-06
3.88992e-07
-4.15023e-06
4.83445e-07
-4.34431e-06
4.48183e-07
-4.6635e-06
3.43428e-07
-4.98659e-06
3.70219e-07
-5.14408e-06
5.72889e-07
-5.06216e-06
9.22089e-07
-4.8043e-06
1.43875e-06
-4.40597e-06
2.0607e-06
-3.93539e-06
2.53061e-06
-3.50046e-06
2.68813e-06
-3.1781e-06
2.55558e-06
2.23974e-06
-2.93472e-06
-2.25745e-07
1.55816e-06
-5.29382e-07
1.56667e-06
-8.52485e-07
1.51205e-06
-1.16706e-06
1.42994e-06
-1.49463e-06
1.29371e-06
-1.85248e-06
1.11134e-06
-2.22033e-06
9.14836e-07
-2.56051e-06
7.42808e-07
-2.88013e-06
6.36597e-07
-3.19485e-06
6.04622e-07
-3.46206e-06
6.56231e-07
-3.66739e-06
6.88781e-07
-3.88126e-06
6.62049e-07
-4.1488e-06
6.10915e-07
-4.40666e-06
6.27982e-07
-4.54693e-06
7.12998e-07
-4.51566e-06
8.90611e-07
-4.32351e-06
1.24639e-06
-3.98619e-06
1.72316e-06
-3.59495e-06
2.13916e-06
-3.19784e-06
2.29079e-06
-2.84348e-06
2.20098e-06
1.92478e-06
-2.52881e-06
-2.11485e-07
1.7698e-06
-4.64005e-07
1.81941e-06
-7.30786e-07
1.77898e-06
-1.00026e-06
1.69953e-06
-1.28103e-06
1.57458e-06
-1.57958e-06
1.40997e-06
-1.87893e-06
1.21425e-06
-2.16542e-06
1.02935e-06
-2.45337e-06
9.2457e-07
-2.74681e-06
8.98085e-07
-2.99105e-06
9.00477e-07
-3.19503e-06
8.92749e-07
-3.39248e-06
8.59477e-07
-3.60221e-06
8.2061e-07
-3.79018e-06
8.15872e-07
-3.9156e-06
8.38287e-07
-3.94178e-06
9.16592e-07
-3.8235e-06
1.12787e-06
-3.56658e-06
1.46598e-06
-3.23655e-06
1.80885e-06
-2.87094e-06
1.92491e-06
-2.51089e-06
1.84065e-06
1.58293e-06
-2.16935e-06
-1.91153e-07
1.9611e-06
-4.05024e-07
2.03343e-06
-6.30235e-07
2.0043e-06
-8.5799e-07
1.92738e-06
-1.0929e-06
1.80957e-06
-1.33865e-06
1.65581e-06
-1.59038e-06
1.46604e-06
-1.84974e-06
1.28877e-06
-2.11337e-06
1.18824e-06
-2.364e-06
1.14872e-06
-2.57714e-06
1.11362e-06
-2.76003e-06
1.07563e-06
-2.9282e-06
1.02763e-06
-3.08804e-06
9.80429e-07
-3.22282e-06
9.50631e-07
-3.3272e-06
9.42621e-07
-3.37885e-06
9.68169e-07
-3.32913e-06
1.07805e-06
-3.16525e-06
1.30198e-06
-2.88529e-06
1.52875e-06
-2.55781e-06
1.5973e-06
-2.22361e-06
1.50632e-06
1.26579e-06
-1.90659e-06
-1.66298e-07
2.1275e-06
-3.49807e-07
2.217e-06
-5.42985e-07
2.19753e-06
-7.37644e-07
2.12209e-06
-9.35565e-07
2.00755e-06
-1.14043e-06
1.86073e-06
-1.36197e-06
1.68763e-06
-1.59908e-06
1.52593e-06
-1.83325e-06
1.42244e-06
-2.04002e-06
1.35551e-06
-2.22082e-06
1.29442e-06
-2.37752e-06
1.23232e-06
-2.5173e-06
1.16741e-06
-2.64222e-06
1.10536e-06
-2.74655e-06
1.05497e-06
-2.82493e-06
1.02103e-06
-2.87352e-06
1.01678e-06
-2.8661e-06
1.07065e-06
-2.75433e-06
1.19021e-06
-2.53134e-06
1.30577e-06
-2.25828e-06
1.32426e-06
-1.97348e-06
1.22156e-06
9.99649e-07
-1.70729e-06
-1.40904e-07
2.26844e-06
-3.0132e-07
2.3774e-06
-4.71764e-07
2.36798e-06
-6.41752e-07
2.29209e-06
-8.1292e-07
2.17875e-06
-9.9024e-07
2.03808e-06
-1.18397e-06
1.8814e-06
-1.39216e-06
1.73415e-06
-1.58919e-06
1.61949e-06
-1.76287e-06
1.52921e-06
-1.91474e-06
1.44631e-06
-2.04707e-06
1.36466e-06
-2.16318e-06
1.28354e-06
-2.26404e-06
1.20626e-06
-2.34728e-06
1.13825e-06
-2.41087e-06
1.08468e-06
-2.44887e-06
1.05485e-06
-2.44057e-06
1.06243e-06
-2.35466e-06
1.1044e-06
-2.18735e-06
1.13856e-06
-1.97242e-06
1.10944e-06
-1.74464e-06
9.93889e-07
7.88927e-07
-1.53378e-06
-1.22365e-07
2.39079e-06
-2.67489e-07
2.52248e-06
-4.1886e-07
2.51932e-06
-5.68948e-07
2.44217e-06
-7.19554e-07
2.32936e-06
-8.75468e-07
2.19401e-06
-1.04171e-06
2.04765e-06
-1.21383e-06
1.90628e-06
-1.37727e-06
1.78295e-06
-1.52301e-06
1.67496e-06
-1.65053e-06
1.57386e-06
-1.76153e-06
1.47568e-06
-1.85778e-06
1.37982e-06
-1.93981e-06
1.28833e-06
-2.00637e-06
1.20487e-06
-2.0552e-06
1.13356e-06
-2.08024e-06
1.07998e-06
-2.06684e-06
1.04912e-06
-1.9973e-06
1.03496e-06
-1.86983e-06
1.0112e-06
-1.70506e-06
9.44778e-07
-1.529e-06
8.17937e-07
6.26951e-07
-1.3669e-06
-1.13634e-07
2.50439e-06
-2.48072e-07
2.65687e-06
-3.81294e-07
2.65252e-06
-5.13114e-07
2.57398e-06
-6.45039e-07
2.46128e-06
-7.79988e-07
2.32895e-06
-9.19719e-07
2.18738e-06
-1.06078e-06
2.04734e-06
-1.19457e-06
1.91674e-06
-1.31505e-06
1.79546e-06
-1.42102e-06
1.67985e-06
-1.51302e-06
1.5677e-06
-1.59188e-06
1.45871e-06
-1.65776e-06
1.35424e-06
-1.70955e-06
1.2567e-06
-1.74483e-06
1.16889e-06
-1.7584e-06
1.09359e-06
-1.74087e-06
1.03166e-06
-1.68269e-06
9.7685e-07
-1.58395e-06
9.12538e-07
-1.45791e-06
8.18809e-07
-1.32329e-06
6.83386e-07
5.03437e-07
-1.19971e-06
-1.11787e-07
2.61614e-06
-2.35242e-07
2.7803e-06
-3.52411e-07
2.76968e-06
-4.67362e-07
2.68893e-06
-5.81438e-07
2.57535e-06
-6.96195e-07
2.4437e-06
-8.12127e-07
2.30331e-06
-9.26769e-07
2.16198e-06
-1.03509e-06
2.02506e-06
-1.13322e-06
1.89359e-06
-1.21977e-06
1.7664e-06
-1.2946e-06
1.64254e-06
-1.35789e-06
1.52201e-06
-1.40942e-06
1.40577e-06
-1.44807e-06
1.29538e-06
-1.47162e-06
1.19246e-06
-1.4761e-06
1.09809e-06
-1.4558e-06
1.01138e-06
-1.40595e-06
9.27027e-07
-1.32775e-06
8.34368e-07
-1.23019e-06
7.21273e-07
-1.12658e-06
5.79807e-07
4.08311e-07
-1.03144e-06
-1.1364e-07
2.72976e-06
-2.23468e-07
2.89014e-06
-3.26954e-07
2.87317e-06
-4.26782e-07
2.78876e-06
-5.24128e-07
2.67269e-06
-6.20123e-07
2.53969e-06
-7.14976e-07
2.39815e-06
-8.07138e-07
2.25414e-06
-8.93709e-07
2.11162e-06
-9.72214e-07
1.97209e-06
-1.04139e-06
1.83557e-06
-1.10076e-06
1.70191e-06
-1.15008e-06
1.57133e-06
-1.18886e-06
1.44455e-06
-1.21604e-06
1.32255e-06
-1.22975e-06
1.20616e-06
-1.22722e-06
1.09556e-06
-1.20514e-06
9.89303e-07
-1.16141e-06
8.8329e-07
-1.0977e-06
7.70651e-07
-1.0204e-06
6.43962e-07
-9.38951e-07
4.98355e-07
3.33144e-07
-8.63792e-07
-1.15928e-07
2.84569e-06
-2.11103e-07
2.98535e-06
-3.03078e-07
2.96517e-06
-3.89029e-07
2.87472e-06
-4.70707e-07
2.75438e-06
-5.49442e-07
2.61843e-06
-6.25649e-07
2.47436e-06
-6.98543e-07
2.32703e-06
-7.66486e-07
2.17956e-06
-8.27888e-07
2.03349e-06
-8.81703e-07
1.88938e-06
-9.2731e-07
1.7475e-06
-9.64233e-07
1.60824e-06
-9.91851e-07
1.47216e-06
-1.00918e-06
1.33987e-06
-1.01479e-06
1.21176e-06
-1.00685e-06
1.08759e-06
-9.83532e-07
9.65968e-07
-9.4416e-07
8.43896e-07
-8.90491e-07
7.16959e-07
-8.272e-07
5.80648e-07
-7.61002e-07
4.32135e-07
2.71404e-07
-6.99285e-07
-1.14357e-07
2.96007e-06
-2.00952e-07
3.07198e-06
-2.81161e-07
3.0454e-06
-3.53281e-07
2.94686e-06
-4.19866e-07
2.82098e-06
-4.82622e-07
2.6812e-06
-5.42256e-07
2.534e-06
-5.98513e-07
2.38329e-06
-6.50478e-07
2.23153e-06
-6.97105e-07
2.08012e-06
-7.37534e-07
1.9298e-06
-7.71105e-07
1.78107e-06
-7.97232e-07
1.63436e-06
-8.1525e-07
1.49016e-06
-8.243e-07
1.3489e-06
-8.2331e-07
1.21075e-06
-8.11113e-07
1.07537e-06
-7.86805e-07
9.41634e-07
-7.504e-07
8.07462e-07
-7.03536e-07
6.70066e-07
-6.49684e-07
5.26765e-07
-5.93622e-07
3.76042e-07
2.1829e-07
-5.4054e-07
-1.1032e-07
3.07041e-06
-1.93329e-07
3.15504e-06
-2.60584e-07
3.11269e-06
-3.18391e-07
3.00469e-06
-3.70285e-07
2.87289e-06
-4.18262e-07
2.7292e-06
-4.63196e-07
2.57896e-06
-5.05104e-07
2.42522e-06
-5.43449e-07
2.26989e-06
-5.77484e-07
2.11416e-06
-6.06473e-07
1.9588e-06
-6.29755e-07
1.80435e-06
-6.46701e-07
1.6513e-06
-6.56652e-07
1.50011e-06
-6.58873e-07
1.35111e-06
-6.52572e-07
1.20443e-06
-6.37029e-07
1.0598e-06
-6.11851e-07
9.16428e-07
-5.77369e-07
7.7295e-07
-5.35006e-07
6.2767e-07
-4.87348e-07
4.79071e-07
-4.37803e-07
3.26459e-07
1.70439e-07
-3.89993e-07
-1.04545e-07
3.17499e-06
-1.8432e-07
3.23487e-06
-2.38391e-07
3.1668e-06
-2.82098e-07
3.04844e-06
-3.20179e-07
2.91101e-06
-3.54834e-07
2.76388e-06
-3.86968e-07
2.61112e-06
-4.16694e-07
2.45496e-06
-4.43634e-07
2.29684e-06
-4.67177e-07
2.13771e-06
-4.86651e-07
1.97828e-06
-5.01397e-07
1.81909e-06
-5.10776e-07
1.66068e-06
-5.14156e-07
1.50347e-06
-5.10904e-07
1.34784e-06
-5.00431e-07
1.19393e-06
-4.82293e-07
1.04164e-06
-4.56371e-07
8.90475e-07
-4.23104e-07
7.39648e-07
-3.83674e-07
5.88201e-07
-3.40006e-07
4.35361e-07
-2.94532e-07
2.80939e-07
1.25632e-07
-2.49774e-07
-1.01707e-07
3.27672e-06
-1.70203e-07
3.30342e-06
-2.11069e-07
3.20772e-06
-2.41831e-07
3.07924e-06
-2.67682e-07
2.9369e-06
-2.90857e-07
2.78709e-06
-3.12239e-07
2.63253e-06
-3.31944e-07
2.47469e-06
-3.49634e-07
2.31455e-06
-3.64738e-07
2.15283e-06
-3.766e-07
1.99014e-06
-3.84557e-07
1.82705e-06
-3.87967e-07
1.66408e-06
-3.86227e-07
1.50172e-06
-3.78784e-07
1.34038e-06
-3.65182e-07
1.18031e-06
-3.45141e-07
1.02156e-06
-3.18675e-07
8.63973e-07
-2.86224e-07
7.07157e-07
-2.4874e-07
5.50673e-07
-2.07657e-07
3.9423e-07
-1.64712e-07
2.37943e-07
8.25242e-08
-1.2166e-07
-9.52239e-08
3.37198e-06
-1.46695e-07
3.35495e-06
-1.75985e-07
3.23706e-06
-1.95837e-07
3.09914e-06
-2.11492e-07
2.9526e-06
-2.2525e-07
2.80089e-06
-2.38001e-07
2.64531e-06
-2.49833e-07
2.48655e-06
-2.60383e-07
2.32512e-06
-2.69056e-07
2.16151e-06
-2.75177e-07
1.99627e-06
-2.78063e-07
1.82993e-06
-2.77071e-07
1.66308e-06
-2.71618e-07
1.49625e-06
-2.61208e-07
1.32994e-06
-2.45469e-07
1.16454e-06
-2.24211e-07
1.00027e-06
-1.97503e-07
8.37224e-07
-1.65739e-07
6.75348e-07
-1.29674e-07
5.1456e-07
-9.03773e-08
3.54882e-07
-4.90972e-08
1.9661e-07
4.0428e-08
-7.05809e-09
-7.64879e-08
3.4485e-06
-1.14635e-07
3.39316e-06
-1.33705e-07
3.25618e-06
-1.44211e-07
3.1097e-06
-1.51349e-07
2.95978e-06
-1.57554e-07
2.80713e-06
-1.6368e-07
2.65147e-06
-1.69703e-07
2.4926e-06
-1.75145e-07
2.33058e-06
-1.7933e-07
2.16571e-06
-1.81522e-07
1.99846e-06
-1.81007e-07
1.82941e-06
-1.77129e-07
1.65919e-06
-1.6932e-07
1.48842e-06
-1.5712e-07
1.31771e-06
-1.40205e-07
1.14759e-06
-1.18436e-07
9.78465e-07
-9.18927e-08
8.1064e-07
-6.09126e-08
6.44324e-07
-2.60926e-08
4.79693e-07
1.1761e-08
3.1698e-07
5.17411e-08
1.5658e-07
-8.6829e-10
9.29851e-08
-5.38947e-08
3.50244e-06
-7.8893e-08
3.41822e-06
-8.70508e-08
3.26439e-06
-8.82033e-08
3.1109e-06
-8.76556e-08
2.95927e-06
-8.77629e-08
2.80727e-06
-8.90682e-08
2.6528e-06
-9.12181e-08
2.49477e-06
-9.34863e-08
2.33286e-06
-9.50332e-08
2.16726e-06
-9.50281e-08
1.99846e-06
-9.27055e-08
1.82708e-06
-8.73922e-08
1.65386e-06
-7.85234e-08
1.47953e-06
-6.56606e-08
1.30483e-06
-4.85118e-08
1.13041e-06
-2.69582e-08
9.56879e-07
-1.07689e-09
7.84723e-07
2.88465e-08
6.14362e-07
6.23324e-08
4.46166e-07
9.87582e-08
2.80513e-07
1.37447e-07
1.1785e-07
-4.12428e-08
1.77779e-07
-3.41147e-08
3.53659e-06
-4.30571e-08
3.42722e-06
-3.79952e-08
3.25938e-06
-2.8713e-08
3.10166e-06
-2.07465e-08
2.95134e-06
-1.5988e-08
2.80255e-06
-1.41744e-08
2.65102e-06
-1.43028e-08
2.49492e-06
-1.52328e-08
2.3338e-06
-1.58875e-08
2.16793e-06
-1.53105e-08
1.99788e-06
-1.26756e-08
1.82445e-06
-7.28695e-09
1.64846e-06
1.42016e-09
1.47081e-06
1.38722e-08
1.29236e-06
3.03435e-08
1.11392e-06
5.09423e-08
9.36254e-07
7.5599e-08
7.60038e-07
1.04067e-07
5.85864e-07
1.35945e-07
4.14257e-07
1.7073e-07
2.45697e-07
2.07894e-07
8.06566e-08
-8.03523e-08
2.46974e-07
-1.64934e-08
3.55312e-06
-6.76943e-09
3.41754e-06
1.31972e-08
3.23945e-06
3.43205e-08
3.08057e-06
4.94702e-08
2.93622e-06
5.77006e-08
2.79434e-06
6.08331e-08
2.6479e-06
6.08884e-08
2.49488e-06
5.95511e-08
2.33515e-06
5.8169e-08
2.16932e-06
5.78267e-08
1.99823e-06
5.94057e-08
1.82287e-06
6.36211e-08
1.64424e-06
7.10382e-08
1.46339e-06
8.2075e-08
1.28131e-06
9.69969e-08
1.09898e-06
1.15907e-07
9.17328e-07
1.38741e-07
7.37186e-07
1.65276e-07
5.59311e-07
1.95155e-07
3.84359e-07
2.27941e-07
2.12891e-07
2.63193e-07
4.5387e-08
-1.17719e-07
3.00542e-07
1.34808e-09
3.5518e-06
2.90223e-08
3.3899e-06
6.74386e-08
3.20106e-06
1.01918e-07
3.04611e-06
1.23387e-07
2.91478e-06
1.33105e-07
2.78464e-06
1.35518e-07
2.64551e-06
1.33932e-07
2.49648e-06
1.30572e-07
2.33852e-06
1.27014e-07
2.17288e-06
1.24433e-07
2.00081e-06
1.23746e-07
1.82356e-06
1.25675e-07
1.64231e-06
1.30784e-07
1.45828e-06
1.39487e-07
1.2726e-06
1.52043e-07
1.08642e-06
1.68554e-07
9.00808e-07
1.88961e-07
7.16771e-07
2.13046e-07
5.35216e-07
2.4047e-07
3.56926e-07
2.70821e-07
1.82532e-07
3.0369e-07
1.25109e-08
-1.52795e-07
3.3876e-07
2.31601e-08
3.52866e-06
6.93664e-08
3.34372e-06
1.27523e-07
3.14292e-06
1.76252e-07
2.9974e-06
2.00905e-07
2.89013e-06
2.09388e-07
2.77617e-06
2.08963e-07
2.64594e-06
2.0409e-07
2.50136e-06
1.97339e-07
2.34528e-06
1.90396e-07
2.17983e-06
1.84475e-07
2.00674e-06
1.80497e-07
1.82754e-06
1.79185e-07
1.64363e-06
1.81096e-07
1.45637e-06
1.86642e-07
1.26706e-06
1.96085e-07
1.07698e-06
2.09529e-07
8.87364e-07
2.26917e-07
6.99382e-07
2.48033e-07
5.141e-07
2.72528e-07
3.32432e-07
2.99975e-07
1.55086e-07
3.2996e-07
-1.7473e-08
-1.85013e-07
3.6218e-07
5.99634e-08
3.46871e-06
1.30619e-07
3.27307e-06
2.03411e-07
3.07013e-06
2.54384e-07
2.94643e-06
2.80037e-07
2.86449e-06
2.84467e-07
2.77174e-06
2.79699e-07
2.65071e-06
2.70416e-07
2.51065e-06
2.59288e-07
2.35641e-06
2.48046e-07
2.19107e-06
2.37919e-07
2.01687e-06
2.29828e-07
1.83563e-06
2.24487e-07
1.64898e-06
2.22449e-07
1.45841e-06
2.24126e-07
1.26539e-06
2.29785e-07
1.07132e-06
2.39545e-07
8.77609e-07
2.53357e-07
6.85576e-07
2.71e-07
4.96462e-07
2.921e-07
3.11337e-07
3.16187e-07
1.31006e-07
3.42796e-07
-4.40754e-08
-2.13819e-07
3.71609e-07
1.31029e-07
3.33768e-06
2.2702e-07
3.17707e-06
2.99469e-07
2.99768e-06
3.39452e-07
2.90644e-06
3.57987e-07
2.84595e-06
3.56762e-07
2.77297e-06
3.46774e-07
2.6607e-06
3.3232e-07
2.5251e-06
3.16079e-07
2.37265e-06
2.99835e-07
2.20732e-06
2.84834e-07
2.03187e-06
2.71993e-07
1.84848e-06
2.62006e-07
1.65897e-06
2.55413e-07
1.46501e-06
2.5262e-07
1.26819e-06
2.53911e-07
1.07004e-06
2.59424e-07
8.72103e-07
2.69136e-07
6.75872e-07
2.82832e-07
4.82776e-07
3.00106e-07
2.94073e-07
3.20412e-07
1.1071e-07
3.43191e-07
-6.68442e-08
-2.38694e-07
3.68077e-07
2.33089e-07
3.10459e-06
3.55567e-07
3.05459e-06
4.14534e-07
2.93871e-06
4.37451e-07
2.88352e-06
4.3743e-07
2.84597e-06
4.27951e-07
2.78244e-06
4.10944e-07
2.6777e-06
3.90048e-07
2.54599e-06
3.6778e-07
2.39492e-06
3.45846e-07
2.22925e-06
3.25426e-07
2.0523e-06
3.07363e-07
1.86655e-06
2.92285e-07
1.67405e-06
2.80683e-07
1.47662e-06
2.72948e-07
1.27593e-06
2.69371e-07
1.07363e-06
2.70131e-07
8.71353e-07
2.75251e-07
6.70762e-07
2.84549e-07
4.73488e-07
2.97602e-07
2.81031e-07
3.13762e-07
9.45618e-08
3.32312e-07
-8.53828e-08
-2.59172e-07
3.52802e-07
3.5056e-07
2.75402e-06
5.05445e-07
2.89969e-06
5.47604e-07
2.89654e-06
5.44105e-07
2.88701e-06
5.24131e-07
2.86593e-06
5.0091e-07
2.80565e-06
4.73409e-07
2.7052e-06
4.43981e-07
2.57542e-06
4.1448e-07
2.42442e-06
3.86181e-07
2.25755e-06
3.59948e-07
2.07853e-06
3.36394e-07
1.8901e-06
3.15984e-07
1.69446e-06
2.99105e-07
1.4935e-06
2.86096e-07
1.28895e-06
2.77251e-07
1.08248e-06
2.72801e-07
8.75812e-07
2.72853e-07
6.7072e-07
2.7731e-07
4.69041e-07
2.85773e-07
2.7258e-07
2.97482e-07
8.28634e-08
3.11472e-07
-9.93613e-08
-2.74844e-07
3.27154e-07
4.82645e-07
2.27137e-06
6.65439e-07
2.71688e-06
6.90589e-07
2.87138e-06
6.59047e-07
2.91854e-06
6.169e-07
2.90807e-06
5.74562e-07
2.84798e-06
5.33073e-07
2.74668e-06
4.93226e-07
2.61526e-06
4.55624e-07
2.46202e-06
4.20651e-07
2.29253e-06
3.88564e-07
2.11062e-06
3.59568e-07
1.9191e-06
3.33863e-07
1.72017e-06
3.11668e-07
1.5157e-06
2.93236e-07
1.30739e-06
2.78846e-07
1.09688e-06
2.68787e-07
8.85879e-07
2.6329e-07
6.76225e-07
2.62426e-07
4.69915e-07
2.65916e-07
2.69099e-07
2.72924e-07
7.58647e-08
2.82089e-07
-1.08516e-07
-2.85351e-07
2.92606e-07
6.37068e-07
1.63429e-06
8.35604e-07
2.51833e-06
8.35251e-07
2.87172e-06
7.74365e-07
2.97941e-06
7.05256e-07
2.97717e-06
6.41888e-07
2.91134e-06
5.85522e-07
2.80304e-06
5.35185e-07
2.66559e-06
4.89844e-07
2.50736e-06
4.48725e-07
2.33364e-06
4.11329e-07
2.14801e-06