/*--------------------------------*- C++ -*----------------------------------*\
  =========                 |
  \\      /  F ield         | OpenFOAM: The Open Source CFD Toolbox
   \\    /   O peration     | Website:  https://openfoam.org
    \\  /    A nd           | Version:  9
     \\/     M anipulation  |
\*---------------------------------------------------------------------------*/
FoamFile
{
    format      ascii;
    class       volScalarField;
    location    "15";
    object      nut;
}
// * * * * * * * * * * * * * * * * * * * * * * * * * * * * * * * * * * * * * //

dimensions      [0 2 -1 0 0 0 0];

internalField   nonuniform List<scalar> 
12225
(
4.14732e-05
3.93954e-05
3.74861e-05
3.54432e-05
3.41429e-05
3.26754e-05
3.06081e-05
2.96882e-05
3.15816e-05
3.57664e-05
4.12215e-05
4.68306e-05
5.12019e-05
5.49182e-05
5.72489e-05
5.86998e-05
6.30226e-05
5.79813e-05
0.00033261
0.00021563
0.000179076
0.000157797
0.000146419
0.000138635
0.000134654
0.000133331
0.000139024
0.000146146
0.000154574
0.000161427
0.000167394
0.000171485
0.000173648
0.000174837
0.000175548
0.000174028
0.000674942
0.000450997
0.00035594
0.000308973
0.000274598
0.000248961
0.000230367
0.000223938
0.000222419
0.000226295
0.000234607
0.00024147
0.000247965
0.000248757
0.000249901
0.000247114
0.000240901
0.00022773
0.000833547
0.000684864
0.000572449
0.000498951
0.000449027
0.000407409
0.000376052
0.000368408
0.000358215
0.000353765
0.000358433
0.000362805
0.000361325
0.000358243
0.000359567
0.000356544
0.000348996
0.000334935
0.000861223
0.000802351
0.000742437
0.000676169
0.000624026
0.000576923
0.000537958
0.000532868
0.000516542
0.000498754
0.000505227
0.000502363
0.000482439
0.000474042
0.000478257
0.000480479
0.000478096
0.000468999
0.000855004
0.000840328
0.000822315
0.000786294
0.000750557
0.00071196
0.000676608
0.000679976
0.000669204
0.000640247
0.000652712
0.000632665
0.000599148
0.000591297
0.000602831
0.000611649
0.000616734
0.000615144
0.00085295
0.000850659
0.000844125
0.000833331
0.000815814
0.000792772
0.000770241
0.0007849
0.000791282
0.000762461
0.000773736
0.000770882
0.000747724
0.000738964
0.000743652
0.000746924
0.000752423
0.000757645
0.000851994
0.000851714
0.00085
0.000848224
0.000839639
0.000828373
0.000821057
0.000843508
0.000868703
0.000854312
0.000864338
0.000880319
0.000880158
0.000883072
0.000875956
0.000865963
0.000873279
0.000885799
0.000851804
0.000851471
0.000850824
0.00085123
0.000847246
0.000842846
0.000841728
0.000866886
0.000903153
0.000911083
0.000927142
0.000956081
0.000976609
0.000987316
0.000998075
0.000994177
0.000997139
0.00100624
0.000851776
0.00085137
0.000851007
0.000851319
0.000848586
0.000847843
0.00084872
0.000870929
0.000909816
0.000936563
0.000964368
0.00100322
0.00103787
0.00106213
0.00107962
0.00109254
0.00110244
0.00111425
0.000851712
0.00085147
0.000850975
0.00085113
0.000849309
0.00084931
0.00085076
0.000867733
0.000904989
0.000940013
0.000981252
0.00102734
0.00107232
0.00110735
0.00113657
0.00115633
0.00117709
0.00119168
0.000851674
0.000851533
0.000850933
0.000851225
0.000848977
0.000849676
0.000851365
0.000864307
0.000897627
0.000933801
0.000980536
0.00103074
0.00108111
0.00112444
0.00116393
0.0011901
0.00121614
0.00123838
0.000851691
0.00085147
0.000851043
0.000850904
0.000849713
0.000849765
0.000850994
0.000860855
0.000888069
0.000921688
0.000967075
0.00101757
0.00106992
0.00112133
0.00116534
0.00120641
0.00123235
0.00129541
0.000851729
0.000851389
0.000851128
0.000850699
0.000850004
0.000849769
0.000850404
0.000857725
0.00087619
0.000903843
0.000941719
0.000988748
0.00104103
0.00109887
0.00114695
0.00120476
0.00123822
0.00129285
0.00085175
0.000851375
0.0008511
0.000850621
0.000850091
0.000849733
0.00084988
0.000853672
0.000864127
0.000884414
0.000911572
0.000962432
0.00101207
0.0010762
0.00112731
0.00118649
0.00124692
0.00129949
0.000851802
0.000851327
0.000851068
0.00085064
0.000849998
0.000849905
0.000849796
0.0008468
0.000852679
0.000879562
0.000916519
0.00096498
0.00101801
0.00107923
0.00112821
0.00119346
0.00122741
0.00132575
0.000851786
0.00085137
0.000850906
0.000850838
0.000849472
0.000851918
0.000845731
0.000841563
0.000847276
0.000879425
0.000925953
0.000984481
0.00103707
0.00110513
0.00113479
0.00121708
0.00126986
0.00133373
0.000851775
0.000851372
0.00085088
0.000850873
0.0008498
0.000852355
0.000845256
0.000836275
0.00085636
0.000871787
0.000937796
0.00103404
0.00111944
0.0011815
0.00122576
0.00126569
0.00130339
0.00134153
0.000851903
0.000851169
0.00085176
0.000849712
0.000853497
0.000848042
0.00084392
0.000841561
0.000853449
0.000887424
0.000929494
0.000978176
0.00102332
0.00107238
0.00110306
0.00120237
0.00126532
0.00130944
0.000852067
0.000850922
0.000851355
0.000850598
0.000850277
0.00084937
0.000848994
0.000849517
0.000853165
0.000863587
0.000881336
0.000905324
0.000932763
0.000962445
0.000992431
0.00102453
0.00105257
0.00108562
0.000851818
0.000851295
0.000851056
0.00085061
0.000850306
0.000849665
0.000849387
0.000849006
0.000851614
0.000860218
0.000874917
0.00089539
0.000919182
0.000946489
0.000973573
0.00100308
0.0010281
0.00106115
0.000851706
0.000851421
0.000850969
0.000850707
0.000850141
0.000849487
0.000849192
0.000848945
0.000854441
0.000865586
0.000884939
0.000907346
0.000934653
0.000963067
0.000991595
0.00102166
0.00104632
0.00108192
0.000851518
0.000851777
0.00085062
0.000851242
0.000849411
0.00084873
0.000848716
0.00085175
0.000864653
0.000880084
0.000902889
0.000924183
0.000951297
0.000974647
0.00100022
0.00102696
0.00104815
0.00108391
0.000851607
0.000851692
0.000850524
0.00085121
0.000849424
0.000847647
0.000845412
0.000848253
0.00086455
0.000878378
0.000894635
0.000907847
0.000928192
0.000946271
0.000968917
0.000995249
0.0010156
0.00105178
0.000852047
0.000851464
0.000849993
0.000848542
0.000844857
0.000836912
0.000826406
0.000825332
0.000839868
0.000839698
0.000841655
0.000843289
0.000856451
0.000871896
0.000892814
0.000918909
0.000937759
0.00097177
0.000853921
0.000847717
0.000840077
0.000826812
0.000809235
0.000787525
0.000762226
0.0007467
0.000748862
0.000732343
0.000723957
0.000722159
0.000732994
0.000749061
0.000768665
0.000793456
0.000810672
0.000840481
0.000853837
0.000818867
0.000777153
0.00072595
0.000684631
0.000647654
0.000610385
0.000586178
0.000575303
0.000558862
0.000554049
0.000558063
0.000571172
0.000589184
0.000608144
0.000630701
0.000647113
0.000671534
0.000807367
0.000666846
0.000572021
0.00050876
0.000465787
0.000428339
0.000397902
0.000379219
0.000370691
0.000366967
0.000371551
0.000383219
0.000398869
0.000417683
0.000435666
0.000454723
0.000470358
0.000488821
0.000501932
0.000349105
0.000293208
0.000259841
0.000236318
0.000220976
0.00021158
0.000204011
0.000202878
0.000208826
0.000219082
0.000233264
0.00024851
0.000264529
0.000279551
0.000293518
0.000306193
0.000318203
7.27304e-05
7.02399e-05
6.79249e-05
6.56179e-05
6.35759e-05
6.20754e-05
5.86742e-05
5.62103e-05
5.43293e-05
5.76561e-05
6.47762e-05
7.43839e-05
8.49778e-05
9.60309e-05
0.000106194
0.00011621
0.000123835
0.000131908
1.35425e-05
0.000117857
0.00014672
3.57345e-05
4.27899e-05
5.27344e-05
5.74407e-05
6.15414e-05
6.47212e-05
6.75584e-05
6.98336e-05
7.20039e-05
7.37337e-05
7.54708e-05
7.68041e-05
7.8173e-05
7.91392e-05
8.01389e-05
8.07873e-05
8.15779e-05
8.22281e-05
8.30456e-05
8.37216e-05
8.43471e-05
8.50054e-05
8.56051e-05
8.59657e-05
8.67425e-05
8.79044e-05
8.87956e-05
8.83272e-05
8.9134e-05
8.78121e-05
8.61009e-05
8.68038e-05
8.64843e-05
8.73816e-05
9.03387e-05
8.95022e-05
8.89912e-05
8.63043e-05
8.8086e-05
8.49719e-05
8.46109e-05
8.47708e-05
8.35511e-05
8.36469e-05
8.43888e-05
8.3002e-05
8.27688e-05
8.25666e-05
8.24724e-05
8.30069e-05
8.2442e-05
8.08564e-05
7.77915e-05
7.61307e-05
7.41361e-05
7.32325e-05
7.34708e-05
7.55814e-05
7.82833e-05
8.18936e-05
8.32485e-05
8.48798e-05
8.43051e-05
8.25314e-05
7.87108e-05
7.59015e-05
7.14502e-05
6.77361e-05
6.4157e-05
6.26696e-05
6.03423e-05
6.00622e-05
5.76654e-05
5.33298e-05
5.37986e-05
5.4655e-05
5.14092e-05
5.49589e-05
5.32905e-05
5.43145e-05
5.52269e-05
5.49107e-05
5.59254e-05
5.38214e-05
5.09133e-05
5.13279e-05
4.97336e-05
5.10855e-05
4.83641e-05
4.93398e-05
4.95571e-05
5.3284e-05
4.9632e-05
5.48803e-05
5.89517e-05
5.64635e-05
5.38108e-05
5.48704e-05
5.30268e-05
5.34763e-05
5.21121e-05
5.37093e-05
5.75036e-05
5.56655e-05
5.21261e-05
5.33461e-05
5.72151e-05
5.44338e-05
5.88061e-05
6.18284e-05
5.94561e-05
5.84867e-05
5.87889e-05
6.17747e-05
5.83203e-05
5.92623e-05
5.76643e-05
5.79626e-05
5.77941e-05
5.5825e-05
5.72341e-05
6.01886e-05
5.77758e-05
5.82606e-05
5.59093e-05
5.72593e-05
5.93686e-05
6.33031e-05
6.01317e-05
6.11161e-05
5.94396e-05
6.31172e-05
6.12076e-05
6.26555e-05
5.9785e-05
5.99888e-05
6.18443e-05
6.22766e-05
6.03378e-05
6.3761e-05
6.20391e-05
6.35119e-05
6.14984e-05
5.8516e-05
5.94296e-05
5.92514e-05
5.79055e-05
6.24794e-05
6.09034e-05
5.89949e-05
6.0184e-05
6.00135e-05
6.00545e-05
5.96992e-05
6.19417e-05
5.9472e-05
6.25648e-05
6.35862e-05
6.2087e-05
6.27554e-05
5.93854e-05
6.05244e-05
5.94558e-05
6.24501e-05
6.30095e-05
6.38423e-05
6.15856e-05
6.22886e-05
5.96763e-05
6.23992e-05
6.03053e-05
5.88163e-05
6.15369e-05
5.90984e-05
5.73243e-05
5.60281e-05
5.72363e-05
2.54934e-05
8.60682e-05
8.88264e-05
8.90273e-05
0.000110751
0.000132513
0.000154534
0.000178698
0.000204696
0.000232216
0.00026099
0.000289944
0.000318821
0.000347
0.000374282
0.000400317
0.00042499
0.000448163
0.000469645
0.000489291
0.000506591
0.000521548
0.000534168
0.000546453
0.000558122
0.000569383
0.000580174
0.000590645
0.000600256
0.000608723
0.000615371
0.00062189
0.000626261
0.000631526
0.000635841
0.000641123
0.000643988
0.000649661
0.00065033
0.00065094
0.00064978
0.0006492
0.000646393
0.000644093
0.000641977
0.000638895
0.000636
0.000633634
0.000629662
0.000626891
0.00062412
0.000623279
0.000621681
0.000620382
0.000616039
0.000610299
0.000602573
0.000593931
0.000583421
0.000574439
0.000566512
0.000560878
0.000556724
0.00055836
0.000565324
0.000569908
0.000568843
0.000560108
0.000545208
0.000522977
0.000493814
0.000462906
0.000430836
0.000399424
0.000372302
0.000348282
0.000327674
0.000311211
0.000297753
0.000284955
0.00027692
0.000269602
0.000266943
0.000258321
0.000257503
0.000253899
0.000242394
0.000240947
0.000234768
0.0002288
0.000229253
0.00022167
0.000222404
0.00022059
0.000217445
0.000210834
0.000200294
0.000202233
0.000199295
0.000190587
0.000191458
0.000185544
0.000185951
0.000183847
0.000182697
0.000175377
0.000177044
0.000175072
0.000170925
0.000164963
0.0001653
0.000160684
0.000162708
0.000160169
0.000160859
0.000161089
0.000159973
0.00015953
0.000157285
0.000152928
0.000152461
0.000153542
0.000150902
0.000149881
0.000148736
0.000148908
0.00014552
0.000145655
0.00014288
0.00014081
0.000135004
0.000138679
0.000137429
0.000136706
0.000133709
0.000135937
0.00013273
0.000130395
0.000131458
0.000134617
0.000133274
0.000132271
0.000132266
0.000133648
0.000131282
0.000128917
0.000127232
0.000125449
0.000125019
0.000121103
0.00012313
0.000123119
0.000122837
0.000122958
0.00012475
0.000122779
0.000125286
0.000123152
0.000122673
0.000127953
0.000124421
0.000125962
0.000127891
0.000125538
0.000126293
0.000124018
0.000123176
0.000120853
0.000119483
0.000117112
0.000117944
0.000113743
0.000115424
0.000114156
0.000113595
0.000113891
0.000112293
0.00010903
0.000107113
9.9971e-05
5.03882e-05
0.000133939
0.000164698
0.000194355
0.000233925
0.000279141
0.000327342
0.000377119
0.000429074
0.000481717
0.000532695
0.000581063
0.000626556
0.000669002
0.000708538
0.000745303
0.000779536
0.000811416
0.000841114
0.000868753
0.000894459
0.000918364
0.000940614
0.000961563
0.000981212
0.000999545
0.00101651
0.00103202
0.00104593
0.00105814
0.00106857
0.00107731
0.0010845
0.00109052
0.00109519
0.00109856
0.00110126
0.00110264
0.00110211
0.0011004
0.00109746
0.00109373
0.00108904
0.00108389
0.00107831
0.001072
0.00106518
0.00105804
0.00105043
0.001043
0.00103577
0.00102902
0.00102237
0.00101581
0.00100846
0.00100017
0.000990665
0.000980135
0.000968474
0.00095639
0.000944109
0.000932136
0.00092085
0.000912019
0.000906264
0.000902578
0.000904063
0.000910264
0.000921788
0.000927898
0.000919473
0.000898748
0.0008658
0.000822553
0.000773676
0.000723726
0.000676118
0.000634617
0.000597497
0.000566116
0.000541046
0.00052095
0.000505716
0.000492525
0.000481522
0.000472415
0.00046271
0.000455618
0.000448246
0.000441416
0.000437596
0.000431241
0.000424382
0.000421523
0.000416788
0.000411666
0.00040392
0.000396744
0.000390325
0.0003836
0.000380839
0.000373085
0.00037146
0.000368515
0.000365648
0.000361788
0.000355334
0.000349834
0.000345333
0.000342846
0.000339519
0.000335812
0.00033218
0.000327917
0.000321355
0.00032178
0.000316848
0.000316409
0.000311295
0.00030977
0.000307303
0.000303918
0.00029734
0.000293752
0.000287757
0.000288204
0.000287065
0.000289991
0.000280504
0.000279341
0.000279335
0.000278355
0.000269926
0.00027006
0.000270267
0.000265605
0.000267774
0.00025994
0.000259056
0.00025805
0.000259511
0.000251339
0.000247193
0.000245111
0.000246136
0.000247453
0.000245777
0.000240996
0.000239758
0.000238239
0.000241393
0.000232114
0.000232558
0.000236226
0.000233849
0.000228801
0.000228608
0.000222483
0.000220181
0.000219171
0.000229729
0.000226638
0.000227487
0.000231022
0.000230511
0.000229753
0.000225786
0.000220597
0.00021765
0.000215236
0.000214758
0.000212539
0.000208012
0.000203035
0.000198979
0.000194906
0.000190233
0.000182996
0.000177378
0.000159304
6.44432e-05
0.000175051
0.000234939
0.000292681
0.000357531
0.000426716
0.000497853
0.00056938
0.000639609
0.000706094
0.000767625
0.000823989
0.000875421
0.000922387
0.000965399
0.00100499
0.00104161
0.00107565
0.0011074
0.0011371
0.00116491
0.00119097
0.00121564
0.00123903
0.00126113
0.00128185
0.00130115
0.00131889
0.00133495
0.00134933
0.00136188
0.00137275
0.00138169
0.00138685
0.00139388
0.00139773
0.00139962
0.00139981
0.00139845
0.00139575
0.001392
0.00138734
0.00138183
0.00137532
0.00136791
0.00135974
0.00135091
0.00134141
0.00133144
0.00132134
0.00131121
0.00130106
0.00129087
0.0012806
0.0012701
0.00125922
0.00124783
0.00123609
0.00122357
0.00121043
0.00119675
0.0011827
0.00116837
0.00115468
0.00114202
0.00113087
0.00112291
0.00111863
0.00112239
0.00113295
0.00114886
0.00116753
0.00117307
0.00115863
0.00112423
0.00107368
0.00101308
0.000952179
0.000889849
0.000836157
0.000792497
0.000757427
0.000729684
0.000707609
0.000689781
0.000675318
0.000662987
0.000652492
0.000643258
0.000634909
0.000627663
0.000620602
0.0006138
0.000607997
0.000602042
0.000596826
0.000590942
0.000584942
0.000578807
0.000572278
0.000567849
0.00056137
0.000554917
0.000550002
0.000546611
0.000540948
0.000539642
0.000533802
0.000528674
0.000523012
0.00051572
0.000505455
0.000505143
0.000501889
0.000495017
0.000486437
0.000487222
0.000478944
0.000479309
0.000476101
0.000471201
0.000464392
0.000453786
0.000447755
0.000447033
0.00043991
0.000441019
0.000435783
0.000429151
0.000430649
0.000434774
0.000431013
0.00042559
0.000425706
0.000425945
0.000417626
0.000410456
0.000406996
0.00040325
0.000413662
0.000408689
0.000399337
0.000390062
0.000392195
0.000385789
0.000381352
0.000383126
0.00038143
0.000379804
0.000390565
0.000372333
0.000378493
0.000361395
0.000355429
0.000368172
0.00035819
0.000356728
0.000356187
0.000362898
0.000363255
0.000349417
0.000364883
0.00035959
0.000359506
0.000360235
0.000358853
0.000357474
0.00035353
0.000351881
0.000349466
0.000339286
0.000335619
0.000318921
0.000325282
0.000316431
0.000316453
0.000310621
0.00030207
0.000289409
0.000264335
6.77064e-05
0.000203887
0.000296488
0.000383294
0.000470521
0.00056262
0.000652877
0.000738291
0.000817182
0.00088854
0.000952211
0.00100877
0.00105903
0.00110398
0.0011445
0.00118143
0.0012154
0.00124696
0.00127651
0.00130431
0.00133048
0.00135518
0.00137882
0.00140148
0.00142311
0.00144353
0.00146271
0.00148042
0.00149619
0.00151156
0.00152435
0.00153193
0.00154067
0.00154978
0.00155577
0.00155945
0.0015621
0.001563
0.00156225
0.00155998
0.0015566
0.00155226
0.00154703
0.00154067
0.00153308
0.00152393
0.00151335
0.00150274
0.00149196
0.00148126
0.00147054
0.00145971
0.00144881
0.00143783
0.00142677
0.0014156
0.00140533
0.00139357
0.00138104
0.0013679
0.00135413
0.00133874
0.00132387
0.0013092
0.00129487
0.0012814
0.00127084
0.00126219
0.00125564
0.00125396
0.00126148
0.00127914
0.00130321
0.00133034
0.00133463
0.00131039
0.00126137
0.00119688
0.00112569
0.00105682
0.000995778
0.000944563
0.000903056
0.000870101
0.000844035
0.000823418
0.000806862
0.000793319
0.000782036
0.000772377
0.000764172
0.000756931
0.000750504
0.000744891
0.000739336
0.000734444
0.000728915
0.000723731
0.000718311
0.00071295
0.000707738
0.000703397
0.000698384
0.000694181
0.000692071
0.000687856
0.000682721
0.000681726
0.000676362
0.000671189
0.000665586
0.000653889
0.000649028
0.0006458
0.000634869
0.000635019
0.000630536
0.000622511
0.000623837
0.000617073
0.000609432
0.000610876
0.000607032
0.000592819
0.000584636
0.000590371
0.000591509
0.000581082
0.000568786
0.000567072
0.000568635
0.000565586
0.00056168
0.000559374
0.000558598
0.000557166
0.000552858
0.000559025
0.000559039
0.000551149
0.000559619
0.000539902
0.000533223
0.000520424
0.000521978
0.000519735
0.000524483
0.000518969
0.00051746
0.000525146
0.000520255
0.000502657
0.000493634
0.000498577
0.000505687
0.000478431
0.000485363
0.000484933
0.000472862
0.000477641
0.00047509
0.000484305
0.000501109
0.000488083
0.000485574
0.000494588
0.000486311
0.000478986
0.000474875
0.000468114
0.000461969
0.000462612
0.000445204
0.000442578
0.000437143
0.000436513
0.000435776
0.000419762
0.000410498
0.00038105
7.20431e-05
0.000225014
0.000348457
0.00046651
0.000584552
0.000698989
0.000804552
0.000898964
0.000981348
0.00105188
0.00111155
0.00116183
0.00120429
0.00124049
0.00127178
0.00129937
0.00132423
0.0013472
0.00136896
0.00139007
0.00141098
0.0014319
0.00145271
0.00147329
0.00149367
0.00151319
0.00153243
0.00155106
0.00156431
0.00157867
0.00159188
0.00160646
0.00161736
0.00162619
0.00163344
0.00164011
0.00164259
0.00164273
0.00164094
0.00163746
0.00163294
0.00162752
0.00162124
0.00161396
0.00160555
0.00159592
0.00158491
0.00157141
0.0015598
0.00154863
0.00153759
0.00152656
0.00151565
0.00150494
0.00149475
0.001484
0.00147295
0.00146142
0.00144944
0.00143702
0.00142414
0.00141071
0.00139695
0.00138298
0.00136899
0.0013555
0.00134487
0.00133333
0.00132324
0.00131743
0.00131936
0.00133099
0.00135281
0.00138451
0.00142041
0.00143116
0.00140725
0.00135483
0.00128666
0.0012126
0.00114142
0.00107838
0.00102542
0.000982463
0.000948242
0.000921275
0.000899955
0.000882939
0.000869317
0.000858204
0.000849286
0.000841821
0.000835708
0.000830511
0.000825437
0.000821269
0.000816134
0.000812047
0.000807457
0.000803043
0.000799288
0.000796389
0.000792493
0.000790205
0.000786705
0.000784713
0.000781806
0.000777835
0.000775971
0.000766878
0.000766199
0.000757684
0.000754601
0.000756643
0.000747688
0.000744756
0.000741469
0.000741642
0.000732538
0.000730048
0.000723267
0.000720483
0.00071048
0.000715283
0.000697465
0.000700653
0.000699041
0.000701598
0.000689832
0.000684601
0.000679517
0.000675436
0.000673244
0.000667127
0.000682247
0.000670392
0.00067373
0.000667472
0.000646802
0.000653665
0.000665759
0.000652348
0.000649204
0.000644842
0.000653652
0.000648039
0.000646103
0.000637826
0.000635702
0.000639172
0.000626583
0.000612805
0.000614308
0.00061541
0.000619212
0.000602274
0.000612067
0.000590086
0.000591897
0.000588413
0.000595615
0.000587223
0.00057859
0.000580969
0.000580616
0.000595178
0.00058002
0.000575969
0.000566742
0.000574167
0.000563703
0.000565239
0.000544617
0.000557756
0.000547184
0.000543988
0.000551058
0.000533547
0.000525088
0.000499437
7.03289e-05
0.000254492
0.000413767
0.000563824
0.000704694
0.000831809
0.00094104
0.00103339
0.00110952
0.00117109
0.00122021
0.0012593
0.00129052
0.00131588
0.00133695
0.00135514
0.00137148
0.00138689
0.00140205
0.00141746
0.00143346
0.00145032
0.00146816
0.00148664
0.00150643
0.00152634
0.00154086
0.00155829
0.00157505
0.00159549
0.001612
0.00162625
0.00163825
0.00164801
0.00165563
0.00166109
0.0016643
0.00166539
0.00166462
0.00166221
0.0016585
0.00165374
0.00164815
0.00164113
0.00163274
0.00162303
0.00161274
0.00160199
0.00159119
0.00158034
0.00156948
0.00155865
0.00154837
0.00154111
0.00153102
0.00152001
0.00150849
0.0014966
0.00148441
0.00147191
0.00145914
0.00144607
0.00143275
0.00141926
0.00140577
0.00139273
0.00138052
0.00136697
0.00135594
0.00134887
0.00134818
0.0013549
0.00137115
0.00139812
0.00143516
0.00147349
0.00147754
0.00145219
0.0013987
0.00132944
0.00125546
0.00118515
0.00112303
0.00107078
0.00102817
0.000994109
0.000966927
0.000945522
0.000928599
0.000915186
0.000904723
0.00089632
0.00088953
0.000883842
0.000878597
0.000874643
0.00087008
0.000866738
0.000862499
0.000858797
0.000855093
0.000852405
0.000849844
0.00084833
0.000845436
0.000843787
0.000841621
0.000837917
0.000837729
0.000833954
0.000829647
0.000821631
0.000823489
0.000821432
0.000817976
0.000815446
0.000812785
0.0008114
0.000801584
0.000799768
0.000802026
0.000801545
0.000797348
0.000801186
0.000797339
0.000788258
0.000775725
0.00078021
0.000777132
0.000760371
0.000753406
0.000758598
0.000763203
0.000749009
0.000747918
0.000740875
0.000746752
0.000745507
0.000742225
0.000740661
0.00074259
0.000729785
0.000735346
0.000743489
0.000747837
0.000747962
0.000733483
0.0007291
0.000730341
0.000714934
0.000694655
0.00070692
0.000688684
0.000703417
0.000707688
0.000683363
0.000672294
0.000680045
0.000690924
0.0006827
0.000682062
0.000675879
0.000677892
0.000685753
0.000672238
0.000671283
0.000670279
0.000662046
0.000647926
0.000661262
0.00064877
0.000661213
0.000637025
0.00064177
0.000637933
0.000632448
0.000644933
0.000633751
0.000626549
0.000600863
7.37992e-05
0.000285266
0.000484402
0.000660322
0.000809053
0.000934149
0.00103955
0.00112557
0.00119334
0.00124572
0.00128548
0.00131531
0.00133749
0.00135406
0.00136666
0.00137675
0.00138553
0.00139405
0.0014032
0.00141366
0.00142581
0.00143955
0.00145588
0.00147672
0.00149572
0.00151085
0.00152952
0.00155039
0.00157645
0.00159837
0.00161787
0.00163502
0.00164977
0.00166195
0.00167157
0.00167862
0.0016832
0.00168538
0.0016854
0.00168348
0.00167989
0.00167484
0.00166853
0.00166103
0.00165243
0.00164288
0.00163269
0.00162208
0.00161121
0.00160015
0.00158898
0.0015777
0.00156642
0.00155523
0.00154389
0.00153231
0.00152053
0.00150853
0.00149635
0.00148395
0.00147135
0.00145853
0.0014455
0.00143233
0.0014191
0.00140598
0.00139338
0.00138147
0.00137079
0.00136355
0.00136255
0.00136719
0.00137962
0.00140119
0.0014329
0.00147309
0.00150425
0.00150367
0.00147353
0.00142113
0.00135633
0.00128785
0.00122253
0.00116428
0.00111476
0.00107361
0.00104066
0.00101327
0.000991029
0.000973364
0.000959453
0.000948181
0.00093897
0.000931302
0.000924793
0.000919889
0.000915238
0.00091106
0.000906355
0.000901598
0.000897296
0.000893352
0.000890696
0.000889189
0.000885616
0.000882211
0.000879102
0.000875217
0.000872625
0.000870119
0.000867981
0.000867042
0.000862976
0.00086419
0.00086062
0.000858909
0.000856436
0.000856029
0.000854457
0.000858176
0.00085705
0.000854609
0.000848757
0.000851282
0.000848772
0.00084326
0.000831662
0.000832743
0.000828702
0.000819819
0.000818397
0.000819532
0.000820783
0.000820588
0.000817763
0.000803615
0.000798737
0.000805016
0.000800079
0.000807123
0.000812087
0.0008054
0.000804451
0.000793994
0.000802114
0.000806953
0.000791346
0.000785175
0.000784232
0.000788479
0.000777902
0.000758922
0.000774421
0.000768654
0.000766786
0.000755646
0.000744914
0.000752624
0.000750881
0.000761206
0.000757616
0.000738916
0.00074746
0.00075945
0.000745083
0.000735752
0.000750931
0.000726015
0.000729853
0.000724962
0.0007205
0.000720107
0.000715834
0.000710111
0.000708869
0.000706011
0.000715831
0.0007056
0.000711362
0.000690345
8.03612e-05
0.00033775
0.000566434
0.000745215
0.000891167
0.00101238
0.00111229
0.00119209
0.00125193
0.00129598
0.0013274
0.00134897
0.00136299
0.00137156
0.00137645
0.00137931
0.00138153
0.00138451
0.00138938
0.00139704
0.00140732
0.00142058
0.0014405
0.00146231
0.0014785
0.00150074
0.00152398
0.00155737
0.00158696
0.00161423
0.00163916
0.00166146
0.00168083
0.00169703
0.00170997
0.00171963
0.00172613
0.00172963
0.00173041
0.00172877
0.00172503
0.00171946
0.00171237
0.00170396
0.00169447
0.00168406
0.00167298
0.00166137
0.00164941
0.00163717
0.00162475
0.00161216
0.00159948
0.00158669
0.00157383
0.00156084
0.00154776
0.00153455
0.00152123
0.00150778
0.00149419
0.00148046
0.00146658
0.0014526
0.00143859
0.00142463
0.00141105
0.0013983
0.00138668
0.00137762
0.00137506
0.00137798
0.00138667
0.00140282
0.00142751
0.00146109
0.00150032
0.00152761
0.0015269
0.00150018
0.00145353
0.00139559
0.0013345
0.00127579
0.00122274
0.00117614
0.0011359
0.00110064
0.00107155
0.00104856
0.00102945
0.00101343
0.00100004
0.000989765
0.000981063
0.000974707
0.000968504
0.000961848
0.000954685
0.000947371
0.000940905
0.00093393
0.000928029
0.000923397
0.000918594
0.000915091
0.000912461
0.000909429
0.000908195
0.000907073
0.000909121
0.000908497
0.00090506
0.000901182
0.000896215
0.000895113
0.000894563
0.0008934
0.000895464
0.000895198
0.000893761
0.000889719
0.000885868
0.000883486
0.000881049
0.000879151
0.000876426
0.000874287
0.000873365
0.000870144
0.000872161
0.000870269
0.000865982
0.000867674
0.000860643
0.000859529
0.000856691
0.000857131
0.000861787
0.000861722
0.000860175
0.000858159
0.000856417
0.000852937
0.000850009
0.000849122
0.000844061
0.000834841
0.000833203
0.000831367
0.000834398
0.000822069
0.000828074
0.00082077
0.000820598
0.000809801
0.000811962
0.00080759
0.000809129
0.000813374
0.000812442
0.000802945
0.000799684
0.000807875
0.000794124
0.000811858
0.00079701
0.000791316
0.000799516
0.000801779
0.000784621
0.000772589
0.000765525
0.000759843
0.000769154
0.000776879
0.000781257
0.000766755
0.000773369
0.000761826
9.08769e-05
0.000374574
0.000622674
0.000806911
0.000951086
0.00106738
0.00116143
0.00123607
0.00129065
0.00132796
0.00135222
0.00136654
0.00137332
0.00137488
0.00137324
0.00137035
0.00136788
0.0013675
0.00137049
0.00137784
0.00138911
0.00140532
0.00143109
0.00145507
0.00147665
0.00150466
0.00153695
0.00157944
0.00161743
0.00165287
0.0016856
0.00171509
0.00174088
0.00176258
0.00178004
0.0017932
0.00180225
0.00180742
0.00180911
0.00180769
0.00180362
0.00179725
0.00178899
0.00177916
0.00176808
0.00175597
0.00174309
0.00172959
0.00171567
0.00170139
0.00168688
0.00167217
0.00165734
0.00164238
0.00162733
0.0016122
0.001597
0.00158171
0.00156635
0.00155091
0.0015354
0.00151981
0.00150415
0.00148842
0.00147271
0.00145706
0.00144165
0.00142697
0.00141339
0.00140121
0.00139515
0.00139498
0.00140012
0.00141082
0.00142848
0.0014537
0.00148611
0.00152231
0.00155106
0.00155481
0.00153496
0.00149858
0.00145288
0.00140313
0.00135324
0.0013045
0.00125811
0.00121359
0.00117795
0.00114992
0.00112331
0.00110075
0.00108217
0.00107028
0.00105846
0.00105158
0.00103944
0.00102556
0.00101058
0.000999356
0.000988344
0.000974755
0.000966449
0.000963001
0.000961007
0.000962627
0.000963431
0.000959242
0.00096109
0.000973004
0.000980975
0.000973191
0.000960753
0.000951928
0.000941556
0.000953753
0.000954271
0.000946178
0.000957067
0.000950945
0.000942588
0.000936092
0.000930957
0.000927943
0.000925475
0.000925512
0.000927199
0.000924745
0.000920386
0.000916796
0.000914144
0.000910833
0.000907245
0.000903612
0.000900411
0.000896922
0.000895912
0.00089485
0.000894288
0.000895504
0.000891068
0.000891516
0.000886781
0.000885176
0.00088201
0.000879826
0.000879898
0.000876947
0.000879157
0.000873606
0.000870212
0.000867512
0.000866292
0.000862557
0.000860968
0.000859092
0.000858969
0.000857522
0.000856179
0.00086466
0.000859931
0.000861755
0.000852248
0.000847078
0.000842616
0.000843933
0.000840065
0.000850133
0.000844645
0.000846469
0.000832537
0.000821387
0.000818676
0.000819544
0.000822939
0.00082214
0.000830435
0.000824858
0.000813686
0.000807366
0.000102303
0.000400668
0.00066001
0.000847641
0.000989817
0.00110166
0.00119056
0.00126057
0.0013121
0.00134503
0.00136343
0.00137149
0.00137209
0.0013679
0.00136133
0.00135473
0.00135005
0.00134893
0.00135261
0.00136189
0.00137633
0.00139791
0.00142945
0.00145273
0.0014861
0.00152177
0.00156466
0.00161672
0.00166458
0.00170993
0.00175227
0.00179073
0.00182459
0.00185325
0.00187644
0.00189409
0.00190645
0.00191383
0.00191676
0.00191572
0.00191129
0.00190399
0.00189434
0.00188276
0.00186968
0.00185538
0.00184018
0.00182426
0.00180784
0.00179101
0.00177391
0.00175658
0.0017391
0.00172147
0.00170377
0.00168596
0.00166811
0.00165018
0.00163222
0.0016142
0.00159616
0.00157809
0.00156
0.0015419
0.00152384
0.00150587
0.00148806
0.00147077
0.00145446
0.00143939
0.00142787
0.001423
0.00142389
0.00142994
0.00144123
0.00145882
0.00148267
0.00151223
0.00154541
0.00157672
0.00158541
0.00157738
0.00155563
0.00152298
0.00148243
0.0014357
0.00138587
0.00133422
0.00129614
0.00126265
0.00122494
0.00119553
0.00117126
0.00116192
0.00114472
0.00113981
0.001109
0.00107822
0.00105173
0.00104446
0.00102368
0.00100225
0.00101294
0.00102352
0.00103401
0.00104187
0.00104598
0.00102223
0.00103576
0.00101753
0.00103675
0.00103539
0.00102049
0.00100924
0.00100225
0.000991724
0.000973352
0.000988478
0.00100348
0.00100008
0.000996043
0.000990899
0.000986112
0.000987628
0.000983837
0.00100362
0.00101153
0.00100093
0.000988183
0.000978986
0.000970142
0.000961197
0.000953697
0.000947205
0.000942693
0.000938922
0.000935267
0.000931587
0.000928135
0.000924642
0.000921563
0.000918963
0.000916084
0.000913415
0.000910065
0.000908692
0.000906555
0.000905377
0.000904979
0.000901853
0.000898347
0.000895719
0.000894067
0.000892632
0.000891315
0.000891973
0.000894328
0.000892325
0.00088923
0.000887883
0.000892243
0.000891773
0.000889623
0.000887586
0.000885318
0.000882676
0.000881232
0.000880654
0.000871882
0.000869021
0.000864161
0.000860745
0.000860892
0.000859782
0.000862758
0.000861189
0.000860575
0.000856301
0.000850896
0.000844877
0.00011915
0.000427196
0.000689769
0.000875039
0.00101246
0.00111897
0.00120255
0.00126732
0.00131582
0.00134739
0.00136263
0.00136593