/*--------------------------------*- C++ -*----------------------------------*\
  =========                 |
  \\      /  F ield         | OpenFOAM: The Open Source CFD Toolbox
   \\    /   O peration     | Website:  https://openfoam.org
    \\  /    A nd           | Version:  9
     \\/     M anipulation  |
\*---------------------------------------------------------------------------*/
FoamFile
{
    format      ascii;
    class       volScalarField;
    location    "15";
    object      p;
}
// * * * * * * * * * * * * * * * * * * * * * * * * * * * * * * * * * * * * * //

dimensions      [0 2 -2 0 0 0 0];

internalField   nonuniform List<scalar> 
12225
(
17.1717
14.8054
13.8018
14.0962
14.062
13.5626
13.0835
12.8701
12.9016
13.0853
13.3299
13.6187
13.974
14.4298
14.9721
15.9221
16.259
21.4297
14.0107
13.3265
13.0888
13.6912
13.804
13.4152
13.0217
12.8671
12.9356
13.1348
13.3798
13.6618
14.0042
14.4169
14.9353
15.7071
17.399
18.1332
13.6082
13.5179
13.414
13.8534
13.8509
13.4452
13.0694
12.928
12.9986
13.1868
13.4148
13.6789
13.9965
14.3705
14.8055
15.3737
16.3683
15.9732
13.7283
13.6469
13.5526
13.8616
13.7965
13.4175
13.0835
12.9629
13.0322
13.2032
13.4102
13.65
13.9352
14.2576
14.6122
14.9869
15.4068
14.9575
13.7388
13.6472
13.5464
13.8048
13.7243
13.3869
13.0937
12.9878
13.0485
13.1985
13.3819
13.595
13.8428
14.107
14.3706
14.5813
14.6899
14.2656
13.6818
13.6074
13.48
13.7391
13.6718
13.3714
13.1065
13.004
13.051
13.1778
13.3346
13.5178
13.7247
13.9293
14.1018
14.1867
14.1213
13.7025
13.6206
13.565
13.4124
13.6852
13.6454
13.3741
13.1244
13.0167
13.0442
13.1448
13.273
13.4262
13.5917
13.7388
13.831
13.8216
13.6581
13.2624
13.5642
13.513
13.3578
13.6319
13.6247
13.3813
13.1409
13.0217
13.0223
13.0937
13.1946
13.3194
13.4454
13.54
13.5674
13.4947
13.2746
12.9114
13.5101
13.4616
13.3189
13.5771
13.5988
13.3867
13.1567
13.0211
12.992
13.0341
13.1097
13.2044
13.2924
13.3425
13.3225
13.2068
12.9562
12.6116
13.4567
13.3995
13.284
13.5191
13.5573
13.38
13.1649
13.0152
12.9567
12.9684
13.015
13.0759
13.1301
13.1451
13.0919
12.9501
12.6851
12.3647
13.404
13.3342
13.271
13.4781
13.5137
13.3705
13.1777
13.0203
12.9306
12.9053
12.9139
12.9395
12.9623
12.9501
12.8747
12.7205
12.4609
12.1702
13.3568
13.275
13.246
13.4266
13.46
13.358
13.1975
13.0378
12.9174
12.8496
12.8172
12.8077
12.8052
12.7743
12.6913
12.5379
12.2889
12.0273
13.3129
13.2217
13.1853
13.3374
13.3879
13.3433
13.2257
13.0667
12.9148
12.8005
12.7214
12.6748
12.6405
12.5982
12.5077
12.3672
12.1304
11.9118
13.2685
13.1952
13.1145
13.215
13.294
13.3243
13.2622
13.1145
12.9351
12.7717
12.6384
12.5424
12.4744
12.4086
12.3182
12.194
11.9901
11.8278
13.2238
13.1893
13.0547
13.0684
13.1579
13.2662
13.2797
13.1662
12.982
12.778
12.5948
12.4416
12.3298
12.2332
12.1356
12.0195
11.833
11.7078
13.1776
13.1627
13.0137
12.9299
12.9811
13.1444
13.2432
13.198
13.0348
12.8212
12.5934
12.3932
12.2204
12.0846
11.9547
11.8449
11.6757
11.6061
13.129
13.1284
13.0049
12.8448
12.8173
12.9781
13.1394
13.1674
13.0556
12.8529
12.6168
12.3841
12.1752
11.9945
11.8476
11.7338
11.5906
11.5476
13.0781
13.0765
12.998
12.8183
12.7214
12.838
13.0117
13.0872
13.0286
12.8587
12.6308
12.392
12.1767
11.9864
11.8343
11.7234
11.5954
11.5829
13.0266
13.0039
12.9478
12.801
12.6953
12.7811
12.9423
13.0289
12.9923
12.8459
12.6359
12.4051
12.1935
12.0117
11.8719
11.7737
11.6635
11.6771
13.0117
12.9878
12.9319
12.82
12.7534
12.8387
12.9749
13.0135
12.9451
12.7739
12.5688
12.3443
12.1572
12.0019
11.9055
11.8471
11.7924
11.8295
13.0192
12.9965
12.9165
12.8327
12.8106
12.9132
13.0069
12.9986
12.8692
12.6817
12.4672
12.2769
12.1184
12.0195
11.9614
11.9538
11.9326
12.0003
13.0394
13.0104
12.9062
12.8619
12.896
13.0016
13.0496
12.972
12.7992
12.5874
12.3854
12.2217
12.1078
12.0536
12.0409
12.0618
12.0665
12.1263
13.068
13.0326
12.9051
12.9098
12.9942
13.0838
13.0715
12.9315
12.7185
12.4995
12.3154
12.1811
12.1117
12.0937
12.1214
12.1601
12.1851
12.2423
13.1029
13.0664
12.9127
12.9653
13.0828
13.1441
13.0682
12.8744
12.6374
12.4229
12.2623
12.163
12.1276
12.1438
12.1886
12.2423
12.2642
12.3092
13.1424
13.1143
12.9387
13.0276
13.1576
13.1783
13.0453
12.8112
12.5637
12.3623
12.2245
12.1567
12.1502
12.1888
12.2451
12.2988
12.3212
12.3584
13.1777
13.1788
12.9924
13.1043
13.2324
13.2099
13.0209
12.7562
12.5069
12.3176
12.2018
12.1573
12.1727
12.2239
12.2843
12.3364
12.3573
12.3799
13.1574
13.2252
13.0415
13.1798
13.3209
13.2563
13.0171
12.7219
12.4664
12.2907
12.1898
12.1648
12.1926
12.2499
12.3106
12.368
12.3936
12.3857
13.0349
13.1358
12.9559
13.1868
13.3855
13.3047
13.0273
12.701
12.4355
12.2687
12.1823
12.1661
12.207
12.2662
12.324
12.39
12.4284
12.418
13.3305
12.8565
12.5412
12.9244
13.2541
13.2183
12.9489
12.6214
12.3602
12.2113
12.1431
12.1424
12.1976
12.2631
12.3229
12.3934
12.4433
12.4446
16.3145
14.3749
13.344
13.4219
13.5788
13.4175
13.05
12.6428
12.3166
12.123
12.0277
12.0117
12.058
12.1219
12.1869
12.2619
12.3183
12.3359
10.7164
10.6884
10.6526
10.6299
10.5836
10.4788
10.3296
10.1545
9.96834
9.77884
9.60179
9.44666
9.32417
9.23543
9.18276
9.16548
9.18493
9.24137
9.33113
9.45452
9.60751
9.79245
10.0008
10.2359
10.4888
10.7642
11.0513
11.3566
11.6687
11.9938
12.3189
12.6528
12.9828
13.317
13.6426
13.9709
14.289
14.6066
14.9108
15.2133
15.5012
15.7847
16.0523
16.3159
16.5638
16.8078
17.0375
17.2643
17.4747
17.68
17.8703
18.0558
18.2252
18.3904
18.5446
18.6981
18.8398
18.9781
19.1046
19.2279
19.3405
19.4506
19.5517
19.6508
19.7413
19.83
19.9103
19.9872
20.0549
20.1185
20.1738
20.2254
20.2687
20.3074
20.3372
20.3631
20.3822
20.3974
20.4062
20.412
20.4131
20.4111
20.4056
20.3992
20.3898
20.3781
20.3625
20.345
20.3258
20.3074
20.2899
20.2712
20.2509
20.2301
20.2087
20.1848
20.1598
20.1339
20.1065
20.0779
20.0489
20.0201
19.9913
19.9615
19.9314
19.9032
19.8734
19.8434
19.816
19.7883
19.7615
19.7369
19.7108
19.6831
19.6581
19.6365
19.6155
19.5944
19.5713
19.5492
19.5283
19.5052
19.4809
19.4557
19.4316
19.4118
19.3983
19.3865
19.3649
19.3359
19.3089
19.2894
19.2717
19.2518
19.2289
19.2054
19.1869
19.1667
19.1421
19.1181
19.0955
19.0753
19.0617
19.0581
19.055
19.0338
19.0071
18.988
18.9653
18.9315
18.9041
18.891
18.872
18.8412
18.8177
18.8035
18.7915
18.7762
18.7463
18.7221
18.7087
18.6943
18.6773
18.6594
18.6408
18.6251
18.62
18.6109
18.5994
18.6031
18.6156
18.6239
18.6505
18.6957
18.7557
18.8453
18.9464
19.1002
19.3737
19.7011
10.7851
10.7513
10.7079
10.64
10.52
10.3504
10.155
9.94755
9.74459
9.55497
9.38927
9.25189
9.14856
9.07905
9.04407
9.0427
9.07435
9.13854
9.23317
9.3578
9.50888
9.6889
9.89283
10.1211
10.3676
10.6359
10.9188
11.2182
11.5263
11.8461
12.1698
12.4998
12.8287
13.1604
13.4869
13.8127
14.1313
14.447
14.7524
15.0529
15.3427
15.6261
15.8965
16.1604
16.4131
16.6591
16.8927
17.1205
17.3363
17.5443
17.7408
17.9301
18.1062
18.2747
18.4333
18.587
18.7317
18.8719
19.0036
19.1282
19.244
19.3556
19.4603
19.5605
19.6538
19.7439
19.8274
19.906
19.9772
20.0431
20.1028
20.1573
20.2051
20.2475
20.2818
20.3101
20.3319
20.3489
20.3605
20.3691
20.3729
20.3718
20.3681
20.3627
20.3547
20.3448
20.3317
20.3165
20.2992
20.2823
20.2667
20.2489
20.2279
20.2083
20.1894
20.1652
20.1405
20.1157
20.0889
20.0608
20.0331
20.006
19.9782
19.9479
19.9173
19.8913
19.8634
19.8336
19.8075
19.7796
19.7512
19.7284
19.7047
19.6752
19.6488
19.6282
19.6088
19.5888
19.5643
19.542
19.5224
19.5002
19.4777
19.4533
19.4294
19.406
19.3906
19.3825
19.3633
19.3336
19.3029
19.2828
19.2669
19.2485
19.2246
19.199
19.1822
19.1644
19.1425
19.1212
19.0991
19.0749
19.0544
19.051
19.0533
19.03
19.0004
18.9852
18.9674
18.9304
18.8983
18.8903
18.8766
18.8417
18.8146
18.7993
18.7881
18.7781
18.7461
18.7197
18.7055
18.691
18.6758
18.6587
18.6381
18.6208
18.6195
18.611
18.5958
18.5993
18.613
18.6171
18.6404
18.6819
18.7388
18.8295
18.9162
19.0484
19.2871
19.5558
10.6794
10.6009
10.5047
10.383
10.2259
10.041
9.84801
9.65738
9.48007
9.32029
9.18463
9.07402
8.99151
8.93708
8.9124
8.91728
8.95207
9.01747
9.11174
9.2341
9.382
9.55788
9.75756
9.98119
10.2243
10.4889
10.7687
11.0644
11.3697
11.6861
12.0077
12.3357
12.6632
12.9923
13.3177
13.6416
13.9594
14.2726
14.5766
14.8752
15.1656
15.4491
15.721
15.9861
16.2423
16.4907
16.7273
16.9567
17.1762
17.3876
17.5895
17.7836
17.9664
18.1408
18.3053
18.4617
18.6105
18.7541
18.8906
19.0187
19.138
19.2513
19.3578
19.4587
19.5535
19.6447
19.7297
19.809
19.8829
19.9523
20.0163
20.074
20.1252
20.1716
20.2118
20.2442
20.2694
20.289
20.3035
20.3154
20.3224
20.3239
20.3224
20.3179
20.3108
20.303
20.2924
20.2778
20.2623
20.2475
20.2333
20.217
20.1969
20.1782
20.1596
20.1359
20.1122
20.0891
20.0629
20.0351
20.0085
19.9835
19.9575
19.9281
19.8976
19.8714
19.8454
19.8172
19.7908
19.7637
19.7358
19.713
19.6908
19.6632
19.6365
19.6162
19.5971
19.5769
19.5545
19.5346
19.5146
19.4907
19.4672
19.4432
19.4224
19.401
19.3839
19.3729
19.3535
19.3255
19.2956
19.275
19.2593
19.2421
19.2193
19.1944
19.1768
19.1591
19.1385
19.1181
19.0974
19.0734
19.0512
19.0462
19.0482
19.0262
18.9964
18.9791
18.9629
18.9298
18.8967
18.8858
18.8745
18.8419
18.8133
18.7957
18.7835
18.7742
18.7455
18.7195
18.7033
18.6871
18.6726
18.6566
18.6353
18.6181
18.6151
18.6085
18.5936
18.5927
18.6051
18.6108
18.6313
18.6661
18.7192
18.804
18.8772
18.9864
19.1755
19.3546
10.3417
10.2387
10.1141
9.97065
9.80961
9.63729
9.46623
9.30239
9.15353
9.02144
8.91093
8.82216
8.75796
8.71846
8.70526
8.71846
8.75884
8.82764
8.92398
9.04823
9.19813
9.37559
9.57686
9.8022
10.047
10.3129
10.5945
10.8926
11.2003
11.5189
11.8428
12.1728
12.5022
12.8329
13.1596
13.4845
13.8034
14.1179
14.4234
14.7228
15.0136
15.2983
15.5733
15.8416
16.1002
16.3513
16.5922
16.8254
17.0487
17.2635
17.4687
17.6657
17.8522
18.0303
18.1994
18.3608
18.5141
18.6601
18.798
18.9283
19.0501
19.1649
19.2726
19.3741
19.4691
19.5591
19.6429
19.7214
19.7953
19.8652
19.9303
19.9902
20.045
20.0943
20.1373
20.1731
20.2023
20.2256
20.2437
20.2578
20.2672
20.2718
20.2727
20.2705
20.2656
20.2589
20.2494
20.2363
20.2226
20.2094
20.1962
20.1815
20.1638
20.1454
20.1262
20.104
20.0812
20.0586
20.0339
20.008
19.9828
19.9579
19.9318
19.9039
19.8756
19.8491
19.8236
19.797
19.7709
19.7452
19.7194
19.696
19.6733
19.6482
19.6233
19.6028
19.5831
19.5629
19.5426
19.5229
19.5021
19.479
19.4561
19.4337
19.4141
19.3946
19.3765
19.3606
19.3406
19.3154
19.2888
19.2678
19.2504
19.2327
19.2116
19.1891
19.1706
19.1525
19.1329
19.1129
19.0932
19.072
19.0525
19.0437
19.0386
19.0196
18.9934
18.9727
18.9543
18.927
18.8973
18.8805
18.8669
18.8403
18.8128
18.7936
18.7797
18.7668
18.7428
18.7191
18.7016
18.684
18.6682
18.6521
18.6322
18.6162
18.6084
18.602
18.5904
18.5857
18.5937
18.6023
18.6197
18.6477
18.6942
18.7636
18.8271
18.9145
19.0508
19.1609
9.86806
9.76223
9.63662
9.4977
9.34992
9.19732
9.04932
8.90949
8.78417
8.67415
8.58325
8.51133
8.46119
8.43303
8.4289
8.44961
8.49611
8.56988
8.67058
8.79929
8.95398
9.13621
9.34252
9.57396
9.82565
10.0987
10.3872
10.692
11.0068
11.3324
11.6624
11.9979
12.3326
12.6687
13.0001
13.3289
13.651
13.9687
14.2776
14.5807
14.8753
15.1638
15.443
15.7152
15.9776
16.2323
16.4766
16.7132
16.9398
17.1583
17.3668
17.5669
17.7572
17.9391
18.1119
18.277
18.4332
18.5816
18.7215
18.8539
18.9779
19.0944
19.2036
19.3062
19.4019
19.4914
19.5749
19.6531
19.7263
19.7952
19.8598
19.9201
19.9761
20.0267
20.0711
20.1093
20.1416
20.1677
20.1885
20.2047
20.2164
20.2237
20.2269
20.2263
20.2229
20.2172
20.2087
20.1975
20.1851
20.1729
20.1613
20.1481
20.1321
20.1139
20.0943
20.0733
20.0517
20.0295
20.0062
19.9818
19.9574
19.9323
19.9065
19.8799
19.853
19.827
19.8019
19.7765
19.7513
19.727
19.7028
19.6793
19.6564
19.6327
19.6098
19.589
19.5684
19.5482
19.5289
19.5095
19.4891
19.4676
19.446
19.425
19.4048
19.3855
19.3669
19.3487
19.3287
19.3056
19.2817
19.2604
19.2415
19.2234
19.2041
19.1834
19.1644
19.1467
19.1281
19.1088
19.0898
19.0706
19.0528
19.04
19.0291
19.0118
18.989
18.9672
18.9471
18.9229
18.8963
18.8761
18.86
18.8376
18.8122
18.7921
18.7762
18.7604
18.7394
18.7177
18.6993
18.6812
18.664
18.6471
18.6288
18.6133
18.6025
18.5944
18.5849
18.5791
18.5828
18.5903
18.6039
18.6265
18.6637
18.7164
18.7707
18.8371
18.9271
18.9874
9.32871
9.22875
9.10963
8.98166
8.85079
8.71852
8.59191
8.47326
8.36775
8.27539
8.1997
8.1405
8.10094
8.08151
8.08445
8.11112
8.16302
8.24194
8.3479
8.48259
8.64412
8.83427
9.04954
9.2907
9.55275
9.83685
10.1368
10.4528
10.7786
11.1149
11.4552
11.8003
12.1439
12.4881
12.827
13.1626
13.4909
13.8144
14.1294
14.4386
14.7386
15.0323
15.3167
15.5935
15.8602
16.119
16.3674
16.6077
16.8378
17.0595
17.2713
17.4747
17.6684
17.8537
18.0297
18.1976
18.3565
18.5074
18.6496
18.7842
18.9103
19.0286
19.1393
19.243
19.3396
19.4298
19.5139
19.5925
19.6657
19.7344
19.7987
19.8591
19.9154
19.9666
20.012
20.0517
20.0857
20.1138
20.1368
20.1548
20.1682
20.1774
20.1827
20.1839
20.1816
20.1767
20.1696
20.16
20.1485
20.1375
20.1274
20.1156
20.1006
20.0827
20.0633
20.0438
20.0231
20.0015
19.9793
19.9562
19.9323
19.9074
19.8823
19.8571
19.831
19.8055
19.7813
19.7568
19.7325
19.7092
19.6859
19.6629
19.6404
19.6178
19.5962
19.5756
19.5547
19.5341
19.5151
19.4965
19.4771
19.4566
19.4357
19.4151
19.3945
19.3753
19.3568
19.3377
19.3176
19.2961
19.2742
19.2532
19.2337
19.2153
19.1973
19.1777
19.1589
19.1418
19.124
19.1053
19.0869
19.0683
19.0507
19.0355
19.0214
19.0046
18.9839
18.9624
18.9416
18.9186
18.8939
18.8724
18.855
18.8345
18.8107
18.7904
18.7728
18.7554
18.736
18.7157
18.6967
18.6782
18.66
18.6424
18.625
18.6095
18.597
18.5866
18.5775
18.5716
18.5712
18.5751
18.5846
18.6019
18.6292
18.6679
18.7108
18.7569
18.8092
18.8313
8.74756
8.65491
8.54152
8.42381
8.30845
8.19437
8.08633
7.98496
7.89496
7.81608
7.75169
7.70153
7.66912
7.65548
7.66336
7.69452
7.75074
7.83483
7.94721
8.08975
8.26047
8.46112
8.68848
8.94358
9.22053
9.52013
9.83599
10.1679
10.509
10.8603
11.215
11.5736
11.9296
12.2851
12.6347
12.9803
13.3177
13.6498
13.9731
14.2902
14.5974
14.8975
15.1877
15.4699
15.7417
16.0051
16.2576
16.5017
16.7355
16.9608
17.176
17.3827
17.5796
17.7681
17.947
18.1178
18.2792
18.4324
18.5769
18.7137
18.8417
18.9617
19.0739
19.1789
19.2766
19.3678
19.4528
19.5319
19.6056
19.6747
19.7394
19.8002
19.8568
19.9086
19.9546
19.9954
20.0309
20.0607
20.0853
20.1046
20.1191
20.1299
20.1371
20.1402
20.1394
20.1356
20.1298
20.1213
20.1111
20.1013
20.0922
20.0814
20.0674
20.0507
20.0322
20.0137
19.9937
19.9729
19.9521
19.9302
19.9069
19.8826
19.858
19.8338
19.8089
19.7842
19.7606
19.7373
19.7141
19.6916
19.6692
19.647
19.625
19.6031
19.5822
19.562
19.5415
19.5211
19.5024
19.4842
19.4651
19.4455
19.4254
19.405
19.384
19.3647
19.3466
19.3275
19.3075
19.2873
19.2666
19.2462
19.2269
19.2086
19.1914
19.1728
19.1539
19.1371
19.1201
19.1021
19.0839
19.0655
19.0478
19.0312
19.0153
18.9982
18.9789
18.9582
18.9369
18.9143
18.8911
18.8697
18.8516
18.8312
18.8083
18.7885
18.7699
18.7516
18.7328
18.7134
18.6941
18.6752
18.6562
18.6381
18.6209
18.6053
18.5914
18.579
18.5691
18.5623
18.5581
18.5581
18.5636
18.575
18.5932
18.6195
18.6493
18.6765
18.6987
18.6907
8.12876
8.04249
7.93276
7.82343
7.72081
7.62087
7.52657
7.43761
7.35787
7.28697
7.22885
7.18335
7.15428
7.14288
7.15276
7.18652
7.24625
7.33509
7.45429
7.60633
7.78905
8.00426
8.24811
8.52144
8.81821
9.13852
9.4754
9.82831
10.1899
10.5613
10.9351
11.3113
11.6838
12.0546
12.4182
12.7767
13.1259
13.4691
13.8028
14.1293
14.445
14.7527
15.0494
15.3377
15.615
15.8835
16.1406
16.3889
16.6269
16.8562
17.075
17.2851
17.4853
17.6771
17.8592
18.0329
18.197
18.3528
18.4998
18.6387
18.7685
18.8903
19.0043
19.1107
19.2095
19.302
19.3881
19.468
19.5424
19.6122
19.6775
19.7388
19.7957
19.8477
19.8945
19.9366
19.9735
20.0047
20.0306
20.0512
20.0673
20.0795
20.0879
20.0927
20.0935
20.0911
20.0868
20.0801
20.0712
20.0624
20.0541
20.0443
20.0318
20.0165
19.9995
19.9817
19.9624
19.9425
19.923
19.9025
19.88
19.8564
19.8327
19.8093
19.7855
19.7621
19.7395
19.7174
19.6951
19.6732
19.6517
19.6303
19.609
19.5879
19.5678
19.548
19.5279
19.5081
19.49
19.4718
19.4529
19.434
19.4147
19.3949
19.3737
19.3541
19.3363
19.3176
19.2979
19.2786
19.2589
19.239
19.2203
19.2027
19.1861
19.1681
19.1493
19.1327
19.1162
19.0983
19.0802
19.0622
19.0448
19.0274
19.0101
18.9925
18.9738
18.954
18.9326
18.9104
18.8884
18.8673
18.8485
18.8278
18.8059
18.7863
18.7673
18.7486
18.7301
18.7111
18.6914
18.6718
18.6523
18.6337
18.6165
18.6005
18.5854
18.5712
18.5598
18.5512
18.5435
18.54
18.5415
18.5467
18.5566
18.571
18.5874
18.5978
18.5959
18.5641
7.47176
7.38987
7.28149
7.17734
7.08279
6.99129
6.90432
6.8207
6.74463
6.67531
6.61706
6.57009
6.53899
6.52531
6.53332
6.56688
6.62904
6.72351
6.85155
7.01588
7.21438
7.44862
7.71427
8.01202
8.33483
8.68216
9.04664
9.42742
9.81598
10.2127
10.6104
11.009
11.402
11.7921
12.1735
12.5484
12.9122
13.2688
13.6148
13.9519
14.2769
14.5932
14.8975
15.1926
15.476
15.75
16.0122
16.2652
16.5077
16.7412
16.9641
17.1781
17.382
17.5772
17.7627
17.9395
18.1066
18.2653
18.4149
18.5561
18.6884
18.8125
18.9284
19.0366
19.1372
19.231
19.3183
19.3995
19.4749
19.5454
19.6114
19.6731
19.7302
19.7827
19.8302
19.8732
19.9115
19.944
19.971
19.9932
20.011
20.0246
20.0344
20.0408
20.0432
20.0423
20.0396
20.0347
20.0274
20.0195
20.0125
20.0043
19.9934
19.9792
19.963
19.9463
19.9285
19.9099
19.8918
19.8726
19.8508
19.828
19.8056
19.7833
19.7606
19.7382
19.7168
19.6959
19.6748
19.6539
19.633
19.6121
19.5916
19.5716
19.5525
19.5332
19.5135
19.4944
19.4767
19.4586
19.4402
19.4215
19.4028
19.3839
19.3632
19.3439
19.3259
19.3074
19.2883
19.2699
19.2513
19.2319
19.2139
19.1971
19.1807
19.1631
19.145
19.1287
19.1122
19.0941
19.0758
19.0586
19.0416
19.0239
19.0058
18.9876
18.9689
18.9496
18.9285
18.9068
18.8857
18.8648
18.8454
18.8249
18.8042
18.7844
18.7648
18.7461
18.7279
18.7089
18.6886
18.6684
18.6486
18.6293
18.6121
18.5954
18.5791
18.5632
18.55
18.5392
18.5283
18.5214
18.5186
18.518
18.5198
18.5229
18.5263
18.5219
18.5007
18.4503
6.77684
6.69733
6.58707
6.48261
6.3893
6.29897
6.21158
6.12491
6.04378
5.96754
5.90106
5.84471
5.80419
5.78208
5.78385
5.81433
5.87773
5.9782
6.11736
6.29808
6.51796
6.77874
7.07481
7.4058
7.76366
8.14681
8.54681
8.96256
9.38485
9.81375
10.2415
10.668
11.0862
11.4995
11.9018
12.2958
12.6773
13.0494
13.4087
13.7578
14.0933
14.4187
14.7313
15.0338
15.3237
15.6037
15.8715
16.1298
16.3771
16.6152
16.8425
17.0608
17.2686
17.4676
17.6567
17.837
18.0075
18.1693
18.3217
18.4657
18.6008
18.7275
18.8457
18.9562
19.0589
19.1547
19.2435
19.3261
19.403
19.4745
19.5411
19.6034
19.6612
19.7143
19.7622
19.8058
19.8451
19.879
19.9071
19.9307
19.9502
19.9653
19.9764
19.9841
19.9885
19.9895
19.9884
19.9851
19.9793
19.9731
19.9672
19.9604
19.951
19.9383
19.9234
19.908
19.8919
19.8749
19.858
19.8401
19.8195
19.7978
19.7765
19.7553
19.7338
19.7125
19.6922
19.6724
19.6524
19.6326
19.6125
19.5923
19.5727
19.554
19.5358
19.5169
19.4977
19.4797
19.4625
19.4445
19.4264
19.4079
19.3899
19.3717
19.352
19.3334
19.3149
19.2964
19.2785
19.2613
19.2433
19.2247
19.2073
19.1911
19.1752
19.1581
19.1407
19.1242
19.1078
19.0897
19.0714
19.0547
19.0381
19.0201
19.0017
18.9832
18.9644
18.9451
18.9244
18.9033
18.8827
18.8621
18.8427
18.8225
18.8025
18.7825
18.7625
18.7438
18.7255
18.7065
18.6859
18.6651
18.6448
18.625
18.6075
18.5902
18.5724
18.5549
18.5398
18.5265
18.5128
18.5023
18.495
18.4888
18.4828
18.4758
18.4675
18.4499
18.4129
18.3477
6.04842
5.97069
5.85668
5.74677
5.64646
5.54668
5.44767
5.3467
5.2492
5.15421
5.06813
4.9919
4.93259
4.89402
4.88352
4.90678
4.96985
5.0782
5.23295
5.43675
5.68663
5.98398
6.32173
6.69768
7.10222
7.5332
7.98049
8.44115
8.90502
9.37275
9.83621
10.2955
10.7436
11.1836
11.61
12.0256
12.426
12.815
13.1887
13.5504
13.897
14.2323
14.5535
14.8636
15.1604
15.4469
15.7208
15.9846
16.237
16.4799
16.7119
16.9346
17.1467
17.3497
17.5425
17.7266
17.9007
18.0658
18.2215
18.3688
18.507
18.6365
18.7575
18.8707
18.9759
19.0739
19.1647
19.2491
19.3276
19.4005
19.4685
19.5318
19.59
19.6433
19.6919
19.7362
19.7761
19.8106
19.8401
19.8653
19.8861
19.9025
19.915
19.9241
19.9305
19.934
19.9349
19.9331
19.9292
19.9246
19.9201
19.9143
19.9061
19.8952
19.8819
19.8681
19.8536
19.8383
19.8228
19.8062
19.7869
19.7664
19.7459
19.7254
19.705
19.6847
19.6657
19.647
19.6281
19.6094
19.5905
19.5715
19.5532
19.5353
19.5178
19.4997
19.4812
19.4637
19.4469
19.4295
19.4118
19.3936
19.3762
19.3587
19.3398
19.3216
19.3032
19.2852
19.2686
19.252
19.2345
19.2173
19.2009
19.185
19.1694
19.1529
19.1358
19.1194
19.1034
19.0854
19.0669
19.0507
19.0341
19.016
18.9977
18.9791
18.9599
18.9407
18.9205
18.9001
18.8798
18.8593
18.8402
18.8204
18.8008
18.781
18.7608
18.7417
18.7227
18.7038
18.6836
18.6623
18.6412
18.6208
18.6028
18.5847
18.5657
18.5466
18.5293
18.5138
18.4975
18.4834
18.4713
18.4595
18.4464
18.4305
18.4117
18.3822
18.3322
18.2556
5.29892
5.22216
5.10005
4.97732
4.85988
4.73926
4.6165
4.48803
4.36061
4.23258
4.11176
4.00121
3.91035
3.84421
3.81347
3.82527
3.887
4.0057
4.18257
4.41982
4.71329
5.06258
5.45814
5.8954
6.36173
6.85324
7.35859
7.87455
8.38945
8.9036
9.4088
9.90541
10.3866
10.8561
11.3082
11.7465
12.1667
12.5726
12.9609
13.3354
13.6931
14.0381
14.3678
14.6858
14.9896
15.2827
15.5627
15.8322
16.0899
16.338
16.5747
16.802
17.0184
17.2257
17.4227
17.6106
17.7885
17.9575
18.1167
18.2673
18.4087
18.5415
18.6656
18.7817
18.8897
18.9904
19.0836
19.17
19.2502
19.3251
19.3946
19.459
19.5176
19.5712
19.6205
19.6652
19.7059
19.7417
19.7726
19.799
19.8208
19.8387
19.8529
19.8644
19.8732
19.8788
19.8815
19.8814
19.8792
19.8767
19.8738
19.869
19.862
19.8529
19.8413
19.8289
19.8158
19.8014
19.7872
19.7717
19.7537
19.7346
19.7147
19.6945
19.6747
19.6556
19.6381
19.6209
19.6032
19.5856
19.5679
19.5506
19.5336
19.5163
19.4994
19.4825
19.4648
19.4471
19.4302
19.4134
19.3963
19.3785
19.3616
19.3449
19.3266
19.3088
19.2913
19.2742
19.2583
19.2423
19.2259
19.2103
19.1946
19.1787
19.1634
19.1474
19.1306
19.1143
19.0986
19.0807
19.0625
19.0466
19.0298
19.0117
18.9938
18.9748
18.955
18.9362
18.9171
18.8973
18.8769
18.8565
18.8376
18.8183
18.7993
18.7798
18.7592
18.7395
18.7199
18.7012
18.6813
18.6594
18.6376
18.6166
18.5979
18.579
18.5588
18.5382
18.5187
18.5011
18.4823
18.4644
18.4478
18.4306
18.4111
18.3874
18.3587
18.3189
18.2583
18.1729
4.55401
4.47261
4.33509
4.19098
4.04616
3.89235
3.73111
3.55771
3.3816
3.20206
3.02881
2.86614
2.72778
2.62024
2.55829
2.55344
2.61498
2.75109
2.96227
3.2488
3.60416
4.02499
4.49828
5.01672
5.56342
6.13118
6.70664
7.28705
7.86015
8.42589
8.97663
9.51391
10.0308
10.5308
11.0086
11.4688
11.9079
12.3301
12.7322
13.119
13.4872
13.8413
14.1792
14.5045
14.8151
15.1142
15.4002
15.6757
15.9388
16.1919
16.4335
16.6655
16.8865
17.0984
17.2996
17.4916
17.6735
17.8464
18.0093
18.1633
18.308
18.4442
18.5717
18.6906
18.801
18.9043
19.0005
19.0895
19.1717
19.2482
19.319
19.3844
19.4442
19.499
19.549
19.5945
19.6363
19.6736
19.7062
19.7337
19.7563
19.7758
19.7923
19.8062
19.8171
19.8245
19.8291
19.8312
19.8315
19.8306
19.8289
19.8247
19.8188
19.8114
19.802
19.7909
19.7785
19.7649
19.7513
19.7367
19.7205
19.7028
19.6832
19.6637
19.6446
19.6265
19.6102
19.5946
19.5784
19.5622
19.5461
19.5302
19.5141
19.4977
19.4816
19.4653
19.4483
19.4307
19.4133
19.3966
19.3803
19.3632
19.3469
19.3309
19.3134
19.2962
19.2799
19.2643
19.2489
19.2337
19.2186
19.2036
19.1881
19.1723
19.1572
19.1418
19.1257
19.1094
19.0935
19.076
19.0586
19.0425
19.0255
19.0076
18.9896
18.9705
18.9506
18.9322
18.9139
18.8945
18.8743
18.8542
18.8354
18.8166
18.798
18.7786
18.7575
18.7372
18.7177
18.6989
18.6787
18.6564
18.6344
18.6127
18.5931
18.5732
18.552
18.5298
18.5084
18.4888
18.4674
18.4458
18.4251
18.403
18.3775
18.3468
18.3092
18.2603
18.1911
18.0988
3.87044
3.76061
3.60436
3.43248
3.25087
3.05101
2.83547
2.59821
2.35108
2.09599
1.84645
1.60775
1.39952
1.23356
1.1294
1.10296
1.16583
1.32664
1.58597
1.94239
2.38475
2.90303
3.47767
4.09696
4.74102
5.39985
6.05752
6.71052
7.34759
7.96879
8.56679
9.14419
9.69508
10.2236
10.7254
11.2056
11.6614
12.0976
12.5114
12.9082
13.2856
13.6478
13.9929
14.325
14.6418
14.9466
15.238
15.519
15.7874
16.0456
16.2921
16.5289
16.7546
16.9709
17.1764
17.3725
17.5581
17.7346
17.9011
18.0588
18.207
18.3463
18.4769
18.5988
18.7121
18.818
18.9166
19.0081
19.0926
19.1709
19.2434
19.3105
19.372
19.4283
19.4796
19.5263
19.5689
19.6071
19.6407
19.6695
19.6936
19.7145
19.7326
19.7484
19.7612
19.7705
19.7771
19.7817
19.7833
19.7839
19.7834
19.7811
19.7764
19.7701
19.762
19.7519
19.7406
19.7282
19.7153
19.7014
19.6864
19.6697
19.6516
19.6336
19.6158
19.5986
19.5833
19.5688
19.5544
19.54
19.5255
19.5104
19.4946
19.4787
19.4635
19.4483
19.432
19.4146
19.397
19.3801
19.3642
19.3482
19.3329
19.3179
19.3012
19.2847
19.2696
19.2554
19.2406
19.2259
19.2115
19.1967
19.1813
19.1656
19.1509
19.1364
19.1209
19.1046
19.0886
19.0717
19.055
19.0386
19.0214
19.0035
18.985
18.966
18.9467
18.9288
18.9112
18.8919
18.872
18.8523
18.8334
18.815
18.7966
18.7772
18.7561
18.7353
18.7157
18.6965
18.6757
18.6534
18.6314
18.6091
18.5884
18.5674
18.5453
18.5215
18.4985
18.4768
18.4529
18.428
18.4033
18.3766
18.3458
18.3086
18.2635
18.2065
18.1298
18.0326
3.30076
3.12335
2.95379
2.74729
2.51887
2.25913
1.9725
1.65336
1.31412
0.956258
0.602813
0.264455
-0.034121
-0.275811
-0.432803
-0.483167
-0.411609
-0.209754
0.117691
0.565961
1.11877
1.75856
2.45629
3.19316
3.94645
4.70467
5.4504
6.18015
6.88326
7.55976
8.20309
8.81739
9.39813
9.95058
10.4722
10.9682
11.4366
11.8834
12.3062
12.7102
13.0944
13.4627
13.8137
14.1511
14.4736
14.7837
15.0804
15.366
15.6395
15.9024
16.1539
16.395
16.6253
16.8456
17.0556
17.2555
17.4451
17.6249
17.7952
17.9561
18.1076
18.25
18.3837
18.5086
18.6252
18.7336
18.8346
18.9284
19.0154
19.0954
19.1698
19.2385
19.3017
19.3596
19.4126
19.4606
19.5044
19.5436
19.5777
19.6076
19.6333
19.6556
19.6749
19.6917
19.7058
19.7166
19.7255
19.7311
19.7346
19.7364
19.7376
19.7372
19.7342
19.7291
19.7217
19.7124
19.7019
19.6905
19.6785
19.6655
19.6515
19.6361
19.6204
19.6048
19.5887
19.5728
19.5579
19.5441
19.531
19.5182
19.5049
19.4904
19.4747
19.4591
19.4453
19.4317
19.4163
19.3991
19.3812
19.3642
19.3487
19.3336
19.3191
19.3052
19.29
19.2744
19.2604
19.2471
19.2326
19.2179
19.2038
19.1897
19.1747
19.159
19.1444
19.1305
19.1155
19.0999
19.0841
19.0677
19.0514
19.035
19.0175
18.9994
18.9807
18.9621
18.9438
18.9265
18.9088
18.8894
18.8698
18.8507
18.832
18.8136
18.7953
18.776
18.7549
18.7338
18.7139
18.6942
18.6729
18.6506
18.6286
18.6059
18.5838
18.5618
18.5386
18.5138
18.4893
18.4653
18.4392
18.4114
18.383
18.3518
18.3159
18.273
18.2215
18.1579
18.0749
17.9736
2.85872
2.63158
2.44654
2.20302
1.91457
1.57224
1.18961
0.758938
0.302263
-0.179999
-0.659395
-1.12047
-1.5253
-1.85164
-2.0641
-2.13431
-2.04184
-1.78188
-1.36527
-0.804206
-0.123163
0.651558
1.48379
2.3501
3.22123
4.08434
4.92001
5.72555
6.48971
7.21617
7.89803
8.54276
9.14557
9.71543
10.249
10.7553
11.2307
11.6839
12.1112
12.5204
12.9082
13.2812
13.6361
13.9783
14.3047
14.62
14.9211
15.2119
15.4897
15.7578
16.0135
16.2598
16.4939
16.7189
16.9326
17.137
17.3301
17.5143
17.6878
17.8523
18.0068
18.1527
18.2892
18.4174
18.5365
18.6483
18.7511
18.8474
18.9365
19.019
19.0951
19.166
19.2307
19.2903
19.3445
19.3941
19.44
19.4798
19.5157
19.5464
19.5742
19.5968
19.6174
19.6343
19.6488
19.6615
19.6722
19.6797
19.6836
19.6874
19.6902
19.691
19.6896
19.6863
19.681
19.6722
19.6617
19.6513
19.6407
19.6291
19.6163
19.602
19.5887
19.5762
19.5626
19.5481
19.5337
19.5203
19.5078
19.4956
19.4831
19.4697
19.4536
19.4385
19.427
19.4145
19.4006
19.3843
19.3657
19.3487
19.3337
19.3189
19.305
19.2927
19.2794
19.2649
19.2517
19.239
19.2245
19.2095
19.1955
19.1827
19.1688
19.1528
19.138
19.124
19.1094
19.0953
19.08
19.0638
19.0479
19.0313
19.0138
18.9958
18.9772
18.9589
18.9415
18.925
18.9073
18.8874
18.868
18.8497
18.831
18.8126
18.7942
18.775
18.7539
18.7326
18.7121
18.6918
18.6704
18.6482
18.6259
18.6028
18.5798
18.5565
18.5322
18.5067
18.4807
18.4545
18.4262
18.3959
18.3641
18.3286
18.2882
18.2407
18.1835
18.1139
18.0257
17.9211
2.75136
2.50959
2.29827
2.0007
1.62762
1.17971
0.676918
0.114104
-0.485543
-1.11364
-1.73151
-2.32098
-2.83804
-3.24712
-3.50664
-3.58696
-3.46662
-3.14783
-2.64636
-1.97968
-1.17702
-0.270308
0.697052
1.69154
2.67788
3.63912
4.55553
5.42374
6.23499
6.99453
7.69933
8.35843
8.97052
9.54503
10.0809
10.5872
11.0625
11.5151
11.9426
12.3519
12.7409
13.1155
13.4728
13.8178
14.1476
14.4665
14.7718
15.0669
15.3491
15.6218
15.8823
16.1329
16.3711
16.6005
16.8184
17.0266
17.223
17.4111
17.588
17.7561
17.9131
18.0623
18.2014
18.3315
18.4545
18.5686
18.675
18.7718
18.8636
18.9469
19.0259
19.0992
19.1666
19.2261
19.2805
19.3315
19.3781
19.4205
19.4568
19.4901
19.5186
19.5429
19.5634
19.5814
19.5943
19.6077
19.6219
19.6306
19.6355
19.6405
19.6446
19.6463
19.6458
19.6448
19.6424
19.6336
19.6226
19.6135
19.6045
19.5945
19.5838
19.57
19.5577
19.5477
19.5368
19.5245
19.5111
19.4982
19.4861
19.4745
19.463
19.4512
19.4337
19.4191
19.41
19.3974
19.3851
19.3709
19.3518
19.335
19.3206
19.3053
19.2923
19.2813
19.269
19.2559
19.2436
19.2315
19.2175
19.202
19.1874
19.1758
19.164
19.1481
19.1328
19.1186
19.104
19.0913
19.0762
19.0601
19.045
19.028
19.0108
18.9935
18.9748
18.9562
18.9394
18.9242
18.9067
18.8862
18.8671
18.8495
18.8308
18.812
18.7934
18.7741
18.7532
18.7319
18.7108
18.6899
18.6684
18.6462
18.6235
18.6
18.5764
18.552
18.5266
18.5001
18.4729
18.4448
18.4145
18.3817
18.3469
18.3074
18.2631
18.2117
18.1497
18.0743
17.9818
17.8749
3.09762
2.83637
2.58184
2.21003
1.73907
1.18056
0.554158
-0.142659
-0.883458
-1.65477
-2.41042
-3.12327
-3.74637
-4.23783
-4.55124
-4.65542
-4.52759
-4.17283
-3.60689
-2.84584
-1.92688
-0.894962
0.196397
1.30295
2.38362
3.41809
4.38901
5.29436
6.1293
6.90059
7.60941
8.26617
8.8731
9.44013
9.96868
10.4672
10.9364
11.3832
11.807
12.2135
12.6014
12.9756
13.3338
13.6806
14.0131
14.335
14.6437
14.9424
15.2284
15.5055
15.77
16.0239
16.2677
16.4996
16.7232
16.9331
17.1346
17.3241
17.5054
17.6757
17.8361
17.9861
18.1289
18.2623
18.3856
18.5033
18.6104
18.711
18.8028
18.8888
18.967
19.0432
19.1115
19.1734
19.2279
19.2799
19.3283
19.3699
19.4073
19.4408
19.4708
19.4951
19.5178
19.5377
19.5503
19.5642
19.5781
19.5869
19.592
19.5981
19.6044
19.6068
19.6058
19.6068
19.607
19.5985
19.5876
19.5796
19.5711
19.5623
19.5547
19.5424
19.5319