/*--------------------------------*- C++ -*----------------------------------*\
  =========                 |
  \\      /  F ield         | OpenFOAM: The Open Source CFD Toolbox
   \\    /   O peration     | Website:  https://openfoam.org
    \\  /    A nd           | Version:  9
     \\/     M anipulation  |
\*---------------------------------------------------------------------------*/
FoamFile
{
    format      ascii;
    class       volScalarField::Internal;
    location    "15";
    object      tmp<kEpsilon:G>;
}
// * * * * * * * * * * * * * * * * * * * * * * * * * * * * * * * * * * * * * //

dimensions      [0 2 -3 0 0 0 0];

value           nonuniform List<scalar> 
12225
(
0
0
0
0
0
0
0
0
0
0
0
0
0
0
0
0
0
0
949.842
501.154
277.922
287.217
387.397
506.459
619.105
741.563
858.547
956.137
1039.74
1100.68
1163.36
1238.8
1355.67
1624.98
2253.3
3510.22
85.2566
123.324
56.8881
18.6737
5.70668
4.60083
9.23568
19.4649
35.6051
58.1308
85.4263
113.527
142.281
168.956
205.055
245.012
354.646
412.32
5.28554
1.40074
0.768595
0.791029
0.420154
0.149785
0.0678233
0.477455
1.81672
4.68111
9.65588
16.9448
27.0344
41.2527
63.5468
94.6925
143.661
176.289
0.172138
0.0805281
0.107756
0.162408
0.207251
0.251733
0.161975
0.0559097
0.107394
0.460569
1.40149
3.22877
6.44622
12.3928
23.2057
39.7984
64.2332
95.6682
0.147102
0.120993
0.0495777
0.0470209
0.136706
0.220093
0.17146
0.0828725
0.0549525
0.139996
0.455797
1.13189
2.52408
5.49853
11.3253
21.0063
35.7294
57.6145
0.128437
0.155886
0.0787955
0.0472398
0.0890749
0.142091
0.109171
0.0480705
0.0278323
0.0857106
0.287695
0.746885
1.69076
3.64123
7.37611
13.8329
23.7058
39.1693
0.114493
0.126413
0.0751744
0.0420649
0.0545187
0.0813862
0.0588032
0.017649
0.00881098
0.067995
0.241495
0.638276
1.45112
3.03056
5.73227
10.4599
17.7753
29.6144
0.0999849
0.0957185
0.0636292
0.0394998
0.045187
0.0550568
0.035909
0.00662815
0.00653372
0.0687724
0.236241
0.620179
1.38492
2.76574
5.15574
9.05026
14.6505
23.7946
0.0879935
0.076171
0.0542897
0.0370586
0.0461911
0.0484192
0.0307072
0.0119458
0.0230663
0.0937475
0.271329
0.655336
1.3786
2.62375
4.66102
8.01377
12.5165
19.5923
0.0763506
0.0702823
0.0461298
0.018717
0.0231676
0.0307565
0.0276355
0.0309777
0.068168
0.165439
0.365684
0.745049
1.41013
2.50377
4.25735
7.00947
10.6516
16.1241
0.0673458
0.0569437
0.0433307
0.0218009
0.0256884
0.0314249
0.0340033
0.0445114
0.0859324
0.182655
0.377352
0.719071
1.29875
2.22678
3.67088
5.85888
8.75983
12.7505
0.0520512
0.0397451
0.0513635
0.0560083
0.0580913
0.0472177
0.0409604
0.0509297
0.0868492
0.174428
0.345824
0.652032
1.15267
1.95454
3.14675
4.91868
7.1765
10.0531
0.0323812
0.035007
0.0426428
0.0617344
0.0717353
0.0540097
0.0450302
0.0611125
0.108125
0.204539
0.376746
0.665022
1.11293
1.79273
2.75748
4.16468
5.84148
7.97088
0.0218919
0.0384015
0.0351855
0.0525317
0.0753023
0.0641937
0.0541239
0.0713114
0.117131
0.199342
0.349794
0.59372
0.96147
1.51442
2.25267
3.31671
4.6117
5.88477
0.0177281
0.0396819
0.0357599
0.0495121
0.0747245
0.0822076
0.0820492
0.105806
0.15237
0.229114
0.347069
0.529604
0.798296
1.20106
1.7179
2.45294
3.30198
4.25994
0.0134893
0.0307025
0.0332127
0.0485204
0.0628028
0.0738349
0.0907898
0.130527
0.191853
0.271925
0.374933
0.519229
0.710243
0.985717
1.30225
1.81402
2.38886
3.05358
0.0102013
0.0203932
0.0313673
0.0506088
0.0618979
0.0604308
0.0777033
0.122653
0.193015
0.269118
0.38334
0.515974
0.654483
0.822964
1.01922
1.2864
1.61214
2.07859
0.00496002
0.0113137
0.0311119
0.0554042
0.0700201
0.0638236
0.0741861
0.113364
0.171125
0.231561
0.291055
0.351266
0.41539
0.500768
0.603716
0.744566
0.945779
1.25685
0.00120656
0.00788237
0.0317896
0.056236
0.0670002
0.0621528
0.0716431
0.104692
0.144396
0.174835
0.197942
0.221512
0.246048
0.280465
0.323222
0.391342
0.500443
0.641397
0.000997522
0.0104223
0.0403101
0.0607095
0.065714
0.0653763
0.0778571
0.109687
0.140373
0.158085
0.16678
0.175335
0.183103
0.196547
0.215731
0.24462
0.309303
0.370955
0.00305884
0.0164756
0.0534878
0.0664728
0.0691607
0.0758165
0.0924862
0.121294
0.142104
0.147822
0.145696
0.143225
0.139
0.138025
0.139138
0.148465
0.182933
0.214232
0.00765502
0.0277534
0.0720275
0.0742561
0.0717818
0.0820288
0.100428
0.125435
0.137473
0.132198
0.123024
0.112478
0.101668
0.0925563
0.0866624
0.085161
0.106354
0.121589
0.0156549
0.050193
0.101698
0.0912879
0.0871882
0.103844
0.127507
0.148621
0.150129
0.135344
0.118268
0.10153
0.0853597
0.0710198
0.0604818
0.0506317
0.0636191
0.0745367
0.0338917
0.0781196
0.107197
0.0882022
0.0964213
0.133694
0.17294
0.192623
0.180949
0.150429
0.12313
0.097431
0.0730454
0.0519899
0.0388624
0.0323104
0.0545648
0.132106
0.0538148
0.152557
0.0668324
0.032598
0.0592618
0.148448
0.225608
0.243929
0.20427
0.144522
0.0946262
0.0549728
0.0338103
0.0502046
0.120586
0.265712
0.515099
0.980736
0.749789
0.104429
0.15813
0.283618
0.2442
0.21771
0.206298
0.137668
0.0490115
0.00919124
0.0872668
0.35864
0.91729
1.83443
3.10476
4.7595
6.80645
9.24097
32.0696
71.8006
43.7291
19.8034
8.57785
3.8646
1.97106
1.56906
2.46315
5.00317
9.48465
15.8313
23.7136
32.635
41.5853
50.5262
59.0992
67.3357
456.547
257.377
111.255
78.4553
94.8175
128.289
164.784
201.33
237.774
274.227
309.104
340.269
364.519
382.942
395.025
403.054
409.165
412.473
0
0
0
0
0
0
0
0
0
0
0
0
0
0
0
0
0
0
0
0
0
4.77189
8.06105
14.0327
20.1417
27.3976
34.8201
42.6405
50.1206
57.5907
64.3945
70.9813
76.7995
82.2746
86.9885
91.2057
94.7099
97.5073
99.7238
101.385
102.852
103.632
104.156
104.123
103.887
102.62
101.083
98.7204
97.0364
93.8927
91.9286
88.8445
85.6234
82.0067
78.2748
73.4708
70.0127
65.7485
61.9922
57.7748
54.0113
50.069
45.9957
42.0555
38.1701
34.2156
30.6205
26.7061
22.8674
19.2052
15.6982
11.7012
7.88174
5.0545
4.78329
7.09954
10.4755
13.6867
16.8805
19.5521
21.9609
23.8307
25.4728
26.6742
27.9002
29.0802
30.0563
31.2649
32.7552
34.1327
35.6703
37.601
38.7486
41.0064
44.0483
45.1147
47.5909
50.0918
50.8578
52.2918
54.0415
55.8293
57.569
59.4876
61.2751
64.871
66.2004
69.4761
70.1337
74.8663
76.1608
77.8154
82.1368
87.0767
86.7892
87.505
88.4322
91.9707
91.6909
95.0642
95.9932
99.3648
99.1322
100.741
102.27
108.429
108.777
112.226
115.655
114.309
115.083
115.753
117.232
121.258
123.811
126.422
125.094
127.743
127.915
128.924
133.231
132.431
135.369
138.166
138.153
143.357
142.534
145.702
147.365
149.374
147.269
149.958
148.629
149.182
151.855
154.491
154.33
156.524
157.695
159.907
158.005
158.001
159.17
160.062
165.955
165.037
165.917
169.654
167.565
168.106
172.012
170.066
170.765
171.176
172.158
175.109
178.408
175.988
176.371
176.365
179.103
183.562
180.912
182.806
179.658
179.029
178.113
177.764
178.75
179.742
175.849
174.127
174.091
168.644
164.727
161.316
155.719
139.081
0
45.7529
53.148
63.3393
62.3903
63.8572
57.6173
48.4047
37.9112
28.134
20.2181
14.8634
12.1577
11.8378
13.3607
16.2025
19.8178
23.8259
27.9235
31.9553
35.7737
39.6872
43.7976
48.1133
52.757
57.6845
62.9121
68.3359
73.7567
79.1861
84.6824
90.0921
95.3982
100.335
105.082
109.357
113.541
117.306
120.556
123.613
126.191
128.986
131.296
134.25
136.567
140.968
144.995
149.695
150.993
153.608
153.367
154.938
151.851
145.98
137.933
132.649
126.366
121.408
116.615
113.449
111.126
109.828
107.933
105.847
102.995
99.3816
94.6358
89.532
83.8185
77.9791
72.2251
67.5675
62.8961
59.206
55.8688
53.1091
50.8826
48.634
46.8277
45.1994
43.9394
42.9448
41.971
40.4211
38.6768
38.4656
37.1809
36.2428
36.6989
36.5718
36.3095
35.2866
34.6068
34.5898
34.5394
33.9372
32.8959
32.3423
32.4271
31.9081
31.2604
32.0396
32.0723
31.55
32.0021
31.3014
30.9119
31.3495
31.5714
31.9903
32.6374
31.8784
31.7777
32.2108
32.5657
32.5856
31.8436
32.8233
32.416
32.9312
33.2193
33.837
33.1318
33.9874
33.4234
33.9365
34.0225
33.198
33.7813
34.2459
35.1503
34.9442
35.8504
36.1862
35.228
35.195
35.9454
37.6624
37.675
38.3438
37.3325
37.9836
38.494
39.325
39.9046
39.1039
39.4376
40.5515
40.2269
39.8742
39.7128
40.0076
40.2998
41.0615
42.4618
42.1765
42.0918
43.0526
44.7904
45.8717
46.3142
46.126
47.0703
47.5385
47.6876
47.8828
48.4532
48.8084
50.0728
49.6338
50.4973
51.355
51.4133
53.3373
56.6966
59.7729
63.0021
68.8118
77.4728
100.969
0
95.5415
100.774
89.9174
72.0409
59.5552
47.6783
38.4558
32.0007
27.9588
25.7007
24.5887
23.9883
23.5511
23.0709
22.5729
22.1771
22.0972
22.5929
23.836
26.1172
29.3266
33.457
38.4245
44.1777
50.5904
57.5361
64.8233
72.2657
79.774
87.2131
94.435
101.274
107.643
113.509
118.948
123.806
128.141
131.857
135.101
137.796
140.508
143.115
145.093
145.437
145.055
142.823
139.22
134.351
128.727
122.54
116.234
109.775
104.864
101.596
99.4207
97.3325
95.3931
93.3283
91.4541
89.6169
88.045
86.5068
85.4159
84.3642
83.4727
81.5813
78.7091
74.8339
70.2987
65.2141
60.1213
55.1454
50.6487
46.6269
43.1719
40.1559
37.595
35.298
33.362
31.749
30.3891
29.2135
28.1486
27.1163
26.1973
25.3057
24.4814
23.8236
23.194
22.6626
22.0961
21.6257
21.1251
20.5894
20.1792
19.6257
19.1157
18.6534
18.2374
17.8195
17.5748
17.4149
17.0456
16.9423
16.5569
16.4691
16.2398
16.0716
15.803
15.4807
15.3403
15.168
15.2666
15.2564
15.0186
14.8801
14.7613
14.6961
14.5636
14.5601
14.4074
14.2624
14.0403
14.3988
14.2689
14.3716
14.2434
14.217
14.3058
14.0251
14.1489
14.1902
14.3734
13.9079
13.9853
14.0475
14.379
14.3333
14.4719
14.5184
14.4815
14.3305
14.4429
14.4361
14.3506
14.4382
14.5709
14.6833
14.3962
14.5301
14.6436
15.1875
14.9849
14.9933
14.9802
14.8649
14.9416
15.7161
15.5538
15.9535
16.298
16.3884
16.2475
16.0939
16.0846
15.859
15.9206
16.0729
16.1197
16.2749
16.1841
15.9451
15.8565
16.0136
16.3576
16.7339
17.7295
19.1168
23.4856
0
90.6796
91.3215
75.4976
61.6111
53.0033
46.9759
42.5893
39.0126
35.7813
32.4707
28.9137
25.0609
21.0606
17.0993
13.4341
10.3016
7.93848
6.56676
6.33975
7.39475
9.74727
13.3905
18.2525
24.24
31.2156
38.9872
47.3435
56.0531
64.9021
73.7263
82.1469
90.2525
97.7131
104.557
110.779
116.237
120.849
124.797
128.569
131.752
133.536
133.633
132.562
130.488
127.772
124.535
121.121
117.42
113.579
109.55
105.321
100.822
96.5467
92.7921
89.6283
86.7999
84.2466
81.772
79.3888
77.0437
74.8412
72.6682
70.6545
68.692
66.9023
65.0846
63.1589
61.0486
58.1461
54.6029
50.6256
46.4238
42.3191
38.4848
35.0833
32.0513
29.5849
27.1335
25.3958
23.958
22.7006
21.5894
20.6195
19.7214
18.9051
18.1303
17.369
16.6343
15.9758
15.4286
14.9436
14.4822
14.0296
13.5849
13.15
12.6866
12.2693
11.8598
11.4762
11.0987
10.7548
10.529
10.2524
9.98645
9.70623
9.48402
9.15506
8.97017
8.67328
8.51098
8.27854
8.21481
8.05926
7.8459
7.66255
7.48315
7.4117
7.29507
7.156
6.94846
6.96872
6.81439
6.83375
6.71194
6.70536
6.50227
6.59665
6.47376
6.5346
6.27489
6.24556
6.21502
6.19274
6.14096
5.9992
6.11063
6.05759
6.09827
6.10692
6.1008
5.87963
5.89548
5.77612
5.78432
5.95571
5.83085
5.83071
5.82121
5.88411
5.75909
5.45396
5.62494
5.81806
5.6768
5.51281
5.64215
5.98313
5.76596
5.80602
5.87001
6.11836
6.13645
6.20711
6.05141
6.02107
6.05771
6.09114
6.11179
6.06294
6.23312
6.11335
6.1512
6.43987
6.82797
7.26524
7.94691
8.75046
10.1718
12.9559
0
59.886
67.2188
62.5527
61.0041
61.3216
61.3608
60.1463
57.3353
53.0595
47.5803
41.2981
34.5592
27.7252
21.0881
14.948
9.55471
5.15511
2.02632
0.327081
0.194174
1.68169
4.76493
9.36171
15.3293
22.4738
30.5618
39.3488
48.519
57.7796
66.9459
75.7885
84.0563
91.6801
98.5409
104.511
109.498
113.998
118.008
120.662
121.737
121.577
120.487
118.598
116.154
113.28
110.104
106.759
103.286
99.7401
96.1544
92.532
88.8618
85.2686
81.8903
78.7863
75.9152
73.2388
70.672
68.1811
65.7388
63.3636
61.0206
58.7921
56.651
54.6094
52.7176
50.7947
48.8182
46.7257
44.4809
41.5701
38.2845
34.8848
31.5779
28.5451
25.857
23.5662
21.6072
19.9779
18.6084
17.4354
16.4112
15.5149
14.7113
13.9795
13.2915
12.62
11.9589
11.3669
10.881
10.461
10.0539
9.64597
9.23967
8.84683
8.44619
8.08811
7.74743
7.43112
7.13879
6.87602
6.61127
6.36509
6.10711
5.89491
5.66596
5.45503
5.20487
5.04641
4.85495
4.65145
4.54194
4.41273
4.29476
4.19976
4.0721
3.90203
3.77624
3.72302
3.64153
3.56012
3.45509
3.36528
3.3498
3.25829
3.14935
3.12369
3.08207
3.03621
2.96557
2.90133
2.86287
2.83725
2.79933
2.75559
2.71921
2.68929
2.6491
2.65854
2.63246
2.57064
2.48138
2.45466
2.46969
2.50638
2.4795
2.40843
2.41488
2.38234
2.33378
2.29994
2.34758
2.28756
2.25143
2.18874
2.16013
2.22654
2.23708
2.23064
2.25252
2.30694
2.33039
2.39509
2.34844
2.33012
2.33707
2.35101
2.37147
2.36529
2.4078
2.44535
2.50513
2.75088
2.97952
3.31819
3.83767
4.53588
5.69395
7.76879
0
38.9575
54.736
64.033
73.7813
81.6305
86.0917
86.8699
84.3633
79.3465
72.5557
64.6645
56.1645
47.5034
39.0148
31.0474
23.8959
17.8337
13.2069
10.1568
8.80581
9.29347
11.6046
15.6235
21.1921
28.0555
35.894
44.4551
53.3637
62.4029
71.1496
79.4454
87.0493
93.8686
99.6998
104.463
108.58
112.176
114.307
114.786
114.305
112.989
111
108.543
105.704
102.63
99.3768
96.0594
92.7135
89.3688
86.044
82.7439
79.4836
76.306
73.2606
70.3772
67.6529
65.0705
62.596
60.2
57.8584
55.5612
53.3058
51.1049
48.9594
46.8901
44.9354
42.9956
41.1275
39.3093
37.4547
35.4152
32.7726
29.8753
26.9837
24.2877
21.8909
19.8343
18.0798
16.6046
15.3604
14.2955
13.3685
12.5543
11.825
11.1624
10.5415
9.92817
9.32145
8.77789
8.33927
7.95997
7.5918
7.21115
6.83316
6.47334
6.118
5.79875
5.49017
5.20907
4.95391
4.70974
4.46516
4.24317
4.00501
3.81128
3.60506
3.41694
3.2294
3.05912
2.90463
2.76451
2.66012
2.53218
2.44073
2.31774
2.22495
2.13411
2.02633
1.94666
1.87481
1.80621
1.74485
1.66284
1.59225
1.53998
1.50268
1.42778
1.3992
1.36216
1.31649
1.27796
1.24255
1.23287
1.20746
1.16009
1.13014
1.0954
1.07182
1.06586
1.04392
1.0009
0.993611
0.968845
0.951269
0.954361
0.937381
0.894485
0.908183
0.877797
0.845016
0.821497
0.811637
0.801074
0.777945
0.772046
0.769925
0.798383
0.773931
0.764284
0.764923
0.753545
0.772716
0.782663
0.785984
0.790827
0.803048
0.799797
0.812713
0.822373
0.866916
0.914832
0.98524
1.11159
1.27474
1.54227
1.93526
2.47926
3.30297
4.62369
0
27.9676
53.6714
74.244
92.4177
105.725
113.679
116.69
115.552
111.284
104.741
96.7017
87.7053
78.2304
68.6393
59.3404
50.6914
43.0114
36.8058
32.171
29.2109
28.26
29.3579
32.3137
37.0227
43.1134
50.2336
58.1038
66.2142
74.293
82.0267
89.2048
95.6279
101.134
105.525
108.977
111.851
113.582
113.745
112.809
111.132
108.84
106.177
102.961
99.5474
95.9549
92.4943
89.0595
85.6952
82.4061
79.1992
76.0819
73.0594
70.1437
67.3557
64.7016
62.1774
59.7717
57.4682
55.2453
53.0832
50.9666
48.8853
46.8479
44.8503
42.9245
41.0311
39.1726
37.4071
35.7253
34.1196
32.4964
30.3809
27.7966
25.1104
22.5432
20.2396
18.2546
16.5707
15.1506
13.9438
12.9225
12.0476
11.2878
10.6133
10.0014
9.42742
8.85696
8.29469
7.79056
7.38761
7.04064
6.69946
6.3468
5.99919
5.66957
5.34682
5.04992
4.75755
4.49713
4.24766
4.01238
3.77737
3.55561
3.3328
3.1439
2.94705
2.77311
2.59227
2.44292
2.27701
2.15163
2.03045
1.88939
1.79491
1.66748
1.58428
1.48257
1.40696
1.33417
1.25646
1.18161
1.10917
1.03842
0.9689
0.910656
0.859291
0.802751
0.752835
0.719823
0.684561
0.647995
0.602075
0.577441
0.555641
0.523664
0.50442
0.470062
0.451987
0.426434
0.414748
0.387077
0.368286
0.354549
0.33596
0.327809
0.312141
0.295631
0.28437
0.271426
0.253855
0.242137
0.240112
0.229674
0.214826
0.207877
0.201467
0.201019
0.189102
0.18427
0.179851
0.176373
0.175355
0.17081
0.171744
0.171946
0.174044
0.178526
0.185663
0.189312
0.207111
0.237409
0.284304
0.351019
0.45426
0.619318
0.881175
1.26496
1.81116
2.7189
0
25.4291
58.2491
87.1491
111.132
128.883
140.609
146.869
148.448
146.311
141.306
134.176
125.434
115.586
105.033
94.2727
83.7971
73.9947
65.6787
58.9065
53.8185
50.8586
50.4056
52.2043
55.957
61.371
67.8136
74.9593
82.3524
89.624
96.413
102.5
107.665
111.697
114.492
116.561
117.813
117.451
115.756
113.319
110.302
106.879
103.181
99.3157
95.3958
91.5116
87.7379
84.075
80.5512
77.1804
73.9626
70.8889
67.9649
65.1916
62.5679
60.0879
57.7434
55.5196
53.4036
51.377
49.4182
47.5098
45.643
43.815
42.0194
40.2582
38.5731
36.9645
35.4116
33.9186
32.5243
31.1419
29.5622
27.3668
24.9182
22.4666
20.1964
18.1989
16.4799
15.0076
13.7695
12.73
11.8641
11.1302
10.4935
9.9197
9.38239
8.85002
8.33228
7.88095
7.52166
7.2184
6.92259
6.62158
6.32435
6.04201
5.76155
5.49136
5.22896
4.98591
4.75494
4.52697
4.30878
4.09445
3.87984
3.68806
3.50419
3.32837
3.16448
2.99842
2.84836
2.69112
2.56139
2.41598
2.29964
2.17214
2.05249
1.94574
1.84275
1.73955
1.63125
1.5315
1.45002
1.36192
1.27148
1.19018
1.11969
1.04999
0.99743
0.939072
0.893771
0.83616
0.78874
0.733963
0.693735
0.654367
0.62359
0.580218
0.554132
0.523467
0.48549
0.458109
0.430457
0.40353
0.379803
0.351798
0.335455
0.317423
0.296317
0.278404
0.258067
0.23982
0.225099
0.215964
0.197643
0.189052
0.172754
0.163061
0.148222
0.136287
0.12503
0.113311
0.10339
0.0900512
0.0775102
0.0680136
0.0558909
0.0446033
0.0350956
0.0255474
0.0186115
0.0163523
0.0207878
0.0382344
0.0780028
0.157131
0.298793
0.537294
0.902486
1.50182
0
25.3576
62.8659
98.1595
127.167
149.209
164.883
174.8
179.68
180.41
177.565
171.809
163.577
153.338
141.532
128.823
115.901
103.386
92.5836
83.6909
76.3676
71.7103
70.259
71.5014
75.3306
80.7398
87.3877
94.6943
102.088
109.116
115.414
120.722
124.746
127.345
128.868
129.471
128.482
125.943
122.514
118.511
114.103
109.467
104.741
99.985
95.2709
90.6699
86.2585
82.0619
78.1017
74.3738
70.8719
67.5865
64.5107
61.6324
58.9462
56.4371
54.0896
51.8858
49.8126
47.8506
45.9779
44.1789
42.445
40.7666
39.1444
37.5843
36.1099
34.73
33.4173
32.1653
30.9826
29.8577
28.6414
27.1057
25.097
22.909
20.7597
18.7807
17.0067
15.4462
14.1315
13.066
12.2036
11.4849
10.8724
10.3226
9.81098
9.31956
8.87768
8.50116
8.20191
7.97258
7.75961
7.55093
7.33294
7.12666
6.91226
6.69854
6.49041
6.28975
6.09719
5.89386
5.7014
5.51689
5.33897
5.18266
5.02613
4.87455
4.72458
4.56207
4.42478
4.26473
4.10017
3.93571
3.78456
3.63674
3.49418
3.3588
3.23163
3.09661
2.96729
2.83276
2.71345
2.59825
2.48647
2.38227
2.28273
2.18487
2.08975
2.01486
1.93394
1.83948
1.77141
1.67968
1.60995
1.54522
1.49396
1.42768
1.36617
1.2964
1.24468
1.18713
1.14893
1.09218
1.04441
0.999536
0.954892
0.918305
0.875793
0.843227
0.807107
0.76769
0.730512
0.709904
0.681243
0.65723
0.61603
0.597895
0.563738
0.537393
0.505572
0.482322
0.456441
0.420771
0.390392
0.362473
0.326402
0.284068
0.246313
0.210041
0.16655
0.128338
0.0846772
0.0458061
0.0152421
0.00588679
0.0375693
0.141226
0.352917
0.733939
0
26.3157
65.7882
105.621
138.13
163.495
182.529
196.142
204.532
208.37
207.963
203.71
195.888
184.995
171.563
156.555
141.099
126.171
113.693
103.75
95.7235
90.9969
90.2905
92.767
98.1969
105.221
113.382
121.878
130.034
137.373
143.491
148.055
150.809
152.172
152.239
150.398
146.672
141.841
136.398
130.526
124.413
118.223
112.081
106.059
100.219
94.6086
89.2864
84.2768
79.5925
75.2256
71.1629
67.3797
63.8652
60.6015
57.5733
54.7598
52.1425
49.699
47.4148
45.2729
43.2577
41.352
39.5484
37.841
36.2245
34.7045
33.2971
32.0321
30.8692
29.7908
28.7845
27.8164
26.8661
25.812
24.4978
22.7877
20.9404
19.1132
17.3764
15.8052
14.5015
13.4572
12.6028
11.8794
11.2666
10.7204
10.2508
9.83345
9.50012
9.20884
8.98388
8.86309
8.77777
8.6931
8.57294
8.47757
8.33043
8.20038
8.0733
7.95936
7.83146
7.68719
7.56101
7.46698
7.37191
7.30272
7.18456
7.07153
6.9659
6.7998
6.80041
6.6001
6.39546
6.20677
6.0435
5.87671
5.77519
5.6367
5.50804
5.31637
5.13467
4.96421
4.81522
4.67556
4.54581
4.40576
4.28348
4.14176
4.00844
3.88722
3.76456
3.64003
3.5191
3.39315
3.28261
3.17619
3.08974
2.98659
2.90016
2.79801
2.70427
2.60918
2.52568
2.44447
2.35675
2.27837
2.19949
2.14171
2.06689
1.98226
1.93223
1.86044
1.78833
1.7354
1.68025
1.62385
1.56223
1.49775
1.44835
1.39299
1.3246
1.27048
1.20783
1.16397
1.09883
1.03982
0.972089
0.887857
0.809844
0.726133
0.636465
0.551311
0.446416
0.343361
0.239417
0.138913
0.0681699
0.0527478
0.140271
0.37008
0
26.853
65.1578
107.267
141.32
168.637
190.161
206.663
218.341
225.195
227.121
224.153
216.496
204.839
190.056
173.571
157.021
141.662
130.097
121.748
116.012
113.913
116.417
122.201
131.037
141.039
151.667
161.917
171.034
178.551
184.088
187.523
188.972
188.386
185.195
179.763
173.075
165.651
157.77
149.646
141.466
133.381
125.511
117.925
110.682
103.815
97.3552
91.3147
85.6974
80.4777
75.6318
71.1331
66.9562
63.075
59.4698
56.1133
52.9829
50.0559
47.3153
44.7459
42.3356
40.0699
37.9433
35.9538
34.0987
32.382
30.8147
29.4286
28.2061
27.1096
26.1133
25.1896
24.3509
23.5336
22.6034
21.4795
20.0618
18.5093
16.9434
15.5114
14.3285
13.3731
12.5568
11.8475
11.2537
10.7341
10.3391
10.0002
9.93653
9.76953
9.57673
9.71686
9.81636
9.88341
9.8021
9.77491
9.60153
9.58044
9.446
9.47333
9.43809
9.32195
9.3278
9.56469
9.59179
9.78269
9.65392
9.79022
9.64867
9.56521
9.58185
9.39638
9.1451
8.93352
8.8104
8.72941
8.44411
8.2975
8.31747
8.1148
7.92191
7.7201
7.53902
7.39177
7.24486
7.06475
7.00334
6.80017
6.60844
6.42363
6.23651
6.05442
5.89601
5.73914
5.60032
5.46731
5.33554
5.1964
5.05986
4.9214
4.79079
4.65905
4.53701
4.41111
4.28898
4.18099
4.05631
3.9622
3.84989
3.73109
3.62274
3.51219
3.40513
3.30651
3.20665
3.12343
3.01093
2.90052
2.79329
2.71833
2.6183
2.50506
2.41728
2.30773
2.21906
2.09558
1.99951
1.86703
1.73757
1.60223
1.4564
1.30627
1.13347
0.953203
0.760639
0.573159
0.401101
0.277006
0.257199
0.357339
0
26.0181
59.6861
100.99
134.473
161.865
184.332
202.605
216.639
225.891
229.674
227.873
220.563
208.883
194.316
178.923
164.587
152.694
145.98
142.777
142.814
146.414
154.704
165.719
179.298
193.084
206.409
218.155
227.652
234.795
239.183
240.493
238.472
233.181
225.585
216.602
206.708
196.27
185.577
174.85
164.288
154.039
144.209
134.862
126.042
117.762
110.03
102.837
96.1671
89.9835
84.2494
78.9192
73.9621
69.3442
65.0346
61.001
57.2179
53.6575
50.3038
47.1412
44.1568
41.3386
38.6849
36.1977
33.8785
31.7299
29.7679
27.9969
26.4667
25.1086
23.9089
22.8309
21.8968
21.0122
20.1178
19.1525
18.0871
16.8607
15.5365
14.2639
13.1715
12.1704
11.3715
10.69
10.1577
9.75717
9.46519
9.22707
9.07064
9.03721
9.12007
9.35227
9.51
9.74529
9.85676
10.0905
10.1327
10.2187
10.3381
10.5857
10.5709
10.6915
10.779
10.9489
11.3716
11.5399
11.5642
11.7167
11.9783
11.9866
12.1007
12.007
11.806
11.5661
11.4442
11.2067
11.2004
11.2304
11.2759
11.2488
11.1824
10.9135
10.8608
10.7571
10.6041
10.3337
10.2795
10.0038
9.72383
9.43716
9.14684
8.88308
8.6934
8.53331
8.38853
8.22504
8.04375
7.86321
7.68337
7.51566
7.35325
7.18656
7.01622
6.85621
6.70025
6.5515
6.40085
6.25967
6.11145
5.95636
5.79455
5.63489
5.48545
5.33575
5.19753
5.05014
4.89006
4.7362
4.59693
4.45757
4.31637
4.18085
4.03163
3.86406
3.71379
3.55159
3.39758
3.22227
3.03173
2.84936
2.62722
2.42388
2.16471
1.90671
1.62258
1.33336
1.06322
0.825985
0.722501
0.706489
0
25.0895
47.5549
84.7955
115.024
140.518
162.413
180.965
195.804
206.459
211.633
210.914
204.837
194.969
183.387
172.622
164.591
160.588
163.34
169.122
178.771
191.42
208.106
226.411
245.832
263.713
279.699
292.731
301.985
306.912
307.046
302.716
294.971
284.86
273.118
260.253
246.694
232.808
218.91
205.238
192.001
179.34
167.357
156.092
145.569
135.774
126.691
118.277
110.503
103.306
96.638
90.4367
84.6642
79.266
74.2137
69.4591
64.9759
60.7256
56.6971
52.8636
49.2205
45.7513
42.4618
39.3442
36.4145
33.6748
31.1415
28.8179
26.7344
24.9024
23.279
21.8161
20.5045
19.2836
18.1448
17.0349
15.9463
14.8351
13.7144
12.5592
11.4353
10.4151
9.54901
8.85487
8.31667
7.91774
7.65522
7.43752
7.33097
7.34847
7.54639
7.85012
8.16295
8.50012
8.80223
9.18201
9.43313
9.74244
10.0301
10.3915
10.6546
10.9305
11.1384
11.5089
11.8671
12.3457
12.7422
12.9857
13.2377
13.4391
13.521
13.5683
13.5706
13.5133
13.4914
13.4377
13.4007
13.2495
13.3149
13.5689
13.7858
13.8566
13.7403
13.8096
13.6542
13.4535
13.5067
13.2336
12.8792
12.5118
12.149
11.8393
11.8599
11.7718
11.6166
11.3063
10.9997
10.7492
10.5211
10.3166
10.1224
9.91566
9.71113
9.52647
9.34432
9.16701
8.98724
8.81136
8.62621
8.43245
8.22893
8.02914
7.83551
7.64613
7.45925
7.27376
7.07872
6.8907
6.71099
6.53414
6.34779
6.15719
5.96939
5.76971
5.56492
5.34845
5.1347
4.90646
4.65967
4.412
4.13314
3.83757
3.50192
3.15222
2.78414
2.39889
2.04447
1.72163
1.5189
1.42097
0
20.1331
32.3252
62.0146
86.112
106.863
125.65
142.653
156.741
166.92
172.248
172.591
168.532
162.443
156.664
153.827
154.948
162.916
178.602
197.274
220.657
246.623
275.044
302.947
330.941
355.003
373.436
385.211
390.2
388.717
382.247
372.195
359.321
344.367
327.917
310.542
292.722
274.877
257.322
240.35
224.139
208.837
194.507
181.183
168.835
157.44
146.934
137.261
128.338
120.101
112.471
105.387
98.7743
92.5908
86.7775
81.2968
76.0967
71.1536
66.4322
61.92
57.5919
53.4436
49.4665
45.6725
42.0623
38.6582
35.4622
32.4831
29.7263
27.2426
25.0198
22.9922
21.1219
19.3996
17.8019
16.3064
14.9261
13.6334
12.412
11.2096
10.0821
8.99525
8.03123
7.19704
6.52585
6.01092
5.65416
5.39261
5.23721
5.22277
5.36791
5.64323
5.93463
6.27757
6.61577
7.03571
7.41746
7.86053
8.28545
8.75417
9.27404
9.70441
10.1092
10.6203
11.0553
11.5495
12.0752
12.5305
12.9772
13.2928
13.5525
13.7762
13.9637
14.0908
14.2393
14.3458
14.4018
14.4305
14.6367
14.9444
15.2311
15.4871
15.4859
15.6406
15.6926
15.6507
15.8339
15.7121
15.3056
14.9122
14.59
14.6003
14.6178
14.5607
14.3039
13.9866
13.7207
13.4761
13.2322
12.9963
12.763
12.5111
12.2834
12.0852
11.8848
11.6832
11.4804
11.2742
11.058
10.8366
10.6088
10.3837
10.1611
9.9418
9.72836
9.52156
9.31224
9.10456
8.90168
8.69339
8.48474
8.27262
8.0583
7.82767
7.57649
7.31606
7.04464
6.77312
6.47311
6.17521
5.84261
5.47901
5.07149
4.65135
4.21135
3.75012
3.32178
2.93018
2.65259
2.47491
0
12.4224
12.1668
28.7849
46.0122
61.5266
76.2515
90.1934
102.181
111.044
115.593
116.427
114.531
112.441
112.901
118.36
128.801
150.784
180.377
215.453
255.956
300.922
348.664
392.449
429.308
457.008
475.302
483.729
484.131
478.065
466.716
451.273
432.725
412.045
390.018
367.341
344.568
322.185
300.536
279.911
260.475
242.339
225.522
210.021
195.767
182.694
170.703
159.708
149.595
140.279
131.648
123.637
116.153
109.152
102.558
96.3307
90.3999
84.7467
79.325
74.1259
69.11
64.2705
59.5992
55.1123
50.8089
46.7145
42.846
39.1718
35.7191
32.4982
29.5693
26.8757
24.391
22.0793
19.9387
17.9122
16.0571
14.378
12.8173
11.3676
10.0179
8.7913
7.66779
6.6433
5.72656
4.96635
4.37038
3.92592
3.60093
3.41795
3.40763
3.4908
3.61961
3.85075
4.12226
4.44322
4.78061
5.25451
5.71134
6.23532
6.76119
7.25331
7.70687
8.31949
8.84439
9.36217
9.97108
10.5612
11.0633
11.4732
11.9143
12.3701
12.7304
12.993
13.3054
13.544
13.8191
14.0069
14.2978
14.6047
14.9872
15.314
15.6809
16.012
16.2754
16.4158
16.6362
16.7004
16.5895
16.3449
16.104
16.1183
16.1935
16.0884
16.0975
15.8721
15.7473
15.5611
15.3215
15.0758
14.8267
14.5528
14.3351
14.1435
13.9403
13.7293
13.5149
13.2962
13.067
12.8334
12.6009
12.3711
12.1391
11.9086
11.6863
11.4769
11.2708
11.0653
10.8612
10.6492
10.4376
10.22
9.99488
9.75391
9.48741
9.20778
8.90718
8.60643
8.27981
7.93796
7.56569
7.15488
6.70508
6.23194
5.7465
5.24242
4.76773
4.33404
4.02472
3.78726
0
24.9172
4.12424
4.96308
11.1812
19.2247
28.2677
37.9882
46.9244
53.1826
55.9215
55.7627
54.5296
54.7123
59.4341
70.9264
89.1104
123.39
170.537
232.458
299.114
363.53
422.644
476.541
522.3
557.332
582.327
594.517
595.316
586.248
569.449
547.117
521.158
493.049
463.933
434.65
405.873
378.085
351.683
326.88
303.83
282.544
263.009
245.122
228.796
213.878
200.258
187.788
176.356
165.795
156.029
146.926
138.421
130.452
122.986
115.888
109.141
102.653
96.442
90.447
84.6767
79.0546
73.6491
68.3266
63.2673
58.4442
53.8377
49.4484
45.245
41.2726
37.5347
34.1074
30.9317
28.0218
25.2272
22.6345
20.2063
17.9957
15.9443
14.0543
12.3198
10.7511
9.32265
8.01811
6.81474
5.71059
4.75633
3.96513
3.32274
2.82038
2.48344
2.27507
2.13947
2.09339
2.13891
2.28501
2.46767
2.7146
3.01409
3.4169
3.80818
4.25405
4.72487
5.22309
5.76648
6.26472
6.76088
7.27978
7.81051
8.31353
8.85378
9.30842
9.89561
10.3259
10.775
10.9799
11.4529
11.7795
12.2974
12.5761
13.0412
13.4428
13.9116
14.3419
14.747
15.0878
15.38
15.6489
15.8249
15.8648
15.8514
15.8446
15.926
15.9733
16.0449
16.0305
16.0883
16.099
16.0234
15.8868
15.725
15.4985
15.3269
15.1834
15.0214
14.843
14.6618
14.4776
14.2773
14.064
13.8504
13.6385
13.4208
13.2023
12.9934
12.8007
12.6166
12.4347
12.2515
12.0598
11.8677
11.6685
11.4567
11.2293
10.9796
10.7107
10.4156
10.1118
9.7818
9.42782
9.04661
8.62503
8.16478
7.67723
7.18026
6.67237
6.1875
5.74235
5.42009
5.16353
0
52.0959
12.4259
6.23061
4.35336
5.75445
10.1602
16.0905
20.9379
22.8172
21.3923
17.4409
13.1258
11.6707
16.6751
32.4513
63.0624
119.882
196.322
276.997
349.372
413.022
475.837
541.179
607.315
661.94
702.232
721.273
722.005
707.86
683.115
651.533
616.212
579.189
541.942
505.376
470.208
436.867
405.695
376.85
350.378
326.148
304.078
283.971
265.694
249.037
233.863
219.974
207.219
195.406
184.485
174.085
164.454
155.486
147.054
139.058
131.393
124.038
116.948
110.118
103.499
97.1455
90.7515
84.6698
78.7777
73.2022
67.8643
62.7212
57.7641
53.037
48.5439
44.3273
40.4526
36.8457
33.4657
30.2761
27.296
24.5336
21.9647
19.545
17.3227
15.2739
13.4143
11.694
10.1451
8.69925
7.38315
6.19718
5.13591
4.22647
3.44733
2.83809
2.34044
1.95199
1.67815
1.49962
1.38922
1.37454
1.41131
1.52361
1.69112
1.91922
2.21156
2.50204
2.8882
3.25921
3.65033
4.05271
4.50623
4.9472
5.39784
5.93019
6.28683
6.74626
7.14895
7.67729
8.03067
8.43336
9.11956
9.49977
10.0478
10.397
11.1173
11.4611
11.9282
12.3621
12.7671
13.1847
13.5523
13.8098
14.0045
14.1581
14.3304
14.4854
14.6506
14.7868
14.9581
15.1221
15.2284
15.2662
15.2594
15.169
15.0772
15.0132
14.9374
14.8406
14.7389
14.6357
14.508
14.3535
14.1879
14.0169
13.8375
13.655
13.4767
13.315
13.1661
13.0207
12.8727
12.7178
12.5603
12.3959
12.2167
12.0224
11.8083
11.5726
11.3115
11.0337
10.729
10.3958
10.0355
9.63876
9.20654
8.74789
8.27895
7.80646
7.35509
6.94008
6.64007
6.40817
0
105.392
42.0425
38.6505
37.6419
38.1564
39.7031
42.5834
43.5769
40.4011
32.3535
20.8452
8.83075
0.855302
3.16767
25.2791
72.4559
154.157
260.145
337.174
388.373
438.445
510.193
599.634
694.575
772.315
827.857
851.72
848.554
825.627
790.304
748.176
703.126
657.526
612.815
569.902
529.415
491.482
456.63
424.718
395.677
369.295
345.305
323.517
303.676
285.617
269.107
253.998
240.041
227.196
214.835
203.401
192.58
182.609
173.245
164.322
155.715
147.447
139.481
131.78