/*--------------------------------*- C++ -*----------------------------------*\
  =========                 |
  \\      /  F ield         | OpenFOAM: The Open Source CFD Toolbox
   \\    /   O peration     | Website:  https://openfoam.org
    \\  /    A nd           | Version:  9
     \\/     M anipulation  |
\*---------------------------------------------------------------------------*/
FoamFile
{
    format      ascii;
    class       volVectorField;
    location    "33";
    object      U;
}
// * * * * * * * * * * * * * * * * * * * * * * * * * * * * * * * * * * * * * //

dimensions      [0 1 -1 0 0 0 0];

internalField   nonuniform List<vector> 
918
(
(2.47629 -0.138943 0)
(0.108704 0.722546 0)
(0.171774 1.05375 0)
(2.31834 0.153728 0)
(-0.0597104 1.27095 -1.22321e-19)
(-0.0924034 0.643931 -5.31378e-18)
(0.530058 0.84969 -2.95333e-19)
(0.274315 0.152869 -2.98838e-20)
(3.00615 -0.0195607 0)
(-0.00826641 0.477007 0)
(-0.017227 0.589636 0)
(0.605211 0.00676633 0)
(0.0107054 0.439105 0)
(-0.00288244 0.421689 0)
(0.0134374 0.340815 -1.3051e-18)
(-0.0046879 0.76876 -9.20545e-20)
(0.312397 0.0742685 2.15208e-18)
(0.0797479 0.642566 -2.22926e-19)
(1.52884 0.128628 0)
(-0.026709 0.685464 0)
(0.194584 0.157718 -1.26551e-18)
(3.08302 -0.397373 0)
(2.92445 -0.50598 0)
(1.86116 -0.1811 0)
(0.511381 0.0400857 0)
(-0.0253686 0.52155 0)
(-0.00135313 0.494038 1.86237e-18)
(-0.022406 1.40047 0)
(0.0748919 2.88377 0)
(0.168264 1.73652 0)
(-0.0382661 3.16545 0)
(0.0273119 1.64034 9.40538e-20)
(0.0233404 0.686642 0)
(-0.147425 0.775094 -2.03084e-22)
(-0.193914 1.0291 4.4212e-18)
(-0.0415772 1.04471 0)
(0.744578 -0.00600498 0)
(0.161001 0.246303 6.65519e-19)
(0.993564 1.51315 6.52788e-19)
(0.649981 0.784426 -5.15964e-19)
(0.798657 1.57533 6.19917e-20)
(0.416845 0.851483 -3.2007e-19)
(0.552306 0.306555 2.93903e-20)
(0.296961 0.153641 0)
(0.963024 0.566587 0)
(0.532585 0.303938 1.32011e-19)
(0.257967 0.162785 -1.35462e-19)
(0.871596 -0.0554787 0)
(3.02784 -0.00170478 0)
(3.00685 0.0178656 0)
(3.20086 -0.417733 0)
(3.04288 -0.0742117 0)
(3.03116 -0.0388406 0)
(0.0186016 0.902999 -1.14624e-18)
(-0.0542619 0.974421 0)
(0.00283778 0.455139 0)
(-0.0291592 0.981523 0)
(-0.011407 0.481388 0)
(-0.00134909 0.869822 0)
(-0.0521173 1.1112 0)
(-0.012557 0.54193 0)
(-0.0253676 1.16259 0)
(-0.00592425 0.621916 0)
(0.790479 0.0116244 0)
(1.16942 -0.0015617 0)
(0.618247 0.0123698 0)
(1.12578 0.0175987 0)
(0.569758 0.00867943 0)
(0.225406 0.921982 1.95974e-18)
(0.0985379 1.2081 0)
(0.176302 1.06604 0)
(0.0331901 0.755774 2.19926e-23)
(0.0372233 0.498055 -2.93096e-18)
(0.0194616 0.747943 0)
(0.00595421 0.422033 0)
(-0.00069531 0.734548 4.51729e-24)
(0.000702481 0.414825 0)
(-0.0169204 0.74318 0)
(-0.0129373 0.42798 0)
(0.0494346 0.649975 0)
(0.0484377 0.45822 0)
(0.00800512 0.621949 1.23395e-18)
(0.000744682 0.344903 0)
(-0.0677094 4.69192 0)
(0.00896069 1.45817 9.13911e-20)
(-0.0104546 0.785421 -1.17653e-19)
(0.636084 0.152146 -7.50925e-19)
(0.321613 0.0656845 -7.28686e-19)
(0.644788 0.169721 -2.25459e-18)
(0.317531 0.0955707 -1.45152e-18)
(0.0785272 0.618382 0)
(0.178549 1.31388 1.84856e-19)
(0.179711 0.730284 -2.94941e-19)
(2.06031 0.260946 0)
(1.10704 0.11845 0)
(3.03313 0.103887 0)
(3.10392 0.446059 0)
(2.83919 0.377459 -1.01276e-17)
(2.5781 0.361309 7.77111e-18)
(-0.0706446 1.26313 0)
(-0.0113304 0.623276 0)
(-0.013828 1.9003 0)
(-0.0507029 1.34656 0)
(-0.0479983 0.679019 0)
(0.44031 0.295627 4.00658e-19)
(0.225463 0.163359 0)
(2.2961 -0.266393 0)
(1.32372 -0.119273 0)
(1.07632 0.0126689 0)
(1.01198 0.0187649 0)
(0.540922 0.0108512 0)
(1.01986 0.0563995 0)
(0.821214 0.0703256 0)
(0.343622 0.0286956 3.3629e-18)
(-0.005435 0.451601 1.77344e-18)
(-0.0270312 0.784627 0)
(-0.0473175 0.847507 0)
(-0.0152739 0.460435 0)
(0.000132484 0.839725 1.81592e-18)
(7.30039e-05 0.48753 0)
(-0.0054789 0.845554 -5.59015e-18)
(-0.00488634 0.496761 1.88628e-18)
(0.0546708 3.56584 0)
(0.0433426 4.02498 0)
(-0.0162328 1.41083 -2.05169e-21)
(-0.0130522 1.36342 0)
(-0.00978271 0.741533 0)
(1.41018 0.0348844 0)
(0.760549 0.0154387 0)
(0.709514 0.0142643 0)
(1.41618 -0.0328482 0)
(0.773515 -0.00873971 0)
(0.322056 0.480349 -8.35584e-19)
(0.156806 0.23272 0)
(0.324958 0.509165 9.36446e-20)
(0.16336 0.268432 0)
(1.2408 1.38689 1.66442e-19)
(0.778686 0.740855 -3.92419e-19)
(0.411593 1.42215 0)
(0.607184 1.53404 0)
(0.303545 0.814801 0)
(0.145329 0.353376 -4.42827e-19)
(0.607303 0.280718 0)
(0.31351 0.134639 3.98812e-19)
(1.42732 1.30673 0)
(1.58668 1.16854 0)
(0.874909 0.663918 4.61712e-19)
(1.73391 0.953099 0)
(1.0686 0.438776 2.3222e-20)
(1.47298 0.00813851 0)
(1.501 -0.0292391 0)
(0.801896 -0.00441618 0)
(1.95042 -0.199779 0)
(1.65082 -0.14818 0)
(1.05215 -0.0889696 0)
(3.06126 0.164853 0)
(3.03105 0.0687875 0)
(3.01022 0.0531594 0)
(0.0357137 1.60558 6.08195e-19)
(0.0178702 0.826994 0)
(0.0179435 1.69624 1.07974e-18)
(0.00303144 0.938859 -9.70715e-19)
(0.0646809 1.15237 1.87777e-19)
(0.0477082 0.98924 0)
(0.040185 0.528722 0)
(-0.0286752 1.00557 0)
(-0.00698818 0.517547 0)
(0.0181376 1.61562 -4.43295e-21)
(-0.0180653 0.865585 0)
(-0.0539501 1.58417 -2.25787e-19)
(-0.0161301 0.820773 4.3729e-19)
(-0.0017845 1.02984 0)
(0.0102737 1.04405 0)
(5.31236e-05 0.531608 0)
(0.0106686 1.17106 0)
(0.000911805 0.612419 0)
(1.46831 -0.00370342 0)
(0.789218 0.00805986 0)
(1.44055 0.0331662 0)
(0.761792 -0.000557517 0)
(0.675382 0.00534459 0)
(1.26195 0.0166822 0)
(1.20239 0.0473083 0)
(0.65969 0.015556 0)
(-0.00580051 1.42077 -1.70203e-20)
(0.000184319 1.37708 0)
(0.00482012 0.732923 0)
(0.00172892 0.417221 0)
(0.284437 0.828756 0)
(0.253616 0.399734 -2.87123e-19)
(-0.00223243 0.635409 0)
(-0.00889711 0.367611 0)
(0.0117275 4.33765 0)
(-0.0485777 4.66421 0)
(-0.0180066 4.56589 0)
(-0.0719281 3.36797 2.04162e-20)
(-0.0577839 4.60314 0)
(-0.0516479 4.1804 0)
(0.004844 0.819143 1.08109e-20)
(0.0142205 1.56248 1.65387e-19)
(-0.0358583 1.50301 1.20877e-19)
(-0.00744431 0.825956 0)
(0.664427 0.105708 1.15326e-18)
(0.325684 0.0441634 -1.13022e-18)
(0.149662 1.13334 0)
(0.100941 0.573393 -2.69227e-19)
(0.118117 1.23317 -8.74265e-19)
(0.0518493 0.687104 8.69765e-19)
(0.809201 0.0240635 0)
(1.55677 0.0476796 0)
(1.7097 0.127652 0)
(0.919845 0.0445228 0)
(0.00793623 1.1822 0)
(0.0258405 1.19025 0)
(0.0045046 0.627859 0)
(0.482106 0.315078 1.20357e-18)
(0.436842 0.309079 -1.38664e-18)
(0.234765 0.164173 0)
(1.9355 0.153002 1.15235e-19)
(1.13642 0.0932519 0)
(1.72436 0.118444 0)
(0.88373 0.0226953 0)
(0.678172 0.0857387 0)
(0.699713 0.0460597 -5.40741e-18)
(0.346728 0.0325964 1.99898e-18)
(0.0091474 0.807284 1.69361e-18)
(0.00222281 0.46251 4.08167e-20)
(-0.0108777 1.40842 -3.57994e-20)
(0.00613616 1.38675 1.36583e-18)
(-0.0149832 0.848955 6.29419e-20)
(-0.0119261 0.524486 -2.52899e-22)
(-0.107514 1.00068 -1.16485e-18)
(-0.0529602 1.3532 8.33969e-19)
(-0.0175323 1.35275 -1.35772e-18)
(1.42273 -0.0170846 0)
(1.44236 0.0203186 0)
(0.769872 -0.000177568 0)
(1.45218 0.0253834 0)
(1.36319 0.0462298 0)
(0.761541 0.020307 0)
(1.30062 -0.00215356 0)
(1.31867 -0.00584866 0)
(0.695054 -0.000986412 0)
(0.304853 0.473399 -9.1519e-19)
(0.161356 0.242677 0)
(0.157153 0.308427 1.36933e-19)
(0.309586 0.585886 1.12212e-18)
(0.3074 0.548572 -6.64302e-19)
(0.156819 0.281896 1.29814e-18)
(0.278476 0.717683 2.18146e-18)
(0.148258 0.380845 3.93613e-19)
(0.636087 0.213092 1.53742e-18)
(0.62599 0.253603 3.99309e-19)
(0.31662 0.115045 7.49252e-19)
(1.92131 0.714635 -5.99652e-19)
(1.1677 0.336106 -7.01873e-19)
(-0.0351171 1.70322 4.64106e-19)
(-0.0114061 0.924853 0)
(1.6039 0.0239532 0)
(1.52191 0.0653728 0)
(0.852934 0.0268588 0)
(-0.00355882 1.38473 0)
(0.00507422 0.729574 2.49504e-18)
(0.00465033 0.731252 0)
(0.00207079 0.415097 -2.44208e-18)
(-0.0102751 1.38627 5.95635e-19)
(-0.00947265 1.4225 0)
(0.336545 0.488133 2.57948e-19)
(0.360034 0.546396 -8.62971e-19)
(0.171833 0.257815 7.81117e-19)
(-0.0256693 0.767468 -1.66256e-18)
(-0.0261518 0.689734 0)
(-0.0154343 0.412938 0)
(0.0302152 1.54808 -1.27067e-20)
(0.0314122 1.58073 -3.64882e-19)
(0.0178973 0.822619 -1.55903e-20)
(0.213337 1.04398 8.89947e-19)
(0.119639 0.508983 -5.92214e-19)
(0.0118678 1.48471 7.30528e-19)
(0.0558112 1.35069 -8.15347e-19)
(0.0268063 0.760316 3.53041e-20)
(0.00751361 1.36614 -3.80741e-18)
(-0.000214806 1.39326 4.4092e-18)
(0.00377339 0.829776 1.73285e-18)
(-0.0138288 0.805094 -1.72532e-18)
(-0.00430905 0.481399 -1.73849e-18)
(-0.0106511 1.41685 -4.49961e-18)
(-0.0152178 1.40032 4.5888e-18)
(0.28635 0.674762 0)
(0.299759 0.634603 -2.28758e-18)
(0.151931 0.331705 9.90295e-19)
(0.281193 0.795913 1.18495e-18)
(0.138794 0.427484 -1.82837e-18)
(2.057 0.322585 4.15822e-19)
(2.05156 0.547732 0)
(1.21866 0.220984 -4.01774e-19)
(-0.0738537 1.63523 -4.80138e-21)
(-0.0141257 1.69059 0)
(-0.0157178 0.921891 0)
(0.227056 0.944399 -3.22756e-19)
(0.248202 0.866417 -7.06829e-19)
(0.128789 0.463231 1.32465e-18)
(3.16442 -0.442872 0)
(3.34728 -0.414685 1.81279e-18)
(0.0623193 3.48411 0)
(0.0488266 2.808 0)
(3.15925 0.249915 1.4192e-20)
(3.12355 0.506296 3.7121e-18)
(0.0233656 3.43274 -2.73995e-20)
(0.00926307 2.66444 0)
(-0.0416465 1.19604 1.55493e-18)
(0.190061 1.31638 0)
(3.47262 1.62511 -3.24733e-19)
(3.17427 0.272573 -2.96098e-20)
(3.14838 -0.118696 0)
(3.10047 -0.000403985 3.73118e-22)
(0.0439207 2.59029 0)
(0.157485 3.3007 0)
(-0.0549073 2.53429 0)
(-0.0229976 3.48847 3.15761e-19)
(-0.0248326 3.56947 1.99239e-19)
(2.63343 0.0488318 -1.36492e-20)
(3.04751 0.0311531 0)
(3.15792 0.0868411 0)
(-0.0508705 4.61735 0)
(-0.0457022 3.08349 0)
(-0.0717923 2.93577 0)
(0.652553 3.10597 2.65639e-19)
(3.33884 -0.422458 0)
(3.0114 -0.34581 0)
(3.1699 -0.0530368 2.27719e-18)
(3.2927 -0.3287 -2.74199e-18)
(3.1038 -0.125776 0)
(-0.0566968 4.51559 0)
(0.0167837 3.93519 0)
(0.00871318 4.26584 0)
(-0.0265265 3.09626 0)
(-0.0128947 2.85152 0)
(-0.0304759 2.4245 0)
(2.97423 -0.00316933 0)
(2.85043 0.0486287 -1.805e-20)
(2.2469 3.04939 -3.21509e-19)
(3.15695 0.0444553 -2.27826e-18)
(3.19037 0.278179 2.76934e-18)
(3.0828 0.117338 0)
(3.3954 0.328926 2.08728e-18)
(3.35695 0.484366 -2.70654e-18)
(3.07111 0.418429 0)
(-0.0547669 3.34691 0)
(0.00575151 3.27702 8.51904e-20)
(-0.0302893 2.57586 -6.03593e-20)
(3.70791 0.55532 2.26542e-18)
(3.47099 0.2085 0)
(-0.151984 1.27126 -2.16583e-18)
(-0.0624329 0.88216 -1.35028e-19)
(-0.0848379 1.33672 2.98546e-18)
(-0.0352363 1.27045 -8.99574e-19)
(-0.000495651 1.08841 0)
(-0.0266646 1.23955 6.94824e-19)
(-0.115054 1.38786 2.14645e-18)
(-0.0590498 1.34056 -1.31408e-18)
(-0.0767369 1.32063 0)
(1.28929 0.597215 0)
(1.17726 0.68238 0)
(3.55665 2.0295 9.53491e-19)
(3.04988 1.936 -1.19055e-18)
(3.83774 1.70661 0)
(3.38427 1.15686 0)
(3.34934 0.280496 -3.9168e-18)
(2.89884 0.17312 4.83974e-18)
(3.35145 -0.155478 0)
(2.85479 -0.0761356 0)
(3.43642 0.0430264 0)
(3.5938 0.145057 0)
(3.28683 0.119875 0)
(3.55033 0.298581 0)
(3.40841 0.293059 0)
(3.32755 0.218074 0)
(0.0973103 2.79184 0)
(0.0343466 2.08037 0)
(0.126594 3.05264 0)
(0.0927581 2.20642 0)
(0.214787 3.5938 0)
(0.140116 2.67389 -5.58554e-19)
(0.0533347 3.61012 0)
(0.0113166 3.01369 4.05602e-19)
(-0.0243997 3.20277 -5.1701e-19)
(-0.0589522 2.79896 0)
(-0.0228305 2.20154 0)
(-0.0718625 2.90663 0)
(-0.0555027 2.04951 0)
(-0.106657 4.74933 -2.45545e-19)
(-0.0790303 3.94051 2.77269e-19)
(-0.0742553 3.80133 3.09077e-19)
(-0.0526553 3.01554 0)
(-0.104354 3.80286 -4.58664e-19)
(-0.0370524 3.21415 -2.95056e-19)
(-0.0807518 4.78169 1.92547e-19)
(-0.0932848 4.46488 -3.50462e-19)
(-0.0685144 4.33461 -3.78932e-19)
(3.03133 0.0883885 3.35856e-18)
(2.28959 0.0321829 -4.22973e-18)
(2.89131 0.132847 -3.32749e-18)
(2.20957 0.07349 4.15623e-18)
(3.36858 0.0277286 0)
(2.64306 -0.00265034 0)
(3.45416 0.0913597 0)
(3.32025 0.019292 0)
(2.70666 0.00922875 0)
(3.68031 0.23965 0)
(3.43884 0.096007 0)
(2.8637 0.0565205 0)
(-0.0211168 4.33561 -1.20281e-20)
(-0.0538785 4.65341 0)
(-0.059215 4.54929 0)
(-0.0746589 3.50439 8.77197e-20)
(-0.0373203 2.77779 -3.46534e-21)
(-0.079137 4.67002 1.13472e-19)
(-0.0932236 4.45847 -1.14671e-19)
(-0.0770415 3.95631 0)
(-0.0552009 3.87645 0)
(-0.0187187 3.99317 0)
(-0.070702 3.25667 0)
(-0.0425451 2.30144 0)
(0.948797 3.66242 -6.08645e-19)
(0.921329 2.85381 -1.76289e-19)
(0.430142 2.05246 -2.28158e-19)
(0.25213 2.2987 6.9686e-19)
(1.02339 4.19975 2.63794e-19)
(3.43308 -0.167421 0)
(3.32213 -0.256546 0)
(2.88327 -0.189515 0)
(3.47032 -0.0643456 0)
(3.34581 -0.147864 0)
(3.44893 -0.261022 0)
(3.5195 -0.283601 0)
(3.57949 -0.281129 0)
(3.22413 0.0933885 3.61886e-18)
(2.55519 0.0645187 -4.57599e-18)
(3.09649 0.106579 -3.56231e-18)
(2.50909 0.0566755 4.43251e-18)
(2.23999 3.41727 0)
(1.73982 2.94876 -4.45492e-19)
(2.56698 3.34913 -4.03127e-19)
(2.3697 2.52978 5.35799e-19)
(0.774427 1.21292 2.72201e-18)
(1.44675 0.216477 1.34312e-18)
(3.72257 0.304261 0)
(3.89316 0.572838 -1.84592e-18)
(3.29902 0.243965 -8.23367e-20)
(3.72079 0.440157 0)
(0.236578 1.31232 1.79594e-18)
(-0.016664 1.20198 -2.87613e-18)
(0.0587932 0.769957 1.6144e-18)
(0.275919 0.464892 -7.47783e-19)
(0.187228 1.38374 8.70926e-19)
(0.050635 1.23716 0)
(0.0577285 1.08616 -1.13219e-18)
(0.191691 1.44296 -4.09181e-18)
(0.328969 1.55694 0)
(0.00867324 1.2902 1.19578e-19)
(-0.00971744 1.45729 -1.34014e-18)
(-0.0410144 1.30282 1.94828e-18)
(-0.0574434 1.41766 0)
(-0.0204758 1.38228 0)
(0.681037 1.04982 0)
(2.45666 2.45509 -1.06612e-18)
(2.6442 2.17391 3.95178e-19)
(2.79264 2.88275 0)
(3.21305 3.06781 -3.94529e-19)
(3.16605 2.41192 2.84645e-20)
(0.803632 0.589299 -1.82224e-18)
(1.55579 0.691426 -1.62181e-20)
(1.23283 0.45098 8.72092e-19)
(1.27492 0.843569 5.95008e-20)
(0.938723 0.633773 -2.36931e-18)
(1.46413 0.714105 0)
(1.98969 1.09965 1.45583e-18)
(2.03184 1.01561 0)
(1.41167 0.790628 0)
(1.06187 0.549633 0)
(3.37538 2.18023 1.00843e-18)
(3.94759 0.760952 -1.86324e-18)
(3.84794 1.21614 0)
(3.53389 0.757827 0)
(1.3913 0.364749 1.3324e-18)
(3.25791 1.84223 -8.51447e-19)
(2.83422 1.65438 1.54674e-18)
(3.75522 1.3771 -1.83577e-18)
(3.09793 0.114762 2.46388e-18)
(3.16856 0.180818 -2.57884e-18)
(2.66183 0.0916429 0)
(3.30731 -0.0394952 0)
(3.20141 -0.0842558 -2.36642e-18)
(2.63244 -0.0321093 2.34558e-18)
(3.95629 0.0932077 0)
(3.75968 0.145656 0)
(3.69369 0.155374 0)
(3.5883 0.204749 0)
(3.83261 0.0590326 0)
(3.72611 0.0522537 0)
(-0.0401133 2.51394 0)
(-0.0377304 2.01287 0)
(0.357057 3.99006 -4.11325e-19)
(0.662941 3.33528 -1.59968e-19)
(0.259718 3.02936 -3.57913e-19)
(0.34389 2.54944 5.73294e-19)
(0.458347 4.01601 0)
(0.469914 4.67197 -5.09858e-19)
(0.383122 4.73038 0)
(0.910987 4.37506 -3.79474e-19)
(0.672988 3.8138 9.68746e-19)
(0.597253 4.65367 4.46923e-19)
(0.740858 4.20227 -1.8749e-19)
(0.602724 4.32765 1.5085e-19)
(0.916478 4.65781 -6.63719e-19)
(0.749884 4.66205 0)
(0.858531 4.58987 5.04504e-19)
(0.00711512 4.57155 -1.8114e-19)
(-0.0185005 3.64581 0)
(0.101593 4.2865 5.49615e-19)
(-0.00274983 4.38924 0)
(-0.00358651 3.45755 -4.51022e-19)
(-0.0152327 2.91094 0)
(-0.0998987 4.3094 -2.89126e-19)
(-0.105507 4.68186 0)
(-0.0529057 3.80718 0)
(-0.0397264 3.72947 3.25188e-19)
(-0.0468304 3.88677 1.03854e-20)
(-0.0345507 3.70797 6.25885e-19)
(-0.0410211 2.94817 4.06856e-21)
(-0.113437 4.71027 1.80195e-19)
(-0.102308 4.74199 1.03222e-19)
(-0.0165745 2.6241 0)
(0.00135338 2.13619 0)
(-0.0413207 4.78939 4.86252e-19)
(-0.0481337 4.30996 4.23926e-19)
(-0.0827221 4.58569 -5.54174e-19)
(0.0165655 4.75854 0)
(-0.0773726 4.53484 -3.0896e-19)
(-0.116788 4.16805 1.27672e-19)
(-0.0840037 4.24869 -4.12842e-20)
(-0.0695816 4.72919 -2.18908e-19)
(-0.0848164 4.26975 -6.85603e-20)
(-0.0832523 4.21462 3.06654e-19)
(2.87142 0.061025 -2.3635e-18)
(2.85887 0.0497081 2.27297e-18)
(2.3386 0.0345586 0)
(3.51009 0.19204 3.04646e-18)
(2.70367 0.126547 -3.3047e-18)
(2.25448 0.0644878 3.6095e-18)
(3.68247 0.335345 -4.01632e-19)
(3.20989 -0.0485196 0)
(3.17213 -0.0135466 2.23697e-18)
(2.69091 -0.0123739 -2.21933e-18)
(3.87877 0.122255 -1.25236e-19)
(3.77177 0.101865 1.07831e-18)
(4.15977 0.173504 0)
(4.22847 0.181164 -3.75125e-19)
(4.01369 0.145246 0)
(3.69489 0.155414 0)
(4.0323 0.095092 0)
(3.71179 0.0873367 0)
(4.18472 0.113897 7.85487e-19)
(4.1372 0.0791463 -1.74788e-18)
(4.14067 0.113899 -8.47994e-19)
(4.1864 0.116541 -9.24472e-19)
(4.2157 0.229031 1.77403e-18)
(3.85475 0.188642 0)
(4.06128 0.301938 0)
(-0.0712098 4.58019 -1.35713e-19)
(-0.0314152 4.64449 -1.16767e-20)
(-0.0644574 4.66097 0)
(-0.0540367 4.19643 1.38093e-19)
(-0.0522757 4.22418 2.25295e-20)
(-0.0571728 4.09217 -2.18349e-20)
(-0.0798011 3.52646 2.61159e-19)
(-0.142756 4.00647 -1.45142e-20)
(-0.101579 4.13387 7.47565e-20)
(-0.0737028 3.40245 -1.32262e-19)
(-0.024525 2.92492 1.58397e-19)
(-0.0743738 4.42885 5.20846e-21)
(-0.087316 4.64253 1.72215e-19)
(1.24337 4.36008 3.47387e-19)
(1.15953 4.52889 7.26036e-19)
(1.7368 3.46671 4.3078e-19)
(1.30881 3.56112 1.69467e-19)
(1.28657 2.88997 0)
(0.54833 2.31831 2.74859e-19)
(0.463447 1.74122 3.30652e-19)
(0.344953 2.56676 1.50895e-20)
(0.491921 3.17253 -1.16119e-18)
(0.63139 3.13156 8.76422e-19)
(0.432601 2.40395 0)
(0.293471 1.97151 -5.57205e-19)
(0.259691 3.07692 1.39456e-18)
(0.273217 2.71883 -3.13804e-20)
(0.157825 2.27558 -1.74782e-18)
(0.591321 1.41088 1.46323e-18)
(0.576253 1.6166 0)
(3.58364 -0.0751493 8.64325e-20)
(3.61861 -0.254101 -7.2596e-20)
(3.72135 -0.217712 -1.26654e-18)
(3.75927 -0.126019 1.28241e-18)
(3.67616 -0.0488553 0)
(2.44631 3.87163 0)
(2.61783 3.91472 0)
(2.88946 3.6256 0)
(2.73614 3.64271 0)
(0.854103 1.39429 -3.33965e-21)
(0.611437 1.03898 0)
(1.7088 3.38395 1.50204e-20)
(1.42069 3.46295 0)
(1.32631 2.95013 -1.28364e-18)
(1.40681 2.89285 8.2436e-19)
(1.79126 0.310396 0)
(1.43043 0.262016 3.52055e-19)
(2.41164 0.358828 2.19173e-18)
(1.78605 0.284835 -7.85407e-19)
(1.42631 0.112198 -2.49492e-18)
(4.26631 0.790104 -2.56541e-18)
(3.85196 0.995212 -3.6721e-20)
(3.29689 0.844637 2.06778e-18)
(3.87578 0.745473 1.81323e-18)
(3.12305 0.465688 -3.04497e-18)
(2.91021 0.452162 3.74979e-19)
(3.19248 0.682315 -8.18697e-19)
(2.97608 0.683405 0)
(3.75866 0.563995 1.53762e-18)
(4.09565 0.629408 0)
(4.09118 0.776483 0)
(4.04578 0.415929 8.23652e-19)
(4.29665 0.642595 -3.02467e-20)
(4.24946 0.715919 -4.52868e-19)
(4.1766 0.643302 0)
(3.61567 0.13042 1.71815e-18)
(4.19 0.183606 2.14416e-18)
(4.09068 0.151664 -1.67938e-18)
(4.13651 0.240884 -1.44282e-18)
(3.74573 0.23822 -2.15633e-18)
(3.30288 0.37597 0)
(3.40343 0.302414 0)
(2.55811 0.190651 -1.26603e-18)
(2.10846 0.119115 4.76757e-19)
(4.03722 0.352633 1.9403e-18)
(4.28774 0.432859 -2.34643e-18)
(4.28488 0.489488 2.06885e-18)
(4.15713 0.493545 0)
(4.25664 0.337315 0)
(4.26651 0.322402 -9.8192e-19)
(4.2143 0.316171 -1.59649e-18)
(2.22663 3.48713 6.20457e-19)
(1.93739 3.23074 -6.83333e-19)
(1.44559 2.35532 -1.03184e-18)
(1.18629 1.99619 2.66833e-19)
(0.883709 1.37807 -2.62856e-18)
(0.793619 1.21537 9.22085e-19)
(0.600736 0.903889 -1.97184e-21)
(1.11448 1.78463 -1.1378e-18)
(1.14179 1.88172 1.69852e-18)
(0.974304 1.70005 5.06051e-19)
(0.785904 1.28858 -5.12667e-19)
(0.635384 1.07436 0)
(2.44551 2.60674 -1.15431e-19)
(0.705139 1.14418 8.57201e-19)
(0.927715 0.889685 1.15615e-18)
(0.755244 0.813591 1.3377e-18)
(1.08306 0.746502 1.34111e-18)
(1.46687 1.04429 -2.2702e-18)
(1.3829 1.07118 1.83936e-18)
(1.00177 0.765491 -6.76729e-19)
(0.817011 0.567995 1.49459e-18)
(1.61548 0.490749 -7.78093e-19)
(1.55894 0.508322 0)
(1.23953 0.407331 4.6058e-21)
(2.50914 1.51587 7.75538e-19)
(2.07976 1.27013 -2.80851e-18)
(1.6866 1.18437 9.08698e-21)
(1.66066 1.09232 0)
(2.86201 2.59507 8.73774e-19)
(3.44675 2.7529 1.03744e-18)
(3.25577 2.93079 -1.19592e-18)
(3.5542 2.76345 -4.28368e-19)
(3.48429 2.60375 -1.34886e-19)
(3.51246 2.79519 1.38778e-19)
(3.67421 2.26706 -1.67937e-18)
(3.70518 2.4921 4.00727e-19)
(3.78367 2.43589 0)
(3.78446 2.19164 -5.79687e-19)
(4.04896 1.07334 5.80543e-19)
(4.27597 0.993185 1.00212e-18)
(4.30041 0.966894 1.01164e-18)
(4.05502 1.32936 -1.14959e-18)
(4.10288 1.34979 0)
(4.15252 1.23375 0)
(3.32766 1.23573 -1.56065e-20)
(2.4177 0.666489 0)
(2.72183 0.744042 9.30629e-19)
(3.23824 0.885952 -2.64566e-20)
(3.77286 1.53468 5.10731e-18)
(3.56978 1.7619 1.31109e-18)
(3.48091 1.54048 -1.34063e-18)
(3.03731 1.36977 1.43739e-18)
(2.76061 1.36964 8.23741e-19)
(2.30652 1.15588 -7.97776e-19)
(3.67221 -0.0855427 1.98459e-18)
(3.8947 -0.0289322 0)
(3.85894 -0.0665487 1.34204e-18)
(3.74291 -0.0594083 -2.98769e-18)
(3.98056 0.0373779 1.46194e-18)
(3.90444 0.113427 -3.08288e-18)
(3.73986 0.128036 0)
(3.55625 0.173471 -6.28535e-19)
(3.81197 0.122981 1.60525e-18)
(3.69195 0.191384 -8.22543e-19)
(3.6003 0.171079 5.90704e-19)
(-0.0801353 2.59237 0)
(-0.0466986 3.39956 0)
(-0.0318765 2.46328 0)
(-0.0215553 1.9718 0)
(0.0463542 3.94205 6.70683e-19)
(0.140209 3.7235 -1.72946e-19)
(0.317328 4.64482 -2.29745e-19)
(0.253088 4.46218 2.42644e-19)
(-0.0246664 4.29486 -4.97577e-19)
(0.0123384 4.32691 3.73639e-19)
(0.0959324 3.87082 2.22699e-20)
(0.0100076 3.55827 -4.67108e-19)
(-0.0122439 3.31001 -6.2269e-20)
(-0.0390027 3.67225 -5.67423e-20)
(0.153343 4.47443 -5.86987e-19)
(0.17853 4.28784 0)
(0.275831 4.63476 2.9642e-19)
(0.269047 4.7095 2.52988e-19)
(0.595947 4.4442 -2.26025e-19)
(0.408097 3.77992 0)
(0.457243 3.62774 -1.11482e-18)
(0.559906 3.99661 7.89943e-19)
(0.480146 4.56171 -6.14809e-19)
(0.370545 4.43203 3.30775e-19)
(0.29949 4.15355 0)
(-0.0341222 4.76178 -5.53269e-19)
(-0.0739318 4.52628 -6.41473e-19)
(-0.0750575 4.7395 0)
(-0.0283557 4.35919 -6.24788e-21)
(-0.0184189 4.64097 2.74274e-19)
(-0.117931 3.88283 4.47129e-20)
(-0.054836 3.48747 -6.53884e-19)
(-0.0949405 3.92559 1.74205e-19)
(-0.134766 4.51847 2.32412e-19)
(-0.075409 4.32888 0)
(-0.0591673 3.88758 0)
(-0.081819 2.89929 2.00898e-19)
(-0.0471209 3.63291 -6.2689e-20)
(-0.0722873 3.62039 0)
(-0.08791 2.68831 1.58177e-19)
(-0.0461861 2.19471 -3.06478e-19)
(3.76103 0.0323491 0)
(3.7319 0.00775126 -2.03274e-19)
(4.1795 0.0679717 -1.43993e-18)
(4.08911 0.0463219 0)
(3.87634 0.0178327 0)
(4.14973 0.0370666 -1.25249e-20)
(4.1003 0.03496 2.3789e-18)
(4.0001 0.0802226 2.84564e-18)
(3.75586 0.118678 0)
(3.55801 0.110063 0)
(4.01332 0.0939744 1.41746e-18)
(3.70324 0.11615 0)
(3.4721 0.128886 0)
(-0.0805863 4.69968 0)
(-0.106048 4.66818 1.06706e-20)
(-0.0764807 4.71981 6.29735e-20)
(-0.0602942 3.83321 0)
(-0.111671 4.53624 1.11261e-19)
(-0.0673776 4.24143 -6.33814e-20)
(-0.0535485 3.93053 0)
(1.41011 4.18551 0)
(1.20935 4.58049 -1.29805e-18)
(1.22466 4.48825 0)
(1.57395 4.48722 1.48443e-18)
(1.59329 4.12138 0)
(1.50166 4.37167 -6.06548e-19)
(1.01133 2.24241 -3.3946e-20)
(0.709066 1.64523 -1.74455e-18)
(0.590605 1.22737 2.12851e-18)
(0.708627 1.83476 3.96784e-19)
(0.974895 2.42388 0)
(1.03627 2.37897 0)
(0.71828 1.68715 0)
(0.532261 1.32997 -1.39513e-18)
(1.20859 3.77458 -9.83423e-19)
(1.12865 2.98861 -2.35487e-19)
(1.32675 3.40467 1.92588e-19)
(0.599172 2.04061 0)
(0.620121 1.94239 0)
(0.462163 1.57094 -3.92689e-19)
(0.957525 2.72015 0)
(2.68713 3.57099 0)
(2.38115 3.00847 -1.45454e-18)
(2.5458 3.02686 -8.58736e-20)
(2.41964 3.40427 0)
(2.28553 3.14927 2.22107e-18)
(3.27799 3.08682 -3.89695e-19)
(3.13406 3.32506 0)
(3.11646 3.15142 6.30435e-19)
(2.87042 3.41269 0)
(2.88191 3.20076 0)
(1.20911 2.00609 -9.30391e-19)
(1.41389 2.40309 -6.99505e-19)
(1.75339 2.98153 1.20596e-18)
(1.69557 2.95952 -3.62235e-19)
(1.06229 1.82203 0)
(1.2067 2.20824 4.71095e-19)
(0.718349 1.28856 -7.15177e-19)
(0.581564 1.04336 -5.60449e-22)
(1.93709 3.69549 0)
(2.19894 3.74285 -5.42596e-19)
(2.33816 3.98623 0)
(2.28408 0.529021 0)
(1.61735 0.341911 0)
(1.20902 0.276587 0)
(2.20912 0.554268 -1.46521e-18)
(1.63527 0.402198 8.1722e-19)
(2.14561 0.129125 -9.85139e-19)
(2.6266 0.297533 0)
(2.46566 0.301649 4.13476e-19)
(1.76987 0.13572 1.63295e-18)
(1.53026 0.0812685 -1.03701e-18)
(0.745499 1.55583 8.58012e-19)
(0.959717 1.82029 0)
(0.537621 1.43997 1.56081e-18)
(0.523812 1.61477 -1.42518e-18)
(0.757125 1.81441 -9.88306e-19)
(2.07327 2.46255 1.33765e-18)
(2.09661 2.71194 0)
(1.58338 1.67803 -2.76336e-19)
(2.00958 1.98937 1.74501e-18)
(1.35978 1.29253 -4.23564e-19)
(1.58858 1.31339 4.5067e-19)
(2.10951 1.51319 1.02314e-18)
(2.44265 1.67094 0)
(2.27594 1.85605 0)
(2.00984 1.60598 0)
(3.9568 2.07991 3.84487e-19)
(3.7598 1.88979 -1.26352e-18)
(3.81721 2.02812 1.04674e-18)
(3.90106 1.77151 -1.00829e-18)
(4.15789 1.67392 0)
(4.11697 1.84113 -2.97826e-19)
(2.84043 1.16333 -1.89724e-18)
(2.9708 1.16344 -2.41294e-18)
(2.33194 1.04356 1.45638e-18)
(2.13823 0.934434 -1.41979e-18)
(2.46347 0.846177 -1.17808e-18)
(2.17854 0.776947 1.4488e-18)
(4.00845 0.0334776 -1.52886e-18)
(4.05276 0.0406918 3.13014e-18)
(3.76797 -0.0658792 1.90086e-18)
(3.79119 -0.0737699 -2.28673e-18)
(3.95955 0.0105765 0)
(4.05604 0.0228811 -3.72973e-18)
(0.0966595 4.76153 1.06549e-19)
(0.0674824 4.73213 0)
(0.189517 4.73151 9.53543e-19)
(0.21109 4.74925 -8.67501e-19)
(0.230988 4.71902 4.28454e-19)
(0.12199 4.65908 0)
(-0.100619 4.77124 0)
(-0.106423 4.40434 -6.18492e-20)
(-0.105321 4.33349 5.54372e-20)
(-0.114051 4.48244 7.18239e-21)
(-0.104735 4.72142 -1.01164e-19)
(-0.0818544 4.70905 5.5089e-20)
(1.87534 4.00957 -1.64321e-18)
(1.8163 4.01606 1.74015e-18)
(1.68398 4.40659 -8.54227e-19)
(1.6927 4.27729 7.61228e-20)
(2.25269 4.08661 0)
(1.85457 4.22019 -6.35471e-19)
(1.98182 3.96003 6.16314e-19)
(1.82388 4.3811 8.34421e-19)
(2.07661 4.21939 0)
(2.22806 4.10038 0)
(1.13814 3.6306 1.49497e-18)
(0.826471 2.81105 2.02318e-18)
(0.954185 2.98942 -1.38951e-18)
(0.746398 2.97106 -2.31882e-19)
(0.902249 3.73014 4.66283e-19)
(0.721952 3.36263 -1.13395e-18)
(0.745634 1.46552 -1.21469e-18)
(0.746112 1.31674 0)
(0.602464 1.11434 -1.33512e-18)
(1.11075 2.06372 0)
(1.08771 2.15066 0)
(1.35839 2.19067 -1.09052e-18)
(1.06432 2.01403 -1.03593e-18)
(1.01669 2.03492 1.09861e-18)
(1.03096 1.51907 0)
(1.41016 1.76164 -6.01186e-19)
(1.62706 2.11882 -8.55388e-19)
(1.4106 2.08243 0)
(0.867678 1.8183 7.12406e-19)
(0.779594 1.67938 0)
(2.90586 2.28881 -1.84702e-18)
(3.31877 2.47055 2.60922e-18)
(3.27747 2.19306 -2.59331e-18)
(2.61014 2.02077 -2.31172e-19)
(2.72474 1.94025 -9.74125e-19)
(1.26169 2.18956 7.96108e-19)
(1.31582 2.24437 -1.35981e-18)
(1.45384 2.32933 1.79266e-18)
(1.79004 2.55932 -1.16515e-18)
(1.8886 2.93202 -1.56711e-18)
(1.56288 2.48839 -1.18794e-19)
(1.63261 2.62791 1.37116e-18)
(1.80971 2.69278 9.661e-20)
(2.01759 2.9985 6.49954e-19)
)
;

boundaryField
{
    wall-4
    {
        type            noSlip;
    }
    velocity-inlet-5
    {
        type            fixedValue;
        value           uniform (3 0 0);
    }
    velocity-inlet-6
    {
        type            fixedValue;
        value           uniform (0 1 0);
    }
    pressure-outlet-7
    {
        type            zeroGradient;
    }
    wall-8
    {
        type            noSlip;
    }
    frontAndBackPlanes
    {
        type            empty;
    }
}


// ************************************************************************* //
