/*--------------------------------*- C++ -*----------------------------------*\
  =========                 |
  \\      /  F ield         | OpenFOAM: The Open Source CFD Toolbox
   \\    /   O peration     | Website:  https://openfoam.org
    \\  /    A nd           | Version:  9
     \\/     M anipulation  |
\*---------------------------------------------------------------------------*/
FoamFile
{
    format      ascii;
    class       volScalarField;
    location    "135";
    object      k;
}
// * * * * * * * * * * * * * * * * * * * * * * * * * * * * * * * * * * * * * //

dimensions      [0 2 -2 0 0 0 0];

internalField   nonuniform List<scalar> 
12225
(
0.362833
0.343998
0.327736
0.309835
0.295367
0.283528
0.275441
0.270305
0.270341
0.271909
0.27604
0.280751
0.28988
0.29587
0.306922
0.312942
0.325675
0.328041
0.440285
0.468731
0.461616
0.448367
0.450351
0.458323
0.474368
0.498863
0.524194
0.552534
0.580646
0.606664
0.633987
0.654473
0.680506
0.693821
0.720588
0.726242
0.390419
0.417849
0.420243
0.416822
0.41164
0.4078
0.408002
0.410043
0.414454
0.421573
0.43065
0.439937
0.451168
0.461496
0.472963
0.484253
0.493941
0.507897
0.377049
0.387163
0.391468
0.391342
0.39026
0.387883
0.385656
0.384085
0.382867
0.382897
0.383368
0.384378
0.386282
0.38857
0.390974
0.394438
0.396831
0.401643
0.374436
0.376091
0.378429
0.378664
0.378275
0.377201
0.375486
0.373738
0.372005
0.370454
0.369249
0.368118
0.367369
0.366833
0.366455
0.366406
0.366453
0.366908
0.37378
0.372703
0.372659
0.372365
0.371773
0.370818
0.369552
0.368082
0.366568
0.364976
0.363521
0.362065
0.360746
0.359533
0.358394
0.357444
0.356459
0.355844
0.373775
0.371739
0.370388
0.369283
0.368235
0.367114
0.365914
0.364586
0.363235
0.361807
0.360417
0.359022
0.357671
0.356379
0.355113
0.353964
0.352792
0.351814
0.373819
0.371559
0.369635
0.367976
0.3665
0.365107
0.363774
0.362428
0.361105
0.359764
0.358446
0.35714
0.355857
0.354616
0.353393
0.352242
0.351091
0.350049
0.373832
0.371553
0.369449
0.367525
0.365776
0.364153
0.362644
0.361198
0.359815
0.358471
0.357166
0.355899
0.354662
0.353469
0.3523
0.351188
0.350089
0.349067
0.373831
0.37156
0.369418
0.367405
0.365528
0.363772
0.362132
0.360584
0.35912
0.357726
0.356392
0.355114
0.353884
0.352705
0.351563
0.350475
0.349413
0.348415
0.373829
0.37156
0.369413
0.367378
0.365458
0.363645
0.361936
0.360323
0.358797
0.357351
0.355977
0.354669
0.353421
0.352231
0.35109
0.350004
0.348955
0.347966
0.373828
0.371558
0.369409
0.36737
0.365439
0.363608
0.361875
0.360233
0.358676
0.3572
0.355798
0.354466
0.353198
0.351992
0.350839
0.349744
0.348693
0.347699
0.373827
0.371556
0.369405
0.367365
0.36543
0.363593
0.361851
0.360196
0.358625
0.357133
0.355714
0.354366
0.353083
0.351862
0.350699
0.349593
0.348534
0.347532
0.373827
0.371555
0.369401
0.367359
0.365422
0.363583
0.361837
0.360177
0.3586
0.3571
0.355673
0.354316
0.353023
0.351794
0.350621
0.349506
0.34844
0.347429
0.373826
0.371553
0.369398
0.367355
0.365416
0.363575
0.361826
0.360164
0.358584
0.357081
0.35565
0.354289
0.352992
0.351758
0.350581
0.34946
0.34839
0.347371
0.373826
0.371552
0.369396
0.367351
0.36541
0.363567
0.361817
0.360153
0.358571
0.357066
0.355634
0.354271
0.352972
0.351735
0.350556
0.349431
0.34836
0.347337
0.373825
0.371551
0.369394
0.367348
0.365406
0.363562
0.36181
0.360145
0.358562
0.357055
0.355622
0.354257
0.352956
0.351718
0.350537
0.349411
0.348337
0.347313
0.373825
0.371551
0.369393
0.367346
0.365403
0.363558
0.361805
0.360139
0.358555
0.357048
0.355613
0.354247
0.352945
0.351705
0.350523
0.349396
0.34832
0.347294
0.373825
0.37155
0.369393
0.367346
0.365402
0.363557
0.361804
0.360137
0.358552
0.357044
0.355609
0.354242
0.352939
0.351699
0.350515
0.349387
0.348311
0.347284
0.373825
0.371551
0.369393
0.367347
0.365404
0.363559
0.361806
0.36014
0.358555
0.357048
0.355612
0.354246
0.352943
0.351702
0.350519
0.349391
0.348314
0.347287
0.373826
0.371551
0.369395
0.367349
0.365407
0.363563
0.361812
0.360146
0.358563
0.357056
0.355622
0.354257
0.352956
0.351717
0.350536
0.349409
0.348335
0.347309
0.373826
0.371552
0.369397
0.367352
0.365412
0.363571
0.361822
0.360162
0.358584
0.357084
0.355657
0.3543
0.353008
0.351776
0.350604
0.349485
0.348418
0.347399
0.373826
0.371554
0.369399
0.367359
0.365429
0.363603
0.361875
0.360241
0.358691
0.357221
0.355824
0.354495
0.353228
0.35202
0.350867
0.349764
0.348712
0.347702
0.373828
0.371551
0.369412
0.367417
0.365556
0.363819
0.36219
0.360651
0.359189
0.357794
0.356457
0.355172
0.353937
0.352746
0.351601
0.350496
0.349437
0.34841
0.373823
0.371554
0.369604
0.367893
0.366339
0.364892
0.363495
0.362122
0.360761
0.359414
0.358081
0.35677
0.355489
0.354238
0.353029
0.351855
0.350734
0.349645
0.373781
0.37199
0.371113
0.370265
0.36936
0.368311
0.367048
0.36563
0.364121
0.362575
0.36103
0.359522
0.358073
0.356682
0.355381
0.354141
0.353009
0.351924
0.374297
0.375564
0.377778
0.377858
0.377291
0.375885
0.373835
0.371641
0.369505
0.367482
0.365663
0.364084
0.362709
0.361534
0.360609
0.359817
0.359288
0.358801
0.378732
0.394394
0.398294
0.396566
0.392559
0.387608
0.383641
0.380454
0.378264
0.37685
0.376494
0.376746
0.377396
0.378693
0.380439
0.382419
0.384824
0.387136
0.408344
0.427538
0.422423
0.411049
0.402225
0.39792
0.398552
0.401111
0.405977
0.413028
0.420984
0.429815
0.438821
0.448177
0.457293
0.466542
0.475314
0.484178
0.366033
0.353411
0.341988
0.330209
0.318982
0.308382
0.299408
0.291674
0.285402
0.280331
0.27668
0.273864
0.272307
0.27118
0.271172
0.271517
0.272151
0.273383
0.00663012
0.022623
0.03607
0.0485602
0.0608137
0.0727771
0.0842546
0.0949525
0.104419
0.11217
0.11766
0.120205
0.12003
0.11726
0.121689
0.128691
0.134501
0.139779
0.142276
0.140022
0.14388
0.146718
0.149878
0.150932
0.14943
0.161537
0.170274
0.180469
0.190585
0.201
0.211513
0.222176
0.232912
0.243763
0.254676
0.265711
0.276808
0.288028
0.299319
0.310746
0.322259
0.333927
0.345701
0.357649
0.369712
0.381938
0.394268
0.406773
0.419397
0.432207
0.445146
0.458282
0.471556
0.485035
0.498661
0.5125
0.52649
0.540696
0.555057
0.569636
0.584369
0.599317
0.61442
0.629734
0.645197
0.660862
0.676667
0.692658
0.708777
0.725061
0.741457
0.75799
0.774612
0.791333
0.808113
0.824944
0.841789
0.858623
0.875411
0.892111
0.908692
0.925096
0.941314
0.957304
0.973146
0.988912
1.00454
1.01986
1.03491
1.04958
1.06385
1.07767
1.091
1.10378
1.11596
1.12747
1.13825
1.14825
1.15738
1.16558
1.1728
1.17902
1.18423
1.18848
1.19173
1.19347
1.19367
1.19098
1.18946
1.18654
1.18219
1.17666
1.17
1.16224
1.15347
1.14371
1.13302
1.12124
1.10868
1.09545
1.08166
1.0674
1.05281
1.03797
1.02299
1.00791
0.992844
0.977811
0.962909
0.948161
0.933645
0.91938
0.905422
0.891786
0.87851
0.865605
0.853092
0.840971
0.829249
0.817939
0.807057
0.796602
0.786577
0.776958
0.767736
0.758891
0.750416
0.742314
0.734784
0.728625
0.723083
0.717826
0.7128
0.70796
0.703265
0.698747
0.694358
0.689811
0.684585
0.679268
0.67434
0.669913
0.665828
0.661762
0.657781
0.653923
0.650191
0.646575
0.643081
0.639704
0.636444
0.63329
0.630234
0.62725
0.624302
0.621315
0.618152
0.614486
0.609448
0.586397
0.0185817
0.0472885
0.0657887
0.0803831
0.0935418
0.106144
0.11837
0.130106
0.141072
0.150958
0.15952
0.166851
0.173931
0.183373
0.194431
0.205535
0.216692
0.227635
0.237868
0.245136
0.255406
0.267752
0.280764
0.29687
0.31953
0.339746
0.356777
0.373891
0.391514
0.409585
0.427976
0.446634
0.465508
0.484588
0.503858
0.523328
0.542986
0.562845
0.582902
0.603178
0.623677
0.644429
0.665445
0.686768
0.708424
0.730347
0.752528
0.774991
0.797737
0.820789
0.844146
0.867831
0.891841
0.916201
0.940908
0.965983
0.991422
1.01724
1.04344
1.07004
1.09702
1.12441
1.1522
1.1804
1.20901
1.23803
1.26745
1.29729
1.32752
1.35816
1.38919
1.4206
1.45239
1.48453
1.51701
1.54982
1.58292
1.61629
1.64989
1.68368
1.71761
1.75161
1.78562
1.81952
1.85322
1.88657
1.91966
1.95258
1.98526
2.01761
2.04953
2.08094
2.11175
2.14183
2.17107
2.19934
2.22651
2.25245
2.27702
2.30006
2.32134
2.34075
2.35815
2.37344
2.38652
2.39722
2.40547
2.4105
2.41321
2.41482
2.41341
2.40935
2.40281
2.3939
2.38273
2.36943
2.3541
2.33691
2.318
2.29756
2.27576
2.25281
2.22889
2.2042
2.1789
2.15317
2.12713
2.10093
2.07469
2.04853
2.02255
1.99684
1.97149
1.94655
1.92209
1.89816
1.87479
1.85201
1.82984
1.80832
1.78747
1.7673
1.74781
1.72899
1.71083
1.6933
1.67638
1.66005
1.64436
1.6294
1.61502
1.60108
1.58751
1.57422
1.56105
1.54805
1.53525
1.52262
1.51016
1.49787
1.48593
1.47426
1.46273
1.45132
1.44005
1.42895
1.418
1.40718
1.39651
1.38598
1.37556
1.36526
1.35505
1.3449
1.33476
1.32462
1.31429
1.30407
1.29234
1.26178
0.033834
0.0727977
0.095329
0.112684
0.128096
0.142687
0.1569
0.170872
0.184591
0.198031
0.211255
0.224539
0.238387
0.253266
0.268779
0.284567
0.300532
0.316596
0.332626
0.34868
0.366216
0.38514
0.405327
0.427098
0.450286
0.473202
0.495742
0.518399
0.54138
0.564721
0.588397
0.612379
0.636638
0.661159
0.68593
0.710948
0.736206
0.76171
0.787461
0.813471
0.839747
0.866303
0.893149
0.920297
0.947755
0.975524
1.00361
1.03203
1.06079
1.08991
1.11939
1.14925
1.17949
1.21013
1.24118
1.27264
1.30452
1.33682
1.36956
1.40273
1.43633
1.47038
1.50486
1.53977
1.57513
1.61092
1.64715
1.6838
1.72087
1.75835
1.79624
1.83452
1.87317
1.9122
1.95157
1.99126
2.03126
2.07155
2.11208
2.15282
2.19375
2.23483
2.27601
2.31724
2.35849
2.39968
2.44077
2.4817
2.5224
2.56274
2.60263
2.64195
2.68059
2.71838
2.7552
2.79087
2.82523
2.8581
2.88929
2.91862
2.94588
2.9709
2.99351
3.01353
3.03084
3.04532
3.05689
3.06517
3.07008
3.07243
3.07216
3.06848
3.06169
3.05194
3.03935
3.02408
3.00627
2.98611
2.9638
2.93954
2.91356
2.88609
2.85735
2.82759
2.797
2.76579
2.73414
2.70221
2.67017
2.63816
2.6063
2.57471
2.54348
2.5127
2.48244
2.45276
2.42371
2.39532
2.36763
2.34066
2.31444
2.28899
2.26429
2.24035
2.21714
2.19464
2.17281
2.15164
2.1311
2.11122
2.09189
2.07304
2.05461
2.03651
2.01864
2.00101
1.9836
1.96644
1.94957
1.93293
1.9165
1.90023
1.88407
1.86804
1.85215
1.83641
1.82082
1.80536
1.79006
1.77489
1.75986
1.74495
1.73016
1.71547
1.70088
1.68642
1.67208
1.65831
1.64394
1.61869
0.0497996
0.097098
0.123868
0.144104
0.161781
0.178353
0.194484
0.210495
0.226532
0.24268
0.259031
0.275736
0.292977
0.310875
0.329362
0.348348
0.367791
0.3877
0.408117
0.429161
0.451066
0.473894
0.497654
0.522343
0.547801
0.573664
0.599796
0.62623
0.653003
0.680129
0.707596
0.735391
0.763496
0.7919
0.820591
0.849567
0.878823
0.908362
0.938186
0.968301
0.998714
1.02943
1.06047
1.09183
1.12353
1.15557
1.18797
1.22073
1.25387
1.2874
1.32132
1.35566
1.39042
1.42561
1.46123
1.4973
1.53382
1.57079
1.60823
1.64612
1.68448
1.72329
1.76257
1.80231
1.84251
1.88316
1.92426
1.9658
2.00778
2.05018
2.09299
2.13622
2.17983
2.22383
2.26819
2.3129
2.35793
2.40328
2.44891
2.49481
2.54093
2.58726
2.63375
2.68037
2.72706
2.77377
2.82043
2.86697
2.9133
2.95931
3.00487
3.04988
3.09419
3.13765
3.18009
3.22134
3.26121
3.2995
3.33599
3.37047
3.40274
3.43257
3.45976
3.48412
3.50549
3.52369
3.53863
3.55015
3.55801
3.56221
3.56353
3.56117
3.55526
3.54594
3.53332
3.51758
3.49889
3.47744
3.45345
3.42716
3.39881
3.36866
3.33697
3.304
3.26998
3.23513
3.19968
3.16381
3.12771
3.09155
3.05546
3.01959
2.98404
2.94891
2.91429
2.88025
2.84683
2.81409
2.78207
2.75079
2.72028
2.69055
2.6616
2.63343
2.606
2.57931
2.55331
2.52798
2.50327
2.47918
2.45563
2.43256
2.40992
2.38763
2.36563
2.34389
2.32239
2.30113
2.28014
2.25934
2.23872
2.21823
2.19784
2.17756
2.15741
2.1374
2.11754
2.09782
2.07825
2.05884
2.03959
2.0205
2.00158
1.98285
1.96434
1.94615
1.92841
1.91165
1.89497
1.87217
0.0653521
0.119948
0.150787
0.173883
0.193794
0.212251
0.230098
0.247787
0.265569
0.283599
0.301984
0.32083
0.340234
0.360272
0.380966
0.402316
0.424323
0.447001
0.470368
0.494453
0.51929
0.544903
0.571288
0.598415
0.626208
0.654554
0.68337
0.712615
0.742268
0.772313
0.802733
0.833515
0.864643
0.896111
0.927908
0.960031
0.992477
1.02524
1.05834
1.09176
1.12551
1.1596
1.19405
1.22884
1.26401
1.29955
1.33548
1.37181
1.40854
1.4457
1.48328
1.52131
1.55979
1.59873
1.63813
1.67801
1.71837
1.75922
1.80055
1.84236
1.88467
1.92747
1.97075
2.01452
2.05877
2.10349
2.14868
2.19434
2.24044
2.287
2.33399
2.3814
2.42923
2.47746
2.52607
2.57506
2.62441
2.67409
2.7241
2.77441
2.82499
2.87582
2.92687
2.97808
3.02942
3.08084
3.13225
3.1836
3.2348
3.28572
3.33627
3.38631
3.4357
3.48429
3.53189
3.57834
3.6234
3.66689
3.70855
3.74817
3.78549
3.82029
3.85233
3.88138
3.90723
3.9297
3.94863
3.96388
3.97533
3.98266
3.98621
3.98612
3.98207
3.97417
3.96257
3.94741
3.92888
3.90719
3.88257
3.85527
3.82555
3.79371
3.76002
3.72475
3.68817
3.65053
3.61208
3.57303
3.53359
3.49395
3.45427
3.4147
3.37537
3.33639
3.29786
3.25986
3.22246
3.1857
3.14964
3.1143
3.07971
3.04589
3.01283
2.98053
2.94896
2.91812
2.88796
2.85844
2.82955
2.80122
2.77342
2.74609
2.71917
2.69261
2.66634
2.64034
2.61458
2.58904
2.56371
2.53856
2.51356
2.48867
2.46389
2.43922
2.41467
2.39025
2.36599
2.34189
2.31797
2.29424
2.27072
2.24743
2.22439
2.20166
2.17931
2.1575
2.13644
2.11669
2.09756
2.07491
0.0798639
0.140608
0.175138
0.200897
0.2229
0.243092
0.262455
0.281544
0.300691
0.320108
0.339941
0.360298
0.381266
0.402911
0.425276
0.448388
0.472258
0.496897
0.522304
0.548479
0.575414
0.603101
0.631519
0.66064
0.690417
0.720795
0.75172
0.783152
0.815057
0.847412
0.880196
0.913392
0.946987
0.980971
1.01533
1.05007
1.08517
1.12065
1.15649
1.1927
1.22929
1.26626
1.30361
1.34136
1.37951
1.41807
1.45706
1.49648
1.53634
1.57666
1.61745
1.65871
1.70045
1.7427
1.78544
1.82869
1.87246
1.91675
1.96155
2.00688
2.05273
2.0991
2.14598
2.19338
2.24129
2.2897
2.33861
2.388
2.43788
2.48822
2.53902
2.59026
2.64195
2.69406
2.74658
2.79949
2.8528
2.90647
2.96049
3.01485
3.06952
3.12447
3.17968
3.2351
3.2907
3.34643
3.40222
3.45802
3.51373
3.56926
3.62449
3.6793
3.73356
3.7871
3.83976
3.89132
3.94159
3.99033
4.03731
4.08226
4.12492
4.16503
4.20232
4.23654
4.26743
4.29478
4.31837
4.33803
4.35363
4.36503
4.37193
4.37476
4.37345
4.36787
4.35815
4.34446
4.32695
4.30586
4.28141
4.25387
4.22353
4.19068
4.15564
4.11869
4.08013
4.04023
3.99926
3.95747
3.91508
3.87231
3.82934
3.78634
3.74346
3.70082
3.65853
3.61669
3.57537
3.53463
3.49453
3.4551
3.41638
3.37837
3.34108
3.3045
3.26863
3.23343
3.19889
3.16497
3.13162
3.09881
3.0665
3.03462
3.00313
2.97198
2.94113
2.91052
2.88014
2.84996
2.81995
2.79011
2.7604
2.7308
2.70132
2.67194
2.6427
2.61361
2.58469
2.55597
2.52748
2.49924
2.47128
2.44365
2.4164
2.38959
2.36336
2.33789
2.31346
2.29061
2.26873
2.24489
0.0928481
0.158574
0.196296
0.224413
0.248298
0.270059
0.290778
0.311083
0.331366
0.351893
0.372841
0.394341
0.416488
0.439351
0.462977
0.487398
0.51263
0.538681
0.565545
0.593215
0.621673
0.650898
0.680865
0.711545
0.742901
0.774895
0.807489
0.840649
0.874344
0.908549
0.943243
0.978408
1.01403
1.0501
1.0866
1.12353
1.16088
1.19865
1.23685
1.27546
1.3145
1.35396
1.39386
1.43419
1.47498
1.51622
1.55792
1.60011
1.64278
1.68595
1.72963
1.77383
1.81855
1.86382
1.90962
1.95598
2.0029
2.05038
2.09841
2.14701
2.19618
2.2459
2.29617
2.347
2.39837
2.45027
2.5027
2.55565
2.6091
2.66305
2.71748
2.77238
2.82775
2.88355
2.93979
2.99645
3.05352
3.11098
3.16881
3.227
3.28553
3.34437
3.4035
3.46289
3.5225
3.5823
3.64223
3.70224
3.76224
3.82216
3.88188
3.9413
4.00029
4.05868
4.1163
4.17297
4.22846
4.28254
4.33496
4.38543
4.43369
4.47943
4.52236
4.56219
4.59862
4.6314
4.66026
4.68499
4.70542
4.72138
4.73271
4.73928
4.74143
4.73895
4.73191
4.72045
4.70474
4.68497
4.66139
4.63429
4.60395
4.5707
4.53484
4.49672
4.45663
4.41488
4.37177
4.32756
4.28251
4.23685
4.19079
4.14452
4.09821
4.05198
4.00598
3.9603
3.91504
3.87026
3.82603
3.7824
3.73938
3.69701
3.65528
3.61421
3.57378
3.53397
3.49475
3.45611
3.41799
3.38037
3.34319
3.30642
3.27
3.2339
3.19806
3.16246
3.12706
3.09184
3.05679
3.02187
2.98709
2.95243
2.91789
2.88348
2.84923
2.81516
2.7813
2.74771
2.71441
2.68145
2.64888
2.61677
2.58517
2.55419
2.52399
2.49479
2.4669
2.44079
2.41592
2.38997
0.104016
0.173623
0.213991
0.244111
0.269634
0.292788
0.314718
0.336103
0.357376
0.378836
0.400691
0.423092
0.446146
0.46993
0.494496
0.519879
0.546098
0.57316
0.601062
0.629794
0.659339
0.689676
0.720779
0.752621
0.785173
0.818405
0.852286
0.886788
0.921884
0.957553
0.993772
1.03053
1.0678
1.10558
1.14386
1.18263
1.22188
1.26162
1.30183
1.34252
1.3837
1.42535
1.4675
1.51014
1.55328
1.59694
1.64111
1.68582
1.73106
1.77686
1.82322
1.87015
1.91767
1.96577
2.01447
2.06377
2.11368
2.1642
2.21534
2.26708
2.31944
2.37239
2.42595
2.4801
2.53483
2.59014
2.646
2.70242
2.75937
2.81684
2.87482
2.93329
2.99224
3.05165
3.1115
3.17179
3.2325
3.29361
3.3551
3.41697
3.47919
3.54174
3.6046
3.66776
3.73118
3.79482
3.85866
3.92264
3.98671
4.05078
4.11477
4.17858
4.24209
4.30515
4.3676
4.42925
4.48989
4.54928
4.60715
4.66323
4.71721
4.76877
4.81759
4.86333
4.90568
4.94432
4.97895
5.0093
5.03514
5.05628
5.07255
5.08381
5.09006
5.0914
5.08777
5.07928
5.06605
5.0483
5.02626
5.00022
4.97047
4.93736
4.90122
4.86238
4.8212
4.778
4.73309
4.68678
4.63933
4.59101
4.54204
4.49264
4.44299
4.39325
4.34357
4.29405
4.24481
4.19592
4.14746
4.09949
4.05202
4.00511
3.95874
3.91294
3.8677
3.82301
3.77883
3.73517
3.69196
3.64919
3.60681
3.56479
3.52309
3.48166
3.44047
3.39949
3.35869
3.31806
3.27758
3.23724
3.19704
3.15697
3.11705
3.0773
3.03774
2.99841
2.95937
2.92067
2.88236
2.8445
2.80717
2.77043
2.73439
2.69917
2.66493
2.63194
2.60049
2.57102
2.54298
2.51464
0.113247
0.185752
0.228227
0.259992
0.286895
0.311252
0.334245
0.356582
0.37872
0.400979
0.423586
0.446707
0.47046
0.494931
0.520179
0.546245
0.573149
0.600905
0.629511
0.658962
0.689243
0.720337
0.752224
0.784882
0.818286
0.852413
0.887238
0.92274
0.958896
0.995687
1.03309
1.0711
1.10969
1.14886
1.1886
1.22889
1.26974
1.31114
1.35308
1.39557
1.43861
1.48221
1.52635
1.57107
1.61634
1.6622
1.70865
1.75568
1.80333
1.85159
1.90048
1.95001
2.00018
2.05101
2.10249
2.15464
2.20746
2.26096
2.31512
2.36995
2.42544
2.4816
2.5384
2.59584
2.65391
2.71259
2.77186
2.83172
2.89215
2.95312
3.01462
3.07662
3.13912
3.20208
3.26549
3.32934
3.3936
3.45826
3.52331
3.58871
3.65447
3.72056
3.78697
3.85368
3.92067
3.98792
4.0554
4.12307
4.19089
4.25881
4.32675
4.39462
4.46233
4.52975
4.59673
4.66309
4.72863
4.79312
4.85628
4.91784
4.97748
5.03486
5.08963
5.14142
5.18988
5.23464
5.27536
5.31172
5.34344
5.37026
5.39199
5.40846
5.41958
5.42537
5.42581
5.42095
5.4109
5.39582
5.37596
5.35159
5.32303
5.29062
5.25471
5.21567
5.17385
5.1296
5.08327
5.03517
4.98562
4.93488
4.88322
4.83087
4.77802
4.72487
4.67157
4.61825
4.56503
4.51201
4.45926
4.40686
4.35484
4.30324
4.25208
4.20137
4.15111
4.1013
4.05194
4.00298
3.95442
3.90621
3.85834
3.81076
3.76345
3.71637
3.6695
3.62281
3.57629
3.52992
3.48369
3.43761
3.39168
3.34592
3.30034
3.25497
3.20986
3.16506
3.12063
3.07663
3.03315
2.99025
2.94803
2.90659
2.86603
2.82651
2.78822
2.75139
2.71633
2.68343
2.65214
2.62114
0.120536
0.195103
0.239193
0.272258
0.300284
0.325643
0.349536
0.372685
0.39556
0.418489
0.441709
0.465394
0.489672
0.514636
0.540353
0.566867
0.594207
0.622392
0.651426
0.681309
0.712032
0.743584
0.775951
0.809118
0.843068
0.877783
0.913246
0.94944
0.986348
1.02395
1.06224
1.1012
1.14081
1.18108
1.22198
1.26352
1.30568
1.34848
1.3919
1.43594
1.48062
1.52593
1.57187
1.61845
1.66568
1.71357
1.76213
1.81136
1.86127
1.91189
1.9632
2.01524
2.06799
2.12148
2.1757
2.23065
2.28635
2.34279
2.39997
2.45789
2.51653
2.57588
2.63594
2.69669
2.75812
2.8202
2.88291
2.94624
3.01016
3.07464
3.13966
3.2052
3.27124
3.33773
3.40467
3.47202
3.53977
3.60789
3.67637
3.74519
3.81433
3.88377
3.95351
4.02353
4.09382
4.16436
4.23514
4.30613
4.37732
4.44865
4.52009
4.59157
4.66301
4.7343
4.80532
4.87592
4.9459
5.01506
5.08312
5.14982
5.21482
5.27778
5.33833
5.39607
5.45061
5.50155
5.54849
5.59107
5.62895
5.66181
5.68941
5.71153
5.72803
5.73886
5.74398
5.7434
5.73717
5.72542
5.70837
5.68631
5.65954
5.62842
5.59331
5.55457
5.5126
5.46776
5.42042
5.37093
5.31961
5.26676
5.21268
5.1576
5.10177
5.04537
4.98858
4.93156
4.87444
4.81732
4.7603
4.70346
4.64684
4.59049
4.53444
4.47871
4.4233
4.36824
4.31349
4.25907
4.20494
4.15108
4.09748
4.04411
3.99095
3.93797
3.88516
3.8325
3.77999
3.72762
3.6754
3.62333
3.57144
3.51975
3.4683
3.41712
3.36628
3.31583
3.26586
3.21644
3.16768
3.11966
3.07249
3.02629
2.9812
2.93737
2.895
2.85434
2.81566
2.77931
2.74475
2.71102
0.125967
0.2019
0.247168
0.281217
0.310115
0.336268
0.360886
0.384694
0.408164
0.431625
0.455318
0.47942
0.504065
0.529352
0.555351
0.582116
0.609681
0.638071
0.667299
0.697371
0.728285
0.760039
0.792625
0.826035
0.86026
0.895291
0.931117
0.967728
1.00511
1.04326
1.08216
1.1218
1.16217
1.20326
1.24508
1.28761
1.33086
1.37482
1.41949
1.46488
1.51099
1.55782
1.60538
1.65368
1.70272
1.75252
1.80307
1.85439
1.9065
1.95939
2.01308
2.06758
2.12289
2.17902
2.23597
2.29375
2.35234
2.41176
2.47199
2.53303
2.59486
2.65748
2.72085
2.78497
2.84981
2.91535
2.98156
3.0484
3.11586
3.18389
3.25247
3.32157
3.39114
3.46115
3.53158
3.60239
3.67356
3.74505
3.81684
3.88891
3.96124
4.03382
4.10663
4.17966
4.25291
4.32636
4.40002
4.47387
4.5479
4.62211
4.69646
4.77091
4.84542
4.91991
4.99429
5.06843
5.14217
5.21531
5.28763
5.35885
5.42865
5.49669
5.56257
5.62589
5.68623
5.74315
5.79621
5.84501
5.88913
5.92822
5.96195
5.99006
6.01235
6.0287
6.03904
6.04333
6.04159
6.03381
6.02022
6.0011
5.97676
5.94754
5.91381
5.87595
5.83437
5.78945
5.74158
5.69113
5.63846
5.58389
5.52773
5.47025
5.4117
5.3523
5.29225
5.23171
5.17084
5.10976
5.04856
4.98735
4.92617
4.8651
4.80415
4.74338
4.68278
4.62239
4.56219
4.5022
4.44239
4.38276
4.32329
4.26398
4.2048
4.14576
4.08683
4.02803
3.96935
3.91081
3.85242
3.7942
3.73619
3.67842
3.62095
3.56383
3.50713
3.45094
3.39535
3.34045
3.28635
3.23318
3.18105
3.1301
3.08049
3.03237
2.98597
2.94151
2.89925
2.8595
2.82172
2.78526
0.129649
0.206394
0.252466
0.287215
0.316749
0.34349
0.368649
0.392949
0.416858
0.440704
0.464725
0.489099
0.51396
0.539412
0.565531
0.592376
0.619987
0.648395
0.67762
0.707677
0.738574
0.770314
0.802897
0.836322
0.87059
0.9057
0.941652
0.978443
1.01607
1.05453
1.09381
1.1339
1.17481
1.21652
1.25903
1.30235
1.34647
1.39141
1.43715
1.48372
1.53111
1.57933
1.62838
1.67828
1.72903
1.78065
1.83314
1.88652
1.94078
1.99594
2.05201
2.10898
2.16688
2.22569
2.28542
2.34607
2.40763
2.4701
2.53346
2.59771
2.66282
2.72878
2.79556
2.86314
2.93148
3.00056
3.07033
3.14076
3.21181
3.28344
3.35561
3.42827
3.50137
3.57489
3.64876
3.72296
3.79744
3.87216
3.9471
4.02223
4.09752
4.17296
4.24852
4.3242
4.39999
4.47589
4.5519
4.62803
4.70428
4.78066
4.85718
4.93381
5.01055
5.08736
5.16418
5.24093
5.31748
5.39368
5.46933
5.54417
5.61791
5.69022
5.7607
5.82895
5.89452
5.95696
6.0158
6.07057
6.12083
6.16613
6.2061
6.24041
6.26879
6.29105
6.30706
6.31681
6.32004
6.31697
6.30748
6.29197
6.27071
6.24405
6.21234
6.17599
6.13539
6.09097
6.04312
5.99225
5.93871
5.88287
5.82506
5.76557
5.70468
5.64262
5.57961
5.51584
5.45147
5.38664
5.32147
5.25605
5.19046
5.12477
5.05903
4.99329
4.92755
4.86187
4.79623
4.73066
4.66515
4.59972
4.53434
4.46903
4.40378
4.3386
4.27348
4.20845
4.14352
4.07872
4.01407
3.94962
3.88541
3.8215
3.75795
3.69484
3.63225
3.57028
3.50905
3.44867
3.38926
3.33096
3.27391
3.21827
3.1642
3.11188
3.06151
3.01334
2.96758
2.92451
2.88362
2.84454
0.131838
0.208864
0.255401
0.290594
0.320544
0.347674
0.373192
0.397813
0.422
0.446076
0.470277
0.49478
0.519718
0.545193
0.571285
0.598056
0.625553
0.653815
0.682872
0.712749
0.743465
0.775036
0.807444
0.840703
0.874829
0.909834
0.945727
0.982515
1.0202
1.05879
1.09827
1.13865
1.17993
1.2221
1.26516
1.30909
1.35395
1.39974
1.44645
1.49408
1.54265
1.59217
1.64266
1.69412
1.74656
1.79999
1.85442
1.90987
1.96633
2.02381
2.08232
2.14185
2.20242
2.26401
2.32663
2.39027
2.45492
2.52056
2.58718
2.65476
2.72327
2.79269
2.86299
2.93412
3.00606
3.07875
3.15216
3.22623
3.30092
3.37616
3.45192
3.52812
3.60472
3.68166
3.75889
3.83634
3.91398
3.99174
4.0696
4.14751
4.22545
4.30337
4.38128
4.45914
4.53695
4.61471
4.69244
4.77014
4.84783
4.92555
5.00332
5.08117
5.15911
5.23715
5.31528
5.39347
5.47164
5.54969
5.62746
5.70474
5.78127
5.85674
5.93079
6.00301
6.07298
6.14021
6.20422
6.26449
6.32054
6.37185
6.41799
6.45855
6.49319
6.52163
6.54366
6.55918
6.56812
6.57025
6.56571
6.55446
6.53699
6.51358
6.48459
6.45043
6.4115
6.36823
6.32104
6.27033
6.21652
6.15996
6.10102
6.04002
5.97724
5.91296
5.8474
5.78077
5.71325
5.64499
5.57612
5.50677
5.43701
5.36693
5.29659
5.22604
5.15533
5.08448
5.01352
4.94247
4.87136
4.80018
4.72895
4.65768
4.5864
4.5151
4.44382
4.37257
4.3014
4.23034
4.15945
4.08877
4.01838
3.94833
3.87873
3.80965
3.74121
3.67351
3.6067
3.5409
3.47626
3.41292
3.35105
3.29082
3.23241
3.176
3.1218
3.07003
3.0209
2.97466
2.93081
2.88928
0.132306
0.209374
0.25617
0.291624
0.321812
0.349157
0.374863
0.399642
0.423952
0.44811
0.472347
0.496835
0.521706
0.547067
0.572997
0.599564
0.626819
0.654808
0.683569
0.713137
0.743545
0.77483
0.806955
0.839952
0.873842
0.908647
0.944382
0.981061
1.01869
1.05729
1.09687
1.13742
1.17897
1.2215
1.26503
1.30956
1.35514
1.40177
1.44944
1.49811
1.54785
1.59869
1.65064
1.70371
1.7579
1.81324
1.86972
1.92735
1.98614
2.04609
2.1072
2.16946
2.23287
2.29742
2.3631
2.4299
2.4978
2.56678
2.63681
2.70787
2.77992
2.85292
2.92684
3.00162
3.07722
3.15359
3.23066
3.30837
3.38667
3.46548
3.54474
3.62439
3.70434
3.78454
3.86491
3.94538
4.0259
4.10639
4.18681
4.26711
4.34723
4.42716
4.50685
4.58628
4.66546
4.74436
4.82301
4.90142
4.97963
5.05768
5.13564
5.21354
5.29146
5.36944
5.44754
5.52578
5.60414
5.68258
5.76101
5.83926
5.91715
5.9944
6.0707
6.14568
6.21891
6.28992
6.35822
6.42328
6.48453
6.54144
6.59348
6.64018
6.6811
6.71588
6.74421
6.7659
6.78083
6.78891
6.78991
6.78386
6.77089
6.7515
6.72601
6.6948
6.65829
6.61691
6.57108
6.52125
6.46781
6.41118
6.35173
6.2898
6.2257
6.15972
6.09211
6.02309
5.95287
5.8816
5.80944
5.73651
5.66292
5.58877
5.51412
5.43905
5.3636
5.28783
5.21176
5.13544
5.05889
4.98214
4.90522
4.82814
4.75095
4.67366
4.59633
4.51898
4.44167
4.36447
4.28742
4.21062
4.13413
4.05806
3.9825
3.90757
3.83338
3.76009
3.68782
3.61674
3.54701
3.47879
3.41226
3.34761
3.28503
3.2247
3.16684
3.11165
3.05932
3.01009
2.9635
2.9197
0.131898
0.208694
0.255421
0.290864
0.321057
0.348409
0.374116
0.398879
0.42315
0.447243
0.471385
0.495747
0.520461
0.545631
0.571338
0.59765
0.624622
0.652305
0.680738
0.709959
0.739996
0.770864
0.802592
0.835221
0.868783
0.90331
0.938826
0.975357
1.01292
1.05154
1.09124
1.13203
1.17393
1.21694
1.26109
1.30635
1.35274
1.40028
1.449
1.49884
1.54989
1.60222
1.65581
1.71069
1.76686
1.82433
1.8831
1.94319
2.00457
2.06726
2.13124
2.19649
2.263
2.33076
2.39975
2.46993
2.54129
2.6138
2.68741
2.76208
2.83778
2.91446
2.99205
3.0705
3.14975
3.22973
3.31037
3.3916
3.47335
3.55553
3.63806
3.72086
3.80386
3.88695
3.97007
4.05313
4.13604
4.21874
4.30116
4.38323
4.46489
4.54611
4.62683
4.70703
4.7867
4.86582
4.94441
5.02249
5.1001
5.1773
5.25417
5.33081
5.4073
5.48375
5.56027
5.63696
5.71389
5.79107
5.86847
5.946
6.02358
6.101
6.17798
6.25422
6.32932
6.40285
6.47432
6.54318
6.60885
6.67073
6.72822
6.78077
6.82787
6.86906
6.90389
6.93208
6.95343
6.96781
6.97509
6.97508
6.96759
6.95304
6.93188
6.90447
6.87122
6.83255
6.7889
6.74072
6.68843
6.63246
6.5732
6.51103
6.44626
6.37922
6.31016
6.23933
6.16694
6.09318
6.01821
5.94217
5.8652
5.78738
5.70882
5.6296
5.54977
5.4694
5.38854
5.30724
5.22554
5.14349
5.06112
4.97847
4.8956
4.81255
4.72937
4.64612
4.56287
4.47971
4.3967
4.31396
4.23157
4.14966
4.06833
3.98773
3.908
3.8293
3.75178
3.67564
3.60103
3.52815
3.45718
3.38832
3.32176
3.25767
3.19629
3.13784
3.08249
3.03047
2.98132
2.93557
0.13068
0.206789
0.253136
0.288374
0.318406
0.345601
0.371144
0.395732
0.41981
0.443689
0.467592
0.491688
0.516109
0.540958
0.566317
0.592257
0.61884
0.646119
0.674143
0.70296
0.732611
0.763142
0.794589
0.826989
0.860381
0.894805
0.930297
0.966887
1.00461
1.04349
1.08355
1.12484
1.16738
1.2112
1.25629
1.30265
1.35029
1.39924
1.44951
1.50102
1.55391
1.60821
1.66395
1.72113
1.77978
1.83989
1.90148
1.96455
2.02906
2.095
2.16234
2.23105
2.30111
2.37249
2.44515
2.51905
2.59416
2.67043
2.74781
2.82624
2.90567
2.98604
3.06727
3.1493
3.23205
3.31544
3.3994
3.48382
3.56864
3.65375
3.73907
3.8245
3.90993
3.99529
4.08046
4.16535
4.24988
4.33395
4.41747
4.50038
4.58261
4.66408
4.74477
4.82461
4.9036
4.98171
5.05896
5.13537
5.21097
5.28586
5.36014
5.43393
5.50735
5.58054
5.65371
5.72705
5.80071
5.87476
5.94924
6.02401
6.09907
6.17449
6.25012
6.32572
6.40098
6.47552
6.54887
6.62051
6.68983
6.75619
6.81892
6.87735
6.93075
6.97842
7.01997
7.05504
7.08333
7.10461
7.11871
7.1255
7.12479
7.11612
7.10026
7.07762
7.04857
7.01355
6.97298
6.92733
6.87703
6.82253
6.76424
6.70256
6.63783
6.57039
6.50052
6.42848
6.3545
6.27878
6.20151
6.12285
6.04294
5.96189
5.87981
5.79681
5.71295
5.62832
5.54298
5.457
5.37043
5.28334
5.19578
5.1078
5.01948
4.93089
4.84208
4.75314
4.66417
4.57525
4.48649
4.39801
4.30992
4.22238
4.1355
4.04946
3.9644
3.88051
3.79797
3.71692
3.6376
3.56021
3.48498
3.41211
3.34191
3.27453
3.21009
3.14884
3.0909
3.03651
2.98524
2.93795
0.128027
0.203139
0.24897
0.283839
0.313547
0.34044
0.365698
0.39001
0.413818
0.437426
0.46106
0.484889
0.509046
0.533638
0.558751
0.584462
0.610836
0.637935
0.665815
0.694534
0.724144
0.754693
0.78623
0.818805
0.852469
0.88728
0.923296
0.960528
0.999007
1.03878
1.07989
1.12237
1.16625
1.21155
1.25818
1.30622
1.35571
1.40669
1.45919
1.51325
1.56889
1.62612
1.68495
1.74539
1.80742
1.87105
1.93624
2.00299
2.07125
2.14098
2.21214
2.2847
2.3586
2.4338
2.51025
2.58789
2.66668
2.74654
2.82742
2.90926
2.99197
3.07548
3.15973
3.24462
3.33008
3.41601
3.50233
3.58894
3.67575
3.76266
3.84957
3.93637
4.02297
4.10925
4.19512
4.28045
4.36516
4.44915
4.53232
4.61458
4.69585
4.77607
4.85518
4.93312
5.00985
5.08538
5.15971
5.23285
5.30484
5.37577
5.44581
5.51509
5.58375
5.65191
5.71964
5.78736
5.85535
5.92384
5.99298
6.06274
6.13367
6.2056
6.2784
6.35187
6.42577
6.49979
6.57354
6.6465
6.71807
6.7876
6.85441
6.91776
6.97707
7.03143
7.08016
7.12275
7.1588
7.18791
7.20981
7.22423
7.23089
7.22975
7.22014
7.20326
7.17943
7.14905
7.11259
7.07046
7.02313
6.97107
6.9147
6.85445
6.79067
6.72372
6.6539
6.58149
6.50673
6.42984
6.35103
6.27048
6.18833
6.10473
6.0198
5.93365