/*--------------------------------*- C++ -*----------------------------------*\
  =========                 |
  \\      /  F ield         | OpenFOAM: The Open Source CFD Toolbox
   \\    /   O peration     | Website:  https://openfoam.org
    \\  /    A nd           | Version:  9
     \\/     M anipulation  |
\*---------------------------------------------------------------------------*/
FoamFile
{
    format      ascii;
    class       surfaceScalarField;
    location    "135";
    object      phi;
}
// * * * * * * * * * * * * * * * * * * * * * * * * * * * * * * * * * * * * * //

dimensions      [0 3 -1 0 0 0 0];

internalField   nonuniform List<scalar> 
24170
(
3.12889e-06
5.95181e-08
3.04662e-06
8.22662e-08
2.97351e-06
7.31138e-08
2.90483e-06
6.86711e-08
2.84047e-06
6.4365e-08
2.78308e-06
5.73816e-08
2.73371e-06
4.93773e-08
2.69168e-06
4.20226e-08
2.65591e-06
3.57662e-08
2.62534e-06
3.05708e-08
2.59897e-06
2.63683e-08
2.57594e-06
2.30266e-08
2.55555e-06
2.03906e-08
2.53713e-06
1.84077e-08
2.52019e-06
1.6938e-08
2.5033e-06
1.68895e-08
2.48653e-06
1.67669e-08
2.76234e-08
2.45891e-06
3.45314e-06
2.36273e-08
3.45702e-06
7.83867e-08
3.45053e-06
7.95944e-08
3.43907e-06
8.01369e-08
3.42427e-06
7.91625e-08
3.407e-06
7.4644e-08
3.38774e-06
6.86354e-08
3.36716e-06
6.25935e-08
3.34596e-06
5.69715e-08
3.3247e-06
5.18252e-08
3.30386e-06
4.71962e-08
3.28372e-06
4.31611e-08
3.26446e-06
3.96486e-08
3.24609e-06
3.67742e-08
3.22871e-06
3.43118e-08
3.21217e-06
3.34198e-08
3.19695e-06
3.19886e-08
3.81877e-08
3.18638e-06
3.66826e-06
1.78862e-08
3.67918e-06
6.74664e-08
3.6854e-06
7.33726e-08
3.68942e-06
7.61118e-08
3.691e-06
7.75851e-08
3.69001e-06
7.56359e-08
3.68684e-06
7.18064e-08
3.68195e-06
6.74797e-08
3.67574e-06
6.31836e-08
3.66852e-06
5.90425e-08
3.66057e-06
5.51464e-08
3.65212e-06
5.16064e-08
3.64335e-06
4.84171e-08
3.6344e-06
4.57242e-08
3.6253e-06
4.3415e-08
3.61646e-06
4.2255e-08
3.60722e-06
4.12254e-08
4.35775e-08
3.60183e-06
3.92587e-06
1.74044e-08
3.93591e-06
5.74262e-08
3.94255e-06
6.67337e-08
3.94807e-06
7.05863e-08
3.95246e-06
7.31916e-08
3.95538e-06
7.27158e-08
3.95701e-06
7.01712e-08
3.9576e-06
6.6892e-08
3.95732e-06
6.3455e-08
3.95633e-06
6.00319e-08
3.95475e-06
5.67235e-08
3.95269e-06
5.36572e-08
3.95025e-06
5.08595e-08
3.9475e-06
4.84612e-08
3.94449e-06
4.64299e-08
3.94154e-06
4.51941e-08
3.93845e-06
4.43206e-08
4.47911e-08
3.93723e-06
4.20819e-06
1.63403e-08
4.21597e-06
4.96438e-08
4.22166e-06
6.1049e-08
4.22674e-06
6.55026e-08
4.23147e-06
6.8469e-08
4.23541e-06
6.8777e-08
4.23853e-06
6.70434e-08
4.24096e-06
6.44663e-08
4.24279e-06
6.16266e-08
4.2441e-06
5.8717e-08
4.24498e-06
5.58454e-08
4.2455e-06
5.31385e-08
4.24571e-06
5.06464e-08
4.2457e-06
4.84737e-08
4.2455e-06
4.66272e-08
4.24537e-06
4.53225e-08
4.24534e-06
4.43511e-08
4.38792e-08
4.24625e-06
4.51069e-06
1.47416e-08
4.51687e-06
4.34555e-08
4.52211e-06
5.58126e-08
4.5269e-06
6.0706e-08
4.53159e-06
6.37812e-08
4.5358e-06
6.45601e-08
4.53944e-06
6.34091e-08
4.54255e-06
6.13544e-08
4.54521e-06
5.89647e-08
4.54747e-06
5.64459e-08
4.5494e-06
5.39155e-08
4.55105e-06
5.14915e-08
4.55245e-06
4.92388e-08
4.55369e-06
4.7235e-08
4.55481e-06
4.54996e-08
4.55601e-06
4.41225e-08
4.55738e-06
4.29752e-08
4.19552e-08
4.55931e-06
4.8343e-06
1.31569e-08
4.83962e-06
3.8144e-08
4.84473e-06
5.07032e-08
4.84941e-06
5.60251e-08
4.85401e-06
5.91762e-08
4.8583e-06
6.02776e-08
4.86213e-06
5.95792e-08
4.86554e-06
5.79409e-08
4.8686e-06
5.59112e-08
4.87133e-06
5.37075e-08
4.8738e-06
5.14548e-08
4.87602e-06
4.92619e-08
4.87806e-06
4.7199e-08
4.87998e-06
4.53231e-08
4.88182e-06
4.36514e-08
4.88374e-06
4.2205e-08
4.88583e-06
4.08856e-08
3.95353e-08
4.88825e-06
5.18103e-06
1.17093e-08
5.18574e-06
3.34301e-08
5.19073e-06
4.57146e-08
5.19536e-06
5.13938e-08
5.19992e-06
5.46165e-08
5.20424e-06
5.59512e-08
5.2082e-06
5.56228e-08
5.2118e-06
5.43381e-08
5.21509e-06
5.26147e-08
5.21812e-06
5.06805e-08
5.22091e-06
4.86638e-08
5.2235e-06
4.6667e-08
5.22594e-06
4.47591e-08
5.22828e-06
4.29832e-08
5.23058e-06
4.13496e-08
5.23293e-06
3.98466e-08
5.23543e-06
3.83926e-08
3.68481e-08
5.23811e-06
5.55268e-06
1.0366e-08
5.55688e-06
2.92365e-08
5.56167e-06
4.09232e-08
5.56626e-06
4.68068e-08
5.57079e-06
5.00799e-08
5.57517e-06
5.15802e-08
5.57923e-06
5.15583e-08
5.58298e-06
5.05846e-08
5.58647e-06
4.91332e-08
5.58971e-06
4.74387e-08
5.59274e-06
4.56309e-08
5.5956e-06
4.38065e-08
5.59833e-06
4.20308e-08
5.60097e-06
4.03384e-08
5.60359e-06
3.87337e-08
5.60624e-06
3.71937e-08
5.60898e-06
3.56512e-08
3.40095e-08
5.61182e-06
5.95103e-06
9.11029e-09
5.95477e-06
2.54947e-08
5.95933e-06
3.63631e-08
5.96387e-06
4.22698e-08
5.96839e-06
4.55569e-08
5.9728e-06
4.71652e-08
5.97697e-06
4.73899e-08
5.98086e-06
4.66885e-08
5.98451e-06
4.54821e-08
5.98794e-06
4.40052e-08
5.99118e-06
4.23877e-08
5.99427e-06
4.07204e-08
5.99723e-06
3.90644e-08
6.00012e-06
3.74495e-08
6.00297e-06
3.58777e-08
6.00584e-06
3.43262e-08
6.00875e-06
3.27441e-08
3.10711e-08
6.01168e-06
6.37798e-06
7.9437e-09
6.38133e-06
2.21419e-08
6.38565e-06
3.20492e-08
6.39011e-06
3.78032e-08
6.39462e-06
4.10567e-08
6.39906e-06
4.27215e-08
6.40332e-06
4.31325e-08
6.40734e-06
4.26626e-08
6.41115e-06
4.16749e-08
6.41475e-06
4.03961e-08
6.41819e-06
3.89537e-08
6.42147e-06
3.74329e-08
6.42465e-06
3.58905e-08
6.42774e-06
3.43544e-08
6.43079e-06
3.28273e-08
6.43382e-06
3.12922e-08
6.43685e-06
2.97132e-08
2.80641e-08
6.43986e-06
5.74176e-06
7.02066e-09
5.74433e-06
1.9566e-08
5.74779e-06
2.85902e-08
5.7515e-06
3.40892e-08
5.75529e-06
3.72713e-08
5.75906e-06
3.89494e-08
5.76272e-06
3.94722e-08
5.76622e-06
3.91641e-08
5.76955e-06
3.83415e-08
5.77273e-06
3.7216e-08
5.77577e-06
3.59114e-08
5.77869e-06
3.45098e-08
5.78152e-06
3.30632e-08
5.78428e-06
3.15986e-08
5.78698e-06
3.01221e-08
5.78965e-06
2.86226e-08
5.79229e-06
2.70776e-08
2.5478e-08
5.79488e-06
6.99914e-06
6.03913e-09
7.00186e-06
1.68412e-08
7.00562e-06
2.48368e-08
7.00977e-06
2.99359e-08
7.01407e-06
3.29675e-08
7.01841e-06
3.46133e-08
7.02266e-06
3.52173e-08
7.02677e-06
3.50566e-08
7.03071e-06
3.43974e-08
7.03449e-06
3.34307e-08
7.03813e-06
3.22755e-08
7.04163e-06
3.1005e-08
7.04503e-06
2.96698e-08
7.04833e-06
2.82965e-08
7.05156e-06
2.68939e-08
7.05473e-06
2.54603e-08
7.05783e-06
2.3981e-08
2.24699e-08
7.06084e-06
8.53188e-06
5.00826e-09
8.53473e-06
1.39925e-08
8.53875e-06
2.08157e-08
8.54334e-06
2.53499e-08
8.54818e-06
2.81255e-08
8.55312e-06
2.96743e-08
8.55802e-06
3.03111e-08
8.56281e-06
3.02688e-08
8.56745e-06
2.97616e-08
8.57192e-06
2.89554e-08
8.57624e-06
2.79546e-08
8.58042e-06
2.68305e-08
8.58447e-06
2.56257e-08
8.5884e-06
2.4369e-08
8.59222e-06
2.30721e-08
8.59594e-06
2.17406e-08
8.59956e-06
2.03711e-08
1.89849e-08
8.60304e-06
1.04003e-05
3.93584e-09
1.04032e-05
1.10398e-08
1.04075e-05
1.65465e-08
1.04125e-05
2.03374e-08
1.04179e-05
2.27261e-08
1.04235e-05
2.40918e-08
1.04291e-05
2.46959e-08
1.04347e-05
2.47268e-08
1.04401e-05
2.43494e-08
1.04454e-05
2.36947e-08
1.04505e-05
2.28561e-08
1.04554e-05
2.18907e-08
1.04602e-05
2.08414e-08
1.04648e-05
1.97318e-08
1.04693e-05
1.85805e-08
1.04737e-05
1.73945e-08
1.04779e-05
1.61806e-08
1.49638e-08
1.04819e-05
1.26779e-05
2.82771e-09
1.2681e-05
7.97424e-09
1.26855e-05
1.2026e-08
1.26909e-05
1.4889e-08
1.26969e-05
1.67375e-08
1.27032e-05
1.78116e-08
1.27096e-05
1.83016e-08
1.2716e-05
1.8347e-08
1.27223e-05
1.80646e-08
1.27284e-05
1.7551e-08
1.27344e-05
1.68755e-08
1.27402e-05
1.60879e-08
1.27458e-05
1.52201e-08
1.27513e-05
1.42973e-08
1.27565e-05
1.33337e-08
1.27616e-05
1.23441e-08
1.27664e-05
1.13325e-08
1.03319e-08
1.2771e-05
1.54543e-05
1.67134e-09
1.54576e-05
4.74987e-09
1.54624e-05
7.19221e-09
1.54684e-05
8.94033e-09
1.5475e-05
1.00802e-08
1.54821e-05
1.07375e-08
1.54894e-05
1.10216e-08
1.54967e-05
1.10162e-08
1.5504e-05
1.07904e-08
1.55111e-05
1.04028e-08
1.55181e-05
9.8979e-09
1.55249e-05
9.30829e-09
1.55314e-05
8.65722e-09
1.55378e-05
7.96249e-09
1.55439e-05
7.23733e-09
1.55497e-05
6.49336e-09
1.55553e-05
5.73702e-09
4.99597e-09
1.55607e-05
1.88389e-05
4.26734e-10
1.88424e-05
1.23806e-09
1.88477e-05
1.86786e-09
1.88544e-05
2.29606e-09
1.88619e-05
2.55219e-09
1.887e-05
2.66445e-09
1.88783e-05
2.65423e-09
1.88868e-05
2.54072e-09
1.88953e-05
2.3431e-09
1.89036e-05
2.07853e-09
1.89117e-05
1.76104e-09
1.89196e-05
1.40201e-09
1.89273e-05
1.01094e-09
1.89346e-05
5.9606e-10
1.89417e-05
1.64558e-10
1.89485e-05
-2.76477e-10
1.89549e-05
-7.22943e-10
-1.15288e-09
1.89611e-05
2.29648e-05
-1.00865e-09
2.29689e-05
-2.85178e-09
2.29751e-05
-4.36833e-09
2.29829e-05
-5.52129e-09
2.29918e-05
-6.32479e-09
2.30013e-05
-6.86354e-09
2.30112e-05
-7.22743e-09
2.30212e-05
-7.46912e-09
2.30312e-05
-7.62882e-09
2.3041e-05
-7.73534e-09
2.30506e-05
-7.81638e-09
2.30599e-05
-7.88392e-09
2.30688e-05
-7.94928e-09
2.30774e-05
-8.01413e-09
2.30857e-05
-8.08341e-09
2.30935e-05
-8.15413e-09
2.31011e-05
-8.22899e-09
-8.29099e-09
2.31082e-05
1.68118e-05
-2.13599e-09
1.6815e-05
-6.03898e-09
1.68199e-05
-9.22585e-09
1.68259e-05
-1.15555e-08
1.68327e-05
-1.30812e-08
1.68398e-05
-1.40331e-08
1.68472e-05
-1.45959e-08
1.68546e-05
-1.48784e-08
1.68619e-05
-1.49541e-08
1.68691e-05
-1.4902e-08
1.6876e-05
-1.47687e-08
1.68827e-05
-1.45941e-08
1.68892e-05
-1.43921e-08
1.68954e-05
-1.41835e-08
1.69013e-05
-1.39698e-08
1.69069e-05
-1.37617e-08
1.69122e-05
-1.35554e-08
-1.33475e-08
1.69172e-05
1.46357e-05
-3.21858e-09
1.46388e-05
-9.14094e-09
1.46435e-05
-1.3965e-08
1.46493e-05
-1.73319e-08
1.46556e-05
-1.94089e-08
1.46622e-05
-2.06454e-08
1.46689e-05
-2.13135e-08
1.46756e-05
-2.15471e-08
1.46821e-05
-2.14811e-08
1.46884e-05
-2.12285e-08
1.46945e-05
-2.08688e-08
1.47004e-05
-2.04435e-08
1.4706e-05
-1.99857e-08
1.47113e-05
-1.95137e-08
1.47164e-05
-1.9043e-08
1.47212e-05
-1.85778e-08
1.47258e-05
-1.81252e-08
-1.76752e-08
1.47301e-05
1.27411e-05
-4.23132e-09
1.27443e-05
-1.22802e-08
1.27491e-05
-1.88182e-08
1.27548e-05
-2.30064e-08
1.27608e-05
-2.54236e-08
1.2767e-05
-2.68432e-08
1.27732e-05
-2.75292e-08
1.27793e-05
-2.76309e-08
1.27852e-05
-2.73554e-08
1.27908e-05
-2.68686e-08
1.27962e-05
-2.62603e-08
1.28013e-05
-2.55811e-08
1.28062e-05
-2.48704e-08
1.28109e-05
-2.41502e-08
1.28153e-05
-2.34399e-08
1.28194e-05
-2.27422e-08
1.28234e-05
-2.20665e-08
-2.14032e-08
1.28271e-05
1.10918e-05
-5.07636e-09
1.1095e-05
-1.55123e-08
1.11002e-05
-2.3962e-08
1.11058e-05
-2.86547e-08
1.11116e-05
-3.11865e-08
1.11174e-05
-3.26889e-08
1.11232e-05
-3.32919e-08
1.11287e-05
-3.31793e-08
1.1134e-05
-3.26533e-08
1.1139e-05
-3.19111e-08
1.11438e-05
-3.10447e-08
1.11484e-05
-3.01117e-08
1.11526e-05
-2.91529e-08
1.11567e-05
-2.82001e-08
1.11605e-05
-2.72635e-08
1.11641e-05
-2.63562e-08
1.11675e-05
-2.54764e-08
-2.4625e-08
1.11708e-05
9.65582e-06
-5.67826e-09
9.65926e-06
-1.89497e-08
9.66462e-06
-2.93243e-08
9.67014e-06
-3.4171e-08
9.67572e-06
-3.67665e-08
9.6813e-06
-3.82714e-08
9.68666e-06
-3.86506e-08
9.69171e-06
-3.82346e-08
9.69648e-06
-3.7426e-08
9.70099e-06
-3.64199e-08
9.70524e-06
-3.52942e-08
9.70924e-06
-3.41096e-08
9.71299e-06
-3.29128e-08
9.71652e-06
-3.17327e-08
9.71984e-06
-3.05849e-08
9.72296e-06
-2.94752e-08
9.72589e-06
-2.84058e-08
-2.73731e-08
9.72864e-06
8.4053e-06
-5.62691e-09
8.40965e-06
-2.32947e-08
8.4149e-06
-3.45733e-08
8.41994e-06
-3.92137e-08
8.42533e-06
-4.21488e-08
8.43075e-06
-4.36982e-08
8.43586e-06
-4.37558e-08
8.44058e-06
-4.29611e-08
8.44498e-06
-4.18162e-08
8.44905e-06
-4.04966e-08
8.45283e-06
-3.9074e-08
8.45633e-06
-3.76095e-08
8.45957e-06
-3.61529e-08
8.46257e-06
-3.47303e-08
8.46534e-06
-3.33577e-08
8.46791e-06
-3.20408e-08
8.47028e-06
-3.07817e-08
-2.95749e-08
8.47248e-06
7.3145e-06
-2.84581e-09
7.3212e-06
-2.99907e-08
7.32677e-06
-4.01373e-08
7.33173e-06
-4.41735e-08
7.33714e-06
-4.75598e-08
7.34248e-06
-4.90333e-08
7.34737e-06
-4.8649e-08
7.3518e-06
-4.739e-08
7.35579e-06
-4.58101e-08
7.35937e-06
-4.40681e-08
7.36254e-06
-4.22441e-08
7.36534e-06
-4.04145e-08
7.36782e-06
-3.86261e-08
7.36999e-06
-3.69054e-08
7.3719e-06
-3.52671e-08
7.37358e-06
-3.37142e-08
7.37504e-06
-3.2247e-08
-3.08542e-08
7.37632e-06
6.36244e-06
4.78488e-09
6.37191e-06
-3.9459e-08
6.37934e-06
-4.75701e-08
6.38599e-06
-5.08214e-08
6.39228e-06
-5.38521e-08
6.39761e-06
-5.43586e-08
6.40192e-06
-5.2956e-08
6.40541e-06
-5.08835e-08
6.40823e-06
-4.86234e-08
6.41042e-06
-4.62642e-08
6.41207e-06
-4.38896e-08
6.41323e-06
-4.15711e-08
6.41396e-06
-3.93614e-08
6.41434e-06
-3.72776e-08
6.4144e-06
-3.53329e-08
6.41421e-06
-3.35254e-08
6.41382e-06
-3.18541e-08
-3.03015e-08
6.41326e-06
5.54129e-06
8.95491e-09
5.55033e-06
-4.84922e-08
5.55835e-06
-5.55899e-08
5.56606e-06
-5.85358e-08
5.57254e-06
-6.03216e-08
5.57687e-06
-5.86934e-08
5.57913e-06
-5.52074e-08
5.5797e-06
-5.14535e-08
5.57896e-06
-4.78806e-08
5.57718e-06
-4.44905e-08
5.5746e-06
-4.13057e-08
5.5714e-06
-3.83662e-08
5.56772e-06
-3.56802e-08
5.56368e-06
-3.32415e-08
5.55939e-06
-3.10419e-08
5.55494e-06
-2.90701e-08
5.55041e-06
-2.73282e-08
-2.57594e-08
5.54587e-06
4.86019e-06
-2.36279e-08
4.86538e-06
-5.36847e-08
4.86524e-06
-5.5445e-08
4.86218e-06
-5.54783e-08
4.85702e-06
-5.51555e-08
4.84953e-06
-5.11983e-08
4.83985e-06
-4.55233e-08
4.82846e-06
-4.00699e-08
4.8159e-06
-3.53135e-08
4.80263e-06
-3.12232e-08
4.78904e-06
-2.77175e-08
4.77542e-06
-2.47365e-08
4.76194e-06
-2.22024e-08
4.74875e-06
-2.00487e-08
4.73593e-06
-1.82188e-08
4.72355e-06
-1.66901e-08
4.71172e-06
-1.54992e-08
-1.51558e-08
4.70112e-06
4.17905e-06
4.12536e-06
4.06992e-06
4.01444e-06
3.95929e-06
3.90809e-06
3.86256e-06
3.82249e-06
3.78718e-06
3.75596e-06
3.72824e-06
3.70351e-06
3.6813e-06
3.66126e-06
3.64304e-06
3.62635e-06
3.61085e-06
3.59569e-06
2.13702e-08
-2.14342e-08
3.89607e-08
-1.77252e-08
4.78368e-08
-8.90082e-09
4.8093e-08
-3.60751e-10
4.11537e-08
6.9424e-09
2.84272e-08
1.26332e-08
1.16601e-08
1.67967e-08
-8.12669e-09
1.97062e-08
-2.98071e-08
2.17181e-08
-5.30331e-08
2.31667e-08
-7.74805e-08
2.448e-08
-1.03974e-07
2.64363e-08
-1.34153e-07
3.02181e-08
-1.64941e-07
3.07101e-08
-1.91843e-07
2.69635e-08
-2.2215e-07
3.02086e-08
-2.56798e-07
3.47344e-08
-2.94999e-07
3.81199e-08
-3.28152e-07
3.32252e-08
-3.64754e-07
3.65416e-08
-4.07074e-07
4.23718e-08
-4.51294e-07
4.41765e-08
-4.99409e-07
4.81655e-08
-5.56203e-07
5.67485e-08
-6.08574e-07
5.2429e-08
-6.49038e-07
4.04205e-08
-6.92978e-07
4.4013e-08
-7.39684e-07
4.66767e-08
-7.87684e-07
4.80711e-08
-8.36355e-07
4.86544e-08
-8.85068e-07
4.87916e-08
-9.33733e-07
4.86583e-08
-9.82023e-07
4.83669e-08
-1.02999e-06
4.79709e-08
-1.07743e-06
4.75194e-08
-1.12445e-06
4.70317e-08
-1.17091e-06
4.65349e-08
-1.21694e-06
4.60331e-08
-1.26241e-06
4.55448e-08
-1.30748e-06
4.50685e-08
-1.35203e-06
4.46181e-08
-1.39623e-06
4.41878e-08
-1.43995e-06
4.37885e-08
-1.48337e-06
4.34108e-08
-1.52637e-06
4.30624e-08
-1.5691e-06
4.27302e-08
-1.61146e-06
4.24208e-08
-1.65359e-06
4.21225e-08
-1.69537e-06
4.18416e-08
-1.73695e-06
4.15648e-08
-1.7782e-06
4.12989e-08
-1.81924e-06
4.10291e-08
-1.85996e-06
4.07623e-08
-1.90046e-06
4.04848e-08
-1.94062e-06
4.02033e-08
-1.98053e-06
3.99012e-08
-2.02006e-06
3.95855e-08
-2.05931e-06
3.92412e-08
-2.09812e-06
3.88759e-08
-2.13659e-06
3.84718e-08
-2.17456e-06
3.80369e-08
-2.2121e-06
3.75559e-08
-2.24906e-06
3.7036e-08
-2.28548e-06
3.64595e-08
-2.32123e-06
3.58341e-08
-2.35632e-06
3.51422e-08
-2.39063e-06
3.43907e-08
-2.42414e-06
3.35625e-08
-2.45673e-06
3.26635e-08
-2.48835e-06
3.16779e-08
-2.51889e-06
3.06099e-08
-2.54828e-06
2.94443e-08
-2.57639e-06
2.81831e-08
-2.60315e-06
2.6813e-08
-2.62842e-06
2.53311e-08
-2.65209e-06
2.37211e-08
-2.674e-06
2.19765e-08
-2.69401e-06
2.00818e-08
-2.71197e-06
1.80267e-08
-2.72768e-06
1.57945e-08
-2.74097e-06
1.33652e-08
-2.75159e-06
1.07182e-08
-2.75935e-06
7.83552e-09
-2.76398e-06
4.74985e-09
-2.76546e-06
1.561e-09
-2.76383e-06
-1.5129e-09
-2.75931e-06
-4.45751e-09
-2.75184e-06
-7.41843e-09
-2.7414e-06
-1.046e-08
-2.72788e-06
-1.35957e-08
-2.71114e-06
-1.68103e-08
-2.69111e-06
-2.00969e-08
-2.66772e-06
-2.34432e-08
-2.64094e-06
-2.68444e-08
-2.61072e-06
-3.02831e-08
-2.57706e-06
-3.37475e-08
-2.53992e-06
-3.72121e-08
-2.49933e-06
-4.06614e-08
-2.45532e-06
-4.40653e-08
-2.40797e-06
-4.74048e-08
-2.35732e-06
-5.06482e-08
-2.3035e-06
-5.37636e-08
-2.24664e-06
-5.6738e-08
-2.1869e-06
-5.95262e-08
-2.12449e-06
-6.21363e-08
-2.05964e-06
-6.45306e-08
-1.99257e-06
-6.67456e-08
-1.92351e-06
-6.87172e-08
-1.85281e-06
-7.03878e-08
-1.78071e-06
-7.17888e-08
-1.70752e-06
-7.29296e-08
-1.6335e-06
-7.37568e-08
-1.55901e-06
-7.43003e-08
-1.48431e-06
-7.45213e-08
-1.40975e-06
-7.44597e-08
-1.33557e-06
-7.40817e-08
-1.26211e-06
-7.34343e-08
-1.18962e-06
-7.2498e-08
-1.11838e-06
-7.13233e-08
-1.04857e-06
-6.98867e-08
-9.80385e-07
-6.82265e-08
-9.14006e-07
-6.6333e-08
-8.49695e-07
-6.4259e-08
-7.87642e-07
-6.20093e-08
-7.28053e-07
-5.96522e-08
-6.71001e-07
-5.71807e-08
-6.16604e-07
-5.46481e-08
-5.64872e-07
-5.20431e-08
-5.15874e-07
-4.94117e-08
-4.69584e-07
-4.67493e-08
-4.26024e-07
-4.4097e-08
-3.85131e-07
-4.14572e-08
-3.46882e-07
-3.88591e-08
-3.11187e-07
-3.63096e-08
-2.77975e-07
-3.38311e-08
-2.47127e-07
-3.14435e-08
-2.18521e-07
-2.91577e-08
-1.92003e-07
-2.69873e-08
-1.67425e-07
-2.49192e-08
-1.44649e-07
-2.29843e-08
-1.23555e-07
-2.11954e-08
-1.03961e-07
-1.95957e-08
-8.57079e-08
-1.81886e-08
-6.85873e-08
-1.69802e-08
-5.24437e-08
-1.59509e-08
-3.7074e-08
-1.51195e-08
-2.23099e-08
-1.44764e-08
-7.92224e-09
-1.4056e-08
6.26507e-09
-1.38252e-08
2.04263e-08
-1.37612e-08
3.46894e-08
-1.38344e-08
4.92081e-08
-1.40559e-08
6.40455e-08
-1.43477e-08
7.92176e-08
-1.46549e-08
9.47702e-08
-1.50181e-08
1.10899e-07
-1.55797e-08
1.27724e-07
-1.62663e-08
1.4531e-07
-1.70188e-08
1.63706e-07
-1.78244e-08
1.8301e-07
-1.87289e-08
2.03294e-07
-1.9712e-08
2.24643e-07
-2.07799e-08
2.47124e-07
-2.19203e-08
2.70821e-07
-2.31446e-08
2.95813e-07
-2.44537e-08
3.222e-07
-2.58611e-08
3.50024e-07
-2.73176e-08
3.79313e-07
-2.87961e-08
4.10062e-07
-3.02789e-08
4.42287e-07
-3.17696e-08
4.75975e-07
-3.32558e-08
5.11116e-07
-3.47229e-08
5.47643e-07
-3.61331e-08
5.85439e-07
-3.74177e-08
6.24238e-07
-3.84461e-08
6.63507e-07
-3.89354e-08
7.02083e-07
-3.82745e-08
7.37051e-07
-3.47002e-08
7.61837e-07
-2.45645e-08
2.07962e-08
7.41212e-07
1.08628e-08
-3.23527e-08
1.22123e-08
-1.91562e-08
7.62757e-09
-4.33847e-09
-1.24641e-09
8.46112e-09
-1.37758e-08
1.94646e-08
-2.98968e-08
2.87102e-08
-4.93943e-08
3.62967e-08
-7.21934e-08
4.24682e-08
-9.80612e-08
4.75937e-08
-1.27039e-07
5.21165e-08
-1.59066e-07
5.65174e-08
-1.93842e-07
6.11885e-08
-2.29708e-07
6.60939e-08
-2.68966e-07
6.99439e-08
-3.13916e-07
7.19266e-08
-3.58563e-07
7.48247e-08
-4.0193e-07
7.81213e-08
-4.44647e-07
8.0808e-08
-4.93627e-07
8.22287e-08
-5.41851e-07
8.47424e-08
-5.89032e-07
8.9575e-08
-6.38793e-07
9.39258e-08
-6.88506e-07
9.79007e-08
-7.32818e-07
1.01054e-07
-7.80712e-07
1.00345e-07
-8.37343e-07
9.70514e-08
-8.8941e-07
9.61028e-08
-9.3859e-07
9.58573e-08
-9.86092e-07
9.5597e-08
-1.03255e-06
9.51169e-08
-1.07815e-06
9.44206e-08
-1.12304e-06
9.35573e-08
-1.16723e-06
9.25812e-08
-1.21079e-06
9.15356e-08
-1.25369e-06
9.04568e-08
-1.29602e-06
8.93704e-08
-1.33776e-06
8.82983e-08
-1.37897e-06
8.72534e-08
-1.41964e-06
8.62472e-08
-1.45985e-06
8.52845e-08
-1.49958e-06
8.43704e-08
-1.53889e-06
8.35042e-08
-1.57777e-06
8.26862e-08
-1.61626e-06
8.19116e-08
-1.65435e-06
8.11779e-08
-1.69209e-06
8.04778e-08
-1.72945e-06
7.98071e-08
-1.76647e-06
7.91568e-08
-1.80313e-06
7.85218e-08
-1.83945e-06
7.78923e-08
-1.8754e-06
7.72628e-08
-1.91099e-06
7.66236e-08
-1.94618e-06
7.59699e-08
-1.98098e-06
7.52918e-08
-2.01534e-06
7.45835e-08
-2.04926e-06
7.38347e-08
-2.0827e-06
7.30404e-08
-2.11563e-06
7.21901e-08
-2.14801e-06
7.12786e-08
-2.17982e-06
7.0295e-08
-2.21099e-06
6.9235e-08
-2.2415e-06
6.80875e-08
-2.27127e-06
6.68477e-08
-2.30029e-06
6.55044e-08
-2.32847e-06
6.40524e-08
-2.35577e-06
6.248e-08
-2.38212e-06
6.07822e-08
-2.40747e-06
5.89472e-08
-2.43173e-06
5.69701e-08
-2.45485e-06
5.48391e-08
-2.47675e-06
5.25482e-08
-2.49735e-06
5.00857e-08
-2.51657e-06
4.74439e-08
-2.53433e-06
4.46084e-08
-2.55053e-06
4.15689e-08
-2.56508e-06
3.83103e-08
-2.57789e-06
3.48241e-08
-2.58886e-06
3.11027e-08
-2.59794e-06
2.71442e-08
-2.60504e-06
2.29471e-08
-2.61014e-06
1.85156e-08
-2.61323e-06
1.38607e-08
-2.61434e-06
9.00263e-09
-2.6135e-06
3.97065e-09
-2.61066e-06
-1.21612e-09
-2.60554e-06
-6.57859e-09
-2.59781e-06
-1.21438e-08
-2.58729e-06
-1.79043e-08
-2.57391e-06
-2.38666e-08
-2.55753e-06
-3.00167e-08
-2.53805e-06
-3.63362e-08
-2.51539e-06
-4.28034e-08
-2.48948e-06
-4.93904e-08
-2.46029e-06
-5.60814e-08
-2.42778e-06
-6.28401e-08
-2.39194e-06
-6.96406e-08
-2.35276e-06
-7.64338e-08
-2.31028e-06
-8.31867e-08
-2.26454e-06
-8.98411e-08
-2.2156e-06
-9.63586e-08
-2.16357e-06
-1.02674e-07
-2.10855e-06
-1.08738e-07
-2.05069e-06
-1.14492e-07
-1.99019e-06
-1.19892e-07
-1.92725e-06
-1.24901e-07
-1.8621e-06
-1.29493e-07
-1.795e-06
-1.33644e-07
-1.72625e-06
-1.3728e-07
-1.6561e-06
-1.40346e-07
-1.58488e-06
-1.42856e-07
-1.51285e-06
-1.44799e-07
-1.44035e-06
-1.4614e-07
-1.36765e-06
-1.46877e-07
-1.29509e-06
-1.47004e-07
-1.22294e-06
-1.46537e-07
-1.15151e-06
-1.45481e-07
-1.08105e-06
-1.43868e-07
-1.01184e-06
-1.41722e-07
-9.4412e-07
-1.39083e-07
-8.78079e-07
-1.35969e-07
-8.13885e-07
-1.32421e-07
-7.51725e-07
-1.28464e-07
-6.91774e-07
-1.2416e-07
-6.34204e-07
-1.19558e-07
-5.79132e-07
-1.14735e-07
-5.26645e-07
-1.09729e-07
-4.76791e-07
-1.04602e-07
-4.29593e-07
-9.93821e-08
-3.85055e-07
-9.41243e-08
-3.43152e-07
-8.88555e-08
-3.03848e-07
-8.36288e-08
-2.67077e-07
-7.84712e-08
-2.32767e-07
-7.34262e-08
-2.00818e-07
-6.85173e-08
-1.71124e-07
-6.37841e-08
-1.43554e-07
-5.92555e-08
-1.17974e-07
-5.49636e-08
-9.42204e-08
-5.09133e-08
-7.21405e-08
-4.71252e-08
-5.15718e-08
-4.36092e-08
-3.23732e-08
-4.04188e-08
-1.43707e-08
-3.75744e-08
2.60055e-09
-3.51225e-08
1.87387e-08
-3.30371e-08
3.42179e-08
-3.13402e-08
4.92342e-08
-3.00071e-08
6.39499e-08
-2.90616e-08
7.85231e-08
-2.84642e-08
9.30884e-08
-2.82277e-08
1.07845e-07
-2.83224e-08
1.22961e-07
-2.87595e-08
1.38599e-07
-2.94713e-08
1.54908e-07
-3.04385e-08
1.72093e-07
-3.15928e-08
1.90288e-07
-3.29719e-08
2.09551e-07
-3.45751e-08
2.29928e-07
-3.63846e-08
2.51518e-07
-3.83258e-08
2.74389e-07
-4.0422e-08
2.98596e-07
-4.26431e-08
3.24165e-07
-4.49993e-08
3.51136e-07
-4.74538e-08
3.79532e-07
-5.00324e-08
4.09398e-07
-5.27152e-08
4.40759e-07
-5.55337e-08
4.73649e-07
-5.84627e-08
5.0809e-07
-6.14852e-08
5.44114e-07
-6.4543e-08
5.8173e-07
-6.76331e-08
6.20944e-07
-7.07211e-08
6.61734e-07
-7.37978e-08
7.04061e-07
-7.68019e-08
7.4783e-07
-7.96679e-08
7.9288e-07
-8.22364e-08
8.38896e-07
-8.42453e-08
8.85335e-07
-8.51658e-08
9.31056e-07
-8.38058e-08
9.74489e-07
-7.7962e-08
1.01122e-06
-6.11497e-08
-1.09595e-08
1.04308e-06
-4.36328e-09
-2.80276e-08
-1.56097e-08
-7.96216e-09
-2.97626e-08
9.80131e-09
-4.61854e-08
2.48506e-08
-6.47057e-08
3.79792e-08
-8.55144e-08
4.94896e-08
-1.08778e-07
5.95589e-08
-1.3473e-07
6.83951e-08
-1.63413e-07
7.62783e-08
-1.94847e-07
8.3532e-08
-2.28781e-07
9.04544e-08
-2.64807e-07
9.71997e-08
-3.0235e-07
1.0364e-07
-3.41734e-07
1.09314e-07
-3.83702e-07
1.13899e-07
-4.26862e-07
1.17967e-07
-4.70402e-07
1.21669e-07
-5.14547e-07
1.24938e-07
-5.60143e-07
1.27835e-07
-6.06275e-07
1.30863e-07
-6.51082e-07
1.34396e-07
-6.94794e-07
1.37634e-07
-7.37045e-07
1.40167e-07
-7.7762e-07
1.4163e-07
-8.18842e-07
1.41583e-07
-8.62161e-07
1.40373e-07
-9.05165e-07
1.39123e-07
-9.47253e-07
1.37949e-07
-9.88405e-07
1.36764e-07
-1.02878e-06
1.35498e-07
-1.06848e-06
1.34136e-07
-1.10761e-06
1.3269e-07
-1.1462e-06
1.31187e-07
-1.18432e-06
1.29654e-07
-1.22196e-06
1.28117e-07
-1.25918e-06
1.26597e-07
-1.29598e-06
1.25112e-07
-1.3324e-06
1.23674e-07
-1.36843e-06
1.22291e-07
-1.40411e-06
1.20968e-07
-1.43943e-06
1.19707e-07
-1.47443e-06
1.18508e-07
-1.5091e-06
1.17366e-07
-1.54346e-06
1.16278e-07
-1.57751e-06
1.15236e-07
-1.61125e-06
1.14232e-07
-1.64469e-06
1.13259e-07
-1.67783e-06
1.12307e-07
-1.71066e-06
1.11365e-07
-1.74318e-06
1.10424e-07
-1.77538e-06
1.09472e-07
-1.80725e-06
1.085e-07
-1.83876e-06
1.07498e-07
-1.86991e-06
1.06454e-07
-1.90067e-06
1.05358e-07
-1.93103e-06
1.04198e-07
-1.96094e-06
1.02966e-07
-1.99039e-06
1.0165e-07
-2.01933e-06
1.0024e-07
-2.04775e-06
9.87237e-08
-2.07559e-06
9.70923e-08
-2.10282e-06
9.53343e-08
-2.12939e-06
9.34393e-08
-2.15527e-06
9.1396e-08
-2.18039e-06
8.91938e-08
-2.2047e-06
8.68206e-08
-2.22816e-06
8.4266e-08
-2.25071e-06
8.15179e-08
-2.27228e-06
7.85656e-08
-2.29281e-06
7.53967e-08
-2.31223e-06
7.20003e-08
-2.33048e-06
6.8363e-08
-2.34748e-06
6.44725e-08
-2.36316e-06
6.0315e-08
-2.37744e-06
5.58765e-08
-2.39025e-06
5.11433e-08
-2.4015e-06
4.61057e-08
-2.41113e-06
4.07567e-08
-2.41905e-06
3.50942e-08
-2.42519e-06
2.91187e-08
-2.42947e-06
2.28344e-08
-2.43183e-06
1.62486e-08
-2.43216e-06
9.36829e-09
-2.43035e-06
2.19651e-09
-2.42625e-06
-5.27948e-09
-2.41971e-06
-1.308e-08
-2.41061e-06
-2.12107e-08
-2.39884e-06
-2.96613e-08
-2.38431e-06
-3.84166e-08
-2.3669e-06
-4.74566e-08
-2.34653e-06
-5.67502e-08
-2.3231e-06
-6.62609e-08
-2.29657e-06
-7.59583e-08
-2.26689e-06
-8.5796e-08
-2.23404e-06
-9.57362e-08
-2.19799e-06
-1.05718e-07
-2.15877e-06
-1.15692e-07
-2.11639e-06
-1.25582e-07
-2.07093e-06
-1.35329e-07
-2.02244e-06
-1.44849e-07
-1.97103e-06
-1.54066e-07
-1.91682e-06
-1.62894e-07
-1.85996e-06
-1.71255e-07
-1.80066e-06
-1.79081e-07
-1.73911e-06
-1.86308e-07
-1.67558e-06
-1.92892e-07
-1.6103e-06
-1.98775e-07
-1.54356e-06
-2.0389e-07
-1.47562e-06
-2.08156e-07
-1.4068e-06
-2.11571e-07
-1.33737e-06
-2.14118e-07
-1.26765e-06
-2.15776e-07
-1.19792e-06
-2.16525e-07
-1.12849e-06
-2.16384e-07
-1.05962e-06
-2.15356e-07
-9.916e-07
-2.13478e-07
-9.24673e-07
-2.1078e-07
-8.59096e-07
-2.07317e-07
-7.95067e-07
-2.03131e-07
-7.32782e-07
-1.98276e-07
-6.72388e-07
-1.928e-07
-6.14056e-07
-1.86768e-07
-5.5792e-07
-1.8025e-07
-5.04124e-07
-1.73338e-07
-4.52747e-07
-1.66111e-07
-4.03865e-07
-1.58652e-07
-3.57496e-07
-1.5103e-07
-3.13659e-07
-1.43313e-07
-2.7233e-07
-1.35562e-07
-2.3348e-07
-1.2784e-07
-1.97048e-07
-1.20204e-07
-1.62967e-07
-1.12712e-07
-1.31144e-07
-1.05414e-07
-1.01476e-07
-9.83548e-08
-7.38445e-08
-9.15818e-08
-4.81201e-08
-8.51392e-08
-2.41583e-08
-7.90635e-08
-1.80745e-09
-7.33767e-08
1.90958e-08
-6.81011e-08
3.8702e-08
-6.32651e-08
5.71711e-08
-5.89094e-08
7.46492e-08
-5.50715e-08
9.13082e-08
-5.17801e-08
1.07323e-07
-4.90496e-08
1.22888e-07
-4.68835e-08
1.38173e-07
-4.5272e-08
1.53356e-07
-4.42082e-08
1.68597e-07
-4.36738e-08
1.84073e-07
-4.36576e-08
1.99933e-07
-4.41421e-08
2.16332e-07
-4.51043e-08
2.33407e-07
-4.64972e-08
2.51309e-07
-4.82781e-08
2.70177e-07
-5.04045e-08
2.90139e-07
-5.28644e-08
3.11267e-07
-5.56398e-08
3.33651e-07
-5.86939e-08
3.57376e-07
-6.19825e-08
3.82517e-07
-6.54859e-08
4.09111e-07
-6.91667e-08
4.37193e-07
-7.30039e-08
4.66785e-07
-7.6975e-08
4.97912e-07
-8.10836e-08
5.30592e-07
-8.53265e-08
5.64841e-07
-8.971e-08
6.00666e-07
-9.42223e-08
6.38087e-07
-9.88369e-08
6.77118e-07
-1.03513e-07
7.17773e-07
-1.08224e-07
7.60044e-07
-1.12936e-07
8.0391e-07
-1.17605e-07
8.49315e-07
-1.22155e-07
8.96165e-07
-1.26463e-07
9.44285e-07
-1.30309e-07
9.93387e-07
-1.33298e-07
1.04298e-06
-1.34719e-07
1.0923e-06
-1.33081e-07
1.14029e-06
-1.25913e-07
1.18582e-06
-1.06653e-07
-5.96993e-08
1.23458e-06
-1.67847e-08
-1.12682e-08
-3.70082e-08
1.22245e-08
-5.83166e-08
3.11019e-08
-8.06173e-08
4.71266e-08
-1.04008e-07
6.13651e-08
-1.28758e-07
7.42172e-08
-1.55081e-07
8.58793e-08
-1.8321e-07
9.65055e-08
-2.13199e-07
1.06265e-07
-2.45016e-07
1.15333e-07
-2.78412e-07
1.2385e-07
-3.13086e-07
1.3186e-07
-3.48723e-07
1.39278e-07
-3.85349e-07
1.45925e-07
-4.23128e-07
1.51681e-07
-4.61831e-07
1.56656e-07
-5.01127e-07
1.60969e-07
-5.40901e-07
1.64701e-07
-5.81007e-07
1.6795e-07
-6.21008e-07
1.70859e-07
-6.60095e-07
1.73494e-07
-6.9812e-07
1.75658e-07
-7.35105e-07
1.77164e-07
-7.71345e-07
1.77871e-07
-8.07476e-07
1.77726e-07
-8.43974e-07
1.76874e-07
-8.80478e-07
1.75639e-07
-9.16721e-07
1.74195e-07
-9.52562e-07
1.72616e-07
-9.87991e-07
1.7093e-07
-1.023e-06
1.69159e-07
-1.05764e-06
1.67327e-07
-1.0919e-06
1.6546e-07
-1.12583e-06
1.63582e-07
-1.15942e-06
1.61717e-07
-1.1927e-06
1.59882e-07
-1.22568e-06
1.58093e-07
-1.25836e-06
1.56361e-07
-1.29076e-06
1.54693e-07
-1.32288e-06
1.53093e-07
-1.35473e-06
1.51562e-07
-1.38632e-06
1.50097e-07
-1.41764e-06
1.48695e-07
-1.4487e-06
1.47348e-07
-1.47951e-06
1.4605e-07
-1.51006e-06
1.4479e-07
-1.54035e-06
1.43558e-07
-1.57038e-06
1.42344e-07
-1.60013e-06
1.41134e-07
-1.62962e-06
1.39916e-07
-1.65881e-06
1.38679e-07
-1.68771e-06
1.37408e-07
-1.71629e-06
1.36091e-07
-1.74454e-06
1.34715e-07
-1.77244e-06
1.33268e-07
-1.79997e-06
1.31735e-07
-1.82709e-06
1.30103e-07
-1.85379e-06
1.28361e-07
-1.88003e-06
1.26494e-07
-1.90579e-06
1.2449e-07
-1.93102e-06
1.22335e-07
-1.95569e-06
1.20016e-07
-1.97976e-06
1.1752e-07
-2.00318e-06
1.14834e-07
-2.02592e-06
1.11943e-07
-2.04791e-06
1.08833e-07
-2.06912e-06
1.05491e-07
-2.08949e-06
1.01902e-07
-2.10895e-06
9.80508e-08
-2.12746e-06
9.39239e-08
-2.14494e-06
8.95058e-08
-2.16134e-06
8.47812e-08
-2.17658e-06
7.97345e-08
-2.19059e-06
7.43491e-08
-2.2033e-06
6.86099e-08
-2.21464e-06
6.2502e-08
-2.22452e-06
5.60128e-08
-2.23288e-06
4.91326e-08
-2.23961e-06
4.18548e-08
-2.24465e-06
3.41751e-08
-2.24788e-06
2.60913e-08
-2.24921e-06
1.76013e-08
-2.24851e-06
8.70161e-09
-2.24568e-06
-6.14263e-10
-2.24057e-06
-1.03582e-08
-2.23309e-06
-2.05387e-08
-2.22312e-06
-3.11538e-08
-2.21059e-06
-4.219e-08
-2.19539e-06
-5.36289e-08
-2.17744e-06
-6.54346e-08
-2.15665e-06
-7.75793e-08
-2.13293e-06
-9.00105e-08
-2.10624e-06
-1.02684e-07
-2.07653e-06
-1.15541e-07
-2.04377e-06
-1.28524e-07
-2.00797e-06
-1.41557e-07
-1.96912e-06
-1.54566e-07
-1.92726e-06
-1.67459e-07
-1.88245e-06
-1.80148e-07
-1.83476e-06
-1.92528e-07
-1.7843e-06
-2.04496e-07
-1.73118e-06
-2.15942e-07
-1.67558e-06
-2.26763e-07
-1.61767e-06
-2.3687e-07
-1.55769e-06
-2.46173e-07
-1.49585e-06
-2.54601e-07
-1.43244e-06
-2.62072e-07
-1.3677e-06
-2.68519e-07
-1.3019e-06
-2.73852e-07
-1.23534e-06
-2.78038e-07
-1.16831e-06
-2.81055e-07
-1.10112e-06
-2.82898e-07
-1.03404e-06
-2.83544e-07
-9.67359e-07
-2.83021e-07
-9.0134e-07
-2.81339e-07
-8.36248e-07
-2.78553e-07
-7.72321e-07