/*--------------------------------*- C++ -*----------------------------------*\
  =========                 |
  \\      /  F ield         | OpenFOAM: The Open Source CFD Toolbox
   \\    /   O peration     | Website:  https://openfoam.org
    \\  /    A nd           | Version:  9
     \\/     M anipulation  |
\*---------------------------------------------------------------------------*/
FoamFile
{
    format      ascii;
    class       volScalarField;
    location    "11.55";
    object      p;
}
// * * * * * * * * * * * * * * * * * * * * * * * * * * * * * * * * * * * * * //

dimensions      [0 2 -2 0 0 0 0];

internalField   nonuniform List<scalar> 
918
(
23.4475
23.6682
1.00172
22.8642
0.995995
23.1847
3.37984
13.8495
19.2204
2.97724
2.66816
14.3862
20.7276
16.969
13.0896
0.927448
14.0777
2.30746
18.4375
1.4135
13.0842
20.4262
21.5149
19.2625
14.1096
14.4573
18.69
1.21074
0.116174
0.289793
0.964535
0.413106
0.159706
21.7216
22.3982
22.3366
15.4742
10.4573
3.70313
3.90655
3.08944
2.90458
13.8885
13.9859
5.94678
13.8328
13.831
16.6225
19.0884
19.232
19.5255
19.3144
19.7008
5.95614
2.83724
2.65601
2.93029
2.99853
2.98224
2.74493
2.72499
2.53163
2.3867
13.8693
14.4594
14.5138
14.2469
14.1954
22.5443
21.7873
22.1221
21.2284
21.3738
20.3038
19.9182
17.3447
17.6972
16.5709
16.1899
12.8779
12.8361
13.3123
13.5594
0.14937
1.0737
1.22207
14.0811
14.1125
14.1264
14.1444
8.30903
2.26228
2.26679
17.8779
17.4543
20.4595
20.7267
20.1737
19.9881
1.55752
1.56141
1.18446
1.20749
0.975651
13.4163
13.5681
19.2139
18.3809
14.1366
14.0407
14.1124
11.4909
13.9002
13.9768
15.4144
15.869
15.0566
15.4945
18.26
17.842
19.1265
19.5638
0.415333
0.163395
0.693511
0.325956
0.522168
15.3426
15.1376
15.5878
15.6408
15.872
10.4599
10.3843
10.4384
10.3581
4.25119
4.56289
2.33976
2.66646
2.50779
9.92478
13.9993
14.0409
4.90628
5.60027
5.27057
6.41433
6.78371
15.9885
16.4249
16.1638
17.7097
16.9147
17.2629
19.7912
19.2805
19.5809
6.35115
6.59678
5.59105
5.23688
2.30208
2.54047
2.48232
3.03003
3.00787
3.21217
3.34596
2.70014
2.55642
2.94165
2.82296
2.87563
2.21637
2.08334
13.5938
13.3802
14.1316
14.31
15.0731
14.925
14.6318
14.8004
19.1133
19.5167
19.5502
19.166
11.6154
10.1881
13.8149
14.0887
0.307596
0.267111
0.135976
0.377206
0.397724
0.14608
2.01532
1.82458
1.40405
1.67819
14.0708
14.0258
8.55251
8.77749
8.14112
7.88107
16.2917
16.4421
17.0763
16.676
2.00497
1.71547
1.84636
13.7242
13.6
13.7063
10.9291
10.37
11.9648
12.2331
13.9982
14.0333
14.0329
15.7736
16.092
19.9146
20.1853
20.0121
20.3979
21.4607
21.112
20.7272
14.5195
14.9273
14.7662
16.1053
15.7388
15.9583
15.1659
15.4708
15.3284
10.4138
10.4586
10.1787
10.2561
10.3029
10.2506
9.85958
9.73145
14.1153
14.079
14.098
7.30042
7.79155
4.85865
4.53222
12.528
13.1996
12.8765
18.743
18.0653
18.7983
18.4274
17.9775
18.301
10.468
10.4249
10.4603
15.0103
14.3499
14.7008
2.43913
2.07685
2.24311
8.97629
9.07093
6.96869
7.5962
7.25689
16.3935
16.7339
17.414
16.5258
16.9934
17.5007
17.2788
9.99962
10.1332
10.0493
9.71483
9.60594
9.74309
8.36399
8.96968
3.6096
4.25868
3.95896
9.24103
9.47856
9.32318
18.6085
19.1433
0.792128
1.20653
19.5728
19.2964
0.145098
0.242463
14.3462
12.6307
7.31767
17.1747
16.6088
18.9478
3.21936
6.10139
2.84068
3.38768
2.69582
14.5911
14.2323
13.3261
0.467238
1.2537
1.72627
2.94591
18.3889
17.7139
18.8296
19.1498
19.2041
0.696007
0.93808
0.588576
1.2805
1.05796
1.29733
15.5308
15.6256
4.41312
18.8364
19.1406
19.1584
17.6348
18.5876
17.645
0.932041
0.637736
0.712666
10.0868
12.1165
14.307
13.8588
14.0567
14.079
13.8302
14.9625
14.6343
14.5971
15.0807
14.0163
13.8854
7.76734
6.44481
8.10683
7.7487
17.0761
16.6639
16.4722
16.2181
18.0629
17.5889
18.4393
17.8275
18.2893
18.5763
2.9892
3.17026
3.04861
2.56744
6.14373
6.61154
5.4875
5.62525
4.25734
2.482
2.56837
2.78202
2.62671
2.94988
2.6959
2.95366
2.5897
2.33224
2.32882
2.94295
2.75737
2.62144
14.5688
14.5083
14.3093
14.3478
14.336
14.4504
13.5196
13.9219
13.5492
12.3901
12.964
12.4911
0.821095
0.657297
0.531762
1.32895
1.35826
1.12839
0.85729
1.20371
1.20854
0.853201
1.55274
1.48512
3.20765
2.71198
8.87834
7.99472
6.90433
16.7793
17.5809
16.7506
17.9908
18.4078
18.5133
18.1338
17.6256
15.7061
15.7015
15.3616
15.3145
4.82987
3.81416
5.03072
4.61527
10.533
14.0685
11.8356
10.8033
11.0931
13.4029
14.0234
13.6705
13.8239
13.3856
12.9059
13.6104
13.137
13.2392
13.0077
15.8102
16.2852
15.8917
15.3121
15.3323
10.6432
12.0328
5.54059
5.6984
7.27148
6.57746
13.5912
13.9761
13.9576
13.6201
13.8157
13.7965
13.653
13.8205
13.9179
13.8103
11.8198
10.1455
9.06028
9.05671
14.1026
12.355
12.949
12.4033
16.0972
16.6142
16.2286
15.6257
16.1102
15.5822
15.6077
15.8195
17.1794
16.9287
16.6988
17.0858
3.10212
3.04719
3.68045
3.1801
3.08035
2.86448
3.5202
4.77482
4.437
6.72929
7.26746
4.60097
3.4342
3.82658
4.82829
5.54823
5.53555
3.98464
4.50057
4.92751
4.44643
5.21852
4.72557
2.74634
3.04874
2.89422
2.86895
3.39322
3.88111
3.38371
2.50458
2.62459
2.30335
2.16685
3.55334
3.03825
3.07438
3.70035
1.11951
1.33721
1.45455
2.43087
1.9254
1.98613
15.1591
14.8027
14.9364
14.2154
14.2852
14.2274
13.8496
15.2197
14.9425
15.0415
13.6917
13.7781
13.5917
13.8859
14.2968
14.5964
15.4299
15.1502
14.3898
14.5424
14.1944
14.1221
13.4475
12.8827
12.8236
1.11143
0.819503
0.989065
0.924634
0.613142
0.807636
2.18634
1.57876
1.98401
1.72658
1.95986
1.43973
1.3169
4.2861
5.07763
4.01687
3.42253
3.1402
8.93505
9.04981
8.183
7.87624
8.22007
8.45645
8.40498
7.13954
7.57687
7.3854
9.97624
9.63623
17.5649
17.5091
17.1805
17.0215
17.2478
5.80565
7.6681
6.83703
7.95113
10.2548
10.5619
9.32771
8.72975
9.495
9.55809
14.0525
14.1328
13.5623
14.0467
14.073
11.8232
12.8739
13.4866
13.2901
13.8204
13.9069
12.9814
13.5618
13.4565
12.7331
12.7955
12.1154
12.4491
11.9748
11.7797
14.0317
13.9282
14.1975
13.7481
14.1257
13.6985
14.0078
14.0113
14.2923
13.3894
12.8138
12.8384
13.2594
12.9533
13.3017
13.4616
9.3093
9.96414
10.4279
10.9706
10.6825
10.4548
10.3189
10.6263
10.6086
10.8744
10.7943
10.6372
11.5714
13.5054
13.7859
13.9028
13.6713
13.713
13.4077
13.691
13.6143
13.9475
14.0459
14.0912
13.1668
13.3423
13.5485
13.4273
11.6829
10.08
9.94741
9.51422
7.59901
8.0728
11.0146
9.91366
8.93868
9.0039
12.1676
10.8005
11.6106
12.0314
10.6863
10.3038
12.9729
13.7751
13.9891
13.6995
12.056
12.1843
12.6363
13.0898
13.2863
13.7563
15.8393
16.414
16.4922
16.2166
16.0782
16.1774
15.927
16.0305
16.5047
16.631
16.4622
2.921
3.03164
2.96939
2.89271
3.12633
2.91482
3.9875
3.9803
3.19191
3.36998
3.38969
3.49544
2.97351
3.01132
4.82879
5.05924
5.33601
4.84507
6.18107
6.82394
7.40129
7.09098
5.79458
5.86832
6.18283
3.52934
3.54185
3.26723
3.71672
3.77694
2.64045
2.27428
2.07273
2.60273
2.69841
2.08407
1.80478
1.85936
2.35359
2.0974
1.84579
14.9542
14.7131
14.7342
14.5143
14.5689
14.9624
15.1829
14.992
15.1297
15.1804
14.7809
14.6684
14.8399
1.82618
1.48913
1.64487
1.61011
1.64101
1.56527
1.74784
7.61595
6.41976
6.79835
5.99933
4.16806
4.67399
9.59249
10.017
10.0566
9.76329
9.55016
9.91317
9.77175
9.76404
8.28211
9.36325
8.89132
9.30328
9.33054
9.39824
9.10276
9.08268
10.5922
10.6194
9.48579
10.1367
9.34467
7.96003
8.12151
9.12146
10.0832
10.4536
10.2933
10.003
9.77866
10.1668
10.2139
10.2851
10.2751
8.7652
8.70794
8.29637
13.9767
13.8905
14.0395
14.0391
14.1739
13.9641
13.8016
14.0828
14.1391
13.9194
11.1248
11.1899
11.4376
12.2037
12.2594
12.1152
11.3645
13.1587
12.7979
13.4658
13.4041
13.4565
13.0359
12.8608
13.1487
10.0804
11.4505
10.9798
11.2475
10.0657
9.3201
13.2409
13.2872
13.371
13.6505
13.5905
14.1834
15.8087
15.6782
15.7264
15.7696
15.3811
15.4177
4.18924
3.85177
4.56174
4.52374
4.08896
3.79364
2.29912
1.98993
1.80977
1.68218
1.89896
1.96033
8.17179
8.20142
6.3419
7.36666
5.91444
4.97909
4.83649
5.97626
7.15192
7.21968
8.52951
9.22408
8.78138
8.6077
7.93792
8.2707
10.1744
10.2657
10.167
10.4878
10.0218
11.7695
11.3502
11.7036
13.3354
13.0315
12.4243
12.3123
12.2892
12.8932
11.9523
11.1711
11.889
12.5684
12.5243
11.1672
10.9196
11.3476
11.3176
10.2255
10.7587
10.5184
10.8663
10.566
)
;

boundaryField
{
    wall-4
    {
        type            zeroGradient;
    }
    velocity-inlet-5
    {
        type            zeroGradient;
    }
    velocity-inlet-6
    {
        type            zeroGradient;
    }
    pressure-outlet-7
    {
        type            fixedValue;
        value           uniform 0;
    }
    wall-8
    {
        type            zeroGradient;
    }
    frontAndBackPlanes
    {
        type            empty;
    }
}


// ************************************************************************* //
