/*--------------------------------*- C++ -*----------------------------------*\
  =========                 |
  \\      /  F ield         | OpenFOAM: The Open Source CFD Toolbox
   \\    /   O peration     | Website:  https://openfoam.org
    \\  /    A nd           | Version:  9
     \\/     M anipulation  |
\*---------------------------------------------------------------------------*/
FoamFile
{
    format      ascii;
    class       volScalarField;
    location    "15.6";
    object      p;
}
// * * * * * * * * * * * * * * * * * * * * * * * * * * * * * * * * * * * * * //

dimensions      [0 2 -2 0 0 0 0];

internalField   nonuniform List<scalar> 
918
(
23.4557
23.602
0.976935
22.873
1.00047
23.1185
3.30808
13.7933
19.2289
2.94371
2.63731
14.3948
20.6614
16.9028
13.0213
0.925718
14.0461
2.27213
18.4464
1.40337
13.015
20.4344
21.5231
19.2707
14.1092
14.3963
18.6238
1.17219
0.112478
0.26959
0.972409
0.409012
0.153184
21.6554
22.332
22.2703
15.4817
10.4241
3.62803
3.83039
3.01885
2.84207
13.8343
13.9327
5.88021
13.7744
13.7716
16.6305
19.0969
19.2405
19.5338
19.3228
19.7092
5.97172
2.79951
2.6197
2.88774
2.9588
2.9725
2.71115
2.69099
2.49727
2.35121
13.875
14.4679
14.523
14.2545
14.2022
22.478
21.7211
22.0558
21.1622
21.3076
20.2375
19.8519
17.2785
17.6309
16.5047
16.1238
12.8115
12.7722
13.2416
13.4904
0.147846
1.0728
1.2204
14.0523
14.0878
14.0908
14.1063
8.30603
2.21728
2.22057
17.8868
17.4633
20.4682
20.7354
20.1824
19.9969
1.5394
1.5366
1.16511
1.19031
0.958788
13.3531
13.5057
19.2221
18.389
14.1418
14.0424
14.1169
11.489
13.8983
13.9721
15.3477
15.803
14.9918
15.4286
18.1937
17.7757
19.0603
19.4976
0.401387
0.158029
0.689689
0.321158
0.518629
15.3501
15.1447
15.5972
15.6484
15.8796
10.4278
10.3556
10.4043
10.3243
4.17416
4.48708
2.28707
2.60615
2.4544
9.89468
13.9476
13.9924
4.83085
5.53041
5.19747
6.35708
6.72987
15.9963
16.4328
16.1716
17.7178
16.9228
17.2709
19.7999
19.2891
19.5896
6.36904
6.60891
5.60537
5.2472
2.26276
2.50474
2.44795
2.99086
2.96889
3.20554
3.33795
2.6889
2.54628
2.90334
2.78815
2.83882
2.18104
2.04984
13.5991
13.3852
14.1379
14.3164
15.0828
14.9345
14.6411
14.8099
19.047
19.4505
19.484
19.0998
11.5675
10.1669
13.745
14.02
0.302937
0.267271
0.136731
0.380111
0.399501
0.142212
2.00969
1.82111
1.40185
1.67646
14.0483
14.0074
8.54786
8.76923
8.1413
7.88288
16.3009
16.4512
17.0853
16.6851
1.97546
1.68804
1.81802
13.6642
13.5394
13.645
10.9246
10.3597
11.9659
12.2354
13.9821
14.0247
14.0212
15.7073
16.0257
19.8484
20.1191
19.9459
20.3317
21.3945
21.0458
20.661
14.5261
14.9344
14.7729
16.1145
15.7481
15.9676
15.1754
15.4802
15.338
10.3863
10.4316
10.146
10.2234
10.2697
10.2175
9.83198
9.70494
14.0747
14.0328
14.055
7.25456
7.75119
4.86563
4.53623
12.5314
13.2044
12.8802
18.6768
17.9991
18.7321
18.3612
17.9112
18.2347
10.4417
10.4013
10.4354
14.9434
14.2818
14.6334
2.4302
2.06851
2.23196
8.96636
9.05918
6.98024
7.60294
7.26394
16.3273
16.6677
17.3478
16.4596
16.9272
17.4345
17.2126
9.968
10.1
10.017
9.68971
9.58278
9.72791
8.33323
8.94481
3.6041
4.26187
3.95761
9.22771
9.45893
9.3055
18.6167
19.1515
0.775594
1.17392
19.5815
19.3051
0.144844
0.242573
14.2797
12.5747
7.26729
17.1837
16.6166
18.9563
3.19495
6.1046
2.8151
3.37816
2.68516
14.6016
14.237
13.3286
0.459904
1.2568
1.71303
2.91618
18.3971
17.722
18.838
19.1582
19.2125
0.691528
0.923051
0.58597
1.25314
1.03807
1.28089
15.5379
15.6353
4.35089
18.845
19.1493
19.167
17.6437
18.5964
17.6539
0.935797
0.642518
0.711337
10.0727
12.1115
14.2399
13.7923
13.9896
14.0119
13.763
14.8958
14.5658
14.5303
15.0147
13.9685
13.83
7.73192
6.3897
8.06847
7.70812
17.0851
16.673
16.4801
16.2259
18.0714
17.5975
18.4479
17.8362
18.2981
18.5849
2.94731
3.13658
3.01863
2.53216
6.14421
6.61547
5.488
5.63396
4.25652
2.44218
2.53713
2.75846
2.59325
2.9316
2.67973
2.9413
2.57499
2.32275
2.31891
2.92849
2.73888
2.60225
14.5798
14.5185
14.3193
14.3575
14.3411
14.4566
13.5229
13.9272
13.5548
12.388
12.9675
12.4947
0.826775
0.657141
0.528659
1.32608
1.35239
1.11706
0.842623
1.18323
1.20413
0.827055
1.54482
1.45585
3.17053
2.66634
8.86606
7.99101
6.89735
16.7872
17.589
16.7587
17.9993
18.4162
18.5217
18.1421
17.6339
15.716
15.7111
15.3713
15.3246
4.78279
3.75483
4.98036
4.55226
10.4979
14.0556
11.8321
10.7947
11.0894
13.41
13.9559
13.6061
13.7467
13.318
12.8461
13.541
13.0731
13.174
12.9508
15.7439
16.219
15.8255
15.246
15.266
10.6141
12.0171
5.47739
5.64691
7.23903
6.53695
13.5286
13.933
13.9162
13.5654
13.7563
13.7479
13.6092
13.7812
13.8666
13.7593
11.8138
10.1348
9.03922
9.03327
14.071
12.3391
12.9257
12.3997
16.1067
16.6233
16.2379
15.6329
16.1178
15.5897
15.6166
15.8295
17.188
16.9376
16.7074
17.0943
3.06182
3.00925
3.64757
3.14349
3.04429
2.83285
3.48837
4.75561
4.41477
6.72076
7.26543
4.57738
3.38233
3.79364
4.80255
5.53754
5.51593
3.97051
4.49974
4.9245
4.43923
5.22472
4.72783
2.72434
3.02579
2.86642
2.84241
3.38101
3.87597
3.37261
2.48343
2.59784
2.26919
2.13204
3.53371
2.99946
3.03548
3.6783
1.10505
1.32857
1.4436
2.41563
1.91166
1.97482
15.1688
14.8127
14.9464
14.2255
14.2934
14.2347
13.8586
15.2268
14.949
15.0484
13.6972
13.7839
13.5973
13.8923
14.3072
14.6065
15.4388
15.1597
14.3988
14.5502
14.2014
14.1295
13.4524
12.8885
12.8284
1.11162
0.820012
0.985315
0.919554
0.612896
0.807131
2.18088
1.57146
1.97079
1.72466
1.95706
1.41468
1.30334
4.25357
5.05172
3.96987
3.37772
3.09015
8.92216
9.03534
8.17879
7.87023
8.21335
8.44859
8.39861
7.14495
7.57885
7.38922
9.94342
9.60898
17.5733
17.5174
17.1886
17.0297
17.2561
5.76641
7.65357
6.79747
7.9165
10.2246
10.5254
9.31516
8.71414
9.47329
9.54492
14.0377
14.1144
13.5532
14.0393
14.0673
11.8218
12.8702
13.4836
13.2971
13.8191
13.9009
12.9639
13.5513
13.4631
12.7441
12.799
12.1158
12.4532
11.9805
11.7808
14.042
13.9371
14.2068
13.7574
14.1366
13.702
14.0164
14.0155
14.2961
13.3971
12.8192
12.8389
13.264
12.9627
13.3094
13.4723
9.30542
9.95295
10.4019
10.9396
10.6496
10.4274
10.2941
10.5968
10.576
10.8444
10.7643
10.6123
11.5602
13.4398
13.7227
13.8286
13.6131
13.6588
13.3522
13.629
13.5555
13.9144
14.0054
14.0536
13.1372
13.2984
13.4989
13.3797
11.6708
10.0781
9.93783
9.49856
7.56818
8.04198
11.011
9.89439
8.91159
8.98091
12.157
10.7943
11.6062
12.0285
10.6808
10.2944
12.9607
13.7517
13.9706
13.6915
12.0476
12.1745
12.6247
13.0712
13.2629
13.7228
15.847
16.4225
16.5004
16.2246
16.0865
16.1862
15.9362
16.0394
16.5135
16.64
16.4712
2.88807
2.99961
2.93095
2.8567
3.08868
2.86666
3.95273
3.94277
3.15947
3.33914
3.35796
3.46672
2.93552
2.97814
4.82055
5.05483
5.32893
4.8308
6.17048
6.82375
7.40623
7.08665
5.78505
5.86644
6.18401
3.50623
3.53089
3.25045
3.70364
3.75979
2.61861
2.24762
2.04957
2.57015
2.67085
2.05782
1.77814
1.82881
2.33681
2.06407
1.8161
14.9618
14.7202
14.7416
14.5214
14.576
14.9706
15.1914
15.0012
15.1395
15.1905
14.7898
14.6785
14.8496
1.82112
1.48621
1.6294
1.58722
1.63666
1.54983
1.73639
7.60957
6.40921
6.79344
5.97858
4.12525
4.64194
9.56177
9.9862
10.0247
9.73731
9.52466
9.88958
9.74282
9.7363
8.26976
9.34887
8.87775
9.28701
9.30832
9.37749
9.08475
9.0738
10.5824
10.6131
9.47809
10.1232
9.32536
7.92761
8.09345
9.1061
10.0788
10.424
10.2654
9.98725
9.75984
10.1345
10.1876
10.2512
10.2413
8.75245
8.70641
8.2966
13.9596
13.8673
14.0143
14.0186
14.1472
13.9662
13.8033
14.0812
14.1359
13.9194
11.0926
11.1539
11.3992
12.1522
12.2047
12.0982
11.3435
13.1157
12.7658
13.4116
13.3546
13.4198
13.0052
12.8316
13.1066
10.0691
11.4406
10.9717
11.2373
10.0525
9.299
13.2166
13.2688
13.3388
13.6134
13.5669
14.1532
15.8168
15.6867
15.7342
15.7772
15.3889
15.426
4.17347
3.82833
4.54362
4.50311
4.06319
3.76579
2.29059
1.9743
1.78955
1.66251
1.89063
1.94969
8.15767
8.19066
6.32806
7.35494
5.88463
4.94459
4.79666
5.9559
7.13684
7.20111
8.52177
9.20977
8.76579
8.59286
7.92844
8.26213
10.1418
10.234
10.1353
10.4545
9.98708
11.7299
11.3124
11.6621
13.2807
12.985
12.3856
12.2732
12.2405
12.8368
11.94
11.166
11.8818
12.5462
12.5028
11.1337
10.8884
11.3145
11.294
10.2061
10.7314
10.493
10.843
10.5527
)
;

boundaryField
{
    wall-4
    {
        type            zeroGradient;
    }
    velocity-inlet-5
    {
        type            zeroGradient;
    }
    velocity-inlet-6
    {
        type            zeroGradient;
    }
    pressure-outlet-7
    {
        type            fixedValue;
        value           uniform 0;
    }
    wall-8
    {
        type            zeroGradient;
    }
    frontAndBackPlanes
    {
        type            empty;
    }
}


// ************************************************************************* //
