/*--------------------------------*- C++ -*----------------------------------*\
  =========                 |
  \\      /  F ield         | OpenFOAM: The Open Source CFD Toolbox
   \\    /   O peration     | Website:  https://openfoam.org
    \\  /    A nd           | Version:  9
     \\/     M anipulation  |
\*---------------------------------------------------------------------------*/
FoamFile
{
    format      ascii;
    class       volScalarField;
    location    "3.82";
    object      alpha.water;
}
// * * * * * * * * * * * * * * * * * * * * * * * * * * * * * * * * * * * * * //

dimensions      [0 0 0 0 0 0 0];

internalField   nonuniform List<scalar> 
2268
(
1
1
0.999999
0.999999
0.999999
1
1
1
0.999999
0.999999
1
1
1
1
1
1
1
0.999743
0.993617
0.997207
0.996713
0.99446
0.99446
0.999999
0.999999
0.999998
0.999999
1
0.999999
0.999999
0.999999
0.999999
1
1
1
1
1
1
1
0.999997
0.998078
0.98037
0.989578
0.999652
0.999701
0.997926
0.999999
0.999999
0.999998
0.999999
1
1
1
1
1
1
1
1
1
1
1
1
0.999696
0.984612
0.979718
0.979718
0.991724
0.999995
0.999995
0.999999
0.999999
0.999999
1
1
1
1
1
1
1
1
1
1
1
1
1
0.999943
0.990723
0.979718
0.979718
0.986905
0.999995
0.999973
0.999999
0.999999
0.999999
1
1
1
1
1
1
1
1
1
1
1
1
0.999998
1
0.999151
0.983401
0.979751
0.994556
0.999995
0.999948
1
1
0.999999
1
1
1
1
1
1
1
1
1
1
1
1
1
1
0.999982
0.998838
0.996187
0.999929
0.999995
0.999948
0.999999
1
1
0.999999
1
1
1
1
1
1
1
1
1
1
1
1
1
1
1
1
1
1
0.999954
0.999999
1
1
1
1
1
1
1
1
1
1
1
1
1
1
1
1
1
1
1
1
1
0.999998
0.989723
0.989723
0.989779
0.989842
0.990743
0.990736
0.990736
0.994979
0.998824
0.995683
0.995069
0.984995
0.960529
0.960531
0.978726
0.981511
0.964589
0.96017
0.96017
0.989723
0.997581
0.998606
0.99888
0.999767
0.999391
0.998648
0.999053
0.999052
0.995966
0.990634
0.964742
0.96051
0.962368
0.998351
0.998364
0.997582
0.960203
0.96017
0.997257
0.999954
0.999954
0.999954
0.99982
0.999899
0.999899
0.998524
0.996316
0.996492
0.976833
0.96051
0.960511
0.986824
0.998364
0.998364
0.979135
0.978961
0.972138
0.999736
0.999848
0.999954
0.999946
0.999868
0.999954
0.999549
0.995637
0.995638
0.996495
0.974655
0.960526
0.961102
0.998118
0.998364
0.998364
0.978719
0.977762
0.977696
0.999646
0.999699
0.99995
0.999954
0.999954
0.999954
0.999678
0.996279
0.995644
0.99886
0.990221
0.968239
0.974832
0.997962
0.998364
0.998364
0.997919
0.952987
0.977393
0.999645
0.999947
0.999956
0.999949
0.999909
0.999868
0.99991
0.999539
0.999301
0.999808
0.999472
0.997459
0.998314
0.998362
0.998364
0.998364
0.99832
0.944133
0.969758
0.99993
0.999945
0.999968
0.999967
0.999668
0.99958
0.999929
0.999938
0.999937
0.999421
0.997445
0.997785
0.998364
0.998364
0.998364
0.998364
0.995956
0.944133
0.97228
0.999983
0.999977
0.999972
0.999971
0.999969
0.999969
0.999969
0.999969
0.998911
0.990761
0.990515
0.996665
0.998364
0.998364
0.998364
0.998364
0.996908
0.952668
0.972987
1
1
1
1
1
1
1
1
1
1
1
1
1
1
1
1
1
1
1
1
1
1
0.999995
0.893978
0.895304
0.896397
0.898737
0.905111
0.913625
0.922586
0.932845
0.943945
0.954174
0.962791
0.9709
0.979367
0.98829
0.995733
0.998146
0.997847
0.997949
0.998117
0.998081
0.997922
0.997838
0.998226
0.171499
0.168821
0.172302
0.179622
0.186391
0.195828
0.208317
0.223174
0.238828
0.259559
0.283642
0.309484
0.335757
0.362028
0.389216
0.420698
0.451315
0.479368
0.50184
0.515321
0.522681
0.528755
0.536683
0.0015006
0.00217149
0.00175581
0.00141158
0.00196836
0.00246712
0.00261575
0.00276937
0.00326955
0.00295174
0.00263604
0.00242081
0.00228566
0.00222605
0.00222317
0.00222327
0.00222316
0.00222327
0.00222359
0.0024653
0.00295044
0.00333843
0.00368352
0.0015006
0.00223112
0.00171814
0.00141365
0.00313315
0.00313559
0.00263273
0.00262932
0.00663291
0.00718775
0.00718771
0.00718202
0.00722732
0.00722748
0.00722672
0.00293481
0.00273402
0.0026806
0.00347118
0.00641791
0.0060794
0.00236732
0.00034151
0.0024459
0.0024496
0.00244982
0.00143063
0.00161067
0.00297848
0.00380144
0.00381597
0.00383031
0.00393108
0.00434448
0.0047097
0.00482148
0.00500578
0.00509294
0.00564525
0.0056453
0.00563643
0.00457464
0.00173876
0.00154442
0.000597697
0.000300554
0.00161801
0.00144999
0.00162735
0.00163934
0.00164305
0.00107263
0.000636967
0.000921427
0.000542547
7.65372e-05
1.93396e-05
4.10499e-06
5.17758e-08
5.17758e-08
5.17758e-08
0.000353809
0.000371904
0.000184453
0.000389205
0.000410429
0.000299568
0.000298709
0.000300015
1.74441e-05
7.75254e-06
1.30512e-05
0.000307987
0.000302999
0.000411632
0.000268649
3.09158e-05
9.42491e-08
1.21094e-08
1.26646e-08
1.03016e-08
2.02991e-07
2.59891e-06
1.01807e-06
8.98833e-07
4.56081e-05
0.000183743
0.000550629
0.000556104
0.000308951
0.000298426
0.000636561
1.50122e-08
6.99665e-08
1.1532e-07
1.50022e-08
7.18303e-09
5.94613e-10
1.66324e-09
3.12313e-08
9.28364e-09
9.90531e-09
1.03007e-08
1.03016e-08
6.35481e-06
7.35667e-06
1.86356e-06
5.5336e-07
8.62486e-06
5.07223e-05
0.000299648
0.000556644
0.000556644
0.000298289
0.000608941
1.49055e-08
2.65058e-07
2.23121e-07
1.4029e-08
6.95949e-10
3.79996e-10
3.79861e-10
1.65097e-09
1.74346e-09
6.72513e-07
2.70202e-06
2.24675e-06
6.90229e-07
1.11961e-06
2.86454e-07
1.19077e-10
4.94661e-11
5.04951e-11
5.19467e-11
0.000106991
0.000203996
0.000160548
2.43969e-05
5.07009e-09
2.60855e-07
2.11571e-07
1.05005e-08
1.87665e-09
3.79847e-10
3.79861e-10
5.55377e-08
1.91965e-06
2.84077e-06
2.83992e-06
8.30169e-07
1.3542e-08
1.1785e-08
7.70724e-09
2.90963e-10
4.91844e-11
1.3186e-09
1.24013e-09
1.47658e-09
6.06057e-09
1.19468e-07
3.803e-08
3.30275e-09
2.12894e-09
1.72468e-09
6.27265e-09
2.07855e-09
7.43679e-10
3.66436e-09
3.64617e-07
1.6738e-06
1.51173e-06
4.81364e-07
4.98042e-09
2.53698e-08
1.63214e-08
1.96079e-10
5.02322e-11
4.91837e-11
4.91844e-11
1.08546e-07
2.31664e-06
4.53484e-06
4.55086e-06
3.02155e-06
2.83428e-09
1.62503e-09
1.55768e-09
7.82851e-11
6.18619e-10
6.86344e-09
1.56014e-08
4.0442e-08
5.24872e-08
3.62289e-09
1.69082e-10
1.08798e-09
6.39328e-09
2.96815e-09
5.20268e-11
4.9187e-11
4.91844e-11
4.91844e-11
1.30319e-06
6.78572e-06
6.78572e-06
6.78572e-06
6.78572e-06
4.13947e-08
1.59948e-07
4.92776e-08
6.37879e-11
7.17646e-10
2.87608e-09
4.43787e-09
3.78441e-09
2.90107e-09
7.54162e-10
7.85591e-11
6.62306e-11
5.34059e-11
6.02016e-11
7.70148e-11
1.2035e-10
1.28855e-10
3.38259e-10
7.83602e-08
2.50473e-06
6.78572e-06
6.78572e-06
6.4274e-06
1.04558e-07
3.21532e-07
9.77825e-08
6.28463e-11
6.33258e-10
1.31671e-09
1.53564e-09
1.52798e-09
9.58455e-10
2.61535e-10
3.89742e-11
1.18533e-11
7.35579e-12
9.04736e-12
2.74301e-11
4.55549e-11
5.22152e-11
5.22156e-11
5.22903e-11
5.98472e-08
1.17441e-06
2.23659e-06
5.17148e-07
1.47032e-07
3.216e-07
1.25189e-07
6.23217e-11
3.62185e-10
5.24158e-10
4.23474e-10
2.26235e-10
9.60097e-11
2.46483e-11
3.72789e-12
1.84815e-13
5.74183e-14
9.13941e-14
1.0623e-12
8.27561e-12
3.21434e-11
6.55259e-11
1.13133e-10
7.8245e-11
7.81058e-11
7.78399e-11
7.74138e-11
1.65705e-07
3.21632e-07
1.62448e-07
6.22076e-11
1.11389e-10
1.65219e-10
8.11377e-11
1.86455e-11
3.74682e-12
6.47238e-30
-7.4222e-13
-1.62223e-12
-1.75771e-12
-1.47497e-12
-7.75305e-13
2.07987e-13
7.10468e-12
4.29216e-11
9.69491e-11
1.25068e-10
1.2632e-10
1.13766e-10
7.7372e-11
1.82397e-07
3.21632e-07
1.9895e-07
6.21453e-11
6.20085e-11
6.193e-11
1.83859e-11
9.49281e-13
-2.16019e-13
-1.38459e-12
-2.06106e-12
-2.43791e-12
-2.49063e-12
-2.26016e-12
-1.79228e-12
-1.07352e-12
9.58668e-15
2.6059e-12
1.83837e-11
4.1742e-11
5.87586e-11
6.39208e-11
4.97094e-11
1.66211e-07
3.21632e-07
1.77047e-07
6.22076e-11
7.76256e-11
8.481e-11
8.45161e-12
2.41587e-13
-7.54877e-13
-1.57749e-12
-2.05612e-12
-2.30929e-12
-2.35435e-12
-2.21826e-12
-1.95111e-12
-1.5987e-12
-1.1712e-12
-6.26207e-13
2.29399e-14
1.03721e-12
3.66517e-12
6.45276e-12
7.43544e-12
9.23491e-08
2.88983e-07
5.99987e-08
6.22676e-11
2.47975e-10
1.81545e-10
1.47553e-11
1.11139e-12
-1.87398e-13
-8.91243e-13
-1.29939e-12
-1.5662e-12
-1.69265e-12
-1.68015e-12
-1.55194e-12
-1.34756e-12
-1.11081e-12
-8.7017e-13
-6.35597e-13
-4.00127e-13
-1.53333e-13
9.51767e-15
7.91684e-14
6.84811e-09
2.73272e-08
5.16697e-10
3.28417e-10
4.72863e-10
2.56672e-10
2.44973e-11
5.26646e-12
2.14782e-12
1.95208e-13
-2.77052e-13
-6.02865e-13
-8.5963e-13
-9.92626e-13
-9.97896e-13
-9.14274e-13
-7.86184e-13
-6.42765e-13
-5.05233e-13
-3.83365e-13
-2.78399e-13
-1.87445e-13
-1.12316e-13
1.17424e-10
5.38501e-11
1.33969e-10
4.51732e-10
4.73829e-10
2.47856e-10
3.66696e-11
1.62794e-11
1.05665e-11
5.17776e-12
1.77779e-12
2.03703e-13
-2.02535e-13
-4.05187e-13
-5.09214e-13
-5.196e-13
-4.73456e-13
-3.99764e-13
-3.20698e-13
-2.48971e-13
-1.88864e-13
-1.39291e-13
-9.66713e-14
1.17269e-10
5.28764e-11
1.0358e-10
3.50842e-10
3.76071e-10
1.51301e-10
4.65985e-11
3.15717e-11
2.40053e-11
1.58285e-11
7.77905e-12
2.60904e-12
4.28399e-13
-7.0149e-14
-1.94904e-13
-2.44447e-13
-2.45602e-13
-2.16988e-13
-1.77445e-13
-1.3827e-13
-1.04847e-13
-7.86095e-14
-5.75499e-14
2.52223e-10
5.28719e-11
5.28732e-11
1.10218e-10
1.48234e-10
7.49949e-11
5.14873e-11
4.4815e-11
3.63207e-11
2.72994e-11
1.59328e-11
6.72404e-12
1.749e-12
1.84455e-13
-4.85056e-14
-9.49242e-14
-1.11736e-13
-1.04766e-13
-8.74104e-14
-6.80615e-14
-5.09347e-14
-3.75601e-14
-2.7714e-14
1.91097e-09
5.28732e-11
5.28728e-11
5.27829e-11
5.26905e-11
5.36953e-11
5.35572e-11
5.34095e-11
4.5616e-11
3.61174e-11
2.34646e-11
1.11142e-11
3.20189e-12
4.24653e-13
-2.90831e-15
-3.11441e-14
-4.64343e-14
-4.63549e-14
-3.92661e-14
-3.0309e-14
-2.21307e-14
-1.57578e-14
-1.13697e-14
4.63613e-09
7.8042e-08
3.65056e-07
8.62486e-08
5.26275e-11
5.26255e-11
5.31858e-11
5.6963e-11
5.18878e-11
4.19754e-11
2.85522e-11
1.38874e-11
3.79825e-12
4.14013e-13
4.58868e-15
-1.02172e-14
-1.85315e-14
-1.92934e-14
-1.64003e-14
-1.24374e-14
-8.77927e-15
-5.94496e-15
-4.04467e-15
4.85627e-09
2.71828e-07
8.49506e-07
8.04762e-07
6.74133e-08
5.26269e-11
5.26255e-11
5.71245e-11
5.43242e-11
4.43315e-11
2.9829e-11
1.35678e-11
3.08764e-12
2.34202e-13
1.85287e-15
-3.91714e-15
-7.22722e-15
-7.61297e-15
-6.42168e-15
-4.75327e-15
-3.22541e-15
-2.06442e-15
-1.28918e-15
3.48649e-09
2.4073e-07
8.49595e-07
8.49684e-07
2.41468e-07
7.83223e-11
5.26269e-11
5.69669e-11
5.35157e-11
4.33036e-11
2.76169e-11
1.07941e-11
1.77091e-12
7.75744e-14
2.42041e-16
-1.69179e-15
-2.81581e-15
-2.88265e-15
-2.36523e-15
-1.69172e-15
-1.09826e-15
-6.63624e-16
-3.8096e-16
3.48642e-09
8.23464e-08
8.49646e-07
8.49636e-07
2.11683e-07
1.48885e-10
5.26303e-11
5.52939e-11
5.00267e-11
3.83876e-11
2.17167e-11
6.61557e-12
6.92017e-13
1.52762e-14
7.46248e-18
-7.12359e-16
-1.07136e-15
-1.04062e-15
-8.19015e-16
-5.62458e-16
-3.49519e-16
-2.01162e-16
-1.09166e-16
3.48642e-09
3.60456e-09
4.37043e-07
3.136e-07
4.6329e-08
1.80466e-10
5.5278e-11
5.1861e-11
4.34959e-11
3.02498e-11
1.39465e-11
2.87144e-12
1.61097e-13
1.37423e-15
0
-3.11661e-16
-3.9959e-16
-3.60074e-16
-2.68473e-16
-1.75332e-16
-1.03399e-16
-5.61781e-17
-2.85488e-17
3.51759e-09
3.4166e-09
1.57473e-09
3.00316e-10
9.84332e-11
1.04147e-10
5.75888e-11
4.57157e-11
3.48176e-11
2.03827e-11
6.60924e-12
7.40167e-13
1.7152e-14
4.38826e-17
-6.74386e-17
-1.3364e-16
-1.43735e-16
-1.18557e-16
-8.24363e-17
-5.0473e-17
-2.79137e-17
-1.41878e-17
-6.7151e-18
3.45888e-09
3.4382e-09
1.03987e-09
2.55125e-10
7.87459e-11
5.50223e-11
4.58941e-11
3.59945e-11
2.39451e-11
1.03036e-11
1.87978e-12
8.70631e-14
6.23441e-16
3.39263e-19
-3.67244e-17
-5.22573e-17
-4.87276e-17
-3.64519e-17
-2.33441e-17
-1.32316e-17
-6.78032e-18
-3.1892e-18
-1.39323e-18
2.35916e-09
2.98582e-09
1.41511e-09
4.51741e-10
1.12933e-10
4.73277e-11
3.37106e-11
2.35407e-11
1.20041e-11
3.05073e-12
2.3566e-13
3.42302e-15
5.66621e-18
-8.04089e-18
-1.72659e-17
-1.86481e-17
-1.51901e-17
-1.02511e-17
-5.98596e-18
-3.10474e-18
-1.45634e-18
-6.26184e-19
-2.49489e-19
6.96592e-10
1.37315e-09
9.97503e-10
4.09088e-10
1.08759e-10
3.80023e-11
2.10255e-11
1.08989e-11
3.36758e-12
3.76191e-13
9.21805e-15
3.40628e-17
1.0311e-20
-4.86998e-18
-6.59861e-18
-5.95561e-18
-4.27444e-18
-2.58714e-18
-1.36394e-18
-6.39882e-19
-2.71283e-19
-1.05192e-19
-3.76858e-20
5.4855e-11
1.93989e-10
2.49063e-10
1.53979e-10
5.54265e-11
1.94422e-11
8.28006e-12
2.67585e-12
3.79171e-13
1.38731e-14
9.24374e-17
7.37452e-20
-1.15079e-18
-2.16365e-18
-2.19513e-18
-1.69421e-18
-1.07018e-18
-5.76085e-19
-2.71177e-19
-1.13627e-19
-4.29341e-20
-1.47842e-20
-4.68404e-21
1.25254e-12
5.81478e-12
1.32055e-11
1.33249e-11
8.3886e-12
3.94025e-12
1.40555e-12
2.49916e-13
1.30901e-14
1.38757e-16
2.34002e-19
-1.47818e-19
-6.69569e-19
-7.99009e-19
-6.46394e-19
-4.27438e-19
-2.35747e-19
-1.11571e-19
-4.62747e-20
-1.70654e-20
-5.65326e-21
-1.69727e-21
-4.66062e-22
4.16829e-14
1.31219e-13
2.08456e-13
2.63793e-13
2.82817e-13
2.01808e-13
6.62347e-14
6.51891e-15
1.32803e-16
5.42651e-19
2.60594e-22
-1.707e-19
-2.86928e-19
-2.62701e-19
-1.72716e-19
-9.56884e-20
-4.53923e-20
-1.85973e-20
-6.68455e-21
-2.13067e-21
-6.06206e-22
-1.55022e-22
-3.59561e-23
1.04925e-15
5.09133e-15
4.89491e-15
3.92841e-15
3.05011e-15
2.09677e-15
5.9574e-16
4.06816e-17
5.68368e-19
1.05865e-21
-3.12084e-20
-8.7771e-20
-1.05564e-19
-7.89744e-20
-4.27305e-20
-1.9208e-20
-7.6511e-21
-2.65478e-21
-8.08803e-22
-2.17499e-22
-5.16804e-23
-1.0902e-23
-2.06207e-24
5.1466e-18
6.41137e-17
6.356e-17
4.41253e-17
1.93494e-17
6.93511e-18
1.53699e-18
1.17261e-19
1.22702e-21
-3.87763e-21
-2.09618e-20
-3.60184e-20
-3.50476e-20
-2.2206e-20
-1.00608e-20
-3.57318e-21
-1.15215e-21
-3.26974e-22
-8.15182e-23
-1.78106e-23
-3.38394e-24
-5.60647e-25
-8.20521e-26
2.53272e-21
9.57377e-20
1.84954e-19
1.65756e-19
8.13807e-20
2.41324e-20
4.68278e-21
1.71752e-22
-1.75936e-22
-3.83216e-21
-9.76687e-21
-1.30285e-20
-1.07861e-20
-5.94452e-21
-2.30623e-21
-6.64728e-22
-1.62171e-22
-3.53153e-23
-6.77375e-24
-1.12591e-24
-1.5837e-25
-1.89222e-26
-1.96213e-27
1.10282e-25
1.37656e-23
1.47836e-22
2.63794e-22
2.12242e-22
4.86486e-23
3.40433e-24
-3.1437e-23
-6.14291e-22
-2.08956e-21
-3.85615e-21
-4.31539e-21
-3.1375e-21
-1.54066e-21
-5.25188e-22
-1.27108e-22
-2.25495e-23
-3.46516e-24
-4.53897e-25
-4.97309e-26
-4.34962e-27
-3.11414e-28
-1.90741e-29
-3.51995e-25
-3.70243e-44
6.96925e-25
3.50904e-24
9.59095e-25
5.9745e-27
-5.81543e-23
-1.53843e-22
-4.09273e-22
-9.10443e-22
-1.36351e-21
-1.33584e-21
-8.77446e-22
-3.94796e-22
-1.23e-22
-2.64908e-23
-3.85078e-24
-3.74585e-25
-2.41289e-26
-9.61851e-28
-2.67885e-29
-6.01519e-31
-1.20053e-32
0.999984
0.99998
0.999978
0.999976
0.99898
0.999106
0.999078
0.9989
0.548985
0.55169
0.551052
0.546761
0.00334012
0.00409872
0.00497109
0.00613392
0.00224981
0.00528396
0.00410523
0.00177388
0.00120951
0.00341467
0.00173747
0.00168536
0.000926971
0.00194487
0.000458636
0.000580616
0.00114854
0.00113433
0.000344325
3.56145e-06
0.000487209
0.00012237
1.80197e-05
3.52413e-06
3.77047e-08
3.75993e-08
2.52085e-06
3.5308e-06
3.75993e-08
3.75786e-08
3.75576e-08
8.59109e-07
4.77518e-07
5.12034e-08
3.75572e-08
3.78537e-08
6.78081e-06
1.34018e-06
3.75576e-08
3.75572e-08
2.49117e-06
1.38546e-06
3.75576e-08
3.76287e-08
2.62137e-08
2.08265e-07
2.08723e-07
7.30462e-08
3.08823e-10
7.4673e-09
2.20251e-08
2.17574e-08
4.23786e-11
7.31397e-12
7.23681e-12
7.15747e-12
2.40508e-11
1.5876e-11
1.0588e-11
7.15727e-12
5.70209e-12
5.06032e-12
4.20982e-12
3.24242e-12
1.45734e-13
1.9596e-13
2.35304e-13
2.71045e-13
-5.28613e-14
-3.26124e-14
-1.59589e-14
-3.38493e-15
-5.87373e-14
-4.55365e-14
-3.53808e-14
-2.78544e-14
-3.80184e-14
-2.99584e-14
-2.34569e-14
-1.87491e-14
-1.94214e-14
-1.5459e-14
-1.20091e-14
-9.28075e-15
-8.2907e-15
-6.61311e-15
-5.12852e-15
-3.81225e-15
-3.02224e-15
-2.37763e-15
-1.84408e-15
-1.36225e-15
-9.70991e-16
-7.36736e-16
-5.55882e-16
-4.16651e-16
-2.83052e-16
-2.05438e-16
-1.47642e-16
-1.05575e-16
-7.72032e-17
-5.32978e-17
-3.61878e-17
-2.42809e-17
-1.92189e-17
-1.25969e-17
-8.07303e-18
-5.07682e-18
-4.29292e-18
-2.66622e-18
-1.61261e-18
-9.52169e-19
-8.40753e-19
-4.92105e-19
-2.79802e-19
-1.54834e-19
-1.40778e-19
-7.69256e-20
-4.07541e-20
-2.09693e-20
-1.96394e-20
-9.89165e-21
-4.82049e-21
-2.27697e-21
-2.21975e-21
-1.01403e-21
-4.4711e-22
-1.90646e-22
-1.96924e-22
-7.99377e-23
-3.12245e-23
-1.17624e-23
-1.31984e-23
-4.63474e-24
-1.56023e-24
-5.04852e-25
-6.34394e-25
-1.85778e-25
-5.1924e-26
-1.38947e-26
-2.00628e-26
-4.64592e-27
-1.02212e-27
-2.14368e-28
-3.49543e-28
-5.87862e-29
-9.35958e-30
-1.41421e-30
-2.08061e-30
-2.14966e-31
-2.10166e-32
-1.94331e-33
-4.6284e-34
-1.73824e-35
-6.2047e-37
-2.0774e-38
0.999983
0.999975
0.99997
0.997088
0.982626
0.974319
0.9643
0.963098
0.974223
0.986357
0.997201
0.998334
0.998363
0.998364
0.998364
0.998363
0.99707
0.979825
0.970529
0.997372
0.976651
0.959218
0.950305
0.947524
0.944654
0.930457
0.916833
0.9121
0.920607
0.925888
0.928804
0.924483
0.910196
0.898379
0.906177
0.925586
0.953523
0.961246
0.539016
0.543998
0.547785
0.547333
0.544786
0.539719
0.537708
0.524413
0.49388
0.452871
0.41411
0.382142
0.355763
0.335431
0.320703
0.307658
0.305552
0.311491
0.310501
0.0086735
0.0117133
0.0138497
0.0138682
0.0116602
0.00764031
0.00292941
0.000819973
0.000819845
0.000819973
0.000913215
0.00100186
0.000848409
0.000848503
0.000848552
0.000852795
0.000852074
0.000814853
0.000814853
0.00137244
0.000823999
0.000823993
0.000823999
0.000911029
0.00180107
0.00156601
0.00149423
0.0012467
0.00119472
0.00115776
0.000988867
0.000848409
0.000847792
0.000845295
0.000840921
0.000838336
0.00083035
0.000814779
0.000946314
0.000826775
0.000831372
0.000826243
0.0011663
0.00200567
0.00208088
0.00208313
0.00208433
0.00208482
0.00208482
0.00208482
0.00208471
0.00201544
0.00121358
0.00120867
0.00140722
0.00140653
0.00115792
0.00139226
0.00153972
0.00153972
0.00153928
0.00153848
0.00101535
0.000964672
0.000949157
0.000948398
0.000864127
0.000794906
0.000704736
0.000744956
0.000916345
0.000824571
0.000849581
0.000864845
0.00062189
0.000744324
0.000640308
0.000846362
0.000715943
0.000706942
0.00038353
2.07014e-08
5.28927e-08
8.4134e-08
1.15211e-07
1.78304e-07
2.87151e-07
6.69378e-07
8.34368e-07
2.72894e-06
3.6333e-05
2.18443e-05
8.22744e-06
0.000218276
0.000161776
1.01327e-05
1.21345e-08
1.21323e-08
1.21346e-08
1.21349e-08
2.0405e-08
8.22064e-07
6.25083e-07
1.79057e-06
1.98506e-06
2.57503e-06
1.85318e-05
3.72962e-05
3.73275e-05
2.35162e-06
1.50604e-06
1.5059e-06
1.50626e-06
1.50791e-06
1.27458e-07
1.21323e-08
1.21323e-08
1.21323e-08
1.2141e-08
3.20129e-08
2.001e-07
1.90409e-07
6.73601e-07
3.30771e-06
4.66976e-05
7.23241e-05
7.2322e-05
5.45146e-05
1.50604e-06
1.5059e-06
1.50604e-06
1.5059e-06
1.50626e-06
8.00938e-08
1.21375e-08
1.21323e-08
1.23127e-08
5.52201e-07
9.21987e-06
1.81026e-05
3.5903e-06
3.27717e-06
5.21248e-05
7.23614e-05
7.23614e-05
3.461e-05
7.07113e-06
6.89101e-06
1.58048e-05
1.50239e-05
5.33305e-06
4.06206e-06
9.06913e-08
2.14124e-08
1.21375e-08
1.21837e-07
1.3277e-05
2.25714e-05
2.25728e-05
1.46099e-05
1.7845e-05
7.23048e-05
7.23542e-05
2.34359e-05
6.29827e-06
1.63511e-05
4.56504e-05
4.56266e-05
4.55917e-05
4.5541e-05
3.33783e-05
8.13671e-08
1.23035e-08
1.22478e-08
3.78716e-07
1.63317e-05
2.25728e-05
2.25565e-05
1.1841e-05
1.21791e-05
3.09543e-05
1.73237e-05
3.43105e-08
1.74671e-05
4.56504e-05
4.56504e-05
4.51211e-05
2.5058e-05
2.30118e-05
3.34203e-05
5.49511e-08
1.23035e-08
1.23104e-08
1.40605e-07
7.10203e-06
1.52008e-05
9.1349e-06
3.76531e-07
1.52975e-07
3.19678e-08
3.44221e-10
2.88601e-09
8.00145e-06
4.31891e-05
4.14853e-05
3.29537e-06
1.56555e-08
4.724e-08
1.07326e-05
3.23137e-08
3.93159e-08
1.32603e-07
1.33219e-07
8.56769e-08
1.14205e-07
1.41799e-08
1.60455e-10
1.60418e-10
1.61137e-10
1.81953e-10
2.05918e-08
3.38006e-06
6.4794e-06
1.94996e-06
1.82841e-10
8.44157e-08
1.07576e-06
1.07625e-06
1.50884e-08
3.27605e-08
5.3858e-08
5.76369e-08
8.59247e-08
1.00537e-07
1.60455e-10
1.60365e-10
1.60367e-10
1.60418e-10
1.60948e-10
5.85644e-08
1.49966e-07
1.58703e-10
1.58703e-10
1.58791e-10
1.23407e-08
1.22285e-06
2.50485e-06
9.20373e-10
2.71962e-09
7.67713e-11
7.64351e-08
3.05902e-07
3.06027e-07
1.87915e-07
1.60367e-10
1.60366e-10
1.60367e-10
5.02146e-10
5.51478e-09
8.08403e-09
1.58703e-10
1.58703e-10
1.69118e-10
1.7044e-10
4.71901e-07
1.55792e-05
4.02563e-12
1.69974e-12
1.8209e-12
2.5102e-08
2.42671e-07
3.06017e-07
3.06028e-07
2.69453e-07
9.19655e-09
1.60403e-10
1.60402e-10
1.60518e-10
1.6236e-10
1.62259e-10
2.02838e-10
2.54526e-10
1.55247e-10
6.93048e-07
1.69621e-05
2.31942e-12
1.69817e-12
1.11418e-12
2.18815e-10
2.19795e-08
1.54265e-07
2.31547e-07
1.86991e-07
5.73186e-08
1.86654e-08
5.68692e-08
4.17371e-08
8.29979e-09
3.97688e-10
2.58492e-10
2.85963e-10
9.75696e-11
1.6771e-07
1.69626e-05
3.58022e-13
4.49702e-13
3.17329e-13
3.73209e-14
1.8642e-11
1.0152e-09
6.21029e-09
4.91921e-09
1.62897e-08
6.93947e-08
9.41706e-08
9.41706e-08
5.65275e-08
1.51317e-09
2.53105e-10
2.79541e-10
8.85943e-11
3.58579e-12
1.68233e-05
2.46619e-15
1.22269e-14
1.31981e-14
0
5.18173e-15
1.70691e-13
5.36733e-15
1.55816e-13
7.45394e-11
1.67959e-08
5.32212e-08
6.84567e-08
2.66143e-08
1.87255e-09
2.44236e-10
1.84886e-10
3.36431e-11
3.57312e-12
1.68218e-05
-2.22066e-14
-1.1368e-14
-5.13583e-15
-2.44996e-15
-2.49567e-18
8.37347e-20
5.15642e-15
1.55685e-13
8.86785e-13
2.45126e-12
1.40752e-10
1.6737e-12
1.6745e-12
7.4493e-11
1.26915e-10
7.05557e-11
1.27499e-11
3.56759e-12
1.68004e-05
-1.563e-14
-9.6836e-15
-5.75659e-15
-3.26778e-15
-1.64009e-15
-6.62571e-16
2.07059e-16
1.79012e-14
2.50684e-13
1.48889e-12
6.6611e-13
1.67312e-12
4.92952e-12
1.00787e-11
1.18897e-11
1.26038e-11
6.11181e-12
3.56616e-12
5.83656e-06
-7.53988e-15
-4.84519e-15
-3.05188e-15
-1.8838e-15
-1.13196e-15
-6.40948e-16
-2.95853e-16
2.57927e-17
9.19611e-15
1.36961e-13
6.6602e-13
2.088e-12
4.73076e-12
3.99142e-12
3.49337e-12
5.60265e-12
3.92943e-12
3.56616e-12
3.56616e-12
-2.85292e-15
-1.81374e-15
-1.14105e-15
-7.07926e-16
-4.304e-16
-2.6211e-16
-1.54636e-16
-7.81782e-17
3.69503e-17
2.40541e-15
2.10717e-14
9.71634e-14
3.36617e-13
6.22124e-13
1.01696e-12
3.19179e-12
3.57643e-12
3.56616e-12
3.56662e-12
-9.01256e-16
-5.49812e-16
-3.2814e-16
-1.94821e-16
-1.16418e-16
-7.00016e-17
-4.15184e-17
-2.23951e-17
-5.26409e-18
8.37412e-17
7.48575e-16
3.93199e-15
1.74399e-14
6.83623e-14
3.30203e-13
2.42706e-12
4.0302e-12
3.58471e-12
3.68673e-12
-2.31806e-16
-1.34638e-16
-7.9012e-17
-4.61289e-17
-2.66924e-17
-1.52801e-17
-8.52372e-18
-4.04442e-18
-5.83258e-20
2.11386e-17
1.55831e-16
9.93522e-16
6.23998e-15
3.40795e-14
2.44289e-13
2.40147e-12
6.96725e-12
4.37618e-11
6.71467e-08
-5.38352e-17
-2.86404e-17
-1.55372e-17
-8.49324e-18
-4.62539e-18
-2.43687e-18
-1.20198e-18
-3.0173e-19
1.63995e-18
1.55822e-17
1.08814e-16
7.12933e-16
4.74049e-15
2.76558e-14
2.27445e-13
3.59215e-12
9.76475e-12
1.4435e-09
8.42977e-06
-1.10274e-17
-5.15271e-18
-2.47003e-18
-1.19676e-18
-5.62412e-19
-9.99864e-20
2.83781e-20
4.59238e-19
2.40895e-18
1.42874e-17
9.64209e-17
6.39309e-16
4.33659e-15
2.58282e-14
2.39885e-13
5.3654e-12
1.6518e-11
3.75413e-12
1.39858e-05
-2.04545e-18
-8.2684e-19
-3.36161e-19
-1.15145e-19
0
3.89824e-19
2.52076e-18
9.00086e-18
2.2897e-17
5.11054e-17
1.45333e-16
6.78084e-16
4.33908e-15
2.57051e-14
3.72187e-13
7.48074e-12
1.91826e-11
3.75124e-12
1.39871e-05
-3.4405e-19
-1.21664e-19
-3.9171e-20
1.56336e-20
6.17939e-19
4.67862e-18
2.33846e-17
8.89771e-17
2.59987e-16
5.94905e-16
1.18369e-15
2.70496e-15
9.49585e-15
4.40217e-14
5.85315e-13
9.50754e-12
1.97853e-11
3.75188e-12
1.37243e-05
-5.05664e-20
-1.58662e-20
-1.49882e-21
1.55921e-19
2.55279e-18
2.28815e-17
1.32505e-16
5.66197e-16
1.85859e-15
4.77464e-15
1.02649e-14
2.11227e-14
4.99161e-14
1.38354e-13
8.84743e-13
1.01319e-11
1.97817e-11
3.75458e-12
1.33544e-05
-6.16334e-21
-1.67784e-21
5.47219e-21
3.34859e-19
7.3594e-18
8.5067e-17
5.9474e-16
2.87814e-15
1.05869e-14
3.01233e-14
7.28762e-14
1.60402e-13
3.31039e-13
6.23975e-13
1.51936e-12
9.2912e-12
1.78033e-11
3.75938e-12
1.33477e-05
-5.94332e-22
-1.11982e-22
7.36554e-21
5.5315e-19
1.62362e-17
2.44629e-16
2.13505e-15
1.19567e-14
5.0847e-14
1.68927e-13
4.55718e-13
1.01024e-12
1.80964e-12
2.74853e-12
3.72444e-12
9.32163e-12
1.3182e-11
3.76446e-12
1.07503e-05
-4.33697e-23
1.23985e-23
7.52732e-21
7.19844e-19
2.8119e-17
5.50598e-16
6.10532e-15
4.07472e-14
2.05328e-13
8.43865e-13
2.53614e-12
4.98228e-12
6.98812e-12
8.81734e-12
1.04132e-11
1.35111e-11
1.17759e-11
3.76689e-12
4.01245e-06
-2.27679e-24
9.78712e-24
4.84437e-21
7.73317e-19
3.86092e-17
9.68287e-16
1.40241e-14
1.18442e-13
7.18718e-13
3.57396e-12
1.18693e-11
1.8373e-11
1.96126e-11
2.17958e-11
2.69943e-11
3.22065e-11
3.65092e-11
3.76733e-12
4.07904e-06
-8.0334e-26
4.96856e-24
2.14697e-21
5.48916e-19
4.28036e-17
1.30862e-15
2.57582e-14
3.02691e-13
2.21803e-12
1.19787e-11
4.04901e-11
5.0042e-11
4.63642e-11
5.16011e-11
7.64369e-11
3.77826e-10
3.62959e-10
1.73621e-11
6.05384e-06
-1.68066e-27
1.8826e-24
9.2273e-22
2.29599e-19
3.18289e-17
1.39992e-15
3.64141e-14
6.40848e-13
5.45648e-12
2.89145e-11
8.67493e-11
1.05467e-10
1.00518e-10
1.21924e-10
4.16247e-10
2.11894e-09
2.01891e-09
1.71334e-11
6.05366e-06
-1.09193e-29
4.54319e-25
2.35056e-22
8.82874e-20
1.37579e-17
8.1415e-16
3.96386e-14
9.9147e-13
9.21939e-12
4.65644e-11
1.2005e-10
1.54693e-10
1.70532e-10
2.09809e-10
1.65063e-09
2.99624e-09
2.82772e-09
1.81403e-11
5.96732e-06
1.37607e-30
5.90581e-26
2.92332e-23
1.80874e-20
4.52708e-18
2.79588e-16
2.07902e-14
1.09807e-12
1.06524e-11
5.22254e-11
1.23359e-10
1.63873e-10
2.01246e-10
2.56864e-10
1.5515e-09
4.371e-09
1.30983e-09
2.02978e-11
5.96633e-06
-7.51763e-35
3.18952e-30
5.20046e-25
1.53555e-21
5.40938e-19
4.65758e-17
3.74562e-15
4.73378e-13
5.2231e-12
2.47143e-11
5.55228e-11
8.74202e-11
1.20124e-10
4.81701e-16
4.16145e-09
3.52698e-08
2.16344e-08
1.07679e-11
5.96421e-06
-2.80267e-40
1.47834e-40
8.70149e-32
3.91647e-26
2.17604e-22
1.51883e-19
7.09596e-17
1.34967e-14
1.53413e-13
9.52994e-13
2.98773e-12
5.77236e-12
4.84113e-12
1.00974e-31
1.44921e-08
3.40736e-08
3.21916e-08
1.65436e-27
2.26249e-06
)
;

boundaryField
{
    leftWall
    {
        type            zeroGradient;
    }
    rightWall
    {
        type            zeroGradient;
    }
    lowerWall
    {
        type            zeroGradient;
    }
    atmosphere
    {
        type            inletOutlet;
        inletValue      uniform 0;
        value           nonuniform List<scalar> 
46
(
0
-3.70243e-44
6.96925e-25
3.50904e-24
9.59095e-25
5.9745e-27
-5.81543e-23
-1.53843e-22
-4.09273e-22
-9.10443e-22
-1.36351e-21
-1.33584e-21
-8.77446e-22
-3.94796e-22
-1.23e-22
-2.64908e-23
-3.85078e-24
-3.74585e-25
0
0
0
0
0
0
0
0
0
0
0
0
0
0
0
0
0
0
0
0
0
0
0
0
0
0
0
2.26249e-06
)
;
    }
    defaultFaces
    {
        type            empty;
    }
}


// ************************************************************************* //
