/*--------------------------------*- C++ -*----------------------------------*\
  =========                 |
  \\      /  F ield         | OpenFOAM: The Open Source CFD Toolbox
   \\    /   O peration     | Website:  https://openfoam.org
    \\  /    A nd           | Version:  9
     \\/     M anipulation  |
\*---------------------------------------------------------------------------*/
FoamFile
{
    format      ascii;
    class       volScalarField;
    location    "3.82";
    object      k;
}
// * * * * * * * * * * * * * * * * * * * * * * * * * * * * * * * * * * * * * //

dimensions      [0 2 -2 0 0 0 0];

internalField   nonuniform List<scalar> 
2268
(
0.000614517
0.00154316
0.00224903
0.00278183
0.00320052
0.00353515
0.00380438
0.00402079
0.00419375
0.00433138
0.00444144
0.00453016
0.00460172
0.00466253
0.00470356
0.00470519
0.00461031
0.00429418
0.00387684
0.00354202
0.00313739
0.00239303
0.000924391
0.00132108
0.00355063
0.00501116
0.00613492
0.00702715
0.00774444
0.00832375
0.00879126
0.0091671
0.00946858
0.00971151
0.00990886
0.0100685
0.0101886
0.0102557
0.0102327
0.010038
0.0095303
0.0087248
0.00799193
0.00708914
0.00541018
0.0022732
0.00186072
0.00470699
0.00649804
0.00788187
0.00898866
0.00988316
0.0106083
0.0111955
0.0116699
0.0120527
0.0123627
0.0126146
0.0128165
0.012965
0.0130436
0.0130107
0.0127905
0.0122801
0.0114911
0.0106077
0.00942942
0.00735312
0.003236
0.00231416
0.00562162
0.00763264
0.00918125
0.0104242
0.0114322
0.0122515
0.0129171
0.0134568
0.0138945
0.0142508
0.0145413
0.0147738
0.0149445
0.0150354
0.0150061
0.0147924
0.0143232
0.0135953
0.0126784
0.0113828
0.00909029
0.00412867
0.00270538
0.0064212
0.00861283
0.0102873
0.0116313
0.0127228
0.0136115
0.0143349
0.0149233
0.0154026
0.0157946
0.0161157
0.016374
0.0165652
0.016672
0.0166572
0.0164689
0.0160581
0.0154079
0.0145254
0.0132063
0.0107979
0.00504047
0.0030546
0.00714955
0.00950474
0.0112859
0.0127117
0.0138691
0.0148119
0.0155802
0.0162066
0.0167187
0.0171395
0.0174863
0.0177674
0.0179795
0.0181064
0.0181156
0.0179656
0.0176214
0.0170623
0.0162589
0.0149866
0.0125695
0.00613898
0.00337576
0.00782895
0.010339
0.0122164
0.0137119
0.0149232
0.0159094
0.0167135
0.01737
0.0179082
0.0183527
0.0187216
0.0190241
0.0192581
0.0194098
0.0194511
0.0193493
0.0190783
0.0186175
0.0179152
0.0167624
0.0144964
0.00785287
0.00367754
0.0084743
0.0111336
0.0131004
0.0146567
0.0159132
0.0169347
0.0177673
0.0184476
0.0190067
0.0194706
0.0198588
0.0201818
0.0204394
0.0206205
0.0207012
0.0206556
0.0204631
0.0201029
0.0195206
0.0185435
0.0166455
0.0111947
0.000705069
0.00202538
0.00274856
0.00309335
0.00323587
0.00325846
0.00321919
0.00317846
0.00318874
0.00323542
0.00305996
0.00277305
0.00274114
0.00310764
0.00342451
0.00328303
0.00258397
0.00173297
0.000875785
0.00161972
0.0044789
0.0059564
0.00672912
0.00708023
0.00716682
0.00710652
0.00703911
0.00703129
0.00697287
0.00667958
0.00616486
0.00607079
0.0065217
0.00661712
0.00615132
0.00500322
0.00332952
0.00153556
0.00226388
0.00590413
0.00773125
0.00867445
0.00910277
0.00922081
0.00916831
0.00907639
0.00900769
0.00886992
0.00853855
0.00807936
0.00794781
0.008142
0.0080068
0.0073481
0.00607049
0.00422905
0.00194958
0.00289159
0.00716864
0.00917853
0.0101801
0.0106254
0.0107461
0.0106883
0.0105704
0.0104478
0.0102519
0.00990526
0.00949062
0.00929909
0.00926807
0.00893447
0.00810784
0.00675948
0.00484242
0.0022551
0.00358117
0.00846435
0.0105365
0.0115197
0.0119415
0.012044
0.0119693
0.0118222
0.011652
0.0114115
0.0110528
0.0106528
0.0103862
0.0101729
0.00967311
0.00869228
0.00726344
0.00529187
0.00249362
0.00449493
0.00988581
0.0118854
0.0127845
0.0131518
0.0132203
0.0131197
0.0129405
0.012726
0.0124472
0.0120714
0.0116569
0.0113064
0.010947
0.0103092
0.00918651
0.00764631
0.00563674
0.00268369
0.00603672
0.0115061
0.0132567
0.0140131
0.0143022
0.0143252
0.0141919
0.0139775
0.0137198
0.0134023
0.013002
0.0125515
0.0121148
0.0116353
0.0108822
0.0096279
0.00794132
0.00590884
0.00282833
0.00915207
0.0133421
0.0146517
0.0152218
0.0154162
0.0153856
0.0152149
0.0149626
0.0146609
0.0143023
0.0138681
0.0133699
0.0128505
0.0122701
0.0114177
0.0100361
0.00816998
0.00610434
0.00288234
0.00412474
0.00944922
0.0123336
0.0144313
0.0160712
0.0173864
0.0184528
0.0193209
0.0200299
0.0206143
0.021103
0.0215179
0.021872
0.0221676
0.022398
0.0225462
0.0225958
0.0225323
0.0223322
0.0219411
0.0212355
0.0199294
0.017204
0.00471012
0.0107113
0.01387
0.0161276
0.017849
0.0192158
0.0203222
0.0212202
0.0219494
0.0225526
0.0230637
0.02351
0.0239094
0.0242681
0.024582
0.0248411
0.0250397
0.0251706
0.0252106
0.0251138
0.0247988
0.0241296
0.0229056
0.00547889
0.0120001
0.0153889
0.0178164
0.0195563
0.0209353
0.0220668
0.0229807
0.0237069
0.0243127
0.0248338
0.0253045
0.0257494
0.0261798
0.0265895
0.0269666
0.0273243
0.0276687
0.0279725
0.0281927
0.0282487
0.0280163
0.0273033
0.00665931
0.013241
0.0168472
0.0196069
0.0211792
0.0225359
0.0237082
0.0246259
0.0253237
0.0259361
0.0264506
0.0269301
0.0274142
0.0279234
0.0284431
0.0289303
0.0294463
0.0300299
0.0306157
0.031171
0.0316246
0.03184
0.031382
0.00693204
0.0139608
0.0180662
0.0210398
0.0225491
0.0240065
0.0252792
0.0261154
0.0268442
0.0274775
0.0279243
0.0283534
0.0288257
0.0293534
0.0299226
0.0304606
0.0310831
0.0318348
0.0325664
0.0333136
0.0342388
0.0353899
0.035513
0.00635352
0.0136457
0.0184007
0.0214651
0.0232892
0.0250457
0.0264792
0.0273293
0.028077
0.028739
0.029103
0.0294691
0.0299033
0.0304135
0.0309903
0.0316456
0.0323919
0.0331728
0.0339034
0.0346631
0.0357643
0.0367959
0.036801
0.0059753
0.0135625
0.0185871
0.0221579
0.0238854
0.0252686
0.0265942
0.0276062
0.0285616
0.0293523
0.0298491
0.0302906
0.030755
0.0312842
0.0318606
0.0324918
0.0332689
0.0340893
0.0347486
0.035485
0.0364795
0.0372503
0.0376666
0.00613753
0.0138323
0.0185199
0.0219509
0.0239064
0.025339
0.0266203
0.0277374
0.0287427
0.029562
0.0302256
0.030805
0.0313491
0.0319088
0.0324954
0.033114
0.0338046
0.0344745
0.0350975
0.0359451
0.0369899
0.0377465
0.0378156
0.0064106
0.0141704
0.018477
0.0215457
0.0237133
0.0253738
0.026756
0.0279382
0.0289507
0.0298092
0.0305365
0.0311586
0.0317155
0.0322513
0.0327955
0.0333688
0.0339595
0.0345468
0.0351597
0.0359098
0.036802
0.0373294
0.0371112
0.00657702
0.0144279
0.0186223
0.0215653
0.0237823
0.0255095
0.0269205
0.0281229
0.0291533
0.0300336
0.0307755
0.0313953
0.0319283
0.0324148
0.0328889
0.0333731
0.0338738
0.0343971
0.0349431
0.0354771
0.0359987
0.0362748
0.0360697
0.00676246
0.0147379
0.0188853
0.0217599
0.0239375
0.025648
0.0270477
0.0282397
0.0292663
0.0301454
0.030884
0.0314952
0.032009
0.0324626
0.0328904
0.0333158
0.033749
0.034189
0.0346106
0.0349575
0.0351997
0.0352732
0.0350854
0.00698253
0.0150934
0.0191699
0.0219614
0.0240725
0.0257375
0.0271028
0.0282644
0.0292671
0.0301281
0.0308549
0.0314594
0.0319661
0.0324064
0.03281
0.0331965
0.0335723
0.0339279
0.0342329
0.0344449
0.0345389
0.0344997
0.0342983
0.00723269
0.0154044
0.0194018
0.0221038
0.0241406
0.0257513
0.0270742
0.028197
0.0291655
0.0300001
0.0307106
0.031309
0.031814
0.0322497
0.0326384
0.0329941
0.0333192
0.0336026
0.0338208
0.0339465
0.0339668
0.033879
0.0336714
0.00742249
0.0156133
0.0195376
0.0221576
0.0241261
0.0256851
0.0269663
0.028051
0.0289847
0.0297912
0.0304835
0.0310734
0.0315758
0.0320081
0.0323853
0.0327166
0.0330022
0.0332339
0.0333971
0.0334764
0.0334652
0.0333624
0.0331614
0.00752437
0.0157092
0.0195688
0.0221191
0.0240287
0.0255418
0.0267858
0.0278371
0.0287409
0.0295229
0.0301986
0.0307799
0.0312788
0.0317077
0.0320766
0.0323912
0.0326517
0.0328534
0.0329882
0.0330485
0.0330302
0.0329309
0.0327456
0.00756085
0.0156963
0.0194959
0.0219882
0.0238494
0.0253248
0.0265387
0.0275642
0.0284456
0.0292098
0.0298735
0.0304487
0.0309458
0.0313737
0.0317396
0.0320472
0.0322972
0.0324875
0.0326143
0.0326735
0.0326623
0.0325774
0.0324141
0.00754952
0.0155867
0.0193263
0.0217692
0.0235916
0.0250379
0.02623
0.0272383
0.0281062
0.0288608
0.0295194
0.030094
0.0305938
0.031026
0.031396
0.0317068
0.0319594
0.0321535
0.032287
0.0323577
0.0323631
0.0322995
0.0321624
0.00749578
0.015393
0.0190696
0.0214689
0.0232604
0.0246859
0.0258644
0.0268644
0.0277279
0.0284817
0.0291433
0.0297245
0.0302339
0.0306777
0.0310602
0.0313842
0.0316509
0.0318604
0.0320117
0.0321032
0.0321322
0.0320952
0.031988
0.00739912
0.015125
0.0187352
0.0210949
0.0228619
0.0242739
0.0254469
0.026447
0.0273149
0.0280768
0.02875
0.0293461
0.029873
0.0303366
0.0307404
0.0310869
0.0313775
0.0316121
0.03179
0.0319095
0.031968
0.0319623
0.0318883
0.0072611
0.0147911
0.0183313
0.0206545
0.0224028
0.0238081
0.0249828
0.0259908
0.0268715
0.0276502
0.0283436
0.0289629
0.0295159
0.0300076
0.0304413
0.0308191
0.0311421
0.0314099
0.0316217
0.0317756
0.031869
0.0318988
0.0318615
0.00708524
0.0143985
0.0178659
0.0201554
0.0218901
0.0232947
0.024478
0.0255014
0.0264027
0.0272063
0.0279282
0.0285792
0.0291664
0.0296945
0.0301663
0.0305835
0.0309465
0.0312548
0.031507
0.0317011
0.0318345
0.0319042
0.0319071
0.00687485
0.0139543
0.0173467
0.0196053
0.0213312
0.022741
0.0239394
0.0249852
0.0259146
0.0267508
0.0275091
0.0281997
0.0288292
0.0294016
0.0299192
0.0303833
0.0307935
0.0311489
0.0314477
0.0316876
0.031866
0.0319799
0.0320265
0.00663288
0.0134653
0.0167814
0.0190122
0.0207342
0.022155
0.0233749
0.0244499
0.0254144
0.0262907
0.0270931
0.0278309
0.0285103
0.0291346
0.0297056
0.0302237
0.030688
0.031097
0.0314483
0.0317396
0.0319678
0.0321302
0.0322241
0.00636249
0.0129385
0.0161783
0.0183848
0.0201081
0.021546
0.0227936
0.0239045
0.0249112
0.0258346
0.0266883
0.0274809
0.0282176
0.0289013
0.0295329
0.0301121
0.0306374
0.0311064
0.0315165
0.0318646
0.0321477
0.032363
0.0325078
0.00606644
0.0123806
0.015546
0.017733
0.0194634
0.0209244
0.0222063
0.0233596
0.0244153
0.0253929
0.0263051
0.0271597
0.0279612
0.0287117
0.0294113
0.0300589
0.0306521
0.031188
0.0316631
0.0320741
0.0324175
0.0326902
0.0328897
0.00574513
0.0117979
0.0148942
0.017068
0.0188119
0.0203025
0.0216251
0.0228275
0.0239388
0.0249776
0.0259554
0.0268793
0.027753
0.0285778
0.0293532
0.0300769
0.0307457
0.0313558
0.031903
0.0323832
0.0327926
0.0331278
0.0333861
0.00539919
0.0111974
0.0142343
0.016403
0.0181674
0.0196943
0.021064
0.0223219
0.0234955
0.0246021
0.0256526
0.0266531
0.0276068
0.028514
0.0293733
0.0301816
0.0309345
0.0316271
0.0322543
0.0328111
0.033293
0.0336962
0.0340179
0.00506373
0.0105862
0.0135802
0.0157537
0.017546
0.0191154
0.0205383
0.0218578
0.0230998
0.0242809
0.025411
0.0264958
0.0275375
0.0285358
0.0294884
0.0303909
0.0312377
0.0320225
0.032739
0.0333809
0.0339428
0.0344205
0.0348107
0.00474893
0.0100016
0.0129577
0.015142
0.0169675
0.0185845
0.0200655
0.0214516
0.0227676
0.0240291
0.0252457
0.0264223
0.0275608
0.02866
0.0297166
0.0307247
0.0316771
0.0325659
0.0333827
0.03412
0.034771
0.0353305
0.0357951
0.00445887
0.00947223
0.0123923
0.0145901
0.0164521
0.0181201
0.0196631
0.0211199
0.0225146
0.0238621
0.0251717
0.0264483
0.0276932
0.0289044
0.0300774
0.0312049
0.0322775
0.0332847
0.0342159
0.0350611
0.0358119
0.0364622
0.037008
0.00420475
0.00902127
0.0119071
0.0141193
0.0160192
0.0177403
0.0193476
0.0208781
0.0223551
0.0237935
0.0252027
0.0265878
0.0279498
0.0292861
0.0305909
0.0318549
0.033066
0.0342102
0.0352734
0.0362424
0.0371064
0.0378578
0.0384922
0.00399571
0.00866232
0.0115191
0.0137473
0.0156864
0.0174616
0.0191342
0.0207397
0.0223014
0.0238347
0.0253498
0.0268524
0.0283438
0.0298211
0.0312767
0.0326991
0.0340723
0.0353776
0.0365957
0.0377086
0.0387021
0.0395667
0.0402981
0.00383583
0.00840117
0.0112407
0.0134898
0.0154701
0.0172995
0.0190364
0.0207162
0.0223629
0.0239936
0.0256203
0.0272501
0.0288851
0.0305224
0.0321528
0.033762
0.0353286
0.0368269
0.0382298
0.0395124
0.0406555
0.0416473
0.0424839
0.00372512
0.00824242
0.0110858
0.0133654
0.0153891
0.0172704
0.0190673
0.0208168
0.0225457
0.024274
0.0260167
0.0277833
0.0295781
0.0313986
0.0332343
0.0350672
0.0368688
0.0386032
0.0402312
0.041717
0.0430341
0.0441684
0.0451177
0.00366447
0.00820313
0.0110842
0.0134069
0.0154726
0.0173964
0.019241
0.0210489
0.0228516
0.0246737
0.0265345
0.0284473
0.0304197
0.032451
0.0345306
0.0366357
0.0387289
0.0407587
0.0426668
0.0443995
0.0459199
0.0472121
0.0482787
0.00366718
0.00834535
0.0113137
0.0136852
0.0157736
0.0177113
0.0195753
0.0214178
0.0232771
0.0251832
0.0271602
0.0292268
0.0313953
0.0336697
0.036041
0.0384822
0.0409448
0.043354
0.0456195
0.0476571
0.0494145
0.0508772
0.0520591
0.00379128
0.00886256
0.0119736
0.0143532
0.0163891
0.0182668
0.0200907
0.0219242
0.0238105
0.0257827
0.0278688
0.0300931
0.0324756
0.0350283
0.0377486
0.0406096
0.0435499
0.046461
0.0491971
0.0516169
0.0536467
0.0552833
0.0565658
0.00424692
0.010298
0.0135353
0.0157165
0.0174811
0.019132
0.0208043
0.0225581
0.0244273
0.0264389
0.0286205
0.0310013
0.0336113
0.0364767
0.0396106
0.0429967
0.0465656
0.0501644
0.0535475
0.0564527
0.058783
0.060575
0.0619204
0.00569827
0.013836
0.0168768
0.0182607
0.0192577
0.0203667
0.0217096
0.0232865
0.0250839
0.0271025
0.0293601
0.0318881
0.0347293
0.0379322
0.0415415
0.045575
0.0499794
0.0545594
0.0588932
0.062416
0.0650409
0.0669229
0.068256
0.00971637
0.0207507
0.0227543
0.0223307
0.0218042
0.0219367
0.0227369
0.0240369
0.0257122
0.0277076
0.0300182
0.0326739
0.0357317
0.039272
0.0433918
0.0481854
0.053686
0.059724
0.0656173
0.0698896
0.072699
0.0745154
0.0757063
0.0220417
0.0309663
0.0303216
0.0272537
0.0246895
0.0235649
0.0237047
0.0246859
0.0262211
0.0281771
0.0305183
0.0332697
0.0365024
0.0403323
0.0449268
0.0505106
0.0573446
0.0655748
0.0745279
0.0794731
0.0820801
0.0835258
0.0843839
0.0839498
0.0439069
0.0366498
0.0309399
0.0267591
0.0246744
0.024323
0.0250755
0.0265118
0.0284366
0.0307903
0.0335933
0.0369256
0.0409297
0.0458333
0.0520025
0.0600593
0.0711666
0.0877741
0.0920142
0.0934294
0.0940339
0.094348
0.0117686
0.0100032
0.00975776
0.0107814
0.0215306
0.0207514
0.0202189
0.0199439
0.0264134
0.025796
0.025167
0.024561
0.0304591
0.0298315
0.0290681
0.0282174
0.0341982
0.033362
0.0324607
0.0313854
0.036271
0.035302
0.0344607
0.033417
0.0371388
0.0365391
0.0360494
0.0349967
0.0371399
0.0366874
0.0361829
0.0352774
0.0365249
0.036079
0.0355267
0.0348859
0.0356225
0.0352523
0.0348275
0.0343872
0.0347393
0.0344627
0.0341477
0.0338093
0.0340103
0.0337879
0.0335335
0.0332529
0.0334172
0.0332252
0.0330057
0.032761
0.0329319
0.0327604
0.0325648
0.0323458
0.0325386
0.0323843
0.0322082
0.0320104
0.0322298
0.032092
0.0319339
0.0317557
0.032002
0.0318807
0.0317404
0.0315812
0.0318527
0.0317484
0.0316262
0.0314861
0.0317798
0.0316935
0.0315899
0.0314691
0.0317817
0.0317142
0.0316299
0.0315289
0.0318577
0.03181
0.0317458
0.0316651
0.0320095
0.0319825
0.0319391
0.0318792
0.0322413
0.0322362
0.0322143
0.0321759
0.0325612
0.0325789
0.0325796
0.0325632
0.0329814
0.0330231
0.0330472
0.0330536
0.0335184
0.0335854
0.0336339
0.0336641
0.0341934
0.034287
0.0343612
0.034416
0.0350321
0.0351541
0.0352554
0.0353361
0.0360659
0.036218
0.036348
0.0364559
0.0373315
0.0375159
0.0376762
0.0378125
0.0388724
0.0390908
0.0392828
0.0394487
0.0407383
0.0409925
0.0412174
0.0414135
0.0429871
0.0432782
0.0435364
0.0437626
0.0456852
0.0460129
0.0463034
0.0465583
0.0489085
0.0492705
0.0495904
0.0498705
0.052744
0.0531345
0.0534774
0.0537761
0.0572895
0.0576975
0.0580524
0.0583592
0.0626535
0.0630606
0.0634103
0.0637094
0.0689507
0.0693295
0.06965
0.0699206
0.0762946
0.0766086
0.0768697
0.0770872
0.0847833
0.0849917
0.0851622
0.0853023
0.0944854
0.0945557
0.0946125
0.0946588
0.0148514
0.0161681
0.0167876
0.0170637
0.0171118
0.0169979
0.0167634
0.0164474
0.0160735
0.0156443
0.0151452
0.0145673
0.0139296
0.0132029
0.012199
0.0106383
0.00846547
0.00614516
0.00280492
0.0197939
0.0196684
0.0195874
0.0194857
0.0193275
0.0190919
0.0187617
0.0183439
0.0178592
0.0173191
0.0167213
0.0160536
0.0153157
0.0144666
0.0133302
0.011596
0.00900511
0.00596365
0.00271736
0.023654
0.0227745
0.0222016
0.0217927
0.0214473
0.021091
0.0206552
0.0201284
0.0195249
0.0188613
0.0181623
0.017427
0.0166454
0.0157682
0.0146237
0.0128433
0.0100826
0.00659594
0.00324095
0.0268776
0.0255033
0.0245819
0.0239366
0.0234377
0.0229861
0.0224179
0.0217561
0.0210278
0.0202448
0.0194523
0.0186675
0.0178993
0.0171239
0.0161819
0.0144548
0.0117556
0.00843127
0.00448952
0.0295794
0.0278391
0.0266526
0.0258224
0.0251749
0.0246055
0.0238881
0.0230751
0.0222329
0.0213762
0.0205014
0.0196199
0.0187508
0.017917
0.0169773
0.0151844
0.0128585
0.0103255
0.0060585
0.031592
0.0297624
0.0284404
0.0274765
0.0266279
0.025816
0.0249447
0.0240307
0.0231142
0.022186
0.021228
0.0202277
0.0191779
0.0180388
0.0168202
0.0153577
0.0135131
0.0109051
0.00623635
0.0330196
0.0311689
0.0297792
0.0286792
0.0276333
0.0267181
0.0257971
0.0248191
0.0238201
0.0227905
0.0217059
0.0205496
0.0192961
0.0179491
0.0166414
0.0152328
0.0135024
0.0105807
0.00497849
0.033672
0.0319303
0.030565
0.0294205
0.0283301
0.0273605
0.0264093
0.0253724
0.0242791
0.0231196
0.0218965
0.0205989
0.0191941
0.0177235
0.0163261
0.0147556
0.012784
0.00963737
0.00445456
0.0338263
0.0324035
0.0311007
0.0299101
0.0287259
0.0276183
0.0265855
0.0255076
0.024356
0.023108
0.02179
0.0203991
0.0189106
0.0173632
0.015848
0.0141479
0.0119829
0.00880151
0.00392951
0.0336313
0.032497
0.0313172
0.0301292
0.0288888
0.0276897
0.0265662
0.0254356
0.0242451
0.022963
0.0215953
0.020133
0.0185708
0.0169398
0.0153039
0.0134745
0.0111717
0.00792801
0.00338507
0.0332118
0.0322664
0.0312223
0.0301001
0.028903
0.0277086
0.0265483
0.0253779
0.0241577
0.0228618
0.0214693
0.019965
0.0183338
0.016609
0.0148405
0.012833
0.0103731
0.00716186
0.00299404
0.032748
0.0319223
0.0309864
0.0299533
0.0288404
0.0276998
0.0265519
0.0253733
0.0241447
0.022851
0.0214612
0.0199412
0.0182702
0.0165019
0.0146314
0.012489
0.00994293
0.00683071
0.00300885
0.0323165
0.0315743
0.0307236
0.0297774
0.0287536
0.027681
0.0265713
0.0254128
0.0242002
0.0229275
0.0215593
0.0200524
0.0184025
0.0166527
0.0147675
0.0126295
0.010157
0.00720856
0.00341285
0.0319463
0.0312711
0.0304924
0.0296236
0.0286797
0.0276752
0.0266157
0.0254963
0.0243173
0.0230767
0.0217448
0.0202865
0.0187003
0.0170062
0.0151802
0.0131545
0.0108634
0.00809362
0.00393589
0.0316489
0.0310329
0.0303187
0.0295183
0.028644
0.027704
0.0267003
0.0256309
0.0244968
0.0232971
0.0220129
0.0206201
0.0191133
0.0174993
0.0157627
0.0138609
0.0117076
0.00899763
0.00441821
0.0314288
0.0308677
0.030213
0.0294749
0.028663
0.0277833
0.0268367
0.0258218
0.024739
0.0235875
0.0223566
0.0210311
0.0196037
0.0180732
0.0164229
0.0146074
0.0125129
0.00975902
0.00482098
0.0312875
0.0307787
0.0301802
0.0295002
0.0287463
0.0279231
0.0270318
0.0260712
0.025041
0.0239404
0.0227633
0.0215
0.0201426
0.0186833
0.0170997
0.0153383
0.0132643
0.0104528
0.00516931
0.0312253
0.0307671
0.0302222
0.0295971
0.0288976
0.0281276
0.0272883
0.0263789
0.0253987
0.0243469
0.0232196
0.0220097
0.0207089
0.0193032
0.0177656
0.0160356
0.0139672
0.0111174
0.00548864
0.0312412
0.0308326
0.0303392
0.029766
0.0291177
0.0283972
0.0276058
0.026743
0.0258081
0.0247998
0.0237152
0.022548
0.0212888
0.0199197
0.0184096
0.0166928
0.0146179
0.0117385
0.00579444
0.0313343
0.0309743
0.0305306
0.0300067
0.0294061
0.0287314
0.0279834
0.0271619
0.0262663
0.0252948
0.0242445
0.0231093
0.0218772
0.020529
0.0190301
0.0173096
0.0152095
0.0122756
0.00610637
0.0315042
0.0311924
0.0307967
0.0303196
0.0297636
0.0291307
0.0284216
0.0276362
0.0267735
0.0258316
0.0248071
0.0236924
0.0224751
0.021134
0.0196316
0.0178946
0.0157581
0.0127418
0.00639584
0.0317527
0.0314886
0.0311395
0.030707
0.0301929
0.0295984
0.028924
0.0281696
0.0273338
0.0264144
0.0254065
0.0243024
0.0230891
0.0217451
0.0202298
0.0184647
0.0162765
0.0131581
0.00664212
0.0320844
0.031868
0.0315642
0.0311744
0.0306996
0.0301405
0.0294973
0.0287693
0.0279547
0.0270506
0.0260517
0.0249508
0.0237335
0.0223761
0.0208357
0.0190298
0.0167755
0.0135371
0.0068288
0.0325077
0.032339
0.03208
0.0317313
0.0312937
0.0307673
0.0301518
0.0294461
0.0286477
0.0277539
0.0267588
0.0256533
0.0244223
0.0230405
0.0214627
0.019602
0.0172647
0.0138844
0.0069277
0.0330351
0.0329146
0.0327
0.0323914
0.0319893
0.0314934
0.0309028
0.0302164
0.0294312
0.028543
0.0275452
0.0264276
0.0251737
0.0237565
0.0221283
0.0201974
0.0177591
0.014217
0.00696268
0.0336838
0.0336123
0.033442
0.0331729
0.0328051
0.0323383
0.0317712
0.0311017
0.030326
0.0294391
0.0284328
0.0272958
0.0260099
0.0245463
0.0228545
0.0208383
0.0182831
0.0145668
0.00699265
0.0344755
0.0344541
0.0343283
0.0340986
0.0337648
0.0333262
0.032781
0.0321263
0.0313574
0.0304677
0.029448
0.0282848
0.0269583
0.0254374
0.023669
0.0215529
0.018867
0.0149689
0.00705991
0.0354369
0.0354668
0.0353864
0.0351961
0.0348959
0.0344849
0.0339606
0.0333193
0.032555
0.0316596
0.030622
0.0294267
0.0280516
0.026463
0.0246054
0.022375
0.0195456
0.0154592
0.00722441
0.0365997
0.0366823
0.0366478
0.0364971
0.0362305
0.0358468
0.035343
0.0347143
0.0339536
0.0330506
0.0319921
0.0307599
0.0293291
0.0276632
0.0257039
0.0233451
0.0203582
0.0160788
0.00752255
0.0380011
0.0381375
0.0381492
0.0380383
0.0378052
0.0374489
0.0369659
0.0363502
0.0355932
0.0346824
0.0336016
0.0323296
0.0308378
0.0290861
0.0270129
0.02451
0.0213465
0.016849
0.00793144
0.0396834
0.0398741
0.0399321
0.0398607
0.0396612
0.0393329
0.0388717
0.0382708
0.0375193
0.0366026
0.0355011
0.0341891
0.0326336
0.0307894
0.0285904
0.0259245
0.0225563
0.0177927
0.0084053
0.0416948
0.0419393
0.0420427
0.0420101
0.0418444
0.0415449
0.0411077
0.0405246
0.0397831
0.0388655
0.0377481
0.0364003
0.0347825
0.0328427
0.030507
0.0276562
0.0240446
0.0189465
0.0089554
0.0440897
0.0443858
0.0445322
0.044537
0.0444046
0.0441353
0.0437252
0.0431651
0.0424406
0.0415308
0.0404074
0.0390337
0.0373616
0.0353288
0.0328496
0.0297908
0.0258887
0.0203696
0.0096098
0.0469282
0.0472711
0.0474565
0.0474958
0.0473959
0.0471584
0.0467795
0.0462494
0.045552
0.0446632
0.0435499
0.0421679
0.0404589
0.038346
0.0357249
0.0324391
0.0281933
0.0221456
0.0103945
0.0502769
0.0506582
0.0508756
0.0509451
0.0508761
0.0506719
0.0503292
0.049838
0.0491807
0.0483308
0.0472504
0.0458876
0.0441718
0.0420076
0.0392633
0.0357441
0.0311016
0.0243913
0.0113317
0.0542081
0.0546147
0.0548543
0.0549475
0.0549068
0.0547369
0.0544357
0.0539934
0.0533919
0.0526029
0.051585
0.0502796
0.0486034
0.0464394
0.0436193
0.0398905
0.0348156
0.0272913
0.0125191
0.0588
0.0592134
0.0594617
0.0595701
0.0595534
0.0594184
0.0591637
0.0587805
0.0582514
0.0575479
0.0566276
0.0554276
0.053855
0.0517714
0.0489666
0.0451086
0.03962
0.03114
0.0141478
0.0641355
0.0645317
0.0647721
0.0648851
0.0648871
0.064786
0.0645816
0.0642667
0.0638255
0.063232
0.0624459
0.0614052
0.0600142
0.0581214
0.0554788
0.0516634
0.0458961
0.0363838
0.0164428
0.0703021
0.0706525
0.0708663
0.0709719
0.070986
0.0709164
0.0707641
0.0705237
0.0701826
0.0697193
0.0690997
0.0682698
0.0671422
0.0655697
0.0632909
0.059812
0.0541174
0.0437259
0.0198635
0.0773904
0.0776654
0.0778337
0.0779201
0.0779388
0.0778968
0.0777955
0.0776316
0.0773964
0.077075
0.0766429
0.0760607
0.0752624
0.0741305
0.072438
0.0697021
0.064758
0.0542151
0.0251401
0.0854957
0.0856696
0.0857764
0.0858331
0.085849
0.0858291
0.0857745
0.0856838
0.0855525
0.0853725
0.0851309
0.0848064
0.0843635
0.0837364
0.0827897
0.0811951
0.0779822
0.0693133
0.0336335
0.0947223
0.0947792
0.0948144
0.0948337
0.0948401
0.0948355
0.0948203
0.0947942
0.0947562
0.0947044
0.0946357
0.0945453
0.0944261
0.0942657
0.0940399
0.0936797
0.0928887
0.0895663
0.0469962
)
;

boundaryField
{
    leftWall
    {
        type            kqRWallFunction;
        value           nonuniform List<scalar> 
50
(
0.000614517
0.00132108
0.00186072
0.00231416
0.00270538
0.0030546
0.00337576
0.00367754
0.00412474
0.00471012
0.00547889
0.00665931
0.00693204
0.00635352
0.0059753
0.00613753
0.0064106
0.00657702
0.00676246
0.00698253
0.00723269
0.00742249
0.00752437
0.00756085
0.00754952
0.00749578
0.00739912
0.0072611
0.00708524
0.00687485
0.00663288
0.00636249
0.00606644
0.00574513
0.00539919
0.00506373
0.00474893
0.00445887
0.00420475
0.00399571
0.00383583
0.00372512
0.00366447
0.00366718
0.00379128
0.00424692
0.00569827
0.00971637
0.0220417
0.0839498
)
;
    }
    rightWall
    {
        type            kqRWallFunction;
        value           nonuniform List<scalar> 
50
(
0.000875785
0.00153556
0.00194958
0.0022551
0.00249362
0.00268369
0.00282833
0.00288234
0.00280492
0.00271736
0.00324095
0.00448952
0.0060585
0.00623635
0.00497849
0.00445456
0.00392951
0.00338507
0.00299404
0.00300885
0.00341285
0.00393589
0.00441821
0.00482098
0.00516931
0.00548864
0.00579444
0.00610637
0.00639584
0.00664212
0.0068288
0.0069277
0.00696268
0.00699265
0.00705991
0.00722441
0.00752255
0.00793144
0.0084053
0.0089554
0.0096098
0.0103945
0.0113317
0.0125191
0.0141478
0.0164428
0.0198635
0.0251401
0.0336335
0.0469962
)
;
    }
    lowerWall
    {
        type            kqRWallFunction;
        value           nonuniform List<scalar> 
62
(
0.000614517
0.00154316
0.00224903
0.00278183
0.00320052
0.00353515
0.00380438
0.00402079
0.00419375
0.00433138
0.00444144
0.00453016
0.00460172
0.00466253
0.00470356
0.00470519
0.00461031
0.00429418
0.00387684
0.00354202
0.00313739
0.00239303
0.000924391
0.000924391
0.0022732
0.003236
0.00412867
0.00504047
0.00613898
0.00785287
0.0111947
0.0117686
0.0100032
0.00975776
0.0107814
0.000705069
0.00161972
0.00226388
0.00289159
0.00358117
0.00449493
0.00603672
0.00915207
0.000705069
0.00202538
0.00274856
0.00309335
0.00323587
0.00325846
0.00321919
0.00317846
0.00318874
0.00323542
0.00305996
0.00277305
0.00274114
0.00310764
0.00342451
0.00328303
0.00258397
0.00173297
0.000875785
)
;
    }
    atmosphere
    {
        type            inletOutlet;
        inletValue      uniform 0.1;
        value           nonuniform List<scalar> 
46
(
0.1
0.0439069
0.0366498
0.0309399
0.0267591
0.0246744
0.024323
0.0250755
0.0265118
0.0284366
0.0307903
0.0335933
0.0369256
0.0409297
0.0458333
0.0520025
0.0600593
0.0711666
0.1
0.1
0.1
0.1
0.1
0.1
0.1
0.1
0.1
0.1
0.1
0.1
0.1
0.1
0.1
0.1
0.1
0.1
0.1
0.1
0.1
0.1
0.1
0.1
0.1
0.1
0.1
0.0469962
)
;
    }
    defaultFaces
    {
        type            empty;
    }
}


// ************************************************************************* //
