/*--------------------------------*- C++ -*----------------------------------*\
  =========                 |
  \\      /  F ield         | OpenFOAM: The Open Source CFD Toolbox
   \\    /   O peration     | Website:  https://openfoam.org
    \\  /    A nd           | Version:  9
     \\/     M anipulation  |
\*---------------------------------------------------------------------------*/
FoamFile
{
    format      ascii;
    class       volScalarField;
    location    "7.95";
    object      p;
}
// * * * * * * * * * * * * * * * * * * * * * * * * * * * * * * * * * * * * * //

dimensions      [0 2 -2 0 0 0 0];

internalField   nonuniform List<scalar> 
918
(
23.5975
23.8788
1.02463
23.0123
1.01304
23.3953
3.57864
14.0688
19.3696
3.10776
2.80112
14.5515
20.9382
17.1796
13.3028
0.966708
14.3082
2.42003
18.5851
1.41764
13.3086
20.5762
21.665
19.4128
14.3057
14.6556
18.9006
1.25219
0.113701
0.314699
0.965066
0.433459
0.193665
21.9322
22.6088
22.5472
15.6282
10.5713
3.92561
4.1427
3.28572
3.08018
14.1061
14.2057
6.20117
14.0516
14.049
16.7737
19.2375
19.3809
19.6754
19.4637
19.8504
6.01266
2.97205
2.78976
3.08955
3.15762
3.04479
2.89052
2.87814
2.67043
2.52373
14.0378
14.6236
14.6738
14.4222
14.3753
22.7549
21.9979
22.3327
21.439
21.5844
20.5144
20.1288
17.5553
17.9078
16.7813
16.4003
13.0859
13.0372
13.5325
13.7757
0.152868
1.12267
1.26893
14.3113
14.3404
14.3564
14.3717
8.38087
2.39647
2.40874
18.0255
17.6017
20.6077
20.8747
20.3217
20.1361
1.58487
1.61871
1.19359
1.21921
0.989306
13.63
13.7829
19.3642
18.5314
14.3228
14.2335
14.2982
11.6944
14.1005
14.1823
15.626
16.0791
15.2637
15.7042
18.4706
18.0526
19.3371
19.7744
0.430618
0.166045
0.739082
0.370509
0.568158
15.4969
15.2935
15.7339
15.7941
16.0248
10.5737
10.495
10.5513
10.4693
4.49798
4.81341
2.49542
2.83685
2.66553
10.0127
14.2204
14.2608
5.16053
5.85363
5.52208
6.67179
7.04606
16.1406
16.5762
16.3156
17.8604
17.0656
17.4137
19.9395
19.4292
19.7295
6.40842
6.66463
5.65288
5.30251
2.42564
2.66757
2.60608
3.19026
3.17182
3.2755
3.42157
2.76547
2.61998
3.10645
2.97917
3.03788
2.34632
2.20403
13.7668
13.5584
14.2962
14.474
15.221
15.0753
14.788
14.9529
19.3239
19.7273
19.7608
19.3767
11.7781
10.2937
14.0338
14.3053
0.313269
0.2667
0.142035
0.392743
0.399461
0.160536
2.05813
1.86778
1.45022
1.71819
14.2998
14.255
8.62136
8.84517
8.21409
7.95445
16.4381
16.589
17.2236
16.823
2.10153
1.78825
1.93357
13.9412
13.8127
13.9237
11.1434
10.5919
12.1634
12.4321
14.2271
14.2476
14.2526
15.9846
16.3029
20.1252
20.3959
20.2227
20.6085
21.6713
21.3226
20.9378
14.681
15.0844
14.9258
16.2516
15.885
16.1043
15.3127
15.617
15.4742
10.5239
10.5703
10.2766
10.3555
10.41
10.3553
9.94193
9.81259
14.3385
14.2977
14.3203
7.55792
8.04132
4.92702
4.60466
12.7206
13.3785
13.0606
18.9536
18.276
19.0089
18.6381
18.1881
18.5116
10.5796
10.534
10.5714
15.2226
14.565
14.9141
2.49576
2.12863
2.29777
9.04308
9.13786
7.03616
7.66719
7.33134
16.6042
16.9446
17.6247
16.7366
17.2041
17.7113
17.4894
10.0907
10.2294
10.1432
9.7922
9.68134
9.96674
8.60605
9.20012
3.68373
4.3275
4.02969
9.30714
9.55057
9.39435
18.7586
19.2933
0.804808
1.24688
19.7211
19.4444
0.163472
0.283966
14.5573
12.8168
7.56755
17.3217
16.7607
19.0969
3.33043
6.16926
2.96217
3.45452
2.73991
14.7438
14.3999
13.5041
0.480772
1.27969
1.7537
3.06701
18.5391
17.8644
18.9788
19.2995
19.3535
0.700989
0.949098
0.590482
1.32978
1.09258
1.32247
15.6862
15.7703
4.61955
18.9853
19.2891
19.3072
17.7822
18.7355
17.7929
0.964363
0.669219
0.748493
10.3063
12.3151
14.5198
14.0696
14.2697
14.2918
14.0431
15.1743
14.8505
14.8089
15.2908
14.229
14.097
8.00391
6.69389
8.35842
8.01219
17.2233
16.8108
16.6238
16.3704
18.2119
17.7375
18.5882
17.9757
18.4375
18.7247
3.15048
3.31291
3.17153
2.70691
6.22531
6.6928
5.57224
5.69059
4.33243
2.64481
2.70689
2.90666
2.78536
3.0573
2.75696
3.02613
2.66492
2.37713
2.37404
3.03539
2.82617
2.71239
14.7159
14.6606
14.4656
14.5099
14.5004
14.6131
13.6924
14.0893
13.7232
12.582
13.1445
12.6849
0.815034
0.665679
0.545336
1.36037
1.39744
1.15276
0.883117
1.22874
1.20535
0.892834
1.59215
1.55852
3.36561
2.87138
8.94701
8.06885
7.00873
16.9309
17.7317
16.9016
18.1401
18.5571
18.663
18.2838
17.7757
15.85
15.8464
15.5064
15.4584
5.03708
4.00596
5.2505
4.86007
10.6585
14.2916
12.0331
11.0132
11.3065
13.5774
14.2361
13.8778
14.0617
13.6011
13.1011
13.8285
13.3417
13.4487
13.1966
16.0211
16.4958
16.1023
15.5226
15.543
10.7642
12.1497
5.79518
5.93715
7.48364
6.82536
13.8039
14.1831
14.1696
13.8302
14.032
14.0087
13.8442
14.0009
14.122
14.023
11.9515
10.3651
9.29475
9.29045
14.3264
12.4973
13.101
12.557
16.2425
16.761
16.3745
15.7799
16.2626
15.7358
15.7558
15.9624
17.328
17.0765
16.8478
17.2349
3.2611
3.2045
3.82817
3.33616
3.22599
2.99564
3.65795
4.8983
4.56249
6.82245
7.3593
4.73444
3.63267
3.97875
4.98432
5.66338
5.66263
4.0939
4.5797
5.01314
4.53654
5.28962
4.80736
2.87212
3.16359
3.03087
3.00666
3.47468
3.95964
3.47438
2.59405
2.73751
2.4462
2.30524
3.66088
3.20056
3.2317
3.8129
1.18384
1.38292
1.49834
2.50159
1.9834
2.04612
15.3052
14.9496
15.0834
14.3792
14.453
14.4038
14.0203
15.3751
15.0999
15.1983
13.8582
13.9459
13.7628
14.0525
14.4499
14.7457
15.5786
15.2961
14.5505
14.7023
14.3555
14.2803
13.6215
13.0656
13.0042
1.13826
0.842329
1.01528
0.959691
0.640698
0.83034
2.22345
1.62651
2.0314
1.75804
1.99256
1.49417
1.3667
4.4585
5.25066
4.21331
3.61009
3.31128
9.00258
9.11857
8.25179
7.95592
8.28953
8.52531
8.47471
7.20874
7.64666
7.46123
10.0711
9.71756
17.7146
17.6591
17.3311
17.1717
17.3974
6.01664
7.80831
7.04383
8.12377
10.3698
10.6829
9.41885
8.81314
9.58139
9.63374
14.2684
14.3538
13.7889
14.2528
14.2786
12.0267
13.0348
13.649
13.4402
13.9952
14.0863
13.2042
13.756
13.6276
12.9199
12.9718
12.3128
12.6277
12.162
11.9785
14.1957
14.0907
14.3579
13.9146
14.2843
13.8821
14.1762
14.2009
14.4764
13.5663
12.9916
13.0153
13.43
13.1326
13.4722
13.6279
9.40743
10.0593
10.5402
11.0949
10.8041
10.5704
10.4268
10.7482
10.7337
10.9995
10.9176
10.7519
11.6849
13.7181
13.9939
14.1342
13.8819
13.9096
13.6103
13.903
13.8234
14.1656
14.2604
14.3105
13.3232
13.5322
13.739
13.6198
11.805
10.2437
10.0944
9.68751
7.83321
8.27859
11.1651
10.0883
9.13753
9.21056
12.3683
11.0121
11.8186
12.1987
10.8811
10.5153
13.1399
13.9632
14.1694
13.8576
12.2148
12.3328
12.7844
13.242
13.4406
13.9281
15.9921
16.5637
16.6426
16.368
16.2286
16.3254
16.0732
16.1785
16.6528
16.7784
16.6091
3.07202
3.17703
3.12812
3.05188
3.28449
3.09717
4.14121
4.13653
3.3384
3.51121
3.52651
3.61447
3.13897
3.16115
4.93211
5.16986
5.44195
4.96276
6.29401
6.9015
7.46324
7.17432
5.90421
5.96608
6.27187
3.64542
3.62579
3.37313
3.81255
3.88467
2.75633
2.39976
2.19171
2.72724
2.82314
2.19906
1.89075
1.95854
2.43394
2.21992
1.95958
15.1092
14.8713
14.8908
14.6721
14.7261
15.1159
15.3344
15.14
15.275
15.3254
14.9331
14.8161
14.9881
1.86607
1.54502
1.69059
1.69719
1.68888
1.62818
1.79643
7.69656
6.53159
6.90544
6.13368
4.36247
4.84809
9.69315
10.11
10.1529
9.84248
9.63276
9.98969
9.85892
9.84869
8.36395
9.43039
8.96886
9.37043
9.40697
9.4724
9.17651
9.20305
10.7101
10.7438
9.5977
10.2524
9.49627
8.15076
8.31111
9.26109
10.2018
10.5619
10.4077
10.1001
9.87851
10.2807
10.313
10.3997
10.3863
8.86534
8.80701
8.39841
14.1771
14.1202
14.2637
14.2417
14.3887
14.1586
13.9905
14.2749
14.3391
14.1131
11.2572
11.328
11.5854
12.3764
12.4427
12.2249
11.4872
13.3214
12.9409
13.6554
13.5881
13.6142
13.193
13.0062
13.3205
10.2614
11.6173
11.147
11.4252
10.267
9.53648
13.4138
13.4558
13.5584
13.8503
13.7758
14.3652
15.9604
15.8287
15.8789
15.9229
15.5337
15.5686
4.29785
3.97115
4.68648
4.64904
4.21345
3.9193
2.36267
2.07275
1.89009
1.76381
1.95782
2.03061
8.28143
8.28921
6.47431
7.46956
6.08721
5.15157
5.02236
6.12903
7.27825
7.35959
8.5955
9.29091
8.85552
8.68604
8.01562
8.34138
10.2734
10.3685
10.2671
10.5918
10.1305
11.9195
11.4937
11.8567
13.5159
13.2004
12.5754
12.4592
12.4623
13.08
12.0896
11.3135
12.0187
12.7114
12.6707
11.3034
11.0485
11.4864
11.4373
10.3373
10.8801
10.635
10.9842
10.6713
)
;

boundaryField
{
    wall-4
    {
        type            zeroGradient;
    }
    velocity-inlet-5
    {
        type            zeroGradient;
    }
    velocity-inlet-6
    {
        type            zeroGradient;
    }
    pressure-outlet-7
    {
        type            fixedValue;
        value           uniform 0;
    }
    wall-8
    {
        type            zeroGradient;
    }
    frontAndBackPlanes
    {
        type            empty;
    }
}


// ************************************************************************* //
