/*--------------------------------*- C++ -*----------------------------------*\
  =========                 |
  \\      /  F ield         | OpenFOAM: The Open Source CFD Toolbox
   \\    /   O peration     | Website:  https://openfoam.org
    \\  /    A nd           | Version:  9
     \\/     M anipulation  |
\*---------------------------------------------------------------------------*/
FoamFile
{
    format      ascii;
    class       volScalarField;
    location    "9.84";
    object      epsilon;
}
// * * * * * * * * * * * * * * * * * * * * * * * * * * * * * * * * * * * * * //

dimensions      [0 2 -3 0 0 0 0];

internalField   nonuniform List<scalar> 
2268
(
6.76584e-05
0.000388656
0.000703191
0.000991431
0.0012522
0.00148531
0.00169097
0.00186922
0.00202104
0.002151
0.0022654
0.00236891
0.00246238
0.00253524
0.00256262
0.00250354
0.00234188
0.00212827
0.0018254
0.00147809
0.00114208
0.000659919
0.000185766
0.000143359
0.000254845
0.000382034
0.000502126
0.00061166
0.000709828
0.000796649
0.000872499
0.000938138
0.000995126
0.00104516
0.00108933
0.00112705
0.00115453
0.00116415
0.00114657
0.00110194
0.00103501
0.000938167
0.000807129
0.000645768
0.000449855
0.000315471
0.000247942
0.000267179
0.000347773
0.000429505
0.000505617
0.000574347
0.000635384
0.00068902
0.000735914
0.000777021
0.000813224
0.000844897
0.00087133
0.000890167
0.00089744
0.000889326
0.00086645
0.000828567
0.000772026
0.000696028
0.000604578
0.000507257
0.000542869
0.000351759
0.000300148
0.000354933
0.000417759
0.000478063
0.000533094
0.000582217
0.000625611
0.000663835
0.000697598
0.000727483
0.000753633
0.000775395
0.00079107
0.000798151
0.000794656
0.000781144
0.000757198
0.000721436
0.000676649
0.000630726
0.000604899
0.000806852
0.000452414
0.00034008
0.000375986
0.0004262
0.000476318
0.000522631
0.000564214
0.000601151
0.00063392
0.0006631
0.000689122
0.000712042
0.000731297
0.000745592
0.000753191
0.000752948
0.00074547
0.000731086
0.000710524
0.000689574
0.000681679
0.00072605
0.00112846
0.000551058
0.000383624
0.000404019
0.000444514
0.000486938
0.000526679
0.00056259
0.000594697
0.00062342
0.000649253
0.00067253
0.000693272
0.00071101
0.000724733
0.000733184
0.000735697
0.000733036
0.00072634
0.000718303
0.00071755
0.000745233
0.000870535
0.00156548
0.000649764
0.000429773
0.000436565
0.000468943
0.00050496
0.000539176
0.000570309
0.000598381
0.000623772
0.000646898
0.000668025
0.00068715
0.00070389
0.000717453
0.000726924
0.000731971
0.000733618
0.000733569
0.000736078
0.000752437
0.000813085
0.0010385
0.00231117
0.000750998
0.000478129
0.000472582
0.000497851
0.000528163
0.000557355
0.000584131
0.000608563
0.000630999
0.000651776
0.000671089
0.000688916
0.00070494
0.000718556
0.000729114
0.000736544
0.000742194
0.000748097
0.000759331
0.000789
0.000874373
0.00119633
0.00407331
0.000335477
0.00110439
0.00188468
0.00224866
0.00240201
0.00246937
0.00245007
0.00236466
0.0022471
0.00213501
0.00188607
0.00150831
0.00130715
0.00130748
0.00115841
0.000865108
0.000540452
0.000289505
0.000104725
0.000408583
0.000643344
0.000891444
0.00101972
0.00107954
0.00110741
0.00110707
0.00108258
0.00104104
0.000988375
0.000906751
0.000805761
0.000713491
0.000643774
0.000563718
0.000447905
0.000315844
0.000204527
0.000164087
0.000590059
0.00061448
0.000743806
0.000812413
0.000845752
0.000860587
0.00085925
0.000842994
0.000814826
0.000775381
0.000719211
0.000655639
0.000590642
0.000531109
0.000469529
0.000391563
0.000303911
0.000238657
0.000266937
0.00073529
0.000657223
0.000718687
0.000751578
0.000767279
0.000772967
0.000768669
0.000754014
0.000730486
0.0006974
0.000651965
0.000602369
0.000550623
0.0004994
0.00044734
0.000387111
0.000322116
0.000285703
0.000377001
0.00087933
0.000736259
0.00073677
0.000738482
0.00073866
0.000736272
0.000728555
0.000713719
0.000692216
0.00066303
0.000624468
0.000582912
0.000539113
0.000493843
0.000447807
0.000398768
0.000349525
0.000334213
0.00049391
0.00111915
0.000850503
0.000776479
0.000746835
0.000732526
0.00072274
0.000711603
0.000696019
0.000675558
0.000649141
0.000615677
0.000579572
0.000540912
0.000500249
0.000458861
0.000417845
0.000380735
0.000382796
0.00062214
0.00162728
0.000998732
0.000825323
0.000765209
0.000738017
0.000721702
0.000707445
0.000691042
0.000671309
0.000647127
0.000617661
0.000585528
0.000550447
0.000513392
0.000476094
0.000441476
0.000414111
0.000433043
0.000770993
0.0031733
0.00114971
0.000870299
0.000786949
0.000749681
0.000728021
0.000711163
0.000694124
0.000675144
0.000652971
0.000626735
0.000597642
0.000565283
0.000531025
0.000497269
0.000467733
0.000448533
0.000482243
0.000917096
0.000907735
0.00055669
0.000533684
0.000548872
0.00057079
0.000592385
0.000612574
0.000631589
0.00064971
0.000667129
0.000683913
0.000699994
0.000715134
0.00072897
0.000741219
0.00075215
0.000763471
0.000777753
0.000799997
0.000843254
0.000939284
0.00117672
0.00187297
0.00115319
0.000676357
0.000630126
0.000632533
0.000642868
0.000653434
0.000664303
0.000675984
0.000688494
0.000701751
0.00071562
0.000729866
0.000744247
0.000758605
0.000773047
0.000788104
0.000805245
0.000826909
0.000856559
0.000902439
0.000982396
0.00112837
0.00139124
0.00160284
0.000817678
0.000741429
0.000727858
0.000723603
0.000720812
0.000721582
0.000725707
0.000732799
0.00074241
0.000754187
0.000767669
0.000782261
0.000797732
0.000814553
0.000833589
0.000855838
0.000881823
0.00091251
0.000953528
0.00101386
0.00110339
0.00122395
0.00269588
0.000990039
0.000879449
0.000824825
0.000802087
0.000783838
0.00077554
0.000772641
0.000775821
0.00078344
0.000794914
0.000809759
0.000826601
0.000844406
0.000864282
0.000888143
0.000916788
0.000946013
0.000972364
0.00100514
0.00105019
0.0011079
0.00118128
0.00274528
0.00116105
0.000979245
0.000876257
0.000849424
0.00082512
0.000808161
0.000805592
0.000811464
0.000819653
0.000832227
0.0008495
0.000868082
0.000886165
0.000905186
0.000926305
0.000950697
0.000975677
0.00100972
0.00104812
0.00107945
0.00112355
0.00119772
0.00445373
0.00114852
0.000984974
0.000895349
0.000882134
0.00085337
0.000829037
0.000823929
0.000830394
0.000841543
0.000857131
0.000877177
0.000896649
0.00091488
0.000933086
0.000955269
0.00098533
0.0010092
0.00103824
0.00108235
0.00111346
0.00113409
0.00117697
0.00144288
0.00104156
0.000942686
0.000886569
0.000864346
0.000843242
0.000832906
0.000833956
0.00084233
0.000855764
0.000874159
0.000895288
0.00091546
0.000935046
0.000954643
0.0009772
0.00100489
0.00102826
0.00105066
0.00108291
0.00111397
0.00113494
0.00116864
0.0015262
0.00103231
0.000909603
0.000865415
0.000844351
0.0008351
0.00083444
0.000840821
0.000852242
0.000868516
0.000889071
0.000911371
0.000932282
0.000952571
0.000972843
0.000994042
0.00101745
0.00104052
0.00106295
0.00108927
0.00111557
0.00113487
0.00115559
0.00157115
0.0010372
0.000898165
0.000851548
0.000834187
0.000831051
0.000836387
0.000847555
0.000862807
0.000881986
0.00090474
0.000928812
0.000951008
0.00097175
0.000992265
0.00101297
0.00103428
0.00105575
0.00107701
0.00109958
0.00112206
0.00114082
0.00115674
0.00159953
0.00104538
0.000896394
0.000846745
0.00083132
0.000831727
0.000841026
0.000855989
0.000874693
0.000896629
0.000921339
0.00094702
0.000971064
0.000993419
0.00101537
0.00103706
0.00105814
0.00107879
0.00109917
0.00111975
0.00114002
0.00115829
0.00117323
0.00162108
0.00105511
0.000900017
0.00084831
0.000833963
0.000836739
0.000848898
0.000866846
0.000888505
0.000912981
0.000939559
0.000966924
0.000993273
0.00101817
0.00104246
0.00106611
0.00108848
0.00110967
0.0011302
0.00115046
0.00117027
0.00118883
0.00120459
0.00164121
0.00106674
0.000907437
0.000854348
0.000840699
0.00084527
0.000859721
0.000880203
0.000904521
0.000931406
0.000959983
0.000989369
0.0010184
0.00104644
0.00107363
0.00109987
0.00112454
0.00114764
0.00116979
0.00119144
0.00121251
0.00123251
0.00125024
0.0016616
0.00107993
0.000917619
0.00086366
0.000850611
0.000856712
0.0008732
0.000896011
0.000922838
0.000952141
0.000983064
0.00101492
0.001047
0.00107862
0.00110928
0.00113878
0.00116666
0.00119288
0.00121806
0.00124259
0.00126643
0.00128916
0.00130981
0.00168239
0.00109441
0.000929972
0.000875618
0.000863271
0.000870851
0.000889312
0.000914397
0.000943703
0.000975624
0.00100935
0.00104429
0.00107982
0.00111538
0.00115019
0.00118382
0.0012159
0.00124643
0.00127593
0.00130468
0.0013326
0.0013593
0.00138391
0.00170331
0.00111003
0.00094435
0.00089006
0.000878596
0.000887728
0.000908231
0.000935673
0.000967618
0.00100253
0.00103961
0.00107825
0.00111788
0.00115789
0.00119757
0.00123631
0.00127371
0.00130978
0.00134489
0.00137918
0.00141251
0.00144445
0.00147416
0.00172387
0.00112692
0.00096092
0.00090712
0.000896727
0.000907523
0.000930219
0.000960253
0.000995195
0.00103363
0.00107471
0.00111778
0.00116226
0.00120755
0.00125296
0.00129783
0.00134177
0.00138472
0.00142682
0.00146807
0.00150824
0.00154682
0.00158298
0.00174291
0.00114555
0.000980194
0.000927132
0.000917921
0.000930494
0.000955587
0.000988586
0.00102707
0.00106967
0.0011155
0.00116385
0.00121412
0.0012657
0.00131792
0.00137019
0.00142205
0.00147331
0.00152392
0.0015737
0.0016223
0.0016691
0.00171325
0.00175818
0.00116733
0.00100314
0.000950591
0.000942495
0.000956963
0.000984734
0.00102119
0.00106388
0.00111142
0.00116286
0.00121749
0.00127467
0.00133378
0.0013942
0.00145532
0.00151665
0.00157788
0.00163871
0.0016988
0.00175763
0.00181449
0.00186843
0.00176675
0.00119601
0.0010312
0.000978009
0.000970761
0.000987284
0.00101813
0.00105863
0.00110628
0.00115963
0.00121771
0.00127978
0.00134519
0.00141332
0.00148355
0.00155527
0.00162791
0.00170101
0.00177408
0.00184658
0.00191779
0.00198685
0.0020527
0.00176749
0.00123835
0.00106532
0.00100954
0.00100293
0.0010218
0.00105626
0.0011015
0.00115496
0.00121513
0.00128102
0.00135189
0.00142708
0.00150598
0.00158794
0.00167231
0.00175845
0.00184573
0.00193346
0.00202086
0.00210701
0.00219085
0.00227117
0.00176659
0.00129036
0.00110353
0.00104485
0.00103913
0.00106084
0.00109958
0.00115038
0.00121062
0.00127878
0.00135386
0.00143512
0.00152192
0.00161362
0.00170957
0.00180906
0.00191134
0.00201558
0.00212089
0.00222623
0.00233044
0.00243218
0.00253004
0.00176157
0.00136008
0.00114528
0.00108396
0.00107958
0.00110473
0.00114853
0.00120585
0.00127403
0.00135154
0.00143741
0.00153092
0.00163146
0.00173839
0.00185103
0.00196859
0.00209018
0.00221478
0.00234124
0.00246823
0.00259426
0.00271769
0.00283682
0.00176649
0.00140439
0.00119044
0.00112707
0.00112452
0.00115382
0.00120358
0.00126852
0.00134595
0.00143439
0.00153292
0.00164087
0.00175768
0.00188271
0.00201526
0.00215444
0.00229922
0.00244832
0.0026003
0.00275346
0.00290592
0.00305566
0.00320059
0.00176397
0.00147501
0.00123965
0.00117431
0.00117419
0.00120844
0.00126516
0.00133898
0.00142719
0.00152839
0.00164176
0.00176672
0.00190277
0.00204933
0.00220566
0.00237078
0.00254344
0.00272212
0.00290496
0.00308985
0.00327441
0.00345609
0.00363231
0.00176628
0.00153618
0.00129255
0.0012258
0.00122877
0.00126887
0.0013337
0.00141781
0.00151854
0.00163461
0.00176535
0.00191032
0.00206916
0.00224133
0.0024261
0.00262236
0.00282866
0.00304311
0.00326339
0.00348684
0.00371043
0.00393096
0.00414518
0.00176272
0.00161833
0.00134953
0.00128159
0.00128839
0.00133534
0.00140957
0.00150555
0.00162077
0.00175413
0.00190516
0.00207368
0.00225946
0.00246211
0.0026809
0.00291463
0.00316156
0.00341938
0.00368521
0.00395562
0.0042268
0.00449467
0.00475509
0.00176293
0.00169306
0.0014102
0.00134168
0.00135313
0.00140803
0.00149306
0.00160268
0.00173459
0.00188796
0.00206267
0.0022588
0.00247643
0.00271534
0.00297485
0.00325367
0.00354976
0.00386029
0.00418162
0.00450941
0.00483875
0.00516441
0.0054811
0.00176339
0.00177417
0.00147435
0.00140593
0.00142293
0.00148698
0.00158434
0.00170957
0.00186063
0.00203709
0.00223926
0.00246769
0.00272287
0.00300483
0.00331305
0.00364616
0.00400178
0.00437645
0.00476559
0.00516365
0.00556428
0.00596074
0.00634615
0.00176817
0.00184263
0.00154141
0.00147404
0.00149762
0.00157211
0.00168347
0.00182641
0.00199932
0.00220228
0.00243619
0.00270225
0.00300147
0.0033344
0.00370078
0.00409919
0.0045269
0.00497972
0.00545189
0.00593629
0.00642466
0.00690815
0.00737778
0.00176738
0.00192944
0.00161143
0.00154572
0.00157691
0.0016632
0.00179029
0.00195319
0.00215081
0.00238395
0.00265433
0.00296396
0.00331467
0.00370769
0.00414319
0.00461994
0.00513491
0.00568304
0.00625711
0.00684798
0.00744483
0.00803591
0.00860928
0.00176492
0.00202452
0.00168363
0.00162039
0.00166037
0.00175988
0.00190448
0.00208961
0.0023149
0.0025821
0.00289397
0.00325365
0.0036641
0.00412753
0.00464489
0.00521534
0.00583569
0.00650004
0.0071995
0.00792227
0.00865407
0.00937906
0.0100811
0.001769
0.00209509
0.00175629
0.00169734
0.00174746
0.00186165
0.00202551
0.00223508
0.00249095
0.00279607
0.00315459
0.00357114
0.00405021
0.00459544
0.00520905
0.00589102
0.00663838
0.00744453
0.00829872
0.00918582
0.0100868
0.0109799
0.0118428
0.00748164
0.0021911
0.00182926
0.00177602
0.00183777
0.00196806
0.00215272
0.00238865
0.00267772
0.00302438
0.00343455
0.00391481
0.00447168
0.0051109
0.00583661
0.00665039
0.00755023
0.00852934
0.00957511
0.0106683
0.0117835
0.0128902
0.0139566
0.00176582
0.00226093
0.0019009
0.00185617
0.00193127
0.00207886
0.00228541
0.00254907
0.0028733
0.00326449
0.00373073
0.00428107
0.00492473
0.00567034
0.00652502
0.00749318
0.00857504
0.0097648
0.0110485
0.0124024
0.013792
0.015174
0.0165013
0.0017674
0.00232018
0.00197108
0.00193892
0.00202904
0.00219445
0.00242303
0.00271471
0.003075
0.00351259
0.00403821
0.0046639
0.00540236
0.00626617
0.00726685
0.00841348
0.00971078
0.0111562
0.0127362
0.0144224
0.0161684
0.0179112
0.019579
0.00748026
0.00237975
0.00204335
0.00202867
0.00213445
0.00231648
0.00256539
0.00288364
0.00327921
0.0037634
0.00434991
0.00505434
0.00589364
0.00688559
0.00804801
0.00939733
0.0109463
0.0126997
0.0146485
0.0167614
0.0189774
0.0212032
0.0233247
0.00746517
0.00242853
0.00213142
0.00213738
0.00225519
0.0024485
0.00271269
0.00305341
0.00348119
0.00400996
0.00465649
0.00544024
0.0063832
0.00750971
0.00884611
0.0104197
0.0122565
0.0143757
0.0167806
0.0194437
0.0222891
0.0251786
0.0279223
0.00176704
0.00249085
0.00228045
0.00229379
0.00240622
0.00259635
0.00286517
0.00322064
0.00367484
0.00424355
0.00494626
0.00580629
0.00685115
0.00811295
0.00962897
0.0114416
0.013597
0.0161393
0.0190989
0.0224689
0.026168
0.0299983
0.0336312
0.00746496
0.00294904
0.00263502
0.002561
0.00261203
0.00276683
0.00302157
0.00338007
0.00385226
0.00445374
0.00520558
0.00613453
0.00727362
0.0086635
0.0103542
0.0124074
0.0148969
0.0179063
0.0215169
0.0257774
0.0306401
0.0358527
0.0408399
0.013532
0.00542452
0.00362342
0.003059
0.00290173
0.00296161
0.00317561
0.00352302
0.00400341
0.00462864
0.00541965
0.00640557
0.00762441
0.0091251
0.0109711
0.0132452
0.0160555
0.0195393
0.0238607
0.0291861
0.0356051
0.0429193
0.0501941
0.141297
0.0214879
0.00662509
0.00396969
0.00328037
0.00316272
0.0033105
0.00363581
0.00411615
0.00475578
0.00557378
0.00660051
0.00787764
0.00946087
0.0114252
0.013873
0.0169462
0.0208421
0.0258328
0.0322814
0.0406198
0.05114
0.0629645
1.53631
0.121361
0.0149249
0.00528241
0.00364043
0.00331115
0.00339541
0.0037004
0.00417759
0.00482354
0.00565522
0.00670329
0.00801136
0.00963896
0.0116679
0.0142127
0.0174377
0.021584
0.0270156
0.0343067
0.0444267
0.0591743
0.0822858
0.00508062
0.00399172
0.00389262
0.00468047
0.00170257
0.00173433
0.00172188
0.00167144
0.00130253
0.00132501
0.00131979
0.00128846
0.00122249
0.00123621
0.00122902
0.00120297
0.00123767
0.0012378
0.00121296
0.00118523
0.00121556
0.00122151
0.00119543
0.00117247
0.00118688
0.00118703
0.00117453
0.00115703
0.00116373
0.00116233
0.00115629
0.00114764
0.00116238
0.00116284
0.00116105
0.00115757
0.00117951
0.00118191
0.00118293
0.00118258
0.00121251
0.00121636
0.0012191
0.00122068
0.00126039
0.00126577
0.00127003
0.00127316
0.00132267
0.00132989
0.00133594
0.00134079
0.00139983
0.00140909
0.00141722
0.00142417
0.00149384
0.00150553
0.00151614
0.00152558
0.00160732
0.001622
0.00163558
0.00164798
0.00174333
0.00176164
0.00177881
0.00179474
0.00190551
0.00192824
0.00194973
0.0019699
0.00209829
0.00212637
0.0021531
0.00217837
0.00232708
0.00236164
0.00239471
0.00242615
0.00259845
0.00264086
0.0026816
0.00272049
0.00292036
0.00297228
0.00302228
0.00307018
0.00330245
0.00336587
0.00342706
0.00348582
0.00375635
0.00383366
0.00390838
0.00398023
0.00429607
0.00439019
0.00448121
0.00456883
0.0049385
0.00505293
0.00516363
0.00527021
0.00570396
0.00584297
0.0059774
0.00610681
0.00661695
0.00678573
0.00694883
0.00710569
0.007707
0.00791196
0.00810973
0.00829965
0.00900998
0.00925901
0.00949883
0.00972863
0.0105697
0.0108727
0.0111637
0.0114417
0.0124404
0.0128098
0.0131633
0.0134996
0.0146903
0.0151419
0.015572
0.015979
0.0174066
0.0179607
0.018485
0.0189776
0.020703
0.0213858
0.0220262
0.0226221
0.0247311
0.0255764
0.0263595
0.0270785
0.029698
0.0307489
0.0317055
0.0325676
0.0358961
0.0372054
0.0383668
0.0393852
0.0437568
0.0453805
0.0467637
0.0479286
0.053956
0.0559171
0.0574825
0.0587216
0.0676252
0.0697698
0.0713022
0.0724041
0.0866779
0.0881904
0.0890561
0.0895805
0.00178066
0.00113463
0.000912849
0.000819348
0.000772474
0.000744806
0.000724993
0.000707519
0.000690076
0.000670974
0.000648864
0.000623558
0.000594674
0.00056382
0.000534283
0.000510408
0.000501746
0.000552288
0.00106986
0.00134975
0.00108397
0.000936836
0.000855239
0.000807738
0.000777968
0.000757317
0.000741008
0.000726412
0.000711384
0.000693471
0.000671644
0.000645718
0.000617193
0.000589651
0.000568081
0.000564718
0.000625465
0.00116943
0.00119447
0.00105761
0.000955704
0.000888406
0.000845013
0.000816419
0.000796667
0.000782181
0.000770752
0.000759974
0.000745908
0.000727065
0.000703493
0.000676199
0.000649292
0.000628196
0.000625528
0.000694029
0.00133711
0.00114946
0.0010592
0.000980351
0.000923525
0.000884849
0.000858171
0.000839508
0.000826669
0.000818407
0.000812025
0.000801177
0.000785233
0.000765889
0.000739074
0.00071214
0.000691093
0.000688828
0.000781196
0.00206515
0.00113635
0.0010629
0.001003
0.000957392
0.000925456
0.000901553
0.000883972
0.000872543
0.000866748
0.000862388
0.000852446
0.000841494
0.000831039
0.000798795
0.000772735
0.000752826
0.000762301
0.000892421
0.00198675
0.00112523
0.001069
0.00102119
0.000985203
0.000960596
0.000940499
0.000923949
0.000912572
0.000907258
0.000903379
0.000896703
0.000893534
0.000886448
0.000852919
0.000829286
0.000810325
0.000818655
0.000920587
0.000796671
0.00112511
0.00108274
0.00104753
0.00101578
0.000993979
0.000975866
0.000959669
0.000947592
0.000940562
0.000936278
0.000936052
0.000945634
0.000941377
0.000893342
0.000858402
0.000840593
0.000847931
0.000910954
0.0011089
0.00113021
0.00109996
0.00107333
0.00104865
0.00102958
0.00101298
0.000997658
0.000985129
0.000976364
0.000970281
0.000967091
0.000965906
0.000950646
0.00091098
0.000876487
0.000857863
0.000867812
0.000953824
0.00115784
0.0011489
0.00112799
0.00110702
0.00108812
0.00107163
0.00105589
0.00104056
0.00102719
0.0010165
0.00100754
0.000998204
0.000984074
0.000958914
0.000924589
0.000894867
0.000876108
0.000884696
0.000983465
0.00115685
0.00117937
0.00116627
0.00115052
0.00113597
0.00112166
0.0011061
0.00108996
0.00107504
0.00106177
0.00104913
0.001034
0.00101095
0.000978644
0.00094416
0.000914932
0.000895295
0.000898728
0.000972115
0.00115862
0.00122109
0.00121449
0.00120399
0.00119269
0.00117984
0.00116454
0.00114781
0.0011311
0.00111463
0.0010976
0.00107734
0.00104906
0.00101246
0.000975041
0.000943091
0.000922029
0.000922995
0.000983491
0.00115913
0.00127631
0.00127459
0.00126853
0.00125976
0.00124823
0.00123367
0.00121674
0.00119834
0.00117869
0.00115731
0.00113255
0.00110111
0.00106207
0.00102146
0.00098628
0.000964211
0.000965808
0.00102788
0.00115721
0.00134676
0.00134926
0.00134693
0.00134066
0.00133073
0.00131712
0.00130014
0.00128029
0.00125781
0.00123257
0.00120384
0.00116995
0.00112968
0.00108683
0.00104904
0.00102735
0.00103166
0.00109137
0.00115868
0.00143363
0.00144077
0.00144237
0.00143904
0.00143111
0.00141863
0.00140175
0.00138076
0.0013559
0.0013273
0.00129488
0.00125824
0.00121695
0.00117307
0.00113367
0.00111233
0.00112102
0.00119477
0.00115351
0.00153918
0.00155172
0.00155796
0.00155827
0.00155289
0.00154192
0.00152546
0.0015037
0.0014769
0.00144535
0.0014094
0.00136944
0.00132607
0.00128121
0.00124101
0.00121913
0.00123356
0.00135249
0.00476326
0.00166642
0.00168532
0.0016971
0.00170188
0.00169979
0.00169091
0.00167534
0.00165323
0.00162487
0.00159071
0.00155135
0.00150769
0.00146108
0.00141411
0.00137264
0.00134902
0.00136566
0.00149305
0.00115244
0.00181893
0.00184532
0.00186373
0.00187399
0.00187608
0.00187003
0.00185592
0.00183391
0.00180433
0.00176773
0.00172497
0.00167729
0.00162665
0.00157636
0.00153276
0.00150868
0.00153279
0.00169972
0.00116065
0.00200098
0.00203629
0.00206262
0.00207955
0.00208687
0.00208451
0.0020725
0.00205103
0.00202047
0.00198147
0.00193508
0.00188289
0.00182735
0.00177251
0.00172569
0.00170153
0.00173557
0.00195747
0.00115995
0.00221774
0.00226375
0.00229958
0.00232457
0.00233832
0.00234061
0.00233143
0.00231093
0.00227953
0.00223796
0.00218747
0.00212993
0.0020683
0.0020074
0.00195576
0.00193055
0.00197435
0.00224613
0.00489723
0.00247552
0.00253438
0.00258162
0.00261633
0.00263789
0.00264594
0.00264035
0.00262125
0.00258905
0.00254459
0.00248925
0.00242522
0.00235592
0.00228698
0.0022284
0.0022005
0.00225504
0.00258776
0.00489214
0.00278194
0.00285626
0.0029172
0.00296359
0.00299457
0.00300962
0.00300848
0.00299121
0.00295822
0.00291038
0.00284923
0.00277722
0.00269828
0.00261893
0.00255071
0.00251718
0.00257843
0.00296325
0.00560242
0.00314621
0.00323914
0.00331651
0.00337688
0.00341917
0.00344265
0.00344693
0.00343197
0.00339813
0.00334632
0.00327819
0.00319646
0.00310559
0.00301302
0.0029321
0.00289007
0.0029564
0.00339629
0.00650383
0.00357944
0.00369471
0.00379176
0.00386883
0.00392462
0.00395819
0.003969
0.0039569
0.0039222
0.00386577
0.00378935
0.00369591
0.00359045
0.00348147
0.00338434
0.00333072
0.00340125
0.00390503
0.00754249
0.00409502
0.00423708
0.00435761
0.00445456
0.00452638
0.00457196
0.00459062
0.00458208
0.00454654
0.00448485
0.00439876
0.00429147
0.00416847
0.00403943
0.00392197
0.0038524
0.00392354
0.00449082
0.00868012
0.00470906
0.00488316
0.00503164
0.00515214
0.00524293
0.00530276
0.00533081
0.0053267
0.00529052
0.00522302
0.00512592
0.00500257
0.00485897
0.00470582
0.00456308
0.00447215
0.00453869
0.00516591
0.00991146
0.00544101
0.00565332
0.00583492
0.00598321
0.00609632
0.00617294
0.00621221
0.00621367
0.0061773
0.00610369
0.0059945
0.00585306
0.0056857
0.00550416
0.00533084
0.00521268
0.00526951
0.00595676
0.011298
0.00631425
0.00657203
0.00679274
0.00697363
0.00711285
0.00720917
0.00726181
0.00727031
0.00723457
0.00715502
0.00703306
0.00687188
0.00667797
0.006464
0.00625494
0.00610407
0.00614815
0.00690656
0.0129747
0.00735706
0.00766879
0.00793545
0.00815435
0.00832388
0.00844314
0.00851163
0.00852907
0.00849533
0.00841063
0.00827599
0.00809425
0.00787185
0.00762221
0.00737302
0.00718504
0.00721626
0.00806908
0.0150888
0.00860364
0.00897922
0.00929962
0.00956249
0.00976684
0.00991254
0.00999971
0.0100285
0.00999876
0.00991059
0.00976453
0.00956283
0.00931152
0.00902451
0.00873228
0.00850432
0.00852513
0.00950394
0.0177608
0.0100957
0.0105466
0.0109293
0.0112425
0.0114865
0.0116623
0.0117712
0.0118141
0.0117912
0.0117025
0.0115479
0.0113289
0.0110507
0.0107273
0.0103917
0.010123
0.0101377
0.0112762
0.0210658
0.0118843
0.0124236
0.0128781
0.0132482
0.0135363
0.0137458
0.0138796
0.0139398
0.0139275
0.0138425
0.0136845
0.0134538
0.0131545
0.0127998
0.0124248
0.0121188
0.0121346
0.0134705
0.0251216
0.0140328
0.0146754
0.0152115
0.0156446
0.0159808
0.0162268
0.0163882
0.0164692
0.0164719
0.0163968
0.0162431
0.0160102
0.0157007
0.0153265
0.0149237
0.0145914
0.0146236
0.0162078
0.0301443
0.0166206
0.0173826
0.0180095
0.0185106
0.0188974
0.0191815
0.0193725
0.0194774
0.0195003
0.0194426
0.0193039
0.0190832
0.0187816
0.0184094
0.0180028
0.0176697
0.0177497
0.0196578
0.0364444
0.0197483
0.020646
0.0213713
0.0219424
0.0223796
0.0227012
0.0229221
0.0230532
0.0231014
0.0230701
0.0229601
0.0227711
0.0225043
0.0221692
0.0218021
0.0215191
0.0217084
0.024059
0.0444517
0.0235448
0.0245925
0.0254192
0.0260577
0.0265406
0.0268955
0.0271442
0.0273021
0.02738
0.0273842
0.0273185
0.0271856
0.0269898
0.0267439
0.0264876
0.0263472
0.026764
0.0297505
0.0547397
0.0281764
0.0293819
0.0303044
0.0309998
0.0315175
0.031897
0.0321675
0.0323501
0.0324598
0.0325072
0.0325012
0.0324511
0.0323702
0.0322831
0.0322448
0.032405
0.0332718
0.0372455
0.0682947
0.0338587
0.0352146
0.0362129
0.0369433
0.0374768
0.037866
0.038148
0.0383493
0.0384891
0.0385835
0.0386483
0.0387041
0.038782
0.0389344
0.0392581
0.0399663
0.0416893
0.0473422
0.0869517
0.0408693
0.0423394
0.0433712
0.0440997
0.0446204
0.0449981
0.0452763
0.0454854
0.0456482
0.0457858
0.0459227
0.0460948
0.0463605
0.0468218
0.0476643
0.0492572
0.0525217
0.061223
0.113821
0.0495606
0.0510587
0.052051
0.0527238
0.0531938
0.0535332
0.0537877
0.0539886
0.0541603
0.0543271
0.0545213
0.0547942
0.0552371
0.0560206
0.0574764
0.0602888
0.0660758
0.0804639
0.15473
0.0603605
0.0617262
0.0625719
0.0631214
0.0634973
0.0637685
0.0639766
0.064149
0.064308
0.0644778
0.0646933
0.0650148
0.065557
0.0665529
0.0685028
0.0725603
0.0817224
0.106225
0.222222
0.0737425
0.0747333
0.0753042
0.0756609
0.0759015
0.0760766
0.076215
0.0763356
0.0764544
0.0765898
0.0767707
0.0770496
0.0775329
0.0784536
0.0803693
0.0847676
0.0963025
0.134425
0.345985
0.0901344
0.0904885
0.0906785
0.090794
0.090872
0.0909303
0.0909786
0.0910235
0.091071
0.0911285
0.091208
0.0913324
0.0915495
0.0919701
0.092888
0.0952348
0.102797
0.13897
0.578376
)
;

boundaryField
{
    leftWall
    {
        type            epsilonWallFunction;
        value           nonuniform List<scalar> 
50
(
6.76584e-05
0.000143359
0.000247942
0.000351759
0.000452414
0.000551058
0.000649764
0.000750998
0.000907735
0.00115319
0.00160284
0.00269588
0.00274528
0.00445373
0.00144288
0.0015262
0.00157115
0.00159953
0.00162108
0.00164121
0.0016616
0.00168239
0.00170331
0.00172387
0.00174291
0.00175818
0.00176675
0.00176749
0.00176659
0.00176157
0.00176649
0.00176397
0.00176628
0.00176272
0.00176293
0.00176339
0.00176817
0.00176738
0.00176492
0.001769
0.00748164
0.00176582
0.0017674
0.00748026
0.00746517
0.00176704
0.00746496
0.013532
0.141297
1.53631
)
;
    }
    rightWall
    {
        type            epsilonWallFunction;
        value           nonuniform List<scalar> 
50
(
0.000104725
0.000164087
0.000266937
0.000377001
0.00049391
0.00062214
0.000770993
0.000917096
0.00106986
0.00116943
0.00133711
0.00206515
0.00198675
0.000796671
0.0011089
0.00115784
0.00115685
0.00115862
0.00115913
0.00115721
0.00115868
0.00115351
0.00476326
0.00115244
0.00116065
0.00115995
0.00489723
0.00489214
0.00560242
0.00650383
0.00754249
0.00868012
0.00991146
0.011298
0.0129747
0.0150888
0.0177608
0.0210658
0.0251216
0.0301443
0.0364444
0.0444517
0.0547397
0.0682947
0.0869517
0.113821
0.15473
0.222222
0.345985
0.578376
)
;
    }
    lowerWall
    {
        type            epsilonWallFunction;
        value           nonuniform List<scalar> 
62
(
6.76584e-05
0.000388656
0.000703191
0.000991431
0.0012522
0.00148531
0.00169097
0.00186922
0.00202104
0.002151
0.0022654
0.00236891
0.00246238
0.00253524
0.00256262
0.00250354
0.00234188
0.00212827
0.0018254
0.00147809
0.00114208
0.000659919
0.000185766
0.000185766
0.000315471
0.000542869
0.000806852
0.00112846
0.00156548
0.00231117
0.00407331
0.00508062
0.00399172
0.00389262
0.00468047
0.000335477
0.000408583
0.000590059
0.00073529
0.00087933
0.00111915
0.00162728
0.0031733
0.000335477
0.00110439
0.00188468
0.00224866
0.00240201
0.00246937
0.00245007
0.00236466
0.0022471
0.00213501
0.00188607
0.00150831
0.00130715
0.00130748
0.00115841
0.000865108
0.000540452
0.000289505
0.000104725
)
;
    }
    atmosphere
    {
        type            inletOutlet;
        inletValue      uniform 0.1;
        value           nonuniform List<scalar> 
46
(
0.1
0.121361
0.0149249
0.00528241
0.00364043
0.00331115
0.00339541
0.0037004
0.00417759
0.00482354
0.00565522
0.00670329
0.00801136
0.00963896
0.0116679
0.0142127
0.0174377
0.021584
0.0270156
0.0343067
0.0444267
0.0591743
0.1
0.1
0.1
0.1
0.1
0.1
0.1
0.1
0.1
0.1
0.1
0.1
0.1
0.1
0.1
0.1
0.1
0.1
0.1
0.1
0.1
0.1
0.1
0.578376
)
;
    }
    defaultFaces
    {
        type            empty;
    }
}


// ************************************************************************* //
