/*--------------------------------*- C++ -*----------------------------------*\
  =========                 |
  \\      /  F ield         | OpenFOAM: The Open Source CFD Toolbox
   \\    /   O peration     | Website:  https://openfoam.org
    \\  /    A nd           | Version:  9
     \\/     M anipulation  |
\*---------------------------------------------------------------------------*/
FoamFile
{
    format      ascii;
    class       volVectorField;
    location    "32.5";
    object      U;
}
// * * * * * * * * * * * * * * * * * * * * * * * * * * * * * * * * * * * * * //

dimensions      [0 1 -1 0 0 0 0];

internalField   nonuniform List<vector> 
918
(
(2.47629 -0.138943 0)
(0.108704 0.722546 0)
(0.171768 1.05372 0)
(2.31834 0.153728 0)
(-0.0597199 1.27096 -1.22319e-19)
(-0.0924034 0.643931 -5.3138e-18)
(0.530054 0.849683 -2.95341e-19)
(0.274315 0.152869 -2.9884e-20)
(3.00615 -0.0195607 0)
(-0.00826473 0.476995 0)
(-0.0172243 0.58961 0)
(0.605211 0.00676631 0)
(0.0107054 0.439105 0)
(-0.00288244 0.421689 0)
(0.0134375 0.340815 -1.30511e-18)
(-0.00468931 0.768797 -9.20575e-20)
(0.312397 0.0742685 2.15209e-18)
(0.0797475 0.642554 -2.22935e-19)
(1.52884 0.128628 0)
(-0.026708 0.685432 0)
(0.194584 0.157718 -1.26552e-18)
(3.08302 -0.397373 0)
(2.92445 -0.50598 0)
(1.86116 -0.1811 0)
(0.511382 0.0400857 0)
(-0.0253686 0.52155 0)
(-0.00135313 0.494038 1.86238e-18)
(-0.0224151 1.40042 0)
(0.0748609 2.8837 0)
(0.168251 1.73646 0)
(-0.0382948 3.16553 0)
(0.0272973 1.64037 9.40515e-20)
(0.0233363 0.686666 0)
(-0.147425 0.775094 -2.03084e-22)
(-0.193914 1.0291 4.42121e-18)
(-0.0415772 1.04471 0)
(0.744578 -0.00600498 0)
(0.161001 0.246304 6.65524e-19)
(0.993557 1.51314 6.52803e-19)
(0.649977 0.78442 -5.15976e-19)
(0.798651 1.57531 6.19938e-20)
(0.416841 0.851473 -3.20081e-19)
(0.552306 0.306555 2.93904e-20)
(0.296961 0.153641 0)
(0.963021 0.566585 0)
(0.532585 0.303938 1.32012e-19)
(0.257968 0.162785 -1.35463e-19)
(0.871596 -0.0554787 0)
(3.02784 -0.00170479 0)
(3.00685 0.0178656 0)
(3.20086 -0.417733 0)
(3.04288 -0.0742117 0)
(3.03116 -0.0388406 0)
(0.0186038 0.903024 -1.14625e-18)
(-0.0542609 0.974395 0)
(0.00283784 0.455128 0)
(-0.0291563 0.981492 0)
(-0.0114055 0.481373 0)
(-0.0013471 0.869862 0)
(-0.0521132 1.11115 0)
(-0.0125562 0.541908 0)
(-0.0253637 1.16253 0)
(-0.0059228 0.621885 0)
(0.790479 0.0116244 0)
(1.16942 -0.00156172 0)
(0.618247 0.0123698 0)
(1.12578 0.0175987 0)
(0.569759 0.00867942 0)
(0.225406 0.921982 1.95975e-18)
(0.0985379 1.2081 0)
(0.176302 1.06604 0)
(0.0331901 0.755774 2.19927e-23)
(0.0372233 0.498055 -2.93097e-18)
(0.0194616 0.747943 0)
(0.00595421 0.422033 0)
(-0.000695307 0.734548 4.51731e-24)
(0.000702484 0.414825 0)
(-0.0169204 0.74318 0)
(-0.0129373 0.42798 0)
(0.0494349 0.649975 0)
(0.048438 0.458221 0)
(0.00800525 0.62195 1.23396e-18)
(0.000744747 0.344903 0)
(-0.067777 4.69196 0)
(0.00895787 1.45824 9.1394e-20)
(-0.0104567 0.785461 -1.17657e-19)
(0.636084 0.152146 -7.50929e-19)
(0.321613 0.0656845 -7.2869e-19)
(0.644789 0.169722 -2.2546e-18)
(0.317531 0.0955707 -1.45152e-18)
(0.0785292 0.618392 0)
(0.178546 1.31385 1.84864e-19)
(0.179709 0.730272 -2.94954e-19)
(2.06031 0.260946 0)
(1.10704 0.11845 0)
(3.03313 0.103887 0)
(3.10392 0.446059 0)
(2.83919 0.377459 -1.01277e-17)
(2.5781 0.361309 7.77114e-18)
(-0.0706451 1.26306 0)
(-0.0113313 0.623242 0)
(-0.0138405 1.90022 0)
(-0.0506999 1.34649 0)
(-0.0479984 0.678987 0)
(0.440311 0.295627 4.0066e-19)
(0.225463 0.163359 0)
(2.2961 -0.266393 0)
(1.32372 -0.119273 0)
(1.07632 0.0126689 0)
(1.01198 0.0187649 0)
(0.540922 0.0108512 0)
(1.01986 0.0563995 0)
(0.821215 0.0703256 0)
(0.343622 0.0286956 3.36292e-18)
(-0.005435 0.451601 1.77345e-18)
(-0.0270313 0.784627 0)
(-0.0473175 0.847507 0)
(-0.0152739 0.460435 0)
(0.000132486 0.839725 1.81593e-18)
(7.30057e-05 0.48753 0)
(-0.0054789 0.845554 -5.59018e-18)
(-0.00488634 0.496761 1.88628e-18)
(0.0546319 3.56574 0)
(0.0432871 4.0249 0)
(-0.0162367 1.4109 -2.05177e-21)
(-0.013055 1.36347 0)
(-0.00978579 0.741563 0)
(1.41018 0.0348844 0)
(0.760549 0.0154387 0)
(0.709514 0.0142643 0)
(1.41618 -0.0328482 0)
(0.773515 -0.00873972 0)
(0.322058 0.480351 -8.3559e-19)
(0.156806 0.23272 0)
(0.32496 0.509167 9.36453e-20)
(0.163361 0.268433 0)
(1.24079 1.38688 1.66446e-19)
(0.778683 0.74085 -3.92426e-19)
(0.411589 1.42213 0)
(0.607177 1.53402 0)
(0.303542 0.81479 0)
(0.14533 0.353379 -4.42831e-19)
(0.607304 0.280718 0)
(0.31351 0.134639 3.98814e-19)
(1.42732 1.30673 0)
(1.58667 1.16854 0)
(0.874906 0.663915 4.61719e-19)
(1.73391 0.953096 0)
(1.06859 0.438775 2.32219e-20)
(1.47298 0.00813851 0)
(1.501 -0.0292391 0)
(0.801896 -0.00441618 0)
(1.95042 -0.199779 0)
(1.65082 -0.14818 0)
(1.05215 -0.0889696 0)
(3.06126 0.164853 0)
(3.03105 0.0687875 0)
(3.01022 0.0531594 0)
(0.0357155 1.60563 6.08203e-19)
(0.0178714 0.827014 0)
(0.0179478 1.6963 1.07975e-18)
(0.00303362 0.93889 -9.70729e-19)
(0.0646811 1.15235 1.87785e-19)
(0.0477077 0.989216 0)
(0.0401851 0.52871 0)
(-0.028673 1.00553 0)
(-0.00698712 0.517529 0)
(0.0181382 1.61569 -4.43301e-21)
(-0.0180666 0.865622 0)
(-0.0539496 1.58425 -2.2579e-19)
(-0.0161319 0.820814 4.37297e-19)
(-0.00178341 1.0298 0)
(0.0102734 1.04401 0)
(5.36541e-05 0.531587 0)
(0.0106701 1.17099 0)
(0.000912104 0.612386 0)
(1.46831 -0.00370347 0)
(0.789218 0.00805984 0)
(1.44055 0.0331662 0)
(0.761792 -0.000557528 0)
(0.675382 0.00534458 0)
(1.26195 0.0166822 0)
(1.20239 0.0473083 0)
(0.659691 0.015556 0)
(-0.00580052 1.42077 -1.70203e-20)
(0.000184319 1.37708 0)
(0.00482012 0.732923 0)
(0.00172892 0.417221 0)
(0.284438 0.828758 0)
(0.253617 0.399735 -2.87125e-19)
(-0.00223234 0.635409 0)
(-0.00889708 0.367611 0)
(0.0116707 4.33759 0)
(-0.0486448 4.66423 0)
(-0.0180744 4.56587 0)
(-0.0719638 3.36806 2.0419e-20)
(-0.0578382 4.6032 0)
(-0.0517037 4.18048 0)
(0.00484427 0.819183 1.08104e-20)
(0.0142219 1.56257 1.6539e-19)
(-0.0358605 1.50308 1.20881e-19)
(-0.00744441 0.825997 0)
(0.664428 0.105708 1.15327e-18)
(0.325685 0.0441634 -1.13022e-18)
(0.149665 1.13336 0)
(0.100943 0.5734 -2.6923e-19)
(0.118122 1.23319 -8.74276e-19)
(0.0518517 0.687117 8.69776e-19)
(0.809201 0.0240635 0)
(1.55677 0.0476796 0)
(1.7097 0.127652 0)
(0.919845 0.0445228 0)
(0.00793542 1.18214 0)
(0.0258412 1.19018 0)
(0.00450469 0.627826 0)
(0.482107 0.315079 1.20358e-18)
(0.436843 0.30908 -1.38665e-18)
(0.234765 0.164174 0)
(1.9355 0.153002 1.15236e-19)
(1.13642 0.0932517 0)
(1.72436 0.118444 0)
(0.88373 0.0226952 0)
(0.678172 0.0857387 0)
(0.699714 0.0460598 -5.40744e-18)
(0.346728 0.0325964 1.99899e-18)
(0.00914739 0.807284 1.69362e-18)
(0.00222281 0.46251 4.08166e-20)
(-0.0108777 1.40842 -3.57995e-20)
(0.00613617 1.38675 1.36583e-18)
(-0.0149832 0.848955 6.29421e-20)
(-0.0119261 0.524486 -2.529e-22)
(-0.107514 1.00068 -1.16485e-18)
(-0.0529602 1.3532 8.33973e-19)
(-0.0175323 1.35275 -1.35773e-18)
(1.42273 -0.0170846 0)
(1.44236 0.0203186 0)
(0.769872 -0.000177581 0)
(1.45218 0.0253834 0)
(1.36319 0.0462298 0)
(0.761541 0.020307 0)
(1.30062 -0.00215357 0)
(1.31867 -0.00584867 0)
(0.695054 -0.000986419 0)
(0.304854 0.473401 -9.15197e-19)
(0.161357 0.242678 0)
(0.157154 0.308428 1.36934e-19)
(0.309588 0.585889 1.12212e-18)
(0.307402 0.548574 -6.64307e-19)
(0.156819 0.281897 1.29815e-18)
(0.278478 0.717689 2.18148e-18)
(0.14826 0.380847 3.93617e-19)
(0.636088 0.213093 1.53743e-18)
(0.625991 0.253603 3.99311e-19)
(0.31662 0.115045 7.49256e-19)
(1.92131 0.714633 -5.99658e-19)
(1.1677 0.336106 -7.0188e-19)
(-0.0351154 1.70328 4.64113e-19)
(-0.0114054 0.924888 0)
(1.6039 0.0239531 0)
(1.52191 0.0653727 0)
(0.852934 0.0268588 0)
(-0.00355883 1.38473 0)
(0.00507422 0.729574 2.49505e-18)
(0.00465033 0.731252 0)
(0.00207079 0.415097 -2.44209e-18)
(-0.0102751 1.38627 5.95637e-19)
(-0.00947265 1.4225 0)
(0.336546 0.488135 2.5795e-19)
(0.360035 0.546398 -8.62977e-19)
(0.171833 0.257816 7.81123e-19)
(-0.0256693 0.767468 -1.66256e-18)
(-0.0261518 0.689734 0)
(-0.0154343 0.412938 0)
(0.0302138 1.54815 -1.27077e-20)
(0.0314126 1.58081 -3.64887e-19)
(0.0178984 0.82266 -1.55905e-20)
(0.21334 1.04399 8.89957e-19)
(0.119641 0.508989 -5.9222e-19)
(0.0118695 1.48475 7.30537e-19)
(0.0558146 1.35072 -8.15357e-19)
(0.0268081 0.760332 3.53045e-20)
(0.0075136 1.36614 -3.80743e-18)
(-0.000214809 1.39326 4.40923e-18)
(0.00377339 0.829776 1.73286e-18)
(-0.0138288 0.805094 -1.72533e-18)
(-0.00430906 0.481399 -1.7385e-18)
(-0.0106511 1.41685 -4.49964e-18)
(-0.0152178 1.40032 4.58882e-18)
(0.286352 0.674767 0)
(0.299761 0.634607 -2.2876e-18)
(0.151932 0.331707 9.90303e-19)
(0.281196 0.795919 1.18496e-18)
(0.138795 0.427488 -1.82838e-18)
(2.057 0.322585 4.15825e-19)
(2.05156 0.547731 0)
(1.21866 0.220983 -4.01778e-19)
(-0.0738554 1.6353 -4.80143e-21)
(-0.0141237 1.69066 0)
(-0.0157164 0.921929 0)
(0.22706 0.944409 -3.22759e-19)
(0.248205 0.866426 -7.06836e-19)
(0.128791 0.463235 1.32466e-18)
(3.16442 -0.442872 0)
(3.34728 -0.414685 1.8128e-18)
(0.0622858 3.484 0)
(0.0488103 2.80788 0)
(3.15925 0.249915 1.4192e-20)
(3.12355 0.506296 3.71212e-18)
(0.0233324 3.43284 -2.74032e-20)
(0.00924656 2.66454 0)
(-0.0416465 1.19604 1.55494e-18)
(0.190062 1.31638 0)
(3.47261 1.62511 -3.24736e-19)
(3.17427 0.272573 -2.96098e-20)
(3.14838 -0.118696 0)
(3.10047 -0.000403989 3.73117e-22)
(0.0439251 2.59023 0)
(0.157499 3.30078 0)
(-0.0548984 2.53419 0)
(-0.0229893 3.48859 3.15764e-19)
(-0.0248294 3.56961 1.99242e-19)
(2.63343 0.0488317 -1.36492e-20)
(3.04751 0.031153 0)
(3.15792 0.0868409 0)
(-0.0509261 4.61736 0)
(-0.0457079 3.08363 0)
(-0.0717962 2.93563 0)
(0.65255 3.10593 2.65647e-19)
(3.33884 -0.422458 0)
(3.0114 -0.34581 0)
(3.1699 -0.0530368 2.2772e-18)
(3.2927 -0.3287 -2.742e-18)
(3.1038 -0.125776 0)
(-0.0567417 4.51556 0)
(0.0167475 3.93508 0)
(0.00866482 4.26577 0)
(-0.026535 3.09612 0)
(-0.012908 2.8514 0)
(-0.0304762 2.42436 0)
(2.97423 -0.00316936 0)
(2.85043 0.0486287 -1.805e-20)
(2.2469 3.04938 -3.21517e-19)
(3.15695 0.0444553 -2.27827e-18)
(3.19037 0.278179 2.76935e-18)
(3.0828 0.117338 0)
(3.3954 0.328926 2.08729e-18)
(3.35695 0.484366 -2.70655e-18)
(3.07111 0.418429 0)
(-0.0547851 3.34706 0)
(0.00572211 3.27714 8.51947e-20)
(-0.030299 2.57599 -6.0363e-20)
(3.70791 0.555319 2.26544e-18)
(3.47098 0.2085 0)
(-0.151983 1.27126 -2.16584e-18)
(-0.0624327 0.88216 -1.35029e-19)
(-0.0848375 1.33672 2.98547e-18)
(-0.0352361 1.27045 -8.99579e-19)
(-0.000495425 1.08841 0)
(-0.0266646 1.23955 6.94828e-19)
(-0.115054 1.38786 2.14646e-18)
(-0.0590497 1.34056 -1.31408e-18)
(-0.0767369 1.32063 0)
(1.28929 0.597216 0)
(1.17726 0.682381 0)
(3.55664 2.0295 9.53501e-19)
(3.04988 1.93599 -1.19056e-18)
(3.83773 1.70661 0)
(3.38427 1.15686 0)
(3.34934 0.280496 -3.91682e-18)
(2.89884 0.17312 4.83976e-18)
(3.35145 -0.155478 0)
(2.85479 -0.0761356 0)
(3.43642 0.0430264 0)
(3.5938 0.145057 0)
(3.28683 0.119875 0)
(3.55033 0.298581 0)
(3.40841 0.293059 0)
(3.32755 0.218074 0)
(0.0973192 2.79177 0)
(0.034352 2.0803 0)
(0.126601 3.05257 0)
(0.0927568 2.20636 0)
(0.214803 3.59387 0)
(0.140122 2.67395 -5.5856e-19)
(0.0533482 3.6102 0)
(0.0113269 3.01378 4.05607e-19)
(-0.0243924 3.20287 -5.17016e-19)
(-0.0589454 2.79884 0)
(-0.0228227 2.20143 0)
(-0.0718527 2.90652 0)
(-0.0554995 2.04942 0)
(-0.106633 4.74937 -2.45548e-19)
(-0.0790229 3.94064 2.7727e-19)
(-0.0742471 3.80146 3.09079e-19)
(-0.0526529 3.01569 0)
(-0.104347 3.803 -4.5867e-19)
(-0.0370488 3.21431 -2.9506e-19)
(-0.0807279 4.78174 1.92549e-19)
(-0.0932685 4.46498 -3.50463e-19)
(-0.0684977 4.33471 -3.78936e-19)
(3.03133 0.0883884 3.35858e-18)
(2.28959 0.0321829 -4.22975e-18)
(2.89131 0.132847 -3.3275e-18)
(2.20957 0.0734899 4.15625e-18)
(3.36858 0.0277285 0)
(2.64306 -0.00265037 0)
(3.45416 0.0913595 0)
(3.32025 0.0192919 0)
(2.70666 0.00922867 0)
(3.68031 0.239649 0)
(3.43884 0.0960067 0)
(2.8637 0.0565203 0)
(-0.0211608 4.3357 -1.20284e-20)
(-0.0539243 4.65345 0)
(-0.0592619 4.54936 0)
(-0.0746667 3.50454 8.77224e-20)
(-0.0373235 2.77794 -3.46545e-21)
(-0.0791619 4.67003 1.13469e-19)
(-0.0932578 4.45844 -1.14668e-19)
(-0.0770618 3.9562 0)
(-0.0552236 3.87635 0)
(-0.0187443 3.99307 0)
(-0.0707084 3.25652 0)
(-0.0425424 2.30132 0)
(0.948797 3.66237 -6.0866e-19)
(0.921321 2.85377 -1.76294e-19)
(0.430151 2.05248 -2.2816e-19)
(0.252138 2.29874 6.96868e-19)
(1.02341 4.19977 2.63796e-19)
(3.43308 -0.167421 0)
(3.32213 -0.256546 0)
(2.88327 -0.189515 0)
(3.47032 -0.0643456 0)
(3.34581 -0.147864 0)
(3.44893 -0.261022 0)
(3.5195 -0.283601 0)
(3.57949 -0.281129 0)
(3.22413 0.0933885 3.61887e-18)
(2.55519 0.0645187 -4.57601e-18)
(3.09649 0.106579 -3.56233e-18)
(2.50909 0.0566755 4.43253e-18)
(2.23999 3.41725 0)
(1.73981 2.94873 -4.45502e-19)
(2.56698 3.34912 -4.03134e-19)
(2.36969 2.52977 5.35808e-19)
(0.774431 1.21293 2.72203e-18)
(1.44675 0.216477 1.34313e-18)
(3.72257 0.304261 0)
(3.89315 0.572837 -1.84593e-18)
(3.29901 0.243965 -8.23372e-20)
(3.72079 0.440157 0)
(0.23658 1.31233 1.79595e-18)
(-0.0166632 1.20198 -2.87615e-18)
(0.058794 0.769958 1.61441e-18)
(0.275921 0.464893 -7.47787e-19)
(0.187229 1.38374 8.70931e-19)
(0.0506355 1.23716 0)
(0.0577289 1.08616 -1.1322e-18)
(0.191692 1.44296 -4.09184e-18)
(0.328971 1.55694 0)
(0.00867322 1.2902 1.19579e-19)
(-0.00971745 1.45729 -1.34015e-18)
(-0.0410144 1.30282 1.94829e-18)
(-0.0574434 1.41766 0)
(-0.0204758 1.38228 0)
(0.68104 1.04982 0)
(2.45666 2.45509 -1.06613e-18)
(2.64419 2.1739 3.95183e-19)
(2.79263 2.88274 0)
(3.21305 3.0678 -3.94532e-19)
(3.16605 2.41191 2.84644e-20)
(0.803634 0.5893 -1.82225e-18)
(1.55579 0.691427 -1.62182e-20)
(1.23284 0.45098 8.72096e-19)
(1.27492 0.843571 5.95012e-20)
(0.938725 0.633774 -2.36932e-18)
(1.46413 0.714106 0)
(1.98969 1.09966 1.45584e-18)
(2.03185 1.01561 0)
(1.41168 0.79063 0)
(1.06187 0.549634 0)
(3.37539 2.18023 1.00844e-18)
(3.94759 0.760951 -1.86326e-18)
(3.84793 1.21614 0)
(3.53388 0.757826 0)
(1.39131 0.364749 1.33241e-18)
(3.25791 1.84223 -8.51452e-19)
(2.83422 1.65438 1.54675e-18)
(3.75522 1.3771 -1.83578e-18)
(3.09793 0.114762 2.46389e-18)
(3.16856 0.180818 -2.57885e-18)
(2.66183 0.0916429 0)
(3.30731 -0.0394952 0)
(3.20141 -0.0842558 -2.36643e-18)
(2.63244 -0.0321093 2.34559e-18)
(3.95629 0.0932076 0)
(3.75968 0.145656 0)
(3.69369 0.155374 0)
(3.5883 0.204749 0)
(3.83261 0.0590326 0)
(3.72611 0.0522537 0)
(-0.0401066 2.51387 0)
(-0.0377252 2.0128 0)
(0.357069 3.99 -4.11328e-19)
(0.66294 3.33522 -1.59973e-19)
(0.259719 3.0293 -3.57923e-19)
(0.343887 2.5494 5.73309e-19)
(0.458354 4.01596 0)
(0.469937 4.67196 -5.09864e-19)
(0.383151 4.73037 0)
(0.911009 4.37508 -3.79477e-19)
(0.673011 3.81384 9.68754e-19)
(0.597274 4.65365 4.46927e-19)
(0.740867 4.20224 -1.87493e-19)
(0.602735 4.3276 1.50853e-19)
(0.916493 4.65779 -6.63726e-19)
(0.749896 4.66205 0)
(0.858553 4.58987 5.04509e-19)
(0.00713882 4.57161 -1.81142e-19)
(-0.0184898 3.64591 0)
(0.101612 4.28656 5.49619e-19)
(-0.00272956 4.38932 0)
(-0.0035769 3.45763 -4.51028e-19)
(-0.0152271 2.91104 0)
(-0.0998753 4.30932 -2.89128e-19)
(-0.105482 4.68185 0)
(-0.0528828 3.80709 0)
(-0.0397059 3.72935 3.2519e-19)
(-0.0468187 3.88689 1.03856e-20)
(-0.0345439 3.70807 6.25891e-19)
(-0.0410209 2.94829 4.0686e-21)
(-0.113418 4.71029 1.80195e-19)
(-0.102288 4.742 1.03222e-19)
(-0.0165694 2.62397 0)
(0.00135572 2.13608 0)
(-0.0412926 4.78941 4.86252e-19)
(-0.0481029 4.30989 4.23924e-19)
(-0.0826951 4.58565 -5.54172e-19)
(0.0165936 4.75853 0)
(-0.0773874 4.53492 -3.0897e-19)
(-0.116798 4.16818 1.27679e-19)
(-0.0840146 4.2488 -4.12854e-20)
(-0.0695667 4.72921 -2.18908e-19)
(-0.0848102 4.26985 -6.85609e-20)
(-0.0832458 4.21471 3.06659e-19)
(2.87142 0.061025 -2.36351e-18)
(2.85887 0.049708 2.27298e-18)
(2.3386 0.0345586 0)
(3.51009 0.192039 3.04648e-18)
(2.70367 0.126547 -3.30471e-18)
(2.25448 0.0644877 3.60952e-18)
(3.68247 0.335345 -4.01634e-19)
(3.20989 -0.0485196 0)
(3.17213 -0.0135466 2.23698e-18)
(2.69091 -0.0123739 -2.21934e-18)
(3.87877 0.122255 -1.25236e-19)
(3.77177 0.101865 1.07832e-18)
(4.15977 0.173504 0)
(4.22847 0.181164 -3.75127e-19)
(4.01369 0.145246 0)
(3.69489 0.155414 0)
(4.0323 0.0950919 0)
(3.71179 0.0873366 0)
(4.18472 0.113897 7.85491e-19)
(4.1372 0.0791461 -1.74789e-18)
(4.14067 0.113898 -8.47998e-19)
(4.1864 0.11654 -9.24476e-19)
(4.2157 0.229031 1.77404e-18)
(3.85475 0.188642 0)
(4.06128 0.301938 0)
(-0.0712243 4.58027 -1.35714e-19)
(-0.0314675 4.64454 -1.16768e-20)
(-0.064482 4.66101 0)
(-0.0540546 4.19654 1.38095e-19)
(-0.0523074 4.22429 2.25301e-20)
(-0.0572024 4.0923 -2.18355e-20)
(-0.0798012 3.52661 2.61163e-19)
(-0.142758 4.0066 -1.45146e-20)
(-0.101576 4.13399 7.47573e-20)
(-0.0737058 3.4026 -1.32265e-19)
(-0.0245252 2.92508 1.58401e-19)
(-0.0743925 4.42877 5.20817e-21)
(-0.0873287 4.64252 1.72218e-19)
(1.24338 4.36005 3.47394e-19)
(1.15954 4.52888 7.26042e-19)
(1.73679 3.46669 4.3079e-19)
(1.3088 3.56108 1.69472e-19)
(1.28656 2.88994 0)
(0.548341 2.31834 2.74861e-19)
(0.463453 1.74124 3.30655e-19)
(0.344963 2.5668 1.50899e-20)
(0.491935 3.17258 -1.1612e-18)
(0.631409 3.1316 8.76431e-19)
(0.432611 2.40398 0)
(0.293478 1.97154 -5.57211e-19)
(0.259703 3.07698 1.39457e-18)
(0.273226 2.71887 -3.13808e-20)
(0.157832 2.27563 -1.74784e-18)
(0.591326 1.41089 1.46325e-18)
(0.576259 1.61661 0)
(3.58364 -0.0751494 8.64328e-20)
(3.61861 -0.254101 -7.25962e-20)
(3.72135 -0.217712 -1.26654e-18)
(3.75927 -0.126019 1.28242e-18)
(3.67616 -0.0488553 0)
(2.44631 3.87162 0)
(2.61783 3.91471 0)
(2.88946 3.6256 0)
(2.73615 3.6427 0)
(0.854107 1.3943 -3.33965e-21)
(0.61144 1.03899 0)
(1.70882 3.38397 1.50205e-20)
(1.42071 3.46296 0)
(1.32633 2.95015 -1.28365e-18)
(1.40683 2.89287 8.24366e-19)
(1.79126 0.310396 0)
(1.43044 0.262016 3.52057e-19)
(2.41164 0.358828 2.19174e-18)
(1.78605 0.284835 -7.85411e-19)
(1.42631 0.112198 -2.49493e-18)
(4.26631 0.790103 -2.56542e-18)
(3.85196 0.995211 -3.6721e-20)
(3.2969 0.844636 2.06779e-18)
(3.87578 0.745472 1.81324e-18)
(3.12305 0.465688 -3.04498e-18)
(2.91021 0.452161 3.74981e-19)
(3.19248 0.682315 -8.18702e-19)
(2.97608 0.683405 0)
(3.75866 0.563994 1.53762e-18)
(4.09566 0.629407 0)
(4.09118 0.776482 0)
(4.04578 0.415928 8.23657e-19)
(4.29665 0.642594 -3.02467e-20)
(4.24946 0.715917 -4.5287e-19)
(4.17659 0.643301 0)
(3.61567 0.13042 1.71815e-18)
(4.19 0.183606 2.14417e-18)
(4.09068 0.151664 -1.67939e-18)
(4.13651 0.240883 -1.44283e-18)
(3.74573 0.23822 -2.15634e-18)
(3.30288 0.375969 0)
(3.40343 0.302413 0)
(2.55811 0.190651 -1.26603e-18)
(2.10846 0.119115 4.76759e-19)
(4.03722 0.352633 1.94031e-18)
(4.28774 0.432858 -2.34645e-18)
(4.28488 0.489488 2.06886e-18)
(4.15713 0.493544 0)
(4.25664 0.337314 0)
(4.26651 0.322401 -9.81925e-19)
(4.2143 0.316171 -1.59649e-18)
(2.22664 3.48714 6.20462e-19)
(1.93741 3.23075 -6.83338e-19)
(1.4456 2.35533 -1.03185e-18)
(1.1863 1.99619 2.66835e-19)
(0.883713 1.37807 -2.62857e-18)
(0.793623 1.21538 9.22091e-19)
(0.600738 0.903892 -1.97179e-21)
(1.11448 1.78464 -1.13781e-18)
(1.1418 1.88173 1.69853e-18)
(0.974308 1.70006 5.06054e-19)
(0.785907 1.28859 -5.1267e-19)
(0.635386 1.07436 0)
(2.44552 2.60674 -1.15432e-19)
(0.705143 1.14418 8.57206e-19)
(0.927717 0.889688 1.15615e-18)
(0.755247 0.813593 1.3377e-18)
(1.08307 0.746504 1.34112e-18)
(1.46687 1.04429 -2.27021e-18)
(1.3829 1.07118 1.83937e-18)
(1.00177 0.765493 -6.76733e-19)
(0.817013 0.567996 1.4946e-18)
(1.61548 0.49075 -7.78097e-19)
(1.55894 0.508323 0)
(1.23953 0.407331 4.60582e-21)
(2.50915 1.51587 7.75542e-19)
(2.07976 1.27013 -2.80853e-18)
(1.68661 1.18437 9.08706e-21)
(1.66067 1.09232 0)
(2.86202 2.59507 8.73779e-19)
(3.44675 2.7529 1.03744e-18)
(3.25577 2.93078 -1.19592e-18)
(3.5542 2.76345 -4.28371e-19)
(3.48429 2.60374 -1.34887e-19)
(3.51245 2.79518 1.3878e-19)
(3.67422 2.26705 -1.67938e-18)
(3.70518 2.4921 4.0073e-19)
(3.78367 2.43588 0)
(3.78446 2.19164 -5.79691e-19)
(4.04896 1.07333 5.80546e-19)
(4.27597 0.993184 1.00213e-18)
(4.30041 0.966892 1.01164e-18)
(4.05502 1.32936 -1.1496e-18)
(4.10288 1.34979 0)
(4.15252 1.23375 0)
(3.32766 1.23573 -1.56065e-20)
(2.4177 0.666489 0)
(2.72183 0.744042 9.30634e-19)
(3.23825 0.885952 -2.64566e-20)
(3.77287 1.53468 5.10734e-18)
(3.56978 1.7619 1.3111e-18)
(3.48091 1.54048 -1.34063e-18)
(3.03732 1.36977 1.4374e-18)
(2.76061 1.36964 8.23746e-19)
(2.30653 1.15588 -7.9778e-19)
(3.67221 -0.0855427 1.9846e-18)
(3.8947 -0.0289323 0)
(3.85894 -0.0665487 1.34205e-18)
(3.74291 -0.0594083 -2.9877e-18)
(3.98056 0.0373778 1.46195e-18)
(3.90444 0.113427 -3.0829e-18)
(3.73986 0.128036 0)
(3.55625 0.173471 -6.28537e-19)
(3.81197 0.122981 1.60525e-18)
(3.69195 0.191384 -8.22546e-19)
(3.6003 0.171079 5.90707e-19)
(-0.0801274 2.59227 0)
(-0.046687 3.39946 0)
(-0.0318677 2.46319 0)
(-0.0215504 1.97173 0)
(0.0463721 3.94198 6.70691e-19)
(0.140223 3.72343 -1.72949e-19)
(0.317351 4.64479 -2.29747e-19)
(0.253108 4.46212 2.42646e-19)
(-0.0246448 4.2948 -4.9758e-19)
(0.0123634 4.32686 3.73642e-19)
(0.0959506 3.87074 2.22697e-20)
(0.0100212 3.55818 -4.67114e-19)
(-0.0122323 3.30992 -6.22695e-20)
(-0.0389869 3.67216 -5.67427e-20)
(0.153366 4.47449 -5.86991e-19)
(0.178551 4.2879 0)
(0.275853 4.63479 2.96421e-19)
(0.269067 4.70951 2.52991e-19)
(0.595967 4.44422 -2.26027e-19)
(0.408117 3.77997 0)
(0.457262 3.62779 -1.11483e-18)
(0.55993 3.99666 7.89951e-19)
(0.48017 4.56173 -6.14814e-19)
(0.370568 4.43208 3.30777e-19)
(0.299514 4.15361 0)
(-0.0340991 4.76182 -5.5327e-19)
(-0.0739092 4.52638 -6.41478e-19)
(-0.0750317 4.73957 0)
(-0.0283377 4.35928 -6.248e-21)
(-0.0183942 4.64103 2.74275e-19)
(-0.117913 3.88273 4.47127e-20)
(-0.0548269 3.48735 -6.53881e-19)
(-0.0949215 3.92547 1.74206e-19)
(-0.134735 4.5184 2.32409e-19)
(-0.0753825 4.3288 0)
(-0.0591486 3.88745 0)
(-0.0818143 2.89914 2.00894e-19)
(-0.0471121 3.63276 -6.26876e-20)
(-0.0722765 3.62025 0)
(-0.0879076 2.68817 1.58174e-19)
(-0.0461851 2.1946 -3.06472e-19)
(3.76103 0.032349 0)
(3.7319 0.00775115 -2.03275e-19)
(4.1795 0.0679716 -1.43994e-18)
(4.08911 0.0463218 0)
(3.87634 0.0178325 0)
(4.14973 0.0370665 -1.25249e-20)
(4.1003 0.0349599 2.37892e-18)
(4.0001 0.0802225 2.84566e-18)
(3.75586 0.118678 0)
(3.55801 0.110063 0)
(4.01332 0.0939742 1.41747e-18)
(3.70324 0.11615 0)
(3.4721 0.128886 0)
(-0.0805839 4.69974 0)
(-0.106063 4.66822 1.06704e-20)
(-0.0764873 4.71986 6.29758e-20)
(-0.0602908 3.83308 0)
(-0.111678 4.53622 1.11262e-19)
(-0.0673847 4.24133 -6.33804e-20)
(-0.0535522 3.93038 0)
(1.41013 4.18553 0)
(1.20936 4.58048 -1.29806e-18)
(1.22467 4.48825 0)
(1.57397 4.48721 1.48445e-18)
(1.5933 4.12135 0)
(1.50167 4.37165 -6.06555e-19)
(1.01134 2.24242 -3.39462e-20)
(0.709073 1.64524 -1.74457e-18)
(0.590609 1.22738 2.12853e-18)
(0.708634 1.83477 3.96788e-19)
(0.974905 2.4239 0)
(1.03628 2.37899 0)
(0.718287 1.68716 0)
(0.532266 1.32998 -1.39514e-18)
(1.20861 3.77461 -9.83431e-19)
(1.12867 2.98863 -2.35489e-19)
(1.32677 3.40469 1.9259e-19)
(0.599181 2.04063 0)
(0.620129 1.94241 0)
(0.462169 1.57095 -3.92693e-19)
(0.957537 2.72018 0)
(2.68713 3.57099 0)
(2.38116 3.00847 -1.45455e-18)
(2.5458 3.02686 -8.58741e-20)
(2.41965 3.40427 0)
(2.28554 3.14927 2.22108e-18)
(3.27799 3.08682 -3.89697e-19)
(3.13406 3.32505 0)
(3.11646 3.15142 6.3044e-19)
(2.87043 3.41269 0)
(2.88192 3.20076 0)
(1.20912 2.0061 -9.30398e-19)
(1.4139 2.4031 -6.9951e-19)
(1.7534 2.98154 1.20597e-18)
(1.69558 2.95953 -3.62237e-19)
(1.06229 1.82204 0)
(1.20671 2.20825 4.71098e-19)
(0.718353 1.28857 -7.15182e-19)
(0.581567 1.04337 -5.6051e-22)
(1.93711 3.6955 0)
(2.19895 3.74286 -5.426e-19)
(2.33818 3.98623 0)
(2.28408 0.529021 0)
(1.61735 0.341911 0)
(1.20902 0.276588 0)
(2.20913 0.554268 -1.46522e-18)
(1.63528 0.402198 8.17224e-19)
(2.14561 0.129125 -9.85144e-19)
(2.6266 0.297533 0)
(2.46566 0.301649 4.13478e-19)
(1.76987 0.13572 1.63296e-18)
(1.53026 0.0812685 -1.03702e-18)
(0.745502 1.55584 8.58017e-19)
(0.959721 1.8203 0)
(0.537623 1.43997 1.56082e-18)
(0.523815 1.61477 -1.42519e-18)
(0.757129 1.81442 -9.88313e-19)
(2.07328 2.46255 1.33766e-18)
(2.09662 2.71194 0)
(1.58339 1.67803 -2.76338e-19)
(2.00959 1.98937 1.74502e-18)
(1.35978 1.29253 -4.23567e-19)
(1.58858 1.31339 4.50673e-19)
(2.10952 1.51319 1.02315e-18)
(2.44265 1.67094 0)
(2.27594 1.85605 0)
(2.00984 1.60598 0)
(3.95681 2.07991 3.8449e-19)
(3.7598 1.88979 -1.26352e-18)
(3.81721 2.02812 1.04674e-18)
(3.90106 1.77151 -1.0083e-18)
(4.15789 1.67392 0)
(4.11697 1.84113 -2.97828e-19)
(2.84044 1.16333 -1.89725e-18)
(2.9708 1.16344 -2.41295e-18)
(2.33195 1.04356 1.45639e-18)
(2.13824 0.934434 -1.4198e-18)
(2.46348 0.846177 -1.17809e-18)
(2.17855 0.776948 1.4488e-18)
(4.00845 0.0334775 -1.52886e-18)
(4.05276 0.0406917 3.13015e-18)
(3.76797 -0.0658793 1.90087e-18)
(3.79119 -0.0737699 -2.28674e-18)
(3.95955 0.0105764 0)
(4.05604 0.022881 -3.72975e-18)
(0.0966847 4.76154 1.06551e-19)
(0.0675082 4.73213 0)
(0.189544 4.73152 9.53548e-19)
(0.211115 4.74925 -8.67505e-19)
(0.231013 4.719 4.28458e-19)
(0.122017 4.65905 0)
(-0.100606 4.77126 0)
(-0.106412 4.40429 -6.18493e-20)
(-0.105314 4.33341 5.54373e-20)
(-0.114045 4.4824 7.18166e-21)
(-0.104729 4.72146 -1.01164e-19)
(-0.0818428 4.70909 5.50895e-20)
(1.87535 4.00957 -1.64323e-18)
(1.81632 4.01607 1.74016e-18)
(1.684 4.40658 -8.54235e-19)
(1.69272 4.2773 7.61234e-20)
(2.2527 4.0866 0)
(1.85458 4.22017 -6.35481e-19)
(1.98182 3.96001 6.16323e-19)
(1.82389 4.38108 8.34429e-19)
(2.07662 4.21938 0)
(2.22807 4.10037 0)
(1.13816 3.63063 1.49498e-18)
(0.826485 2.81108 2.0232e-18)
(0.9542 2.98945 -1.38952e-18)
(0.746413 2.97109 -2.31885e-19)
(0.90227 3.73017 4.66287e-19)
(0.721971 3.36267 -1.13396e-18)
(0.745639 1.46553 -1.2147e-18)
(0.746116 1.31675 0)
(0.602468 1.11435 -1.33513e-18)
(1.11076 2.06373 0)
(1.08772 2.15067 0)
(1.3584 2.19068 -1.09052e-18)
(1.06433 2.01404 -1.03594e-18)
(1.01669 2.03493 1.09862e-18)
(1.03096 1.51907 0)
(1.41017 1.76164 -6.01189e-19)
(1.62707 2.11883 -8.55394e-19)
(1.41061 2.08244 0)
(0.867682 1.8183 7.1241e-19)
(0.779598 1.67939 0)
(2.90587 2.28881 -1.84703e-18)
(3.31878 2.47055 2.60924e-18)
(3.27747 2.19306 -2.59333e-18)
(2.61015 2.02077 -2.31173e-19)
(2.72474 1.94025 -9.74131e-19)
(1.26169 2.18956 7.96113e-19)
(1.31582 2.24438 -1.35982e-18)
(1.45385 2.32933 1.79267e-18)
(1.79004 2.55932 -1.16516e-18)
(1.88861 2.93203 -1.56712e-18)
(1.56289 2.4884 -1.18794e-19)
(1.63262 2.62792 1.37117e-18)
(1.80972 2.69279 9.66107e-20)
(2.0176 2.9985 6.49959e-19)
)
;

boundaryField
{
    wall-4
    {
        type            noSlip;
    }
    velocity-inlet-5
    {
        type            fixedValue;
        value           uniform (3 0 0);
    }
    velocity-inlet-6
    {
        type            fixedValue;
        value           uniform (0 1 0);
    }
    pressure-outlet-7
    {
        type            zeroGradient;
    }
    wall-8
    {
        type            noSlip;
    }
    frontAndBackPlanes
    {
        type            empty;
    }
}


// ************************************************************************* //
