/*--------------------------------*- C++ -*----------------------------------*\
  =========                 |
  \\      /  F ield         | OpenFOAM: The Open Source CFD Toolbox
   \\    /   O peration     | Website:  https://openfoam.org
    \\  /    A nd           | Version:  9
     \\/     M anipulation  |
\*---------------------------------------------------------------------------*/
FoamFile
{
    format      ascii;
    class       surfaceScalarField;
    location    "20.45";
    object      phi;
}
// * * * * * * * * * * * * * * * * * * * * * * * * * * * * * * * * * * * * * //

dimensions      [0 3 -1 0 0 0 0];

internalField   nonuniform List<scalar> 
1300
(
11.2529
1.87548
-4.20544
11.2529
-4.97106
1.87548
-4.22953
4.22953
-1.18822
1.18822
5.71231
5.54055
-2.36998
2.36998
-2.81767
2.81767
-2.86047
2.86047
-1.06194
1.06194
-1.02826
1.02826
0.693348
-0.693348
-3.40593
3.40593
-1.45676
1.45676
-2.89768
2.89768
6.1281
-6.1281
-3.26075
3.26075
-0.744233
0.744233
-4.26321
15.5161
6.98965
6.98965
-2.3716
2.3716
-1.25399
1.25399
1.41034
-1.41034
9.11446
-9.11446
-4.90902
-5.92514
1.89918
-13.9792
-3.07188
-3.07188
-2.7054
2.7054
-0.829928
1.04555
3.47673
-3.47673
-0.758463
0.758463
-4.3162
0.0866676
-4.3162
4.01238
0.217151
4.01238
-1.32953
0.141309
-1.32953
4.67201
-4.67201
1.07651
0.111709
1.07651
3.92808
-3.92808
-5.71006
11.4224
5.5428
-5.32064
20.8367
-5.93222
11.4728
-3.91699
3.91699
-2.28629
-0.0836906
-2.28629
2.37138
-0.00139857
2.37138
-4.00863
4.00863
-2.60581
-0.211857
-2.60581
2.92011
-0.102442
2.92011
3.6661
-3.6661
-2.91645
0.0559811
-2.91645
2.70881
0.151656
2.70881
0.771042
1.10443
-2.64652
3.69207
-1.10443
0.0424987
1.02614
0.0357986
1.02614
-1.01454
-0.0137263
-1.01454
1.04984
-0.0215828
1.04984
0.730623
-0.0372741
0.730623
-0.754942
0.061594
-0.754942
-8.5789
-8.98385
-3.53398
0.128052
-3.53398
-1.47472
0.0179548
-1.47472
1.49299
-0.0362317
1.49299
-2.53715
2.53715
-3.23791
0.340227
-3.23791
4.80636
1.32174
4.80636
5.04612
6.20674
16.299
-16.299
10.1709
-2.97644
-0.284306
-2.97644
-3.43099
-5.68348
3.43099
-0.170238
-0.806069
0.0618363
-0.806069
5.62658
1.36307
5.62658
2.58667
0.12214
-2.58667
0.215072
4.6249
-4.6249
1.42359
0.948012
1.42359
-1.19153
1.19153
1.12338
-0.0735353
-1.12338
-0.130611
1.38601
0.024332
1.38601
-1.40975
-0.000595744
-1.40975
7.32437
-13.2495
-7.80762
3.21416
0.191767
-3.21416
0.14228
3.56344
-0.0867103
3.56344
-3.30977
3.30977
-3.61093
0.1342
-3.61093
-0.683279
-0.075184
-0.683279
0.843636
-0.0851737
0.843636
-4.56599
0.24979
-4.56599
-3.67705
0.439142
3.67705
0.335327
1.25378
-1.25378
-1.43729
0.107765
-1.43729
-4.65132
0.0853354
4.65132
0.0206902
-4.76732
0.0953034
-4.76732
-3.71249
0.101553
3.71249
0.215591
4.58933
1.03725
-4.58933
0.661257
-5.36948
11.5762
-5.88338
11.4262
-3.53299
-0.384004
-3.53299
4.10833
-0.191342
4.10833
2.56075
0.336937
-2.56075
0.274453
2.49864
-0.127255
2.49864
-3.95561
-0.0530238
-3.95561
3.80926
0.199373
3.80926
2.53971
-0.0410716
-2.53971
-0.0660996
2.89795
0.0221603
2.89795
3.67197
-0.0058741
3.67197
-3.53921
-0.126889
-3.53921
3.1791
-3.1791
3.08078
0.0983252
-3.08078
0.164328
-5.07402
5.07343
-0.00799943
-5.06602
1.01814
1.01814
0.769863
-0.0392404
0.769863
-0.861783
0.106841
-0.861783
8.33491
-16.1425
8.80586
-17.3848
7.52417
-21.5034
8.07442
-17.0583
3.82341
-3.82341
3.75431
0.0691049
-3.75431
0.220331
-1.45648
-0.0182341
-1.45648
-2.29835
-0.238802
-2.29835
2.87177
-0.334615
2.87177
-3.74213
3.74213
-4.1248
0.38267
4.1248
0.68156
2.96211
-0.0641653
-2.96211
-0.0143307
0.924741
0.151771
-0.924741
0.118672
4.86165
-0.236742
4.86165
-4.08433
-0.540576
-4.08433
-1.4753
0.0188205
1.4753
-0.0517147
-1.25894
0.0674145
-1.25894
-5.0745
0.00847758
-5.0387
-1.40127
-1.40127
1.30414
4.9962
-3.5855
0.0462877
3.5855
-0.0220519
3.52711
0.215025
-3.52711
0.217339
-3.26338
0.084277
3.26338
0.0463854
-0.660697
-0.0225821
-0.660697
-1.03714
1.03714
-0.919521
-0.117614
0.919521
-0.075885
1.41
-0.156224
1.41
1.47119
0.0218016
-1.47119
0.0338987
-5.00753
0.240215
-5.00753
4.11753
-0.00920188
4.11753
-3.94846
-0.135873
3.94846
-0.276484
-0.00372289
5.07715
-1.01441
-0.000120367
1.01441
-5.10148
5.10136
-0.666016
0.00531935
0.666016
0.103847
1.02965
0.161882
-1.02965
0.167862
3.84799
-0.0387309
-3.84799
0.0245762
-2.01539
-0.282964
-2.01539
-3.20077
-0.332215
3.20077
-0.329001
-5.11518
-0.0779408
5.19312
-5.13676
1.33688
0.0491265
-1.33688
5.15049
-1.14664
-0.107135
1.14664
-0.109505
1.60957
-0.199567
1.60957
5.1181
-0.256453
-5.1181
0.110569
-4.13233
0.176717
4.13233
-0.0147928
-1.78188
-0.233506
1.78188
-0.172316
-13.1281
14.4911
7.70866
-6.29141
-6.95809
-11.9749
4.44711
7.12912
14.618
-11.7677
-9.73568
-11.6254
2.86007
-2.6922
-3.72925
3.69197
23.5782
-23.4829
-18.3992
19.0808
20.777
-20.5614
5.70884
5.71352
15.7927
-15.8764
-20.9776
20.5936
15.3663
-15.5782
22.0966
-22.1496
-25.8311
25.7924
-16.094
16.15
-20.2935
20.1666
-21.056
20.7795
-8.31631
-9.06845
16.4818
-16.3538
20.0423
-20.3266
-19.313
19.6532
10.0475
4.4436
11.0848
-6.24674
11.9556
-5.22604
12.9347
8.32779
-16.6441
7.81474
-14.7728
9.08301
10.9593
-8.91277
-3.06211
-17.9697
17.883
-17.2573
17.3036
24.0845
-23.9979
-6.17283
11.8863
-5.25335
12.3825
-11.409
-6.99023
10.0873
4.53072
8.95859
7.52325
-9.15035
-2.47507
-24.7929
24.5365
-25.6566
25.116
0.10003
2.42604
-2.52607
1.35402
-0.862493
3.28853
1.99757
2.10441
2.4527
-2.29082
0.239506
-2.76557
-2.89618
-5.34445
5.45222
5.16182
-5.05011
16.5311
7.04704
16.5518
-16.7417
-6.74117
-16.5015
11.3638
7.71704
11.7464
12.0616
8.71537
12.1632
10.359
-10.3317
-0.0273546
-11.4776
21.8367
1.55467
-18.4679
-13.9371
8.81321
6.97949
8.81181
-9.85091
-6.02549
-9.57645
-11.0617
-9.91591
-11.3939
12.3699
8.22362
12.1786
-15.3627
15.3479
9.27085
6.09547
9.16841
-8.94538
-6.6328
-9.01148
27.4825
-6.65489
-20.8276
-13.2053
-12.6258
13.0059
9.09068
14.3422
11.4501
14.3668
8.90463
18.5779
-17.9953
5.36949
-9.94757
-6.14644
-9.78325
9.25907
6.89093
9.41072
-11.7664
-8.52709
-11.7201
-11.9862
-9.0698
11.9921
8.17452
-12.5331
-13.1236
12.6689
8.1106
7.85027
-17.5859
9.208
-18.2765
-10.9502
-5.40362
-10.7298
10.8107
6.64336
-17.454
-5.83343
23.6684
-12.7091
20.6063
-10.9182
-9.40846
-10.9325
-14.7521
-4.56088
-14.313
-8.02252
7.73955
-8.86099
8.52638
26.9134
-16.2401
-10.6733
-12.3783
-8.18304
11.7171
-0.632317
-12.8358
12.8084
-0.880208
12.0545
16.4981
15.8658
-10.8803
-6.37692
-10.663
10.2705
7.03318
10.3547
16.065
8.01949
16.2822
-16.793
-7.20488
-16.5432
4.85036
-4.92554
5.71534
-5.69652
15.5763
9.53973
-15.3396
-9.45337
22.9337
-10.7758
-12.1579
-5.12032
5.21694
-0.0966185
-1.83179
-0.47777
0.266463
-1.93141
-1.79784
1.86981
0.234601
5.45154
3.6537
-2.41436
2.48177
2.77876
2.70523
-0.190956
2.50252
-2.4972
18.9222
-11.4481
-7.47414
13.9536
-13.8682
-2.58961
-19.3177
16.7281
2.68359
3.00683
-2.94499
-3.95089
-1.39356
-3.91699
2.95495
2.20687
3.10672
2.10839
3.34383
-8.11025
1.56497
6.54528
-6.00186
-3.48514
-13.3479
-6.27553
19.6234
16.6725
7.86394
-16.7831
0.281616
5.29561
-5.33185
-1.59439
-11.7535
8.3574
-9.95178
-15.2219
-6.45913
21.6811
-9.58084
-1.08216
9.36581
2.38061
-10.8772
-7.09249
10.743
1.42018
-12.0644
23.9708
-11.9064
-18.4414
8.51582
13.3208
16.2329
-17.8628
9.31881
8.54396
-4.54193
7.40755
1.40426
7.28029
-19.8744
13.849
11.2763
8.37691
-11.6133
2.0368
-17.8376
25.1568
-22.2716
-2.88516
12.8132
12.3436
13.5841
13.3293
-7.8129
21.397
-3.61334
-18.6583
21.451
-13.0741
15.7754
-28.8494
-29.1047
10.4464
-17.9976
22.1034
-4.10576
-5.21212
-10.1506
23.2097
-2.01883
-21.1909
10.1598
-13.93
-11.8231
25.7531
-20.5849
18.4559
-6.26995
-12.186
-12.7006
-9.44905
12.5239
2.82402
-25.8442
31.2137
-7.26633
7.80924
1.35917
7.8314
10.6171
-15.9663
5.34923
9.9678
-16.2377
6.77144
-22.7377
-12.165
24.1709
-12.0059
-17.5686
-15.8023
-1.76629
4.85666
26.357
-16.3068
12.0962
4.2106
8.46211
1.89263
-8.56043
-1.22281
0.968633
16.0879
-17.0565
10.3794
10.5015
11.7067
4.38119
10.77
7.11298
-10.7479
-0.972205
-14.7922
5.72239
-6.61767
-14.573
20.2954
-16.2677
1.6947
-10.3031
-13.9912
24.2944
-16.4496
11.4257
12.5451
18.4589
-19.615
5.62379
-9.7467
-9.86833
10.6439
-17.2616
7.49741
12.7979
15.608
2.48446
12.757
11.4139
-19.4004
1.12391
18.9371
-16.462
3.902
10.4648
-15.9982
0.195911
-10.5339
2.64088
-15.3499
-14.8131
16.5124
-21.0733
-12.3371
13.5256
2.75657
-13.8609
-0.452035
-4.97332
-3.0492
-5.20682
-3.29217
-5.56882
-11.1051
-1.93193
-9.17314
5.80762
-6.71683
-4.67704
7.04583
1.48055
-4.95026
4.84312
-5.59977
5.4002
-0.210197
13.0186
15.6556
7.47253
-8.47669
15.9492
-15.5898
23.6093
-29.7188
14.1291
15.952
-23.1569
-13.7668
2.70673
2.14362
2.62156
13.4838
-14.4394
0.955599
-13.3062
17.6437
-4.33747
-19.6283
6.3221
-6.14447
5.18859
0.526755
5.17035
1.41705
6.84726
-8.26431
-4.27947
-4.33119
-9.16183
-13.859
23.0208
4.73856
-13.1063
8.36771
-12.066
16.8045
0.0805777
-13.1869
16.9888
-10.1415
17.5155
-11.9854
5.53014
12.7921
22.3487
-9.55656
16.2468
-6.70703
7.06561
-16.6222
-6.7934
-11.2891
18.1801
-13.0052
14.6999
-1.12351
15.8235
-13.7791
3.00335
-2.07243
8.42906
8.64414
16.809
-12.4278
11.9711
-18.6781
-4.65111
-16.1936
-3.39569
1.03062
-13.8417
12.8111
12.0705
-11.0399
-3.24634
9.00151
-5.75517
5.69195
-2.85175
-2.8402
-1.84955
-3.07599
1.87213
0.63039
6.32234
0.49044
-3.34219
-2.00676
-1.90291
10.3807
8.54151
-3.83654
3.73992
3.57008
-0.563253
0.959529
2.14719
4.59263
-3.6331
0.679128
3.9135
-2.26586
3.82985
1.46576
-3.85165
-0.0653368
-3.40922
11.7666
3.13606
-5.34293
1.70983
2.37738
-13.8254
19.7442
-11.4212
-8.32302
22.1216
3.05689
-14.478
16.2608
-13.5772
8.09866
-14.3742
-6.37938
-19.9566
-12.9096
-10.7119
19.0797
-12.3089
20.1728
3.85772
-20.4545
24.3122
-12.7431
6.28396
-9.44806
10.9138
-4.06146
-5.3866
11.2702
10.4108
-11.0555
-0.698078
0.214761
8.42514
-8.21038
-1.52664
-7.52851
-16.4088
17.829
-8.25581
17.5746
7.69341
-7.63391
25.2085
6.56507
-14.199
-11.8763
-12.9585
-5.65502
10.5778
-1.79877
-7.21271
-13.9847
7.25378
0.0265118
-19.0247
22.0203
-2.99558
-12.0452
-1.80378
14.6169
-18.08
1.84223
-11.3085
10.7117
12.116
12.1425
-20.8864
-0.304518
-12.6628
3.18306
-15.8458
15.5267
-6.81538
17.2618
-16.0621
11.3851
-14.5816
14.3766
-1.4692
14.7496
-9.40037
6.07798
-15.527
-12.703
14.4583
-8.36283
15.8175
-10.1239
25.9414
-17.3903
14.4162
11.5252
-2.72543
-8.20707
-13.9763
11.2509
0.439835
8.27124
17.837
-10.724
16.8648
8.92386
-18.6706
-8.33769
-25.8597
7.18916
-13.3146
-7.35643
14.5456
11.1025
12.9951
4.67726
-11.7723
17.7947
-19.561
-5.7888
-9.02434
14.591
-3.34012
10.1674
-19.1917
-5.18256
13.1167
-0.178356
-12.9384
3.12337
-15.4604
5.11732
-20.5778
15.9559
-16.408
1.77584
-7.92031
-3.17442
-3.28393
-2.18055
-3.41922
-7.58978
5.40923
-1.26768
3.57545
-12.548
12.3696
-5.09572
10.5049
-4.07247
-1.13435
4.24478
1.15542
11.6604
3.03606
-16.8029
-9.27056
14.6413
-5.3707
1.11013
-10.8056
3.83561
8.09267
14.0289
-24.8208
1.66389
-15.139
-4.07991
6.22353
4.92161
16.9921
2.55265
6.56614
-0.342606
9.11878
2.27895
2.20307
-11.238
12.1936
1.57313
15.7022
-1.88334
7.41348
3.28701
3.30497
2.02688
5.72358
2.92055
8.72693
0.462622
-3.86857
2.0695
-3.97242
-1.27269
-4.01166
-0.319686
3.72832
-4.048
10.509
-1.96744
5.13825
-1.88809
-4.93946
6.82755
-9.36223
-5.50272
-1.58922
-5.61318
7.32301
6.15344
-5.73379
-3.62844
2.39579
-15.3054
11.9784
-12.6765
-2.26564
22.0465
-9.4668
1.25642
-3.18284
-6.27208
-7.66565
7.73098
24.19
1.01857
12.2836
18.8475
11.755
1.03104
12.0013
-16.1071
-10.7364
-16.4116
-0.884952
13.732
5.63646
20.7206
17.1617
13.8216
-5.37015
-24.9312
20.7486
-8.555
16.4111
-3.47271
-17.1051
14.625
8.9843
-17.3815
0.97356
-16.1315
-24.6865
-0.33897
12.7086
-11.3214
10.187
7.13784
2.0353
-2.43136
-0.852561
2.54898
-0.34591
8.77287
-0.187157
-8.20573
8.39289
-3.54116
2.26848
-0.433892
4.17381
6.39366
4.42622
-3.77951
-7.82751
-8.82575
-4.99968
-17.1488
2.47468
-8.62812
5.68969
-3.42122
2.8495
4.97167
10.1099
-1.60057
-9.43929
7.35574
-4.50624
5.60368
)
;

boundaryField
{
    wall-4
    {
        type            calculated;
        value           uniform 0;
    }
    velocity-inlet-5
    {
        type            calculated;
        value           uniform -11.2529;
    }
    velocity-inlet-6
    {
        type            calculated;
        value           uniform -1.87548;
    }
    pressure-outlet-7
    {
        type            calculated;
        value           nonuniform List<scalar> 8(4.20544 4.97106 10.8342 12.08 17.5627 15.132 17.1408 15.5986);
    }
    wall-8
    {
        type            calculated;
        value           uniform 0;
    }
    frontAndBackPlanes
    {
        type            empty;
        value           nonuniform List<scalar> 0();
    }
}


// ************************************************************************* //
