/*--------------------------------*- C++ -*----------------------------------*\
  =========                 |
  \\      /  F ield         | OpenFOAM: The Open Source CFD Toolbox
   \\    /   O peration     | Website:  https://openfoam.org
    \\  /    A nd           | Version:  9
     \\/     M anipulation  |
\*---------------------------------------------------------------------------*/
FoamFile
{
    format      ascii;
    class       volVectorField;
    location    "29.1";
    object      U;
}
// * * * * * * * * * * * * * * * * * * * * * * * * * * * * * * * * * * * * * //

dimensions      [0 1 -1 0 0 0 0];

internalField   nonuniform List<vector> 
918
(
(2.47629 -0.138943 0)
(0.108704 0.722546 0)
(0.171731 1.05385 0)
(2.31834 0.153728 0)
(-0.0598109 1.27058 -1.2225e-19)
(-0.0924034 0.643931 -5.31395e-18)
(0.529997 0.849573 -2.95422e-19)
(0.27432 0.152872 -2.98852e-20)
(3.00615 -0.0195607 0)
(-0.00824528 0.476843 0)
(-0.0172022 0.589329 0)
(0.605213 0.0067661 0)
(0.0107054 0.439105 0)
(-0.00288246 0.421689 0)
(0.0134389 0.34082 -1.30518e-18)
(-0.0047252 0.769005 -9.20752e-20)
(0.312401 0.0742692 2.15217e-18)
(0.0797407 0.642388 -2.23022e-19)
(1.52884 0.128628 0)
(-0.026725 0.685227 0)
(0.194589 0.157721 -1.26558e-18)
(3.08302 -0.397373 0)
(2.92445 -0.50598 0)
(1.86116 -0.1811 0)
(0.511385 0.0400858 0)
(-0.0253685 0.52155 0)
(-0.00135313 0.494038 1.86244e-18)
(-0.022551 1.40027 0)
(0.0744729 2.88378 0)
(0.168121 1.73646 0)
(-0.0386696 3.16542 0)
(0.0271183 1.64014 9.39987e-20)
(0.0232699 0.68669 0)
(-0.147425 0.775094 -2.03091e-22)
(-0.193914 1.0291 4.42134e-18)
(-0.0415772 1.04471 0)
(0.744578 -0.00600505 0)
(0.16101 0.246317 6.65566e-19)
(0.993461 1.51297 6.5294e-19)
(0.649916 0.784335 -5.1608e-19)
(0.798567 1.57508 6.20134e-20)
(0.416786 0.851332 -3.20187e-19)
(0.552318 0.306561 2.93917e-20)
(0.296966 0.153644 0)
(0.962982 0.566558 0)
(0.532598 0.303944 1.32017e-19)
(0.257973 0.162788 -1.35469e-19)
(0.871596 -0.0554787 0)
(3.02784 -0.00170481 0)
(3.00685 0.0178656 0)
(3.20086 -0.417733 0)
(3.04288 -0.0742117 0)
(3.03116 -0.0388406 0)
(0.0186285 0.903342 -1.1464e-18)
(-0.0542487 0.974072 0)
(0.00283767 0.454994 0)
(-0.0291211 0.981109 0)
(-0.0113881 0.481182 0)
(-0.00133401 0.870296 0)
(-0.0520762 1.11061 0)
(-0.0125522 0.54166 0)
(-0.0253314 1.16192 0)
(-0.00591592 0.621563 0)
(0.790477 0.0116241 0)
(1.16942 -0.001562 0)
(0.618249 0.0123697 0)
(1.12578 0.0175986 0)
(0.569761 0.00867926 0)
(0.225406 0.921982 1.95981e-18)
(0.0985379 1.2081 0)
(0.176302 1.06604 0)
(0.0331901 0.755774 2.19934e-23)
(0.0372233 0.498055 -2.93106e-18)
(0.0194616 0.747943 0)
(0.00595421 0.422033 0)
(-0.000695322 0.734548 4.51748e-24)
(0.000702477 0.414825 0)
(-0.0169204 0.74318 0)
(-0.0129373 0.42798 0)
(0.0494388 0.649987 0)
(0.0484415 0.458232 0)
(0.00800709 0.621955 1.23402e-18)
(0.000745655 0.344905 0)
(-0.0687491 4.69211 0)
(0.00889494 1.45869 9.14116e-20)
(-0.0104886 0.785757 -1.17685e-19)
(0.636092 0.152148 -7.50957e-19)
(0.321616 0.0656849 -7.28718e-19)
(0.644798 0.169724 -2.25469e-18)
(0.317535 0.0955718 -1.45158e-18)
(0.0785559 0.61852 0)
(0.178511 1.31355 1.84942e-19)
(0.17968 0.730113 -2.9508e-19)
(2.06031 0.260946 0)
(1.10704 0.11845 0)
(3.03313 0.103887 0)
(3.10392 0.446059 0)
(2.83919 0.377459 -1.01279e-17)
(2.5781 0.361309 7.77134e-18)
(-0.070688 1.26261 0)
(-0.011356 0.622963 0)
(-0.0140366 1.89996 0)
(-0.050706 1.34612 0)
(-0.0480284 0.678835 0)
(0.44032 0.295635 4.0068e-19)
(0.225468 0.163362 0)
(2.2961 -0.266393 0)
(1.32372 -0.119273 0)
(1.07633 0.0126685 0)
(1.01199 0.0187647 0)
(0.540925 0.0108509 0)
(1.01986 0.0563982 0)
(0.82122 0.0703261 0)
(0.343624 0.0286957 3.36304e-18)
(-0.00543506 0.451601 1.77352e-18)
(-0.0270314 0.784628 0)
(-0.047318 0.847508 0)
(-0.015274 0.460436 0)
(0.000132483 0.839725 1.81599e-18)
(7.30022e-05 0.48753 0)
(-0.0054789 0.845554 -5.59037e-18)
(-0.00488634 0.496761 1.88635e-18)
(0.0540767 3.56551 0)
(0.0425265 4.02483 0)
(-0.0162959 1.4112 -2.05239e-21)
(-0.0131171 1.36358 0)
(-0.00982806 0.741681 0)
(1.41018 0.0348842 0)
(0.760549 0.0154386 0)
(0.709515 0.0142643 0)
(1.41618 -0.0328483 0)
(0.773515 -0.00873979 0)
(0.322076 0.480377 -8.35643e-19)
(0.156814 0.232732 0)
(0.32498 0.509199 9.36514e-20)
(0.163371 0.268449 0)
(1.2407 1.38674 1.66478e-19)
(0.778633 0.740788 -3.92491e-19)
(0.411532 1.42185 0)
(0.607087 1.53376 0)
(0.303495 0.814641 0)
(0.145345 0.353411 -4.42867e-19)
(0.607315 0.280723 0)
(0.313515 0.13464 3.9883e-19)
(1.42724 1.30663 0)
(1.58661 1.16847 0)
(0.874863 0.663872 4.61781e-19)
(1.73385 0.953055 0)
(1.06856 0.438758 2.32211e-20)
(1.47298 0.00813839 0)
(1.501 -0.0292391 0)
(0.801896 -0.00441623 0)
(1.95042 -0.199779 0)
(1.65082 -0.14818 0)
(1.05215 -0.0889697 0)
(3.06126 0.164853 0)
(3.03105 0.0687874 0)
(3.01022 0.0531594 0)
(0.0357353 1.60618 6.08281e-19)
(0.0178856 0.827277 0)
(0.0179952 1.69698 1.07989e-18)
(0.00305715 0.939281 -9.70859e-19)
(0.0646815 1.15203 1.87858e-19)
(0.0477008 0.988905 0)
(0.040185 0.528553 0)
(-0.028649 1.00509 0)
(-0.0069768 0.517306 0)
(0.0181271 1.61648 -4.4334e-21)
(-0.0180895 0.866062 0)
(-0.0539538 1.58509 -2.25815e-19)
(-0.0161599 0.821258 4.37344e-19)
(-0.00177445 1.02932 0)
(0.0102667 1.04351 0)
(5.64223e-05 0.531341 0)
(0.0106684 1.17037 0)
(0.000901512 0.612063 0)
(1.46831 -0.00370421 0)
(0.789215 0.00805946 0)
(1.44055 0.0331658 0)
(0.761791 -0.000557679 0)
(0.675383 0.00534446 0)
(1.26196 0.016682 0)
(1.20239 0.0473081 0)
(0.659692 0.0155559 0)
(-0.00580052 1.42077 -1.70209e-20)
(0.000184321 1.37708 0)
(0.00482012 0.732923 0)
(0.00172892 0.417221 0)
(0.284451 0.828783 0)
(0.253628 0.39975 -2.87142e-19)
(-0.00223118 0.63541 0)
(-0.00889673 0.367611 0)
(0.0108129 4.3374 0)
(-0.049618 4.66436 0)
(-0.0190591 4.56592 0)
(-0.0724558 3.36826 2.04431e-20)
(-0.0587118 4.60347 0)
(-0.052496 4.18064 0)
(0.00482812 0.81954 1.08045e-20)
(0.0142125 1.56325 1.65413e-19)
(-0.0358933 1.50368 1.2091e-19)
(-0.0074605 0.826333 0)
(0.664435 0.105709 1.15331e-18)
(0.325687 0.0441636 -1.13026e-18)
(0.149707 1.13359 0)
(0.10097 0.573501 -2.6926e-19)
(0.11818 1.23349 -8.74386e-19)
(0.0518828 0.68729 8.69885e-19)
(0.809202 0.0240635 0)
(1.55677 0.0476795 0)
(1.7097 0.127652 0)
(0.919845 0.0445228 0)
(0.00790129 1.18156 0)
(0.0258246 1.18964 0)
(0.00449038 0.627536 0)
(0.482119 0.315087 1.20363e-18)
(0.436854 0.309088 -1.38671e-18)
(0.234771 0.164177 0)
(1.93549 0.152997 1.15242e-19)
(1.13641 0.0932491 0)
(1.72435 0.118442 0)
(0.883724 0.0226944 0)
(0.678178 0.0857391 0)
(0.699719 0.04606 -5.40764e-18)
(0.34673 0.0325965 1.99906e-18)
(0.00914727 0.807284 1.69369e-18)
(0.00222277 0.46251 4.08166e-20)
(-0.0108777 1.40842 -3.58007e-20)
(0.00613616 1.38675 1.36588e-18)
(-0.0149832 0.848955 6.29442e-20)
(-0.0119261 0.524486 -2.52908e-22)
(-0.107514 1.00068 -1.16489e-18)
(-0.0529602 1.3532 8.33999e-19)
(-0.0175323 1.35275 -1.35777e-18)
(1.42273 -0.0170848 0)
(1.44236 0.0203183 0)
(0.769871 -0.000177761 0)
(1.45218 0.0253833 0)
(1.36319 0.0462297 0)
(0.761541 0.020307 0)
(1.30062 -0.00215372 0)
(1.31867 -0.00584883 0)
(0.695055 -0.000986532 0)
(0.30487 0.473425 -9.15252e-19)
(0.161364 0.242689 0)
(0.157166 0.30845 1.36944e-19)
(0.309612 0.585932 1.1222e-18)
(0.307423 0.548611 -6.64354e-19)
(0.15683 0.281915 1.29824e-18)
(0.278508 0.717763 2.18166e-18)
(0.148277 0.380885 3.93652e-19)
(0.636097 0.213096 1.53749e-18)
(0.626001 0.253607 3.99327e-19)
(0.316624 0.115047 7.49286e-19)
(1.92126 0.714606 -5.9971e-19)
(1.16767 0.336095 -7.01933e-19)
(-0.0351022 1.70404 4.64174e-19)
(-0.0114028 0.925314 0)
(1.60389 0.0239514 0)
(1.5219 0.0653718 0)
(0.85293 0.0268581 0)
(-0.00355882 1.38473 0)
(0.00507421 0.729574 2.49514e-18)
(0.00465033 0.731252 0)
(0.00207079 0.415097 -2.44218e-18)
(-0.0102751 1.38627 5.9566e-19)
(-0.00947265 1.4225 0)
(0.336562 0.488157 2.57965e-19)
(0.360051 0.54642 -8.63027e-19)
(0.171841 0.257826 7.81168e-19)
(-0.0256694 0.767468 -1.66264e-18)
(-0.0261516 0.689734 0)
(-0.0154342 0.412938 0)
(0.0301775 1.5489 -1.27194e-20)
(0.0313877 1.58155 -3.64913e-19)
(0.017897 0.823052 -1.55928e-20)
(0.213391 1.04417 8.90051e-19)
(0.119665 0.509064 -5.92283e-19)
(0.0118896 1.48522 7.30631e-19)
(0.0558577 1.35111 -8.15461e-19)
(0.0268308 0.760552 3.53081e-20)
(0.00751352 1.36614 -3.80759e-18)
(-0.000214872 1.39326 4.4094e-18)
(0.00377339 0.829776 1.73293e-18)
(-0.0138289 0.805094 -1.7254e-18)
(-0.00430906 0.481399 -1.73856e-18)
(-0.0106511 1.41685 -4.49981e-18)
(-0.0152178 1.40032 4.589e-18)
(0.28638 0.67483 0)
(0.299788 0.63466 -2.28777e-18)
(0.151946 0.331734 9.90378e-19)
(0.281234 0.796012 1.18507e-18)
(0.138815 0.427537 -1.82855e-18)
(2.05697 0.322576 4.15849e-19)
(2.05152 0.547714 0)
(1.21864 0.220978 -4.01803e-19)
(-0.0738848 1.63612 -4.80185e-21)
(-0.0141104 1.69146 0)
(-0.015706 0.922389 0)
(0.2271 0.944551 -3.2279e-19)
(0.248242 0.866541 -7.06904e-19)
(0.128812 0.463295 1.32478e-18)
(3.16442 -0.442872 0)
(3.34728 -0.414685 1.81285e-18)
(0.061764 3.48355 0)
(0.0485352 2.80732 0)
(3.15925 0.249915 1.4192e-20)
(3.12355 0.506296 3.71221e-18)
(0.0228617 3.43312 -2.74356e-20)
(0.00902537 2.66493 0)
(-0.0416455 1.19604 1.55501e-18)
(0.190075 1.3164 0)
(3.47255 1.62506 -3.24762e-19)
(3.17427 0.272573 -2.96098e-20)
(3.14838 -0.118697 0)
(3.10047 -0.000404054 3.73111e-22)
(0.0439706 2.58942 0)
(0.157668 3.30174 0)
(-0.0548418 2.53301 0)
(-0.0229475 3.49002 3.15782e-19)
(-0.024888 3.57102 1.99262e-19)
(2.63344 0.0488304 -1.36492e-20)
(3.04751 0.0311515 0)
(3.15792 0.0868383 0)
(-0.0518137 4.61749 0)
(-0.0458883 3.0847 0)
(-0.0719684 2.93457 0)
(0.652501 3.10534 2.65724e-19)
(3.33884 -0.422458 0)
(3.0114 -0.34581 0)
(3.1699 -0.0530368 2.27726e-18)
(3.2927 -0.3287 -2.74207e-18)
(3.1038 -0.125777 0)
(-0.0575487 4.51543 0)
(0.0161121 3.93455 0)
(0.00787352 4.26551 0)
(-0.0267765 3.0951 0)
(-0.0131703 2.8507 0)
(-0.0305742 2.42348 0)
(2.97422 -0.00316987 0)
(2.85043 0.0486283 -1.805e-20)
(2.24678 3.04915 -3.21585e-19)
(3.15695 0.0444552 -2.27833e-18)
(3.19037 0.278179 2.76942e-18)
(3.0828 0.117338 0)
(3.3954 0.328926 2.08735e-18)
(3.35695 0.484366 -2.70663e-18)
(3.07111 0.418429 0)
(-0.0550923 3.34806 0)
(0.00532514 3.27778 8.52335e-20)
(-0.030462 2.57675 -6.03951e-20)
(3.70788 0.555306 2.26556e-18)
(3.47097 0.208494 0)
(-0.151981 1.27126 -2.16594e-18)
(-0.0624297 0.882159 -1.35035e-19)
(-0.084832 1.33672 2.98562e-18)
(-0.0352328 1.27045 -8.99621e-19)
(-0.000492348 1.08841 0)
(-0.0266646 1.23955 6.94859e-19)
(-0.115053 1.38786 2.14656e-18)
(-0.0590489 1.34056 -1.31414e-18)
(-0.0767372 1.32063 0)
(1.28932 0.597226 0)
(1.1773 0.682397 0)
(3.55659 2.02944 9.53581e-19)
(3.04979 1.93591 -1.19066e-18)
(3.8377 1.70656 0)
(3.38421 1.15683 0)
(3.34934 0.280495 -3.91694e-18)
(2.89884 0.17312 4.83991e-18)
(3.35145 -0.155479 0)
(2.85479 -0.0761358 0)
(3.43642 0.0430262 0)
(3.5938 0.145057 0)
(3.28683 0.119875 0)
(3.55033 0.298581 0)
(3.40841 0.293059 0)
(3.32755 0.218074 0)
(0.0974143 2.79084 0)
(0.0344126 2.07947 0)
(0.126676 3.05169 0)
(0.0927363 2.20566 0)
(0.215001 3.59474 0)
(0.140208 2.67472 -5.58619e-19)
(0.0535027 3.61119 0)
(0.0114469 3.01491 4.05653e-19)
(-0.0243298 3.20414 -5.17066e-19)
(-0.0589378 2.79753 0)
(-0.0227776 2.20023 0)
(-0.071805 2.90521 0)
(-0.0554781 2.04845 0)
(-0.106465 4.74987 -2.45556e-19)
(-0.0790643 3.94204 2.7727e-19)
(-0.0742284 3.80289 3.09094e-19)
(-0.0526571 3.01733 0)
(-0.104387 3.80441 -4.58721e-19)
(-0.0370893 3.21594 -2.95087e-19)
(-0.0806058 4.78226 1.92569e-19)
(-0.0932521 4.46604 -3.50464e-19)
(-0.0684256 4.33576 -3.78953e-19)
(3.03134 0.0883865 3.3587e-18)
(2.2896 0.0321823 -4.2299e-18)
(2.89132 0.132845 -3.32762e-18)
(2.20958 0.0734891 4.1564e-18)
(3.36857 0.0277266 0)
(2.64306 -0.00265093 0)
(3.45416 0.0913562 0)
(3.32024 0.0192898 0)
(2.70665 0.00922747 0)
(3.6803 0.239642 0)
(3.43883 0.0960026 0)
(2.86368 0.0565178 0)
(-0.0218881 4.33612 -1.20318e-20)
(-0.0547339 4.65368 0)
(-0.060081 4.5497 0)
(-0.0749127 3.50573 8.77487e-20)
(-0.037418 2.77919 -3.46634e-21)
(-0.0797694 4.67009 1.1344e-19)
(-0.0939305 4.45826 -1.14638e-19)
(-0.0775448 3.95543 0)
(-0.0557203 3.87563 0)
(-0.0193128 3.99245 0)
(-0.070946 3.25534 0)
(-0.0425757 2.30025 0)
(0.94878 3.66175 -6.08795e-19)
(0.921206 2.85328 -1.76341e-19)
(0.430265 2.05284 -2.28184e-19)
(0.252243 2.29925 6.96953e-19)
(1.02367 4.20009 2.63812e-19)
(3.43308 -0.167422 0)
(3.32213 -0.256546 0)
(2.88327 -0.189515 0)
(3.47032 -0.0643458 0)
(3.34581 -0.147864 0)
(3.44893 -0.261022 0)
(3.5195 -0.283601 0)
(3.57949 -0.281129 0)
(3.22413 0.0933879 3.61899e-18)
(2.55519 0.0645184 -4.57616e-18)
(3.0965 0.106578 -3.56245e-18)
(2.50909 0.0566751 4.43268e-18)
(2.23994 3.417 0)
(1.73968 2.94841 -4.45591e-19)
(2.56694 3.34895 -4.03193e-19)
(2.36956 2.52959 5.35885e-19)
(0.774484 1.213 2.7222e-18)
(1.44677 0.216478 1.34318e-18)
(3.72256 0.304252 0)
(3.89314 0.572823 -1.84603e-18)
(3.29899 0.243958 -8.23412e-20)
(3.72081 0.440149 0)
(0.236604 1.31234 1.79604e-18)
(-0.0166522 1.20198 -2.87629e-18)
(0.0588051 0.76996 1.61449e-18)
(0.275935 0.4649 -7.47823e-19)
(0.187242 1.38376 8.70975e-19)
(0.0506426 1.23717 0)
(0.0577342 1.08617 -1.13226e-18)
(0.19171 1.44298 -4.09204e-18)
(0.328996 1.55696 0)
(0.00867305 1.2902 1.19584e-19)
(-0.00971761 1.45729 -1.3402e-18)
(-0.0410146 1.30282 1.94837e-18)
(-0.0574437 1.41766 0)
(-0.0204761 1.38228 0)
(0.681076 1.04987 0)
(2.45677 2.45514 -1.06618e-18)
(2.64408 2.17378 3.95224e-19)
(2.79257 2.88261 0)
(3.21304 3.06769 -3.94559e-19)
(3.16599 2.41181 2.84632e-20)
(0.803662 0.589321 -1.82233e-18)
(1.55583 0.691437 -1.62184e-20)
(1.23286 0.450987 8.72131e-19)
(1.27496 0.843592 5.95038e-20)
(0.938754 0.633792 -2.36943e-18)
(1.46417 0.714119 0)
(1.98975 1.09967 1.4559e-18)
(2.0319 1.01563 0)
(1.41172 0.790647 0)
(1.0619 0.549645 0)
(3.37544 2.18022 1.00848e-18)
(3.94756 0.760931 -1.86335e-18)
(3.8479 1.21611 0)
(3.53384 0.757806 0)
(1.39133 0.364753 1.33246e-18)
(3.25797 1.84223 -8.51487e-19)
(2.83429 1.65439 1.54681e-18)
(3.75525 1.37709 -1.83586e-18)
(3.09793 0.114761 2.46397e-18)
(3.16856 0.180817 -2.57893e-18)
(2.66183 0.0916427 0)
(3.30731 -0.0394959 0)
(3.20141 -0.0842562 -2.36651e-18)
(2.63244 -0.0321095 2.34566e-18)
(3.9563 0.0932064 0)
(3.75968 0.145655 0)
(3.69369 0.155373 0)
(3.5883 0.204748 0)
(3.83261 0.0590321 0)
(3.72611 0.0522533 0)
(-0.040043 2.51289 0)
(-0.037674 2.01194 0)
(0.357209 3.98925 -4.11333e-19)
(0.662917 3.3345 -1.6001e-19)
(0.259718 3.02849 -3.58001e-19)
(0.343849 2.54873 5.73438e-19)
(0.458426 4.0153 0)
(0.470211 4.67186 -5.09902e-19)
(0.383502 4.73022 0)
(0.911297 4.37535 -3.795e-19)
(0.673313 3.81444 9.68818e-19)
(0.597542 4.6534 4.46955e-19)
(0.740965 4.20173 -1.87514e-19)
(0.602861 4.32706 1.50868e-19)
(0.916684 4.65758 -6.63772e-19)
(0.750046 4.66205 0)
(0.858823 4.58979 5.04548e-19)
(0.0073701 4.57237 -1.81149e-19)
(-0.0183958 3.64714 0)
(0.101815 4.28734 5.4964e-19)
(-0.00252311 4.39024 0)
(-0.00347935 3.45874 -4.51079e-19)
(-0.015173 2.91225 0)
(-0.0997355 4.30839 -2.89124e-19)
(-0.105319 4.68173 0)
(-0.0526893 3.806 0)
(-0.0395598 3.72794 3.25183e-19)
(-0.0467542 3.88827 1.03855e-20)
(-0.0345097 3.70935 6.25945e-19)
(-0.0410415 2.94969 4.06894e-21)
(-0.113404 4.71057 1.80183e-19)
(-0.102252 4.74213 1.03218e-19)
(-0.0165836 2.62268 0)
(0.00133458 2.13498 0)
(-0.0410499 4.78958 4.86231e-19)
(-0.0478306 4.30904 4.23864e-19)
(-0.0824758 4.58519 -5.54107e-19)
(0.0168699 4.75842 0)
(-0.0778473 4.5355 -3.09053e-19)
(-0.117155 4.16922 1.27733e-19)
(-0.0843592 4.24975 -4.12969e-20)
(-0.0696244 4.72949 -2.18893e-19)
(-0.0849603 4.27084 -6.85625e-20)
(-0.0833436 4.21569 3.06698e-19)
(2.87142 0.0610242 -2.36359e-18)
(2.85887 0.0497069 2.27306e-18)
(2.3386 0.0345581 0)
(3.5101 0.192035 3.04659e-18)
(2.70368 0.126545 -3.30483e-18)
(2.25449 0.0644865 3.60965e-18)
(3.68248 0.335339 -4.01649e-19)
(3.20989 -0.0485204 0)
(3.17212 -0.0135478 2.23706e-18)
(2.69091 -0.0123744 -2.21942e-18)
(3.87876 0.12225 -1.25241e-19)
(3.77177 0.101862 1.07836e-18)
(4.15977 0.173498 0)
(4.22846 0.181158 -3.75141e-19)
(4.0137 0.145242 0)
(3.6949 0.155411 0)
(4.0323 0.0950903 0)
(3.71179 0.0873353 0)
(4.18472 0.113893 7.85519e-19)
(4.1372 0.0791431 -1.74795e-18)
(4.14067 0.113895 -8.48029e-19)
(4.1864 0.116537 -9.2451e-19)
(4.2157 0.229024 1.77411e-18)
(3.85475 0.188637 0)
(4.06128 0.301929 0)
(-0.0717162 4.58086 -1.3573e-19)
(-0.0322715 4.64486 -1.16778e-20)
(-0.0650719 4.66126 0)
(-0.0545193 4.1973 1.38108e-19)
(-0.0529018 4.22491 2.25357e-20)
(-0.0577361 4.09307 -2.18422e-20)
(-0.0799152 3.52813 2.61189e-19)
(-0.142985 4.00781 -1.45183e-20)
(-0.101754 4.13514 7.4764e-20)
(-0.0738672 3.40397 -1.323e-19)
(-0.0245925 2.92652 1.58442e-19)
(-0.0749162 4.42817 5.20346e-21)
(-0.087815 4.64248 1.72233e-19)
(1.2435 4.35965 3.47454e-19)
(1.15971 4.52865 7.26075e-19)
(1.73673 3.46634 4.30877e-19)
(1.30873 3.56059 1.69517e-19)
(1.28642 2.88954 0)
(0.548481 2.31872 2.74886e-19)
(0.463545 1.74151 3.30687e-19)
(0.345089 2.56734 1.50955e-20)
(0.492125 3.17321 -1.16128e-18)
(0.631665 3.13213 8.76507e-19)
(0.432747 2.40442 0)
(0.293576 1.97195 -5.5727e-19)
(0.259859 3.07771 1.39473e-18)
(0.273347 2.71947 -3.13853e-20)
(0.157918 2.27623 -1.74804e-18)
(0.591395 1.41102 1.46335e-18)
(0.576347 1.6168 0)
(3.58364 -0.0751496 8.64354e-20)
(3.61861 -0.254101 -7.25984e-20)
(3.72135 -0.217712 -1.26658e-18)
(3.75927 -0.126019 1.28246e-18)
(3.67616 -0.0488557 0)
(2.44635 3.87146 0)
(2.6179 3.91461 0)
(2.8895 3.62548 0)
(2.73622 3.64264 0)
(0.85417 1.39438 -3.33942e-21)
(0.611483 1.03906 0)
(1.70902 3.38417 1.50214e-20)
(1.42093 3.46321 0)
(1.32651 2.95041 -1.28373e-18)
(1.40701 2.89308 8.24422e-19)
(1.79128 0.310398 0)
(1.43045 0.262018 3.52071e-19)
(2.41166 0.358827 2.19182e-18)
(1.78607 0.284835 -7.85441e-19)
(1.42632 0.112198 -2.49503e-18)
(4.26631 0.790086 -2.56554e-18)
(3.85199 0.995198 -3.67205e-20)
(3.29693 0.84463 2.06787e-18)
(3.8758 0.745461 1.81331e-18)
(3.12307 0.465685 -3.0451e-18)
(2.91024 0.452159 3.74995e-19)
(3.19251 0.682312 -8.18734e-19)
(2.97611 0.6834 0)
(3.75868 0.563986 1.53768e-18)
(4.09567 0.629396 0)
(4.09119 0.776468 0)
(4.04577 0.415918 8.23691e-19)
(4.29665 0.642581 -3.0247e-20)
(4.24945 0.7159 -4.52889e-19)
(4.17658 0.643283 0)
(3.61567 0.130416 1.71822e-18)
(4.19 0.1836 2.14425e-18)
(4.09069 0.15166 -1.67945e-18)
(4.13651 0.240877 -1.44289e-18)
(3.74574 0.238215 -2.15642e-18)
(3.30289 0.375966 0)
(3.40344 0.302409 0)
(2.55813 0.19065 -1.26608e-18)
(2.10847 0.119115 4.76777e-19)
(4.03723 0.352626 1.94039e-18)
(4.28774 0.432848 -2.34654e-18)
(4.28489 0.489476 2.06895e-18)
(4.15713 0.493533 0)
(4.25663 0.337304 0)
(4.26651 0.322396 -9.8196e-19)
(4.2143 0.316163 -1.59656e-18)
(2.22681 3.48722 6.20494e-19)
(1.93758 3.23088 -6.83375e-19)
(1.44571 2.35545 -1.03191e-18)
(1.18638 1.99628 2.6685e-19)
(0.883775 1.37815 -2.62873e-18)
(0.79367 1.21544 9.22146e-19)
(0.600774 0.90394 -1.971e-21)
(1.11456 1.78473 -1.13788e-18)
(1.14188 1.88183 1.69863e-18)
(0.974366 1.70013 5.06083e-19)
(0.78595 1.28864 -5.12699e-19)
(0.635416 1.07441 0)
(2.44564 2.6068 -1.15437e-19)
(0.705186 1.14421 8.57247e-19)
(0.927758 0.889719 1.15621e-18)
(0.755282 0.813617 1.33777e-18)
(1.0831 0.746526 1.34118e-18)
(1.46692 1.04432 -2.27032e-18)
(1.38296 1.07122 1.83946e-18)
(1.00181 0.765519 -6.76764e-19)
(0.817039 0.568013 1.49467e-18)
(1.61551 0.490755 -7.78127e-19)
(1.55897 0.508331 0)
(1.23955 0.407337 4.60609e-21)
(2.50922 1.51589 7.75575e-19)
(2.07982 1.27015 -2.80865e-18)
(1.68667 1.1844 9.08817e-21)
(1.66072 1.09235 0)
(2.86211 2.59509 8.73816e-19)
(3.44678 2.75285 1.03749e-18)
(3.25582 2.93076 -1.19598e-18)
(3.55422 2.76339 -4.28393e-19)
(3.48427 2.60365 -1.34897e-19)
(3.51245 2.7951 1.38789e-19)
(3.67426 2.26702 -1.67945e-18)
(3.70518 2.49206 4.00753e-19)
(3.78366 2.43582 0)
(3.78444 2.19158 -5.79722e-19)
(4.04897 1.07332 5.80572e-19)
(4.27596 0.993163 1.00218e-18)
(4.30041 0.966871 1.01169e-18)
(4.05503 1.32934 -1.14965e-18)
(4.10287 1.34976 0)
(4.15251 1.23371 0)
(3.32771 1.23573 -1.56058e-20)
(2.41774 0.666492 0)
(2.72187 0.744043 9.30669e-19)
(3.23828 0.885945 -2.6456e-20)
(3.7729 1.53467 5.10755e-18)
(3.56982 1.76189 1.31115e-18)
(3.48096 1.54047 -1.34069e-18)
(3.03737 1.36978 1.43746e-18)
(2.76067 1.36965 8.23779e-19)
(2.30658 1.1559 -7.97812e-19)
(3.67221 -0.0855434 1.98466e-18)
(3.8947 -0.0289329 0)
(3.85894 -0.0665493 1.34209e-18)
(3.74291 -0.0594089 -2.9878e-18)
(3.98056 0.0373769 1.46199e-18)
(3.90444 0.113426 -3.08299e-18)
(3.73986 0.128035 0)
(3.55625 0.17347 -6.28557e-19)
(3.81197 0.122981 1.6053e-18)
(3.69195 0.191384 -8.22572e-19)
(3.6003 0.171078 5.90726e-19)
(-0.0800698 2.59109 0)
(-0.046601 3.3982 0)
(-0.0317855 2.46213 0)
(-0.0215077 1.97082 0)
(0.0465567 3.9411 6.70721e-19)
(0.140379 3.72249 -1.72966e-19)
(0.317618 4.64444 -2.29752e-19)
(0.253328 4.46142 2.42651e-19)
(-0.0244494 4.29405 -4.9757e-19)
(0.0126013 4.32613 3.73637e-19)
(0.0961338 3.86976 2.2267e-20)
(0.0101508 3.55709 -4.67131e-19)
(-0.0121292 3.30877 -6.22695e-20)
(-0.038852 3.67108 -5.67411e-20)
(0.153622 4.47517 -5.87012e-19)
(0.178788 4.28868 0)
(0.276109 4.63518 2.96433e-19)
(0.269296 4.70962 2.53007e-19)
(0.596215 4.44457 -2.26033e-19)
(0.408369 3.78074 0)
(0.457503 3.62846 -1.11493e-18)
(0.560244 3.99732 7.90015e-19)
(0.480472 4.56204 -6.14845e-19)
(0.370849 4.43268 3.30792e-19)
(0.299807 4.15447 0)
(-0.033917 4.76221 -5.53244e-19)
(-0.0737363 4.52753 -6.41511e-19)
(-0.0748335 4.7403 0)
(-0.0281844 4.36035 -6.24972e-21)
(-0.0181654 4.6418 2.74268e-19)
(-0.117837 3.88158 4.4705e-20)
(-0.0548401 3.48606 -6.53768e-19)
(-0.0948783 3.9243 1.7419e-19)
(-0.134578 4.51758 2.32353e-19)
(-0.0752138 4.32789 0)
(-0.0591318 3.8861 0)
(-0.0818813 2.89784 2.00835e-19)
(-0.0471873 3.63128 -6.26678e-20)
(-0.0723256 3.6188 0)
(-0.0879669 2.68689 1.58129e-19)
(-0.0462313 2.19356 -3.06385e-19)
(3.76103 0.0323475 0)
(3.7319 0.00774953 -2.03282e-19)
(4.1795 0.0679688 -1.43999e-18)
(4.08911 0.046319 0)
(3.87634 0.01783 0)
(4.14973 0.0370645 -1.25248e-20)
(4.1003 0.0349581 2.379e-18)
(4.0001 0.0802204 2.84575e-18)
(3.75586 0.118676 0)
(3.55802 0.110061 0)
(4.01332 0.0939714 1.41752e-18)
(3.70324 0.116148 0)
(3.4721 0.128884 0)
(-0.0808476 4.7002 0)
(-0.106543 4.66848 1.0668e-20)
(-0.0768898 4.72024 6.29955e-20)
(-0.0604769 3.83184 0)
(-0.112053 4.53597 1.11256e-19)
(-0.0677686 4.24054 -6.3366e-20)
(-0.0538545 3.92913 0)
(1.41041 4.18576 0)
(1.20955 4.58038 -1.29813e-18)
(1.22488 4.4883 0)
(1.57413 4.48707 1.48456e-18)
(1.59333 4.12097 0)
(1.50174 4.3714 -6.06607e-19)
(1.01146 2.24261 -3.39487e-20)
(0.70916 1.6454 -1.7447e-18)
(0.59067 1.22749 2.12869e-18)
(0.70874 1.83498 3.9682e-19)
(0.975052 2.42416 0)
(1.03642 2.37923 0)
(0.718377 1.68733 0)
(0.532332 1.33013 -1.39525e-18)
(1.2089 3.77491 -9.83494e-19)
(1.12885 2.98895 -2.35506e-19)
(1.32699 3.40498 1.92603e-19)
(0.599297 2.04093 0)
(0.620232 1.94266 0)
(0.462247 1.57117 -3.92729e-19)
(0.957703 2.72049 0)
(2.68723 3.57097 0)
(2.38129 3.00853 -1.45463e-18)
(2.54593 3.0269 -8.58784e-20)
(2.41979 3.40432 0)
(2.28569 3.14936 2.22119e-18)
(3.27805 3.08678 -3.8972e-19)
(3.13408 3.32496 0)
(3.11647 3.15132 6.30481e-19)
(2.87049 3.41266 0)
(2.88201 3.20075 0)
(1.20922 2.00623 -9.30456e-19)
(1.41402 2.40324 -6.9955e-19)
(1.75356 2.98169 1.20603e-18)
(1.69575 2.9597 -3.62258e-19)
(1.06238 1.82216 0)
(1.20682 2.20841 4.71126e-19)
(0.718409 1.28866 -7.1523e-19)
(0.581612 1.04344 -5.61435e-22)
(1.93732 3.69565 0)
(2.19914 3.74292 -5.42628e-19)
(2.33833 3.98624 0)
(2.28411 0.52902 0)
(1.61737 0.341913 0)
(1.20904 0.27659 0)
(2.20915 0.55427 -1.46527e-18)
(1.6353 0.402201 8.17256e-19)
(2.14563 0.129124 -9.8518e-19)
(2.62662 0.297531 0)
(2.46568 0.301648 4.13494e-19)
(1.76988 0.135719 1.63302e-18)
(1.53027 0.0812684 -1.03705e-18)
(0.74554 1.55589 8.58064e-19)
(0.959778 1.82036 0)
(0.537649 1.44001 1.56091e-18)
(0.523847 1.61481 -1.42526e-18)
(0.757176 1.81446 -9.88365e-19)
(2.0734 2.46262 1.33773e-18)
(2.09675 2.71202 0)
(1.58347 1.67809 -2.76351e-19)
(2.00969 1.98943 1.7451e-18)
(1.35985 1.29258 -4.23586e-19)
(1.58865 1.31343 4.50694e-19)
(2.1096 1.51322 1.02319e-18)
(2.44273 1.67097 0)
(2.27603 1.85609 0)
(2.00992 1.60602 0)
(3.95681 2.07986 3.84517e-19)
(3.75983 1.88977 -1.26358e-18)
(3.81725 2.02808 1.04679e-18)
(3.90108 1.77148 -1.00834e-18)
(4.15788 1.67389 0)
(4.11696 1.84108 -2.97844e-19)
(2.84049 1.16334 -1.89733e-18)
(2.97085 1.16345 -2.41305e-18)
(2.332 1.04357 1.45645e-18)
(2.13828 0.934444 -1.41985e-18)
(2.46352 0.846182 -1.17813e-18)
(2.17859 0.776956 1.44886e-18)
(4.00845 0.0334765 -1.52891e-18)
(4.05276 0.0406905 3.13026e-18)
(3.76797 -0.0658802 1.90093e-18)
(3.79119 -0.0737709 -2.28681e-18)
(3.95955 0.0105749 0)
(4.05604 0.0228794 -3.72987e-18)
(0.0969382 4.76167 1.06561e-19)
(0.0677686 4.73206 0)
(0.189834 4.73164 9.53543e-19)
(0.211389 4.74928 -8.675e-19)
(0.231293 4.71872 4.28468e-19)
(0.122303 4.65865 0)
(-0.100717 4.77149 0)
(-0.106548 4.40382 -6.18469e-20)
(-0.105516 4.33269 5.54348e-20)
(-0.114267 4.48205 7.17657e-21)
(-0.10494 4.72185 -1.01155e-19)
(-0.0819748 4.70948 5.50908e-20)
(1.87558 4.00967 -1.6433e-18)
(1.81654 4.01621 1.74025e-18)
(1.68415 4.40649 -8.54289e-19)
(1.69295 4.2774 7.61281e-20)
(2.25276 4.08644 0)
(1.85462 4.21992 -6.35562e-19)
(1.98184 3.95974 6.16402e-19)
(1.82401 4.38088 8.34482e-19)
(2.07674 4.21932 0)
(2.2282 4.10029 0)
(1.13844 3.63097 1.49508e-18)
(0.826676 2.81146 2.02336e-18)
(0.9544 2.98981 -1.38963e-18)
(0.746614 2.97152 -2.31906e-19)
(0.902552 3.73064 4.66325e-19)
(0.722222 3.36318 -1.13406e-18)
(0.745716 1.46565 -1.21479e-18)
(0.746181 1.31685 0)
(0.602521 1.11443 -1.33523e-18)
(1.11086 2.06389 0)
(1.08784 2.15083 0)
(1.35849 2.19074 -1.09058e-18)
(1.06439 2.0141 -1.03599e-18)
(1.01676 2.03499 1.09868e-18)
(1.03103 1.51911 0)
(1.41025 1.7617 -6.01219e-19)
(1.62717 2.1189 -8.55435e-19)
(1.4107 2.0825 0)
(0.86774 1.81834 7.12448e-19)
(0.779652 1.67942 0)
(2.90597 2.28883 -1.8471e-18)
(3.31884 2.47055 2.60935e-18)
(3.27754 2.19305 -2.59344e-18)
(2.61024 2.0208 -2.31183e-19)
(2.72483 1.94027 -9.74172e-19)
(1.26178 2.18964 7.96157e-19)
(1.31592 2.24447 -1.3599e-18)
(1.45395 2.32941 1.79277e-18)
(1.79017 2.55941 -1.16522e-18)
(1.88876 2.93215 -1.56721e-18)
(1.56301 2.4885 -1.18801e-19)
(1.63275 2.62804 1.37125e-18)
(1.80985 2.69289 9.6616e-20)
(2.01775 2.99861 6.49995e-19)
)
;

boundaryField
{
    wall-4
    {
        type            noSlip;
    }
    velocity-inlet-5
    {
        type            fixedValue;
        value           uniform (3 0 0);
    }
    velocity-inlet-6
    {
        type            fixedValue;
        value           uniform (0 1 0);
    }
    pressure-outlet-7
    {
        type            zeroGradient;
    }
    wall-8
    {
        type            noSlip;
    }
    frontAndBackPlanes
    {
        type            empty;
    }
}


// ************************************************************************* //
