/*--------------------------------*- C++ -*----------------------------------*\
  =========                 |
  \\      /  F ield         | OpenFOAM: The Open Source CFD Toolbox
   \\    /   O peration     | Website:  https://openfoam.org
    \\  /    A nd           | Version:  9
     \\/     M anipulation  |
\*---------------------------------------------------------------------------*/
FoamFile
{
    format      ascii;
    class       volScalarField;
    location    "5.69";
    object      p;
}
// * * * * * * * * * * * * * * * * * * * * * * * * * * * * * * * * * * * * * //

dimensions      [1 -1 -2 0 0 0 0];

internalField   nonuniform List<scalar> 
2268
(
747.241
747.02
746.537
745.783
744.777
743.54
742.097
740.475
738.703
736.811
734.834
732.806
730.76
728.716
726.689
724.689
722.776
721.082
719.779
718.742
718.093
717.895
717.688
688.425
688.199
687.715
686.959
685.951
684.712
683.266
681.638
679.859
677.958
675.968
673.925
671.857
669.788
667.739
665.741
663.895
662.337
661.163
660.141
659.311
658.951
658.779
629.663
629.431
628.945
628.183
627.17
625.923
624.468
622.829
621.037
619.121
617.114
615.052
612.964
610.877
608.822
606.845
605.037
603.462
602.301
601.276
600.355
599.946
599.792
570.961
570.727
570.236
569.465
568.441
567.181
565.711
564.055
562.243
560.306
558.277
556.192
554.084
551.987
549.941
548.004
546.283
544.807
543.568
542.349
541.371
540.917
540.772
512.321
512.086
511.588
510.806
509.766
508.487
506.995
505.316
503.48
501.513
499.455
497.342
495.213
493.109
491.08
489.203
487.678
486.618
485.253
483.864
482.843
481.883
481.718
453.743
453.507
453.003
452.207
451.145
449.84
448.322
446.615
444.747
442.744
440.647
438.499
436.344
434.229
432.214
430.391
428.988
428.222
426.989
425.608
424.227
422.85
422.628
395.229
394.992
394.479
393.666
392.577
391.241
389.69
387.949
386.045
383.997
381.853
379.658
377.469
375.335
373.324
371.528
370.127
369.448
368.51
367.101
365.296
363.801
363.469
336.783
336.542
336.017
335.183
334.061
332.686
331.096
329.317
327.372
325.272
323.071
320.821
318.588
316.426
314.402
312.603
311.162
310.347
309.495
308.087
306.191
304.746
304.179
722.479
723.096
723.886
724.854
725.956
727.203
728.551
729.936
731.212
732.285
733.123
734.493
736.128
736.702
739.304
741.031
741.389
742.062
742.293
664.077
664.295
665.01
665.988
667.155
668.481
669.863
671.24
672.437
673.489
674.381
675.863
677.745
678.562
680.183
681.896
682.455
683.274
683.717
605.518
605.532
606.095
607.036
608.214
609.557
610.975
612.375
613.547
614.656
615.602
617.257
619.049
620.373
621.511
623.084
623.659
624.625
625.19
546.627
546.673
547.165
548.079
549.265
550.627
552.068
553.508
554.799
556.04
556.917
558.598
560.74
562.808
563.218
564.526
565.029
566.091
566.807
487.463
487.638
488.154
489.083
490.294
491.686
493.195
494.735
496.179
497.644
499.29
500.877
503.418
505.75
505.145
506.204
506.531
507.719
508.528
428.208
428.482
429.048
430.032
431.291
432.725
434.312
435.969
437.609
439.417
442.375
444.146
446.419
448.236
447.143
448.03
448.572
449.556
450.336
368.849
369.214
369.852
370.926
372.256
373.736
375.394
377.184
379.017
381.197
384.819
387.287
389.342
390.202
389.148
389.953
390.919
391.422
392.142
309.377
309.77
310.575
311.787
313.201
314.713
316.433
318.353
320.429
322.894
326.599
329.776
331.674
331.807
331.149
331.944
333.203
333.273
333.904
245.512
245.263
244.716
243.845
242.658
241.208
239.55
237.708
235.692
233.495
231.185
228.837
226.517
224.292
222.218
220.36
218.804
217.639
216.553
215.223
213.773
212.936
212.429
121.771
121.559
121.038
120.13
118.803
117.187
115.393
113.429
111.309
109.094
106.847
104.603
102.397
100.267
98.276
96.4924
94.9661
93.7174
92.5815
91.5284
90.6881
90.1952
90.0219
30.2761
30.1694
29.8346
29.3135
28.6694
27.8479
26.8815
25.8007
24.6537
23.5505
22.4948
21.4629
20.4427
19.4442
18.5053
17.6653
16.9546
16.3509
15.8202
15.4181
15.1613
15.0398
14.9934
-0.490092
-0.494047
-0.517001
-0.5517
-0.371355
-0.229378
-0.197038
-0.175573
-0.153637
-0.132012
-0.123517
-0.119306
-0.113765
-0.109947
-0.122954
-0.175518
-0.255433
-0.369412
-0.500839
-0.485669
-0.468356
-0.480612
-0.51996
-0.798305
-0.79607
-0.79595
-0.800874
-0.75241
-0.708473
-0.68492
-0.674432
-0.664577
-0.655946
-0.654136
-0.658511
-0.664893
-0.675083
-0.690961
-0.71237
-0.731651
-0.749933
-0.776948
-0.786393
-0.787423
-0.784792
-0.778302
-1.08965
-1.0898
-1.09074
-1.08866
-1.10278
-1.12702
-1.12835
-1.12438
-1.12074
-1.11883
-1.11713
-1.11695
-1.11841
-1.121
-1.12177
-1.11729
-1.10363
-1.07801
-1.05195
-1.05385
-1.04769
-1.03194
-1.01728
-1.2903
-1.29056
-1.28878
-1.28359
-1.29473
-1.28995
-1.29287
-1.2942
-1.29362
-1.29167
-1.28883
-1.28525
-1.28121
-1.27631
-1.27002
-1.26112
-1.25253
-1.2497
-1.24695
-1.24092
-1.23384
-1.23178
-1.2378
-1.42463
-1.42435
-1.42406
-1.42221
-1.42317
-1.41956
-1.4188
-1.41819
-1.41704
-1.41526
-1.41284
-1.4099
-1.40654
-1.40266
-1.39814
-1.3931
-1.38915
-1.38873
-1.3861
-1.38166
-1.38207
-1.38807
-1.38828
-1.54745
-1.54736
-1.54724
-1.5463
-1.54606
-1.54413
-1.54329
-1.54232
-1.54098
-1.5393
-1.53723
-1.53479
-1.53208
-1.52914
-1.52619
-1.52408
-1.52364
-1.52307
-1.52027
-1.51863
-1.5199
-1.521
-1.51884
-1.67112
-1.67102
-1.67073
-1.67013
-1.66956
-1.66837
-1.66746
-1.66644
-1.66512
-1.66359
-1.66187
-1.65994
-1.65778
-1.65548
-1.65344
-1.65225
-1.65214
-1.65155
-1.65022
-1.64986
-1.64954
-1.64823
-1.64684
-1.79494
-1.79486
-1.79458
-1.79409
-1.79348
-1.79259
-1.7917
-1.79067
-1.78947
-1.78815
-1.78673
-1.78517
-1.7834
-1.78156
-1.77997
-1.77887
-1.77825
-1.77754
-1.77661
-1.7761
-1.77564
-1.77486
-1.77403
-1.9189
-1.91885
-1.91863
-1.91821
-1.91765
-1.91691
-1.91608
-1.91514
-1.91408
-1.91296
-1.91173
-1.91036
-1.90889
-1.90742
-1.90613
-1.90513
-1.90442
-1.90369
-1.90293
-1.90238
-1.9019
-1.90138
-1.90089
-2.04298
-2.04298
-2.04281
-2.04246
-2.04197
-2.04134
-2.04061
-2.03979
-2.03889
-2.0379
-2.03679
-2.03558
-2.03434
-2.03315
-2.03208
-2.0312
-2.03053
-2.02997
-2.02943
-2.02891
-2.02843
-2.02792
-2.02754
-2.16718
-2.16722
-2.16711
-2.16683
-2.16641
-2.16586
-2.16523
-2.16454
-2.16375
-2.16285
-2.16185
-2.16081
-2.15977
-2.15877
-2.15787
-2.15711
-2.15651
-2.15609
-2.15571
-2.15528
-2.15483
-2.15431
-2.15398
-2.29151
-2.29158
-2.29152
-2.2913
-2.29094
-2.29047
-2.28992
-2.2893
-2.2886
-2.2878
-2.28694
-2.28605
-2.28517
-2.28433
-2.28355
-2.28289
-2.28235
-2.28193
-2.28161
-2.28127
-2.28084
-2.28044
-2.2802
-2.41596
-2.41606
-2.41603
-2.41585
-2.41555
-2.41515
-2.41467
-2.41411
-2.41348
-2.41279
-2.41205
-2.41129
-2.41054
-2.40982
-2.40915
-2.40856
-2.40807
-2.40766
-2.40732
-2.407
-2.40668
-2.4064
-2.40624
-2.54051
-2.54063
-2.54062
-2.54049
-2.54023
-2.53989
-2.53946
-2.53897
-2.53842
-2.53782
-2.53718
-2.53652
-2.53588
-2.53525
-2.53468
-2.53416
-2.53371
-2.53333
-2.53301
-2.53272
-2.53247
-2.53227
-2.53216
-2.66516
-2.66528
-2.6653
-2.66519
-2.66498
-2.66468
-2.66431
-2.66388
-2.6634
-2.66287
-2.66232
-2.66175
-2.66119
-2.66066
-2.66015
-2.6597
-2.6593
-2.65895
-2.65866
-2.65841
-2.6582
-2.65805
-2.65797
-2.78988
-2.79
-2.79004
-2.78996
-2.78979
-2.78953
-2.78921
-2.78883
-2.78841
-2.78795
-2.78747
-2.78698
-2.7865
-2.78604
-2.7856
-2.7852
-2.78484
-2.78453
-2.78427
-2.78405
-2.78387
-2.78375
-2.7837
-2.91467
-2.91479
-2.91484
-2.91479
-2.91464
-2.91442
-2.91414
-2.91381
-2.91344
-2.91305
-2.91263
-2.91221
-2.9118
-2.91139
-2.91101
-2.91066
-2.91034
-2.91007
-2.90983
-2.90964
-2.90949
-2.90939
-2.90935
-3.03952
-3.03965
-3.0397
-3.03966
-3.03954
-3.03935
-3.0391
-3.03881
-3.03849
-3.03815
-3.03779
-3.03743
-3.03707
-3.03672
-3.03638
-3.03608
-3.0358
-3.03556
-3.03535
-3.03518
-3.03506
-3.03498
-3.03495
-3.16442
-3.16455
-3.16461
-3.16458
-3.16447
-3.1643
-3.16409
-3.16383
-3.16356
-3.16326
-3.16295
-3.16263
-3.16232
-3.16202
-3.16173
-3.16146
-3.16122
-3.161
-3.16082
-3.16068
-3.16057
-3.16051
-3.16049
-3.28937
-3.28949
-3.28954
-3.28952
-3.28942
-3.28928
-3.28909
-3.28888
-3.28864
-3.28838
-3.28811
-3.28784
-3.28756
-3.2873
-3.28705
-3.28681
-3.2866
-3.28642
-3.28626
-3.28614
-3.28605
-3.286
-3.28598
-3.41434
-3.41446
-3.41451
-3.41449
-3.41441
-3.41428
-3.41412
-3.41394
-3.41373
-3.41351
-3.41327
-3.41304
-3.4128
-3.41257
-3.41235
-3.41215
-3.41196
-3.4118
-3.41167
-3.41156
-3.41148
-3.41144
-3.41143
-3.53934
-3.53945
-3.5395
-3.53948
-3.53941
-3.53931
-3.53917
-3.53901
-3.53884
-3.53864
-3.53844
-3.53824
-3.53803
-3.53783
-3.53764
-3.53746
-3.5373
-3.53716
-3.53704
-3.53695
-3.53688
-3.53685
-3.53684
-3.66438
-3.66447
-3.66451
-3.66449
-3.66444
-3.66435
-3.66423
-3.6641
-3.66395
-3.66378
-3.66361
-3.66343
-3.66325
-3.66307
-3.66291
-3.66275
-3.66261
-3.66249
-3.66239
-3.66231
-3.66225
-3.66221
-3.66221
-3.78944
-3.78951
-3.78954
-3.78953
-3.78948
-3.7894
-3.78931
-3.78919
-3.78906
-3.78892
-3.78876
-3.78861
-3.78845
-3.7883
-3.78816
-3.78802
-3.7879
-3.78779
-3.78771
-3.78764
-3.78759
-3.78756
-3.78755
-3.91452
-3.91458
-3.91459
-3.91457
-3.91453
-3.91447
-3.91439
-3.91429
-3.91417
-3.91405
-3.91392
-3.91378
-3.91365
-3.91352
-3.91339
-3.91328
-3.91317
-3.91308
-3.913
-3.91294
-3.9129
-3.91288
-3.91288
-4.03962
-4.03966
-4.03965
-4.03963
-4.03959
-4.03954
-4.03947
-4.03939
-4.03929
-4.03918
-4.03907
-4.03895
-4.03884
-4.03872
-4.03862
-4.03852
-4.03843
-4.03835
-4.03829
-4.03824
-4.03821
-4.03819
-4.0382
-4.16474
-4.16475
-4.16472
-4.16469
-4.16466
-4.16462
-4.16456
-4.16449
-4.16441
-4.16432
-4.16422
-4.16412
-4.16402
-4.16393
-4.16384
-4.16375
-4.16368
-4.16361
-4.16356
-4.16352
-4.1635
-4.16349
-4.1635
-4.28987
-4.28986
-4.28981
-4.28978
-4.28975
-4.28972
-4.28967
-4.28961
-4.28953
-4.28946
-4.28938
-4.28929
-4.28921
-4.28913
-4.28905
-4.28898
-4.28892
-4.28887
-4.28882
-4.28879
-4.28878
-4.28878
-4.28879
-4.415
-4.41498
-4.41493
-4.4149
-4.41486
-4.41482
-4.41478
-4.41472
-4.41467
-4.4146
-4.41453
-4.41447
-4.4144
-4.41433
-4.41427
-4.41421
-4.41415
-4.41411
-4.41408
-4.41405
-4.41404
-4.41405
-4.41406
-4.54014
-4.54009
-4.54004
-4.54001
-4.53998
-4.53993
-4.53989
-4.53985
-4.5398
-4.53975
-4.53969
-4.53964
-4.53958
-4.53952
-4.53947
-4.53942
-4.53938
-4.53934
-4.53932
-4.5393
-4.53929
-4.5393
-4.53932
-4.66526
-4.66519
-4.66514
-4.66511
-4.66507
-4.66504
-4.665
-4.66497
-4.66493
-4.66489
-4.66485
-4.6648
-4.66476
-4.66471
-4.66467
-4.66463
-4.66459
-4.66456
-4.66454
-4.66453
-4.66453
-4.66454
-4.66456
-4.79037
-4.79026
-4.7902
-4.79018
-4.79015
-4.79013
-4.79012
-4.79009
-4.79007
-4.79004
-4.79001
-4.78997
-4.78993
-4.78989
-4.78986
-4.78982
-4.78979
-4.78977
-4.78975
-4.78975
-4.78975
-4.78976
-4.78978
-4.91544
-4.91531
-4.91524
-4.91523
-4.91524
-4.91524
-4.91523
-4.91522
-4.91521
-4.91519
-4.91516
-4.91514
-4.91511
-4.91507
-4.91504
-4.91501
-4.91499
-4.91497
-4.91495
-4.91495
-4.91496
-4.91498
-4.915
-5.04048
-5.04034
-5.04029
-5.0403
-5.04033
-5.04035
-5.04036
-5.04036
-5.04035
-5.04034
-5.04033
-5.0403
-5.04028
-5.04025
-5.04022
-5.0402
-5.04018
-5.04016
-5.04015
-5.04015
-5.04016
-5.04019
-5.04022
-5.16547
-5.16534
-5.16534
-5.16539
-5.16544
-5.16548
-5.1655
-5.16551
-5.16551
-5.16551
-5.16549
-5.16548
-5.16545
-5.16543
-5.16541
-5.16538
-5.16536
-5.16535
-5.16534
-5.16534
-5.16536
-5.1654
-5.16544
-5.29038
-5.29031
-5.29042
-5.29052
-5.29059
-5.29063
-5.29066
-5.29068
-5.29068
-5.29068
-5.29067
-5.29066
-5.29064
-5.29062
-5.2906
-5.29058
-5.29056
-5.29054
-5.29053
-5.29053
-5.29056
-5.29061
-5.29066
-5.41533
-5.41538
-5.4156
-5.41572
-5.41578
-5.41582
-5.41585
-5.41586
-5.41587
-5.41586
-5.41585
-5.41584
-5.41583
-5.41581
-5.41579
-5.41577
-5.41575
-5.41573
-5.41571
-5.4157
-5.41575
-5.41583
-5.4159
-5.54023
-5.54058
-5.54085
-5.54095
-5.541
-5.54103
-5.54103
-5.54103
-5.54103
-5.54102
-5.54101
-5.541
-5.54098
-5.54097
-5.54095
-5.54093
-5.54091
-5.54088
-5.54084
-5.54079
-5.54088
-5.54105
-5.54114
-5.66561
-5.66643
-5.66631
-5.66628
-5.66626
-5.66625
-5.66623
-5.66621
-5.6662
-5.66619
-5.66618
-5.66617
-5.66616
-5.66615
-5.66614
-5.66612
-5.6661
-5.66607
-5.66599
-5.66585
-5.66593
-5.66627
-5.66638
212.584
212.686
212.945
213.46
90.1282
90.264
90.5124
90.9804
14.9863
15.023
15.1229
15.3117
-0.494297
-0.497883
-0.524911
-0.556065
-0.785901
-0.790821
-0.796578
-0.794652
-1.02468
-1.02386
-1.01613
-1.0119
-1.23383
-1.23027
-1.22631
-1.22561
-1.38605
-1.38736
-1.39018
-1.39182
-1.51848
-1.51883
-1.51981
-1.52062
-1.64658
-1.64668
-1.64698
-1.64726
-1.77386
-1.77385
-1.77392
-1.77403
-1.90077
-1.90074
-1.90077
-1.90083
-2.02745
-2.02745
-2.02748
-2.02757
-2.15392
-2.15393
-2.15399
-2.1541
-2.28017
-2.28019
-2.28026
-2.28038
-2.40624
-2.40627
-2.40633
-2.40643
-2.53217
-2.5322
-2.53226
-2.53234
-2.65799
-2.65801
-2.65807
-2.65814
-2.78371
-2.78374
-2.78378
-2.78384
-2.90937
-2.90939
-2.90943
-2.90948
-3.03496
-3.03498
-3.03502
-3.03506
-3.16051
-3.16053
-3.16055
-3.16059
-3.286
-3.28602
-3.28604
-3.28607
-3.41144
-3.41146
-3.41148
-3.41151
-3.53685
-3.53686
-3.53688
-3.5369
-3.66222
-3.66223
-3.66224
-3.66227
-3.78756
-3.78757
-3.78759
-3.78761
-3.91289
-3.9129
-3.91292
-3.91295
-4.03821
-4.03822
-4.03824
-4.03826
-4.16352
-4.16353
-4.16355
-4.16357
-4.28881
-4.28882
-4.28884
-4.28885
-4.41408
-4.41409
-4.41411
-4.41412
-4.53934
-4.53935
-4.53936
-4.53938
-4.66458
-4.66459
-4.6646
-4.66462
-4.7898
-4.78982
-4.78983
-4.78985
-4.91503
-4.91504
-4.91506
-4.91507
-5.04025
-5.04026
-5.04028
-5.04029
-5.16547
-5.16548
-5.1655
-5.16552
-5.29069
-5.29071
-5.29073
-5.29075
-5.41593
-5.41594
-5.41596
-5.41597
-5.54117
-5.54118
-5.5412
-5.54121
-5.66641
-5.66642
-5.66643
-5.66643
215.42
216.522
217.801
219.282
220.991
222.863
224.796
226.787
228.96
231.604
234.974
238.019
239.845
240.299
240.392
241.434
242.964
243.038
242.994
92.1477
93.2605
94.6354
96.241
98.092
100.251
102.518
104.726
106.851
109.004
111.365
113.72
115.606
116.829
117.796
118.881
120.123
120.212
119.676
15.7555
16.2796
16.9264
17.713
18.6492
19.7443
20.9825
22.2562
23.3696
24.1839
24.9404
25.9135
26.9197
27.7712
28.4594
28.898
29.3309
29.3468
29.0593
-0.585953
-0.590422
-0.58746
-0.582174
-0.466677
-0.454929
-0.490607
-0.510903
-0.519834
-0.530358
-0.552806
-0.572666
-0.586519
-0.586975
-0.580515
-0.57781
-0.594856
-0.592254
-0.571838
-0.793574
-0.794396
-0.794757
-0.799036
-0.777193
-0.760282
-0.760036
-0.76209
-0.765367
-0.770782
-0.777284
-0.782791
-0.789309
-0.800675
-0.807606
-0.810559
-0.814199
-0.816395
-0.803559
-1.00806
-1.00858
-1.01065
-1.01559
-1.03676
-1.04811
-1.05343
-1.05809
-1.06115
-1.06159
-1.06143
-1.0648
-1.06677
-1.07195
-1.0756
-1.08183
-1.08742
-1.08482
-1.07609
-1.22884
-1.23086
-1.23203
-1.22825
-1.24668
-1.25914
-1.26344
-1.26562
-1.26738
-1.26962
-1.27271
-1.27556
-1.27699
-1.27305
-1.27418
-1.27721
-1.2759
-1.27578
-1.27514
-1.39368
-1.39476
-1.39567
-1.39414
-1.39603
-1.39173
-1.39265
-1.39258
-1.39281
-1.39447
-1.3971
-1.40075
-1.40565
-1.40923
-1.41055
-1.41026
-1.41055
-1.41218
-1.41698
-1.52113
-1.52124
-1.52182
-1.52249
-1.52173
-1.52015
-1.51973
-1.5193
-1.52069
-1.52271
-1.52482
-1.52764
-1.53073
-1.53295
-1.53454
-1.5353
-1.53585
-1.5369
-1.54002
-1.64764
-1.64767
-1.6478
-1.6481
-1.6481
-1.64773
-1.64761
-1.64839
-1.65135
-1.65398
-1.65516
-1.65592
-1.65643
-1.65752
-1.6589
-1.66001
-1.66102
-1.66196
-1.66329
-1.77422
-1.77415
-1.77408
-1.77438
-1.77478
-1.77546
-1.7767
-1.77927
-1.7821
-1.78341
-1.78349
-1.78352
-1.78341
-1.78384
-1.78423
-1.78477
-1.78588
-1.78664
-1.78733
-1.90098
-1.9011
-1.90128
-1.90168
-1.90215
-1.90328
-1.90588
-1.90862
-1.90999
-1.9101
-1.91054
-1.91121
-1.91203
-1.91211
-1.9114
-1.91088
-1.91073
-1.91098
-1.91167
-2.0278
-2.02841
-2.02906
-2.0295
-2.03014
-2.03114
-2.03325
-2.03501
-2.03556
-2.03638
-2.03776
-2.03854
-2.03873
-2.03858
-2.03818
-2.03738
-2.0361
-2.03596
-2.03667
-2.15438
-2.15523
-2.15627
-2.15696
-2.15753
-2.15813
-2.15901
-2.16013
-2.16095
-2.16196
-2.16329
-2.16381
-2.16348
-2.16332
-2.16317
-2.16282
-2.16228
-2.16228
-2.16287
-2.28064
-2.28133
-2.28233
-2.28316
-2.28347
-2.28384
-2.28455
-2.2854
-2.28616
-2.28696
-2.28781
-2.28824
-2.28827
-2.28826
-2.28831
-2.28848
-2.28876
-2.28906
-2.28944
-2.40664
-2.40719
-2.40788
-2.40849
-2.40893
-2.40938
-2.40999
-2.41068
-2.41133
-2.41198
-2.41261
-2.413
-2.41316
-2.41329
-2.41348
-2.41383
-2.41441
-2.41482
-2.41499
-2.53252
-2.53294
-2.53346
-2.53396
-2.53439
-2.53485
-2.53538
-2.53595
-2.53651
-2.53706
-2.53756
-2.53792
-2.53814
-2.53834
-2.53857
-2.53888
-2.53929
-2.53963
-2.53981
-2.65829
-2.65862
-2.65904
-2.65946
-2.65986
-2.66028
-2.66075
-2.66124
-2.66172
-2.66219
-2.66261
-2.66294
-2.66318
-2.66339
-2.66361
-2.66385
-2.66412
-2.66436
-2.66454
-2.78397
-2.78425
-2.78459
-2.78496
-2.78532
-2.7857
-2.78611
-2.78653
-2.78695
-2.78735
-2.78772
-2.78802
-2.78827
-2.78847
-2.78865
-2.78881
-2.78893
-2.78904
-2.78917
-2.90959
-2.90982
-2.9101
-2.91042
-2.91075
-2.91109
-2.91145
-2.91182
-2.91219
-2.91255
-2.91288
-2.91316
-2.91339
-2.91358
-2.91373
-2.91381
-2.9138
-2.91377
-2.9137
-3.03515
-3.03534
-3.03558
-3.03585
-3.03615
-3.03646
-3.03678
-3.03711
-3.03745
-3.03777
-3.03807
-3.03834
-3.03856
-3.03875
-3.03889
-3.03894
-3.03888
-3.03883
-3.03864
-3.16066
-3.16082
-3.16103
-3.16127
-3.16153
-3.1618
-3.1621
-3.1624
-3.1627
-3.163
-3.16328
-3.16354
-3.16377
-3.16397
-3.16413
-3.16423
-3.16425
-3.16437
-3.16422
-3.28613
-3.28627
-3.28645
-3.28666
-3.28689
-3.28714
-3.28741
-3.28769
-3.28797
-3.28824
-3.28851
-3.28877
-3.28901
-3.28923
-3.28944
-3.28962
-3.28975
-3.29009
-3.28992
-3.41156
-3.41168
-3.41184
-3.41203
-3.41224
-3.41247
-3.41271
-3.41297
-3.41323
-3.41349
-3.41375
-3.41401
-3.41426
-3.41451
-3.41476
-3.41501
-3.41527
-3.41567
-3.41549
-3.53695
-3.53706
-3.53721
-3.53738
-3.53757
-3.53778
-3.538
-3.53824
-3.53849
-3.53874
-3.53899
-3.53924
-3.5395
-3.53977
-3.54005
-3.54036
-3.54071
-3.54106
-3.54096
-3.66232
-3.66242
-3.66255
-3.66271
-3.66288
-3.66308
-3.66329
-3.66351
-3.66374
-3.66398
-3.66422
-3.66447
-3.66473
-3.665
-3.66529
-3.66563
-3.66601
-3.6663
-3.66635
-3.78766
-3.78776
-3.78788
-3.78802
-3.78819
-3.78837
-3.78856
-3.78877
-3.78899
-3.78921
-3.78945
-3.78969
-3.78994
-3.7902
-3.79048
-3.79078
-3.79109
-3.79126
-3.79124
-3.91299
-3.91308
-3.91319
-3.91333
-3.91348
-3.91364
-3.91382
-3.91402
-3.91422
-3.91444
-3.91466
-3.91489
-3.91513
-3.91537
-3.91561
-3.91584
-3.91603
-3.91601
-3.91568
-4.03831
-4.03839
-4.03849
-4.03862
-4.03875
-4.03891
-4.03908
-4.03926
-4.03945
-4.03965
-4.03986
-4.04008
-4.0403
-4.04051
-4.04072
-4.04089
-4.04097
-4.04084
-4.04039
-4.16361
-4.16368
-4.16378
-4.16389
-4.16402
-4.16416
-4.16432
-4.16449
-4.16467
-4.16486
-4.16505
-4.16526
-4.16546
-4.16565
-4.16583
-4.16595
-4.16598
-4.16581
-4.16538
-4.28889
-4.28896
-4.28905
-4.28915
-4.28927
-4.2894
-4.28955
-4.2897
-4.28987
-4.29005
-4.29024
-4.29043
-4.29062
-4.29079
-4.29094
-4.29103
-4.29103
-4.29085
-4.29048
-4.41416
-4.41422
-4.4143
-4.4144
-4.41451
-4.41463
-4.41476
-4.41491
-4.41507
-4.41524
-4.41542
-4.4156
-4.41577
-4.41593
-4.41605
-4.41611
-4.41606
-4.41585
-4.41548
-4.53941
-4.53947
-4.53954
-4.53963
-4.53973
-4.53985
-4.53997
-4.54011
-4.54026
-4.54042
-4.54059
-4.54076
-4.54092
-4.54107
-4.54117
-4.54121
-4.54111
-4.54082
-4.54033
-4.66465
-4.66471
-4.66477
-4.66486
-4.66495
-4.66505
-4.66517
-4.6653
-4.66544
-4.66559
-4.66575
-4.66591
-4.66608
-4.66622
-4.66632
-4.66634
-4.66622
-4.66589
-4.66535
-4.78988
-4.78993
-4.79
-4.79007
-4.79016
-4.79025
-4.79036
-4.79048
-4.79061
-4.79075
-4.79091
-4.79107
-4.79123
-4.79138
-4.7915
-4.79154
-4.79143
-4.7911
-4.79056
-4.9151
-4.91516
-4.91522
-4.91528
-4.91536
-4.91545
-4.91554
-4.91565
-4.91578
-4.91591
-4.91606
-4.91622
-4.91639
-4.91656
-4.91671
-4.91679
-4.91672
-4.9164
-4.91584
-5.04033
-5.04038
-5.04043
-5.04049
-5.04056
-5.04064
-5.04072
-5.04082
-5.04093
-5.04106
-5.0412
-5.04136
-5.04154
-5.04174
-5.04193
-5.04208
-5.04209
-5.04178
-5.04118
-5.16555
-5.16559
-5.16564
-5.1657
-5.16575
-5.16582
-5.1659
-5.16598
-5.16608
-5.16619
-5.16633
-5.16648
-5.16667
-5.16689
-5.16715
-5.1674
-5.16754
-5.16725
-5.1666
-5.29077
-5.29081
-5.29085
-5.2909
-5.29094
-5.291
-5.29106
-5.29113
-5.29121
-5.29131
-5.29143
-5.29158
-5.29177
-5.29201
-5.29233
-5.29273
-5.29308
-5.29285
-5.29218
-5.416
-5.41603
-5.41606
-5.41609
-5.41613
-5.41617
-5.41622
-5.41627
-5.41634
-5.41642
-5.41651
-5.41663
-5.4168
-5.41704
-5.41741
-5.41799
-5.41872
-5.41863
-5.41809
-5.54122
-5.54124
-5.54126
-5.54128
-5.54131
-5.54134
-5.54137
-5.54141
-5.54145
-5.5415
-5.54156
-5.54165
-5.54176
-5.54195
-5.54227
-5.54298
-5.54429
-5.54472
-5.54475
-5.66644
-5.66645
-5.66647
-5.66648
-5.66649
-5.66651
-5.66652
-5.66654
-5.66656
-5.66659
-5.66661
-5.66665
-5.66669
-5.66678
-5.66697
-5.66749
-5.66898
-5.67082
-5.67243
)
;

boundaryField
{
    leftWall
    {
        type            calculated;
        value           nonuniform List<scalar> 
50
(
747.241
688.425
629.663
570.961
512.321
453.743
395.229
336.783
245.512
121.771
30.2761
-0.490092
-0.798305
-1.08965
-1.2903
-1.42463
-1.54745
-1.67112
-1.79494
-1.9189
-2.04298
-2.16718
-2.29151
-2.41596
-2.54051
-2.66516
-2.78988
-2.91467
-3.03952
-3.16442
-3.28937
-3.41434
-3.53934
-3.66438
-3.78944
-3.91452
-4.03962
-4.16474
-4.28987
-4.415
-4.54014
-4.66526
-4.79037
-4.91544
-5.04048
-5.16547
-5.29038
-5.41533
-5.54023
-5.66561
)
;
    }
    rightWall
    {
        type            calculated;
        value           nonuniform List<scalar> 
50
(
742.293
683.717
625.19
566.807
508.528
450.336
392.142
333.904
242.994
119.676
29.0593
-0.571838
-0.803559
-1.07609
-1.27514
-1.41698
-1.54002
-1.66329
-1.78733
-1.91167
-2.03667
-2.16287
-2.28944
-2.41499
-2.53981
-2.66454
-2.78917
-2.9137
-3.03864
-3.16422
-3.28992
-3.41549
-3.54096
-3.66635
-3.79124
-3.91568
-4.04039
-4.16538
-4.29048
-4.41548
-4.54033
-4.66535
-4.79056
-4.91584
-5.04118
-5.1666
-5.29218
-5.41809
-5.54475
-5.67243
)
;
    }
    lowerWall
    {
        type            calculated;
        value           nonuniform List<scalar> 
62
(
776.67
776.45
775.966
775.212
774.206
772.969
771.527
769.905
768.132
766.24
764.263
762.236
760.189
758.146
756.118
754.119
752.205
750.511
749.173
748.067
747.419
747.258
747.053
717.688
658.779
599.792
540.772
481.718
422.628
363.469
304.179
275.181
275.281
275.542
276.057
722.479
664.077
605.518
546.627
487.463
428.208
368.849
309.377
751.634
752.334
753.199
754.16
755.212
756.376
757.722
759.108
760.384
761.461
762.469
763.901
765.42
765.778
768.692
770.419
770.777
771.444
771.609
)
;
    }
    atmosphere
    {
        type            calculated;
        value           nonuniform List<scalar> 
46
(
-5.72916
-5.72904
-5.72904
-5.72904
-5.72904
-5.72904
-5.72904
-5.72904
-5.72904
-5.72904
-5.72904
-5.72904
-5.72904
-5.72904
-5.72904
-5.72904
-5.72904
-5.72904
-5.72904
-5.72904
-5.72904
-5.72904
-5.72904
-5.72905
-5.72905
-5.72905
-5.72905
-5.72906
-5.72906
-5.72907
-5.72908
-5.72909
-5.7291
-5.72911
-5.72912
-5.72913
-5.72914
-5.72915
-5.72916
-5.72917
-5.72917
-5.72916
-5.72915
-5.72912
-5.72906
-5.73829
)
;
    }
    defaultFaces
    {
        type            empty;
    }
}


// ************************************************************************* //
