/*--------------------------------*- C++ -*----------------------------------*\
  =========                 |
  \\      /  F ield         | OpenFOAM: The Open Source CFD Toolbox
   \\    /   O peration     | Website:  https://openfoam.org
    \\  /    A nd           | Version:  9
     \\/     M anipulation  |
\*---------------------------------------------------------------------------*/
FoamFile
{
    format      ascii;
    class       volScalarField;
    location    "6.15";
    object      epsilon;
}
// * * * * * * * * * * * * * * * * * * * * * * * * * * * * * * * * * * * * * //

dimensions      [0 2 -3 0 0 0 0];

internalField   nonuniform List<scalar> 
2268
(
0.00026696
0.0013888
0.00245186
0.00340087
0.00424613
0.00500075
0.00567699
0.00628247
0.00682148
0.00729935
0.00773987
0.00814223
0.00851168
0.00882534
0.00900497
0.00888458
0.00814676
0.00688811
0.00570674
0.00484833
0.00400439
0.00283821
0.000852332
0.000535459
0.000938662
0.00138751
0.00179996
0.00216981
0.00249933
0.00279226
0.00305215
0.00328208
0.00348579
0.00367034
0.00383522
0.00398097
0.00409961
0.00416693
0.00413406
0.00393412
0.00363393
0.00324329
0.00281606
0.00233013
0.001835
0.00137519
0.000898871
0.000980989
0.00127473
0.00156436
0.00183051
0.00207015
0.00228422
0.00247481
0.00264425
0.00279523
0.00293113
0.00305235
0.00315814
0.0032425
0.00329052
0.00327684
0.0031783
0.00302624
0.00280505
0.00253592
0.00225476
0.00205334
0.00227271
0.00125329
0.00109343
0.00130137
0.00153022
0.00174742
0.00194569
0.00212399
0.00228346
0.002426
0.00255383
0.00266929
0.00277292
0.00286346
0.00293569
0.00297866
0.00297707
0.00292182
0.00282934
0.00269142
0.00252893
0.00239817
0.00242855
0.00327336
0.00159255
0.0012278
0.00137392
0.00156263
0.00174866
0.00192096
0.00207696
0.00221716
0.00234317
0.002457
0.00256058
0.00265452
0.00273734
0.00280433
0.00284701
0.00285565
0.0028278
0.00277497
0.00269586
0.0026186
0.00261634
0.00287142
0.00446104
0.00192019
0.00137124
0.00146789
0.00162656
0.00178969
0.00194297
0.00208262
0.00220871
0.00232269
0.00242648
0.00252187
0.00260952
0.00268791
0.00275277
0.00279739
0.00281567
0.00280927
0.00279028
0.00276098
0.00275621
0.00287104
0.00338052
0.00607845
0.00224119
0.00151923
0.00157419
0.00170887
0.00185378
0.00199174
0.00211808
0.00223263
0.00233684
0.00243261
0.00252167
0.00260478
0.00268048
0.00274495
0.00279289
0.0028208
0.00283315
0.00284424
0.0028594
0.00291559
0.00313076
0.00393465
0.00868836
0.00255919
0.0016702
0.00168895
0.00180369
0.00193323
0.00205793
0.00217257
0.00227693
0.00237256
0.0024614
0.00254516
0.00262469
0.00269877
0.00276401
0.00281631
0.00285407
0.00288356
0.00292031
0.00297268
0.00307471
0.00335286
0.00440571
0.014399
0.000751751
0.00355222
0.00553299
0.00660322
0.00721709
0.00754992
0.00782548
0.00810918
0.00817866
0.00740638
0.00602643
0.00459118
0.00336215
0.00353823
0.0049041
0.00456719
0.00293379
0.00167544
0.000585392
0.000908878
0.00195909
0.00263517
0.00305047
0.00330316
0.00345117
0.00355305
0.00362755
0.00361396
0.00339451
0.00307914
0.00264133
0.00224305
0.00221602
0.00230684
0.00210471
0.00156676
0.00106428
0.000692884
0.00151468
0.00192387
0.00228551
0.00251905
0.00266389
0.00275045
0.00280593
0.00283459
0.00279876
0.002656
0.00248003
0.00223572
0.00199431
0.00190943
0.00185296
0.00168693
0.00134929
0.00100285
0.00087323
0.00230053
0.00216171
0.00229214
0.0024023
0.00247682
0.00252222
0.00254925
0.00255425
0.00250695
0.00238749
0.00225311
0.00208154
0.00190408
0.00180942
0.001721
0.0015703
0.00130556
0.00101886
0.000990401
0.00327529
0.00252521
0.00241584
0.00241404
0.00242938
0.00244033
0.00244426
0.00243221
0.00237784
0.00226955
0.0021533
0.00202006
0.00188093
0.00179177
0.00169402
0.00155237
0.00131936
0.00106655
0.00112091
0.00467696
0.00297955
0.00258949
0.00247989
0.00244256
0.00242297
0.00240643
0.00238031
0.00232121
0.00222065
0.00211715
0.00200908
0.00189895
0.0018155
0.00171404
0.00157563
0.0013544
0.00113069
0.00125222
0.00723013
0.00350441
0.00277708
0.00256905
0.00248633
0.00243989
0.00240489
0.0023665
0.00230431
0.00221093
0.00212112
0.00203319
0.00194434
0.00185851
0.00175656
0.0016153
0.0013963
0.00120322
0.00139727
0.0127094
0.00398328
0.0029439
0.00266463
0.00254639
0.0024772
0.00242574
0.00237649
0.00231245
0.00222713
0.00215151
0.0020815
0.00200385
0.00190958
0.0018079
0.00166144
0.0014447
0.00128094
0.00157495
0.00305249
0.00191067
0.00187918
0.00196706
0.00207514
0.0021808
0.00227831
0.00236774
0.0024509
0.00252984
0.00260624
0.00268095
0.0027534
0.00282097
0.0028811
0.00293422
0.00298793
0.00305734
0.00315298
0.00329579
0.00357261
0.00425744
0.00631051
0.00371141
0.00224223
0.00215822
0.00221911
0.00230088
0.00238207
0.0024571
0.00252701
0.00259451
0.00266164
0.00272987
0.00280018
0.00287288
0.00294644
0.00301942
0.00309268
0.0031714
0.00326339
0.00337374
0.00351415
0.00372533
0.00410448
0.00478886
0.00447118
0.00260946
0.0024847
0.00251798
0.00255699
0.00260641
0.00265476
0.00270257
0.00275372
0.00280982
0.00287148
0.00293976
0.00301523
0.00309708
0.00318432
0.0032773
0.00337726
0.00348017
0.00358179
0.00370107
0.00384604
0.00404869
0.00431003
0.00514317
0.00301654
0.00293544
0.00291086
0.00283206
0.00284586
0.00286209
0.00288282
0.00291598
0.00296191
0.00301888
0.00308769
0.00316812
0.00325987
0.00336175
0.00347395
0.0035974
0.00370899
0.00378445
0.00388787
0.00398141
0.00408429
0.00419109
0.00613663
0.00343598
0.00328561
0.00314483
0.00305997
0.00308517
0.0030535
0.00304095
0.00305754
0.0030994
0.00315913
0.00323271
0.00331859
0.00340788
0.00350445
0.00361301
0.00372554
0.00380768
0.00389127
0.00400007
0.00405332
0.00411686
0.00415923
0.00732679
0.00366851
0.00343741
0.00335452
0.00327929
0.00338897
0.00326741
0.00319408
0.00318402
0.00321094
0.00326756
0.00333849
0.00342241
0.00351241
0.00361477
0.00372919
0.00383035
0.00388433
0.00395905
0.00407476
0.00410286
0.00410765
0.00412243
0.00668738
0.00359995
0.0033359
0.00324639
0.00319995
0.00324655
0.00322037
0.00321572
0.00323028
0.0032695
0.00333188
0.0034086
0.00349598
0.00358469
0.00366755
0.00374808
0.00382017
0.00387769
0.00393829
0.00399567
0.00402558
0.00405209
0.00405338
0.00176636
0.0034495
0.00314237
0.00307863
0.00308622
0.00312884
0.00315583
0.0031868
0.00323075
0.00329279
0.00336832
0.00345313
0.00353961
0.00361587
0.00367717
0.00373894
0.00379966
0.00385486
0.00389914
0.00393467
0.00395711
0.00397952
0.00395491
0.00748955
0.00342863
0.00306555
0.00300202
0.00301912
0.00306845
0.0031187
0.00317056
0.00323089
0.0033019
0.00337887
0.00345811
0.0035338
0.00360044
0.00366054
0.00372198
0.00377737
0.00381922
0.00384979
0.00387433
0.00389212
0.00389455
0.00387649
0.00748552
0.00342524
0.00303405
0.00296146
0.00297742
0.00302855
0.00308997
0.00315498
0.00322445
0.0032982
0.00337272
0.003445
0.00351249
0.00357525
0.00363746
0.0036994
0.00374855
0.00378057
0.0038046
0.00382375
0.00383492
0.00383023
0.0038154
0.0017683
0.00344439
0.00303254
0.00294593
0.00295493
0.003003
0.00306726
0.00313782
0.00321118
0.00328547
0.00335791
0.00342634
0.00349028
0.00355154
0.00361247
0.00367016
0.00371486
0.00374516
0.00376825
0.00378528
0.00379276
0.00378733
0.00377329
0.00748998
0.00351184
0.00305505
0.0029496
0.00294797
0.00298979
0.00305175
0.0031224
0.00319603
0.0032696
0.00334059
0.00340735
0.00347005
0.00353006
0.00358814
0.00364161
0.00368494
0.00371713
0.00374166
0.0037589
0.00376663
0.00376334
0.00375144
0.00176763
0.00357589
0.00309297
0.00296613
0.00295217
0.00298625
0.0030434
0.00311127
0.00318312
0.00325524
0.00332509
0.00339128
0.00345376
0.00351307
0.00356928
0.00362069
0.00366461
0.00369995
0.00372734
0.00374673
0.00375691
0.00375726
0.00374917
0.00176804
0.00366307
0.00313835
0.00298971
0.00296342
0.00298956
0.00304122
0.00310532
0.00317467
0.0032452
0.00331434
0.00338068
0.00344374
0.0035035
0.0035597
0.00361136
0.00365716
0.00369608
0.00372738
0.00375049
0.0037647
0.00376993
0.00376704
0.00748441
0.00377157
0.00318475
0.00301609
0.00297879
0.00299766
0.00304415
0.00310464
0.00317171
0.00324109
0.00331019
0.00337743
0.00344204
0.0035036
0.00356168
0.00361558
0.00366446
0.00370746
0.0037435
0.00377168
0.00379143
0.00380286
0.00380642
0.00758662
0.00385502
0.00322693
0.00304294
0.0029966
0.00300933
0.00305151
0.00310916
0.00317472
0.00324383
0.00331379
0.00338293
0.00345022
0.00351497
0.00357661
0.0036345
0.00368788
0.00373596
0.00377774
0.00381229
0.00383904
0.00385793
0.0038691
0.00775344
0.00391885
0.00326566
0.00306973
0.00301606
0.00302395
0.00306297
0.0031189
0.00318407
0.00325404
0.00332603
0.00339825
0.00346948
0.00353888
0.00360571
0.00366927
0.00372881
0.00378347
0.00383242
0.00387477
0.0039099
0.00393752
0.00395748
0.0079133
0.00397719
0.00330212
0.00309622
0.00303678
0.00304119
0.0030784
0.00313394
0.00320006
0.00327223
0.00334761
0.0034243
0.00350096
0.00357658
0.00365031
0.00372136
0.00378889
0.00385202
0.0039099
0.00396173
0.00400679
0.00404456
0.00407467
0.00806299
0.0040311
0.00333643
0.00312227
0.00305856
0.00306096
0.00309782
0.00315444
0.00322301
0.00329891
0.00337924
0.00346201
0.00354579
0.00362944
0.003712
0.00379255
0.00387019
0.00394395
0.00401286
0.00407617
0.00413302
0.0041827
0.0042246
0.0082019
0.00408071
0.00336863
0.00314786
0.00308141
0.00308329
0.00312134
0.00318066
0.00325331
0.00333465
0.00342171
0.00351243
0.0036053
0.00369907
0.00379267
0.00388507
0.00397523
0.00406209
0.00414457
0.00422175
0.00429269
0.00435645
0.0044122
0.0083292
0.00412609
0.00339885
0.00317309
0.00310543
0.00310836
0.00314923
0.00321294
0.00329149
0.00338017
0.00347598
0.0035768
0.00368105
0.0037874
0.00389463
0.00400161
0.00410715
0.00421006
0.00430909
0.00440304
0.00449088
0.00457144
0.00464363
0.00844539
0.00416748
0.00342727
0.00319816
0.00313085
0.00313645
0.00318185
0.00325179
0.00333821
0.00343637
0.00354322
0.00365663
0.00377494
0.00389672
0.00402068
0.00414549
0.00426982
0.00439227
0.00451139
0.00462571
0.00473396
0.00483468
0.0049265
0.00855213
0.00420509
0.00345411
0.00322334
0.003158
0.00316796
0.00321971
0.00329787
0.00339432
0.00350433
0.00362485
0.0037537
0.0038892
0.00402983
0.00417416
0.00432072
0.00446794
0.0046142
0.00475774
0.0048968
0.00502974
0.00515478
0.00527019
0.00864498
0.00423869
0.00347957
0.00324893
0.00318726
0.00320336
0.00326341
0.00335193
0.00346082
0.00358535
0.00372251
0.00387013
0.00402649
0.00418999
0.00435908
0.00453209
0.00470721
0.00488246
0.00505577
0.00522495
0.00538786
0.00554234
0.00568621
0.00872063
0.00426824
0.00350393
0.0032753
0.00321908
0.0032432
0.00331363
0.00341485
0.00353882
0.00368088
0.00383809
0.00400833
0.00418986
0.00438104
0.00458016
0.00478534
0.00499445
0.0052051
0.00541475
0.00562067
0.00582013
0.00601039
0.0061887
0.00878381
0.00429453
0.00352762
0.00330288
0.00325393
0.00328805
0.00337108
0.00348757
0.00362955
0.00379253
0.00397368
0.004171
0.00438279
0.00460737
0.00484291
0.00508724
0.00533784
0.00559182
0.00584597
0.00609687
0.00634102
0.00657489
0.00679498
0.00883862
0.00431837
0.00355109
0.00333207
0.00329226
0.00333848
0.00343651
0.00357102
0.00373427
0.00392197
0.00413153
0.00436112
0.00460916
0.00487402
0.00515369
0.00544571
0.00574709
0.00605424
0.00636311
0.00666929
0.00696829
0.00725544
0.00752632
0.00888674
0.00434022
0.00357466
0.0033632
0.00333451
0.00339503
0.00351062
0.00366616
0.00385424
0.00407092
0.00431396
0.00458184
0.00487322
0.00518653
0.0055197
0.00586993
0.00623362
0.00660629
0.00698272
0.00735717
0.00772371
0.00807617
0.00840887
0.00892802
0.00436003
0.00359847
0.00339655
0.00338104
0.00345819
0.00359405
0.00377386
0.00399065
0.00424101
0.00452324
0.00483632
0.00517932
0.0055509
0.00594898
0.00637042
0.00681084
0.00726458
0.00772483
0.00818397
0.00863406
0.00906685
0.00947492
0.00895862
0.00437695
0.00362241
0.00343233
0.00343224
0.00352842
0.00368732
0.00389475
0.00414439
0.00443359
0.0047614
0.0051276
0.00553191
0.00597348
0.00645035
0.00695905
0.0074943
0.00804884
0.00861368
0.00917849
0.00973245
0.0102644
0.0107645
0.00896546
0.0043895
0.00364661
0.00347085
0.00348835
0.00360598
0.00379076
0.00402927
0.00431609
0.00464961
0.00503004
0.00545828
0.00593514
0.00646058
0.00703309
0.00764897
0.00830186
0.00898244
0.00967861
0.0103762
0.01106
0.0117149
0.0123276
0.0089541
0.00440206
0.00367193
0.0035123
0.00354957
0.00369105
0.0039045
0.00417748
0.00450585
0.00488942
0.00532999
0.00583015
0.00639236
0.00701801
0.0077065
0.00845422
0.00925365
0.0100928
0.0109551
0.0118208
0.0126683
0.0134762
0.0142267
0.00891091
0.00441172
0.0036977
0.00355677
0.00361621
0.00378387
0.00402851
0.00433908
0.00471311
0.00515236
0.00566085
0.00624356
0.00690543
0.00765019
0.00847903
0.00938904
0.0103717
0.0114115
0.012486
0.0135667
0.0146222
0.015622
0.0165414
0.00882554
0.00441347
0.00372305
0.00360482
0.0036891
0.00388497
0.00416276
0.00451332
0.00493644
0.0054365
0.00602045
0.00669666
0.00747368
0.00835893
0.00935682
0.0104664
0.0116788
0.0129746
0.0143226
0.0156815
0.0170046
0.0182466
0.0193731
0.00868804
0.00440353
0.00374873
0.00365885
0.00377063
0.00399585
0.00430744
0.00469903
0.00517337
0.00573816
0.00640422
0.00718443
0.00809252
0.00914156
0.0103415
0.0116957
0.0131966
0.0148208
0.0165256
0.0182501
0.0199222
0.0214728
0.0228532
0.00847439
0.00438136
0.00378057
0.00372594
0.0038665
0.00411982
0.00446333
0.00489457
0.00542004
0.00605145
0.00680441
0.00769756
0.00875178
0.00998846
0.0114267
0.0130782
0.0149408
0.0169888
0.0191652
0.0213789
0.0235152
0.0254634
0.0271535
0.00813653
0.00435637
0.00383819
0.00382375
0.00398881
0.00426324
0.00463199
0.00509765
0.00567089
0.00636781
0.00720935
0.00822128
0.00943371
0.0108799
0.0125931
0.0146005
0.0169128
0.0195089
0.022317
0.0252014
0.027972
0.0304385
0.0325011
0.00761594
0.00438558
0.00398147
0.00399347
0.00416063
0.00443628
0.00481523
0.00530458
0.00591807
0.00667544
0.00760299
0.00873439
0.0101112
0.0117824
0.0138023
0.0162238
0.0190854
0.0223866
0.0260511
0.0298828
0.0335545
0.0367042
0.0391999
0.00750942
0.00478809
0.00439716
0.00432652
0.00442057
0.00465133
0.00501291
0.00550875
0.0061506
0.00695912
0.00796476
0.00920916
0.0107467
0.012646
0.0149897
0.0178705
0.0213783
0.0255686
0.0303982
0.0356171
0.0406511
0.0447031
0.0476568
0.0157336
0.00768852
0.00569484
0.00500755
0.00481774
0.00491412
0.00521733
0.00569795
0.0063536
0.00720045
0.0082706
0.00961254
0.0112936
0.0134037
0.0160599
0.0194089
0.0236234
0.028877
0.0352635
0.0425856
0.0499058
0.0551012
0.0584087
0.153875
0.0264947
0.00972758
0.00630899
0.00536508
0.00519985
0.00540393
0.00585164
0.00650818
0.00737905
0.00849511
0.00990952
0.0117004
0.013977
0.0168903
0.020647
0.0255279
0.0319032
0.0402099
0.050741
0.0626045
0.0689251
0.0721172
1.53828
0.128567
0.0201062
0.00816219
0.005896
0.00541741
0.00552488
0.00594153
0.00659368
0.00747541
0.00861526
0.0100686
0.0119196
0.0142896
0.0173518
0.0213567
0.0266768
0.033894
0.0439851
0.0587617
0.081992
0.0876421
0.0894304
0.0160932
0.0128948
0.0127439
0.0152065
0.00561459
0.0056676
0.00562462
0.00549017
0.00446752
0.0044962
0.00445987
0.00436091
0.00421791
0.00420803
0.00417143
0.00410863
0.00415381
0.00413706
0.00410362
0.00404355
0.00409611
0.00407146
0.00404113
0.00399219
0.00402852
0.00401744
0.00398308
0.00392517
0.00393047
0.00390573
0.00387415
0.00383609
0.00386369
0.00384679
0.00381825
0.00378241
0.00380286
0.00378952
0.0037676
0.00373881
0.00375894
0.0037465
0.00372923
0.00370729
0.00373749
0.0037262
0.00371178
0.00369421
0.00373759
0.00372817
0.00371629
0.00370203
0.00375926
0.00375239
0.00374333
0.00373219
0.00380343
0.00379968
0.00379381
0.00378593
0.00387174
0.00387159
0.0038693
0.00386495
0.00396655
0.00397048
0.00397219
0.00397175
0.00409108
0.00409964
0.00410588
0.00410984
0.00424947
0.00426335
0.0042748
0.00428381
0.00444696
0.00446704
0.00448454
0.00449942
0.00469005
0.00471744
0.00474205
0.00476383
0.00498677
0.00502284
0.00505589
0.00508584
0.00534703
0.00539346
0.00543656
0.00547623
0.00578296
0.00584181
0.00589693
0.00594819
0.00630943
0.00638319
0.00645272
0.00651786
0.00694465
0.00703636
0.00712318
0.0072049
0.00771092
0.00782425
0.00793181
0.00803336
0.00863564
0.00877499
0.00890741
0.0090326
0.00975259
0.00992317
0.0100852
0.0102385
0.0111035
0.0113114
0.0115087
0.011695
0.0127402
0.0129926
0.0132315
0.0134563
0.0147276
0.0150327
0.01532
0.0155895
0.0171474
0.0175142
0.0178576
0.0181776
0.0201032
0.0205414
0.0209483
0.0213245
0.0237278
0.0242469
0.0247237
0.0251598
0.0281921
0.0287997
0.0293497
0.0298458
0.0337177
0.0344155
0.0350355
0.0355847
0.0405909
0.0413683
0.0420424
0.042626
0.0491788
0.0500004
0.0506905
0.051271
0.0599354
0.0607219
0.0613563
0.0618715
0.0733762
0.0739853
0.0744522
0.0748161
0.0899732
0.0902118
0.0903827
0.0905098
0.00627326
0.00387619
0.00310896
0.0028047
0.00265153
0.00255486
0.00248164
0.0024175
0.00235149
0.00227979
0.00222247
0.00217302
0.00209974
0.001993
0.00188761
0.00173823
0.00154103
0.00141932
0.00197495
0.00455553
0.00371593
0.00324313
0.00297685
0.00281157
0.002695
0.00260254
0.00252374
0.00245383
0.00238984
0.00233427
0.00228156
0.00220475
0.00210038
0.00199496
0.00186998
0.00173525
0.00169893
0.00272306
0.00408107
0.00367472
0.00336383
0.00314186
0.00298057
0.00285581
0.00275183
0.00266326
0.00258594
0.0025186
0.00245759
0.0023975
0.0023196
0.00222353
0.00212717
0.00203725
0.00197464
0.00204349
0.00345554
0.00395869
0.00370871
0.00349323
0.003306
0.00315402
0.00302736
0.00291344
0.00281771
0.00273514
0.0026625
0.00259593
0.00252927
0.00244729
0.00235532
0.00227178
0.00221613
0.00222061
0.00239712
0.00431022
0.0039114
0.00372169
0.00356116
0.00341382
0.00330261
0.00319229
0.00306794
0.00296799
0.00288359
0.00279843
0.00270735
0.00262423
0.0025589
0.00247936
0.002392
0.00236495
0.00243006
0.00270103
0.00467049
0.00388657
0.00375881
0.00364207
0.00351176
0.00338967
0.00328274
0.00318024
0.00309684
0.00301796
0.00292747
0.00280892
0.00270019
0.00261726
0.00252867
0.00246135
0.0024617
0.0025616
0.00289376
0.00488047
0.00383119
0.00373328
0.00366585
0.00358381
0.00347267
0.00338108
0.00327735
0.00318545
0.0030946
0.00299996
0.00288702
0.00276888
0.00265448
0.00255564
0.00249026
0.0024988
0.00260867
0.00300756
0.00533114
0.00377088
0.00368827
0.00362438
0.00355614
0.003468
0.00337645
0.00328319
0.00318849
0.00308941
0.00299593
0.00290374
0.00280701
0.00269402
0.00258644
0.00249634
0.0024745
0.00257497
0.00304695
0.00583831
0.00372303
0.00364506
0.00357506
0.00350431
0.00342352
0.00333642
0.00325251
0.00315933
0.00305659
0.00296025
0.00287171
0.00278694
0.00270127
0.00260803
0.0025033
0.00244503
0.00250459
0.00294491
0.00594888
0.00368749
0.00361562
0.0035489
0.00348338
0.00340946
0.00332382
0.00323787
0.00314163
0.0030397
0.00293931
0.00284094
0.00274723
0.00266892
0.00259165
0.00249803
0.00242097
0.00243316
0.0027779
0.00552625
0.00366613
0.00360357
0.00354361
0.00348374
0.00341385
0.00332883
0.00323991
0.0031462
0.00304724
0.00294318
0.00283648
0.00272905
0.00263062
0.00254194
0.00245923
0.002391
0.00237741
0.00261929
0.00490212
0.00366114
0.00360837
0.0035543
0.00349721
0.0034292
0.00334721
0.00326132
0.00317237
0.00307456
0.00296962
0.00286025
0.00274567
0.0026282
0.00251676
0.00242122
0.00235784
0.00234715
0.00250056
0.00489584
0.00367522
0.00363106
0.00358205
0.00352671
0.00346042
0.00338313
0.00330167
0.00321563
0.00312042
0.00301783
0.0029094
0.00279329
0.00266986
0.00254718
0.00243765
0.00236404
0.00235444
0.0024649
0.00486796
0.00371077
0.00367394
0.00363028
0.00357795
0.00351459
0.00344161
0.00336331
0.00327937
0.00318721
0.00308767
0.00298144
0.00286703
0.00274571
0.0026244
0.00251476
0.00243867
0.00242849
0.00254968
0.004699
0.00376982
0.00373975
0.0037018
0.00365391
0.00359469
0.00352583
0.00345024
0.00336813
0.00327828
0.0031811
0.00307701
0.00296562
0.00284923
0.00273475
0.00263411
0.00256848
0.00257291
0.00271173
0.00114515
0.00385449
0.00383138
0.00379938
0.0037568
0.00370266
0.00363827
0.00356565
0.00348544
0.00339735
0.00330181
0.00319944
0.00309103
0.00297977
0.00287322
0.00278491
0.00273903
0.00278319
0.00304244
0.00490313
0.00396752
0.0039521
0.00392674
0.00389019
0.00384175
0.00378225
0.00371307
0.00363503
0.00354851
0.00345421
0.00335319
0.0032472
0.00314035
0.00304104
0.00296467
0.00294003
0.0030293
0.00342489
0.00540817
0.00411265
0.00410602
0.00408836
0.0040587
0.00401655
0.00396234
0.00389702
0.0038215
0.00373656
0.00364325
0.00354317
0.00343888
0.00333536
0.00324192
0.00317578
0.00317037
0.00330166
0.00380702
0.00615996
0.00429472
0.0042983
0.00428964
0.00426795
0.00423278
0.00418435
0.00412333
0.00405064
0.0039673
0.00387475
0.00377506
0.00367157
0.00357004
0.0034808
0.00342283
0.00343441
0.00360775
0.00424002
0.00706688
0.00451979
0.00453533
0.00453724
0.00452477
0.0044975
0.00445548
0.00439924
0.00432965
0.00424792
0.00415579
0.00405579
0.00395194
0.00385082
0.00376382
0.00371175
0.00373753
0.00394937
0.00471585
0.00823919
0.00479533
0.00482497
0.00483931
0.0048376
0.00481937
0.00478459
0.00473367
0.00466746
0.00458729
0.00449512
0.00439395
0.00428837
0.00418583
0.00409888
0.00405037
0.00408775
0.00433374
0.00523289
0.0096687
0.00513052
0.00517683
0.00520585
0.00521674
0.00520899
0.00518248
0.00513756
0.00507505
0.00499636
0.00490365
0.00480026
0.00469139
0.00458535
0.00449611
0.00444898
0.00449674
0.00477658
0.00580446
0.0113018
0.0055366
0.00560267
0.00564904
0.00567474
0.00567921
0.00566227
0.00562421
0.00556582
0.00548855
0.00539471
0.00528794
0.005174
0.00506213
0.00496793
0.00492002
0.00497855
0.00530067
0.00648473
0.0132331
0.00602726
0.0061168
0.00618368
0.00622683
0.00624561
0.00623982
0.00620968
0.00615597
0.00608013
0.00598457
0.00587314
0.0057521
0.00563164
0.00552913
0.00547707
0.00554326
0.00590492
0.00724029
0.0151666
0.00661924
0.00673664
0.00682773
0.00689139
0.00692694
0.00693416
0.00691326
0.00686496
0.00679069
0.00669285
0.0065754
0.00644498
0.00631266
0.00619755
0.00613521
0.00620021
0.00658601
0.00803021
0.0168082
0.0073329
0.00748328
0.00760289
0.00769056
0.00774569
0.00776809
0.00775799
0.00771607
0.00764367
0.00754313
0.00741842
0.00727632
0.00712841
0.00699505
0.00691436
0.00696624
0.00735614
0.00886373
0.0182021
0.00819304
0.00838231
0.00853527
0.0086509
0.00872874
0.00876876
0.0087713
0.00873702
0.00866714
0.00856379
0.00843074
0.00827463
0.0081072
0.00794964
0.00784213
0.00786927
0.00824844
0.0098059
0.0197273
0.00922983
0.00946465
0.00965632
0.00980416
0.0099081
0.00996844
0.00998573
0.00996067
0.00989433
0.00978851
0.00964653
0.0094746
0.00928423
0.00909704
0.00895508
0.00894835
0.00931048
0.0109368
0.0216941
0.01048
0.0107677
0.0110038
0.0111883
0.0113218
0.0114053
0.0114397
0.0114258
0.0113645
0.0112573
0.0111068
0.0109183
0.0107029
0.010482
0.0102998
0.010253
0.0105979
0.0123273
0.0242498
0.0119882
0.0123368
0.0126232
0.0128486
0.013015
0.0131244
0.0131783
0.0131779
0.0131241
0.0130176
0.0128603
0.0126566
0.0124161
0.0121601
0.0119345
0.0118444
0.0121746
0.0140409
0.0274224
0.0138094
0.0142267
0.0145688
0.014839
0.0150412
0.0151789
0.0152548
0.0152706
0.0152272
0.0151251
0.0149651
0.01475
0.0144882
0.0141997
0.0139321
0.0137992
0.0141192
0.0161525
0.0312418
0.0160108
0.0165043
0.0169065
0.0172241
0.0174638
0.0176315
0.0177315
0.0177665
0.0177377
0.0176453
0.0174892
0.0172708
0.0169965
0.0166848
0.0163838
0.0162163
0.0165378
0.0187775
0.0358771
0.0186752
0.0192505
0.0197151
0.0200807
0.0203582
0.0205565
0.0206822
0.0207393
0.02073
0.0206544
0.0205121
0.0203033
0.0200328
0.0197171
0.0194041
0.0192252
0.0195786
0.0221049
0.0418156
0.0219047
0.0225642
0.0230902
0.0235015
0.0238144
0.024042
0.0241937
0.0242756
0.024291
0.024241
0.0241256
0.0239451
0.0237037
0.0234171
0.0231332
0.0229925
0.0234432
0.0264
0.0496863
0.0258254
0.0265661
0.0271471
0.0275974
0.0279401
0.0281933
0.0283696
0.0284776
0.0285227
0.0285078
0.0284348
0.0283065
0.0281296
0.0279225
0.0277373
0.0277264
0.0283966
0.0320079
0.060105
0.030593
0.0314026
0.0320252
0.0325021
0.0328648
0.0331365
0.0333335
0.0334671
0.0335452
0.0335739
0.0335592
0.0335098
0.0334407
0.033382
0.0334011
0.0336756
0.0347875
0.0394205
0.0739688
0.0363982
0.0372515
0.0378926
0.0383772
0.0387453
0.039025
0.0392356
0.0393911
0.0395022
0.0395792
0.0396348
0.039688
0.039771
0.0399409
0.0403065
0.0411098
0.0430605
0.0493922
0.0929154
0.0434724
0.044327
0.0449526
0.0454189
0.045773
0.046046
0.0462593
0.0464287
0.0465676
0.0466908
0.0468189
0.046986
0.0472509
0.0477194
0.0485877
0.050252
0.0537128
0.0630673
0.119831
0.0520916
0.0528852
0.0534504
0.0538665
0.0541831
0.0544314
0.0546328
0.0548031
0.0549572
0.0551136
0.0553005
0.0555674
0.0560052
0.0567871
0.0582538
0.0611141
0.0670625
0.0820652
0.160815
0.0625777
0.0632304
0.0636836
0.0640146
0.0642681
0.0644713
0.0646423
0.0647951
0.0649439
0.0651078
0.0653185
0.0656342
0.066169
0.0671575
0.0691067
0.0731933
0.082497
0.107669
0.229489
0.0752984
0.0757258
0.0760173
0.0762304
0.076396
0.0765324
0.0766517
0.0767637
0.0768788
0.0770124
0.0771911
0.0774659
0.0779422
0.0788536
0.0807619
0.085172
0.0968141
0.135581
0.353103
0.0906727
0.0908125
0.0909074
0.0909778
0.0910341
0.0910824
0.0911267
0.0911706
0.0912182
0.091276
0.0913553
0.0914783
0.0916925
0.0921087
0.0930215
0.0953672
0.102955
0.139331
0.581046
)
;

boundaryField
{
    leftWall
    {
        type            epsilonWallFunction;
        value           nonuniform List<scalar> 
50
(
0.00026696
0.000535459
0.000898871
0.00125329
0.00159255
0.00192019
0.00224119
0.00255919
0.00305249
0.00371141
0.00447118
0.00514317
0.00613663
0.00732679
0.00668738
0.00176636
0.00748955
0.00748552
0.0017683
0.00748998
0.00176763
0.00176804
0.00748441
0.00758662
0.00775344
0.0079133
0.00806299
0.0082019
0.0083292
0.00844539
0.00855213
0.00864498
0.00872063
0.00878381
0.00883862
0.00888674
0.00892802
0.00895862
0.00896546
0.0089541
0.00891091
0.00882554
0.00868804
0.00847439
0.00813653
0.00761594
0.00750942
0.0157336
0.153875
1.53828
)
;
    }
    rightWall
    {
        type            epsilonWallFunction;
        value           nonuniform List<scalar> 
50
(
0.000585392
0.000692884
0.00087323
0.000990401
0.00112091
0.00125222
0.00139727
0.00157495
0.00197495
0.00272306
0.00345554
0.00431022
0.00467049
0.00488047
0.00533114
0.00583831
0.00594888
0.00552625
0.00490212
0.00489584
0.00486796
0.004699
0.00114515
0.00490313
0.00540817
0.00615996
0.00706688
0.00823919
0.0096687
0.0113018
0.0132331
0.0151666
0.0168082
0.0182021
0.0197273
0.0216941
0.0242498
0.0274224
0.0312418
0.0358771
0.0418156
0.0496863
0.060105
0.0739688
0.0929154
0.119831
0.160815
0.229489
0.353103
0.581046
)
;
    }
    lowerWall
    {
        type            epsilonWallFunction;
        value           nonuniform List<scalar> 
62
(
0.00026696
0.0013888
0.00245186
0.00340087
0.00424613
0.00500075
0.00567699
0.00628247
0.00682148
0.00729935
0.00773987
0.00814223
0.00851168
0.00882534
0.00900497
0.00888458
0.00814676
0.00688811
0.00570674
0.00484833
0.00400439
0.00283821
0.000852332
0.000852332
0.00137519
0.00227271
0.00327336
0.00446104
0.00607845
0.00868836
0.014399
0.0160932
0.0128948
0.0127439
0.0152065
0.000751751
0.000908878
0.00151468
0.00230053
0.00327529
0.00467696
0.00723013
0.0127094
0.000751751
0.00355222
0.00553299
0.00660322
0.00721709
0.00754992
0.00782548
0.00810918
0.00817866
0.00740638
0.00602643
0.00459118
0.00336215
0.00353823
0.0049041
0.00456719
0.00293379
0.00167544
0.000585392
)
;
    }
    atmosphere
    {
        type            inletOutlet;
        inletValue      uniform 0.1;
        value           nonuniform List<scalar> 
46
(
0.1
0.128567
0.0201062
0.00816219
0.005896
0.00541741
0.00552488
0.00594153
0.00659368
0.00747541
0.00861526
0.0100686
0.0119196
0.0142896
0.0173518
0.0213567
0.0266768
0.033894
0.0439851
0.0587617
0.1
0.1
0.1
0.1
0.1
0.1
0.1
0.1
0.1
0.1
0.1
0.1
0.1
0.1
0.1
0.1
0.1
0.1
0.1
0.1
0.1
0.1
0.1
0.1
0.1
0.581046
)
;
    }
    defaultFaces
    {
        type            empty;
    }
}


// ************************************************************************* //
