/*--------------------------------*- C++ -*----------------------------------*\
  =========                 |
  \\      /  F ield         | OpenFOAM: The Open Source CFD Toolbox
   \\    /   O peration     | Website:  https://openfoam.org
    \\  /    A nd           | Version:  9
     \\/     M anipulation  |
\*---------------------------------------------------------------------------*/
FoamFile
{
    format      ascii;
    class       volScalarField;
    location    "6.15";
    object      nut;
}
// * * * * * * * * * * * * * * * * * * * * * * * * * * * * * * * * * * * * * //

dimensions      [0 2 -1 0 0 0 0];

internalField   nonuniform List<scalar> 
2268
(
1.27504e-05
1.46871e-05
1.77504e-05
1.97964e-05
2.13177e-05
2.25133e-05
2.34863e-05
2.42938e-05
2.497e-05
2.554e-05
2.60454e-05
2.64913e-05
2.68877e-05
2.72141e-05
2.73944e-05
2.72647e-05
2.64764e-05
2.50233e-05
2.3508e-05
2.22682e-05
2.08927e-05
1.8637e-05
1.24879e-05
2.90409e-05
0.000115838
0.00015638
0.000182109
0.000200713
0.000215134
0.000226863
0.000236689
0.000245038
0.000252083
0.000257833
0.000262856
0.000267141
0.000270312
0.000271423
0.000268744
0.000259158
0.000234724
0.000212752
0.000198158
0.000186436
0.000143871
3.97734e-05
3.45141e-05
0.000197057
0.000289546
0.000349607
0.000393001
0.000426348
0.000453066
0.000475056
0.000493391
0.000508668
0.000521278
0.000532033
0.00054087
0.000546948
0.000548306
0.000541503
0.000520603
0.000477159
0.000434636
0.000398465
0.000351083
0.000242244
4.70209e-05
3.85584e-05
0.000254536
0.000394796
0.000488999
0.000557835
0.000610828
0.000653111
0.000687651
0.000716198
0.000739808
0.000759209
0.000775384
0.000788203
0.000796451
0.000797458
0.000786784
0.000757578
0.000702741
0.000643673
0.000582433
0.000492537
0.00032049
5.31006e-05
4.17648e-05
0.000298032
0.000479671
0.000605411
0.000698542
0.000770646
0.000828226
0.000875152
0.000913777
0.000945569
0.000971514
0.000992729
0.00100902
0.00101892
0.00101935
0.00100551
0.000970851
0.000909495
0.000837153
0.0007514
0.000620866
0.000390469
5.88775e-05
4.44534e-05
0.000332968
0.00055026
0.000704466
0.000820151
0.000910334
0.000982571
0.00104146
0.00108984
0.00112954
0.00116175
0.00118767
0.0012071
0.00121841
0.00121837
0.00120227
0.00116428
0.00109949
0.00101667
0.000909463
0.000743272
0.000455372
6.52946e-05
4.68051e-05
0.000362358
0.000610672
0.000790404
0.000926749
0.00103378
0.00111985
0.00119013
0.00124786
0.00129512
0.0013333
0.00136364
0.00138603
0.00139875
0.00139864
0.00138128
0.00134159
0.00127542
0.00118481
0.00106097
0.000865457
0.00052435
7.36036e-05
4.89231e-05
0.000388037
0.0006637
0.000866328
0.00102148
0.00114406
0.00124307
0.0013241
0.00139069
0.00144514
0.00148901
0.00152356
0.00154884
0.00156316
0.00156352
0.00154592
0.0015059
0.00143955
0.00134441
0.0012103
0.000997452
0.000618227
8.71347e-05
1.19545e-05
2.01007e-05
2.33021e-05
2.47164e-05
2.54589e-05
2.58427e-05
2.6151e-05
2.64599e-05
2.65327e-05
2.56718e-05
2.39738e-05
2.19028e-05
1.97402e-05
2.00195e-05
2.23197e-05
2.18081e-05
1.88224e-05
1.56176e-05
1.72776e-05
3.98316e-05
0.000164586
0.000214577
0.000237666
0.000248264
0.000253038
0.000254963
0.000254611
0.000249306
0.00023424
0.000202855
0.000176399
0.000151622
0.000151076
0.000188416
0.000181021
0.000148484
0.000108194
3.63686e-05
4.72817e-05
0.000275319
0.000403751
0.000466633
0.00049631
0.000509574
0.000514654
0.000513691
0.000502149
0.000470523
0.00041317
0.000360815
0.000316963
0.000314823
0.000361514
0.000339645
0.000269029
0.000177689
3.92827e-05
5.43752e-05
0.000352012
0.000555086
0.000661029
0.000712809
0.000736305
0.000744988
0.00074326
0.000726524
0.000683303
0.00060947
0.000539951
0.000484806
0.000476708
0.00050968
0.000468811
0.000364482
0.000222449
4.09608e-05
6.11901e-05
0.000415778
0.000683073
0.000828909
0.000902023
0.000935653
0.00094776
0.000945084
0.000924107
0.000873634
0.000790417
0.00071066
0.000647817
0.000629393
0.000638124
0.000575686
0.000441253
0.000253099
4.26949e-05
6.89608e-05
0.000476452
0.000799956
0.000979745
0.00107117
0.00111363
0.00112857
0.00112478
0.0011003
0.00104557
0.000958036
0.000872225
0.000803087
0.000771149
0.000752088
0.000667107
0.000506585
0.000281005
4.43184e-05
7.98074e-05
0.000540908
0.000915432
0.00112105
0.0012262
0.00127539
0.00129228
0.00128717
0.00125976
0.0012026
0.00111411
0.00102457
0.000949314
0.000901713
0.000855126
0.000747692
0.000565107
0.000312426
4.59887e-05
9.6243e-05
0.000626462
0.00103953
0.00125853
0.00137157
0.00142489
0.00144264
0.00143595
0.001406
0.00134742
0.00125973
0.00116775
0.00108581
0.00102145
0.000949462
0.000820403
0.000618544
0.00034944
4.78831e-05
5.1896e-05
0.000424269
0.000738116
0.000973051
0.00115505
0.00130021
0.0014183
0.00151537
0.00159531
0.00166064
0.00171305
0.00175355
0.00178273
0.00179918
0.00180053
0.00178372
0.0017453
0.00168131
0.00158574
0.00144568
0.00123343
0.000911472
0.000479865
5.53937e-05
0.000465156
0.000821562
0.00109206
0.00130313
0.00147315
0.00161281
0.0017285
0.00182435
0.00190299
0.00196617
0.00201494
0.0020501
0.00207099
0.00207635
0.00206428
0.00203213
0.00197582
0.0018892
0.00176352
0.0015858
0.00134578
0.00105571
5.89439e-05
0.000500042
0.000898016
0.00119954
0.00143253
0.00162196
0.00177913
0.00191038
0.00201983
0.00211012
0.00218314
0.00224015
0.00228178
0.00230818
0.00231915
0.00231404
0.00229103
0.00224608
0.00217409
0.00207314
0.00193877
0.00177387
0.00160104
6.17688e-05
0.00052189
0.000971746
0.00130141
0.00154692
0.00175208
0.00192426
0.00206887
0.00219003
0.00229051
0.00237249
0.00243752
0.00248569
0.00251817
0.00253543
0.00253806
0.00252559
0.00249302
0.00243497
0.00235982
0.0022649
0.00215666
0.00205346
6.53671e-05
0.000544828
0.00103317
0.00137491
0.00163608
0.00186106
0.0020497
0.00220797
0.00234013
0.00244998
0.00254041
0.00261332
0.00266842
0.00270593
0.00272845
0.00273779
0.00273358
0.00271023
0.00266566
0.00261152
0.00254821
0.00248168
0.00241813
6.94181e-05
0.000577255
0.00104508
0.00139653
0.00167554
0.00193387
0.0021454
0.00232177
0.00246791
0.00258859
0.0026881
0.00276806
0.00282958
0.00287302
0.00290176
0.00291833
0.00292158
0.00290698
0.00287616
0.00283963
0.00280063
0.00275934
0.00271874
6.74348e-05
0.00057341
0.0010583
0.00142407
0.001724
0.00198909
0.00221551
0.00240969
0.00257173
0.0027059
0.00281601
0.00290493
0.00297417
0.00302481
0.00306008
0.00308363
0.00309459
0.00309018
0.00307307
0.00305042
0.00302845
0.00300376
0.00297776
0.000295841
0.000572399
0.0010631
0.00145757
0.00178076
0.00205336
0.00228808
0.002491
0.00266394
0.00280961
0.00293051
0.00302903
0.00310685
0.00316568
0.00320918
0.00324159
0.00326135
0.00326719
0.00326248
0.00325275
0.00324109
0.0032263
0.00321084
6.99718e-05
0.000575652
0.00108533
0.00150038
0.00183924
0.00212189
0.00236383
0.00257318
0.00275342
0.00290708
0.00303629
0.00314302
0.00322925
0.00329726
0.00335089
0.00339307
0.00342221
0.00343798
0.00344412
0.00344448
0.00344095
0.00343354
0.00342649
6.99828e-05
0.000589101
0.00111444
0.00154303
0.00189397
0.00218712
0.00243737
0.00265354
0.00284021
0.00300043
0.00313655
0.00325072
0.0033453
0.00342287
0.00348652
0.00353813
0.00357647
0.00360198
0.00361791
0.00362682
0.00363015
0.00362903
0.00362684
0.000296615
0.000604629
0.0011407
0.00158075
0.00194299
0.00224686
0.00250625
0.00272998
0.00292338
0.00309008
0.00323292
0.00335438
0.00345711
0.00354374
0.00361653
0.00367667
0.00372376
0.00375856
0.00378332
0.00379981
0.00380931
0.0038134
0.00381434
6.98584e-05
0.000612373
0.00116149
0.00161295
0.00198667
0.00230136
0.00257022
0.00280207
0.00300269
0.00317626
0.00332602
0.00345481
0.0035654
0.00366027
0.00374126
0.00380914
0.00386434
0.00390756
0.00394016
0.00396345
0.00397865
0.00398724
0.00399079
0.000296739
0.000621757
0.00117802
0.00164108
0.00202636
0.00235173
0.00263008
0.00287028
0.0030785
0.00325925
0.00341613
0.00355222
0.00367029
0.00377265
0.003861
0.00393607
0.0039986
0.00404922
0.00408875
0.00411818
0.00413857
0.00415121
0.00415722
0.000296933
0.000626238
0.00119219
0.00166687
0.00206343
0.00239914
0.00268677
0.00293536
0.00315131
0.00333941
0.00350348
0.00364672
0.00377186
0.00388114
0.0039762
0.0040579
0.00412689
0.00418391
0.00422952
0.00426442
0.00428952
0.00430585
0.00431425
6.99237e-05
0.000626715
0.00120576
0.00169171
0.00209887
0.0024444
0.00274106
0.00299791
0.00322156
0.00341699
0.00358816
0.0037383
0.00387013
0.00398585
0.00408704
0.00417469
0.0042494
0.00431193
0.00436278
0.00440249
0.0044318
0.00445149
0.00446217
7.02468e-05
0.000630699
0.00121987
0.00171608
0.00213322
0.0024881
0.00279342
0.00305832
0.00328951
0.00349211
0.00367014
0.00382689
0.00396503
0.00408669
0.00419343
0.00428635
0.00436612
0.00443339
0.00448871
0.00453258
0.00456556
0.00458824
0.00460103
7.07559e-05
0.000636152
0.00123412
0.00173995
0.0021666
0.00253047
0.00284414
0.00311682
0.00335531
0.0035648
0.00374939
0.00391235
0.00405631
0.00418337
0.0042951
0.00439266
0.00447681
0.00454813
0.00460726
0.00465465
0.00469077
0.00471604
0.00473075
7.12407e-05
0.00064152
0.00124808
0.00176325
0.00219907
0.00257161
0.00289335
0.00317351
0.00341898
0.00363501
0.00382573
0.0039944
0.00414364
0.00427552
0.00439165
0.00449321
0.00458107
0.00465587
0.00471818
0.00476851
0.00480725
0.00483474
0.00485115
7.16893e-05
0.000646687
0.0012617
0.00178596
0.00223067
0.00261159
0.00294108
0.00322839
0.00348044
0.00370256
0.00389888
0.00407269
0.0042266
0.00436269
0.00448258
0.00458753
0.00467848
0.00475614
0.00482107
0.00487382
0.00491475
0.00494413
0.0049621
7.21012e-05
0.000651674
0.00127496
0.0018081
0.00226142
0.00265039
0.00298728
0.00328132
0.00353951
0.00376718
0.00396851
0.00414682
0.00430474
0.00444437
0.00456738
0.00467509
0.00476852
0.00484847
0.00491555
0.00497028
0.00501305
0.0050441
0.00506356
7.24751e-05
0.000656524
0.00128788
0.00182964
0.00229127
0.00268794
0.00303182
0.00333213
0.0035959
0.00382852
0.00403422
0.00421634
0.00437756
0.00452005
0.00464553
0.0047554
0.00485077
0.00493251
0.00500131
0.00505769
0.00510206
0.00513469
0.00515568
7.28135e-05
0.000661233
0.00130046
0.00185057
0.00232016
0.00272412
0.00307451
0.00338056
0.00364931
0.00388622
0.00409557
0.00428078
0.0044446
0.00458926
0.00471658
0.00482805
0.00492487
0.005008
0.0050782
0.00513605
0.00518196
0.00521622
0.00523893
7.31221e-05
0.000665756
0.00131266
0.00187083
0.00234801
0.0027588
0.00311516
0.00342633
0.00369939
0.00393988
0.00415215
0.00433972
0.00450543
0.00465162
0.00478022
0.0048928
0.0049907
0.00507495
0.00514641
0.0052057
0.00525325
0.00528937
0.00531417
7.33894e-05
0.000670102
0.00132448
0.00189037
0.00237471
0.0027918
0.00315354
0.00346916
0.00374582
0.00398915
0.00420361
0.00439283
0.00455978
0.00470692
0.0048363
0.00494965
0.00504839
0.00513368
0.00520643
0.00526733
0.00531684
0.00535525
0.00538269
7.36065e-05
0.000674337
0.00133593
0.00190918
0.00240017
0.00282297
0.00318941
0.00350877
0.0037883
0.00403373
0.00424967
0.00443989
0.0046075
0.00475513
0.00488497
0.00499889
0.00509843
0.00518486
0.00525916
0.00532208
0.00537408
0.00541543
0.00544625
7.37874e-05
0.000678498
0.00134703
0.00192718
0.00242427
0.00285213
0.00322256
0.00354493
0.00382659
0.00407342
0.0042902
0.00448086
0.00464869
0.00479649
0.00492664
0.00504113
0.00514166
0.00522958
0.00530595
0.00537153
0.00542677
0.00547194
0.00550705
7.39441e-05
0.000682588
0.00135775
0.0019443
0.00244686
0.00287907
0.00325277
0.00357741
0.00386051
0.00410812
0.0043252
0.00451588
0.00468366
0.00483153
0.00496204
0.00507737
0.00517932
0.00526934
0.00534854
0.00541768
0.00547717
0.00552721
0.00556772
7.40818e-05
0.000686586
0.00136801
0.00196039
0.00246772
0.00290355
0.0032798
0.00360604
0.00388997
0.00413784
0.00435484
0.00454531
0.00471297
0.00486103
0.00499223
0.00510891
0.005213
0.00530601
0.00538908
0.00546292
0.00552787
0.00558401
0.00563115
7.42002e-05
0.000690438
0.00137765
0.0019752
0.00248655
0.00292528
0.00330339
0.00363063
0.00391491
0.00416271
0.00437944
0.00456969
0.00473742
0.00488606
0.00501856
0.00513739
0.0052446
0.00534177
0.00542998
0.00550989
0.0055817
0.00564535
0.00570043
7.4289e-05
0.000694039
0.00138645
0.00198838
0.00250291
0.00294378
0.00332316
0.00365098
0.00393535
0.00418297
0.00439949
0.00458978
0.00475804
0.00490792
0.00504258
0.00516464
0.00527624
0.00537896
0.00547385
0.00556141
0.00564166
0.00571431
0.00577871
7.4313e-05
0.000697199
0.00139369
0.00199892
0.00251596
0.00295848
0.00333877
0.00366698
0.00395142
0.00419901
0.00441567
0.0046065
0.00477599
0.00492803
0.00506597
0.0051926
0.00531009
0.00542002
0.00552333
0.00562031
0.00571072
0.00579396
0.00586908
7.42871e-05
0.000697948
0.00139768
0.00200582
0.00252491
0.00296874
0.00334983
0.00367852
0.00396329
0.00421129
0.00442868
0.00462082
0.00479248
0.00494782
0.00509039
0.00522312
0.00534825
0.00546728
0.00558098
0.00568937
0.00579182
0.00588733
0.00597455
7.41715e-05
0.000696123
0.00139782
0.00200806
0.00252871
0.00297371
0.0033558
0.00368541
0.00397115
0.00422031
0.00443927
0.0046337
0.00480866
0.00496859
0.0051173
0.00525788
0.00539259
0.00552287
0.0056492
0.00577121
0.00588778
0.00599733
0.00609801
7.39373e-05
0.00069219
0.00139352
0.0020043
0.00252582
0.00297213
0.00335589
0.00368739
0.00397514
0.00422652
0.00444813
0.00464596
0.00482544
0.00499137
0.00514784
0.00529815
0.00544463
0.00558856
0.0057301
0.00586832
0.00600135
0.00612689
0.00624236
7.35544e-05
0.000686016
0.00138328
0.00199209
0.00251381
0.00296215
0.00334903
0.00368404
0.00397534
0.0042303
0.00445579
0.00465821
0.00484344
0.00501675
0.00518264
0.00534467
0.0055053
0.00566567
0.0058255
0.00598304
0.00613539
0.0062791
0.00641067
7.29493e-05
0.000675853
0.00136316
0.00196664
0.00248857
0.00294103
0.00333377
0.00367484
0.00397177
0.00423193
0.0044626
0.00467073
0.00486284
0.00504479
0.00522165
0.00539742
0.00557483
0.00575492
0.00593685
0.00611775
0.00629306
0.00645759
0.00660649
7.19694e-05
0.000657201
0.00132423
0.00191896
0.00244356
0.00290499
0.00330837
0.00365929
0.0039645
0.00423165
0.00446869
0.00468345
0.00488327
0.00507484
0.00526398
0.00545543
0.00565243
0.00585616
0.00606519
0.00627499
0.00647834
0.00666706
0.0068343
7.04042e-05
0.000618743
0.00124743
0.00183307
0.00236907
0.00284939
0.00327125
0.00363719
0.00395378
0.00422964
0.00447401
0.00469593
0.00490386
0.00510552
0.0053078
0.00551651
0.00573592
0.00596793
0.00621078
0.00645777
0.00669694
0.0069143
0.00710011
7.0021e-05
0.000526161
0.00109421
0.00168439
0.00225358
0.00277052
0.00322212
0.00360931
0.00394034
0.00422625
0.00447838
0.00470744
0.00492325
0.00513478
0.00535023
0.00557696
0.0058211
0.00608644
0.00637223
0.0066696
0.00695816
0.00720997
0.0074122
8.96875e-05
0.000318558
0.000816159
0.00144953
0.00209107
0.0026699
0.00316424
0.00357829
0.00392576
0.00422206
0.00448157
0.00471705
0.00493979
0.00516005
0.00538751
0.00563148
0.00590097
0.00620382
0.00654389
0.00691379
0.00728007
0.007572
0.00778154
0.000191819
0.000143625
0.000462505
0.00114588
0.00189892
0.00256223
0.00310729
0.0035496
0.00391268
0.00421802
0.0044835
0.00472389
0.00495182
0.00517867
0.00541543
0.00567346
0.0059653
0.00630536
0.00670935
0.00718709
0.00770572
0.00803111
0.0082204
0.00041326
0.000141692
0.000229068
0.000881702
0.00174196
0.00248313
0.00306886
0.00353131
0.00390456
0.0042154
0.00448429
0.00472738
0.0049581
0.0051885
0.00543037
0.00569641
0.00600191
0.00636789
0.00682796
0.00744584
0.00836279
0.00863338
0.0087336
9.1125e-05
8.46716e-05
8.42883e-05
8.92948e-05
0.000828553
0.00078808
0.000782967
0.000812673
0.00150224
0.0014686
0.00146236
0.00148394
0.00200001
0.00197833
0.00197165
0.00198094
0.00238329
0.00236876
0.00236345
0.00236792
0.00269741
0.00268953
0.00268722
0.00268966
0.00296838
0.00296544
0.00296343
0.0029627
0.00320652
0.00320445
0.0032029
0.0032019
0.00342483
0.00342363
0.00342198
0.00342002
0.00362575
0.00362463
0.0036229
0.00362048
0.00381338
0.00381207
0.00381011
0.00380732
0.00399015
0.00398873
0.00398649
0.00398327
0.00415711
0.00415574
0.00415333
0.00414974
0.00431485
0.00431366
0.0043112
0.00430732
0.00446358
0.00446267
0.00446025
0.00445621
0.00460329
0.00460272
0.00460043
0.00459633
0.00473386
0.00473366
0.00473158
0.00472751
0.00485511
0.00485533
0.00485352
0.0048496
0.00496692
0.00496761
0.00496617
0.00496253
0.0050693
0.00507055
0.0050696
0.00506638
0.0051625
0.00516443
0.00516413
0.00516153
0.00524708
0.00524988
0.00525044
0.0052487
0.00532399
0.00532792
0.00532962
0.00532902
0.00539466
0.00540003
0.0054032
0.0054041
0.00546095
0.00546817
0.00547322
0.00547603
0.0055252
0.00553471
0.0055421
0.00554727
0.00559011
0.00560243
0.00561264
0.00562066
0.00565865
0.0056743
0.00568787
0.00569923
0.00573393
0.00575348
0.00577091
0.00578611
0.00581911
0.00584307
0.00586487
0.00588435
0.00591723
0.0059461
0.00597269
0.00599684
0.00603122
0.00606541
0.00609714
0.00612623
0.00616386
0.00620371
0.00624079
0.00627496
0.00631791
0.00636358
0.00640608
0.00644527
0.00649619
0.00654767
0.00659541
0.0066393
0.00670188
0.00675885
0.0068113
0.00685921
0.00693882
0.00700045
0.00705653
0.00710721
0.00721174
0.00727635
0.00733413
0.00738554
0.00752651
0.0075909
0.00764712
0.00769607
0.00788953
0.00794807
0.00799755
0.00803944
0.00830528
0.00834893
0.0083843
0.00841326
0.00876926
0.00878624
0.0087993
0.00880962
0.000434896
0.000906
0.00125801
0.00146953
0.00158634
0.00164324
0.00166142
0.00165205
0.00161858
0.00155953
0.00147382
0.00137876
0.00128527
0.00119397
0.00108492
0.000923841
0.000696167
0.000407056
5.17212e-05
0.00103182
0.00133909
0.00158849
0.00175772
0.00185904
0.00190956
0.00192301
0.00190829
0.00186959
0.00180661
0.00171969
0.00161767
0.00150682
0.00138428
0.0012353
0.00103828
0.000780517
0.000456018
5.75655e-05
0.00157481
0.00175113
0.00191564
0.00203918
0.0021173
0.00215512
0.00216017
0.00213851
0.0020928
0.00202455
0.00193387
0.00182401
0.00169643
0.00154712
0.00136534
0.00113727
0.000850135
0.000489035
6.22628e-05
0.0020216
0.00211987
0.00222294
0.00230671
0.00236113
0.00238344
0.0023776
0.002348
0.00229535
0.00222018
0.00212308
0.002004
0.00186061
0.0016884
0.00147874
0.00122108
0.000902233
0.000503684
6.70385e-05
0.00238861
0.00244417
0.0025046
0.00255658
0.00259035
0.00259724
0.00257915
0.00254132
0.00248194
0.00239881
0.00229262
0.00216248
0.00200538
0.00181284
0.00157759
0.00129212
0.000942348
0.00051324
6.88359e-05
0.00269997
0.00273066
0.0027623
0.00278715
0.00279892
0.00279116
0.00276381
0.00271829
0.00265096
0.00255904
0.00244074
0.00229629
0.00212427
0.00191598
0.001667
0.00136345
0.000989082
0.000532526
6.98104e-05
0.00296607
0.00298046
0.00299447
0.00300119
0.00299398
0.00297119
0.00293209
0.00287584
0.00279752
0.00269484
0.00256573
0.00240862
0.00222248
0.00200318
0.0017443
0.00143117
0.00104425
0.000562044
7.18031e-05
0.00320179
0.00320406
0.00320313
0.00319384
0.00317085
0.00313359
0.00308258
0.00301412
0.00292277
0.00280763
0.00266811
0.0025015
0.00230217
0.00207145
0.00180135
0.0014793
0.00108663
0.000593834
7.39752e-05
0.00341665
0.00340985
0.00339696
0.00337398
0.00333746
0.0032872
0.0032238
0.00314168
0.00303554
0.00290521
0.00275077
0.00257004
0.00235932
0.00211583
0.00183205
0.00149951
0.00109966
0.00059989
7.45118e-05
0.00361526
0.00360248
0.00358128
0.00354831
0.00350086
0.00343859
0.00336189
0.00326494
0.00314336
0.00299644
0.00282341
0.00262273
0.00239413
0.00213411
0.00183609
0.00149025
0.00108297
0.000584465
7.27823e-05
0.00380095
0.00378419
0.00375697
0.00371631
0.00365981
0.00358682
0.00349725
0.0033864
0.00325023
0.00308717
0.00289532
0.00267277
0.00241965
0.00213435
0.00181411
0.00145401
0.00104153
0.000552115
6.99596e-05
0.00397592
0.00395612
0.00392407
0.00387711
0.00381302
0.00373095
0.00363032
0.0035074
0.00335835
0.00318084
0.0029722
0.00272966
0.00245199
0.00213832
0.0017888
0.00140523
0.000984113
0.000514254
6.98999e-05
0.00414148
0.00411903
0.00408298
0.00403077
0.0039604
0.00387096
0.00376134
0.00362847
0.00346874
0.00327921
0.00305666
0.002798
0.00250098
0.00216418
0.00178822
0.00137852
0.000942946
0.000486667
6.96882e-05
0.00429828
0.00427351
0.00423412
0.0041777
0.0041024
0.00400712
0.00389047
0.00374972
0.00358153
0.00338263
0.00314965
0.00287941
0.00256927
0.00221756
0.00182451
0.00139502
0.000940103
0.000475638
6.89095e-05
0.00444655
0.00441985
0.00437774
0.00431807
0.00423906
0.0041394
0.0040175
0.00387085
0.00369635
0.00349071
0.00325057
0.00297273
0.00265443
0.00229377
0.00189046
0.00144737
0.000974422
0.000493864
0.000294416
0.00458626
0.00455808
0.00451389
0.00445183
0.00437017
0.00426744
0.00414191
0.00399121
0.00381244
0.0036024
0.00335776
0.00307523
0.00275177
0.00238486
0.00197295
0.00151636
0.0010208
0.000507568
6.98178e-05
0.00471726
0.00468812
0.00464253
0.00457886
0.0044955
0.00439087
0.00426315
0.00411007
0.00392885
0.00371639
0.00346933
0.00318414
0.00285725
0.00248507
0.00206428
0.00159272
0.00107318
0.000526823
7.21843e-05
0.0048394
0.00480984
0.00476354
0.00469906
0.00461489
0.00450942
0.00438079
0.00422677
0.00404467
0.00383142
0.00358356
0.00329724
0.00296816
0.00259145
0.00216169
0.00167381
0.0011278
0.000547504
7.54043e-05
0.00495265
0.00492323
0.00487691
0.00481242
0.00472831
0.00462297
0.00449455
0.00434082
0.00415914
0.00394643
0.00369908
0.0034129
0.00308285
0.00270283
0.00226535
0.0017623
0.00118989
0.000573114
7.89722e-05
0.00505714
0.00502845
0.00498284
0.00491913
0.00483593
0.00473164
0.00460441
0.00445201
0.00427181
0.00406069
0.00381489
0.00352989
0.00320009
0.00281838
0.00237577
0.00186177
0.00126897
0.000618177
8.31516e-05
0.00515329
0.00512598
0.00508183
0.0050197
0.00493824
0.00483586
0.00471067
0.00456047
0.00438258
0.00417382
0.00393031
0.00364725
0.00331858
0.00293654
0.00249114
0.00197027
0.00136321
0.000680526
8.77267e-05
0.00524188
0.00521667
0.00517477
0.00511504
0.00503614
0.00493646
0.00481408
0.00466677
0.00449181
0.00428593
0.00404511
0.00376431
0.0034371
0.00305512
0.00260755
0.00208063
0.00146047
0.000747248
9.24204e-05
0.00532416
0.00530184
0.00526302
0.00520653
0.00513099
0.00503475
0.00491585
0.00477198
0.00460038
0.00439765
0.00415961
0.00388097
0.00355489
0.00317231
0.00272133
0.00218536
0.00154756
0.000800744
9.74207e-05
0.0054018
0.00538327
0.00534841
0.00529601
0.00522462
0.00513251
0.00501767
0.00487771
0.00470973
0.00451024
0.00427482
0.00399791
0.00367218
0.00328755
0.00283132
0.00228549
0.00162819
0.000845676
0.000101931
0.00547697
0.00546318
0.00543321
0.00538576
0.00531928
0.00523196
0.00512171
0.004986
0.00482183
0.00462552
0.0043924
0.00411658
0.00379036
0.00340321
0.00294087
0.0023836
0.00170585
0.000888496
0.000105453
0.00555222
0.00554418
0.00552004
0.00547838
0.00541755
0.00533565
0.00523045
0.00509929
0.00493904
0.00474581
0.00451475
0.00423963
0.00391226
0.0035215
0.00305194
0.00248208
0.00178333
0.000931833
0.000108276
0.00563041
0.00562916
0.00561177
0.00557671
0.00552223
0.0054463
0.00534659
0.00522032
0.00506414
0.00487397
0.00464467
0.00436968
0.00404033
0.00364486
0.00316686
0.0025832
0.00186255
0.000976461
0.000111227
0.00571459
0.00572113
0.00571135
0.00568363
0.00563612
0.0055667
0.00547291
0.00535182
0.00519988
0.00501274
0.00478495
0.00450953
0.00417735
0.00377599
0.00328814
0.00268919
0.00194511
0.00102285
0.000114822
0.00580784
0.00582307
0.00582166
0.00580191
0.00576189
0.00569944
0.00561196
0.00549637
0.00534888
0.00516484
0.00493839
0.0046621
0.00432624
0.00391777
0.00341848
0.00280235
0.00203275
0.00107197
0.000119178
0.00591313
0.00593779
0.00594533
0.005934
0.00590188
0.00584674
0.00576594
0.00565621
0.00551351
0.0053328
0.00510775
0.00483032
0.00449011
0.00407331
0.00356081
0.00292526
0.00212752
0.00112524
0.000124172
0.00603321
0.00606782
0.00608464
0.00608197
0.00605795
0.0060104
0.00593661
0.00583317
0.00569575
0.00551888
0.00529561
0.00501713
0.00467219
0.00424599
0.0037184
0.00306076
0.00223164
0.00118407
0.000129694
0.00617054
0.00621531
0.00624143
0.00624739
0.00623149
0.00619165
0.00612518
0.00602856
0.00589715
0.00572496
0.00550431
0.00522543
0.00487586
0.00443953
0.00389499
0.00321217
0.00234751
0.00124969
0.000135821
0.0063273
0.00638203
0.00641709
0.00643131
0.00642327
0.00639113
0.00633228
0.0062431
0.00611868
0.00595249
0.00573595
0.00545805
0.00510476
0.00465819
0.00409505
0.00338352
0.00247797
0.00132311
0.000142946
0.00650538
0.00656936
0.00661254
0.00663424
0.00663354
0.00660889
0.00655787
0.00647688
0.00636075
0.00620237
0.0059922
0.0057177
0.00536277
0.00490695
0.00432417
0.0035801
0.00262692
0.00140603
0.000151414
0.00670646
0.00677834
0.00682823
0.00685621
0.00686194
0.00684436
0.00680133
0.00672933
0.00662306
0.00647488
0.00627424
0.00600689
0.00565408
0.00519176
0.0045896
0.00380925
0.00280009
0.0015015
0.000161339
0.00693206
0.00700967
0.0070642
0.00709672
0.00710765
0.00709646
0.00706142
0.00699922
0.00690456
0.00676948
0.00658252
0.00632765
0.005983
0.00551969
0.00490096
0.00408154
0.00300611
0.00161384
0.000172902
0.00718351
0.00726368
0.00732005
0.00735487
0.00736936
0.00736362
0.00733636
0.00728466
0.00720342
0.00708467
0.00691641
0.00668108
0.00635355
0.00589897
0.00527113
0.00441281
0.00325889
0.00174956
0.000186563
0.00746182
0.0075402
0.00759487
0.00762926
0.00764538
0.00764387
0.00762395
0.00758317
0.00751695
0.00741776
0.00727372
0.00706658
0.00676854
0.0063383
0.00571704
0.00482752
0.00358292
0.00192081
0.000203078
0.00776733
0.00783836
0.00788719
0.00791815
0.00793376
0.00793506
0.0079217
0.00789185
0.00784172
0.00776479
0.00765031
0.0074808
0.00722777
0.00684503
0.00625956
0.00536372
0.00402448
0.00215419
0.000224004
0.00809897
0.00815622
0.00819485
0.00821938
0.00823237
0.00823495
0.00822712
0.00820764
0.00817378
0.00812063
0.0080397
0.00791644
0.00772531
0.0074206
0.00691983
0.00607864
0.00467638
0.00252025
0.000252199
0.0084533
0.0084904
0.00851498
0.0085306
0.00853917
0.00854158
0.00853796
0.00852766
0.00850912
0.00847942
0.00843334
0.00836146
0.00824614
0.00805233
0.00770629
0.00704658
0.00573139
0.00324064
0.000291161
0.00882352
0.00883604
0.00884424
0.00884947
0.00885243
0.00885346
0.00885262
0.00884974
0.00884436
0.00883559
0.00882182
0.00880007
0.00876445
0.00870224
0.008582
0.00831176
0.00757158
0.00520053
0.000343753
)
;

boundaryField
{
    leftWall
    {
        type            nutkWallFunction;
        Cmu             0.09;
        kappa           0.41;
        E               9.8;
        value           nonuniform List<scalar> 
50
(
2.22525e-06
3.44157e-06
4.14297e-06
4.65232e-06
5.05145e-06
5.38324e-06
5.67149e-06
5.92956e-06
6.28867e-06
6.70899e-06
7.13569e-06
4.69528e-06
5.19786e-06
4.32705e-06
6.11762e-08
1.76213e-09
1.01006e-08
8.98581e-09
1.25998e-08
5.52025e-09
1.26781e-08
1.54452e-08
6.95309e-09
6.10451e-08
1.47349e-07
2.27864e-07
3.02231e-07
3.70382e-07
4.32129e-07
4.87919e-07
5.3871e-07
5.80376e-07
6.15079e-07
6.44591e-07
6.70086e-07
6.92402e-07
7.11506e-07
7.25682e-07
7.29027e-07
7.24063e-07
7.04453e-07
6.65288e-07
6.01542e-07
5.00952e-07
3.38003e-07
7.70933e-08
1.98628e-08
3.22738e-06
1.86439e-05
4.87449e-05
)
;
    }
    rightWall
    {
        type            nutkWallFunction;
        Cmu             0.09;
        kappa           0.41;
        E               9.8;
        value           nonuniform List<scalar> 
50
(
3.43312e-06
4.38183e-06
4.74774e-06
4.95741e-06
5.17167e-06
5.37042e-06
5.57365e-06
5.80318e-06
6.26111e-06
6.962e-06
7.52902e-06
5.35955e-06
5.40389e-06
3.97258e-06
6.26044e-07
6.96797e-07
7.76622e-07
4.80357e-07
7.39999e-09
1.16948e-09
0
0
0
0
3.84942e-07
9.15819e-07
1.56803e-06
2.31649e-06
3.05307e-06
3.80401e-06
4.59766e-06
5.27717e-06
5.73412e-06
6.17771e-06
6.63928e-06
7.21864e-06
7.89257e-06
8.65823e-06
9.48154e-06
1.04009e-05
1.14853e-05
1.27629e-05
1.42319e-05
1.59274e-05
1.79088e-05
2.02722e-05
2.32396e-05
2.718e-05
3.25306e-05
3.96061e-05
)
;
    }
    lowerWall
    {
        type            nutkWallFunction;
        Cmu             0.09;
        kappa           0.41;
        E               9.8;
        value           nonuniform List<scalar> 
62
(
7.35239e-07
1.50762e-06
1.93581e-06
2.21617e-06
2.42209e-06
2.58256e-06
2.71234e-06
2.81953e-06
2.90894e-06
2.9841e-06
3.05041e-06
3.1087e-06
3.16044e-06
3.20309e-06
3.22694e-06
3.2107e-06
3.1087e-06
2.91873e-06
2.71715e-06
2.55113e-06
2.36598e-06
2.05788e-06
1.19208e-06
1.19208e-06
4.80374e-06
5.69809e-06
6.43554e-06
7.1266e-06
7.88365e-06
8.84909e-06
1.03995e-05
1.08462e-05
1.01106e-05
1.00713e-05
1.06496e-05
1.11693e-06
4.81425e-06
5.72821e-06
6.58447e-06
7.395e-06
8.30355e-06
9.55262e-06
1.14241e-05
1.11693e-06
2.25598e-06
2.68619e-06
2.87387e-06
2.97189e-06
3.02254e-06
3.06326e-06
3.1041e-06
3.11389e-06
3.00066e-06
2.77559e-06
2.49852e-06
2.20652e-06
2.25053e-06
2.56142e-06
2.4915e-06
2.0855e-06
1.64066e-06
1.16914e-06
)
;
    }
    atmosphere
    {
        type            calculated;
        value           nonuniform List<scalar> 
46
(
0.009
0.000141692
0.000229068
0.000881702
0.00174196
0.00248313
0.00306886
0.00353131
0.00390456
0.0042154
0.00448429
0.00472738
0.0049581
0.0051885
0.00543037
0.00569641
0.00600191
0.00636789
0.00682796
0.00744584
0.009
0.009
0.009
0.009
0.009
0.009
0.009
0.009
0.009
0.009
0.009
0.009
0.009
0.009
0.009
0.009
0.009
0.009
0.009
0.009
0.009
0.009
0.009
0.009
0.009
0.000343753
)
;
    }
    defaultFaces
    {
        type            empty;
    }
}


// ************************************************************************* //
