/*--------------------------------*- C++ -*----------------------------------*\
  =========                 |
  \\      /  F ield         | OpenFOAM: The Open Source CFD Toolbox
   \\    /   O peration     | Website:  https://openfoam.org
    \\  /    A nd           | Version:  9
     \\/     M anipulation  |
\*---------------------------------------------------------------------------*/
FoamFile
{
    format      ascii;
    class       volVectorField;
    location    "15.85";
    object      U;
}
// * * * * * * * * * * * * * * * * * * * * * * * * * * * * * * * * * * * * * //

dimensions      [0 1 -1 0 0 0 0];

internalField   nonuniform List<vector> 
918
(
(2.47629 -0.138943 0)
(0.108704 0.722546 0)
(0.173393 1.08366 0)
(2.31834 0.153729 0)
(-0.0590408 1.2468 -1.20689e-19)
(-0.0924034 0.643931 -5.31942e-18)
(0.524391 0.841467 -2.98346e-19)
(0.275482 0.153409 -2.98984e-20)
(3.00615 -0.0195627 0)
(-0.00866631 0.477114 0)
(-0.017925 0.594679 0)
(0.605589 0.00672197 0)
(0.0107054 0.439105 0)
(-0.00288566 0.421694 0)
(0.0137342 0.341762 -1.30774e-18)
(-0.00533052 0.757829 -9.19248e-20)
(0.31305 0.0743811 2.1513e-18)
(0.078709 0.639132 -2.25315e-19)
(1.52885 0.128624 0)
(-0.0279719 0.697331 0)
(0.195735 0.158432 -1.26754e-18)
(3.08302 -0.397376 0)
(2.92445 -0.505983 0)
(1.86116 -0.181102 0)
(0.511991 0.0400986 0)
(-0.0253536 0.521567 0)
(-0.00135323 0.494038 1.86471e-18)
(-0.0241563 1.43115 0)
(0.0724985 2.93607 0)
(0.169022 1.77564 0)
(-0.0415455 3.11596 0)
(0.025903 1.61089 9.27936e-20)
(0.0222311 0.675294 0)
(-0.147424 0.775093 -2.0331e-22)
(-0.193914 1.0291 4.42589e-18)
(-0.0415772 1.04471 0)
(0.744473 -0.00601862 0)
(0.162554 0.248561 6.66797e-19)
(0.983128 1.49906 6.5746e-19)
(0.643079 0.776412 -5.19401e-19)
(0.79126 1.56061 6.2719e-20)
(0.412752 0.843714 -3.23937e-19)
(0.554901 0.307912 2.94046e-20)
(0.298067 0.154114 0)
(0.95649 0.562278 0)
(0.535584 0.305435 1.32109e-19)
(0.259334 0.163521 -1.35563e-19)
(0.871563 -0.0554847 0)
(3.02784 -0.00170877 0)
(3.00685 0.0178636 0)
(3.20086 -0.417737 0)
(3.04288 -0.0742161 0)
(3.03116 -0.0388434 0)
(0.0180597 0.909225 -1.14609e-18)
(-0.0540613 0.972972 0)
(0.00259838 0.454375 0)
(-0.0290886 0.981593 0)
(-0.0117967 0.482425 0)
(-0.00204868 0.866961 0)
(-0.0527493 1.11948 0)
(-0.0129148 0.545602 0)
(-0.0264274 1.17429 0)
(-0.00660575 0.628769 0)
(0.790066 0.0115635 0)
(1.17008 -0.00161733 0)
(0.618539 0.0123467 0)
(1.12661 0.017587 0)
(0.570192 0.0086494 0)
(0.225406 0.921982 1.96192e-18)
(0.0985378 1.2081 0)
(0.176302 1.06604 0)
(0.0331901 0.755774 2.2018e-23)
(0.0372233 0.498055 -2.93421e-18)
(0.0194616 0.747943 0)
(0.0059542 0.422033 0)
(-0.000698471 0.734552 4.52362e-24)
(0.000701686 0.414826 0)
(-0.0169327 0.743194 0)
(-0.0129478 0.427998 0)
(0.0502127 0.652458 0)
(0.0491091 0.460451 0)
(0.00841947 0.623189 1.23645e-18)
(0.000954546 0.345232 0)
(-0.078493 4.67262 0)
(0.00798081 1.43915 9.12622e-20)
(-0.0105556 0.775922 -1.1736e-19)
(0.637583 0.152476 -7.50619e-19)
(0.322208 0.0657568 -7.28331e-19)
(0.646531 0.170155 -2.25382e-18)
(0.318287 0.0957705 -1.45122e-18)
(0.0793667 0.625255 0)
(0.176491 1.30531 1.87211e-19)
(0.177882 0.725006 -2.98707e-19)
(2.06033 0.260935 0)
(1.10706 0.118444 0)
(3.03313 0.103885 0)
(3.10392 0.446057 0)
(2.83919 0.377454 -1.01214e-17)
(2.57811 0.361308 7.76638e-18)
(-0.0716443 1.28429 0)
(-0.0115914 0.634002 0)
(-0.0165795 1.94087 0)
(-0.0526853 1.37291 0)
(-0.04947 0.692429 0)
(0.442759 0.297559 4.01254e-19)
(0.226608 0.164248 0)
(2.29608 -0.266401 0)
(1.32371 -0.119278 0)
(1.07731 0.0125988 0)
(1.01318 0.0187233 0)
(0.54144 0.0107869 0)
(1.01829 0.0561625 0)
(0.822279 0.070431 0)
(0.34402 0.0287237 3.36052e-18)
(-0.00544919 0.45155 1.7763e-18)
(-0.0270657 0.784677 0)
(-0.0474343 0.847665 0)
(-0.0152978 0.460511 0)
(0.000131997 0.839725 1.81831e-18)
(7.23998e-05 0.48753 0)
(-0.00547897 0.845554 -5.59728e-18)
(-0.00488635 0.496761 1.88864e-18)
(0.0487383 3.61702 0)
(0.0357473 4.06677 0)
(-0.0165728 1.38986 -2.0596e-21)
(-0.0142117 1.34168 0)
(-0.00998865 0.73032 0)
(1.40995 0.0348467 0)
(0.760394 0.0154095 0)
(0.709616 0.0142537 0)
(1.41602 -0.032871 0)
(0.773438 -0.00875516 0)
(0.325215 0.484815 -8.37203e-19)
(0.158194 0.234697 0)
(0.328286 0.514252 9.38371e-20)
(0.165014 0.271072 0)
(1.22932 1.37265 1.67474e-19)
(0.77165 0.733562 -3.94292e-19)
(0.408375 1.41085 0)
(0.601388 1.5207 0)
(0.300645 0.808407 0)
(0.147069 0.357502 -4.44085e-19)
(0.609793 0.281725 0)
(0.314438 0.134949 3.98838e-19)
(1.41576 1.29429 0)
(1.57574 1.15893 0)
(0.868212 0.658114 4.63259e-19)
(1.7238 0.946523 0)
(1.06284 0.435953 2.30852e-20)
(1.47286 0.0081144 0)
(1.50092 -0.0292541 0)
(0.801844 -0.00442655 0)
(1.9504 -0.199788 0)
(1.65077 -0.148191 0)
(1.05213 -0.0889752 0)
(3.06126 0.164849 0)
(3.03105 0.0687831 0)
(3.01022 0.0531566 0)
(0.0342847 1.61779 6.08198e-19)
(0.0173145 0.834775 0)
(0.0170283 1.70642 1.07943e-18)
(0.00241515 0.943695 -9.70373e-19)
(0.0640216 1.14674 1.89784e-19)
(0.0474402 0.986056 0)
(0.0395058 0.527279 0)
(-0.029305 1.00771 0)
(-0.00743896 0.519251 0)
(0.0167465 1.61212 -4.42156e-21)
(-0.0188156 0.865396 0)
(-0.0542654 1.57748 -2.25024e-19)
(-0.0164826 0.81675 4.35713e-19)
(-0.00255258 1.0342 0)
(0.0096889 1.05036 0)
(-0.000432173 0.534389 0)
(0.00946756 1.18579 0)
(0.000298235 0.621064 0)
(1.46741 -0.00385474 0)
(0.788667 0.00798203 0)
(1.4399 0.0330908 0)
(0.761498 -0.000588538 0)
(0.675568 0.00531991 0)
(1.26236 0.0166391 0)
(1.2029 0.0472843 0)
(0.659932 0.0155288 0)
(-0.00580065 1.42077 -1.70419e-20)
(0.000184279 1.37708 0)
(0.00482009 0.732923 0)
(0.00172889 0.417221 0)
(0.286964 0.833915 0)
(0.255703 0.402621 -2.87449e-19)
(-0.00195437 0.635743 0)
(-0.00881268 0.36762 0)
(0.00141044 4.36435 0)
(-0.058702 4.65738 0)
(-0.0297666 4.5774 0)
(-0.0763561 3.32251 2.06559e-20)
(-0.0694824 4.57309 0)
(-0.0605469 4.13833 0)
(0.00411538 0.811363 1.07058e-20)
(0.0133788 1.54662 1.64874e-19)
(-0.0357961 1.48566 1.20582e-19)
(-0.00792185 0.816948 0)
(0.665757 0.105899 1.15262e-18)
(0.326203 0.0441888 -1.1296e-18)
(0.151175 1.14625 0)
(0.102119 0.579817 -2.70022e-19)
(0.119704 1.24701 -8.76537e-19)
(0.0524073 0.694847 8.72034e-19)
(0.809255 0.0240515 0)
(1.55685 0.0476597 0)
(1.70974 0.127642 0)
(0.919877 0.0445155 0)
(0.00708188 1.19935 0)
(0.0249485 1.20942 0)
(0.00396676 0.637561 0)
(0.485119 0.316975 1.20462e-18)
(0.439584 0.311132 -1.38812e-18)
(0.236086 0.165074 0)
(1.93186 0.152116 1.15136e-19)
(1.13396 0.0927445 0)
(1.72189 0.118101 0)
(0.882623 0.0225341 0)
(0.679309 0.0858144 0)
(0.700703 0.046122 -5.40365e-18)
(0.347158 0.0326099 1.99765e-18)
(0.00911663 0.807235 1.6962e-18)
(0.00221326 0.462492 4.08146e-20)
(-0.0108777 1.40842 -3.58429e-20)
(0.00613614 1.38675 1.36745e-18)
(-0.0149832 0.848955 6.30183e-20)
(-0.0119261 0.524486 -2.532e-22)
(-0.107514 1.00068 -1.16617e-18)
(-0.0529602 1.3532 8.34919e-19)
(-0.0175323 1.35275 -1.35933e-18)
(1.42225 -0.0171345 0)
(1.44201 0.0202587 0)
(0.769647 -0.000215486 0)
(1.45229 0.0253642 0)
(1.36336 0.0462148 0)
(0.761615 0.0202947 0)
(1.30093 -0.00218427 0)
(1.3189 -0.00588229 0)
(0.695197 -0.00101007 0)
(0.307563 0.477624 -9.16516e-19)
(0.16274 0.244708 0)
(0.15883 0.311567 1.37289e-19)
(0.312861 0.592074 1.12479e-18)
(0.310607 0.55428 -6.65865e-19)
(0.15841 0.284732 1.3011e-18)
(0.2817 0.726283 2.18763e-18)
(0.149992 0.385242 3.94793e-19)
(0.63798 0.213767 1.53717e-18)
(0.628107 0.254453 3.99253e-19)
(0.317404 0.115286 7.4921e-19)
(1.91239 0.709984 -5.99969e-19)
(1.16296 0.334128 -7.01947e-19)
(-0.0363542 1.71069 4.63915e-19)
(-0.0122818 0.92851 0)
(1.60211 0.0236074 0)
(1.52069 0.0651908 0)
(0.852173 0.0267148 0)
(-0.00355906 1.38473 0)
(0.00507349 0.729575 2.49836e-18)
(0.00465021 0.731252 0)
(0.00207061 0.415097 -2.44533e-18)
(-0.0102765 1.38627 5.96449e-19)
(-0.00947341 1.4225 0)
(0.33945 0.492259 2.58288e-19)
(0.362984 0.550765 -8.64053e-19)
(0.173265 0.259888 7.8205e-19)
(-0.0256927 0.767368 -1.66523e-18)
(-0.0261063 0.689686 0)
(-0.0154259 0.412863 0)
(0.0293176 1.53843 -1.26921e-20)
(0.0303391 1.56745 -3.63545e-19)
(0.0172022 0.816639 -1.54914e-20)
(0.215807 1.05583 8.92578e-19)
(0.120917 0.514638 -5.93966e-19)
(0.0113572 1.49875 7.31722e-19)
(0.0558109 1.36514 -8.16944e-19)
(0.0266662 0.768163 3.56119e-20)
(0.00749414 1.36614 -3.813e-18)
(-0.000231181 1.39326 4.41567e-18)
(0.00377085 0.829774 1.7353e-18)
(-0.0138396 0.805082 -1.72789e-18)
(-0.00431164 0.481395 -1.74094e-18)
(-0.010655 1.41685 -4.50589e-18)
(-0.0152236 1.40032 4.59522e-18)
(0.289852 0.682619 0)
(0.303226 0.641567 -2.29363e-18)
(0.153705 0.335341 9.9297e-19)
(0.284741 0.805448 1.18856e-18)
(0.140511 0.432622 -1.83389e-18)
(2.05169 0.320877 4.15539e-19)
(2.04438 0.544612 0)
(1.21502 0.219889 -4.01608e-19)
(-0.0746396 1.63553 -4.79348e-21)
(-0.015724 1.69443 0)
(-0.0165257 0.923343 0)
(0.229377 0.955373 -3.23667e-19)
(0.251053 0.876937 -7.08913e-19)
(0.1302 0.468734 1.32855e-18)
(3.16442 -0.442882 0)
(3.34728 -0.414696 1.81165e-18)
(0.0562318 3.52726 0)
(0.0449894 2.8564 0)
(3.15926 0.249905 1.41907e-20)
(3.12355 0.506285 3.70977e-18)
(0.0189714 3.38945 -2.77227e-20)
(0.00798087 2.62556 0)
(-0.0414264 1.19613 1.55762e-18)
(0.192588 1.32093 0)
(3.46016 1.61602 -3.24816e-19)
(3.17431 0.272544 -2.96106e-20)
(3.14831 -0.118741 0)
(3.10047 -0.000417204 3.71818e-22)
(0.040779 2.57938 0)
(0.154721 3.32319 0)
(-0.0591886 2.54626 0)
(-0.0290827 3.48522 3.15613e-19)
(-0.030619 3.55459 1.99155e-19)
(2.6346 0.0485609 -1.36393e-20)
(3.04662 0.0308398 0)
(3.15626 0.0863016 0)
(-0.0617482 4.6131 0)
(-0.0491205 3.04964 0)
(-0.0760497 2.97133 0)
(0.64504 3.08128 2.67097e-19)
(3.33883 -0.422477 0)
(3.01138 -0.345823 0)
(3.1699 -0.0530533 2.27573e-18)
(3.2927 -0.328713 -2.74026e-18)
(3.1038 -0.125785 0)
(-0.0684565 4.52438 0)
(0.00722082 3.97148 0)
(-0.00173424 4.28947 0)
(-0.0318541 3.13422 0)
(-0.0173381 2.89521 0)
(-0.0345918 2.47007 0)
(2.97394 -0.00327538 0)
(2.85072 0.048535 -1.80483e-20)
(2.22902 3.02478 -3.23876e-19)
(3.15695 0.0444395 -2.27679e-18)
(3.19037 0.278167 2.76759e-18)
(3.0828 0.117328 0)
(3.39542 0.328889 2.08581e-18)
(3.35697 0.484351 -2.70479e-18)
(3.07113 0.418417 0)
(-0.0573988 3.3105 0)
(0.00355001 3.23508 8.54925e-20)
(-0.0316099 2.53905 -6.05319e-20)
(3.70247 0.552635 2.26397e-18)
(3.46801 0.207272 0)
(-0.151393 1.27137 -2.16953e-18)
(-0.0617051 0.882105 -1.35268e-19)
(-0.0835549 1.33739 2.99061e-18)
(-0.0344829 1.27089 -9.01112e-19)
(0.00022342 1.08909 0)
(-0.0266888 1.23947 6.95984e-19)
(-0.114828 1.38788 2.1501e-18)
(-0.0588674 1.34057 -1.31626e-18)
(-0.0768256 1.32063 0)
(1.29579 0.599424 0)
(1.18513 0.685925 0)
(3.54596 2.01879 9.53793e-19)
(3.03409 1.92369 -1.19105e-18)
(3.83041 1.69825 0)
(3.37257 1.15095 0)
(3.34939 0.28045 -3.91397e-18)
(2.89892 0.173087 4.83619e-18)
(3.35137 -0.155541 0)
(2.85465 -0.0761794 0)
(3.43642 0.0429747 0)
(3.59381 0.145003 0)
(3.28683 0.119848 0)
(3.55034 0.298536 0)
(3.40842 0.293032 0)
(3.32755 0.218045 0)
(0.092958 2.78313 0)
(0.032691 2.07543 0)
(0.120905 3.03869 0)
(0.0905032 2.19394 0)
(0.21077 3.61664 0)
(0.139424 2.69735 -5.59355e-19)
(0.0485523 3.6309 0)
(0.00875061 3.03537 4.05644e-19)
(-0.0288386 3.21226 -5.16608e-19)
(-0.0640072 2.81563 0)
(-0.026233 2.22035 0)
(-0.0779731 2.918 0)
(-0.057394 2.05864 0)
(-0.120735 4.74387 -2.45406e-19)
(-0.0873187 3.92771 2.77275e-19)
(-0.0809704 3.79594 3.08845e-19)
(-0.055282 3.0078 0)
(-0.111036 3.78664 -4.58287e-19)
(-0.0410169 3.19385 -2.9472e-19)
(-0.0949797 4.77514 1.9236e-19)
(-0.105526 4.45267 -3.50466e-19)
(-0.0794688 4.3266 -3.78665e-19)
(3.03244 0.0879979 3.35564e-18)
(2.29044 0.0320717 -4.22608e-18)
(2.89268 0.132468 -3.32457e-18)
(2.2111 0.0733223 4.1526e-18)
(3.36792 0.0273228 0)
(2.64239 -0.00276653 0)
(3.45293 0.0906661 0)
(3.31933 0.0188673 0)
(2.70537 0.0089802 0)
(3.6783 0.238211 0)
(3.43723 0.095162 0)
(2.86115 0.0560082 0)
(-0.0303429 4.29477 -1.20876e-20)
(-0.0650668 4.6396 0)
(-0.0708043 4.51899 0)
(-0.0794696 3.47073 8.7765e-20)
(-0.0391207 2.74858 -3.46213e-21)
(-0.0907874 4.66386 1.14215e-19)
(-0.103431 4.4665 -1.15416e-19)
(-0.0855453 3.98063 0)
(-0.0637384 3.90671 0)
(-0.0298302 4.02223 0)
(-0.0762671 3.29159 0)
(-0.0447492 2.33316 0)
(0.938365 3.63453 -6.10746e-19)
(0.911203 2.82749 -1.77252e-19)
(0.435081 2.07531 -2.2883e-19)
(0.254371 2.32324 6.98628e-19)
(1.02311 4.21491 2.63762e-19)
(3.43304 -0.167478 0)
(3.32211 -0.256578 0)
(2.88322 -0.189534 0)
(3.47032 -0.0643947 0)
(3.34581 -0.147891 0)
(3.44893 -0.261051 0)
(3.51949 -0.28363 0)
(3.57948 -0.281172 0)
(3.22439 0.0932591 3.61598e-18)
(2.55542 0.0644628 -4.57239e-18)
(3.09684 0.10643 -3.55943e-18)
(2.50954 0.0565831 4.42889e-18)
(2.22472 3.39377 0)
(1.72287 2.9225 -4.47097e-19)
(2.55495 3.32961 -4.04452e-19)
(2.34943 2.50768 5.37444e-19)
(0.782635 1.22479 2.7268e-18)
(1.44952 0.216594 1.34223e-18)
(3.71981 0.302541 0)
(3.88965 0.570105 -1.84478e-18)
(3.29467 0.242677 -8.22675e-20)
(3.72346 0.438498 0)
(0.241907 1.31475 1.79924e-18)
(-0.0140837 1.20302 -2.88121e-18)
(0.061458 0.77067 1.61743e-18)
(0.279422 0.466638 -7.4913e-19)
(0.190103 1.38783 8.72493e-19)
(0.0522791 1.2389 0)
(0.0589087 1.08854 -1.13423e-18)
(0.195714 1.4459 -4.09924e-18)
(0.33436 1.5615 0)
(0.00862726 1.29017 1.19763e-19)
(-0.00975933 1.45729 -1.34217e-18)
(-0.0410645 1.30285 1.95122e-18)
(-0.0575271 1.41766 0)
(-0.0205438 1.38223 0)
(0.687298 1.05878 0)
(2.47281 2.46318 -1.06664e-18)
(2.62576 2.15629 3.95564e-19)
(2.77826 2.86479 0)
(3.2051 3.05152 -3.94279e-19)
(3.15292 2.39734 2.83007e-20)
(0.810373 0.594142 -1.82474e-18)
(1.56339 0.69357 -1.62688e-20)
(1.238 0.452479 8.72043e-19)
(1.28414 0.848282 5.95455e-20)
(0.945645 0.637841 -2.37138e-18)
(1.47222 0.71703 0)
(2.00188 1.10332 1.4562e-18)
(2.04322 1.01898 0)
(1.42083 0.794306 0)
(1.06792 0.552204 0)
(3.38375 2.17674 1.00727e-18)
(3.94296 0.757155 -1.86176e-18)
(3.84153 1.21053 0)
(3.52546 0.754022 0)
(1.39562 0.365497 1.33197e-18)
(3.26878 1.84192 -8.51226e-19)
(2.84762 1.65605 1.54606e-18)
(3.76062 1.37413 -1.83396e-18)
(3.09809 0.114659 2.46196e-18)
(3.16865 0.180756 -2.57693e-18)
(2.66198 0.0916057 0)
(3.30708 -0.0396349 0)
(3.20127 -0.0843366 -2.36464e-18)
(2.63221 -0.0321527 2.34381e-18)
(3.95638 0.0929376 0)
(3.75988 0.145456 0)
(3.6937 0.155302 0)
(3.58834 0.204679 0)
(3.83262 0.0589202 0)
(3.7261 0.0521684 0)
(-0.04372 2.51048 0)
(-0.0401128 2.01303 0)
(0.347398 3.9712 -4.11022e-19)
(0.653891 3.30979 -1.60568e-19)
(0.253737 3.01006 -3.59128e-19)
(0.338901 2.53006 5.75308e-19)
(0.448873 3.9955 0)
(0.460689 4.66454 -5.09553e-19)
(0.374915 4.72181 0)
(0.909233 4.386 -3.79415e-19)
(0.674799 3.83939 9.69436e-19)
(0.589112 4.64246 4.46556e-19)
(0.731322 4.18049 -1.87773e-19)
(0.592217 4.30722 1.51055e-19)
(0.907956 4.64359 -6.63406e-19)
(0.740306 4.65723 0)
(0.852431 4.58354 5.04492e-19)
(-0.00475553 4.57362 -1.811e-19)
(-0.0249676 3.65707 0)
(0.0918281 4.29564 5.48988e-19)
(-0.0123297 4.39665 0)
(-0.00877728 3.47505 -4.5108e-19)
(-0.0184816 2.92646 0)
(-0.112451 4.30815 -2.89649e-19)
(-0.11956 4.67578 0)
(-0.0624217 3.8061 0)
(-0.0498557 3.73423 3.25722e-19)
(-0.0552936 3.88538 1.0357e-20)
(-0.0415938 3.71408 6.2534e-19)
(-0.0443035 2.95158 4.06185e-21)
(-0.126977 4.70343 1.80284e-19)
(-0.116707 4.73663 1.03219e-19)
(-0.0208281 2.64624 0)
(-0.00130481 2.15843 0)
(-0.0551055 4.78284 4.86071e-19)
(-0.0609232 4.30445 4.24168e-19)
(-0.0962787 4.5798 -5.54348e-19)
(0.00345593 4.75068 0)
(-0.0874562 4.51305 -3.09134e-19)
(-0.12503 4.13788 1.2752e-19)
(-0.0918918 4.22667 -4.13133e-20)
(-0.0833956 4.7209 -2.19002e-19)
(-0.0949217 4.25175 -6.85052e-20)
(-0.0925175 4.19974 3.06244e-19)
(2.87198 0.0608563 -2.36157e-18)
(2.85968 0.0494664 2.27103e-18)
(2.3392 0.0344511 0)
(3.51185 0.191226 3.04374e-18)
(2.70562 0.126208 -3.30186e-18)
(2.25636 0.0642441 3.60646e-18)
(3.6846 0.334189 -4.01266e-19)
(3.20958 -0.0486799 0)
(3.17167 -0.0137875 2.23522e-18)
(2.69046 -0.0124762 -2.2176e-18)
(3.87774 0.121366 -1.25131e-19)
(3.77104 0.101218 1.07742e-18)
(4.15911 0.172301 0)
(4.22811 0.179942 -3.74801e-19)
(4.01424 0.14443 0)
(3.69577 0.154819 0)
(4.03238 0.0947525 0)
(3.71205 0.0870495 0)
(4.18472 0.11309 7.84803e-19)
(4.13734 0.0785181 -1.74643e-18)
(4.14028 0.113131 -8.47289e-19)
(4.18611 0.115731 -9.23686e-19)
(4.21506 0.227628 1.7725e-18)
(3.85367 0.187713 0)
(4.05986 0.300084 0)
(-0.082666 4.55715 -1.36223e-19)
(-0.0396181 4.62546 -1.17165e-20)
(-0.0750432 4.64705 0)
(-0.0626535 4.16628 1.38672e-19)
(-0.0607327 4.19015 2.25966e-20)
(-0.063834 4.05331 -2.19509e-20)
(-0.0845751 3.50423 2.60813e-19)
(-0.1504 3.98089 -1.44992e-20)
(-0.110766 4.11344 7.47078e-20)
(-0.0781173 3.37494 -1.32106e-19)
(-0.0269405 2.89983 1.5821e-19)
(-0.0847877 4.44297 5.18801e-21)
(-0.0996379 4.64072 1.71615e-19)
(1.2341 4.33738 3.48059e-19)
(1.15115 4.51453 7.24865e-19)
(1.72203 3.44019 4.32318e-19)
(1.29554 3.53098 1.70392e-19)
(1.2727 2.86233 0)
(0.554098 2.34352 2.75515e-19)
(0.46812 1.76085 3.31583e-19)
(0.347416 2.59367 1.53217e-20)
(0.495055 3.20401 -1.16176e-18)
(0.637243 3.16143 8.78001e-19)
(0.43693 2.42959 0)
(0.296703 1.9936 -5.58585e-19)
(0.258682 3.10239 1.39677e-18)
(0.273507 2.74451 -3.18111e-20)
(0.158025 2.29874 -1.75114e-18)
(0.598647 1.42715 1.46704e-18)
(0.58331 1.63557 0)
(3.58364 -0.0752045 8.63728e-20)
(3.6186 -0.254149 -7.25458e-20)
(3.72132 -0.217783 -1.26564e-18)
(3.75925 -0.126101 1.28151e-18)
(3.67616 -0.048936 0)
(2.43748 3.85712 0)
(2.61643 3.90284 0)
(2.88586 3.61131 0)
(2.73602 3.63439 0)
(0.863257 1.40803 -3.36469e-21)
(0.618086 1.04957 0)
(1.72461 3.40802 1.50307e-20)
(1.43046 3.48509 0)
(1.34012 2.97794 -1.28598e-18)
(1.42099 2.91696 8.25752e-19)
(1.7949 0.310681 0)
(1.43356 0.262349 3.51865e-19)
(2.41542 0.358763 2.19011e-18)
(1.78929 0.284838 -7.84915e-19)
(1.42864 0.112201 -2.49315e-18)
(4.2657 0.786692 -2.56279e-18)
(3.85696 0.992525 -3.66293e-20)
(3.30377 0.843168 2.06599e-18)
(3.87993 0.74331 1.8116e-18)
(3.12736 0.464974 -3.04243e-18)
(2.91471 0.451685 3.74685e-19)
(3.1983 0.681799 -8.18012e-19)
(2.98142 0.682448 0)
(3.76242 0.56234 1.53624e-18)
(4.09816 0.627044 0)
(4.09389 0.77354 0)
(4.04371 0.413958 8.22941e-19)
(4.29604 0.639817 -3.03153e-20)
(4.24684 0.712344 -4.52428e-19)
(4.17395 0.63984 0)
(3.61683 0.129726 1.71661e-18)
(4.1902 0.182378 2.14217e-18)
(4.09124 0.150756 -1.67788e-18)
(4.13737 0.239537 -1.44149e-18)
(3.7471 0.237202 -2.1544e-18)
(3.30635 0.375328 0)
(3.40576 0.301495 0)
(2.56064 0.190366 -1.26497e-18)
(2.11105 0.118974 4.76373e-19)
(4.03833 0.351281 1.93842e-18)
(4.28702 0.430629 -2.34446e-18)
(4.28559 0.487162 2.06703e-18)
(4.15839 0.491159 0)
(4.25612 0.33526 0)
(4.26579 0.321302 -9.80358e-19)
(4.21449 0.314621 -1.59493e-18)
(2.2399 3.49863 6.20208e-19)
(1.95366 3.24916 -6.83734e-19)
(1.46094 2.37501 -1.03329e-18)
(1.19888 2.01244 2.67202e-19)
(0.893174 1.3913 -2.63317e-18)
(0.801365 1.22612 9.2335e-19)
(0.60657 0.912197 -1.89635e-21)
(1.1261 1.79997 -1.13948e-18)
(1.15412 1.89872 1.70104e-18)
(0.984037 1.71327 5.06723e-19)
(0.793233 1.29904 -5.1335e-19)
(0.640849 1.08264 0)
(2.46243 2.6157 -1.15405e-19)
(0.714867 1.14963 8.58647e-19)
(0.937004 0.896907 1.1576e-18)
(0.763475 0.819186 1.33994e-18)
(1.09153 0.751626 1.34229e-18)
(1.47888 1.05124 -2.27215e-18)
(1.39491 1.0789 1.84106e-18)
(1.01033 0.771537 -6.77566e-19)
(0.823276 0.572145 1.49618e-18)
(1.62096 0.491909 -7.77763e-19)
(1.56514 0.509894 0)
(1.2439 0.408498 4.67589e-21)
(2.52336 1.51984 7.75681e-19)
(2.09333 1.27506 -2.80914e-18)
(1.69968 1.19123 9.32818e-21)
(1.67273 1.09781 0)
(2.87574 2.59784 8.73313e-19)
(3.44856 2.74519 1.03595e-18)
(3.25876 2.92591 -1.19422e-18)
(3.55202 2.75449 -4.27746e-19)
(3.47706 2.58967 -1.34766e-19)
(3.50729 2.7822 1.38608e-19)
(3.6798 2.26009 -1.67756e-18)
(3.70385 2.48492 4.00668e-19)
(3.77945 2.42529 0)
(3.77935 2.1814 -5.79107e-19)
(4.05134 1.07026 5.79943e-19)
(4.27436 0.988956 1.00123e-18)
(4.29967 0.962656 1.01065e-18)
(4.05717 1.32506 -1.14849e-18)
(4.10056 1.34362 0)
(4.14952 1.22781 0)
(3.33638 1.2346 -1.54253e-20)
(2.42532 0.667105 0)
(2.72936 0.744087 9.30123e-19)
(3.24547 0.884593 -2.63075e-20)
(3.77861 1.53136 5.1022e-18)
(3.57733 1.75893 1.30983e-18)
(3.48944 1.53878 -1.3397e-18)
(3.04831 1.36992 1.43643e-18)
(2.77277 1.37099 8.23546e-19)
(2.31845 1.15862 -7.97593e-19)
(3.6721 -0.0856741 1.98312e-18)
(3.89468 -0.0290718 0)
(3.85892 -0.0666804 1.34105e-18)
(3.74287 -0.0595342 -2.98549e-18)
(3.98056 0.0371877 1.46084e-18)
(3.90449 0.113245 -3.08056e-18)
(3.73993 0.127842 0)
(3.55637 0.173358 -6.28059e-19)
(3.812 0.122867 1.60405e-18)
(3.692 0.191282 -8.21934e-19)
(3.60036 0.170981 5.90257e-19)
(-0.0842521 2.59908 0)
(-0.0539732 3.40087 0)
(-0.035483 2.46542 0)
(-0.0238279 1.97661 0)
(0.0371391 3.9305 6.7118e-19)
(0.132366 3.71009 -1.734e-19)
(0.306979 4.63303 -2.29608e-19)
(0.242292 4.44455 2.4233e-19)
(-0.0364202 4.28693 -4.97823e-19)
(0.000502105 4.31833 3.73833e-19)
(0.0862349 3.85994 2.23854e-20)
(0.00215745 3.54966 -4.67387e-19)
(-0.0187719 3.30683 -6.23348e-20)
(-0.0478166 3.6683 -5.67844e-20)
(0.143989 4.48248 -5.86314e-19)
(0.170631 4.30065 0)
(0.266236 4.63894 2.96124e-19)
(0.257919 4.70602 2.52937e-19)
(0.589663 4.45175 -2.25823e-19)
(0.407202 3.80677 0)
(0.456678 3.65323 -1.11586e-18)
(0.560749 4.02203 7.90651e-19)
(0.473408 4.56704 -6.14506e-19)
(0.363041 4.44374 3.30606e-19)
(0.294785 4.17562 0)
(-0.0480007 4.75729 -5.52953e-19)
(-0.0859393 4.52409 -6.41066e-19)
(-0.0886037 4.7345 0)
(-0.0390561 4.362 -6.21769e-21)
(-0.0306491 4.64166 2.74103e-19)
(-0.127873 3.88988 4.48367e-20)
(-0.0620726 3.50267 -6.55793e-19)
(-0.105074 3.93796 1.74956e-19)
(-0.149346 4.51873 2.32811e-19)
(-0.0881742 4.32886 0)
(-0.0700959 3.9031 0)
(-0.0864608 2.93093 2.01981e-19)
(-0.0546737 3.65927 -6.30204e-20)
(-0.0801596 3.64374 0)
(-0.0910919 2.71512 1.59097e-19)
(-0.048229 2.22094 -3.08202e-19)
(3.76074 0.0320186 0)
(3.73158 0.00740939 -2.03114e-19)
(4.17941 0.0673898 -1.43877e-18)
(4.08882 0.0457462 0)
(3.87583 0.0173017 0)
(4.1497 0.0366382 -1.25008e-20)
(4.10028 0.0345861 2.37702e-18)
(4.00026 0.0797803 2.8433e-18)
(3.7562 0.118313 0)
(3.55845 0.10973 0)
(4.01359 0.0933764 1.41629e-18)
(3.70375 0.115682 0)
(3.47272 0.128534 0)
(-0.0924728 4.68544 0)
(-0.116541 4.6575 1.07455e-20)
(-0.0890175 4.70669 6.32494e-20)
(-0.0690513 3.85624 0)
(-0.122021 4.53808 1.11244e-19)
(-0.0780184 4.25956 -6.35809e-20)
(-0.0632631 3.95979 0)
(1.41443 4.20005 0)
(1.20298 4.57207 -1.29678e-18)
(1.22061 4.48829 0)
(1.56835 4.47602 1.48404e-18)
(1.58273 4.09541 0)
(1.49175 4.35326 -6.06541e-19)
(1.02278 2.26546 -3.40279e-20)
(0.718051 1.66368 -1.74909e-18)
(0.597815 1.24101 2.13388e-18)
(0.716924 1.85606 3.97858e-19)
(0.98543 2.45002 0)
(1.04799 2.40434 0)
(0.726556 1.70658 0)
(0.538551 1.34576 -1.39898e-18)
(1.21715 3.79682 -9.84312e-19)
(1.13861 3.01646 -2.35833e-19)
(1.33721 3.42967 1.92875e-19)
(0.604951 2.06352 0)
(0.626962 1.96448 0)
(0.467352 1.58949 -3.93833e-19)
(0.96643 2.74729 0)
(2.69122 3.56871 0)
(2.39622 3.01857 -1.45453e-18)
(2.55917 3.03335 -8.5841e-20)
(2.43168 3.41201 0)
(2.30184 3.1622 2.22113e-18)
(3.28101 3.08003 -3.89437e-19)
(3.1297 3.31178 0)
(3.11251 3.13757 6.29974e-19)
(2.87199 3.408 0)
(2.88793 3.19987 0)
(1.22243 2.02602 -9.32014e-19)
(1.42899 2.42487 -7.00343e-19)
(1.76926 3.00291 1.20689e-18)
(1.71151 2.98242 -3.62713e-19)
(1.07403 1.84058 0)
(1.21914 2.22979 4.7175e-19)
(0.726273 1.30185 -7.16693e-19)
(0.587895 1.05445 -6.20588e-22)
(1.94876 3.71203 0)
(2.20825 3.75118 -5.42382e-19)
(2.34279 3.98353 0)
(2.2893 0.528941 0)
(1.62126 0.342295 0)
(1.2123 0.277059 0)
(2.21501 0.554483 -1.4644e-18)
(1.64011 0.402813 8.1689e-19)
(2.14834 0.128983 -9.84342e-19)
(2.62998 0.297226 0)
(2.46911 0.301459 4.1317e-19)
(1.7726 0.135678 1.63174e-18)
(1.53243 0.0812704 -1.03622e-18)
(0.752355 1.56637 8.59162e-19)
(0.969441 1.83302 0)
(0.542546 1.44886 1.56325e-18)
(0.529945 1.62233 -1.4273e-18)
(0.766044 1.8237 -9.90103e-19)
(2.09163 2.47517 1.33881e-18)
(2.11526 2.72611 0)
(1.59996 1.68986 -2.76652e-19)
(2.02744 2.00066 1.74584e-18)
(1.37362 1.30233 -4.23972e-19)
(1.60306 1.32249 4.51195e-19)
(2.12506 1.51995 1.02371e-18)
(2.45856 1.67636 0)
(2.2928 1.8642 0)
(2.02598 1.61462 0)
(3.95631 2.07144 3.84244e-19)
(3.76509 1.88506 -1.2623e-18)
(3.82171 2.02201 1.04536e-18)
(3.90445 1.76569 -1.00727e-18)
(4.15601 1.66718 0)
(4.11385 1.83301 -2.97565e-19)
(2.85127 1.1639 -1.89645e-18)
(2.98055 1.16332 -2.41134e-18)
(2.3426 1.04527 1.45582e-18)
(2.14787 0.936325 -1.41963e-18)
(2.4723 0.846875 -1.17766e-18)
(2.18714 0.778475 1.44823e-18)
(4.00843 0.0332677 -1.52768e-18)
(4.05274 0.040436 3.12771e-18)
(3.76785 -0.0660659 1.89942e-18)
(3.79106 -0.0739687 -2.28499e-18)
(3.95939 0.0102532 0)
(4.05595 0.0225462 -3.72679e-18)
(0.0838151 4.75599 1.06649e-19)
(0.0547933 4.72415 0)
(0.178143 4.72722 9.52385e-19)
(0.199588 4.7435 -8.6645e-19)
(0.219322 4.70743 4.28157e-19)
(0.110336 4.64768 0)
(-0.114166 4.7632 0)
(-0.118883 4.40701 -6.20414e-20)
(-0.11768 4.34279 5.56149e-20)
(-0.126308 4.48519 7.43292e-21)
(-0.117264 4.70984 -1.01363e-19)
(-0.0947598 4.69817 5.50465e-20)
(1.88203 4.01714 -1.6424e-18)
(1.82118 4.02587 1.73979e-18)
(1.67973 4.39835 -8.53855e-19)
(1.69689 4.28399 7.61316e-20)
(2.25178 4.06574 0)
(1.84629 4.19838 -6.36508e-19)
(1.97399 3.936 6.17306e-19)
(1.81664 4.36516 8.34052e-19)
(2.07134 4.21216 0)
(2.22413 4.09208 0)
(1.14641 3.65484 1.49633e-18)
(0.834544 2.83905 2.0275e-18)
(0.962533 3.01736 -1.39238e-18)
(0.753948 3.00045 -2.32447e-19)
(0.908499 3.75788 4.66988e-19)
(0.72798 3.3928 -1.13583e-18)
(0.754578 1.48142 -1.21768e-18)
(0.754187 1.33087 0)
(0.609125 1.1263 -1.3383e-18)
(1.12263 2.08476 0)
(1.10004 2.17204 0)
(1.3738 2.20377 -1.09205e-18)
(1.07554 2.02734 -1.0374e-18)
(1.02791 2.04701 1.10027e-18)
(1.04471 1.52843 0)
(1.42654 1.77356 -6.01957e-19)
(1.64424 2.1328 -8.55901e-19)
(1.42659 2.09504 0)
(0.878621 1.82718 7.13673e-19)
(0.79028 1.6867 0)
(2.9211 2.29243 -1.84558e-18)
(3.3275 2.4686 2.60652e-18)
(3.28844 2.1917 -2.59074e-18)
(2.62634 2.02657 -2.31099e-19)
(2.74002 1.94401 -9.73714e-19)
(1.27522 2.20468 7.97251e-19)
(1.32987 2.26119 -1.36155e-18)
(1.4698 2.3445 1.79468e-18)
(1.80763 2.57493 -1.16641e-18)
(1.90595 2.95071 -1.56807e-18)
(1.57904 2.50633 -1.18834e-19)
(1.64928 2.64769 1.3728e-18)
(1.82766 2.71026 9.67174e-20)
(2.0349 3.01511 6.50594e-19)
)
;

boundaryField
{
    wall-4
    {
        type            noSlip;
    }
    velocity-inlet-5
    {
        type            fixedValue;
        value           uniform (3 0 0);
    }
    velocity-inlet-6
    {
        type            fixedValue;
        value           uniform (0 1 0);
    }
    pressure-outlet-7
    {
        type            zeroGradient;
    }
    wall-8
    {
        type            noSlip;
    }
    frontAndBackPlanes
    {
        type            empty;
    }
}


// ************************************************************************* //
