/*--------------------------------*- C++ -*----------------------------------*\
  =========                 |
  \\      /  F ield         | OpenFOAM: The Open Source CFD Toolbox
   \\    /   O peration     | Website:  https://openfoam.org
    \\  /    A nd           | Version:  9
     \\/     M anipulation  |
\*---------------------------------------------------------------------------*/
FoamFile
{
    format      ascii;
    class       volVectorField;
    location    "1.92";
    object      U;
}
// * * * * * * * * * * * * * * * * * * * * * * * * * * * * * * * * * * * * * //

dimensions      [0 1 -1 0 0 0 0];

internalField   nonuniform List<vector> 
2268
(
(-0.0121369 0.00428577 0)
(-0.0151254 0.000301875 0)
(-0.0126078 -0.00148745 0)
(-0.00850993 -0.00178493 0)
(-0.00392153 -0.00168802 0)
(0.000373902 -0.00148951 0)
(0.0043172 -0.00130859 0)
(0.00787164 -0.0011464 0)
(0.0110925 -0.00100714 0)
(0.0140077 -0.00087802 0)
(0.016601 -0.000744545 0)
(0.0188158 -0.00058944 0)
(0.0205336 -0.00037569 0)
(0.0214993 -4.01461e-05 0)
(0.0212539 0.000476647 0)
(0.0191986 0.00122803 0)
(0.0146559 0.00215534 0)
(0.00747553 0.00404767 0)
(-0.00797023 0.00789329 0)
(-0.0318108 0.00843109 0)
(-0.0495159 0.00313831 0)
(-0.0527843 -0.00530974 0)
(-0.0256191 -0.0131589 0)
(-0.00812107 0.00863773 0)
(-0.00828536 0.000571754 0)
(-0.0067398 -0.00216517 0)
(-0.00432771 -0.00293862 0)
(-0.00132936 -0.00300701 0)
(0.00177023 -0.0028336 0)
(0.00484197 -0.00261659 0)
(0.00780646 -0.00240196 0)
(0.0106562 -0.00220489 0)
(0.0133752 -0.00200478 0)
(0.0159141 -0.00177229 0)
(0.0181924 -0.00147175 0)
(0.020083 -0.00103124 0)
(0.0213572 -0.000333962 0)
(0.0216656 0.000737358 0)
(0.0205054 0.00227209 0)
(0.017178 0.00432751 0)
(0.0114877 0.0076867 0)
(0.00215699 0.0130854 0)
(-0.010954 0.0142357 0)
(-0.0222938 0.00714053 0)
(-0.0305585 -0.00618503 0)
(-0.0195847 -0.0272603 0)
(-0.00306184 0.0109975 0)
(-0.0039001 0.000471129 0)
(-0.00308483 -0.0028442 0)
(-0.00176509 -0.00390279 0)
(0.000204248 -0.00412787 0)
(0.00249292 -0.00403302 0)
(0.00495957 -0.00383781 0)
(0.00750856 -0.00362235 0)
(0.0101029 -0.00341012 0)
(0.0126994 -0.0031727 0)
(0.0152269 -0.00286931 0)
(0.017597 -0.0024505 0)
(0.0196897 -0.00181564 0)
(0.021305 -0.000805418 0)
(0.0221434 0.000752111 0)
(0.0218126 0.00298226 0)
(0.0197829 0.00599398 0)
(0.0159342 0.0103105 0)
(0.0107839 0.016312 0)
(0.00417877 0.0180461 0)
(-0.00313583 0.010999 0)
(-0.0124959 -0.00448472 0)
(-0.00976216 -0.0357444 0)
(0.000382505 0.0117468 0)
(-0.000760931 0.00063978 0)
(-0.000562091 -0.00313846 0)
(-9.47408e-06 -0.00449553 0)
(0.00120728 -0.00494815 0)
(0.00287797 -0.00500668 0)
(0.00487445 -0.00490687 0)
(0.00710042 -0.00475635 0)
(0.00950647 -0.00458599 0)
(0.0120323 -0.00435932 0)
(0.0145921 -0.00402778 0)
(0.0170981 -0.00353453 0)
(0.0194473 -0.00275586 0)
(0.0214724 -0.00149451 0)
(0.0229258 0.000456882 0)
(0.0235157 0.00324104 0)
(0.0229044 0.00695971 0)
(0.0210473 0.0119073 0)
(0.0189941 0.0179904 0)
(0.016703 0.020296 0)
(0.0126455 0.0142414 0)
(0.00420973 -0.00168217 0)
(0.00115814 -0.0379538 0)
(0.00224456 0.011243 0)
(0.00134838 0.000839208 0)
(0.00112821 -0.00315382 0)
(0.00115011 -0.00478382 0)
(0.0018061 -0.00550126 0)
(0.00299818 -0.00576924 0)
(0.00462025 -0.00582686 0)
(0.00658907 -0.00580178 0)
(0.00885596 -0.0057293 0)
(0.011352 -0.00556307 0)
(0.0139821 -0.00525052 0)
(0.0166661 -0.00473528 0)
(0.0193265 -0.00387702 0)
(0.0218325 -0.00244721 0)
(0.0239891 -0.000216048 0)
(0.0255965 0.00295531 0)
(0.0264897 0.00712548 0)
(0.0267346 0.0123878 0)
(0.0273007 0.0182872 0)
(0.0282065 0.0210133 0)
(0.0269425 0.0166027 0)
(0.0202909 0.00215135 0)
(0.0126038 -0.0330279 0)
(0.00305775 0.0101157 0)
(0.0026 0.000974016 0)
(0.00214652 -0.00298558 0)
(0.00181838 -0.00484872 0)
(0.00206788 -0.00583938 0)
(0.00289328 -0.0063506 0)
(0.00421916 -0.00661157 0)
(0.00598511 -0.00676309 0)
(0.00815348 -0.00684002 0)
(0.0106533 -0.00678224 0)
(0.0133843 -0.00653718 0)
(0.0162794 -0.00605819 0)
(0.0192935 -0.00519432 0)
(0.0223357 -0.00369074 0)
(0.0252615 -0.00130641 0)
(0.0279534 0.00207267 0)
(0.0303893 0.00644234 0)
(0.0327408 0.0117358 0)
(0.035768 0.017331 0)
(0.0393935 0.020384 0)
(0.040865 0.0179293 0)
(0.0368677 0.00698281 0)
(0.0255758 -0.0230793 0)
(0.00329651 0.00867531 0)
(0.00320598 0.00102439 0)
(0.00264189 -0.00271824 0)
(0.0020963 -0.00475924 0)
(0.00206044 -0.00601777 0)
(0.00260964 -0.00679078 0)
(0.00370425 -0.00728902 0)
(0.0053129 -0.00766083 0)
(0.00741592 -0.00793491 0)
(0.00994492 -0.00803152 0)
(0.0127972 -0.00790218 0)
(0.0159233 -0.00752047 0)
(0.0193152 -0.00672993 0)
(0.0229237 -0.00525176 0)
(0.0266522 -0.00284155 0)
(0.0304547 0.000572818 0)
(0.0344235 0.00491407 0)
(0.0388129 0.0100007 0)
(0.0442263 0.0151827 0)
(0.0505354 0.0184246 0)
(0.0551119 0.0178195 0)
(0.055583 0.0119692 0)
(0.0428137 -0.0100284 0)
(0.00327081 0.00705046 0)
(0.00336132 0.00102706 0)
(0.00277023 -0.00238034 0)
(0.00209693 -0.00455382 0)
(0.00186337 -0.00607401 0)
(0.00220634 -0.00712561 0)
(0.00312345 -0.00789377 0)
(0.00461322 -0.00852879 0)
(0.00667631 -0.00904963 0)
(0.00924987 -0.00935 0)
(0.0122314 -0.00938846 0)
(0.0155911 -0.00917019 0)
(0.0193601 -0.00854021 0)
(0.0235326 -0.00719971 0)
(0.0280586 -0.00490414 0)
(0.0329538 -0.00162919 0)
(0.0383977 0.00247365 0)
(0.04471 0.00711336 0)
(0.0524179 0.0116981 0)
(0.0614672 0.0147911 0)
(0.0697258 0.0153469 0)
(0.0746892 0.015058 0)
(0.0723046 0.0323778 0)
(-0.0781917 0.0235704 0)
(-0.107233 0.00303802 0)
(-0.0699732 -0.0191155 0)
(-0.0151464 -0.018555 0)
(0.0289009 -0.0147799 0)
(0.0660078 -0.0133267 0)
(0.0985261 -0.0109738 0)
(0.121823 -0.00427226 0)
(0.120214 0.00532285 0)
(0.0865956 0.0125417 0)
(0.0423074 0.0110218 0)
(0.0166596 0.00575222 0)
(0.00454784 0.00462704 0)
(-0.0137244 0.00761603 0)
(-0.0429682 0.00870257 0)
(-0.0621173 0.00471916 0)
(-0.0695339 0.000952533 0)
(-0.0734751 -0.00547119 0)
(-0.0371984 -0.0180172 0)
(-0.0768007 0.0523254 0)
(-0.0545738 0.00174161 0)
(-0.0269409 -0.030268 0)
(0.00884457 -0.0306083 0)
(0.0352637 -0.0243714 0)
(0.0555235 -0.020889 0)
(0.0726599 -0.0171188 0)
(0.0855073 -0.00585744 0)
(0.0858038 0.0120595 0)
(0.0661989 0.0238261 0)
(0.0371575 0.0208803 0)
(0.0188809 0.0112973 0)
(0.00817033 0.00966086 0)
(-0.00534735 0.0137781 0)
(-0.0235588 0.0154052 0)
(-0.0328132 0.00767095 0)
(-0.0312433 0.00157131 0)
(-0.0393318 -0.00538846 0)
(-0.0242529 -0.0345096 0)
(-0.0511035 0.0698701 0)
(-0.0150206 -0.00829102 0)
(0.00451939 -0.0414927 0)
(0.0249073 -0.0396197 0)
(0.0370052 -0.0305878 0)
(0.0448256 -0.02541 0)
(0.0512361 -0.0209083 0)
(0.0559234 -0.00766275 0)
(0.0541286 0.0157031 0)
(0.041466 0.0309227 0)
(0.0247865 0.0278526 0)
(0.0133816 0.0159283 0)
(0.00523826 0.014174 0)
(-0.00347339 0.0181737 0)
(-0.0119204 0.0187121 0)
(-0.0128213 0.00780889 0)
(-0.00557534 0.00126696 0)
(-0.0119468 -0.00443129 0)
(-0.00471583 -0.0437136 0)
(-0.0219503 0.0789056 0)
(0.0204886 -0.0184881 0)
(0.0316841 -0.048754 0)
(0.0372343 -0.0435651 0)
(0.0361416 -0.032386 0)
(0.0334449 -0.0263521 0)
(0.031583 -0.0215699 0)
(0.0299918 -0.00735533 0)
(0.0259992 0.0185172 0)
(0.0195232 0.0353202 0)
(0.0117258 0.0322838 0)
(0.00598733 0.0190469 0)
(0.000310022 0.0172303 0)
(-0.00456447 0.0204504 0)
(-0.0062927 0.0190246 0)
(-8.1235e-05 0.00528813 0)
(0.0120151 -0.000499415 0)
(0.00972808 -0.00344559 0)
(0.0128753 -0.0422375 0)
(0.00750616 0.0725241 0)
(0.0544735 -0.0273876 0)
(0.0558536 -0.0511434 0)
(0.0459988 -0.0416588 0)
(0.0325039 -0.0293843 0)
(0.0205832 -0.023726 0)
(0.0122882 -0.0195519 0)
(0.00586999 -0.00518344 0)
(0.000343326 0.0203228 0)
(-0.0015414 0.03706 0)
(-0.0021375 0.0338673 0)
(-0.00259052 0.020617 0)
(-0.00562983 0.0188944 0)
(-0.00716353 0.0209399 0)
(-0.00428458 0.016893 0)
(0.00650394 0.000486794 0)
(0.0223906 -0.0040134 0)
(0.0250654 -0.00233709 0)
(0.0255883 -0.0347128 0)
(0.039553 0.0527654 0)
(0.0886188 -0.0355621 0)
(0.0760556 -0.0474247 0)
(0.0504583 -0.0337582 0)
(0.025706 -0.0218637 0)
(0.00586196 -0.0179605 0)
(-0.00744942 -0.0155846 0)
(-0.0169065 -0.0017809 0)
(-0.0229305 0.0214709 0)
(-0.0218476 0.0363682 0)
(-0.0160979 0.0325615 0)
(-0.0122514 0.0208198 0)
(-0.012616 0.019222 0)
(-0.0107992 0.0199003 0)
(-0.00463325 0.0132649 0)
(0.00796614 -0.00564656 0)
(0.0268072 -0.00979598 0)
(0.0356442 -0.00165502 0)
(0.0359444 -0.0230347 0)
(0.0849252 0.0210545 0)
(0.122592 -0.0405725 0)
(0.0901306 -0.0358793 0)
(0.0497266 -0.020055 0)
(0.0154894 -0.0103866 0)
(-0.0108536 -0.00958651 0)
(-0.0280382 -0.0103086 0)
(-0.0388607 0.00201225 0)
(-0.0439093 0.0220237 0)
(-0.0398593 0.0337327 0)
(-0.0302332 0.0294345 0)
(-0.0236503 0.0198405 0)
(-0.0208261 0.0181015 0)
(-0.0153043 0.017498 0)
(-0.00639434 0.00881037 0)
(0.00681098 -0.0124477 0)
(0.0282272 -0.0181908 0)
(0.0438632 -0.00230251 0)
(0.0465651 -0.00696689 0)
(0.1531 -0.0502374 0)
(0.149905 -0.0391348 0)
(0.0953378 -0.0154346 0)
(0.0431539 -0.00126558 0)
(0.00181456 0.0042189 0)
(-0.0295012 0.000801706 0)
(-0.0497956 -0.00419503 0)
(-0.0611104 0.00569521 0)
(-0.0642992 0.0218746 0)
(-0.0569889 0.0301997 0)
(-0.045341 0.0254596 0)
(-0.0367064 0.0177963 0)
(-0.0302046 0.0157059 0)
(-0.0204906 0.0139421 0)
(-0.00831408 0.00388287 0)
(0.00609568 -0.0196158 0)
(0.0294398 -0.0281492 0)
(0.0492984 -0.00480088 0)
(0.055839 0.013103 0)
(0.00321836 0.0059712 0)
(0.00332358 0.0013035 0)
(0.0026647 -0.00169989 0)
(0.00185814 -0.00407905 0)
(0.00139897 -0.0060165 0)
(0.00149938 -0.00754068 0)
(0.0022133 -0.00878717 0)
(0.0035719 -0.00989943 0)
(0.00559842 -0.0108863 0)
(0.00824497 -0.011592 0)
(0.0114195 -0.011984 0)
(0.0151167 -0.0121327 0)
(0.0194197 -0.0119071 0)
(0.0243984 -0.011 0)
(0.0300938 -0.0091662 0)
(0.0366104 -0.00645072 0)
(0.0441952 -0.00310528 0)
(0.0532493 0.000465119 0)
(0.0642873 0.00371202 0)
(0.077534 0.00573627 0)
(0.0925329 0.00624735 0)
(0.109966 0.00794385 0)
(0.138286 0.0199279 0)
(0.00238561 0.000216254 0)
(0.00240973 0.000277863 0)
(0.00205671 -0.00149688 0)
(0.00129791 -0.0038392 0)
(0.000642916 -0.00611538 0)
(0.000584069 -0.00808603 0)
(0.00127578 -0.00984245 0)
(0.00264823 -0.0115072 0)
(0.00464447 -0.0130667 0)
(0.00730436 -0.0143027 0)
(0.0106509 -0.0151908 0)
(0.0146056 -0.0159155 0)
(0.0191753 -0.0164012 0)
(0.0246179 -0.0163728 0)
(0.0313011 -0.0155943 0)
(0.0394881 -0.014191 0)
(0.049356 -0.0124778 0)
(0.0611013 -0.0108756 0)
(0.0750264 -0.00999077 0)
(0.0914034 -0.0105911 0)
(0.110315 -0.01317 0)
(0.132343 -0.0176596 0)
(0.161614 -0.0257403 0)
(-0.000980011 0.00172638 0)
(0.000891252 0.0010632 0)
(0.0016297 -0.00062175 0)
(0.000315267 -0.00318678 0)
(-0.00135007 -0.00576523 0)
(-0.00154931 -0.00799346 0)
(-0.000224387 -0.0102082 0)
(0.00171641 -0.0124367 0)
(0.00360013 -0.0146098 0)
(0.00598142 -0.0163183 0)
(0.00959871 -0.0175973 0)
(0.0136799 -0.0189675 0)
(0.0174415 -0.0201921 0)
(0.0218779 -0.0208451 0)
(0.0287187 -0.0207804 0)
(0.038603 -0.0204395 0)
(0.0509624 -0.0202018 0)
(0.0649692 -0.0204079 0)
(0.0803262 -0.021567 0)
(0.097144 -0.024239 0)
(0.116123 -0.02848 0)
(0.139051 -0.0339787 0)
(0.168849 -0.0416271 0)
(-0.0129381 -0.00167196 0)
(-0.00137913 -0.00194448 0)
(0.00170196 -0.00163483 0)
(-0.00332701 -0.00281469 0)
(-0.00992144 -0.00445404 0)
(-0.0108626 -0.00635603 0)
(-0.00671886 -0.0111118 0)
(0.00019956 -0.0144979 0)
(0.00295326 -0.0158672 0)
(0.00325738 -0.0170769 0)
(0.00748194 -0.0189104 0)
(0.0118892 -0.0215808 0)
(0.0123002 -0.0231617 0)
(0.0120042 -0.0229136 0)
(0.0165773 -0.0226249 0)
(0.0291003 -0.0252197 0)
(0.0471741 -0.0283283 0)
(0.0657276 -0.030516 0)
(0.0819686 -0.0325564 0)
(0.0944452 -0.0361343 0)
(0.10612 -0.0404442 0)
(0.12422 -0.0457991 0)
(0.142546 -0.0584032 0)
(-0.107926 0.0383115 0)
(-0.128343 -0.0178287 0)
(-0.146119 0.00540708 0)
(-0.200061 0.0315647 0)
(-0.245763 0.00286242 0)
(-0.230219 -0.0241828 0)
(-0.212033 -0.0327496 0)
(-0.2022 -0.0238776 0)
(-0.201121 -0.0112829 0)
(-0.193789 -0.0286208 0)
(-0.182749 -0.0413146 0)
(-0.181268 -0.0284504 0)
(-0.208522 -0.00464402 0)
(-0.254617 -0.0292216 0)
(-0.222922 -0.0698337 0)
(-0.177764 -0.0867177 0)
(-0.141948 -0.0867201 0)
(-0.120618 -0.0761728 0)
(-0.126776 -0.0582997 0)
(-0.170158 -0.0436166 0)
(-0.249255 -0.048346 0)
(-0.321393 -0.100584 0)
(-0.286335 -0.128698 0)
(-0.102941 0.170709 0)
(-0.137233 0.0394871 0)
(-0.180402 0.0525327 0)
(-0.218585 0.0723745 0)
(-0.233307 0.0195574 0)
(-0.245501 -0.0150542 0)
(-0.258258 -0.0308541 0)
(-0.261389 -0.0357513 0)
(-0.250963 -0.0316392 0)
(-0.232562 -0.0352975 0)
(-0.221407 -0.0345178 0)
(-0.221071 -0.00788066 0)
(-0.237865 0.0234849 0)
(-0.24734 -0.0229224 0)
(-0.240473 -0.0741997 0)
(-0.222902 -0.0974209 0)
(-0.204125 -0.0893438 0)
(-0.197261 -0.0566604 0)
(-0.217 -0.00780123 0)
(-0.257921 0.0402627 0)
(-0.315252 0.0644448 0)
(-0.349301 -0.0596229 0)
(-0.323039 -0.118644 0)
(-0.0585839 0.27649 0)
(-0.092186 0.0941568 0)
(-0.150736 0.0985661 0)
(-0.173259 0.0913253 0)
(-0.189617 0.0326031 0)
(-0.222742 0.000553426 0)
(-0.255292 -0.016671 0)
(-0.262109 -0.0359957 0)
(-0.256382 -0.04202 0)
(-0.243993 -0.0473837 0)
(-0.235167 -0.0404341 0)
(-0.232877 -0.00689186 0)
(-0.228438 0.0358796 0)
(-0.227507 -0.021413 0)
(-0.232587 -0.0834011 0)
(-0.234654 -0.108062 0)
(-0.235108 -0.0954311 0)
(-0.239696 -0.0497262 0)
(-0.261154 0.0208617 0)
(-0.310229 0.0754003 0)
(-0.325753 0.0549932 0)
(-0.319907 -0.0594418 0)
(-0.309751 -0.128959 0)
(-0.0164077 0.327996 0)
(-0.042446 0.151006 0)
(-0.0926007 0.13641 0)
(-0.113803 0.109634 0)
(-0.136939 0.0655053 0)
(-0.169049 0.0418198 0)
(-0.19926 0.0125228 0)
(-0.228699 -0.0291979 0)
(-0.239206 -0.0455471 0)
(-0.239455 -0.0558771 0)
(-0.241266 -0.0479943 0)
(-0.245384 -0.0125169 0)
(-0.225842 0.026337 0)
(-0.205696 -0.0122563 0)
(-0.206504 -0.0790632 0)
(-0.23306 -0.104034 0)
(-0.261997 -0.0903034 0)
(-0.287973 -0.0354434 0)
(-0.297448 0.061361 0)
(-0.293287 0.122188 0)
(-0.277027 0.0806493 0)
(-0.270486 -0.0760415 0)
(-0.279494 -0.138013 0)
(0.0119055 0.330412 0)
(-0.00904222 0.193016 0)
(-0.0459875 0.162646 0)
(-0.0640458 0.131943 0)
(-0.0867687 0.0974833 0)
(-0.112676 0.0704823 0)
(-0.136727 0.0401096 0)
(-0.161558 0.00199782 0)
(-0.187576 -0.033117 0)
(-0.209903 -0.0503384 0)
(-0.227228 -0.0427125 0)
(-0.229563 -0.0174863 0)
(-0.216353 -0.00512588 0)
(-0.203498 -0.0258558 0)
(-0.208998 -0.0571539 0)
(-0.230072 -0.0676666 0)
(-0.253539 -0.0531308 0)
(-0.270995 -0.0122994 0)
(-0.269078 0.0455726 0)
(-0.244 0.0803389 0)
(-0.211842 0.0534031 0)
(-0.19953 -0.04825 0)
(-0.240978 -0.136308 0)
(0.0230614 0.311519 0)
(0.00962916 0.220134 0)
(-0.0145181 0.181907 0)
(-0.0292226 0.150712 0)
(-0.0478168 0.119407 0)
(-0.0680735 0.0909185 0)
(-0.0880056 0.0606292 0)
(-0.109944 0.0272701 0)
(-0.134993 -0.00291449 0)
(-0.160641 -0.0222802 0)
(-0.182285 -0.0256904 0)
(-0.192689 -0.0174626 0)
(-0.190879 -0.0140888 0)
(-0.18784 -0.0269001 0)
(-0.194949 -0.0444033 0)
(-0.210682 -0.0502493 0)
(-0.226844 -0.0391051 0)
(-0.235451 -0.0110744 0)
(-0.22731 0.0243892 0)
(-0.20097 0.0425893 0)
(-0.170818 0.022706 0)
(-0.16104 -0.0302153 0)
(-0.182937 -0.0741263 0)
(0.0224939 0.290437 0)
(0.0173789 0.234358 0)
(0.00445398 0.196114 0)
(-0.00620983 0.165693 0)
(-0.0199903 0.136585 0)
(-0.0353524 0.108577 0)
(-0.0517475 0.0794997 0)
(-0.0706792 0.0491747 0)
(-0.0928715 0.0216257 0)
(-0.116448 0.00173002 0)
(-0.137385 -0.00782897 0)
(-0.150949 -0.00976896 0)
(-0.156573 -0.0126615 0)
(-0.160315 -0.0222985 0)
(-0.168358 -0.0334196 0)
(-0.180093 -0.0373826 0)
(-0.190502 -0.0303031 0)
(-0.193792 -0.0129113 0)
(-0.184683 0.0074762 0)
(-0.163459 0.0163219 0)
(-0.140166 0.0022249 0)
(-0.130237 -0.0305621 0)
(-0.139638 -0.0589864 0)
(0.0171248 0.272081 0)
(0.018806 0.238478 0)
(0.0141649 0.204267 0)
(0.00791784 0.175913 0)
(-0.00112924 0.149032 0)
(-0.0121306 0.122551 0)
(-0.0249185 0.0954534 0)
(-0.0402921 0.0680024 0)
(-0.0585266 0.0427709 0)
(-0.0782126 0.0227787 0)
(-0.0965079 0.00951997 0)
(-0.110428 0.00144127 0)
(-0.119483 -0.00579752 0)
(-0.126637 -0.0150278 0)
(-0.134942 -0.0239121 0)
(-0.14406 -0.0280518 0)
(-0.15099 -0.0251905 0)
(-0.152032 -0.016205 0)
(-0.144367 -0.00605521 0)
(-0.128968 -0.00301467 0)
(-0.112282 -0.0129951 0)
(-0.103166 -0.0333279 0)
(-0.105303 -0.0520686 0)
(0.0117549 0.256787 0)
(0.0175012 0.235957 0)
(0.0181652 0.206981 0)
(0.015874 0.181567 0)
(0.0109638 0.157026 0)
(0.00390714 0.132545 0)
(-0.00522501 0.107706 0)
(-0.0167931 0.082911 0)
(-0.0307929 0.0597611 0)
(-0.0462053 0.0400923 0)
(-0.0611566 0.024833 0)
(-0.073771 0.0132219 0)
(-0.0835427 0.00312331 0)
(-0.0917291 -0.00682539 0)
(-0.0996833 -0.015586 0)
(-0.10711 -0.021008 0)
(-0.112219 -0.0219484 0)
(-0.112793 -0.0191806 0)
(-0.107416 -0.0158226 0)
(-0.0970676 -0.0164895 0)
(-0.085731 -0.0242325 0)
(-0.0784786 -0.0374877 0)
(-0.0776312 -0.0499159 0)
(0.00809173 0.244326 0)
(0.0154661 0.230195 0)
(0.0190997 0.205924 0)
(0.01987 0.183423 0)
(0.0183204 0.161212 0)
(0.0146879 0.138842 0)
(0.00900697 0.116223 0)
(0.00113542 0.0937621 0)
(-0.00881745 0.0724687 0)
(-0.020141 0.0534709 0)
(-0.0316273 0.0373843 0)
(-0.0420762 0.0239072 0)
(-0.0509998 0.0120452 0)
(-0.0587963 0.00115361 0)
(-0.0659532 -0.00830413 0)
(-0.0721729 -0.0153039 0)
(-0.0763721 -0.0193242 0)
(-0.0772698 -0.0209518 0)
(-0.0741809 -0.022063 0)
(-0.0678786 -0.0251987 0)
(-0.060778 -0.0319277 0)
(-0.0558084 -0.0413317 0)
(-0.054381 -0.0500135 0)
(0.00594343 0.23418 0)
(0.013508 0.223309 0)
(0.0186327 0.202517 0)
(0.0215662 0.182453 0)
(0.0225954 0.162321 0)
(0.0217909 0.14192 0)
(0.0191444 0.121318 0)
(0.0145941 0.10087 0)
(0.00825399 0.0812364 0)
(0.000596285 0.0631257 0)
(-0.0076091 0.0469631 0)
(-0.015581 0.032682 0)
(-0.0228919 0.0198568 0)
(-0.0295514 0.00820287 0)
(-0.0356357 -0.00206356 0)
(-0.04086 -0.01046 0)
(-0.0445528 -0.0167671 0)
(-0.0459792 -0.0213839 0)
(-0.0448156 -0.0253966 0)
(-0.0416018 -0.0301792 0)
(-0.0377738 -0.0365263 0)
(-0.0350097 -0.0438998 0)
(-0.034168 -0.0504833 0)
(0.00470064 0.225679 0)
(0.0119354 0.216263 0)
(0.0177403 0.197718 0)
(0.0221121 0.179481 0)
(0.0250469 0.161044 0)
(0.0264805 0.142331 0)
(0.0263535 0.123467 0)
(0.0246138 0.10474 0)
(0.0213368 0.0865898 0)
(0.0168183 0.0694726 0)
(0.0115388 0.0536865 0)
(0.00600613 0.0392689 0)
(0.000566474 0.0260664 0)
(-0.00464366 0.0139741 0)
(-0.00953073 0.00310703 0)
(-0.0138421 -0.00630043 0)
(-0.0171485 -0.0141556 0)
(-0.0190207 -0.020701 0)
(-0.0193003 -0.0265357 0)
(-0.0183305 -0.0323793 0)
(-0.0169423 -0.0386183 0)
(-0.0160843 -0.044935 0)
(-0.0162666 -0.050354 0)
(0.00398704 0.218234 0)
(0.0108739 0.209375 0)
(0.0169711 0.192115 0)
(0.0222916 0.175119 0)
(0.0266061 0.15797 0)
(0.0297513 0.140627 0)
(0.0316217 0.12321 0)
(0.0321478 0.105938 0)
(0.0313565 0.0891059 0)
(0.0294169 0.0730089 0)
(0.0266183 0.0578556 0)
(0.023285 0.0437158 0)
(0.019677 0.0305577 0)
(0.0159598 0.0183628 0)
(0.0122757 0.00720686 0)
(0.00883463 -0.00278306 0)
(0.00592035 -0.0115562 0)
(0.00379397 -0.0192375 0)
(0.00254591 -0.0261333 0)
(0.00197909 -0.0325982 0)
(0.00163197 -0.0388023 0)
(0.000985369 -0.044551 0)
(-0.000247279 -0.0493144 0)
(0.00368363 0.211352 0)
(0.0104043 0.202669 0)
(0.0166544 0.186012 0)
(0.0226332 0.169788 0)
(0.0279444 0.153574 0)
(0.0323641 0.137306 0)
(0.0357557 0.121073 0)
(0.03803 0.105026 0)
(0.0391727 0.0893583 0)
(0.0392659 0.074258 0)
(0.0384739 0.0598665 0)
(0.0369964 0.0462522 0)
(0.0350156 0.0334309 0)
(0.0326766 0.0214205 0)
(0.0301151 0.0102811 0)
(0.027496 9.57391e-05 0)
(0.0250126 -0.00909134 0)
(0.0228337 -0.0173249 0)
(0.0210245 -0.0247393 0)
(0.019489 -0.0314877 0)
(0.0179897 -0.0376257 0)
(0.016261 -0.043026 0)
(0.0141618 -0.0473944 0)
(0.00379045 0.204546 0)
(0.0105924 0.196035 0)
(0.0169979 0.179538 0)
(0.0234814 0.163756 0)
(0.0295223 0.148211 0)
(0.0348696 0.132789 0)
(0.0393748 0.117527 0)
(0.0429378 0.102519 0)
(0.0455178 0.0878806 0)
(0.0471418 0.0737273 0)
(0.0478947 0.0601486 0)
(0.0478932 0.0471978 0)
(0.0472569 0.0349025 0)
(0.0460956 0.0232926 0)
(0.0445185 0.0124194 0)
(0.0426493 0.00234771 0)
(0.0406225 -0.00687444 0)
(0.0385546 -0.0152413 0)
(0.0365029 -0.0227898 0)
(0.0344371 -0.0295646 0)
(0.0322533 -0.0355622 0)
(0.0298356 -0.0406924 0)
(0.027136 -0.0447873 0)
(0.00432222 0.19729 0)
(0.0114686 0.189283 0)
(0.018115 0.172717 0)
(0.0250318 0.157186 0)
(0.0316175 0.142147 0)
(0.0376223 0.127415 0)
(0.0429045 0.112974 0)
(0.0473661 0.0988641 0)
(0.0509552 0.0851457 0)
(0.0536686 0.071881 0)
(0.0555444 0.0591206 0)
(0.0566468 0.0468989 0)
(0.05705 0.0352407 0)
(0.0568301 0.0241753 0)
(0.0560672 0.013747 0)
(0.054851 0.00401131 0)
(0.0532766 -0.00498012 0)
(0.0514295 -0.013193 0)
(0.0493641 -0.0206121 0)
(0.0470902 -0.0272262 0)
(0.0445812 -0.0330034 0)
(0.0418082 -0.0378754 0)
(0.0387804 -0.041743 0)
(0.00525137 0.189068 0)
(0.0129905 0.182163 0)
(0.0200135 0.165514 0)
(0.0273353 0.150179 0)
(0.0343342 0.135578 0)
(0.0407865 0.121455 0)
(0.0465743 0.107743 0)
(0.051614 0.0944374 0)
(0.0558562 0.0815563 0)
(0.0592866 0.0691242 0)
(0.0619194 0.057163 0)
(0.0637889 0.0456899 0)
(0.06494 0.0347217 0)
(0.0654231 0.0242825 0)
(0.0652947 0.0144096 0)
(0.0646185 0.00515169 0)
(0.0634635 -0.00343894 0)
(0.0618952 -0.0113146 0)
(0.0599656 -0.018435 0)
(0.0577065 -0.0247627 0)
(0.0551345 -0.0302543 0)
(0.0522685 -0.0348561 0)
(0.04915 -0.0385071 0)
(0.006462 0.179447 0)
(0.0150022 0.174404 0)
(0.0225677 0.157873 0)
(0.0302864 0.142801 0)
(0.0376016 0.128653 0)
(0.0443398 0.115123 0)
(0.0504207 0.1021 0)
(0.0557849 0.0895438 0)
(0.0603967 0.0774426 0)
(0.0642437 0.0657947 0)
(0.0673328 0.0546018 0)
(0.0696846 0.0438679 0)
(0.0713279 0.0336016 0)
(0.0722972 0.0238209 0)
(0.0726327 0.0145566 0)
(0.0723804 0.00585137 0)
(0.0715918 -0.00224498 0)
(0.0703194 -0.0096807 0)
(0.0686119 -0.0164059 0)
(0.0665114 -0.0223735 0)
(0.0640557 -0.0275377 0)
(0.0612881 -0.0318553 0)
(0.0582654 -0.0352875 0)
(0.00772287 0.168179 0)
(0.0172086 0.165742 0)
(0.0254911 0.149724 0)
(0.0336121 0.13509 0)
(0.0411771 0.121483 0)
(0.0480848 0.108582 0)
(0.0543025 0.0962477 0)
(0.0598034 0.0844185 0)
(0.0645726 0.0730618 0)
(0.0686091 0.0621591 0)
(0.0719234 0.0516997 0)
(0.0745337 0.0416787 0)
(0.076463 0.0320987 0)
(0.0777384 0.0229729 0)
(0.0783906 0.0143269 0)
(0.0784554 0.00619767 0)
(0.0779729 -0.00136862 0)
(0.0769869 -0.0083215 0)
(0.0755422 -0.0146098 0)
(0.0736838 -0.0201852 0)
(0.0714582 -0.0250043 0)
(0.0689177 -0.029032 0)
(0.0661238 -0.032243 0)
(0.00871768 0.15532 0)
(0.0191973 0.155969 0)
(0.0283445 0.140998 0)
(0.0368886 0.127064 0)
(0.0446713 0.11414 0)
(0.0516799 0.101941 0)
(0.0579363 0.0903286 0)
(0.0634512 0.0792282 0)
(0.0682359 0.0685981 0)
(0.0723072 0.0584115 0)
(0.075686 0.0486514 0)
(0.0783955 0.0393085 0)
(0.0804605 0.0303829 0)
(0.0819067 0.0218849 0)
(0.0827616 0.0138366 0)
(0.0830556 0.00627105 0)
(0.0828227 -0.000769816 0)
(0.0821005 -0.00723887 0)
(0.0809302 -0.0130875 0)
(0.0793555 -0.01827 0)
(0.0774239 -0.0227472 0)
(0.0751888 -0.0264906 0)
(0.0727088 -0.0294828 0)
(0.00915182 0.141297 0)
(0.0205377 0.145005 0)
(0.030616 0.131628 0)
(0.0396124 0.118709 0)
(0.0476156 0.106647 0)
(0.0547048 0.0952575 0)
(0.0609578 0.0844215 0)
(0.0664263 0.0740712 0)
(0.0711513 0.0641648 0)
(0.0751704 0.0546747 0)
(0.0785195 0.0455835 0)
(0.0812315 0.0368822 0)
(0.0833374 0.0285713 0)
(0.0848661 0.0206611 0)
(0.0858459 0.0131725 0)
(0.0863059 0.00613611 0)
(0.0862773 -0.000409331 0)
(0.0857941 -0.0064203 0)
(0.0848937 -0.0118519 0)
(0.0836172 -0.0166621 0)
(0.0820091 -0.0208164 0)
(0.0801191 -0.0242908 0)
(0.0779999 -0.0270731 0)
(0.00890613 0.126858 0)
(0.0209489 0.132978 0)
(0.0318827 0.121594 0)
(0.0413354 0.109996 0)
(0.0495765 0.0989946 0)
(0.0567583 0.0885362 0)
(0.0630094 0.078549 0)
(0.0684217 0.0689848 0)
(0.0730663 0.0598113 0)
(0.0770035 0.0510075 0)
(0.0802853 0.0425609 0)
(0.0829571 0.0344673 0)
(0.0850582 0.0267307 0)
(0.0866237 0.0193641 0)
(0.0876851 0.0123895 0)
(0.088273 0.00583727 0)
(0.088418 -0.00025585 0)
(0.0881523 -0.00584892 0)
(0.0875107 -0.0109003 0)
(0.0865306 -0.0153715 0)
(0.0852527 -0.0192315 0)
(0.0837208 -0.0224597 0)
(0.0819802 -0.0250465 0)
(0.00813708 0.112822 0)
(0.0204461 0.120244 0)
(0.0319825 0.110975 0)
(0.0418159 0.100927 0)
(0.0502821 0.0911636 0)
(0.0575662 0.0817583 0)
(0.0638324 0.0726974 0)
(0.0692057 0.0639622 0)
(0.0737839 0.0555389 0)
(0.0776477 0.0474188 0)
(0.0808649 0.0395996 0)
(0.0834931 0.0320851 0)
(0.0855809 0.0248861 0)
(0.0871701 0.0180209 0)
(0.0882972 0.0115147 0)
(0.0889956 0.00539931 0)
(0.0892969 -0.000288427 0)
(0.089233 -0.00550892 0)
(0.0888369 -0.0102226 0)
(0.0881429 -0.0143934 0)
(0.0871874 -0.0179925 0)
(0.0860086 -0.0210011 0)
(0.0846441 -0.0234103 0)
(0.00719263 0.0997415 0)
(0.0193208 0.107297 0)
(0.031065 0.0999954 0)
(0.0410908 0.0915906 0)
(0.0496955 0.0831795 0)
(0.05705 0.074919 0)
(0.06333 0.0668478 0)
(0.0686794 0.0589802 0)
(0.0732135 0.0513245 0)
(0.0770277 0.043889 0)
(0.0802023 0.0366847 0)
(0.0828047 0.0297265 0)
(0.0848917 0.0230344 0)
(0.0865115 0.0166336 0)
(0.0877054 0.0105545 0)
(0.0885103 0.00483222 0)
(0.0889599 -0.000494902 0)
(0.0890864 -0.00538701 0)
(0.088922 -0.00980516 0)
(0.0884988 -0.0137144 0)
(0.0878493 -0.0170867 0)
(0.0870068 -0.0199033 0)
(0.0860022 -0.0221548 0)
(0.00637651 0.0877765 0)
(0.0179411 0.0946256 0)
(0.0294626 0.0889901 0)
(0.0394077 0.0821789 0)
(0.047986 0.0751408 0)
(0.0553205 0.0680596 0)
(0.0615731 0.0610076 0)
(0.0668883 0.0540266 0)
(0.0713861 0.0471464 0)
(0.0751683 0.0403929 0)
(0.0783214 0.0337919 0)
(0.080919 0.0273707 0)
(0.0830231 0.0211596 0)
(0.0846867 0.0151921 0)
(0.0859551 0.00950511 0)
(0.0868681 0.00413803 0)
(0.0874614 -0.000867905 0)
(0.0877684 -0.00547126 0)
(0.0878208 -0.00963236 0)
(0.0876493 -0.0133159 0)
(0.0872838 -0.0164933 0)
(0.0867534 -0.0191447 0)
(0.0860837 -0.0212586 0)
(0.0057911 0.0768334 0)
(0.0165504 0.0826011 0)
(0.027492 0.0783142 0)
(0.0370735 0.0729434 0)
(0.0454223 0.0672075 0)
(0.0526035 0.0612724 0)
(0.0587487 0.0552229 0)
(0.0639869 0.0491173 0)
(0.0684307 0.0430019 0)
(0.0721789 0.0369177 0)
(0.0753177 0.0309039 0)
(0.0779216 0.0249999 0)
(0.0800545 0.0192465 0)
(0.0817713 0.0136859 0)
(0.0831192 0.00836143 0)
(0.0841401 0.00331778 0)
(0.0848711 -0.00140022 0)
(0.0853466 -0.00574861 0)
(0.0855983 -0.00968591 0)
(0.0856563 -0.0131753 0)
(0.0855483 -0.0161865 0)
(0.0853007 -0.0186974 0)
(0.0849351 -0.0206933 0)
(0.00537587 0.0667676 0)
(0.0152165 0.0714462 0)
(0.0253434 0.068252 0)
(0.0343349 0.0641242 0)
(0.0422648 0.0595568 0)
(0.0491502 0.0546788 0)
(0.0550875 0.0495711 0)
(0.0601815 0.0442977 0)
(0.0645292 0.038914 0)
(0.0682195 0.0334714 0)
(0.0713324 0.0280199 0)
(0.0739386 0.0226093 0)
(0.0760996 0.0172896 0)
(0.0778691 0.0121112 0)
(0.079294 0.00712372 0)
(0.0804161 0.0023768 0)
(0.0812736 -0.00208096 0)
(0.0819012 -0.00620257 0)
(0.0823309 -0.00994404 0)
(0.082592 -0.0132662 0)
(0.0827116 -0.0161362 0)
(0.0827136 -0.0185289 0)
(0.0826175 -0.0204256 0)
(0.00502399 0.0574961 0)
(0.0139017 0.0612721 0)
(0.0230887 0.0589847 0)
(0.0313434 0.0559018 0)
(0.0387109 0.0523427 0)
(0.0451765 0.0483997 0)
(0.0508059 0.0441422 0)
(0.0556789 0.0396315 0)
(0.0598739 0.0349256 0)
(0.0634661 0.0300814 0)
(0.0665254 0.0251564 0)
(0.0691151 0.0202085 0)
(0.0712906 0.0152957 0)
(0.0731011 0.0104748 0)
(0.0745906 0.00580094 0)
(0.0757994 0.00132762 0)
(0.076765 -0.00289321 0)
(0.0775224 -0.00681156 0)
(0.0781036 -0.0103806 0)
(0.0785377 -0.0135584 0)
(0.078851 -0.0163089 0)
(0.0790664 -0.0186034 0)
(0.079202 -0.0204188 0)
(0.00465398 0.0490164 0)
(0.0125503 0.052129 0)
(0.0207443 0.0506072 0)
(0.0281827 0.0483895 0)
(0.0348937 0.045678 0)
(0.0408457 0.0425369 0)
(0.0460815 0.0390221 0)
(0.0506598 0.0351879 0)
(0.0546414 0.0310902 0)
(0.0580871 0.0267879 0)
(0.0610553 0.0223432 0)
(0.063599 0.0178202 0)
(0.0657651 0.0132831 0)
(0.0675952 0.00879397 0)
(0.0691279 0.00441134 0)
(0.0704001 0.000190924 0)
(0.0714483 -0.0038131 0)
(0.0723068 -0.00754818 0)
(0.0730077 -0.0109647 0)
(0.0735802 -0.0140177 0)
(0.0740499 -0.0166678 0)
(0.0744395 -0.0188822 0)
(0.0747664 -0.0206335 0)
(0.00422752 0.0413768 0)
(0.0111358 0.0440382 0)
(0.0183229 0.0431602 0)
(0.0249085 0.0416497 0)
(0.0309073 0.039637 0)
(0.0362807 0.0371674 0)
(0.0410563 0.0342838 0)
(0.0452763 0.0310319 0)
(0.0489871 0.0274633 0)
(0.0522366 0.0236367 0)
(0.0550713 0.0196175 0)
(0.0575336 0.015475 0)
(0.0596595 0.0112788 0)
(0.0614807 0.00709441 0)
(0.0630274 0.0029815 0)
(0.0643322 -0.00100476 0)
(0.0654298 -0.00480974 0)
(0.0663545 -0.0083791 0)
(0.0671382 -0.0116606 0)
(0.0678101 -0.0146061 0)
(0.0683956 -0.0171727 0)
(0.0689171 -0.0193239 0)
(0.0693921 -0.0210279 0)
(0.00374271 0.0346357 0)
(0.00966884 0.037005 0)
(0.015855 0.0366563 0)
(0.0215762 0.0357135 0)
(0.0268339 0.0342659 0)
(0.0315875 0.0323458 0)
(0.0358544 0.0299849 0)
(0.0396648 0.0272198 0)
(0.0430535 0.0240969 0)
(0.0460583 0.0206744 0)
(0.0487155 0.0170202 0)
(0.051057 0.0132087 0)
(0.0531077 0.0093151 0)
(0.0548861 0.00540817 0)
(0.0564114 0.00154517 0)
(0.0577108 -0.00222364 0)
(0.058818 -0.0058456 0)
(0.0597678 -0.00926526 0)
(0.0605926 -0.0124277 0)
(0.061321 -0.0152815 0)
(0.0619783 -0.0177804 0)
(0.0625866 -0.0198842 0)
(0.0631637 -0.0215569 0)
(0.00321708 0.0288325 0)
(0.00818298 0.0310201 0)
(0.0133913 0.0310909 0)
(0.0182566 0.0305914 0)
(0.0227656 0.0295893 0)
(0.0268783 0.028108 0)
(0.030604 0.0261685 0)
(0.033964 0.0237985 0)
(0.036985 0.0210393 0)
(0.0396969 0.0179476 0)
(0.0421293 0.0145944 0)
(0.0443064 0.0110604 0)
(0.0462424 0.00742855 0)
(0.0479401 0.00377236 0)
(0.049403 0.000142598 0)
(0.0506516 -0.00342297 0)
(0.0517219 -0.00687678 0)
(0.0526505 -0.0101624 0)
(0.0534702 -0.0132214 0)
(0.0542093 -0.0159987 0)
(0.0548921 -0.0184447 0)
(0.0555399 -0.0205157 0)
(0.0561706 -0.0221728 0)
(0.00266891 0.0239757 0)
(0.00672126 0.0260527 0)
(0.0110014 0.026439 0)
(0.0150436 0.0262723 0)
(0.0188192 0.0256118 0)
(0.0222886 0.0244727 0)
(0.0254551 0.0228654 0)
(0.0283329 0.0208085 0)
(0.0309428 0.0183371 0)
(0.0333106 0.0155062 0)
(0.0354632 0.0123892 0)
(0.0374229 0.00907525 0)
(0.039198 0.00566005 0)
(0.0407723 0.00222908 0)
(0.0421249 -0.00117881 0)
(0.0432696 -0.00455265 0)
(0.0442493 -0.00785342 0)
(0.0451059 -0.0110218 0)
(0.0458723 -0.013994 0)
(0.0465748 -0.0167102 0)