/*--------------------------------*- C++ -*----------------------------------*\
  =========                 |
  \\      /  F ield         | OpenFOAM: The Open Source CFD Toolbox
   \\    /   O peration     | Website:  https://openfoam.org
    \\  /    A nd           | Version:  9
     \\/     M anipulation  |
\*---------------------------------------------------------------------------*/
FoamFile
{
    format      ascii;
    class       surfaceScalarField;
    location    "31.85";
    object      phi;
}
// * * * * * * * * * * * * * * * * * * * * * * * * * * * * * * * * * * * * * //

dimensions      [0 3 -1 0 0 0 0];

internalField   nonuniform List<scalar> 
1300
(
11.2529
1.87548
-4.16639
11.2529
-5.00995
1.87548
-4.24286
4.24286
-1.1875
1.1875
5.7123
5.54056
-2.37739
2.37739
-2.81893
2.81893
-2.86016
2.86016
-1.06194
1.06194
-1.02826
1.02826
0.693116
-0.693116
-3.41991
3.41991
-1.45619
1.45619
-2.90927
2.90927
6.1281
-6.1281
-3.24648
3.24648
-0.743763
0.743763
-4.26321
15.5161
6.98965
6.98965
-2.3711
2.3711
-1.25395
1.25395
1.41034
-1.41034
9.05104
-9.05104
-4.88465
-5.88382
1.91927
-14.0662
-3.09067
-3.09067
-2.7054
2.7054
-0.829928
1.04555
3.47681
-3.47681
-0.757139
0.757139
-4.32826
0.085401
-4.32826
4.0274
0.215458
4.0274
-1.32878
0.14128
-1.32878
4.67821
-4.67821
1.07574
0.11176
1.07574
3.9281
-3.9281
-5.71006
11.4224
5.5428
-5.32064
20.8367
-5.93222
11.4728
-3.8994
3.8994
-2.29452
-0.0828734
-2.29452
2.37898
-0.00158935
2.37898
-4.00237
4.00237
-2.60915
-0.209786
-2.60915
2.91901
-0.100077
2.91901
3.66642
-3.66642
-2.91622
0.0560595
-2.91622
2.70845
0.151704
2.70845
0.771042
1.10443
-2.64652
3.69207
-1.10443
0.0424987
1.02614
0.0357986
1.02614
-1.01453
-0.0137252
-1.01453
1.04984
-0.0215793
1.04984
0.730131
-0.0370149
0.730131
-0.754862
0.0617455
-0.754862
-8.60791
-8.9732
-3.54369
0.123788
-3.54369
-1.47421
0.0180207
-1.47421
1.49235
-0.0361555
1.49235
-2.52533
2.52533
-3.25116
0.341894
-3.25116
4.80635
1.32175
4.80635
5.04612
6.20674
16.299
-16.299
10.1709
-2.96683
-0.279646
-2.96683
-3.41192
-5.63912
3.41192
-0.165446
-0.805503
0.0617402
-0.805503
5.62659
1.36306
5.62659
2.58623
0.122226
-2.58623
0.215123
4.62616
-4.62616
1.42328
0.947822
1.42328
-1.19154
1.19154
1.12336
-0.0735237
-1.12336
-0.130582
1.38601
0.0243318
1.38601
-1.40975
-0.000595772
-1.40975
7.31093
-13.1947
-7.76772
3.2303
0.18961
-3.2303
0.139625
3.56357
-0.0867505
3.56357
-3.30969
3.30969
-3.61099
0.134179
-3.61099
-0.682217
-0.0749214
-0.682217
0.842023
-0.0848844
0.842023
-4.57613
0.247869
-4.57613
-3.69115
0.439987
3.69115
0.336255
1.25011
-1.25011
-1.43659
0.107807
-1.43659
-4.65918
0.0830534
4.65918
0.0190235
-4.77217
0.0939615
-4.77217
-3.71253
0.101533
3.71253
0.215575
4.58935
1.03724
-4.58935
0.661247
-5.36948
11.5762
-5.88338
11.4262
-3.51562
-0.383786
-3.51562
4.09037
-0.190964
4.09037
2.5707
0.338561
-2.5707
0.276185
2.5052
-0.126217
2.5052
-3.9451
-0.057271
-3.9451
3.80525
0.19712
3.80525
2.54472
-0.0395212
-2.54472
-0.0644276
2.89371
0.0253004
2.89371
3.6724
-0.00598134
3.6724
-3.53944
-0.126985
-3.53944
3.17896
-3.17896
3.08059
0.0983707
-3.08059
0.16437
-5.07402
5.07343
-0.00799945
-5.06602
1.01814
1.01814
0.768945
-0.038814
0.768945
-0.861792
0.10693
-0.861792
8.34452
-16.1122
8.77893
-17.3868
7.53343
-21.5997
8.11638
-17.0896
3.82788
-3.82788
3.76175
0.0661347
-3.76175
0.218053
-1.45605
-0.0181637
-1.45605
-2.28826
-0.237074
-2.28826
2.85733
-0.332
2.85733
-3.74209
3.74209
-4.12478
0.382686
4.12478
0.68157
2.95488
-0.0611742
-2.95488
-0.011945
0.924054
0.151686
-0.924054
0.11855
4.86349
-0.23733
4.86349
-4.08521
-0.540949
-4.08521
-1.47494
0.0188928
1.47494
-0.0516604
-1.25895
0.0674031
-1.25895
-5.0745
0.00847756
-5.0387
-1.40127
-1.40127
1.30414
4.9962
-3.58567
0.046234
3.58567
-0.0221056
3.52705
0.215042
-3.52705
0.217361
-3.26327
0.0843116
3.26327
0.046418
-0.659739
-0.0224781
-0.659739
-1.03475
1.03475
-0.917635
-0.117112
0.917635
-0.0756117
1.40557
-0.155452
1.40557
1.47054
0.0218113
-1.47054
0.0339513
-5.01128
0.239112
-5.01128
4.10094
-0.0105729
4.10094
-3.94907
-0.136138
3.94907
-0.276665
-0.0037229
5.07715
-1.01441
-0.000120143
1.01441
-5.10148
5.10136
-0.66513
0.00539096
0.66513
0.103815
1.02967
0.161873
-1.02967
0.16788
3.84878
-0.0435308
-3.84878
0.0209024
-2.00733
-0.280929
-2.00733
-3.18468
-0.330937
3.18468
-0.327346
-5.11518
-0.0779364
5.19312
-5.13676
1.33688
0.0491256
-1.33688
5.15049
-1.14364
-0.106479
1.14364
-0.108889
1.60383
-0.198266
1.60383
5.12084
-0.257355
-5.12084
0.109561
-4.11864
0.173538
4.11864
-0.0177007
-1.77511
-0.23222
1.77511
-0.171277
-13.1281
14.4911
7.70865
-6.28014
-6.91461
-11.9193
4.4471
7.12912
14.618
-11.8156
-9.78406
-11.676
2.86006
-2.69218
-3.72729
3.69027
23.5916
-23.4977
-18.3992
19.0808
20.777
-20.5615
5.70885
5.71351
15.8512
-15.934
-20.8984
20.5146
15.3879
-15.5977
22.0512
-22.1085
-25.8148
25.7713
-16.0928
16.1489
-20.2944
20.1674
-21.0577
20.7811
-8.35247
-9.03438
16.5165
-16.3927
19.9996
-20.2793
-19.3837
19.7256
10.0475
4.44359
11.0848
-6.24673
11.9556
-5.22605
12.9347
8.29371
-16.6462
7.81853
-14.7331
9.04532
10.9543
-8.87988
-3.03938
-17.9699
17.8832
-17.257
17.3034
24.1239
-24.0385
-6.17283
11.8863
-5.25335
12.3825
-11.409
-6.99019
10.0872
4.53073
8.99206
7.52448
-9.18167
-2.49431
-24.7988
24.5414
-25.6599
25.1189
0.10018
2.42593
-2.52611
1.35413
-0.862693
3.28863
1.99736
2.10429
2.45271
-2.29084
0.239463
-2.76558
-2.89616
-5.34043
5.44824
5.1571
-5.04534
16.5467
7.04499
16.5657
-16.7495
-6.74814
-16.5104
11.3637
7.71706
11.7464
12.0617
8.71534
12.1632
10.359
-10.3317
-0.0273073
-11.4777
21.8367
1.55464
-18.4678
-13.9371
8.84664
7.00453
8.84505
-9.8919
-6.04215
-9.61571
-11.0145
-9.8839
-11.3454
12.3185
8.19614
12.1275
-15.3157
15.298
9.27445
6.11346
9.17437
-8.96337
-6.63432
-9.0278
27.4823
-6.67802
-20.8043
-13.1812
-12.6337
12.984
9.0672
14.3391
11.4322
14.36
8.91473
18.5675
-17.9819
5.34826
-9.94704
-6.1458
-9.78267
9.25805
6.89085
9.40975
-11.7668
-8.52762
-11.7206
-11.987
-9.07076
11.9929
8.17449
-12.5344
-13.1255
12.6705
8.11051
7.8411
-17.6252
9.24849
-18.2829
-10.9646
-5.42817
-10.7465
10.7851
6.68405
-17.4691
-5.86111
23.6336
-12.6793
20.5943
-10.8998
-9.3795
-10.9117
-14.8041
-4.57959
-14.3641
-7.98934
7.70842
-8.82114
8.48914
26.8766
-16.222
-10.6546
-12.3784
-8.18309
11.7171
-0.632344
-12.8358
12.8085
-0.880182
12.0545
16.4981
15.8658
-10.8802
-6.37674
-10.6629
10.2702
7.03322
10.3545
16.1055
8.01836
16.321
-16.8177
-7.22084
-16.5698
4.84101
-4.91593
5.71361
-5.69472
15.5794
9.5395
-15.3421
-9.45665
22.9305
-10.775
-12.1555
-5.11965
5.21412
-0.0944656
-1.83102
-0.476898
0.266865
-1.93096
-1.79633
1.86921
0.235083
5.4492
3.65287
-2.41437
2.48177
2.77875
2.70523
-0.190933
2.49874
-2.49335
18.9019
-11.4321
-7.46983
13.9702
-13.8872
-2.59956
-19.3273
16.7277
2.67851
3.00333
-2.94159
-3.9484
-1.39203
-3.91445
2.95196
2.20514
3.10364
2.10716
3.34108
-8.10336
1.56298
6.54038
-5.9962
-3.48236
-13.3462
-6.26635
19.6126
16.6788
7.86257
-16.7884
0.277972
5.29304
-5.3292
-1.5983
-11.7479
8.348
-9.9463
-15.217
-6.46091
21.6779
-9.58078
-1.08208
9.36573
2.38065
-10.8773
-7.09265
10.7431
1.42012
-12.0645
23.9707
-11.9062
-18.4413
8.51577
13.3209
16.2328
-17.8628
9.31888
8.54388
-4.54188
7.43051
1.41454
7.3043
-19.9295
13.8874
11.3242
8.40137
-11.6628
2.04707
-17.8825
25.1716
-22.2876
-2.88399
12.8222
12.3494
13.5488
13.3279
-7.78508
21.3338
-3.61806
-18.6696
21.5005
-13.0992
15.7826
-28.8818
-29.1105
10.4409
-17.9553
22.0741
-4.11871
-5.20527
-10.1104
23.1606
-2.00656
-21.154
10.121
-13.9273
-11.8547
25.7821
-20.6053
18.4891
-6.26794
-12.2211
-12.6649
-9.44361
12.4914
2.8066
-25.8739
31.2221
-7.30631
7.80531
1.36906
7.83061
10.6087
-15.976
5.36722
9.9966
-16.2645
6.76265
-22.7386
-12.1589
24.1938
-12.0349
-17.5871
-15.7961
-1.79094
4.87511
26.347
-16.3073
12.1165
4.1908
8.46173
1.89274
-8.5601
-1.22257
0.968055
16.0864
-17.0545
10.3778
10.5
11.7044
4.38204
10.7702
7.11295
-10.7481
-0.972415
-14.7928
5.72201
-6.61828
-14.5742
20.2962
-16.2679
1.69369
-10.3032
-13.9906
24.2938
-16.449
11.4255
12.5453
18.4587
-19.615
5.62438
-9.74633
-9.86865
10.6435
-17.2618
7.49832
12.7979
15.6088
2.48334
12.7474
11.4465
-19.4314
1.14854
18.9709
-16.4766
3.88871
10.4713
-16.0052
0.209121
-10.5374
2.66446
-15.3438
-14.8046
16.5297
-21.1093
-12.352
13.5676
2.75337
-13.9039
-0.460234
-4.95413
-3.03521
-5.18635
-3.27668
-5.54446
-11.0618
-1.92688
-9.13488
5.78153
-6.68671
-4.65874
7.01406
1.47508
-4.93542
4.82894
-5.58017
5.3819
-0.210165
13.0186
15.6556
7.4725
-8.47674
15.9492
-15.6084
23.6267
-29.725
14.1167
15.9488
-23.1697
-13.7762
2.70111
2.1399
2.61623
13.4475
-14.4143
0.966774
-13.2788
17.598
-4.31922
-19.5803
6.30151
-6.1328
5.18668
0.52693
5.16852
1.41638
6.84597
-8.26235
-4.27834
-4.33
-9.16325
-13.8594
23.0226
4.73543
-13.1051
8.36967
-12.0625
16.7979
0.0785256
-13.1836
16.9847
-10.1387
17.5116
-11.9839
5.52769
12.7918
22.3469
-9.55509
16.2482
-6.70865
7.06789
-16.623
-6.7915
-11.2883
18.1791
-13.0055
14.6992
-1.12465
15.8239
-13.7772
3.00222
-2.07285
8.42719
8.64231
16.8088
-12.4267
11.9697
-18.6783
-4.65328
-16.195
-3.39714
1.01871
-13.8256
12.8069
12.0438
-11.0251
-3.24221
8.98418
-5.74197
5.68188
-2.84831
-2.83357
-1.84641
-3.06952
1.86889
0.629848
6.31173
0.489177
-3.33749
-2.00417
-1.90035
10.3744
8.52749
-3.83184
3.73738
3.56498
-0.56165
0.958728
2.14492
4.58717
-3.62844
0.67812
3.90905
-2.26347
3.82772
1.46532
-3.84954
-0.0649161
-3.40814
11.7561
3.13224
-5.33738
1.70894
2.3821
-13.8142
19.7414
-11.4154
-8.32601
22.1236
3.06349
-14.4789
16.2638
-13.5853
8.10345
-14.3698
-6.37548
-19.9608
-12.9158
-10.7095
19.0792
-12.3131
20.1757
3.86213
-20.4537
24.3158
-12.7398
6.27891
-9.44312
10.9084
-4.05808
-5.38503
11.2656
10.4123
-11.0535
-0.694416
0.212099
8.41928
-8.20718
-1.52702
-7.52322
-16.4089
17.829
-8.25569
17.5746
7.69356
-7.63403
25.2086
6.56495
-14.199
-11.8763
-12.9584
-5.6551
10.5777
-1.79549
-7.23231
-14.0166
7.27183
0.0324628
-19.0783
22.0715
-2.9932
-12.0738
-1.81363
14.6359
-18.1002
1.83561
-11.3375
10.734
12.1485
12.181
-20.8428
-0.311297
-12.6466
3.17657
-15.8232
15.526
-6.80299
17.2439
-16.0059
11.3472
-14.5308
14.3599
-1.46329
14.7493
-9.38208
6.05496
-15.4986
-12.692
14.4722
-8.35878
15.8413
-10.117
25.9583
-17.4233
14.4052
11.5531
-2.71256
-8.19916
-13.9754
11.2629
0.429729
8.26034
17.8373
-10.7244
16.8649
8.92448
-18.6708
-8.33729
-25.8596
7.18882
-13.3144
-7.35658
14.5454
11.1021
12.9949
4.67675
-11.7723
17.7862
-19.5771
-5.75129
-9.05336
14.5787
-3.3158
10.1446
-19.198
-5.19918
13.1092
-0.192436
-12.9168
3.11278
-15.4648
5.13067
-20.5955
15.9786
-16.4389
1.76943
-7.90224
-3.16599
-3.27487
-2.17178
-3.40838
-7.56662
5.39484
-1.26511
3.56383
-12.521
12.3285
-5.07706
10.4719
-4.05766
-1.12869
4.22894
1.15296
11.6249
3.02519
-16.8014
-9.25464
14.6241
-5.3695
1.11979
-10.8004
3.82376
8.0996
14.024
-24.8273
1.65765
-15.1437
-4.06967
6.20957
4.91451
16.9583
2.54404
6.552
-0.342428
9.09604
2.2738
2.19819
-11.2172
12.184
1.58962
15.7063
-1.88295
7.41064
3.28557
3.30359
2.02561
5.72248
2.91983
8.7247
0.462345
-3.86765
2.06783
-3.96819
-1.26966
-4.007
-0.316728
3.72517
-4.04189
10.496
-1.96852
5.12651
-1.88168
-4.93337
6.81505
-9.35151
-5.49502
-1.58597
-5.60626
7.3152
6.14988
-5.72923
-3.62227
2.39093
-15.3067
11.9789
-12.6733
-2.26097
22.0548
-9.46143
1.25425
-3.18252
-6.26897
-7.661
7.72592
24.1899
1.01868
12.2837
18.8477
11.755
1.03067
11.9871
-16.1058
-10.7515
-16.4171
-0.891138
13.7447
5.61424
20.7328
17.1673
13.8515
-5.34642
-24.9236
20.7188
-8.53476
16.3995
-3.48274
-17.1128
14.6486
8.9781
-17.402
0.963129
-16.1496
-24.6844
-0.344312
12.6728
-11.2805
10.1519
7.11665
2.01823
-2.42554
-0.849335
2.54265
-0.344465
8.75157
-0.188802
-8.19488
8.38368
-3.53636
2.26671
-0.429273
4.16665
6.38577
4.41726
-3.77762
-7.81952
-8.81652
-4.99768
-17.1425
2.47007
-8.61995
5.68093
-3.41422
2.84736
4.96946
10.096
-1.60166
-9.42345
7.34363
-4.49627
5.5997
)
;

boundaryField
{
    wall-4
    {
        type            calculated;
        value           uniform 0;
    }
    velocity-inlet-5
    {
        type            calculated;
        value           uniform -11.2529;
    }
    velocity-inlet-6
    {
        type            calculated;
        value           uniform -1.87548;
    }
    pressure-outlet-7
    {
        type            calculated;
        value           nonuniform List<scalar> 8(4.16639 5.00995 10.7685 12.147 17.5811 15.0787 17.1235 15.6498);
    }
    wall-8
    {
        type            calculated;
        value           uniform 0;
    }
    frontAndBackPlanes
    {
        type            empty;
        value           nonuniform List<scalar> 0();
    }
}


// ************************************************************************* //
