/*--------------------------------*- C++ -*----------------------------------*\
  =========                 |
  \\      /  F ield         | OpenFOAM: The Open Source CFD Toolbox
   \\    /   O peration     | Website:  https://openfoam.org
    \\  /    A nd           | Version:  9
     \\/     M anipulation  |
\*---------------------------------------------------------------------------*/
FoamFile
{
    format      ascii;
    class       volScalarField;
    location    "0.33";
    object      alpha.water;
}
// * * * * * * * * * * * * * * * * * * * * * * * * * * * * * * * * * * * * * //

dimensions      [0 0 0 0 0 0 0];

internalField   nonuniform List<scalar> 
2268
(
1
1
1
1
1
1
1
1
1
1
1
1
1
1
1
1
1
1
1
1
0.997769
0.928238
0.928158
1
1
1
1
1
1
1
1
1
1
1
1
1
1
1
1
1
1
1
1
1
0.963453
0.956037
1
1
1
1
1
1
1
1
1
1
1
1
1
1
1
1
1
1
1
1
1
0.999977
0.997506
1
1
1
1
1
1
1
1
1
1
1
1
1
1
1
1
1
1
1
1
1
0.99993
0.992933
1
1
1
1
1
1
1
1
1
1
1
1
1
1
1
1
1
1
1
1
1
1
0.992928
1
1
1
1
1
1
1
1
1
1
1
1
1
1
1
1
1
1
1
1
1
1
0.993061
1
1
1
1
1
1
1
1
1
1
1
1
1
1
1
1
1
1
1
1
1
1
0.993378
1
1
1
1
1
1
1
1
1
1
1
1
1
1
1
1
1
1
1
1
1
1
0.993559
4.42879e-24
4.89422e-24
9.25012e-23
7.54835e-21
1.23058e-19
3.31093e-19
1.4425e-18
2.30259e-19
1.56664e-20
3.81749e-22
5.07705e-24
7.26328e-26
1.44022e-27
3.22327e-29
1.9591e-30
3.52617e-32
3.67793e-34
1.889e-36
9.62844e-37
1.0848e-22
1.03304e-22
2.56799e-20
2.2014e-18
1.99056e-17
2.05098e-17
1.7746e-17
7.18393e-18
1.52893e-18
9.86538e-20
3.46492e-22
5.07666e-24
7.26234e-26
1.44004e-27
1.87734e-28
3.30546e-30
2.50592e-32
7.89955e-35
9.62844e-37
1.6371e-21
8.06054e-21
3.61392e-18
1.6896e-16
1.53099e-15
2.0991e-15
1.92775e-15
7.70914e-16
1.3781e-16
9.71348e-18
4.48785e-20
6.93036e-22
9.49648e-24
1.78848e-25
1.10812e-26
1.52415e-28
1.07039e-30
5.42632e-33
6.53565e-35
4.4226e-21
3.35877e-18
4.68761e-16
1.02307e-14
6.74351e-14
7.4361e-14
6.52268e-14
3.27386e-14
7.88399e-15
5.80275e-16
2.78961e-18
3.70078e-20
6.6564e-22
1.27661e-23
4.87927e-25
5.96368e-27
6.18997e-29
3.40208e-31
5.28441e-33
-5.86161e-19
5.23871e-16
4.03795e-14
4.1201e-13
1.63805e-12
7.06822e-13
5.25646e-13
3.51325e-13
1.93697e-13
2.33971e-14
1.18204e-16
1.62067e-18
2.93282e-20
6.68797e-22
1.79042e-23
2.86585e-25
3.20215e-27
1.85316e-29
3.28688e-31
1.99586e-17
4.59547e-15
2.46619e-12
1.47908e-11
3.46561e-11
2.11503e-11
1.29121e-11
6.82473e-12
1.51976e-12
3.69445e-13
4.25045e-15
6.39047e-17
1.18904e-18
2.90411e-20
8.11351e-22
1.36273e-23
1.60227e-25
9.79772e-28
1.78584e-29
8.18785e-16
-8.74544e-15
1.8916e-11
3.06361e-10
6.54877e-10
5.71421e-10
2.96336e-10
1.44451e-10
3.07597e-11
2.89542e-12
1.33216e-13
2.32468e-15
4.59562e-17
1.1878e-18
3.60973e-20
6.43814e-22
8.02149e-24
5.2008e-26
9.41151e-28
4.28939e-15
3.05601e-15
-4.48718e-13
5.12862e-10
9.02833e-09
1.30175e-08
5.75657e-09
2.68893e-09
5.89337e-10
5.60152e-11
3.68408e-12
7.87022e-14
1.67926e-15
4.59592e-17
1.55854e-18
2.98849e-20
3.978e-22
2.75228e-24
4.97858e-26
1
1
1
0.999999
0.999999
1
1
1
1
1
1
1
1
1
1
1
1
1
1
1
1
1
0.994039
1
0.999997
0.999992
0.999991
0.999992
0.999994
0.999995
0.999996
0.999996
0.999997
0.999997
0.999997
0.999998
0.999998
0.999996
0.999992
0.999991
1
1
1
1
1
0.999561
0.999993
0.999902
0.999767
0.999764
0.999794
0.999831
0.999857
0.999874
0.999884
0.999891
0.999896
0.999905
0.999919
0.999934
0.999927
0.999724
0.999602
0.999738
0.999923
1
1
1
1
0.999368
0.960353
0.893094
0.894461
0.908501
0.926112
0.937162
0.942024
0.942565
0.939459
0.932908
0.926956
0.922419
0.914834
0.900884
0.910813
0.939553
0.976519
0.999946
0.999995
1
1
0.999999
0.58538
0.326199
0.177805
0.181865
0.203261
0.232821
0.253864
0.263485
0.26412
0.25604
0.240958
0.228948
0.220631
0.205707
0.176074
0.18753
0.23499
0.349169
0.54066
0.764298
0.979696
0.999999
0.999997
-1.06922e-11
-3.96831e-12
-1.50724e-12
-9.75878e-13
-6.16961e-13
-3.75188e-06
-1.72393e-06
-4.21988e-07
-7.76181e-08
-1.21954e-08
-1.7412e-09
-2.31657e-10
-2.66243e-11
-1.24615e-12
-2.58494e-29
1.92737e-13
4.16046e-13
4.843e-13
0.00271971
0.0299785
0.108772
0.244436
0.419465
-6.58406e-11
-5.57692e-11
-2.75616e-11
-1.64177e-11
-9.92241e-12
-5.82683e-12
-3.2142e-12
-1.36474e-12
-1.23657e-13
5.28679e-14
1.32323e-12
6.5937e-12
1.64513e-11
1.81395e-11
1.41273e-11
8.22748e-12
8.68422e-13
7.302e-13
1.37276e-11
1.83236e-09
6.32617e-09
5.01016e-07
0.000582467
-6.29146e-11
-6.54162e-11
-3.19561e-11
-2.04609e-11
-1.26278e-11
-7.51503e-12
-4.14157e-12
-1.43922e-12
2.07051e-13
6.09873e-12
2.03657e-11
7.95735e-11
1.93332e-10
1.97679e-10
1.37579e-10
3.46084e-11
1.1944e-12
3.40661e-12
3.8853e-07
1.64004e-06
1.04378e-06
8.68131e-07
8.56151e-07
-4.25738e-11
-4.66493e-11
-2.34354e-11
-1.47492e-11
-9.09617e-12
-5.40932e-12
-2.80667e-12
-3.59711e-15
7.59253e-12
2.47606e-11
5.48584e-11
1.8319e-10
4.5457e-10
5.11124e-10
3.87641e-10
1.03556e-10
3.69072e-12
1.1315e-11
3.09582e-06
3.8164e-06
3.82171e-06
3.8164e-06
3.44302e-06
-2.19696e-11
-2.47267e-11
-1.32179e-11
-7.73135e-12
-4.54489e-12
-2.59574e-12
-1.03198e-12
1.73272e-12
1.67844e-11
4.1066e-11
7.38262e-11
2.26463e-10
5.79841e-10
6.70179e-10
5.87695e-10
2.15057e-10
1.61753e-11
9.29955e-09
2.48923e-06
3.76358e-06
3.8164e-06
3.80565e-06
1.5396e-06
-8.62547e-12
-1.00981e-11
-5.5417e-12
-3.01486e-12
-1.64227e-12
-8.52701e-13
0
4.53614e-12
2.13526e-11
4.6179e-11
7.53692e-11
2.25676e-10
5.97542e-10
6.70179e-10
6.55105e-10
3.16404e-10
2.64948e-11
2.49255e-08
1.00177e-07
1.94505e-07
7.92048e-08
2.60239e-12
-3.5821e-12
-2.61451e-12
-3.38609e-12
-1.80868e-12
-8.97526e-13
-4.38939e-13
-1.79705e-13
5.55542e-13
5.06192e-12
2.0625e-11
3.74421e-11
4.18421e-11
1.12331e-10
3.3494e-10
5.44556e-10
4.90676e-10
3.19265e-10
6.37584e-11
2.24688e-12
2.42801e-12
2.95591e-12
3.26395e-12
3.48197e-12
4.09462e-12
-6.74603e-13
-1.0297e-12
-5.04864e-13
-2.18378e-13
-9.05898e-14
-1.18209e-14
5.8695e-13
3.26321e-12
9.35028e-12
1.35352e-11
1.19635e-11
3.14962e-11
1.02655e-10
1.28307e-10
1.00847e-10
4.22202e-11
8.47798e-12
1.74881e-12
2.27927e-12
3.29749e-12
6.16663e-12
1.29738e-11
2.27273e-11
-1.80972e-13
-3.08138e-13
-1.31158e-13
-4.70306e-14
-1.51794e-14
8.25574e-15
2.1267e-13
1.00946e-12
2.37692e-12
3.49528e-12
3.04922e-12
5.55125e-12
1.11455e-11
1.01699e-11
6.0627e-12
1.95385e-12
1.31187e-12
1.65527e-12
2.28561e-12
3.73082e-12
6.89317e-12
1.0451e-11
1.65003e-11
-5.09415e-14
-8.53094e-14
-3.07101e-14
-8.83499e-15
-1.94073e-15
4.91756e-15
5.65369e-14
2.61373e-13
5.76272e-13
8.77376e-13
7.91383e-13
6.01945e-13
4.09305e-13
1.61831e-13
1.28765e-13
1.67967e-13
1.89926e-13
2.01322e-13
2.88883e-13
8.12546e-13
2.62184e-12
6.44627e-12
1.47982e-11
-1.21768e-14
-1.91305e-14
-5.91328e-15
-1.35437e-15
-1.50955e-16
6.55389e-16
1.38943e-14
6.1214e-14
1.28647e-13
1.81669e-13
1.64868e-13
7.35238e-14
1.5882e-14
3.23032e-15
9.17111e-15
1.36253e-14
1.22773e-14
1.64021e-14
7.64077e-14
5.0632e-13
2.26984e-12
6.72104e-12
2.77949e-11
-2.37917e-15
-3.338e-15
-9.3534e-16
-1.80139e-16
-7.00427e-18
1.7102e-16
2.9144e-15
1.15038e-14
2.14752e-14
2.76105e-14
2.15109e-14
9.70312e-15
3.51191e-15
4.72086e-16
4.25601e-16
4.52557e-16
6.09449e-16
2.64011e-15
3.46506e-14
3.19359e-13
2.06004e-12
1.02538e-11
4.90206e-11
-3.40857e-16
-4.23427e-16
-1.09859e-16
-1.86373e-17
-2.20107e-19
3.04732e-17
4.52973e-16
1.56538e-15
2.58747e-15
3.01286e-15
1.72611e-15
3.36913e-16
2.78609e-17
1.2021e-17
1.49367e-17
2.51485e-17
5.60241e-17
6.42816e-16
1.25311e-14
1.701e-13
2.02645e-12
1.40125e-11
6.25901e-11
-2.66363e-17
-2.98224e-17
-7.17292e-18
-1.0585e-18
-1.33738e-21
3.59706e-18
4.73266e-17
1.48863e-16
2.29046e-16
2.49423e-16
1.27585e-16
2.52715e-17
2.69873e-18
6.83705e-19
8.00759e-19
1.36116e-18
6.30715e-18
1.43365e-16
3.36498e-15
8.43448e-14
2.00659e-12
1.54752e-11
6.45432e-11
0
-5.73972e-45
2.29878e-26
2.0499e-23
6.76344e-22
2.33516e-19
2.98938e-18
9.36054e-18
1.45985e-17
1.61042e-17
8.26138e-18
1.51041e-18
1.40874e-19
2.13979e-20
1.87931e-20
1.00827e-19
1.5193e-18
2.98415e-17
7.70451e-16
3.86518e-14
1.28745e-12
1.33227e-11
4.97974e-11
3.84849e-31
1.98699e-31
3.35544e-26
2.89451e-23
3.51072e-22
7.75445e-21
9.66347e-20
3.02524e-19
4.68757e-19
5.12141e-19
2.59454e-19
4.13271e-20
4.04095e-21
4.69253e-22
1.45187e-21
3.32053e-20
6.69935e-19
1.0723e-17
2.27096e-16
1.56906e-14
6.58653e-13
8.52759e-12
4.16527e-11
5.81013e-36
4.24576e-34
1.65197e-26
9.92995e-24
6.50589e-23
1.07955e-22
2.83475e-22
3.73755e-22
1.98293e-22
2.68207e-23
1.89267e-24
6.70461e-25
2.39793e-24
1.98092e-23
6.5574e-22
1.72286e-20
3.71941e-19
6.38146e-18
1.03554e-16
6.11788e-15
3.74505e-13
6.4005e-12
3.75968e-11
9.36044e-40
-8.69615e-35
1.36231e-34
2.16903e-28
8.24475e-25
1.01912e-23
3.12935e-23
4.4032e-23
2.63847e-23
3.84939e-24
1.89475e-25
2.94807e-26
1.26951e-25
5.96541e-24
2.18637e-22
6.5032e-21
1.64515e-19
3.18835e-18
5.05716e-17
2.38746e-15
2.05875e-13
4.62525e-12
3.29634e-11
4.2733e-47
4.47931e-46
7.40086e-43
3.0326e-32
1.34029e-28
1.85669e-27
3.98548e-27
3.47318e-27
2.68326e-28
2.59843e-28
2.79643e-28
6.03405e-28
3.00129e-26
1.5481e-24
5.25321e-23
1.74706e-21
5.10804e-20
1.1126e-18
1.94547e-17
8.29984e-16
9.77508e-14
2.95177e-12
2.68228e-11
1.69578e-49
1.93668e-49
8.18326e-45
8.426e-42
3.46995e-39
2.01563e-34
1.2743e-31
1.1101e-30
3.11423e-30
4.81794e-30
5.52236e-30
1.03175e-28
7.10733e-27
3.06392e-25
1.29388e-23
4.7136e-22
1.50206e-20
3.70168e-19
6.99925e-18
2.51407e-16
3.9913e-14
1.7345e-12
2.02832e-11
9.55537e-50
-3.67243e-50
1.18719e-49
1.00519e-45
1.65174e-43
3.83641e-38
2.21837e-34
5.95012e-33
1.88629e-32
2.06592e-32
1.56175e-31
2.2246e-29
1.19358e-27
6.49791e-26
2.95345e-24
1.2064e-22
4.37214e-21
1.24564e-19
2.61637e-18
6.56898e-17
1.33735e-14
9.08278e-13
1.38414e-11
4.42924e-50
1.18629e-50
2.04001e-50
1.11302e-46
3.43007e-44
5.57522e-42
6.14138e-40
5.24853e-38
2.46515e-36
1.3247e-34
5.43816e-32
2.91555e-30
1.8893e-28
1.09083e-26
5.59077e-25
2.5379e-23
1.0349e-21
3.52355e-20
8.50016e-19
1.49602e-17
2.95442e-15
3.95593e-13
8.22302e-12
6.64131e-52
4.90483e-52
2.38051e-51
1.47072e-47
3.79023e-45
6.94545e-43
9.1889e-41
1.12221e-38
2.03111e-36
1.44539e-34
5.7155e-33
4.28936e-31
2.83275e-29
1.70538e-27
9.25873e-26
4.51105e-24
1.92104e-22
6.85741e-21
1.95413e-19
3.69066e-18
3.81964e-16
1.35657e-13
4.10104e-12
1.55188e-53
1.17293e-53
3.11431e-52
1.38057e-48
3.40974e-46
5.68459e-44
7.47179e-42
8.15796e-40
7.88173e-38
7.21877e-36
6.26191e-34
4.80174e-32
3.39112e-30
2.15739e-28
1.19839e-26
6.0648e-25
2.63274e-23
1.00619e-21
3.92572e-20
1.83995e-18
9.60607e-17
3.35785e-14
1.61456e-12
2.65745e-55
2.41901e-55
1.343e-52
7.14179e-50
1.89265e-47
3.54353e-45
5.1136e-43
6.219e-41
6.84557e-39
6.51053e-37
5.63584e-35
4.66985e-33
3.52442e-31
2.61628e-29
1.80365e-27
1.22901e-25
7.58472e-24
4.20272e-22
2.06678e-20
8.50503e-19
3.27653e-17
6.46665e-15
4.40662e-13
3.45823e-57
5.10766e-57
4.46939e-54
2.82224e-51
8.56378e-49
1.76464e-46
3.167e-44
4.7068e-42
6.78482e-40
8.79041e-38
1.02795e-35
1.08756e-33
1.04423e-31
9.02845e-30
7.00024e-28
4.79039e-26
2.88423e-24
1.5171e-22
6.93193e-21
2.70531e-19
8.91723e-18
1.10881e-15
9.05241e-14
3.80375e-59
8.04594e-59
1.51019e-55
9.54431e-53
3.93251e-50
1.17975e-47
2.80605e-45
5.57024e-43
9.51484e-41
1.42184e-38
1.87462e-36
2.18488e-34
2.24694e-32
2.03089e-30
1.60538e-28
1.10421e-26
6.5772e-25
3.37934e-23
1.49338e-21
5.66664e-20
1.74446e-18
1.75538e-16
1.40363e-14
3.08046e-61
1.64061e-60
4.72713e-57
3.90721e-54
1.92242e-51
6.8407e-49
1.91902e-46
4.44814e-44
8.74053e-42
1.4752e-39
2.15078e-37
2.71288e-35
2.95822e-33
2.78347e-31
2.25471e-29
1.56861e-27
9.35285e-26
4.77202e-24
2.0818e-22
7.7657e-21
2.34034e-19
2.22734e-17
1.64025e-15
1.51166e-63
2.58953e-62
1.13768e-58
1.11575e-55
6.42924e-53
2.66734e-50
8.67112e-48
2.30427e-45
5.11469e-43
9.58568e-41
1.52474e-38
2.06322e-36
2.37718e-34
2.33245e-32
1.94859e-30
1.38569e-28
8.38653e-27
4.32067e-25
1.89615e-23
7.09779e-22
2.14404e-20
1.98934e-18
1.48555e-16
5.22813e-66
1.75955e-64
1.84178e-60
2.11982e-57
1.40931e-54
6.74732e-52
2.52402e-49
7.65436e-47
1.91545e-44
3.99147e-42
6.96135e-40
1.01945e-37
1.25648e-35
1.30568e-33
1.14565e-31
8.49887e-30
5.33737e-28
2.84176e-26
1.28503e-24
4.9459e-23
1.53605e-21
1.38889e-19
1.161e-17
6.22651e-68
5.75564e-67
1.76492e-62
2.19799e-59
1.60985e-56
8.71615e-54
3.73665e-51
1.3016e-48
3.72159e-46
8.78343e-44
1.71676e-41
2.78871e-39
3.77578e-37
4.2738e-35
4.054e-33
3.23112e-31
2.16769e-29
1.22606e-27
5.85396e-26
2.35254e-24
7.4528e-23
7.62284e-21
6.70125e-19
1.90482e-70
5.4449e-69
9.21693e-65
9.65368e-62
6.88078e-59
3.9931e-56
1.9236e-53
7.72785e-51
2.53898e-48
6.88252e-46
1.53277e-43
2.7638e-41
4.11804e-39
5.0868e-37
5.22651e-35
4.48162e-33
3.21806e-31
1.94213e-29
9.89189e-28
4.27222e-26
1.49531e-24
2.50119e-22
2.41524e-20
2.64091e-73
1.23876e-70
9.45284e-68
6.08742e-65
4.03951e-62
2.56125e-59
1.45497e-56
7.08569e-54
2.88267e-51
9.67303e-49
2.66502e-46
6.02788e-44
1.12158e-41
1.72167e-39
2.18721e-37
2.30689e-35
2.02658e-33
1.48795e-31
9.16606e-30
4.75887e-28
1.9994e-26
6.06654e-24
5.81328e-22
4.97459e-77
1.4962e-74
6.93183e-72
4.16385e-69
3.00822e-66
2.33307e-63
1.74061e-60
1.15501e-57
6.50651e-55
3.03864e-52
1.16474e-49
3.6544e-47
9.3924e-45
1.98185e-42
3.44239e-40
4.93545e-38
5.85645e-36
5.76741e-34
4.72818e-32
3.23866e-30
1.78945e-28
1.50372e-25
9.81075e-24
8.52208e-83
1.55675e-80
5.97979e-78
3.68127e-75
3.24699e-72
3.53102e-69
4.05059e-66
4.34158e-63
4.0406e-60
3.14486e-57
2.01317e-54
1.05373e-51
4.50588e-49
1.57604e-46
4.51757e-44
1.06316e-41
2.05757e-39
3.27926e-37
4.30966e-35
4.55141e-33
6.19e-31
4.47547e-27
1.0742e-25
2.6678e-95
9.65283e-93
1.60103e-90
-7.14523e-84
-1.38795e-81
-5.46285e-79
-3.2933e-76
-2.62351e-73
-2.10621e-70
-8.05037e-68
2.19567e-64
8.00848e-61
1.38646e-57
1.67677e-54
1.55174e-51
1.13647e-48
6.68863e-46
3.18644e-43
1.23231e-40
3.80429e-38
1.25259e-34
1.38276e-29
5.46346e-28
4.80657e-111
2.63675e-109
7.37398e-99
-2.47565e-96
-3.66842e-94
-1.75178e-91
-1.87595e-88
-3.60749e-85
-1.01374e-81
-3.33187e-78
-1.07842e-74
-3.09013e-71
-7.42447e-68
-1.46212e-64
-2.34011e-61
-3.03821e-58
-3.20158e-55
-2.74103e-52
-1.90751e-49
-1.07837e-46
-4.94286e-44
5.60642e-34
6.44384e-32
0.994189
0.996729
0.999816
0.999843
0.998253
0.996818
0.999512
0.99987
0.999997
0.99978
0.999725
0.999903
0.999997
0.999995
0.999988
0.999985
0.999995
0.999988
0.999989
0.999989
0.526347
0.615209
0.822804
0.997821
0.00473952
0.0127773
0.0370472
0.0854928
8.01672e-07
1.41727e-07
9.33112e-07
2.12981e-06
1.1465e-06
8.44676e-08
-5.6121e-08
1.21196e-08
9.33381e-09
1.31143e-10
5.67343e-09
4.95727e-09
3.71937e-12
7.69852e-12
1.1244e-11
1.80001e-11
6.25961e-12
7.73052e-12
1.206e-11
2.05886e-11
3.14902e-11
3.72497e-11
4.61082e-11
5.26433e-11
2.26205e-11
2.67597e-11
3.54726e-11
3.63361e-11
2.62853e-11
3.4407e-11
4.95713e-11
7.40571e-11
5.98141e-11
7.8284e-11
1.00215e-10
1.70104e-10
9.95952e-11
1.18355e-10
1.36328e-10
2.64654e-10
1.15918e-10
1.29764e-10
1.37724e-10
4.79132e-10
1.11975e-10
1.26721e-10
1.24946e-10
6.9466e-10
8.8813e-11
1.20785e-10
1.21361e-10
5.78941e-10
8.24128e-11
1.40666e-10
1.63203e-10
5.94396e-10
8.40053e-11
1.78909e-10
3.31872e-10
1.63097e-09
8.9372e-11
2.34841e-10
5.6557e-10
9.36565e-10
9.22846e-11
2.65135e-10
6.14201e-10
8.45768e-10
8.18263e-11
2.63343e-10
4.68227e-10
5.58551e-10
6.52056e-11
2.11273e-10
3.51463e-10
3.47022e-10
4.39008e-11
1.52085e-10
2.58722e-10
2.50742e-10
2.45758e-11
9.94425e-11
1.85205e-10
1.833e-10
1.05899e-11
5.31448e-11
1.14928e-10
1.26954e-10
2.85077e-12
1.87714e-11
5.22354e-11
7.91094e-11
5.34546e-13
4.17932e-12
1.50078e-11
2.96015e-11
8.31705e-14
7.05155e-13
2.69448e-12
5.5955e-12
9.74259e-15
9.64038e-14
3.42255e-13
5.4201e-13
8.95666e-16
9.87766e-15
3.43805e-14
4.73249e-14
7.62016e-17
8.80027e-16
3.15561e-15
4.61373e-15
4.48496e-18
6.9139e-17
2.33843e-16
2.74761e-16
1.55618e-19
3.19635e-18
1.12936e-17
1.21798e-17
3.27214e-21
9.5184e-20
4.07813e-19
4.79795e-19
3.64294e-23
1.91619e-21
1.17856e-20
1.81199e-20
1.34336e-25
2.32115e-23
2.4566e-22
5.05566e-22
4.69769e-29
7.69042e-26
2.01801e-24
3.84194e-24
6.12054e-46
5.28225e-38
2.46076e-36
-2.87132e-30
0.194356
-2.73319e-06
-8.23063e-06
-8.31886e-08
4.43307e-08
2.59536e-07
1.68402e-07
4.47394e-08
9.76597e-09
1.0444e-09
8.51109e-11
2.58781e-12
6.85607e-14
1.67653e-15
1.04318e-16
1.63964e-18
2.94753e-20
2.45225e-22
2.73371e-24
0.979722
0.804803
0.225918
2.45132e-05
1.05886e-06
2.95214e-06
9.31771e-06
3.09739e-06
5.83081e-07
6.8438e-08
1.66226e-09
9.10073e-11
2.58345e-12
5.56042e-14
3.49506e-15
1.99802e-16
2.20068e-18
2.9529e-20
2.36666e-22
0.999961
0.99989
0.976408
0.832074
0.297615
0.00304196
3.39587e-05
1.18541e-05
1.84613e-05
4.53254e-06
2.15677e-07
4.47951e-09
1.43565e-10
4.66712e-12
1.38085e-13
6.03346e-15
2.75054e-16
5.02377e-18
4.68262e-20
0.999989
0.999986
0.999973
0.999926
0.988643
0.779755
0.192742
0.000332458
6.73399e-05
1.81503e-05
2.11916e-06
1.67937e-07
8.1738e-09
3.45014e-10
1.64485e-11
7.22016e-13
2.98391e-14
6.82271e-16
7.53528e-18
0.999989
0.999988
0.999986
0.999973
0.99993
0.999854
0.928727
0.40008
0.0100975
0.000301458
3.67432e-05
3.4251e-06
2.03013e-07
1.37249e-08
8.23448e-10
4.13031e-11
1.60967e-12
3.86533e-14
5.02582e-16
0.999988
0.999986
0.999973
0.999937
0.999912
0.999904
0.999853
0.954649
0.421627
0.0118476
0.000775476
8.25239e-05
7.36169e-06
5.35622e-07
3.78719e-08
2.26072e-09
1.03369e-10
1.44675e-12
3.80847e-14
0.155446
0.343142
0.753606
0.992166
0.999904
0.999853
0.999452
0.999286
0.915194
0.297273
0.00490606
0.000739389
8.4106e-05
7.9677e-06
6.02874e-07
3.49298e-08
1.39747e-09
2.09485e-11
1.7242e-12
1.66018e-06
0.00269466
0.029083
0.0699345
0.259497
0.778915
0.999287
0.998368
0.99475
0.758711
0.114175
0.00271419
0.000351068
3.7703e-05
3.23916e-06
2.11226e-07
9.11106e-09
1.536e-10
2.97597e-11
2.62852e-07
3.15576e-09
1.83814e-07
5.00011e-08
1.59247e-09
0.00549991
0.298539
0.91574
0.991319
0.958881
0.395724
0.0085862
0.00101885
0.000118225
1.10847e-05
7.88869e-07
3.67157e-08
7.20932e-10
2.35245e-10
8.74006e-10
-1.59449e-11
3.99628e-10
-8.68958e-10
1.39617e-10
2.06663e-09
1.60503e-05
0.345663
0.943303
0.949654
0.647586
0.0607224
0.00195935
0.000243918
2.44877e-05
1.86428e-06
9.25036e-08
2.1119e-09
1.09191e-09
4.47649e-11
4.8514e-11
5.59736e-11
9.31233e-11
1.23355e-10
-9.90304e-10
5.9212e-08
0.0283373
0.683923
0.935238
0.74568
0.127465
0.0029905
0.000387313
4.06005e-05
3.22824e-06
1.67532e-07
5.17476e-09
3.25568e-09
6.14724e-11
8.62809e-11
1.03324e-10
1.22747e-10
1.25266e-10
9.36404e-11
3.07459e-10
7.68926e-07
0.358939
0.899373
0.783054
0.208246
0.00410566
0.000536813
5.71724e-05
4.61664e-06
2.4484e-07
1.10741e-08
6.93006e-09
7.77227e-11
1.54765e-09
1.57182e-09
1.34484e-09
6.26509e-10
5.41655e-10
6.585e-10
2.679e-08
0.177927
0.809718
0.78233
0.275917
0.00483786
0.000629753
6.64999e-05
5.31268e-06
2.78927e-07
1.55822e-08
1.15103e-08
3.81947e-11
6.27284e-09
6.33096e-08
2.7102e-08
4.71419e-10
6.6256e-10
1.45341e-09
3.45693e-09
0.0811409
0.715236
0.745025
0.273677
0.00462906
0.00059822
6.19218e-05
4.91695e-06
3.16769e-07
1.62998e-08
9.84878e-09
4.16055e-11
4.79477e-11
6.79559e-07
9.68488e-07
3.10444e-09
1.42678e-09
3.46044e-09
1.08798e-08
0.0261112
0.620638
0.702108
0.213595
0.00379044
0.000503124
6.94799e-05
6.55318e-06
5.01994e-07
2.25107e-08
6.40296e-09
1.33489e-10
5.24702e-11
6.43161e-11
7.33115e-06
1.45633e-05
3.26472e-06
1.08833e-08
1.01864e-07
0.0375378
0.612524
0.586
0.130498
0.00266484
0.000447647
7.55331e-05
7.81787e-06
5.85315e-07
2.82514e-08
3.98536e-09
2.04697e-10
6.43161e-11
8.79012e-11
1.33933e-05
1.83031e-05
1.33181e-05
6.3876e-07
2.15649e-07
0.0902628
0.599344
0.516488
0.0888916
0.00186635
0.000286127
6.40147e-05
7.16562e-06
5.48905e-07
2.69964e-08
2.40305e-09
3.27156e-10
8.8426e-11
2.44984e-07
1.69779e-05
1.87988e-05
1.64791e-05
1.13916e-06
4.05522e-07
0.200143
0.576941
0.513561
0.0832783
0.00141647
0.000164842
3.94272e-05
5.22827e-06
4.21513e-07
2.15913e-08
1.35403e-09
6.35721e-10
1.25162e-10
7.69001e-07
1.87135e-05
1.8996e-05
9.25543e-06
9.67941e-07
6.9421e-07
0.296441
0.561408
0.452401
0.0545495
0.00119816
0.000203852
3.40698e-05
3.85671e-06
3.01762e-07
1.55161e-08
7.14553e-10
4.70113e-09
2.42342e-10
1.28782e-06
2.2094e-05
1.52333e-05
2.38429e-06
1.63154e-06
9.18622e-07
0.297011
0.455381
0.215658
0.0158726
0.00156185
0.000261496
3.1695e-05
2.90728e-06
2.06282e-07
1.02789e-08
3.78838e-10
1.20938e-08
7.35679e-10
1.90711e-09
2.30715e-05
7.01036e-06
2.13811e-06
2.19808e-06
0.0318262
0.20652
0.100663
0.0113961
0.00679582
0.00185447
0.000238083
2.51727e-05
2.00879e-06
1.3094e-07
6.2744e-09
2.04878e-10
1.21937e-08
2.41381e-09
5.07795e-09
2.46647e-05
7.54659e-06
2.55136e-06
0.00528464
0.170572
0.0881034
0.00452632
0.00195205
0.00084054
0.00095214
0.000177386
1.53423e-05
1.19787e-06
7.52245e-08
3.52316e-09
1.07823e-10
6.11121e-09
2.65919e-08
1.58098e-07
2.49908e-05
1.44627e-05
3.04754e-06
0.069955
0.194917
0.20028
0.0384124
0.000760766
0.000273997
8.58663e-05
8.54256e-05
8.63515e-06
6.08391e-07
3.89863e-08
1.84081e-09
5.46748e-11
3.94149e-09
6.12497e-08
5.95888e-08
2.01282e-05
1.43977e-05
3.70203e-06
0.0342948
0.200267
0.200273
0.0826682
0.000657768
0.000101805
2.54483e-05
4.61009e-06
4.57395e-06
3.13232e-07
1.88079e-08
9.22285e-10
2.68049e-11
5.65956e-09
3.2668e-08
1.79999e-07
1.98867e-07
0.000118754
4.69287e-06
8.91557e-06
0.177707
0.201089
0.199998
0.0144195
0.000134727
1.30415e-05
1.69386e-06
8.32068e-07
1.55725e-07
9.141e-09
4.59826e-10
1.29406e-11
2.79314e-09
1.43504e-08
1.74039e-07
1.10801e-05
0.000127289
1.21797e-05
1.51838e-05
0.131308
0.203477
0.205133
0.0541285
0.000263353
1.43999e-05
8.63958e-07
1.86817e-07
6.45628e-08
4.61328e-09
2.32097e-10
6.19476e-12
1.59968e-09
9.4712e-09
1.39244e-07
4.98968e-07
7.33566e-05
0.000575613
0.000114666
0.0441951
0.205125
0.205125
0.137992
0.00235968
1.46172e-05
6.20071e-07
2.18589e-07
3.02163e-08
2.37392e-09
1.15397e-10
2.77056e-12
1.06824e-09
6.72266e-09
5.1778e-08
3.12323e-07
3.17083e-05
0.000606075
0.000303943
0.000385138
0.187525
0.205125
0.134394
0.00226803
0.00011473
6.52621e-06
2.17172e-07
1.43967e-08
9.59587e-10
4.89708e-11
1.13389e-12
6.30491e-10
4.41365e-09
4.78661e-08
5.04342e-07
3.48953e-06
6.33949e-05
0.00146716
0.00117467
0.0539278
0.14753
0.0636775
0.00243743
4.84853e-05
3.48487e-06
6.73217e-08
2.84231e-09
3.12619e-10
1.87793e-11
4.43503e-13
3.53872e-10
2.00085e-09
2.14041e-08
2.12684e-07
1.69277e-06
1.41415e-05
0.00093439
0.0021537
0.00168717
0.00782597
0.00166651
0.00145973
4.71994e-07
-4.43399e-09
9.73554e-10
2.0325e-11
1.03037e-10
7.22272e-12
1.67082e-13
1.78568e-10
1.02141e-09
1.10296e-08
1.05894e-07
8.85659e-07
1.0036e-05
0.000189224
0.000722279
0.000885043
0.000515211
0.000225055
6.24954e-06
2.06006e-07
-7.10017e-09
5.87792e-11
5.09244e-11
4.11785e-11
2.68644e-12
5.97945e-14
4.08967e-11
2.27722e-10
2.41884e-09
2.25416e-08
1.84864e-07
1.43656e-06
3.40725e-05
0.000155958
0.000187418
9.48334e-05
5.48245e-05
1.93786e-06
6.86242e-08
2.05868e-10
-8.41545e-12
1.75891e-11
1.64103e-11
9.54285e-13
2.0137e-14
4.82039e-12
4.52161e-11
3.7277e-10
3.37274e-09
2.43793e-08
1.77077e-07
6.50544e-06
2.57623e-05
2.96411e-05
1.71413e-05
1.17177e-05
5.37387e-07
1.99647e-08
2.91038e-10
1.60777e-11
7.78764e-12
5.72512e-12
3.24132e-13
6.34718e-15
4.57979e-13
5.35299e-12
4.91055e-11
2.94372e-10
2.16455e-09
2.17831e-08
8.43013e-07
3.13066e-06
4.05804e-06
2.89517e-06
2.33028e-06
1.34407e-07
5.27459e-09
1.29082e-10
1.0003e-11
5.50187e-12
1.76268e-12
1.0557e-13
1.87138e-15
5.24779e-14
9.39877e-13
7.6882e-12
4.77798e-11
1.987e-10
2.213e-09
5.55653e-08
2.87511e-07
4.79093e-07
4.59151e-07
4.37437e-07
3.08429e-08
1.29421e-09
4.36431e-11
4.37921e-12
3.38756e-12
5.14492e-13
3.29352e-14
5.17702e-16
3.25616e-15
1.38926e-13
3.10746e-12
1.88663e-11
4.57835e-11
2.5118e-10
1.39443e-09
1.43603e-08
4.94958e-08
7.02366e-08
7.64124e-08
6.58553e-09
2.97166e-10
1.12739e-11
1.70863e-12
1.0885e-12
1.45026e-13
9.81102e-15
1.35133e-16
1.57918e-16
7.58631e-15
2.02941e-13
2.71999e-12
1.45138e-11
3.33237e-11
1.00467e-10
6.30764e-10
4.43243e-09
9.90724e-09
1.26858e-08
1.40512e-09
6.39494e-11
3.59038e-12
1.11432e-12
2.53224e-13
3.92703e-14
2.78328e-15
3.35085e-17
6.83458e-18
3.76793e-16
1.11382e-14
1.89058e-13
1.34342e-12
2.62369e-12
1.26959e-11
8.25051e-11
4.39872e-10
1.27988e-09
2.01337e-09
3.24891e-10
1.82545e-11
2.17804e-12
5.21358e-13
6.2234e-14
1.01815e-14
7.51475e-16
7.94736e-18
2.86853e-19
1.67415e-17
5.97536e-16
1.11915e-14
8.48386e-14
2.63373e-13
2.3307e-12
1.63667e-11
7.20341e-11
2.46378e-10
3.5287e-10
7.10537e-11
9.91186e-12
1.39542e-12
1.16172e-13
1.5147e-14
2.53036e-15
1.93401e-16
1.81889e-18
1.02066e-20
6.25462e-19
2.98895e-17
7.07648e-16
6.60801e-15
5.6325e-14
1.07644e-12
1.14866e-11
4.47014e-11
7.81265e-11
7.02318e-11
2.23817e-11
4.73663e-12
4.43221e-13
2.39924e-14
3.56051e-15
6.04423e-16
4.75802e-17
3.57373e-19
1.66274e-22
1.79177e-20
1.27952e-18
3.9692e-17
6.11274e-16
1.16863e-14
2.21278e-13
2.56785e-12
1.30595e-11
2.47066e-11
2.21222e-11
8.19205e-12
1.15857e-12
7.83753e-14
5.44741e-15
8.31789e-16
1.42659e-16
1.14941e-17
6.33115e-20
8.57282e-30
3.52301e-23
4.15962e-20
1.09435e-18
1.94955e-17
5.85649e-16
1.52514e-14
1.9488e-13
1.23046e-12
3.37849e-12
4.60383e-12
9.8919e-13
9.7589e-14
7.69641e-15
6.1426e-16
9.8402e-17
1.72024e-17
1.43975e-18
6.33115e-20
)
;

boundaryField
{
    leftWall
    {
        type            zeroGradient;
    }
    rightWall
    {
        type            zeroGradient;
    }
    lowerWall
    {
        type            zeroGradient;
    }
    atmosphere
    {
        type            inletOutlet;
        inletValue      uniform 0;
        value           nonuniform List<scalar> 
46
(
0
0
0
0
0
0
0
0
0
0
0
0
0
0
0
0
0
0
0
0
0
0
0
0
0
0
0
0
0
0
1.09435e-18
1.94955e-17
5.85649e-16
1.52514e-14
1.9488e-13
1.23046e-12
3.37849e-12
4.60383e-12
9.8919e-13
9.7589e-14
7.69641e-15
6.1426e-16
9.8402e-17
1.72024e-17
1.43975e-18
6.33115e-20
)
;
    }
    defaultFaces
    {
        type            empty;
    }
}


// ************************************************************************* //
