/*--------------------------------*- C++ -*----------------------------------*\
  =========                 |
  \\      /  F ield         | OpenFOAM: The Open Source CFD Toolbox
   \\    /   O peration     | Website:  https://openfoam.org
    \\  /    A nd           | Version:  9
     \\/     M anipulation  |
\*---------------------------------------------------------------------------*/
FoamFile
{
    format      ascii;
    class       volScalarField;
    location    "9.33";
    object      p_rgh;
}
// * * * * * * * * * * * * * * * * * * * * * * * * * * * * * * * * * * * * * //

dimensions      [1 -1 -2 0 0 0 0];

internalField   nonuniform List<scalar> 
2268
(
770.384
770.21
769.903
769.458
768.883
768.19
767.391
766.499
765.533
764.508
763.442
762.355
761.26
760.173
759.102
758.07
757.099
756.233
755.449
754.791
754.437
754.165
754.01
770.423
770.251
769.944
769.497
768.919
768.221
767.417
766.52
765.546
764.514
763.44
762.341
761.234
760.133
759.055
758.03
757.081
756.24
755.432
754.802
754.438
754.109
753.952
770.492
770.321
770.013
769.564
768.981
768.276
767.464
766.558
765.574
764.53
763.443
762.331
761.208
760.094
759.008
757.984
757.046
756.222
755.399
754.738
754.398
754.021
753.868
770.596
770.423
770.112
769.659
769.068
768.355
767.532
766.614
765.616
764.557
763.454
762.325
761.187
760.06
758.964
757.924
756.976
756.167
755.429
754.604
754.299
753.897
753.735
770.734
770.557
770.242
769.782
769.182
768.458
767.622
766.688
765.672
764.594
763.471
762.323
761.169
760.029
758.925
757.826
756.792
756.046
755.425
754.661
754.17
753.498
753.564
770.906
770.724
770.402
769.934
769.323
768.584
767.733
766.78
765.742
764.64
763.494
762.324
761.152
759.999
758.89
757.713
756.334
755.915
755.293
754.719
753.98
752.426
753.41
771.112
770.924
770.595
770.116
769.491
768.735
767.866
766.89
765.826
764.696
763.522
762.325
761.133
759.967
758.855
757.792
754.881
753.053
755.118
754.422
751.716
751.441
753.241
771.35
771.158
770.821
770.329
769.686
768.911
768.021
767.019
765.924
764.761
763.553
762.327
761.111
759.931
758.817
757.812
754.142
751.181
751.31
752.186
750.1
752.09
753.118
754.47
754.714
755.443
756.144
756.892
757.654
758.359
759.142
759.986
760.828
761.541
762.239
763.219
764.303
765.08
765.712
766.139
766.456
766.696
754.425
754.592
755.317
756.03
756.803
757.591
758.45
759.333
760.213
761.115
761.853
762.284
763.084
764.362
765.131
765.768
766.186
766.343
766.624
754.299
754.266
755.218
755.923
756.71
757.522
758.396
759.303
760.217
761.178
762.229
762.324
763.102
764.157
765.23
765.863
765.969
766.276
766.523
752.965
753.869
755.185
755.851
756.635
757.455
758.327
759.252
760.158
761.145
762.276
763.263
763.365
764.4
765.354
765.969
766.304
766.395
767.056
752.551
754.155
755.187
755.797
756.567
757.38
758.297
759.262
760.121
761.152
762.263
763.63
764.621
765.174
765.188
765.933
766.557
766.952
767.188
752.274
754.381
755.177
755.734
756.492
757.352
758.3
759.255
760.144
761.255
762.416
763.651
764.674
765.347
765.194
764.224
764.678
767.043
767.362
753.702
754.747
755.105
755.649
756.41
757.279
758.263
759.156
759.646
761.25
762.461
763.693
764.732
765.489
764.334
764.346
764.255
766.461
767.583
754.401
754.619
754.953
755.53
756.309
757.192
758.223
759.209
757.122
758.226
762.04
763.755
764.811
764.269
763.637
766.377
764.261
766.193
767.859
771.786
771.582
771.233
770.72
770.045
769.234
768.308
767.261
766.108
764.883
763.612
762.328
761.066
759.857
758.735
757.762
756.997
753.733
750.073
749.713
752.376
753.49
752.806
772.605
772.404
772.066
771.519
770.757
769.866
768.902
766.771
763.622
760.252
756.566
752.748
749.63
747.076
745.318
744.501
743.756
742.646
741.268
738.996
735.814
732.797
729.951
356.64
354.795
351.935
347.527
341.247
334.364
327.193
320.148
313.78
307.242
300.64
293.98
286.823
279.105
271.305
264.168
259.162
256.288
253.406
249.273
244.621
240.993
238.748
0.937337
0.86213
0.766657
0.805137
1.36703
1.8038
1.62897
1.32075
1.06834
0.898354
0.80785
0.66412
0.394064
0.38602
0.38479
0.377128
0.347262
0.302698
0.258976
0.257817
0.271145
0.277147
0.263412
0.721414
0.779138
0.626207
0.610735
1.51019
1.88394
1.83375
1.76933
1.90858
1.99446
1.99611
1.94404
1.81217
1.73271
1.70533
1.64048
1.39569
1.00738
0.477181
0.513205
0.597025
0.596765
0.427465
0.30579
0.332541
0.315195
0.290594
0.168129
-0.00250084
0.0273362
0.0771479
0.0599318
0.014172
0.000603008
0.00293605
0.00611835
0.00797553
0.00860286
0.008999
0.0110797
0.1229
0.296516
0.243873
0.258654
0.29976
0.2286
-0.00699231
-0.00712768
-0.0059576
0.000316766
-0.0073351
-0.00610452
-0.00496451
-0.00398263
-0.0029206
-0.00143613
0.00018547
0.0298485
0.0639419
0.0653704
0.0651951
0.0337168
0.00983003
0.00860991
0.00955377
0.0102703
0.0100458
0.0321316
0.0969856
-0.00627598
-0.00644291
-0.00586934
-0.00503464
-0.00479233
-0.00308214
-0.00364392
-0.00293256
-0.00138088
-0.000552182
0.000137498
0.014865
0.0317078
0.0281871
0.0133848
0.0201164
0.00853995
0.00706259
0.0073665
0.00811288
0.00849173
0.00872828
0.00933675
-0.00548213
-0.00551409
-0.0051945
-0.00470961
-0.00234435
-0.00130003
-0.00102488
-0.00138778
0.00181521
0.00258809
0.00134794
-0.000355389
0.000108275
0.00107195
0.00408857
0.0143816
0.0103195
0.00584643
0.00650104
0.00709877
0.00750009
0.00785364
0.00893235
-0.00478714
-0.00475788
-0.00455301
-0.0042774
-0.00228231
-0.000681152
-0.000360347
-0.000937447
0.00231666
0.00294076
0.000719889
-0.000211939
0.000415207
0.00127765
0.00230472
0.00382494
0.00549002
0.0049378
0.00556776
0.00606734
0.00642093
0.00673235
0.021007
-0.00418342
-0.00412714
-0.00397171
-0.00376591
-0.00312604
-0.0010991
-0.00204763
-0.00150961
0.00280319
0.00283375
-0.000711713
-0.000145538
0.00061639
0.00349962
0.00520546
0.00342169
0.00358177
0.00420588
0.00472529
0.00511525
0.00534465
0.00541909
0.0242381
-0.00365302
-0.0035745
-0.00342393
-0.00327496
-0.00308395
-0.00276468
-0.00239133
-0.00159484
0.00308536
0.00102389
-0.000658625
-0.000132862
0.000439351
0.00740709
0.0124065
0.011793
0.00311335
0.00355736
0.00395591
0.00426819
0.00440683
0.00433091
0.00434855
-0.00318305
-0.00293636
-0.00281
-0.00284566
-0.00266672
-0.00241548
-0.00205515
0.00049513
0.00208303
-0.000970921
-0.000609958
-0.000152262
0.000294341
0.00597498
0.0125784
0.0132146
0.0122378
0.00292774
0.00327376
0.00352558
0.00364013
0.003571
0.00327951
-0.00277776
-0.00250932
-0.0024083
-0.00246096
-0.00231375
-0.00208022
-0.000177133
0.00158177
0.00104156
-0.000950073
-0.000558967
-0.000171257
0.000195772
0.000517529
0.00553303
0.0133354
0.0131716
0.00318537
0.00269667
0.00292649
0.0030405
0.00302056
0.00285757
-0.00243066
-0.00218268
-0.0020591
-0.00214539
-0.00202105
-0.00164241
0.00170517
0.00192118
0.00017878
-0.000845853
-0.000508211
-0.000175577
0.000140213
0.000420115
0.000895509
0.00233406
0.00328714
0.00249103
0.00222926
0.00244758
0.00257602
0.00258533
0.00251797
-0.00212984
-0.00204575
-0.00190513
-0.00188125
-0.00176501
-0.00148202
0.00133506
0.00188985
-0.00100423
-0.000748378
-0.00045463
-0.000164631
0.00011582
0.000379967
0.000636241
0.000907816
0.00123147
0.00158533
0.00188226
0.00208695
0.00219934
0.00222153
0.00217882
-0.00185657
-0.00179887
-0.00173093
-0.00164165
-0.00153427
-0.00134728
-0.0010774
-0.000769443
-0.000901781
-0.000652107
-0.000398413
-0.000145105
0.000104657
0.000347592
0.000586381
0.000832777
0.00109788
0.00136521
0.00159505
0.00176574
0.00187083
0.00191311
0.00191191
-0.00160914
-0.00155627
-0.00149797
-0.00142273
-0.00132527
-0.00119951
-0.0011151
-0.000963143
-0.000770865
-0.000560431
-0.000342393
-0.000121428
9.97481e-05
0.000318161
0.000534
0.000751208
0.00097201
0.00118534
0.00136839
0.00151007
0.00160732
0.00166151
0.00167829
-0.0012395
-0.00109777
-0.00129022
-0.00123217
-0.00114458
-0.00104823
-0.000951208
-0.000816494
-0.000655051
-0.000476896
-0.000289308
-9.6574e-05
9.79523e-05
0.000291511
0.000482966
0.000672478
0.000858746
0.00103423
0.00118654
0.00130803
0.00139566
0.00144953
0.00147334
-0.000408351
-0.000371523
-0.00111556
-0.00106852
-0.00099066
-0.000911221
-0.000813377
-0.000694028
-0.000555326
-0.000402569
-0.000240403
-7.25823e-05
9.76386e-05
0.000267641
0.000435585
0.000600001
0.000758409
0.00090545
0.0010338
0.00113817
0.00121597
0.0012668
0.00129276
-0.000222291
-0.000512504
-0.000979966
-0.000927569
-0.00085973
-0.000786095
-0.00069553
-0.000589769
-0.000469296
-0.000337095
-0.000196458
-5.04779e-05
9.80063e-05
0.000246499
0.000392867
0.000535056
0.000670402
0.000794923
0.00090388
0.000993558
0.00106182
0.00110806
0.00113335
-5.06586e-05
-0.000863284
-0.000855278
-0.000804108
-0.000744599
-0.000675326
-0.000593696
-0.000499951
-0.000394615
-0.000279619
-0.000157391
-3.04365e-05
9.88023e-05
0.000228027
0.000355087
0.00047782
0.000593739
0.000699777
0.000792623
0.000869565
0.000928872
0.000969825
0.000992876
0.000107937
-0.000774765
-0.000740787
-0.000695387
-0.000641507
-0.000578165
-0.000504928
-0.00042179
-0.000329344
-0.000229009
-0.000122632
-1.2249e-05
0.000100053
0.000212214
0.000322213
0.000428003
0.000527376
0.000617896
0.000697104
0.000762938
0.000813976
0.000849476
0.000869526
0.000253487
-0.000122505
-0.000641286
-0.000600446
-0.000550552
-0.000492871
-0.000427041
-0.000353191
-0.00027187
-0.000184166
-9.15176e-05
4.41782e-06
0.00010187
0.000199026
0.000294063
0.000385127
0.000470303
0.000547606
0.000615122
0.000671225
0.000714727
0.000744906
0.000761648
0.000392746
0.000376604
-0.000554541
-0.000517928
-0.000470709
-0.000417645
-0.000358205
-0.000292469
-0.000220844
-0.000144114
-6.34218e-05
1.98971e-05
0.00010435
0.000188365
0.000270328
0.000348603
0.000421535
0.000487479
0.000544888
0.000592442
0.000629133
0.000654281
0.000667671
0.000484529
0.000492072
-0.000477918
-0.000443812
-0.000399434
-0.000350461
-0.000296691
-0.000238162
-0.000175091
-0.000108022
-3.78084e-05
3.446e-05
0.000107532
0.000180054
0.000250613
0.000317776
0.000380113
0.000436236
0.000484862
0.00052489
0.000555458
0.000575936
0.00058607
0.00056851
0.000157999
-0.000412642
-0.00037662
-0.000334653
-0.000289457
-0.000240927
-0.000188987
-0.000133632
-7.51764e-05
-1.42446e-05
4.82903e-05
0.000111381
0.000173849
0.000234463
0.000291965
0.00034511
0.000392708
0.000433673
0.000467069
0.000492148
0.000508339
0.00051538
0.000274983
-0.000376951
-0.000353882
-0.000314724
-0.000274376
-0.000232941
-0.000189554
-0.000143878
-9.56701e-05
-4.50368e-05
7.58358e-06
6.1489e-05
0.000115785
0.000169448
0.000221383
0.00027048
0.000315635
0.000355816
0.000390083
0.000417627
0.000437796
0.000450074
0.000454214
-0.000304367
-0.000340972
-0.000295132
-0.000254549
-0.000216606
-0.000179501
-0.000141531
-0.000102057
-6.06453e-05
-1.7242e-05
2.78485e-05
7.40467e-05
0.000120571
0.000166506
0.000210863
0.000252637
0.000290845
0.000324567
0.000352971
0.000375352
0.00039113
0.000399849
0.000401284
-0.000256365
-0.00027423
-0.000230953
-0.000193758
-0.000160211
-0.000128352
-9.62702e-05
-6.30912e-05
-2.82642e-05
8.36787e-06
4.65772e-05
8.58546e-05
0.000125491
0.000164639
0.000202379
0.000237782
0.000269953
0.000298052
0.000321331
0.000339155
0.00035101
0.00035649
0.000355416
-0.000237621
-0.000189343
-0.000163695
-0.000133279
-0.000105207
-7.93466e-05
-5.36187e-05
-2.68894e-05
1.50235e-06
3.17521e-05
6.36496e-05
9.67028e-05
0.000130235
0.000163429
0.000195404
0.000225283
0.000252225
0.000275449
0.000294262
0.000308077
0.00031643
0.000318963
0.00031555
-0.000194313
-0.000133655
-0.000106546
-7.6248e-05
-5.20778e-05
-3.25599e-05
-1.37487e-05
6.32649e-06
2.84246e-05
5.26731e-05
7.88031e-05
0.000106286
0.000134436
0.000162434
0.000189415
0.000214533
0.000236984
0.000256019
0.00027097
0.000281279
0.00028651
0.000286352
0.000280744
-0.000129139
-9.67741e-05
-5.56821e-05
-1.9881e-05
5.50435e-07
1.20725e-05
2.29213e-05
3.60521e-05
5.20262e-05
7.07097e-05
9.1652e-05
0.000114224
0.000137683
0.000161193
0.000183895
0.000204964
0.000223613
0.000239105
0.00025077
0.000258046
0.0002605
0.000257861
0.000250163
-6.29852e-05
-5.66401e-05
-7.9266e-07
4.42457e-05
5.47883e-05
5.37413e-05
5.50996e-05
6.12144e-05
7.15262e-05
8.52783e-05
0.000101724
0.00012008
0.000139539
0.000159242
0.000178342
0.000196036
0.000211547
0.000224126
0.000233073
0.000237775
0.00023777
0.000232808
0.00022306
-1.41994e-05
7.74321e-05
0.000651399
0.00294472
0.000682665
0.000124056
7.93582e-05
7.98156e-05
8.57839e-05
9.56775e-05
0.000108518
0.000123434
0.000139595
0.000156148
0.000172289
0.000187251
0.000200269
0.000210568
0.000217376
0.000219978
0.000217812
0.000210611
0.000198755
1.84416e-05
0.000270551
0.00395425
0.0041477
0.00406906
0.000624284
9.13027e-05
8.99765e-05
9.38604e-05
0.000101398
0.000111702
0.000124002
0.000137544
0.000151557
0.000165328
0.000178156
0.000189305
0.000197964
0.000203253
0.000204282
0.000200263
0.000190796
0.00017661
7.46111e-05
0.000188696
0.00426562
0.00425366
0.00423318
0.000700256
9.20706e-05
9.25247e-05
9.62043e-05
0.000102673
0.000111366
0.000121753
0.000133241
0.000145217
0.000157106
0.000168316
0.000178166
0.000185825
0.000190286
0.000190387
0.00018491
0.000173006
0.000155997
0.000138685
0.000226836
0.00139468
0.00408749
0.00214778
0.000256444
8.85532e-05
9.04347e-05
9.43334e-05
0.000100227
0.000107791
0.000116684
0.000126479
0.000136747
0.000147082
0.000157037
0.00016604
0.000173295
0.000177693
0.000177747
0.000171485
0.000156854
0.000136164
0.000285016
0.000307498
0.000207798
0.000548415
0.000123584
8.74955e-05
8.40999e-05
8.5517e-05
8.91679e-05
9.44613e-05
0.000101028
0.000108584
0.00011683
0.000125514
0.000134408
0.000143244
0.00015163
0.000158915
0.000164053
0.000165398
0.000159812
0.00014182
0.000115877
0.000452137
0.000367085
0.000239163
0.000150846
0.000101693
8.28813e-05
7.87306e-05
8.00121e-05
8.35946e-05
8.84257e-05
9.40967e-05
0.000100371
0.000107093
0.000114172
0.00012155
0.000129164
0.00013687
0.00014432
0.000150973
0.000156005
0.000154745
0.000129926
9.35874e-05
0.000600558
0.000387315
0.000232999
0.000147218
9.88981e-05
8.33996e-05
8.28909e-05
8.62705e-05
9.04881e-05
9.50446e-05
9.98356e-05
0.000104807
0.00010996
0.000115334
0.000121008
0.000127109
0.000133762
0.00014106
0.00014966
0.000162018
0.000173881
0.000133394
7.00824e-05
0.000520528
3.59137e-05
0.000109318
9.47603e-05
8.39655e-05
8.38537e-05
8.77773e-05
9.12471e-05
9.40277e-05
9.65923e-05
9.91371e-05
0.00010171
0.000104335
0.000107061
0.000109993
0.000113311
0.000117275
0.000122292
0.00012999
0.000146343
0.000175934
0.00015308
4.91066e-05
753.041
752.934
753.084
753.295
731.54
731.897
732.406
732.485
237.715
237.487
237.846
238.786
0.264258
0.276681
0.283165
0.28218
0.281022
0.600176
0.603234
0.603307
0.0857871
0.224685
0.434967
0.434942
0.0691662
0.032096
0.0110275
0.010816
0.0141715
0.0105543
0.0104412
0.0102951
0.0184776
0.0291509
0.0303563
0.0177466
0.0425666
0.0426666
0.042773
0.0429193
0.0430261
0.0430948
0.0431897
0.0432649
0.0103404
0.0326657
0.0437928
0.0422255
0.00291804
0.00266268
0.00248797
0.00242031
0.00267286
0.00254198
0.00245213
0.00239407
0.00244921
0.00238905
0.00239649
0.00249257
0.0021331
0.00210048
0.00217924
0.00259448
0.00189098
0.00187332
0.00185343
0.00188632
0.00167204
0.00166259
0.00164911
0.00163094
0.00147449
0.00146968
0.0014603
0.00144609
0.00129713
0.00129481
0.00128801
0.00127661
0.00113871
0.00113759
0.00113236
0.00112296
0.000998001
0.000997319
0.00099299
0.000984955
0.000873754
0.000873037
0.000869138
0.000861982
0.000764643
0.0007636
0.000759794
0.000753136
0.000669277
0.000667729
0.000663777
0.00065732
0.000586231
0.000584074
0.000579809
0.000573335
0.000514097
0.000511274
0.000506588
0.000499941
0.000451517
0.000448006
0.000442835
0.000435912
0.000397221
0.00039302
0.000387333
0.00038007
0.000350042
0.000345162
0.000338948
0.000331313
0.000308921
0.000303381
0.000296644
0.000288624
0.00027291
0.000266729
0.00025948
0.000251076
0.000241158
0.00023435
0.0002266
0.000217824
0.00021289
0.000205459
0.000197217
0.000188084
0.000187387
0.000179319
0.00017059
0.000161125
0.000163946
0.000155208
0.000145996
0.000136246
0.000141852
0.00013239
0.000122713
0.00011277
0.000120298
0.000110076
0.000100008
9.00589e-05
9.81811e-05
8.73366e-05
7.71391e-05
6.75685e-05
7.3854e-05
6.30513e-05
5.3512e-05
4.51094e-05
4.57633e-05
3.60613e-05
2.89092e-05
2.32639e-05
2.42424e-05
1.5796e-05
9.86734e-06
5.75002e-06
753.793
754.152
754.619
755.291
755.854
755.692
756.621
758.367
757.742
754.398
755.546
757.976
758.932
759.904
765.742
766.722
766.892
767.088
768.012
732.511
733.26
733.169
733.408
734.715
736.988
739.211
742.656
750.167
756.138
759.1
761.329
763.483
765.482
766.833
767.477
767.924
765.512
764.168
241.538
244.964
250.089
256.516
263.782
271.603
279.468
286.637
293.578
302.034
309.312
315.889
322.529
327.618
331.378
335.828
340.633
344.79
347.659
0.264456
0.300491
0.308174
0.306346
0.301868
0.299763
0.296678
0.29492
0.290665
0.282877
0.297649
0.338619
0.282351
0.507812
0.649965
0.679297
0.691227
0.677698
0.783693
0.307146
0.867339
0.870475
0.869472
0.870171
0.901501
0.899838
0.897624
0.894662
0.890857
0.799563
0.55931
0.290889
0.560345
0.652787
0.6506
0.651334
0.633431
0.561154
0.297414
0.161085
0.196858
0.175524
0.132383
0.102083
0.0918997
0.0880471
0.0559933
0.0185771
0.0185006
0.0426562
0.117791
0.12939
0.144981
0.184538
0.199725
0.22265
0.221954
0.0247443
0.0113523
0.0106491
0.0108658
0.01174
0.0168745
0.0174844
0.0164067
0.0160928
0.0256258
0.0407162
0.0459946
0.0451478
0.0217662
0.00240191
-0.000857942
-0.00188651
-0.0025814
-0.00230547
0.0106951
0.0101203
0.0095888
0.0117312
0.041621
0.0574907
0.05667
0.0348516
0.0435089
0.0734262
0.0727464
0.0722735
0.0710568
0.038168
0.000636617
-0.000525853
-0.00130162
-0.00175638
-0.00159885
0.0118789
0.00892209
0.00814587
0.0247625
0.0590121
0.0579692
0.0467317
0.0516528
0.0492447
0.0234994
0.0410362
0.0600677
0.0570009
0.00842221
0.000418339
-0.000207648
-0.000723364
-0.00106051
-0.000984552
0.038257
0.00914862
0.00667676
0.0109181
0.0241186
0.0177742
0.00268115
0.00223744
0.00148481
0.000986475
0.00015428
-0.000480049
0.00495644
0.0109718
0.000524926
0.000173879
-0.000170647
-0.000444278
-0.000473262
0.0433894
0.0417905
0.00543016
0.00430379
0.0032318
0.00260128
0.0026882
0.00275899
0.00181829
0.000906999
0.000399818
0.00484924
0.014667
0.0110276
0.000791314
0.000589748
0.000352355
0.000134694
-3.26072e-05
0.0377247
0.0246159
0.00517467
0.0035291
0.00291264
0.00273956
0.00300589
0.00261265
0.00167907
0.000835756
0.000594521
0.011266
0.0158882
0.0123669
0.00109198
0.000986398
0.000841714
0.000652879
0.000356178
0.00241291
0.00271373
0.00304828
0.00292322
0.00256228
0.00219919
0.00184568
0.00149388
0.00111088
0.000739263
0.000328857
0.0042698
0.016755
0.0169491
0.00777464
0.00129796
0.00127279
0.00111842
0.000704895
0.00235176
0.00247341
0.00258734
0.00248409
0.00222721
0.00192914
0.001631
0.00131516
0.000985992
0.000643206
0.000272895
-4.31598e-05
0.0065798
0.0151967
0.0111374
0.0014651
0.00487429
0.00565668
0.00202764
0.00249866
0.0024945
0.00231137
0.00214319
0.0019439
0.00170361
0.00144346
0.00116353
0.000867377
0.000556826
0.000230178
-0.000110503
-0.000422068
-0.000524657
-6.22251e-05
0.0183143
0.0239657
0.0237941
0.0232782
0.00257557
0.002567
0.00251458
0.00192452
0.0017015
0.00149503
0.00127693
0.00103819
0.000761626
0.000474593
0.000184464
-0.000108302
-0.000368385
-0.000527741
0.000597672
0.0188915
0.0243158
0.0226441
0.0127459
0.00216326
0.00236462
0.00231874
0.00222489
0.00152456
0.00130366
0.00117472
0.00103991
0.00072849
0.000399951
0.000132606
-0.000130318
-0.000379047
-0.000594441
-0.000803954
0.00137112
0.00617391
-0.000622779
-0.00173793
0.00159081
0.00171304
0.00203858
0.00192543
0.00134783
0.00113022
0.00106846
0.000924545
0.000711737
0.000392805
7.91894e-05
-0.000160843
-0.000397364
-0.000624612
-0.000869992
-0.00117592
-0.00139905
-0.0014254
-0.00155923
0.00141338
0.00136508
0.00129921
0.00121407
0.0011104
0.000978165
0.000891075
0.000813917
0.000621745
0.000325437
2.74836e-05
-0.000191426
-0.000411155
-0.00062877
-0.000851238
-0.00107876
-0.00123559
-0.00129161
-0.00138138
0.00124942
0.00120361
0.00114082
0.00105968
0.000958741
0.000835676
0.000692065
0.000547733
0.000390911
0.000175315
-1.97952e-05
-0.000219388
-0.000420684
-0.000620283
-0.00081593
-0.000996926
-0.00111889
-0.00115472
-0.00035695
0.00109995
0.0010571
0.000997742
0.000921352
0.000827318
0.000714664
0.000584364
0.000438807
0.000280945
0.000113285
-6.26514e-05
-0.000244197
-0.000427577
-0.000608657
-0.000781869
-0.000934852
-0.00103982
-0.00104244
0.0051124
0.000965007
0.000925065
0.000869388
0.000797965
0.0007107
0.000607348
0.000488717
0.000356527
0.000212925
5.99785e-05
-0.000100415
-0.000265733
-0.000432574
-0.000596756
-0.000752615
-0.000890405
-0.000990451
-0.00105134
0.00558352
0.000844192
0.000806865
0.000754772
0.000688168
0.000607258
0.000512197
0.000403715
0.00028314
0.000152173
1.26405e-05
-0.000133533
-0.00028394
-0.000435519
-0.00058457
-0.000726395
-0.000854204
-0.000956844
-0.0010261
0.00587982
0.000736789
0.000701671
0.000652853
0.000590721
0.000515641
0.000427963
0.000328389
0.000218034
9.83418e-05
-2.90179e-05
-0.00016215
-0.000298753
-0.000436038
-0.000570741
-0.000699293
-0.000818129
-0.000921525
-0.000987167
0.00617263
0.000641858
0.000608521
0.000562584
0.000504482
0.000434652
0.000353537
0.000261822
0.000160509
5.09027e-05
-6.54125e-05
-0.000186552
-0.00031022
-0.000433693
-0.000553867
-0.000667678
-0.000773117
-0.000866865
-0.000923925
0.00369303
0.00055833
0.000526373
0.000482909
0.000428369
0.000363208
0.000287907
0.000203136
0.000109835
9.23623e-06
-9.71003e-05
-0.000207242
-0.00031878
-0.000428771
-0.000533726
-0.000629835
-0.000713463
-0.000779032
-0.000807236
-0.000782133
0.000485077
0.000454157
0.000412778
0.000361351
0.000300314
0.000230149
0.000151508
6.52874e-05
-2.73192e-05
-0.000124753
-0.000225001
-0.000325455
-0.000422764
-0.000512663
-0.000589648
-0.000646098
-0.00067113
-0.000658
-0.000584239
0.000420965
0.0003908
0.000351173
0.000302456
0.000245052
0.000179423
0.000106186
2.61892e-05
-5.94154e-05
-0.000149083
-0.000240745
-0.000331629
-0.000418023
-0.000494953
-0.000555359
-0.000588062
-0.000578248
-0.000531899
0.000683393
0.00036489
0.000335269
0.00029712
0.000250776
0.000196591
0.000134981
6.65096e-05
-8.04483e-06
-8.76045e-05
-0.000170687
-0.000255256
-0.000338515
-0.000416642
-0.000484427
-0.000534354
-0.000554499
-0.000530283
-0.000473427
0.00816012
0.000315807
0.000286582
0.000249711
0.000205482
0.000154188
9.61795e-05
3.19364e-05
-3.78641e-05
-0.000112265
-0.000189917
-0.000268928
-0.000346652
-0.000419436
-0.000482315
-0.000528355
-0.000547243
-0.000527099
-0.000476757
0.00874589
0.000272741
0.000243827
0.000208108
0.000165824
0.000117195
6.24809e-05
2.05019e-06
-6.35599e-05
-0.000133565
-0.000206822
-0.000281684
-0.00035579
-0.000425831
-0.000487289
-0.000534063
-0.000557544
-0.000546931
-0.00050047
0.00899672
0.000234798
0.00020617
0.000171557
0.000131143
8.5061e-05
3.34593e-05
-2.3435e-05
-8.52624e-05
-0.00015146
-0.000221158
-0.000293033
-0.000365103
-0.000434498
-0.000497227
-0.000547836
-0.000578693
-0.00057781
-0.00053036
0.0090693
0.000201156
0.000172852
0.000139383
0.000100868
5.73347e-05
8.79894e-06
-4.46792e-05
-0.00010295
-0.000165713
-0.000232428
-0.000302165
-0.000373404
-0.000443804
-0.000509942
-0.000566748
-0.000607151
-0.000617104
-0.000567356
0.00910885
0.000171063
0.000143189
0.000110999
7.45231e-05
3.3666e-05
-1.17084e-05
-6.17246e-05
-0.000116463
-0.000175919
-0.000239924
-0.000308014
-0.00037922
-0.000451807
-0.000522915
-0.000587773
-0.000639291
-0.000661945
-0.000613064
0.00933353
0.000143828
0.000116579
8.5914e-05
5.17384e-05
1.38118e-05
-2.81648e-05
-7.45063e-05
-0.00012553
-0.000181539
-0.000242768
-0.000309279
-0.000380741
-0.000456091
-0.000533028
-0.000606902
-0.000666444
-0.000697507
-0.000650775
0.00678952
0.000118821
9.25133e-05
6.37507e-05
3.22624e-05
-2.35758e-06
-4.05705e-05
-8.28689e-05
-0.000129791
-0.000181937
-0.000239958
-0.000304488
-0.00037597
-0.000454119
-0.000537281
-0.00062056
-0.000679229
-0.000707765
-0.000652551
-0.000182617
9.54934e-05
7.06076e-05
4.42733e-05
1.59791e-05
-1.48579e-05
-4.88393e-05
-8.65983e-05
-0.00012885
-0.000176452
-0.000230454
-0.000292115
-0.000362781
-0.00044332
-0.000533181
-0.000627898
-0.000692123
-0.000723733
-0.000645899
0.000255898
7.34218e-05
5.06553e-05
2.74258e-05
2.92255e-06
-2.35991e-05
-5.28278e-05
-8.5469e-05
-0.000122337
-0.000164465
-0.000213235
-0.000270503
-0.000338657
-0.000420321
-0.000517415
-0.000628806
-0.000723833
-0.000780046
-0.000694938
0.00308621
5.2431e-05
3.2771e-05
1.34514e-05
-6.6335e-06
-2.83176e-05
-5.22824e-05
-7.92033e-05
-0.000109879
-0.000145383
-0.000187263
-0.000237819
-0.000300448
-0.000379859
-0.000481975
-0.00061362
-0.000771203
-0.000897389
-0.000808794
0.00304187
3.29119e-05
1.7693e-05
3.14702e-06
-1.19477e-05
-2.83557e-05
-4.66152e-05
-6.72439e-05
-9.08782e-05
-0.000118431
-0.000151325
-0.000191889
-0.000243983
-0.000313819
-0.00041144
-0.0005563
-0.000781346
-0.00105499
-0.00102552
0.00283978
1.59809e-05
6.47639e-06
-2.71626e-06
-1.25424e-05
-2.34812e-05
-3.57929e-05
-4.97207e-05
-6.55941e-05
-8.39408e-05
-0.000105675
-0.000132467
-0.000167454
-0.00021642
-0.000290643
-0.000420567
-0.000691816
-0.00118318
-0.00135053
0.00217651
1.49057e-06
-3.34704e-06
-8.12861e-06
-1.35216e-05
-1.96586e-05
-2.65296e-05
-3.41069e-05
-4.23861e-05
-5.14277e-05
-6.14379e-05
-7.29673e-05
-8.74147e-05
-0.000108183
-0.000143384
-0.000216773
-0.000414417
-0.000958948
-0.00155112
0.00121753
)
;

boundaryField
{
    leftWall
    {
        type            fixedFluxPressure;
        gradient        uniform 0;
        value           nonuniform List<scalar> 
50
(
770.384
770.423
770.492
770.596
770.734
770.906
771.112
771.35
771.786
772.605
356.64
0.937337
0.721414
0.30579
-0.00699231
-0.00627598
-0.00548213
-0.00478714
-0.00418342
-0.00365302
-0.00318305
-0.00277776
-0.00243066
-0.00212984
-0.00185657
-0.00160914
-0.0012395
-0.000408351
-0.000222291
-5.06586e-05
0.000107937
0.000253487
0.000392746
0.000484529
0.00056851
0.000274983
-0.000304367
-0.000256365
-0.000237621
-0.000194313
-0.000129139
-6.29852e-05
-1.41994e-05
1.84416e-05
7.46111e-05
0.000138685
0.000285016
0.000452137
0.000600558
0.000520528
)
;
    }
    rightWall
    {
        type            fixedFluxPressure;
        gradient        uniform 0;
        value           nonuniform List<scalar> 
50
(
766.696
766.624
766.523
767.056
767.188
767.362
767.583
767.859
768.012
764.168
347.659
0.783693
0.561154
0.221954
-0.00230547
-0.00159885
-0.000984552
-0.000473262
-3.26072e-05
0.000356178
0.000704895
0.00202764
0.0232782
0.0127459
-0.00173793
-0.00155923
-0.00138138
-0.00035695
0.0051124
0.00558352
0.00587982
0.00617263
0.00369303
-0.000782133
-0.000584239
0.000683393
0.00816012
0.00874589
0.00899672
0.0090693
0.00910885
0.00933353
0.00678952
-0.000182617
0.000255898
0.00308621
0.00304187
0.00283978
0.00217651
0.00121753
)
;
    }
    lowerWall
    {
        type            fixedFluxPressure;
        gradient        uniform 0;
        value           nonuniform List<scalar> 
62
(
770.384
770.21
769.903
769.458
768.883
768.19
767.391
766.499
765.533
764.508
763.442
762.355
761.26
760.173
759.102
758.07
757.099
756.233
755.449
754.791
754.437
754.165
754.01
754.01
753.952
753.868
753.735
753.564
753.41
753.241
753.118
753.041
752.934
753.084
753.295
754.47
754.425
754.299
752.965
752.551
752.274
753.702
754.401
754.47
754.714
755.443
756.144
756.892
757.654
758.359
759.142
759.986
760.828
761.541
762.239
763.219
764.303
765.08
765.712
766.139
766.456
766.696
)
;
    }
    atmosphere
    {
        type            totalPressure;
        rho             rho;
        psi             none;
        gamma           1;
        p0              uniform 0;
        value           nonuniform List<scalar> 
46
(
-5.31412e-05
0
0
0
0
0
0
0
0
0
0
0
0
0
0
0
0
0
0
0
0
-1.40469e-09
-3.99966e-07
-1.13624e-06
-1.79984e-06
-2.6037e-06
-3.54034e-06
-5.40013e-06
-8.55333e-06
-1.22815e-05
-1.65013e-05
-2.11232e-05
-2.60506e-05
-3.11781e-05
-3.63892e-05
-4.1554e-05
-4.65251e-05
-5.11322e-05
-5.51723e-05
-5.83899e-05
-6.04301e-05
-6.07182e-05
-5.81088e-05
-4.99177e-05
-2.736e-05
0
)
;
    }
    defaultFaces
    {
        type            empty;
    }
}


// ************************************************************************* //
