/*--------------------------------*- C++ -*----------------------------------*\
  =========                 |
  \\      /  F ield         | OpenFOAM: The Open Source CFD Toolbox
   \\    /   O peration     | Website:  https://openfoam.org
    \\  /    A nd           | Version:  9
     \\/     M anipulation  |
\*---------------------------------------------------------------------------*/
FoamFile
{
    format      ascii;
    class       volVectorField;
    location    "12.55";
    object      U;
}
// * * * * * * * * * * * * * * * * * * * * * * * * * * * * * * * * * * * * * //

dimensions      [0 1 -1 0 0 0 0];

internalField   nonuniform List<vector> 
918
(
(2.47629 -0.138942 0)
(0.108704 0.722546 0)
(0.175496 1.11389 0)
(2.31834 0.153729 0)
(-0.0572762 1.23537 -1.20231e-19)
(-0.0924034 0.643931 -5.32982e-18)
(0.521855 0.838935 -3.0284e-19)
(0.280165 0.155938 -2.9972e-20)
(3.00615 -0.0195677 0)
(-0.00952797 0.483715 0)
(-0.0185625 0.605867 0)
(0.606581 0.0065979 0)
(0.0107054 0.439105 0)
(-0.0028918 0.421706 0)
(0.0142741 0.343927 -1.3124e-18)
(-0.00533504 0.748727 -9.20847e-20)
(0.316292 0.0748887 2.15339e-18)
(0.0782148 0.64395 -2.27827e-19)
(1.52888 0.128614 0)
(-0.0290304 0.713109 0)
(0.199124 0.160916 -1.2719e-18)
(3.08302 -0.397383 0)
(2.92445 -0.505992 0)
(1.86115 -0.181107 0)
(0.513713 0.0400606 0)
(-0.0252931 0.52152 0)
(-0.00135343 0.494037 1.86901e-18)
(-0.0238259 1.46593 0)
(0.0771283 2.98594 0)
(0.171927 1.81724 0)
(-0.038246 3.07939 0)
(0.0270651 1.5936 9.24391e-20)
(0.0222513 0.667762 0)
(-0.147425 0.775094 -2.03728e-22)
(-0.193914 1.0291 4.43454e-18)
(-0.0415772 1.04471 0)
(0.744199 -0.00605361 0)
(0.164745 0.251797 6.68152e-19)
(0.977605 1.49263 6.65573e-19)
(0.63894 0.772521 -5.26167e-19)
(0.787911 1.55689 6.37101e-20)
(0.4114 0.843361 -3.28937e-19)
(0.564437 0.313003 2.9477e-20)
(0.302904 0.156359 0)
(0.947363 0.557349 0)
(0.545234 0.310834 1.32468e-19)
(0.264093 0.166359 -1.35932e-19)
(0.871476 -0.0555005 0)
(3.02784 -0.00171924 0)
(3.00685 0.0178583 0)
(3.20085 -0.417749 0)
(3.04288 -0.0742275 0)
(3.03116 -0.038851 0)
(0.0171509 0.906364 -1.14349e-18)
(-0.0538214 0.98495 0)
(0.00258139 0.460485 0)
(-0.0301794 0.99643 0)
(-0.0125088 0.491212 0)
(-0.00236213 0.858786 0)
(-0.0529259 1.13979 0)
(-0.01277 0.556338 0)
(-0.0277356 1.19746 0)
(-0.00733731 0.641507 0)
(0.789001 0.011415 0)
(1.17185 -0.0017641 0)
(0.619305 0.0122854 0)
(1.12883 0.0175495 0)
(0.57134 0.00855762 0)
(0.225406 0.921982 1.96593e-18)
(0.0985379 1.2081 0)
(0.176302 1.06604 0)
(0.0331901 0.755774 2.20646e-23)
(0.0372233 0.498055 -2.94021e-18)
(0.0194616 0.747943 0)
(0.00595419 0.422033 0)
(-0.000704699 0.734559 4.53528e-24)
(0.000700109 0.414828 0)
(-0.0169563 0.743222 0)
(-0.0129681 0.428033 0)
(0.0515135 0.657649 0)
(0.0501457 0.464861 0)
(0.00927528 0.626111 1.24085e-18)
(0.00140049 0.346149 0)
(-0.0721912 4.64383 0)
(0.00776877 1.42179 9.1421e-20)
(-0.0102949 0.766924 -1.17574e-19)
(0.644012 0.153557 -7.51257e-19)
(0.324875 0.0659502 -7.28744e-19)
(0.654176 0.171803 -2.25616e-18)
(0.322177 0.0967165 -1.45322e-18)
(0.0794024 0.62862 0)
(0.176762 1.31146 1.89851e-19)
(0.17783 0.728269 -3.02935e-19)
(2.0604 0.260906 0)
(1.10711 0.118429 0)
(3.03313 0.10388 0)
(3.10393 0.446052 0)
(2.83921 0.377438 -1.01154e-17)
(2.57811 0.361304 7.7618e-18)
(-0.0717034 1.31331 0)
(-0.011397 0.649836 0)
(-0.0165926 1.9877 0)
(-0.0546876 1.40664 0)
(-0.0504691 0.709291 0)
(0.449558 0.303161 4.02598e-19)
(0.230221 0.167191 0)
(2.29605 -0.26642 0)
(1.32368 -0.11929 0)
(1.07999 0.0123965 0)
(1.01655 0.0185318 0)
(0.542823 0.0105709 0)
(1.01446 0.0556904 0)
(0.825467 0.0706493 0)
(0.345225 0.0287556 3.3597e-18)
(-0.00546748 0.451466 1.78156e-18)
(-0.0271338 0.784772 0)
(-0.047676 0.847972 0)
(-0.0153433 0.460664 0)
(0.000131119 0.839724 1.8227e-18)
(7.13174e-05 0.487528 0)
(-0.00547912 0.845554 -5.61039e-18)
(-0.00488638 0.496761 1.893e-18)
(0.0519416 3.66815 0)
(0.0406652 4.10409 0)
(-0.0161935 1.37296 -2.06726e-21)
(-0.0141909 1.32602 0)
(-0.00970245 0.721938 0)
(1.40934 0.0347497 0)
(0.75999 0.0153345 0)
(0.709886 0.0142256 0)
(1.41558 -0.0329296 0)
(0.773236 -0.00879524 0)
(0.329648 0.491161 -8.38915e-19)
(0.160213 0.237682 0)
(0.332799 0.521209 9.40365e-20)
(0.167229 0.274711 0)
(1.221 1.36416 1.69591e-19)
(0.765532 0.72874 -3.9858e-19)
(0.408035 1.414 0)
(0.600197 1.52039 0)
(0.300187 0.809823 0)
(0.148905 0.362093 -4.45017e-19)
(0.619419 0.285839 0)
(0.318915 0.136693 3.99594e-19)
(1.40424 1.28471 0)
(1.56187 1.14929 0)
(0.860498 0.652919 4.67335e-19)
(1.70841 0.938458 0)
(1.05319 0.432143 2.28257e-20)
(1.47255 0.00805158 0)
(1.50073 -0.0292934 0)
(0.801708 -0.00445354 0)
(1.95032 -0.199812 0)
(1.65065 -0.14822 0)
(1.05208 -0.0889899 0)
(3.06126 0.16484 0)
(3.03105 0.0687716 0)
(3.01022 0.0531493 0)
(0.0325599 1.61402 6.06825e-19)
(0.0163989 0.834798 0)
(0.0157117 1.69837 1.07704e-18)
(0.00174249 0.938408 -9.68411e-19)
(0.063458 1.15598 1.91911e-19)
(0.0471478 0.997119 0)
(0.0389015 0.533449 0)
(-0.0302246 1.02539 0)
(-0.00787402 0.52906 0)
(0.0163984 1.59756 -4.42359e-21)
(-0.0186143 0.857881 0)
(-0.0537998 1.56195 -2.2543e-19)
(-0.0161714 0.808783 4.36532e-19)
(-0.00310021 1.05351 0)
(0.00988441 1.0703 0)
(-0.000591973 0.545144 0)
(0.0081597 1.21147 0)
(-0.000192522 0.635581 0)
(1.46511 -0.00421664 0)
(0.78728 0.0077934 0)
(1.43824 0.0329013 0)
(0.760737 -0.0006669 0)
(0.676057 0.00525438 0)
(1.26344 0.016525 0)
(1.20427 0.0472246 0)
(0.660568 0.0154568 0)
(-0.00580093 1.42077 -1.70817e-20)
(0.000184194 1.37708 0)
(0.00482005 0.732923 0)
(0.00172882 0.417221 0)
(0.291135 0.84326 0)
(0.259201 0.407716 -2.87839e-19)
(-0.0013016 0.636742 0)
(-0.00860402 0.367786 0)
(0.00382508 4.38628 0)
(-0.0536893 4.64042 0)
(-0.0252535 4.57862 0)
(-0.0727412 3.28354 2.06147e-20)
(-0.0654921 4.5352 0)
(-0.0551353 4.09608 0)
(0.00379486 0.802835 1.08185e-20)
(0.012781 1.52883 1.65222e-19)
(-0.0352615 1.46792 1.20806e-19)
(-0.00806672 0.807766 0)
(0.670987 0.106417 1.15304e-18)
(0.328213 0.0441773 -1.13005e-18)
(0.15141 1.15279 0)
(0.102473 0.583697 -2.70265e-19)
(0.119609 1.25244 -8.76605e-19)
(0.0520721 0.697704 8.72117e-19)
(0.809397 0.0240196 0)
(1.55705 0.0476074 0)
(1.70986 0.127614 0)
(0.919964 0.0444964 0)
(0.00663632 1.22658 0)
(0.0241574 1.23794 0)
(0.00359964 0.6525 0)
(0.494321 0.322976 1.20799e-18)
(0.447545 0.317329 -1.39211e-18)
(0.240431 0.168195 0)
(1.92336 0.150382 1.1509e-19)
(1.12833 0.0917867 0)
(1.71587 0.117376 0)
(0.879907 0.0221802 0)
(0.683342 0.085883 0)
(0.703873 0.0462446 -5.40257e-18)
(0.348581 0.0325656 1.99747e-18)
(0.00906552 0.807152 1.70096e-18)
(0.0021976 0.46246 4.08111e-20)
(-0.0108777 1.40842 -3.5923e-20)
(0.00613614 1.38675 1.37043e-18)
(-0.0149832 0.848955 6.31592e-20)
(-0.0119261 0.524486 -2.53754e-22)
(-0.107514 1.00068 -1.16861e-18)
(-0.0529602 1.3532 8.36667e-19)
(-0.0175323 1.35275 -1.3623e-18)
(1.421 -0.0172597 0)
(1.44109 0.0201046 0)
(0.769061 -0.000312329 0)
(1.4526 0.0253139 0)
(1.36378 0.0461753 0)
(0.761811 0.0202619 0)
(1.30175 -0.00226537 0)
(1.31949 -0.00597125 0)
(0.695573 -0.00107281 0)
(0.31151 0.483951 -9.17979e-19)
(0.164843 0.247912 0)
(0.160742 0.315425 1.37596e-19)
(0.316607 0.599724 1.12719e-18)
(0.314713 0.561777 -6.673e-19)
(0.160403 0.288535 1.30391e-18)
(0.284825 0.735209 2.19209e-18)
(0.151597 0.389852 3.95558e-19)
(0.646428 0.216452 1.5394e-18)
(0.63706 0.257997 3.9985e-19)
(0.321578 0.116647 7.50473e-19)
(1.89638 0.703398 -6.02227e-19)
(1.15363 0.33089 -7.03733e-19)
(-0.0368131 1.69988 4.63046e-19)
(-0.0125834 0.922244 0)
(1.59765 0.0228239 0)
(1.51761 0.0647482 0)
(0.850257 0.0263768 0)
(-0.00355962 1.38473 0)
(0.00507197 0.729576 2.50447e-18)
(0.00464988 0.731252 0)
(0.00207023 0.415098 -2.45131e-18)
(-0.0102792 1.38627 5.97949e-19)
(-0.00947488 1.4225 0)
(0.34389 0.49877 2.58688e-19)
(0.367729 0.558095 -8.65345e-19)
(0.175532 0.263335 7.8317e-19)
(-0.0257062 0.767222 -1.67015e-18)
(-0.0259458 0.689747 0)
(-0.0153846 0.412775 0)
(0.029077 1.52318 -1.25701e-20)
(0.0297251 1.55047 -3.64597e-19)
(0.0167319 0.808563 -1.54473e-20)
(0.216746 1.06322 8.93545e-19)
(0.12148 0.51877 -5.94607e-19)
(0.0101868 1.49897 7.31033e-19)
(0.0545816 1.36849 -8.16452e-19)
(0.0258469 0.769706 3.58415e-20)
(0.00746036 1.36613 -3.82328e-18)
(-0.00026154 1.39327 4.42757e-18)
(0.00376624 0.829769 1.7398e-18)
(-0.0138574 0.805062 -1.73263e-18)
(-0.00431601 0.481387 -1.74546e-18)
(-0.0106623 1.41685 -4.51744e-18)
(-0.0152346 1.40032 4.60702e-18)
(0.293609 0.6912 0)
(0.307049 0.649536 -2.29877e-18)
(0.155668 0.339531 9.95214e-19)
(0.2878 0.814534 1.19079e-18)
(0.141936 0.43751 -1.83731e-18)
(2.04006 0.317651 4.15643e-19)
(2.02984 0.539294 0)
(1.20722 0.217895 -4.02024e-19)
(-0.0739623 1.62152 -4.79514e-21)
(-0.0163855 1.68166 0)
(-0.0168174 0.91563 0)
(0.230495 0.963596 -3.24076e-19)
(0.253114 0.886045 -7.09937e-19)
(0.131094 0.473527 1.33064e-18)
(3.1644 -0.442908 0)
(3.34727 -0.414724 1.81055e-18)
(0.0580073 3.5734 0)
(0.0446188 2.91413 0)
(3.15926 0.249877 1.41863e-20)
(3.12356 0.506257 3.7075e-18)
(0.0214961 3.35 -2.76693e-20)
(0.00876452 2.59272 0)
(-0.0408259 1.19646 1.56255e-18)
(0.196941 1.33027 0)
(3.43514 1.60297 -3.25823e-19)
(3.17443 0.272467 -2.96126e-20)
(3.14811 -0.118858 0)
(3.10047 -0.000451859 3.68536e-22)
(0.0378756 2.59836 0)
(0.14791 3.31654 0)
(-0.0616189 2.58234 0)
(-0.0310163 3.45681 3.16017e-19)
(-0.0316781 3.52243 1.99637e-19)
(2.63772 0.0478281 -1.36122e-20)
(3.0443 0.0300357 0)
(3.15192 0.0849181 0)
(-0.0609275 4.59871 0)
(-0.0491771 3.01263 0)
(-0.0785971 3.02007 0)
(0.640265 3.08155 2.68989e-19)
(3.33881 -0.422525 0)
(3.01131 -0.345859 0)
(3.1699 -0.0530965 2.27432e-18)
(3.2927 -0.328746 -2.7386e-18)
(3.10381 -0.125809 0)
(-0.0688699 4.5253 0)
(0.00624041 4.00848 0)
(-0.00143642 4.31032 0)
(-0.0348012 3.18493 0)
(-0.0185241 2.94919 0)
(-0.0379709 2.53056 0)
(2.9732 -0.00355133 0)
(2.8515 0.0482872 -1.80435e-20)
(2.21106 3.0073 -3.27895e-19)
(3.15694 0.0443979 -2.27538e-18)
(3.19038 0.278134 2.76591e-18)
(3.0828 0.117303 0)
(3.39548 0.328791 2.08437e-18)
(3.357 0.484311 -2.70309e-18)
(3.07119 0.418386 0)
(-0.0560967 3.27099 0)
(0.00505914 3.19489 8.54319e-20)
(-0.0308458 2.50585 -6.05085e-20)
(3.68907 0.546868 2.26455e-18)
(3.46033 0.20421 0)
(-0.149902 1.27153 -2.17641e-18)
(-0.0598599 0.881764 -1.35718e-19)
(-0.0805376 1.33889 3.0002e-18)
(-0.0326708 1.27202 -9.03912e-19)
(0.00185544 1.09082 0)
(-0.0266772 1.23936 6.98117e-19)
(-0.114177 1.38787 2.1569e-18)
(-0.0583227 1.34064 -1.32029e-18)
(-0.0769672 1.32057 0)
(1.31622 0.607048 0)
(1.20645 0.69693 0)
(3.52231 2.00452 9.57043e-19)
(3.008 1.90902 -1.19555e-18)
(3.81101 1.6853 0)
(3.34866 1.14129 0)
(3.34951 0.280329 -3.9112e-18)
(2.89912 0.172998 4.83271e-18)
(3.35117 -0.155705 0)
(2.85429 -0.0762938 0)
(3.43642 0.0428389 0)
(3.59382 0.14486 0)
(3.28683 0.119776 0)
(3.55038 0.298417 0)
(3.40844 0.292961 0)
(3.32756 0.217968 0)
(0.0875176 2.8071 0)
(0.0298532 2.10114 0)
(0.115385 3.05671 0)
(0.0897907 2.21067 0)
(0.201993 3.61183 0)
(0.135927 2.69749 -5.59084e-19)
(0.0416447 3.6215 0)
(0.00467069 3.02517 4.05086e-19)
(-0.0315024 3.19203 -5.16356e-19)
(-0.0658652 2.85669 0)
(-0.0288009 2.26128 0)
(-0.0807855 2.95595 0)
(-0.0576021 2.09162 0)
(-0.126504 4.72364 -2.46081e-19)
(-0.0888574 3.89517 2.78305e-19)
(-0.0824397 3.76591 3.09773e-19)
(-0.0552933 2.97772 0)
(-0.112702 3.7535 -4.59574e-19)
(-0.042177 3.1584 -2.95448e-19)
(-0.100291 4.75371 1.92706e-19)
(-0.109149 4.42229 -3.51762e-19)
(-0.0828016 4.29891 -3.79817e-19)
(3.03538 0.0869329 3.35263e-18)
(2.29268 0.031784 -4.22236e-18)
(2.89633 0.131399 -3.32161e-18)
(2.21523 0.0728459 4.14896e-18)
(3.36621 0.0262736 0)
(2.64062 -0.00306334 0)
(3.44969 0.0888975 0)
(3.31692 0.0177876 0)
(2.70207 0.00837422 0)
(3.67297 0.234608 0)
(3.43301 0.0930474 0)
(2.85467 0.0547985 0)
(-0.0281906 4.24819 -1.20683e-20)
(-0.0642038 4.61523 0)
(-0.0684756 4.48058 0)
(-0.0795341 3.43058 8.81384e-20)
(-0.0393802 2.71429 -3.47236e-21)
(-0.0948745 4.65001 1.15299e-19)
(-0.106195 4.47126 -1.16508e-19)
(-0.0893303 4.00838 0)
(-0.0666384 3.94024 0)
(-0.0354869 4.05371 0)
(-0.0793308 3.34013 0)
(-0.0460988 2.3809 0)
(0.929276 3.63169 -6.14557e-19)
(0.906265 2.82429 -1.78967e-19)
(0.436366 2.08954 -2.2908e-19)
(0.253284 2.33322 6.98791e-19)
(1.01075 4.21631 2.63888e-19)
(3.43292 -0.167625 0)
(3.32204 -0.256663 0)
(2.88307 -0.189582 0)
(3.47032 -0.0645239 0)
(3.34581 -0.147961 0)
(3.44892 -0.261126 0)
(3.51948 -0.283709 0)
(3.57944 -0.281285 0)
(3.22507 0.0929167 3.61311e-18)
(2.55602 0.0643154 -4.5688e-18)
(3.09774 0.106036 -3.55653e-18)
(2.51074 0.0563381 4.42523e-18)
(2.20722 3.37655 0)
(1.70961 2.90761 -4.51142e-19)
(2.53554 3.31241 -4.07514e-19)
(2.32844 2.49052 5.4148e-19)
(0.793267 1.24131 2.73238e-18)
(1.45877 0.216406 1.34209e-18)
(3.71235 0.298595 0)
(3.88014 0.564142 -1.84532e-18)
(3.28404 0.239949 -8.22385e-20)
(3.73003 0.433465 0)
(0.253068 1.32015 1.80519e-18)
(-0.00816246 1.20554 -2.89077e-18)
(0.0680918 0.772447 1.62332e-18)
(0.287901 0.471415 -7.51741e-19)
(0.195373 1.39639 8.75239e-19)
(0.0557697 1.24287 0)
(0.0612908 1.09378 -1.1378e-18)
(0.20392 1.45227 -4.11284e-18)
(0.34425 1.57103 0)
(0.00855214 1.29012 1.20102e-19)
(-0.00982892 1.45728 -1.3459e-18)
(-0.0411554 1.30289 1.95665e-18)
(-0.0576543 1.41765 0)
(-0.0206337 1.38216 0)
(0.696382 1.07278 0)
(2.48824 2.47756 -1.06803e-18)
(2.60191 2.1395 3.97553e-19)
(2.75453 2.84666 0)
(3.1826 3.03453 -3.95043e-19)
(3.12829 2.38082 2.80711e-20)
(0.826426 0.606563 -1.83031e-18)
(1.58639 0.700832 -1.6404e-20)
(1.25559 0.458125 8.7342e-19)
(1.30764 0.861887 5.97055e-20)
(0.964229 0.649623 -2.378e-18)
(1.49562 0.726893 0)
(2.0307 1.11497 1.45914e-18)
(2.07098 1.02926 0)
(1.44513 0.806043 0)
(1.0866 0.561086 0)
(3.38753 2.17243 1.0069e-18)
(3.93038 0.749716 -1.86179e-18)
(3.82484 1.20068 0)
(3.50648 0.747098 0)
(1.41108 0.367878 1.33346e-18)
(3.28168 1.84285 -8.52146e-19)
(2.86958 1.66153 1.54717e-18)
(3.76679 1.36745 -1.83365e-18)
(3.09852 0.114387 2.46004e-18)
(3.16888 0.180594 -2.57506e-18)
(2.66236 0.0915075 0)
(3.30648 -0.0399984 0)
(3.20088 -0.0845474 -2.36298e-18)
(2.63162 -0.0322654 2.34217e-18)
(3.9566 0.092225 0)
(3.76039 0.144927 0)
(3.69373 0.155115 0)
(3.58843 0.204496 0)
(3.83264 0.0586239 0)
(3.7261 0.0519439 0)
(-0.0464109 2.53874 0)
(-0.0421572 2.04122 0)
(0.335599 3.97713 -4.13279e-19)
(0.646919 3.31488 -1.61704e-19)
(0.249996 3.02355 -3.61686e-19)
(0.335988 2.53997 5.79396e-19)
(0.438235 3.99671 0)
(0.443945 4.65484 -5.10761e-19)
(0.358198 4.71201 0)
(0.89526 4.38378 -3.79597e-19)
(0.664945 3.84442 9.69741e-19)
(0.572367 4.63372 4.47688e-19)
(0.718247 4.17354 -1.8916e-19)
(0.57809 4.30298 1.52166e-19)
(0.891227 4.63013 -6.65082e-19)
(0.724608 4.6467 0)
(0.835643 4.57395 5.05715e-19)
(-0.0147278 4.55285 -1.81462e-19)
(-0.0292682 3.63684 0)
(0.0811662 4.2798 5.49077e-19)
(-0.021365 4.37661 0)
(-0.0134505 3.46138 -4.50468e-19)
(-0.0209396 2.91116 0)
(-0.117919 4.32086 -2.91236e-19)
(-0.125378 4.66734 0)
(-0.0683758 3.82828 0)
(-0.0559835 3.76609 3.27523e-19)
(-0.0581942 3.85681 1.0372e-20)
(-0.0442398 3.69038 6.25188e-19)
(-0.0448084 2.92824 4.06346e-21)
(-0.131305 4.6865 1.81007e-19)
(-0.121674 4.72257 1.03627e-19)
(-0.0234175 2.68989 0)
(-0.00322885 2.19958 0)
(-0.0640619 4.76757 4.88106e-19)
(-0.0701543 4.31518 4.27688e-19)
(-0.103733 4.57923 -5.58309e-19)
(-0.00774168 4.74077 0)
(-0.0915405 4.47886 -3.11605e-19)
(-0.126971 4.09661 1.28641e-19)
(-0.0949599 4.19363 -4.15653e-20)
(-0.0877638 4.70312 -2.19875e-19)
(-0.0986493 4.22104 -6.87951e-20)
(-0.0947971 4.17128 3.07203e-19)
(2.87349 0.060409 -2.35962e-18)
(2.86182 0.0488235 2.26906e-18)
(2.34082 0.0341661 0)
(3.51646 0.188933 3.04094e-18)
(2.71091 0.125201 -3.29914e-18)
(2.26148 0.0635263 3.60367e-18)
(3.69008 0.330721 -4.00906e-19)
(3.20877 -0.049094 0)
(3.17047 -0.0144089 2.23365e-18)
(2.6893 -0.0127398 -2.21604e-18)
(3.87499 0.119083 -1.25041e-19)
(3.76909 0.0995714 1.07663e-18)
(4.15728 0.169199 0)
(4.22707 0.176802 -3.74498e-19)
(4.01564 0.142274 0)
(3.69809 0.153202 0)
(4.03261 0.0938533 0)
(3.71275 0.0862889 0)
(4.18468 0.110965 7.84127e-19)
(4.13771 0.0768531 -1.74504e-18)
(4.13921 0.111143 -8.46671e-19)
(4.18528 0.113611 -9.22942e-19)
(4.21327 0.224125 1.7712e-18)
(3.8508 0.185406 0)
(4.05597 0.295337 0)
(-0.0871309 4.52271 -1.36619e-19)
(-0.0416334 4.59718 -1.17208e-20)
(-0.0782539 4.6235 0)
(-0.0645262 4.12508 1.39077e-19)
(-0.0603148 4.1489 2.25778e-20)
(-0.0639774 4.00857 -2.19178e-20)
(-0.0855411 3.4681 2.61364e-19)
(-0.152026 3.94405 -1.45369e-20)
(-0.11392 4.08 7.49622e-20)
(-0.0790821 3.33776 -1.32287e-19)
(-0.0276384 2.86524 1.58449e-19)
(-0.0895827 4.45486 5.21174e-21)
(-0.105769 4.63257 1.71167e-19)
(1.218 4.32499 3.50035e-19)
(1.13401 4.50188 7.26116e-19)
(1.70776 3.42534 4.36209e-19)
(1.28493 3.52168 1.7204e-19)
(1.26473 2.85325 0)
(0.555216 2.35971 2.75848e-19)
(0.469897 1.77482 3.32e-19)
(0.34568 2.60508 1.53653e-20)
(0.491524 3.21699 -1.16204e-18)
(0.6341 3.17603 8.78584e-19)
(0.436694 2.4436 0)
(0.296788 2.00474 -5.58937e-19)
(0.252674 3.10473 1.39617e-18)
(0.269663 2.75216 -3.21538e-20)
(0.155459 2.30443 -1.75062e-18)
(0.605782 1.44437 1.47025e-18)
(0.588622 1.6529 0)
(3.58362 -0.0753496 8.63158e-20)
(3.61856 -0.254274 -7.2498e-20)
(3.72126 -0.217971 -1.26479e-18)
(3.75921 -0.126316 1.28065e-18)
(3.67614 -0.0491484 0)
(2.42119 3.84233 0)
(2.6 3.8889 0)
(2.86939 3.59528 0)
(2.72012 3.62292 0)
(0.874399 1.42671 -3.53939e-21)
(0.626622 1.06386 0)
(1.73333 3.43077 1.50445e-20)
(1.43087 3.50131 0)
(1.34873 3.00411 -1.28798e-18)
(1.42961 2.93986 8.26929e-19)
(1.80691 0.310684 0)
(1.44444 0.262902 3.51997e-19)
(2.42662 0.357452 2.18953e-18)
(1.79958 0.284008 -7.8499e-19)
(1.43595 0.11194 -2.49245e-18)
(4.2618 0.777942 -2.56129e-18)
(3.86632 0.984681 -3.62588e-20)
(3.31946 0.838137 2.06528e-18)
(3.88863 0.736665 1.81064e-18)
(3.13864 0.461859 -3.04084e-18)
(2.92687 0.449066 3.74541e-19)
(3.21367 0.678632 -8.17705e-19)
(2.99585 0.677947 0)
(3.77146 0.556916 1.53516e-18)
(4.10317 0.620412 0)
(4.09903 0.765147 0)
(4.03765 0.408939 8.22499e-19)
(4.2931 0.63242 -3.04686e-20)
(4.23838 0.703954 -4.51999e-19)
(4.16606 0.631705 0)
(3.61994 0.127847 1.71503e-18)
(4.19062 0.179178 2.14012e-18)
(4.09263 0.148309 -1.67635e-18)
(4.13938 0.235979 -1.4401e-18)
(3.75063 0.234347 -2.15242e-18)
(3.31566 0.372681 0)
(3.41183 0.298589 0)
(2.56768 0.189309 -1.26403e-18)
(2.11836 0.118394 4.76081e-19)
(4.04095 0.347337 1.93643e-18)
(4.28455 0.424801 -2.34323e-18)
(4.28679 0.480867 2.06572e-18)
(4.16098 0.484484 0)
(4.2545 0.32981 0)
(4.26361 0.318188 -9.77304e-19)
(4.21463 0.310492 -1.5933e-18)
(2.24389 3.51001 6.20096e-19)
(1.96345 3.26975 -6.84207e-19)
(1.47702 2.40168 -1.03504e-18)
(1.21481 2.03733 2.67686e-19)
(0.905252 1.41009 -2.63858e-18)
(0.812051 1.24234 9.24816e-19)
(0.61466 0.924425 -1.887e-21)
(1.14092 1.82287 -1.14157e-18)
(1.16907 1.92306 1.70412e-18)
(0.99736 1.7345 5.07606e-19)
(0.80377 1.3158 -5.14251e-19)
(0.649256 1.09646 0)
(2.47773 2.63068 -1.15429e-19)
(0.734314 1.16216 8.61401e-19)
(0.956578 0.913678 1.16102e-18)
(0.78109 0.832159 1.34451e-18)
(1.11226 0.765855 1.34602e-18)
(1.50479 1.06916 -2.27799e-18)
(1.42009 1.09779 1.84588e-18)
(1.03015 0.786801 -6.79611e-19)
(0.839207 0.583641 1.50048e-18)
(1.63936 0.495629 -7.78403e-19)
(1.58512 0.515595 0)
(1.2598 0.412717 4.84728e-21)
(2.54831 1.53101 7.77056e-19)
(2.12211 1.289 -2.81437e-18)
(1.72712 1.20912 9.79009e-21)
(1.69989 1.11308 0)
(2.88476 2.60319 8.73677e-19)
(3.43746 2.73541 1.03573e-18)
(3.24957 2.91984 -1.19393e-18)
(3.53607 2.74255 -4.27827e-19)
(3.45639 2.57327 -1.34989e-19)
(3.48774 2.76706 1.38801e-19)
(3.67641 2.24978 -1.67718e-18)
(3.68997 2.47518 4.01335e-19)
(3.76195 2.41046 0)
(3.76154 2.16811 -5.79311e-19)
(4.05338 1.06188 5.79832e-19)
(4.26707 0.979341 1.00106e-18)
(4.29454 0.952547 1.0102e-18)
(4.05625 1.31504 -1.14818e-18)
(4.09011 1.33203 0)
(4.13817 1.21646 0)
(3.35378 1.23113 -1.48965e-20)
(2.44657 0.668835 0)
(2.74916 0.743366 9.30497e-19)
(3.26229 0.880019 -2.58947e-20)
(3.7843 1.52404 5.10146e-18)
(3.58431 1.75343 1.3099e-18)
(3.50046 1.53538 -1.34022e-18)
(3.06836 1.37122 1.43698e-18)
(2.79663 1.37557 8.24438e-19)
(2.34634 1.16697 -7.9847e-19)
(3.67182 -0.0860179 1.98176e-18)
(3.89463 -0.029438 0)
(3.85886 -0.0670263 1.34012e-18)
(3.74275 -0.0598641 -2.98345e-18)
(3.98055 0.0366867 1.45977e-18)
(3.90461 0.112764 -3.07831e-18)
(3.74013 0.127328 0)
(3.55669 0.173059 -6.27595e-19)
(3.81208 0.122566 1.6029e-18)
(3.69211 0.19101 -8.21341e-19)
(3.60052 0.170721 5.89818e-19)
(-0.0860532 2.63439 0)
(-0.0573489 3.43119 0)
(-0.038328 2.49771 0)
(-0.0253832 2.00753 0)
(0.0279298 3.94335 6.76402e-19)
(0.123155 3.72493 -1.75251e-19)
(0.29212 4.62758 -2.30582e-19)
(0.228994 4.44598 2.43202e-19)
(-0.0447207 4.29529 -5.01039e-19)
(-0.00912668 4.32531 3.76216e-19)
(0.0768104 3.87606 2.21496e-20)
(-0.00423735 3.57159 -4.69963e-19)
(-0.0231605 3.33408 -6.27604e-20)
(-0.0531466 3.69081 -5.71859e-20)
(0.131778 4.46744 -5.86435e-19)
(0.158853 4.2877 0)
(0.25179 4.62683 2.96021e-19)
(0.24286 4.69389 2.53144e-19)
(0.574515 4.44415 -2.2601e-19)
(0.39771 3.80789 0)
(0.447519 3.65648 -1.11564e-18)
(0.55032 4.02456 7.90537e-19)
(0.457947 4.55793 -6.14663e-19)
(0.348125 4.43385 3.30783e-19)
(0.282176 4.1692 0)
(-0.0558018 4.73899 -5.54993e-19)
(-0.0917064 4.49517 -6.41884e-19)
(-0.0956339 4.71 0)
(-0.0454218 4.33732 -6.13938e-21)
(-0.039614 4.61981 2.74961e-19)
(-0.131967 3.91437 4.51134e-20)
(-0.0649633 3.53661 -6.60286e-19)
(-0.11078 3.96417 1.76001e-19)
(-0.156917 4.52645 2.34596e-19)
(-0.0945341 4.34169 0)
(-0.0770367 3.93443 0)
(-0.0895758 2.97959 2.03724e-19)
(-0.059829 3.702 -6.35658e-20)
(-0.0851251 3.68374 0)
(-0.0922161 2.76069 1.60562e-19)
(-0.0491195 2.26356 -3.10945e-19)
(3.75998 0.0311554 0)
(3.73072 0.00651825 -2.02969e-19)
(4.17914 0.0658639 -1.43769e-18)
(4.08803 0.0442406 0)
(3.87449 0.0159216 0)
(4.14962 0.0355054 -1.24368e-20)
(4.10021 0.0336035 2.37522e-18)
(4.00069 0.0786108 2.841e-18)
(3.75708 0.117346 0)
(3.55961 0.108847 0)
(4.01428 0.0917785 1.41517e-18)
(3.7051 0.114435 0)
(3.47438 0.127597 0)
(-0.0980451 4.65899 0)
(-0.119984 4.64163 1.07888e-20)
(-0.0955419 4.6858 6.42425e-20)
(-0.0736732 3.89056 0)
(-0.125938 4.53582 1.11601e-19)
(-0.0836165 4.27848 -6.40534e-20)
(-0.0694407 3.99901 0)
(1.40422 4.20321 0)
(1.18633 4.55912 -1.29853e-18)
(1.20518 4.48041 0)
(1.55163 4.46193 1.48691e-18)
(1.56687 4.08079 0)
(1.47536 4.33854 -6.08133e-19)
(1.0326 2.28995 -3.4099e-20)
(0.726623 1.68335 -1.75292e-18)
(0.605298 1.2562 2.13855e-18)
(0.722906 1.87584 3.98643e-19)
(0.991943 2.47372 0)
(1.05636 2.42815 0)
(0.733543 1.72623 0)
(0.544074 1.3616 -1.40179e-18)
(1.21367 3.80933 -9.84978e-19)
(1.14179 3.03869 -2.36067e-19)
(1.3388 3.44798 1.93069e-19)
(0.606932 2.08063 0)
(0.631088 1.98323 0)
(0.47056 1.60508 -3.94489e-19)
(0.969607 2.76865 0)
(2.68221 3.56299 0)
(2.40471 3.03226 -1.45527e-18)
(2.56452 3.04212 -8.58494e-20)
(2.43427 3.41959 0)
(2.31156 3.17799 2.22226e-18)
(3.27008 3.07159 -3.89809e-19)
(3.1111 3.29663 0)
(3.0955 3.12274 6.30838e-19)
(2.85973 3.40112 0)
(2.87968 3.19808 0)
(1.23677 2.05159 -9.33759e-19)
(1.4445 2.45287 -7.01322e-19)
(1.7807 3.02713 1.20822e-18)
(1.72277 3.00762 -3.6327e-19)
(1.08669 1.86394 0)
(1.23066 2.25506 4.72424e-19)
(0.735702 1.31901 -7.18252e-19)
(0.595437 1.06865 -6.15054e-22)
(1.94917 3.72427 0)
(2.20595 3.75669 -5.42285e-19)
(2.33184 3.97756 0)
(2.30518 0.527587 0)
(1.63471 0.342924 0)
(1.2245 0.278419 0)
(2.23316 0.554244 -1.46497e-18)
(1.65664 0.40445 8.17545e-19)
(2.15612 0.128312 -9.83727e-19)
(2.63951 0.295667 0)
(2.47893 0.300167 4.13003e-19)
(1.78079 0.135176 1.63111e-18)
(1.53888 0.0810943 -1.03575e-18)
(0.76263 1.58449 8.60891e-19)
(0.983117 1.85429 0)
(0.550466 1.46464 1.56716e-18)
(0.539672 1.63662 -1.43067e-18)
(0.779905 1.84106 -9.93135e-19)
(2.1109 2.49615 1.34071e-18)
(2.13311 2.74715 0)
(1.62619 1.71359 -2.77338e-19)
(2.05271 2.02284 1.74807e-18)
(1.39957 1.32414 -4.25073e-19)
(1.63033 1.3435 4.52323e-19)
(2.15333 1.5369 1.0258e-18)
(2.48576 1.69013 0)
(2.31798 1.8821 0)
(2.05387 1.63444 0)
(3.94497 2.05894 3.84735e-19)
(3.76601 1.87679 -1.26236e-18)
(3.81827 2.01254 1.04531e-18)
(3.90282 1.75568 -1.00718e-18)
(4.14459 1.65565 0)
(4.09963 1.81995 -2.97681e-19)
(2.87468 1.16607 -1.89821e-18)
(3.00141 1.16295 -2.41208e-18)
(2.36908 1.05104 1.45728e-18)
(2.17381 0.942307 -1.42182e-18)
(2.49584 0.848875 -1.17869e-18)
(2.21115 0.782986 1.44946e-18)
(4.00838 0.0327155 -1.52656e-18)
(4.05269 0.0397623 3.12536e-18)
(3.76754 -0.0665541 1.89807e-18)
(3.79071 -0.0744881 -2.28336e-18)
(3.95897 0.00940547 0)
(4.05574 0.0216664 -3.72398e-18)
(0.0716573 4.74198 1.06852e-19)
(0.0427931 4.71371 0)
(0.163609 4.71471 9.54536e-19)
(0.184786 4.73184 -8.68464e-19)
(0.204635 4.69982 4.29934e-19)
(0.096986 4.64333 0)
(-0.119301 4.74553 0)
(-0.124192 4.41095 -6.23385e-20)
(-0.123699 4.35434 5.58882e-20)
(-0.132195 4.48613 7.56287e-21)
(-0.12291 4.68753 -1.01804e-19)
(-0.100426 4.67644 5.52822e-20)
(1.87514 4.01758 -1.64324e-18)
(1.81256 4.02751 1.74097e-18)
(1.66395 4.3859 -8.54913e-19)
(1.68742 4.2823 7.61882e-20)
(2.23394 4.04872 0)
(1.82971 4.18142 -6.39426e-19)
(1.957 3.92023 6.20109e-19)
(1.79939 4.34865 8.3508e-19)
(2.05513 4.20005 0)
(2.21065 4.08011 0)
(1.14322 3.66849 1.49738e-18)
(0.835689 2.85846 2.02999e-18)
(0.963353 3.03728 -1.39403e-18)
(0.754264 3.01927 -2.32733e-19)
(0.903709 3.7711 4.67359e-19)
(0.724837 3.40838 -1.13667e-18)
(0.763735 1.49942 -1.22031e-18)
(0.76276 1.34798 0)
(0.616283 1.14052 -1.34115e-18)
(1.13376 2.10881 0)
(1.11154 2.19593 0)
(1.39406 2.22644 -1.09444e-18)
(1.09101 2.04979 -1.03953e-18)
(1.04367 2.06824 1.10286e-18)
(1.06799 1.5476 0)
(1.45266 1.79692 -6.0329e-19)
(1.66686 2.15762 -8.56647e-19)
(1.44799 2.11752 0)
(0.895843 1.84423 7.15809e-19)
(0.808116 1.70136 0)
(2.93448 2.30013 -1.84583e-18)
(3.32849 2.46682 2.60614e-18)
(3.29527 2.19148 -2.59031e-18)
(2.64732 2.03926 -2.31268e-19)
(2.76025 1.95392 -9.74302e-19)
(1.29251 2.22919 7.98909e-19)
(1.34703 2.28708 -1.36388e-18)
(1.48921 2.36922 1.79773e-18)
(1.8259 2.59862 -1.16829e-18)
(1.9201 2.97441 -1.56938e-18)
(1.59629 2.53247 -1.18829e-19)
(1.66576 2.67451 1.37488e-18)
(1.84523 2.73529 9.68624e-20)
(2.04814 3.03623 6.51332e-19)
)
;

boundaryField
{
    wall-4
    {
        type            noSlip;
    }
    velocity-inlet-5
    {
        type            fixedValue;
        value           uniform (3 0 0);
    }
    velocity-inlet-6
    {
        type            fixedValue;
        value           uniform (0 1 0);
    }
    pressure-outlet-7
    {
        type            zeroGradient;
    }
    wall-8
    {
        type            noSlip;
    }
    frontAndBackPlanes
    {
        type            empty;
    }
}


// ************************************************************************* //
