/*--------------------------------*- C++ -*----------------------------------*\
  =========                 |
  \\      /  F ield         | OpenFOAM: The Open Source CFD Toolbox
   \\    /   O peration     | Website:  https://openfoam.org
    \\  /    A nd           | Version:  9
     \\/     M anipulation  |
\*---------------------------------------------------------------------------*/
FoamFile
{
    format      ascii;
    class       volScalarField;
    location    "1.09";
    object      epsilon;
}
// * * * * * * * * * * * * * * * * * * * * * * * * * * * * * * * * * * * * * //

dimensions      [0 2 -3 0 0 0 0];

internalField   nonuniform List<scalar> 
2268
(
0.0109284
0.0375352
0.0679362
0.0986478
0.132013
0.174593
0.233829
0.317838
0.430144
0.557497
0.679269
0.783363
0.861604
0.906405
0.923964
0.928898
0.933126
0.942892
0.978914
0.9329
0.723655
0.361883
0.0792115
0.0198587
0.0301861
0.0463896
0.0620729
0.0777016
0.0961747
0.121252
0.156938
0.205809
0.2643
0.325544
0.384821
0.437602
0.476974
0.499277
0.50503
0.498442
0.487415
0.485881
0.461497
0.383388
0.237961
0.105816
0.0344558
0.0348028
0.0466526
0.0591299
0.0723594
0.0888925
0.111985
0.144516
0.187163
0.236934
0.288993
0.340113
0.386489
0.423315
0.447341
0.458181
0.459542
0.458266
0.460164
0.445497
0.390521
0.280114
0.156591
0.0506283
0.0404183
0.0494201
0.0608711
0.074551
0.092963
0.119245
0.155436
0.200715
0.251256
0.302616
0.352282
0.397073
0.43376
0.460425
0.477596
0.488759
0.498318
0.507322
0.500913
0.460318
0.368495
0.232687
0.0667257
0.0462051
0.053089
0.064531
0.0800374
0.102232
0.134209
0.177163
0.228634
0.283489
0.337266
0.38807
0.433428
0.471476
0.501847
0.526352
0.54808
0.568455
0.584873
0.586846
0.564107
0.505979
0.367385
0.0822554
0.0520086
0.0573424
0.0695352
0.0879545
0.115511
0.155238
0.207259
0.267115
0.328148
0.385898
0.43927
0.486617
0.527287
0.562408
0.594951
0.627172
0.657112
0.679431
0.688859
0.689218
0.699385
0.676181
0.0971072
0.0577957
0.0620971
0.07575
0.0981514
0.132672
0.182219
0.245328
0.315128
0.383371
0.445948
0.50289
0.553458
0.59801
0.638843
0.679654
0.721285
0.758137
0.783202
0.796304
0.819739
0.938617
1.34752
0.11127
0.0635605
0.0673277
0.0831674
0.11071
0.153988
0.215548
0.291582
0.372417
0.448277
0.516157
0.577496
0.632537
0.682351
0.729781
0.77857
0.827589
0.867586
0.890948
0.901025
0.932373
1.15233
2.66135
0.18928
0.24916
0.517121
1.00413
1.56553
2.17478
2.66991
2.77185
2.39217
2.13538
2.04767
1.90022
1.62695
1.34836
1.09903
0.839641
0.565036
0.292877
0.0637219
0.206157
0.266459
0.489237
0.72562
0.908155
1.0599
1.21973
1.27339
1.17647
1.08307
1.02594
0.950196
0.834403
0.707691
0.58513
0.458627
0.327583
0.199033
0.0966128
0.296933
0.318311
0.49077
0.659113
0.774806
0.867238
0.989361
1.0478
0.995525
0.929451
0.881854
0.826383
0.741417
0.640562
0.538048
0.434019
0.327734
0.223789
0.160296
0.382847
0.362081
0.498723
0.631949
0.728376
0.799581
0.908713
0.978547
0.953386
0.899053
0.858592
0.816234
0.745966
0.654654
0.55733
0.459184
0.360571
0.266077
0.242401
0.454527
0.402331
0.512825
0.622919
0.706018
0.76665
0.860817
0.937808
0.949195
0.903082
0.869599
0.838273
0.777715
0.690894
0.596183
0.499455
0.402802
0.312867
0.339629
0.523686
0.442433
0.528768
0.622381
0.692179
0.748798
0.831758
0.910851
0.950692
0.913465
0.888453
0.866972
0.814228
0.731206
0.641423
0.546192
0.44869
0.36043
0.443531
0.654843
0.485386
0.543179
0.62458
0.683478
0.741347
0.81783
0.898431
0.944636
0.923074
0.906696
0.888095
0.841058
0.768502
0.689235
0.597318
0.497074
0.407701
0.542845
1.10764
0.54154
0.562696
0.629427
0.683167
0.743987
0.816478
0.896859
0.941826
0.933502
0.926609
0.909735
0.862658
0.799106
0.738706
0.653945
0.547813
0.450968
0.613081
0.132901
0.0724967
0.0762077
0.0966851
0.134291
0.194007
0.277036
0.375168
0.474407
0.563359
0.640532
0.71
0.774433
0.835183
0.894292
0.95442
1.01051
1.04758
1.0563
1.04413
1.03287
1.09293
1.43724
0.152718
0.0826696
0.0894125
0.120344
0.178729
0.270918
0.393307
0.527972
0.654049
0.759263
0.844507
0.922102
1.00094
1.08195
1.1616
1.23579
1.2914
1.31757
1.31682
1.2776
1.20383
1.13247
1.11253
0.165655
0.0914626
0.104103
0.15035
0.2384
0.375249
0.547596
0.723196
0.874568
0.992749
1.08124
1.1654
1.26967
1.39608
1.5218
1.61919
1.66222
1.6771
1.67069
1.59231
1.44518
1.28194
1.15394
0.170529
0.0987801
0.120089
0.186939
0.315374
0.511726
0.745786
0.963174
1.13323
1.25986
1.35113
1.45143
1.57846
1.75632
1.99021
2.12965
2.15016
2.18797
2.18133
2.01768
1.75047
1.4778
1.2712
0.172894
0.106298
0.137951
0.229791
0.41
0.684064
0.994061
1.24473
1.405
1.51238
1.61399
1.75281
1.97594
2.3426
2.60702
2.59184
2.61127
2.81498
2.84914
2.54311
2.09504
1.68065
1.39117
0.180651
0.116671
0.15975
0.279938
0.519837
0.897366
1.3071
1.52411
1.57729
1.63911
1.75378
1.92742
2.20627
2.68154
3.12815
3.14113
3.09778
3.28004
3.30767
2.93234
2.33876
1.81027
1.47028
0.202955
0.134179
0.190071
0.343165
0.653093
1.16226
1.70232
1.66705
1.6135
1.66154
1.78275
1.93629
2.1282
2.39992
2.68764
2.95498
3.23797
3.47043
3.45921
3.04407
2.33778
1.77645
1.44358
0.252701
0.163598
0.23418
0.424519
0.808045
1.37446
1.69711
1.63766
1.592
1.65426
1.79278
1.88886
1.95603
2.0965
2.28752
2.53262
2.84044
3.06109
3.01414
2.59088
2.01854
1.5932
1.34287
0.308872
0.201164
0.29438
0.514429
0.864003
1.22899
1.42657
1.4902
1.5245
1.58729
1.66099
1.72045
1.77078
1.84149
1.95881
2.12295
2.30805
2.39598
2.28503
1.982
1.63932
1.36916
1.20595
0.420829
0.253121
0.346109
0.540166
0.798902
1.0495
1.21914
1.31326
1.38221
1.43009
1.47041
1.51065
1.55959
1.62053
1.69653
1.80489
1.91117
1.93014
1.79989
1.56249
1.33844
1.17334
1.07139
0.493942
0.269757
0.349715
0.512254
0.715027
0.905975
1.04626
1.14326
1.21898
1.27057
1.30457
1.33253
1.36637
1.40823
1.45331
1.51028
1.57026
1.56762
1.44962
1.2688
1.12025
1.0167
0.951952
0.498926
0.259979
0.323612
0.456856
0.621114
0.77639
0.896086
0.98634
1.06056
1.11532
1.14952
1.17137
1.19228
1.21429
1.23115
1.24089
1.23814
1.20567
1.13103
1.03712
0.95365
0.891057
0.849158
0.451775
0.231187
0.280342
0.387765
0.52208
0.652986
0.758871
0.841237
0.909674
0.96286
0.99745
1.01687
1.02904
1.03692
1.0373
1.02773
1.00688
0.973781
0.927999
0.875921
0.827496
0.789523
0.764533
0.379394
0.194227
0.231174
0.315704
0.424407
0.535347
0.630233
0.705733
0.767433
0.816002
0.848902
0.866854
0.87433
0.874441
0.867086
0.852456
0.832552
0.808569
0.780679
0.750684
0.722715
0.70144
0.689924
0.303261
0.158042
0.184665
0.248966
0.334636
0.426813
0.51069
0.57964
0.635174
0.678387
0.708052
0.724378
0.729836
0.727113
0.717842
0.703976
0.688673
0.673161
0.657307
0.641476
0.627692
0.619099
0.618514
0.237809
0.128203
0.146056
0.193097
0.25828
0.332266
0.404202
0.465523
0.514904
0.552898
0.579339
0.594446
0.599694
0.597232
0.589205
0.578112
0.567182
0.557685
0.549611
0.543088
0.539218
0.539986
0.547531
0.193089
0.107462
0.117476
0.150661
0.198666
0.2555
0.313429
0.365548
0.408864
0.442635
0.466681
0.481258
0.487399
0.486781
0.481408
0.473627
0.466287
0.460813
0.457469
0.456513
0.458686
0.465284
0.47786
0.165202
0.0944151
0.0984243
0.120876
0.154808
0.196439
0.240876
0.283135
0.319939
0.349704
0.371812
0.386297
0.393833
0.395651
0.393359
0.388882
0.384518
0.381769
0.381125
0.383028
0.388139
0.397426
0.412056
0.147618
0.0863248
0.0863225
0.100983
0.124342
0.153871
0.186644
0.219394
0.249403
0.274889
0.294898
0.309143
0.317921
0.322021
0.322596
0.321084
0.31922
0.318432
0.319312
0.322428
0.32845
0.33821
0.352663
0.136432
0.0812122
0.0787691
0.0880924
0.10398
0.124598
0.148191
0.17274
0.196305
0.217347
0.234847
0.248303
0.257698
0.263434
0.266242
0.267113
0.267282
0.267976
0.269782
0.273302
0.2792
0.288233
0.301234
0.128854
0.0775887
0.073787
0.0796265
0.090462
0.104861
0.121722
0.139815
0.157859
0.174705
0.189467
0.201592
0.210877
0.217444
0.221694
0.224255
0.225957
0.227763
0.230192
0.233803
0.239208
0.247086
0.258172
0.123007
0.0744841
0.0699852
0.0736306
0.0811532
0.0913601
0.103508
0.116834
0.130519
0.143767
0.155896
0.166413
0.175048
0.181765
0.186739
0.190333
0.193078
0.195676
0.198547
0.202162
0.207045
0.213781
0.223009
0.117784
0.0713903
0.0665598
0.0688441
0.07423
0.0816648
0.0906026
0.10055
0.110982
0.121367
0.131214
0.14013
0.147857
0.154288
0.159467
0.163582
0.166952
0.170072
0.173252
0.176861
0.181322
0.187121
0.194795
0.112652
0.068132
0.0631634
0.0645934
0.0685997
0.0742113
0.0809906
0.0885971
0.0966868
0.104906
0.112915
0.12042
0.127206
0.133148
0.138225
0.14252
0.146215
0.149649
0.153036
0.156647
0.160814
0.165923
0.172416
0.107458
0.0647337
0.0597335
0.0606088
0.0637061
0.0681068
0.0734328
0.0794303
0.0858642
0.0924967
0.0990948
0.105448
0.111386
0.116796
0.121631
0.125915
0.129747
0.133353
0.136872
0.1405
0.144484
0.14913
0.15479
0.102273
0.0613179
0.0563503
0.0568498
0.0593259
0.0629019
0.0672346
0.0721198
0.0773879
0.0828748
0.0884196
0.0938727
0.0991066
0.104027
0.10858
0.112762
0.11663
0.120322
0.123929
0.127587
0.13148
0.135842
0.140956
0.0972774
0.0580371
0.0531421
0.053377
0.0554099
0.0584031
0.0620374
0.0661391
0.0705781
0.0752369
0.0800026
0.0847687
0.0894411
0.0939445
0.0982284
0.102272
0.106132
0.109867
0.113537
0.117237
0.121104
0.125319
0.130104
0.092678
0.0550339
0.0502333
0.050276
0.0519793
0.0545432
0.0576683
0.0612009
0.0650365
0.0690874
0.0732726
0.0775156
0.081747
0.085908
0.0899552
0.0938677
0.0976938
0.101447
0.105164
0.108914
0.1128
0.11696
0.121571
0.0886653
0.0524228
0.0477207
0.0476196
0.0490691
0.0513044
0.0540432
0.0571471
0.0605292
0.0641219
0.0678654
0.0717042
0.075587
0.0794681
0.0833101
0.0871144
0.0908914
0.0946437
0.098395
0.102194
0.106119
0.110279
0.114817
0.0853952
0.0502861
0.045669
0.0454555
0.0467035
0.0486788
0.0511139
0.0538831
0.0569121
0.0601477
0.0635452
0.0670638
0.0706653
0.0743149
0.0779857
0.0816873
0.0854064
0.0891417
0.0929086
0.0967436
0.100708
0.104891
0.109408
0.0829873
0.0486779
0.0441154
0.0438067
0.0448894
0.0466527
0.0488418
0.0513411
0.0540866
0.0570356
0.0601544
0.0634126
0.066781
0.0702317
0.073763
0.0773591
0.0810074
0.0847047
0.0884618
0.0923072
0.0962914
0.100488
0.104997
0.0815321
0.0476327
0.0430774
0.0426782
0.0436184
0.0452032
0.0471876
0.0494642
0.0519774
0.0546925
0.0575835
0.0606271
0.0638002
0.0670901
0.0704861
0.0739704
0.0775308
0.0811634
0.0848762
0.0886936
0.092659
0.0968372
0.101315
0.081097
0.0471728
0.0425613
0.042063
0.0428713
0.0442992
0.0461089
0.0482001
0.0505234
0.0530498
0.0557578
0.0586277
0.0616427
0.0647916
0.0680561
0.0714197
0.0748708
0.0784055
0.0820313
0.0857702
0.0896617
0.0937653
0.0981599
0.0817252
0.0473129
0.0425656
0.0419454
0.0426203
0.0439033
0.0455618
0.0475014
0.0496771
0.052062
0.0546349
0.0573754
0.0602674
0.0632905
0.0664256
0.0696565
0.0729726
0.0763709
0.0798592
0.0834591
0.0872087
0.0911642
0.0954005
0.0834209
0.0480568
0.0430796
0.0423005
0.0428288
0.043972
0.0455019
0.0473291
0.04941
0.0517139
0.0542122
0.056876
0.0596773
0.0625912
0.0655972
0.0686801
0.0718309
0.0750488
0.0783432
0.0817368
0.0852672
0.0889894
0.0929761
0.0861214
0.0493849
0.0440753
0.0430877
0.0434478
0.0444551
0.0458874
0.0476607
0.0497267
0.0520381
0.0545417
0.0571874
0.0599348
0.0627545
0.0656266
0.0685393
0.0714881
0.0744762
0.0775164
0.0806328
0.0838636
0.0872627
0.0909009
0.0896625
0.0512369
0.045494
0.0442418
0.0444103
0.0452943
0.0466857
0.0485081
0.0506934
0.0531443
0.0557567
0.0584515
0.0611771
0.0639056
0.066625
0.069333
0.0720338
0.0747373
0.0774604
0.0802295
0.083083
0.0860729
0.089267
0.0937518
0.0534924
0.0472325
0.0456634
0.0456255
0.0464246
0.0478892
0.0499602
0.0524996
0.0552816
0.0581249
0.0609231
0.0636309
0.0662404
0.0687614
0.07121
0.0736038
0.0759614
0.0783047
0.0806614
0.0830688
0.0855753
0.0882431
0.0979628
0.0559589
0.0491331
0.0472123
0.046977
0.0477827
0.0495605
0.0523014
0.0555929
0.0589509
0.0621127
0.0649987
0.0676209
0.0700246
0.072259
0.0743659
0.0763785
0.0783238
0.0802268
0.082115
0.0840219
0.0859899
0.0880721
0.101759
0.0583742
0.0509808
0.0487067
0.048323
0.0493241
0.0519425
0.0563455
0.0609763
0.0650569
0.0684332
0.0712138
0.0735522
0.0755781
0.077386
0.0790406
0.0805848
0.0820489
0.083457
0.0848328
0.0862031
0.0876011
0.0890677
0.104582
0.0604147
0.0525071
0.0499283
0.0494949
0.0510253
0.0556301
0.0643766
0.0706566
0.0749716
0.077968
0.0801525
0.0818475
0.0832416
0.0844443
0.0855189
0.0865031
0.0874205
0.0882883
0.0891224
0.0899399
0.0907622
0.0916148
0.105901
0.0616154
0.0533948
0.0506382
0.0502639
0.0526361
0.0609079
0.0818116
0.0875628
0.0900259
0.0913648
0.0922216
0.0928453
0.0933439
0.0937684
0.0941445
0.094486
0.0948008
0.0950946
0.0953725
0.0956404
0.0959056
0.096177
2.98798
2.47791
2.21522
2.13439
1.15347
1.11501
1.06067
0.993135
1.08855
1.05188
1.02162
0.997396
1.17079
1.12517
1.09617
1.0818
1.26042
1.20392
1.1702
1.15437
1.31714
1.24839
1.2087
1.19177
1.3087
1.24421
1.19749
1.17166
1.23903
1.18373
1.14045
1.11355
1.13145
1.0901
1.05841
1.03758
1.02027
0.991737
0.970828
0.957443
0.918861
0.901392
0.888729
0.8813
0.829592
0.82075
0.815515
0.813841
0.755664
0.753161
0.753692
0.757181
0.689826
0.692567
0.698049
0.70621
0.625504
0.632524
0.642062
0.654066
0.559564
0.569664
0.582088
0.59673
0.492732
0.504574
0.518432
0.53429
0.427717
0.440013
0.454099
0.469983
0.367536
0.379217
0.392499
0.407409
0.31439
0.324773
0.336569
0.349822
0.269277
0.278082
0.2881
0.299387
0.232143
0.239399
0.247664
0.256997
0.202257
0.208172
0.214901
0.222505
0.178575
0.183425
0.188918
0.195112
0.159999
0.164056
0.168617
0.173733
0.145512
0.149012
0.152908
0.157242
0.134239
0.137369
0.140813
0.144607
0.125455
0.128352
0.131504
0.134942
0.118564
0.121323
0.124296
0.127508
0.113086
0.115766
0.118631
0.121702
0.108637
0.111265
0.114057
0.117033
0.104912
0.107489
0.110217
0.113112
0.101683
0.10419
0.106838
0.109641
0.0987952
0.101197
0.103731
0.10641
0.0961726
0.0984217
0.100793
0.103301
0.0938205
0.0958633
0.0980181
0.100299
0.091831
0.0936149
0.0954981
0.0974937
0.090383
0.0918631
0.0934267
0.0950862
0.0897382
0.0908833
0.0920937
0.0933802
0.0902356
0.0910327
0.0918753
0.0927719
0.0922885
0.0927449
0.0932268
0.0937402
0.0963895
0.0965322
0.0966829
0.0968438
0.761575
0.591868
0.613126
0.660208
0.706819
0.765443
0.832035
0.909764
0.956291
0.955525
0.963592
0.953606
0.903759
0.844078
0.819454
0.752404
0.615817
0.505108
0.672391
0.827689
0.75619
0.779579
0.837055
0.855376
0.866484
0.905817
0.973318
1.03608
1.03394
1.05879
1.06139
0.988901
0.910066
0.884167
0.792537
0.652805
0.598527
0.864986
0.967344
0.978013
1.05466
1.16315
1.15307
1.05504
1.024
1.07396
1.18831
1.18252
1.232
1.26818
1.13172
0.981259
0.888775
0.804002
0.713765
0.702771
1.0818
1.07927
1.12686
1.21339
1.30311
1.27985
1.18405
1.12759
1.14537
1.22504
1.28648
1.5013
1.6551
1.34577
1.07221
0.966786
0.874666
0.780796
0.794138
1.22412
1.15077
1.18698
1.23888
1.27894
1.27309
1.22838
1.18723
1.17326
1.23381
1.3329
1.68755
2.04985
1.56841
1.1961
1.03778
0.919829
0.834594
0.863934
1.32822
1.18844
1.21744
1.25797
1.2793
1.28497
1.25379
1.21184
1.19456
1.20905
1.26805
1.48761
1.82387
1.6783
1.28819
1.09714
0.963447
0.877927
0.898401
1.36784
1.15786
1.18574
1.22014
1.23491
1.23608
1.21096
1.16811
1.14236
1.14241
1.18508
1.3228
1.5207
1.53946
1.35706
1.20082
1.04795
0.924262
0.906563
1.29946
1.09303
1.10583
1.12714
1.14399
1.14658
1.13199
1.10556
1.08667
1.08768
1.12349
1.219
1.35394
1.41337
1.42156
1.36819
1.18528
0.976624
0.896547
1.16861
1.01957
1.02447
1.04314
1.06649
1.0826
1.07632
1.06121
1.05131
1.05793
1.09222
1.17044
1.28829
1.37941
1.45559
1.407
1.21096
0.988764
0.846127
1.00629
0.946175
0.952854
0.974218
1.00282
1.0267
1.03378
1.03533
1.03721
1.04906
1.08423
1.15016
1.26503
1.37911
1.45219
1.341
1.13344
0.92638
0.779793
0.826257
0.876768
0.887098
0.909769
0.939683
0.970349
0.995922
1.0155
1.03125
1.0493
1.08371
1.13894
1.22391
1.31987
1.34873
1.23561
1.04809
0.858822
0.700202
0.667991
0.816403
0.834011
0.862351
0.898129
0.936907
0.973457
1.00442
1.02922
1.05006
1.07491
1.10843
1.15262
1.1949
1.1831
1.08043
0.935505
0.792024
0.611899
0.538102
0.767044
0.793582
0.830106
0.873858
0.921104
0.966758
1.00652
1.03757
1.05811
1.07104
1.08054
1.08698
1.08156
1.04074
0.954665
0.853267
0.751991
0.640421
0.60038
0.723224
0.758978
0.804258
0.856371
0.91168
0.965274
1.0124
1.04884
1.07067
1.07762
1.07257
1.0578
1.0301
0.981173
0.908912
0.823881
0.734465
0.658758
0.705432
0.677317
0.72108
0.7739
0.832981
0.894556
0.953876
1.00612
1.04663
1.07106
1.07759
1.06823
1.04649
1.01235
0.962268
0.892733
0.806229
0.717729
0.663147
0.792334
0.624478
0.673763
0.731607
0.795077
0.860205
0.922264
0.976453
1.01818
1.04343
1.05023
1.04024
1.01638
0.97932
0.926869
0.856385
0.771339
0.692041
0.654858
0.858539
0.564143
0.615735
0.675488
0.740338
0.806137
0.868039
0.921164
0.961171
0.984635
0.990168
0.979203
0.9538
0.914836
0.861675
0.794486
0.719131
0.655695
0.636908
0.902066
0.499551
0.549636
0.608219
0.671576
0.735462
0.794991
0.845215
0.88193
0.90234
0.90579
0.893592
0.867456
0.828829
0.778787
0.719678
0.660041
0.614464
0.614123
0.928076
0.435102
0.481036
0.535005
0.594487
0.654458
0.710128
0.75668
0.790028
0.807754
0.809746
0.797372
0.77241
0.737017
0.693621
0.64589
0.602981
0.574653
0.592263
0.94708
0.374491
0.414991
0.462648
0.515509
0.570195
0.621116
0.663843
0.694428
0.71069
0.712712
0.701965
0.680411
0.65073
0.616047
0.581468
0.553227
0.540143
0.57356
0.960669
0.320478
0.354978
0.395807
0.441435
0.489037
0.534541
0.573586
0.602074
0.618082
0.621629
0.614202
0.597854
0.575498
0.550485
0.5282
0.512546
0.511508
0.556769
0.963804
0.274502
0.303115
0.337219
0.375692
0.416334
0.45594
0.49083
0.517576
0.534113
0.54019
0.537148
0.526994
0.512646
0.497595
0.485613
0.480008
0.488215
0.541788
0.959122
0.236792
0.260131
0.28813
0.320028
0.354199
0.388187
0.419053
0.44399
0.461112
0.470006
0.471728
0.468028
0.461479
0.455189
0.451757
0.454115
0.469253
0.528215
0.947615
0.206742
0.225687
0.24851
0.274738
0.303231
0.332177
0.359331
0.382474
0.400001
0.411501
0.417652
0.419873
0.420298
0.421252
0.424746
0.433312
0.453497
0.515477
0.929464
0.183305
0.198798
0.217476
0.239079
0.262845
0.287491
0.311368
0.332785
0.350437
0.364049
0.373895
0.381059
0.387194
0.393975
0.40292
0.416187
0.439895
0.503055
0.905064
0.165302
0.178213
0.193726
0.211728
0.231735
0.252874
0.273975
0.293804
0.311392
0.326456
0.339102
0.350082
0.360563
0.371832
0.384871
0.401516
0.427499
0.490552
0.876237
0.151606
0.162666
0.175858
0.191163
0.208295
0.226679
0.245511
0.263907
0.281262
0.297212
0.3118
0.325512
0.339131
0.353549
0.369434
0.388278
0.415488
0.477739
0.847945
0.141227
0.151008
0.162557
0.175908
0.190908
0.207194
0.224233
0.241427
0.258368
0.274736
0.290521
0.306011
0.321675
0.338036
0.355685
0.375731
0.403344
0.464693
0.826016
0.13333
0.142256
0.152674
0.164646
0.178106
0.192832
0.208483
0.224671
0.241099
0.257526
0.273907
0.290382
0.30719
0.32459
0.34296
0.363449
0.390947
0.451434
0.80813
0.127227
0.135592
0.145245
0.156263
0.168628
0.182211
0.196794
0.212138
0.228013
0.244241
0.260759
0.2776
0.294838
0.312547
0.33095
0.351192
0.3783
0.437719
0.787854
0.122356
0.130346
0.139479
0.149836
0.161426
0.174176
0.187943
0.202572
0.217885
0.233745
0.250071
0.266825
0.283968
0.301454
0.319424
0.339001
0.365342
0.423453
0.764166
0.11827
0.12598
0.134736
0.144617
0.155647
0.167782
0.180922
0.194946
0.209714
0.225106
0.241027
0.25739
0.274083
0.290999
0.308248
0.32696
0.352257
0.408765
0.739313
0.114623
0.122073
0.130509
0.14001
0.150606
0.162269
0.174915
0.188431
0.202693
0.217583
0.232988
0.248783
0.264821
0.280973
0.29736
0.315133
0.33932
0.393723
0.715614
0.111165
0.118315
0.126416
0.135554
0.145767
0.157032
0.169273
0.182366
0.196185
0.210597
0.225461
0.240624
0.255921
0.271233
0.286716
0.303551
0.326606
0.378582
0.689808
0.107754
0.114509
0.122199
0.13092
0.140725
0.151604
0.163488
0.176232
0.189692
0.203702
0.218082
0.232644
0.247212
0.261694
0.276302
0.292256
0.314299
0.3641
0.662255
0.104352
0.11058
0.117728
0.125913
0.135214
0.14565
0.15717
0.169623
0.182831
0.196573
0.210604
0.224682
0.238617
0.252352
0.266171
0.281368
0.302668
0.351424
0.643526
0.101047
0.10659
0.113023
0.120491
0.129116
0.138969
0.15005
0.162248
0.175334
0.189004
0.202899
0.216691
0.230163
0.243293
0.256464
0.271089
0.292016
0.340876
0.63247
0.0980481
0.102744
0.108268
0.114795
0.122498
0.131537
0.142021
0.15395
0.167076
0.180941
0.194996
0.208771
0.222003
0.234714
0.247409
0.261691
0.282694
0.332521
0.625771
0.0956815
0.0993921
0.103822
0.109163
0.115643
0.123535
0.133146
0.144733
0.158149
0.172574
0.187144
0.201204
0.214438
0.226931
0.239332
0.253513
0.275075
0.326767
0.624151
0.0943794
0.0970133
0.100205
0.10414
0.109075
0.115391
0.12368
0.13475
0.148975
0.164453
0.179899
0.194499
0.207929
0.220365
0.232635
0.246917
0.269433
0.324276
0.632703
0.0946625
0.0961963
0.0980819
0.100459
0.103553
0.107775
0.113984
0.123991
0.140418
0.15759
0.17413
0.189354
0.203045
0.215507
0.22775
0.242258
0.265969
0.3256
0.659729
0.0971341
0.0976235
0.098233
0.0990163
0.100072
0.101626
0.104363
0.110968
0.133953
0.153275
0.170757
0.186439
0.200323
0.212824
0.225087
0.239846
0.264861
0.331098
0.706762
)
;

boundaryField
{
    leftWall
    {
        type            epsilonWallFunction;
        value           nonuniform List<scalar> 
50
(
0.0109284
0.0198587
0.0344558
0.0506283
0.0667257
0.0822554
0.0971072
0.11127
0.132901
0.152718
0.165655
0.170529
0.172894
0.180651
0.202955
0.252701
0.308872
0.420829
0.493942
0.498926
0.451775
0.379394
0.303261
0.237809
0.193089
0.165202
0.147618
0.136432
0.128854
0.123007
0.117784
0.112652
0.107458
0.102273
0.0972774
0.092678
0.0886653
0.0853952
0.0829873
0.0815321
0.081097
0.0817252
0.0834209
0.0861214
0.0896625
0.0937518
0.0979628
0.101759
0.104582
0.105901
)
;
    }
    rightWall
    {
        type            epsilonWallFunction;
        value           nonuniform List<scalar> 
50
(
0.0637219
0.0966128
0.160296
0.242401
0.339629
0.443531
0.542845
0.613081
0.672391
0.864986
1.0818
1.22412
1.32822
1.36784
1.29946
1.16861
1.00629
0.826257
0.667991
0.538102
0.60038
0.705432
0.792334
0.858539
0.902066
0.928076
0.94708
0.960669
0.963804
0.959122
0.947615
0.929464
0.905064
0.876237
0.847945
0.826016
0.80813
0.787854
0.764166
0.739313
0.715614
0.689808
0.662255
0.643526
0.63247
0.625771
0.624151
0.632703
0.659729
0.706762
)
;
    }
    lowerWall
    {
        type            epsilonWallFunction;
        value           nonuniform List<scalar> 
62
(
0.0109284
0.0375352
0.0679362
0.0986478
0.132013
0.174593
0.233829
0.317838
0.430144
0.557497
0.679269
0.783363
0.861604
0.906405
0.923964
0.928898
0.933126
0.942892
0.978914
0.9329
0.723655
0.361883
0.0792115
0.0792115
0.105816
0.156591
0.232687
0.367385
0.676181
1.34752
2.66135
2.98798
2.47791
2.21522
2.13439
0.18928
0.206157
0.296933
0.382847
0.454527
0.523686
0.654843
1.10764
0.18928
0.24916
0.517121
1.00413
1.56553
2.17478
2.66991
2.77185
2.39217
2.13538
2.04767
1.90022
1.62695
1.34836
1.09903
0.839641
0.565036
0.292877
0.0637219
)
;
    }
    atmosphere
    {
        type            inletOutlet;
        inletValue      uniform 0.1;
        value           nonuniform List<scalar> 
46
(
0.105901
0.0616154
0.0533948
0.0506382
0.0502639
0.0526361
0.0609079
0.1
0.1
0.1
0.1
0.1
0.1
0.1
0.1
0.1
0.1
0.1
0.1
0.1
0.1
0.1
0.1
0.1
0.1
0.1
0.1
0.1
0.1
0.1
0.1
0.1
0.1
0.1
0.1
0.133953
0.153275
0.170757
0.186439
0.200323
0.212824
0.225087
0.239846
0.264861
0.331098
0.706762
)
;
    }
    defaultFaces
    {
        type            empty;
    }
}


// ************************************************************************* //
