/*--------------------------------*- C++ -*----------------------------------*\
  =========                 |
  \\      /  F ield         | OpenFOAM: The Open Source CFD Toolbox
   \\    /   O peration     | Website:  https://openfoam.org
    \\  /    A nd           | Version:  9
     \\/     M anipulation  |
\*---------------------------------------------------------------------------*/
FoamFile
{
    format      ascii;
    class       volScalarField;
    location    "1.09";
    object      nut;
}
// * * * * * * * * * * * * * * * * * * * * * * * * * * * * * * * * * * * * * //

dimensions      [0 2 -1 0 0 0 0];

internalField   nonuniform List<scalar> 
2268
(
4.40665e-05
4.40244e-05
5.35766e-05
6.074e-05
6.70667e-05
7.38197e-05
8.16369e-05
9.0729e-05
0.000100366
0.00010913
0.000116081
0.00012144
0.000124991
0.000126922
0.000127717
0.000128128
0.000128696
0.000129701
0.000131796
0.00012981
0.000119167
9.43556e-05
5.68845e-05
9.68818e-05
0.000353928
0.000461626
0.000545532
0.000634131
0.000738643
0.000860235
0.0009882
0.00109424
0.00117363
0.00122672
0.00125219
0.00124818
0.00122587
0.00120433
0.00119944
0.00122107
0.00126084
0.00125787
0.00119897
0.00104392
0.000744134
0.000169708
0.000116159
0.000609904
0.000858635
0.00104818
0.00124328
0.00146264
0.0017035
0.00194086
0.00214427
0.00229946
0.00240405
0.00245558
0.00245635
0.00242421
0.0023872
0.00237004
0.00238039
0.00238993
0.00232253
0.0021349
0.00176309
0.00115988
0.000193245
0.000131895
0.000812434
0.00120491
0.00149714
0.00178137
0.00208076
0.00239168
0.0026915
0.00295699
0.00317121
0.00332622
0.00341575
0.00344186
0.00342113
0.00338127
0.00334681
0.00332016
0.00326477
0.00310493
0.0027813
0.00221677
0.0013722
0.00022081
0.000144607
0.000979396
0.0015117
0.00189721
0.00224873
0.00259728
0.00294502
0.00328061
0.00358745
0.00384729
0.00404728
0.00417727
0.00423634
0.00423639
0.00420031
0.00414901
0.00408222
0.00396348
0.00372175
0.0032852
0.00256007
0.00151563
0.000258093
0.000155039
0.00112094
0.00178396
0.00225081
0.00265019
0.00302714
0.00339639
0.00375829
0.00409868
0.00439658
0.00463552
0.00480291
0.0048945
0.00491687
0.00488722
0.00482316
0.00472512
0.00456105
0.00426442
0.00375097
0.00289671
0.00166111
0.000318719
0.000163834
0.00124229
0.00202446
0.00255998
0.00299229
0.00338679
0.00377472
0.00416337
0.00453638
0.00486842
0.00514102
0.00534079
0.00546096
0.00550353
0.00548114
0.0054101
0.00529412
0.00510723
0.00478862
0.00424442
0.00330668
0.00187087
0.000403202
0.000171428
0.00134686
0.00223563
0.00282767
0.0032831
0.00369257
0.00410325
0.00452355
0.00493078
0.00529447
0.00559621
0.00582312
0.00596701
0.00602651
0.00601156
0.0059395
0.00581877
0.00562961
0.00532094
0.00480203
0.00387302
0.00227736
0.000505912
7.47844e-05
8.12813e-05
0.000102642
0.00012924
0.000150553
0.000168411
0.000181071
0.000183819
0.000174821
0.000167942
0.00016582
0.000162393
0.000154606
0.000145578
0.000136028
0.000124522
0.00010939
8.8095e-05
8.23856e-05
0.000239454
0.000448493
0.000562073
0.000769016
0.00107422
0.00138724
0.00158666
0.00167708
0.00164198
0.0015941
0.00158102
0.00156363
0.00151042
0.00142988
0.00132811
0.0012022
0.00103101
0.000765587
0.000190749
0.000269384
0.000776046
0.00103021
0.00144875
0.00201808
0.00256239
0.00295273
0.00313724
0.00309139
0.00301176
0.002983
0.00294336
0.00283757
0.00268115
0.00247794
0.00222102
0.00186507
0.00132045
0.000227212
0.000292285
0.00106324
0.00147441
0.00204749
0.00278091
0.00347115
0.00398192
0.00424155
0.00422446
0.00413163
0.00408327
0.0040145
0.00386127
0.00364159
0.00335933
0.00299356
0.00248729
0.00171803
0.000261134
0.000309879
0.00131747
0.00188127
0.00255894
0.00338414
0.00417435
0.00475879
0.00507838
0.00511186
0.00501504
0.00494912
0.00485215
0.00465838
0.00438679
0.00404367
0.00359204
0.00296562
0.0020134
0.000291712
0.000327489
0.00156287
0.00225594
0.0029916
0.00386792
0.00472982
0.00536547
0.00573165
0.00581504
0.00572474
0.00564672
0.00552502
0.00529646
0.00498135
0.00459037
0.00406904
0.00334185
0.00223332
0.000317828
0.000361669
0.00181961
0.00262574
0.00338077
0.00427141
0.00518026
0.00585186
0.00625483
0.00637706
0.00630797
0.00622436
0.0060794
0.0058193
0.00546875
0.00503866
0.00445708
0.00363915
0.00239133
0.000338908
0.000444333
0.00213284
0.00303613
0.0037747
0.00464662
0.00555908
0.00625042
0.0066831
0.00683969
0.00679576
0.00671146
0.00654711
0.00625866
0.00587362
0.00541152
0.00477558
0.00386911
0.00248857
0.000352915
0.000181782
0.00148822
0.00252401
0.00318796
0.00367307
0.0041121
0.00457101
0.00505019
0.00551358
0.00592457
0.00626512
0.00652615
0.00669971
0.00678059
0.00677706
0.00671105
0.00659863
0.00642686
0.00615302
0.00571479
0.00498308
0.00377059
0.00203834
0.00019054
0.00163306
0.00281385
0.0035425
0.0040686
0.00457684
0.0051333
0.00571102
0.00625321
0.00671698
0.00708748
0.00736927
0.00756095
0.00765609
0.00766458
0.0076183
0.00754406
0.00743764
0.0072638
0.00698719
0.00658282
0.00599344
0.00518475
0.000195955
0.00174758
0.00303454
0.00381173
0.00439782
0.00501009
0.00568834
0.00637242
0.00698846
0.00749106
0.00787159
0.00815529
0.0083614
0.00848215
0.00851384
0.00848708
0.00843646
0.00837094
0.00824892
0.00805049
0.0077997
0.00749109
0.00711987
0.000198228
0.00183886
0.00320601
0.00403121
0.00470085
0.00544156
0.00625311
0.00704235
0.00772201
0.00824908
0.00862279
0.00889254
0.00909118
0.009247
0.00934179
0.00934398
0.00930057
0.00925119
0.00913574
0.00894104
0.008726
0.00851746
0.00830961
0.000199838
0.00190177
0.00334107
0.00422396
0.00499459
0.00587485
0.00682242
0.00770703
0.00842344
0.00894657
0.00930567
0.00955558
0.00976879
0.0100019
0.0100786
0.0100311
0.0100418
0.0100892
0.00995735
0.00971858
0.0094712
0.00928085
0.00914457
0.000203397
0.00196432
0.00346702
0.00440968
0.00528259
0.00630235
0.00738059
0.00830628
0.00898583
0.00947866
0.00982259
0.0100505
0.0102392
0.0105023
0.0106764
0.0106462
0.0106548
0.0107317
0.0106225
0.0103485
0.0100449
0.00984538
0.00976153
0.000211987
0.00208975
0.00362434
0.00461334
0.00557802
0.00672497
0.00790013
0.00870787
0.00932842
0.00981625
0.0101718
0.0103954
0.0105372
0.0106807
0.0107951
0.0108792
0.010994
0.0110833
0.0110015
0.0107391
0.0104298
0.0102596
0.0102125
0.000228311
0.00226854
0.00385013
0.00487931
0.00591898
0.00711046
0.00811636
0.00886508
0.00948519
0.00999149
0.010382
0.0106035
0.0107099
0.0108003
0.0108655
0.0109226
0.0110252
0.0111045
0.0110432
0.01085
0.0106453
0.0105603
0.0105552
0.000245109
0.00247798
0.00413104
0.00518492
0.00619083
0.00716409
0.00799786
0.00881346
0.0094846
0.00999795
0.0103558
0.0105924
0.0107526
0.0108531
0.0109165
0.0109653
0.0110159
0.0110334
0.0109796
0.0108835
0.0107904
0.0107643
0.010786
0.000272647
0.00271348
0.00439173
0.00540269
0.00626826
0.00708211
0.00785922
0.00863925
0.0093088
0.00980537
0.0101539
0.0104143
0.0106254
0.0107747
0.0108737
0.0109587
0.0110199
0.0110348
0.0109909
0.0109022
0.0108516
0.0108629
0.0109127
0.000289047
0.00281181
0.00450822
0.00547005
0.00624224
0.00695999
0.00766602
0.00837819
0.0090107
0.00950376
0.00986603
0.0101424
0.010369
0.0105474
0.010683
0.0107952
0.0108876
0.0109222
0.0108761
0.0108083
0.0108031
0.0108573
0.0109486
0.000290945
0.00280343
0.00449711
0.00542169
0.00612987
0.00677905
0.00741746
0.00805682
0.00864166
0.00912225
0.00949181
0.00977719
0.0100082
0.0101946
0.0103414
0.0104564
0.0105381
0.0105723
0.0105767
0.0105959
0.0106603
0.0107712
0.0109153
0.000282053
0.00270834
0.00438652
0.00528852
0.00595082
0.00654604
0.00712481
0.00769712
0.00822954
0.00868451
0.00904915
0.00933607
0.00956619
0.00975206
0.00990142
0.0100211
0.0101117
0.0101782
0.0102446
0.0103356
0.010467
0.0106406
0.0108446
0.000266414
0.00255211
0.00420718
0.00510175
0.00573264
0.00628337
0.00680976
0.00732282
0.00780294
0.00822368
0.00857227
0.00885355
0.00908111
0.00926725
0.00942253
0.00955679
0.0096753
0.00978781
0.00991291
0.0100674
0.0102616
0.0104963
0.0107586
0.000247201
0.00235829
0.00398649
0.00489095
0.00550566
0.00602075
0.00650141
0.00696239
0.0073937
0.00777819
0.00810471
0.00837576
0.00860117
0.00879254
0.00896193
0.0091208
0.0092762
0.00943684
0.00961601
0.00982577
0.0100738
0.0103601
0.0106708
0.000227292
0.00214174
0.00374421
0.00468019
0.00529827
0.00578926
0.00623263
0.00664961
0.00703704
0.00738559
0.00768955
0.00795084
0.00817712
0.00837918
0.00856922
0.00875869
0.00895406
0.00916088
0.00938782
0.00964307
0.00993179
0.0102521
0.0105914
0.000210582
0.0019
0.00349058
0.00448297
0.00512939
0.00561353
0.00602892
0.00641046
0.00676344
0.00708429
0.00737113
0.00762668
0.00785787
0.00807461
0.0082882
0.00850884
0.00874118
0.00898728
0.00925188
0.00953971
0.00985341
0.0101901
0.0105383
0.000198689
0.00169394
0.00324357
0.00430034
0.00500099
0.00550465
0.00591251
0.00627335
0.00660351
0.00690631
0.00718345
0.00743877
0.00767889
0.00791253
0.0081493
0.00839725
0.00865883
0.00893295
0.00922147
0.0095263
0.00984794
0.010183
0.0105214
0.000190377
0.00154387
0.00303167
0.00414182
0.00491432
0.0054654
0.00589143
0.00625123
0.00657297
0.00686834
0.00714339
0.0074035
0.00765505
0.00790534
0.00816177
0.00842989
0.00871002
0.00899839
0.00929533
0.00960088
0.00991414
0.0102316
0.010545
0.00018473
0.00144536
0.00286864
0.00401276
0.00485958
0.00547887
0.00594952
0.00633196
0.00666327
0.00696364
0.00724438
0.00751321
0.00777666
0.0080408
0.00831085
0.00859
0.00887694
0.00916585
0.00945661
0.00974845
0.0100399
0.0103276
0.0106054
0.000180803
0.00138581
0.00275508
0.00391479
0.00482476
0.00551884
0.00605286
0.00647999
0.00684018
0.00715961
0.00745466
0.00773595
0.00801088
0.00828486
0.0085616
0.00884253
0.00912539
0.0094034
0.00967646
0.00994376
0.010204
0.0104546
0.0106909
0.000177787
0.00135212
0.00268234
0.00384561
0.00480132
0.00556284
0.0061656
0.00665084
0.00705522
0.00740671
0.00772488
0.00802288
0.00830938
0.00858992
0.00886753
0.00914279
0.00941325
0.00967232
0.0099201
0.0101563
0.0103803
0.0105905
0.010784
0.000175122
0.00133366
0.00263808
0.00379894
0.00478381
0.00559779
0.00626259
0.00680772
0.00726319
0.00765489
0.00800286
0.00832149
0.00862049
0.0089059
0.00918082
0.00944583
0.00969894
0.00993451
0.0101533
0.0103557
0.010542
0.010712
0.0108643
0.000172495
0.00132295
0.00261069
0.00376659
0.00476781
0.00561808
0.00633167
0.00692926
0.00743381
0.00786703
0.00824721
0.00858841
0.00890064
0.00919034
0.00946104
0.00971382
0.00994756
0.0101582
0.0103471
0.0105159
0.0106659
0.010798
0.0109124
0.000169787
0.00131537
0.00259146
0.00374099
0.00474941
0.00562201
0.00636981
0.00700786
0.00755333
0.00802342
0.00843352
0.00879624
0.00912105
0.00941446
0.00968036
0.00992051
0.0101347
0.010321
0.0104815
0.0106187
0.010735
0.0108327
0.0109134
0.000167004
0.00130857
0.00257498
0.0037168
0.00472588
0.0056099
0.0063789
0.00704467
0.00762028
0.00811902
0.00855327
0.00893368
0.00926864
0.00956431
0.0098248
0.0100524
0.010248
0.0104115
0.0105459
0.0106545
0.0107407
0.0108079
0.0108592
0.00016423
0.00130176
0.00255873
0.00369129
0.00469623
0.00558351
0.00636321
0.00704537
0.00764033
0.00815841
0.00860938
0.0090019
0.00934314
0.0096387
0.00989267
0.0101079
0.0102857
0.0104283
0.0105393
0.0106224
0.0106822
0.0107229
0.0107488
0.000161584
0.00129515
0.00254229
0.00366408
0.00466135
0.00554598
0.00632841
0.0070178
0.00762272
0.00815138
0.00861151
0.00901007
0.0093531
0.00964555
0.00989144
0.0100939
0.0102551
0.0103786
0.0104685
0.0105293
0.0105661
0.0105841
0.0105885
0.000159196
0.00128953
0.00252668
0.00363665
0.00462378
0.00550162
0.00628103
0.00697072
0.00757813
0.00811003
0.00857263
0.00897161
0.00931204
0.00959835
0.00983445
0.0100235
0.010169
0.010275
0.0103461
0.0103874
0.0104046
0.0104033
0.0103897
0.000157188
0.00128598
0.00251377
0.0036116
0.00458719
0.00545555
0.00622804
0.00691311
0.0075175
0.008047
0.00850677
0.00890154
0.00923567
0.00951324
0.00973802
0.00991357
0.010044
0.010134
0.0101883
0.0102127
0.0102131
0.0101958
0.0101671
0.000155669
0.00128558
0.00250567
0.00359198
0.00455561
0.00541308
0.00617625
0.00685353
0.00745121
0.00797439
0.00842752
0.00881469
0.00913979
0.00940668
0.00961915
0.00978127
0.0098975
0.00997273
0.0100123
0.0100221
0.0100085
0.00997785
0.00993693
0.000154727
0.00128928
0.00250427
0.00358048
0.00453265
0.00537889
0.00613171
0.00679955
0.00738841
0.00790292
0.00834704
0.00872443
0.00903877
0.00929385
0.0094937
0.00964271
0.00974563
0.00980766
0.00983443
0.00983198
0.00980675
0.00976538
0.00971454
0.000154425
0.00129756
0.0025106
0.00357875
0.00452071
0.0053564
0.00609904
0.00675717
0.00733655
0.00784141
0.00827534
0.0086418
0.00894444
0.00918726
0.00937458
0.00951111
0.00960191
0.00965243
0.00966846
0.00965612
0.00962179
0.00957203
0.00951336
0.000154794
0.00131027
0.0025244
0.00358684
0.00452051
0.00534732
0.00608121
0.00673073
0.00730125
0.00779656
0.00821996
0.00857491
0.00886539
0.00909579
0.00927088
0.00939579
0.0094759
0.00951684
0.00952444
0.00950474
0.00946392
0.00940823
0.00934384
0.000155824
0.00132642
0.00254398
0.00360308
0.00453107
0.00535178
0.00607972
0.00672312
0.00728659
0.00777318
0.00818599
0.00852892
0.00880663
0.00902433
0.00918748
0.00930171
0.00937269
0.00940617
0.00940789
0.00938365
0.00933922
0.00928036
0.00921272
0.000157445
0.00134424
0.00256636
0.00362449
0.00455017
0.00536891
0.00609541
0.00673688
0.00729613
0.00777499
0.00817668
0.00850628
0.00876991
0.00897407
0.00912519
0.00922948
0.00929286
0.00932105
0.00931959
0.00929385
0.00924907
0.00919031
0.0091225
0.000159519
0.00136147
0.00258801
0.00364754
0.00457522
0.00539792
0.00612993
0.00677591
0.00733465
0.007806
0.00819443
0.00850769
0.00875451
0.00894328
0.00908158
0.00917616
0.0092331
0.00925797
0.00925592
0.0092318
0.00919012
0.00913517
0.00907097
0.00016184
0.00137573
0.00260557
0.00366904
0.00460428
0.00543944
0.00618797
0.00684874
0.00741083
0.00787238
0.00824219
0.00853336
0.00875862
0.0089287
0.0090523
0.00913656
0.00918752
0.00921041
0.00920988
0.00919009
0.0091548
0.00910743
0.00905105
0.000164149
0.00138493
0.00261657
0.00368693
0.00463675
0.00549699
0.00628098
0.00697446
0.00754116
0.00798451
0.00832496
0.0085845
0.0087809
0.00892718
0.00903281
0.00910497
0.00914932
0.00917054
0.0091726
0.00915893
0.00913249
0.00909584
0.00905113
0.00016616
0.0013874
0.00261996
0.0037005
0.00467335
0.00557787
0.0064321
0.00719362
0.00775574
0.00815947
0.00845124
0.00866456
0.00882173
0.00893706
0.00901991
0.00907681
0.0091126
0.00913111
0.00913546
0.00912823
0.00911158
0.00908728
0.00905673
0.000167604
0.00138277
0.00261695
0.00371025
0.0047139
0.00568792
0.00667097
0.00758329
0.00810431
0.00842226
0.00863256
0.00877856
0.00888293
0.00895836
0.00901235
0.00904972
0.00907386
0.00908733
0.00909216
0.00909
0.00908216
0.00906972
0.00905345
0.000168246
0.00137742
0.00261297
0.00371659
0.00474882
0.00580052
0.00696378
0.0082886
0.00864747
0.00879268
0.00887404
0.00892728
0.00896448
0.00899119
0.00901038
0.00902385
0.00903281
0.00903816
0.00904061
0.00904072
0.00903894
0.00903566
0.00903112
0.000532067
0.000502366
0.000485317
0.000479989
0.00443049
0.00426681
0.00420048
0.00421404
0.00682797
0.00668876
0.00659041
0.00653011
0.00815613
0.00806592
0.00798569
0.00791861
0.0090595
0.00900849
0.00895809
0.00891106
0.00972091
0.00969666
0.00967106
0.00964633
0.0102106
0.0102082
0.0101958
0.0101794
0.0105742
0.0105801
0.0105767
0.0105693
0.0108204
0.0108366
0.0108466
0.0108527
0.0109674
0.0109984
0.0110247
0.0110463
0.0110335
0.0110849
0.0111307
0.0111697
0.011038
0.0111133
0.0111813
0.0112393
0.0110071
0.0111066
0.0111966
0.0112737
0.0109576
0.011079
0.0111893
0.0112847
0.0108986
0.0110376
0.0111647
0.0112759
0.0108372
0.010988
0.0111267
0.0112491
0.0107872
0.0109411
0.011083
0.0112096
0.0107601
0.0109081
0.0110447
0.0111674
0.0107626
0.0108971
0.011021
0.0111323
0.0107946
0.0109105
0.0110165
0.0111113
0.0108484
0.0109434
0.0110292
0.0111048
0.0109097
0.0109838
0.0110494
0.011106
0.0109603
0.0110151
0.0110624
0.0111017
0.010982
0.0110199
0.0110513
0.0110759
0.01096
0.0109834
0.0110015
0.0110142
0.010886
0.0108972
0.0109041
0.010907
0.0107588
0.0107596
0.0107573
0.0107521
0.0105842
0.0105763
0.0105662
0.0105544
0.0103734
0.0103582
0.0103418
0.0103245
0.010141
0.0101199
0.0100983
0.0100765
0.00990263
0.00987682
0.0098509
0.00982545
0.00967354
0.00964386
0.00961447
0.00958594
0.00946689
0.0094341
0.00940179
0.00937058
0.0092931
0.00925789
0.00922319
0.00918959
0.00915919
0.00912241
0.00908598
0.00905045
0.00906822
0.00903112
0.00899403
0.00895746
0.00901875
0.00898307
0.00894699
0.00891091
0.00900427
0.00897223
0.00893938
0.00890604
0.00901322
0.00898713
0.00896001
0.00893204
0.00903022
0.00901185
0.0089925
0.00897226
0.00903898
0.0090289
0.00901815
0.00900676
0.00902699
0.00902409
0.00902097
0.00901764
0.00193277
0.00310031
0.00382772
0.00447389
0.00525029
0.00607731
0.0067445
0.00720351
0.00741459
0.00742049
0.00733876
0.00715133
0.00683526
0.00640234
0.00589545
0.00518178
0.00412455
0.0025414
0.000359239
0.0046023
0.00490135
0.00520255
0.00562735
0.00617773
0.00677328
0.00733615
0.0077878
0.00804242
0.00807283
0.0079716
0.00774433
0.00738626
0.00687909
0.00626549
0.0054203
0.00423752
0.00258274
0.000384121
0.00649473
0.00651635
0.00665199
0.0069247
0.0072661
0.00757306
0.00794435
0.00833368
0.00861675
0.00863171
0.00848467
0.00821095
0.00779373
0.00717405
0.00642897
0.00555145
0.00438218
0.00267575
0.000411383
0.0078393
0.0078153
0.00789013
0.00805393
0.00823365
0.00837553
0.00856967
0.00881212
0.00900774
0.00902852
0.00895738
0.00868879
0.00813241
0.0073914
0.0066144
0.00570454
0.00448874
0.0027713
0.000427795
0.00884808
0.00881274
0.00883507
0.00890032
0.00897872
0.00904217
0.00912154
0.00921647
0.00930084
0.00928645
0.00926689
0.00906412
0.00841757
0.00761065
0.00676125
0.00577201
0.00451313
0.0027858
0.000439057
0.00961103
0.00957718
0.00957293
0.00957766
0.00958566
0.00957108
0.00955619
0.00953889
0.00950184
0.00941179
0.00929028
0.00909431
0.00859519
0.00775691
0.00683197
0.00575394
0.00444447
0.0027231
0.000443515
0.0101501
0.0101273
0.0101152
0.0100839
0.0100385
0.00995998
0.00984543
0.00970614
0.00955565
0.00939223
0.00919485
0.00891055
0.00851461
0.00778871
0.00682692
0.00566119
0.00424621
0.00251752
0.000437126
0.0105516
0.0105365
0.010514
0.0104622
0.0103664
0.0102108
0.00999081
0.00972861
0.00946683
0.00922504
0.00897854
0.00867875
0.00828288
0.00766452
0.00672971
0.00548569
0.00393661
0.002216
0.000422049
0.0108551
0.0108511
0.0108223
0.0107472
0.0105988
0.0103459
0.0100059
0.00961521
0.00923786
0.0089044
0.00860915
0.00830523
0.00789747
0.0072751
0.00634383
0.00510642
0.00357125
0.00194906
0.000401388
0.0110709
0.011078
0.0110357
0.0109182
0.0106968
0.0103491
0.00989846
0.00938736
0.0088914
0.0084536
0.0080836
0.0077441
0.00730151
0.00663604
0.00566346
0.00445087
0.00302862
0.00160665
0.000375071
0.0112166
0.0112288
0.0111606
0.010987
0.0106875
0.0102562
0.00971237
0.00910242
0.00849336
0.00793717
0.00745414
0.00702253
0.00652451
0.00581167
0.0048419
0.00371122
0.00250942
0.00139179
0.000351608
0.011311
0.011332
0.0112445
0.0110274
0.0106679
0.0101688
0.00955307
0.00886411
0.00815899
0.00749036
0.00688858
0.00633423
0.00573976
0.00498752
0.00404856
0.00302082
0.00201785
0.00109134
0.000325081
0.0113723
0.0114098
0.0113188
0.0110824
0.0106945
0.0101618
0.00950761
0.00877099
0.00800073
0.00724705
0.00654838
0.00588975
0.00521821
0.004469
0.00363886
0.00280876
0.00204218
0.00126169
0.000338442
0.0114115
0.0114739
0.0113969
0.0111679
0.0107848
0.010256
0.00960277
0.00885867
0.00806636
0.00727424
0.00652247
0.00581337
0.00512853
0.00444533
0.00377076
0.0031326
0.00248217
0.00154545
0.000358021
0.0114289
0.0115211
0.011471
0.01127
0.0109183
0.0104245
0.0098066
0.00909286
0.00832082
0.00753583
0.00677691
0.00606627
0.00541009
0.00480489
0.00424477
0.00369231
0.00298889
0.00184526
0.000373236
0.0114223
0.0115427
0.0115247
0.0113628
0.0110587
0.0106199
0.010061
0.00940499
0.00868363
0.00793667
0.00720263
0.00651632
0.00589667
0.00534474
0.00483728
0.00429411
0.00348416
0.0021494
0.000384317
0.0113932
0.0115341
0.0115457
0.0114247
0.0111738
0.010799
0.0103112
0.00972815
0.00907527
0.00838508
0.00769485
0.00704418
0.00645646
0.0059307
0.00542712
0.00483473
0.00391315
0.0024109
0.000391506
0.0113482
0.0114988
0.0115315
0.0114461
0.0112455
0.0109344
0.0105201
0.0100154
0.00943928
0.00881705
0.0081825
0.00757416
0.00701435
0.00649677
0.00596867
0.00529125
0.00425516
0.00260854
0.000395865
0.011298
0.0114437
0.0114895
0.0114296
0.0112709
0.0110166
0.010671
0.0102425
0.00974458
0.00919561
0.00862375
0.0080623
0.00752817
0.00700691
0.00643399
0.0056602
0.00450672
0.00273146
0.000399063
0.0112527
0.0113801
0.0114265
0.0113861
0.0112579
0.0110499
0.0107636
0.0104043
0.00998032
0.00950421
0.00899688
0.00848362
0.00797275
0.00744026
0.00680666
0.00594024
0.00468289
0.00280261
0.000401278
0.0112171
0.0113182
0.0113543
0.0113216
0.0112187
0.0110472
0.0108081
0.0105077
0.0101495
0.00974057
0.00929418
0.00882595
0.00833358
0.00778203
0.00709236
0.00615303
0.00481132
0.00284956
0.000401895
0.0111887
0.0112607
0.0112813
0.011248
0.0111597
0.0110163
0.0108177
0.0105658
0.0102625
0.00991099
0.00951728
0.009087
0.0086081
0.00803853
0.00730529
0.00630755
0.00490196
0.00288161
0.00040134
0.0111575
0.0112025
0.0112072
0.01117
0.0110902
0.0109671
0.0107996
0.010587
0.0103291
0.0100252
0.00967487
0.00927454
0.00880433
0.00821905
0.00745289
0.00641215
0.00496186
0.00290264
0.000399774
0.0111091
0.011132
0.0111239
0.0110837
0.0110107
0.0109036
0.0107606
0.0105795
0.0103577
0.010091
0.00977388
0.00939537
0.00893
0.0083337
0.00754461
0.00647505
0.00499649
0.00291458
0.00039722
0.0110291
0.0110356
0.0110194
0.0109793
0.0109141
0.0108219
0.0107
0.0105448
0.0103518
0.0101134
0.00982087
0.00945805
0.00899646
0.00839346
0.00759037
0.00650403
0.00501044
0.00291856
0.000393721
0.0109076
0.0109023
0.0108823
0.010846
0.010791
0.0107144
0.0106124
0.0104799
0.0103104
0.0100948
0.0098214
0.00947097
0.00901409
0.00840887
0.00759962
0.00650622
0.00500768
0.00291554
0.000389534
0.0107412
0.0107276
0.0107068
0.0106768
0.0106341
0.0105744
0.0104923
0.0103814
0.0102332
0.0100376
0.00978086
0.00944216
0.00899195
0.00838954
0.00758082
0.00648787
0.00499173
0.00290629
0.00038544
0.0105343
0.0105144
0.0104944
0.0104718
0.0104424
0.0104002
0.0103385
0.0102488
0.0101216
0.00994559
0.00970545
0.00937974
0.00893913
0.00834413
0.00754124
0.00645431
0.00496565
0.00289095
0.000382281
0.0102969
0.0102721
0.0102533
0.010238
0.0102213
0.0101964
0.0101546
0.0100862
0.00998048
0.00982466
0.00960234
0.0092917
0.0088637
0.00827963
0.00748682
0.00640981
0.00493208
0.00287049
0.000379613
0.0100428
0.0100138
0.00999584
0.00998671
0.00998129
0.00997194
0.00994904
0.00990147
0.00981721
0.00968216
0.00947891
0.00918526
0.00877234
0.00820197
0.00742205
0.00635769
0.0048935
0.00284776
0.000376454
0.00978675
0.00975383
0.00973579
0.00973094
0.00973429
0.00973797
0.00973167
0.0097034
0.00963974
0.0095253
0.00934171
0.00906627
0.00867006
0.00811518
0.00735002
0.00630033
0.00485175
0.00282469
0.000372675
0.00954286
0.00950561
0.00948595
0.0094828
0.00949166
0.00950487
0.00951194
0.00950021
0.00945514
0.00936015
0.00919588
0.00893895
0.00856021
0.00802183
0.00727259
0.00623887
0.00480741
0.00280035
0.000368629
0.00932338
0.00928082
0.00925737
0.00925266
0.00926298
0.00928131
0.00929745
0.00929843
0.00926889
0.00919119
0.00904498
0.0088061
0.00844491
0.00792348
0.00719081
0.00617382
0.00476009
0.00277246
0.000364694
0.00913836
0.00908919
0.00905931
0.00904922
0.00905627
0.00907443
0.00909435
0.0091032
0.00908515
0.00902173
0.00889158
0.00866964
0.00832562
0.00782126
0.00710558
0.00610592
0.00471066
0.00274316
0.000360325
0.0089955
0.00893861
0.00889976
0.00888031
0.0088789
0.00889093
0.00890839
0.00891929
0.00890777
0.00885475
0.00873797
0.00853137
0.0082038
0.00771643
0.00701805
0.00603623
0.00466023
0.00271508
0.000355533
0.00889981
0.00883515
0.00878567
0.00875353
0.00873868
0.00873832
0.00874633
0.00875248
0.00874148
0.00869408
0.00858722
0.00839378
0.00808154
0.00761082
0.00692989
0.00596615
0.0046092
0.00268587
0.000352243
0.0088528
0.00878231
0.00872261
0.00867625
0.00864433
0.00862594
0.00861732
0.00861093
0.00859326
0.00854542
0.00844395
0.00826069
0.00796208
0.00750724
0.00684355
0.00589781
0.00455925
0.00265694
0.000350284
0.00885109
0.00877938
0.00871303
0.00865429
0.00860475
0.00856489
0.00853339
0.00850608
0.00847306
0.00841707
0.00831492
0.00813763
0.00785004
0.00740959
0.00676232
0.00583407
0.00451338
0.00263037
0.000349116
0.00888489
0.00881913
0.00875339
0.00868878
0.00862617
0.00856608
0.00850833
0.00845185
0.00839303
0.00831912
0.0082085
0.00803159
0.00775127
0.00732267
0.00668994
0.0057776
0.00447341
0.00260695
0.000348871
0.00893739
0.00888585
0.00883067
0.00877131
0.00870679
0.00863535
0.0085543
0.00846194
0.00836328
0.00825995
0.0081323
0.00794955
0.00767194
0.00725162
0.00663023
0.00573039
0.00443874
0.0025861
0.000350406
0.00898677
0.0089558
0.00892059
0.00887953
0.0088298
0.00876601
0.00867755
0.0085489
0.00838301
0.00823903
0.00808878
0.00789595
0.00761716
0.00720123
0.006587
0.00569472
0.00440924
0.00256602
0.000355148
0.00901174
0.0090023
0.00899107
0.00897706
0.00895829
0.00892991
0.00887708
0.00875034
0.00842759
0.00824044
0.00807181
0.00787057
0.00758954
0.00717506
0.0065639
0.00567405
0.00438752
0.00254502
0.000363116
)
;

boundaryField
{
    leftWall
    {
        type            nutkWallFunction;
        Cmu             0.09;
        kappa           0.41;
        E               9.8;
        value           nonuniform List<scalar> 
50
(
8.26284e-06
1.15104e-05
1.36776e-05
1.54165e-05
1.67956e-05
1.79189e-05
1.88608e-05
1.96692e-05
2.07724e-05
2.16831e-05
2.22363e-05
2.24449e-05
2.25581e-05
2.28806e-05
2.37831e-05
2.4176e-05
2.58771e-05
2.95377e-05
3.16094e-05
3.17707e-05
3.05186e-05
2.83784e-05
2.57718e-05
2.31054e-05
2.09334e-05
1.93855e-05
1.8307e-05
1.75717e-05
1.70514e-05
1.66392e-05
1.62631e-05
1.58843e-05
1.54893e-05
1.50816e-05
1.46744e-05
1.42859e-05
1.39353e-05
1.36408e-05
1.34185e-05
1.32815e-05
1.32395e-05
1.32976e-05
1.34544e-05
1.36997e-05
1.40132e-05
1.43642e-05
1.47139e-05
1.50196e-05
1.5241e-05
1.53421e-05
)
;
    }
    rightWall
    {
        type            nutkWallFunction;
        Cmu             0.09;
        kappa           0.41;
        E               9.8;
        value           nonuniform List<scalar> 
50
(
1.60794e-05
2.15065e-05
2.51562e-05
2.85568e-05
3.16408e-05
3.4298e-05
3.64946e-05
3.85056e-05
3.95234e-05
4.24981e-05
4.53775e-05
4.70915e-05
4.80205e-05
4.80973e-05
4.73816e-05
4.58809e-05
4.38387e-05
4.14633e-05
4.29845e-05
3.90322e-05
4.06265e-05
4.23539e-05
4.42881e-05
4.56701e-05
4.65449e-05
4.70592e-05
4.74306e-05
4.76914e-05
4.77547e-05
4.76732e-05
4.74676e-05
4.71314e-05
4.66692e-05
4.61128e-05
4.57444e-05
4.54833e-05
4.51226e-05
4.47038e-05
4.42038e-05
4.36675e-05
4.31444e-05
4.24215e-05
4.17809e-05
4.13592e-05
4.10556e-05
4.08827e-05
4.08304e-05
4.09468e-05
4.15079e-05
4.25532e-05
)
;
    }
    lowerWall
    {
        type            nutkWallFunction;
        Cmu             0.09;
        kappa           0.41;
        E               9.8;
        value           nonuniform List<scalar> 
62
(
3.87078e-06
5.33568e-06
6.50556e-06
7.3562e-06
8.09111e-06
8.86044e-06
9.73677e-06
1.07433e-05
1.18213e-05
1.2817e-05
1.36218e-05
1.42342e-05
1.46531e-05
1.4881e-05
1.49698e-05
1.49997e-05
1.50311e-05
1.5095e-05
1.52846e-05
1.50604e-05
1.39109e-05
1.11831e-05
6.85841e-06
6.85841e-06
1.93968e-05
2.18796e-05
2.47139e-05
2.84441e-05
3.43216e-05
4.23845e-05
5.21175e-05
5.43838e-05
5.14383e-05
4.97499e-05
4.92068e-05
9.06273e-06
2.69737e-05
3.01276e-05
3.25328e-05
3.42903e-05
3.58679e-05
3.86097e-05
4.56152e-05
9.06273e-06
9.87548e-06
1.24118e-05
1.53055e-05
1.75851e-05
1.94748e-05
2.07642e-05
2.10174e-05
2.00807e-05
1.93799e-05
1.91364e-05
1.87176e-05
1.78525e-05
1.68541e-05
1.58189e-05
1.45525e-05
1.28651e-05
1.0463e-05
7.12142e-06
)
;
    }
    atmosphere
    {
        type            calculated;
        value           nonuniform List<scalar> 
46
(
0.000168246
0.00137742
0.00261297
0.00371659
0.00474882
0.00580052
0.00696378
0.009
0.009
0.009
0.009
0.009
0.009
0.009
0.009
0.009
0.009
0.009
0.009
0.009
0.009
0.009
0.009
0.009
0.009
0.009
0.009
0.009
0.009
0.009
0.009
0.009
0.009
0.009
0.009
0.00842759
0.00824044
0.00807181
0.00787057
0.00758954
0.00717506
0.0065639
0.00567405
0.00438752
0.00254502
0.000363116
)
;
    }
    defaultFaces
    {
        type            empty;
    }
}


// ************************************************************************* //
