/*--------------------------------*- C++ -*----------------------------------*\
  =========                 |
  \\      /  F ield         | OpenFOAM: The Open Source CFD Toolbox
   \\    /   O peration     | Website:  https://openfoam.org
    \\  /    A nd           | Version:  9
     \\/     M anipulation  |
\*---------------------------------------------------------------------------*/
FoamFile
{
    format      ascii;
    class       volScalarField;
    location    "8.96";
    object      alpha.water;
}
// * * * * * * * * * * * * * * * * * * * * * * * * * * * * * * * * * * * * * //

dimensions      [0 0 0 0 0 0 0];

internalField   nonuniform List<scalar> 
2268
(
1
1
0.999999
0.999998
0.999999
0.999999
0.999999
0.999998
0.999997
0.999998
0.999999
0.999999
0.999999
0.999999
0.999999
0.999999
1
1
0.999224
0.998089
0.999121
0.999996
0.999905
0.999998
0.999998
0.999997
0.999997
0.999999
0.999999
0.999997
0.999997
0.999997
0.999997
0.999999
0.999999
0.999999
0.999999
0.999999
0.999998
0.999999
1
0.998692
0.998089
0.999583
0.999996
0.999993
0.999997
0.999997
0.999997
0.999998
0.999999
0.999999
0.999999
0.999998
0.999999
0.999999
0.999999
0.999999
0.999999
1
0.999998
0.999987
0.999999
1
0.998891
0.998089
0.999764
0.999996
0.999995
0.999998
0.999999
0.999999
1
0.999999
1
1
1
0.999999
1
1
1
1
1
1
0.999935
0.99993
0.999978
0.99964
0.998089
0.999783
0.999996
0.999883
1
1
1
1
1
1
1
1
1
1
1
1
1
1
1
0.99984
0.999499
0.999867
0.999982
0.999483
0.999892
0.998973
0.999771
1
1
1
1
1
1
1
1
1
1
1
1
1
1
1
0.999777
0.998192
0.999982
0.999982
0.999982
0.999982
0.996918
0.999729
1
1
1
1
1
1
1
1
1
1
1
1
1
1
0.999999
1
0.996296
0.990743
0.999149
0.999982
0.994192
0.993658
0.999655
1
1
1
1
1
1
1
1
0.999999
0.999999
0.999999
0.999999
0.999999
0.999999
0.999999
1
0.995642
0.987675
0.990163
0.994193
0.989738
0.995529
0.999891
0.999779
0.999752
0.999476
0.999476
0.999678
0.999438
0.995953
0.995413
0.995458
0.994602
0.9923
0.9923
0.995666
0.998686
0.998686
0.998686
0.998686
0.998686
0.998685
0.999779
0.999753
0.999998
0.999985
0.999996
0.999996
0.999996
0.999957
0.999958
0.999933
0.996634
0.9923
0.992463
0.998686
0.998686
0.998686
0.998389
0.996784
0.996975
0.996874
0.998174
0.999998
0.999997
0.999996
0.99999
0.999963
0.99996
0.999921
0.999935
0.999499
0.992637
0.992465
0.996541
0.998686
0.998686
0.996503
0.995607
0.995611
0.992311
0.996919
0.999998
0.999998
0.999997
0.999942
0.9998
0.999762
0.999509
0.999463
0.99973
0.998742
0.99635
0.997611
0.998286
0.998685
0.997155
0.996149
0.998439
0.992311
0.998247
0.999998
0.999997
0.99999
0.999845
0.999818
0.999826
0.999347
0.999344
0.999397
0.999687
0.999687
0.99935
0.996903
0.997711
0.99802
0.998439
0.998439
0.992311
0.999276
0.999998
0.999991
0.999979
0.999989
0.999979
0.999837
0.999456
0.999687
0.999687
0.999687
0.999687
0.999687
0.996109
0.99031
0.990581
0.998439
0.998439
0.998548
0.999962
0.999997
0.999993
0.999995
0.999997
0.999996
0.999464
0.997749
0.999254
0.999687
0.999687
0.999687
0.998954
0.993393
0.994504
0.990063
0.996846
0.998439
1
0.999999
0.999999
0.999998
0.999998
0.999998
0.999997
0.9994
0.99111
0.989524
0.996767
0.999687
0.999186
0.992426
0.99098
0.99689
0.990063
0.995687
0.998439
1
1
1
1
1
1
0.999999
0.999999
0.999999
0.999999
0.999999
1
1
1
1
1
0.999976
0.996856
0.990001
0.99
0.995843
0.99999
1
0.964991
0.965121
0.965873
0.967145
0.969536
0.972514
0.97517
0.977045
0.978631
0.980032
0.981158
0.982164
0.984303
0.986971
0.990477
0.995147
0.999981
0.999984
0.99999
0.999995
0.999996
0.999996
0.998559
0.274253
0.275994
0.27837
0.281487
0.284818
0.289078
0.294768
0.302201
0.310903
0.320543
0.330908
0.34149
0.351488
0.360859
0.36944
0.377484
0.386614
0.399631
0.410689
0.416738
0.419245
0.420321
0.421394
0.000469898
0.000469593
0.000469408
0.00046904
0.000469408
0.000469723
0.000470368
0.000471077
0.000471665
0.000472087
0.000472514
0.000511183
0.000523749
0.000633268
0.000832702
0.00111109
0.00143286
0.00101522
0.000577275
0.000613258
0.00071678
0.000754325
0.000740835
0.000665962
0.000668877
0.000548279
0.000468564
0.00105334
0.00149616
0.00177024
0.00182533
0.00186252
0.0019326
0.00196514
0.00196522
0.00188889
0.00173941
0.0017188
0.00167408
0.00148395
0.00103117
0.000495434
0.000543966
0.000608099
0.000569073
0.000446025
0.000227736
0.000200367
0.000226949
0.00025334
7.3051e-05
5.53761e-08
5.53761e-08
5.53761e-08
5.53761e-08
5.53762e-08
5.53778e-08
1.47129e-06
1.51749e-06
3.5286e-05
3.75027e-05
4.62209e-05
8.04014e-05
0.000225619
0.000277691
0.000261242
0.000268759
0.000328864
0.000263446
1.35928e-07
3.3292e-07
4.31231e-07
2.39411e-07
6.81133e-08
6.78266e-08
5.53761e-08
5.53761e-08
5.53762e-08
5.53778e-08
5.5803e-08
1.70614e-05
5.38893e-05
5.38881e-05
5.38895e-05
2.58357e-05
2.40624e-06
2.2307e-06
4.65947e-06
2.18168e-06
1.7976e-05
4.46764e-05
7.93224e-05
2.33521e-09
2.33587e-09
8.97479e-09
2.92797e-07
1.08052e-06
1.31125e-06
3.41483e-07
2.64413e-07
7.85684e-07
6.65569e-07
3.66894e-07
1.16879e-05
3.26727e-05
3.28306e-05
1.57155e-05
1.18994e-05
3.07568e-06
5.00461e-07
6.27607e-09
6.0158e-09
6.18535e-09
2.95559e-08
2.21683e-06
2.33516e-09
2.33516e-09
2.33587e-09
1.20148e-07
1.32934e-06
1.7873e-06
1.68899e-06
8.49429e-07
2.57616e-06
2.57618e-06
1.54554e-06
4.0673e-10
4.0673e-10
4.17281e-10
1.8126e-06
8.11243e-06
6.14084e-06
6.02024e-09
6.00957e-09
6.00958e-09
6.0158e-09
6.06512e-09
6.14974e-09
2.33516e-09
2.33516e-09
2.33516e-09
6.46794e-09
7.77793e-07
1.7873e-06
1.52701e-06
8.48003e-07
2.57617e-06
2.57616e-06
1.16074e-06
4.04227e-10
8.52877e-09
3.19791e-08
1.00218e-07
7.46034e-07
1.20682e-06
6.0696e-08
6.00958e-09
6.00957e-09
6.00958e-09
6.2005e-09
4.14043e-07
2.42135e-09
2.33516e-09
2.33516e-09
2.50503e-09
1.36841e-07
7.76209e-07
3.23188e-07
3.11695e-07
2.47529e-06
2.50111e-06
7.52459e-08
3.97198e-10
1.42278e-08
7.40599e-07
1.20199e-06
4.53875e-07
1.2312e-08
1.2287e-08
1.70589e-08
2.02132e-08
1.41514e-08
1.26027e-08
5.27672e-06
5.57601e-09
5.37741e-08
6.30292e-08
1.67761e-09
5.09153e-10
5.90929e-10
1.09579e-09
2.10313e-07
2.20922e-06
1.37015e-06
3.92663e-10
3.92666e-10
4.00081e-10
1.72751e-06
5.67786e-06
5.51583e-06
9.11648e-07
1.13118e-08
1.13009e-08
2.13277e-08
1.85987e-08
1.14399e-08
4.06535e-07
1.02567e-08
1.02725e-07
1.02715e-07
9.25843e-09
5.09153e-10
5.09153e-10
9.68577e-08
1.24975e-06
1.72973e-06
1.13133e-07
3.92666e-10
3.91363e-10
3.24865e-10
1.32308e-06
5.67781e-06
5.67786e-06
5.60234e-06
9.5929e-07
5.45993e-09
7.32539e-09
8.86594e-09
6.20485e-09
6.20485e-09
8.97855e-09
1.02723e-07
1.02725e-07
1.29875e-08
5.09153e-10
2.26376e-08
9.18081e-07
1.49392e-06
1.13038e-06
4.11021e-10
4.88864e-10
5.92557e-10
3.02613e-10
9.1873e-09
1.09243e-06
5.30027e-06
5.59699e-06
1.69354e-06
5.46012e-09
5.45993e-09
7.52545e-09
9.66605e-09
8.75575e-09
4.15433e-09
4.86254e-08
8.45105e-08
7.64718e-09
5.18898e-10
9.26645e-08
1.49378e-06
1.49392e-06
6.06666e-07
4.11009e-10
6.05058e-10
6.55266e-10
2.96684e-10
6.51485e-11
3.94753e-08
4.43289e-07
8.42239e-07
3.99307e-07
5.45993e-09
5.78491e-09
1.25126e-08
1.13512e-08
1.24923e-08
6.91405e-10
6.84562e-10
8.69068e-09
1.61706e-09
5.52143e-10
4.34782e-08
8.98536e-07
1.11913e-06
5.00319e-11
4.10952e-10
7.4222e-10
6.51415e-10
1.77482e-10
6.51092e-11
7.04745e-11
8.89855e-11
8.06133e-11
7.53734e-10
6.50918e-09
1.33998e-08
1.34686e-08
9.43088e-09
1.22386e-09
3.62005e-10
3.6232e-10
3.62867e-10
3.84488e-10
1.86093e-09
1.9811e-08
1.75204e-08
5.22658e-08
4.97596e-11
4.10949e-10
6.64083e-10
3.95381e-10
8.80106e-11
5.79036e-11
6.15746e-11
5.9936e-11
5.95457e-11
1.70097e-10
1.86473e-09
4.21509e-09
4.50053e-09
1.93179e-09
6.787e-10
3.62149e-10
3.58403e-09
7.53311e-10
3.992e-10
3.46729e-09
1.06446e-08
2.2758e-11
1.16643e-11
4.97526e-11
2.65376e-10
3.21347e-10
1.18819e-10
3.13265e-11
4.49813e-11
5.9124e-11
6.09171e-11
5.95454e-11
5.69056e-11
6.66771e-11
6.36223e-11
5.63133e-11
9.5069e-11
1.4583e-10
1.87698e-07
2.09621e-07
1.97977e-09
4.90318e-10
3.2824e-09
3.62216e-09
2.24181e-11
1.15806e-11
2.43142e-11
7.25592e-11
5.71729e-11
1.22131e-11
5.09789e-12
2.14123e-11
3.68249e-11
4.11641e-11
3.93513e-11
2.70154e-11
1.38469e-11
6.73376e-12
3.36859e-12
2.12106e-12
1.97472e-12
2.7577e-07
2.54451e-07
1.19164e-09
4.89855e-10
2.19751e-09
3.72854e-10
1.66856e-11
1.15802e-11
5.45142e-12
5.1896e-12
2.01873e-12
2.07301e-13
2.03871e-13
3.34286e-12
8.99043e-12
1.08742e-11
9.50327e-12
5.34304e-12
2.3827e-12
1.24063e-12
6.64613e-13
2.88925e-13
2.22643e-13
2.7577e-07
8.0466e-08
1.77222e-10
4.00734e-10
7.84728e-10
1.75839e-11
1.12566e-11
8.83886e-12
3.51163e-13
1.73082e-14
-5.73251e-14
-4.89975e-13
-4.17475e-13
4.97654e-14
3.95482e-13
5.45113e-13
4.00617e-13
1.70292e-13
6.64222e-14
3.14062e-14
1.26877e-14
1.53378e-15
7.60534e-16
2.75681e-07
1.10458e-10
6.10551e-11
2.12599e-10
1.24172e-10
4.44764e-12
5.63448e-12
3.4886e-12
-2.16321e-13
-6.1494e-13
-8.16396e-13
-9.27195e-13
-8.022e-13
-4.86422e-13
-2.39675e-13
-1.21259e-13
-1.02172e-13
-1.09246e-13
-9.95366e-14
-8.03768e-14
-5.88277e-14
-3.97178e-14
-2.46918e-14
2.7635e-07
2.74992e-08
5.54587e-11
6.45411e-11
2.86044e-11
3.98181e-12
1.19328e-12
3.28539e-13
-5.27911e-13
-9.07187e-13
-1.03312e-12
-1.02097e-12
-8.68186e-13
-6.34762e-13
-4.30771e-13
-2.98626e-13
-2.21965e-13
-1.68635e-13
-1.24006e-13
-8.72907e-14
-5.86089e-14
-3.73905e-14
-2.2565e-14
2.76481e-07
2.51167e-07
5.39416e-11
2.94807e-11
2.7715e-11
4.0887e-12
1.79209e-13
-5.0486e-32
-5.31949e-13
-8.25929e-13
-9.03823e-13
-8.5637e-13
-7.20069e-13
-5.47653e-13
-3.92723e-13
-2.76642e-13
-1.95224e-13
-1.35253e-13
-9.03679e-14
-5.82304e-14
-3.65648e-14
-2.23679e-14
-1.31858e-14
2.76481e-07
2.76481e-07
6.68956e-10
3.03775e-11
3.2493e-11
4.80564e-12
3.42556e-13
1.19688e-13
-2.37636e-13
-4.64583e-13
-5.58858e-13
-5.55717e-13
-4.82636e-13
-3.77116e-13
-2.74701e-13
-1.91855e-13
-1.30294e-13
-8.49048e-14
-5.27533e-14
-3.14057e-14
-1.82587e-14
-1.05327e-14
-6.0282e-15
2.76481e-07
2.61805e-07
4.98248e-11
4.98085e-11
4.9292e-11
7.20821e-12
1.50134e-12
1.17183e-12
5.97328e-13
1.36003e-13
-9.97902e-14
-2.08676e-13
-2.4088e-13
-2.13119e-13
-1.60992e-13
-1.11714e-13
-7.40084e-14
-4.60962e-14
-2.69574e-14
-1.4883e-14
-7.9226e-15
-4.20111e-15
-2.26888e-15
2.76481e-07
6.07459e-08
5.73029e-11
1.11591e-10
8.37389e-11
1.29496e-11
5.18115e-12
4.77266e-12
3.74815e-12
2.37475e-12
1.09792e-12
2.85397e-13
-3.3456e-14
-8.99793e-14
-8.11438e-14
-5.70235e-14
-3.74037e-14
-2.25359e-14
-1.25202e-14
-6.45402e-15
-3.14444e-15
-1.51317e-15
-7.42979e-16
5.44488e-08
7.9608e-11
1.02575e-10
1.95675e-10
1.23801e-10
2.3464e-11
1.31091e-11
1.25502e-11
1.05623e-11
7.43881e-12
4.10867e-12
1.59036e-12
3.20787e-13
-1.42032e-14
-3.45061e-14
-2.60524e-14
-1.72159e-14
-1.01415e-14
-5.39009e-15
-2.60889e-15
-1.17121e-15
-5.16525e-16
-2.33413e-16
7.95876e-11
7.94388e-11
1.58932e-10
2.12129e-10
1.35533e-10
3.82959e-11
2.60145e-11
2.48142e-11
2.10179e-11
1.54741e-11
8.94802e-12
3.60697e-12
7.99432e-13
3.69929e-14
-1.04992e-14
-1.0743e-14
-7.32919e-15
-4.25519e-15
-2.17288e-15
-9.91598e-16
-4.15477e-16
-1.73926e-16
-7.6066e-17
7.94388e-11
7.94381e-11
1.78857e-10
2.07842e-10
1.29839e-10
5.14517e-11
4.12298e-11
3.97774e-11
3.36629e-11
2.51439e-11
1.48525e-11
5.79963e-12
1.08365e-12
5.39963e-14
-9.40258e-16
-4.01666e-15
-2.92323e-15
-1.68193e-15
-8.26737e-16
-3.57706e-16
-1.41643e-16
-5.61198e-17
-2.36476e-17
7.96873e-11
7.36581e-11
1.523e-10
1.5159e-10
9.88911e-11
5.359e-11
5.12449e-11
5.14768e-11
4.51598e-11
3.41703e-11
2.02071e-11
7.33646e-12
1.13626e-12
4.9529e-14
0
-1.41319e-15
-1.10749e-15
-6.3288e-16
-2.99269e-16
-1.22687e-16
-4.56641e-17
-1.7055e-17
-6.9143e-18
1.08753e-10
5.49816e-11
7.32205e-11
5.42906e-11
5.84749e-11
5.20817e-11
5.24781e-11
5.41259e-11
5.09293e-11
3.96481e-11
2.30308e-11
7.74199e-12
1.0686e-12
3.29344e-14
5.89496e-17
-4.83931e-16
-4.04748e-16
-2.28584e-16
-1.03431e-16
-3.99144e-17
-1.38041e-17
-4.81079e-18
-1.843e-18
2.94286e-10
5.14063e-11
5.13856e-11
5.13806e-11
5.13741e-11
5.13741e-11
5.18296e-11
5.41483e-11
5.1741e-11
4.08356e-11
2.33701e-11
7.54704e-12
8.40154e-13
1.52064e-14
2.70822e-17
-1.66134e-16
-1.44771e-16
-7.9882e-17
-3.42408e-17
-1.22733e-17
-3.86594e-18
-1.23223e-18
-4.38208e-19
3.9382e-10
2.73282e-09
5.14084e-11
6.95431e-08
5.1376e-11
5.13741e-11
5.88718e-11
5.40823e-11
5.13773e-11
4.05706e-11
2.27135e-11
6.52395e-12
5.15218e-13
5.16308e-15
4.49114e-18
-5.84174e-17
-5.12276e-17
-2.71448e-17
-1.08559e-17
-3.54345e-18
-9.92308e-19
-2.82892e-19
-9.13986e-20
3.93674e-10
3.54773e-08
4.12077e-07
8.11526e-07
3.29537e-07
1.99647e-08
5.03062e-11
5.02343e-11
4.96622e-11
3.88806e-11
2.01056e-11
4.60127e-12
2.34286e-13
1.25488e-15
4.01839e-19
-2.12145e-17
-1.80391e-17
-8.97958e-18
-3.28539e-18
-9.53243e-19
-2.30441e-19
-5.70046e-20
-1.63452e-20
3.93711e-10
7.2106e-08
8.23915e-07
8.23915e-07
8.23915e-07
9.9583e-08
4.44446e-11
4.44124e-11
4.61865e-11
3.46308e-11
1.53491e-11
2.50959e-12
7.35344e-14
1.89396e-16
1.69887e-20
-8.0131e-18
-6.33338e-18
-2.88814e-18
-9.45247e-19
-2.37409e-19
-4.7892e-20
-9.89757e-21
-2.44416e-21
3.93767e-10
2.24449e-08
7.41448e-07
8.23915e-07
7.24584e-07
6.15044e-08
4.73299e-11
4.32913e-11
4.15337e-11
2.77084e-11
9.64361e-12
9.92337e-13
1.42211e-14
1.445e-17
-1.28495e-19
-3.17005e-18
-2.21503e-18
-9.02276e-19
-2.5814e-19
-5.46277e-20
-8.87046e-21
-1.46067e-21
-2.97736e-22
1.12108e-09
1.56789e-09
1.27809e-07
5.47877e-07
1.39295e-07
7.57737e-09
5.17818e-11
4.46986e-11
3.53524e-11
1.90625e-11
4.63034e-12
2.52907e-13
1.44277e-15
5.14954e-19
-5.65301e-19
-1.29233e-18
-7.69934e-19
-2.7428e-19
-6.7141e-20
-1.16684e-20
-1.47038e-21
-1.81325e-22
-2.87282e-23
1.8202e-09
1.57414e-09
8.32872e-10
9.23193e-09
3.3655e-10
7.81945e-11
7.18401e-11
4.68695e-11
2.70795e-11
1.04428e-11
1.47856e-12
3.41787e-14
6.30698e-17
5.36848e-21
-4.19291e-19
-5.28117e-19
-2.66055e-19
-8.16563e-20
-1.68075e-20
-2.34863e-21
-2.22694e-22
-1.91491e-23
-2.14643e-24
6.66869e-10
1.23745e-09
7.38623e-10
2.6737e-10
1.41615e-10
1.22157e-10
9.058e-11
4.44795e-11
1.74102e-11
3.97552e-12
2.50689e-13
1.8781e-15
9.63719e-19
-1.77703e-21
-2.39121e-19
-2.1504e-19
-9.18134e-20
-2.40841e-20
-4.12464e-21
-4.57192e-22
-3.19193e-23
-1.78044e-24
-1.22191e-25
-8.41654e-27
6.01217e-10
7.84029e-10
5.59273e-10
3.32716e-10
2.0493e-10
9.52503e-11
3.53935e-11
8.44976e-12
8.51003e-13
1.67882e-14
3.195e-17
3.77979e-21
-4.78219e-20
-1.2527e-19
-8.74336e-20
-3.18687e-20
-7.14844e-21
-1.01849e-21
-8.93656e-23
-4.53075e-24
-1.52898e-25
-5.21186e-27
-1.4124e-27
8.66995e-11
5.55359e-10
5.82295e-10
4.38472e-10
2.28205e-10
8.22278e-11
1.74872e-11
1.79239e-12
5.52264e-14
2.53475e-16
1.13216e-19
1.91251e-24
-4.36217e-20
-6.25748e-20
-3.55896e-20
-1.12157e-20
-2.17551e-21
-2.62252e-22
-1.86907e-23
-7.16498e-25
-1.3185e-26
-1.46358e-28
1
1
1
1
0.999549
0.999581
1
1
0.422717
0.422013
0.420465
0.418923
0.000644862
0.000691504
0.000718515
0.000669688
0.000199433
0.000378847
0.000592653
0.000556948
7.17683e-05
0.000144745
0.000385191
0.000495885
7.1686e-05
5.06527e-05
6.50933e-05
3.17845e-05
1.01083e-05
1.72246e-07
8.28548e-08
6.01719e-08
3.32852e-07
4.79286e-06
7.22885e-06
5.49561e-06
1.76009e-05
2.10914e-05
2.10914e-05
2.10912e-05
2.10906e-05
2.10913e-05
2.10912e-05
2.10912e-05
2.07988e-06
1.55084e-05
2.10911e-05
2.1091e-05
1.47499e-08
5.98609e-08
2.57212e-08
2.81138e-07
1.42107e-08
7.34607e-09
2.47194e-09
2.45812e-09
3.43195e-08
3.42954e-08
3.73115e-08
6.04085e-08
1.96423e-09
1.74532e-09
1.47449e-08
1.63295e-07
1.49879e-10
1.23409e-12
1.27118e-11
1.0762e-08
2.58668e-11
1.23308e-12
2.12407e-13
3.61117e-14
4.82825e-13
3.35476e-13
2.22464e-13
6.99149e-14
2.10186e-13
1.81008e-13
1.14168e-13
6.3703e-14
2.29537e-15
1.76617e-15
-4.38258e-17
-7.29089e-16
-1.42134e-14
-1.13172e-14
-9.01129e-15
-7.14726e-15
-1.29588e-14
-1.02163e-14
-8.11524e-15
-6.47412e-15
-7.36844e-15
-5.57455e-15
-4.29141e-15
-3.35417e-15
-3.3631e-15
-2.45222e-15
-1.79089e-15
-1.32059e-15
-1.30749e-15
-9.40699e-16
-6.66938e-16
-4.58778e-16
-4.58335e-16
-3.20738e-16
-2.25346e-16
-1.52296e-16
-1.51862e-16
-1.02624e-16
-6.95323e-17
-4.64434e-17
-4.89656e-17
-3.20141e-17
-2.08443e-17
-1.34388e-17
-1.47969e-17
-9.37474e-18
-5.89709e-18
-3.66181e-18
-4.17981e-18
-2.54691e-18
-1.53833e-18
-9.15636e-19
-1.0653e-18
-6.1883e-19
-3.55989e-19
-2.01657e-19
-2.39618e-19
-1.314e-19
-7.12624e-20
-3.80171e-20
-4.66156e-20
-2.38222e-20
-1.2023e-20
-5.96031e-21
-7.64634e-21
-3.58409e-21
-1.65647e-21
-7.50545e-22
-1.02613e-21
-4.32163e-22
-1.79142e-22
-7.26229e-23
-1.08735e-22
-3.99782e-23
-1.44454e-23
-5.09018e-24
-8.70006e-24
-2.67419e-24
-8.07624e-25
-2.37235e-25
-4.95948e-25
-1.1837e-25
-2.78838e-26
-6.38778e-27
-1.83851e-26
-2.95108e-27
-4.76028e-28
-7.53856e-29
-3.72607e-28
-2.89845e-29
-2.36287e-30
-1.96628e-31
-2.24554e-30
-3.28331e-32
-4.82349e-34
-7.54813e-36
1
1
1
1
0.999352
0.997047
0.996789
0.997663
0.99348
0.982867
0.98306
0.983867
0.983544
0.98464
0.996879
0.99689
0.995608
0.995304
0.997704
1
0.998692
0.993868
0.989017
0.984891
0.981511
0.978268
0.977314
0.981942
0.982027
0.981003
0.979636
0.977678
0.975039
0.971062
0.967359
0.965738
0.960339
0.956891
0.415898
0.407082
0.401045
0.395199
0.389007
0.382312
0.374216
0.364399
0.354243
0.347153
0.337866
0.328335
0.319882
0.311341
0.301483
0.296134
0.293319
0.291947
0.291832
0.000558468
0.0007926
0.000911097
0.000898292
0.000775383
0.000500739
0.000336273
0.000242954
0.000230507
0.000230087
0.000229637
0.000229401
0.000229195
0.000229401
0.000229642
0.000229998
0.000230259
0.000230536
0.000230781
0.00031125
0.000736954
0.000892874
0.0008518
0.000852049
0.000872254
0.000885403
0.000885422
0.000885358
0.000839916
0.000731209
0.000527181
0.000228939
0.000502971
0.000599637
0.000599663
0.00059967
0.000599663
0.000535956
0.000310816
0.000264274
0.000233782
0.000237448
0.000193879
0.000154875
0.000125881
0.000107574
6.24248e-05
5.82578e-06
5.82369e-06
5.82578e-06
9.74235e-05
8.53849e-05
9.31755e-05
0.000123413
0.000130409
0.000155782
0.000196048
3.47655e-05
1.44054e-05
1.40117e-08
3.96857e-08
3.04787e-07
2.48592e-06
3.44926e-06
2.93768e-06
2.93769e-06
6.6231e-06
1.92459e-05
2.40469e-05
2.75532e-05
9.18874e-06
5.1525e-07
5.15225e-07
5.15225e-07
5.15225e-07
5.15225e-07
2.79384e-08
1.26327e-08
1.39794e-08
1.66019e-08
1.07741e-05
3.48033e-05
3.61531e-05
2.27974e-05
1.80364e-05
4.96829e-05
4.96979e-05
4.9699e-05
4.96979e-05
2.18022e-05
5.1527e-07
5.15225e-07
5.15225e-07
5.15225e-07
5.15225e-07
1.53294e-06
1.26327e-08
1.26327e-08
1.9062e-06
3.54197e-05
3.82185e-05
3.79587e-05
3.79749e-05
3.65069e-05
2.10165e-05
3.14732e-05
4.63396e-05
4.78015e-05
8.9112e-06
5.15228e-07
5.15225e-07
5.15225e-07
5.15225e-07
5.15225e-07
1.91948e-05
1.32018e-06
1.35748e-08
1.30672e-06
1.49369e-05
1.79878e-05
9.90596e-10
4.24211e-09
2.92887e-10
2.92863e-10
2.92887e-10
6.12105e-07
7.83851e-06
8.45689e-06
9.31092e-07
5.15225e-07
5.15225e-07
5.16649e-07
5.1884e-07
2.1091e-05
2.07476e-05
4.26908e-06
2.1491e-09
2.14941e-09
2.1491e-09
4.11039e-08
5.31043e-07
4.41894e-07
2.76493e-10
1.3333e-08
7.17687e-07
7.11344e-06
9.07651e-06
1.43567e-06
5.15225e-07
5.15225e-07
5.18878e-07
5.18881e-07
2.10907e-05
1.97138e-05
4.84375e-06
2.15044e-09
2.1491e-09
3.59414e-08
5.44918e-07
6.0993e-07
4.40106e-07
2.59724e-10
2.37498e-08
2.05863e-06
9.08415e-06
9.08415e-06
6.69178e-07
5.15225e-07
5.15225e-07
5.15225e-07
5.15228e-07
1.09923e-06
1.28449e-06
2.44937e-08
2.15015e-09
4.07343e-09
2.28172e-08
1.81279e-08
3.40392e-08
2.59353e-10
2.59325e-10
2.59724e-10
2.82599e-07
7.21756e-06
9.07651e-06
6.8173e-06
5.15226e-07
5.15225e-07
5.15227e-07
5.15231e-07
2.42837e-09
2.40314e-09
2.39782e-09
2.3977e-09
3.25096e-09
1.56544e-09
2.59284e-10
2.59311e-10
2.59292e-10
3.07055e-10
3.07238e-10
3.47653e-08
3.0836e-06
7.37023e-06
7.3691e-06
2.56538e-06
7.16551e-07
1.71396e-06
9.00861e-07
8.78434e-08
9.7568e-08
3.11895e-08
8.88675e-10
8.87994e-10
6.79975e-10
4.04806e-10
2.59286e-10
3.89318e-10
6.62707e-10
6.18155e-10
1.02606e-10
5.78298e-11
5.8358e-11
2.08934e-07
3.31921e-06
1.01651e-05
1.06221e-05
9.12368e-06
2.43081e-07
2.43081e-07
2.38013e-07
4.22815e-08
2.64416e-09
5.6785e-10
1.86379e-09
4.70438e-09
3.53179e-09
5.27102e-10
4.07525e-10
1.26986e-10
5.77968e-11
5.78298e-11
1.57999e-08
6.15788e-06
1.0618e-05
1.06249e-05
1.05054e-05
1.33306e-07
2.43081e-07
2.43075e-07
2.4307e-07
5.89665e-08
5.6785e-10
1.77502e-08
5.25096e-08
3.91198e-08
3.99946e-09
3.98785e-11
4.63691e-11
5.77884e-11
8.69425e-11
1.42585e-10
1.51822e-06
5.73661e-06
4.01997e-06
1.12972e-12
2.23328e-15
5.73752e-08
2.12921e-07
2.39399e-07
6.6418e-08
5.76248e-10
3.1754e-08
6.39649e-08
6.39656e-08
3.91091e-08
3.98195e-11
3.97972e-11
6.88912e-11
3.95216e-10
2.05312e-09
1.10156e-12
1.10163e-12
1.10169e-12
1.12273e-12
2.21911e-15
8.07182e-35
1.50828e-38
3.03992e-09
2.48212e-09
1.88223e-09
2.4024e-08
6.39137e-08
6.39548e-08
4.65421e-08
6.35514e-10
2.93839e-11
4.72317e-11
6.92004e-11
1.89451e-10
1.10152e-12
1.10165e-12
8.30131e-12
1.16615e-12
2.38471e-14
-1.57526e-16
-1.31569e-16
-4.93038e-35
1.17529e-19
1.23e-16
5.46185e-10
8.40268e-09
1.9555e-08
3.40199e-09
1.88828e-10
2.93874e-11
4.48502e-11
9.76114e-12
9.09239e-13
1.10172e-12
1.4675e-12
3.45236e-10
1.49211e-11
-1.08921e-15
-9.69304e-16
-5.35951e-16
1.39933e-16
1.07453e-15
1.36614e-15
1.36842e-15
1.37765e-15
1.4039e-15
1.46207e-15
1.55498e-15
1.06921e-11
3.50062e-11
2.92032e-12
9.09419e-13
9.43846e-13
6.71085e-13
2.02404e-09
9.0018e-07
-5.67246e-15
-2.98398e-15
-1.37635e-15
9.86076e-35
2.92592e-15
1.53708e-14
3.17185e-14
6.94033e-14
1.26532e-13
1.6823e-13
2.30352e-13
5.23133e-13
8.45881e-13
3.53344e-13
1.6805e-13
5.30327e-13
8.2101e-13
6.15302e-13
2.105e-06
-5.16053e-15
-2.93488e-15
-1.63809e-15
-8.67508e-16
-3.75957e-16
-2.46519e-35
1.20756e-15
2.29005e-14
8.62713e-14
1.14872e-13
1.24412e-13
2.39033e-13
2.87365e-13
9.38104e-14
4.23159e-14
4.22486e-13
1.93694e-12
6.15272e-13
2.10507e-06
-2.64008e-15
-1.52607e-15
-8.76711e-16
-4.99932e-16
-2.80344e-16
-1.5094e-16
-6.87662e-17
-1.73866e-18
3.44958e-16
2.50107e-15
4.47713e-15
8.02459e-15
2.41045e-14
1.11982e-14
1.57578e-14
4.00485e-13
1.99443e-12
6.15365e-13
2.10499e-06
-9.88429e-16
-5.57437e-16
-3.14449e-16
-1.77462e-16
-1.00226e-16
-5.71214e-17
-3.21125e-17
-1.627e-17
-3.35759e-18
5.19108e-18
3.64448e-17
1.20184e-16
3.98048e-16
1.5419e-15
1.0132e-14
3.81127e-13
1.99109e-12
6.15562e-13
2.10169e-06
-3.024e-16
-1.63808e-16
-8.85608e-17
-4.82768e-17
-2.68131e-17
-1.50243e-17
-8.26862e-18
-4.10597e-18
-1.45391e-18
7.3605e-19
1.14023e-17
5.30065e-17
2.57679e-16
1.27457e-15
9.65541e-15
3.60187e-13
1.99595e-12
6.158e-13
6.21636e-07
-8.15927e-17
-4.15175e-17
-2.16121e-17
-1.14706e-17
-6.12825e-18
-3.16226e-18
-1.41987e-18
0
5.60587e-19
5.12261e-18
1.50181e-17
5.23472e-17
2.47857e-16
1.24272e-15
1.03168e-14
3.56392e-13
2.19356e-12
1.18721e-12
1.18721e-12
-2.15078e-17
-9.98366e-18
-4.76264e-18
-2.32403e-18
-1.08315e-18
-2.30482e-19
3.12457e-19
3.23326e-18
1.85234e-17
5.77714e-17
1.16402e-16
1.90325e-16
4.75386e-16
2.57607e-15
3.35087e-14
4.18058e-13
2.64803e-12
1.18721e-12
3.58408e-09
-5.62553e-18
-2.3316e-18
-9.85453e-19
-4.15428e-19
-2.46089e-20
7.70259e-19
7.69992e-18
4.00701e-17
1.50336e-16
4.3442e-16
9.97549e-16
2.71249e-15
1.12356e-14
6.14796e-14
2.93056e-13
1.14488e-12
3.44887e-12
1.18723e-12
1.23152e-06
-1.4238e-18
-5.37165e-19
-2.01816e-19
-6.04072e-20
2.93137e-19
5.98628e-18
4.6659e-17
2.27596e-16
8.95624e-16
3.25998e-15
1.47813e-14
8.66055e-14
3.94522e-13
1.36745e-12
2.5951e-12
4.62226e-12
5.77741e-12
1.18858e-12
2.22736e-06
-3.32299e-19
-1.15706e-19
-3.88704e-20
7.81888e-21
1.04101e-18
1.82921e-17
1.99118e-16
1.19255e-15
6.6677e-15
4.031e-14
2.90005e-13
1.6159e-12
5.5017e-12
1.23847e-11
1.46123e-11
1.51469e-11
1.32574e-11
1.18923e-12
2.2274e-06
-6.79048e-20
-2.18238e-20
-6.20063e-21
3.95565e-20
1.71609e-18
4.04475e-17
6.2771e-16
5.90689e-15
5.10638e-14
3.83039e-13
2.4465e-12
1.05068e-11
2.74781e-11
4.50544e-11
4.61072e-11
3.659e-11
3.20784e-11
1.19052e-12
2.20886e-06
-1.17225e-20
-3.43639e-21
-5.15439e-22
4.33005e-20
2.2575e-18
6.44239e-17
1.35596e-15
2.12512e-14
2.26314e-13
1.63858e-12
8.37403e-12
2.90778e-11
6.29361e-11
8.26851e-11
8.69906e-11
6.87094e-11
6.80042e-11
1.19531e-12
2.141e-06
-1.65456e-21
-4.33755e-22
1.31608e-22
4.15843e-20
2.44977e-18
7.8167e-17
2.04439e-15
4.74725e-14
5.25968e-13
3.48113e-12
1.49401e-11
4.50279e-11
8.68261e-11
9.96106e-11
1.08394e-10
1.33931e-10
1.58175e-10
1.2076e-12
2.141e-06
-1.83827e-22
-4.16976e-23
1.36349e-22
2.59231e-20
2.34474e-18
8.07884e-17
2.33833e-15
6.90545e-14
7.51786e-13
4.63078e-12
1.78336e-11
5.00275e-11
9.24454e-11
9.95381e-11
1.04795e-10
5.53048e-10
7.36569e-10
1.24027e-12
2.07349e-06
-1.53122e-23
-2.7419e-24
5.12438e-23
1.11166e-20
1.39357e-18
6.12382e-17
2.28975e-15
7.60815e-14
8.14928e-13
4.84549e-12
1.76903e-11
4.32895e-11
7.88132e-11
6.4869e-11
3.82334e-11
2.43883e-09
3.16151e-09
1.39709e-12
3.81858e-07
-8.95009e-25
-7.07369e-26
1.79107e-23
4.06104e-21
5.28154e-19
2.45883e-17
1.29329e-15
6.62617e-14
6.69019e-13
3.49745e-12
1.04414e-11
1.85344e-11
3.63497e-11
2.12523e-11
2.65256e-13
4.5711e-09
5.48313e-09
2.11073e-12
1.1973e-07
-3.32906e-26
1.39151e-26
4.1283e-24
1.17441e-21
1.59645e-19
6.78672e-18
3.73121e-16
2.76551e-14
2.55808e-13
1.16841e-12
2.97084e-12
4.56284e-12
8.47637e-12
3.24453e-12
2.65256e-13
4.73521e-09
5.48359e-09
3.54938e-12
6.30627e-07
-6.69003e-28
2.04093e-27
5.80506e-25
2.2303e-22
3.49168e-20
1.42649e-18
6.97406e-17
5.9716e-15
5.16985e-14
2.16632e-13
4.9185e-13
7.35892e-13
1.22631e-12
1.90907e-13
3.50118e-13
1.44044e-09
3.87286e-09
2.28484e-09
7.22671e-07
-5.2262e-30
1.56232e-28
4.33798e-26
2.44104e-23
4.39004e-21
1.93061e-19
8.50069e-18
7.53865e-16
6.11353e-15
2.36005e-14
4.88425e-14
7.12663e-14
1.06963e-13
4.21673e-15
2.36848e-11
8.66844e-11
4.55672e-10
4.62693e-23
7.22566e-07
-7.15454e-33
9.16996e-33
7.60357e-28
1.26997e-24
2.3465e-22
1.14447e-20
5.24759e-19
4.45875e-17
3.3746e-16
1.19844e-15
2.30475e-15
3.29407e-15
4.30449e-15
6.64756e-16
1.62012e-12
7.6966e-20
4.62694e-23
7.12884e-24
6.90963e-07
-5.52762e-38
-4.42066e-40
8.82708e-36
1.34382e-30
2.65867e-27
7.02765e-25
1.38266e-22
1.15201e-20
6.10846e-20
1.89808e-19
3.37803e-19
4.35428e-19
1.78824e-19
5.59962e-21
5.25622e-16
3.65524e-17
4.98065e-20
0
6.28432e-07
)
;

boundaryField
{
    leftWall
    {
        type            zeroGradient;
    }
    rightWall
    {
        type            zeroGradient;
    }
    lowerWall
    {
        type            zeroGradient;
    }
    atmosphere
    {
        type            inletOutlet;
        inletValue      uniform 0;
        value           nonuniform List<scalar> 
46
(
0
8.66995e-11
5.55359e-10
5.82295e-10
4.38472e-10
2.28205e-10
8.22278e-11
1.74872e-11
1.79239e-12
5.52264e-14
2.53475e-16
1.13216e-19
1.91251e-24
-4.36217e-20
-6.25748e-20
-3.55896e-20
-1.12157e-20
-2.17551e-21
-2.62252e-22
-1.86907e-23
-7.16498e-25
-1.3185e-26
0
0
0
0
0
0
0
0
0
0
0
0
0
0
0
0
0
0
0
0
0
0
0
6.28432e-07
)
;
    }
    defaultFaces
    {
        type            empty;
    }
}


// ************************************************************************* //
