/*--------------------------------*- C++ -*----------------------------------*\
  =========                 |
  \\      /  F ield         | OpenFOAM: The Open Source CFD Toolbox
   \\    /   O peration     | Website:  https://openfoam.org
    \\  /    A nd           | Version:  9
     \\/     M anipulation  |
\*---------------------------------------------------------------------------*/
FoamFile
{
    format      ascii;
    class       surfaceScalarField;
    location    "1";
    object      alphaPhi0.water;
}
// * * * * * * * * * * * * * * * * * * * * * * * * * * * * * * * * * * * * * //

dimensions      [0 3 -1 0 0 0 0];

internalField   nonuniform List<scalar> 
4432
(
9.02089e-07
-9.02089e-07
-9.10604e-07
1.81269e-06
-3.36044e-06
2.44984e-06
-5.91467e-06
2.55423e-06
-8.43312e-06
2.51844e-06
-1.07837e-05
2.35056e-06
-1.28238e-05
2.04016e-06
-1.43903e-05
1.56644e-06
-1.53098e-05
9.19546e-07
-1.54363e-05
1.26531e-07
-1.47377e-05
-6.98632e-07
-1.33847e-05
-1.35296e-06
-1.16233e-05
-1.76143e-06
-9.5535e-06
-1.85206e-06
-8.02266e-06
-1.54705e-06
-6.90955e-06
-1.12954e-06
-6.02606e-06
-8.99911e-07
-4.82793e-06
-1.21456e-06
-2.73784e-06
-2.10676e-06
4.46556e-07
-3.22001e-06
3.9268e-06
-3.54823e-06
4.53509e-06
-6.41611e-07
4.63283e-06
-7.99566e-07
-1.02522e-07
-2.97203e-06
3.98516e-06
-5.66045e-06
5.13825e-06
-8.39141e-06
5.28519e-06
-1.09506e-05
5.07767e-06
-1.31626e-05
4.56247e-06
-1.48592e-05
3.73682e-06
-1.58942e-05
2.60145e-06
-1.61904e-05
1.21572e-06
-1.57891e-05
-2.74766e-07
-1.48171e-05
-1.67057e-06
-1.34021e-05
-2.76797e-06
-1.1731e-05
-3.43254e-06
-1.00754e-05
-3.50774e-06
-8.69506e-06
-2.92086e-06
-7.76402e-06
-2.03667e-06
-7.1476e-06
-1.51596e-06
-6.3908e-06
-1.9931e-06
-5.01089e-06
-3.55574e-06
-2.64481e-06
-5.63693e-06
2.75018e-07
-6.46802e-06
2.41165e-06
-2.77907e-06
7.06009e-06
-1.81509e-06
1.71257e-06
-4.06644e-06
6.23651e-06
-6.62506e-06
7.69688e-06
-9.20342e-06
7.86355e-06
-1.1591e-05
7.46525e-06
-1.3619e-05
6.59046e-06
-1.51314e-05
5.24922e-06
-1.60035e-05
3.47354e-06
-1.61812e-05
1.39342e-06
-1.57059e-05
-7.50011e-07
-1.46969e-05
-2.67961e-06
-1.32941e-05
-4.17075e-06
-1.16828e-05
-5.04381e-06
-1.01324e-05
-5.05811e-06
-8.93814e-06
-4.11517e-06
-8.26829e-06
-2.70651e-06
-7.97532e-06
-1.80894e-06
-7.66348e-06
-2.30495e-06
-6.8536e-06
-4.36562e-06
-5.11293e-06
-7.37759e-06
-2.48892e-06
-9.09164e-06
1.05879e-07
-5.37347e-06
7.16598e-06
-2.4027e-06
4.11527e-06
-4.73258e-06
8.5664e-06
-7.18953e-06
1.01538e-05
-9.63347e-06
1.03075e-05
-1.18858e-05
9.71758e-06
-1.37903e-05
8.49495e-06
-1.52e-05
6.65893e-06
-1.59983e-05
4.2719e-06
-1.61344e-05
1.52947e-06
-1.56456e-05
-1.23879e-06
-1.46403e-05
-3.6849e-06
-1.3258e-05
-5.55312e-06
-1.16813e-05
-6.62053e-06
-1.01972e-05
-6.54213e-06
-9.14369e-06
-5.16872e-06
-8.71591e-06
-3.13429e-06
-8.78392e-06
-1.74093e-06
-8.96877e-06
-2.12011e-06
-8.76509e-06
-4.5693e-06
-7.55559e-06
-8.58709e-06
-5.09508e-06
-1.1551e-05
-2.08167e-06
-8.38671e-06
5.0839e-06
-2.74882e-06
6.86408e-06
-5.15838e-06
1.0976e-05
-7.55213e-06
1.25476e-05
-9.89434e-06
1.26497e-05
-1.20475e-05
1.18707e-05
-1.38718e-05
1.03193e-05
-1.5229e-05
8.01604e-06
-1.60038e-05
5.04674e-06
-1.61405e-05
1.66621e-06
-1.56693e-05
-1.71004e-06
-1.46899e-05
-4.66426e-06
-1.33323e-05
-6.91073e-06
-1.1771e-05
-8.18187e-06
-1.03223e-05
-7.99076e-06
-9.39016e-06
-6.1009e-06
-9.21624e-06
-3.3082e-06
-9.68367e-06
-1.27349e-06
-1.04162e-05
-1.38759e-06
-1.08582e-05
-4.12733e-06
-1.01523e-05
-9.29294e-06
-7.72691e-06
-1.39763e-05
-3.95598e-06
-1.21589e-05
1.12691e-06
-2.95377e-06
9.81785e-06
-5.42335e-06
1.34455e-05
-7.77245e-06
1.48967e-05
-1.00379e-05
1.49152e-05
-1.21224e-05
1.39552e-05
-1.39049e-05
1.21018e-05
-1.52537e-05
9.36484e-06
-1.60493e-05
5.84241e-06
-1.62248e-05
1.84168e-06
-1.58017e-05
-2.13318e-06
-1.48723e-05
-5.59359e-06
-1.35497e-05
-8.23342e-06
-1.19911e-05
-9.74036e-06
-1.05513e-05
-9.43054e-06
-9.7195e-06
-6.93271e-06
-9.79939e-06
-3.2283e-06
-1.06886e-05
-3.84229e-07
-1.20145e-05
-6.17551e-08
-1.31598e-05
-2.98194e-06
-1.29779e-05
-9.47467e-06
-1.05271e-05
-1.64263e-05
-5.81114e-06
-1.68708e-05
-4.68348e-06
-3.06694e-06
1.28848e-05
-5.56379e-06
1.59424e-05
-7.87208e-06
1.7205e-05
-1.00782e-05
1.71213e-05
-1.21208e-05
1.59978e-05
-1.38977e-05
1.38788e-05
-1.52823e-05
1.07494e-05
-1.61443e-05
6.70442e-06
-1.64002e-05
2.09762e-06
-1.6063e-05
-2.47039e-06
-1.52168e-05
-6.43983e-06
-1.39487e-05
-9.50146e-06
-1.23886e-05
-1.13002e-05
-1.0931e-05
-1.08874e-05
-1.01669e-05
-7.6967e-06
-1.048e-05
-2.9154e-06
-1.17915e-05
9.24873e-07
-1.37497e-05
1.89399e-06
-1.56665e-05
-1.06418e-06
-1.60475e-05
-9.08543e-06
-1.36263e-05
-1.88222e-05
-8.073e-06
-2.22211e-05
-1.27574e-05
-3.10089e-06
1.59857e-05
-5.59541e-06
1.84369e-05
-7.85813e-06
1.94677e-05
-1.00163e-05
1.92795e-05
-1.20412e-05
1.80226e-05
-1.38494e-05
1.5687e-05
-1.53163e-05
1.22163e-05
-1.62955e-05
7.68355e-06
-1.66819e-05
2.4841e-06
-1.64799e-05
-2.67247e-06
-1.5763e-05
-7.15671e-06
-1.45837e-05
-1.06806e-05
-1.30231e-05
-1.28546e-05
-1.14908e-05
-1.23959e-05
-1.07336e-05
-8.45289e-06
-1.12204e-05
-2.42241e-06
-1.29142e-05
2.32951e-06
-1.55542e-05
4.02371e-06
-1.8306e-05
1.54343e-06
-1.85531e-05
-7.75647e-06
-1.66932e-05
-1.82577e-05
-1.17265e-05
-2.793e-05
-2.44841e-05
7.1471e-06
-7.14489e-06
-5.71326e-06
1.28626e-05
-2.43378e-05
1.86267e-05
-3.74194e-05
1.35686e-05
-4.18249e-05
4.90064e-06
-3.88295e-05
-3.24584e-06
-3.17525e-05
-7.94642e-06
-2.25665e-05
-9.35345e-06
-1.52817e-05
-7.2803e-06
-1.10297e-05
-4.24428e-06
-9.56314e-06
-1.45882e-06
-9.63417e-06
7.87794e-08
-9.7922e-06
3.82668e-07
-8.93242e-06
-1.0198e-06
-5.83751e-06
-3.09415e-06
-2.35511e-06
-3.48169e-06
1.09078e-06
-3.44522e-06
3.88152e-06
-2.79009e-06
3.75214e-06
-3.30673e-06
-3.84715e-06
-1.60534e-05
2.56114e-05
-2.50726e-05
2.82293e-05
-2.84262e-05
1.76478e-05
-2.89331e-05
5.28189e-06
-2.59647e-05
-6.14604e-06
-2.2443e-05
-1.51433e-05
-1.78316e-05
-1.7216e-05
-1.4167e-05
-1.24077e-05
-1.10454e-05
-7.77773e-06
-8.42416e-06
-4.20361e-06
-7.06559e-06
-1.19603e-06
-6.23617e-06
-2.11891e-07
-5.36013e-06
-2.12198e-06
-3.58145e-06
-4.85252e-06
-1.87252e-06
-5.12627e-06
-5.78244e-07
-4.69516e-06
1.14057e-06
-4.50825e-06
4.78959e-06
-9.21905e-06
5.36295e-06
-1.78471e-05
3.39746e-05
-2.00736e-05
3.15662e-05
-2.46341e-05
2.20826e-05
-2.63688e-05
6.89093e-06
-2.20536e-05
-1.05868e-05
-1.9311e-05
-2.19155e-05
-1.52567e-05
-2.46292e-05
-1.02989e-05
-1.8915e-05
-7.28046e-06
-1.24661e-05
-6.23549e-06
-6.61537e-06
-4.48635e-06
-2.73017e-06
-3.29888e-06
-1.24491e-06
-1.94034e-06
-2.97564e-06
-7.84166e-07
-5.44257e-06
-3.41477e-07
-5.18501e-06
-6.90886e-07
-4.24951e-06
-1.06429e-06
-4.23102e-06
3.5631e-06
-1.18926e-05
1.72423e-05
-1.42513e-05
3.76242e-05
-1.96604e-05
3.65495e-05
-2.43819e-05
2.651e-05
-2.62654e-05
9.81405e-06
-2.38285e-05
-1.05143e-05
-1.92558e-05
-2.15674e-05
-1.43776e-05
-3.01055e-05
-1.12294e-05
-2.20373e-05
-6.20504e-06
-1.76629e-05
-2.77361e-06
-1.1177e-05
-9.0444e-07
-5.23753e-06
7.42337e-08
-1.69057e-06
8.00923e-07
-2.93519e-06
1.58734e-06
-5.4714e-06
1.4857e-06
-4.85784e-06
-1.70082e-07
-2.76794e-06
-1.82159e-06
-2.46829e-06
1.78517e-06
-1.29275e-05
3.01826e-05
-1.49493e-05
4.67434e-05
-1.84975e-05
4.67737e-05
-1.92688e-05
3.23472e-05
-1.5024e-05
6.59188e-06
-1.04174e-05
-1.97408e-06
-9.40284e-06
-9.46373e-06
-1.09706e-05
-7.17509e-06
-8.3824e-06
-1.85684e-05
-4.82522e-06
-1.71003e-05
-8.30943e-07
-1.18198e-05
1.81348e-06
-9.03377e-06
2.82017e-06
-2.90234e-06
3.31054e-06
-3.63064e-06
4.2353e-06
-6.0332e-06
3.06731e-06
-3.62239e-06
5.46188e-07
-6.48394e-08
-1.73287e-06
-1.82058e-08
1.29309e-07
-1.30744e-05
4.3219e-05
-1.71251e-05
5.45379e-05
-2.02095e-05
5.74716e-05
-7.49154e-06
2.41471e-05
-3.86397e-06
3.13955e-06
-4.04078e-06
-4.26181e-06
-2.16462e-06
-1.38044e-05
-2.85947e-06
-6.88884e-06
-2.92808e-06
-4.20345e-06
-1.78981e-06
-5.22967e-06
1.62796e-06
-4.69975e-06
6.47992e-06
-1.20811e-05
6.83464e-06
-5.43844e-06
7.23369e-06
-4.16378e-06
6.09349e-06
-4.54997e-06
3.67135e-06
-1.00416e-06
6.90511e-07
7.05118e-07
-6.11577e-07
2.9947e-07
-6.68671e-08
-1.2669e-05
5.60398e-05
-1.52796e-05
5.70046e-05
-1.45764e-05
5.6441e-05
-3.67617e-06
1.25396e-05
-5.64781e-06
4.13008e-06
-1.09642e-05
-8.9135e-06
-3.37012e-06
-4.07351e-05
-7.80044e-07
-1.78563e-05
-4.98753e-07
-4.83911e-06
1.20385e-07
-6.20589e-06
1.2837e-06
-6.21743e-06
9.19529e-06
-6.42063e-06
1.10467e-05
-4.46459e-06
8.97351e-06
-2.53048e-06
5.74247e-06
-2.0681e-06
6.10687e-07
0
8.87722e-08
4.44167e-07
-8.60523e-08
3.38536e-07
-1.52926e-07
-1.23316e-05
6.85272e-05
-1.25634e-05
5.70682e-05
-5.03604e-06
4.70618e-05
-4.11175e-06
6.2348e-06
-7.89898e-06
4.52388e-06
-1.27599e-05
-1.99412e-05
-7.0067e-06
-4.64594e-05
-9.51584e-07
-4.6279e-05
1.18197e-07
-6.27535e-06
1.15794e-06
-7.6e-06
4.08664e-06
-8.68343e-06
4.3372e-06
-8.02939e-06
8.31625e-06
-1.41838e-06
7.2128e-06
2.20088e-08
1.3201e-06
1.08287e-08
3.3138e-07
4.79006e-07
1.69622e-07
6.05673e-07
1.06497e-07
4.01653e-07
-4.64326e-08
-6.42417e-06
2.24098e-05
-1.16533e-05
2.36661e-05
-1.63056e-05
2.412e-05
-2.07598e-05
2.37337e-05
-2.50855e-05
2.23483e-05
-2.91667e-05
1.97682e-05
-3.27377e-05
1.57873e-05
-3.54129e-05
1.03587e-05
-3.68836e-05
3.95481e-06
-3.71314e-05
-2.42473e-06
-3.62631e-05
-8.02373e-06
-3.42446e-05
-1.26868e-05
-3.07762e-05
-1.60968e-05
-2.56816e-05
-1.25451e-05
-2.07213e-05
-6.33008e-06
-1.80764e-05
-5.92756e-07
-2.02407e-05
1.15995e-06
-2.5661e-05
1.84506e-06
-3.10988e-05
1.99718e-06
-3.31269e-05
-1.85876e-06
-4.70735e-05
-2.18855e-05
-4.19458e-05
-3.5609e-05
-3.14399e-05
-3.499e-05
-5.69897e-06
2.81088e-05
-1.03911e-05
2.83581e-05
-1.47141e-05
2.8443e-05
-1.90816e-05
2.81012e-05
-2.36662e-05
2.69329e-05
-2.84483e-05
2.45503e-05
-3.31692e-05
2.05082e-05
-3.73066e-05
1.44961e-05
-4.04362e-05
7.08439e-06
-4.25347e-05
-3.25946e-07
-4.34165e-05
-7.13654e-06
-4.05685e-05
-9.19619e-06
-2.71252e-05
-6.25876e-06
-1.41485e-05
-7.94881e-06
-7.61823e-06
-4.80046e-06
-6.0701e-06
-1.11669e-07
-5.94935e-06
0
-4.87579e-06
5.74497e-07
-2.11462e-06
1.49934e-07
-3.81246e-05
-1.54264e-06
-7.02265e-05
-2.85362e-05
-6.86081e-05
-3.72272e-05
-3.0149e-05
-6.9899e-05
-4.17883e-06
3.22876e-05
-8.0023e-06
3.21816e-05
-1.1855e-05
3.22957e-05
-1.61373e-05
3.23835e-05
-2.10936e-05
3.18892e-05
-2.68179e-05
3.02746e-05
-3.30903e-05
2.67806e-05
-3.9291e-05
2.06967e-05
-4.48167e-05
1.26102e-05
-4.97212e-05
4.58434e-06
-3.8977e-05
-5.54174e-07
-1.62576e-05
-1.53238e-06
-1.44404e-05
-5.89148e-06
-1.21418e-05
-7.91419e-06
-4.64616e-06
-2.32121e-06
-8.42246e-07
-2.58143e-07
-3.90519e-07
2.02314e-07
-2.58877e-07
4.1564e-07
-8.3112e-07
4.26711e-07
-4.61269e-05
-6.4705e-07
-7.54924e-05
-2.72259e-05
-7.59079e-05
-3.68139e-05
-3.12643e-05
-7.47925e-05
-1.74737e-06
3.4035e-05
-4.40226e-06
3.48365e-05
-7.58762e-06
3.54811e-05
-1.16396e-05
3.64355e-05
-1.68055e-05
3.70551e-05
-2.33003e-05
3.67694e-05
-3.01962e-05
3.36765e-05
-3.90815e-05
2.13989e-05
-4.02822e-05
1.13573e-05
-2.14905e-05
1.91725e-06
-1.53351e-05
5.97326e-07
-1.99686e-05
1.1637e-07
-3.45155e-05
-2.61733e-06
-2.152e-05
-6.43026e-06
-4.0259e-06
-6.958e-06
-5.21725e-07
-1.77629e-06
-3.06518e-07
-4.01148e-08
-2.11225e-07
3.52833e-07
-1.83554e-07
4.61754e-07
-6.11113e-06
1.95082e-08
-5.70588e-05
-5.02236e-06
-6.89338e-05
-3.19507e-05
-3.37119e-05
-6.64854e-05
1.19843e-06
3.28366e-05
5.0998e-08
3.59839e-05
-2.30994e-06
3.06969e-05
-5.41445e-06
2.61924e-05
-8.81635e-06
1.983e-05
-1.18816e-05
1.20076e-05
-1.34251e-05
4.20179e-06
-1.14879e-05
3.66629e-09
-1.05968e-05
0
-1.85484e-05
0
-2.68738e-05
4.30788e-06
-3.00783e-05
3.40554e-06
-3.12154e-05
-1.35152e-06
-3.16152e-05
-5.94571e-06
-2.98238e-05
-8.61614e-06
-3.82115e-06
-7.52655e-06
-8.39403e-07
-2.98921e-06
-2.69819e-07
-1.54151e-07
2.23106e-08
2.45181e-07
-1.25006e-08
7.2931e-08
-6.17036e-06
1.4398e-09
-4.6795e-05
-4.80554e-06
-2.45813e-05
-5.56942e-05
2.04723e-06
4.92735e-06
2.17081e-06
4.86919e-06
7.58635e-07
1.25187e-06
-1.46137e-07
9.60385e-09
-5.46104e-07
1.72448e-08
-3.59698e-07
1.79825e-08
-1.98632e-07
6.56072e-09
-2.35429e-07
0
-2.90115e-07
0
-1.89418e-06
0
-1.71075e-05
2.86003e-07
-3.11682e-05
2.2243e-06
-3.25773e-05
2.24708e-07
-3.64498e-05
-1.81941e-06
-3.98194e-05
-4.98993e-06
-3.30871e-05
-1.39739e-05
-7.49492e-06
-7.77201e-06
-1.37162e-06
-6.21932e-06
-3.13342e-07
-5.76137e-07
-3.40432e-09
2.61228e-09
-1.19468e-08
1.81884e-07
-4.81289e-06
-8.95167e-09
-4.11472e-07
-2.90756e-05
-2.67848e-08
2.00803e-10
6.3749e-08
1.21552e-10
6.71288e-09
8.61416e-10
-9.06679e-09
4.37817e-10
-1.55021e-08
1.33216e-09
-1.44591e-08
1.7437e-09
-1.63092e-08
6.40248e-10
-2.43459e-08
2.23649e-10
-6.07412e-08
0
-3.10156e-07
0
-9.89581e-07
0
-4.66075e-07
6.0053e-09
-4.28901e-07
0
-4.15921e-06
0
-1.73811e-05
-6.1587e-07
-2.46406e-05
-3.44666e-06
-2.43435e-05
-4.84239e-06
-1.72669e-05
-1.00148e-05
-5.35506e-06
-6.89681e-06
-5.8191e-07
-3.52787e-06
-1.46826e-07
-2.57487e-07
-1.91588e-07
3.15239e-08
-3.42463e-07
-2.64834e-07
-1.51056e-09
0
-2.10212e-09
0
-2.43193e-09
0
-2.89706e-09
2.78522e-11
-2.65211e-09
9.65644e-11
-1.876e-09
1.24576e-10
-1.9049e-09
5.85148e-11
-2.94618e-09
6.46537e-11
-9.16296e-09
0
-9.59901e-09
3.10811e-10
-1.04551e-08
1.95271e-10
-5.19343e-09
2.50273e-10
-9.41637e-09
0
-1.60752e-08
0
-6.25285e-07
-7.18233e-09
-4.15841e-06
-5.259e-08
-1.27867e-05
-1.21228e-06
-1.83963e-05
-5.71317e-06
-1.84773e-05
-7.67894e-06
-1.27098e-05
-8.08665e-06
-7.33701e-07
-2.59161e-06
-5.56362e-07
-1.50066e-07
-4.25577e-07
-1.08409e-06
-7.89838e-11
0
-1.73112e-10
0
-2.32432e-10
0
-2.40436e-10
5.48773e-13
-2.0285e-10
5.63855e-12
-1.43838e-10
7.40063e-12
-1.53066e-10
6.64223e-12
-2.2595e-10
7.81174e-12
-5.58052e-10
1.12694e-11
-4.72251e-10
2.81786e-11
-3.1984e-10
1.37026e-11
-1.23813e-10
1.06617e-11
-1.73848e-10
0
-2.49562e-10
0
-7.3961e-09
0
-5.983e-08
-1.29749e-10
-1.27968e-06
-3.40364e-09
-7.99806e-06
-3.76387e-08
-1.37765e-05
-3.55101e-07
-1.93048e-05
-1.75321e-06
-4.58057e-06
-4.17562e-06
-2.71511e-06
-2.13424e-06
-3.51485e-06
-5.98079e-06
-3.82834e-12
0
-9.57529e-12
0
-1.28303e-11
0
-1.40832e-11
2.25685e-14
-1.21625e-11
3.20431e-13
-9.74702e-12
4.44992e-13
-9.87373e-12
6.09295e-13
-1.70917e-11
8.12318e-13
-3.41232e-11
1.57211e-12
-2.35847e-11
2.02931e-12
-1.14263e-11
5.44769e-13
-4.06315e-12
3.41045e-13
-1.65745e-11
0
-2.79056e-11
0
-1.67084e-11
1.07565e-12
-1.75312e-10
-5.32971e-13
-3.57472e-09
-4.04736e-12
-4.11343e-08
-7.98051e-11
-3.95324e-07
-1.10401e-09
-1.72923e-06
-1.31431e-08
-5.13922e-06
-1.36827e-07
-6.35337e-06
-9.51451e-07
-2.01976e-06
-6.71673e-06
-1.53128e-13
0
-3.94307e-13
0
-5.99867e-13
0
-6.91504e-13
5.886e-15
-6.26438e-13
2.1764e-14
-5.66593e-13
3.22779e-14
-5.54775e-13
4.91374e-14
-1.02749e-12
7.96994e-14
-1.64737e-12
1.70177e-13
-9.13953e-13
1.31436e-13
-3.68082e-13
0
-1.29087e-13
5.18115e-15
-6.88878e-13
4.25354e-15
-2.19526e-12
0
-1.15049e-12
0
-3.75799e-13
2.62248e-14
-4.27677e-12
-7.21282e-14
-8.4291e-11
-2.25207e-14
-1.1883e-09
-2.0536e-14
-1.43345e-08
-1.0543e-14
-1.50986e-07
-1.04321e-14
-1.10243e-06
1.41775e-16
6.89365e-16
-5.66888e-06
-4.93745e-15
1.49536e-15
-1.40309e-14
1.93611e-15
-2.49063e-14
2.26336e-15
-2.94046e-14
2.97334e-15
-2.78698e-14
3.96805e-15
-2.64103e-14
4.9266e-15
-2.49872e-14
6.40375e-15
-3.91627e-14
1.0482e-14
-2.70204e-14
1.73156e-14
7.25573e-15
1.08025e-14
1.34694e-15
3.72654e-15
-7.01051e-16
5.30087e-15
-5.01443e-15
7.80955e-15
-1.10736e-14
3.74659e-16
-8.84141e-14
1.13865e-15
-8.11913e-14
2.0883e-14
-3.88302e-15
-3.56781e-15
-1.41257e-15
-1.95309e-14
-9.2106e-16
-3.73889e-15
-3.65285e-16
-1.79196e-15
1.49012e-16
-1.01481e-15
7.44865e-16
-3.02794e-16
-1.42524e-16
-1.18514e-17
-1.37463e-16
1.11058e-15
-5.02076e-16
1.41074e-15
-9.48463e-16
1.7537e-15
-1.14159e-15
1.94707e-15
-1.08069e-15
2.04131e-15
-8.67614e-16
2.137e-15
-5.08855e-16
2.39083e-15
7.45863e-16
3.11874e-15
5.78095e-15
2.94063e-15
1.04996e-14
8.06572e-16
3.10493e-15
4.43659e-15
2.20609e-15
3.39756e-15
2.31545e-15
6.18745e-15
1.26412e-15
2.40781e-15
5.94974e-16
1.05414e-15
6.31019e-16
3.4005e-16
-2.7714e-15
1.15408e-15
-1.22637e-15
-1.05664e-15
-1.36685e-15
-3.92238e-15
-6.44424e-16
-5.97455e-15
-2.46687e-16
-5.08948e-15
-1.28946e-16
-2.89023e-15
-2.45517e-15
-6.31129e-17
6.17644e-18
6.3433e-16
-2.28765e-17
8.89277e-16
-4.65349e-17
1.01153e-15
-4.24933e-17
1.04079e-15
-8.08715e-18
1.00926e-15
5.93339e-17
9.69891e-16
1.79133e-16
9.56527e-16
4.93112e-16
9.68604e-16
1.18517e-15
9.41738e-16
1.61485e-15
7.68769e-16
1.34056e-15
1.24671e-15
1.23519e-15
9.19594e-16
2.08596e-15
1.72424e-15
1.32881e-15
1.44957e-15
7.88861e-16
8.08344e-16
6.24721e-16
2.45234e-16
1.0746e-15
7.97496e-17
1.56212e-15
-8.01671e-17
1.40553e-15
-2.11642e-16
2.21521e-16
-1.08674e-15
-3.57899e-16
-1.27712e-15
-5.59023e-16
-2.31669e-15
-2.33342e-15
-3.95214e-16
1.40705e-17
2.3885e-16
2.57508e-17
3.93171e-16
3.47962e-17
3.93267e-16
4.91318e-17
3.79784e-16
6.43927e-17
3.43579e-16
8.41303e-17
2.94042e-16
1.12169e-16
2.45944e-16
1.44115e-16
1.71008e-16
1.80985e-16
1.05198e-16
1.93849e-16
6.80483e-17
2.16799e-16
5.59874e-16
2.07202e-16
3.74001e-16
4.23775e-16
5.28058e-16
4.59914e-16
4.89901e-16
4.31483e-16
3.52204e-16
3.90217e-16
8.79484e-17
3.34779e-16
2.32319e-17
3.21082e-16
-1.11474e-18
4.3172e-16
-4.47926e-17
4.81924e-16
-1.21832e-16
3.07536e-16
-1.66842e-16
4.07136e-16
-2.03526e-16
-3.40809e-16
1.97358e-16
5.84204e-18
4.55216e-17
1.55188e-17
8.78106e-17
2.17521e-17
8.23752e-17
2.72024e-17
7.57824e-17
2.99455e-17
6.37668e-17
3.08172e-17
4.92827e-17
2.91338e-17
3.4077e-17
1.75842e-17
1.16661e-17
1.19497e-17
4.99051e-17
2.42472e-17
4.16928e-17
-3.32153e-17
-4.7151e-17
-1.417e-16
-1.66725e-16
-1.3581e-16
-1.31604e-16
-8.36584e-17
-6.54194e-17
-1.29016e-17
-7.80453e-18
1.5367e-17
6.2112e-18
2.07749e-17
4.59493e-18
3.82788e-17
1.4345e-18
9.06815e-17
9.46535e-18
1.07058e-16
7.57704e-18
9.09391e-17
-1.76002e-17
7.26827e-17
-3.48708e-17
-3.69909e-17
7.71681e-17
1.03222e-18
3.84924e-18
3.52798e-18
8.68048e-18
4.95387e-18
8.40917e-18
5.98513e-18
7.65335e-18
6.15182e-18
6.30221e-18
5.64894e-18
4.78804e-18
3.73103e-18
2.53012e-18
2.56668e-18
5.33887e-18
-2.11563e-17
-3.63031e-17
-1.34064e-16
-1.91032e-16
-3.54241e-16
-4.20715e-16
-5.7864e-16
-5.71925e-16
-6.82936e-16
-5.56549e-16
-6.52931e-16
-4.29669e-16
-5.2882e-16
-2.70132e-16
-3.76057e-16
-1.38262e-16
-2.45447e-16
-5.48789e-17
-1.39328e-16
-1.02123e-17
-6.47929e-17
1.16351e-17
-2.10347e-17
1.6693e-17
1.50165e-17
1.16278e-17
1.8325e-17
5.01228e-18
6.82752e-19
1.3628e-17
9.09116e-20
1.88252e-19
3.83091e-19
5.03853e-19
5.82115e-19
5.24591e-19
6.9807e-19
4.91565e-19
7.13334e-19
4.17281e-19
6.22979e-19
3.20975e-19
5.76738e-19
1.02447e-19
-2.22819e-18
-3.91637e-18
-4.06484e-17
-5.9696e-17
-1.8559e-16
-2.28555e-16
-4.50361e-16
-4.65215e-16
-7.26373e-16
-6.26666e-16
-8.88867e-16
-6.33469e-16
-8.92621e-16
-5.14567e-16
-7.70431e-16
-3.46042e-16
-5.8879e-16
-1.92351e-16
-4.06454e-16
-8.35352e-17
-2.53353e-16
-2.08137e-17
-1.41205e-16
5.94944e-18
-6.7836e-17
1.17515e-17
-2.70426e-17
9.48313e-18
-7.77023e-18
5.52823e-18
2.508e-18
-7.48378e-19
5.32823e-21
6.92322e-21
2.87705e-20
2.42847e-20
4.49841e-20
2.72695e-20
5.58338e-20
2.6406e-20
5.80317e-20
2.32034e-20
4.67484e-20
1.65752e-20
3.44055e-20
6.36591e-20
-3.6027e-18
-5.56548e-18
-3.59458e-17
-4.66836e-17
-1.47676e-16
-1.61673e-16
-3.52801e-16
-3.252e-16
-5.77178e-16
-4.45371e-16
-7.23921e-16
-4.62053e-16
-7.45826e-16
-3.85495e-16
-6.59643e-16
-2.66257e-16
-5.14813e-16
-1.52102e-16
-3.60034e-16
-6.8267e-17
-2.26908e-16
-1.89717e-17
-1.29072e-16
1.90125e-18
-6.53153e-17
5.27122e-18
-2.91899e-17
4.46858e-18
-1.1349e-17
2.73228e-18
1.35282e-18
-3.70448e-18
1.86696e-22
3.01914e-21
1.64209e-21
8.86321e-22
2.65135e-21
1.08154e-21
3.49264e-21
1.08242e-21
3.68003e-21
9.72644e-22
5.02079e-21
6.16342e-22
-3.5573e-20
-5.92601e-20
-2.79812e-18
-3.89883e-18
-2.24862e-17
-2.64027e-17
-8.63379e-17
-8.56457e-17
-2.03652e-16
-1.70364e-16
-3.36113e-16
-2.35566e-16
-4.27455e-16
-2.47827e-16
-4.4587e-16
-2.09279e-16
-3.97432e-16
-1.45676e-16
-3.10558e-16
-8.34679e-17
-2.15773e-16
-3.75261e-17
-1.34171e-16
-1.07463e-17
-7.49287e-17
4.60896e-19
-3.78814e-17
1.73441e-18
-1.72656e-17
1.47746e-18
-7.04658e-18
9.03561e-19
4.5288e-19
-2.54731e-18
1.88057e-24
4.80454e-23
5.97895e-23
6.30505e-22
9.76907e-23
7.20761e-22
1.30129e-22
7.00293e-22
1.39657e-22
6.1344e-22
2.22143e-22
4.12482e-22
-4.24269e-20
-6.48939e-20
-1.55334e-18
-1.98632e-18
-1.09869e-17
-1.1839e-17
-3.99304e-17
-3.63523e-17
-9.24853e-17
-7.09856e-17
-1.52457e-16
-9.79533e-17
-1.9441e-16
-1.03172e-16
-2.02917e-16
-8.69877e-17
-1.80025e-16
-6.00953e-17
-1.39005e-16
-3.39121e-17
-9.46696e-17
-1.49006e-17
-5.72387e-17
-4.15834e-18
-3.08192e-17
1.13203e-19
-1.51957e-17
4.4368e-19
-6.84461e-18
3.6493e-19
-2.8078e-18
2.16828e-19
1.06714e-19
-1.04293e-18
-7.00297e-23
-8.52025e-22
-7.87834e-23
-4.86717e-22
-4.60399e-23
-1.79932e-22
-1.6006e-23
-4.49215e-23
-1.48194e-24
-3.20024e-24
-3.13147e-23
-5.42019e-23
-2.5786e-20
-3.66844e-20
-6.74398e-19
-8.00646e-19
-4.34964e-18
-4.34452e-18
-1.50483e-17
-1.26783e-17
-3.40242e-17
-2.41211e-17
-5.54694e-17
-3.28357e-17
-7.01634e-17
-3.41906e-17
-7.24728e-17
-2.83974e-17
-6.32751e-17
-1.91854e-17
-4.77235e-17
-1.04787e-17
-3.14835e-17
-4.39138e-18
-1.82769e-17
-1.12919e-18
-9.36151e-18
3.24662e-20
-4.4322e-18
9.02339e-20
-1.93747e-18
6.88958e-20
-7.81413e-19
3.88266e-20
1.83602e-20
-2.89891e-19
-5.62469e-23
-6.53195e-22
-9.37416e-23
-5.50056e-22
-8.02302e-23
-2.97109e-22
-6.17492e-23
-1.63845e-22
-5.19525e-23
-1.05809e-22
-7.26113e-23
-1.18219e-22
-1.11916e-20
-1.49361e-20
-2.36779e-19
-2.62993e-19
-1.41693e-18
-1.32043e-18
-4.67827e-18
-3.6664e-18
-1.02709e-17
-6.7498e-18
-1.64113e-17
-8.96721e-18
-2.03812e-17
-9.1171e-18
-2.06093e-17
-7.35834e-18
-1.75107e-17
-4.78706e-18
-1.27515e-17
-2.48287e-18
-8.04855e-18
-9.64216e-19
-4.42587e-18
-2.11189e-19
-2.12715e-18
8.52365e-21
-9.55423e-19
1.45333e-20
-4.00064e-19
9.94598e-21
-1.5622e-19
5.20597e-21
2.32307e-21
-5.68217e-20
-2.83892e-23
-3.15183e-22
-5.44823e-23
-3.04755e-22
-4.99442e-23
-1.76111e-22
-4.08995e-23
-1.03178e-22
-3.55383e-23
-6.86696e-23
-4.48336e-23
-6.9072e-23
-3.7717e-21
-4.7488e-21
-6.82333e-20
-7.12583e-20
-3.82236e-19
-3.33666e-19
-1.2048e-18
-8.80727e-19
-2.555e-18
-1.55836e-18
-3.96717e-18
-1.9994e-18
-4.78863e-18
-1.96002e-18
-4.68831e-18
-1.51493e-18
-3.83079e-18
-9.32581e-19
-2.65896e-18
-4.48756e-19
-1.58284e-18
-1.55171e-19
-8.10887e-19
-2.47167e-20
-3.6071e-19
1.65974e-21
-1.51853e-19
1.80949e-21
-6.02322e-20
1.07982e-21
-2.24933e-20
5.1547e-22
2.13708e-22
-7.90608e-21
-1.07679e-23
-1.1451e-22
-2.23529e-23
-1.19538e-22
-2.09403e-23
-7.05612e-23
-1.73783e-23
-4.1848e-23
-1.50712e-23
-2.7744e-23
-1.79684e-23
-2.63022e-23
-1.02058e-21
-1.2168e-21
-1.62535e-20
-1.60094e-20
-8.55639e-20
-7.01181e-20
-2.57044e-19
-1.75425e-19
-5.23505e-19
-2.96106e-19
-7.83006e-19
-3.62882e-19
-9.08953e-19
-3.38318e-19
-8.51335e-19
-2.46259e-19
-6.59996e-19
-1.40398e-19
-4.29959e-19
-6.07261e-20
-2.37022e-19
-1.75032e-20
-1.10604e-19
-1.09979e-21
-4.50789e-20
2.21674e-22
-1.75461e-20
1.67866e-22
-6.51225e-21
8.57667e-23
-2.29952e-21
3.67038e-23
1.39018e-23
-7.71332e-22
-3.25904e-24
-3.32871e-23
-7.11162e-24
-3.64616e-23
-6.66877e-24
-2.15398e-23
-5.5054e-24
-1.26949e-23
-4.70449e-24
-8.27649e-24
-5.34829e-24
-7.46028e-24
-2.25388e-22
-2.55108e-22
-3.21089e-21
-2.98846e-21
-1.58906e-20
-1.2235e-20
-4.53337e-20
-2.88676e-20
-8.80575e-20
-4.60705e-20
-1.25645e-19
-5.32584e-20
-1.38613e-19
-4.64702e-20
-1.22474e-19
-3.12028e-20
-8.86138e-20
-1.60079e-20
-5.31126e-20
-5.92859e-21
-2.64412e-20
-1.23878e-21
-1.08511e-20
1.13291e-23
-4.04624e-21
1.92868e-23
-1.44199e-21
1.09636e-23
-4.93964e-22
4.78988e-24
-1.62726e-22
1.81715e-24
5.98537e-25
-5.13122e-23
-8.10275e-25
-7.9767e-24
-1.82577e-24
-9.00201e-24
-1.69176e-24
-5.25357e-24
-1.3734e-24
-3.04139e-24
-1.14634e-24
-1.93257e-24
-1.24383e-24
-1.65726e-24
-4.09835e-23
-4.41196e-23
-5.26692e-22
-4.63698e-22
-2.44471e-21
-1.76835e-21
-6.58621e-21
-3.90608e-21
-1.20972e-20
-5.8292e-21
-1.62791e-20
-6.2611e-21
-1.68271e-20
-5.01158e-21
-1.37854e-20
-3.02016e-21
-9.11142e-21
-1.33642e-21
-4.8878e-21
-3.88225e-22
-2.11639e-21
-3.51031e-23
-7.34544e-22
1.6049e-24
-2.48058e-22
1.08975e-24
-8.08443e-23
4.79223e-25
-2.5425e-23
1.77822e-25
-7.7294e-24
5.90976e-26
2.89212e-27
-2.1814e-24
-1.68289e-25
-1.6036e-24
-3.86284e-25
-1.83803e-24
-3.50283e-25
-1.04925e-24
-2.77182e-25
-5.9127e-25
-2.2432e-25
-3.63372e-25
-2.31788e-25
-2.95664e-25
-6.16599e-24
-6.32358e-24
-7.17302e-23
-5.97763e-23
-3.1082e-22
-2.11056e-22
-7.84702e-22
-4.3219e-22
-1.34834e-21
-5.94764e-22
-1.68741e-21
-5.82341e-22
-1.60551e-21
-4.16487e-22
-1.19233e-21
-2.16612e-22
-6.98885e-22
-7.70628e-23
-3.22014e-22
-1.42007e-23
-1.13671e-22
7.3909e-26
-3.46743e-23
8.43439e-26
-1.02643e-23
3.79896e-26
-2.97509e-24
1.35704e-26
-8.45604e-25
4.29138e-27
-2.33837e-25
9.58427e-28
-3.16974e-26
-1.00765e-26
-2.95195e-26
-2.7359e-25
-6.82115e-26
-3.14509e-25
-6.00438e-26
-1.74149e-25
-4.59631e-26
-9.47749e-26
-3.58192e-26
-5.59263e-26
-3.51087e-26
-4.29854e-26
-7.69542e-25
-7.53199e-25
-8.10267e-24
-6.39548e-24
-3.25565e-23
-2.07286e-23
-7.62601e-23
-3.8855e-23
-1.20949e-22
-4.84408e-23
-1.38305e-22
-4.21721e-23
-1.18367e-22
-2.59816e-23
-7.72609e-23
-1.09699e-23
-3.84415e-23
-2.72265e-24
-1.42156e-23
-7.11191e-26
-3.8239e-24
5.42736e-27
-1.02196e-24
2.50754e-27
-2.69953e-25
8.31276e-28
-7.01523e-26
2.40518e-28
-1.78914e-26
6.02781e-29
-3.43736e-27
-5.22604e-28
-4.22339e-26
1.81184e-25
-4.40685e-27
-3.9944e-26
-1.01369e-26
-4.55121e-26
-8.59877e-27
-2.42603e-26
-6.3231e-27
-1.26581e-26
-4.71335e-27
-7.12122e-27
-4.36033e-27
-5.1412e-27
-7.97621e-26
-7.46827e-26
-7.57897e-25
-5.6711e-25
-2.79884e-24
-1.66867e-24
-6.0072e-24
-2.81746e-24
-8.64675e-24
-3.11014e-24
-8.83159e-24
-2.32794e-24
-6.59062e-24
-1.17023e-24
-3.61538e-24
-3.59404e-25
-1.42302e-24
-3.93591e-26
-3.68478e-25
2.68894e-28
-8.70189e-26
1.35156e-28
-2.00452e-26
4.11582e-29
-4.55781e-27
1.07353e-29
-1.02934e-27
2.58324e-30
-2.16821e-28
-4.49215e-30
3.4563e-27
-7.12765e-28
-4.15669e-26
2.17575e-25
-5.63094e-28
-5.02357e-27
-1.2752e-27
-5.60853e-27
-1.03516e-27
-2.85791e-27
-7.26324e-28
-1.4197e-27
-5.14398e-28
-7.56019e-28
-4.46513e-28
-5.09308e-28
-6.86776e-27
-6.1722e-27
-5.8575e-26
-4.16141e-26
-1.9662e-25
-1.09616e-25
-3.8072e-25
-1.63351e-25
-4.86807e-25
-1.54935e-25
-4.30999e-25
-9.5077e-26
-2.68427e-25
-3.56864e-26
-1.15413e-25
-6.13835e-27
-3.14926e-26
8.45424e-30
-6.20559e-27
6.08746e-30
-1.20613e-27
1.75431e-30
-2.34903e-28
4.1574e-31
-4.61797e-29
9.01438e-32
-9.12421e-30
1.63725e-32
3.59139e-29
-4.56902e-30
3.90322e-27
-5.68224e-28
-2.39881e-26
1.66915e-25
-6.18497e-29
-5.47379e-28
-1.36369e-28
-5.92113e-28
-1.05229e-28
-2.86519e-28
-6.99862e-29
-1.34594e-28
-4.67719e-29
-6.73493e-29
-3.7845e-29
-4.20222e-29
-4.91139e-28
-4.25717e-28
-3.73131e-27
-2.52312e-27
-1.1231e-26
-5.84699e-27
-1.92436e-26
-7.49287e-27
-2.12629e-26
-5.86324e-27
-1.56644e-26
-2.74542e-27
-7.62592e-27
-6.46906e-28
-2.27576e-27
-5.30071e-30
-3.71856e-28
2.71081e-31
-6.13184e-29
7.59699e-32
-1.03251e-29
1.58516e-32
-1.77233e-30
2.95713e-33
-3.07862e-31
5.20501e-34
-4.76272e-32
-3.75109e-34
2.16119e-29
-2.10465e-30
1.95426e-27
-2.15523e-28
-9.76949e-27
6.76179e-26
-5.85891e-30
-5.19701e-29
-1.24385e-29
-5.38732e-29
-9.06477e-30
-2.45993e-29
-5.67775e-30
-1.08545e-29
-3.55579e-30
-5.06533e-30
-2.66266e-30
-2.90298e-30
-2.91642e-29
-2.45475e-29
-1.95405e-28
-1.26248e-28
-5.18712e-28
-2.51864e-28
-7.67629e-28
-2.68351e-28
-7.06777e-28
-1.63601e-28
-4.08727e-28
-5.17872e-29
-1.39794e-28
-4.4886e-30
-2.21944e-29
1.03795e-32
-3.22814e-30
2.96525e-33
-4.62949e-31
5.39834e-34
-6.65997e-32
8.63035e-35
-9.67892e-33
1.30896e-35
-1.42215e-33
1.92789e-36
3.19788e-33
-5.51748e-35
5.54612e-30
-3.3683e-31
5.5155e-28
-5.52608e-29
-4.81824e-27
2.41495e-26
-4.79849e-31
-4.32654e-30
-9.70467e-31
-4.25216e-30
-6.63915e-31
-1.82107e-30
-3.89175e-31
-7.49762e-31
-2.26792e-31
-3.23749e-31
-1.55942e-31
-1.68873e-31
-1.43808e-30
-1.18645e-30
-8.39219e-30
-5.20989e-30
-1.92518e-29
-8.70889e-30
-2.38594e-29
-7.37722e-30
-1.74239e-29
-3.21548e-30
-7.24013e-30
-5.33664e-31
-1.42046e-30
2.28774e-34
-1.65471e-31
9.70774e-35
-1.91417e-32
1.66221e-35
-2.24553e-33
2.40725e-36
-2.70224e-34
3.2695e-37
-3.34374e-35
4.26698e-38
-4.22941e-36
5.34864e-39
1.1647e-34
-4.9966e-38
6.65315e-31
-2.30096e-32
1.16893e-28
-1.52517e-29
-2.65344e-27
1.05365e-26
-3.40528e-32
-3.18216e-31
-6.49728e-32
-2.93427e-31
-4.15012e-32
-1.17166e-31
-2.26309e-32
-4.47096e-32
-1.21841e-32
-1.77196e-32
-7.62759e-33
-8.32942e-33
-5.89346e-32
-4.82671e-32
-2.94995e-31
-1.77419e-31
-5.70353e-31
-2.40199e-31
-5.68789e-31
-1.52168e-31
-3.07249e-31
-4.10912e-32
-7.91653e-32
-1.15927e-33
-7.35853e-33
4.06529e-36
-6.99828e-34
6.94444e-37
-6.96085e-35
8.61506e-38
-7.24958e-36
9.6543e-39
-7.81233e-37
1.03753e-39
-8.57588e-38
1.08796e-40
-9.41531e-39
8.0978e-42
9.20796e-38
-3.50387e-39
3.54145e-32
-4.66448e-34
2.68462e-29
-4.03389e-30
-9.26388e-28
4.62117e-27
-2.10028e-33
-2.08713e-32
-3.74975e-33
-1.78688e-32
-2.22607e-33
-6.61278e-33
-1.1228e-33
-2.32317e-33
-5.54354e-34
-8.3819e-34
-3.13039e-34
-3.51384e-34
-2.01178e-33
-1.66355e-33
-8.47795e-33
-4.99961e-33
-1.3393e-32
-5.25288e-33
-1.01943e-32
-2.28105e-33
-3.67108e-33
-2.84202e-34
-4.38774e-34
1.08088e-37
-3.67408e-35
2.24511e-38
-3.02733e-36
2.48501e-39
-2.52871e-37
2.44273e-40
-2.16872e-38
2.31801e-41
-1.91221e-39
2.14434e-42
-1.72132e-40
1.91705e-43
-1.13724e-41
-1.39764e-43
4.82919e-39
-2.77725e-40
6.50553e-34
-9.08959e-35
5.50838e-30
-6.21942e-31
-1.46937e-28
1.15145e-27
-1.13301e-34
-1.23453e-33
-1.88038e-34
-9.70702e-34
-1.03336e-34
-3.30892e-34
-4.79332e-35
-1.06335e-34
-2.15318e-35
-3.46531e-35
-1.08543e-35
-1.28229e-35
-5.74569e-35
-4.90665e-35
-1.99341e-34
-1.1739e-34
-2.47551e-34
-9.07671e-35
-1.339e-34
-2.36995e-35
-2.7215e-35
-3.62777e-37
-1.706e-36
9.92398e-40
-1.08553e-37
1.11775e-40
-7.27697e-39
9.36648e-42
-5.20664e-40
7.18264e-43
-3.92756e-41
5.31904e-44
-3.04598e-42
3.8425e-45
-2.36902e-43
2.65822e-46
5.47495e-43
-6.57999e-45
3.03066e-40
-2.01082e-41
1.44538e-34
-7.40578e-35
6.26805e-31
-4.80915e-32
-1.05496e-29