/*--------------------------------*- C++ -*----------------------------------*\
  =========                 |
  \\      /  F ield         | OpenFOAM: The Open Source CFD Toolbox
   \\    /   O peration     | Website:  https://openfoam.org
    \\  /    A nd           | Version:  9
     \\/     M anipulation  |
\*---------------------------------------------------------------------------*/
FoamFile
{
    format      ascii;
    class       volVectorField;
    location    "32.45";
    object      U;
}
// * * * * * * * * * * * * * * * * * * * * * * * * * * * * * * * * * * * * * //

dimensions      [0 1 -1 0 0 0 0];

internalField   nonuniform List<vector> 
918
(
(2.47629 -0.138943 0)
(0.108704 0.722546 0)
(0.171767 1.05372 0)
(2.31834 0.153728 0)
(-0.0597209 1.27096 -1.22318e-19)
(-0.0924034 0.643931 -5.3138e-18)
(0.530053 0.849682 -2.95342e-19)
(0.274315 0.152869 -2.9884e-20)
(3.00615 -0.0195607 0)
(-0.00826455 0.476994 0)
(-0.017224 0.589607 0)
(0.605211 0.00676631 0)
(0.0107054 0.439105 0)
(-0.00288244 0.421689 0)
(0.0134375 0.340815 -1.30511e-18)
(-0.00468949 0.768801 -9.20577e-20)
(0.312397 0.0742685 2.15209e-18)
(0.0797474 0.642552 -2.22936e-19)
(1.52884 0.128628 0)
(-0.0267079 0.685429 0)
(0.194584 0.157718 -1.26552e-18)
(3.08302 -0.397373 0)
(2.92445 -0.50598 0)
(1.86116 -0.1811 0)
(0.511382 0.0400857 0)
(-0.0253686 0.52155 0)
(-0.00135313 0.494038 1.86238e-18)
(-0.0224161 1.40041 0)
(0.0748575 2.88369 0)
(0.16825 1.73646 0)
(-0.038298 3.16553 0)
(0.0272957 1.64037 9.40513e-20)
(0.0233358 0.686668 0)
(-0.147425 0.775094 -2.03084e-22)
(-0.193914 1.0291 4.42122e-18)
(-0.0415772 1.04471 0)
(0.744578 -0.00600498 0)
(0.161001 0.246304 6.65525e-19)
(0.993556 1.51314 6.52805e-19)
(0.649976 0.78442 -5.15978e-19)
(0.798651 1.57531 6.1994e-20)
(0.416841 0.851472 -3.20082e-19)
(0.552307 0.306555 2.93905e-20)
(0.296961 0.153641 0)
(0.963021 0.566585 0)
(0.532586 0.303938 1.32012e-19)
(0.257968 0.162785 -1.35463e-19)
(0.871596 -0.0554787 0)
(3.02784 -0.00170479 0)
(3.00685 0.0178656 0)
(3.20086 -0.417733 0)
(3.04288 -0.0742117 0)
(3.03116 -0.0388406 0)
(0.018604 0.903027 -1.14625e-18)
(-0.0542608 0.974393 0)
(0.00283785 0.455127 0)
(-0.029156 0.981489 0)
(-0.0114053 0.481371 0)
(-0.00134689 0.869866 0)
(-0.0521128 1.11115 0)
(-0.0125562 0.541906 0)
(-0.0253633 1.16253 0)
(-0.00592266 0.621881 0)
(0.790479 0.0116244 0)
(1.16942 -0.00156172 0)
(0.618248 0.0123698 0)
(1.12578 0.0175987 0)
(0.569759 0.00867942 0)
(0.225406 0.921982 1.95975e-18)
(0.0985379 1.2081 0)
(0.176302 1.06604 0)
(0.0331901 0.755774 2.19927e-23)
(0.0372233 0.498055 -2.93097e-18)
(0.0194616 0.747943 0)
(0.00595421 0.422033 0)
(-0.000695309 0.734548 4.51731e-24)
(0.000702484 0.414825 0)
(-0.0169204 0.74318 0)
(-0.0129373 0.42798 0)
(0.0494349 0.649975 0)
(0.048438 0.458221 0)
(0.00800527 0.62195 1.23396e-18)
(0.000744755 0.344903 0)
(-0.0677847 4.69196 0)
(0.00895753 1.45824 9.13942e-20)
(-0.0104569 0.785465 -1.17657e-19)
(0.636084 0.152146 -7.50929e-19)
(0.321613 0.0656845 -7.2869e-19)
(0.644789 0.169722 -2.2546e-18)
(0.317531 0.0955707 -1.45153e-18)
(0.0785295 0.618393 0)
(0.178546 1.31385 1.84865e-19)
(0.179709 0.730271 -2.94955e-19)
(2.06031 0.260946 0)
(1.10704 0.11845 0)
(3.03313 0.103887 0)
(3.10392 0.446059 0)
(2.83919 0.377459 -1.01277e-17)
(2.5781 0.361309 7.77114e-18)
(-0.0706452 1.26306 0)
(-0.0113314 0.623238 0)
(-0.0138419 1.90021 0)
(-0.0506996 1.34648 0)
(-0.0479985 0.678984 0)
(0.440311 0.295627 4.00661e-19)
(0.225463 0.163359 0)
(2.2961 -0.266393 0)
(1.32372 -0.119273 0)
(1.07632 0.0126689 0)
(1.01198 0.0187649 0)
(0.540922 0.0108512 0)
(1.01986 0.0563995 0)
(0.821215 0.0703256 0)
(0.343622 0.0286956 3.36292e-18)
(-0.005435 0.451601 1.77345e-18)
(-0.0270313 0.784627 0)
(-0.0473176 0.847507 0)
(-0.0152739 0.460435 0)
(0.000132484 0.839725 1.81593e-18)
(7.30055e-05 0.48753 0)
(-0.00547889 0.845554 -5.59018e-18)
(-0.00488634 0.496761 1.88629e-18)
(0.0546275 3.56573 0)
(0.0432809 4.0249 0)
(-0.0162371 1.4109 -2.05177e-21)
(-0.0130553 1.36348 0)
(-0.00978614 0.741566 0)
(1.41018 0.0348844 0)
(0.760549 0.0154387 0)
(0.709514 0.0142643 0)
(1.41618 -0.0328482 0)
(0.773515 -0.00873972 0)
(0.322058 0.480351 -8.35591e-19)
(0.156806 0.23272 0)
(0.32496 0.509168 9.36454e-20)
(0.163361 0.268433 0)
(1.24079 1.38687 1.66446e-19)
(0.778683 0.74085 -3.92427e-19)
(0.411589 1.42213 0)
(0.607177 1.53402 0)
(0.303542 0.814789 0)
(0.14533 0.353379 -4.42831e-19)
(0.607304 0.280718 0)
(0.31351 0.134639 3.98814e-19)
(1.42732 1.30673 0)
(1.58667 1.16854 0)
(0.874906 0.663914 4.6172e-19)
(1.73391 0.953096 0)
(1.06859 0.438775 2.32219e-20)
(1.47298 0.00813851 0)
(1.501 -0.0292391 0)
(0.801896 -0.00441618 0)
(1.95042 -0.199779 0)
(1.65082 -0.14818 0)
(1.05215 -0.0889696 0)
(3.06126 0.164853 0)
(3.03105 0.0687875 0)
(3.01022 0.0531594 0)
(0.0357157 1.60563 6.08204e-19)
(0.0178715 0.827016 0)
(0.0179482 1.6963 1.07975e-18)
(0.00303386 0.938894 -9.70731e-19)
(0.0646811 1.15235 1.87786e-19)
(0.0477076 0.989213 0)
(0.0401851 0.528709 0)
(-0.0286728 1.00553 0)
(-0.00698701 0.517527 0)
(0.0181383 1.6157 -4.43301e-21)
(-0.0180668 0.865626 0)
(-0.0539496 1.58426 -2.2579e-19)
(-0.0161321 0.820819 4.37297e-19)
(-0.00178329 1.0298 0)
(0.0102734 1.044 0)
(5.37077e-05 0.531585 0)
(0.0106702 1.17099 0)
(0.000912121 0.612382 0)
(1.46831 -0.00370347 0)
(0.789218 0.00805983 0)
(1.44055 0.0331662 0)
(0.761792 -0.000557529 0)
(0.675382 0.00534458 0)
(1.26195 0.0166822 0)
(1.20239 0.0473083 0)
(0.659691 0.015556 0)
(-0.00580052 1.42077 -1.70203e-20)
(0.000184319 1.37708 0)
(0.00482012 0.732923 0)
(0.00172892 0.417221 0)
(0.284438 0.828758 0)
(0.253617 0.399735 -2.87125e-19)
(-0.00223233 0.635409 0)
(-0.00889708 0.367611 0)
(0.0116642 4.33758 0)
(-0.0486524 4.66423 0)
(-0.0180821 4.56587 0)
(-0.0719679 3.36807 2.04192e-20)
(-0.0578445 4.60321 0)
(-0.05171 4.18048 0)
(0.00484428 0.819187 1.08104e-20)
(0.014222 1.56257 1.65391e-19)
(-0.0358608 1.50309 1.20881e-19)
(-0.00744443 0.826002 0)
(0.664428 0.105708 1.15327e-18)
(0.325685 0.0441634 -1.13022e-18)
(0.149666 1.13336 0)
(0.100943 0.573401 -2.6923e-19)
(0.118122 1.2332 -8.74278e-19)
(0.051852 0.687119 8.69777e-19)
(0.809201 0.0240635 0)
(1.55677 0.0476796 0)
(1.7097 0.127652 0)
(0.919845 0.0445228 0)
(0.00793531 1.18213 0)
(0.0258412 1.19017 0)
(0.00450469 0.627822 0)
(0.482107 0.315079 1.20358e-18)
(0.436843 0.30908 -1.38665e-18)
(0.234766 0.164174 0)
(1.9355 0.153002 1.15236e-19)
(1.13642 0.0932517 0)
(1.72436 0.118444 0)
(0.88373 0.0226952 0)
(0.678172 0.0857387 0)
(0.699714 0.0460598 -5.40744e-18)
(0.346728 0.0325964 1.99899e-18)
(0.00914739 0.807284 1.69362e-18)
(0.00222281 0.46251 4.08166e-20)
(-0.0108777 1.40842 -3.57995e-20)
(0.00613617 1.38675 1.36583e-18)
(-0.0149832 0.848955 6.29422e-20)
(-0.0119261 0.524486 -2.529e-22)
(-0.107514 1.00068 -1.16485e-18)
(-0.0529602 1.3532 8.33973e-19)
(-0.0175323 1.35275 -1.35773e-18)
(1.42273 -0.0170846 0)
(1.44236 0.0203186 0)
(0.769872 -0.000177582 0)
(1.45218 0.0253834 0)
(1.36319 0.0462298 0)
(0.761541 0.020307 0)
(1.30062 -0.00215357 0)
(1.31867 -0.00584867 0)
(0.695054 -0.00098642 0)
(0.304854 0.473401 -9.15198e-19)
(0.161357 0.242678 0)
(0.157154 0.308429 1.36934e-19)
(0.309588 0.585889 1.12213e-18)
(0.307402 0.548575 -6.64308e-19)
(0.15682 0.281897 1.29815e-18)
(0.278478 0.717689 2.18148e-18)
(0.14826 0.380848 3.93617e-19)
(0.636088 0.213093 1.53743e-18)
(0.625991 0.253603 3.99312e-19)
(0.31662 0.115045 7.49256e-19)
(1.92131 0.714633 -5.99659e-19)
(1.1677 0.336106 -7.01881e-19)
(-0.0351152 1.70329 4.64113e-19)
(-0.0114053 0.924891 0)
(1.6039 0.0239531 0)
(1.52191 0.0653727 0)
(0.852934 0.0268588 0)
(-0.00355883 1.38473 0)
(0.00507422 0.729574 2.49505e-18)
(0.00465033 0.731252 0)
(0.00207079 0.415097 -2.44209e-18)
(-0.0102751 1.38627 5.95638e-19)
(-0.00947265 1.4225 0)
(0.336546 0.488135 2.57951e-19)
(0.360035 0.546398 -8.62978e-19)
(0.171834 0.257816 7.81124e-19)
(-0.0256693 0.767468 -1.66257e-18)
(-0.0261518 0.689734 0)
(-0.0154343 0.412938 0)
(0.0302136 1.54816 -1.27078e-20)
(0.0314126 1.58082 -3.64887e-19)
(0.0178985 0.822664 -1.55906e-20)
(0.213341 1.04399 8.89958e-19)
(0.119641 0.50899 -5.92221e-19)
(0.0118696 1.48475 7.30538e-19)
(0.055815 1.35072 -8.15359e-19)
(0.0268083 0.760334 3.53045e-20)
(0.00751361 1.36614 -3.80744e-18)
(-0.000214809 1.39326 4.40923e-18)
(0.00377339 0.829776 1.73286e-18)
(-0.0138288 0.805094 -1.72533e-18)
(-0.00430906 0.481399 -1.7385e-18)
(-0.0106511 1.41685 -4.49964e-18)
(-0.0152178 1.40032 4.58883e-18)
(0.286352 0.674767 0)
(0.299762 0.634607 -2.2876e-18)
(0.151932 0.331708 9.90304e-19)
(0.281196 0.79592 1.18496e-18)
(0.138795 0.427488 -1.82839e-18)
(2.057 0.322585 4.15826e-19)
(2.05156 0.54773 0)
(1.21866 0.220983 -4.01778e-19)
(-0.0738556 1.63531 -4.80144e-21)
(-0.0141235 1.69067 0)
(-0.0157163 0.921933 0)
(0.22706 0.94441 -3.22759e-19)
(0.248205 0.866427 -7.06837e-19)
(0.128791 0.463236 1.32466e-18)
(3.16442 -0.442872 0)
(3.34728 -0.414685 1.8128e-18)
(0.0622819 3.48399 0)
(0.0488084 2.80787 0)
(3.15925 0.249915 1.4192e-20)
(3.12355 0.506296 3.71212e-18)
(0.0233287 3.43285 -2.74035e-20)
(0.00924472 2.66455 0)
(-0.0416465 1.19604 1.55494e-18)
(0.190062 1.31638 0)
(3.47261 1.62511 -3.24737e-19)
(3.17427 0.272573 -2.96098e-20)
(3.14838 -0.118696 0)
(3.10047 -0.00040399 3.73118e-22)
(0.0439255 2.59022 0)
(0.157501 3.30079 0)
(-0.0548975 2.53418 0)
(-0.0229884 3.48861 3.15764e-19)
(-0.0248292 3.56962 1.99242e-19)
(2.63343 0.0488317 -1.36492e-20)
(3.04751 0.031153 0)
(3.15792 0.0868409 0)
(-0.0509325 4.61736 0)
(-0.0457087 3.08365 0)
(-0.0717967 2.93562 0)
(0.652549 3.10592 2.65648e-19)
(3.33884 -0.422458 0)
(3.0114 -0.34581 0)
(3.1699 -0.0530368 2.2772e-18)
(3.2927 -0.3287 -2.742e-18)
(3.1038 -0.125776 0)
(-0.056747 4.51555 0)
(0.0167432 3.93507 0)
(0.00865921 4.26577 0)
(-0.0265361 3.09611 0)
(-0.0129095 2.85139 0)
(-0.0304763 2.42435 0)
(2.97423 -0.00316937 0)
(2.85043 0.0486287 -1.805e-20)
(2.24689 3.04937 -3.21518e-19)
(3.15695 0.0444553 -2.27827e-18)
(3.19037 0.278179 2.76935e-18)
(3.0828 0.117338 0)
(3.3954 0.328926 2.08729e-18)
(3.35695 0.484366 -2.70655e-18)
(3.07111 0.418429 0)
(-0.0547872 3.34707 0)
(0.00571882 3.27716 8.51951e-20)
(-0.0303001 2.576 -6.03633e-20)
(3.7079 0.555319 2.26544e-18)
(3.47098 0.2085 0)
(-0.151983 1.27126 -2.16584e-18)
(-0.0624327 0.88216 -1.35029e-19)
(-0.0848375 1.33672 2.98547e-18)
(-0.035236 1.27045 -8.9958e-19)
(-0.000495401 1.08841 0)
(-0.0266646 1.23955 6.94829e-19)
(-0.115054 1.38786 2.14646e-18)
(-0.0590497 1.34056 -1.31408e-18)
(-0.0767369 1.32063 0)
(1.28929 0.597216 0)
(1.17726 0.682381 0)
(3.55664 2.0295 9.53503e-19)
(3.04987 1.93599 -1.19056e-18)
(3.83773 1.70661 0)
(3.38427 1.15686 0)
(3.34934 0.280496 -3.91682e-18)
(2.89884 0.17312 4.83977e-18)
(3.35145 -0.155478 0)
(2.85479 -0.0761356 0)
(3.43642 0.0430264 0)
(3.5938 0.145057 0)
(3.28683 0.119875 0)
(3.55033 0.298581 0)
(3.40841 0.293059 0)
(3.32755 0.218074 0)
(0.0973201 2.79176 0)
(0.0343526 2.08029 0)
(0.126602 3.05256 0)
(0.0927567 2.20636 0)
(0.214805 3.59388 0)
(0.140123 2.67396 -5.58561e-19)
(0.0533497 3.61021 0)
(0.0113281 3.01379 4.05608e-19)
(-0.0243917 3.20288 -5.17017e-19)
(-0.0589447 2.79882 0)
(-0.022822 2.20141 0)
(-0.0718517 2.90651 0)
(-0.0554991 2.04942 0)
(-0.10663 4.74938 -2.45548e-19)
(-0.0790222 3.94066 2.7727e-19)
(-0.0742463 3.80147 3.0908e-19)
(-0.0526527 3.01571 0)
(-0.104346 3.80301 -4.5867e-19)
(-0.0370485 3.21433 -2.9506e-19)
(-0.0807255 4.78174 1.9255e-19)
(-0.0932669 4.46499 -3.50464e-19)
(-0.068496 4.33472 -3.78936e-19)
(3.03133 0.0883884 3.35858e-18)
(2.28959 0.0321829 -4.22975e-18)
(2.89131 0.132847 -3.32751e-18)
(2.20957 0.0734899 4.15625e-18)
(3.36858 0.0277285 0)
(2.64306 -0.00265038 0)
(3.45416 0.0913595 0)
(3.32025 0.0192918 0)
(2.70666 0.00922866 0)
(3.68031 0.239649 0)
(3.43884 0.0960067 0)
(2.8637 0.0565203 0)
(-0.0211659 4.33571 -1.20284e-20)
(-0.0539296 4.65345 0)
(-0.0592674 4.54937 0)
(-0.0746678 3.50455 8.77227e-20)
(-0.0373239 2.77796 -3.46545e-21)
(-0.079165 4.67003 1.13469e-19)
(-0.0932619 4.45843 -1.14667e-19)
(-0.0770643 3.95619 0)
(-0.0552263 3.87634 0)
(-0.0187475 3.99306 0)
(-0.0707092 3.25651 0)
(-0.0425422 2.3013 0)
(0.948797 3.66237 -6.08662e-19)
(0.92132 2.85377 -1.76295e-19)
(0.430152 2.05249 -2.2816e-19)
(0.252139 2.29875 6.96869e-19)
(1.02341 4.19977 2.63796e-19)
(3.43308 -0.167421 0)
(3.32213 -0.256546 0)
(2.88327 -0.189515 0)
(3.47032 -0.0643456 0)
(3.34581 -0.147864 0)
(3.44893 -0.261022 0)
(3.5195 -0.283601 0)
(3.57949 -0.281129 0)
(3.22413 0.0933885 3.61887e-18)
(2.55519 0.0645187 -4.57601e-18)
(3.09649 0.106579 -3.56233e-18)
(2.50909 0.0566755 4.43254e-18)
(2.23999 3.41725 0)
(1.73981 2.94873 -4.45503e-19)
(2.56698 3.34911 -4.03135e-19)
(2.36969 2.52977 5.35809e-19)
(0.774431 1.21293 2.72203e-18)
(1.44675 0.216477 1.34313e-18)
(3.72257 0.304261 0)
(3.89315 0.572837 -1.84593e-18)
(3.29901 0.243965 -8.23373e-20)
(3.72079 0.440157 0)
(0.23658 1.31233 1.79595e-18)
(-0.0166631 1.20198 -2.87615e-18)
(0.0587941 0.769958 1.61442e-18)
(0.275921 0.464893 -7.47788e-19)
(0.187229 1.38374 8.70932e-19)
(0.0506355 1.23716 0)
(0.057729 1.08616 -1.1322e-18)
(0.191692 1.44296 -4.09184e-18)
(0.328971 1.55694 0)
(0.00867322 1.2902 1.19579e-19)
(-0.00971746 1.45729 -1.34015e-18)
(-0.0410144 1.30282 1.94829e-18)
(-0.0574434 1.41766 0)
(-0.0204758 1.38228 0)
(0.68104 1.04982 0)
(2.45667 2.45509 -1.06613e-18)
(2.64419 2.1739 3.95184e-19)
(2.79263 2.88274 0)
(3.21305 3.0678 -3.94533e-19)
(3.16605 2.41191 2.84644e-20)
(0.803634 0.589301 -1.82225e-18)
(1.55579 0.691427 -1.62182e-20)
(1.23284 0.45098 8.72097e-19)
(1.27492 0.843571 5.95012e-20)
(0.938725 0.633775 -2.36932e-18)
(1.46413 0.714106 0)
(1.98969 1.09966 1.45584e-18)
(2.03185 1.01561 0)
(1.41168 0.79063 0)
(1.06187 0.549634 0)
(3.37539 2.18023 1.00844e-18)
(3.94759 0.760951 -1.86326e-18)
(3.84793 1.21614 0)
(3.53388 0.757826 0)
(1.39131 0.364749 1.33241e-18)
(3.25791 1.84223 -8.51452e-19)
(2.83422 1.65438 1.54675e-18)
(3.75522 1.3771 -1.83578e-18)
(3.09793 0.114762 2.46389e-18)
(3.16856 0.180818 -2.57885e-18)
(2.66183 0.0916429 0)
(3.30731 -0.0394952 0)
(3.20141 -0.0842558 -2.36643e-18)
(2.63244 -0.0321093 2.34559e-18)
(3.95629 0.0932076 0)
(3.75968 0.145656 0)
(3.69369 0.155374 0)
(3.5883 0.204749 0)
(3.83261 0.0590326 0)
(3.72611 0.0522537 0)
(-0.0401059 2.51386 0)
(-0.0377246 2.01279 0)
(0.35707 3.99 -4.11328e-19)
(0.66294 3.33522 -1.59973e-19)
(0.259719 3.02929 -3.57924e-19)
(0.343887 2.54939 5.73311e-19)
(0.458354 4.01595 0)
(0.46994 4.67196 -5.09865e-19)
(0.383154 4.73037 0)
(0.911012 4.37508 -3.79478e-19)
(0.673014 3.81385 9.68755e-19)
(0.597277 4.65365 4.46928e-19)
(0.740868 4.20223 -1.87494e-19)
(0.602736 4.3276 1.50853e-19)
(0.916495 4.65779 -6.63727e-19)
(0.749898 4.66205 0)
(0.858555 4.58987 5.0451e-19)
(0.00714133 4.57162 -1.81142e-19)
(-0.0184887 3.64592 0)
(0.101614 4.28657 5.4962e-19)
(-0.0027274 4.38933 0)
(-0.00357587 3.45764 -4.51028e-19)
(-0.0152265 2.91105 0)
(-0.0998729 4.30931 -2.89128e-19)
(-0.105479 4.68185 0)
(-0.0528803 3.80708 0)
(-0.0397037 3.72933 3.25191e-19)
(-0.0468175 3.8869 1.03856e-20)
(-0.0345432 3.70808 6.25892e-19)
(-0.0410209 2.9483 4.06861e-21)
(-0.113416 4.7103 1.80195e-19)
(-0.102286 4.742 1.03222e-19)
(-0.0165689 2.62396 0)
(0.00135593 2.13607 0)
(-0.0412896 4.78941 4.86253e-19)
(-0.0480997 4.30988 4.23924e-19)
(-0.0826923 4.58564 -5.54172e-19)
(0.0165965 4.75853 0)
(-0.0773894 4.53493 -3.08971e-19)
(-0.116799 4.1682 1.27679e-19)
(-0.084016 4.24881 -4.12855e-20)
(-0.0695653 4.72922 -2.18908e-19)
(-0.0848097 4.26986 -6.85609e-20)
(-0.0832453 4.21472 3.06659e-19)
(2.87142 0.061025 -2.36351e-18)
(2.85887 0.049708 2.27299e-18)
(2.3386 0.0345586 0)
(3.51009 0.192039 3.04648e-18)
(2.70367 0.126547 -3.30471e-18)
(2.25448 0.0644877 3.60952e-18)
(3.68247 0.335345 -4.01635e-19)
(3.20989 -0.0485196 0)
(3.17213 -0.0135467 2.23698e-18)
(2.69091 -0.0123739 -2.21935e-18)
(3.87877 0.122255 -1.25237e-19)
(3.77177 0.101865 1.07832e-18)
(4.15977 0.173504 0)
(4.22847 0.181164 -3.75127e-19)
(4.01369 0.145246 0)
(3.69489 0.155414 0)
(4.0323 0.0950919 0)
(3.71179 0.0873366 0)
(4.18472 0.113897 7.85491e-19)
(4.1372 0.0791461 -1.74789e-18)
(4.14067 0.113898 -8.47998e-19)
(4.1864 0.11654 -9.24477e-19)
(4.2157 0.229031 1.77404e-18)
(3.85475 0.188642 0)
(4.06128 0.301938 0)
(-0.0712262 4.58027 -1.35714e-19)
(-0.0314735 4.64455 -1.16768e-20)
(-0.064485 4.66101 0)
(-0.0540568 4.19655 1.38095e-19)
(-0.0523111 4.2243 2.25302e-20)
(-0.0572059 4.09231 -2.18356e-20)
(-0.0798013 3.52663 2.61163e-19)
(-0.142759 4.00662 -1.45147e-20)
(-0.101576 4.13401 7.47574e-20)
(-0.0737063 3.40262 -1.32266e-19)
(-0.0245253 2.92509 1.58401e-19)
(-0.0743949 4.42876 5.20814e-21)
(-0.0873304 4.64252 1.72218e-19)
(1.24338 4.36005 3.47395e-19)
(1.15954 4.52887 7.26043e-19)
(1.73679 3.46668 4.30791e-19)
(1.3088 3.56108 1.69472e-19)
(1.28655 2.88994 0)
(0.548342 2.31835 2.74862e-19)
(0.463454 1.74124 3.30655e-19)
(0.344964 2.56681 1.509e-20)
(0.491937 3.17258 -1.1612e-18)
(0.631411 3.1316 8.76432e-19)
(0.432612 2.40399 0)
(0.293479 1.97155 -5.57212e-19)
(0.259704 3.07698 1.39458e-18)
(0.273227 2.71888 -3.13808e-20)
(0.157833 2.27563 -1.74784e-18)
(0.591327 1.41089 1.46325e-18)
(0.57626 1.61661 0)
(3.58364 -0.0751494 8.64329e-20)
(3.61861 -0.254101 -7.25963e-20)
(3.72135 -0.217712 -1.26654e-18)
(3.75927 -0.126019 1.28242e-18)
(3.67616 -0.0488553 0)
(2.44631 3.87161 0)
(2.61783 3.91471 0)
(2.88946 3.6256 0)
(2.73615 3.6427 0)
(0.854108 1.3943 -3.33964e-21)
(0.61144 1.03899 0)
(1.70882 3.38397 1.50206e-20)
(1.42071 3.46296 0)
(1.32633 2.95015 -1.28365e-18)
(1.40683 2.89287 8.24367e-19)
(1.79126 0.310396 0)
(1.43044 0.262016 3.52058e-19)
(2.41164 0.358828 2.19174e-18)
(1.78605 0.284835 -7.85411e-19)
(1.42631 0.112198 -2.49494e-18)
(4.26631 0.790103 -2.56543e-18)
(3.85196 0.995211 -3.6721e-20)
(3.2969 0.844636 2.0678e-18)
(3.87578 0.745472 1.81324e-18)
(3.12305 0.465688 -3.04498e-18)
(2.91021 0.452161 3.74981e-19)
(3.19248 0.682315 -8.18702e-19)
(2.97608 0.683405 0)
(3.75866 0.563994 1.53762e-18)
(4.09566 0.629407 0)
(4.09118 0.776482 0)
(4.04578 0.415928 8.23657e-19)
(4.29665 0.642594 -3.02467e-20)
(4.24946 0.715917 -4.52871e-19)
(4.17659 0.6433 0)
(3.61567 0.13042 1.71816e-18)
(4.19 0.183606 2.14417e-18)
(4.09068 0.151664 -1.67939e-18)
(4.13651 0.240883 -1.44283e-18)
(3.74573 0.23822 -2.15635e-18)
(3.30288 0.375969 0)
(3.40343 0.302413 0)
(2.55811 0.190651 -1.26603e-18)
(2.10846 0.119115 4.76759e-19)
(4.03722 0.352633 1.94031e-18)
(4.28774 0.432858 -2.34645e-18)
(4.28488 0.489488 2.06887e-18)
(4.15713 0.493544 0)
(4.25664 0.337314 0)
(4.26651 0.322401 -9.81926e-19)
(4.2143 0.316171 -1.5965e-18)
(2.22665 3.48714 6.20462e-19)
(1.93741 3.23075 -6.83338e-19)
(1.4456 2.35533 -1.03185e-18)
(1.1863 1.99619 2.66835e-19)
(0.883714 1.37807 -2.62858e-18)
(0.793623 1.21538 9.22093e-19)
(0.600739 0.903892 -1.97179e-21)
(1.11448 1.78464 -1.13781e-18)
(1.1418 1.88173 1.69853e-18)
(0.974308 1.70006 5.06055e-19)
(0.785908 1.28859 -5.12671e-19)
(0.635386 1.07436 0)
(2.44552 2.60674 -1.15432e-19)
(0.705143 1.14418 8.57207e-19)
(0.927718 0.889688 1.15615e-18)
(0.755247 0.813593 1.3377e-18)
(1.08307 0.746504 1.34112e-18)
(1.46687 1.04429 -2.27022e-18)
(1.3829 1.07118 1.83937e-18)
(1.00177 0.765493 -6.76733e-19)
(0.817013 0.567996 1.4946e-18)
(1.61548 0.49075 -7.78097e-19)
(1.55894 0.508323 0)
(1.23953 0.407331 4.60582e-21)
(2.50915 1.51587 7.75543e-19)
(2.07976 1.27013 -2.80853e-18)
(1.68661 1.18437 9.08707e-21)
(1.66067 1.09232 0)
(2.86202 2.59507 8.73779e-19)
(3.44675 2.7529 1.03744e-18)
(3.25577 2.93078 -1.19593e-18)
(3.5542 2.76345 -4.28372e-19)
(3.48429 2.60374 -1.34888e-19)
(3.51245 2.79518 1.3878e-19)
(3.67422 2.26705 -1.67938e-18)
(3.70518 2.4921 4.0073e-19)
(3.78367 2.43588 0)
(3.78446 2.19164 -5.79692e-19)
(4.04896 1.07333 5.80547e-19)
(4.27597 0.993184 1.00213e-18)
(4.30041 0.966892 1.01165e-18)
(4.05502 1.32936 -1.1496e-18)
(4.10288 1.34979 0)
(4.15252 1.23375 0)
(3.32766 1.23573 -1.56065e-20)
(2.4177 0.666489 0)
(2.72183 0.744042 9.30635e-19)
(3.23825 0.885952 -2.64566e-20)
(3.77287 1.53468 5.10734e-18)
(3.56978 1.7619 1.3111e-18)
(3.48091 1.54048 -1.34063e-18)
(3.03732 1.36977 1.4374e-18)
(2.76061 1.36965 8.23746e-19)
(2.30653 1.15588 -7.97781e-19)
(3.67221 -0.0855427 1.9846e-18)
(3.8947 -0.0289323 0)
(3.85894 -0.0665487 1.34205e-18)
(3.74291 -0.0594084 -2.98771e-18)
(3.98056 0.0373778 1.46195e-18)
(3.90444 0.113427 -3.0829e-18)
(3.73986 0.128036 0)
(3.55625 0.173471 -6.28538e-19)
(3.81197 0.122981 1.60525e-18)
(3.69195 0.191384 -8.22547e-19)
(3.6003 0.171079 5.90707e-19)
(-0.0801266 2.59226 0)
(-0.0466858 3.39945 0)
(-0.0318667 2.46318 0)
(-0.0215499 1.97172 0)
(0.046374 3.94197 6.70692e-19)
(0.140225 3.72342 -1.7295e-19)
(0.317354 4.64479 -2.29747e-19)
(0.25311 4.46212 2.42646e-19)
(-0.0246425 4.29479 -4.9758e-19)
(0.0123661 4.32685 3.73642e-19)
(0.0959526 3.87073 2.22697e-20)
(0.0100226 3.55817 -4.67114e-19)
(-0.0122311 3.30991 -6.22696e-20)
(-0.0389853 3.67215 -5.67427e-20)
(0.153369 4.47449 -5.86991e-19)
(0.178553 4.28791 0)
(0.275856 4.6348 2.96422e-19)
(0.269069 4.70951 2.52991e-19)
(0.595969 4.44423 -2.26027e-19)
(0.408119 3.77998 0)
(0.457264 3.6278 -1.11484e-18)
(0.559933 3.99667 7.89952e-19)
(0.480173 4.56174 -6.14815e-19)
(0.370571 4.43208 3.30777e-19)
(0.299516 4.15362 0)
(-0.0340967 4.76182 -5.5327e-19)
(-0.0739068 4.52639 -6.41479e-19)
(-0.075029 4.73957 0)
(-0.0283358 4.35929 -6.24802e-21)
(-0.0183916 4.64104 2.74275e-19)
(-0.117911 3.88272 4.47127e-20)
(-0.054826 3.48733 -6.53881e-19)
(-0.0949196 3.92546 1.74206e-19)
(-0.134732 4.51839 2.32409e-19)
(-0.0753797 4.32879 0)
(-0.0591468 3.88743 0)
(-0.0818139 2.89913 2.00894e-19)
(-0.0471113 3.63274 -6.26874e-20)
(-0.0722756 3.62023 0)
(-0.0879075 2.68816 1.58174e-19)
(-0.046185 2.19459 -3.06471e-19)
(3.76103 0.032349 0)
(3.7319 0.00775114 -2.03275e-19)
(4.1795 0.0679715 -1.43994e-18)
(4.08911 0.0463217 0)
(3.87634 0.0178325 0)
(4.14973 0.0370665 -1.25249e-20)
(4.1003 0.0349599 2.37892e-18)
(4.0001 0.0802225 2.84566e-18)
(3.75586 0.118678 0)
(3.55801 0.110063 0)
(4.01332 0.0939742 1.41747e-18)
(3.70324 0.11615 0)
(3.4721 0.128886 0)
(-0.080584 4.69974 0)
(-0.106065 4.66822 1.06704e-20)
(-0.0764884 4.71986 6.2976e-20)
(-0.0602906 3.83306 0)
(-0.111679 4.53621 1.11262e-19)
(-0.0673858 4.24132 -6.33803e-20)
(-0.0535529 3.93037 0)
(1.41013 4.18553 0)
(1.20937 4.58048 -1.29806e-18)
(1.22468 4.48826 0)
(1.57397 4.48721 1.48445e-18)
(1.5933 4.12134 0)
(1.50167 4.37165 -6.06556e-19)
(1.01134 2.24242 -3.39463e-20)
(0.709073 1.64524 -1.74457e-18)
(0.59061 1.22738 2.12853e-18)
(0.708635 1.83477 3.96788e-19)
(0.974906 2.4239 0)
(1.03628 2.37899 0)
(0.718287 1.68716 0)
(0.532266 1.32998 -1.39514e-18)
(1.20861 3.77461 -9.83432e-19)
(1.12867 2.98864 -2.3549e-19)
(1.32677 3.40469 1.9259e-19)
(0.599182 2.04064 0)
(0.62013 1.94241 0)
(0.462169 1.57096 -3.92693e-19)
(0.957539 2.72018 0)
(2.68713 3.57099 0)
(2.38116 3.00847 -1.45455e-18)
(2.5458 3.02686 -8.58742e-20)
(2.41965 3.40427 0)
(2.28554 3.14927 2.22108e-18)
(3.27799 3.08682 -3.89698e-19)
(3.13406 3.32505 0)
(3.11646 3.15142 6.30441e-19)
(2.87043 3.41269 0)
(2.88192 3.20076 0)
(1.20912 2.0061 -9.30399e-19)
(1.4139 2.4031 -6.99511e-19)
(1.7534 2.98154 1.20597e-18)
(1.69558 2.95953 -3.62238e-19)
(1.06229 1.82204 0)
(1.20671 2.20825 4.71098e-19)
(0.718353 1.28857 -7.15183e-19)
(0.581567 1.04337 -5.60517e-22)
(1.93711 3.6955 0)
(2.19895 3.74286 -5.42601e-19)
(2.33818 3.98623 0)
(2.28408 0.529021 0)
(1.61735 0.341911 0)
(1.20902 0.276588 0)
(2.20913 0.554268 -1.46522e-18)
(1.63528 0.402198 8.17225e-19)
(2.14561 0.129125 -9.85145e-19)
(2.6266 0.297533 0)
(2.46566 0.301649 4.13479e-19)
(1.76987 0.13572 1.63296e-18)
(1.53026 0.0812685 -1.03702e-18)
(0.745502 1.55584 8.58018e-19)
(0.959721 1.8203 0)
(0.537623 1.43997 1.56083e-18)
(0.523815 1.61477 -1.42519e-18)
(0.757129 1.81442 -9.88314e-19)
(2.07328 2.46255 1.33766e-18)
(2.09662 2.71194 0)
(1.58339 1.67803 -2.76338e-19)
(2.00959 1.98937 1.74502e-18)
(1.35978 1.29253 -4.23567e-19)
(1.58858 1.31339 4.50673e-19)
(2.10952 1.51319 1.02315e-18)
(2.44265 1.67094 0)
(2.27595 1.85605 0)
(2.00984 1.60598 0)
(3.95681 2.07991 3.84491e-19)
(3.7598 1.88979 -1.26353e-18)
(3.81721 2.02812 1.04675e-18)
(3.90106 1.77151 -1.0083e-18)
(4.15789 1.67392 0)
(4.11697 1.84113 -2.97828e-19)
(2.84044 1.16333 -1.89725e-18)
(2.9708 1.16344 -2.41295e-18)
(2.33195 1.04356 1.45639e-18)
(2.13824 0.934434 -1.4198e-18)
(2.46348 0.846177 -1.17809e-18)
(2.17855 0.776948 1.4488e-18)
(4.00845 0.0334775 -1.52886e-18)
(4.05276 0.0406917 3.13016e-18)
(3.76797 -0.0658793 1.90087e-18)
(3.79119 -0.07377 -2.28674e-18)
(3.95955 0.0105764 0)
(4.05604 0.022881 -3.72975e-18)
(0.0966874 4.76154 1.06551e-19)
(0.067511 4.73213 0)
(0.189546 4.73152 9.53548e-19)
(0.211117 4.74925 -8.67506e-19)
(0.231016 4.719 4.28458e-19)
(0.12202 4.65905 0)
(-0.100605 4.77126 0)
(-0.106411 4.40428 -6.18494e-20)
(-0.105313 4.3334 5.54373e-20)
(-0.114044 4.4824 7.18159e-21)
(-0.104728 4.72146 -1.01164e-19)
(-0.0818418 4.70909 5.50895e-20)
(1.87536 4.00957 -1.64323e-18)
(1.81632 4.01607 1.74016e-18)
(1.684 4.40658 -8.54236e-19)
(1.69272 4.2773 7.61235e-20)
(2.2527 4.0866 0)
(1.85458 4.22017 -6.35482e-19)
(1.98182 3.96001 6.16324e-19)
(1.82389 4.38108 8.3443e-19)
(2.07662 4.21938 0)
(2.22807 4.10037 0)
(1.13816 3.63063 1.49499e-18)
(0.826487 2.81108 2.0232e-18)
(0.954201 2.98945 -1.38952e-18)
(0.746415 2.97109 -2.31885e-19)
(0.902272 3.73018 4.66288e-19)
(0.721973 3.36267 -1.13397e-18)
(0.74564 1.46553 -1.2147e-18)
(0.746117 1.31675 0)
(0.602468 1.11435 -1.33513e-18)
(1.11076 2.06373 0)
(1.08772 2.15067 0)
(1.3584 2.19068 -1.09052e-18)
(1.06433 2.01404 -1.03594e-18)
(1.01669 2.03493 1.09862e-18)
(1.03096 1.51907 0)
(1.41017 1.76164 -6.0119e-19)
(1.62707 2.11883 -8.55394e-19)
(1.41061 2.08244 0)
(0.867683 1.8183 7.12411e-19)
(0.779598 1.67939 0)
(2.90587 2.28881 -1.84703e-18)
(3.31878 2.47055 2.60924e-18)
(3.27747 2.19306 -2.59333e-18)
(2.61015 2.02077 -2.31173e-19)
(2.72475 1.94025 -9.74131e-19)
(1.26169 2.18956 7.96114e-19)
(1.31583 2.24438 -1.35982e-18)
(1.45385 2.32934 1.79267e-18)
(1.79004 2.55932 -1.16516e-18)
(1.88861 2.93203 -1.56712e-18)
(1.56289 2.4884 -1.18794e-19)
(1.63262 2.62792 1.37117e-18)
(1.80972 2.69279 9.66108e-20)
(2.0176 2.9985 6.49959e-19)
)
;

boundaryField
{
    wall-4
    {
        type            noSlip;
    }
    velocity-inlet-5
    {
        type            fixedValue;
        value           uniform (3 0 0);
    }
    velocity-inlet-6
    {
        type            fixedValue;
        value           uniform (0 1 0);
    }
    pressure-outlet-7
    {
        type            zeroGradient;
    }
    wall-8
    {
        type            noSlip;
    }
    frontAndBackPlanes
    {
        type            empty;
    }
}


// ************************************************************************* //
