/*--------------------------------*- C++ -*----------------------------------*\
  =========                 |
  \\      /  F ield         | OpenFOAM: The Open Source CFD Toolbox
   \\    /   O peration     | Website:  https://openfoam.org
    \\  /    A nd           | Version:  9
     \\/     M anipulation  |
\*---------------------------------------------------------------------------*/
FoamFile
{
    format      ascii;
    class       volScalarField;
    location    "1.65";
    object      p_rgh;
}
// * * * * * * * * * * * * * * * * * * * * * * * * * * * * * * * * * * * * * //

dimensions      [1 -1 -2 0 0 0 0];

internalField   nonuniform List<scalar> 
2268
(
788.526
788.953
789.943
790.924
791.584
792.025
792.38
792.792
793.389
794.278
795.545
797.249
799.425
802.106
805.347
809.224
813.852
818.802
824.697
831.767
839.85
845.081
850.014
788.535
788.615
789.245
790.035
790.64
791.092
791.48
791.93
792.576
793.532
794.875
796.645
798.883
801.654
805.06
809.245
814.416
820.086
826.52
833.999
842.117
845.786
849.634
788.482
788.624
788.886
789.39
789.847
790.233
790.595
791.037
791.691
792.672
794.049
795.858
798.151
801.025
804.63
809.148
814.833
821.882
827.772
835.6
843.791
846.647
850.794
788.344
788.746
788.83
789.073
789.345
789.608
789.883
790.266
790.878
791.827
793.186
794.997
797.324
800.283
804.044
808.807
814.795
822.468
830.842
838.748
844.609
847.681
854.25
788.142
788.84
788.903
788.955
789.05
789.163
789.314
789.601
790.132
791.006
792.308
794.095
796.436
799.451
803.311
808.209
814.317
821.898
830.506
838.307
844.188
848.878
857.45
787.89
788.859
788.992
788.921
788.858
788.812
788.814
788.979
789.406
790.172
791.389
793.132
795.473
798.519
802.431
807.377
813.488
820.881
829.14
836.864
843.058
850.123
860.931
787.631
788.815
789.062
788.917
788.713
788.504
788.34
788.366
788.668
789.297
790.403
792.085
794.412
797.468
801.391
806.326
812.358
819.513
827.401
834.912
841.125
850.541
864.423
787.362
788.71
789.084
788.898
788.568
788.195
787.858
787.731
787.885
788.343
789.302
790.902
793.202
796.243
800.128
804.982
810.874
817.727
825.154
832.19
837.869
846.723
867.277
705.567
716.075
746.37
764.424
762.118
745.244
727.816
719.277
718.957
719.275
719.917
721.925
719.481
711.896
704.748
696.914
687.119
684.732
684.878
703.475
706.789
732.304
746.48
746.803
734.209
720.511
717.114
720.704
721.228
722.877
726.793
725
715.336
706.931
698.991
686.221
681.619
682.624
700.05
702.432
717.094
728.727
727.467
719.998
714.216
714.774
723.11
723.903
725.402
730.052
730.46
717.454
708.673
701.883
687.773
679.522
680.967
695.24
703.035
725.032
732.156
711.48
703.344
695.812
709.184
726.1
726.102
725.853
730.725
732.794
718.899
713.602
702.301
674.13
675.893
678.125
692.595
705.04
725.411
734.613
737.851
705.619
690.716
698.893
727.106
725.324
704.893
722.572
732.741
726.7
717.537
693.773
647.135
667.809
675.034
693.192
710.348
727.844
733.416
734.913
735.81
688.795
707.547
727.156
710.333
610.95
655.475
730.272
727.318
719.068
655.952
644.194
658.541
669.819
685.452
718.205
732.346
733.773
734.349
734.796
723.12
643.018
675.193
679.075
595.053
586.859
720.007
727.999
721.426
705.149
682.956
662.812
565.24
671.67
725.343
737.792
735.753
736.056
737.086
697.283
532.659
523.653
596.909
657.081
580.886
567.877
689.087
723.905
719.815
710.483
613.59
446.918
786.924
788.467
789.023
788.816
788.303
787.666
787.033
786.651
786.537
786.647
787.293
788.732
790.991
793.989
797.734
802.337
807.894
814.123
820.612
826.484
830.498
830.727
824.352
785.518
788.245
789.266
789.032
788.11
786.647
784.602
783.513
783.157
782.118
782.137
783.868
786.889
790.563
794.577
798.837
803.483
808.639
813.888
818.215
820.779
821.398
813.052
444.677
469.15
481.864
481.199
473.033
459.385
439.905
431.664
430.337
421.139
419.353
428.404
445.574
468.871
501.459
544.269
589.859
642.041
694.996
738.294
764.734
766.315
751.698
0.195594
0.25473
0.27222
0.428506
0.498166
0.468098
0.371394
0.30753
0.469997
0.951426
1.3695
1.44601
1.26024
1.24329
1.6054
4.29582
19.0985
38.6151
64.6293
94.2662
122.609
149.255
138.108
0.260536
0.269328
0.324092
0.592445
0.869141
0.903744
0.508986
0.465798
0.590746
1.67667
3.16077
3.402
2.17118
1.67976
1.85352
2.266
2.53489
2.58232
3.0088
3.66312
4.11172
3.79639
3.71546
0.212902
0.215526
0.875156
3.01632
3.19986
3.21546
2.82895
0.346533
0.788409
6.31135
7.08458
7.29165
6.89383
1.50333
3.58515
8.14018
8.4751
6.1644
5.45224
6.04318
9.66756
11.9121
10.725
0.191682
0.451856
1.03744
0.396521
0.147128
0.22061
0.193906
0.230212
0.266794
0.193842
1.54083
4.66709
3.11703
1.70857
8.42464
8.53501
8.75949
9.07257
9.50052
5.7051
11.4066
11.7964
11.5689
0.170867
0.248473
0.264377
0.133792
0.133648
0.138438
0.154952
0.179688
0.178657
0.163054
0.161121
0.159075
0.313647
1.68727
2.29125
3.87575
4.62582
2.37647
2.81095
7.99286
16.734
7.44747
2.97442
0.155632
0.156527
0.137721
0.13309
0.132043
0.136009
0.145607
0.157489
0.158362
0.149921
0.140365
0.134253
0.153913
0.187737
0.115141
0.122218
0.153591
0.256915
2.84133
17.0928
17.4331
17.1521
1.58743
0.144881
0.140671
0.141474
0.131539
0.128099
0.130059
0.134937
0.140147
0.141499
0.136793
0.130571
0.123858
0.121856
0.110882
0.0911904
0.0789067
0.0795609
0.0820297
0.389204
9.992
18.2737
18.1572
7.13254
0.13515
0.132732
0.128997
0.123837
0.122087
0.122298
0.123983
0.125596
0.124878
0.121753
0.11652
0.11061
0.10477
0.0941418
0.0786043
0.0640955
0.050555
0.0247095
-0.0251726
-0.0215284
10.4245
15.7357
2.18171
0.125988
0.124144
0.120166
0.116803
0.114806
0.113992
0.113895
0.113547
0.11167
0.108049
0.103188
0.0972015
0.0897278
0.0790271
0.0649652
0.0491124
0.0305379
0.00389289
-0.0339351
-0.055839
-0.0659702
-0.139301
-0.16602
0.117003
0.115119
0.111843
0.108995
0.106934
0.105517
0.104386
0.102931
0.100447
0.0966671
0.0916505
0.0853036
0.0772513
0.0666213
0.0531434
0.0371059
0.0179703
-0.00579835
-0.0349214
-0.0640212
-0.0918313
-0.110406
-0.106071
0.108181
0.106059
0.103404
0.100964
0.0989406
0.0971986
0.0954773
0.0933877
0.0905005
0.0865689
0.0814864
0.0750848
0.067052
0.0568931
0.0443569
0.0294641
0.0120932
-0.00782974
-0.0295763
-0.0504522
-0.0687765
-0.0781199
-0.0732027
0.0996055
0.0974422
0.0951905
0.0930867
0.0911532
0.0892609
0.0872239
0.0847858
0.0816681
0.0776654
0.0726294
0.0663846
0.0586949
0.0492727
0.037958
0.0247749
0.00983269
-0.00649719
-0.0231727
-0.0381447
-0.050325
-0.0583993
-0.0612295
0.0913586
0.0893185
0.0874261
0.0856149
0.0837993
0.0818647
0.0796796
0.0770719
0.0738539
0.0698648
0.0649654
0.0590056
0.0518155
0.0432311
0.0331824
0.0217401
0.00911857
-0.00422322
-0.0174033
-0.0291717
-0.0387052
-0.0455906
-0.0500111
0.0835533
0.081773
0.0802685
0.0787233
0.0770355
0.0751196
0.0728854
0.0702178
0.0669894
0.0630804
0.0583782
0.0527678
0.0461348
0.0383913
0.0295285
0.019651
0.00900329
-0.00198889
-0.0126653
-0.0222275
-0.0301557
-0.0362897
-0.0408617
0.0763363
0.0749033
0.0738395
0.0725286
0.0709625
0.0690933
0.0668635
0.0641993
0.0610163
0.0572302
0.0527579
0.047518
0.0414408
0.034484
0.026676
0.0181366
0.00909796
-8.24459e-05
-0.00892218
-0.0168961
-0.0236537
-0.0291215
-0.0334886
0.0698636
0.0688091
0.0682304
0.0670903
0.0656293
0.063812
0.0616091
0.0589796
0.0558714
0.0522291
0.0479962
0.0431205
0.0375637
0.0313156
0.0244208
0.0169993
0.00925462
0.00147446
-0.00598854
-0.0127749
-0.0186408
-0.0235329
-0.0275722
0.0641709
0.0636526
0.0633652
0.062421
0.0610346
0.0592561
0.0570845
0.0545021
0.051481
0.0479878
0.0439887
0.0394547
0.0343704
0.028746
0.0226322
0.0161378
0.00943559
0.00275204
-0.00365214
-0.00952219
-0.0146799
-0.0190736
-0.0227676
0.0592164
0.0592583
0.0592479
0.0584395
0.0571047
0.0553559
0.053216
0.0506861
0.0477564
0.0444109
0.0406331
0.036412
0.0317493
0.0266668
0.0212164
0.0154926
0.00963671
0.00382631
-0.0017429
-0.00688502
-0.0114643
-0.015428
-0.0188021
0.0548721
0.0554852
0.0557
0.0549985
0.0537108
0.0519944
0.0498927
0.0474226
0.0445888
0.041389
0.0378197
0.0338834
0.0295943
0.0249801
0.0200916
0.0150094
0.0098468
0.00474272
-0.000154256
-0.00470505
-0.00880341
-0.0123971
-0.0154887
0.0509763
0.0520988
0.0524921
0.0519048
0.0506873
0.0490239
0.0469782
0.0445822
0.0418533
0.0388006
0.0354304
0.0317539
0.0277985
0.0235905
0.0191788
0.0146325
0.0100424
0.0055168
0.00116981
-0.0028926
-0.00658602
-0.00986102
-0.0127076
0.0473679
0.0488493
0.0494086
0.0489706
0.0478654
0.0462907
0.0443302
0.0420306
0.0394216
0.0365222
0.0333467
0.0299067
0.0262596
0.0224081
0.0184047
0.0143099
0.0101969
0.00615081
0.00225994
-0.00139384
-0.00474292
-0.00774243
-0.0103766
0.0439237
0.0455915
0.0463118
0.0460581
0.0451079
0.043662
0.0418209
0.0396448
0.0371749
0.0344403
0.0314665
0.0282847
0.0248912
0.0213525
0.0177043
0.0139957
0.0102864
0.00664364
0.00313651
-0.000170882
-0.003224
-0.00598319
-0.00843081
0.040585
0.042301
0.04316
0.0431003
0.0423299
0.0410437
0.039352
0.0373252
0.0350136
0.032455
0.0296808
0.02672
0.0235966
0.0203506
0.0170208
0.0136509
0.0102905
0.00699363
0.00381533
0.000806548
-0.00198835
-0.00453486
-0.00681554
0.0373387
0.0390163
0.0399731
0.0400873
0.0394982
0.0383855
0.0368621
0.0350035
0.0328664
0.0304952
0.0279261
0.0251913
0.0223209
0.0193488
0.0163106
0.0132449
0.0101934
0.00720043
0.00431045
0.00156457
-0.00100071
-0.00335562
-0.00548381
0.0341863
0.0357803
0.0367894
0.0370406
0.0366154
0.0356737
0.0343244
0.0326436
0.0306914
0.0285159
0.0261566
0.0236481
0.021022
0.0183098
0.0155436
0.0127571
0.00998586
0.00726647
0.00463534
0.00212616
-0.0002308
-0.0024099
-0.00439619
0.0311311
0.0326212
0.0336439
0.0339919
0.0337038
0.0329192
0.031739
0.0302369
0.0284729
0.0264965
0.0243487
0.0220647
0.0196763
0.017213
0.0147036
0.0121777
0.00966532
0.00719719
0.00480331
0.00251152
0.00034712
-0.00166779
-0.00351964
0.0281775
0.0295565
0.0305645
0.0309733
0.0307933
0.0301461
0.0291234
0.0277937
0.0262151
0.0244363
0.0224977
0.0204342
0.0182763
0.0160516
0.0137861
0.0115054
0.0092352
0.00700114
0.00482814
0.00273931
0.000755869
-0.00110312
-0.00282536
0.0253314
0.0265985
0.0275718
0.0280122
0.0279139
0.0273834
0.0265029
0.0253349
0.023934
0.0223464
0.0206111
0.0187613
0.0168256
0.0148291
0.0127953
0.0107465
0.00870436
0.00669042
0.0047254
0.00282848
0.00101747
-0.000691251
-0.00228663
0.0225988
0.0237556
0.0246803
0.0251302
0.0250914
0.0246583
0.0239036
0.0228839
0.0216494
0.0202436
0.0187028
0.0170575
0.0153341
0.0135553
0.0117417
0.00991245
0.00808608
0.00628052
0.00451295
0.00279926
0.00115431
-0.000407942
-0.00187775
0.0199843
0.0210323
0.0218983
0.022341
0.0223444
0.0219914
0.0213463
0.0204604
0.0193797
0.0181443
0.0167873
0.0153365
0.0138151
0.0122432
0.0106387
0.00901787
0.00739634
0.00578902
0.00421006
0.00267256
0.00118876
-0.000229607
-0.00157425
0.0174889
0.0184281
0.0192269
0.0196503
0.0196822
0.0193944
0.018844
0.0180778
0.0171383
0.0160618
0.014878
0.0136113
0.0122818
0.0109066
0.00950074
0.00807812
0.00665164
0.00523361
0.00383566
0.00246843
0.00114188
-0.000134405
-0.00135367
0.01511
0.0159371
0.016661
0.0170557
0.0171051
0.01687
0.0164013
0.0157426
0.0149332
0.0140055
0.0129855
0.0118935
0.0107464
0.00955819
0.00834143
0.00710754
0.00586715
0.00463039
0.0034067
0.00220466
0.00103222
-0.000103059
-0.00119603
0.0128399
0.0135472
0.0141885
0.0145482
0.0146068
0.0144143
0.0140172
0.0134571
0.0127696
0.011983
0.0111186
0.010193
0.0092195
0.0082093
0.00717249
0.0061184
0.00505578
0.0039929
0.00293742
0.00189621
0.000875491
-0.000119027
-0.00108379
0.0106664
0.0112399
0.0117914
0.0121143
0.0121777
0.0120213
0.0116898
0.0112229
0.0106521
0.0100007
0.00928529
0.00851839
0.00771008
0.00686904
0.00600329
0.00512044
0.00422768
0.00333181
0.00243912
0.00155512
0.000684591
-0.000168325
-0.00100154
0.00857628
0.0089946
0.00945092
0.00974033
0.00980849
0.00968641
0.00941894
0.00904342
0.00858637
0.00806544
0.00749256
0.00687658
0.00622485
0.00554401
0.00484045
0.00412045
0.00339001
0.00265485
0.00192019
0.00119056
0.00046969
-0.000239536
-0.000936145
0.00655448
0.0067945
0.00715613
0.00742273
0.00750047
0.00741495
0.00721336
0.00692946
0.00658351
0.0061876
0.00574963
0.00527562
0.00477092
0.0042407
0.00369019
0.00312466
0.00254926
0.00196889
0.00138805
0.000810629
0.000239708
-0.000322692
-0.000876454
0.00450403
0.00456336
0.00486454
0.00517978
0.00528867
0.00524333
0.00510856
0.00491406
0.00467305
0.00439305
0.00407914
0.00373555
0.00336636
0.00297575
0.0025681
0.00214793
0.00171975
0.00128793
0.000856517
0.00042905
8.34376e-06
-0.000403994
-0.000808923
0.00219732
0.00195191
0.00241691
0.00303147
0.00321456
0.00320907
0.00313494
0.00301969
0.00287071
0.00269253
0.00248856
0.00226187
0.0020156
0.00175312
0.00147805
0.00119429
0.000905831
0.000616677
0.000330683
5.13072e-05
-0.000218591
-0.000477093
-0.000723086
0.000834573
-0.00144863
-0.000118389
0.000781659
0.000990224
0.00102567
0.00101073
0.000967787
0.000903873
0.000822609
0.000726094
0.000616088
0.000494508
0.000363574
0.0002259
8.45183e-05
-5.72222e-05
-0.000195773
-0.000327514
-0.000448976
-0.000557094
-0.00064947
-0.000723878
791.84
786.211
785.51
774.643
794.507
786.851
784.402
776.495
725.039
698.495
661.972
618.95
120.679
100.835
69.2778
18.3563
4.33854
5.06904
5.9269
6.22889
16.5825
16.8233
16.8943
17.0965
4.79594
7.26448
3.7933
3.57456
1.8473
1.98611
2.2951
2.50611
1.46764
2.01951
2.13043
2.12174
0.673005
0.955457
1.13289
1.27356
0.0929334
0.137581
0.206619
0.636147
-0.102081
-0.0579522
0.0367258
1.42051
-0.0738478
-0.0464676
0.42545
0.870721
-0.0401648
-0.0445251
-0.0796578
-0.0827211
-0.0632101
-0.0651114
-0.0674839
-0.0694837
-0.0528761
-0.0550082
-0.0573515
-0.0593594
-0.0436518
-0.045626
-0.0476618
-0.049439
-0.0360904
-0.0378672
-0.0396335
-0.0411854
-0.029946
-0.0315233
-0.0330647
-0.0344415
-0.0249318
-0.026338
-0.027698
-0.0289302
-0.0207942
-0.0220656
-0.0232875
-0.0244052
-0.0173433
-0.0185115
-0.0196306
-0.0206614
-0.0144496
-0.0155373
-0.0165772
-0.0175406
-0.0120226
-0.0130442
-0.0140191
-0.0149259
-0.00999071
-0.0109547
-0.0118734
-0.0127304
-0.00829458
-0.00920637
-0.0100749
-0.0108877
-0.00688474
-0.00774803
-0.00857126
-0.00934466
-0.00572054
-0.00653785
-0.0073194
-0.00805704
-0.00476814
-0.00554078
-0.00628267
-0.00698657
-0.00399798
-0.00472624
-0.00542899
-0.00609956
-0.00338273
-0.00406621
-0.00472931
-0.00536574
-0.00289629
-0.00353431
-0.0041567
-0.00475748
-0.00251396
-0.00310571
-0.00368603
-0.00424929
-0.00221304
-0.00275738
-0.00329396
-0.00381749
-0.00197294
-0.00246816
-0.00295874
-0.00343985
-0.00177507
-0.00221858
-0.00266006
-0.00309532
-0.00160257
-0.00199072
-0.00237899
-0.00276398
-0.00144066
-0.00176867
-0.00209844
-0.00242754
-0.00127762
-0.00153976
-0.00180449
-0.00207036
-0.00110299
-0.00129423
-0.00148608
-0.00167794
-0.000892142
-0.00100228
-0.00111286
-0.00122415
-0.000761033
-0.000784163
-0.00080628
-0.000827603
726.345
737.993
741.99
733.463
738.693
745.809
619.758
504.219
516.119
625.437
672.595
574.155
522.723
504.693
617.222
624.609
523.938
417.693
415.308
752.33
693.634
555.319
406.373
471.518
612.701
478.306
601.06
673.283
676.594
680.001
686.215
671.171
541.564
342.782
381.323
449.283
462.84
467.419
457.628
210.631
50.8079
20.7334
73.3933
276.573
400.215
571.943
627.713
613.248
622.994
637.622
623.191
597.447
328.816
268.337
394.196
454.871
474.039
4.45843
7.05074
9.6118
12.254
77.1238
255.418
262.437
226.26
235.552
208.696
216.672
300.26
375.105
408.858
317.831
174.12
181.935
239.094
471.898
6.0076
6.23511
7.32273
27.7419
56.3629
61.4833
102.982
106.152
129.034
111.417
81.6121
109.745
121.844
139.33
155.175
86.0245
80.0049
76.6583
211.53
15.551
6.54241
7.39593
12.067
7.19728
16.6847
106.643
116.429
128.494
124.248
74.4779
12.6495
9.79818
20.5558
65.9048
81.4682
78.5446
57.3448
36.4257
5.38319
6.25987
8.5648
11.1151
6.81978
6.24555
32.8784
54.6985
55.8496
48.7316
32.0287
8.80765
8.87472
8.97866
40.0861
74.0644
79.7162
52.3541
19.8166
3.21631
12.2634
31.0878
31.13
23.4806
10.8394
10.033
9.93333
11.1911
11.2989
12.6523
10.5098
8.61079
8.45324
10.824
13.5448
11.6781
14.4035
10.5782
6.94053
32.1891
32.2043
31.9314
30.8264
30.3083
25.9292
20.2442
13.4141
9.49931
10.7391
13.1592
13.2834
12.9041
5.96713
0.589797
0.327482
0.331553
0.332058
14.0908
33.667
33.7645
17.2391
0.186348
-0.13903
1.43797
3.07064
4.80251
3.93504
6.00529
13.4088
13.5506
13.5176
5.9097
0.234654
0.231654
0.233808
0.276968
8.1984
23.9193
11.6473
-0.0795086
-0.0962212
-0.10412
-0.116628
-0.116912
-0.109162
-0.102859
0.0742317
2.97301
5.27147
6.44466
1.67224
0.185993
0.200994
0.293956
0.292549
4.00445
-0.146264
-0.114215
-0.106799
-0.0914647
-0.08765
-0.103057
-0.108088
-0.104388
-0.0954153
-0.0875819
-0.0514198
0.22832
0.525631
0.54056
0.430727
0.421631
0.311599
0.16156
0.0384347
-0.103689
-0.111293
-0.100412
-0.0858787
-0.0891812
-0.0944341
-0.0935756
-0.0899881
-0.0821368
-0.0741226
0.0753319
0.554064
0.635402
0.309271
0.306861
0.342103
0.119701
0.0571966
-0.0810325
-0.0879419
-0.0934682
-0.0889709
-0.0848759
-0.0831969
-0.0822478
-0.0802218
-0.0766392
-0.07122
-0.00436066
0.332768
0.357029
0.113491
0.0205473
0.0288936
0.0521293
0.0391524
0.0433124
-0.0713304
-0.075123
-0.0709714
-0.0641704
-0.0676058
-0.0719828
-0.0708438
-0.0686266
-0.0653001
-0.0563787
-0.00764752
0.00425827
-0.0369105
-0.0263153
-0.00600633
0.0128448
0.0264065
0.0331184
0.0329481
-0.0614312
-0.0591991
-0.046455
-0.0457821
-0.0445341
-0.0543581
-0.0607397
-0.0586076
-0.0555099
-0.0487426
-0.0436152
-0.0419032
-0.0320793
-0.0184736
-0.00296074
0.0113984
0.0218727
0.0264246
0.0241203
-0.0515714
-0.047303
-0.0353157
-0.035331
-0.0346898
-0.0346862
-0.0521363
-0.0501302
-0.0473786
-0.0431543
-0.0382202
-0.0335925
-0.0252461
-0.0143414
-0.00244772
0.00847154
0.0164216
0.0193648
0.0165612
-0.0432171
-0.0454905
-0.0421237
-0.0293289
-0.0261919
-0.0364213
-0.0449004
-0.043072
-0.0406354
-0.0367705
-0.0320733
-0.0270573
-0.0211401
-0.0125573
-0.00348916
0.00473576
0.0120042
0.015972
0.0104371
-0.0363435
-0.038329
-0.0398354
-0.0406147
-0.0404149
-0.0395877
-0.0385908
-0.0369769
-0.0349364
-0.0318745
-0.0276058
-0.0241367
-0.0188106
-0.0121635
-0.00529576
0.000926113
0.00661609
0.0119731
0.00594385
-0.0307501
-0.0325896
-0.0339132
-0.0346989
-0.03495
-0.0346799
-0.0339325
-0.0326415
-0.0304391
-0.0279147
-0.0251354
-0.0221065
-0.0175857
-0.0125219
-0.00735646
-0.00262871
0.00172763
0.00955796
0.0169723
-0.0261021
-0.0278064
-0.0290579
-0.0298599
-0.0302185
-0.0301511
-0.0296805
-0.0288191
-0.027383
-0.0248642
-0.0225154
-0.0197066
-0.0169688
-0.0132251
-0.00942357
-0.00594724
-0.0030477
0.0146215
0.162199
-0.0222498
-0.02386
-0.0250664
-0.0258892
-0.0263402
-0.0264366
-0.0261919
-0.0256077
-0.0246569
-0.0231744
-0.0206367
-0.0184187
-0.0164879
-0.0139944
-0.011297
-0.00891625
-0.00688685
0.012781
0.176235
-0.0190356
-0.0205823
-0.021765
-0.0226132
-0.0231442
-0.023376
-0.0233186
-0.0229717
-0.0223192
-0.0213436
-0.0199235
-0.0180863
-0.0164586
-0.0146063
-0.0127624
-0.011218
-0.00990655
-0.0053799
0.179989
-0.0163381
-0.0178412
-0.0190149
-0.0198919
-0.0204933
-0.020838
-0.0209358
-0.0207874
-0.0203851
-0.0197224
-0.0188046
-0.0176578
-0.0163443
-0.0149737
-0.0137004
-0.0126787
-0.0119603
-0.012461
0.185353
-0.0140687
-0.0155387
-0.0167109
-0.017617
-0.0182794
-0.0187173
-0.0189409
-0.0189534
-0.0187525
-0.0183381
-0.0177204
-0.0169253
-0.0160031
-0.0150309
-0.0141044
-0.0133259
-0.0127817
-0.0124749
0.134388
-0.0121604
-0.0136012
-0.0147733
-0.0157049
-0.0164177
-0.01693
-0.017253
-0.017391
-0.0173457
-0.0171207
-0.0167264
-0.0161839
-0.0155276
-0.0148031
-0.0140577
-0.0133218
-0.0125589
-0.0116101
0.133762
-0.0105591
-0.0119708
-0.01314
-0.0140904
-0.0148416
-0.0154106
-0.0158084
-0.0160405
-0.0161107
-0.0160235
-0.0157879
-0.015418
-0.0149332
-0.0143531
-0.0136872
-0.0129135
-0.0119274
-0.0105471
0.185008
-0.00921865
-0.0105988
-0.0117598
-0.0127209
-0.0134989
-0.0141085
-0.0145599
-0.0148591
-0.0150103
-0.0150181
-0.0148885
-0.0146293
-0.0142472
-0.0137423
-0.0130984
-0.0122639
-0.011108
-0.00943499
0.192633
-0.00809844
-0.0094431
-0.0105899
-0.0115535
-0.0123478
-0.0129844
-0.0134719
-0.0138157
-0.0140197
-0.0140875
-0.0140228
-0.0138276
-0.0134989
-0.0130231
-0.0123659
-0.0114537
-0.0101229
-0.00812266
0.198964
-0.0071623
-0.00846678
-0.00959347
-0.0105527
-0.0113545
-0.0120074
-0.0125171
-0.0128876
-0.0131216
-0.0132221
-0.0131906
-0.0130253
-0.0127171
-0.0122436
-0.0115603
-0.0105796
-0.00910482
0.0145361
0.20794
-0.00637809
-0.00763751
-0.00873877
-0.00968796
-0.010491
-0.0111522
-0.011674
-0.0120573
-0.0123038
-0.0124156
-0.0123934
-0.0122337
-0.0119248
-0.0114411
-0.0107365
-0.00972661
-0.00821776
0.0460414
0.215514
-0.00571705
-0.00692649
-0.00799767
-0.00893255
-0.00973262
-0.0103975
-0.0109247
-0.0113113
-0.0115566
-0.0116631
-0.0116322
-0.0114604
-0.0111356
-0.0106328
-0.00991068
-0.00890138
-0.00745294
0.0493441
0.222865
-0.00515303
-0.00630749
-0.0073444
-0.00826203
-0.00905738
-0.00972458
-0.0102549
-0.0106387
-0.0108727
-0.0109609
-0.0109072
-0.0107093
-0.0103555
-0.00982067
-0.00906516
-0.00802851
-0.0065731
0.0158033
0.229985
-0.00466181
-0.00575585
-0.00675442
-0.00765299
-0.00844443
-0.00911687
-0.00965295
-0.0100321
-0.0102468
-0.0103062
-0.0102189
-0.0099852
-0.00959268
-0.00901198
-0.00819368
-0.0070536
-0.00540153
-0.0030325
0.161075
-0.00422043
-0.0052476
-0.00620327
-0.00708175
-0.00787299
-0.00855909
-0.00911092
-0.00948827
-0.00967673
-0.00969761
-0.00956907
-0.00929576
-0.00886516
-0.00824136
-0.00735676
-0.00608391
-0.0041583
-0.00133669
0.149124
-0.00380672
-0.00475866
-0.00566539
-0.0065228
-0.00732068
-0.00803693
-0.00862683
-0.00901187
-0.00916484
-0.00913565
-0.00895993
-0.00865014
-0.00819547
-0.00756072
-0.00666149
-0.00533576
-0.00332007
-0.000309991
0.23993
-0.00339912
-0.00426439
-0.00511308
-0.00594696
-0.00676132
-0.00753607
-0.00820767
-0.00861774
-0.0087164
-0.00861882
-0.008389
-0.0080487
-0.00758737
-0.00698074
-0.00615793
-0.00497603
-0.00314324
0.00674722
0.246044
-0.00297698
-0.00373942
-0.00451525
-0.00531804
-0.00615818
-0.00703249
-0.00786286
-0.00831935
-0.00832012
-0.00812408
-0.00783081
-0.00746445
-0.00702034
-0.00652798
-0.00589724
-0.00500714
-0.00355793
0.00552859
0.251688
-0.00251993
-0.00315563
-0.00383258
-0.00458159
-0.00544181
-0.00646063
-0.00758437
-0.00814323
-0.00794904
-0.00760439
-0.00723619
-0.00685804
-0.00648114
-0.00615693
-0.00582005
-0.00538765
-0.00458262
-0.00190565
0.232092
-0.0020047
-0.00247844
-0.00301077
-0.00365042
-0.00448861
-0.00571842
-0.00746757
-0.00850076
-0.00786637
-0.00723811
-0.00675109
-0.00635019
-0.00606395
-0.00594384
-0.00594516
-0.00611327
-0.00633383
-0.00396273
0.233952
-0.00141795
-0.00169161
-0.00201949
-0.00246962
-0.00323392
-0.00494948
-0.00844147
-0.0109499
-0.00910727
-0.00780264
-0.00703706
-0.00652489
-0.00628341
-0.00638504
-0.00569955
-0.00696135
-0.010208
-0.00950285
0.223818
-0.000865672
-0.000913453
-0.00101459
-0.00127326
-0.0020115
-0.00474382
-0.0141224
-0.0142788
-0.00991106
-0.00764573
-0.00657011
-0.00597548
-0.00580074
-0.00550204
-0.00549378
-0.00739651
-0.0119954
-0.0162438
0.0578904
)
;

boundaryField
{
    leftWall
    {
        type            fixedFluxPressure;
        gradient        uniform 0;
        value           nonuniform List<scalar> 
50
(
788.526
788.535
788.482
788.344
788.142
787.89
787.631
787.362
786.924
785.518
444.677
0.195594
0.260536
0.212902
0.191682
0.170867
0.155632
0.144881
0.13515
0.125988
0.117003
0.108181
0.0996055
0.0913586
0.0835533
0.0763363
0.0698636
0.0641709
0.0592164
0.0548721
0.0509763
0.0473679
0.0439237
0.040585
0.0373387
0.0341863
0.0311311
0.0281775
0.0253314
0.0225988
0.0199843
0.0174889
0.01511
0.0128399
0.0106664
0.00857628
0.00655448
0.00450403
0.00219732
0.000834573
)
;
    }
    rightWall
    {
        type            fixedFluxPressure;
        gradient        uniform 0;
        value           nonuniform List<scalar> 
50
(
684.878
682.624
680.967
678.125
675.034
669.819
565.24
446.918
415.308
467.419
474.039
471.898
211.53
36.4257
19.8166
10.5782
0.332058
0.276968
0.292549
0.16156
0.0571966
0.0433124
0.0329481
0.0241203
0.0165612
0.0104371
0.00594385
0.0169723
0.162199
0.176235
0.179989
0.185353
0.134388
0.133762
0.185008
0.192633
0.198964
0.20794
0.215514
0.222865
0.229985
0.161075
0.149124
0.23993
0.246044
0.251688
0.232092
0.233952
0.223818
0.0578904
)
;
    }
    lowerWall
    {
        type            fixedFluxPressure;
        gradient        uniform 0;
        value           nonuniform List<scalar> 
62
(
788.526
788.953
789.943
790.924
791.584
792.025
792.38
792.792
793.389
794.278
795.545
797.249
799.425
802.106
805.347
809.224
813.852
818.802
824.697
831.767
839.85
845.081
850.014
850.014
849.634
850.794
854.25
857.45
860.931
864.423
867.277
791.84
786.211
785.51
774.643
705.567
703.475
700.05
695.24
692.595
693.192
685.452
671.67
705.567
716.075
746.37
764.424
762.118
745.244
727.816
719.277
718.957
719.275
719.917
721.925
719.481
711.896
704.748
696.914
687.119
684.732
684.878
)
;
    }
    atmosphere
    {
        type            totalPressure;
        rho             rho;
        psi             none;
        gamma           1;
        p0              uniform 0;
        value           nonuniform List<scalar> 
46
(
-5.23715e-05
-0.000301589
-0.000302771
-0.000281271
-0.000265201
-0.000257613
-0.000259215
-0.000269959
-0.000289665
-0.000318112
-0.000354957
-0.000399611
-0.000451115
-0.00050805
-0.000568485
-0.000629971
-0.000689587
-0.000744041
-0.000789822
-0.000823411
-0.00084154
-0.00084151
-0.000821534
-0.000791441
-0.000767184
-0.000737902
-0.00070392
-0.000640617
-0.000532701
-0.000413893
-0.000293408
-0.000180456
-8.14783e-05
-8.4153e-06
0
0
0
0
0
0
0
0
0
0
0
0
)
;
    }
    defaultFaces
    {
        type            empty;
    }
}


// ************************************************************************* //
