/*--------------------------------*- C++ -*----------------------------------*\
  =========                 |
  \\      /  F ield         | OpenFOAM: The Open Source CFD Toolbox
   \\    /   O peration     | Website:  https://openfoam.org
    \\  /    A nd           | Version:  9
     \\/     M anipulation  |
\*---------------------------------------------------------------------------*/
FoamFile
{
    format      ascii;
    class       volScalarField;
    location    "9.19";
    object      alpha.water;
}
// * * * * * * * * * * * * * * * * * * * * * * * * * * * * * * * * * * * * * //

dimensions      [0 0 0 0 0 0 0];

internalField   nonuniform List<scalar> 
2268
(
1
1
0.999999
0.999998
1
1
1
0.999999
0.999997
0.999998
1
1
1
1
1
1
1
1
0.999234
0.998171
0.999303
0.999995
0.999921
0.999999
0.999999
0.999997
0.999998
1
1
0.999997
0.999997
0.999997
0.999998
1
1
1
1
0.999999
0.999998
0.999999
0.99999
0.998643
0.998171
0.999645
0.999995
0.999995
0.999997
0.999997
0.999997
0.999999
1
1
0.999999
0.999999
0.999999
1
1
1
1
1
0.999998
0.999988
0.999999
0.999989
0.998757
0.998171
0.999783
0.999995
0.999995
0.999999
0.999999
0.999999
1
1
1
1
1
1
1
1
1
1
1
0.999997
0.999935
0.99994
0.999986
0.999486
0.998171
0.999783
0.999994
0.999868
1
1
1
1
1
1
1
1
1
1
1
1
1
1
1
0.999796
0.999544
0.999886
0.999948
0.999264
0.99986
0.999022
0.999713
1
1
1
1
1
1
1
1
1
1
1
1
1
1
1
0.999661
0.998357
0.999981
0.999981
0.999981
0.999909
0.996516
0.99967
1
1
1
1
1
1
1
1
1
1
1
1
1
1
1
0.999975
0.995447
0.991929
0.999817
0.999838
0.994304
0.993905
0.999662
1
1
1
1
1
1
1
1
1
0.999999
0.999999
1
1
1
1
0.999999
0.994299
0.988256
0.990905
0.994819
0.990397
0.995886
0.999935
0.999775
0.999747
0.999523
0.999523
0.999728
0.999732
0.996636
0.995627
0.995629
0.994947
0.992367
0.992368
0.996036
0.998686
0.998686
0.998686
0.998686
0.998686
0.998686
0.999775
0.999772
0.999996
0.999986
0.999996
0.999996
0.999996
0.999975
0.999969
0.999969
0.997097
0.992366
0.992364
0.998587
0.998686
0.998686
0.998442
0.996697
0.99715
0.999181
0.998049
0.999981
0.999998
0.999996
0.999992
0.999963
0.999959
0.99993
0.999966
0.999783
0.992473
0.992364
0.996214
0.998686
0.998686
0.996171
0.995738
0.995743
0.992462
0.996525
0.999997
0.999998
0.999998
0.999948
0.999809
0.999766
0.999543
0.999491
0.999696
0.998298
0.995015
0.99711
0.998592
0.998686
0.997395
0.996314
0.99844
0.992312
0.997914
0.999996
0.999997
0.999994
0.999859
0.99984
0.999844
0.999378
0.999357
0.999396
0.999688
0.999678
0.99948
0.997186
0.997888
0.998439
0.99844
0.99844
0.992312
0.998734
0.999997
0.99999
0.999982
0.999997
0.999996
0.999844
0.999504
0.999676
0.999688
0.999688
0.999688
0.999688
0.996611
0.991261
0.991258
0.998411
0.99844
0.997587
0.999816
0.999997
0.999995
0.999996
0.999997
0.999997
0.9995
0.998129
0.999688
0.999688
0.999688
0.999688
0.999684
0.993705
0.993326
0.990436
0.996524
0.99844
0.999999
0.999999
0.999999
0.999999
0.999998
0.999997
0.999997
0.999552
0.99149
0.991471
0.998152
0.999688
0.999688
0.995168
0.991748
0.996796
0.990436
0.995644
0.998439
1
1
1
1
1
1
1
1
1
1
1
1
1
0.999999
0.999999
0.999991
0.999971
0.995545
0.990132
0.990205
0.996362
0.999913
0.999935
0.988912
0.988279
0.987401
0.987013
0.987882
0.98884
0.989015
0.988394
0.987538
0.986527
0.985228
0.983857
0.983463
0.983902
0.985536
0.988506
0.990564
0.990178
0.98964
0.988734
0.987323
0.985879
0.983664
0.34556
0.344762
0.344196
0.343446
0.341274
0.339545
0.339558
0.340595
0.341979
0.34356
0.345324
0.346954
0.348198
0.348302
0.347814
0.347471
0.349442
0.353816
0.356805
0.356442
0.353451
0.349677
0.346458
0.000680408
0.000679186
0.000577061
0.000575006
0.00114621
0.00164809
0.00149077
0.00115528
0.000889929
0.000705371
0.000607903
0.000562842
0.000181688
0.000181284
0.000180626
0.000179719
0.000178582
0.000177782
0.000177437
0.000176967
0.000176399
0.000175917
0.000175728
0.000637965
0.00067904
0.000538627
0.000463554
0.00117629
0.00169115
0.00173596
0.0017151
0.00177045
0.00187131
0.00187131
0.00184462
0.00175017
0.00167856
0.00164069
0.0016065
0.0014056
0.00098851
0.000432996
0.000472306
0.000546118
0.000546105
0.000395783
0.000242882
0.000254056
0.000253592
0.000246571
0.000138118
5.91859e-08
6.16558e-06
2.78256e-05
3.00757e-05
8.46414e-06
5.65619e-08
5.65564e-08
6.49103e-08
1.02507e-07
1.53586e-07
3.06976e-07
6.14777e-07
0.00014206
0.000267186
0.000233246
0.000248051
0.000281262
0.000204765
7.92503e-08
3.62735e-07
4.70863e-07
4.55202e-06
1.63179e-07
5.91859e-08
5.91859e-08
6.32435e-08
6.21637e-08
6.18044e-08
5.65619e-08
1.97715e-05
4.9672e-05
4.96743e-05
4.9335e-05
2.31911e-05
1.77267e-06
2.23401e-07
1.17901e-06
6.01042e-09
8.00952e-06
2.99815e-05
7.39248e-05
2.3265e-09
2.31778e-09
9.15348e-09
2.85242e-07
7.859e-07
1.15626e-06
2.60006e-07
2.66791e-07
7.94399e-07
6.43224e-07
4.12064e-07
1.11766e-05
2.57267e-05
2.35375e-05
1.01971e-05
1.09967e-05
2.12139e-06
2.22952e-07
6.01042e-09
6.01042e-09
6.01042e-09
6.01441e-09
1.57607e-06
2.31659e-09
2.30464e-09
2.29429e-09
1.17235e-07
1.48906e-06
1.767e-06
1.63212e-06
9.49994e-07
2.57373e-06
2.57505e-06
1.38165e-06
3.98281e-10
4.12461e-10
4.26641e-10
1.41745e-06
7.77777e-06
4.26401e-06
6.01042e-09
6.01042e-09
6.01042e-09
6.01042e-09
6.01047e-09
1.10321e-08
2.32862e-09
2.30565e-09
2.29216e-09
1.47065e-08
9.66973e-07
1.76695e-06
1.58011e-06
9.50261e-07
2.57505e-06
2.57505e-06
9.43021e-07
3.95689e-10
1.16047e-08
2.62792e-08
9.71697e-08
6.23725e-07
1.01277e-06
6.01042e-09
6.01042e-09
6.01042e-09
6.01044e-09
6.02029e-09
4.49276e-06
2.32314e-09
2.22618e-09
2.21265e-09
2.19629e-09
1.98657e-07
1.00981e-06
3.6825e-07
4.09498e-07
2.57493e-06
2.32865e-06
3.93091e-10
3.93094e-10
5.94368e-08
1.05525e-06
1.49994e-06
3.34562e-07
1.21032e-08
1.20974e-08
1.74361e-08
1.77874e-08
1.0348e-08
1.1979e-08
8.85075e-06
4.24822e-09
2.43812e-08
3.44742e-08
1.54995e-09
5.5421e-10
3.58171e-09
5.01645e-09
2.37521e-07
2.3851e-06
1.18209e-06
3.93091e-10
3.93091e-10
5.56918e-10
2.84749e-06
5.62322e-06
5.07463e-06
1.90715e-07
1.19134e-08
1.19071e-08
2.03879e-08
1.55272e-08
1.17875e-08
3.97031e-07
9.46338e-09
1.01547e-07
1.0267e-07
6.96564e-09
5.53e-10
5.5421e-10
5.02849e-08
1.17715e-06
1.74495e-06
5.84701e-08
3.93091e-10
3.92751e-10
2.74134e-10
2.24928e-06
5.62331e-06
5.62331e-06
5.15591e-06
1.49118e-07
5.47653e-09
7.63303e-09
9.10706e-09
6.09979e-09
2.40364e-09
9.62882e-09
1.0267e-07
1.0267e-07
1.32348e-08
5.516e-10
1.73395e-08
8.553e-07
1.46603e-06
1.09138e-06
4.2496e-10
4.59142e-10
5.47055e-10
2.71595e-10
1.07415e-09
1.75652e-06
5.62331e-06
5.39902e-06
7.88032e-07
5.47663e-09
5.47653e-09
7.65637e-09
9.47342e-09
9.8241e-09
5.93848e-09
7.46541e-08
1.01377e-07
9.72632e-09
5.50887e-10
1.00956e-07
1.46603e-06
1.46603e-06
5.88627e-07
4.24952e-10
5.73836e-10
6.1653e-10
2.60549e-10
6.53331e-11
7.54561e-08
5.58475e-07
8.68862e-07
3.2093e-07
5.47653e-09
5.69946e-09
1.22864e-08
1.09502e-08
1.48613e-08
1.33239e-09
5.35328e-09
2.04614e-08
2.94089e-09
5.50887e-10
5.8823e-08
1.08221e-06
1.23899e-06
6.49499e-09
4.2494e-10
7.23588e-10
6.16555e-10
1.62698e-10
6.53287e-11
7.40905e-11
5.95762e-11
5.95768e-11
1.33246e-09
7.88077e-09
1.31721e-08
1.31721e-08
8.19903e-09
1.06361e-09
3.65364e-10
3.65376e-10
3.79311e-10
4.28169e-10
1.40796e-09
2.48084e-08
5.57692e-08
1.02178e-07
5.68748e-11
4.24939e-10
6.67878e-10
3.87912e-10
8.65523e-11
5.85236e-11
6.0225e-11
5.95762e-11
5.96266e-11
2.96385e-10
2.4763e-09
4.62251e-09
4.48938e-09
1.69895e-09
5.33089e-10
3.65376e-10
3.65365e-10
5.71588e-10
4.02289e-10
3.226e-09
1.07933e-08
7.37613e-11
1.16728e-11
5.68661e-11
2.95696e-10
3.54145e-10
1.2648e-10
3.4671e-11
4.75788e-11
5.95009e-11
6.07139e-11
5.94297e-11
6.05124e-11
8.07199e-11
8.0641e-11
6.75911e-11
9.8569e-11
1.28588e-10
1.05734e-07
1.31778e-07
2.65341e-09
4.63732e-10
3.34865e-09
4.11695e-09
3.67609e-11
1.1466e-11
3.16413e-11
9.42457e-11
7.33434e-11
1.54361e-11
6.87434e-12
2.47531e-11
3.92755e-11
4.263e-11
3.98162e-11
2.61031e-11
1.31242e-11
6.27916e-12
3.13933e-12
2.05754e-12
1.76734e-12
2.76142e-07
2.75905e-07
3.01243e-09
4.87628e-10
2.52509e-09
6.05229e-10
1.79718e-11
1.14655e-11
7.75947e-12
8.85492e-12
3.47659e-12
3.58194e-13
3.78525e-13
4.70479e-12
1.07287e-11
1.23091e-11
1.03243e-11
5.46968e-12
2.34723e-12
1.20027e-12
6.20388e-13
2.75771e-13
2.13062e-13
2.76148e-07
1.36234e-07
6.18603e-10
4.31251e-10
1.08063e-09
3.46559e-11
1.23515e-11
9.44022e-12
5.61108e-13
9.6802e-14
3.21978e-15
-4.04469e-13
-3.2993e-13
1.22008e-13
5.75166e-13
7.12466e-13
4.93043e-13
1.99219e-13
7.41323e-14
3.35918e-14
1.22745e-14
9.02134e-16
4.74926e-17
2.76152e-07
4.15904e-09
8.65506e-11
2.66684e-10
2.0973e-10
5.52422e-12
6.77238e-12
4.51574e-12
-1.11849e-13
-5.23106e-13
-7.16559e-13
-8.69283e-13
-7.4782e-13
-4.26638e-13
-1.80537e-13
-7.37588e-14
-7.4472e-14
-9.66764e-14
-9.32507e-14
-7.68964e-14
-5.69604e-14
-3.86034e-14
-2.39721e-14
2.76482e-07
7.39245e-10
8.57112e-11
9.4234e-11
3.41223e-11
4.04243e-12
1.86739e-12
6.81457e-13
-4.71238e-13
-8.59e-13
-9.97525e-13
-1.00281e-12
-8.51629e-13
-6.11688e-13
-4.08614e-13
-2.82261e-13
-2.12389e-13
-1.63758e-13
-1.21376e-13
-8.57077e-14
-5.75282e-14
-3.65538e-14
-2.19325e-14
2.76482e-07
2.04775e-07
3.17705e-10
3.22415e-11
2.77027e-11
4.16373e-12
2.44633e-13
9.70735e-15
-5.27202e-13
-8.3485e-13
-9.18462e-13
-8.73118e-13
-7.3163e-13
-5.51004e-13
-3.91686e-13
-2.7509e-13
-1.9448e-13
-1.35061e-13
-9.02534e-14
-5.80041e-14
-3.62176e-14
-2.19904e-14
-1.28558e-14
2.76482e-07
2.76482e-07
1.17357e-09
3.10844e-11
3.07297e-11
4.72934e-12
3.01409e-13
8.17897e-14
-2.86437e-13
-5.21014e-13
-6.08128e-13
-5.93962e-13
-5.08511e-13
-3.92399e-13
-2.83115e-13
-1.96579e-13
-1.33047e-13
-8.64379e-14
-5.34732e-14
-3.16297e-14
-1.82176e-14
-1.04068e-14
-5.89995e-15
2.76482e-07
2.76482e-07
6.94285e-10
4.24333e-11
4.3737e-11
6.72405e-12
1.142e-12
8.59682e-13
3.52094e-13
-1.64969e-14
-1.68893e-13
-2.55934e-13
-2.70025e-13
-2.30065e-13
-1.70789e-13
-1.1735e-13
-7.71183e-14
-4.76901e-14
-2.7672e-14
-1.51339e-14
-7.95813e-15
-4.16852e-15
-2.22953e-15
2.76482e-07
1.19209e-07
1.11279e-10
9.09352e-11
7.39058e-11
1.16874e-11
4.12235e-12
3.79069e-12
2.94905e-12
1.83754e-12
8.08003e-13
1.72927e-13
-5.89338e-14
-1.03525e-13
-8.86781e-14
-6.13033e-14
-3.96909e-14
-2.36552e-14
-1.3e-14
-6.62029e-15
-3.17809e-15
-1.5068e-15
-7.32834e-16
1.3016e-07
7.73875e-10
9.45144e-11
1.79636e-10
1.16215e-10
2.12191e-11
1.09827e-11
1.05923e-11
8.99389e-12
6.36548e-12
3.51943e-12
1.36236e-12
2.55134e-13
-2.14988e-14
-3.90623e-14
-2.8648e-14
-1.85883e-14
-1.07923e-14
-5.65745e-15
-2.69794e-15
-1.19044e-15
-5.16043e-16
-2.30875e-16
1.54593e-10
7.93669e-11
1.42388e-10
2.08116e-10
1.35854e-10
3.55126e-11
2.28431e-11
2.19668e-11
1.88268e-11
1.3945e-11
8.13177e-12
3.32348e-12
7.52573e-13
3.08714e-14
-1.26189e-14
-1.20634e-14
-8.03978e-15
-4.58863e-15
-2.30682e-15
-1.03534e-15
-4.25362e-16
-1.74649e-16
-7.55906e-17
7.93669e-11
7.93619e-11
1.76078e-10
2.08494e-10
1.33392e-10
5.01634e-11
3.80468e-11
3.671e-11
3.13106e-11
2.35315e-11
1.40286e-11
5.59845e-12
1.09514e-12
5.58661e-14
-1.29896e-15
-4.57896e-15
-3.25044e-15
-1.83619e-15
-8.8776e-16
-3.7734e-16
-1.46298e-16
-5.67622e-17
-2.36511e-17
7.94304e-11
7.58086e-11
1.61089e-10
1.70908e-10
1.10043e-10
5.40235e-11
4.99113e-11
4.9776e-11
4.34935e-11
3.2997e-11
1.97339e-11
7.3719e-12
1.18825e-12
5.37868e-14
7.88843e-34
-1.62746e-15
-1.24481e-15
-6.98418e-16
-3.24786e-16
-1.30725e-16
-4.75907e-17
-1.7369e-17
-6.95327e-18
9.698e-11
5.89869e-11
9.05098e-11
6.92818e-11
6.50387e-11
5.263e-11
5.24152e-11
5.39268e-11
5.04808e-11
3.94052e-11
2.31945e-11
7.99382e-12
1.14485e-12
3.9039e-14
7.97201e-17
-5.59702e-16
-4.58527e-16
-2.54654e-16
-1.13394e-16
-4.29582e-17
-1.45184e-17
-4.93198e-18
-1.86291e-18
2.38716e-10
5.15453e-11
5.14983e-11
5.14795e-11
5.14794e-11
5.14794e-11
5.1931e-11
5.40806e-11
5.18401e-11
4.1223e-11
2.38678e-11
7.89663e-12
9.47035e-13
1.98193e-14
3.95749e-17
-1.91895e-16
-1.64894e-16
-8.97405e-17
-3.79112e-17
-1.33483e-17
-4.10655e-18
-1.27217e-18
-4.45195e-19
3.8081e-10
9.97483e-10
5.14795e-11
5.14794e-11
5.14794e-11
5.14794e-11
5.72958e-11
5.42689e-11
5.15944e-11
4.11061e-11
2.34449e-11
7.07402e-12
6.20787e-13
7.33057e-15
7.78282e-18
-6.72416e-17
-5.85773e-17
-3.0739e-17
-1.2144e-17
-3.89912e-18
-1.06604e-18
-2.94368e-19
-9.33544e-20
3.80648e-10
2.21301e-08
2.17134e-07
7.04053e-07
1.94304e-07
1.1614e-08
5.09118e-11
5.09124e-11
5.01687e-11
3.98705e-11
2.13307e-11
5.26292e-12
3.05247e-13
1.95337e-15
7.97783e-19
-2.43009e-17
-2.07014e-17
-1.02555e-17
-3.71787e-18
-1.06329e-18
-2.50935e-19
-5.98671e-20
-1.67928e-20
3.80724e-10
5.27931e-08
8.16911e-07
8.20353e-07
8.19394e-07
1.06483e-07
4.39274e-11
4.3888e-11
4.69345e-11
3.6264e-11
1.69599e-11
3.06813e-12
1.05335e-13
3.32605e-16
4.68443e-20
-9.11829e-18
-7.29973e-18
-3.33108e-18
-1.08405e-18
-2.69097e-19
-5.30263e-20
-1.05136e-20
-2.52815e-21
3.80838e-10
1.46484e-08
7.96595e-07
8.20355e-07
8.20353e-07
9.37623e-08
4.65871e-11
4.25947e-11
4.25958e-11
2.99444e-11
1.12422e-11
1.32129e-12
2.30316e-14
2.99716e-17
6.8854e-22
-3.57879e-18
-2.56861e-18
-1.05261e-18
-3.0059e-19
-6.30807e-20
-1.00238e-20
-1.57462e-21
-3.1061e-22
9.66315e-10
9.66482e-10
1.90155e-07
6.92868e-07
2.70384e-07
1.92406e-08
5.14053e-11
4.37795e-11
3.70804e-11
2.15021e-11
5.81879e-12
3.79175e-13
2.74983e-15
1.25193e-18
-4.65041e-19
-1.46287e-18
-9.00318e-19
-3.24066e-19
-7.94979e-20
-1.37565e-20
-1.70282e-21
-1.99461e-22
-3.03242e-23
1.72861e-09
1.49303e-09
8.36897e-10
4.44986e-08
1.94663e-09
9.80863e-11
6.71062e-11
4.7501e-11
2.96368e-11
1.25927e-11
2.08337e-12
6.07145e-14
1.48013e-16
2.10489e-20
-4.19641e-19
-6.03575e-19
-3.14119e-19
-9.77516e-20
-2.02446e-20
-2.82957e-21
-2.65097e-22
-2.16599e-23
-2.30708e-24
7.11241e-10
1.27503e-09
6.67457e-10
2.58041e-10
1.1497e-10
1.0582e-10
8.80234e-11
4.70828e-11
2.03088e-11
5.34861e-12
4.20759e-13
4.20682e-15
2.92644e-18
7.71281e-23
-2.53785e-19
-2.48397e-19
-1.09457e-19
-2.91932e-20
-5.04915e-21
-5.62344e-22
-3.90757e-23
-2.08936e-24
-1.35436e-25
-7.55187e-27
6.4832e-10
7.49942e-10
4.88652e-10
2.77702e-10
1.87262e-10
9.88866e-11
4.00731e-11
1.09478e-11
1.36731e-12
3.61973e-14
9.49538e-17
1.83177e-20
-3.98532e-20
-1.37092e-19
-1.02039e-19
-3.83383e-20
-8.76015e-21
-1.26427e-21
-1.11927e-22
-5.69203e-24
-1.87496e-25
-6.09009e-27
-1.17456e-27
1.06469e-10
5.73761e-10
5.7075e-10
4.37923e-10
2.36724e-10
8.99755e-11
2.18971e-11
2.74535e-12
1.13603e-13
7.43482e-16
4.54834e-19
3.8978e-23
-4.26098e-20
-6.99928e-20
-4.19449e-20
-1.36027e-20
-2.68957e-21
-3.28975e-22
-2.37268e-23
-9.14701e-25
-1.68079e-26
-1.84591e-28
0.999941
0.999953
0.999965
0.999978
0.985663
0.985957
0.986156
0.985812
0.347175
0.34665
0.345963
0.344958
0.000175728
0.000175729
0.000176103
0.000176754
0.000175487
0.000522581
0.00055065
0.000550823
5.35432e-05
0.000162401
0.00039589
0.000421879
5.35641e-05
3.61133e-05
8.94895e-06
2.14536e-08
5.40422e-06
3.43901e-08
2.14536e-08
1.59156e-08
3.04745e-06
8.76143e-06
1.05829e-05
5.61878e-06
2.11438e-05
2.11437e-05
2.11437e-05
2.11437e-05
2.11437e-05
2.11436e-05
2.11435e-05
2.11435e-05
3.32806e-06
1.58229e-05
2.11244e-05
2.05744e-05
2.35663e-09
2.27061e-09
2.18968e-09
2.16253e-09
1.38365e-08
6.14563e-09
4.01979e-09
2.41092e-09
3.05903e-08
3.0532e-08
4.39648e-08
8.62157e-08
1.39003e-09
9.99367e-10
3.11986e-08
2.06772e-07
7.13347e-11
3.05233e-13
1.59257e-13
1.80098e-08
1.59041e-11
7.98691e-13
1.58974e-13
2.39908e-14
4.27377e-13
3.01625e-13
1.79173e-13
4.78913e-14
1.98175e-13
1.60886e-13
9.61871e-14
5.35517e-14
1.45933e-15
6.77251e-16
-4.60161e-16
-1.03284e-15
-1.37861e-14
-1.09651e-14
-8.71919e-15
-6.91123e-15
-1.25312e-14
-9.85554e-15
-7.80787e-15
-6.2107e-15
-7.12919e-15
-5.38144e-15
-4.13175e-15
-3.21868e-15
-3.26277e-15
-2.37132e-15
-1.7265e-15
-1.26885e-15
-1.27418e-15
-9.13048e-16
-6.44616e-16
-4.41442e-16
-4.48539e-16
-3.12716e-16
-2.18769e-16
-1.46983e-16
-1.49232e-16
-1.00458e-16
-6.77941e-17
-4.50929e-17
-4.83646e-17
-3.14939e-17
-2.04296e-17
-1.31245e-17
-1.4699e-17
-9.27176e-18
-5.8107e-18
-3.59582e-18
-4.17311e-18
-2.53108e-18
-1.52303e-18
-9.03493e-19
-1.06866e-18
-6.17796e-19
-3.54027e-19
-1.99869e-19
-2.41487e-19
-1.3176e-19
-7.11763e-20
-3.78417e-20
-4.71999e-20
-2.3993e-20
-1.20602e-20
-5.95815e-21
-7.77995e-21
-3.62602e-21
-1.66886e-21
-7.53531e-22
-1.04955e-21
-4.39276e-22
-1.81301e-22
-7.32397e-23
-1.11886e-22
-4.08452e-23
-1.46903e-23
-5.15779e-24
-9.02049e-24
-2.7487e-24
-8.25787e-25
-2.41628e-25
-5.20031e-25
-1.22668e-25
-2.8705e-26
-6.54526e-27
-1.96742e-26
-3.1013e-27
-4.95168e-28
-7.78775e-29
-4.16659e-28
-3.14703e-29
-2.51473e-30
-2.06351e-31
-2.79433e-30
-3.96379e-32
-5.63181e-34
-8.51202e-36
0.999999
0.999999
0.999999
0.999999
0.999359
0.997098
0.996798
0.997701
0.993336
0.98394
0.984068
0.985998
0.985691
0.985683
0.996585
0.996797
0.99608
0.996015
0.997668
0.984609
0.984092
0.98091
0.977666
0.97547
0.974323
0.973246
0.974391
0.981351
0.984985
0.98598
0.985993
0.98598
0.985966
0.984456
0.98271
0.981709
0.976745
0.973692
0.343058
0.341874
0.343187
0.345334
0.347614
0.34964
0.350877
0.350689
0.349974
0.351088
0.350287
0.349279
0.348515
0.346354
0.34333
0.343321
0.344888
0.34798
0.351349
0.000177341
0.000177434
0.000177876
0.00017847
0.000178874
0.000179271
0.000179605
0.0001799
0.00018008
0.000187285
0.000200178
0.000280274
0.000235806
0.000474849
0.000590357
0.000600497
0.000604488
0.000581963
0.000588092
0.000243699
0.000792549
0.000810228
0.000810186
0.000795725
0.000836176
0.000836315
0.000836361
0.000836328
0.000816992
0.000693148
0.000500014
0.000235325
0.000495818
0.000589738
0.000586973
0.000588279
0.000577747
0.000500586
0.000263223
0.000173779
0.000186316
0.000178436
0.000135628
0.000108078
9.28535e-05
8.17312e-05
4.23692e-05
6.21291e-06
6.21182e-06
1.78281e-05
9.3227e-05
9.36972e-05
0.000105716
0.000139522
0.000150769
0.000172587
0.000191394
1.93161e-05
5.96572e-07
1.36741e-08
1.36729e-08
1.39773e-08
2.74649e-06
4.00951e-06
4.01972e-06
4.02584e-06
1.0558e-05
2.28844e-05
2.77538e-05
3.01936e-05
1.25757e-05
1.02368e-06
5.15544e-07
5.15625e-07
5.15553e-07
5.15459e-07
1.36614e-08
1.36614e-08
1.36614e-08
4.36747e-07
1.81633e-05
3.50982e-05
3.489e-05
2.06561e-05
2.23746e-05
4.86154e-05
4.86227e-05
4.86232e-05
4.86227e-05
2.48352e-05
5.15225e-07
5.1521e-07
5.1521e-07
5.15212e-07
5.15213e-07
1.50863e-06
1.36614e-08
1.47137e-08
7.53845e-06
3.50987e-05
3.51138e-05
3.15802e-05
3.33515e-05
3.29376e-05
1.60767e-05
2.7121e-05
4.07244e-05
4.07755e-05
6.9363e-06
5.1521e-07
5.1521e-07
5.1521e-07
5.15211e-07
5.15212e-07
1.85189e-05
9.56574e-07
5.61652e-08
2.47263e-06
1.34499e-05
1.25575e-05
2.14734e-08
8.22707e-08
3.07378e-10
3.07378e-10
3.0737e-10
3.31941e-10
4.02626e-06
7.57889e-06
5.1521e-07
5.1521e-07
5.1521e-07
5.15451e-07
5.18444e-07
2.11427e-05
2.07702e-05
1.60394e-06
2.15971e-09
2.15971e-09
2.16029e-09
1.51561e-07
5.33609e-07
3.05723e-07
2.88822e-10
1.10172e-08
1.73464e-06
7.58263e-06
7.58138e-06
9.90376e-07
5.1521e-07
5.1521e-07
5.18818e-07
5.18824e-07
2.01992e-05
1.53274e-05
1.85399e-06
2.15971e-09
2.15992e-09
1.08525e-07
5.33803e-07
5.33812e-07
3.06288e-07
2.66485e-10
1.47906e-08
4.36067e-06
8.70247e-06
7.4953e-06
5.1521e-07
5.1521e-07
5.1521e-07
5.1521e-07
5.15211e-07
2.16184e-09
2.16135e-09
2.16123e-09
2.16003e-09
6.88427e-09
1.87182e-08
9.82094e-09
2.10727e-08
2.62701e-10
2.62695e-10
2.69403e-10
1.15395e-06
8.53659e-06
8.53045e-06
4.896e-06
5.1521e-07
5.1521e-07
5.1521e-07
5.1521e-07
2.28714e-09
2.16787e-09
2.16138e-09
2.35939e-09
2.73863e-09
6.13136e-10
2.62597e-10
2.62618e-10
2.62616e-10
3.07335e-10
3.07794e-10
3.85575e-08
2.86994e-06
7.15365e-06
6.31941e-06
9.07306e-07
1.57629e-06
2.29588e-06
1.0195e-06
1.11271e-07
1.07126e-07
3.0081e-08
7.52969e-10
7.51742e-10
6.00989e-10
3.45186e-10
2.62602e-10
4.28823e-10
6.26696e-10
5.01262e-10
6.17843e-11
6.1694e-11
6.17843e-11
8.55741e-11
6.30145e-06
1.05068e-05
1.0507e-05
1.00275e-05
2.41888e-07
2.41888e-07
2.33463e-07
3.11536e-08
2.56093e-09
6.59569e-10
3.07558e-09
6.50044e-09
3.51391e-09
4.32136e-10
3.07241e-10
9.7558e-11
6.15619e-11
6.21309e-11
2.46338e-07
7.51674e-06
1.0507e-05
1.04203e-05
7.49153e-06
1.43991e-07
2.41888e-07
2.41875e-07
2.41863e-07
3.39418e-08
6.61428e-10
2.36255e-08
5.83575e-08
3.58153e-08
3.08303e-09
2.87038e-11
4.59328e-11
6.15204e-11
1.181e-10
1.99907e-09
1.24851e-06
3.98454e-06
1.41974e-06
1.25479e-12
8.22972e-18
6.05587e-08
2.11078e-07
2.18453e-07
3.9381e-08
6.90101e-10
3.89378e-08
6.39189e-08
6.39189e-08
3.35026e-08
2.86888e-11
3.72624e-11
8.04485e-11
5.3876e-10
1.61221e-09
1.08777e-12
1.08794e-12
1.08874e-12
1.24283e-12
1.93362e-18
-1.97135e-34
2.69498e-45
2.15747e-19
1.44397e-09
1.85759e-09
2.63358e-08
6.39189e-08
6.38917e-08
3.71384e-08
2.86534e-11
2.86425e-11
4.77054e-11
6.38626e-11
1.33573e-10
1.08744e-12
1.74993e-12
6.30221e-11
2.18875e-12
1.9325e-14
-2.02825e-16
-1.43745e-16
-1.77592e-31
2.15741e-19
1.4988e-16
2.92821e-10
6.72548e-09
1.46261e-08
1.54771e-09
1.31087e-10
2.86356e-11
4.25034e-11
7.60379e-12
7.98545e-13
1.08729e-12
1.96925e-12
2.96682e-09
1.00301e-07
-1.28727e-15
-1.04129e-15
-5.30107e-16
1.94306e-16
1.26795e-15
1.80053e-15
1.80291e-15
1.81243e-15
1.83892e-15
1.89451e-15
1.27636e-13
1.00598e-11
2.88854e-11
2.26732e-12
7.98659e-13
8.48656e-13
8.49739e-13
1.18319e-08
1.70504e-06
-5.48081e-15
-2.87756e-15
-1.305e-15
1.97215e-34
3.12827e-15
1.48928e-14
3.07851e-14
6.89409e-14
1.25189e-13
1.66962e-13
2.29415e-13
4.78668e-13
7.15983e-13
2.87989e-13
1.33706e-13
4.9436e-13
8.71419e-13
2.74848e-09
2.09798e-06
-4.93971e-15
-2.7954e-15
-1.55349e-15
-8.1894e-16
-3.51942e-16
0
1.23106e-15
2.13764e-14
7.6265e-14
9.9467e-14
1.05836e-13
1.96568e-13
2.30466e-13
7.423e-14
3.4916e-14
4.0681e-13
1.91411e-12
6.35908e-13
2.09801e-06
-2.52624e-15
-1.45042e-15
-8.28407e-16
-4.70049e-16
-2.62514e-16
-1.40865e-16
-6.39112e-17
0
2.91166e-16
2.00348e-15
3.50639e-15
6.12345e-15
1.79518e-14
8.63392e-15
1.38606e-14
3.86078e-13
1.92232e-12
6.35894e-13
2.09792e-06
-9.46865e-16
-5.29987e-16
-2.96919e-16
-1.66565e-16
-9.36087e-17
-5.31014e-17
-2.97024e-17
-1.49533e-17
-3.1345e-18
4.16881e-18
3.02375e-17
1.01588e-16
3.51759e-16
1.4172e-15
9.53125e-15
3.55572e-13
1.91321e-12
6.35901e-13
1.78564e-06
-2.90222e-16
-1.55914e-16
-8.36853e-17
-4.53306e-17
-2.50199e-17
-1.3923e-17
-7.59448e-18
-3.68622e-18
-1.22406e-18
7.35425e-19
1.10992e-17
5.13593e-17
2.45677e-16
1.21252e-15
9.16006e-15
3.389e-13
1.94394e-12
6.35964e-13
4.74553e-08
-7.85191e-17
-3.9601e-17
-2.04382e-17
-1.07624e-17
-5.70303e-18
-2.89518e-18
-1.24879e-18
1.61885e-20
8.51538e-19
6.52118e-18
1.68634e-17
5.16846e-17
2.37956e-16
1.18985e-15
1.0339e-14
3.37651e-13
2.22432e-12
1.20877e-12
1.20882e-12
-2.07487e-17
-9.54583e-18
-4.51431e-18
-2.18427e-18
-9.98108e-19
-1.35738e-19
4.3855e-19
4.28817e-18
2.27195e-17
6.91148e-17
1.36287e-16
2.23647e-16
5.73296e-16
3.3845e-15
4.26451e-14
4.45936e-13
2.70072e-12
1.20882e-12
1.17393e-07
-5.45942e-18
-2.24462e-18
-9.40825e-19
-3.9252e-19
-1.20371e-38
9.12865e-19
9.12996e-18
4.65415e-17
1.7227e-16
5.00744e-16
1.2311e-15
4.06685e-15
1.94487e-14
1.0597e-13
4.23497e-13
1.46423e-12
3.66457e-12
1.20892e-12
1.83725e-06
-1.39039e-18
-5.2084e-19
-1.94218e-19
-5.68379e-20
3.17769e-19
6.62224e-18
5.35218e-17
2.61742e-16
1.05775e-15
4.18227e-15
2.25284e-14
1.43588e-13
6.54245e-13
2.1821e-12
3.73219e-12
5.94949e-12
6.68972e-12
1.21044e-12
2.20432e-06
-3.26212e-19
-1.12853e-19
-3.76636e-20
8.3914e-21
1.06497e-18
1.94621e-17
2.22983e-16
1.40253e-15
8.53032e-15
5.61855e-14
4.1682e-13
2.28515e-12
7.61665e-12
1.66542e-11
1.92295e-11
1.84398e-11
1.58631e-11
1.21128e-12
2.20435e-06
-6.69694e-20
-2.13904e-20
-6.05087e-21
3.80841e-20
1.70052e-18
4.12426e-17
6.71695e-16
6.85688e-15
6.30362e-14
4.82063e-13
3.00657e-12
1.26086e-11
3.24367e-11
5.21278e-11
5.43621e-11
4.17031e-11
3.63042e-11
1.21278e-12
2.17277e-06
-1.16115e-20
-3.38342e-21
-5.22433e-22
4.12217e-20
2.17544e-18
6.31086e-17
1.37638e-15
2.31572e-14
2.52053e-13
1.81582e-12
9.0531e-12
3.0904e-11
6.66055e-11
8.65399e-11
9.24726e-11
7.52988e-11
7.41611e-11
1.21796e-12
2.10282e-06
-1.64601e-21
-4.29048e-22
1.08524e-22
3.87049e-20
2.32643e-18
7.44154e-17
1.98141e-15
4.81231e-14
5.3487e-13
3.51362e-12
1.48385e-11
4.43634e-11
8.6549e-11
9.92085e-11
1.07732e-10
1.56534e-10
1.90125e-10
1.23063e-12
2.10261e-06
-1.83685e-22
-4.14729e-23
1.2404e-22
2.31329e-20
2.16452e-18
7.57322e-17
2.2069e-15
6.64059e-14
7.21947e-13
4.42284e-12
1.69756e-11
4.77316e-11
9.01644e-11
9.60472e-11
9.41701e-11
7.28728e-10
1.01505e-09
1.26729e-12
1.7888e-06
-1.53702e-23
-2.75676e-24
4.53317e-23
9.75299e-21
1.21969e-18
5.38195e-17
2.0877e-15
7.14709e-14
7.63689e-13
4.5101e-12
1.62218e-11
3.80928e-11
7.10384e-11
5.70672e-11
2.22375e-11
2.73769e-09
3.67539e-09
1.46838e-12
1.49057e-07
-9.0269e-25
-7.65647e-26
1.561e-23
3.5176e-21
4.5136e-19
2.05832e-17
1.08245e-15
5.80788e-14
5.77373e-13
2.94964e-12
8.60809e-12
1.48834e-11
2.9283e-11
1.72238e-11
4.80723e-13
4.42883e-09
5.35565e-09
2.25665e-12
1.12189e-07
-3.37455e-26
1.19962e-26
3.52743e-24
9.96613e-22
1.33892e-19
5.56239e-18
2.98124e-16
2.21951e-14
2.02056e-13
9.08558e-13
2.28377e-12
3.48465e-12
6.40621e-12
2.5374e-12
4.80723e-13
4.07068e-09
5.33759e-09
3.60548e-12
6.68759e-07
-6.81899e-28
1.75e-27
4.88105e-25
1.85244e-22
2.8548e-20
1.14398e-18
5.43456e-17
4.5854e-15
3.90423e-14
1.61289e-13
3.62596e-13
5.39204e-13
8.90092e-13
1.6053e-13
1.45245e-12
9.44308e-10
2.99029e-09
2.20055e-09
6.93644e-07
-5.3651e-30
1.32747e-28
3.59574e-26
1.99331e-23
3.50119e-21
1.50721e-19
6.4751e-18
5.61623e-16
4.47179e-15
1.69998e-14
3.47988e-14
5.03187e-14
7.48458e-14
4.58658e-15
1.87201e-11
4.7223e-11
2.72321e-10
3.4759e-23
6.91104e-07
-7.41719e-33
7.74127e-33
6.27439e-28
1.02093e-24
1.83416e-22
8.71427e-21
3.89493e-19
3.23026e-17
2.39688e-16
8.37149e-16
1.5888e-15
2.24465e-15
2.90938e-15
5.01871e-16
1.07599e-12
4.56112e-20
3.47591e-23
9.81615e-24
6.54289e-07
-6.0227e-38
-4.66806e-40
6.66091e-36
9.70053e-31
1.83927e-27
4.66862e-25
8.84055e-23
7.10913e-21
3.65163e-20
1.10246e-19
1.91404e-19
2.41716e-19
9.83409e-20
3.27203e-21
2.27702e-16
2.46837e-17
7.6477e-20
1.50463e-39
5.99434e-07
)
;

boundaryField
{
    leftWall
    {
        type            zeroGradient;
    }
    rightWall
    {
        type            zeroGradient;
    }
    lowerWall
    {
        type            zeroGradient;
    }
    atmosphere
    {
        type            inletOutlet;
        inletValue      uniform 0;
        value           nonuniform List<scalar> 
46
(
0
1.06469e-10
5.73761e-10
5.7075e-10
4.37923e-10
2.36724e-10
8.99755e-11
2.18971e-11
2.74535e-12
1.13603e-13
7.43482e-16
4.54834e-19
3.8978e-23
-4.26098e-20
-6.99928e-20
-4.19449e-20
-1.36027e-20
-2.68957e-21
-3.28975e-22
-2.37268e-23
-9.14701e-25
0
0
0
0
0
0
0
0
0
0
0
0
0
0
0
0
0
0
0
0
0
0
0
0
5.99434e-07
)
;
    }
    defaultFaces
    {
        type            empty;
    }
}


// ************************************************************************* //
