/*--------------------------------*- C++ -*----------------------------------*\
  =========                 |
  \\      /  F ield         | OpenFOAM: The Open Source CFD Toolbox
   \\    /   O peration     | Website:  https://openfoam.org
    \\  /    A nd           | Version:  9
     \\/     M anipulation  |
\*---------------------------------------------------------------------------*/
FoamFile
{
    format      ascii;
    class       surfaceScalarField;
    location    "9.19";
    object      phi;
}
// * * * * * * * * * * * * * * * * * * * * * * * * * * * * * * * * * * * * * //

dimensions      [0 3 -1 0 0 0 0];

internalField   nonuniform List<scalar> 
4432
(
-1.36168e-07
1.36168e-07
-2.69328e-07
1.33162e-07
-3.92679e-07
1.23351e-07
-5.00519e-07
1.07841e-07
-5.90606e-07
9.00895e-08
-6.61866e-07
7.12598e-08
-7.1459e-07
5.27266e-08
-7.50328e-07
3.57392e-08
-7.69957e-07
1.96308e-08
-7.72114e-07
2.15902e-09
-7.51846e-07
-2.02671e-08
-6.98993e-07
-5.28519e-08
-6.01992e-07
-9.70001e-08
-4.56774e-07
-1.45219e-07
-2.81434e-07
-1.75341e-07
-1.33682e-07
-1.47752e-07
-9.73634e-08
-3.63181e-08
-1.85314e-07
8.79517e-08
-4.77415e-07
2.92103e-07
-8.70219e-07
3.92804e-07
-9.27341e-07
5.71198e-08
-6.40411e-07
-2.86934e-07
-6.40417e-07
-1.39792e-07
2.7596e-07
-2.70065e-07
2.63436e-07
-3.91746e-07
2.45035e-07
-5.00568e-07
2.16663e-07
-5.93847e-07
1.83373e-07
-6.70338e-07
1.47752e-07
-7.30126e-07
1.12519e-07
-7.74017e-07
7.96311e-08
-8.02353e-07
4.79693e-08
-8.13945e-07
1.37537e-08
-8.04487e-07
-2.97248e-08
-7.67262e-07
-9.0077e-08
-6.95007e-07
-1.69255e-07
-5.86926e-07
-2.53301e-07
-4.579e-07
-3.04367e-07
-3.49451e-07
-2.562e-07
-3.19335e-07
-6.64331e-08
-3.75239e-07
1.43858e-07
-4.84708e-07
4.01571e-07
-5.98038e-07
5.06131e-07
-6.25893e-07
8.49677e-08
-5.14289e-07
-3.98544e-07
-1.15471e-06
-1.40754e-07
4.16714e-07
-2.69877e-07
3.9256e-07
-3.9055e-07
3.6571e-07
-5.00631e-07
3.26743e-07
-5.97289e-07
2.80033e-07
-6.78897e-07
2.2936e-07
-7.4513e-07
1.78752e-07
-7.96325e-07
1.30826e-07
-8.32463e-07
8.41073e-08
-8.52289e-07
3.35792e-08
-8.52807e-07
-2.92081e-08
-8.29134e-07
-1.13751e-07
-7.7615e-07
-2.22241e-07
-6.92916e-07
-3.36535e-07
-5.89155e-07
-4.08128e-07
-4.95674e-07
-3.4968e-07
-4.61348e-07
-1.00757e-07
-4.85137e-07
1.6765e-07
-4.82044e-07
3.98478e-07
-4.56239e-07
4.80325e-07
-4.48616e-07
7.73409e-08
-3.91425e-07
-4.55736e-07
-1.54613e-06
-1.41297e-07
5.58011e-07
-2.71717e-07
5.22979e-07
-3.93703e-07
4.87698e-07
-5.06481e-07
4.3952e-07
-6.07398e-07
3.80951e-07
-6.94605e-07
3.16565e-07
-7.67349e-07
2.51495e-07
-8.25583e-07
1.89057e-07
-8.69102e-07
1.27624e-07
-8.96986e-07
6.14603e-08
-9.07254e-07
-1.89424e-08
-8.96436e-07
-1.24571e-07
-8.60347e-07
-2.58332e-07
-7.96808e-07
-4.00075e-07
-7.09194e-07
-4.9574e-07
-6.18088e-07
-4.40784e-07
-5.71755e-07
-1.47085e-07
-5.64353e-07
1.60251e-07
-5.01369e-07
3.35497e-07
-3.91778e-07
3.70737e-07
-3.41918e-07
2.74812e-08
-2.92183e-07
-5.05467e-07
-1.83831e-06
-1.41765e-07
6.99776e-07
-2.74758e-07
6.55971e-07
-3.99915e-07
6.12856e-07
-5.16909e-07
5.56511e-07
-6.23252e-07
4.87294e-07
-7.16886e-07
4.10197e-07
-7.9662e-07
3.31225e-07
-8.62068e-07
2.54501e-07
-9.12949e-07
1.78501e-07
-9.48773e-07
9.72797e-08
-9.68547e-07
8.28307e-10
-9.69977e-07
-1.23143e-07
-9.49409e-07
-2.78902e-07
-9.03296e-07
-4.46187e-07
-8.28706e-07
-5.70329e-07
-7.32888e-07
-5.36598e-07
-6.66839e-07
-2.1313e-07
-6.29205e-07
1.22622e-07
-5.33953e-07
2.40249e-07
-3.79772e-07
2.1656e-07
-2.89596e-07
-6.26905e-08
-2.08921e-07
-5.86134e-07
-2.04723e-06
-1.4247e-07
8.42247e-07
-2.79118e-07
7.92617e-07
-4.088e-07
7.42539e-07
-5.31301e-07
6.7901e-07
-6.44165e-07
6.00156e-07
-7.45073e-07
5.11102e-07
-8.3231e-07
4.18458e-07
-9.05149e-07
3.27336e-07
-9.63259e-07
2.36606e-07
-1.00662e-06
1.40632e-07
-1.03519e-06
2.94005e-08
-1.04789e-06
-1.10451e-07
-1.04157e-06
-2.85222e-07
-1.01205e-06
-4.75709e-07
-9.52041e-07
-6.30332e-07
-8.51877e-07
-6.3676e-07
-7.54439e-07
-3.10564e-07
-6.90524e-07
5.87112e-08
-5.73685e-07
1.23414e-07
-4.04232e-07
4.71122e-08
-2.80764e-07
-1.86152e-07
-1.10727e-07
-7.56162e-07
-2.15795e-06
-1.43617e-07
9.85864e-07
-2.84896e-07
9.33895e-07
-4.20041e-07
8.77685e-07
-5.48936e-07
8.07903e-07
-6.69169e-07
7.20389e-07
-7.78066e-07
6.19998e-07
-8.73219e-07
5.1361e-07
-9.53477e-07
4.07592e-07
-1.01844e-06
3.01564e-07
-1.0685e-06
1.90699e-07
-1.10467e-06
6.55616e-08
-1.12697e-06
-8.81492e-08
-1.13315e-06
-2.79043e-07
-1.11953e-06
-4.89328e-07
-1.07696e-06
-6.72898e-07
-9.84903e-07
-7.28817e-07
-8.52779e-07
-4.42687e-07
-7.37434e-07
-5.6633e-08
-6.17051e-07
3.03201e-09
-4.53334e-07
-1.16602e-07
-2.85972e-07
-3.53509e-07
-1.41289e-08
-1.028e-06
-2.17208e-06
-1.47423e-07
1.13329e-06
-2.92465e-07
1.07894e-06
-4.32903e-07
1.01812e-06
-5.68587e-07
9.43589e-07
-6.96733e-07
8.48538e-07
-8.14159e-07
7.37428e-07
-9.17487e-07
6.16943e-07
-1.005e-06
4.95112e-07
-1.07617e-06
3.72732e-07
-1.13174e-06
2.46274e-07
-1.17364e-06
1.0747e-07
-1.20305e-06
-5.87434e-08
-1.21895e-06
-2.63135e-07
-1.21906e-06
-4.89215e-07
-1.19388e-06
-6.98077e-07
-1.12695e-06
-7.95753e-07
-9.72669e-07
-5.96966e-07
-7.91135e-07
-2.38169e-07
-6.51793e-07
-1.36313e-07
-4.99866e-07
-2.6853e-07
-2.7013e-07
-5.83245e-07
-7.71244e-09
-1.29041e-06
-2.17979e-06
-7.80718e-07
7.80718e-07
-4.61796e-07
-3.18927e-07
2.70626e-07
-7.3242e-07
8.68238e-07
-5.97616e-07
1.29666e-06
-4.28422e-07
1.62355e-06
-3.26891e-07
1.80319e-06
-1.79639e-07
1.91893e-06
-1.15744e-07
1.95882e-06
-3.98834e-08
1.96767e-06
-8.85526e-09
1.72651e-06
2.41159e-07
9.40666e-07
7.85846e-07
1.81017e-07
7.59648e-07
-2.00822e-08
2.01098e-07
-6.41201e-08
4.40373e-08
-1.8407e-07
1.19949e-07
-4.10615e-07
2.26545e-07
-3.60483e-07
-5.01322e-08
-3.60483e-07
-5.48155e-07
1.32887e-06
-1.14239e-07
-7.52851e-07
4.12537e-07
-1.2592e-06
8.37625e-07
-1.02271e-06
1.1414e-06
-7.32202e-07
1.34223e-06
-5.27716e-07
1.50177e-06
-3.39177e-07
1.59048e-06
-2.04445e-07
1.56348e-06
-1.28847e-08
1.43617e-06
1.18448e-07
1.29192e-06
3.85412e-07
9.58852e-07
1.11891e-06
5.55023e-07
1.16348e-06
3.00928e-07
4.55193e-07
1.07745e-07
2.37219e-07
-1.21943e-07
3.49636e-07
-4.5678e-07
5.61381e-07
-5.39163e-07
3.22491e-08
-8.99645e-07
-2.49257e-07
1.57813e-06
1.59557e-07
-1.16167e-06
5.39805e-07
-1.63944e-06
8.3084e-07
-1.31374e-06
1.04562e-06
-9.46983e-07
1.19306e-06
-6.75147e-07
1.30996e-06
-4.5608e-07
1.36918e-06
-2.63659e-07
1.31129e-06
4.5005e-08
1.13832e-06
2.91424e-07
9.68224e-07
5.55503e-07
8.72715e-07
1.21442e-06
7.22231e-07
1.31396e-06
4.88822e-07
6.886e-07
2.38395e-07
4.87644e-07
-4.02868e-08
6.28316e-07
-3.94528e-07
9.15621e-07
-5.25212e-07
1.62931e-07
-1.42486e-06
9.52655e-08
1.48287e-06
4.28115e-07
-1.49452e-06
6.57597e-07
-1.86892e-06
8.33959e-07
-1.4901e-06
9.75416e-07
-1.08843e-06
1.07747e-06
-7.77199e-07
1.16067e-06
-5.39276e-07
1.20023e-06
-3.03219e-07
1.132e-06
1.13236e-07
9.63004e-07
4.60424e-07
8.01056e-07
7.1745e-07
7.9781e-07
1.21766e-06
7.78015e-07
1.33375e-06
5.97374e-07
8.69238e-07
3.47947e-07
7.37069e-07
6.93726e-08
9.06886e-07
-2.50637e-07
1.23563e-06
-3.6266e-07
2.74951e-07
-1.78752e-06
4.76293e-07
1.00658e-06
6.77716e-07
-1.69593e-06
7.54066e-07
-1.94526e-06
8.34808e-07
-1.57083e-06
9.15345e-07
-1.16896e-06
9.77876e-07
-8.39727e-07
1.03293e-06
-5.94328e-07
1.06039e-06
-3.30669e-07
9.97754e-07
1.7587e-07
8.50829e-07
6.07351e-07
7.27747e-07
8.40531e-07
7.4557e-07
1.19984e-06
7.72933e-07
1.30638e-06
6.33484e-07
1.00868e-06
4.40809e-07
9.2974e-07
2.23455e-07
1.12424e-06
-4.56904e-08
1.50477e-06
-1.4937e-07
3.78627e-07
-1.93689e-06
7.97946e-07
2.08642e-07
8.47995e-07
-1.74597e-06
8.12601e-07
-1.90986e-06
8.24355e-07
-1.58258e-06
8.58514e-07
-1.20311e-06
8.87337e-07
-8.68545e-07
9.17808e-07
-6.24794e-07
9.41298e-07
-3.54156e-07
8.94478e-07
2.22692e-07
7.78063e-07
7.23766e-07
6.95975e-07
9.22619e-07
7.24534e-07
1.17128e-06
7.48567e-07
1.28235e-06
6.26435e-07
1.13081e-06
4.9637e-07
1.0598e-06
4.00368e-07
1.22023e-06
2.25018e-07
1.68012e-06
8.28312e-08
5.20808e-07
-1.85406e-06
9.03521e-07
-6.94874e-07
9.05143e-07
-1.74758e-06
8.24159e-07
-1.82887e-06
7.97375e-07
-1.55579e-06
8.00433e-07
-1.20617e-06
8.02005e-07
-8.70116e-07
8.08059e-07
-6.30846e-07
8.31468e-07
-3.77563e-07
8.12152e-07
2.42008e-07
7.30282e-07
8.05636e-07
6.86927e-07
9.65973e-07
7.2069e-07
1.13751e-06
7.35347e-07
1.26769e-06
6.1852e-07
1.24764e-06
5.43982e-07
1.13434e-06
5.4891e-07
1.2153e-06
4.92414e-07
1.73661e-06
3.33077e-07
6.80142e-07
-1.52099e-06
8.15532e-07
-1.5104e-06
8.67033e-07
-1.79908e-06
7.93373e-07
-1.75521e-06
7.52118e-07
-1.51453e-06
7.38257e-07
-1.19231e-06
7.20221e-07
-8.52083e-07
7.03794e-07
-6.14422e-07
7.10141e-07
-3.83913e-07
7.39e-07
2.13147e-07
7.06333e-07
8.383e-07
6.94906e-07
9.77398e-07
7.35201e-07
1.09722e-06
7.43263e-07
1.25963e-06
6.41272e-07
1.34963e-06
6.37114e-07
1.1385e-06
6.43686e-07
1.20873e-06
7.1741e-07
1.66289e-06
5.59259e-07
8.38293e-07
-9.61725e-07
-3.08894e-07
1.44218e-06
-6.37537e-07
1.40758e-06
-9.61496e-07
1.34208e-06
-1.275e-06
1.25709e-06
-1.5747e-06
1.14824e-06
-1.85418e-06
1.01691e-06
-2.10133e-06
8.64088e-07
-2.3106e-06
7.04376e-07
-2.4798e-06
5.41929e-07
-2.61093e-06
3.77397e-07
-2.71101e-06
2.07549e-07
-2.78522e-06
1.54702e-08
-2.83718e-06
-2.11182e-07
-2.86733e-06
-4.5906e-07
-2.86165e-06
-7.03763e-07
-2.76583e-06
-8.91566e-07
-2.4667e-06
-8.96092e-07
-1.9921e-06
-7.12769e-07
-1.50975e-06
-6.18655e-07
-1.03858e-06
-7.39698e-07
-5.54348e-07
-1.06747e-06
-3.61318e-07
-1.48343e-06
-1.76073e-06
-7.80382e-07
-3.31758e-07
1.77394e-06
-6.92412e-07
1.76824e-06
-1.02645e-06
1.67613e-06
-1.34055e-06
1.57119e-06
-1.66593e-06
1.47362e-06
-1.98868e-06
1.33966e-06
-2.27506e-06
1.15047e-06
-2.51142e-06
9.4074e-07
-2.69719e-06
7.277e-07
-2.83122e-06
5.11428e-07
-2.91466e-06
2.90982e-07
-2.95835e-06
5.91626e-08
-2.97374e-06
-1.95792e-07
-2.98262e-06
-4.50179e-07
-2.98296e-06
-7.03424e-07
-2.9307e-06
-9.43828e-07
-2.71843e-06
-1.10836e-06
-2.25289e-06
-1.17831e-06
-1.61333e-06
-1.25822e-06
-9.65881e-07
-1.38714e-06
-4.69865e-07
-1.56348e-06
-2.11506e-07
-1.74179e-06
-1.84705e-06
-1.25194e-07
-4.1894e-07
2.19288e-06
-7.65514e-07
2.11479e-06
-1.17745e-06
2.08802e-06
-1.59017e-06
1.98387e-06
-1.89816e-06
1.78158e-06
-2.13697e-06
1.57843e-06
-2.38065e-06
1.39412e-06
-2.61852e-06
1.17858e-06
-2.8136e-06
9.22755e-07
-2.93865e-06
6.36459e-07
-2.98101e-06
3.3333e-07
-2.95215e-06
3.02938e-08
-2.92119e-06
-2.26748e-07
-2.89985e-06
-4.71506e-07
-2.89782e-06
-7.05434e-07
-2.90071e-06
-9.40919e-07
-2.74964e-06
-1.25939e-06
-2.27285e-06
-1.65506e-06
-1.59377e-06
-1.93725e-06
-8.91813e-07
-2.08905e-06
-3.47493e-07
-2.10775e-06
-6.56658e-08
-2.02358e-06
-1.97595e-06
6.32842e-08
-8.29614e-07
3.02248e-06
-2.97313e-07
1.58261e-06
-1.16269e-06
2.95347e-06
-2.75741e-06
3.57878e-06
-2.7129e-06
1.73722e-06
-2.10695e-06
9.72592e-07
-2.02544e-06
1.31271e-06
-2.29266e-06
1.4459e-06
-2.54467e-06
1.17485e-06
-2.6361e-06
7.27956e-07
-2.63494e-06
3.3221e-07
-2.48153e-06
-1.23101e-07
-2.55781e-06
-1.50483e-07
-2.59296e-06
-4.36401e-07
-2.58957e-06
-7.08903e-07
-2.44236e-06
-1.08823e-06
-2.15055e-06
-1.55133e-06
-1.70527e-06
-2.10049e-06
-1.42205e-06
-2.22063e-06
-8.80445e-07
-2.63082e-06
-3.11573e-07
-2.67677e-06
1.38026e-07
-2.47335e-06
-2.0087e-06
1.70619e-07
2.15259e-07
2.80717e-06
-3.74571e-07
2.17233e-06
-2.91314e-06
5.49184e-06
-5.85832e-06
6.52376e-06
-5.54224e-06
1.42097e-06
-4.36599e-06
-2.03815e-07
-3.45702e-06
4.036e-07
-2.98635e-06
9.75108e-07
-2.61245e-06
8.00861e-07
-2.12238e-06
2.37822e-07
-1.61142e-06
-1.78771e-07
-9.38263e-07
-7.96234e-07
-2.47378e-07
-8.41301e-07
2.39959e-07
-9.23628e-07
8.62061e-07
-1.33085e-06
1.58298e-06
-1.80896e-06
1.88727e-06
-1.85539e-06
1.80441e-06
-2.01739e-06
7.68477e-07
-1.18444e-06
-1.79759e-07
-1.68232e-06
-2.61933e-07
-2.59428e-06
1.6976e-09
-2.73676e-06
-9.4039e-07
-1.06665e-06
-3.21493e-07
3.12886e-06
-1.29948e-06
3.15027e-06
-7.6533e-07
4.95791e-06
6.93099e-07
5.06551e-06
-1.57415e-07
2.27162e-06
-1.47856e-06
1.11743e-06
-1.92278e-06
8.47898e-07
-1.73788e-06
7.90271e-07
-1.44274e-06
5.05772e-07
-1.29748e-06
9.25906e-08
-1.21796e-06
-2.58275e-07
-1.01053e-06
-1.00367e-06
-2.54788e-07
-1.59707e-06
5.61221e-07
-1.73968e-06
1.02762e-06
-1.79731e-06
7.66135e-07
-1.54756e-06
-7.74482e-08
-1.01191e-06
-6.94263e-07
-1.40069e-06
-7.66712e-07
-1.11213e-06
-1.30326e-06
-1.14587e-06
-1.86758e-06
-2.0299e-06
-2.08048e-06
-2.5235e-06
-1.28717e-06
-1.73285e-06
-3.69947e-07
3.49892e-06
-8.84815e-07
3.66519e-06
-2.44364e-07
4.31754e-06
7.27082e-07
4.09408e-06
3.74006e-07
2.6247e-06
-2.75088e-07
1.76651e-06
-6.24422e-07
1.19721e-06
-6.60157e-07
8.25973e-07
-6.30682e-07
4.7626e-07
-6.80914e-07
1.42783e-07
-6.99635e-07
-2.39597e-07
-5.73679e-07
-1.12967e-06
-1.4617e-07
-2.0246e-06
2.81464e-07
-2.16733e-06
4.25231e-07
-1.94108e-06
2.88871e-07
-1.41122e-06
-2.70509e-08
-6.96053e-07
-6.92656e-07
-7.35202e-07
-1.15006e-06
-6.54911e-07
-1.58754e-06
-7.08748e-07
-2.31431e-06
-1.30376e-06
-3.01672e-06
-1.82184e-06
-1.72642e-06
-2.57829e-06
-2.97626e-07
3.79634e-06
-4.8108e-07
3.84865e-06
-9.84275e-08
3.93481e-06
4.11086e-07
3.58447e-06
3.69114e-07
2.66658e-06
1.82065e-07
1.95351e-06
1.07586e-08
1.36849e-06
-7.35632e-08
9.10307e-07
-6.92695e-08
4.7201e-07
-3.43375e-08
1.07923e-07
3.12897e-08
-3.05126e-07
-6.547e-09
-1.09171e-06
-1.63539e-07
-1.86746e-06
-2.98009e-07
-2.03268e-06
-4.99102e-07
-1.73978e-06
-6.00109e-07
-1.30996e-06
-6.70529e-07
-6.25355e-07
-1.05231e-06
-3.53101e-07
-1.45448e-06
-2.5233e-07
-1.82705e-06
-3.3568e-07
-2.3675e-06
-7.62876e-07
-2.91006e-06
-1.27891e-06
-1.63796e-06
-2.99822e-06
-1.44279e-07
3.94058e-06
-1.88598e-07
3.89303e-06
1.74637e-08
3.72873e-06
2.78096e-07
3.3238e-06
3.17102e-07
2.62754e-06
2.80023e-07
1.99057e-06
2.06877e-07
1.44163e-06
1.5171e-07
9.65481e-07
1.53997e-07
4.6973e-07
1.8418e-07
7.77449e-08
1.94495e-07
-3.15436e-07
-2.86243e-09
-8.94341e-07
-4.04202e-07
-1.4661e-06
-7.91483e-07
-1.64536e-06
-1.0509e-06
-1.48031e-06
-1.2329e-06
-1.12791e-06
-1.29777e-06
-5.60442e-07
-1.48691e-06
-1.63912e-07
-1.73961e-06
4.80273e-10
-2.02693e-06
-4.8117e-08
-2.43107e-06
-3.58456e-07
-2.87257e-06
-8.37156e-07
-1.44169e-06
-3.06866e-06
-3.48031e-08
3.97549e-06
-7.16533e-09
3.86543e-06
1.15824e-07
3.60575e-06
2.58426e-07
3.1812e-06
2.90516e-07
2.59546e-06
2.73762e-07
2.00733e-06
2.20831e-07
1.49457e-06
1.77246e-07
1.00906e-06
1.47183e-07
4.99768e-07
1.00495e-07
1.24387e-07
-1.26411e-08
-2.02362e-07
-2.69629e-07
-6.37424e-07
-6.84081e-07
-1.05172e-06
-1.07018e-06
-1.25933e-06
-1.34292e-06
-1.20763e-06
-1.55321e-06
-9.1769e-07
-1.65652e-06
-4.57248e-07
-1.75699e-06
-6.36382e-08
-1.89292e-06
1.36185e-07
-2.06853e-06
1.27306e-07
-2.32014e-06
-1.07001e-07
-2.61664e-06
-5.4076e-07
-1.26276e-06
-2.79565e-06
2.06033e-08
3.95496e-06
7.7389e-08
3.80859e-06
1.73962e-07
3.50914e-06
2.61077e-07
3.09407e-06
2.77228e-07
2.57931e-06
2.42649e-07
2.04192e-06
1.89678e-07
1.54756e-06
1.35488e-07
1.06326e-06
5.76104e-08
5.77639e-07
-7.00013e-08
2.51981e-07
-2.52497e-07
-1.98908e-08
-5.33907e-07
-3.56037e-07
-9.10648e-07
-6.74992e-07
-1.26116e-06
-9.08801e-07
-1.51225e-06
-9.56483e-07
-1.67381e-06
-7.56041e-07
-1.77415e-06
-3.56815e-07
-1.83596e-06
-1.76967e-09
-1.89103e-06
1.91263e-07
-1.95705e-06
1.93319e-07
-2.05595e-06
-8.08068e-09
-2.18591e-06
-4.10741e-07
-1.09769e-06
-2.35087e-06
5.04918e-08
3.90443e-06
1.20276e-07
3.73867e-06
1.99092e-07
3.43024e-06
2.54224e-07
3.03888e-06
2.57996e-07
2.57551e-06
2.15085e-07
2.08482e-06
1.61367e-07
1.60127e-06
9.52996e-08
1.12933e-06
-3.05188e-08
7.03465e-07
-2.10226e-07
4.31699e-07
-4.14907e-07
1.84807e-07
-6.83092e-07
-8.78242e-08
-1.00851e-06
-3.49531e-07
-1.32606e-06
-5.91172e-07
-1.56757e-06
-7.14831e-07
-1.71604e-06
-6.07365e-07
-1.77278e-06
-2.99817e-07
-1.80403e-06
2.977e-08
-1.80372e-06
1.91239e-07
-1.78732e-06
1.77206e-07
-1.77894e-06
-1.61643e-08
-1.79442e-06
-3.94945e-07
-9.65844e-07
-1.92589e-06
6.90487e-08
3.83528e-06
1.42341e-07
3.66524e-06
2.08242e-07
3.36424e-06
2.45836e-07
3.00122e-06
2.41109e-07
2.58019e-06
2.00067e-07
2.12583e-06
1.46282e-07
1.65503e-06
6.16631e-08
1.21394e-06
-9.45726e-08
8.59706e-07
-2.83274e-07
6.20417e-07
-4.84628e-07
3.86188e-07
-7.19542e-07
1.47123e-07
-9.84418e-07
-8.4615e-08
-1.27039e-06
-3.05142e-07
-1.52717e-06
-4.57966e-07
-1.68661e-06
-4.47784e-07
-1.73306e-06
-2.53161e-07
-1.73739e-06
3.43554e-08
-1.70135e-06
1.5548e-07
-1.64238e-06
1.18531e-07
-1.58718e-06
-7.10534e-08
-1.57221e-06
-4.09601e-07
-8.79477e-07
-1.65824e-06
8.40482e-08
3.75113e-06
1.57451e-07
3.59175e-06
2.15383e-07
3.30625e-06
2.45241e-07
2.97131e-06
2.38314e-07
2.58707e-06
1.97449e-07
2.16666e-06
1.40194e-07
1.71227e-06
3.33921e-08
1.32073e-06
-1.31174e-07
1.02428e-06
-3.07616e-07
7.96879e-07
-4.92433e-07
5.71034e-07
-6.92889e-07
3.47612e-07
-9.10168e-07
1.32692e-07
-1.1511e-06
-6.41935e-08
-1.3942e-06
-2.14844e-07
-1.5748e-06
-2.67149e-07
-1.66409e-06
-1.63802e-07
-1.65513e-06
2.54948e-08
-1.60278e-06
1.03255e-07
-1.53286e-06
4.87527e-08
-1.47455e-06
-1.29227e-07
-1.46471e-06
-4.19317e-07
-7.92544e-07
-1.55151e-06
9.74288e-08
3.65364e-06
1.71377e-07
3.5178e-06
2.24907e-07
3.25272e-06
2.52299e-07
2.94391e-06
2.46421e-07
2.59293e-06
2.05548e-07
2.20751e-06
1.29546e-07
1.78826e-06
9.55064e-09
1.44072e-06
-1.47857e-07
1.18169e-06
-3.0653e-07
9.55567e-07
-4.70594e-07
7.35118e-07
-6.43795e-07
5.20834e-07
-8.28969e-07
3.17879e-07
-1.02736e-06
1.34194e-07
-1.23208e-06
-1.01511e-08
-1.41805e-06
-8.12144e-08
-1.52986e-06
-5.20239e-08
-1.53692e-06
3.25354e-08
-1.49269e-06
5.89954e-08
-1.43462e-06
-9.33548e-09
-1.39216e-06
-1.71721e-07
-1.39742e-06
-4.14105e-07
-7.0726e-07
-1.48276e-06
1.05533e-07
3.5481e-06
1.8231e-07
3.44107e-06
2.33374e-07
3.20169e-06
2.59169e-07
2.91813e-06
2.54044e-07
2.59807e-06
2.12954e-07
2.2486e-06
1.19944e-07
1.88127e-06
-6.60949e-09
1.56728e-06
-1.4744e-07
1.32252e-06
-2.88411e-07
1.09654e-06
-4.33664e-07
8.80374e-07
-5.85852e-07
6.73021e-07
-7.46631e-07
4.78648e-07
-9.16867e-07
3.04405e-07
-1.09107e-06
1.64007e-07
-1.24919e-06
7.6834e-08
-1.35403e-06
5.27354e-08
-1.38285e-06
6.12591e-08
-1.36332e-06
3.93629e-08
-1.32906e-06
-4.36941e-08
-1.30868e-06
-1.92223e-07
-1.32776e-06
-3.95148e-07
-6.27994e-07
-1.40716e-06
1.08719e-07
3.43942e-06
1.87236e-07
3.36262e-06
2.35386e-07
3.15358e-06
2.568e-07
2.89675e-06
2.48608e-07
2.60628e-06
2.04608e-07
2.29262e-06
1.11825e-07
1.97405e-06
-9.01078e-09
1.68812e-06
-1.31911e-07
1.44543e-06
-2.5752e-07
1.22215e-06
-3.86789e-07
1.00963e-06
-5.2156e-07
8.07778e-07
-6.62557e-07
6.19623e-07
-8.09014e-07
4.50826e-07
-9.55293e-07
3.10233e-07
-1.08618e-06
2.07646e-07
-1.17836e-06
1.44837e-07
-1.21902e-06
1.01819e-07
-1.22268e-06
4.2913e-08
-1.21295e-06
-5.35337e-08
-1.21282e-06
-1.92465e-07
-1.24194e-06
-3.66147e-07
-5.56298e-07
-1.31376e-06
1.10321e-07
3.32915e-06
1.86046e-07
3.28696e-06
2.2772e-07
3.11195e-06
2.43154e-07
2.88134e-06
2.30769e-07
2.61868e-06
1.85498e-07
2.3379e-06
1.04619e-07
2.05495e-06
1.55729e-09
1.79119e-06
-1.07276e-07
1.55427e-06
-2.18701e-07
1.33358e-06
-3.3365e-07
1.12458e-06
-4.5282e-07
9.2694e-07
-5.76059e-07
7.42847e-07
-7.01561e-07
5.76306e-07
-8.23974e-07
4.32613e-07
-9.326e-07
3.16229e-07
-1.01353e-06
2.25714e-07
-1.05982e-06
1.48046e-07
-1.07967e-06
6.26937e-08
-1.08878e-06
-4.4492e-08
-1.10384e-06
-1.77482e-07
-1.13903e-06
-3.31019e-07
-4.92235e-07
-1.20317e-06
1.0507e-07
3.22412e-06
1.75092e-07
3.21698e-06
2.10339e-07
3.07673e-06
2.21637e-07
2.87007e-06
2.0801e-07
2.63233e-06
1.67133e-07
2.3788e-06
9.95661e-08
2.12254e-06
1.3924e-08
1.87686e-06
-7.92196e-08
1.64743e-06
-1.7665e-07
1.43103e-06
-2.77703e-07
1.22565e-06
-3.82088e-07
1.03133e-06
-4.88933e-07
8.49698e-07
-5.96012e-07
6.83387e-07
-6.98775e-07
5.35374e-07
-7.89915e-07
4.07362e-07
-8.61283e-07
2.97071e-07
-9.09303e-07
1.9605e-07
-9.38897e-07
9.22684e-08
-9.60287e-07
-2.31221e-08
-9.8497e-07
-1.52819e-07
-1.02277e-06
-2.93238e-07
-4.3561e-07
-1.07941e-06
9.56657e-08
3.12848e-06
1.52795e-07
3.15986e-06
1.85421e-07
3.04411e-06
1.96255e-07
2.85925e-06
1.85092e-07
2.64352e-06
1.51495e-07
2.41242e-06
9.70984e-08
2.17696e-06
2.75591e-08
1.94642e-06
-5.05567e-08
1.72557e-06
-1.34032e-07
1.51453e-06
-2.21392e-07
1.31303e-06
-3.11619e-07
1.12158e-06
-4.03359e-07
9.4146e-07
-4.94337e-07
7.74386e-07
-5.80901e-07
6.21959e-07
-6.58118e-07
4.846e-07
-7.21199e-07
3.60171e-07
-7.68356e-07
2.43226e-07
-8.02704e-07
1.26633e-07
-8.30835e-07
5.02595e-09
-8.6042e-07
-1.23218e-07
-8.98023e-07
-2.55617e-07
-3.86295e-07
-9.47322e-07
8.11494e-08
3.04734e-06
1.27082e-07
3.11392e-06
1.58878e-07
3.01232e-06
1.71383e-07
2.84676e-06
1.64734e-07
2.65018e-06
1.39427e-07
2.43774e-06
9.72393e-08
2.21916e-06
4.1977e-08
2.0017e-06
-2.20665e-08
1.78964e-06
-9.20654e-08
1.58455e-06
-1.66213e-07
1.3872e-06
-2.43074e-07
1.19847e-06
-3.21047e-07
1.01946e-06
-3.97985e-07
8.51352e-07
-4.71016e-07
6.95021e-07
-5.36785e-07
5.50402e-07
-5.92406e-07
4.15825e-07
-6.36983e-07
2.87837e-07
-6.72528e-07
1.62213e-07
-7.03264e-07
3.57963e-08
-7.34178e-07
-9.22694e-08
-7.69533e-07
-2.20227e-07
-3.44171e-07
-8.11623e-07
6.22777e-08
2.98506e-06
1.06049e-07
3.07013e-06
1.36239e-07
2.98212e-06
1.50379e-07
2.83262e-06
1.48588e-07
2.65197e-06
1.31377e-07
2.45496e-06
1.00146e-07
2.2504e-06
5.74433e-08
2.04441e-06
6.18918e-09
1.8409e-06
-5.12329e-08
1.64198e-06
-1.1301e-07
1.449e-06
-1.77534e-07
1.26302e-06
-2.43127e-07
1.08508e-06
-3.07837e-07
9.1609e-07
-3.69396e-07
7.5661e-07
-4.25452e-07
6.06491e-07
-4.74177e-07
4.64585e-07
-5.1508e-07
3.28778e-07
-5.49441e-07
1.96615e-07
-5.79925e-07
6.6323e-08
-6.097e-07
-6.24507e-08
-6.4145e-07
-1.88434e-07
-3.09039e-07
-6.76536e-07
4.41934e-08
2.94085e-06
9.00358e-08
3.02427e-06
1.18169e-07
2.95398e-06
1.33891e-07
2.81688e-06
1.36928e-07
2.64893e-06
1.27313e-07
2.46457e-06
1.05848e-07
2.27186e-06
7.41771e-08
2.07608e-06
3.43491e-08
1.88074e-06
-1.17032e-08
1.68804e-06
-6.224e-08
1.49955e-06
-1.15643e-07
1.31644e-06
-1.7027e-07
1.13972e-06
-2.24369e-07
9.70214e-07
-2.76105e-07
8.08376e-07
-3.23747e-07
6.54166e-07
-3.66044e-07
5.06919e-07
-4.02655e-07
3.65429e-07
-4.34349e-07
2.28353e-07
-4.62762e-07
9.47839e-08
-4.89844e-07
-3.53171e-08
-5.17221e-07
-1.61003e-07
-2.80565e-07
-5.45636e-07
3.12637e-08
2.90958e-06
7.46473e-08
2.98086e-06
1.0252e-07
2.92608e-06
1.20982e-07
2.7984e-06
1.29303e-07
2.64059e-06
1.26982e-07
2.46688e-06
1.14299e-07
2.28454e-06
9.22993e-08
2.09808e-06
6.24833e-08
1.91055e-06
2.64726e-08
1.72406e-06
-1.41291e-08
1.54016e-06
-5.77539e-08
1.36008e-06
-1.02836e-07
1.18483e-06
-1.47801e-07
1.01521e-06
-1.9111e-07
8.51718e-07
-2.31412e-07
6.94505e-07
-2.67757e-07
5.43307e-07
-2.99836e-07
3.97555e-07
-3.28052e-07
2.5662e-07
-3.53358e-07
1.20146e-07
-3.76899e-07
-1.17146e-08
-3.99606e-07
-1.38231e-07
-2.58276e-07
-4.21823e-07
2.6648e-08
2.88291e-06
5.95182e-08
2.94795e-06
8.87079e-08
2.89686e-06
1.1144e-07
2.77564e-06
1.25679e-07
2.62633e-06
1.30413e-07
2.46213e-06
1.25602e-07
2.28933e-06
1.11975e-07
2.1117e-06
9.07421e-08
1.93178e-06
6.33303e-08
1.75147e-06
3.12385e-08
1.57226e-06
-4.0294e-09
1.39536e-06
-4.09894e-08
1.22181e-06
-7.82052e-08
1.05245e-06
-1.14343e-07
8.87893e-07
-1.48274e-07
7.2848e-07
-1.79209e-07
5.74291e-07
-2.06814e-07
4.25215e-07
-2.31234e-07
2.811e-07
-2.52969e-07
1.41946e-07
-2.72646e-07
8.03246e-09
-2.90742e-07
-1.20061e-07
-2.41581e-07
-3.07355e-07
2.21211e-08
2.86077e-06
4.66025e-08
2.92342e-06
7.85455e-08
2.86488e-06
1.06545e-07
2.74761e-06
1.26872e-07
2.60597e-06
1.38108e-07
2.45087e-06
1.40096e-07
2.28733e-06
1.33461e-07
2.11832e-06
1.19299e-07
1.94594e-06
9.89525e-08
1.77182e-06
7.38632e-08
1.59736e-06
4.54836e-08
1.42376e-06
1.52277e-08
1.25209e-06
-1.55709e-08
1.08329e-06
-4.57146e-08
9.18079e-07
-7.42113e-08
7.57025e-07
-1.00353e-07
6.00488e-07
-1.23772e-07
4.48694e-07
-1.44434e-07
3.01827e-07
-1.62545e-07
1.60128e-07
-1.78401e-07
2.39626e-08
-1.922e-07
-1.06184e-07
-2.298e-07
-2.03896e-07
1.30727e-08
2.84767e-06
3.84112e-08
2.89802e-06
7.50448e-08
2.8282e-06
1.084e-07
2.71421e-06
1.34176e-07
2.58016e-06
1.5084e-07
2.43417e-06
1.58249e-07
2.27989e-06
1.57046e-07
2.11951e-06
1.48329e-07
1.95465e-06
1.33431e-07
1.78672e-06
1.13778e-07
1.61702e-06
9.07915e-08
1.44676e-06
6.58341e-08
1.27708e-06
4.01613e-08
1.10899e-06
1.48772e-08
9.43406e-07
-9.11372e-09
7.81065e-07
-3.11502e-08
6.22579e-07
-5.08368e-08
4.68441e-07
-6.80238e-08
3.19079e-07
-8.27373e-08
1.7491e-07
-9.50691e-08
3.63659e-08
-1.05056e-07
-9.61241e-08
-2.22201e-07
-1.12577e-07
8.9343e-09
2.8387e-06
4.07082e-08
2.86619e-06
8.13922e-08
2.78747e-06
1.18865e-07
2.6767e-06
1.48683e-07
2.55031e-06
1.69244e-07
2.41358e-06
1.80423e-07
2.26869e-06
1.82931e-07
2.11698e-06
1.77933e-07
1.95964e-06
1.66808e-07
1.79784e-06
1.50998e-07
1.63284e-06
1.31912e-07
1.46586e-06
1.10873e-07
1.29814e-06
8.90763e-08
1.13082e-06
6.75541e-08
9.64966e-07
4.7147e-08
8.01516e-07
2.84805e-08
6.41295e-07
1.19618e-08
4.85013e-07
-2.19634e-09
3.33294e-07
-1.39179e-08
1.86691e-07
-2.31834e-08
4.56927e-08
-2.99443e-08
-8.93013e-08
-2.18026e-07
-3.4054e-08
1.74824e-08
2.82118e-06
5.4376e-08
2.82924e-06
9.78541e-08
2.74394e-06
1.38143e-07
2.63637e-06
1.70603e-07
2.51781e-06
1.93472e-07
2.39068e-06
2.06682e-07
2.25546e-06
2.11104e-07
2.11254e-06
2.08056e-07
1.96267e-06
1.99017e-07
1.80688e-06
1.85474e-07
1.64639e-06
1.68835e-07
1.48251e-06
1.50389e-07
1.3166e-06
1.31275e-07
1.14996e-06
1.12463e-07
9.83806e-07
9.47379e-08
8.19275e-07
7.86872e-08
6.57383e-07
6.47101e-08
4.99031e-07
5.30417e-08
3.45006e-07
4.38013e-08
1.95977e-07
3.70557e-08
5.24841e-08
3.28841e-08
-8.50844e-08
-2.16525e-07
3.14294e-08
3.14687e-08
2.78968e-06
7.444e-08
2.78622e-06
1.21784e-07
2.69656e-06
1.64986e-07
2.59313e-06
1.9937e-07
2.4834e-06
2.23198e-07
2.36683e-06
2.36749e-07
2.24189e-06
2.41292e-07
2.10798e-06
2.38443e-07
1.96551e-06
2.29849e-07
1.81547e-06
2.17066e-07
1.65917e-06
2.01504e-07
1.49808e-06
1.84412e-07
1.3337e-06
1.6687e-07
1.16751e-06
1.49785e-07
1.00091e-06
1.33881e-07
8.352e-07
1.19703e-07
6.71585e-07
1.07622e-07
5.11138e-07
9.78635e-08
3.54793e-07
9.05463e-08
2.03323e-07
8.57384e-08
5.73207e-08
8.35116e-08
-8.28298e-08
-2.1697e-07
8.39847e-08
4.4937e-08
2.74472e-06
9.73446e-08
2.73378e-06
1.5095e-07
2.64293e-06
1.98246e-07
2.54581e-06
2.34346e-07
2.44727e-06
2.57898e-07
2.34326e-06
2.70086e-07
2.22968e-06
2.72961e-07
2.1051e-06
2.68614e-07
1.96985e-06
2.58928e-07
1.82515e-06
2.45527e-07
1.67256e-06
2.29807e-07
1.5138e-06
2.12961e-07
1.35055e-06
1.95996e-07
1.18448e-06
1.79745e-07
1.01717e-06
1.64869e-07
8.50085e-07
1.51858e-07
6.84607e-07
1.41042e-07
5.21966e-07
1.32612e-07
3.63236e-07
1.26655e-07
2.09293e-07
1.23206e-07
6.07823e-08
1.223e-07
-8.19123e-08
-2.18679e-07
1.24019e-07
5.8795e-08
2.6859e-06
1.22819e-07
2.66973e-06
1.84964e-07
2.58076e-06
2.37693e-07
2.49306e-06
2.75232e-07
2.40972e-06
2.96983e-07
2.32149e-06
3.05897e-07
2.22075e-06
3.0528e-07
2.1057e-06
2.97846e-07
1.97727e-06
2.85704e-07
1.83728e-06
2.70508e-07
1.68775e-06
2.53593e-07
1.53071e-06
2.3606e-07
1.36808e-06
2.18823e-07
1.20172e-06
2.0263e-07
1.03336e-06
1.88073e-07
8.64642e-07
1.75582e-07
6.97097e-07
1.65439e-07
5.3211e-07
1.57783e-07
3.70892e-07
1.52649e-07
2.14427e-07
1.5001e-07
6.34206e-08
1.49843e-07
-8.1746e-08
-2.2102e-07
1.52181e-07
7.56739e-08
2.61021e-06
1.52521e-07
2.59287e-06
2.24918e-07
2.50835e-06
2.84024e-07
2.43394e-06
3.21913e-07
2.37182e-06
3.39544e-07
2.30385e-06
3.42921e-07
2.21737e-06
3.37022e-07
2.11159e-06
3.25138e-07
1.98915e-06
3.09469e-07
1.85294e-06
2.9159e-07
1.70562e-06
2.72701e-07
1.54959e-06
2.53767e-07
1.38701e-06
2.35586e-07
1.21989e-06
2.18813e-07
1.05012e-06
2.03965e-07
8.79482e-07
1.9142e-07
7.09634e-07
1.81407e-07
5.42114e-07
1.74016e-07
3.78275e-07
1.6921e-07
2.19224e-07
1.66882e-07
6.57392e-08
1.66924e-07
-8.1799e-08
-2.23424e-07
1.69317e-07
1.00148e-07
2.51005e-06
1.91515e-07
2.5015e-06
2.73447e-07
2.42642e-06
3.39026e-07
2.36836e-06
3.73533e-07
2.3373e-06
3.83556e-07
2.29382e-06
3.79048e-07
2.22187e-06
3.66445e-07
2.12419e-06
3.49225e-07
2.00636e-06
3.29416e-07
1.87274e-06
3.08356e-07
1.72668e-06
2.8703e-07
1.5709e-06
2.66233e-07
1.4078e-06
2.4663e-07
1.23948e-06
2.28781e-07
1.06796e-06
2.13138e-07
8.95113e-07
2.00036e-07
7.22724e-07
1.89667e-07
5.52469e-07
1.82076e-07
3.85853e-07
1.77155e-07
2.2413e-07
1.74696e-07
6.81832e-08
1.74483e-07
-8.16007e-08
-2.25384e-07
1.76427e-07
1.46973e-07
2.36308e-06
2.55342e-07
2.39313e-06
3.43767e-07
2.33799e-06
3.98804e-07
2.31333e-06
4.25861e-07
2.31025e-06
4.24854e-07
2.29483e-06
4.11091e-07
2.23563e-06
3.91407e-07
2.14387e-06
3.68778e-07
2.02898e-06
3.44812e-07
1.8967e-06
3.20516e-07
1.75096e-06
2.9663e-07
1.59478e-06
2.73764e-07
1.43065e-06
2.52455e-07
1.26078e-06
2.33178e-07
1.08723e-06
2.16334e-07
9.11943e-07
2.02236e-07
7.36809e-07
1.91067e-07
5.63623e-07
1.8285e-07
3.94055e-07
1.7742e-07
2.29544e-07
1.7445e-07
7.11359e-08
1.73578e-07
-8.07449e-08
-2.26455e-07
1.74631e-07
2.3304e-07
2.13004e-06
3.63075e-07
2.26311e-06
4.37462e-07
2.26361e-06
4.6573e-07
2.28506e-06
4.7294e-07
2.30304e-06
4.58795e-07
2.30898e-06
4.36263e-07
2.25816e-06
4.1028e-07
2.16985e-06
3.82925e-07
2.05634e-06
3.55303e-07
1.92432e-06
3.28093e-07
1.77817e-06
3.01807e-07
1.62106e-06
2.7689e-07
1.45556e-06
2.53766e-07
1.2839e-06
2.32835e-07
1.10815e-06
2.1447e-07
9.30295e-07
1.98986e-07
7.52279e-07
1.86595e-07
5.75999e-07
1.77342e-07
4.03292e-07
1.71038e-07
2.35832e-07
1.67233e-07
7.49234e-08
1.65359e-07
-7.88872e-08
-2.26249e-07
1.65135e-07
3.55955e-07
1.77409e-06
5.08291e-07
2.11078e-06
5.43962e-07
2.22795e-06
5.40749e-07
2.28828e-06
5.1419e-07
2.32961e-06
4.85335e-07
2.33784e-06
4.54562e-07
2.28894e-06
4.23079e-07
2.20134e-06
3.91793e-07
2.08762e-06
3.61175e-07
1.95494e-06
3.31547e-07
1.80779e-06
3.03193e-07
1.64941e-06
2.76403e-07
1.48234e-06
2.51491e-07
1.3088e-06
2.28795e-07
1.13083e-06
2.08664e-07
9.50415e-07
1.91436e-07
7.69494e-07
1.77392e-07
5.90029e-07
1.66667e-07
4.14003e-07
1.59117e-07
2.43368e-07
1.54194e-07
7.98313e-08
1.51031e-07
-7.57383e-08
-2.24431e-07
1.49198e-07
4.92602e-07
1.2815e-06
6.58414e-07
1.94498e-06
6.5775e-07
2.22862e-06
6.1019e-07
2.33585e-06
5.53169e-07
2.38664e-06
5.07761e-07
2.38325e-06
4.6783e-07
2.32887e-06
4.3097e-07
2.2382e-06
3.96252e-07
2.12234e-06
3.63223e-07
1.98796e-06
3.31706e-07
1.83931e-06
3.01702e-07
1.67941e-06
2.73324e-07