/*--------------------------------*- C++ -*----------------------------------*\
  =========                 |
  \\      /  F ield         | OpenFOAM: The Open Source CFD Toolbox
   \\    /   O peration     | Website:  https://openfoam.org
    \\  /    A nd           | Version:  9
     \\/     M anipulation  |
\*---------------------------------------------------------------------------*/
FoamFile
{
    format      ascii;
    class       surfaceScalarField;
    location    "23.55";
    object      phi;
}
// * * * * * * * * * * * * * * * * * * * * * * * * * * * * * * * * * * * * * //

dimensions      [0 3 -1 0 0 0 0];

internalField   nonuniform List<scalar> 
1300
(
11.2529
1.87548
-4.1813
11.2529
-4.99292
1.87548
-4.23821
4.23821
-1.18773
1.18773
5.7123
5.54056
-2.37261
2.37261
-2.81495
2.81495
-2.86025
2.86025
-1.06194
1.06194
-1.02826
1.02826
0.693193
-0.693193
-3.41642
3.41642
-1.45637
1.45637
-2.90374
2.90374
6.1281
-6.1281
-3.24964
3.24964
-0.743914
0.743914
-4.26321
15.5161
6.98965
6.98965
-2.37125
2.37125
-1.25396
1.25396
1.41034
-1.41034
9.07294
-9.07294
-4.89165
-5.90114
1.90913
-14.0309
-3.08379
-3.08379
-2.7054
2.7054
-0.829928
1.04555
3.47679
-3.47679
-0.757534
0.757534
-4.32421
0.0860036
-4.32421
4.02185
0.216355
4.02185
-1.32902
0.141288
-1.32902
4.67629
-4.67629
1.07598
0.111745
1.07598
3.9281
-3.9281
-5.71006
11.4224
5.5428
-5.32064
20.8367
-5.93222
11.4728
-3.90882
3.90882
-2.28982
-0.0827922
-2.28982
2.37362
-0.00101154
2.37362
-4.00927
4.00927
-2.60466
-0.210297
-2.60466
2.91572
-0.100768
2.91572
3.66632
-3.66632
-2.91629
0.056036
-2.91629
2.70856
0.15169
2.70856
0.771042
1.10443
-2.64652
3.69207
-1.10443
0.0424987
1.02614
0.0357986
1.02614
-1.01454
-0.0137255
-1.01454
1.04984
-0.0215803
1.04984
0.730285
-0.0370922
0.730285
-0.754892
0.0616991
-0.754892
-8.59219
-8.98356
-3.54258
0.126157
-3.54258
-1.47437
0.0179995
-1.47437
1.49255
-0.0361798
1.49255
-2.52998
2.52998
-3.24551
0.341775
-3.24551
4.80635
1.32175
4.80635
5.04612
6.20674
16.299
-16.299
10.1709
-2.96758
-0.282052
-2.96758
-3.41719
-5.65575
3.41719
-0.167556
-0.805684
0.0617697
-0.805684
5.62659
1.36306
5.62659
2.58636
0.1222
-2.58636
0.215107
4.62578
-4.62578
1.42338
0.947879
1.42338
-1.19154
1.19154
1.12337
-0.073527
-1.12337
-0.13059
1.38601
0.0243318
1.38601
-1.40975
-0.000595755
-1.40975
7.31102
-13.2122
-7.78657
3.22526
0.191157
-3.22526
0.141473
3.56353
-0.0867385
3.56353
-3.30971
3.30971
-3.61098
0.134185
-3.61098
-0.682537
-0.0749972
-0.682537
0.842501
-0.0849668
0.842501
-4.57285
0.248639
-4.57285
-3.68559
0.44008
3.68559
0.336258
1.25122
-1.25122
-1.43681
0.107793
-1.43681
-4.6567
0.0838491
4.6567
0.019592
-4.77068
0.0943936
-4.77068
-3.71252
0.101539
3.71252
0.21558
4.58935
1.03724
-4.58935
0.66125
-5.36948
11.5762
-5.88338
11.4262
-3.52403
-0.384784
-3.52403
4.10096
-0.192145
4.10096
2.5654
0.338332
-2.5654
0.275589
2.49981
-0.126188
2.49981
-3.95362
-0.0556487
-3.95362
3.81115
0.198114
3.81115
2.53964
-0.0398328
-2.53964
-0.0650173
2.89179
0.0239313
2.89179
3.67227
-0.00594915
3.67227
-3.53937
-0.126956
-3.53937
3.179
-3.179
3.08064
0.0983571
-3.08064
0.164357
-5.07402
5.07343
-0.00799943
-5.06602
1.01814
1.01814
0.769224
-0.0389389
0.769224
-0.861793
0.106901
-0.861793
8.33523
-16.1218
8.79513
-17.3873
7.53517
-21.5661
8.0971
-17.0807
3.82966
-3.82966
3.76203
0.0676298
-3.76203
0.219455
-1.45618
-0.0181863
-1.45618
-2.29201
-0.237971
-2.29201
2.8634
-0.33342
2.8634
-3.7421
3.7421
-4.12478
0.382681
4.12478
0.681567
2.95452
-0.0627248
-2.95452
-0.0130678
0.924272
0.151712
-0.924272
0.118588
4.86293
-0.237152
4.86293
-4.08494
-0.540836
-4.08494
-1.47505
0.0188703
1.47505
-0.0516772
-1.25895
0.0674061
-1.25895
-5.0745
0.00847757
-5.0387
-1.40127
-1.40127
1.30414
4.9962
-3.58562
0.0462501
3.58562
-0.0220896
3.52706
0.215037
-3.52706
0.217354
-3.2633
0.0843012
3.2633
0.0464083
-0.660029
-0.0225084
-0.660029
-1.03546
1.03546
-0.918193
-0.11727
0.918193
-0.0756915
1.40693
-0.155709
1.40693
1.47074
0.0218065
-1.47074
0.0339337
-5.01014
0.239458
-5.01014
4.1115
-0.0105414
4.1115
-3.94889
-0.136058
3.94889
-0.276611
-0.00372291
5.07715
-1.01441
-0.000120212
1.01441
-5.10148
5.10136
-0.665399
0.00536986
0.665399
0.103825
1.02967
0.161874
-1.02967
0.167873
3.85232
-0.0411632
-3.85232
0.0226548
-2.01015
-0.281859
-2.01015
-3.19199
-0.332042
3.19199
-0.328589
-5.11518
-0.0779376
5.19312
-5.13676
1.33688
0.0491259
-1.33688
5.15049
-1.14454
-0.106681
1.14454
-0.109078
1.60565
-0.19872
1.60565
5.12001
-0.257081
-5.12001
0.109871
-4.12853
0.174907
4.12853
-0.0170243
-1.77734
-0.232809
1.77734
-0.171691
-13.1281
14.4911
7.70865
-6.27892
-6.93324
-11.9347
4.4471
7.12912
14.618
-11.8018
-9.76427
-11.6604
2.86006
-2.69219
-3.72789
3.6908
23.5876
-23.4932
-18.3992
19.0808
20.777
-20.5614
5.70885
5.71351
15.8192
-15.902
-20.9384
20.5536
15.3629
-15.5732
22.0878
-22.1434
-25.8421
25.8009
-16.0932
16.1492
-20.2941
20.1672
-21.0572
20.7806
-8.33131
-9.05601
16.5147
-16.3885
20.0004
-20.2824
-19.3539
19.6957
10.0475
4.44359
11.0848
-6.24673
11.9556
-5.22605
12.9347
8.31062
-16.6419
7.81117
-14.7444
9.05317
10.9472
-8.88561
-3.04905
-17.9699
17.8831
-17.257
17.3035
24.1113
-24.0253
-6.17283
11.8863
-5.25335
12.3825
-11.409
-6.9902
10.0873
4.53073
8.9841
7.53058
-9.17526
-2.48511
-24.797
24.5399
-25.6589
25.1181
0.10013
2.42596
-2.52609
1.35409
-0.862627
3.28859
1.99744
2.10434
2.45271
-2.29084
0.23948
-2.76557
-2.89616
-5.34165
5.44945
5.15854
-5.04679
16.5419
7.04565
16.5615
-16.7472
-6.746
-16.5077
11.3637
7.71706
11.7464
12.0617
8.71535
12.1632
10.359
-10.3317
-0.0273214
-11.4776
21.8367
1.55465
-18.4678
-13.9371
8.82607
6.99317
8.82505
-9.87129
-6.03074
-9.5957
-11.0361
-9.90226
-11.3682
12.3464
8.20717
12.1543
-15.3462
15.3291
9.26192
6.10096
9.16115
-8.94641
-6.62676
-9.01143
27.4903
-6.67127
-20.8191
-13.2038
-12.6383
13.0057
9.08211
14.3539
11.447
14.3766
8.91498
18.5754
-17.9971
5.35881
-9.9472
-6.14599
-9.78284
9.25835
6.89087
9.41004
-11.7667
-8.52746
-11.7204
-11.9867
-9.07047
11.9927
8.1745
-12.534
-13.1249
12.6701
8.11054
7.85137
-17.6156
9.2293
-18.2853
-10.9685
-5.42007
-10.749
10.7987
6.66324
-17.462
-5.84319
23.6367
-12.6894
20.5876
-10.8962
-9.38621
-10.9093
-14.7843
-4.56953
-14.3443
-8.00173
7.71987
-8.83759
8.50417
26.8924
-16.2326
-10.6598
-12.3784
-8.18308
11.7171
-0.632336
-12.8358
12.8084
-0.88019
12.0545
16.4981
15.8658
-10.8803
-6.37679
-10.6629
10.2703
7.0332
10.3546
16.0918
8.01953
16.3082
-16.8099
-7.21538
-16.5613
4.84383
-4.91882
5.71413
-5.69526
15.5785
9.53957
-15.3414
-9.45566
22.9315
-10.7753
-12.1562
-5.11986
5.21498
-0.0951237
-1.83127
-0.477177
0.266737
-1.9311
-1.79679
1.8694
0.234935
5.44991
3.65312
-2.41437
2.48177
2.77875
2.70523
-0.190939
2.49987
-2.4945
18.9082
-11.437
-7.47114
13.9651
-13.8813
-2.5962
-19.3244
16.7282
2.68026
3.00439
-2.94262
-3.94916
-1.39249
-3.91522
2.95287
2.20566
3.10458
2.10753
3.34192
-8.10544
1.56358
6.54185
-5.99791
-3.48321
-13.3467
-6.26915
19.6159
16.6769
7.86299
-16.7868
0.279094
5.29382
-5.33
-1.5971
-11.7496
8.35084
-9.94794
-15.2185
-6.46035
21.6789
-9.58079
-1.08211
9.36576
2.38064
-10.8773
-7.0926
10.7431
1.42013
-12.0645
23.9708
-11.9063
-18.4413
8.51579
13.3209
16.2328
-17.8628
9.31886
8.54391
-4.54189
7.41427
1.41079
7.28808
-19.9035
13.8728
11.3022
8.39351
-11.6405
2.04479
-17.8587
25.1642
-22.2839
-2.88037
12.8132
12.351
13.566
13.3264
-7.79515
21.3611
-3.62107
-18.6628
21.4798
-13.0863
15.784
-28.8703
-29.1104
10.4476
-17.9749
22.094
-4.11907
-5.21283
-10.1333
23.1878
-2.0104
-21.1773
10.1439
-13.9241
-11.8355
25.7596
-20.5953
18.4623
-6.26288
-12.1994
-12.6902
-9.45319
12.5153
2.81382
-25.8652
31.224
-7.28985
7.79784
1.36331
7.82177
10.61
-15.9745
5.36444
9.98532
-16.2482
6.76038
-22.7348
-12.1685
24.1923
-12.0237
-17.5886
-15.8093
-1.77928
4.8686
26.3554
-16.3156
12.1141
4.20148
8.46185
1.89271
-8.5602
-1.22264
0.968228
16.0869
-17.0551
10.3783
10.5005
11.7051
4.38179
10.7702
7.11296
-10.7481
-0.972353
-14.7926
5.72212
-6.6181
-14.5738
20.2959
-16.2678
1.69399
-10.3032
-13.9908
24.294
-16.4492
11.4256
12.5452
18.4588
-19.615
5.62421
-9.74644
-9.86855
10.6436
-17.2617
7.49805
12.7979
15.6086
2.48368
12.7566
11.4356
-19.4198
1.13452
18.9662
-16.4811
3.89809
10.4785
-16.0122
0.202899
-10.5461
2.65147
-15.3409
-14.8105
16.5262
-21.0957
-12.3441
13.5525
2.75565
-13.8888
-0.455507
-4.96088
-3.04085
-5.19369
-3.28374
-5.55385
-11.0789
-1.92805
-9.15084
5.79182
-6.69952
-4.66865
7.02811
1.47606
-4.94008
4.83339
-5.58661
5.38789
-0.210175
13.0186
15.6556
7.47251
-8.47673
15.9492
-15.602
23.6215
-29.7237
14.1217
15.9505
-23.1659
-13.7732
2.7028
2.14103
2.61783
13.4598
-14.4224
0.962611
-13.2878
17.6147
-4.32688
-19.5962
6.30837
-6.13639
5.18726
0.526874
5.16907
1.41658
6.84635
-8.26294
-4.27868
-4.33035
-9.16282
-13.8593
23.0221
4.73637
-13.1054
8.36907
-12.0635
16.7999
0.079147
-13.1846
16.9859
-10.1396
17.5128
-11.9844
5.52843
12.7919
22.3474
-9.55553
16.2477
-6.70817
7.0672
-16.6227
-6.79208
-11.2885
18.1794
-13.0054
14.6994
-1.12431
15.8237
-13.7778
3.00256
-2.07272
8.42775
8.64286
16.8088
-12.427
11.9701
-18.6783
-4.65263
-16.1946
-3.3967
1.02275
-13.8309
12.8082
12.0525
-11.0297
-3.24346
8.98951
-5.74605
5.68492
-2.84935
-2.83557
-1.84735
-3.07147
1.86986
0.630012
6.31493
0.489556
-3.3389
-2.00495
-1.90112
10.3764
8.5318
-3.83326
3.73814
3.56653
-0.562134
0.958972
2.14561
4.58882
-3.62985
0.678425
3.9104
-2.2642
3.82837
1.46545
-3.85018
-0.0650468
-3.40846
11.7593
3.1334
-5.33906
1.70921
2.38061
-13.8176
19.7425
-11.4174
-8.32508
22.1231
3.06136
-14.4788
16.2631
-13.5828
8.10204
-14.3712
-6.37671
-19.9595
-12.9139
-10.7102
19.0793
-12.3119
20.1749
3.86079
-20.4539
24.3147
-12.7408
6.28044
-9.4446
10.9101
-4.0591
-5.3855
11.267
10.4119
-11.0541
-0.695531
0.212908
8.42104
-8.20814
-1.5269
-7.52481
-16.4089
17.829
-8.25572
17.5746
7.69351
-7.63399
25.2086
6.56499
-14.199
-11.8763
-12.9584
-5.65507
10.5778
-1.79447
-7.21696
-13.9939
7.25679
0.0312902
-19.0497
22.0396
-2.98991
-12.0565
-1.81623
14.6294
-18.0836
1.83536
-11.3232
10.7164
12.1272
12.1585
-20.8647
-0.312598
-12.6576
3.17597
-15.8335
15.527
-6.80585
17.2535
-16.0313
11.3627
-14.5553
14.3731
-1.46044
14.7544
-9.38998
6.06465
-15.5178
-12.704
14.4562
-8.35522
15.8195
-10.1145
25.934
-17.4044
14.398
11.536
-2.71593
-8.19337
-13.9637
11.2478
0.434324
8.25609
17.8372
-10.7243
16.8649
8.92429
-18.6707
-8.33741
-25.8597
7.18892
-13.3144
-7.35654
14.5455
11.1022
12.9949
4.6769
-11.7723
17.7953
-19.5746
-5.77158
-9.03892
14.5737
-3.32589
10.1535
-19.1924
-5.18744
13.1114
-0.185146
-12.9262
3.12125
-15.4653
5.12383
-20.5892
15.9719
-16.4274
1.77148
-7.90788
-3.16859
-3.27767
-2.17479
-3.41182
-7.57424
5.39945
-1.26586
3.56753
-12.5306
12.3455
-5.08403
10.4835
-4.06263
-1.13106
4.23432
1.15358
11.6371
3.02888
-16.8021
-9.25973
14.6296
-5.36986
1.11665
-10.8021
3.82754
8.09742
14.0257
-24.8256
1.65979
-15.1423
-4.07282
6.21385
4.91669
16.9692
2.54682
6.55633
-0.342481
9.10316
2.27535
2.19966
-11.2247
12.1873
1.5835
15.7052
-1.88307
7.41149
3.28601
3.30401
2.02599
5.72281
2.92005
8.72537
0.462429
-3.86793
2.06834
-3.96946
-1.27056
-4.0084
-0.317602
3.72612
-4.04372
10.5
-1.96819
5.13012
-1.8836
-4.9352
6.8188
-9.35474
-5.49734
-1.58694
-5.60834
7.31755
6.15095
-5.73061
-3.62413
2.39245
-15.3063
11.9787
-12.6743
-2.26241
22.0523
-9.46304
1.25491
-3.18261
-6.2699
-7.6624
7.72744
24.1899
1.01865
12.2837
18.8476
11.755
1.03078
11.9877
-16.1068
-10.7471
-16.4194
-0.892426
13.737
5.62426
20.7312
17.1602
13.8344
-5.35802
-24.9326
20.7309
-8.54362
16.404
-3.4778
-17.1114
14.6402
8.98136
-17.3958
0.968425
-16.1429
-24.6866
-0.341437
12.6869
-11.2956
10.1646
7.12371
2.02713
-2.42732
-0.850352
2.54459
-0.344928
8.75823
-0.188312
-8.19816
8.38647
-3.53781
2.26724
-0.430653
4.16879
6.38815
4.41996
-3.7782
-7.82192
-8.81936
-4.99829
-17.1444
2.47146
-8.62242
5.68358
-3.41633
2.84801
4.97014
10.1003
-1.60129
-9.42846
7.34735
-4.49934
5.60092
)
;

boundaryField
{
    wall-4
    {
        type            calculated;
        value           uniform 0;
    }
    velocity-inlet-5
    {
        type            calculated;
        value           uniform -11.2529;
    }
    velocity-inlet-6
    {
        type            calculated;
        value           uniform -1.87548;
    }
    pressure-outlet-7
    {
        type            calculated;
        value           nonuniform List<scalar> 8(4.1813 4.99292 10.7928 12.1218 17.5758 15.0976 17.1304 15.6323);
    }
    wall-8
    {
        type            calculated;
        value           uniform 0;
    }
    frontAndBackPlanes
    {
        type            empty;
        value           nonuniform List<scalar> 0();
    }
}


// ************************************************************************* //
