/*--------------------------------*- C++ -*----------------------------------*\
  =========                 |
  \\      /  F ield         | OpenFOAM: The Open Source CFD Toolbox
   \\    /   O peration     | Website:  https://openfoam.org
    \\  /    A nd           | Version:  9
     \\/     M anipulation  |
\*---------------------------------------------------------------------------*/
FoamFile
{
    format      ascii;
    class       volScalarField;
    location    "3.67";
    object      alpha.water;
}
// * * * * * * * * * * * * * * * * * * * * * * * * * * * * * * * * * * * * * //

dimensions      [0 0 0 0 0 0 0];

internalField   nonuniform List<scalar> 
2268
(
1
1
0.999999
1
0.999999
1
1
1
0.999999
0.999999
1
1
1
1
1
1
1
1
0.990692
0.996931
0.99749
0.993843
0.993843
0.999999
0.999999
0.999998
0.999999
0.999999
0.999999
0.999999
0.999999
0.999999
1
1
1
1
1
1
1
1
0.998385
0.980374
0.984622
0.998888
0.999844
0.997175
0.999999
0.999999
0.999998
0.999999
0.999999
1
1
1
1
1
1
1
1
1
1
1
1
0.985338
0.979695
0.979686
0.98943
0.999964
0.999979
0.999999
0.999999
0.999999
1
1
1
1
1
1
1
1
1
1
1
1
1
1
0.993093
0.979686
0.979686
0.987069
0.999897
0.999979
0.999999
0.999999
0.999999
1
1
1
1
1
1
1
1
1
1
1
1
0.999998
1
1
0.987182
0.980808
0.994486
0.999982
0.999947
0.999999
1
0.999999
1
1
1
1
1
1
1
1
1
1
1
1
1
1
1
0.999653
0.998197
0.999853
0.999994
0.999947
0.999999
1
1
1
1
1
1
1
1
1
1
1
1
1
1
1
1
1
1
1
1
1
0.999948
0.999999
1
0.999999
1
1
1
1
1
1
1
1
1
1
1
1
1
1
1
1
1
1
1
0.999983
0.989723
0.989723
0.989728
0.989811
0.990818
0.990733
0.990733
0.995824
0.998538
0.995208
0.994684
0.981563
0.960394
0.960391
0.972414
0.968157
0.960167
0.960166
0.960166
0.989723
0.996781
0.997797
0.998579
0.999821
0.999536
0.99905
0.999144
0.999144
0.995353
0.990642
0.965426
0.960391
0.963748
0.998331
0.998331
0.985975
0.963178
0.968281
0.997587
0.999954
0.999954
0.999953
0.999807
0.999903
0.999899
0.998336
0.995861
0.996479
0.979445
0.960409
0.960394
0.978402
0.998332
0.998331
0.966019
0.9759
0.975922
0.999713
0.999859
0.999954
0.99994
0.999858
0.999951
0.999619
0.995489
0.995437
0.996728
0.978821
0.960418
0.962275
0.996748
0.998333
0.997857
0.965983
0.975805
0.975922
0.99963
0.999712
0.999954
0.999954
0.999954
0.999954
0.999782
0.996826
0.995436
0.99884
0.993088
0.972998
0.973356
0.998335
0.998334
0.998319
0.988385
0.942471
0.974863
0.99963
0.999943
0.999955
0.999949
0.999896
0.999851
0.999934
0.999719
0.999396
0.999858
0.999574
0.99812
0.998336
0.998335
0.998335
0.998334
0.998325
0.942471
0.97484
0.999887
0.999942
0.999962
0.999964
0.999672
0.99946
0.999934
0.999934
0.999934
0.999462
0.997452
0.997614
0.998336
0.998335
0.998335
0.998334
0.996348
0.945893
0.974817
0.999972
0.999965
0.999969
0.999969
0.999969
0.999633
0.997896
0.999934
0.99788
0.990197
0.990173
0.996037
0.998336
0.998335
0.998336
0.998334
0.998331
0.977971
0.957637
0.999999
0.999999
0.999999
0.999999
0.999999
0.999999
0.999999
0.999999
0.999998
0.999997
0.999996
0.999998
1
1
1
1
1
1
1
1
1
1
1
0.877941
0.880866
0.884666
0.88873
0.895116
0.903583
0.912689
0.922897
0.933668
0.943462
0.951719
0.959767
0.968494
0.978232
0.987645
0.99655
1
1
1
1
1
1
1
0.145575
0.149466
0.154531
0.161918
0.169329
0.178517
0.18967
0.202912
0.218006
0.236544
0.258552
0.282899
0.308478
0.334568
0.361592
0.39073
0.423666
0.457423
0.486379
0.509401
0.531901
0.55524
0.577939
0.000964256
0.00096171
0.000960235
0.000960257
0.000960235
0.000963249
0.000968073
0.000970893
0.000972313
0.000976568
0.000982984
0.000987011
0.000992265
0.00108083
0.00133172
0.0018112
0.00266015
0.00421913
0.00710292
0.0102089
0.0109583
0.0122028
0.0156319
0.00171986
0.00222472
0.00184642
0.00100672
0.00341954
0.00344997
0.00289513
0.00290504
0.00603499
0.00738977
0.00739019
0.00738977
0.00727297
0.00716683
0.00660928
0.00301316
0.00261944
0.00261944
0.00438293
0.00763976
0.00528828
0.00128287
0.000361883
0.00224105
0.00262924
0.00262918
0.00142368
0.00142437
0.00318297
0.00402174
0.00402174
0.00370835
0.00367728
0.00426781
0.00486257
0.00521151
0.005708
0.00617402
0.00617549
0.00617523
0.00617455
0.00406949
0.0021342
0.00207632
0.000410571
0.000323521
0.00171571
0.00149888
0.00175548
0.00197121
0.00180042
0.000551926
0.000556929
0.000803689
0.000210796
4.60522e-09
3.43827e-09
3.43173e-09
3.44586e-09
3.63914e-09
3.98582e-09
0.000363006
0.000452867
0.000362178
0.000784574
0.000417507
0.000322649
0.000320125
0.000322153
1.27998e-05
3.9466e-09
3.95448e-09
0.000399021
0.000427843
0.000510398
0.000144209
3.45963e-10
5.91567e-10
3.46082e-09
3.43173e-09
3.43195e-09
6.19344e-07
3.185e-06
6.35718e-07
1.6089e-05
8.24012e-05
0.000182023
0.000603929
0.000603521
0.000320114
0.000319377
0.000851847
4.94755e-09
2.51769e-08
4.87113e-09
3.46953e-10
3.4587e-10
3.4587e-10
3.4587e-10
3.45869e-10
3.45963e-10
3.54753e-10
3.53463e-07
6.09747e-07
7.52501e-06
7.61007e-06
9.21465e-07
6.6576e-07
1.01508e-05
5.09409e-05
0.000367844
0.000602938
0.000602325
0.000317148
0.00051314
1.65499e-08
2.91797e-07
1.70288e-07
3.77804e-09
6.73489e-10
3.4587e-10
3.45869e-10
1.00433e-09
1.04494e-07
1.42421e-06
2.87129e-06
2.28585e-06
7.37281e-08
4.40327e-07
9.74534e-08
4.72473e-10
5.15208e-10
6.31972e-08
2.05449e-05
0.00015324
0.000212151
0.000150959
5.59298e-06
1.01965e-08
2.89272e-07
2.45164e-07
6.52496e-09
2.05986e-09
3.45873e-10
3.57087e-10
6.99935e-08
2.1119e-06
2.93581e-06
2.8716e-06
3.86886e-07
1.23659e-08
1.22394e-08
7.97323e-09
4.89071e-11
4.92509e-11
9.91845e-10
7.82323e-08
5.42885e-07
1.65435e-06
2.43055e-06
5.46051e-08
3.94974e-09
3.49433e-08
9.02242e-10
7.73522e-09
2.46883e-09
5.99651e-10
3.7766e-09
2.49796e-07
1.36939e-06
1.26889e-06
7.03751e-08
3.87926e-09
3.09835e-08
1.92508e-08
4.89071e-11
4.89071e-11
4.89071e-11
4.92507e-11
4.64321e-08
1.93346e-06
4.49299e-06
4.72853e-06
3.79625e-06
2.51613e-09
1.01751e-09
9.07479e-10
8.03451e-11
2.87501e-10
4.80986e-09
1.48945e-08
1.31136e-08
8.8437e-10
2.41347e-10
1.67239e-10
5.6016e-10
2.44924e-09
1.54058e-09
4.89275e-11
4.89071e-11
4.89275e-11
6.09478e-11
7.36414e-07
6.65135e-06
6.82752e-06
6.82976e-06
6.82752e-06
2.81385e-08
1.27128e-07
6.14884e-08
7.2821e-11
4.80753e-10
2.15502e-09
3.6607e-09
3.84664e-09
3.6316e-09
1.37996e-09
1.29822e-10
4.80889e-11
5.18706e-11
5.85484e-11
7.00079e-11
1.23977e-10
1.57155e-10
2.99483e-10
6.33824e-08
1.75943e-06
6.24332e-06
6.82877e-06
6.4925e-06
7.96306e-08
3.42468e-07
1.28776e-07
7.14499e-11
4.91187e-10
1.16961e-09
1.45199e-09
1.55764e-09
1.24372e-09
3.71127e-10
5.83268e-11
1.41021e-11
7.3241e-12
6.83223e-12
1.59253e-11
3.3694e-11
4.64696e-11
4.65241e-11
4.78226e-11
2.29433e-08
8.30792e-07
2.17282e-06
8.20164e-07
1.29786e-07
3.42596e-07
1.68719e-07
7.07449e-11
3.03663e-10
4.99165e-10
4.53176e-10
2.40929e-10
1.02017e-10
2.79342e-11
4.30202e-12
0
-2.96584e-13
-1.77966e-13
1.57663e-13
3.3798e-12
2.36708e-11
5.70424e-11
8.93205e-11
2.8023e-10
8.28337e-10
1.32868e-10
9.79096e-11
1.49557e-07
3.42637e-07
2.18726e-07
7.05996e-11
9.43017e-11
1.62229e-10
1.0461e-10
2.55106e-11
6.22351e-12
5.24817e-13
-8.52165e-13
-1.70494e-12
-1.99817e-12
-1.82959e-12
-1.24333e-12
-1.11435e-13
2.17998e-12
2.60719e-11
8.12719e-11
1.27312e-10
1.35057e-10
1.26041e-10
9.35707e-11
1.53799e-07
3.42637e-07
2.45536e-07
7.04924e-11
7.04174e-11
7.04848e-11
2.96938e-11
2.0349e-12
-2.84883e-13
-1.23034e-12
-2.00325e-12
-2.46116e-12
-2.61136e-12
-2.46095e-12
-2.07015e-12
-1.46765e-12
-5.86131e-13
7.75181e-13
1.09117e-11
3.51539e-11
5.54601e-11
6.50924e-11
5.79939e-11
1.27837e-07
3.42637e-07
2.06893e-07
7.05996e-11
9.59581e-11
1.24847e-10
1.57607e-11
1.20873e-12
-4.39904e-13
-1.3862e-12
-1.93683e-12
-2.26597e-12
-2.38557e-12
-2.3067e-12
-2.07587e-12
-1.74764e-12
-1.35549e-12
-8.78359e-13
-1.48163e-13
5.20782e-13
2.52098e-12
5.39828e-12
7.17443e-12
5.15982e-08
2.08594e-07
6.27403e-08
7.07449e-11
3.37862e-10
2.89357e-10
3.05476e-11
2.57572e-12
3.19104e-13
-6.55354e-13
-1.12309e-12
-1.45736e-12
-1.65399e-12
-1.70092e-12
-1.61136e-12
-1.4269e-12
-1.19446e-12
-9.50633e-13
-7.13566e-13
-4.83079e-13
-2.26761e-13
6.69693e-15
5.07608e-14
8.25435e-10
2.36245e-09
1.37976e-10
3.98306e-10
5.3422e-10
3.64847e-10
4.26116e-11
8.25731e-12
3.96707e-12
8.42303e-13
-7.60855e-14
-4.46767e-13
-7.70822e-13
-9.67983e-13
-1.0174e-12
-9.58948e-13
-8.38045e-13
-6.92342e-13
-5.48098e-13
-4.1855e-13
-3.07126e-13
-2.1004e-13
-1.29392e-13
1.232e-10
5.85458e-11
1.0763e-10
4.31734e-10
5.3422e-10
2.87348e-10
5.13882e-11
2.12657e-11
1.42589e-11
7.62587e-12
2.99146e-12
5.81588e-13
-1.13428e-13
-3.5979e-13
-5.06105e-13
-5.37614e-13
-5.01207e-13
-4.2885e-13
-3.46424e-13
-2.6977e-13
-2.05018e-13
-1.51829e-13
-1.06512e-13
1.62748e-10
5.84948e-11
6.3241e-11
2.52388e-10
3.32736e-10
1.53127e-10
5.37086e-11
3.66168e-11
2.81029e-11
1.96902e-11
1.04412e-11
3.83051e-12
7.59866e-13
-3.28925e-14
-1.82921e-13
-2.4763e-13
-2.57648e-13
-2.31774e-13
-1.91363e-13
-1.49707e-13
-1.13462e-13
-8.4994e-14
-6.26292e-14
9.80937e-10
5.85089e-11
5.84948e-11
6.43198e-11
9.0788e-11
6.73051e-11
5.31486e-11
4.82742e-11
3.95657e-11
3.08611e-11
1.91132e-11
8.64928e-12
2.42899e-12
2.96088e-13
-3.90688e-14
-9.32584e-14
-1.16029e-13
-1.11384e-13
-9.40574e-14
-7.36445e-14
-5.51444e-14
-4.05403e-14
-2.99119e-14
4.27673e-09
1.62007e-08
7.94356e-09
5.28775e-11
5.27884e-11
5.27659e-11
5.35212e-11
5.48603e-11
4.79824e-11
3.87866e-11
2.62779e-11
1.31944e-11
4.05222e-12
5.7506e-13
3.26763e-15
-2.93707e-14
-4.78457e-14
-4.90911e-14
-4.21434e-14
-3.27467e-14
-2.39553e-14
-1.70079e-14
-1.2217e-14
5.39652e-09
2.08251e-07
7.95012e-07
4.54385e-07
1.4749e-09
5.25585e-11
5.26005e-11
5.72705e-11
5.32296e-11
4.37111e-11
3.05566e-11
1.55603e-11
4.49566e-12
5.11595e-13
8.24377e-15
-9.52256e-15
-1.90781e-14
-2.03814e-14
-1.75449e-14
-1.33943e-14
-9.48071e-15
-6.41236e-15
-4.33499e-15
4.45616e-09
2.6542e-07
8.51382e-07
8.51462e-07
1.59485e-07
5.25588e-11
5.25585e-11
5.72955e-11
5.46265e-11
4.51491e-11
3.0951e-11
1.44865e-11
3.39871e-12
2.66526e-13
2.71541e-15
-3.80319e-15
-7.46802e-15
-8.02179e-15
-6.83779e-15
-5.09144e-15
-3.46473e-15
-2.21818e-15
-1.37906e-15
3.53325e-09
1.59201e-07
8.51462e-07
8.51462e-07
2.44338e-07
1.05394e-10
5.25587e-11
5.68733e-11
5.32641e-11
4.31446e-11
2.75041e-11
1.07976e-11
1.79692e-12
8.10553e-14
3.26205e-16
-1.7178e-15
-2.92352e-15
-3.02752e-15
-2.50262e-15
-1.79844e-15
-1.17053e-15
-7.08032e-16
-4.05964e-16
3.53321e-09
1.457e-08
7.8158e-07
7.00292e-07
1.31928e-07
1.79464e-10
5.2559e-11
5.48155e-11
4.87361e-11
3.69297e-11
2.04748e-11
6.0509e-12
6.13958e-13
1.32941e-14
2.60654e-19
-7.49508e-16
-1.12283e-15
-1.09177e-15
-8.60697e-16
-5.91431e-16
-3.67116e-16
-2.10649e-16
-1.13751e-16
3.53325e-09
3.53325e-09
9.42515e-08
4.88273e-08
6.96606e-09
1.6177e-10
5.96106e-11
5.04702e-11
4.12637e-11
2.78314e-11
1.20991e-11
2.27209e-12
1.14265e-13
8.54559e-16
-3.7214e-17
-3.39994e-16
-4.20869e-16
-3.75915e-16
-2.78898e-16
-1.81308e-16
-1.06352e-16
-5.7398e-17
-2.89301e-17
3.54479e-09
3.53659e-09
1.01463e-09
1.76279e-10
7.05069e-11
7.04642e-11
5.31639e-11
4.28689e-11
3.17165e-11
1.72991e-11
4.94155e-12
4.61401e-13
8.63846e-15
1.62273e-17
-8.01233e-17
-1.43432e-16
-1.5031e-16
-1.22249e-16
-8.41431e-17
-5.10511e-17
-2.79716e-17
-1.4073e-17
-6.58492e-18
3.00361e-09
3.41575e-09
1.30192e-09
3.41893e-10
8.57163e-11
4.87581e-11
4.06843e-11
3.19201e-11
1.99225e-11
7.43527e-12
1.08106e-12
3.7432e-14
1.80951e-16
9.95396e-21
-4.22725e-17
-5.53887e-17
-5.0127e-17
-3.6835e-17
-2.32561e-17
-1.3011e-17
-6.58166e-18
-3.05441e-18
-1.31528e-18
1.3807e-09
2.28665e-09
1.28817e-09
4.19639e-10
9.91699e-11
4.22406e-11
2.92045e-11
1.89837e-11
8.32436e-12
1.63756e-12
8.91206e-14
8.7473e-16
9.43852e-19
-1.07544e-17
-1.86851e-17
-1.92321e-17
-1.52449e-17
-1.00796e-17
-5.7823e-18
-2.94969e-18
-1.36124e-18
-5.75711e-19
-2.25493e-19
2.15809e-10
6.32273e-10
5.75786e-10
2.68814e-10
7.67053e-11
2.94664e-11
1.59277e-11
7.16369e-12
1.68618e-12
1.26842e-13
1.96865e-15
4.10937e-18
-1.4502e-18
-5.68474e-18
-6.87233e-18
-5.95441e-18
-4.1576e-18
-2.45921e-18
-1.26962e-18
-5.83843e-19
-2.42725e-19
-9.23014e-20
-3.24236e-20
9.22537e-12
4.2219e-11
6.79296e-11
5.22798e-11
2.48542e-11
1.11413e-11
4.74527e-12
1.22526e-12
1.15552e-13
2.54152e-15
1.0443e-17
4.97037e-21
-1.49347e-18
-2.27391e-18
-2.19269e-18
-1.63319e-18
-1.00269e-18
-5.26237e-19
-2.41867e-19
-9.9019e-20
-3.65693e-20
-1.23122e-20
-3.81499e-21
4.2552e-13
1.18288e-12
2.10434e-12
2.52496e-12
2.30334e-12
1.46955e-12
5.11199e-13
6.61267e-14
2.10711e-15
1.40336e-17
1.38568e-20
-3.22412e-19
-7.25477e-19
-7.80662e-19
-6.16529e-19
-3.94829e-19
-2.11507e-19
-9.74139e-20
-3.93497e-20
-1.41344e-20
-4.5613e-21
-1.33475e-21
-3.57509e-22
2.6366e-14
8.25724e-14
8.4306e-14
7.52908e-14
6.87025e-14
4.60947e-14
1.22477e-14
8.19864e-16
1.1343e-17
2.70767e-20
-4.27019e-20
-2.01709e-19
-2.80868e-19
-2.38679e-19
-1.53719e-19
-8.39511e-20
-3.87666e-20
-1.54453e-20
-5.39635e-21
-1.67038e-21
-4.6136e-22
-1.14618e-22
-2.5863e-23
4.94789e-16
3.21863e-15
2.84656e-15
1.82785e-15
8.57784e-16
3.16376e-16
5.47728e-17
2.77013e-18
3.07806e-20
2.37986e-23
-4.32536e-20
-8.82565e-20
-9.50489e-20
-6.64726e-20
-3.49511e-20
-1.58031e-20
-6.17366e-21
-2.08715e-21
-6.17587e-22
-1.60833e-22
-3.69652e-23
-7.55067e-24
-1.38612e-24
1.03194e-18
2.04908e-17
2.28972e-17
1.46791e-17
4.71611e-18
9.64441e-19
1.32943e-19
7.29668e-21
5.09608e-23
-6.77477e-21
-2.21121e-20
-3.26522e-20
-2.91639e-20
-1.73018e-20
-7.52367e-21
-2.71023e-21
-8.68846e-22
-2.41511e-22
-5.85644e-23
-1.23677e-23
-2.26561e-24
-3.62552e-25
-5.14417e-26
1.94391e-22
1.00363e-20
2.94702e-20
3.01434e-20
1.53868e-20
3.64274e-21
3.50237e-22
7.32119e-24
-8.90808e-22
-4.32385e-21
-9.01268e-21
-1.08219e-20
-8.30988e-21
-4.29317e-21
-1.57954e-21
-4.46729e-22
-1.11116e-22
-2.4091e-23
-4.5294e-24
-7.28151e-25
-9.86175e-26
-1.13857e-26
-1.14778e-27
-5.82241e-24
0
1.84778e-24
1.55477e-23
1.91537e-23
4.99542e-24
1.59243e-25
-1.87838e-22
-7.45673e-22
-1.97865e-21
-3.21655e-21
-3.30588e-21
-2.24356e-21
-1.0342e-21
-3.31149e-22
-7.62005e-23
-1.36563e-23
-2.11104e-24
-2.74571e-25
-2.92239e-26
-2.4734e-27
-1.72968e-28
-1.04461e-29
-3.90218e-25
-5.54702e-24
-1.58131e-24
0
-1.47895e-23
-4.60936e-23
-9.23458e-23
-1.82949e-22
-3.94499e-22
-7.63823e-22
-1.04044e-21
-9.47994e-22
-5.84885e-22
-2.47886e-22
-7.25054e-23
-1.45888e-23
-1.98484e-24
-1.85357e-25
-1.12888e-26
-4.38531e-28
-1.25123e-29
-2.97924e-31
-6.30126e-33
1
1
1
1
1
1
1
1
0.58827
0.588669
0.586327
0.582555
0.0183678
0.019227
0.0192581
0.0191042
0.000784774
0.00406463
0.00569932
0.00273864
0.00103576
0.00341775
0.00331905
0.00250541
0.00190484
0.00253146
0.000861905
0.00106084
0.00193367
0.00127129
7.40469e-05
3.37259e-06
0.000345222
7.61271e-05
1.95561e-05
3.28883e-06
5.95391e-08
4.9868e-08
3.69603e-06
3.29017e-06
4.81407e-08
4.65264e-08
3.63372e-08
7.30314e-07
1.02171e-06
3.63372e-08
3.632e-08
3.63379e-08
6.82144e-06
4.15147e-06
1.90348e-07
3.63761e-08
2.75223e-06
2.75184e-06
4.31359e-07
3.63875e-08
2.09956e-10
1.01119e-07
2.43968e-07
9.19802e-08
1.92165e-10
1.51751e-09
6.73415e-09
1.89456e-08
6.26481e-11
3.08103e-11
1.63609e-11
9.15905e-12
3.1226e-11
2.00923e-11
1.37967e-11
9.10282e-12
5.82442e-12
5.17611e-12
4.60482e-12
3.63557e-12
1.00345e-13
1.43041e-13
1.83442e-13
2.10845e-13
-6.54852e-14
-4.38139e-14
-2.61308e-14
-1.11221e-14
-6.55665e-14
-5.06406e-14
-3.9087e-14
-3.06318e-14
-4.19483e-14
-3.29832e-14
-2.55811e-14
-2.01218e-14
-2.12411e-14
-1.69324e-14
-1.31224e-14
-1.00062e-14
-9.00926e-15
-7.19142e-15
-5.58816e-15
-4.1354e-15
-3.26663e-15
-2.56621e-15
-1.99125e-15
-1.47488e-15
-1.04209e-15
-7.89155e-16
-5.94127e-16
-4.45084e-16
-3.00306e-16
-2.17302e-16
-1.55702e-16
-1.10996e-16
-8.00311e-17
-5.497e-17
-3.71506e-17
-2.48159e-17
-1.93419e-17
-1.2582e-17
-8.00528e-18
-4.99841e-18
-4.17239e-18
-2.56543e-18
-1.53619e-18
-8.97885e-19
-7.85126e-19
-4.53946e-19
-2.54918e-19
-1.39283e-19
-1.25617e-19
-6.76691e-20
-3.53341e-20
-1.79138e-20
-1.66486e-20
-8.25062e-21
-3.95529e-21
-1.83751e-21
-1.77762e-21
-7.97454e-22
-3.45246e-22
-1.44536e-22
-1.482e-22
-5.89597e-23
-2.25716e-23
-8.33442e-24
-9.29292e-24
-3.19189e-24
-1.05122e-24
-3.32878e-25
-4.16586e-25
-1.19117e-25
-3.25179e-26
-8.5026e-27
-1.2277e-26
-2.77381e-27
-5.95439e-28
-1.21862e-28
-2.00086e-28
-3.2892e-29
-5.11194e-30
-7.52807e-31
-1.12804e-30
-1.14781e-31
-1.09879e-32
-9.90213e-34
-2.51457e-34
-9.48943e-36
-3.33213e-37
-1.0838e-38
1
1
1
0.996906
0.980169
0.971335
0.957548
0.952888
0.968738
0.984702
0.997011
0.998212
0.998335
0.998336
0.998336
0.998333
0.998278
0.977433
0.94612
1
0.975253
0.954738
0.943417
0.941158
0.940163
0.927808
0.914332
0.909353
0.920058
0.927083
0.932195
0.93166
0.924433
0.919734
0.936391
0.947117
0.953757
0.944688
0.57331
0.570686
0.566961
0.562215
0.555834
0.547737
0.544261
0.535931
0.509383
0.465682
0.427387
0.396897
0.371653
0.350975
0.332594
0.315359
0.314562
0.330182
0.341911
0.0196857
0.0218713
0.0243103
0.0239879
0.0201376
0.0149538
0.00982168
0.00399076
0.00081229
0.000812019
0.000811831
0.000811755
0.000811753
0.000811753
0.000811753
0.000811753
0.000811753
0.000811759
0.000811767
0.0021738
0.000822781
0.000822653
0.000822624
0.00134066
0.00194409
0.00131475
0.00131543
0.00121012
0.00115018
0.00105245
0.000927582
0.000811755
0.000811753
0.000811753
0.000877913
0.000887684
0.000811767
0.000811773
0.00120017
0.000822655
0.000822628
0.000822629
0.00135582
0.00218144
0.00218137
0.00218149
0.00218137
0.00218102
0.00218047
0.00217966
0.00214065
0.00131391
0.00137736
0.00148608
0.00148608
0.00136699
0.000917916
0.00139378
0.00164937
0.00165343
0.00168367
0.00168367
0.00155422
0.00150781
0.0012586
0.00114947
0.000992235
0.00090435
0.000760627
0.000789617
0.000909363
0.000807516
0.000729642
0.000703029
0.000633278
0.000738764
0.000817895
0.000934598
0.000899361
0.000986628
0.000706281
8.82313e-05
6.26243e-07
6.2473e-07
6.26243e-07
6.28059e-07
6.30693e-07
6.33425e-07
6.42859e-07
6.80803e-07
1.1489e-06
1.09033e-06
1.09068e-06
0.000242922
0.000143786
2.69642e-05
8.89957e-06
7.37132e-06
1.2122e-08
1.21248e-08
1.21353e-08
1.10498e-06
6.23686e-07
1.881e-06
2.14329e-06
1.92546e-06
7.35132e-06
2.90352e-05
4.19611e-05
6.87956e-06
1.50581e-06
1.52382e-06
1.52453e-06
1.53023e-06
1.9096e-07
1.22451e-08
1.21212e-08
1.212e-08
1.2122e-08
1.21248e-08
1.52595e-08
2.10852e-08
8.88545e-07
9.75784e-07
1.79853e-05
7.15686e-05
7.27515e-05
7.15738e-05
1.01771e-05
1.50771e-06
1.52352e-06
1.52503e-06
1.53134e-06
6.69297e-08
1.21212e-08
1.212e-08
1.212e-08
1.212e-08
4.32084e-06
1.83547e-05
8.14667e-06
8.89491e-07
2.71492e-05
7.33233e-05
7.33393e-05
5.80259e-05
8.25322e-06
8.23671e-06
1.51369e-05
1.71003e-05
4.80587e-06
3.80481e-06
1.00417e-07
2.2613e-08
1.21212e-08
1.212e-08
7.9079e-06
2.26055e-05
2.26046e-05
2.10996e-05
1.00351e-05
5.90334e-05
7.33393e-05
5.17951e-05
2.0795e-06
8.58328e-06
3.67429e-05
4.57741e-05
4.57739e-05
4.29681e-05
3.67271e-05
7.84639e-08
1.38824e-08
1.21236e-08
1.25086e-08
1.15058e-05
2.26048e-05
2.26057e-05
1.52709e-05
6.62591e-06
2.86112e-05
2.90633e-05
2.42441e-06
2.3078e-06
3.91042e-05
4.58177e-05
4.58177e-05
3.48424e-05
3.20955e-05
3.67463e-05
6.5461e-08
1.21388e-08
1.21293e-08
1.12047e-07
4.7294e-06
1.32066e-05
1.1421e-05
1.15884e-06
5.4834e-08
5.33568e-08
2.1379e-10
2.30481e-10
1.69778e-06
3.43467e-05
4.58177e-05
1.89079e-05
3.63778e-10
5.5491e-10
2.14731e-05
4.98294e-08
3.23407e-08
1.26749e-07
1.39313e-07
8.20323e-08
7.5138e-08
1.29956e-08
1.6109e-10
1.5961e-10
1.59645e-10
2.06102e-10
2.1737e-10
1.38344e-06
8.61466e-06
7.27883e-06
1.6086e-10
1.65525e-10
9.96858e-07
2.75e-06
1.42657e-08
2.67532e-08
4.66744e-08
5.14606e-08
8.0931e-08
1.40677e-07
1.6109e-10
1.5961e-10
1.59547e-10
1.59552e-10
1.59649e-10
1.97083e-08
1.87837e-07
1.58633e-10
1.58633e-10
1.58638e-10
1.6086e-10
1.49345e-06
3.96748e-06
3.01869e-10
2.13725e-09
2.46985e-11
3.9807e-08
2.90416e-07
3.07023e-07
2.51523e-07
2.82843e-08
1.59552e-10
1.59536e-10
1.73225e-10
3.0362e-09
1.02591e-08
1.58633e-10
1.58633e-10
1.72053e-10
1.71748e-10
3.17711e-09
5.02047e-06
5.35921e-12
1.88798e-12
1.54374e-12
9.23047e-09
1.84866e-07
3.07001e-07
3.07023e-07
3.01965e-07
4.41142e-08
1.5954e-10
1.59538e-10
1.59415e-10
1.59124e-10
1.58967e-10
1.8632e-10
2.57917e-10
1.56112e-10
6.98985e-08
1.27217e-05
2.5065e-12
1.79542e-12
1.26466e-12
7.53179e-11
8.57583e-09
1.16229e-07
2.02529e-07
1.83747e-07
7.55753e-08
2.162e-08
5.88302e-08
4.48852e-08
8.25877e-09
3.72971e-10
2.59968e-10
2.94107e-10
1.03797e-10
5.33259e-08
1.70427e-05
2.89452e-13
4.14092e-13
3.5255e-13
2.15499e-14
7.25463e-12
1.84509e-10
3.24746e-09
2.73331e-09
1.21474e-08
6.33095e-08
9.50354e-08
9.50353e-08
5.75853e-08
1.96868e-09
2.59972e-10
2.88339e-10
1.03896e-10
3.59099e-12
1.70451e-05
5.9117e-16
8.91352e-15
1.25907e-14
3.54101e-16
1.10754e-17
3.98356e-14
6.64406e-15
1.39009e-13
3.30892e-12
1.45831e-08
5.23224e-08
7.13226e-08
2.98258e-08
2.01227e-09
2.60273e-10
2.16203e-10
3.93645e-11
3.55938e-12
1.67611e-05
-2.43745e-14
-1.26747e-14
-5.88352e-15
-2.7959e-15
0
0
3.70781e-15
1.37151e-13
8.90508e-13
8.98682e-13
3.98524e-10
1.78853e-12
1.9263e-12
1.08788e-10
1.63937e-10
9.02146e-11
1.3539e-11
3.55217e-12
1.6759e-05
-1.65939e-14
-1.02134e-14
-6.04008e-15
-3.41896e-15
-1.72984e-15
-7.15991e-16
1.62845e-16
1.65239e-14
2.53286e-13
1.55065e-12
1.49048e-12
1.78783e-12
5.41335e-12
1.24725e-11
1.55455e-11
1.63515e-11
7.11233e-12
3.54944e-12
1.67453e-05
-7.99696e-15
-5.09079e-15
-3.17372e-15
-1.93985e-15
-1.1567e-15
-6.51504e-16
-3.01124e-16
3.60773e-17
1.02276e-14
1.58606e-13
7.67422e-13
2.43634e-12
5.41911e-12
4.76449e-12
4.38133e-12
7.02841e-12
4.20859e-12
3.54904e-12
6.38442e-06
-3.02725e-15
-1.90878e-15
-1.1906e-15
-7.32122e-16
-4.42156e-16
-2.67678e-16
-1.56473e-16
-7.75415e-17
5.51801e-17
3.02976e-15
2.73511e-14
1.30427e-13
4.65599e-13
8.57584e-13
1.38068e-12
3.86031e-12
3.5623e-12
3.54904e-12
3.54904e-12
-9.5736e-16
-5.79449e-16
-3.43222e-16
-2.02523e-16
-1.19694e-16
-7.12209e-17
-4.1819e-17
-2.21726e-17
-4.22172e-18
1.10795e-16
9.94178e-16
5.29778e-15
2.37098e-14
9.23757e-14
4.28745e-13
2.76663e-12
3.66738e-12
3.59004e-12
3.56962e-12
-2.46395e-16
-1.42206e-16
-8.25807e-17
-4.76629e-17
-2.7255e-17
-1.54249e-17
-8.50032e-18
-3.90392e-18
5.41481e-19
2.66981e-17
1.96017e-16
1.26248e-15
7.94138e-15
4.29444e-14
3.01498e-13
2.65507e-12
6.02223e-12
3.58971e-12
3.59126e-12
-5.64095e-17
-2.98004e-17
-1.60242e-17
-8.67136e-18
-4.67018e-18
-2.43485e-18
-1.17874e-18
-2.65714e-19
2.10065e-18
1.93338e-17
1.35854e-16
8.93267e-16
5.91879e-15
3.40751e-14
2.75422e-13
3.79574e-12
1.11661e-11
3.59126e-12
1.57681e-06
-1.12166e-17
-5.21081e-18
-2.48106e-18
-1.1929e-18
-5.54588e-19
-9.62683e-20
3.3239e-20
4.80022e-19
2.69137e-18
1.73402e-17
1.19607e-16
7.94951e-16
5.36734e-15
3.15851e-14
2.82482e-13
5.80425e-12
1.65588e-11
3.59491e-12
1.33202e-05
-1.99589e-18
-8.00056e-19
-3.22501e-19
-1.06631e-19
-9.62965e-38
3.8946e-19
2.44557e-18
8.50128e-18
2.10168e-17
4.83054e-17
1.56197e-16
8.1142e-16
5.32837e-15
3.12961e-14
4.33241e-13
8.27027e-12
2.02076e-11
3.74336e-12
1.42106e-05
-3.19858e-19
-1.11521e-19
-3.46896e-20
2.11657e-20
6.52549e-19
4.81533e-18
2.37091e-17
8.83216e-17
2.50183e-16
5.54082e-16
1.09921e-15
2.67218e-15
1.02593e-14
4.98242e-14
7.00209e-13
1.07067e-11
2.13898e-11
3.71302e-12
1.42098e-05
-4.46645e-20
-1.37314e-20
-7.4834e-22
1.77432e-19
2.79997e-18
2.43618e-17
1.37667e-16
5.75269e-16
1.84087e-15
4.60674e-15
9.665e-15
1.97821e-14
4.82413e-14
1.42533e-13
1.04972e-12
1.19837e-11
2.13851e-11
3.71159e-12
1.38499e-05
-5.15661e-21
-1.35248e-21
7.17826e-21
3.95523e-19
8.38186e-18
9.33731e-17
6.31343e-16
2.97555e-15
1.06524e-14
2.95649e-14
7.00399e-14
1.50817e-13
3.08168e-13
5.91674e-13
1.64466e-12
1.08845e-11
2.00324e-11
3.70856e-12
1.38477e-05
-4.68894e-22
-7.18387e-23
9.40882e-21
6.74676e-19
1.90359e-17
2.75734e-16
2.31859e-15
1.2615e-14
5.21687e-14
1.67605e-13
4.40924e-13
9.51653e-13
1.68629e-12
2.56543e-12
3.59865e-12
1.02904e-11
1.46491e-11
3.7063e-12
1.3201e-05
-3.20997e-23
2.65764e-23
9.77353e-21
9.00402e-19
3.3685e-17
6.33547e-16
6.75548e-15
4.36732e-14
2.14172e-13
8.46511e-13
2.43184e-12
4.64254e-12
6.52898e-12
8.34535e-12
9.90625e-12
1.34934e-11
1.21467e-11
3.70856e-12
5.81374e-06
-1.57257e-24
1.367e-23
6.58693e-21
9.8372e-19
4.71391e-17
1.13554e-15
1.57075e-14
1.27287e-13
7.49038e-13
3.60859e-12
1.12103e-11
1.68247e-11
1.81605e-11
2.07276e-11
2.63247e-11
2.8934e-11
3.49058e-11
3.7063e-12
4.88187e-06
-5.13397e-26
6.73378e-24
2.89144e-21
7.29686e-19
5.30404e-17
1.56878e-15
2.92098e-14
3.23681e-13
2.29038e-12
1.21561e-11
3.87038e-11
4.52586e-11
4.2134e-11
4.85395e-11
7.54754e-11
3.27739e-10
3.18901e-10
3.72329e-12
6.28588e-06
-9.47981e-28
2.56491e-24
1.25127e-21
3.04155e-19
4.08648e-17
1.70962e-15
4.2218e-14
6.90975e-13
5.70387e-12
2.98501e-11
8.61354e-11
9.82222e-11
9.20972e-11
1.20384e-10
3.6485e-10
2.21866e-09
2.08626e-09
1.19283e-09
6.47678e-06
0
6.2101e-25
3.23299e-22
1.17961e-19
1.78068e-17
1.03854e-15
4.70574e-14
1.10353e-12
1.00057e-11
4.97177e-11
1.24779e-10
1.53761e-10
1.66199e-10
2.15824e-10
1.85551e-09
3.14883e-09
3.01364e-09
3.13361e-11
6.44589e-06
1.8962e-30
8.16475e-26
4.0583e-23
2.45087e-20
6.00865e-18
3.66152e-16
2.66486e-14
1.26496e-12
1.1988e-11
5.76998e-11
1.32085e-10
1.69787e-10
2.07797e-10
3.00309e-10
1.72294e-09
2.16145e-09
9.02302e-10
3.13361e-11
6.44538e-06
-3.67557e-35
4.29293e-30
7.06644e-25
2.0875e-21
7.36356e-19
6.31352e-17
5.0412e-15
6.11253e-13
6.60971e-12
3.06846e-11
6.72364e-11
1.02741e-10
1.39398e-10
7.00657e-16
2.97584e-09
3.70016e-08
1.91821e-08
3.13361e-11
6.44412e-06
-1.41053e-40
2.19554e-40
1.28655e-31
5.8757e-26
3.29792e-22
2.31287e-19
1.07401e-16
2.02839e-14
2.28994e-13
1.40442e-12
4.31334e-12
8.12511e-12
6.7852e-12
0
1.68028e-08
3.75282e-08
3.58859e-08
4.22107e-11
1.66263e-06
)
;

boundaryField
{
    leftWall
    {
        type            zeroGradient;
    }
    rightWall
    {
        type            zeroGradient;
    }
    lowerWall
    {
        type            zeroGradient;
    }
    atmosphere
    {
        type            inletOutlet;
        inletValue      uniform 0;
        value           nonuniform List<scalar> 
46
(
0
0
-1.58131e-24
0
-1.47895e-23
-4.60936e-23
-9.23458e-23
-1.82949e-22
-3.94499e-22
-7.63823e-22
-1.04044e-21
-9.47994e-22
-5.84885e-22
-2.47886e-22
-7.25054e-23
-1.45888e-23
-1.98484e-24
-1.85357e-25
0
0
0
0
0
0
0
0
0
0
0
0
0
0
0
0
0
0
0
0
0
0
0
0
0
0
4.22107e-11
1.66263e-06
)
;
    }
    defaultFaces
    {
        type            empty;
    }
}


// ************************************************************************* //
