/*--------------------------------*- C++ -*----------------------------------*\
  =========                 |
  \\      /  F ield         | OpenFOAM: The Open Source CFD Toolbox
   \\    /   O peration     | Website:  https://openfoam.org
    \\  /    A nd           | Version:  9
     \\/     M anipulation  |
\*---------------------------------------------------------------------------*/
FoamFile
{
    format      ascii;
    class       volScalarField;
    location    "3.67";
    object      epsilon;
}
// * * * * * * * * * * * * * * * * * * * * * * * * * * * * * * * * * * * * * //

dimensions      [0 2 -3 0 0 0 0];

internalField   nonuniform List<scalar> 
2268
(
0.00166677
0.00942522
0.0167872
0.0231701
0.0286398
0.033272
0.0371529
0.0403593
0.042958
0.0450306
0.0466794
0.0480012
0.0491215
0.0500181
0.0505782
0.0505809
0.0494529
0.0457389
0.0395418
0.0337571
0.0277615
0.0176396
0.00356573
0.00351333
0.006238
0.00919316
0.0118679
0.0142069
0.0162167
0.0179233
0.0193572
0.0205507
0.0215406
0.0223658
0.02306
0.0236597
0.0241468
0.0244631
0.0245194
0.0241706
0.0232638
0.0216512
0.0191937
0.0158139
0.0114149
0.00721773
0.0059826
0.006625
0.00852383
0.0103771
0.0120415
0.0134895
0.0147277
0.0157754
0.0166569
0.0173998
0.0180315
0.0185747
0.0190473
0.0194388
0.0197125
0.0198118
0.0196561
0.0191678
0.0182303
0.0167388
0.0147117
0.0123923
0.0127508
0.008377
0.00751336
0.00884246
0.010296
0.0116428
0.0128277
0.0138449
0.0147073
0.0154356
0.0160535
0.0165846
0.0170481
0.0174563
0.0178028
0.0180618
0.0181925
0.0181371
0.0178311
0.0172088
0.0162682
0.0151634
0.0143904
0.0190101
0.0106544
0.00857195
0.00950014
0.0106907
0.011832
0.0128459
0.0137175
0.0144557
0.015079
0.0156096
0.0160694
0.0164764
0.0168417
0.0171613
0.0174163
0.0175752
0.0175936
0.0174208
0.0170367
0.0165288
0.0161903
0.0168912
0.026218
0.0128528
0.00971785
0.0103322
0.0113238
0.0123089
0.0131906
0.0139473
0.0145856
0.0151232
0.0155817
0.0159825
0.0163434
0.0166756
0.0169773
0.017234
0.017421
0.0175043
0.0174517
0.0172824
0.0171588
0.0175268
0.019804
0.0346841
0.0150272
0.0109286
0.0112797
0.0121075
0.0129614
0.013729
0.0143843
0.014933
0.0153929
0.0157858
0.0161332
0.0164532
0.0167577
0.0170468
0.0173093
0.0175255
0.0176717
0.0177347
0.0177676
0.0179925
0.0190168
0.0230945
0.047204
0.0172519
0.0122
0.0123173
0.0130017
0.0137371
0.0143988
0.0149578
0.0154203
0.0158054
0.0161352
0.0164316
0.0167133
0.0169935
0.0172736
0.0175451
0.017793
0.0180025
0.0181786
0.0184007
0.0189285
0.0204808
0.026319
0.0771128
0.00351342
0.0136962
0.021873
0.0262672
0.0282017
0.0285392
0.0277721
0.0269666
0.026734
0.0271517
0.0255896
0.022211
0.0225054
0.0266433
0.0304827
0.027434
0.017684
0.00923151
0.0022477
0.00470142
0.00893781
0.0122057
0.0140029
0.014797
0.0149661
0.014646
0.0141176
0.0136097
0.0132756
0.0127173
0.0120207
0.0118805
0.0123636
0.0128444
0.0117011
0.008925
0.00624421
0.00346037
0.00718204
0.0093238
0.011326
0.0123418
0.0127142
0.0126756
0.0123475
0.0118808
0.0114011
0.0109844
0.0105405
0.0101356
0.00995152
0.00999293
0.00990382
0.00910114
0.00754197
0.00578866
0.00525039
0.00985022
0.0105375
0.0116971
0.0121737
0.0122277
0.012019
0.0116424
0.0111894
0.0107306
0.0103031
0.00990273
0.0095943
0.00940796
0.00928354
0.00899776
0.00831099
0.00727048
0.00591586
0.00685045
0.0130821
0.0121826
0.0124987
0.0124832
0.0122531
0.0118918
0.0114558
0.0109957
0.0105465
0.0101233
0.0097507
0.00948353
0.00928721
0.00907368
0.008709
0.00808273
0.00733961
0.00630168
0.00834279
0.0176233
0.0141835
0.0134925
0.0129946
0.0125058
0.0120067
0.01151
0.0110331
0.010585
0.0101681
0.00981179
0.00955083
0.00932991
0.00906803
0.00867897
0.00809462
0.00752922
0.00685076
0.00968318
0.025987
0.0164825
0.0145453
0.0135918
0.0128744
0.0122551
0.0117018
0.011204
0.0107511
0.0103368
0.00998429
0.00970596
0.00944934
0.00916069
0.00877592
0.00823362
0.00775227
0.00745968
0.0106132
0.0476791
0.0188012
0.0155452
0.0142116
0.0133054
0.0125868
0.0119847
0.0114653
0.0110025
0.0105842
0.0102232
0.00991439
0.00961979
0.0093127
0.00894491
0.00844876
0.00799433
0.00793464
0.0107083
0.0204027
0.014172
0.0140053
0.0145003
0.0150693
0.0155763
0.0159911
0.0163231
0.0165948
0.0168294
0.0170497
0.0172755
0.0175215
0.017792
0.0180824
0.0183842
0.0186956
0.019045
0.0195393
0.0204482
0.0223799
0.0269736
0.0399159
0.0251893
0.0172271
0.0166572
0.0168741
0.017197
0.0174771
0.0176789
0.0178188
0.0179269
0.0180266
0.018141
0.0182921
0.0184962
0.0187621
0.019089
0.019474
0.0199261
0.0204909
0.0212819
0.0225187
0.0245475
0.0278499
0.0329111
0.0310445
0.0208729
0.019713
0.0195334
0.0195343
0.019552
0.0195134
0.0194412
0.0193746
0.0193314
0.0193343
0.0194116
0.0195825
0.01986
0.0202448
0.0207337
0.0213394
0.0221227
0.0231972
0.0247539
0.0269782
0.0297441
0.0318786
0.0404576
0.0256436
0.0231958
0.022455
0.0219181
0.0216623
0.0213764
0.0210717
0.02082
0.0206372
0.0205223
0.0205282
0.0206801
0.0209967
0.0214744
0.0220975
0.0228732
0.0238956
0.0252741
0.0272589
0.0300593
0.033395
0.0343186
0.0531537
0.0295723
0.0263745
0.0252769
0.0240676
0.0235532
0.023209
0.0226741
0.0222011
0.0218591
0.0216085
0.0215358
0.0216586
0.0219861
0.0225076
0.0231458
0.023979
0.025111
0.0265729
0.0287808
0.0323187
0.0377025
0.0387788
0.0400308
0.0281933
0.0269607
0.0269847
0.0256628
0.0249917
0.0244743
0.0238837
0.0233321
0.0228738
0.0224447
0.0222554
0.0223119
0.0225981
0.0231029
0.0238681
0.0248718
0.026021
0.0273094
0.0291732
0.0323899
0.0361682
0.0365302
0.0376203
0.0284842
0.0265074
0.0275223
0.026518
0.025169
0.0244723
0.0239457
0.0235747
0.0232473
0.0229142
0.022726
0.0227478
0.0229994
0.0234645
0.0241942
0.0252442
0.0264124
0.027526
0.0290755
0.031627
0.0338625
0.0347004
0.041152
0.0273943
0.0252538
0.0254162
0.0252353
0.0245589
0.0240388
0.0236918
0.0234016
0.0232121
0.0230548
0.022942
0.0229544
0.0231537
0.0235463
0.0241454
0.0249773
0.0259301
0.0269398
0.0285512
0.0309759
0.0329765
0.0330829
0.0445293
0.026013
0.0237667
0.023538
0.0234916
0.0233218
0.0231763
0.0230632
0.022962
0.0229119
0.0228541
0.0227966
0.0228027
0.0229303
0.0232113
0.023664
0.0242731
0.0250246
0.0259957
0.0275317
0.0296589
0.0311786
0.0307952
0.0436455
0.0247692
0.0225687
0.0223231
0.0223133
0.0222617
0.0222285
0.0222389
0.0222728
0.0223164
0.0223295
0.0223189
0.0223324
0.0224204
0.0226198
0.022949
0.0234078
0.0240053
0.0247953
0.025917
0.0273633
0.0284022
0.0280914
0.0433384
0.024012
0.0217344
0.0214345
0.021412
0.0213819
0.02137
0.0214081
0.0214816
0.0215602
0.0216133
0.0216423
0.0216786
0.0217612
0.0219226
0.0221784
0.0225301
0.0229776
0.0235377
0.0242616
0.0251166
0.0257479
0.0256497
0.0447287
0.0238894
0.0212682
0.0207834
0.0206777
0.0206227
0.0205988
0.0206242
0.0206892
0.0207678
0.0208357
0.0208901
0.0209484
0.0210367
0.021177
0.0213793
0.0216418
0.0219584
0.0223312
0.0227791
0.0232732
0.0236411
0.023639
0.0466405
0.0240636
0.0209877
0.0202661
0.0200434
0.0199398
0.0198904
0.019892
0.0199347
0.019999
0.0200664
0.0201312
0.0202011
0.0202902
0.0204107
0.0205668
0.0207551
0.0209693
0.0212088
0.0214801
0.0217629
0.0219676
0.0219691
0.0481766
0.0242484
0.0207502
0.0198
0.0194574
0.0192984
0.0192203
0.0191989
0.0192199
0.0192677
0.0193274
0.0193921
0.0194629
0.0195458
0.0196455
0.0197627
0.0198937
0.0200343
0.0201834
0.0203417
0.0204944
0.0205908
0.0205602
0.0489633
0.0242887
0.0204742
0.0193351
0.018887
0.0186756
0.0185706
0.0185303
0.0185344
0.0185683
0.018619
0.0186786
0.0187448
0.018818
0.0188989
0.0189862
0.0190767
0.0191673
0.0192566
0.0193425
0.0194126
0.0194361
0.0193708
0.0489744
0.0241305
0.0201219
0.0188443
0.0183125
0.018057
0.0179295
0.0178748
0.0178682
0.0178928
0.0179364
0.0179907
0.0180513
0.0181161
0.0181832
0.0182504
0.018315
0.0183742
0.018426
0.0184667
0.0184861
0.0184639
0.0183739
0.0483645
0.0237749
0.0196785
0.0183123
0.0177215
0.0174335
0.01729
0.0172276
0.0172155
0.0172357
0.0172758
0.0173274
0.0173853
0.0174456
0.0175056
0.0175625
0.0176135
0.017656
0.0176873
0.0177029
0.0176944
0.017648
0.0175466
0.0474924
0.0232617
0.0191483
0.0177367
0.0171118
0.0168049
0.0166531
0.0165876
0.0165748
0.0165951
0.016636
0.0166892
0.0167486
0.01681
0.0168699
0.0169253
0.0169733
0.017011
0.0170351
0.0170411
0.0170219
0.0169678
0.0168676
0.0463842
0.0226338
0.0185526
0.0171278
0.0164883
0.0161734
0.0160195
0.0159556
0.0159463
0.0159712
0.0160176
0.0160769
0.0161429
0.0162112
0.0162779
0.0163397
0.0163935
0.016436
0.0164637
0.0164721
0.0164553
0.0164061
0.0163169
0.0448863
0.0218809
0.0178925
0.0164857
0.0158504
0.0155386
0.0153897
0.0153326
0.0153313
0.0153652
0.0154217
0.015492
0.0155699
0.0156507
0.0157304
0.0158055
0.0158724
0.0159278
0.0159678
0.015988
0.0159834
0.0159484
0.0158779
0.04302
0.0210098
0.017172
0.0158123
0.0151985
0.0149011
0.0147646
0.0147199
0.0147314
0.014779
0.0148501
0.0149363
0.0150312
0.01513
0.0152284
0.0153226
0.0154091
0.0154841
0.0155434
0.015583
0.0155982
0.0155845
0.015538
0.0408304
0.0200342
0.0163983
0.015111
0.0145347
0.0142622
0.0141456
0.014119
0.0141485
0.0142146
0.0143052
0.0144121
0.0145291
0.0146511
0.0147738
0.0148932
0.0150052
0.0151056
0.0151902
0.015255
0.0152957
0.0153086
0.0152902
0.038369
0.0189704
0.01558
0.0143873
0.0138624
0.0136245
0.0135351
0.0135326
0.0135851
0.0136747
0.0137898
0.0139226
0.0140669
0.0142176
0.0143703
0.0145204
0.0146635
0.0147951
0.0149107
0.0150061
0.0150773
0.0151209
0.0151337
0.035689
0.0178344
0.014727
0.0136478
0.0131866
0.0129919
0.0129365
0.0129638
0.0130449
0.0131631
0.013308
0.013472
0.0136493
0.0138345
0.014023
0.0142098
0.0143898
0.0145584
0.0147106
0.014842
0.0149486
0.0150269
0.0150742
0.0328325
0.0166423
0.0138508
0.0129012
0.0125138
0.0123698
0.0123546
0.0124175
0.0125325
0.0126849
0.0128652
0.0130664
0.0132827
0.0135088
0.0137396
0.0139695
0.0141931
0.014405
0.0146
0.0147731
0.0149201
0.0150375
0.0151224
0.029824
0.0154143
0.0129665
0.0121586
0.0118524
0.0117653
0.0117959
0.0118997
0.0120543
0.0122467
0.0124685
0.0127134
0.0129756
0.0132499
0.0135304
0.0138111
0.0140859
0.0143485
0.0145932
0.0148144
0.0150075
0.0151687
0.015295
0.0267483
0.014193
0.0120971
0.0114344
0.0112132
0.0111872
0.0112683
0.0114184
0.0116182
0.0118568
0.0121269
0.0124227
0.0127388
0.0130696
0.0134086
0.0137492
0.0140842
0.0144064
0.0147091
0.0149861
0.0152319
0.0154425
0.0156147
0.0240224
0.0130798
0.0112758
0.010746
0.0106086
0.010646
0.0107818
0.010983
0.0112338
0.0115252
0.011851
0.012206
0.012585
0.0129821
0.0133904
0.0138018
0.0142081
0.0146008
0.0149717
0.0153136
0.0156202
0.0158868
0.0161101
0.0215933
0.0120426
0.01051
0.0101063
0.0100515
0.0101541
0.0103478
0.0106048
0.0109123
0.0112632
0.0116527
0.0120763
0.0125288
0.0130042
0.0134945
0.0139904
0.0144819
0.0149586
0.0154105
0.0158286
0.0162057
0.0165363
0.0168167
0.0194914
0.0110986
0.00981247
0.0095282
0.00955484
0.00972425
0.00997904
0.0102963
0.0106662
0.0110837
0.0115456
0.0120482
0.0125868
0.0131546
0.0137429
0.0143403
0.0149344
0.0155122
0.0160611
0.0165699
0.0170297
0.0174341
0.0177792
0.0177678
0.0102786
0.00920382
0.0090293
0.00913502
0.00937177
0.0096899
0.010071
0.0105082
0.0109993
0.011543
0.0121367
0.0127761
0.0134539
0.01416
0.0148806
0.0155999
0.0163012
0.0169679
0.0175857
0.0181434
0.0186335
0.0190519
0.0164407
0.00961237
0.00870773
0.00863113
0.00881227
0.00911541
0.00949721
0.00994372
0.010452
0.0110231
0.0116581
0.0123564
0.0131142
0.0139235
0.0147727
0.0156445
0.0165186
0.0173726
0.0181845
0.0189351
0.01961
0.0202002
0.0207021
0.015489
0.00912026
0.00835013
0.00836139
0.00861349
0.00897937
0.00942156
0.00993158
0.0105117
0.0111672
0.0119028
0.0127205
0.0136173
0.014585
0.015609
0.0166686
0.0177366
0.0187825
0.0197761
0.0206909
0.0215075
0.0222155
0.022812
0.0148722
0.00882194
0.00816888
0.00826322
0.00857944
0.00899798
0.00948964
0.0100542
0.0107011
0.0114419
0.012286
0.0132385
0.0142982
0.0154565
0.0166961
0.0179911
0.0193056
0.0205973
0.0218225
0.0229433
0.0239332
0.0247799
0.0254832
0.014566
0.00876595
0.00824198
0.00841758
0.00877956
0.00922401
0.00973788
0.0103345
0.0110336
0.0118541
0.012811
0.0139132
0.0151623
0.0165498
0.0180561
0.0196495
0.0212822
0.0228945
0.0244215
0.0258057
0.0270095
0.0280194
0.0288414
0.0146312
0.00910865
0.00875872
0.00899256
0.00933992
0.00974128
0.0102163
0.0107983
0.0115188
0.0124034
0.0134716
0.0147364
0.0162026
0.0178641
0.0197005
0.0216744
0.0237249
0.0257659
0.0276964
0.0294239
0.0308935
0.0320933
0.0330428
0.0154082
0.0103563
0.0102067
0.0103512
0.0104917
0.0106803
0.0109893
0.0114705
0.0121583
0.0130775
0.0142474
0.0156828
0.0173927
0.0193768
0.0216194
0.0240811
0.0266892
0.0293204
0.0318092
0.0339939
0.0357926
0.0372062
0.0382831
0.0182843
0.0141791
0.013868
0.013271
0.0126401
0.0122261
0.0121261
0.0123627
0.0129361
0.0138459
0.0150982
0.0167046
0.0186791
0.0210329
0.0237662
0.0268531
0.0302182
0.033691
0.0369878
0.0397922
0.0419887
0.0436235
0.0448072
0.0290155
0.0258893
0.0228817
0.0192525
0.0163948
0.0145802
0.0136625
0.01345
0.0138055
0.0146527
0.0159602
0.0177276
0.0199745
0.0227332
0.02604
0.0299153
0.0343159
0.0390377
0.043583
0.0472331
0.0498721
0.0516889
0.0529191
0.0719732
0.0589088
0.0429172
0.0303154
0.0223045
0.0177922
0.0155166
0.014633
0.0146755
0.0154129
0.0167463
0.0186524
0.0211569
0.0243244
0.0282557
0.0330762
0.0388748
0.0455207
0.0522054
0.0569668
0.0599805
0.0618341
0.0629844
0.273594
0.131991
0.0775095
0.046568
0.0298451
0.0213863
0.0173653
0.0157052
0.0154067
0.0160189
0.0173554
0.0193644
0.0220778
0.025599
0.0301184
0.0359407
0.0434858
0.0531103
0.0641151
0.0700337
0.0730084
0.0745593
0.0754204
1.56804
0.208242
0.112306
0.0613334
0.0359928
0.0240253
0.0186034
0.0163717
0.0158358
0.0163605
0.0176912
0.019755
0.0225877
0.026323
0.0312294
0.0378063
0.0469877
0.0606023
0.0825336
0.0879669
0.0896771
0.0903504
0.0906707
0.0898982
0.066612
0.0638484
0.0770716
0.0376051
0.0366815
0.0350545
0.0329628
0.0319877
0.0312491
0.0299594
0.0282899
0.0325651
0.0311704
0.0296572
0.0280666
0.0348848
0.0328045
0.0309625
0.029208
0.034619
0.0326901
0.0310669
0.0295571
0.0333808
0.0322658
0.0314725
0.0300423
0.0317557
0.0309111
0.0301553
0.028839
0.0296015
0.0287595
0.027878
0.0269525
0.0272526
0.02665
0.0260517
0.02545
0.0251747
0.0248153
0.0244226
0.023992
0.0233752
0.0231487
0.0228727
0.0225487
0.0217925
0.0216299
0.0214201
0.0211651
0.020413
0.0202799
0.020108
0.0198982
0.0192319
0.0191133
0.0189646
0.0187863
0.0182391
0.0181303
0.0179985
0.0178441
0.0174186
0.0173193
0.0172025
0.0170684
0.0167508
0.0166625
0.0165604
0.0164448
0.0162158
0.0161399
0.0160528
0.0159547
0.0157955
0.0157333
0.0156615
0.0155804
0.0154766
0.0154289
0.0153726
0.0153079
0.0152515
0.0152188
0.0151782
0.0151296
0.015119
0.015102
0.0150771
0.0150444
0.0150847
0.0150838
0.015075
0.0150583
0.0151597
0.0151757
0.0151835
0.0151831
0.0153611
0.015395
0.0154202
0.0154366
0.0157118
0.0157648
0.0158084
0.0158425
0.016241
0.0163148
0.0163781
0.0164309
0.0169849
0.0170814
0.017166
0.0172388
0.0179885
0.0181098
0.0182174
0.0183116
0.0193068
0.0194552
0.0195877
0.0197046
0.0210071
0.0211849
0.0213439
0.0214848
0.0231718
0.0233811
0.023568
0.0237336
0.0259019
0.0261442
0.0263596
0.0265498
0.0293213
0.0295968
0.0298399
0.0300532
0.0335828
0.0338892
0.0341568
0.0343894
0.0388749
0.0392056
0.0394906
0.0397353
0.0454303
0.0457718
0.0460613
0.0463063
0.0535332
0.0538621
0.0541356
0.0543632
0.0635239
0.0638053
0.0640345
0.064222
0.0757971
0.0759884
0.0761411
0.0762641
0.0908006
0.0908648
0.0909151
0.0909553
0.0295827
0.0200574
0.0168407
0.0151575
0.0140318
0.0131943
0.0125323
0.0119812
0.0114953
0.0110574
0.0106639
0.0102999
0.00994777
0.00961006
0.00926324
0.00883438
0.00839236
0.00841901
0.0102013
0.0259741
0.0208783
0.0180702
0.0162933
0.0150622
0.0141615
0.013463
0.0128809
0.0123509
0.0118582
0.0114007
0.0109734
0.0105682
0.0101991
0.00987939
0.00957509
0.00921577
0.00910149
0.0102114
0.0251377
0.021619
0.0191324
0.0173908
0.0161563
0.015253
0.0145329
0.0139107
0.0133258
0.0127659
0.0122533
0.0117893
0.0113629
0.0109849
0.0107044
0.0105797
0.0105066
0.0108553
0.0137974
0.0255224
0.0225324
0.0201859
0.0184943
0.0173112
0.0164683
0.0157266
0.0150353
0.0143707
0.0137541
0.0132115
0.0127539
0.0123708
0.012053
0.0118485
0.0119721
0.0122859
0.0133411
0.0201824
0.0263115
0.0234258
0.0211855
0.0195354
0.0184316
0.0176928
0.0168488
0.0159719
0.0151845
0.0144909
0.0138882
0.0133569
0.0129298
0.0126251
0.0123353
0.0122639
0.0124112
0.0138883
0.0290821
0.0268296
0.0239285
0.0218579
0.0203885
0.0192569
0.0182943
0.0173084
0.0163066
0.0154263
0.0146709
0.0140082
0.0133932
0.0128254
0.0123774
0.0120584
0.0119609
0.0121749
0.0140681
0.0295422
0.0270009
0.0242555
0.0223281
0.0208806
0.0195536
0.018441
0.0174278
0.0164672
0.0156139
0.014856
0.0141456
0.0134451
0.0127755
0.0122811
0.0118896
0.0117113
0.0118789
0.01335
0.0236056
0.026365
0.023973
0.0222539
0.0208654
0.0195657
0.0184826
0.0175172
0.0165742
0.0157172
0.0149197
0.0141326
0.0133513
0.0126297
0.0120673
0.011562
0.0111478
0.0109389
0.0118248
0.0205064
0.0253846
0.023454
0.0219141
0.0206031
0.0193504
0.0182341
0.0172703
0.0163606
0.0155104
0.0146816
0.0138567
0.0130561
0.0123152
0.0116656
0.0110726
0.0105047
0.00999961
0.0100756
0.0153031
0.0243628
0.022811
0.0214155
0.0201489
0.0189047
0.0177582
0.0167878
0.0159148
0.0150927
0.0142759
0.0134627
0.0126707
0.0119162
0.0111973
0.0105313
0.00989038
0.00923905
0.00882098
0.0113283
0.0231882
0.0219247
0.0206758
0.019472
0.0182907
0.0172022
0.016258
0.0154137
0.0146214
0.0138435
0.0130682
0.0123049
0.0115433
0.0107617
0.0100303
0.0093536
0.008707
0.00831541
0.0100037
0.0219272
0.0208814
0.0197817
0.0186832
0.0176122
0.0166175
0.0157291
0.0149228
0.0141671
0.0134372
0.0127099
0.0119777
0.011208
0.01042
0.00971091
0.00908589
0.00859915
0.00857762
0.0107293
0.0206699
0.019799
0.0188482
0.0178817
0.0169361
0.0160448
0.0152259
0.0144684
0.0137556
0.0130706
0.0123881
0.0116837
0.0109481
0.0102407
0.00963273
0.00915572
0.00894117
0.00948022
0.0131043
0.0194922
0.0187675
0.0179596
0.0171259
0.0163023
0.0155126
0.014769
0.0140681
0.0134009
0.012756
0.0121138
0.0114598
0.0108074
0.0102117
0.00973148
0.00943807
0.00952231
0.01062
0.0162604
0.018446
0.0178416
0.0171611
0.0164493
0.0157366
0.015042
0.0143747
0.0137348
0.013117
0.012515
0.0119211
0.0113345
0.0107753
0.0102877
0.00993083
0.00980194
0.0101367
0.0116844
0.0194255
0.0175547
0.0170481
0.0164757
0.0158702
0.0152556
0.0146473
0.0140534
0.0134752
0.0129102
0.012357
0.0118172
0.0112988
0.0108228
0.0104279
0.0101745
0.010174
0.0106913
0.0126031
0.0221627
0.0168207
0.0163941
0.0159116
0.0153964
0.0148666
0.0143348
0.013808
0.0132883
0.0127758
0.0122731
0.0117868
0.0113293
0.0109224
0.0106024
0.0104314
0.0105287
0.0111837
0.0133936
0.0243716
0.0162333
0.0158732
0.0154653
0.0150258
0.0145682
0.0141025
0.0136346
0.0131677
0.012704
0.0122485
0.0118106
0.0114046
0.0110532
0.0107923
0.0106851
0.0108569
0.0116183
0.0140786
0.026191
0.0157759
0.0154724
0.0151269
0.0147506
0.0143537
0.0139438
0.0135266
0.0131056
0.0126848
0.0122709
0.0118744
0.0115109
0.0112035
0.0109885
0.0109302
0.011158
0.0119978
0.0146422
0.0279511
0.0154317
0.0151774
0.0148847
0.0145615
0.0142154
0.0138526
0.0134781
0.0130963
0.0127122
0.0123336
0.0119717
0.0116428
0.0113702
0.0111913
0.011171
0.011443
0.012352
0.0151857
0.0299129
0.0151876
0.0149771
0.0147299
0.0144519
0.0141486
0.0138254
0.0134871
0.0131385
0.0127854
0.0124362
0.0121028
0.0118022
0.0115575
0.0114063
0.011415
0.0117222
0.0126917
0.015713
0.0317913
0.0150364
0.0148658
0.0146588
0.0144198
0.0141534
0.0138641
0.0135566
0.0132361
0.012909
0.0125846
0.0122752
0.0119968
0.0117735
0.0116432
0.0116739
0.0120084
0.0130264
0.0161993
0.0335036
0.0149776
0.0148442
0.0146736
0.0144694
0.0142353
0.0139755
0.0136947
0.0133983
0.0130936
0.01279
0.012499
0.0122375
0.0120297
0.0119144
0.0119609
0.0123158
0.0133703
0.0166556
0.0350473
0.0150176
0.0149197
0.0147831
0.0146106
0.0144055
0.014172
0.0139147
0.0136396
0.0133537
0.013066
0.0127886
0.0125385
0.0123405
0.0122341
0.0122901
0.0126581
0.0137366
0.0170922
0.0362604
0.0151689
0.015106
0.0150019
0.0148591
0.0146808
0.0144712
0.014235
0.0139778
0.0137066
0.0134304
0.0131616
0.0129172
0.0127225
0.0126179
0.0126758
0.0130476
0.0141339
0.0175035
0.0368876
0.0154496
0.0154217
0.0153493
0.015235
0.015082
0.0148944
0.0146765
0.014434
0.0141737
0.0139047
0.0136391
0.0133942
0.0131956
0.0130845
0.0131344
0.0134983
0.0145744
0.0179091
0.0370724
0.0158838
0.0158913
0.0158505
0.0157639
0.0156349
0.0154672
0.0152653
0.0150345
0.0147814
0.0145148
0.0142467
0.0139943
0.0137835
0.0136562
0.0136871
0.0140305
0.0150839
0.0183764
0.0372842
0.0165019
0.0165458
0.0165365
0.016477
0.0163706
0.0162212
0.0160329
0.0158108
0.0155611
0.0152921
0.0150154
0.014748
0.0145159
0.0143616
0.0143616
0.0146729
0.0156998
0.0189858
0.037927
0.0173412
0.0174225
0.0174449
0.0174119
0.017327
0.0171941
0.0170172
0.0168008
0.0165507
0.0162745
0.015983
0.0156928
0.0154298
0.0152373
0.0151942
0.0154637
0.0164679
0.0198237
0.0395091
0.0184473
0.018567
0.0186211
0.0186139
0.0185493
0.0184313
0.0182637
0.0180505
0.0177965
0.0175086
0.0171965
0.0168759
0.0165726
0.0163307
0.0162327
0.0164519
0.0174418
0.0209555
0.0421567
0.0198751
0.020034
0.0201196
0.0201373
0.0200919
0.0199874
0.0198274
0.0196152
0.0193549
0.0190518
0.0187143
0.018357
0.0180048
0.0177029
0.0175385
0.0176985
0.0186781
0.0224042
0.0455304
0.0216914
0.0218895
0.0220058
0.0220474
0.0220199
0.0219277
0.0217743
0.0215623
0.0212944
0.0209745
0.0206091
0.020211
0.0198038
0.0194335
0.0191918
0.0192816
0.0202459
0.0242051
0.0495203
0.0239768
0.0242132
0.0243585
0.0244222
0.0244114
0.0243309
0.0241841
0.0239728
0.0236984
0.0233628
0.0229706
0.0225319
0.0220685
0.0216256
0.0212991
0.0213079
0.0222474
0.0264558
0.0543483
0.0268286
0.0271005
0.0272721
0.0273557
0.0273601
0.0272912
0.027152
0.0269439
0.0266669
0.026321
0.0259083
0.0254359
0.0249227
0.0244122
0.0240024
0.0239269
0.0248366
0.0293223
0.0603108
0.0303643
0.0306665
0.0308598
0.03096
0.0309782
0.0309212
0.0307922
0.030592
0.0303196
0.0299733
0.029553
0.0290629
0.0285187
0.0279611
0.0274882
0.0273456
0.028242
0.0330572
0.067691
0.034726
0.03505
0.0352581
0.0353705
0.0354006
0.0353562
0.035241
0.0350554
0.0347981
0.0344662
0.0340583
0.0335771
0.0330362
0.0324745
0.0319908
0.0318426
0.032801
0.0380948
0.0773761
0.0400859
0.0404185
0.040632
0.0407508
0.0407902
0.0407593
0.040662
0.0404991
0.0402693
0.0399702
0.0396007
0.0391644
0.0386769
0.0381809
0.0377836
0.0377653
0.0389849
0.0451553
0.0913103
0.0466528
0.0469759
0.0471825
0.0473002
0.0473457
0.0473283
0.0472528
0.0471205
0.046931
0.0466835
0.0463797
0.046028
0.0456527
0.0453119
0.0451419
0.0454828
0.0473557
0.0552191
0.111975
0.0546807
0.0549712
0.0551564
0.0552642
0.0553111
0.0553065
0.0552551
0.055159
0.0550194
0.0548382
0.0546218
0.0543868
0.0541728
0.0540686
0.0542724
0.0552585
0.0583861
0.069423
0.143409
0.0644797
0.0647118
0.0648596
0.0649478
0.0649906
0.0649958
0.0649679
0.0649095
0.0648233
0.0647139
0.0645919
0.0644824
0.064441
0.0645925
0.0652211
0.0670236
0.0719987
0.0883299
0.190364
0.076431
0.07658
0.0766755
0.0767343
0.076766
0.0767758
0.076767
0.0767421
0.0767041
0.0766586
0.0766172
0.076606
0.0766832
0.0769831
0.0778339
0.0801261
0.0867475
0.110835
0.263509
0.0910094
0.0910577
0.0910893
0.0911098
0.0911222
0.0911286
0.0911301
0.0911279
0.0911238
0.0911208
0.0911252
0.0911501
0.0912256
0.0914229
0.0919342
0.0933966
0.0987147
0.131175
0.395496
)
;

boundaryField
{
    leftWall
    {
        type            epsilonWallFunction;
        value           nonuniform List<scalar> 
50
(
0.00166677
0.00351333
0.0059826
0.008377
0.0106544
0.0128528
0.0150272
0.0172519
0.0204027
0.0251893
0.0310445
0.0404576
0.0531537
0.0400308
0.0376203
0.041152
0.0445293
0.0436455
0.0433384
0.0447287
0.0466405
0.0481766
0.0489633
0.0489744
0.0483645
0.0474924
0.0463842
0.0448863
0.04302
0.0408304
0.038369
0.035689
0.0328325
0.029824
0.0267483
0.0240224
0.0215933
0.0194914
0.0177678
0.0164407
0.015489
0.0148722
0.014566
0.0146312
0.0154082
0.0182843
0.0290155
0.0719732
0.273594
1.56804
)
;
    }
    rightWall
    {
        type            epsilonWallFunction;
        value           nonuniform List<scalar> 
50
(
0.0022477
0.00346037
0.00525039
0.00685045
0.00834279
0.00968318
0.0106132
0.0107083
0.0102013
0.0102114
0.0137974
0.0201824
0.0290821
0.0295422
0.0236056
0.0205064
0.0153031
0.0113283
0.0100037
0.0107293
0.0131043
0.0162604
0.0194255
0.0221627
0.0243716
0.026191
0.0279511
0.0299129
0.0317913
0.0335036
0.0350473
0.0362604
0.0368876
0.0370724
0.0372842
0.037927
0.0395091
0.0421567
0.0455304
0.0495203
0.0543483
0.0603108
0.067691
0.0773761
0.0913103
0.111975
0.143409
0.190364
0.263509
0.395496
)
;
    }
    lowerWall
    {
        type            epsilonWallFunction;
        value           nonuniform List<scalar> 
62
(
0.00166677
0.00942522
0.0167872
0.0231701
0.0286398
0.033272
0.0371529
0.0403593
0.042958
0.0450306
0.0466794
0.0480012
0.0491215
0.0500181
0.0505782
0.0505809
0.0494529
0.0457389
0.0395418
0.0337571
0.0277615
0.0176396
0.00356573
0.00356573
0.00721773
0.0127508
0.0190101
0.026218
0.0346841
0.047204
0.0771128
0.0898982
0.066612
0.0638484
0.0770716
0.00351342
0.00470142
0.00718204
0.00985022
0.0130821
0.0176233
0.025987
0.0476791
0.00351342
0.0136962
0.021873
0.0262672
0.0282017
0.0285392
0.0277721
0.0269666
0.026734
0.0271517
0.0255896
0.022211
0.0225054
0.0266433
0.0304827
0.027434
0.017684
0.00923151
0.0022477
)
;
    }
    atmosphere
    {
        type            inletOutlet;
        inletValue      uniform 0.1;
        value           nonuniform List<scalar> 
46
(
0.1
0.1
0.112306
0.0613334
0.0359928
0.0240253
0.0186034
0.0163717
0.0158358
0.0163605
0.0176912
0.019755
0.0225877
0.026323
0.0312294
0.0378063
0.0469877
0.0606023
0.1
0.1
0.1
0.1
0.1
0.1
0.1
0.1
0.1
0.1
0.1
0.1
0.1
0.1
0.1
0.1
0.1
0.1
0.1
0.1
0.1
0.1
0.1
0.1
0.1
0.1
0.131175
0.395496
)
;
    }
    defaultFaces
    {
        type            empty;
    }
}


// ************************************************************************* //
