/*--------------------------------*- C++ -*----------------------------------*\
  =========                 |
  \\      /  F ield         | OpenFOAM: The Open Source CFD Toolbox
   \\    /   O peration     | Website:  https://openfoam.org
    \\  /    A nd           | Version:  9
     \\/     M anipulation  |
\*---------------------------------------------------------------------------*/
FoamFile
{
    format      ascii;
    class       volScalarField;
    location    "40";
    object      p;
}
// * * * * * * * * * * * * * * * * * * * * * * * * * * * * * * * * * * * * * //

dimensions      [0 2 -2 0 0 0 0];

internalField   nonuniform List<scalar> 
12225
(
0.893804
-1.29264
-2.37581
-2.66697
-2.85119
-3.00589
-3.07331
-3.09868
-3.13371
-3.17269
-3.18231
-3.14761
-3.07138
-2.9665
-2.83812
-2.64343
-2.45248
-1.75211
-2.2692
-3.02321
-3.18578
-3.06544
-3.04909
-3.09757
-3.11229
-3.11265
-3.13312
-3.16129
-3.1637
-3.12389
-3.04702
-2.94595
-2.82345
-2.65639
-2.41641
-2.20727
-2.67092
-2.6553
-2.77623
-2.82237
-2.90886
-3.00593
-3.05526
-3.08242
-3.11801
-3.15176
-3.15639
-3.1197
-3.04987
-2.95933
-2.85256
-2.72015
-2.55465
-2.50059
-2.55015
-2.49363
-2.71589
-2.84925
-2.94526
-3.02735
-3.07206
-3.1006
-3.1337
-3.16132
-3.16108
-3.12483
-3.06148
-2.98235
-2.89226
-2.78838
-2.67835
-2.60263
-2.54112
-2.55974
-2.77349
-2.89633
-2.9731
-3.0382
-3.07882
-3.10827
-3.13963
-3.16344
-3.16183
-3.12959
-3.07539
-3.00959
-2.93653
-2.85734
-2.77628
-2.71989
-2.60089
-2.64359
-2.81085
-2.91167
-2.98385
-3.04506
-3.08502
-3.11534
-3.1462
-3.16906
-3.16924
-3.14292
-3.0984
-3.04533
-2.98831
-2.93021
-2.87689
-2.85617
-2.66378
-2.70292
-2.83292
-2.92053
-2.99607
-3.05763
-3.09564
-3.1248
-3.15539
-3.17917
-3.18288
-3.16302
-3.12784
-3.08658
-3.0445
-3.00565
-2.97706
-2.97742
-2.72064
-2.75377
-2.85804
-2.93642
-3.01327
-3.07437
-3.10944
-3.13661
-3.1674
-3.19332
-3.2015
-3.18859
-3.16265
-3.13271
-3.10451
-3.08252
-3.07338
-3.0869
-2.77455
-2.80297
-2.88842
-2.95831
-3.0324
-3.09173
-3.12471
-3.15079
-3.18209
-3.2105
-3.2238
-3.21867
-3.20213
-3.1829
-3.16728
-3.15996
-3.16639
-3.19048
-2.82677
-2.85178
-2.92209
-2.98449
-3.05381
-3.11009
-3.14218
-3.16836
-3.20036
-3.23135
-3.2503
-3.25362
-3.24646
-3.23739
-3.23307
-3.23802
-3.25669
-3.2901
-2.8774
-2.89927
-2.95538
-3.01263
-3.07809
-3.13062
-3.16214
-3.18903
-3.22189
-3.25534
-3.2803
-3.29243
-3.29518
-3.29626
-3.30211
-3.31701
-3.34485
-3.38499
-2.92236
-2.9417
-2.98709
-3.0398
-3.10241
-3.15242
-3.18424
-3.21182
-3.24446
-3.2792
-3.30922
-3.32997
-3.34288
-3.35364
-3.36792
-3.38997
-3.4239
-3.46923
-2.96545
-2.98308
-3.02162
-3.06758
-3.12581
-3.17562
-3.21039
-3.23931
-3.27027
-3.3042
-3.33807
-3.36782
-3.39195
-3.4131
-3.43598
-3.46406
-3.50326
-3.55063
-3.01276
-3.02783
-3.06285
-3.1009
-3.15146
-3.20233
-3.24418
-3.27701
-3.30573
-3.33645
-3.37253
-3.41075
-3.44759
-3.48187
-3.51539
-3.55058
-3.59385
-3.64173
-3.06385
-3.07586
-3.10983
-3.14238
-3.1828
-3.23241
-3.2834
-3.32464
-3.35382
-3.38091
-3.41558
-3.45976
-3.50821
-3.5567
-3.60297
-3.64795
-3.69722
-3.7464
-3.11785
-3.12858
-3.15998
-3.19109
-3.22305
-3.26688
-3.32424
-3.37765
-3.41404
-3.44027
-3.47236
-3.51809
-3.57517
-3.63633
-3.69635
-3.75184
-3.80832
-3.85931
-3.17277
-3.18244
-3.21053
-3.24436
-3.27384
-3.31037
-3.36832
-3.4328
-3.48134
-3.51277
-3.54347
-3.58801
-3.6492
-3.72014
-3.79157
-3.85809
-3.92294
-3.97924
-3.22501
-3.23438
-3.25953
-3.29677
-3.32987
-3.36341
-3.41901
-3.48952
-3.54945
-3.59012
-3.62446
-3.66918
-3.7315
-3.80798
-3.8882
-3.96413
-4.03622
-4.0959
-3.26778
-3.27844
-3.30314
-3.34185
-3.38091
-3.41869
-3.47483
-3.54782
-3.61491
-3.66456
-3.706
-3.75542
-3.82071
-3.90005
-3.98385
-4.06415
-4.13953
-4.20065
-3.28251
-3.29426
-3.32193
-3.36359
-3.40853
-3.4553
-3.51707
-3.59192
-3.65906
-3.71242
-3.76033
-3.81855
-3.88978
-3.9721
-4.05497
-4.13412
-4.20706
-4.26874
-3.27721
-3.29031
-3.32318
-3.36845
-3.41877
-3.47377
-3.54251
-3.61691
-3.68293
-3.73731
-3.79306
-3.85921
-3.93811
-4.02147
-4.10382
-4.17834
-4.24855
-4.30734
-3.25813
-3.27254
-3.31114
-3.36109
-3.41858
-3.48405
-3.55878
-3.63224
-3.69502
-3.75224
-3.81564
-3.89098
-3.97476
-4.05852
-4.13708
-4.20755
-4.27336
-4.33154
-3.2294
-3.2442
-3.28889
-3.34554
-3.4125
-3.48953
-3.56935
-3.64067
-3.7016
-3.76245
-3.83375
-3.91646
-4.00212
-4.08414
-4.15737
-4.22439
-4.28701
-4.34596
-3.19409
-3.20818
-3.2625
-3.32746
-3.40222
-3.48756
-3.57145
-3.64225
-3.70417
-3.7708
-3.84968
-3.93701
-4.02302
-4.10129
-4.17097
-4.23425
-4.2966
-4.35674
-3.15291
-3.16069
-3.23777
-3.31804
-3.39607
-3.48308
-3.56718
-3.63767
-3.70264
-3.77606
-3.86188
-3.95206
-4.03708
-4.11215
-4.1788
-4.24063
-4.30285
-4.36468
-3.11358
-3.07906
-3.19837
-3.31324
-3.3999
-3.4874
-3.5688
-3.63554
-3.70082
-3.77905
-3.8691
-3.96024
-4.04312
-4.11522
-4.1796
-4.24093
-4.30416
-4.36886
-3.13048
-2.97836
-3.11198
-3.262
-3.37695
-3.48657
-3.5763
-3.64273
-3.70815
-3.78927
-3.88261
-3.97347
-4.05351
-4.12135
-4.18172
-4.24018
-4.30294
-4.37044
-3.25495
-3.08098
-3.11459
-3.17805
-3.28247
-3.41829
-3.52884
-3.60594
-3.67975
-3.77088
-3.8744
-3.97299
-4.05578
-4.12401
-4.18333
-4.23985
-4.30269
-4.3732
-2.9628
-3.54531
-3.66045
-3.53737
-3.50331
-3.56792
-3.63171
-3.67267
-3.72197
-3.79932
-3.89716
-3.99319
-4.07284
-4.13705
-4.19153
-4.24273
-4.30025
-4.36731
0.0256225
-1.74615
-2.75187
-3.05015
-3.22844
-3.41489
-3.54605
-3.6218
-3.69066
-3.78122
-3.88964
-3.99434
-4.08061
-4.14898
-4.20591
-4.25915
-4.31674
-4.38125
-5.43251
-5.40209
-5.41867
-5.47739
-5.54456
-5.6043
-5.6506
-5.68437
-5.70946
-5.72906
-5.74677
-5.76435
-5.78131
-5.7977
-5.81397
-5.83789
-5.8738
-5.92901
-6.01212
-6.13208
-6.29238
-6.49522
-6.73774
-7.01679
-7.32529
-7.65753
-8.00565
-8.36421
-8.72625
-9.08755
-9.44309
-9.78996
-10.1246
-10.445
-10.7494
-11.0362
-11.3042
-11.5521
-11.7794
-11.9843
-12.166
-12.322
-12.451
-12.5497
-12.6169
-12.6484
-12.6427
-12.5953
-12.506
-12.3715
-12.1926
-11.9668
-11.6961
-11.3794
-11.0199
-10.616
-10.1722
-9.68858
-9.17039
-8.61789
-8.03701
-7.42834
-6.79872
-6.14899
-5.48574
-4.80906
-4.12626
-3.43791
-2.75061
-2.06448
-1.38564
-0.713531
-0.0534973
0.596284
1.23141
1.85348
2.45824
3.04761
3.61775
4.17164
4.70616
5.22408
5.72294
6.2061
6.67094
7.12049
7.5523
7.96852
8.36805
8.75311
9.12537
9.48437
9.82981
10.162
10.4815
10.7886
11.0838
11.3675
11.6399
11.9013
12.1521
12.3925
12.6226
12.8425
13.0525
13.2529
13.4438
13.6259
13.7994
13.9647
14.1223
14.2722
14.4142
14.5485
14.6755
14.795
14.9071
15.0119
15.1104
15.204
15.2911
15.3711
15.4444
15.5134
15.5803
15.6418
15.6979
15.7503
15.7963
15.8413
15.8897
15.9369
15.9784
16.0163
16.0571
16.1034
16.1489
16.1894
16.2292
16.2711
16.3109
16.3475
16.3838
16.4187
16.4476
16.472
16.4921
16.5062
16.5201
16.5365
16.5511
16.5619
16.5673
16.5695
16.5739
16.5778
16.5787
16.5772
16.5754
16.5752
16.5754
16.5722
16.5663
16.5615
16.5586
16.5571
16.556
16.5543
16.5526
16.5527
16.5535
16.5535
16.5554
16.5602
16.5685
16.5834
16.6096
16.653
16.7345
16.8293
-5.51393
-5.5319
-5.56572
-5.61151
-5.65923
-5.69724
-5.71977
-5.72688
-5.72192
-5.71121
-5.69878
-5.68917
-5.68676
-5.69438
-5.71231
-5.74081
-5.78285
-5.85061
-5.95467
-6.10205
-6.2935
-6.52729
-6.79769
-7.09913
-7.42402
-7.76632
-8.11912
-8.47769
-8.83673
-9.19292
-9.54254
-9.8834
-10.2128
-10.5291
-10.8305
-11.1157
-11.3831
-11.6313
-11.8593
-12.0653
-12.2478
-12.4043
-12.5333
-12.6319
-12.6981
-12.7291
-12.723
-12.6773
-12.5916
-12.4643
-12.2946
-12.0806
-11.8228
-11.5199
-11.1733
-10.7828
-10.3512
-9.87938
-9.37113
-8.82788
-8.25416
-7.65241
-7.02737
-6.38113
-5.71867
-5.04308
-4.35998
-3.67129
-2.98204
-2.29395
-1.61119
-0.935164
-0.269795
0.384177
1.02439
1.65112
2.26091
2.85451
3.4301
3.98878
4.52888
5.05146
5.5557
6.0432
6.51285
6.96633
7.40293
7.82352
8.22772
8.61739
8.99384
9.35666
9.70572
10.0417
10.365
10.6756
10.9743
11.2614
11.5371
11.8017
12.0556
12.2991
12.5322
12.7551
12.9681
13.1716
13.3655
13.5501
13.7261
13.8933
14.0524
14.2039
14.3476
14.4833
14.6121
14.7337
14.8479
14.956
15.0573
15.1516
15.2399
15.3217
15.3991
15.4713
15.537
15.5991
15.6576
15.7119
15.7656
15.8169
15.8639
15.9093
15.9533
15.9972
16.0402
16.0818
16.1241
16.1683
16.2123
16.2564
16.3008
16.343
16.3808
16.4159
16.4476
16.4721
16.4962
16.5209
16.5374
16.5451
16.5515
16.558
16.562
16.5643
16.567
16.5696
16.5699
16.5685
16.5658
16.5649
16.5635
16.5601
16.5564
16.5536
16.5519
16.5512
16.5508
16.5488
16.5467
16.5472
16.5482
16.5477
16.5494
16.554
16.5616
16.5755
16.5982
16.6362
16.7078
16.782
-5.50661
-5.55062
-5.59429
-5.6329
-5.6662
-5.68891
-5.69765
-5.69374
-5.68136
-5.66739
-5.65743
-5.65698
-5.67024
-5.70131
-5.75291
-5.82819
-5.92801
-6.05579
-6.21316
-6.40152
-6.61911
-6.86378
-7.13125
-7.4183
-7.72024
-8.0337
-8.35446
-8.67985
-9.00645
-9.33222
-9.6544
-9.97129
-10.2807
-10.581
-10.8705
-11.1474
-11.4101
-11.6568
-11.8858
-12.0951
-12.2825
-12.4455
-12.5822
-12.6897
-12.7655
-12.8067
-12.8119
-12.7787
-12.7062
-12.5922
-12.4355
-12.2345
-11.9896
-11.6997
-11.3654
-10.9869
-10.5663
-10.105
-9.60527
-9.06964
-8.5018
-7.90468
-7.28211
-6.63719
-5.9745
-5.29815
-4.61268
-3.92144
-3.22839
-2.53651
-1.84924
-1.16899
-0.498491
0.160584
0.806227
1.43718
2.05184
2.64972
3.23009
3.79304
4.3378
4.86453
5.3733
5.86456
6.33835
6.79552
7.23607
7.66022
8.06833
8.46173
8.84141
9.20725
9.55916
9.89804
10.2241
10.5375
10.8389
11.1287
11.4069
11.674
11.9306
12.1766
12.4125
12.6381
12.854
13.0605
13.2577
13.4456
13.6252
13.7962
13.959
14.1141
14.2614
14.4006
14.5327
14.6576
14.775
14.8854
14.9893
15.0868
15.1781
15.2632
15.3432
15.4176
15.4865
15.5513
15.6127
15.6702
15.7253
15.7774
15.8257
15.8725
15.9188
15.9644
16.0085
16.0515
16.096
16.1416
16.1868
16.2317
16.2771
16.3212
16.3615
16.3988
16.4332
16.4625
16.4892
16.5143
16.532
16.5414
16.5487
16.5559
16.5602
16.5616
16.5631
16.5647
16.5647
16.5632
16.5603
16.5586
16.5576
16.5557
16.5535
16.5514
16.5495
16.5483
16.5477
16.5457
16.5436
16.5436
16.5441
16.5434
16.545
16.549
16.5563
16.5691
16.5877
16.6186
16.6724
16.7083
-5.30215
-5.38173
-5.44553
-5.48702
-5.51655
-5.53662
-5.5487
-5.55702
-5.5664
-5.58297
-5.61164
-5.65731
-5.72247
-5.80918
-5.91692
-6.04591
-6.19457
-6.36326
-6.55104
-6.75827
-6.98336
-7.22566
-7.48276
-7.75343
-8.03491
-8.3256
-8.62268
-8.92453
-9.22869
-9.53364
-9.83707
-10.1375
-10.4329
-10.7217
-11.002
-11.2722
-11.5303
-11.7745
-12.0029
-12.2134
-12.4036
-12.571
-12.7133
-12.8276
-12.9115
-12.962
-12.977
-12.9543
-12.8922
-12.7882
-12.6413
-12.4497
-12.2132
-11.931
-11.6032
-11.2304
-10.814
-10.3555
-9.85751
-9.32223
-8.75318
-8.15354
-7.52727
-6.87794
-6.21006
-5.52784
-4.83578
-4.1377
-3.43755
-2.7387
-2.04452
-1.35764
-0.680582
-0.0154198
0.635945
1.27199
1.89156
2.49387
3.07838
3.64492
4.19316
4.72313
5.23498
5.72904
6.20562
6.6652
7.10815
7.53466
7.9452
8.34098
8.72274
9.09047
9.44434
9.78498
10.1128
10.4281
10.7313
11.0229
11.303
11.5721
11.8306
12.0787
12.3166
12.5445
12.7627
12.9716
13.1712
13.3619
13.544
13.7178
13.8833
14.0409
14.1906
14.3326
14.4671
14.5943
14.7141
14.8268
14.9331
15.033
15.1267
15.2143
15.2963
15.3728
15.4442
15.5112
15.5744
15.6336
15.6896
15.7425
15.7924
15.8405
15.8878
15.9342
15.9795
16.0239
16.0688
16.114
16.1589
16.2037
16.2487
16.2931
16.3353
16.3749
16.4117
16.4447
16.474
16.5
16.5196
16.5322
16.5412
16.5487
16.5536
16.5556
16.5571
16.5583
16.5582
16.5568
16.5547
16.5533
16.5524
16.5511
16.5494
16.5478
16.5461
16.5448
16.5438
16.5421
16.5403
16.5396
16.5395
16.5391
16.54
16.5431
16.5492
16.5593
16.5739
16.5958
16.6305
16.6393
-4.95106
-5.06976
-5.16397
-5.22289
-5.26645
-5.30499
-5.34448
-5.39048
-5.44664
-5.51648
-5.60163
-5.70394
-5.82308
-5.95924
-6.11056
-6.2767
-6.45603
-6.6489
-6.85417
-7.07228
-7.30198
-7.54335
-7.79482
-8.05615
-8.32559
-8.60252
-8.88507
-9.17234
-9.46246
-9.75432
-10.0461
-10.3364
-10.6234
-10.9056
-11.1811
-11.4483
-11.7051
-11.9496
-12.1798
-12.3934
-12.588
-12.7611
-12.9101
-13.032
-13.1244
-13.184
-13.2087
-13.1954
-13.1422
-13.0466
-12.9072
-12.7221
-12.4907
-12.212
-11.8864
-11.514
-11.0963
-10.6348
-10.132
-9.59039
-9.01359
-8.40495
-7.7687
-7.10889
-6.43023
-5.73704
-5.03392
-4.32498
-3.61438
-2.90565
-2.2022
-1.5068
-0.821981
-0.149889
0.507584
1.14902
1.77334
2.37975
2.96781
3.53731
4.08814
4.62034
5.13413
5.62987
6.10797
6.56886
7.013
7.44072
7.85252
8.24943
8.6324
9.0012
9.35617
9.69791
10.0269
10.3435
10.6481
10.9411
11.2229
11.4937
11.7538
12.0036
12.2431
12.4728
12.6927
12.9034
13.1048
13.2975
13.4814
13.6571
13.8244
13.9839
14.1353
14.2792
14.4154
14.5443
14.6659
14.7807
14.8889
14.9907
15.0863
15.1758
15.2595
15.338
15.4112
15.48
15.5446
15.6054
15.6625
15.7166
15.7678
15.8171
15.8651
15.9122
15.958
16.0027
16.0471
16.0914
16.1352
16.1788
16.2225
16.266
16.3084
16.3491
16.3877
16.4232
16.4547
16.4819
16.5034
16.5187
16.5297
16.538
16.5439
16.5471
16.5489
16.5503
16.5507
16.5499
16.5486
16.5477
16.547
16.546
16.5448
16.5434
16.5419
16.5407
16.5394
16.538
16.5364
16.5352
16.5345
16.534
16.5342
16.5362
16.5406
16.5474
16.5574
16.5701
16.5879
16.5783
-4.60941
-4.75895
-4.88385
-4.96972
-5.04121
-5.1118
-5.18991
-5.28132
-5.38755
-5.50904
-5.6443
-5.79302
-5.95341
-6.12524
-6.30664
-6.49772
-6.69706
-6.90533
-7.12153
-7.34649
-7.57918
-7.82029
-8.06874
-8.32487
-8.58757
-8.85676
-9.13113
-9.41025
-9.69269
-9.97761
-10.2635
-10.5491
-10.8329
-11.1132
-11.3884
-11.6566
-11.9159
-12.1643
-12.3995
-12.6191
-12.8208
-13.0018
-13.1595
-13.2908
-13.3929
-13.4626
-13.4972
-13.4935
-13.4492
-13.3615
-13.2286
-13.0487
-12.8206
-12.5432
-12.2169
-11.8415
-11.4187
-10.9498
-10.4376
-9.88472
-9.29501
-8.6722
-8.02089
-7.34546
-6.65105
-5.94226
-5.22391
-4.50039
-3.77608
-3.05466
-2.33965
-1.63391
-0.940026
-0.260095
0.404074
1.05117
1.68017
2.2904
2.88155
3.45344
4.0061
4.5397
5.05456
5.55108
6.02973
6.49103
6.93552
7.36361
7.77572
8.17322
8.55666
8.92605
9.2816
9.62411
9.95401
10.2717
10.5774
10.8716
11.1547
11.4268
11.6884
11.9395
12.1806
12.4117
12.6331
12.8452
13.0483
13.2425
13.4281
13.6053
13.7742
13.9351
14.0881
14.2333
14.3711
14.5015
14.6247
14.7411
14.8509
14.9544
15.0515
15.1426
15.228
15.3081
15.3831
15.4536
15.5198
15.5821
15.6408
15.6964
15.7491
15.7997
15.8486
15.8962
15.9424
15.9871
16.031
16.0744
16.1169
16.159
16.2009
16.2427
16.2842
16.3248
16.364
16.4006
16.4334
16.4619
16.4851
16.5026
16.5154
16.5251
16.5322
16.5366
16.5393
16.5413
16.5423
16.5423
16.5419
16.5414
16.5411
16.5405
16.5396
16.5385
16.5373
16.536
16.5348
16.5333
16.5318
16.5304
16.5292
16.5282
16.5278
16.5285
16.5306
16.5341
16.5388
16.5428
16.5466
16.5228
-4.3881
-4.55483
-4.70097
-4.81292
-4.91355
-5.01603
-5.12864
-5.25638
-5.39961
-5.55755
-5.72713
-5.90696
-6.09452
-6.28952
-6.49024
-6.6972
-6.90924
-7.12738
-7.35072
-7.58047
-7.81592
-8.05802
-8.30598
-8.56053
-8.82085
-9.08717
-9.35849
-9.63467
-9.91456
-10.1975
-10.4822
-10.7676
-11.0522
-11.3345
-11.6128
-11.8854
-12.1502
-12.4052
-12.648
-12.8763
-13.0875
-13.2788
-13.4472
-13.5898
-13.7034
-13.7845
-13.8303
-13.8371
-13.8024
-13.723
-13.5969
-13.4217
-13.1963
-12.9192
-12.5905
-12.2102
-11.7796
-11.3003
-10.7753
-10.2073
-9.6007
-8.95952
-8.28882
-7.59352
-6.87915
-6.15074
-5.4135
-4.67215
-3.93127
-3.19474
-2.46619
-1.74856
-1.04444
-0.355851
0.315484
0.968392
1.60201
2.21582
2.80962
3.38337
3.93725
4.4716
4.98685
5.4835
5.96211
6.42324
6.86754
7.29546
7.70764
8.1052
8.48892
8.85864
9.21462
9.55768
9.8882
10.2066
10.5131
10.8082
11.0923
11.3655
11.6282
11.8804
12.1228
12.3551
12.578
12.7914
12.996
13.1916
13.3787
13.5572
13.7277
13.8899
14.0443
14.1909
14.33
14.4618
14.5865
14.7043
14.8157
14.9205
15.0191
15.1116
15.1986
15.2801
15.3569
15.429
15.4969
15.5608
15.6212
15.6784
15.7328
15.7848
15.8349
15.8833
15.9299
15.9749
16.0187
16.0614
16.103
16.1437
16.184
16.224
16.2638
16.3034
16.342
16.3786
16.412
16.4413
16.4657
16.485
16.4996
16.5108
16.5191
16.5248
16.5286
16.5316
16.5334
16.5343
16.5346
16.5347
16.5348
16.5347
16.5341
16.5333
16.5323
16.5312
16.5299
16.5284
16.5267
16.525
16.5233
16.5217
16.5205
16.5196
16.5193
16.5193
16.5188
16.5149
16.5069
16.4718
-4.32684
-4.49105
-4.64377
-4.77017
-4.89125
-5.01695
-5.15284
-5.30302
-5.46746
-5.64527
-5.83312
-6.02943
-6.23146
-6.43904
-6.65043
-6.86643
-7.08595
-7.31028
-7.53863
-7.77237
-8.01078
-8.25515
-8.50477
-8.76053
-9.02173
-9.28887
-9.56103
-9.83825
-10.1195
-10.4044
-10.6916
-10.9804
-11.2692
-11.5568
-11.8413
-12.1212
-12.3943
-12.6586
-12.9117
-13.1512
-13.3743
-13.5781
-13.7596
-13.9156
-14.0427
-14.1372
-14.1959
-14.2149
-14.1911
-14.1212
-14.0028
-13.8331
-13.6106
-13.3335
-13.0018
-12.6152
-12.1752
-11.6833
-11.1427
-10.5566
-9.92972
-9.26658
-8.57282
-7.85393
-7.11596
-6.36448
-5.60524
-4.84331
-4.0835
-3.3299
-2.58627
-1.85558
-1.1404
-0.442674
0.236068
0.894822
1.53289
2.14995
2.74601
3.3212
3.87589
4.41055
4.92579
5.42222
5.9005
6.36125
6.80523
7.23295
7.64498
8.04256
8.42627
8.796
9.15213
9.4954
9.82629
10.1451
10.4521
10.7479
11.0327
11.3068
11.5704
11.8237
12.067
12.3005
12.5246
12.7395
12.9453
13.1423
13.3307
13.5107
13.6824
13.8461
14.0018
14.1498
14.2902
14.4234
14.5495
14.6687
14.7814
14.8876
14.9875
15.0814
15.1698
15.2529
15.3311
15.4048
15.4744
15.5399
15.602
15.661
15.717
15.7706
15.8219
15.8712
15.9187
15.9642
16.0081
16.0508
16.0919
16.1317
16.1707
16.2091
16.2472
16.285
16.3223
16.3581
16.3913
16.4208
16.446
16.4665
16.4826
16.4952
16.5048
16.5119
16.517
16.521
16.5238
16.5256
16.5268
16.5276
16.5281
16.5285
16.5284
16.5279
16.5272
16.5262
16.525
16.5234
16.5216
16.5195
16.5172
16.5149
16.5125
16.5099
16.5071
16.5035
16.498
16.4872
16.4694
16.4253
-4.40297
-4.5504
-4.69227
-4.82018
-4.94858
-5.0849
-5.23214
-5.39261
-5.56567
-5.75073
-5.94475
-6.14662
-6.35362
-6.56581
-6.78145
-7.00144
-7.22465
-7.45254
-7.68417
-7.92108
-8.16256
-8.40991
-8.66243
-8.92118
-9.18541
-9.45575
-9.73139
-10.0125
-10.2981
-10.5879
-10.8808
-11.1759
-11.4719
-11.7676
-12.0611
-12.3509
-12.6349
-12.9111
-13.1769
-13.4299
-13.6672
-13.8859
-14.0829
-14.2545
-14.3974
-14.5075
-14.5813
-14.6145
-14.6038
-14.5452
-14.436
-14.273
-14.0543
-13.7778
-13.4431
-13.0498
-12.5993
-12.0932
-11.535
-10.9282
-10.2781
-9.58994
-8.86993
-8.12428
-7.35967
-6.58233
-5.79858
-5.01387
-4.23335
-3.46131
-2.70158
-1.95715
-1.23052
-0.523441
0.16272
0.827179
1.46948
2.08954
2.68759
3.26401
3.81932
4.35416
4.86931
5.3655
5.84339
6.30367
6.74714
7.17436
7.58597
7.98309
8.36652
8.73601
9.09199
9.4352
9.76615
10.0852
10.3926
10.6889
10.9742
11.2491
11.5133
11.7676
12.0118
12.2466
12.4717
12.6879
12.8949
13.0934
13.283
13.4644
13.6374
13.8024
13.9594
14.1088
14.2506
14.3852
14.5126
14.6333
14.7472
14.8548
14.956
15.0514
15.1411
15.2258
15.3054
15.3807
15.4517
15.519
15.5827
15.6433
15.701
15.7561
15.8087
15.8592
15.9074
15.9537
15.9982
16.041
16.082
16.1215
16.1597
16.1969
16.2334
16.2695
16.3051
16.3395
16.3717
16.4009
16.4262
16.4475
16.4648
16.4786
16.4896
16.498
16.5046
16.5097
16.5135
16.5163
16.5184
16.5199
16.5211
16.522
16.5224
16.5223
16.5218
16.521
16.5198
16.5183
16.5163
16.5139
16.5109
16.5078
16.5041
16.4996
16.4942
16.487
16.4768
16.4599
16.4339
16.3828
-4.55167
-4.68443
-4.8088
-4.92838
-5.05375
-5.18945
-5.33647
-5.49653
-5.66855
-5.85206
-6.04433
-6.24464
-6.45047
-6.66204
-6.87759
-7.09812
-7.32235
-7.55178
-7.78542
-8.02484
-8.26913
-8.51974
-8.77588
-9.03858
-9.30714
-9.58234
-9.86334
-10.1503
-10.4425
-10.7394
-11.0402
-11.344
-11.6495
-11.9555
-12.2603
-12.5623
-12.8594
-13.1495
-13.4302
-13.6988
-13.9526
-14.1884
-14.4029
-14.5925
-14.7535
-14.8816
-14.9728
-15.0227
-15.0273
-14.9823
-14.8844
-14.73
-14.5167
-14.2418
-13.9047
-13.5047
-13.0432
-12.5218
-11.9444
-11.315
-10.6394
-9.92361
-9.17475
-8.39978
-7.60619
-6.80092
-5.99087
-5.18192
-4.37954
-3.58824
-2.8119
-2.05343
-1.31518
-0.598708
0.0948135
0.764864
1.41129
2.03429
2.63431
3.21192
3.7678
4.3027
4.81749
5.31303
5.79011
6.24946
6.69197
7.11827
7.52899
7.92544
8.30818
8.67715
9.03272
9.37571
9.70657
10.0257
10.3333
10.6299
10.9158
11.1912
11.4562
11.7112
11.9565
12.1922
12.4185
12.6358
12.8442
13.0438
13.2348
13.4175
13.5919
13.7582
13.9166
14.0673
14.2106
14.3465
14.4754
14.5975
14.7128
14.8216
14.9242
15.021
15.1122
15.1983
15.2794
15.3563
15.4289
15.4977
15.5631
15.6254
15.6846
15.7411
15.795
15.8466
15.8959
15.943
15.9881
16.0313
16.0726
16.1119
16.1498
16.1863
16.2216
16.2561
16.2899
16.3226
16.3534
16.3816
16.4067
16.4282
16.4464
16.4613
16.4735
16.4833
16.4912
16.4975
16.5025
16.5064
16.5095
16.5118
16.5137
16.5151
16.516
16.5163
16.5162
16.5156
16.5145
16.513
16.5109
16.5081
16.5046
16.5006
16.4956
16.4892
16.4812
16.4706
16.456
16.4336
16.4007
16.3439
-4.72484
-4.84041
-4.94576
-5.05184
-5.16725
-5.29518
-5.43518
-5.58804
-5.75275
-5.92931
-6.11511
-6.30978
-6.51089
-6.71883
-6.93173
-7.15071
-7.37433
-7.60411
-7.83886
-8.08023
-8.32727
-8.58132
-8.84147
-9.10894
-9.38284
-9.66392
-9.95141
-10.2456
-10.5458
-10.8515
-11.1617
-11.4758
-11.7925
-12.1105
-12.4282
-12.7441
-13.056
-13.3618
-13.659
-13.9451
-14.2171
-14.4719
-14.706
-14.9157
-15.0969
-15.2452
-15.3564
-15.4253
-15.4477
-15.4186
-15.3343
-15.1905
-14.9843
-14.7125
-14.3739
-13.9677
-13.495
-12.9579
-12.3602
-11.7067
-11.0039
-10.2587
-9.47922
-8.67325
-7.84923
-7.01477
-6.17739
-5.34341
-4.51865
-3.70774
-2.91457
-2.14197
-1.39212
-0.666308
0.0345908
0.710238
1.36067
1.98629
2.5878
3.16601
3.72177
4.25603
4.76981
5.26406
5.73975
6.19771
6.63881
7.06376
7.47331
7.86865
8.25047
8.61866
8.97362
9.31619
9.64682
9.96585
10.2737
10.5705
10.8568
11.1326
11.3984
11.6541
11.9003
12.1369
12.3645
12.5828
12.7925
12.9933
13.1858
13.3697
13.5455
13.7131
13.873
14.025
14.1697
14.3071
14.4375
14.5608
14.6776
14.7877
14.8918
14.99
15.0828
15.1703
15.2531
15.3314
15.4057
15.4762
15.5433
15.607
15.6678
15.7257
15.7809
15.8335
15.8838
15.9318
15.9777
16.0214
16.063
16.1026
16.1403
16.1763
16.2108
16.244
16.2761
16.3069
16.336
16.363
16.3873
16.4088
16.4275
16.4433
16.4567
16.4677
16.4769
16.4845
16.4908
16.4959
16.4999
16.5032
16.5058
16.5078
16.5093
16.5101
16.5103
16.5099
16.509
16.5075
16.5053
16.5022
16.4981
16.4931
16.4869
16.4788
16.4683
16.4544
16.4357
16.4083
16.3697
16.3084
-4.88054
-4.97588
-5.0613
-5.15166
-5.25403
-5.37047
-5.49986
-5.64283
-5.79795
-5.9654
-6.14288
-6.33022
-6.52511
-6.72813
-6.93727
-7.15376
-7.37605
-7.60556
-7.84109
-8.08422
-8.33378
-8.59134
-8.85585
-9.12849
-9.40835
-9.69623
-9.99113
-10.2935
-10.6025
-10.9179
-11.2386
-11.564
-11.8929
-12.2241
-12.5559
-12.8867
-13.2145
-13.5372
-13.8523
-14.1571
-14.4488
-14.724
-14.9791
-15.2104
-15.4136
-15.584
-15.7169
-15.8069
-15.849
-15.8379
-15.7691
-15.6377
-15.4401
-15.1727
-14.8337
-14.4219
-13.9385
-13.3854
-12.7672
-12.089
-11.3584
-10.5831
-9.77222
-8.93465
-8.07969
-7.21571
-6.35083
-5.49185
-4.64476
-3.81425
-3.00431
-2.21775
-1.45664
-0.72208
-0.014647
0.665572
1.31897
1.94622
2.54823
3.12607
3.68084
4.21367
4.72571
5.21809
5.69185
6.14787
6.58715
7.01035
7.41835
7.81236
8.19301
8.56018
8.91437
9.25638
9.58661
9.90549
10.2133
10.5103
10.7969
11.0732
11.3395
11.5961
11.8431
12.0808
12.3093
12.5289
12.7398
12.9419
13.1356
13.3209
13.498
13.6671
13.8283
13.9818
14.1279
14.2668
14.3985
14.5233
14.6414
14.7531
14.8586
14.9583
15.0527
15.1419
15.2262
15.3063
15.3822
15.4543
15.523
15.5883
15.6506
15.7099
15.7663
15.8201
15.8714
15.9203
15.9668
16.0111
16.0532
16.093
16.1307
16.1666
16.2004
16.2325
16.2631
16.292
16.3193
16.3447
16.3681
16.3893
16.4082
16.4247
16.4392
16.4515
16.4619
16.4709
16.4783
16.4846
16.4897
16.494
16.4974
16.5001
16.5021
16.5034
16.504
16.5039
16.5031
16.5017
16.4993
16.496
16.4914
16.4855
16.4781
16.4683
16.4555
16.4387
16.4161
16.3844
16.341
16.276
-4.98401
-5.0601
-5.1262
-5.20065
-5.28932
-5.39351
-5.51163
-5.64407
-5.78931
-5.94763
-6.11677
-6.29687
-6.48557
-6.68373
-6.8893
-7.10344
-7.32448
-7.55392
-7.79028
-8.03525
-8.28761
-8.54889
-8.81791
-9.09599
-9.38211
-9.67717
-9.98009
-10.2913
-10.6097
-10.9355
-11.2673
-11.6047
-11.9463
-12.2911
-12.6374
-12.9837
-13.3279
-13.668
-14.0013
-14.3254
-14.6371
-14.9332
-15.21
-15.4635
-15.6893
-15.8825
-16.038
-16.15
-16.213
-16.2209
-16.1688
-16.051
-15.8633
-15.6015
-15.2631
-14.8469
-14.3536
-13.7855
-13.1474
-12.4453
-11.6875
-10.8828
-10.0413
-9.17277
-8.28742
-7.39432
-6.50232
-5.61877
-4.7501
-3.90109
-3.07574
-2.2767
-1.50589
-0.764126
-0.0517597
0.63155
1.28649
1.91404
2.51537
3.09177
3.64456
4.17513
4.68475
5.17463
5.64587
6.09957
6.53655
6.95779
7.36394
7.7563
8.13554
8.50152
8.85478
9.19611
9.52589
9.84452
10.1522
10.4494
10.7361
11.013
11.2797
11.5372
11.7849
12.0237
12.2532
12.4741
12.686
12.8895
13.0843
13.2711
13.4495
13.62
13.7825
13.9376
14.0851
14.2255
14.3587
14.485
14.6044
14.7176
14.8247
14.926
15.0219
15.1129
15.1989
15.2807
15.3583
15.4322
15.5024
15.5694
15.633
15.6937
15.7513
15.8062
15.8585
15.9083
15.9556
16.0005
16.043
16.0831
16.121
16.1566
16.1899
16.2211
16.2502
16.2773
16.3027
16.3266
16.3489
16.3696
16.3886
16.4058
16.4211
16.4346
16.4463
16.4566
16.4653
16.4728
16.4791
16.4842
16.4885
16.4919
16.4946
16.4964
16.4974
16.4976
16.497
16.4956
16.4932
16.4895
16.4844
16.4777
16.4691
16.4578
16.4428
16.4232
16.3972
16.3617
16.3142
16.246
-5.01567
-5.07485
-5.12342
-5.18341
-5.25975
-5.35261
-5.46007
-5.58273
-5.71892
-5.86886
-6.03042
-6.20405
-6.38736
-6.58127
-6.78374
-6.99596
-7.21626
-7.44611
-7.68394
-7.93134
-8.1869
-8.45231
-8.72638
-9.01024
-9.3029
-9.60536
-9.91651
-10.2368
-10.5652
-10.9016
-11.2448
-11.5943
-11.9489
-12.3074
-12.6681
-13.0297
-13.39
-13.7471
-14.0984
-14.4413
-14.7726
-15.0892
-15.3872
-15.6626
-15.9107
-16.1265
-16.3045
-16.4387
-16.5231
-16.551
-16.5167
-16.4139
-16.2377
-15.983
-15.6472
-15.2281
-14.7266
-14.1449
-13.4883
-12.7634
-11.9794
-11.1462
-10.2748
-9.37608
-8.46127
-7.54033
-6.62282
-5.71662
-4.8284
-3.96318
-3.12481
-2.31579
-1.53771
-0.791122
-0.075996
0.608452
1.26309
1.8894
2.4886
3.06248
3.61229
4.13982
4.64624
5.13306
5.60139
6.05228
6.48665
6.90575
7.3096
7.70029
8.07792
8.44263
8.79484
9.13537
9.46465
9.78289
10.0905
10.3876
10.6747
10.9518
11.2193
11.4773
11.726
11.9656
12.1963
12.4181
12.6314
12.836
13.0323
13.2202
13.4001
13.5719
13.736
13.8925
14.0416
14.1834
14.318
14.4457
14.5667
14.6815
14.7901
14.8931
14.9907
15.0834
15.1712
15.2548
15.3342
15.4097
15.4816
15.55
15.6151
15.677
15.7359
15.792
15.8453
15.8959
15.9439
15.9894
16.0324
16.0728
16.1108
16.1462
16.1789
16.2091
16.2367
16.2621
16.2857
16.3081
16.3294
16.3496
16.3686
16.3863
16.4025
16.4171
16.4302
16.4417
16.4518
16.4605
16.4679
16.474
16.4791
16.4833
16.4867
16.489
16.4905
16.491
16.4906
16.4892
16.4868
16.4829
16.4773
16.4699
16.4602
16.4474
16.4305
16.4083
16.3793
16.3404
16.2895
16.2185
-4.97287
-5.01394
-5.0464
-5.09463
-5.1606
-5.24323
-5.34093
-5.45444
-5.58236
-5.72516
-5.88032
-6.04843
-6.22731
-6.41802
-6.61839
-6.82963
-7.04997
-7.28095
-7.52091
-7.77148
-8.03114
-8.30138
-8.58105
-8.87141
-9.17105
-9.48108
-9.80045
-10.1296
-10.4674
-10.8141
-11.1683
-11.5296
-11.8966
-12.2685
-12.6434
-13.0201
-13.3964
-13.7704
-14.1393
-14.5007
-14.8514
-15.1882
-15.5073
-15.8044
-16.0748
-16.3134
-16.5145
-16.6715
-16.7779
-16.8265
-16.8106
-16.7235
-16.5593
-16.3125
-15.9793
-15.5575
-15.0477
-14.4524
-13.7772
-13.0296
-12.2196
-11.3584
-10.4579
-9.53059
-8.58831
-7.64235
-6.70264
-5.77751
-4.8736
-3.99616
-3.14856
-2.33328
-1.55129
-0.803056
-0.0876967
0.595305
1.24774
1.87099
2.46675
3.03679
3.58281
4.10643
4.60912
5.09242
5.55742
6.00495
6.43716
6.85303
7.25538
7.64385
8.0199
8.38322
8.73434
9.07401
9.4027
9.72055
10.0281
10.3251
10.6125
10.8898
11.158
11.4166
11.6662
11.9066
12.1384
12.3613
12.5758
12.7816
12.9792
13.1684
13.3497
13.5229
13.6885
13.8464
13.9971
14.1403
14.2764
14.4056
14.5283
14.6446
14.755
14.8596
14.9591
15.0534
15.1432
15.2284
15.3097
15.3869
15.4603
15.5302
15.5968
15.6599
15.72
15.7772
15.8316
15.8831
15.9318
15.9779
16.0213
16.0619
16.0998
16.1348
16.1669
16.196
16.2221
16.2459
16.268
16.289
16.3094
16.3292
16.3484
16.3666
16.3836
16.3994
16.4137
16.4265
16.4378
16.4477
16.4563
16.4635
16.4695
16.4745
16.4785
16.4814
16.4833
16.4842
16.4841
16.4828
16.4802
16.4762
16.4702
16.4621
16.4513
16.4371
16.4184
16.394
16.3622
16.3204
16.2665
16.193
-4.86137
-4.88049
-4.89933
-4.93819
-4.99504
-5.06808
-5.15629
-5.26155
-5.38186
-5.51805
-5.66764
-5.83158
-6.00715
-6.19593
-6.39547
-6.60726
-6.82892
-7.0624
-7.30544
-7.56011
-7.82424
-8.09991
-8.38529
-8.68226
-8.98884
-9.30684
-9.63464
-9.97305
-10.3204
-10.6776
-11.0426
-11.4157
-11.795
-12.18
-12.5685
-12.9596
-13.351
-13.7409
-14.1264
-14.5054
-14.8746
-15.2308
-15.57
-15.8882
-16.1802
-16.441
-16.6644
-16.8435
-16.9713
-17.0398
-17.0417
-16.9694
-16.8164
-16.5761
-16.2446
-15.8188
-15.2996
-14.6896
-13.9955
-13.2251
-12.3901
-11.5022
-10.5752
-9.62218
-8.65671
-7.69019
-6.73379
-5.7951
-4.88131
-3.99676
-3.14536
-2.32834
-1.54707
-0.800529
-0.0886237
0.590311
1.23856
1.85643
2.44769
3.01227
3.55398
4.07246
4.57138
5.05018
5.51167
5.95634
6.38491
6.79912
7.19857
7.5854
7.95966
8.32147
8.67148
9.01035
9.33839
9.65594
9.96315
10.2604
10.5478
10.8257
11.0943
11.3537
11.6041
11.8456
12.0782
12.3023
12.5179
12.7251
12.924
13.1146
13.2972
13.472
13.6391
13.7986
13.9508
14.0955
14.2332
14.364
14.4883
14.6064
14.7187
14.8251
14.9264
15.0227
15.1143
15.2014
15.2843
15.3632
15.4382
15.5096
15.5776
15.6421
15.7034
15.7617
15.8171
15.8695
15.9188
15.9654
16.0091
16.0498
16.0875
16.1219
16.1531
16.1809
16.2057
16.2281
16.2488
16.2689
16.2886
16.3082
16.3277
16.3465
16.3644
16.3812
16.3968
16.4109
16.4235
16.4346
16.4443
16.4526
16.4595
16.4653
16.4701
16.4736
16.4759
16.4772
16.4773
16.4762
16.4737
16.4694
16.463
16.4543
16.4426
16.4271
16.4068
16.3804
16.3462
16.3019
16.2455
16.1698
-4.69271
-4.68959
-4.69778
-4.72911
-4.77674
-4.83954
-4.91831
-5.01545
-5.12926
-5.26006
-5.40531
-5.56618
-5.7403
-5.92855
-6.12869
-6.34203
-6.5662
-6.80295
-7.05009
-7.30953
-7.57945
-7.86139
-8.1535
-8.45774
-8.77218
-9.09807
-9.43408
-9.781
-10.1373
-10.5037
-10.8784
-11.2614
-11.6512
-12.0472
-12.4474
-12.8508
-13.2551
-13.6588
-14.0589
-14.4533
-14.8388
-15.2122
-15.5695
-15.9064
-16.218
-16.4988
-16.7423
-16.9413
-17.0882
-17.1745
-17.192
-17.1323
-16.9883
-16.7524
-16.4202
-15.9884
-15.4582
-14.8325
-14.119
-13.3265
-12.4677