/*--------------------------------*- C++ -*----------------------------------*\
  =========                 |
  \\      /  F ield         | OpenFOAM: The Open Source CFD Toolbox
   \\    /   O peration     | Website:  https://openfoam.org
    \\  /    A nd           | Version:  9
     \\/     M anipulation  |
\*---------------------------------------------------------------------------*/
FoamFile
{
    format      ascii;
    class       volScalarField;
    location    "8.64";
    object      p;
}
// * * * * * * * * * * * * * * * * * * * * * * * * * * * * * * * * * * * * * //

dimensions      [1 -1 -2 0 0 0 0];

internalField   nonuniform List<scalar> 
2268
(
740.641
740.466
740.12
739.607
738.935
738.119
737.174
736.119
734.975
733.764
732.509
731.231
729.951
728.684
727.448
726.265
725.171
724.221
723.423
722.697
722.301
722.025
721.897
681.82
681.645
681.3
680.783
680.107
679.286
678.336
677.275
676.124
674.906
673.642
672.354
671.06
669.779
668.535
667.361
666.299
665.39
664.671
664.002
663.477
663.107
662.975
623.038
622.86
622.513
621.992
621.311
620.481
619.521
618.449
617.287
616.057
614.781
613.479
612.17
610.876
609.625
608.455
607.408
606.524
605.849
605.222
604.587
604.157
604.033
564.297
564.116
563.764
563.238
562.547
561.706
560.733
559.646
558.468
557.221
555.928
554.609
553.285
551.978
550.718
549.546
548.488
547.6
546.926
546.357
545.63
545.17
545.073
505.596
505.411
505.054
504.519
503.817
502.961
501.971
500.865
499.667
498.397
497.083
495.744
494.402
493.083
491.815
490.639
489.551
488.611
487.917
487.402
486.615
486.177
486.101
446.937
446.746
446.383
445.837
445.121
444.247
443.235
442.106
440.883
439.585
438.244
436.881
435.52
434.187
432.914
431.744
430.648
429.548
428.882
428.327
427.556
427.241
427.109
388.322
388.122
387.752
387.194
386.46
385.564
384.527
383.37
382.116
380.783
379.41
378.018
376.635
375.287
374.011
372.86
371.858
370.807
369.912
369.232
368.676
368.372
368.084
329.749
329.538
329.16
328.589
327.834
326.91
325.842
324.652
323.365
321.988
320.581
319.157
317.747
316.382
315.104
313.981
313.136
312.409
311.313
310.393
310.101
309.547
309.048
724.83
725.213
726.077
726.972
727.944
728.965
730.041
731.175
732.331
733.498
734.631
735.677
736.804
738.09
739.075
739.889
740.474
740.863
741.134
665.921
666.195
667.067
667.985
668.992
670.054
671.22
672.392
673.583
674.818
676.108
677.34
678.444
679.411
680.345
681.145
681.731
682.131
682.418
607.135
607.339
608.123
609.015
610.04
611.126
612.307
613.508
614.738
616.028
617.43
618.901
620.074
620.853
621.669
622.454
623.081
623.564
623.887
548.489
548.616
549.239
550.076
551.099
552.202
553.405
554.638
555.908
557.235
558.674
560.233
561.493
562.27
563.027
563.794
564.46
565.017
565.293
489.795
489.891
490.361
491.141
492.158
493.282
494.51
495.781
497.091
498.445
499.912
501.431
502.737
503.611
504.442
505.15
505.804
506.413
506.686
430.911
431.009
431.424
432.181
433.204
434.348
435.61
436.929
438.268
439.613
441.134
442.644
443.961
444.917
445.891
446.847
447.356
447.777
448.124
371.746
371.937
372.394
373.183
374.227
375.397
376.701
378.09
379.501
380.789
382.332
383.882
385.22
386.226
387.45
388.491
389.106
389.232
389.626
312.382
312.707
313.274
314.148
315.231
316.426
317.783
319.281
320.946
322.264
323.69
325.144
326.497
327.693
329.294
330.098
330.867
330.832
331.199
238.234
238.007
237.603
237.002
236.209
235.231
234.109
232.87
231.533
230.069
228.608
227.125
225.666
224.265
222.976
221.881
221.059
220.382
219.595
218.774
218.084
217.529
216.97
113.986
113.742
113.318
112.691
111.83
110.719
109.55
108.365
107.109
105.775
104.455
103.088
101.726
100.39
99.1192
98.0053
97.0424
96.3508
95.7802
95.1268
94.3632
93.8055
93.6293
25.8288
25.6654
25.446
25.1126
24.6879
24.1766
23.5885
23.0021
22.3963
21.7848
21.1799
20.5756
19.9392
19.2971
18.6648
18.0738
17.598
17.2456
16.9552
16.6815
16.423
16.2698
16.2507
-0.743676
-0.733646
-0.725807
-0.7312
-0.678386
-0.597961
-0.577106
-0.582503
-0.590859
-0.599437
-0.604289
-0.607217
-0.623256
-0.630897
-0.63584
-0.653601
-0.690922
-0.740589
-0.784471
-0.786548
-0.769139
-0.757332
-0.762535
-0.965411
-0.96379
-0.959356
-0.957845
-0.945797
-0.929322
-0.915588
-0.907824
-0.902474
-0.899604
-0.897969
-0.898117
-0.903539
-0.907167
-0.910328
-0.918744
-0.930286
-0.940451
-0.947683
-0.950703
-0.949627
-0.949059
-0.9503
-1.15298
-1.15408
-1.15225
-1.15226
-1.15563
-1.16195
-1.16418
-1.16366
-1.16243
-1.16088
-1.15915
-1.15641
-1.15147
-1.14842
-1.14704
-1.14535
-1.14285
-1.13764
-1.13172
-1.13
-1.1285
-1.12504
-1.12186
-1.29147
-1.29161
-1.29206
-1.29169
-1.29208
-1.29121
-1.29031
-1.28925
-1.288
-1.28627
-1.28428
-1.28194
-1.27879
-1.27645
-1.27532
-1.27426
-1.27281
-1.27261
-1.27221
-1.27116
-1.27052
-1.27071
-1.26967
-1.41629
-1.41623
-1.41651
-1.41608
-1.41607
-1.41512
-1.41422
-1.41353
-1.41253
-1.41124
-1.4099
-1.40875
-1.40781
-1.4067
-1.40527
-1.40317
-1.40104
-1.39996
-1.3992
-1.39851
-1.39839
-1.39866
-1.39857
-1.54081
-1.5408
-1.54078
-1.5405
-1.54026
-1.53959
-1.53888
-1.53818
-1.53728
-1.53628
-1.53532
-1.53466
-1.5344
-1.53348
-1.53185
-1.53002
-1.52823
-1.52699
-1.52608
-1.52541
-1.52509
-1.525
-1.52477
-1.66527
-1.6653
-1.6652
-1.66496
-1.66468
-1.66419
-1.66361
-1.66294
-1.66218
-1.66138
-1.6606
-1.65988
-1.65926
-1.65836
-1.65713
-1.65588
-1.65462
-1.65346
-1.65262
-1.65202
-1.65167
-1.6515
-1.65129
-1.78979
-1.78981
-1.78969
-1.78949
-1.78922
-1.78884
-1.78834
-1.78775
-1.78713
-1.78647
-1.78578
-1.78506
-1.78437
-1.78352
-1.78244
-1.78137
-1.7804
-1.77958
-1.77893
-1.77844
-1.77816
-1.77805
-1.77808
-1.91439
-1.91439
-1.91428
-1.91409
-1.91384
-1.91351
-1.91308
-1.91257
-1.91209
-1.91155
-1.91091
-1.91024
-1.90959
-1.90885
-1.90797
-1.90707
-1.90624
-1.90557
-1.90509
-1.90472
-1.90451
-1.90448
-1.90471
-2.03906
-2.03904
-2.03894
-2.03878
-2.03855
-2.03825
-2.03787
-2.03746
-2.03707
-2.03661
-2.03603
-2.03545
-2.03487
-2.03429
-2.03371
-2.03298
-2.03223
-2.0316
-2.03117
-2.03085
-2.03068
-2.03069
-2.03092
-2.1638
-2.16377
-2.16368
-2.16353
-2.16333
-2.16307
-2.16275
-2.16242
-2.16208
-2.16165
-2.16116
-2.16066
-2.16017
-2.1597
-2.1593
-2.15881
-2.15823
-2.15765
-2.15716
-2.15683
-2.15667
-2.15667
-2.15683
-2.28859
-2.28856
-2.28848
-2.28835
-2.28818
-2.28796
-2.28771
-2.28744
-2.28712
-2.28672
-2.28629
-2.28586
-2.28544
-2.28504
-2.28468
-2.28435
-2.28394
-2.28344
-2.28297
-2.28267
-2.28252
-2.2825
-2.28259
-2.41341
-2.41341
-2.41332
-2.41321
-2.41306
-2.41289
-2.41271
-2.41247
-2.41216
-2.4118
-2.41143
-2.41106
-2.41069
-2.41034
-2.41001
-2.40969
-2.40935
-2.40897
-2.40863
-2.40838
-2.40825
-2.40821
-2.40826
-2.53831
-2.53827
-2.53821
-2.53811
-2.53798
-2.53784
-2.53768
-2.53747
-2.53719
-2.53689
-2.53657
-2.53625
-2.53594
-2.53563
-2.53533
-2.53504
-2.53475
-2.53446
-2.53419
-2.534
-2.53388
-2.53384
-2.53386
-2.66324
-2.66317
-2.66313
-2.66305
-2.66294
-2.66281
-2.66266
-2.66247
-2.66224
-2.66199
-2.66172
-2.66145
-2.66117
-2.6609
-2.66064
-2.66039
-2.66014
-2.65991
-2.6597
-2.65954
-2.65944
-2.6594
-2.65941
-2.78819
-2.78815
-2.7881
-2.78803
-2.78793
-2.78782
-2.78768
-2.78751
-2.78732
-2.7871
-2.78687
-2.78664
-2.7864
-2.78617
-2.78594
-2.78573
-2.78552
-2.78532
-2.78516
-2.78503
-2.78494
-2.7849
-2.78491
-2.91318
-2.91316
-2.91311
-2.91304
-2.91295
-2.91285
-2.91272
-2.91258
-2.91241
-2.91223
-2.91204
-2.91184
-2.91163
-2.91143
-2.91124
-2.91105
-2.91087
-2.91071
-2.91058
-2.91047
-2.9104
-2.91037
-2.91037
-3.03819
-3.0382
-3.03814
-3.03808
-3.038
-3.03791
-3.0378
-3.03767
-3.03753
-3.03737
-3.0372
-3.03703
-3.03686
-3.03669
-3.03652
-3.03636
-3.03621
-3.03608
-3.03597
-3.03588
-3.03582
-3.03579
-3.03579
-3.16325
-3.16323
-3.16319
-3.16314
-3.16307
-3.16298
-3.16289
-3.16278
-3.16265
-3.16252
-3.16238
-3.16223
-3.16208
-3.16193
-3.16179
-3.16166
-3.16153
-3.16142
-3.16133
-3.16126
-3.16121
-3.16118
-3.16118
-3.28834
-3.28828
-3.28826
-3.28821
-3.28815
-3.28808
-3.288
-3.2879
-3.28779
-3.28768
-3.28755
-3.28743
-3.2873
-3.28718
-3.28705
-3.28694
-3.28684
-3.28674
-3.28667
-3.28661
-3.28657
-3.28655
-3.28655
-3.41341
-3.41339
-3.41336
-3.41332
-3.41326
-3.41319
-3.41312
-3.41303
-3.41294
-3.41284
-3.41274
-3.41263
-3.41252
-3.41241
-3.41231
-3.41221
-3.41212
-3.41205
-3.41198
-3.41193
-3.4119
-3.41189
-3.41189
-3.53852
-3.53851
-3.53847
-3.53843
-3.53838
-3.53832
-3.53825
-3.53818
-3.5381
-3.53801
-3.53792
-3.53783
-3.53773
-3.53764
-3.53756
-3.53747
-3.5374
-3.53734
-3.53728
-3.53724
-3.53722
-3.53721
-3.53721
-3.66364
-3.66364
-3.6636
-3.66356
-3.66351
-3.66346
-3.6634
-3.66333
-3.66326
-3.66318
-3.66311
-3.66303
-3.66295
-3.66287
-3.6628
-3.66273
-3.66266
-3.66261
-3.66257
-3.66254
-3.66252
-3.66251
-3.66252
-3.78876
-3.78879
-3.78874
-3.7887
-3.78865
-3.7886
-3.78855
-3.78849
-3.78843
-3.78836
-3.7883
-3.78823
-3.78816
-3.78809
-3.78803
-3.78797
-3.78792
-3.78788
-3.78784
-3.78782
-3.7878
-3.7878
-3.78781
-3.91392
-3.91391
-3.91387
-3.91383
-3.91379
-3.91375
-3.9137
-3.91365
-3.9136
-3.91354
-3.91349
-3.91343
-3.91337
-3.91331
-3.91326
-3.91321
-3.91317
-3.91313
-3.9131
-3.91309
-3.91308
-3.91308
-3.91309
-4.03907
-4.03903
-4.03901
-4.03898
-4.03894
-4.0389
-4.03886
-4.03882
-4.03877
-4.03873
-4.03868
-4.03863
-4.03858
-4.03853
-4.03849
-4.03845
-4.03841
-4.03838
-4.03836
-4.03834
-4.03834
-4.03834
-4.03836
-4.1642
-4.16419
-4.16416
-4.16412
-4.16409
-4.16406
-4.16402
-4.16399
-4.16395
-4.16391
-4.16387
-4.16383
-4.16379
-4.16375
-4.16371
-4.16368
-4.16365
-4.16362
-4.16361
-4.16359
-4.16359
-4.1636
-4.16361
-4.28934
-4.28935
-4.28931
-4.28927
-4.28924
-4.28921
-4.28919
-4.28916
-4.28913
-4.2891
-4.28906
-4.28903
-4.289
-4.28896
-4.28893
-4.2889
-4.28888
-4.28886
-4.28885
-4.28884
-4.28884
-4.28885
-4.28886
-4.41451
-4.41449
-4.41445
-4.41442
-4.41439
-4.41437
-4.41436
-4.41434
-4.41431
-4.41429
-4.41426
-4.41423
-4.4142
-4.41418
-4.41415
-4.41413
-4.41411
-4.41409
-4.41408
-4.41408
-4.41408
-4.41409
-4.41411
-4.5397
-4.53964
-4.5396
-4.53956
-4.53955
-4.53954
-4.53953
-4.53952
-4.5395
-4.53948
-4.53946
-4.53943
-4.53941
-4.53939
-4.53937
-4.53935
-4.53933
-4.53932
-4.53931
-4.53931
-4.53932
-4.53933
-4.53935
-4.66485
-4.66481
-4.66475
-4.66471
-4.6647
-4.66471
-4.66471
-4.6647
-4.66469
-4.66468
-4.66466
-4.66464
-4.66462
-4.6646
-4.66458
-4.66457
-4.66455
-4.66454
-4.66454
-4.66454
-4.66455
-4.66456
-4.66458
-4.79
-4.78998
-4.78991
-4.78988
-4.78988
-4.78989
-4.7899
-4.78989
-4.78989
-4.78987
-4.78986
-4.78985
-4.78983
-4.78981
-4.7898
-4.78978
-4.78977
-4.78977
-4.78976
-4.78976
-4.78977
-4.78979
-4.78981
-4.91515
-4.91513
-4.91509
-4.91508
-4.91509
-4.91509
-4.91509
-4.91509
-4.91509
-4.91508
-4.91507
-4.91505
-4.91504
-4.91503
-4.91501
-4.915
-4.91499
-4.91499
-4.91498
-4.91499
-4.915
-4.91501
-4.91504
-5.04031
-5.04025
-5.04026
-5.04028
-5.0403
-5.0403
-5.0403
-5.0403
-5.04029
-5.04029
-5.04028
-5.04027
-5.04025
-5.04024
-5.04023
-5.04022
-5.04021
-5.04021
-5.0402
-5.04021
-5.04022
-5.04024
-5.04026
-5.16545
-5.16536
-5.16542
-5.16547
-5.1655
-5.1655
-5.16551
-5.1655
-5.1655
-5.16549
-5.16549
-5.16548
-5.16547
-5.16546
-5.16545
-5.16544
-5.16543
-5.16542
-5.16542
-5.16543
-5.16544
-5.16546
-5.16548
-5.29051
-5.29048
-5.29058
-5.29065
-5.29069
-5.29071
-5.29071
-5.29072
-5.29071
-5.29071
-5.2907
-5.29069
-5.29069
-5.29068
-5.29067
-5.29066
-5.29065
-5.29065
-5.29064
-5.29064
-5.29065
-5.29067
-5.29071
-5.41553
-5.41562
-5.41576
-5.41585
-5.4159
-5.41592
-5.41593
-5.41593
-5.41593
-5.41592
-5.41592
-5.41591
-5.4159
-5.4159
-5.41589
-5.41588
-5.41587
-5.41587
-5.41586
-5.41586
-5.41586
-5.41589
-5.41593
-5.54057
-5.54081
-5.54098
-5.54106
-5.54111
-5.54113
-5.54113
-5.54113
-5.54113
-5.54112
-5.54112
-5.54111
-5.54111
-5.5411
-5.5411
-5.54109
-5.54108
-5.54107
-5.54107
-5.54105
-5.54103
-5.54108
-5.54116
-5.66588
-5.66639
-5.66632
-5.66633
-5.66634
-5.66634
-5.66634
-5.66633
-5.66633
-5.66633
-5.66633
-5.66632
-5.66632
-5.66632
-5.66631
-5.66631
-5.66631
-5.6663
-5.66629
-5.66627
-5.66623
-5.66625
-5.66638
217.389
217.517
217.805
218.201
93.8653
94.0433
94.2443
94.5431
16.2911
16.3507
16.4544
16.6044
-0.777056
-0.772342
-0.761819
-0.758065
-0.953027
-0.953342
-0.950547
-0.947915
-1.11819
-1.11877
-1.12029
-1.12005
-1.26614
-1.26629
-1.26856
-1.27024
-1.39768
-1.39731
-1.39744
-1.39753
-1.52418
-1.52385
-1.52375
-1.52374
-1.6509
-1.65071
-1.65067
-1.65064
-1.77818
-1.77826
-1.77826
-1.77826
-1.90522
-1.90549
-1.90565
-1.90577
-2.03133
-2.03166
-2.03198
-2.0322
-2.15709
-2.15727
-2.15745
-2.15761
-2.28275
-2.28286
-2.28298
-2.28309
-2.40836
-2.40844
-2.40852
-2.4086
-2.53393
-2.53398
-2.53404
-2.5341
-2.65945
-2.65949
-2.65953
-2.65958
-2.78494
-2.78497
-2.785
-2.78504
-2.91039
-2.91041
-2.91044
-2.91047
-3.03581
-3.03583
-3.03585
-3.03588
-3.1612
-3.16122
-3.16124
-3.16126
-3.28657
-3.28658
-3.2866
-3.28662
-3.41191
-3.41192
-3.41194
-3.41196
-3.53723
-3.53724
-3.53726
-3.53728
-3.66254
-3.66255
-3.66256
-3.66258
-3.78783
-3.78784
-3.78785
-3.78787
-3.9131
-3.91312
-3.91313
-3.91315
-4.03837
-4.03839
-4.0384
-4.03842
-4.16363
-4.16364
-4.16366
-4.16367
-4.28888
-4.28889
-4.28891
-4.28892
-4.41413
-4.41414
-4.41415
-4.41417
-4.53936
-4.53938
-4.53939
-4.53941
-4.6646
-4.66461
-4.66462
-4.66464
-4.78983
-4.78984
-4.78985
-4.78987
-4.91505
-4.91507
-4.91508
-4.9151
-5.04028
-5.04029
-5.04031
-5.04032
-5.1655
-5.16552
-5.16553
-5.16555
-5.29073
-5.29074
-5.29076
-5.29077
-5.41596
-5.41597
-5.41598
-5.41599
-5.54119
-5.5412
-5.54121
-5.54121
-5.66641
-5.66642
-5.66643
-5.66643
219.379
219.866
220.752
221.78
223.017
224.405
225.882
227.494
229.42
231.315
232.92
234.353
235.733
236.985
238.046
238.82
239.581
239.7
239.996
95.3693
96.167
97.1506
98.3038
99.6783
101.153
102.636
104.125
105.78
107.712
109.349
110.804
112.155
113.365
114.157
114.909
115.711
116.051
116.319
16.9518
17.3926
17.8816
18.4392
19.0749
19.7834
20.5211
21.2251
21.8768
22.7043
23.475
24.188
24.9063
25.5223
25.897
26.3163
26.7845
27.0652
27.2237
-0.764409
-0.741998
-0.72302
-0.723671
-0.731797
-0.738904
-0.743903
-0.745885
-0.748744
-0.763059
-0.775147
-0.802641
-0.836525
-0.802882
-0.756806
-0.736809
-0.729228
-0.713003
-0.711643
-0.946381
-0.94479
-0.941392
-0.940763
-0.943123
-0.9456
-0.947743
-0.950212
-0.953402
-0.958126
-0.963854
-0.972099
-0.978675
-0.971148
-0.968841
-0.967525
-0.967144
-0.967963
-0.969404
-1.12108
-1.12679
-1.13034
-1.13211
-1.13413
-1.13624
-1.13857
-1.14079
-1.14322
-1.146
-1.14797
-1.14755
-1.14533
-1.14888
-1.14993
-1.14963
-1.14941
-1.14955
-1.15023
-1.27105
-1.27171
-1.27253
-1.27299
-1.27197
-1.2713
-1.27194
-1.27343
-1.27456
-1.27444
-1.27486
-1.27559
-1.27757
-1.28284
-1.28682
-1.28901
-1.29009
-1.29043
-1.2901
-1.39765
-1.39814
-1.39853
-1.39881
-1.39847
-1.39873
-1.39958
-1.40055
-1.40156
-1.40256
-1.40336
-1.40422
-1.40614
-1.40983
-1.41199
-1.41344
-1.41428
-1.41461
-1.41441
-1.5238
-1.52444
-1.52517
-1.52598
-1.5267
-1.52796
-1.52935
-1.53012
-1.53106
-1.53256
-1.53358
-1.5341
-1.53493
-1.53598
-1.53708
-1.53806
-1.5387
-1.53901
-1.53885
-1.65064
-1.65097
-1.65191
-1.65321
-1.655
-1.65648
-1.6575
-1.65828
-1.65908
-1.66
-1.66111
-1.66188
-1.66208
-1.66156
-1.66208
-1.66273
-1.6632
-1.66347
-1.66341
-1.77829
-1.77818
-1.77881
-1.77991
-1.78145
-1.78264
-1.78312
-1.78371
-1.78442
-1.78523
-1.7861
-1.78698
-1.78723
-1.78682
-1.78701
-1.78738
-1.78772
-1.78795
-1.78806
-1.90592
-1.90589
-1.90592
-1.90629
-1.90715
-1.90797
-1.90855
-1.90914
-1.90977
-1.91044
-1.91114
-1.91179
-1.91212
-1.91191
-1.91181
-1.91203
-1.91227
-1.91247
-1.91277
-2.03247
-2.03253
-2.03232
-2.03235
-2.03285
-2.03345
-2.03399
-2.03453
-2.03508
-2.03565
-2.03624
-2.03681
-2.03719
-2.03711
-2.0368
-2.03678
-2.0369
-2.03703
-2.03743
-2.15787
-2.158
-2.15796
-2.15809
-2.15846
-2.15892
-2.15939
-2.15987
-2.16037
-2.16088
-2.16139
-2.1619
-2.16236
-2.16252
-2.16224
-2.16191
-2.16168
-2.16169
-2.16213
-2.28328
-2.28342
-2.28351
-2.28368
-2.28399
-2.28438
-2.28478
-2.28521
-2.28565
-2.28611
-2.28657
-2.28702
-2.28749
-2.28773
-2.28763
-2.2873
-2.28698
-2.28702
-2.28751
-2.40875
-2.40889
-2.40902
-2.4092
-2.40948
-2.4098
-2.41016
-2.41054
-2.41094
-2.41135
-2.41176
-2.41216
-2.41253
-2.41278
-2.41287
-2.41288
-2.41292
-2.41312
-2.41366
-2.53422
-2.53436
-2.53451
-2.53469
-2.53493
-2.53521
-2.53553
-2.53587
-2.53622
-2.53659
-2.53696
-2.53732
-2.53767
-2.53796
-2.53821
-2.53855
-2.53898
-2.53919
-2.53954
-2.65968
-2.65982
-2.65996
-2.66014
-2.66035
-2.6606
-2.66088
-2.66118
-2.6615
-2.66183
-2.66217
-2.66251
-2.66284
-2.66315
-2.66347
-2.66388
-2.66436
-2.66452
-2.66462
-2.78512
-2.78524
-2.78539
-2.78555
-2.78574
-2.78597
-2.78622
-2.78649
-2.78678
-2.78708
-2.78739
-2.78769
-2.788
-2.78831
-2.78862
-2.78897
-2.7893
-2.78946
-2.7895
-2.91054
-2.91065
-2.91078
-2.91093
-2.91111
-2.91131
-2.91154
-2.91178
-2.91205
-2.91232
-2.91259
-2.91288
-2.91316
-2.91345
-2.91373
-2.91401
-2.91425
-2.9144
-2.91439
-3.03593
-3.03603
-3.03615
-3.03629
-3.03645
-3.03664
-3.03684
-3.03706
-3.0373
-3.03755
-3.0378
-3.03806
-3.03832
-3.03857
-3.03882
-3.03905
-3.03922
-3.03932
-3.03926
-3.16131
-3.1614
-3.16151
-3.16163
-3.16178
-3.16195
-3.16213
-3.16233
-3.16255
-3.16277
-3.163
-3.16323
-3.16347
-3.16369
-3.16391
-3.1641
-3.16422
-3.16429
-3.16419
-3.28666
-3.28674
-3.28684
-3.28696
-3.28709
-3.28725
-3.28741
-3.2876
-3.28779
-3.28799
-3.2882
-3.28841
-3.28862
-3.28882
-3.28901
-3.28917
-3.28927
-3.28932
-3.28925
-3.412
-3.41207
-3.41216
-3.41227
-3.41239
-3.41253
-3.41269
-3.41285
-3.41303
-3.41321
-3.4134
-3.41359
-3.41377
-3.41396
-3.41412
-3.41426
-3.41436
-3.4144
-3.41434
-3.53732
-3.53738
-3.53747
-3.53757
-3.53768
-3.53781
-3.53795
-3.5381
-3.53826
-3.53842
-3.53859
-3.53876
-3.53893
-3.53909
-3.53924
-3.53937
-3.53947
-3.53951
-3.53945
-3.66262
-3.66268
-3.66276
-3.66285
-3.66296
-3.66308
-3.6632
-3.66334
-3.66349
-3.66364
-3.66379
-3.66394
-3.66409
-3.66424
-3.66437
-3.66448
-3.66457
-3.6646
-3.66457
-3.78791
-3.78797
-3.78804
-3.78813
-3.78822
-3.78833
-3.78845
-3.78858
-3.78871
-3.78885
-3.78898
-3.78912
-3.78926
-3.78938
-3.78949
-3.78958
-3.78964
-3.78965
-3.78961
-3.91318
-3.91324
-3.91331
-3.91339
-3.91348
-3.91358
-3.91369
-3.91381
-3.91393
-3.91405
-3.91418
-3.9143
-3.91442
-3.91453
-3.91462
-3.91468
-3.9147
-3.91467
-3.91457
-4.03845
-4.0385
-4.03857
-4.03864
-4.03873
-4.03882
-4.03892
-4.03903
-4.03914
-4.03926
-4.03937
-4.03949
-4.03959
-4.03968
-4.03975
-4.03979
-4.03977
-4.0397
-4.03955
-4.16371
-4.16376
-4.16382
-4.16389
-4.16397
-4.16406
-4.16415
-4.16425
-4.16435
-4.16446
-4.16457
-4.16467
-4.16476
-4.16485
-4.1649
-4.16493
-4.16489
-4.16481
-4.16464
-4.28895
-4.289
-4.28906
-4.28913
-4.2892
-4.28928
-4.28937
-4.28946
-4.28956
-4.28966
-4.28976
-4.28985
-4.28994
-4.29002
-4.29007
-4.29009
-4.29006
-4.28999
-4.28984
-4.4142
-4.41424
-4.4143
-4.41436
-4.41443
-4.41451
-4.41459
-4.41467
-4.41476
-4.41486
-4.41495
-4.41504
-4.41513
-4.4152
-4.41526
-4.41528
-4.41526
-4.41519
-4.41504
-4.53943
-4.53948
-4.53953
-4.53959
-4.53965
-4.53972
-4.5398
-4.53988
-4.53996
-4.54005
-4.54014
-4.54023
-4.54032
-4.54039
-4.54045
-4.54049
-4.54048
-4.54041
-4.54024
-4.66467
-4.66471
-4.66476
-4.66481
-4.66487
-4.66494
-4.66501
-4.66508
-4.66516
-4.66524
-4.66533
-4.66542
-4.6655
-4.66559
-4.66565
-4.6657
-4.66571
-4.66563
-4.66545
-4.7899
-4.78994
-4.78998
-4.79003
-4.79009
-4.79015
-4.79021
-4.79028
-4.79035
-4.79043
-4.79051
-4.7906
-4.79069
-4.79078
-4.79086
-4.79092
-4.79095
-4.79087
-4.79068
-4.91512
-4.91516
-4.9152
-4.91525
-4.9153
-4.91535
-4.91541
-4.91547
-4.91554
-4.91561
-4.91569
-4.91578
-4.91587
-4.91597
-4.91606
-4.91614
-4.91618
-4.91609
-4.91589
-5.04035
-5.04038
-5.04042
-5.04046
-5.0405
-5.04055
-5.0406
-5.04066
-5.04072
-5.04078
-5.04086
-5.04095
-5.04104
-5.04115
-5.04126
-5.04136
-5.0414
-5.0413
-5.04103
-5.16557
-5.1656
-5.16563
-5.16567
-5.1657
-5.16574
-5.16579
-5.16584
-5.16589
-5.16595
-5.16602
-5.1661
-5.1662
-5.16631
-5.16644
-5.16658
-5.16666
-5.16653
-5.16621
-5.29079
-5.29082
-5.29084
-5.29087
-5.2909
-5.29093
-5.29097
-5.29101
-5.29105
-5.29111
-5.29117
-5.29124
-5.29134
-5.29146
-5.29161
-5.2918
-5.29196
-5.29185
-5.29153
-5.41601
-5.41603
-5.41605
-5.41607
-5.41609
-5.41612
-5.41615
-5.41618
-5.41621
-5.41625
-5.4163
-5.41636
-5.41644
-5.41656
-5.41673
-5.41699
-5.4173
-5.41726
-5.417
-5.54122
-5.54124
-5.54125
-5.54126
-5.54128
-5.5413
-5.54131
-5.54134
-5.54136
-5.54139
-5.54142
-5.54146
-5.54152
-5.5416
-5.54175
-5.54207
-5.54263
-5.54282
-5.54279
-5.66644
-5.66645
-5.66645
-5.66646
-5.66647
-5.66648
-5.66649
-5.6665
-5.66651
-5.66652
-5.66653
-5.66655
-5.66658
-5.66662
-5.6667
-5.66693
-5.66756
-5.66825
-5.66887
)
;

boundaryField
{
    leftWall
    {
        type            calculated;
        value           nonuniform List<scalar> 
50
(
740.641
681.82
623.038
564.297
505.596
446.937
388.322
329.749
238.234
113.986
25.8288
-0.743676
-0.965411
-1.15298
-1.29147
-1.41629
-1.54081
-1.66527
-1.78979
-1.91439
-2.03906
-2.1638
-2.28859
-2.41341
-2.53831
-2.66324
-2.78819
-2.91318
-3.03819
-3.16325
-3.28834
-3.41341
-3.53852
-3.66364
-3.78876
-3.91392
-4.03907
-4.1642
-4.28934
-4.41451
-4.5397
-4.66485
-4.79
-4.91515
-5.04031
-5.16545
-5.29051
-5.41553
-5.54057
-5.66588
)
;
    }
    rightWall
    {
        type            calculated;
        value           nonuniform List<scalar> 
50
(
741.134
682.418
623.887
565.293
506.686
448.124
389.626
331.199
239.996
116.319
27.2237
-0.711643
-0.969404
-1.15023
-1.2901
-1.41441
-1.53885
-1.66341
-1.78806
-1.91277
-2.03743
-2.16213
-2.28751
-2.41366
-2.53954
-2.66462
-2.7895
-2.91439
-3.03926
-3.16419
-3.28925
-3.41434
-3.53945
-3.66457
-3.78961
-3.91457
-4.03955
-4.16464
-4.28984
-4.41504
-4.54024
-4.66545
-4.79068
-4.91589
-5.04103
-5.16621
-5.29153
-5.417
-5.54279
-5.66887
)
;
    }
    lowerWall
    {
        type            calculated;
        value           nonuniform List<scalar> 
62
(
770.07
769.895
769.55
769.036
768.364
767.548
766.603
765.548
764.404
763.194
761.938
760.66
759.38
758.114
756.877
755.694
754.6
753.65
752.819
752.068
751.7
751.454
751.323
721.897
662.975
604.033
545.073
486.101
427.109
368.084
309.048
279.979
280.108
280.398
280.796
724.83
665.921
607.135
548.489
489.795
430.911
371.746
312.382
754.253
754.636
755.49
756.384
757.363
758.374
759.345
760.464
761.623
762.766
763.832
764.878
766.053
767.48
768.466
769.28
769.865
770.253
770.524
)
;
    }
    atmosphere
    {
        type            calculated;
        value           nonuniform List<scalar> 
46
(
-5.7291
-5.72904
-5.72904
-5.72904
-5.72904
-5.72904
-5.72904
-5.72904
-5.72904
-5.72904
-5.72904
-5.72904
-5.72904
-5.72904
-5.72904
-5.72904
-5.72904
-5.72904
-5.72904
-5.72904
-5.72904
-5.72904
-5.72904
-5.72904
-5.72904
-5.72904
-5.72904
-5.72905
-5.72905
-5.72905
-5.72906
-5.72907
-5.72907
-5.72908
-5.72908
-5.72909
-5.7291
-5.7291
-5.72911
-5.72911
-5.72911
-5.72911
-5.72911
-5.7291
-5.72907
-5.7329
)
;
    }
    defaultFaces
    {
        type            empty;
    }
}


// ************************************************************************* //
