/*--------------------------------*- C++ -*----------------------------------*\
  =========                 |
  \\      /  F ield         | OpenFOAM: The Open Source CFD Toolbox
   \\    /   O peration     | Website:  https://openfoam.org
    \\  /    A nd           | Version:  9
     \\/     M anipulation  |
\*---------------------------------------------------------------------------*/
FoamFile
{
    format      ascii;
    class       volVectorField;
    location    "265";
    object      U;
}
// * * * * * * * * * * * * * * * * * * * * * * * * * * * * * * * * * * * * * //

dimensions      [0 1 -1 0 0 0 0];

internalField   nonuniform List<vector> 
12225
(
(9.85699 -0.88664 0)
(9.6663 -0.740717 0)
(9.45579 -0.429421 0)
(9.22455 -0.222146 0)
(9.00654 -0.1064 0)
(8.81445 -0.0458187 0)
(8.6476 -0.0151292 0)
(8.50543 0.000485622 0)
(8.38383 0.00841189 0)
(8.28111 0.0122988 0)
(8.19279 0.0139904 0)
(8.11668 0.0150147 0)
(8.0501 0.0153512 0)
(7.99121 0.015576 0)
(7.93847 0.015405 0)
(7.89231 0.0160932 0)
(7.83963 0.0192583 0)
(7.83056 0.00981332 0)
(10.0545 0.227709 0)
(10.1213 0.326963 0)
(10.1196 0.261651 0)
(10.0856 0.18659 0)
(10.0435 0.134694 0)
(9.99676 0.10113 0)
(9.94405 0.07929 0)
(9.88533 0.0645646 0)
(9.824 0.0542513 0)
(9.76152 0.0466558 0)
(9.7001 0.040882 0)
(9.64035 0.0363112 0)
(9.58311 0.0326401 0)
(9.52886 0.0297347 0)
(9.47708 0.0272184 0)
(9.42976 0.0258877 0)
(9.38216 0.022457 0)
(9.34696 0.0314903 0)
(10.0035 0.0581549 0)
(10.0305 0.0559498 0)
(10.056 0.033774 0)
(10.0704 0.0328858 0)
(10.077 0.0406331 0)
(10.0779 0.0465291 0)
(10.0726 0.0493412 0)
(10.0615 0.0502827 0)
(10.0463 0.0501749 0)
(10.0279 0.0494543 0)
(10.0074 0.0483998 0)
(9.98524 0.0472223 0)
(9.96217 0.046012 0)
(9.93864 0.0449058 0)
(9.91483 0.0437679 0)
(9.89157 0.0432645 0)
(9.8685 0.0422244 0)
(9.84674 0.0436135 0)
(9.99772 0.0109486 0)
(10.0111 0.0266191 0)
(10.035 0.0371212 0)
(10.0525 0.0480639 0)
(10.0644 0.0554321 0)
(10.0735 0.0581633 0)
(10.0796 0.0583301 0)
(10.0825 0.0575837 0)
(10.0829 0.0565283 0)
(10.0814 0.0553238 0)
(10.0783 0.0540388 0)
(10.074 0.0527924 0)
(10.0687 0.0515733 0)
(10.0627 0.0504837 0)
(10.056 0.0494055 0)
(10.0492 0.0487417 0)
(10.0422 0.0478496 0)
(10.0353 0.0476939 0)
(9.99935 0.00709988 0)
(10.009 0.0316941 0)
(10.0275 0.0439061 0)
(10.0418 0.0499059 0)
(10.0528 0.0535934 0)
(10.0629 0.0552145 0)
(10.0716 0.0554895 0)
(10.0784 0.0551936 0)
(10.0835 0.0546418 0)
(10.0874 0.0539269 0)
(10.0903 0.0531025 0)
(10.0922 0.0522628 0)
(10.0934 0.0514191 0)
(10.0941 0.0506422 0)
(10.0943 0.049877 0)
(10.0944 0.049317 0)
(10.0943 0.0486481 0)
(10.0942 0.0481325 0)
(10.0003 0.00914877 0)
(10.0083 0.0312099 0)
(10.0227 0.0409424 0)
(10.035 0.0453823 0)
(10.0451 0.0490214 0)
(10.0548 0.0513502 0)
(10.0638 0.0523239 0)
(10.0715 0.0525485 0)
(10.078 0.0524035 0)
(10.0836 0.0520263 0)
(10.0884 0.0514918 0)
(10.0927 0.0508865 0)
(10.0963 0.0502424 0)
(10.0996 0.049609 0)
(10.1025 0.0489664 0)
(10.1053 0.0483932 0)
(10.1079 0.047737 0)
(10.1105 0.0469895 0)
(10.0004 0.00892299 0)
(10.0071 0.0271098 0)
(10.0191 0.0364125 0)
(10.0302 0.0413821 0)
(10.0396 0.0453968 0)
(10.0487 0.0480536 0)
(10.0573 0.0493131 0)
(10.065 0.0497713 0)
(10.0718 0.0498302 0)
(10.0779 0.049635 0)
(10.0835 0.0492627 0)
(10.0886 0.0487888 0)
(10.0932 0.048254 0)
(10.0975 0.0476923 0)
(10.1016 0.0470984 0)
(10.1055 0.0464945 0)
(10.1092 0.045795 0)
(10.113 0.0449238 0)
(10.0004 0.00789986 0)
(10.006 0.0233859 0)
(10.0161 0.0327328 0)
(10.0263 0.0380916 0)
(10.0352 0.0420765 0)
(10.0436 0.0447495 0)
(10.0518 0.0461486 0)
(10.0593 0.046768 0)
(10.066 0.0469725 0)
(10.0722 0.046906 0)
(10.078 0.0466464 0)
(10.0834 0.0462619 0)
(10.0884 0.045796 0)
(10.0931 0.0452741 0)
(10.0977 0.0446962 0)
(10.102 0.0440592 0)
(10.1063 0.0433078 0)
(10.1105 0.0423697 0)
(10.0004 0.00694991 0)
(10.005 0.0204225 0)
(10.0137 0.0294471 0)
(10.0229 0.0348478 0)
(10.0312 0.0386886 0)
(10.0392 0.0413388 0)
(10.0469 0.042857 0)
(10.0541 0.0436142 0)
(10.0607 0.0439333 0)
(10.0669 0.0439638 0)
(10.0726 0.0437855 0)
(10.0781 0.0434627 0)
(10.0832 0.0430385 0)
(10.0881 0.0425349 0)
(10.0928 0.0419535 0)
(10.0973 0.0412835 0)
(10.1017 0.0404858 0)
(10.106 0.0395115 0)
(10.0004 0.00612249 0)
(10.0043 0.0178515 0)
(10.0116 0.0262654 0)
(10.0199 0.0315641 0)
(10.0277 0.0352784 0)
(10.0352 0.0378919 0)
(10.0424 0.0394884 0)
(10.0494 0.0403469 0)
(10.0558 0.0407511 0)
(10.0618 0.040853 0)
(10.0675 0.0407337 0)
(10.0729 0.0404538 0)
(10.078 0.0400546 0)
(10.0829 0.0395573 0)
(10.0877 0.0389648 0)
(10.0922 0.0382672 0)
(10.0966 0.0374368 0)
(10.1009 0.0364489 0)
(10.0003 0.00536421 0)
(10.0037 0.0155399 0)
(10.0099 0.0232241 0)
(10.0173 0.0283245 0)
(10.0245 0.0318962 0)
(10.0315 0.0344322 0)
(10.0384 0.0360526 0)
(10.045 0.0369737 0)
(10.0512 0.0374371 0)
(10.0571 0.0375901 0)
(10.0627 0.0375135 0)
(10.068 0.0372637 0)
(10.0731 0.0368803 0)
(10.0779 0.0363845 0)
(10.0826 0.0357819 0)
(10.087 0.0350659 0)
(10.0914 0.0342191 0)
(10.0956 0.0332358 0)
(10.0003 0.00469974 0)
(10.0032 0.0135984 0)
(10.0086 0.0205752 0)
(10.0152 0.0254094 0)
(10.0219 0.0288145 0)
(10.0286 0.031244 0)
(10.0351 0.0328443 0)
(10.0414 0.0337909 0)
(10.0474 0.0342868 0)
(10.0531 0.0344701 0)
(10.0586 0.0344197 0)
(10.0638 0.0341887 0)
(10.0687 0.0338149 0)
(10.0735 0.03332 0)
(10.0781 0.0327119 0)
(10.0825 0.031989 0)
(10.0867 0.0311411 0)
(10.0907 0.0301767 0)
(10.0003 0.004085 0)
(10.0028 0.0118287 0)
(10.0075 0.0180739 0)
(10.0134 0.0225659 0)
(10.0197 0.0257699 0)
(10.0259 0.0280676 0)
(10.0321 0.0296153 0)
(10.0381 0.0305603 0)
(10.0439 0.0310706 0)
(10.0495 0.0312711 0)
(10.0548 0.0312373 0)
(10.0598 0.0310196 0)
(10.0647 0.0306537 0)
(10.0693 0.0301616 0)
(10.0738 0.0295539 0)
(10.0781 0.0288337 0)
(10.0822 0.0279963 0)
(10.0861 0.0270611 0)
(10.0002 0.0034499 0)
(10.0024 0.00998974 0)
(10.0064 0.0153913 0)
(10.0117 0.0194158 0)
(10.0174 0.0223352 0)
(10.0232 0.0244413 0)
(10.029 0.0258858 0)
(10.0347 0.0267916 0)
(10.0403 0.0272918 0)
(10.0456 0.0274931 0)
(10.0508 0.0274656 0)
(10.0557 0.0272557 0)
(10.0604 0.0268968 0)
(10.0649 0.0264109 0)
(10.0693 0.0258108 0)
(10.0734 0.0251041 0)
(10.0774 0.0242914 0)
(10.0812 0.0233993 0)
(10.0002 0.00279042 0)
(10.002 0.00807978 0)
(10.0055 0.0125376 0)
(10.0101 0.015965 0)
(10.0153 0.0184974 0)
(10.0206 0.0203367 0)
(10.026 0.0216141 0)
(10.0314 0.0224295 0)
(10.0367 0.0228832 0)
(10.0418 0.0230612 0)
(10.0468 0.0230242 0)
(10.0515 0.0228138 0)
(10.0561 0.02246 0)
(10.0604 0.0219843 0)
(10.0646 0.021401 0)
(10.0686 0.0207209 0)
(10.0724 0.0199488 0)
(10.0761 0.0191151 0)
(10.0002 0.00210592 0)
(10.0017 0.00610083 0)
(10.0047 0.00952143 0)
(10.0088 0.0122182 0)
(10.0134 0.0142449 0)
(10.0183 0.0157249 0)
(10.0233 0.0167567 0)
(10.0283 0.017416 0)
(10.0333 0.0177741 0)
(10.0382 0.0178945 0)
(10.0429 0.0178255 0)
(10.0475 0.0176019 0)
(10.0518 0.0172491 0)
(10.056 0.0167867 0)
(10.0601 0.0162292 0)
(10.0639 0.0155888 0)
(10.0675 0.0148726 0)
(10.071 0.0141113 0)
(10.0002 0.0013935 0)
(10.0015 0.00403895 0)
(10.0041 0.00632678 0)
(10.0076 0.00815902 0)
(10.0118 0.00954959 0)
(10.0163 0.0105623 0)
(10.0209 0.0112578 0)
(10.0256 0.0116847 0)
(10.0303 0.0118879 0)
(10.035 0.0119082 0)
(10.0395 0.011779 0)
(10.0438 0.0115253 0)
(10.048 0.0111667 0)
(10.052 0.0107187 0)
(10.0559 0.010194 0)
(10.0595 0.00960397 0)
(10.063 0.00895567 0)
(10.0664 0.00827759 0)
(10.0001 0.000636851 0)
(10.0013 0.0018425 0)
(10.0036 0.00288175 0)
(10.0068 0.00370765 0)
(10.0107 0.00432133 0)
(10.0148 0.00474485 0)
(10.0192 0.00500107 0)
(10.0236 0.00510988 0)
(10.0281 0.00509067 0)
(10.0325 0.00496179 0)
(10.0368 0.00473897 0)
(10.041 0.00443506 0)
(10.045 0.00406088 0)
(10.0488 0.0036259 0)
(10.0525 0.00313857 0)
(10.056 0.00260717 0)
(10.0594 0.00203675 0)
(10.0626 0.00145115 0)
(10.0001 -0.000207035 0)
(10.0012 -0.00061025 0)
(10.0034 -0.000986626 0)
(10.0065 -0.00132788 0)
(10.0102 -0.0016327 0)
(10.0143 -0.00191532 0)
(10.0185 -0.00219352 0)
(10.0228 -0.00247934 0)
(10.0271 -0.00277999 0)
(10.0313 -0.00310093 0)
(10.0355 -0.00344623 0)
(10.0395 -0.00381801 0)
(10.0434 -0.00421662 0)
(10.0471 -0.00464109 0)
(10.0507 -0.00508955 0)
(10.0541 -0.00555897 0)
(10.0573 -0.00604793 0)
(10.0604 -0.00653943 0)
(10.0001 -0.00101409 0)
(10.0013 -0.00296317 0)
(10.0037 -0.00470429 0)
(10.007 -0.00615792 0)
(10.0108 -0.00732019 0)
(10.015 -0.00825108 0)
(10.0193 -0.00901187 0)
(10.0237 -0.00964449 0)
(10.028 -0.0101831 0)
(10.0323 -0.010659 0)
(10.0364 -0.0110967 0)
(10.0404 -0.0115127 0)
(10.0443 -0.0119179 0)
(10.0479 -0.0123194 0)
(10.0514 -0.012722 0)
(10.0548 -0.0131276 0)
(10.058 -0.0135385 0)
(10.061 -0.0139438 0)
(10.0002 -0.00170997 0)
(10.0015 -0.00501782 0)
(10.0041 -0.00795321 0)
(10.0078 -0.0103137 0)
(10.012 -0.01212 0)
(10.0164 -0.0135224 0)
(10.021 -0.0146268 0)
(10.0255 -0.0154903 0)
(10.03 -0.0161695 0)
(10.0343 -0.0167228 0)
(10.0385 -0.0171945 0)
(10.0426 -0.017613 0)
(10.0464 -0.0179972 0)
(10.0501 -0.0183606 0)
(10.0536 -0.0187125 0)
(10.0569 -0.019058 0)
(10.0601 -0.0194014 0)
(10.063 -0.0197355 0)
(10.0002 -0.00237071 0)
(10.0016 -0.00704795 0)
(10.0047 -0.0112001 0)
(10.009 -0.014378 0)
(10.0137 -0.0166821 0)
(10.0185 -0.0184232 0)
(10.0233 -0.0197612 0)
(10.0281 -0.0207669 0)
(10.0328 -0.0215216 0)
(10.0373 -0.0221063 0)
(10.0416 -0.0225773 0)
(10.0457 -0.0229711 0)
(10.0495 -0.023314 0)
(10.0532 -0.0236253 0)
(10.0567 -0.0239179 0)
(10.06 -0.0241996 0)
(10.0632 -0.0244755 0)
(10.0662 -0.0247413 0)
(10.0002 -0.00298868 0)
(10.0018 -0.0091043 0)
(10.0054 -0.0144706 0)
(10.0105 -0.0183673 0)
(10.0159 -0.0211178 0)
(10.0211 -0.0231461 0)
(10.0263 -0.0246075 0)
(10.0314 -0.0256271 0)
(10.0362 -0.026359 0)
(10.0409 -0.0269129 0)
(10.0453 -0.0273453 0)
(10.0494 -0.0276916 0)
(10.0533 -0.027981 0)
(10.0571 -0.0282357 0)
(10.0606 -0.02847 0)
(10.0639 -0.028692 0)
(10.067 -0.0289073 0)
(10.07 -0.0291133 0)
(10.0001 -0.00353188 0)
(10.0018 -0.01156 0)
(10.0062 -0.017907 0)
(10.0123 -0.0220103 0)
(10.0183 -0.0250815 0)
(10.024 -0.0274955 0)
(10.0296 -0.0291382 0)
(10.035 -0.0301526 0)
(10.0401 -0.0308092 0)
(10.0449 -0.0312725 0)
(10.0493 -0.03161 0)
(10.0536 -0.0318622 0)
(10.0576 -0.0320629 0)
(10.0613 -0.0322358 0)
(10.0648 -0.0323943 0)
(10.0681 -0.0325458 0)
(10.0712 -0.0326937 0)
(10.0742 -0.0328346 0)
(9.99991 -0.00337527 0)
(10.0016 -0.0149909 0)
(10.0073 -0.0227479 0)
(10.0142 -0.0262604 0)
(10.0206 -0.0288489 0)
(10.0268 -0.0312173 0)
(10.0331 -0.032942 0)
(10.039 -0.0340335 0)
(10.0444 -0.0347366 0)
(10.0494 -0.0352034 0)
(10.054 -0.0355041 0)
(10.0583 -0.0356929 0)
(10.0623 -0.0358158 0)
(10.066 -0.0359037 0)
(10.0694 -0.0359745 0)
(10.0725 -0.0360382 0)
(10.0754 -0.0360995 0)
(10.0781 -0.0361568 0)
(9.99859 -0.000382178 0)
(9.99903 -0.0158007 0)
(10.0076 -0.0274435 0)
(10.0166 -0.0325025 0)
(10.0238 -0.034881 0)
(10.0306 -0.0362396 0)
(10.0376 -0.0369945 0)
(10.0441 -0.0374648 0)
(10.0498 -0.0378165 0)
(10.0549 -0.0380662 0)
(10.0595 -0.0382134 0)
(10.0635 -0.0382832 0)
(10.0671 -0.0383053 0)
(10.0703 -0.0383012 0)
(10.073 -0.0382857 0)
(10.0755 -0.0382675 0)
(10.0776 -0.0382503 0)
(10.0794 -0.038232 0)
(9.99487 0.00140537 0)
(9.99287 -0.00812582 0)
(10.006 -0.0203354 0)
(10.0202 -0.0322699 0)
(10.0306 -0.0404788 0)
(10.0392 -0.0441551 0)
(10.0467 -0.0450712 0)
(10.0529 -0.0449305 0)
(10.0578 -0.0444668 0)
(10.0616 -0.0438731 0)
(10.0646 -0.0432305 0)
(10.0667 -0.0425954 0)
(10.0682 -0.042002 0)
(10.069 -0.0414589 0)
(10.0693 -0.0409746 0)
(10.0692 -0.0405472 0)
(10.0687 -0.0401731 0)
(10.0679 -0.0398262 0)
(9.9947 -0.0305775 0)
(9.99943 -0.0228514 0)
(10.0146 -0.00262232 0)
(10.0304 -0.00190475 0)
(10.0434 -0.0116584 0)
(10.0533 -0.0209262 0)
(10.0594 -0.0272869 0)
(10.0618 -0.0315162 0)
(10.0615 -0.034293 0)
(10.059 -0.0359911 0)
(10.055 -0.0369244 0)
(10.0497 -0.037359 0)
(10.0434 -0.0374852 0)
(10.0364 -0.0374233 0)
(10.0288 -0.0372622 0)
(10.0209 -0.0370597 0)
(10.0128 -0.0368791 0)
(10.0045 -0.0366877 0)
(10.0274 -0.183007 0)
(10.0766 -0.288325 0)
(10.0871 -0.247822 0)
(10.0777 -0.186561 0)
(10.0663 -0.140325 0)
(10.0537 -0.108245 0)
(10.0365 -0.0858984 0)
(10.0145 -0.0704402 0)
(9.98934 -0.0596692 0)
(9.9623 -0.0518929 0)
(9.93431 -0.0460701 0)
(9.90599 -0.0415721 0)
(9.8778 -0.0380155 0)
(9.85009 -0.0351387 0)
(9.82309 -0.0327751 0)
(9.79692 -0.0308509 0)
(9.77181 -0.0293314 0)
(9.74781 -0.0285144 0)
(9.93575 0.689541 0)
(9.86827 0.609595 0)
(9.76458 0.380605 0)
(9.62661 0.21741 0)
(9.48587 0.119241 0)
(9.35717 0.0631586 0)
(9.24264 0.0315463 0)
(9.14105 0.0135946 0)
(9.05138 0.00324087 0)
(8.97239 -0.00281978 0)
(8.90247 -0.00637308 0)
(8.84028 -0.00849129 0)
(8.78457 -0.00973771 0)
(8.73445 -0.0104956 0)
(8.68901 -0.0109762 0)
(8.64766 -0.0112523 0)
(8.60946 -0.0114764 0)
(8.57411 -0.0121146 0)
(0.00489755 -0.0114571 -8.52973e-19)
(0.016743 -0.0176943 7.42655e-19)
(0.0267209 -0.0148225 0)
(0.0327838 -0.00821066 0)
(0.0339728 -0.000851415 0)
(0.0303306 0.00557539 -3.85266e-19)
(0.0229748 0.0103698 0)
(0.0128054 0.0135649 0)
(0.000558649 0.0155294 0)
(-0.013225 0.0167057 0)
(-0.028223 0.0174758 2.25018e-19)
(-0.0442566 0.0180841 0)
(-0.0612241 0.0186483 0)
(-0.0790704 0.0192108 0)
(-0.0977633 0.0197775 0)
(-0.117276 0.0203414 1.24654e-19)
(-0.137583 0.0208929 0)
(-0.158655 0.0214257 0)
(-0.180461 0.0219364 0)
(-0.202968 0.0224252 0)
(-0.226145 0.0228921 0)
(-0.249961 0.0233369 0)
(-0.274395 0.0237565 0)
(-0.299436 0.0241533 7.38998e-20)
(-0.325084 0.0245499 -7.08696e-20)
(-0.351347 0.0249886 6.82227e-20)
(-0.378259 0.0255036 6.58823e-20)
(-0.40584 0.0261761 0)
(-0.434036 0.0272296 0)
(-0.462775 0.0286035 -6.02356e-20)
(-0.492065 0.0306089 -5.84704e-20)
(-0.521717 0.0337426 0)
(-0.551568 0.0372545 0)
(-0.581571 0.044309 -5.39757e-20)
(-0.612845 0.0594817 0)
(-0.647858 0.0732143 0)
(-0.685952 0.0756317 5.7466e-20)
(-0.723547 0.047558 0)
(-0.760547 0.0320647 7.65578e-20)
(-0.796914 0.0460173 1.46377e-19)
(-0.839415 0.0386382 0)
(-0.878722 0.023399 0)
(-0.914237 0.0248887 0)
(-0.951019 0.0339425 0)
(-0.991547 0.0346392 0)
(-1.03174 0.0348136 1.18645e-19)
(-1.07216 0.0347499 1.15262e-19)
(-1.11266 0.0346421 1.12066e-19)
(-1.15322 0.0344556 0)
(-1.19377 0.034216 -1.06235e-19)
(-1.23426 0.0339328 0)
(-1.27466 0.0336217 1.01076e-19)
(-1.31493 0.0332909 9.87166e-20)
(-1.35505 0.0329459 0)
(-1.395 0.0325906 0)
(-1.43477 0.0322257 0)
(-1.47434 0.0318526 9.04866e-20)
(-1.51369 0.0314702 0)
(-1.55281 0.0310788 0)
(-1.59168 0.0306761 0)
(-1.63028 0.0302621 0)
(-1.66858 0.0298347 0)
(-1.70657 0.0293932 0)
(-1.74421 0.0289356 0)
(-1.78147 0.0284615 0)
(-1.81834 0.0279688 -7.68324e-20)
(-1.85478 0.0274577 0)
(-1.89074 0.0269262 0)
(-1.92621 0.0263747 7.32469e-20)
(-1.96115 0.0258016 7.21253e-20)
(-1.99551 0.0252075 0)
(-2.02926 0.0245911 -6.99752e-20)
(-2.06236 0.0239531 6.89411e-20)
(-2.09477 0.0232924 0)
(-2.12646 0.0226103 -6.69424e-20)
(-2.15737 0.0219058 0)
(-2.18747 0.0211804 0)
(-2.21673 0.0204336 6.40834e-20)
(-2.24508 0.0196666 0)
(-2.2725 0.0188788 -6.22456e-20)
(-2.29895 0.0180718 0)
(-2.32437 0.0172449 6.0444e-20)
(-2.34874 0.0163994 5.95522e-20)
(-2.372 0.0155342 5.8664e-20)
(-2.39412 0.0146505 1.15556e-19)
(-2.41506 0.0137468 -1.13784e-19)
(-2.43478 0.012823 0)
(-2.45322 0.0118754 0)
(-2.47036 0.0109012 0)
(-2.48613 0.00989413 -1.06645e-19)
(-2.50049 0.00884622 -1.04834e-19)
(-2.51341 0.00774882 1.03006e-19)
(-2.52479 0.00659312 0)
(-2.53458 0.00537289 -9.92971e-20)
(-2.5427 0.00409442 -9.74143e-20)
(-2.54907 0.00279577 -9.55136e-20)
(-2.55358 0.00155475 0)
(-2.5561 0.000443884 0)
(-2.55688 -0.000530627 0)
(-2.55615 -0.00143465 -8.75314e-20)
(-2.55389 -0.0023213 0)
(-2.5501 -0.00320057 0)
(-2.54479 -0.00407655 8.10295e-20)
(-2.53794 -0.00494999 0)
(-2.52954 -0.00582006 0)
(-2.51958 -0.00668676 7.40231e-20)
(-2.50805 -0.00754874 0)
(-2.49495 -0.00840615 0)
(-2.48026 -0.00925769 -6.64387e-20)
(-2.46399 -0.0101035 -6.37689e-20)
(-2.44614 -0.0109422 0)
(-2.42671 -0.0117738 5.81991e-20)
(-2.4057 -0.012597 0)
(-2.38312 -0.0134117 -5.23014e-20)
(-2.35897 -0.0142166 0)
(-2.33327 -0.0150114 -4.60491e-20)
(-2.30602 -0.015795 -4.27811e-20)
(-2.27724 -0.0165668 0)
(-2.24695 -0.0173255 0)
(-2.21517 -0.0180704 0)
(-2.18191 -0.0188003 0)
(-2.14721 -0.0195145 0)
(-2.11109 -0.0202122 0)
(-2.07358 -0.0208923 0)
(-2.03471 -0.0215548 -1.27049e-20)
(-1.99452 -0.0221986 8.38546e-21)
(-1.95305 -0.0228241 0)
(-1.91033 -0.0234294 0)
(-1.86639 -0.0240145 0)
(-1.82129 -0.0245766 0)
(-1.77507 -0.025115 -3.09216e-20)
(-1.72778 -0.0256315 0)
(-1.67947 -0.0261277 5.2347e-20)
(-1.63018 -0.0265991 -6.36225e-20)
(-1.57997 -0.0270464 0)
(-1.52888 -0.0274692 0)
(-1.47699 -0.0278686 0)
(-1.42433 -0.028244 1.12932e-19)
(-1.37096 -0.0285968 1.26419e-19)
(-1.31694 -0.0289264 0)
(-1.26231 -0.0292337 1.54961e-19)
(-1.20713 -0.0295186 1.70077e-19)
(-1.15145 -0.0297817 -1.85801e-19)
(-1.09532 -0.0300235 0)
(-1.03878 -0.0302448 0)
(-0.981905 -0.0304464 -2.37002e-19)
(-0.924728 -0.0306291 0)
(-0.867303 -0.0307939 0)
(-0.809675 -0.0309415 0)
(-0.751891 -0.0310735 0)
(-0.693995 -0.0311909 3.38702e-19)
(-0.636028 -0.0312956 3.62059e-19)
(-0.578028 -0.0313892 0)
(-0.520034 -0.0314738 4.12451e-19)
(-0.462079 -0.0315512 0)
(-0.404193 -0.031624 0)
(-0.346405 -0.031693 4.98921e-19)
(-0.288741 -0.0317602 0)
(-0.231225 -0.0318265 5.65503e-19)
(-0.173882 -0.031905 0)
(-0.116734 -0.0320053 0)
(-0.059826 -0.0320923 6.82837e-19)
(-0.00320681 -0.0319541 0)
(0.0530016 -0.0312884 7.16563e-19)
(0.108869 -0.0303182 0)
(0.164434 -0.0293849 0)
(0.219706 -0.0285286 0)
(0.274732 -0.0277381 -6.54773e-19)
(0.329561 -0.027 0)
(0.384226 -0.0263047 6.29566e-19)
(0.438745 -0.0256407 0)
(0.493115 -0.0249955 0)
(0.547301 -0.0243492 0)
(0.601201 -0.0236717 0)
(0.654649 -0.0229048 0)
(0.707067 -0.0219401 0)
(0.75822 -0.0205111 0)
(0.803282 -0.017984 -1.11318e-18)
(0.848425 -0.0129532 0)
(0.841225 0.00402437 0)
(0.00471941 -0.0339169 1.97619e-18)
(0.0102362 -0.0327141 -1.11741e-18)
(0.00990967 -0.0195165 0)
(0.00661641 -0.00546492 3.50545e-19)
(0.000878596 0.00765608 0)
(-0.00704612 0.0189898 1.35476e-19)
(-0.0171333 0.0281496 -2.47673e-19)
(-0.0292794 0.0352009 -2.28492e-19)
(-0.0433291 0.0404982 0)
(-0.0590594 0.0445068 -1.95435e-19)
(-0.0762415 0.0476602 -9.05428e-20)
(-0.0946931 0.0502838 0)
(-0.114281 0.0525862 0)
(-0.134909 0.0546857 0)
(-0.156514 0.0566418 0)
(-0.179058 0.0584812 -6.45114e-20)
(-0.202517 0.0602137 0)
(-0.226879 0.0618426 1.15577e-19)
(-0.25214 0.0633694 0)
(-0.278303 0.0647976 0)
(-0.305379 0.066133 -1.00736e-19)
(-0.333387 0.0673858 0)
(-0.362349 0.0685699 9.34239e-20)
(-0.392298 0.0697054 -4.52302e-20)
(-0.423265 0.07082 4.38781e-20)
(-0.455272 0.0719485 -4.26759e-20)
(-0.488329 0.0731295 -4.16123e-20)
(-0.522446 0.0743892 0)
(-0.557668 0.0757145 0)
(-0.59411 0.0770378 3.93518e-20)
(-0.631805 0.0782124 -3.85946e-20)
(-0.670723 0.0790383 0)
(-0.71116 0.0794227 0)
(-0.753329 0.0797236 3.84604e-20)
(-0.796127 0.0804992 0)
(-0.837246 0.0816307 0)
(-0.876304 0.0825332 -3.89673e-20)
(-0.920074 0.0829497 0)
(-0.962699 0.084905 3.97353e-20)
(-1.00285 0.0883569 -7.65121e-20)
(-1.04104 0.0893948 0)
(-1.08078 0.0889577 0)
(-1.12137 0.0891446 -1.37358e-19)
(-1.16126 0.0895762 -1.33921e-19)
(-1.19955 0.0894901 -1.30797e-19)
(-1.23736 0.0890519 6.38068e-20)
(-1.27476 0.088409 -6.27291e-20)
(-1.31178 0.0876182 -1.84032e-19)
(-1.34845 0.0867256 1.20145e-19)
(-1.38481 0.0857589 5.90538e-20)
(-1.42087 0.0847403 0)
(-1.45665 0.0836846 -5.68887e-20)
(-1.49214 0.0826026 5.55918e-20)
(-1.52735 0.0814998 0)
(-1.56226 0.0803798 0)
(-1.59688 0.0792427 0)
(-1.63117 0.0780888 -5.22417e-20)
(-1.66515 0.0769157 0)
(-1.69878 0.075722 1.00968e-19)
(-1.73206 0.0745043 0)
(-1.76495 0.0732608 9.79506e-20)
(-1.79746 0.0719882 0)
(-1.82954 0.0706846 -9.51167e-20)
(-1.86118 0.0693467 0)
(-1.89235 0.0679732 9.24375e-20)
(-1.92302 0.0665613 -4.54468e-20)
(-1.95318 0.0651103 0)
(-1.98279 0.063618 -8.86543e-20)
(-2.01181 0.0620842 -4.38418e-20)
(-2.04023 0.0605074 -4.32449e-20)
(-2.06801 0.058888 0)
(-2.09512 0.0572248 -4.18582e-20)
(-2.12152 0.0555189 -4.15062e-20)
(-2.14719 0.0537695 0)
(-2.17209 0.0519783 4.03794e-20)
(-2.19619 0.0501449 -7.94547e-20)
(-2.21945 0.0482715 0)
(-2.24185 0.0463586 -3.87173e-20)
(-2.26335 0.0444082 0)
(-2.28391 0.0424206 1.12696e-19)
(-2.30351 0.0403985 0)
(-2.32211 0.0383422 -1.09408e-19)
(-2.33967 0.0362542 -3.59609e-20)
(-2.35618 0.0341348 3.52882e-20)
(-2.37159 0.0319866 6.94768e-20)
(-2.38587 0.0298101 -6.83688e-20)
(-2.399 0.0276076 0)
(-2.41094 0.0253791 0)
(-2.42166 0.0231256 0)
(-2.43114 0.0208457 1.91662e-19)
(-2.43936 0.0185373 6.2723e-20)
(-2.4463 0.0161982 -6.15106e-20)
(-2.45195 0.0138257 0)
(-2.45632 0.011415 -5.90437e-20)
(-2.45942 0.008961 5.77655e-20)
(-2.46131 0.00647598 5.64823e-20)
(-2.46206 0.00401185 0)
(-2.46179 0.00164769 0)
(-2.46034 -0.000587239 0)
(-2.45748 -0.0027425 5.10419e-20)
(-2.45316 -0.0048639 0)
(-2.44736 -0.00696233 -9.65341e-20)
(-2.44006 -0.00904222 -1.40289e-19)
(-2.43125 -0.0111036 9.06225e-20)
(-2.42091 -0.0131443 0)
(-2.40903 -0.0151628 4.24075e-20)
(-2.39561 -0.0171562 0)
(-2.38063 -0.0191231 7.81299e-20)
(-2.3641 -0.0210609 -3.76356e-20)
(-2.346 -0.0229681 -3.59851e-20)
(-2.32635 -0.0248423 0)
(-2.30514 -0.0266819 -9.67775e-20)
(-2.28237 -0.0284843 6.11669e-20)
(-2.25806 -0.030248 2.85149e-20)
(-2.2322 -0.0319704 0)
(-2.20482 -0.0336499 2.48075e-20)
(-2.17591 -0.035284 6.93555e-20)
(-2.14549 -0.0368711 0)
(-2.11359 -0.0384086 3.8697e-20)
(-2.08022 -0.0398944 3.47199e-20)
(-2.0454 -0.041326 3.06755e-20)
(-2.00916 -0.0427015 0)
(-1.97152 -0.044019 0)
(-1.93252 -0.0452766 0)
(-1.89218 -0.0464734 -7.33962e-21)
(-1.85055 -0.0476077 -4.28125e-21)
(-1.80765 -0.0486798 0)
(-1.76353 -0.0496894 -4.80256e-22)
(-1.71823 -0.0506385 4.10015e-21)
(-1.67179 -0.0515247 0)
(-1.62425 -0.052339 1.44485e-20)
(-1.57567 -0.0530783 3.64654e-20)
(-1.52608 -0.0537555 -2.41e-20)
(-1.47555 -0.0543709 -2.69211e-20)
(-1.42412 -0.0549201 0)
(-1.37184 -0.0554008 0)
(-1.31877 -0.0558166 0)
(-1.26496 -0.0561683 -4.92717e-20)
(-1.21047 -0.0564584 5.22384e-20)
(-1.15535 -0.0566877 1.1721e-19)
(-1.09964 -0.056858 -6.50458e-20)
(-1.0434 -0.0569705 6.81119e-20)
(-0.986685 -0.0570268 7.58196e-20)
(-0.929542 -0.0570291 0)
(-0.872022 -0.0569797 0)
(-0.814178 -0.0568812 -8.9994e-20)
(-0.756058 -0.0567357 0)
(-0.69771 -0.0565461 0)
(-0.639181 -0.0563148 2.16123e-19)
(-0.580515 -0.0560448 0)
(-0.521757 -0.0557389 1.18349e-19)
(-0.462946 -0.0554006 -1.26476e-19)
(-0.40412 -0.0550332 0)
(-0.345316 -0.0546402 1.35805e-19)
(-0.286565 -0.0542252 0)
(-0.227896 -0.0537915 0)
(-0.169336 -0.0533416 -1.55811e-19)
(-0.110908 -0.0528764 3.21237e-19)
(-0.0526339 -0.0523972 -1.67714e-19)
(0.00546232 -0.0519034 0)
(0.0633632 -0.051393 0)
(0.121082 -0.0508584 1.74803e-19)
(0.178649 -0.0502433 0)
(0.236036 -0.0494584 1.78141e-19)
(0.293223 -0.0485768 0)
(0.350221 -0.047726 0)
(0.407064 -0.0469362 0)
(0.463779 -0.0462035 1.8626e-19)
(0.520394 -0.045518 0)
(0.576933 -0.0448668 -1.88724e-19)
(0.633408 -0.0442351 0)
(0.68981 -0.0436008 0)
(0.7461 -0.0429301 3.81874e-19)
(0.802175 -0.0421641 -3.83608e-19)
(0.857862 -0.041192 0)
(0.912687 -0.0398057 0)
(0.966297 -0.0374851 0)
(1.01577 -0.0332807 1.17589e-18)
(1.06448 -0.0240119 0)
(1.09004 -0.000864713 -8.14795e-19)
(-0.000147698 -0.0414379 -8.26893e-22)
(-0.00289319 -0.0265179 1.0805e-18)
(-0.00945975 -0.00718183 0)
(-0.0180127 0.0106369 -4.39527e-19)
(-0.0280416 0.026616 0)
(-0.0392498 0.0406655 0)
(-0.0516515 0.0527045 3.88947e-23)
(-0.0653527 0.0627606 1.36454e-19)
(-0.0804305 0.0710258 1.28407e-19)
(-0.0968941 0.0778117 1.21444e-19)
(-0.114694 0.0834658 0)
(-0.133751 0.0883034 0)
(-0.153981 0.0925735 -1.03863e-19)
(-0.175308 0.0964525 -1.97877e-19)
(-0.197676 0.100056 1.88877e-19)
(-0.221047 0.103457 0)
(-0.245396 0.106699 1.7321e-19)
(-0.270714 0.10981 -8.32425e-20)
(-0.296997 0.112814 0)
(-0.324249 0.115727 1.54669e-19)
(-0.352474 0.118571 7.48161e-20)
(-0.381679 0.121366 -1.44977e-19)
(-0.411869 0.124134 -7.04122e-20)
(-0.443044 0.126897 0)
(-0.475196 0.129675 1.33576e-19)
(-0.508305 0.13248 1.30481e-19)
(-0.542343 0.135311 0)
(-0.577248 0.138155 1.25085e-19)
(-0.612916 0.140962 0)
(-0.649236 0.143628 1.20296e-19)
(-0.686094 0.146059 5.91432e-20)
(-0.723373 0.148212 0)
(-0.760965 0.15015 0)
(-0.798631 0.152211 0)
(-0.835796 0.154422 0)
(-0.87184 0.155916 0)
(-0.907086 0.156062 0)
(-0.942902 0.154965 1.06906e-19)
(-0.978737 0.153716 -1.56794e-19)
(-1.01345 0.152745 0)
(-1.04725 0.150365 0)
(-1.0815 0.147391 0)
(-1.11616 0.145337 7.2758e-23)
(-1.15035 0.143817 9.15616e-20)
(-1.18381 0.142151 1.79167e-19)
(-1.21689 0.140438 -1.75506e-19)
(-1.24969 0.138704 -8.59548e-20)
(-1.28224 0.136951 8.44375e-20)
(-1.31456 0.135176 -1.42626e-22)
(-1.34667 0.13338 8.12183e-20)
(-1.37859 0.131565 0)
(-1.4103 0.129732 7.83942e-20)
(-1.44183 0.127882 -1.55257e-22)
(-1.47315 0.126016 0)
(-1.50427 0.124133 0)
(-1.53517 0.122228 -7.33715e-20)
(-1.56585 0.1203 0)
(-1.59628 0.118343 0)
(-1.62646 0.116354 6.98772e-20)
(-1.65635 0.114329 1.37985e-19)
(-1.68595 0.112262 -6.81353e-20)
(-1.71524 0.110151 0)
(-1.74418 0.10799 6.61793e-20)
(-1.77276 0.105778 0)
(-1.80095 0.10351 6.40075e-20)
(-1.82872 0.101184 6.34077e-20)
(-1.85605 0.0987988 -1.24744e-19)
(-1.88291 0.0963513 -6.1357e-20)
(-1.90927 0.0938411 0)
(-1.9351 0.091267 1.19602e-19)
(-1.96037 0.088629 0)
(-1.98505 0.0859266 1.7456e-19)
(-2.00911 0.0831607 1.14653e-19)
(-2.0325 0.0803315 1.13034e-19)
(-2.05521 0.0774404 -1.11425e-19)
(-2.0772 0.0744886 1.6485e-19)
(-2.09843 0.0714783 0)
(-2.11887 0.0684109 0)
(-2.13849 0.0652891 -1.0505e-19)
(-2.15726 0.0621146 -1.5528e-19)
(-2.17514 0.0588903 0)
(-2.19209 0.0556184 5.02125e-20)
(-2.2081 0.0523017 0)
(-2.22312 0.0489426 -1.4564e-19)
(-2.23712 0.0455443 -1.16665e-22)
(-2.25008 0.0421091 1.02707e-22)
(-2.26196 0.0386403 9.21371e-20)
(-2.27274 0.0351406 0)
(-2.28239 0.0316131 -8.87863e-20)
(-2.29088 0.0280604 -4.37197e-23)
(-2.2982 0.0244858 0)
(-2.30434 0.0208947 0)
(-2.30929 0.0172955 0)
(-2.31303 0.0137001 8.00482e-20)
(-2.31556 0.0101252 0)
(-2.31689 0.00659244 0)
(-2.31699 0.00311759 0)
(-2.31582 -0.000309913 0)
(-2.3133 -0.00371606 0)
(-2.3094 -0.00710681 6.8639e-20)
(-2.30409 -0.0104748 0)
(-2.29734 -0.013817 6.442e-20)
(-2.28914 -0.0171308 6.23282e-20)
(-2.27948 -0.0204128 -6.02066e-20)
(-2.26833 -0.0236594 0)
(-2.25569 -0.0268666 -5.58729e-20)
(-2.24155 -0.0300307 0)
(-2.2259 -0.0331481 -5.14164e-20)
(-2.20874 -0.0362155 4.91416e-20)
(-2.19007 -0.0392294 1.41106e-19)
(-2.16989 -0.0421866 0)
(-2.14819 -0.0450837 1.2706e-19)
(-2.12498 -0.0479173 4.04351e-20)
(-2.10027 -0.050684 0)
(-2.07407 -0.0533803 7.04544e-20)
(-2.04637 -0.0560031 6.55068e-20)
(-2.0172 -0.0585489 -9.03283e-20)
(-1.98657 -0.0610144 0)
(-1.95449 -0.063396 -2.47e-20)
(-1.92099 -0.0656901 -2.20924e-20)
(-1.88608 -0.0678932 -5.93405e-20)
(-1.84978 -0.070002 0)
(-1.81213 -0.0720133 0)
(-1.77316 -0.0739243 0)
(-1.73288 -0.0757324 -9.74036e-21)
(-1.69135 -0.077436 0)
(-1.6486 -0.0790339 0)
(-1.60466 -0.0805266 2.97413e-22)
(-1.55957 -0.0819153 -2.52984e-21)
(-1.51338 -0.0831979 0)
(-1.46612 -0.0843661 0)
(-1.41786 -0.0854151 -2.22451e-20)
(-1.36862 -0.0863556 0)
(-1.31847 -0.0871907 3.38557e-20)
(-1.26745 -0.0879159 3.83825e-20)
(-1.21561 -0.0885304 0)
(-1.163 -0.0890368 0)
(-1.10969 -0.0894381 -5.59879e-20)
(-1.05571 -0.089737 -1.37277e-21)
(-1.00113 -0.0899361 -1.3831e-21)
(-0.945982 -0.0900379 0)
(-0.890327 -0.0900449 -1.60678e-19)
(-0.834213 -0.0899599 0)
(-0.77769 -0.0897867 0)
(-0.720807 -0.0895287 0)
(-0.663614 -0.08919 1.04722e-19)
(-0.606158 -0.0887744 0)
(-0.548485 -0.0882861 -2.30156e-19)
(-0.490641 -0.0877294 -1.22355e-19)
(-0.432667 -0.0871089 0)
(-0.374605 -0.0864294 -1.33999e-19)
(-0.316495 -0.0856959 0)
(-0.25837 -0.0849142 0)
(-0.200266 -0.0840893 -4.50914e-19)
(-0.142211 -0.0832263 3.11037e-19)
(-0.0842321 -0.08233 0)
(-0.0263522 -0.0814058 3.33492e-19)
(0.0314077 -0.0804595 -1.72552e-19)
(0.0890297 -0.0794949 0)
(0.146507 -0.0785087 0)
(0.203833 -0.0775042 0)
(0.261012 -0.0764876 -5.51253e-19)
(0.318063 -0.0754672 0)
(0.375016 -0.0744395 -1.90032e-19)
(0.431876 -0.0734161 0)
(0.488646 -0.0724326 0)
(0.545341 -0.0715082 0)
(0.601973 -0.0706401 0)
(0.658559 -0.0698196 0)
(0.715117 -0.0690319 0)
(0.771655 -0.0682571 -4.11467e-19)
(0.828161 -0.0674632 0)
(0.884597 -0.0665997 -2.10555e-19)
(0.940868 -0.0655786 6.35168e-19)
(0.996816 -0.0642411 0)
(1.05206 -0.0622885 0)
(1.10633 -0.0590891 -4.33545e-19)
(1.1577 -0.0534392 -4.3942e-19)
(1.20933 -0.0424611 4.44127e-19)
(1.2484 -0.0186461 4.56946e-19)
(-0.00529479 -0.0320293 -3.03375e-18)
(-0.0137034 -0.00832228 -1.29628e-18)
(-0.0241545 0.0142378 -4.69464e-19)
(-0.0362613 0.0340401 -1.67627e-19)
(-0.0493316 0.0516819 0)
(-0.0630352 0.067397 2.42935e-19)
(-0.0774367 0.0812543 -1.11068e-19)
(-0.0926847 0.0933137 0)
(-0.108906 0.103708 -9.80026e-20)
(-0.126184 0.112649 0)
(-0.144556 0.120395 1.77805e-19)
(-0.16402 0.127206 0)
(-0.184548 0.133312 8.14949e-20)
(-0.206105 0.138897 1.56446e-19)
(-0.228655 0.144097 -1.50411e-19)
(-0.252164 0.14901 0)
(-0.27661 0.153701 -1.39723e-19)
(-0.30197 0.158216 0)
(-0.328227 0.162586 0)
(-0.355364 0.166832 -1.26633e-19)
(-0.383359 0.170971 0)
(-0.412184 0.175014 -1.59919e-23)
(-0.441803 0.178964 0)
(-0.472167 0.18282 0)
(-0.503211 0.18657 1.60919e-23)
(-0.53485 0.190192 -1.07954e-19)
(-0.566982 0.193646 -1.05471e-19)
(-0.599482 0.196869 -1.03075e-19)
(-0.632213 0.199786 0)
(-0.665038 0.202315 -1.9682e-19)
(-0.697831 0.204384 0)
(-0.730484 0.205964 -9.39221e-20)
(-0.762907 0.207083 0)
(-0.794976 0.207821 0)
(-0.826512 0.208155 8.78416e-20)
(-0.857488 0.207865 0)
(-0.888155 0.206798 -8.43116e-20)
(-0.918789 0.205087 2.08543e-23)
(-0.94937 0.203137 1.61525e-19)
(-0.979688 0.201058 -1.57669e-19)
(-1.00981 0.198504 0)
(-1.03999 0.1957 0)
(-1.07016 0.193104 -7.35709e-20)
(-1.10009 0.190682 0)
(-1.12978 0.188258 -7.06189e-20)
(-1.15928 0.185833 6.92232e-20)
(-1.18865 0.183418 6.78976e-20)
(-1.21789 0.181014 0)
(-1.247 0.178617 -6.54269e-20)
(-1.276 0.176221 -6.42703e-20)
(-1.30487 0.17382 1.26206e-19)
(-1.33362 0.17141 -6.20932e-20)
(-1.36225 0.168986 -6.10657e-20)
(-1.39074 0.166543 0)
(-1.41909 0.164075 0)
(-1.44728 0.161577 5.81925e-20)
(-1.4753 0.159043 0)