/*--------------------------------*- C++ -*----------------------------------*\
  =========                 |
  \\      /  F ield         | OpenFOAM: The Open Source CFD Toolbox
   \\    /   O peration     | Website:  https://openfoam.org
    \\  /    A nd           | Version:  9
     \\/     M anipulation  |
\*---------------------------------------------------------------------------*/
FoamFile
{
    format      ascii;
    class       volScalarField;
    location    "2.7";
    object      k;
}
// * * * * * * * * * * * * * * * * * * * * * * * * * * * * * * * * * * * * * //

dimensions      [0 2 -2 0 0 0 0];

internalField   nonuniform List<scalar> 
2268
(
0.00129815
0.00350534
0.00511809
0.00637374
0.00739166
0.0082281
0.00891818
0.00949039
0.00996911
0.0103744
0.0107184
0.0109964
0.0112072
0.0113513
0.0114187
0.0113696
0.0110301
0.0104551
0.0097651
0.00889788
0.00754678
0.00524714
0.00209867
0.00302722
0.00826991
0.0116756
0.0143369
0.0165037
0.0182911
0.0197717
0.0210026
0.0220332
0.0228988
0.023613
0.0241782
0.0245919
0.0248428
0.0249012
0.0246986
0.024087
0.0230188
0.0216117
0.0196898
0.0166628
0.0119172
0.00466861
0.00444349
0.0111562
0.0153476
0.0186241
0.0213036
0.0235202
0.0253597
0.0268917
0.0281733
0.0292448
0.0301262
0.030822
0.0313273
0.0316261
0.0316826
0.0314266
0.0307394
0.0295555
0.0278762
0.0254619
0.0217209
0.0158995
0.00627837
0.00567495
0.0135286
0.0182294
0.0218855
0.0248843
0.0273721
0.0294419
0.0311688
0.0326143
0.0338219
0.0348143
0.0355978
0.0361668
0.0365036
0.0365715
0.0363052
0.0356058
0.0343926
0.0325971
0.029945
0.0258281
0.0192749
0.00763207
0.00676255
0.0156473
0.0207599
0.0246997
0.0279318
0.030618
0.032857
0.0347284
0.0362968
0.037608
0.0386868
0.0395406
0.0401641
0.0405398
0.0406331
0.040385
0.0397109
0.038518
0.0367009
0.0339653
0.0296751
0.0226068
0.00895276
0.00774639
0.017597
0.023083
0.0272618
0.0306819
0.0335245
0.0358957
0.0378798
0.039545
0.0409397
0.0420904
0.0430054
0.0436805
0.0440997
0.0442316
0.0440249
0.0434032
0.0422722
0.0405074
0.0378108
0.0335393
0.0262314
0.0105923
0.00865455
0.0194216
0.025265
0.0296616
0.0332438
0.0362154
0.0386926
0.040766
0.0425084
0.0439716
0.045184
0.046155
0.0468816
0.04735
0.0475335
0.0473874
0.0468419
0.0458096
0.0441604
0.0416105
0.0375579
0.0304492
0.0134267
0.00952536
0.0211531
0.0273452
0.0319495
0.0356779
0.038759
0.0413216
0.0434647
0.0452678
0.0467869
0.0480529
0.0490764
0.0498558
0.0503801
0.0506272
0.0505569
0.0501109
0.0492105
0.0477313
0.0454195
0.0417727
0.0355326
0.0203265
0.00167635
0.00509557
0.00689801
0.0077041
0.00803395
0.00805231
0.00768288
0.00681605
0.0059425
0.00587273
0.00606965
0.00598585
0.0057534
0.00586392
0.00607351
0.00569005
0.00443631
0.00274035
0.0012078
0.00457987
0.0111547
0.0149257
0.0168328
0.0176626
0.0176639
0.016834
0.0151469
0.0136383
0.0132841
0.0134135
0.0131386
0.0125892
0.0125385
0.0124321
0.0115968
0.00950567
0.00641894
0.0024181
0.00665096
0.0150568
0.0195643
0.0218036
0.0227069
0.0226232
0.0215947
0.0198335
0.0182752
0.0176642
0.017482
0.0170458
0.0164098
0.0160508
0.0155954
0.0144502
0.0120987
0.0085689
0.00328205
0.00867641
0.0186945
0.0234163
0.0256383
0.0264565
0.0262439
0.0250975
0.0233589
0.0218288
0.021038
0.0205979
0.0200153
0.0192763
0.0186607
0.0178953
0.0164912
0.0140374
0.0102601
0.0040141
0.0108513
0.0223805
0.0269853
0.0289794
0.0296296
0.0292809
0.0280569
0.0263613
0.0248692
0.0239435
0.0232962
0.0225768
0.021721
0.0208851
0.0198567
0.0182103
0.0156427
0.011698
0.0046616
0.0135617
0.0261593
0.0303778
0.0320344
0.0324696
0.0319849
0.0307146
0.0290751
0.0276221
0.0265859
0.0257628
0.0249097
0.0239305
0.0229049
0.0216589
0.0197992
0.0170276
0.0128717
0.00518064
0.0173257
0.0301052
0.0336659
0.034899
0.0350832
0.0344624
0.0331714
0.0316065
0.0301945
0.029062
0.0280817
0.0270924
0.0259929
0.0248071
0.0233851
0.021363
0.0183653
0.0138417
0.00573823
0.0239015
0.0343536
0.0368876
0.0376245
0.0375323
0.0367753
0.0354803
0.0340009
0.0326286
0.0314153
0.0302904
0.0291646
0.0279581
0.0266422
0.0250794
0.022948
0.0197938
0.0149244
0.00647904
0.0107117
0.023663
0.0304256
0.0353638
0.039314
0.0425486
0.0452208
0.0474479
0.0493236
0.050914
0.052255
0.0533598
0.054229
0.0548555
0.0552183
0.0552898
0.0550313
0.0543829
0.0532406
0.0514087
0.0485674
0.0442338
0.0373619
0.0121437
0.0267803
0.0343354
0.0397433
0.043979
0.047375
0.0501289
0.0523968
0.0543086
0.0559528
0.0573754
0.0585916
0.0596023
0.060392
0.0609472
0.0612545
0.0613116
0.0610979
0.06055
0.0595218
0.0577659
0.0550702
0.0517161
0.0134251
0.0297158
0.0381152
0.0440255
0.048544
0.0520573
0.0548134
0.0570262
0.0588985
0.0605515
0.0620405
0.0633786
0.0645511
0.0655369
0.066322
0.0668877
0.0672942
0.0675794
0.0677433
0.0676699
0.0669483
0.0649137
0.0624717
0.0150424
0.0330202
0.0420038
0.0483907
0.0531953
0.056784
0.0594309
0.0614269
0.0631537
0.0647664
0.0663138
0.0677991
0.0691692
0.0703883
0.0714543
0.0722545
0.0729843
0.0737644
0.0747112
0.0758811
0.0767192
0.074163
0.0714055
0.0179589
0.0376915
0.0461793
0.0530819
0.0581278
0.0616194
0.0641034
0.0656698
0.0670973
0.068631
0.070236
0.0718914
0.0734329
0.0747646
0.0758263
0.0767633
0.07769
0.078688
0.0801447
0.0826773
0.0855945
0.0820308
0.0790262
0.0215381
0.041129
0.0501833
0.0573895
0.0615166
0.0653371
0.0680473
0.0695131
0.0706402
0.0720397
0.0737047
0.0755078
0.077149
0.0785973
0.0799279
0.0810217
0.0819204
0.0824692
0.0835978
0.0859809
0.0870867
0.0855893
0.0832958
0.0226411
0.0418762
0.0527103
0.0590259
0.0630971
0.0666713
0.0699601
0.0719125
0.0733173
0.0749191
0.0769198
0.0790325
0.0807311
0.0822307
0.0833441
0.0845304
0.0854724
0.0853503
0.0856978
0.0874188
0.0884554
0.0883133
0.0873017
0.0202288
0.0395598
0.0525564
0.0597518
0.064179
0.0677652
0.0713235
0.0738521
0.0757523
0.0775554
0.0798308
0.0822815
0.0834575
0.0838414
0.0842777
0.0849612
0.0856653
0.0858104
0.0866117
0.0883963
0.0901174
0.08991
0.0893519
0.0169626
0.0345957
0.0488683
0.0578354
0.0643473
0.0694339
0.0735741
0.0762223
0.0781789
0.079448
0.0806848
0.0820493
0.0825439
0.0826865
0.0828729
0.0831288
0.0834867
0.0838428
0.0849175
0.0866942
0.0884265
0.0886634
0.0869265
0.0142868
0.03156
0.0466894
0.0569452
0.0651556
0.0713306
0.0747596
0.0765246
0.0779172
0.0786055
0.0791032
0.0797551
0.0801595
0.0804142
0.0805304
0.0806118
0.0807692
0.0810416
0.0818393
0.0831668
0.0844796
0.0848116
0.08295
0.0146622
0.0339342
0.0480989
0.0579004
0.0655422
0.0705055
0.0728699
0.0743512
0.0754162
0.0760107
0.0764561
0.076936
0.0773169
0.0775657
0.0776554
0.0776787
0.0777404
0.0779253
0.0784318
0.0792544
0.0800287
0.080049
0.0785015
0.0171196
0.0378636
0.0496434
0.0578766
0.0639763
0.0678201
0.070027
0.0714628
0.0724547
0.0730977
0.0735768
0.0739906
0.0743047
0.0744914
0.0745514
0.0745584
0.074599
0.0747464
0.0750656
0.0755
0.0757982
0.0755019
0.0741844
0.0194702
0.0396424
0.0498119
0.0567201
0.0617164
0.065048
0.0671676
0.0685857
0.06957
0.0702492
0.0707388
0.071103
0.0713508
0.0714874
0.0715395
0.0715667
0.0716251
0.0717486
0.071932
0.0720928
0.0720542
0.07154
0.0703646
0.0201844
0.0399464
0.049084
0.0550899
0.0593933
0.0623901
0.064427
0.0658347
0.0668241
0.067518
0.0680035
0.0683359
0.0685476
0.0686685
0.0687373
0.0687993
0.0688826
0.0689874
0.0690749
0.0690606
0.0688241
0.0682147
0.0671621
0.0199758
0.039168
0.0476932
0.0531348
0.0570078
0.0597842
0.0617562
0.0631599
0.0641607
0.064867
0.0653553
0.0656821
0.0658925
0.0660285
0.0661305
0.0662308
0.066338
0.066433
0.0664667
0.066365
0.0660448
0.0654387
0.0645224
0.0193644
0.0377391
0.0458375
0.0509252
0.0545351
0.0571716
0.0591001
0.060507
0.0615261
0.0622534
0.0627609
0.0631074
0.0633438
0.0635156
0.0636601
0.0637999
0.0639331
0.0640336
0.0640543
0.0639362
0.0636239
0.0630833
0.0623164
0.0185301
0.0359316
0.0436787
0.0485304
0.051978
0.0545286
0.0564322
0.0578489
0.0588934
0.0596521
0.0601946
0.06058
0.0608605
0.0610807
0.0612738
0.0614564
0.0616225
0.0617464
0.0617882
0.0617031
0.061454
0.0610228
0.060417
0.0175362
0.0339107
0.0413381
0.0460161
0.0493584
0.0518567
0.0537492
0.0551817
0.0562574
0.0570566
0.0576459
0.0580835
0.0584199
0.0586972
0.0589446
0.059176
0.0593847
0.0595489
0.0596369
0.0596154
0.0594584
0.0591547
0.0587105
0.0164269
0.0317715
0.0388972
0.0434351
0.0467035
0.0491698
0.0510612
0.0525148
0.0536272
0.0544742
0.0551196
0.0556188
0.05602
0.0563617
0.0566702
0.0569579
0.0572196
0.0574382
0.0575895
0.0576483
0.0575956
0.0574226
0.057132
0.0152183
0.029562
0.0364063
0.040826
0.0440396
0.046487
0.0483852
0.0498657
0.0510207
0.0519223
0.0526315
0.0532006
0.0536743
0.0540879
0.0544651
0.0548177
0.0551424
0.0554264
0.0556514
0.0557983
0.0558521
0.0558046
0.0556554
0.0139106
0.0273037
0.0338973
0.038219
0.0413921
0.0438308
0.0457436
0.0472575
0.0484615
0.0494249
0.0502056
0.0508525
0.0514066
0.0518999
0.052354
0.0527801
0.0531766
0.0535341
0.0538388
0.054076
0.0542332
0.0543022
0.0542799
0.0125456
0.0250132
0.0313979
0.0356433
0.0387891
0.0412287
0.0431638
0.0447182
0.0459785
0.0470113
0.0478711
0.0486036
0.0492458
0.0498267
0.0503657
0.0508732
0.0513488
0.0517856
0.0521732
0.0524998
0.0527546
0.0529297
0.0530201
0.0113124
0.0227103
0.0289409
0.0331343
0.0362652
0.038714
0.0406789
0.0422811
0.043605
0.0447144
0.0456608
0.0464861
0.0472237
0.0478992
0.0485301
0.0491255
0.0496857
0.0502057
0.0506773
0.0510909
0.051437
0.0517079
0.0518974
0.0102016
0.0206061
0.0266258
0.0307514
0.0338647
0.0363259
0.0383254
0.0399813
0.0413752
0.0425682
0.043608
0.0445325
0.0453715
0.0461475
0.0468756
0.0475638
0.0482124
0.0488178
0.0493732
0.0498706
0.0503017
0.0506589
0.0509358
0.009211
0.0187754
0.0245305
0.0285612
0.0316448
0.034114
0.0361487
0.0378615
0.0393298
0.0406108
0.0417481
0.0427758
0.04372
0.0445997
0.0454281
0.0462117
0.0469509
0.0476425
0.0482807
0.0488588
0.0493692
0.0498048
0.0501589
0.00835858
0.0172383
0.0226995
0.0266094
0.0296495
0.0321208
0.0341892
0.0359598
0.0375044
0.0388754
0.0401122
0.0412445
0.0422948
0.0432792
0.0442087
0.0450886
0.0459187
0.0466962
0.047416
0.0480718
0.0486569
0.0491644
0.0495878
0.00764707
0.0159696
0.0211397
0.0249174
0.0279063
0.0303759
0.032477
0.0343055
0.0359268
0.037388
0.0387237
0.0399597
0.041115
0.0422031
0.0432328
0.0442083
0.0451289
0.0459917
0.0467917
0.0475231
0.0481795
0.0487542
0.0492411
0.00706315
0.0149279
0.0198359
0.0234874
0.0264269
0.028896
0.0310308
0.0329176
0.034615
0.0361648
0.0375972
0.0389343
0.040192
0.0413814
0.0425095
0.0435795
0.0445901
0.0455378
0.0464177
0.0472238
0.0479497
0.0485889
0.0491354
0.00658983
0.0140814
0.0187704
0.0223141
0.0252137
0.0276878
0.0298587
0.0318041
0.0335762
0.0352118
0.0367374
0.0381718
0.0395285
0.0408166
0.0420417
0.0432058
0.0443069
0.0453408
0.0463019
0.0471839
0.0479797
0.0486828
0.049287
0.00621626
0.0134162
0.0179333
0.0213925
0.0242648
0.0267501
0.0289596
0.030963
0.0328071
0.0345247
0.0361391
0.0376668
0.0391196
0.0405049
0.041827
0.0430869
0.0442814
0.0454054
0.046452
0.0474136
0.0482824
0.0490511
0.0497136
0.00593911
0.0129309
0.0173208
0.020718
0.0235741
0.0260755
0.0283239
0.0303829
0.032295
0.0340898
0.0357886
0.0374064
0.0389537
0.0404368
0.0418588
0.0432195
0.0445145
0.0457366
0.0468769
0.0479259
0.048874
0.049713
0.0504364
0.00575772
0.012625
0.0169279
0.0202818
0.0231295
0.0256484
0.0279334
0.0300436
0.0320184
0.0338856
0.035665
0.0373711
0.0390137
0.0405985
0.0421277
0.0435995
0.0450074
0.0463415
0.0475894
0.0487384
0.0497764
0.0506934
0.0514824
0.00566821
0.0124911
0.0167414
0.0200664
0.0229098
0.0254446
0.0277619
0.0299176
0.0319495
0.0338844
0.035742
0.0375368
0.0392788
0.0409738
0.042623
0.0442229
0.045764
0.0472318
0.0486089
0.049877
0.0510201
0.0520259
0.0528872
0.0056603
0.0125104
0.0167366
0.0200436
0.0228844
0.0254321
0.0277762
0.0299714
0.0320549
0.0340539
0.0359888
0.0378754
0.0397249
0.0415438
0.043333
0.0450869
0.0467918
0.0484262
0.0499642
0.051379
0.0526481
0.0537566
0.0546978
0.00571754
0.0126536
0.0168782
0.0201759
0.0230152
0.0255726
0.0279382
0.0301674
0.032298
0.0343586
0.0363718
0.0383559
0.0403248
0.0422872
0.0442449
0.0461903
0.0481037
0.0499533
0.0516984
0.0532982
0.0547207
0.0559479
0.0569756
0.00581906
0.012883
0.0171234
0.0204198
0.0232593
0.0258242
0.0282073
0.0304657
0.0326396
0.0347603
0.036854
0.0389433
0.041047
0.0431787
0.0453431
0.047532
0.0497187
0.0518545
0.0538744
0.0557123
0.0573218
0.0586833
0.0598002
0.00594078
0.0131534
0.017425
0.0207297
0.023573
0.0261447
0.0285421
0.0308259
0.0330398
0.0352193
0.0373957
0.0395983
0.0418541
0.0441854
0.0466049
0.0491075
0.0516597
0.0541882
0.0565841
0.0587332
0.0605676
0.0620731
0.0632714
0.00605512
0.0134161
0.0177381
0.0210648
0.0239173
0.0264953
0.0289037
0.0312087
0.0334586
0.0356944
0.0379541
0.0402762
0.0426997
0.0452622
0.0479928
0.0508994
0.0539481
0.0570326
0.059964
0.0625242
0.0646182
0.0662592
0.067511
0.00614273
0.0136346
0.0180355
0.0214004
0.0242639
0.0268438
0.0292571
0.0315771
0.0338574
0.0361443
0.0384838
0.0409257
0.0435256
0.0463442
0.0494414
0.0528587
0.0565849
0.0604856
0.0642278
0.0673302
0.0696914
0.0714177
0.0726598
0.00671137
0.0139058
0.0183487
0.0217413
0.0245991
0.027165
0.0295714
0.0318973
0.0341996
0.0365288
0.0389382
0.04149
0.0442597
0.0473395
0.0508382
0.0548684
0.0595012
0.0646424
0.0697466
0.0735312
0.0760752
0.0777516
0.0788673
0.0182151
0.0152381
0.0188186
0.0221098
0.0249087
0.0274322
0.0298163
0.032138
0.0344522
0.0368108
0.0392726
0.0419104
0.0448192
0.0481261
0.0520031
0.0566798
0.0624323
0.0694705
0.0772937
0.0817267
0.0841134
0.0854594
0.0862694
0.0841136
0.0210156
0.0195132
0.022437
0.0251298
0.0275975
0.0299556
0.0322692
0.0345873
0.0369605
0.0394501
0.0421352
0.0451232
0.0485662
0.0526897
0.0578469
0.0646375
0.0741886
0.0888949
0.0927738
0.0940887
0.0946569
0.0949556
0.0262853
0.022638
0.0228374
0.0267553
0.0492099
0.0480096
0.0475404
0.047789
0.0608709
0.0599526
0.0591912
0.0585618
0.0698024
0.0688347
0.0679525
0.0671774
0.0773904
0.0762002
0.0749465
0.0735479
0.0812627
0.0798168
0.0781273
0.0762677
0.0850056
0.0834342
0.0810241
0.0783746
0.086156
0.0835881
0.0808183
0.0783568
0.0835775
0.0812563
0.0790686
0.0770443
0.0802516
0.0784444
0.0766644
0.0749206
0.0764551
0.0750359
0.0735649
0.0720645
0.072578
0.0714418
0.0702344
0.06898
0.0690526
0.0681271
0.0671396
0.0661091
0.0660736
0.0653142
0.0645078
0.0636672
0.0636243
0.0630042
0.0623487
0.0616658
0.0615897
0.0610904
0.060563
0.060012
0.0598469
0.059454
0.0590368
0.0585974
0.0582836
0.0579858
0.0576653
0.0573229
0.0568341
0.0566207
0.0563853
0.056128
0.0554715
0.0553323
0.0551715
0.0549885
0.0541957
0.054121
0.054025
0.0539066
0.0530221
0.0530031
0.0529628
0.0529002
0.0519737
0.0520026
0.0520102
0.0519953
0.0510763
0.0511467
0.0511955
0.0512216
0.0503552
0.0504616
0.0505461
0.0506077
0.0498333
0.0499713
0.0500869
0.0501791
0.0495305
0.0496967
0.0498398
0.049959
0.0494652
0.049657
0.0498249
0.0499682
0.0496551
0.049871
0.0500618
0.0502271
0.0501194
0.0503584
0.0505711
0.0507571
0.0508804
0.0511426
0.0513767
0.0515826
0.0519663
0.0522521
0.0525076
0.052733
0.0534131
0.0537232
0.0540002
0.0542448
0.0552676
0.0556022
0.0559005
0.0561633
0.0575897
0.0579479
0.0582655
0.0585444
0.0604547
0.0608328
0.0611657
0.061456
0.0639551
0.064345
0.0646848
0.0649784
0.0682005
0.0685871
0.0689196
0.0692038
0.0733138
0.0736732
0.0739774
0.074234
0.0794236
0.0797223
0.0799708
0.0801773
0.0866495
0.0868488
0.0870117
0.0871452
0.0950873
0.0951548
0.0952093
0.0952536
0.0378932
0.0410171
0.0417836
0.0417067
0.0411751
0.0402185
0.0389221
0.03755
0.0362238
0.03491
0.0335872
0.0322727
0.0309235
0.0294259
0.0276365
0.0253267
0.0220137
0.0168472
0.00760554
0.0487395
0.0486291
0.0477712
0.0467993
0.0457835
0.0445784
0.0431752
0.0417434
0.0403634
0.0389586
0.0375453
0.0361639
0.0347503
0.0330998
0.0310144
0.0284505
0.0250682
0.0199035
0.00920608
0.0575595
0.0554818
0.0533487
0.0517288
0.0503452
0.048851
0.04718
0.0455125
0.0439431
0.0423722
0.0408967
0.0395956
0.0382378
0.0364079
0.033947
0.0309575
0.0273654
0.0222398
0.010829
0.0658869
0.0622501
0.058677
0.0565096
0.0549158
0.0531423
0.0510415
0.0489824
0.0471452
0.045264
0.0436041
0.0424177
0.041193
0.0392428
0.0363835
0.032822
0.0288982
0.023773
0.0114258
0.0705962
0.0664551
0.062443
0.0601043
0.0584844
0.0564156
0.0538135
0.0513301
0.0491737
0.047166
0.045449
0.0441409
0.0427836
0.0406529
0.0375821
0.0337446
0.029271
0.023644
0.011924
0.0731469
0.0690152
0.0649702
0.0619306
0.0595801
0.0572518
0.0548533
0.0526967
0.0506745
0.0486466
0.0470453
0.0454203
0.0431038
0.0400644
0.0365655
0.0329468
0.028758
0.0227049
0.0103884
0.0748732
0.0708936
0.0666032
0.0629873
0.0600664
0.057472
0.055103
0.0530139
0.0509889
0.0488284
0.0469546
0.0452994
0.0426703
0.0390217
0.0350135
0.0309674
0.0265174
0.0199289
0.00909597
0.0749087
0.0709749
0.0669602
0.0633126
0.0601468
0.0573398
0.0548956
0.0527016
0.0505655
0.0483468
0.0461464
0.0440078
0.0414422
0.0382246
0.0343813
0.0301905
0.0254333
0.0186308
0.00853869
0.0738736
0.0699496
0.0661844
0.0627034
0.0595687
0.0567898
0.0543477
0.0520753
0.0498295
0.0475479
0.0452382
0.0428712
0.0402268
0.0371877
0.033681
0.0296577
0.0250924
0.0188003
0.00881567
0.072069
0.0682957
0.0647428
0.0614989
0.0585825
0.0559753
0.053613
0.051355
0.0490938
0.0467848
0.044445
0.0420265
0.0393588
0.0363375
0.0328619
0.0287341
0.0240583
0.0184375
0.00929221
0.0695865
0.0661943
0.0630062
0.0600965
0.0574583
0.0550541
0.0528045
0.0506004
0.0483642
0.0460654
0.0437141
0.0412558
0.0385613
0.0355112
0.0319516
0.0276209
0.022562
0.0168749
0.0082527
0.0669047
0.0640043
0.061253
0.0587063
0.0563496
0.0541382
0.0519977
0.049848
0.0476386
0.045347
0.0429638
0.0404255
0.0376323
0.0344691
0.0307423
0.0261319
0.0206485
0.0146716
0.0064919
0.0644062
0.0619921
0.0596628
0.0574532
0.0553462
0.0532993
0.0512519
0.0491473
0.0469499
0.0446375
0.0421851
0.0395337
0.0366003
0.0332682
0.0293361
0.0245132
0.0188426
0.0127637
0.00552325
0.0622781
0.0602828
0.0583146
0.0563907
0.0544931
0.0525847
0.0506191
0.0485548
0.0463624
0.0440172
0.0414884
0.0387264
0.0356695
0.0322152
0.0282012
0.0234244
0.0179353
0.0120234
0.00536645
0.0605327
0.0588789
0.0572052
0.0555172
0.0537966
0.0520118
0.0501273
0.0481113
0.0459383
0.0435843
0.0410214
0.0382135
0.0351161
0.0316613
0.0277558
0.0232842
0.0182237
0.0125602
0.00597042
0.0590893
0.0577141
0.0562829
0.0547943
0.0532304
0.0515649
0.0497701
0.0478212
0.0456973
0.0433791
0.0408464
0.0380777
0.0350464
0.0317191
0.0280545
0.0239793
0.0193832
0.0139303
0.00689539
0.057851
0.0567082
0.0554823
0.0541683
0.05275
0.0512055
0.0495127
0.0476524
0.0456088
0.0433686
0.0409202
0.0382535
0.0353582
0.0322221
0.0288256
0.0251068
0.0208959
0.0156308
0.0078244
0.0567291
0.055788
0.0547435
0.0535892
0.0523107
0.05089
0.0493095
0.0475546
0.045614
0.0434794
0.0411458
0.0386107
0.0358737
0.0329311
0.0297699
0.0263284
0.0223963
0.0172897
0.00865476
0.0556688
0.0549065
0.0540263
0.053021
0.0518779
0.0505823
0.0491201
0.0474802
0.0456545
0.0436381
0.0414307
0.0390319
0.0364488
0.0336807
0.0307093
0.0274648
0.0237346
0.0187867
0.00939008
0.0546485
0.0540461
0.0533155
0.0524491
0.0514359
0.0502636
0.0489205
0.0473983
0.0456909
0.0437942
0.0417137
0.0394519
0.0370125
0.0343926
0.0315681
0.0284593
0.024845
0.0200081
0.0100839
0.0536715
0.0532114
0.0526161
0.051878
0.0509872
0.0499331
0.0487053
0.0472983
0.0457081
0.0439331
0.0419762
0.039841
0.0375293
0.035034
0.0323236
0.0293083
0.0257516
0.020904
0.0106419
0.0527566
0.052422
0.0519475
0.0513258
0.0505481
0.0496051
0.0484888
0.0471934
0.0457159
0.0440557
0.0422143
0.0401943
0.0379944
0.0356028
0.0329809
0.0300285
0.0264902
0.021571
0.0110138
0.051931
0.0517059
0.0513387
0.0508219
0.0501473
0.049307
0.0482939
0.0471028
0.0457307
0.0441765
0.0424408
0.0405235
0.0384203
0.0361141
0.0335592
0.0306455
0.0270988
0.0220758
0.0112229
0.0512257
0.0510954
0.0508219
0.0503978
0.0498156
0.049068
0.0481487
0.0470527
0.0457765
0.0443184
0.0426771
0.0408499
0.0388285
0.0365905
0.0340835
0.0311877
0.0276119
0.02247
0.0113185
0.0506708
0.0506218
0.0504292
0.0500858
0.0495848
0.0489194
0.0480836
0.0470723
0.0458816
0.0445084
0.0429494
0.0411989
0.0392444
0.0370586
0.034582
0.0316859
0.0280654
0.0228058
0.0114216
0.0502933
0.050314
0.0501907
0.0499168
0.049486
0.0488921
0.0481291
0.0471918
0.0460754
0.0447752
0.0432858
0.0415983
0.0396961
0.0375466
0.0350844
0.0321731
0.0284983
0.0231311
0.0115796
0.0501176
0.0501981
0.0501341
0.0499195
0.0495488
0.049016
0.0483153
0.0474412
0.0463878
0.0451488
0.0437161
0.0420777
0.0402131
0.0380849
0.0356222
0.0326825
0.0289451
0.023471
0.0117558
0.0501662
0.0502985
0.0502851
0.050121
0.049801
0.0493199
0.0486719
0.0478508
0.0468496
0.0456602
0.0442719
0.0426693
0.0408281
0.0387064
0.0362285
0.0332469
0.0294341
0.0238379
0.0119357
0.0504606
0.0506385
0.0506687
0.0505474
0.0502704
0.0498327
0.0492287
0.0484515
0.0474929
0.0463426
0.0449874
0.0434083
0.041577
0.0394475
0.0369395
0.0339004
0.0299947
0.0242477
0.0121014
0.0510235
0.0512421
0.0513103
0.0512258
0.0509851
0.0505842
0.0500171
0.0492763
0.0483524
0.0472327
0.045901
0.0443346
0.042501
0.0403496
0.0377956
0.0346807
0.0306585
0.0247197
0.0122041
0.0518801
0.0521359
0.0522378
0.0521851
0.0519757
0.0516062
0.0510708
0.0503613
0.0494665
0.0483714
0.0470563
0.0454944
0.0436482
0.0414617
0.0388445
0.0356312
0.0314624
0.0252853
0.0122669
0.0530605
0.0533506
0.0534826
0.0534579
0.0532761
0.0529347
0.0524279
0.0517469
0.0508787
0.0498057
0.0485041
0.0469422
0.0450763
0.0428437
0.0401462
0.0368091
0.0324592
0.026007
0.0124675
0.0546009
0.0549225
0.0550813
0.0550816
0.0549249
0.0546099
0.054131
0.0534788
0.0526385
0.0515894
0.0503033
0.0487425
0.0468558
0.044571
0.0417794
0.0382946
0.0337287
0.0269639
0.012893
0.0565459
0.0568953
0.0570773
0.0570998
0.0569667
0.056678
0.0562288
0.0556089
0.0548019
0.053784
0.0525221
0.0509714
0.0490712
0.0467372
0.0438458
0.0401945
0.0353759
0.028237
0.0135078
0.0589493
0.0593207
0.0595212
0.0595628
0.0594524
0.0591916
0.0587761
0.0581954
0.0574316
0.0564582
0.0552371
0.0537158
0.051822
0.0494557
0.0464725
0.0426453
0.0375364
0.0299285
0.0143053
0.0618755
0.0622597
0.0624721
0.0625291
0.0624407
0.0622101
0.0618342
0.0613025
0.0605963
0.0596867
0.0585317
0.057071
0.0552198
0.052858
0.0498127
0.0458201
0.0403889
0.0322001
0.0153487
0.0653996
0.0657831
0.0659979
0.0660653
0.0659979
0.0658006
0.0654713
0.0650004
0.0643692
0.0635481
0.0624924
0.0611362
0.0593825
0.0570887
0.0540429
0.0499206
0.0441318
0.0352054
0.0167583
0.0696074
0.0699712
0.0701764
0.0702477
0.0701996
0.0700383
0.069763
0.0693651
0.0688276
0.0681221
0.0672046
0.066007
0.0644248
0.0622943
0.059357
0.0551952
0.0490652
0.0392258
0.0187372
0.0745942
0.0749147
0.075096
0.0751636
0.0751323
0.0750089
0.0747935
0.0744794
0.0740526
0.0734886
0.0727479
0.0717675
0.0704439
0.0686039
0.0659471
0.0619368
0.0555785
0.0446043
0.021411
0.0804637
0.0807153
0.0808576
0.0809134
0.0808957
0.0808106
0.0806587
0.0804358
0.0801318
0.0797285
0.0791959
0.0784836
0.0775044
0.076099
0.0739578
0.0704378
0.0641616
0.0516831
0.0249889
0.0873286
0.087488
0.0875783
0.087615
0.0876071
0.0875587
0.0874708
0.0873412
0.0871644
0.08693
0.0866206
0.086206
0.0856306
0.0847838
0.0834182
0.0809052
0.0754133
0.0604373
0.0295243
0.095314
0.0953662
0.0953958
0.0954081
0.0954061
0.0953913
0.0953642
0.0953243
0.0952703
0.0951993
0.0951068
0.0949846
0.0948175
0.0945721
0.0941561
0.0932319
0.0901069
0.0692658
0.0343724
)
;

boundaryField
{
    leftWall
    {
        type            kqRWallFunction;
        value           nonuniform List<scalar> 
50
(
0.00129815
0.00302722
0.00444349
0.00567495
0.00676255
0.00774639
0.00865455
0.00952536
0.0107117
0.0121437
0.0134251
0.0150424
0.0179589
0.0215381
0.0226411
0.0202288
0.0169626
0.0142868
0.0146622
0.0171196
0.0194702
0.0201844
0.0199758
0.0193644
0.0185301
0.0175362
0.0164269
0.0152183
0.0139106
0.0125456
0.0113124
0.0102016
0.009211
0.00835858
0.00764707
0.00706315
0.00658983
0.00621626
0.00593911
0.00575772
0.00566821
0.0056603
0.00571754
0.00581906
0.00594078
0.00605512
0.00614273
0.00671137
0.0182151
0.0841136
)
;
    }
    rightWall
    {
        type            kqRWallFunction;
        value           nonuniform List<scalar> 
50
(
0.0012078
0.0024181
0.00328205
0.0040141
0.0046616
0.00518064
0.00573823
0.00647904
0.00760554
0.00920608
0.010829
0.0114258
0.011924
0.0103884
0.00909597
0.00853869
0.00881567
0.00929221
0.0082527
0.0064919
0.00552325
0.00536645
0.00597042
0.00689539
0.0078244
0.00865476
0.00939008
0.0100839
0.0106419
0.0110138
0.0112229
0.0113185
0.0114216
0.0115796
0.0117558
0.0119357
0.0121014
0.0122041
0.0122669
0.0124675
0.012893
0.0135078
0.0143053
0.0153487
0.0167583
0.0187372
0.021411
0.0249889
0.0295243
0.0343724
)
;
    }
    lowerWall
    {
        type            kqRWallFunction;
        value           nonuniform List<scalar> 
62
(
0.00129815
0.00350534
0.00511809
0.00637374
0.00739166
0.0082281
0.00891818
0.00949039
0.00996911
0.0103744
0.0107184
0.0109964
0.0112072
0.0113513
0.0114187
0.0113696
0.0110301
0.0104551
0.0097651
0.00889788
0.00754678
0.00524714
0.00209867
0.00209867
0.00466861
0.00627837
0.00763207
0.00895276
0.0105923
0.0134267
0.0203265
0.0262853
0.022638
0.0228374
0.0267553
0.00167635
0.00457987
0.00665096
0.00867641
0.0108513
0.0135617
0.0173257
0.0239015
0.00167635
0.00509557
0.00689801
0.0077041
0.00803395
0.00805231
0.00768288
0.00681605
0.0059425
0.00587273
0.00606965
0.00598585
0.0057534
0.00586392
0.00607351
0.00569005
0.00443631
0.00274035
0.0012078
)
;
    }
    atmosphere
    {
        type            inletOutlet;
        inletValue      uniform 0.1;
        value           nonuniform List<scalar> 
46
(
0.1
0.0210156
0.0195132
0.022437
0.0251298
0.0275975
0.0299556
0.0322692
0.0345873
0.0369605
0.0394501
0.0421352
0.0451232
0.0485662
0.0526897
0.0578469
0.0646375
0.0741886
0.1
0.1
0.1
0.1
0.1
0.1
0.1
0.1
0.1
0.1
0.1
0.1
0.1
0.1
0.1
0.1
0.1
0.1
0.1
0.1
0.1
0.1
0.1
0.1
0.1
0.1
0.0692658
0.0343724
)
;
    }
    defaultFaces
    {
        type            empty;
    }
}


// ************************************************************************* //
