/*--------------------------------*- C++ -*----------------------------------*\
  =========                 |
  \\      /  F ield         | OpenFOAM: The Open Source CFD Toolbox
   \\    /   O peration     | Website:  https://openfoam.org
    \\  /    A nd           | Version:  9
     \\/     M anipulation  |
\*---------------------------------------------------------------------------*/
FoamFile
{
    format      ascii;
    class       volVectorField;
    location    "20.3";
    object      U;
}
// * * * * * * * * * * * * * * * * * * * * * * * * * * * * * * * * * * * * * //

dimensions      [0 1 -1 0 0 0 0];

internalField   nonuniform List<vector> 
918
(
(2.47629 -0.138943 0)
(0.108704 0.722546 0)
(0.172195 1.06405 0)
(2.31834 0.153728 0)
(-0.0597923 1.26074 -1.21449e-19)
(-0.0924034 0.643931 -5.31492e-18)
(0.528406 0.846746 -2.9619e-19)
(0.274469 0.152942 -2.98876e-20)
(3.00615 -0.0195611 0)
(-0.0082502 0.475625 0)
(-0.0173928 0.589349 0)
(0.605279 0.00675835 0)
(0.0107054 0.439105 0)
(-0.00288288 0.421689 0)
(0.0134839 0.340935 -1.30563e-18)
(-0.00511904 0.765522 -9.19036e-20)
(0.312513 0.0742904 2.15208e-18)
(0.0793778 0.639883 -2.23779e-19)
(1.52884 0.128628 0)
(-0.0272436 0.688458 0)
(0.194716 0.157793 -1.26592e-18)
(3.08302 -0.397373 0)
(2.92445 -0.505981 0)
(1.86116 -0.1811 0)
(0.511492 0.0400877 0)
(-0.025368 0.521555 0)
(-0.00135314 0.494038 1.86284e-18)
(-0.0235156 1.41014 0)
(0.0726994 2.90178 0)
(0.168054 1.74946 0)
(-0.0407658 3.14732 0)
(0.0262543 1.62869 9.33807e-20)
(0.0227156 0.68239 0)
(-0.147424 0.775093 -2.03129e-22)
(-0.193914 1.0291 4.42214e-18)
(-0.0415772 1.04471 0)
(0.74456 -0.00600742 0)
(0.161294 0.246724 6.65887e-19)
(0.990661 1.50844 6.54023e-19)
(0.648126 0.781973 -5.16854e-19)
(0.796179 1.56945 6.22015e-20)
(0.415314 0.848021 -3.21226e-19)
(0.552671 0.306759 2.9394e-20)
(0.297117 0.153715 0)
(0.961697 0.565662 0)
(0.533003 0.304147 1.32033e-19)
(0.258144 0.162884 -1.35485e-19)
(0.87159 -0.0554798 0)
(3.02784 -0.0017055 0)
(3.00685 0.0178653 0)
(3.20086 -0.417734 0)
(3.04288 -0.0742125 0)
(3.03116 -0.0388411 0)
(0.0185797 0.907228 -1.14701e-18)
(-0.0541744 0.971014 0)
(0.00273193 0.453497 0)
(-0.028915 0.978165 0)
(-0.0114298 0.479926 0)
(-0.00156974 0.871278 0)
(-0.0522418 1.11021 0)
(-0.012721 0.54121 0)
(-0.0255823 1.16256 0)
(-0.00614667 0.622132 0)
(0.790405 0.0116135 0)
(1.16954 -0.00157177 0)
(0.6183 0.0123656 0)
(1.12593 0.0175962 0)
(0.569836 0.00867393 0)
(0.225406 0.921982 1.96018e-18)
(0.0985378 1.2081 0)
(0.176302 1.06604 0)
(0.0331901 0.755774 2.19977e-23)
(0.0372233 0.498055 -2.93162e-18)
(0.0194616 0.747943 0)
(0.0059542 0.422033 0)
(-0.000695737 0.734548 4.51857e-24)
(0.000702373 0.414825 0)
(-0.016922 0.743181 0)
(-0.0129387 0.427982 0)
(0.0495646 0.65032 0)
(0.0485566 0.458548 0)
(0.0080628 0.6221 1.23445e-18)
(0.000772671 0.344935 0)
(-0.0751386 4.68668 0)
(0.00827157 1.45307 9.12411e-20)
(-0.0106654 0.783264 -1.17504e-19)
(0.636346 0.152205 -7.5092e-19)
(0.321721 0.0656988 -7.28673e-19)
(0.645086 0.169799 -2.2546e-18)
(0.31766 0.0956083 -1.45155e-18)
(0.0789886 0.621338 0)
(0.177569 1.30845 1.85668e-19)
(0.178903 0.727161 -2.9625e-19)
(2.06031 0.260944 0)
(1.10704 0.118449 0)
(3.03313 0.103886 0)
(3.10392 0.446058 0)
(2.83919 0.377458 -1.01271e-17)
(2.57811 0.361309 7.77067e-18)
(-0.0712965 1.268 0)
(-0.0115981 0.625344 0)
(-0.015499 1.91272 0)
(-0.0514169 1.35373 0)
(-0.0486239 0.682851 0)
(0.440621 0.295873 4.00777e-19)
(0.225598 0.163466 0)
(2.29609 -0.266395 0)
(1.32372 -0.119274 0)
(1.0765 0.0126561 0)
(1.0122 0.0187572 0)
(0.541016 0.0108397 0)
(1.01958 0.0563549 0)
(0.821406 0.0703437 0)
(0.343695 0.0287003 3.36272e-18)
(-0.00543745 0.451594 1.77401e-18)
(-0.0270359 0.784634 0)
(-0.0473336 0.847529 0)
(-0.0152773 0.460446 0)
(0.000132405 0.839725 1.8164e-18)
(7.29231e-05 0.48753 0)
(-0.00547891 0.845554 -5.59159e-18)
(-0.00488634 0.496761 1.88675e-18)
(0.0505892 3.58256 0)
(0.038025 4.03945 0)
(-0.0166288 1.40417 -2.05204e-21)
(-0.0137573 1.35567 0)
(-0.0100278 0.737733 0)
(1.41014 0.0348776 0)
(0.760522 0.0154335 0)
(0.709532 0.0142624 0)
(1.41615 -0.0328522 0)
(0.773501 -0.00874246 0)
(0.322666 0.481209 -8.36051e-19)
(0.15706 0.233073 0)
(0.325624 0.51018 9.3701e-20)
(0.163691 0.268943 0)
(1.23794 1.3828 1.66707e-19)
(0.777054 0.738942 -3.92906e-19)
(0.410134 1.41625 0)
(0.604736 1.52799 0)
(0.302298 0.811516 0)
(0.145799 0.354412 -4.4331e-19)
(0.607677 0.280879 0)
(0.313652 0.13469 3.98837e-19)
(1.42473 1.30361 0)
(1.58442 1.16636 0)
(0.873485 0.662556 4.62128e-19)
(1.73191 0.951715 0)
(1.06748 0.438197 2.31955e-20)
(1.47296 0.00813421 0)
(1.50099 -0.0292418 0)
(0.801887 -0.00441802 0)
(1.95042 -0.199781 0)
(1.65081 -0.148182 0)
(1.05215 -0.0889706 0)
(3.06126 0.164852 0)
(3.03105 0.0687867 0)
(3.01022 0.0531589 0)
(0.0353963 1.61336 6.08645e-19)
(0.0178053 0.83131 0)
(0.0179078 1.70419 1.08038e-18)
(0.0029548 0.943083 -9.71237e-19)
(0.0644574 1.14761 1.8849e-19)
(0.0475923 0.985275 0)
(0.0399815 0.526695 0)
(-0.0287518 1.00252 0)
(-0.00709476 0.516167 0)
(0.0175177 1.61896 -4.42885e-21)
(-0.018495 0.868125 0)
(-0.054154 1.58647 -2.25488e-19)
(-0.0164453 0.821764 4.36652e-19)
(-0.00202642 1.02743 0)
(0.00997089 1.04236 0)
(-0.0001318 0.530506 0)
(0.010212 1.17221 0)
(0.000598576 0.61331 0)
(1.46815 -0.0037307 0)
(0.789119 0.00804584 0)
(1.44043 0.0331526 0)
(0.761739 -0.000563095 0)
(0.675415 0.00534019 0)
(1.26203 0.0166745 0)
(1.20248 0.0473038 0)
(0.659733 0.0155512 0)
(-0.00580053 1.42077 -1.70246e-20)
(0.00018431 1.37708 0)
(0.00482011 0.732923 0)
(0.00172892 0.417221 0)
(0.284865 0.829575 0)
(0.253967 0.4002 -2.87215e-19)
(-0.00219944 0.635438 0)
(-0.00888788 0.367605 0)
(0.00488877 4.34677 0)
(-0.0557855 4.66308 0)
(-0.0256383 4.57081 0)
(-0.0753556 3.35255 2.04804e-20)
(-0.0655428 4.5944 0)
(-0.0577356 4.16654 0)
(0.00444673 0.818074 1.07402e-20)
(0.0138165 1.56003 1.65151e-19)
(-0.0360258 1.49941 1.20727e-19)
(-0.00773976 0.824245 0)
(0.664664 0.105743 1.15323e-18)
(0.32578 0.0441687 -1.13018e-18)
(0.150454 1.13882 0)
(0.101507 0.575955 -2.69646e-19)
(0.119038 1.23947 -8.7565e-19)
(0.0522519 0.690691 8.71144e-19)
(0.809211 0.0240614 0)
(1.55678 0.047676 0)
(1.70971 0.12765 0)
(0.91985 0.0445215 0)
(0.00736825 1.18463 0)
(0.0253811 1.19379 0)
(0.00419172 0.629427 0)
(0.482508 0.315341 1.2038e-18)
(0.437196 0.30935 -1.38695e-18)
(0.234927 0.164288 0)
(1.93484 0.152836 1.15229e-19)
(1.13597 0.0931568 0)
(1.72392 0.11838 0)
(0.88353 0.0226655 0)
(0.678377 0.0857522 0)
(0.699893 0.04607 -5.40713e-18)
(0.346808 0.0325989 1.99888e-18)
(0.00914279 0.807277 1.69413e-18)
(0.00222137 0.462507 4.08162e-20)
(-0.0108777 1.40842 -3.58082e-20)
(0.00613615 1.38675 1.36615e-18)
(-0.0149832 0.848955 6.29573e-20)
(-0.0119261 0.524486 -2.5296e-22)
(-0.107514 1.00068 -1.16511e-18)
(-0.0529602 1.3532 8.34161e-19)
(-0.0175323 1.35275 -1.35805e-18)
(1.42265 -0.0170936 0)
(1.4423 0.0203079 0)
(0.769832 -0.000184343 0)
(1.4522 0.02538 0)
(1.36322 0.0462271 0)
(0.761554 0.0203048 0)
(1.30067 -0.00215906 0)
(1.31871 -0.00585466 0)
(0.69508 -0.000990621 0)
(0.305356 0.47418 -9.1557e-19)
(0.161602 0.243032 0)
(0.157555 0.309121 1.37054e-19)
(0.310374 0.587264 1.123e-18)
(0.308085 0.549758 -6.64805e-19)
(0.157164 0.282461 1.29908e-18)
(0.279431 0.720042 2.18388e-18)
(0.148792 0.382038 3.94108e-19)
(0.636397 0.21321 1.53747e-18)
(0.626324 0.253742 3.99323e-19)
(0.316746 0.115088 7.49286e-19)
(1.91961 0.713695 -5.9981e-19)
(1.16681 0.335722 -7.0199e-19)
(-0.0354649 1.71069 4.64329e-19)
(-0.0117134 0.928848 0)
(1.60358 0.0238901 0)
(1.52169 0.0653399 0)
(0.852797 0.0268328 0)
(-0.00355884 1.38473 0)
(0.00507413 0.729574 2.49571e-18)
(0.00465033 0.731252 0)
(0.00207077 0.415097 -2.44274e-18)
(-0.0102753 1.38626 5.95799e-19)
(-0.00947274 1.4225 0)
(0.337067 0.488864 2.58043e-19)
(0.360544 0.547132 -8.63272e-19)
(0.172082 0.258163 7.81378e-19)
(-0.0256741 0.767452 -1.66309e-18)
(-0.0261494 0.689719 0)
(-0.0154345 0.412925 0)
(0.0296526 1.54862 -1.27699e-20)
(0.030835 1.57972 -3.64186e-19)
(0.0176066 0.82251 -1.5569e-20)
(0.214466 1.04863 8.91287e-19)
(0.120202 0.51105 -5.93106e-19)
(0.0118766 1.49245 7.31475e-19)
(0.0561351 1.35787 -8.16485e-19)
(0.0269375 0.764302 3.54267e-20)
(0.00751079 1.36614 -3.80854e-18)
(-0.000217083 1.39326 4.41051e-18)
(0.00377306 0.829776 1.73335e-18)
(-0.0138304 0.805093 -1.72584e-18)
(-0.00430942 0.481399 -1.73898e-18)
(-0.0106516 1.41685 -4.50089e-18)
(-0.0152185 1.40032 4.5901e-18)
(0.287277 0.676778 0)
(0.300626 0.636293 -2.28966e-18)
(0.152375 0.33257 9.91225e-19)
(0.282352 0.798767 1.18649e-18)
(0.139375 0.429028 -1.83072e-18)
(2.05602 0.322266 4.15818e-19)
(2.05023 0.547133 0)
(1.21799 0.220778 -4.01794e-19)
(-0.0743703 1.64024 -4.79891e-21)
(-0.0147501 1.69688 0)
(-0.0160106 0.925213 0)
(0.22806 0.948342 -3.232e-19)
(0.249262 0.869847 -7.07812e-19)
(0.129345 0.465028 1.32643e-18)
(3.16442 -0.442874 0)
(3.34728 -0.414687 1.81269e-18)
(0.058122 3.49727 0)
(0.0463691 2.82187 0)
(3.15926 0.249913 1.41917e-20)
(3.12355 0.506294 3.71189e-18)
(0.0200024 3.4186 -2.74861e-20)
(0.00801052 2.65186 0)
(-0.0416246 1.19605 1.55547e-18)
(0.190475 1.31703 0)
(3.47034 1.6233 -3.24795e-19)
(3.17428 0.272568 -2.961e-20)
(3.14837 -0.118704 0)
(3.10047 -0.000406356 3.72884e-22)
(0.0431394 2.58012 0)
(0.157822 3.31476 0)
(-0.0563321 2.53053 0)
(-0.0251791 3.49605 3.15672e-19)
(-0.0276022 3.57228 1.99204e-19)
(2.63364 0.0487835 -1.36476e-20)
(3.04735 0.0310972 0)
(3.15763 0.0867441 0)
(-0.058226 4.61699 0)
(-0.048194 3.07608 0)
(-0.0744343 2.94276 0)
(0.650208 3.09383 2.66225e-19)
(3.33884 -0.422462 0)
(3.0114 -0.345812 0)
(3.1699 -0.0530397 2.27706e-18)
(3.2927 -0.328702 -2.74183e-18)
(3.1038 -0.125778 0)
(-0.064376 4.51873 0)
(0.0107872 3.94588 0)
(0.00185866 4.27349 0)
(-0.0297086 3.10438 0)
(-0.0156238 2.86317 0)
(-0.0324104 2.43573 0)
(2.97417 -0.00318822 0)
(2.85048 0.0486121 -1.80498e-20)
(2.24297 3.04266 -3.22136e-19)
(3.15695 0.0444524 -2.27812e-18)
(3.19037 0.278177 2.76918e-18)
(3.0828 0.117336 0)
(3.3954 0.328919 2.08714e-18)
(3.35696 0.484363 -2.70638e-18)
(3.07111 0.418427 0)
(-0.0573354 3.33827 0)
(0.00345045 3.2646 8.52736e-20)
(-0.0316121 2.56541 -6.04024e-20)
(3.70693 0.554826 2.2654e-18)
(3.47045 0.208279 0)
(-0.151915 1.27128 -2.16657e-18)
(-0.0623452 0.88216 -1.35076e-19)
(-0.0846774 1.33681 2.9865e-18)
(-0.0351461 1.2705 -8.99885e-19)
(-0.000404919 1.08849 0)
(-0.0266708 1.23954 6.95058e-19)
(-0.115032 1.38787 2.14718e-18)
(-0.0590334 1.34056 -1.31452e-18)
(-0.0767511 1.32063 0)
(1.29031 0.597595 0)
(1.17845 0.68294 0)
(3.55476 2.02733 9.53683e-19)
(3.04689 1.93338 -1.19081e-18)
(3.83648 1.70498 0)
(3.3821 1.15571 0)
(3.34935 0.280487 -3.91654e-18)
(2.89885 0.173114 4.83941e-18)
(3.35144 -0.155489 0)
(2.85477 -0.0761434 0)
(3.43642 0.0430172 0)
(3.59381 0.145047 0)
(3.28683 0.11987 0)
(3.55033 0.298573 0)
(3.40841 0.293055 0)
(3.32755 0.218069 0)
(0.096529 2.78149 0)
(0.0341595 2.07175 0)
(0.12524 3.04107 0)
(0.0918661 2.19644 0)
(0.214958 3.60741 0)
(0.140591 2.68676 -5.59151e-19)
(0.0527425 3.62391 0)
(0.0111963 3.02847 4.05838e-19)
(-0.0257168 3.21421 -5.16953e-19)
(-0.0610979 2.79627 0)
(-0.0239617 2.20027 0)
(-0.0740879 2.90192 0)
(-0.0562277 2.04564 0)
(-0.111354 4.75134 -2.45382e-19)
(-0.0827518 3.94422 2.77118e-19)
(-0.0768962 3.80817 3.08869e-19)
(-0.0537808 3.02222 0)
(-0.107445 3.80515 -4.5849e-19)
(-0.0389821 3.21573 -2.9487e-19)
(-0.0858696 4.78345 1.92464e-19)
(-0.0982766 4.46724 -3.50271e-19)
(-0.0725917 4.33856 -3.78683e-19)
(3.03153 0.088319 3.35828e-18)
(2.28974 0.032163 -4.22938e-18)
(2.89155 0.132779 -3.32721e-18)
(2.20984 0.0734598 4.15588e-18)
(3.36846 0.0276562 0)
(2.64294 -0.00267113 0)
(3.45394 0.0912352 0)
(3.32008 0.019216 0)
(2.70643 0.00918418 0)
(3.67995 0.239391 0)
(3.43855 0.0958552 0)
(2.86324 0.0564275 0)
(-0.0275542 4.32374 -1.20533e-20)
(-0.0615207 4.65037 0)
(-0.0669948 4.54072 0)
(-0.0781156 3.49798 8.77412e-20)
(-0.0386206 2.77317 -3.46398e-21)
(-0.0865399 4.66876 1.13588e-19)
(-0.100081 4.46104 -1.14784e-19)
(-0.0827398 3.96152 0)
(-0.0607516 3.88405 0)
(-0.0252744 4.00101 0)
(-0.0742504 3.26278 0)
(-0.043724 2.30656 0)
(0.946226 3.6494 -6.09424e-19)
(0.917843 2.84242 -1.76623e-19)
(0.432543 2.06135 -2.285e-19)
(0.253672 2.30972 6.97918e-19)
(1.02644 4.20663 2.63821e-19)
(3.43307 -0.167431 0)
(3.32213 -0.256551 0)
(2.88326 -0.189518 0)
(3.47032 -0.0643543 0)
(3.34581 -0.147869 0)
(3.44893 -0.261027 0)
(3.5195 -0.283606 0)
(3.57949 -0.281137 0)
(3.22418 0.0933655 3.61858e-18)
(2.55523 0.0645087 -4.57565e-18)
(3.09655 0.106553 -3.56204e-18)
(2.50917 0.0566591 4.43217e-18)
(2.2377 3.41011 0)
(1.73546 2.93958 -4.46165e-19)
(2.56525 3.34404 -4.03475e-19)
(2.36524 2.5241 5.36226e-19)
(0.776182 1.21531 2.72332e-18)
(1.44724 0.216499 1.34306e-18)
(3.72208 0.303948 0)
(3.89254 0.572336 -1.84591e-18)
(3.29823 0.243727 -8.23323e-20)
(3.72127 0.439863 0)
(0.237337 1.31268 1.79661e-18)
(-0.0163263 1.20211 -2.87715e-18)
(0.0591249 0.770056 1.615e-18)
(0.276379 0.465121 -7.48053e-19)
(0.187674 1.38431 8.71249e-19)
(0.0508591 1.23739 0)
(0.0578969 1.08647 -1.13262e-18)
(0.192269 1.44339 -4.09331e-18)
(0.329815 1.55761 0)
(0.00866624 1.2902 1.19616e-19)
(-0.00972375 1.45729 -1.34055e-18)
(-0.0410217 1.30282 1.94887e-18)
(-0.0574568 1.41766 0)
(-0.0204874 1.38227 0)
(0.682234 1.05144 0)
(2.46029 2.45674 -1.06627e-18)
(2.64042 2.1698 3.95317e-19)
(2.79016 2.87848 0)
(3.21229 3.06398 -3.94496e-19)
(3.16375 2.40872 2.84317e-20)
(0.804585 0.589989 -1.82276e-18)
(1.55701 0.691815 -1.62279e-20)
(1.23367 0.451234 8.72133e-19)
(1.27632 0.844325 5.9511e-20)
(0.93972 0.634383 -2.36976e-18)
(1.4654 0.714606 0)
(1.9917 1.10034 1.45596e-18)
(2.03374 1.01624 0)
(1.41309 0.791238 0)
(1.06277 0.550038 0)
(3.37731 2.17973 1.00826e-18)
(3.94677 0.760242 -1.86317e-18)
(3.84681 1.21507 0)
(3.53235 0.757107 0)
(1.39204 0.364888 1.33241e-18)
(3.26004 1.84232 -8.51453e-19)
(2.83671 1.65481 1.5467e-18)
(3.75626 1.37661 -1.83557e-18)
(3.09796 0.114743 2.4637e-18)
(3.16858 0.180807 -2.57866e-18)
(2.66186 0.0916363 0)
(3.30727 -0.0395201 0)
(3.20139 -0.0842702 -2.36626e-18)
(2.6324 -0.0321171 2.34542e-18)
(3.95631 0.0931597 0)
(3.75972 0.14562 0)
(3.69369 0.155361 0)
(3.58831 0.204736 0)
(3.83261 0.0590126 0)
(3.7261 0.0522385 0)
(-0.0411498 2.50517 0)
(-0.0383387 2.00609 0)
(0.35521 3.97835 -4.10812e-19)
(0.660358 3.32156 -1.60166e-19)
(0.257844 3.01655 -3.58256e-19)
(0.342163 2.53778 5.73897e-19)
(0.456301 4.00465 0)
(0.46933 4.66964 -5.0963e-19)
(0.383208 4.72744 0)
(0.91357 4.38061 -3.79505e-19)
(0.676411 3.82595 9.69266e-19)
(0.597271 4.64897 4.46653e-19)
(0.73947 4.19204 -1.87448e-19)
(0.600987 4.31741 1.50805e-19)
(0.916449 4.65255 -6.63477e-19)
(0.748877 4.66117 0)
(0.859694 4.58789 5.04436e-19)
(0.00415318 4.57796 -1.81069e-19)
(-0.0203329 3.65755 0)
(0.0995046 4.29536 5.49361e-19)
(-0.00491744 4.39844 0)
(-0.00485593 3.47085 -4.51289e-19)
(-0.0160869 2.92408 0)
(-0.104216 4.30375 -2.8899e-19)
(-0.110337 4.67984 0)
(-0.0556081 3.79981 0)
(-0.0429275 3.7222 3.25021e-19)
(-0.0498073 3.89494 1.0363e-20)
(-0.037045 3.71838 6.25755e-19)
(-0.0424116 2.95782 4.06639e-21)
(-0.119053 4.71028 1.80057e-19)
(-0.108123 4.74178 1.03127e-19)
(-0.0184328 2.62375 0)
(0.000145389 2.137 0)
(-0.0452204 4.78922 4.85717e-19)
(-0.0515338 4.30305 4.23219e-19)
(-0.0868163 4.58153 -5.53334e-19)
(0.0133673 4.7561 0)
(-0.0838528 4.53085 -3.08859e-19)
(-0.122247 4.16283 1.27588e-19)
(-0.089106 4.24612 -4.12899e-20)
(-0.0757716 4.72859 -2.1873e-19)
(-0.0899316 4.26903 -6.84904e-20)
(-0.087779 4.21511 3.06475e-19)
(2.87152 0.060995 -2.36332e-18)
(2.85901 0.049665 2.27279e-18)
(2.3387 0.0345395 0)
(3.5104 0.191895 3.0462e-18)
(2.70401 0.126486 -3.30443e-18)
(2.25482 0.064444 3.60922e-18)
(3.68285 0.33514 -4.01597e-19)
(3.20984 -0.0485481 0)
(3.17205 -0.0135895 2.23681e-18)
(2.69083 -0.0123922 -2.21918e-18)
(3.87859 0.122095 -1.25227e-19)
(3.77164 0.10175 1.07823e-18)
(4.15966 0.17329 0)
(4.2284 0.180947 -3.75095e-19)
(4.01379 0.145101 0)
(3.69505 0.155308 0)
(4.03231 0.0950317 0)
(3.71183 0.0872857 0)
(4.18472 0.113753 7.85422e-19)
(4.13722 0.0790347 -1.74775e-18)
(4.1406 0.113762 -8.47931e-19)
(4.18635 0.116396 -9.24399e-19)
(4.21559 0.228781 1.7739e-18)
(3.85456 0.188474 0)
(4.06103 0.301606 0)
(-0.0783576 4.57565 -1.35849e-19)
(-0.0373704 4.63997 -1.16895e-20)
(-0.0715566 4.65818 0)
(-0.0598904 4.18989 1.38252e-19)
(-0.0581543 4.21521 2.25516e-20)
(-0.0621375 4.08194 -2.18718e-20)
(-0.082523 3.5267 2.60994e-19)
(-0.147375 4.00377 -1.4512e-20)
(-0.106464 4.13301 7.47145e-20)
(-0.0765295 3.39956 -1.3227e-19)
(-0.0259525 2.92326 1.58399e-19)
(-0.081272 4.43155 5.18732e-21)
(-0.0947383 4.64217 1.7205e-19)
(1.24299 4.35088 3.47589e-19)
(1.15972 4.52338 7.25469e-19)
(1.73374 3.45729 4.31433e-19)
(1.30536 3.54907 1.69787e-19)
(1.28224 2.8796 0)
(0.551238 2.32794 2.75179e-19)
(0.465577 1.74841 3.31106e-19)
(0.346799 2.57866 1.52004e-20)
(0.49459 3.18639 -1.16171e-18)
(0.635518 3.14399 8.77321e-19)
(0.435072 2.41442 0)
(0.295263 1.98087 -5.57972e-19)
(0.260629 3.0902 1.39615e-18)
(0.274328 2.73098 -3.15381e-20)
(0.158582 2.28696 -1.75007e-18)
(0.593474 1.4152 1.46456e-18)
(0.57877 1.62243 0)
(3.58364 -0.0751592 8.6427e-20)
(3.61861 -0.25411 -7.25914e-20)
(3.72134 -0.217724 -1.26645e-18)
(3.75926 -0.126033 1.28233e-18)
(3.67616 -0.0488697 0)
(2.44654 3.86701 0)
(2.61915 3.91175 0)
(2.89007 3.62205 0)
(2.73793 3.64051 0)
(0.856179 1.39713 -3.32864e-21)
(0.612872 1.04117 0)
(1.7146 3.39024 1.5024e-20)
(1.42591 3.46986 0)
(1.33146 2.95792 -1.28447e-18)
(1.41202 2.89944 8.24867e-19)
(1.7919 0.310451 0)
(1.43098 0.262078 3.52046e-19)
(2.41231 0.358819 2.1916e-18)
(1.78662 0.284838 -7.85376e-19)
(1.42672 0.112198 -2.49479e-18)
(4.26623 0.78949 -2.56516e-18)
(3.85287 0.994754 -3.67059e-20)
(3.29812 0.8444 2.06761e-18)
(3.87653 0.745095 1.81308e-18)
(3.12382 0.465566 -3.04474e-18)
(2.91101 0.452083 3.74954e-19)
(3.19351 0.682239 -8.18638e-19)
(2.97702 0.683249 0)
(3.75933 0.563704 1.53748e-18)
(4.09611 0.628987 0)
(4.09167 0.775963 0)
(4.04542 0.415575 8.23593e-19)
(4.29656 0.642099 -3.02588e-20)
(4.24902 0.715269 -4.52828e-19)
(4.17614 0.642673 0)
(3.61588 0.130296 1.718e-18)
(4.19003 0.183388 2.14396e-18)
(4.09078 0.151503 -1.67924e-18)
(4.13666 0.240645 -1.44269e-18)
(3.74597 0.238039 -2.15615e-18)
(3.30349 0.375857 0)
(3.40384 0.30225 0)
(2.55856 0.1906 -1.26593e-18)
(2.10892 0.119089 4.76723e-19)
(4.03742 0.352392 1.94011e-18)
(4.28762 0.43246 -2.34627e-18)
(4.28501 0.489073 2.0687e-18)
(4.15736 0.493121 0)
(4.25655 0.336946 0)
(4.26639 0.322206 -9.81723e-19)
(4.21433 0.315894 -1.59633e-18)
(2.23148 3.4899 6.20387e-19)
(1.9426 3.23499 -6.83463e-19)
(1.4494 2.35938 -1.03223e-18)
(1.189 1.99922 2.66926e-19)
(0.885757 1.38069 -2.6298e-18)
(0.795174 1.21739 9.2244e-19)
(0.601897 0.905471 -1.94189e-21)
(1.11697 1.78755 -1.13824e-18)
(1.14457 1.88508 1.69919e-18)
(0.976264 1.70241 5.06225e-19)
(0.787318 1.29044 -5.12843e-19)
(0.636374 1.07577 0)
(2.44946 2.60859 -1.15431e-19)
(0.706622 1.14498 8.57494e-19)
(0.929108 0.890791 1.15645e-18)
(0.756453 0.81443 1.33815e-18)
(1.08431 0.747275 1.34137e-18)
(1.46877 1.04542 -2.27064e-18)
(1.38479 1.07243 1.83973e-18)
(1.00303 0.766402 -6.76904e-19)
(0.817896 0.568587 1.49493e-18)
(1.6164 0.490967 -7.78087e-19)
(1.55997 0.508602 0)
(1.24025 0.407539 4.61629e-21)
(2.51172 1.51667 7.75598e-19)
(2.08205 1.27104 -2.80875e-18)
(1.68874 1.18553 9.12785e-21)
(1.66261 1.09326 0)
(2.86534 2.59579 8.73702e-19)
(3.44778 2.75139 1.03717e-18)
(3.25713 2.92991 -1.19562e-18)
(3.55439 2.76164 -4.28273e-19)
(3.4834 2.60062 -1.34874e-19)
(3.51206 2.79237 1.38761e-19)
(3.67574 2.26582 -1.67911e-18)
(3.70527 2.4908 4.00741e-19)
(3.78321 2.43376 0)
(3.78372 2.18955 -5.7963e-19)
(4.0494 1.0728 5.80483e-19)
(4.27571 0.992426 1.00206e-18)
(4.30032 0.96613 1.01155e-18)
(4.05547 1.32861 -1.14949e-18)
(4.10254 1.34865 0)
(4.15205 1.23264 0)
(3.32924 1.2356 -1.55786e-20)
(2.41902 0.666627 0)
(2.72315 0.744082 9.30603e-19)
(3.23953 0.885739 -2.64325e-20)
(3.774 1.53417 5.10674e-18)
(3.57131 1.76149 1.31093e-18)
(3.48254 1.54028 -1.34054e-18)
(3.03933 1.36991 1.4373e-18)
(2.76278 1.37 8.23752e-19)
(2.30855 1.15645 -7.97788e-19)
(3.67219 -0.0855661 1.98446e-18)
(3.8947 -0.0289571 0)
(3.85894 -0.0665721 1.34195e-18)
(3.7429 -0.0594307 -2.98749e-18)
(3.98056 0.0373441 1.46184e-18)
(3.90445 0.113395 -3.08267e-18)
(3.73987 0.128002 0)
(3.55627 0.173451 -6.2849e-19)
(3.81198 0.122961 1.60514e-18)
(3.69196 0.191366 -8.22486e-19)
(3.60031 0.171061 5.90663e-19)
(-0.0815244 2.58638 0)
(-0.049146 3.39157 0)
(-0.0328286 2.4561 0)
(-0.0222206 1.96652 0)
(0.0442513 3.93217 6.70044e-19)
(0.138643 3.71236 -1.72861e-19)
(0.315897 4.63915 -2.29526e-19)
(0.2511 4.45181 2.42366e-19)
(-0.0279709 4.28761 -4.97068e-19)
(0.00930572 4.31968 3.73275e-19)
(0.0936218 3.86045 2.23409e-20)
(0.00788425 3.54769 -4.66784e-19)
(-0.0141804 3.30086 -6.22186e-20)
(-0.0416809 3.66364 -5.66821e-20)
(0.151831 4.48238 -5.86707e-19)
(0.177548 4.29791 0)
(0.274547 4.6396 2.96346e-19)
(0.267086 4.71002 2.52978e-19)
(0.596483 4.44954 -2.25939e-19)
(0.409953 3.79403 0)
(0.459219 3.64055 -1.11565e-18)
(0.562984 4.00937 7.90504e-19)
(0.480589 4.56627 -6.1477e-19)
(0.370406 4.44053 3.30744e-19)
(0.300258 4.16697 0)
(-0.038392 4.76369 -5.52679e-19)
(-0.0776321 4.53327 -6.41222e-19)
(-0.0792194 4.74317 0)
(-0.031504 4.36753 -6.25112e-21)
(-0.0216448 4.64693 2.74018e-19)
(-0.121778 3.87844 4.46846e-20)
(-0.0580652 3.48516 -6.53442e-19)
(-0.0990281 3.92334 1.74261e-19)
(-0.139943 4.5144 2.32053e-19)
(-0.0797102 4.32374 0)
(-0.0636698 3.88544 0)
(-0.0841922 2.90317 2.0094e-19)
(-0.050774 3.6341 -6.26952e-20)
(-0.0759497 3.62056 0)
(-0.0897428 2.69013 1.58218e-19)
(-0.0473963 2.19771 -3.06558e-19)
(3.76098 0.0322903 0)
(3.73185 0.00769039 -2.0326e-19)
(4.17948 0.0678683 -1.43983e-18)
(4.08906 0.0462195 0)
(3.87625 0.017738 0)
(4.14973 0.0369905 -1.25206e-20)
(4.10029 0.0348936 2.37873e-18)
(4.00013 0.080144 2.84542e-18)
(3.75592 0.118613 0)
(3.55809 0.110004 0)
(4.01337 0.0938681 1.41735e-18)
(3.70333 0.116067 0)
(3.47221 0.128823 0)
(-0.0870986 4.69796 0)
(-0.113066 4.66592 1.06765e-20)
(-0.0836447 4.71736 6.29919e-20)
(-0.0651042 3.83483 0)
(-0.118238 4.53617 1.11177e-19)
(-0.073905 4.24445 -6.33747e-20)
(-0.0591311 3.93463 0)
(1.41504 4.19122 0)
(1.21031 4.57765 -1.29749e-18)
(1.22647 4.48878 0)
(1.57537 4.48317 1.48422e-18)
(1.59205 4.11196 0)
(1.50097 4.36509 -6.06493e-19)
(1.01494 2.24836 -3.39743e-20)
(0.711743 1.65007 -1.74613e-18)
(0.592553 1.2308 2.13032e-18)
(0.711646 1.84116 3.97204e-19)
(0.978967 2.43171 0)
(1.04041 2.38631 0)
(0.720982 1.69255 0)
(0.534276 1.33445 -1.39663e-18)
(1.21428 3.78249 -9.83892e-19)
(1.13332 2.99753 -2.35643e-19)
(1.3321 3.41275 1.92716e-19)
(0.601861 2.04871 0)
(0.622848 1.94957 0)
(0.464223 1.57708 -3.932e-19)
(0.961626 2.72914 0)
(2.68982 3.57044 0)
(2.38539 3.01056 -1.45458e-18)
(2.54969 3.02829 -8.58693e-20)
(2.42404 3.4059 0)
(2.29026 3.15208 2.22115e-18)
(3.27955 3.08549 -3.89658e-19)
(3.13421 3.32199 0)
(3.11655 3.14821 6.30374e-19)
(2.87209 3.41169 0)
(2.88455 3.20068 0)
(1.21245 2.01044 -9.30856e-19)
(1.41776 2.4078 -6.99742e-19)
(1.75823 2.98648 1.20619e-18)
(1.70057 2.96495 -3.62368e-19)
(1.06525 1.82615 0)
(1.21022 2.21329 4.71297e-19)
(0.720188 1.29144 -7.15631e-19)
(0.583037 1.04577 -5.9178e-22)
(1.94264 3.70011 0)
(2.20387 3.74489 -5.42536e-19)
(2.34191 3.98643 0)
(2.28499 0.529019 0)
(1.61803 0.341983 0)
(1.20958 0.276673 0)
(2.21015 0.554325 -1.46517e-18)
(1.6361 0.402316 8.17216e-19)
(2.1461 0.129099 -9.85068e-19)
(2.6272 0.297479 0)
(2.46627 0.301616 4.13451e-19)
(1.77035 0.135712 1.63285e-18)
(1.53064 0.0812682 -1.03694e-18)
(0.746773 1.5576 8.58287e-19)
(0.961627 1.82249 0)
(0.53848 1.44141 1.56136e-18)
(0.524892 1.61595 -1.42566e-18)
(0.758733 1.8159 -9.88678e-19)
(2.07735 2.46498 1.33794e-18)
(2.10103 2.71476 0)
(1.58642 1.68009 -2.76405e-19)
(2.01305 1.99147 1.74524e-18)
(1.36206 1.29414 -4.23653e-19)
(1.591 1.31492 4.50784e-19)
(2.11225 1.51444 1.02329e-18)
(2.44555 1.67202 0)
(2.27913 1.85761 0)
(2.0127 1.60754 0)
(3.95697 2.07825 3.84498e-19)
(3.76098 1.88902 -1.26337e-18)
(3.81841 2.02702 1.04653e-18)
(3.90185 1.77045 -1.00818e-18)
(4.15768 1.67266 0)
(4.11656 1.83958 -2.97805e-19)
(2.84235 1.16351 -1.89722e-18)
(2.97255 1.16349 -2.41282e-18)
(2.33375 1.04393 1.45637e-18)
(2.13985 0.93482 -1.41984e-18)
(2.46499 0.846349 -1.17808e-18)
(2.18001 0.777247 1.44879e-18)
(4.00845 0.0334402 -1.52875e-18)
(4.05275 0.0406464 3.12992e-18)
(3.76795 -0.0659124 1.90073e-18)
(3.79116 -0.0738053 -2.28657e-18)
(3.95952 0.010519 0)
(4.05602 0.0228215 -3.72946e-18)
(0.0936132 4.76154 1.0658e-19)
(0.0645083 4.72986 0)
(0.187551 4.73181 9.52604e-19)
(0.209074 4.74845 -8.6664e-19)
(0.228944 4.71407 4.28036e-19)
(0.119745 4.65335 0)
(-0.107055 4.77051 0)
(-0.112598 4.40312 -6.1876e-20)
(-0.111744 4.33342 5.54617e-20)
(-0.120556 4.48219 7.24214e-21)
(-0.111243 4.72014 -1.01142e-19)
(-0.0880687 4.70812 5.50332e-20)
(1.88023 4.01214 -1.64299e-18)
(1.82087 4.01952 1.74009e-18)
(1.68571 4.40377 -8.53877e-19)
(1.69722 4.27984 7.61337e-20)
(2.25316 4.08195 0)
(1.8541 4.21342 -6.35715e-19)
(1.98089 3.95272 6.16559e-19)
(1.82485 4.3756 8.34077e-19)
(2.07837 4.21729 0)
(2.23044 4.09782 0)
(1.14356 3.63947 1.49568e-18)
(0.830679 2.82109 2.02518e-18)
(0.958645 2.99919 -1.39084e-18)
(0.750522 2.98209 -2.32158e-19)
(0.906949 3.74126 4.66679e-19)
(0.726168 3.37481 -1.13501e-18)
(0.748059 1.46943 -1.21569e-18)
(0.748196 1.31999 0)
(0.604179 1.11715 -1.33617e-18)
(1.11411 2.06877 0)
(1.09126 2.15588 0)
(1.36154 2.19297 -1.09087e-18)
(1.06656 2.01634 -1.03627e-18)
(1.01889 2.03697 1.09898e-18)
(1.03332 1.52058 0)
(1.41313 1.76367 -6.01356e-19)
(1.63054 2.12134 -8.55531e-19)
(1.41381 2.08463 0)
(0.869636 1.81972 7.12669e-19)
(0.781434 1.68054 0)
(2.90927 2.28968 -1.84677e-18)
(3.321 2.47035 2.6088e-18)
(3.27995 2.19296 -2.59294e-18)
(2.61338 2.022 -2.31163e-19)
(2.72777 1.94107 -9.74087e-19)
(1.26455 2.19228 7.96376e-19)
(1.31891 2.24752 -1.36025e-18)
(1.45729 2.3321 1.79314e-18)
(1.79415 2.56231 -1.16545e-18)
(1.89342 2.936 -1.56738e-18)
(1.56675 2.49189 -1.18812e-19)
(1.63685 2.63198 1.37159e-18)
(1.81414 2.69624 9.66371e-20)
(2.02241 3.00201 6.50119e-19)
)
;

boundaryField
{
    wall-4
    {
        type            noSlip;
    }
    velocity-inlet-5
    {
        type            fixedValue;
        value           uniform (3 0 0);
    }
    velocity-inlet-6
    {
        type            fixedValue;
        value           uniform (0 1 0);
    }
    pressure-outlet-7
    {
        type            zeroGradient;
    }
    wall-8
    {
        type            noSlip;
    }
    frontAndBackPlanes
    {
        type            empty;
    }
}


// ************************************************************************* //
