/*--------------------------------*- C++ -*----------------------------------*\
  =========                 |
  \\      /  F ield         | OpenFOAM: The Open Source CFD Toolbox
   \\    /   O peration     | Website:  https://openfoam.org
    \\  /    A nd           | Version:  9
     \\/     M anipulation  |
\*---------------------------------------------------------------------------*/
FoamFile
{
    format      ascii;
    class       surfaceScalarField;
    location    "31.4";
    object      phi;
}
// * * * * * * * * * * * * * * * * * * * * * * * * * * * * * * * * * * * * * //

dimensions      [0 3 -1 0 0 0 0];

internalField   nonuniform List<scalar> 
1300
(
11.2529
1.87548
-4.16636
11.2529
-5.00987
1.87548
-4.24281
4.24281
-1.1875
1.1875
5.7123
5.54056
-2.37731
2.37731
-2.81878
2.81878
-2.86016
2.86016
-1.06194
1.06194
-1.02826
1.02826
0.693117
-0.693117
-3.42005
3.42005
-1.45619
1.45619
-2.90919
2.90919
6.1281
-6.1281
-3.24633
3.24633
-0.743765
0.743765
-4.26321
15.5161
6.98965
6.98965
-2.37111
2.37111
-1.25395
1.25395
1.41034
-1.41034
9.05084
-9.05084
-4.88448
-5.88387
1.91914
-14.0662
-3.09073
-3.09073
-2.7054
2.7054
-0.829928
1.04555
3.47681
-3.47681
-0.757143
0.757143
-4.32822
0.0854086
-4.32822
4.02734
0.215469
4.02734
-1.32878
0.14128
-1.32878
4.67819
-4.67819
1.07574
0.11176
1.07574
3.9281
-3.9281
-5.71006
11.4224
5.5428
-5.32064
20.8367
-5.93222
11.4728
-3.89954
3.89954
-2.29445
-0.0828631
-2.29445
2.37888
-0.00157091
2.37888
-4.00259
4.00259
-2.60902
-0.209763
-2.60902
2.91884
-0.100056
2.91884
3.66642
-3.66642
-2.91622
0.0560593
-2.91622
2.70845
0.151704
2.70845
0.771042
1.10443
-2.64652
3.69207
-1.10443
0.0424987
1.02614
0.0357986
1.02614
-1.01453
-0.0137252
-1.01453
1.04984
-0.0215793
1.04984
0.730133
-0.0370157
0.730133
-0.754862
0.061745
-0.754862
-8.60764
-8.97357
-3.54387
0.123821
-3.54387
-1.47422
0.0180205
-1.47422
1.49235
-0.0361557
1.49235
-2.52539
2.52539
-3.25109
0.341898
-3.25109
4.80635
1.32175
4.80635
5.04612
6.20674
16.299
-16.299
10.1709
-2.96666
-0.279667
-2.96666
-3.41178
-5.63906
3.41178
-0.165454
-0.805505
0.0617405
-0.805505
5.62659
1.36306
5.62659
2.58623
0.122226
-2.58623
0.215123
4.62615
-4.62615
1.42328
0.947822
1.42328
-1.19154
1.19154
1.12336
-0.0735237
-1.12336
-0.130582
1.38601
0.0243318
1.38601
-1.40975
-0.000595769
-1.40975
7.3106
-13.1945
-7.76789
3.2304
0.18965
-3.2304
0.139673
3.56357
-0.0867504
3.56357
-3.30969
3.30969
-3.61099
0.134179
-3.61099
-0.682221
-0.0749222
-0.682221
0.842028
-0.0848853
0.842028
-4.5761
0.247877
-4.5761
-3.69108
0.439991
3.69108
0.336258
1.25013
-1.25013
-1.43659
0.107807
-1.43659
-4.65916
0.0830617
4.65916
0.0190292
-4.77215
0.0939657
-4.77215
-3.71253
0.101533
3.71253
0.215576
4.58935
1.03724
-4.58935
0.661247
-5.36948
11.5762
-5.88338
11.4262
-3.51573
-0.383813
-3.51573
4.09054
-0.191
4.09054
2.57063
0.338565
-2.57063
0.27618
2.50508
-0.126202
2.50508
-3.94531
-0.0572823
-3.94531
3.80548
0.197117
3.80548
2.54459
-0.03951
-2.54459
-0.0644235
2.89353
0.0253031
2.89353
3.6724
-0.00598106
3.6724
-3.53944
-0.126985
-3.53944
3.17896
-3.17896
3.08059
0.0983706
-3.08059
0.164369
-5.07402
5.07343
-0.00799947
-5.06602
1.01814
1.01814
0.768948
-0.0388153
0.768948
-0.861792
0.10693
-0.861792
8.34417
-16.1121
8.77926
-17.3869
7.53378
-21.6
8.11622
-17.0898
3.82809
-3.82809
3.76195
0.0661432
-3.76195
0.218076
-1.45605
-0.018164
-1.45605
-2.2883
-0.237086
-2.2883
2.85741
-0.332019
2.85741
-3.74209
3.74209
-4.12478
0.382686
4.12478
0.68157
2.95471
-0.0611814
-2.95471
-0.011946
0.924056
0.151686
-0.924056
0.11855
4.86348
-0.237329
4.86348
-4.0852
-0.540948
-4.0852
-1.47494
0.0188926
1.47494
-0.0516606
-1.25895
0.0674031
-1.25895
-5.0745
0.00847756
-5.0387
-1.40127
-1.40127
1.30414
4.9962
-3.58567
0.0462341
3.58567
-0.0221055
3.52705
0.215042
-3.52705
0.217361
-3.26327
0.0843115
3.26327
0.0464179
-0.659742
-0.0224784
-0.659742
-1.03475
1.03475
-0.917641
-0.117113
0.917641
-0.0756126
1.40558
-0.155455
1.40558
1.47054
0.0218112
-1.47054
0.0339511
-5.01127
0.239115
-5.01127
4.10113
-0.0105892
4.10113
-3.94907
-0.136137
3.94907
-0.276665
-0.00372289
5.07715
-1.01441
-0.00012015
1.01441
-5.10148
5.10136
-0.665133
0.00539072
0.665133
0.103815
1.02967
0.161873
-1.02967
0.16788
3.849
-0.0435218
-3.849
0.0209059
-2.00736
-0.28094
-2.00736
-3.18477
-0.330957
3.18477
-0.327366
-5.11518
-0.0779364
5.19312
-5.13676
1.33688
0.0491256
-1.33688
5.15049
-1.14365
-0.106481
1.14365
-0.108891
1.60385
-0.198271
1.60385
5.12083
-0.257352
-5.12083
0.109564
-4.11885
0.173542
4.11885
-0.0177204
-1.77513
-0.232227
1.77513
-0.171281
-13.1281
14.4911
7.70865
-6.27979
-6.91467
-11.9188
4.4471
7.12912
14.618
-11.816
-9.78404
-11.6763
2.86006
-2.69218
-3.72729
3.69028
23.5916
-23.4976
-18.3992
19.0808
20.777
-20.5615
5.70885
5.71351
15.8507
-15.9336
-20.899
20.5152
15.3872
-15.5969
22.0521
-22.1094
-25.8159
25.7724
-16.0928
16.1489
-20.2944
20.1674
-21.0577
20.781
-8.35205
-9.03484
16.5173
-16.3935
19.9987
-20.2784
-19.3833
19.7252
10.0475
4.44359
11.0848
-6.24673
11.9556
-5.22605
12.9347
8.29389
-16.6459
7.81817
-14.7328
9.0449
10.9538
-8.87944
-3.03941
-17.9699
17.8832
-17.257
17.3034
24.1238
-24.0384
-6.17283
11.8863
-5.25335
12.3825
-11.409
-6.99019
10.0872
4.53073
8.99242
7.52486
-9.18207
-2.49423
-24.7987
24.5414
-25.6599
25.1189
0.10018
2.42593
-2.52611
1.35413
-0.862692
3.28863
1.99737
2.10429
2.45271
-2.29084
0.239463
-2.76558
-2.89616
-5.34044
5.44825
5.15711
-5.04535
16.5466
7.04499
16.5656
-16.7495
-6.74812
-16.5104
11.3637
7.71706
11.7464
12.0617
8.71534
12.1632
10.359
-10.3317
-0.0273074
-11.4777
21.8367
1.55464
-18.4678
-13.9371
8.84629
7.0044
8.84472
-9.89161
-6.04195
-9.61543
-11.0148
-9.88418
-11.3457
12.3189
8.19625
12.1279
-15.3162
15.2985
9.27392
6.11325
9.17386
-8.96294
-6.63399
-9.02736
27.4826
-6.67816
-20.8045
-13.1818
-12.6341
12.9847
9.06743
14.3398
11.4326
14.3607
8.91497
18.5677
-17.9824
5.3483
-9.94704
-6.1458
-9.78267
9.25805
6.89085
9.40975
-11.7668
-8.52762
-11.7206
-11.987
-9.07076
11.9929
8.17449
-12.5344
-13.1255
12.6705
8.11051
7.8415
-17.6255
9.2483
-18.2831
-10.9651
-5.42831
-10.7471
10.7852
6.68381
-17.469
-5.86072
23.633
-12.6792
20.5936
-10.8992
-9.37918
-10.9111
-14.8039
-4.57946
-14.3639
-7.98948
7.70854
-8.82133
8.48931
26.8768
-16.2222
-10.6547
-12.3784
-8.18309
11.7171
-0.632344
-12.8358
12.8085
-0.880182
12.0545
16.4981
15.8658
-10.8802
-6.37674
-10.6629
10.2702
7.03322
10.3545
16.1054
8.01838
16.3209
-16.8176
-7.22078
-16.5697
4.84104
-4.91596
5.71362
-5.69473
15.5794
9.5395
-15.3421
-9.45664
22.9305
-10.775
-12.1555
-5.11965
5.21412
-0.0944722
-1.83103
-0.476901
0.266864
-1.93096
-1.79633
1.86921
0.235082
5.44921
3.65287
-2.41437
2.48177
2.77875
2.70523
-0.190933
2.49875
-2.49336
18.902
-11.4321
-7.46984
13.9702
-13.8871
-2.59953
-19.3272
16.7277
2.67853
3.00334
-2.9416
-3.94841
-1.39203
-3.91446
2.95197
2.20515
3.10365
2.10716
3.34109
-8.10338
1.56298
6.54039
-5.99622
-3.48237
-13.3462
-6.26638
19.6126
16.6788
7.86257
-16.7884
0.277982
5.29305
-5.3292
-1.59829
-11.748
8.34803
-9.94631
-15.2171
-6.4609
21.678
-9.58078
-1.08208
9.36573
2.38065
-10.8773
-7.09265
10.7431
1.42012
-12.0645
23.9707
-11.9062
-18.4413
8.51577
13.3209
16.2328
-17.8628
9.31888
8.54388
-4.54188
7.43019
1.41453
7.30399
-19.9292
13.8873
11.3239
8.4013
-11.6625
2.04707
-17.8821
25.1715
-22.2876
-2.88389
12.822
12.3495
13.549
13.3278
-7.78519
21.3342
-3.61816
-18.6694
21.5003
-13.099
15.7826
-28.8816
-29.1105
10.441
-17.9555
22.0744
-4.11888
-5.20547
-10.1108
23.161
-2.00657
-21.1545
10.1213
-13.9271
-11.8544
25.7815
-20.6052
18.4884
-6.26766
-12.2207
-12.6654
-9.44397
12.4919
2.80662
-25.8741
31.2224
-7.30638
7.80485
1.36901
7.83016
10.6086
-15.976
5.3674
9.9966
-16.2643
6.76243
-22.7385
-12.1593
24.1942
-12.035
-17.5876
-15.7967
-1.7909
4.87521
26.3471
-16.3078
12.1169
4.19088
8.46173
1.89274
-8.5601
-1.22257
0.968057
16.0864
-17.0545
10.3778
10.5
11.7044
4.38204
10.7702
7.11295
-10.7481
-0.972415
-14.7928
5.72201
-6.61828
-14.5742
20.2962
-16.2679
1.69369
-10.3032
-13.9906
24.2938
-16.449
11.4255
12.5453
18.4587
-19.615
5.62438
-9.74633
-9.86865
10.6435
-17.2618
7.49832
12.7979
15.6088
2.48335
12.7476
11.4466
-19.4314
1.1483
18.9715
-16.4772
3.88889
10.4718
-16.0058
0.209104
-10.538
2.6643
-15.3435
-14.8047
16.5297
-21.1092
-12.3519
13.5675
2.7534
-13.9037
-0.46017
-4.9542
-3.03528
-5.18643
-3.27677
-5.54456
-11.062
-1.92689
-9.13506
5.78165
-6.68686
-4.65888
7.01423
1.47508
-4.93547
4.82899
-5.58023
5.38196
-0.210165
13.0186
15.6556
7.4725
-8.47674
15.9492
-15.6083
23.6267
-29.725
14.1167
15.9488
-23.1696
-13.7762
2.70113
2.13991
2.61624
13.4476
-14.4144
0.966729
-13.2789
17.5982
-4.31931
-19.5805
6.30158
-6.13284
5.18669
0.526929
5.16852
1.41639
6.84597
-8.26236
-4.27834
-4.33
-9.16324
-13.8594
23.0226
4.73544
-13.1051
8.36967
-12.0625
16.7979
0.0785312
-13.1836
16.9847
-10.1387
17.5116
-11.984
5.5277
12.7918
22.3469
-9.55509
16.2481
-6.70865
7.06788
-16.623
-6.79151
-11.2883
18.1792
-13.0055
14.6992
-1.12465
15.8239
-13.7772
3.00222
-2.07284
8.42719
8.64232
16.8088
-12.4267
11.9697
-18.6783
-4.65328
-16.195
-3.39713
1.01875
-13.8256
12.8069
12.0439
-11.0252
-3.24222
8.98423
-5.74201
5.68191
-2.84832
-2.83359
-1.84642
-3.06954
1.8689
0.62985
6.31176
0.489181
-3.3375
-2.00418
-1.90036
10.3744
8.52754
-3.83185
3.73738
3.56499
-0.561655
0.958731
2.14492
4.58719
-3.62846
0.678123
3.90906
-2.26347
3.82773
1.46532
-3.84954
-0.0649174
-3.40814
11.7562
3.13225
-5.3374
1.70894
2.38209
-13.8142
19.7415
-11.4155
-8.326
22.1235
3.06347
-14.4789
16.2638
-13.5852
8.10343
-14.3698
-6.37549
-19.9607
-12.9157
-10.7095
19.0792
-12.3131
20.1757
3.86212
-20.4537
24.3158
-12.7398
6.27892
-9.44313
10.9084
-4.05809
-5.38504
11.2656
10.4123
-11.0535
-0.694426
0.212106
8.4193
-8.20719
-1.52702
-7.52324
-16.4089
17.829
-8.25569
17.5746
7.69356
-7.63403
25.2086
6.56495
-14.199
-11.8763
-12.9584
-5.6551
10.5777
-1.79538
-7.23198
-14.0161
7.27149
0.0325042
-19.0779
22.0709
-2.99305
-12.0735
-1.81379
14.6358
-18.0998
1.8355
-11.3373
10.7336
12.1481
12.1806
-20.8431
-0.311401
-12.6468
3.17651
-15.8233
15.526
-6.803
17.244
-16.0062
11.3474
-14.5312
14.3601
-1.46318
14.7495
-9.38212
6.05497
-15.4989
-12.6923
14.4717
-8.35849
15.8407
-10.1166
25.9574
-17.423
14.4045
11.5529
-2.71243
-8.1987
-13.9748
11.2624
0.42972
8.25988
17.8373
-10.7244
16.8649
8.92447
-18.6708
-8.33729
-25.8596
7.18882
-13.3144
-7.35658
14.5454
11.1021
12.9949
4.67675
-11.7723
17.7865
-19.5774
-5.75149
-9.05325
14.5781
-3.31574
10.1445
-19.1978
-5.19893
13.1093
-0.192345
-12.9169
3.1129
-15.4648
5.13058
-20.5954
15.9786
-16.4387
1.76946
-7.90229
-3.16601
-3.2749
-2.17182
-3.40842
-7.5667
5.39488
-1.26511
3.56387
-12.5211
12.3287
-5.07714
10.472
-4.05772
-1.12872
4.229
1.15297
11.625
3.02523
-16.8014
-9.25469
14.6242
-5.3695
1.11975
-10.8004
3.82379
8.09957
14.024
-24.8273
1.65768
-15.1437
-4.06971
6.20962
4.91453
16.9584
2.54407
6.55204
-0.342429
9.09611
2.27381
2.1982
-11.2173
12.184
1.58956
15.7063
-1.88295
7.41065
3.28557
3.30359
2.02561
5.72248
2.91983
8.72471
0.462346
-3.86765
2.06784
-3.9682
-1.26967
-4.00701
-0.316737
3.72518
-4.04191
10.496
-1.96851
5.12654
-1.8817
-4.93338
6.81508
-9.35154
-5.49504
-1.58598
-5.60628
7.31522
6.14989
-5.72925
-3.62229
2.39094
-15.3067
11.9789
-12.6733
-2.26098
22.0548
-9.46144
1.25425
-3.18252
-6.26898
-7.66101
7.72593
24.1899
1.01868
12.2837
18.8477
11.755
1.03067
11.9869
-16.1058
-10.7515
-16.4172
-0.891236
13.7446
5.61422
20.7329
17.1671
13.8513
-5.34645
-24.9238
20.7189
-8.53486
16.3996
-3.48268
-17.1127
14.6485
8.97814
-17.4019
0.963196
-16.1495
-24.6844
-0.344276
12.673
-11.2807
10.152
7.11672
2.01834
-2.42556
-0.849346
2.54267
-0.34447
8.75164
-0.188797
-8.19491
8.38371
-3.53638
2.26671
-0.429286
4.16667
6.3858
4.41728
-3.77763
-7.81954
-8.81655
-4.99768
-17.1425
2.47008
-8.61997
5.68095
-3.41424
2.84736
4.96947
10.096
-1.60166
-9.4235
7.34367
-4.4963
5.59971
)
;

boundaryField
{
    wall-4
    {
        type            calculated;
        value           uniform 0;
    }
    velocity-inlet-5
    {
        type            calculated;
        value           uniform -11.2529;
    }
    velocity-inlet-6
    {
        type            calculated;
        value           uniform -1.87548;
    }
    pressure-outlet-7
    {
        type            calculated;
        value           nonuniform List<scalar> 8(4.16636 5.00987 10.7683 12.1471 17.5812 15.0785 17.1234 15.65);
    }
    wall-8
    {
        type            calculated;
        value           uniform 0;
    }
    frontAndBackPlanes
    {
        type            empty;
        value           nonuniform List<scalar> 0();
    }
}


// ************************************************************************* //
