/*--------------------------------*- C++ -*----------------------------------*\
  =========                 |
  \\      /  F ield         | OpenFOAM: The Open Source CFD Toolbox
   \\    /   O peration     | Website:  https://openfoam.org
    \\  /    A nd           | Version:  9
     \\/     M anipulation  |
\*---------------------------------------------------------------------------*/
FoamFile
{
    format      ascii;
    class       surfaceScalarField;
    location    "6.56";
    object      alphaPhi0.water;
}
// * * * * * * * * * * * * * * * * * * * * * * * * * * * * * * * * * * * * * //

dimensions      [0 3 -1 0 0 0 0];

internalField   nonuniform List<scalar> 
4432
(
2.04065e-07
-2.04065e-07
4.2814e-07
-2.24075e-07
6.45222e-07
-2.17083e-07
8.45698e-07
-2.00475e-07
1.02727e-06
-1.81576e-07
1.19131e-06
-1.64032e-07
1.3415e-06
-1.50191e-07
1.48106e-06
-1.39555e-07
1.61003e-06
-1.28973e-07
1.72662e-06
-1.16585e-07
1.8327e-06
-1.06076e-07
1.93934e-06
-1.06634e-07
2.06421e-06
-1.24872e-07
2.22088e-06
-1.56675e-07
2.39828e-06
-1.77394e-07
2.52065e-06
-1.22379e-07
2.36961e-06
1.51038e-07
1.72521e-06
6.44401e-07
7.42317e-07
9.81149e-07
-3.12703e-07
1.05364e-06
-8.75603e-07
5.62827e-07
-6.27246e-07
-2.49159e-07
-6.28145e-07
2.1321e-07
-4.17274e-07
4.31251e-07
-4.42116e-07
6.45239e-07
-4.3107e-07
8.47384e-07
-4.02613e-07
1.03309e-06
-3.6728e-07
1.20235e-06
-3.33295e-07
1.35719e-06
-3.05025e-07
1.49889e-06
-2.81252e-07
1.62698e-06
-2.57064e-07
1.739e-06
-2.286e-07
1.83559e-06
-2.02656e-07
1.92308e-06
-1.94126e-07
2.01093e-06
-2.12727e-07
2.10377e-06
-2.49515e-07
2.18997e-06
-2.63595e-07
2.21932e-06
-1.51744e-07
2.06861e-06
3.01711e-07
1.57851e-06
1.13451e-06
8.57785e-07
1.70095e-06
1.28652e-07
1.78552e-06
-4.10289e-07
1.1029e-06
-5.01765e-07
-1.5769e-07
-1.1299e-06
2.21562e-07
-6.38837e-07
4.38689e-07
-6.5924e-07
6.50593e-07
-6.42977e-07
8.52924e-07
-6.04941e-07
1.04042e-06
-5.54775e-07
1.21199e-06
-5.04865e-07
1.36855e-06
-4.61584e-07
1.51053e-06
-4.23233e-07
1.63658e-06
-3.83113e-07
1.74322e-06
-3.35238e-07
1.82905e-06
-2.88491e-07
1.89713e-06
-2.62208e-07
1.95261e-06
-2.68211e-07
1.99678e-06
-2.93684e-07
2.02146e-06
-2.88284e-07
1.99819e-06
-1.28539e-07
1.84484e-06
4.54747e-07
1.45231e-06
1.52708e-06
9.37133e-07
2.21625e-06
4.3285e-07
2.29129e-06
-6.03365e-08
1.59616e-06
-2.80416e-07
6.23809e-08
-1.41033e-06
2.265e-07
-8.65337e-07
4.46797e-07
-8.79538e-07
6.6044e-07
-8.56623e-07
8.64818e-07
-8.09317e-07
1.05472e-06
-7.44674e-07
1.22856e-06
-6.78713e-07
1.38663e-06
-6.19652e-07
1.52874e-06
-5.65343e-07
1.65277e-06
-5.0715e-07
1.75384e-06
-4.36312e-07
1.82844e-06
-3.6309e-07
1.87712e-06
-3.10896e-07
1.90252e-06
-2.93618e-07
1.90449e-06
-2.95659e-07
1.87891e-06
-2.62702e-07
1.81908e-06
-6.90393e-08
1.6933e-06
5.7778e-07
1.38877e-06
1.83163e-06
1.02087e-06
2.58416e-06
6.53358e-07
2.65882e-06
2.29359e-07
2.02017e-06
-1.2873e-08
3.04352e-07
-1.4232e-06
2.30076e-07
-1.09541e-06
4.55586e-07
-1.10505e-06
6.73919e-07
-1.07496e-06
8.8231e-07
-1.01771e-06
1.0756e-06
-9.37968e-07
1.25211e-06
-8.55224e-07
1.41175e-06
-7.79288e-07
1.55392e-06
-7.07516e-07
1.67592e-06
-6.29158e-07
1.77128e-06
-5.3168e-07
1.83443e-06
-4.26237e-07
1.86405e-06
-3.40519e-07
1.86129e-06
-2.90865e-07
1.82513e-06
-2.59504e-07
1.75388e-06
-1.91458e-07
1.65389e-06
3.09562e-08
1.54533e-06
6.76951e-07
1.34243e-06
1.98764e-06
1.10914e-06
2.78148e-06
8.36857e-07
2.90446e-06
5.12139e-07
2.3207e-06
2.6145e-07
5.56915e-07
-1.16174e-06
2.34135e-07
-1.32955e-06
4.66133e-07
-1.33704e-06
6.91014e-07
-1.29984e-06
9.04853e-07
-1.23154e-06
1.10236e-06
-1.13547e-06
1.28187e-06
-1.03474e-06
1.44306e-06
-9.40478e-07
1.58505e-06
-8.49513e-07
1.70484e-06
-7.48944e-07
1.7944e-06
-6.21243e-07
1.84629e-06
-4.78125e-07
1.85789e-06
-3.5212e-07
1.82966e-06
-2.62643e-07
1.75988e-06
-1.89722e-07
1.64722e-06
-7.88054e-08
1.50247e-06
1.75711e-07
1.37422e-06
7.92116e-07
1.28559e-06
2.07367e-06
1.16474e-06
2.89966e-06
9.92089e-07
3.05698e-06
8.41039e-07
2.45176e-06
5.65891e-07
8.44935e-07
-5.95839e-07
2.39504e-07
-1.56905e-06
4.79149e-07
-1.57669e-06
7.11453e-07
-1.53215e-06
9.31465e-07
-1.45155e-06
1.1336e-06
-1.33761e-06
1.31625e-06
-1.21738e-06
1.47878e-06
-1.103e-06
1.62008e-06
-9.90813e-07
1.73715e-06
-8.66005e-07
1.82074e-06
-7.04834e-07
1.86193e-06
-5.19311e-07
1.85735e-06
-3.47538e-07
1.80753e-06
-2.12817e-07
1.71032e-06
-9.25108e-08
1.56484e-06
6.66732e-08
1.38428e-06
3.56264e-07
1.22968e-06
9.46719e-07
1.22962e-06
2.07925e-06
1.21015e-06
2.9164e-06
1.16884e-06
3.09557e-06
1.17875e-06
2.49346e-06
8.39108e-07
1.19177e-06
2.43265e-07
2.46816e-07
-1.81587e-06
4.94001e-07
-1.82387e-06
7.33975e-07
-1.77212e-06
9.60215e-07
-1.67779e-06
1.16701e-06
-1.5444e-06
1.35272e-06
-1.40309e-06
1.51615e-06
-1.26643e-06
1.65586e-06
-1.13053e-06
1.76928e-06
-9.79421e-07
1.84655e-06
-7.82095e-07
1.87786e-06
-5.50625e-07
1.85963e-06
-3.29297e-07
1.7932e-06
-1.46393e-07
1.67644e-06
2.42543e-08
1.51061e-06
2.32499e-07
1.31156e-06
5.55309e-07
1.14269e-06
1.1156e-06
1.15634e-06
2.05959e-06
1.23402e-06
2.86352e-06
1.33752e-06
3.03914e-06
1.37986e-06
2.47286e-06
1.01752e-06
1.55414e-06
1.26078e-06
-1.32124e-06
1.31927e-06
-8.70304e-07
-4.56281e-07
-3.49513e-07
-5.23158e-07
-1.98201e-08
-3.30465e-07
1.96085e-07
-2.17033e-07
3.01742e-07
-1.06695e-07
4.58882e-07
-1.58452e-07
7.70292e-07
-3.12723e-07
1.20964e-06
-4.42411e-07
1.35774e-06
-1.49095e-07
7.40162e-07
6.16916e-07
-1.58851e-07
9.04211e-07
-1.52295e-06
1.36929e-06
-2.71689e-06
1.18626e-06
-2.17886e-06
-5.38171e-07
-1.01752e-06
-1.16147e-06
-2.99007e-07
-7.18768e-07
3.27419e-07
-6.26051e-07
3.26814e-07
-6.60172e-07
1.97747e-06
-4.60304e-07
-6.56574e-07
-2.97505e-07
-6.85963e-07
-1.84774e-07
-4.432e-07
-1.12449e-07
-2.89364e-07
-2.87976e-08
-1.90352e-07
9.98258e-08
-2.87129e-07
3.35098e-07
-5.49062e-07
6.16499e-07
-7.23767e-07
6.84194e-07
-2.16745e-07
2.67751e-07
1.03793e-06
-4.45699e-07
1.62145e-06
-1.37753e-06
2.30703e-06
-2.11911e-06
1.92433e-06
-1.86646e-06
-7.90945e-07
-1.18761e-06
-1.84046e-06
-7.03801e-07
-1.2027e-06
-2.99094e-08
-1.30007e-06
2.96584e-07
-9.14045e-08
2.0669e-06
-2.13492e-07
-5.3538e-07
-2.84995e-07
-6.14623e-07
-3.09769e-07
-4.18448e-07
-3.1874e-07
-2.80397e-07
-2.94626e-07
-2.14473e-07
-2.22667e-07
-3.59095e-07
-7.00084e-08
-7.01728e-07
1.19224e-07
-9.12753e-07
1.32533e-07
-2.30151e-07
-2.03078e-07
1.37327e-06
-7.17616e-07
2.13571e-06
-1.26236e-06
2.85334e-06
-1.73457e-06
2.39759e-06
-1.59687e-06
-9.30211e-07
-1.17752e-06
-2.25993e-06
-9.43807e-07
-1.43655e-06
-4.19929e-07
-1.82408e-06
-1.22915e-07
1.98578e-07
1.88397e-06
-1.14312e-07
-2.2218e-07
-3.25676e-07
-4.03266e-07
-4.43676e-07
-3.00468e-07
-5.16235e-07
-2.07862e-07
-5.50536e-07
-1.80109e-07
-5.43624e-07
-3.65792e-07
-4.6972e-07
-7.75601e-07
-3.39907e-07
-1.04187e-06
-3.32983e-07
-2.37728e-07
-6.1142e-07
1.65143e-06
-9.55474e-07
2.47949e-06
-1.23429e-06
3.13188e-06
-1.51697e-06
2.68e-06
-1.33166e-06
-1.11611e-06
-1.07255e-06
-2.51917e-06
-1.09705e-06
-1.41218e-06
-7.86392e-07
-2.12928e-06
-9.09313e-07
2.05514e-07
1.67845e-06
-1.43211e-07
1.26549e-07
-4.20708e-07
-1.25765e-07
-5.99149e-07
-1.22039e-07
-7.22507e-07
-8.45014e-08
-8.1217e-07
-8.99409e-08
-8.70461e-07
-3.07696e-07
-8.7867e-07
-7.67585e-07
-8.15141e-07
-1.10304e-06
-7.67676e-07
-2.871e-07
-9.8039e-07
1.86387e-06
-1.17534e-06
2.67417e-06
-1.25744e-06
3.21636e-06
-1.29383e-06
2.61733e-06
-1.03294e-06
-1.37928e-06
-9.02112e-07
-2.65145e-06
-1.12236e-06
-1.19017e-06
-9.90363e-07
-2.2507e-06
-1.89968e-06
8.75795e-08
1.59087e-06
-2.54345e-07
4.68476e-07
-5.5843e-07
1.78324e-07
-7.75221e-07
9.47516e-08
-9.38064e-07
7.83361e-08
-1.07695e-06
4.91161e-08
-1.19804e-06
-1.86627e-07
-1.28897e-06
-6.77291e-07
-1.31228e-06
-1.07939e-06
-1.20581e-06
-3.65743e-07
-1.28162e-06
1.85266e-06
-1.35951e-06
2.65841e-06
-1.29189e-06
3.0979e-06
-9.77498e-07
2.28999e-06
-7.27248e-07
-1.6465e-06
-6.96836e-07
-2.67564e-06
-9.64126e-07
-9.13949e-07
-9.668e-07
-2.26078e-06
-2.87699e-06
-3.81535e-08
1.62903e-06
-4.06341e-07
8.36667e-07
-7.2352e-07
4.95502e-07
-9.6525e-07
3.36522e-07
-1.15794e-06
2.71004e-07
-1.33574e-06
2.26893e-07
-1.51188e-06
-1.04889e-08
-1.68209e-06
-5.07086e-07
-1.80367e-06
-9.57642e-07
-1.68636e-06
-4.25336e-07
-1.53043e-06
1.69661e-06
-1.44423e-06
2.5721e-06
-1.19763e-06
2.8512e-06
-6.28223e-07
1.70765e-06
-4.66959e-07
-1.81955e-06
-5.18563e-07
-2.61878e-06
-6.5991e-07
-7.78659e-07
-7.60627e-07
-2.16e-06
-3.63757e-06
-2.02146e-07
1.83117e-06
-5.82003e-07
1.21651e-06
-9.01203e-07
8.147e-07
-1.16139e-06
5.96711e-07
-1.3757e-06
4.85312e-07
-1.58063e-06
4.31821e-07
-1.79458e-06
2.03296e-07
-2.02403e-06
-2.77769e-07
-2.22415e-06
-7.58114e-07
-2.13744e-06
-4.29172e-07
-1.78236e-06
1.34139e-06
-1.50005e-06
2.28968e-06
-1.08549e-06
2.43653e-06
-3.80764e-07
1.00239e-06
-2.87458e-07
-1.91264e-06
-3.60998e-07
-2.54255e-06
-3.41144e-07
-8.04667e-07
-4.1062e-07
-2.09483e-06
-4.04814e-06
5.43666e-07
-2.35953e-06
1.09495e-06
-2.37515e-06
1.6325e-06
-2.30965e-06
2.13394e-06
-2.17921e-06
2.58839e-06
-1.99884e-06
2.99342e-06
-1.80811e-06
3.3425e-06
-1.61549e-06
3.62867e-06
-1.41669e-06
3.85393e-06
-1.20467e-06
3.99538e-06
-9.23535e-07
4.03247e-06
-5.8771e-07
3.95726e-06
-2.54094e-07
3.77826e-06
3.26052e-08
3.49679e-06
3.05725e-07
3.11802e-06
6.11272e-07
2.68991e-06
9.8342e-07
2.35487e-06
1.45063e-06
2.38174e-06
2.03273e-06
2.71754e-06
2.5326e-06
3.07646e-06
2.6907e-06
3.0903e-06
2.45902e-06
2.53132e-06
2.11312e-06
1.97606e-06
1.81604e-06
5.19984e-07
-2.26741e-06
1.08587e-06
-2.325e-06
1.63752e-06
-2.26913e-06
2.14902e-06
-2.13505e-06
2.61546e-06
-1.95456e-06
3.03592e-06
-1.76568e-06
3.39021e-06
-1.55778e-06
3.6542e-06
-1.32376e-06
3.81802e-06
-1.07516e-06
3.89507e-06
-7.88895e-07
3.89294e-06
-4.7074e-07
3.81739e-06
-1.44575e-07
3.65134e-06
1.49242e-07
3.38396e-06
4.28659e-07
3.04729e-06
7.06331e-07
2.70776e-06
9.87311e-07
2.47214e-06
1.2714e-06
2.46408e-06
1.55426e-06
2.65451e-06
1.79409e-06
2.79838e-06
1.94596e-06
2.61788e-06
1.98539e-06
2.04914e-06
1.99126e-06
2.02198e-06
1.29836e-06
2.42491e-07
-8.81316e-09
3.89263e-07
-6.64092e-09
5.21055e-07
-3.25129e-09
6.75607e-07
-7.11935e-09
8.53914e-07
-1.48567e-08
1.0212e-06
-1.51866e-08
1.15132e-06
-1.30155e-08
1.23668e-06
-1.23575e-08
1.2689e-06
-9.06622e-09
1.27542e-06
-5.50743e-09
1.28135e-06
-3.05552e-09
1.27417e-06
-2.91611e-10
1.22557e-06
9.38717e-10
1.13952e-06
0
1.03908e-06
0
9.46307e-07
0
8.89868e-07
6.97783e-10
8.87538e-07
7.22538e-09
9.08208e-07
0
9.03864e-07
5.56508e-10
8.05683e-07
3.94342e-11
6.13516e-07
0
0
3.60803e-07
9.41687e-10
-1.0164e-08
1.08546e-09
-7.20783e-09
3.82413e-10
-2.99852e-09
4.48308e-10
-7.68287e-09
1.00745e-09
-1.60164e-08
1.43076e-09
-1.62559e-08
1.63628e-09
-1.39036e-08
1.85931e-09
-1.32895e-08
1.97337e-09
-9.90258e-09
1.9852e-09
-6.25326e-09
1.99571e-09
-3.80535e-09
1.99667e-09
-1.03799e-09
2.18997e-09
0
2.8564e-09
0
3.85374e-09
0
4.74888e-09
0
5.63003e-09
0
5.80522e-09
0
3.24127e-09
0
3.41579e-09
1.31838e-12
3.31006e-09
6.09691e-13
3.02102e-09
0
0
2.15776e-09
-3.63119e-09
-4.47795e-09
-2.92761e-09
-5.859e-09
0
8.2788e-11
-1.73285e-09
-4.58237e-09
-1.99439e-09
-1.16557e-09
-3.35719e-09
-1.95432e-11
-4.21719e-09
-1.11629e-13
-4.963e-09
-1.61301e-10
-4.71966e-09
-5.15222e-09
-2.84331e-09
-3.67717e-09
-5.44761e-10
-3.18224e-09
2.72626e-09
-2.00906e-09
5.11e-09
-8.63046e-11
6.58688e-09
8.19286e-10
3.33224e-09
1.33682e-09
3.19951e-09
2.57789e-09
2.29533e-09
2.25313e-09
1.44654e-09
1.24808e-09
4.91567e-10
5.44916e-10
-5.52409e-10
6.92948e-10
-1.12033e-09
4.51694e-10
-1.15145e-09
3.48043e-10
5.80283e-10
-7.4704e-10
-8.11279e-10
-5.73498e-10
-7.82687e-10
-2.49777e-10
3.15097e-10
-6.27405e-10
1.10771e-09
-1.81457e-09
-2.3054e-14
-5.82552e-11
-7.51752e-14
-1.99644e-11
-5.41919e-13
-1.18935e-13
-1.62081e-10
-3.5362e-13
-2.94489e-10
-5.83387e-14
-3.6235e-10
-7.68323e-13
-5.78444e-10
-2.40746e-12
-4.36046e-10
-9.89993e-13
-3.11312e-10
-6.82372e-13
-3.60985e-10
5.09241e-13
-4.62183e-10
0
-4.30935e-10
0
-8.47923e-10
0
-2.04156e-09
0
-1.45222e-09
3.45262e-10
-1.81128e-09
0
-2.74229e-09
0
-3.73754e-09
2.73858e-10
0
-3.16038e-09
0
-1.63742e-15
-2.49774e-10
-4.35328e-15
-7.75779e-11
-2.76701e-14
-7.01099e-11
-4.02981e-14
-4.57714e-11
-4.59514e-12
-4.72081e-12
-5.04224e-12
-1.8707e-13
-5.24308e-12
-7.15681e-14
-1.17904e-12
-8.22616e-14
-6.19233e-14
-9.49493e-14
-7.69881e-13
-9.8876e-14
-2.42127e-12
-1.13265e-13
-9.9361e-13
-8.11183e-13
7.59574e-16
-3.13517e-13
0
-1.868e-10
0
-4.17419e-10
9.75313e-12
-2.98981e-10
7.73148e-12
-2.98106e-10
9.79357e-11
-4.74641e-10
0
-6.34988e-10
0
-3.32754e-10
0
-3.72458e-10
0
6.76126e-11
-2.25854e-09
-4.4516e-16
-2.416e-15
-1.38837e-15
-4.63381e-15
-2.19307e-15
-2.80993e-14
-1.83884e-14
-2.54624e-14
-4.60909e-12
-6.95687e-15
-9.39645e-12
-2.26904e-12
-5.35614e-12
-3.83028e-12
-1.18775e-12
-2.80673e-12
-1.22534e-12
-3.85724e-14
-6.04261e-12
-1.17746e-12
-9.26241e-12
-3.21526e-12
-1.45992e-12
-4.36986e-13
-1.50426e-12
3.54142e-14
-5.35855e-11
1.24748e-12
-6.76743e-10
3.91923e-11
-6.19864e-10
5.53563e-11
-2.93932e-10
3.96188e-11
-2.70405e-10
8.87163e-12
-3.67209e-10
1.10541e-12
-1.32835e-10
1.48537e-11
-5.07972e-12
1.22315e-11
-7.40554e-12
1.02223e-13
0
-2.68714e-10
-7.60663e-17
-1.28107e-15
-7.43494e-15
-1.22932e-15
-1.79476e-14
-4.16224e-14
0
-1.05817e-14
-9.90369e-15
-5.94194e-16
-9.53992e-12
-2.78956e-13
-7.3575e-12
-5.59596e-13
-2.52123e-12
-1.10931e-12
-2.54232e-12
-2.1761e-14
-1.72003e-11
-8.25464e-13
-1.86735e-11
-1.57794e-12
-1.00667e-11
3.27356e-13
0
2.85721e-13
-5.63959e-11
1.64088e-12
-2.21277e-10
4.91695e-13
-1.98195e-10
2.5681e-13
-1.76388e-10
0
-2.59785e-10
2.63334e-11
-1.89009e-10
2.95513e-11
-1.21521e-11
0
-2.06682e-13
1.41333e-13
-1.27849e-13
4.59293e-14
0
-3.87079e-13
-7.55813e-16
-1.26114e-15
-4.5101e-14
-5.05768e-14
-8.28795e-14
-5.03355e-14
-3.78463e-15
-2.07784e-14
-4.22503e-15
-1.53851e-16
-1.83031e-12
-1.64912e-16
-1.50488e-12
-3.92231e-16
0
-1.61899e-14
0
-9.95665e-16
-1.66663e-11
-4.19177e-13
-1.80415e-11
-3.86019e-14
-1.60263e-11
8.28879e-13
-3.71868e-12
4.99351e-13
-5.49014e-12
0
-1.82518e-13
0
-1.95514e-13
0
-7.34484e-12
0
-3.14573e-11
0
-1.06967e-11
0
-1.83875e-13
1.10907e-12
-1.42726e-13
4.50575e-14
-1.36146e-13
7.92289e-14
9.90387e-14
-2.56434e-13
-1.83241e-14
-5.44124e-16
-5.6747e-14
-4.28312e-15
-9.74586e-14
-1.7613e-15
-9.98171e-16
2.12283e-15
-1.26951e-15
1.17426e-16
-1.51739e-15
8.29175e-17
-1.91187e-15
2.1903e-18
-2.79324e-14
9.82848e-15
-5.83183e-13
7.86576e-14
-8.80024e-12
3.53169e-13
-9.43757e-12
7.62868e-13
-1.84737e-12
3.26998e-13
-1.04068e-13
0
-9.23032e-14
0
-4.80293e-14
0
-3.33624e-13
9.58853e-15
-1.92601e-12
8.223e-13
-1.79911e-12
2.3576e-12
-1.57544e-13
4.79907e-12
-7.82005e-14
9.8248e-13
-1.11147e-13
4.70952e-14
-2.16737e-13
9.17241e-14
7.59844e-14
-1.62423e-13
-5.27302e-15
9.31956e-17
-6.07196e-14
7.17058e-15
-8.65955e-14
3.25614e-14
-1.14838e-15
9.20686e-15
-1.38754e-15
3.56523e-16
-1.68102e-15
3.76338e-16
-2.56186e-14
2.39375e-14
-3.25803e-12
2.78338e-13
-5.28237e-12
9.37411e-13
-6.74561e-12
6.54683e-13
-3.37191e-13
4.76141e-13
-9.65335e-15
8.83878e-16
-9.08529e-15
5.03621e-16
-3.09212e-15
1.50088e-15
0
2.10181e-17
0
5.49193e-15
-2.37278e-11
3.20901e-12
-2.86486e-11
7.30403e-12
-3.14391e-11
8.60457e-12
-9.59599e-14
1.05166e-11
-1.13184e-13
3.19437e-14
-7.79391e-14
3.22156e-14
1.04133e-14
-5.4486e-14
-1.34116e-15
3.53218e-16
-2.13772e-14
2.7894e-15
-1.59317e-14
0
-1.30024e-15
1.80022e-16
-1.50414e-15
5.60345e-16
-2.00134e-15
8.65207e-16
-4.30251e-12
3.07912e-13
-4.85268e-12
1.59512e-12
-4.69606e-12
1.54527e-12
-4.78668e-13
6.64913e-13
-5.19551e-15
1.38475e-15
-4.07612e-15
1.18493e-15
-4.19184e-15
1.29154e-15
-1.51574e-16
7.24662e-16
-3.53508e-16
9.34636e-17
-4.49026e-13
9.14167e-15
-2.68885e-11
2.83468e-12
-2.65754e-11
7.01739e-12
-2.5636e-11
7.69084e-12
-1.98885e-11
6.15878e-12
-1.35937e-13
1.49774e-12
-7.57352e-14
2.20415e-14
2.60105e-14
-4.12349e-14
-2.72833e-17
1.17115e-14
-6.35291e-17
2.90265e-15
-9.78415e-17
1.16665e-16
-6.2851e-16
1.86124e-16
-6.22854e-17
9.14344e-16
0
1.61848e-15
-1.84527e-12
2.36064e-13
-4.36057e-12
9.47862e-13
-2.79748e-12
8.39525e-13
-5.554e-15
3.56919e-14
-6.47201e-15
1.01654e-15
-4.09037e-15
1.5805e-15
-1.70784e-15
1.63088e-15
-2.5945e-16
4.08816e-16
-2.99284e-16
8.66138e-17
0
1.56855e-16
-2.0796e-12
0
-1.54635e-11
2.90329e-13
-2.15983e-11
3.09865e-12
-1.51761e-12
2.46868e-15
-7.5769e-14
8.42096e-15
-5.48571e-14
2.23836e-14
3.41428e-14
-5.75174e-14
-2.5144e-14
1.17598e-13
-2.43048e-16
2.7538e-13
-1.5753e-16
3.97195e-17
-8.0821e-17
2.77741e-16
0
2.16119e-15
-7.21227e-14
2.14254e-14
-3.25439e-13
1.63685e-14
-4.24815e-13
2.24731e-16
-3.72729e-14
1.41579e-16
-2.25934e-15
3.75451e-19
-3.66352e-15
1.13643e-15
-2.85099e-15
1.91631e-15
-8.50415e-16
1.13783e-15
-2.11438e-16
1.23311e-16
-2.0879e-16
8.81113e-17
-2.28408e-16
8.32971e-17
-4.97043e-15
7.91424e-17
-3.54292e-13
0
-3.3636e-14
0
-2.55112e-14
0
-7.36238e-14
8.97248e-15
-6.25297e-14
3.2788e-14
2.09317e-14
-1.89199e-14
-5.73051e-14
3.54189e-13
-2.0075e-16
2.79311e-13
-1.99075e-16
4.67475e-17
-5.50545e-16
4.98084e-16
-1.18531e-14
5.19113e-15
-1.42711e-14
1.12499e-14
-5.44227e-16
3.20534e-16
-2.62232e-16
3.22486e-18
-1.16503e-16
1.70266e-18
-9.00413e-16
1.04089e-16
-1.8212e-15
6.03808e-16
-1.27152e-15
6.88146e-16
-1.84143e-16
1.82153e-16
-1.68054e-16
4.97125e-17
-1.77393e-16
8.35967e-17
-1.79244e-16
8.31282e-17
-1.91584e-16
7.98971e-17
-3.27506e-16
5.90968e-17
-2.96055e-16
9.32153e-18
-2.50906e-15
4.95409e-17
-3.39449e-14
3.50977e-15
-4.17787e-14
7.3642e-15
3.68122e-15
-3.06343e-15
-9.22594e-14
4.46539e-13
-2.99641e-16
2.47575e-13
-2.97131e-16
5.32514e-17
-1.33095e-15
7.48963e-16
-4.65286e-15
3.65499e-15
-3.38536e-16
1.95373e-15
-4.62406e-17
3.28203e-17
-2.17148e-17
4.24067e-17
-2.99743e-17
1.64418e-17
-2.58043e-16
2.29825e-17
-2.70613e-16
5.5002e-17
-9.7858e-17
3.15315e-17
-4.80025e-17
5.79987e-18
-8.78196e-17
1.27325e-17
-1.3319e-16
5.39501e-17
-1.72305e-16
8.03567e-17
-1.74678e-16
9.00155e-17
-1.5485e-16
8.16053e-17
-1.4553e-16
6.2461e-17
-3.36362e-16
4.39327e-17
-5.09434e-16
1.07158e-17
-6.9026e-16
0
0
-2.85132e-15
-4.74267e-14
4.94114e-13
-2.51728e-16
1.97325e-13
-2.48181e-16
5.89859e-17
-9.87681e-16
6.46648e-16
-6.41806e-16
1.09928e-15
-3.36189e-17
6.60523e-17
-3.30695e-17
3.74412e-17
-1.3983e-17
4.5494e-17
-4.55607e-18
6.16602e-18
-1.01366e-17
4.25985e-19
-6.98165e-18
6.00768e-19
-1.02688e-18
4.41e-18
-1.84165e-18
8.96922e-19
-2.07418e-17
8.51666e-19
-6.538e-17
1.24979e-17
-1.09496e-16
3.69816e-17
-1.1797e-16
5.29355e-17
-1.11956e-16
5.21672e-17
-8.77106e-17
4.2131e-17
-4.94531e-17
2.27179e-17
-1.72418e-17
6.92532e-18
-2.54386e-17
2.85053e-18
3.12756e-18
-3.22469e-16
-7.29757e-14
5.67263e-13
-1.30447e-16
2.17696e-13
-1.26225e-16
6.41568e-17
-2.03435e-16
2.13656e-16
-3.85704e-17
1.61314e-16
-1.23095e-17
1.69291e-17
-1.39095e-17
1.2337e-17
-2.26245e-18
1.10462e-17
-1.38075e-20
1.69368e-18
-1.03707e-20
1.6468e-20
5.7489e-19
1.50578e-20
8.15917e-19
-6.09953e-19
-1.0335e-19
-7.9434e-19
-8.04554e-19
9.24668e-20
-1.02284e-17
2.837e-18
-2.54003e-17
2.85626e-18
-2.75331e-17
5.3136e-18
-2.61248e-17
5.07779e-18
-2.16138e-17
4.21027e-18
-1.47282e-17
3.28656e-18
-7.25949e-18
2.26195e-18
-3.89508e-18
1.03409e-18
1.97819e-19
-2.20116e-18
-7.15262e-14
6.38907e-13
-4.97489e-17
3.97775e-13
-4.52254e-17
6.90332e-17
-3.51835e-17
7.33423e-17
-1.07344e-17
6.68471e-17
-2.45358e-18
1.25114e-17
-1.67621e-18
6.123e-19
4.34271e-19
2.1235e-18
1.33466e-18
-7.14839e-19
1.69673e-18
-1.97326e-18
1.8535e-18
-2.27463e-18
1.68247e-18
-2.26843e-18
1.10925e-18
-1.88727e-18
2.59534e-19
-1.14188e-18
-3.94364e-19
-2.44955e-19
-8.85595e-19
3.40487e-19
-9.51356e-19
7.3378e-19
-8.72639e-19
6.87999e-19
-7.71517e-19
5.45395e-19
-6.75422e-19
4.36109e-19
-5.29446e-19
3.33027e-19
-3.95039e-19
2.19904e-19
2.08034e-20
-3.41832e-19
-6.95535e-14
7.08528e-13
-3.59308e-17
7.60947e-13
-3.11563e-17
7.35939e-17
-2.07052e-17
7.20945e-17
-8.19885e-18
6.9369e-17
-1.87392e-19
1.26943e-17
1.99579e-19
1.39334e-20
1.02196e-18
-4.21909e-19
1.61159e-18
-1.92358e-18
1.87098e-18
-2.73148e-18
1.87319e-18
-2.87969e-18
1.67797e-18
-2.63356e-18
1.33416e-18
-2.16214e-18
9.30381e-19
-1.57712e-18
5.54945e-19
-1.00786e-18
3.24979e-19
-5.49443e-19
2.14238e-19
-2.93015e-19
1.49396e-19
-1.75142e-19
9.0699e-20
-1.10086e-19
4.02946e-20
-5.96211e-20
4.37444e-21
-2.31297e-20
-6.04861e-22
-2.09625e-21
2.19953e-22
-7.95099e-22
-6.59911e-14
7.74587e-13
-3.54229e-17
6.95085e-13
-3.01768e-17
7.77484e-17
-2.22151e-17
8.38312e-17
-7.83609e-18
9.48817e-17
3.23544e-20
1.38336e-17
3.82017e-19
-8.85421e-20
8.89169e-19
-9.20099e-19
1.24128e-18
-1.91272e-18
1.38228e-18
-2.41038e-18
1.35271e-18
-2.44185e-18
1.20856e-18
-2.18528e-18
9.98283e-19
-1.79065e-18
7.70029e-19
-1.35751e-18
5.5972e-19
-9.59801e-19
3.99412e-19
-6.37554e-19
2.85142e-19
-4.13856e-19
2.01071e-19
-2.67062e-19
1.36976e-19
-1.68647e-19
8.82789e-20
-1.01308e-19
5.27541e-20
-5.59589e-20
2.91943e-20
-2.71051e-20
-1.07979e-20
1.50223e-20
-5.76543e-14
8.32309e-13
-4.28731e-17
4.04544e-13
-3.70961e-17
8.14052e-17
-3.41148e-17
1.64653e-16
-8.93278e-18
1.85573e-16
-6.37005e-19
2.03158e-17
6.02483e-20
1.81443e-18
3.61033e-19
-1.66084e-19
6.05501e-19
-8.91487e-19
7.26136e-19
-1.35294e-18
7.3765e-19
-1.47884e-18
6.74404e-19
-1.37588e-18
5.69528e-19
-1.15509e-18
4.50948e-19
-8.96228e-19
3.38757e-19
-6.51062e-19
2.44784e-19
-4.47235e-19
1.71425e-19
-2.93945e-19
1.16711e-19
-1.85761e-19
7.75836e-20
-1.12753e-19
5.01987e-20
-6.55015e-20
3.12457e-20
-3.57382e-20
1.82914e-20
-1.74996e-20
-6.90076e-21
9.94435e-21
-4.00823e-14
2.75895e-13
-7.81333e-17
5.39861e-16
-7.18658e-17
8.46389e-17
-6.07188e-17
4.43602e-16
-1.26833e-17
3.18863e-16
-2.61635e-18
3.94663e-17
-1.68766e-18
1.15154e-17
-9.38648e-19
7.51792e-18
-2.31504e-19
3.87723e-18
1.5161e-19
1.39678e-18
2.54415e-19
-3.59436e-19
2.79829e-19
-5.53357e-19
2.55862e-19
-5.59788e-19
2.10423e-19
-4.71039e-19
1.60911e-19
-3.56019e-19
1.16366e-19
-2.49359e-19
7.97959e-20
-1.6422e-19
5.23676e-20
-1.01633e-19
3.33214e-20
-5.93429e-20
2.07918e-20
-3.28002e-20
1.26676e-20
-1.70231e-20
7.37873e-21
-7.9041e-21
-2.82484e-21
3.95077e-21
-2.71719e-16
2.58658e-16
-3.86424e-17
2.78329e-16
-9.37555e-17
4.38493e-16
-9.21932e-17
6.66598e-16
-1.83468e-17
4.20192e-16
-6.69074e-18
7.32549e-17
-5.55893e-18
3.49871e-17
-4.24927e-18
2.74781e-17
-2.5462e-18
1.80953e-17
-1.06801e-18
9.46113e-18
-2.40434e-19
3.54843e-18
5.26472e-20
8.89393e-19
8.52466e-20
-1.25061e-19
8.00928e-20
-1.86783e-19
6.36632e-20
-1.61712e-19
4.66503e-20
-1.18089e-19
3.14565e-20
-7.90515e-20
1.98367e-20
-4.82451e-20
1.18943e-20
-2.71123e-20
6.93408e-21
-1.41003e-20
3.9506e-21
-6.77294e-21
2.18828e-21
-2.84317e-21
-8.3146e-22
1.12167e-21
-1.35662e-17
2.70222e-16
-5.1352e-17
2.88957e-16
-8.84824e-17
7.16048e-16
-6.40972e-17
7.53479e-16
-2.23485e-17
4.40195e-16
-1.19887e-17
1.12867e-16
-1.07902e-17
7.19918e-17
-9.01559e-18
5.94719e-17
-6.14094e-18
4.23254e-17
-3.22053e-18
2.48769e-17
-1.204e-18
1.12813e-17
-2.3553e-19
3.62916e-18
1.27001e-20
6.41872e-19
2.49409e-20
-3.39869e-20
2.14333e-20
-6.17572e-20
1.62116e-20
-4.90113e-20
1.07744e-20
-3.40831e-20
6.48744e-21
-2.06561e-20
3.61319e-21
-1.11748e-20
1.9073e-21
-5.4388e-21
9.59062e-22
-2.36899e-21
4.62785e-22
-8.51909e-22
-1.60545e-22
2.07043e-22
-1.06787e-17
2.80111e-16
-4.59149e-17
2.96712e-16
-7.18554e-17
7.32336e-16
-6.59334e-17
7.59812e-16
-2.18392e-17
3.94183e-16
-1.60139e-17
1.42884e-16
-1.49976e-17
1.13213e-16
-1.2883e-17
9.63413e-17
-9.48218e-18
7.04135e-17
-5.42159e-18
4.48115e-17
-2.15371e-18
2.15659e-17
-5.01104e-19
7.06166e-18
-3.58176e-20
1.27674e-18
6.34237e-21
6.96788e-20
6.23623e-21
-2.00757e-20
4.9214e-21
-1.83951e-20
3.20864e-21
-1.35123e-20
1.82307e-21
-8.16789e-21
9.21516e-22
-4.26357e-21
4.19659e-22
-1.93999e-21
1.67347e-22
-7.5637e-22
5.32938e-23
-2.19479e-22
-6.70725e-24
6.0206e-24
-8.29204e-18
2.87613e-16
-3.05437e-17
2.56319e-16
-4.28391e-17
5.04219e-16
-3.54597e-17
4.78831e-16
-1.64779e-17
2.48392e-16
-1.56888e-17
1.51428e-16
-1.56428e-17
1.39212e-16
-1.38929e-17
1.26596e-16
-1.07062e-17
9.59113e-17
-6.45054e-18
6.33463e-17
-2.55695e-18
3.141e-17
-5.0172e-19
9.73745e-18
-3.20242e-20
1.3814e-18
1.25669e-21
7.29385e-20
1.58454e-21
-5.43546e-21
1.29129e-21
-6.4949e-21
8.06786e-22
-5.05209e-21
4.14421e-22
-3.03999e-21
1.75303e-22
-1.52352e-21
5.68144e-23
-6.43617e-22
7.54642e-24
-2.21527e-22
-1.62785e-23
-4.79019e-23
3.42581e-24
-2.18994e-23
-4.66153e-18
3.58521e-16
-9.65563e-18
2.03483e-16
-1.13971e-17
2.30865e-16
-1.06952e-17
2.08623e-16
-1.01219e-17
1.72758e-16
-1.08688e-17
1.52232e-16
-1.165e-17
1.43072e-16
-1.14224e-17
1.37481e-16
-9.16108e-18
1.13144e-16
-5.67721e-18
7.55363e-17
-2.11999e-18
3.74097e-17
-3.40815e-19
1.04647e-17
-1.58272e-20
1.36904e-18
1.39031e-22
4.49432e-20
3.39164e-22
-9.27347e-22
2.72326e-22
-2.22382e-21
1.50298e-22
-1.81214e-21
5.84298e-23
-1.07457e-21
1.0714e-23
-5.1223e-22
-1.32709e-23
-1.9968e-22
-2.06518e-23
-6.03169e-23
-1.80509e-23
-8.06338e-24
2.14527e-24
-1.313e-23
-3.07543e-18
9.27236e-16
-4.2576e-18
2.0457e-16
-4.33285e-18
2.30844e-16
-4.2362e-18
2.08431e-16
-4.53998e-18
1.72967e-16
-5.06627e-18
1.48255e-16
-5.85552e-18
1.43376e-16
-6.18247e-18
1.38289e-16
-5.33331e-18
1.17304e-16
-3.35414e-18
7.91519e-17
-1.17411e-18
3.83643e-17
-1.54504e-19
1.04378e-17
-3.69174e-21
9.96444e-19
4.00933e-24
1.37976e-20
4.95476e-23
-5.51087e-23
3.1336e-23
-7.55934e-22
6.49553e-24
-6.33553e-22
-1.20855e-23
-3.64322e-22
-1.9832e-23
-1.63699e-22
-1.81166e-23
-5.86473e-23
-1.33349e-23
-1.51312e-23
-8.73577e-24
-3.24717e-25
8.9871e-25
-5.35267e-24
-1.78543e-18
3.84091e-15
-1.60389e-18
2.04293e-16
-3.34897e-19
2.2948e-16
7.06895e-19
2.07294e-16
8.92524e-19
1.72686e-16
6.01435e-19
1.48144e-16
1.1291e-19
1.37924e-16
-3.75294e-19
1.38859e-16
-6.88274e-19
1.17719e-16
-5.63686e-19
7.94288e-17
-2.00638e-19
3.80132e-17
-1.67717e-20
8.82205e-18
-1.27301e-22
5.01159e-19
4.48923e-28
2.8253e-21
-8.47379e-27
-6.43577e-25
-9.65886e-24
-2.62449e-22
-1.6733e-23
-2.18386e-22
-1.74312e-23
-1.198e-22
-1.37951e-23
-5.0211e-23
-9.24216e-24
-1.63266e-23
-5.65356e-24
-3.42742e-24
-3.26605e-24
1.29356e-25
2.9892e-25
-1.81012e-24
2.33635e-16
4.01076e-15
1.39798e-14
5.38109e-13
5.96018e-14
2.84983e-12
4.82092e-14
2.56049e-12
1.99378e-17
7.98802e-13
1.56763e-18
1.6526e-16
5.3145e-18
1.32802e-16
5.24441e-18
1.36565e-16
3.91065e-18
1.14588e-16
2.14876e-18
7.58987e-17
6.99056e-19
3.26922e-17
6.85214e-20
5.65794e-18
8.07607e-22
1.84893e-19
4.82352e-25
4.97503e-22
2.60406e-26
3.05212e-25
-9.95266e-24
-9.39331e-23
-1.17603e-23
-7.47101e-23
-9.46723e-24
-3.84005e-23
-6.18922e-24
-1.48132e-23
-3.5825e-24
-4.30772e-24
-1.9452e-24
-6.80564e-25
-1.02344e-24
6.54762e-26
8.20586e-26
-5.14985e-25
4.9308e-16
3.92846e-15
7.41522e-14
8.0907e-13
1.68235e-13
2.76789e-12
1.56839e-13
2.58374e-12
2.25049e-15
1.25399e-12
0
9.89876e-16
1.02461e-17
1.33097e-16
1.02853e-17
1.30532e-16
7.67864e-18
1.05871e-16
4.04036e-18
6.50712e-17
1.05584e-18
2.32202e-17
6.16805e-20
2.721e-18
3.27592e-22
4.85679e-20
7.60783e-26
6.35903e-23
4.75298e-27
3.70862e-26
-5.73809e-24
-3.47753e-23
-5.7274e-24
-2.53637e-23
-3.98324e-24
-1.19886e-23
-2.27498e-24
-4.19006e-24
-1.16366e-24
-1.06516e-24
-5.65358e-25
-1.11467e-25
-2.70879e-25
2.05779e-26
1.87136e-26
-1.23437e-25
5.84095e-16
3.75485e-15
6.84261e-14
5.32173e-13
2.60629e-13
2.58749e-12
2.75047e-13
2.58033e-12
2.01131e-16
8.16519e-13
0
5.27187e-16
1.51594e-17
1.33514e-16
1.43943e-17
1.22072e-16
9.88191e-18
9.21252e-17
4.47133e-18
4.92567e-17
8.23387e-19
1.32241e-17
2.53019e-20
9.16007e-19
5.75461e-23
7.62154e-21
4.54078e-24
4.61802e-24
-8.58819e-25
-4.98831e-24
-2.80607e-24
-1.31995e-23
-2.37339e-24
-8.48669e-24
-1.44247e-24
-3.61736e-24
-7.22037e-25
-1.12498e-24
-3.24011e-25
-2.44197e-25
-1.40511e-25
-1.34324e-26
-6.05569e-26
4.87803e-27
3.50957e-27
-2.47234e-26
6.79141e-16
3.4858e-15
1.59338e-13
3.04406e-14
3.10457e-13
6.75096e-13
1.71991e-13
6.23621e-13
0
1.78255e-14
0
4.70563e-16
1.86868e-17
1.3455e-16
1.6486e-17
1.12188e-16
9.86089e-18
7.29088e-17
3.51399e-18
3.14075e-17
3.86456e-19
5.49954e-18
5.1325e-21
1.8189e-19
4.23906e-24
5.60143e-22
3.77112e-25
1.48306e-25
-8.03368e-25
-3.89443e-24
-1.23548e-24
-4.98422e-24
-8.80629e-25
-2.77347e-24
-4.63132e-25
-1.04524e-24
-2.00525e-25
-2.83736e-25
-7.74678e-26
-5.14677e-26
-2.95434e-26
-7.0443e-28
-1.12777e-26
9.05326e-28
5.30707e-28
-4.06311e-27
1.29883e-15
7.21118e-15
3.28876e-15
1.41321e-15
2.50154e-14
0
1.55513e-14
0
2.19722e-17
0
3.41153e-17
3.39828e-16
2.29267e-17
1.72386e-16
1.50518e-17
9.8578e-17
7.56667e-18
4.95002e-17
1.86403e-18
1.50131e-17
9.75044e-20
1.37491e-18
4.40735e-22
1.66388e-20
1.14431e-25
1.59983e-23
1.47707e-26
7.17381e-26
-4.69727e-25
-2.03779e-24
-5.01751e-25
-1.85272e-24
-2.99148e-25
-8.82319e-25
-1.33593e-25
-2.87985e-25
-4.88599e-26
-6.67071e-26
-1.58077e-26
-9.90701e-27
-5.17418e-27
2.19943e-29
-1.71375e-27
1.31608e-28
6.29698e-29
-5.33858e-28
1.55338e-15
7.32136e-15
8.18162e-16
4.94906e-15
2.7338e-16
6.85506e-16
1.24296e-16
3.12e-16
8.07939e-17
3.74085e-16
6.92921e-17
3.40391e-16
2.59274e-17
1.76383e-16
1.1789e-17
7.38345e-17
4.13227e-18
2.56645e-17
5.54786e-19
4.3485e-18
1.04704e-20
1.54311e-19
1.31468e-23
5.42317e-22
1.23756e-24
1.76285e-25
-2.36063e-26
-1.05723e-25
-2.37589e-25
-9.67912e-25
-1.92393e-25
-6.81613e-25
-9.47597e-26
-2.74472e-25
-3.50919e-26
-7.5956e-26
-1.0506e-26
-1.46331e-26
-2.74127e-27
-1.74038e-27
-7.43233e-28
6.04628e-30
-2.07179e-28
1.47703e-29
5.65127e-30
-5.42202e-29
1.80045e-15
3.8342e-15
1.46507e-15
5.30944e-15
5.92525e-16
3.30309e-15
2.81246e-16
1.86966e-15
1.44803e-16
9.96487e-16
6.15169e-17
4.11001e-16
2.12722e-17
1.45327e-16
6.54765e-18
4.12825e-17
1.30057e-18
8.04941e-18
6.88593e-20
5.45426e-19
3.60996e-22
5.53879e-21
1.24835e-25
5.4777e-24
1.92085e-26
1.07954e-27
-6.43155e-26
-2.75237e-25
-1.12213e-25
-4.44541e-25
-7.08336e-26
-2.49455e-25
-2.85259e-26
-8.42773e-26
-8.55046e-27
-1.9406e-26
-2.02097e-27
-3.02844e-27
-4.05116e-28
-2.8107e-28
-8.61357e-29
7.73457e-31
-1.932e-29
1.25579e-30
3.64415e-31
-4.06722e-30
8.27668e-16
1.94604e-16
1.60091e-15
2.2594e-15
9.9775e-16
3.31233e-15
5.04168e-16
2.24839e-15
1.97968e-16
1.14385e-15
5.73157e-17
4.28484e-16
1.29721e-17
1.01598e-16
2.08698e-18