/*--------------------------------*- C++ -*----------------------------------*\
  =========                 |
  \\      /  F ield         | OpenFOAM: The Open Source CFD Toolbox
   \\    /   O peration     | Website:  https://openfoam.org
    \\  /    A nd           | Version:  9
     \\/     M anipulation  |
\*---------------------------------------------------------------------------*/
FoamFile
{
    format      ascii;
    class       volScalarField;
    location    "6.56";
    object      alpha.water;
}
// * * * * * * * * * * * * * * * * * * * * * * * * * * * * * * * * * * * * * //

dimensions      [0 0 0 0 0 0 0];

internalField   nonuniform List<scalar> 
2268
(
1
1
0.999999
0.999999
1
0.999999
0.999999
0.999999
0.999998
0.999999
1
1
1
1
1
1
1
1
0.998649
0.996858
0.996995
0.999005
0.998997
0.999999
0.999999
0.999998
0.999998
1
0.999999
0.999998
0.999998
0.999998
0.999999
1
1
1
1
1
0.999997
0.999992
1
0.999249
0.997196
0.999676
0.999993
0.99999
0.999997
0.999998
0.999998
0.999998
1
1
0.999999
0.999999
0.999999
1
1
1
1
1
1
0.999979
0.999949
0.999988
0.999979
0.999783
0.999989
0.999993
0.999988
0.999999
0.999999
1
0.999999
1
1
1
1
1
1
1
1
1
1
1
0.999973
0.99889
0.999997
0.999997
0.999997
0.999997
0.999716
0.999989
1
1
1
1
1
1
1
1
1
1
1
1
1
1
1
1
0.997641
0.989491
0.995061
0.999796
0.995098
0.999167
0.999997
1
1
1
1
1
1
1
1
1
1
1
1
1
1
1
1
0.998173
0.980436
0.9804
0.981204
0.981234
0.998017
0.999999
1
1
1
1
1
1
1
1
1
1
1
1
1
1
1
1
1
0.986848
0.980395
0.980395
0.986479
0.999542
0.999999
1
1
1
0.999999
0.999999
0.999999
0.999999
0.999999
0.999999
0.999999
0.999999
0.999999
1
1
1
1
1
0.998542
0.982434
0.980544
0.997319
0.999999
1
0.991583
0.996435
0.99779
0.997726
0.996904
0.992885
0.992425
0.992425
0.992653
0.99203
0.992016
0.994664
0.994667
0.995893
0.998626
0.998626
0.998625
0.998428
0.998188
0.99158
0.999742
0.99998
0.99998
0.99998
0.99998
0.999747
0.999612
0.999799
0.999799
0.998193
0.998758
0.995809
0.995867
0.998626
0.998626
0.998626
0.998625
0.998573
0.991582
0.998428
0.999968
0.999974
0.99998
0.999954
0.999954
0.999954
0.999785
0.999625
0.999623
0.999622
0.999401
0.998836
0.997468
0.998626
0.998626
0.998626
0.994666
0.996334
0.999818
0.999941
0.999942
0.999988
0.999966
0.999805
0.999668
0.999022
0.997389
0.999623
0.999622
0.999622
0.999621
0.995812
0.998626
0.998626
0.997775
0.994513
0.999996
0.999997
0.999997
0.999992
0.999991
0.999898
0.999344
0.999344
0.999817
0.995631
0.999622
0.999622
0.999521
0.980389
0.992371
0.997987
0.994905
0.9947
0.994513
0.999994
0.999996
0.999997
0.999992
0.999962
0.999901
0.999809
0.999826
0.999937
0.993217
0.975444
0.992675
0.987773
0.96151
0.993049
0.996368
0.985815
0.996704
0.996558
0.999996
0.999996
0.999996
0.999974
0.999952
0.999963
0.999978
0.999978
0.999964
0.990554
0.960182
0.960183
0.960204
0.961505
0.998275
0.997687
0.982873
0.998446
0.998447
0.999997
0.999997
0.999997
0.999997
0.999997
0.999997
0.999975
0.999528
0.999044
0.993368
0.960183
0.960182
0.960183
0.983571
0.998419
0.997847
0.982874
0.996933
0.998447
1
0.999999
0.999999
0.999999
0.999999
0.999999
0.999999
0.999999
0.999999
0.999999
0.999999
0.999999
1
1
1
1
1
1
0.999981
0.999943
1
1
1
0.977346
0.977333
0.977892
0.979105
0.980821
0.982377
0.983753
0.985316
0.987327
0.987086
0.984906
0.982548
0.982035
0.982246
0.982186
0.982666
0.985543
0.989873
0.992346
0.99199
0.988682
0.983424
0.980926
0.337523
0.340017
0.34264
0.343792
0.344062
0.343994
0.343418
0.342103
0.340543
0.340239
0.341151
0.341908
0.341329
0.340082
0.33937
0.339398
0.339614
0.341131
0.343568
0.343055
0.341614
0.34222
0.345702
0.000639496
0.000638942
0.00063918
0.00063785
0.000634528
0.000630567
0.000626951
0.000623571
0.00062126
0.0006199
0.000619357
0.000619517
0.000619517
0.000715184
0.000955131
0.00131379
0.00177153
0.00166555
0.00100804
0.00110695
0.00113061
0.00113178
0.00105636
0.00112151
0.00112164
0.00070821
0.00135939
0.00254892
0.00297922
0.00321844
0.00362148
0.0037511
0.0037568
0.00383955
0.00385545
0.00385533
0.00385537
0.00362257
0.00296407
0.00253008
0.00200612
0.000920449
0.00110609
0.00112855
0.00112044
0.000941536
0.00055434
0.000649886
0.000562258
0.000540276
3.34854e-08
2.8118e-08
2.81307e-08
2.72502e-08
3.93163e-05
0.000110036
0.000154546
0.000237153
0.000203444
0.000170154
0.000181498
0.000196643
0.000201842
0.000460033
0.000630424
0.000472973
0.00061582
0.000701637
0.000562415
8.8515e-06
1.31326e-09
0.000106053
7.37028e-05
2.35486e-05
6.15968e-06
2.78846e-08
2.63771e-08
1.79525e-08
1.79457e-08
1.82523e-08
1.93703e-08
2.01817e-08
2.04709e-08
7.76898e-06
7.00222e-05
9.77641e-05
5.18004e-05
7.10978e-05
0.000121519
0.000146551
7.20049e-05
0.000266012
1.3132e-09
1.31277e-09
1.31326e-09
1.32365e-09
1.06916e-09
2.2227e-06
2.90925e-06
1.43871e-06
1.79457e-08
3.66128e-07
1.474e-06
1.01067e-06
2.04709e-08
4.72129e-07
5.77652e-05
9.25913e-05
8.98398e-05
2.8322e-05
4.7133e-05
6.82995e-05
6.5396e-06
3.11815e-08
2.10875e-05
2.68393e-09
2.83838e-09
1.28695e-08
9.28948e-09
7.80479e-10
7.30752e-07
2.90925e-06
1.94829e-06
1.78435e-08
1.22724e-06
3.12438e-06
2.87429e-06
1.75839e-07
1.35831e-06
2.77307e-05
4.02644e-05
2.58342e-05
2.83169e-05
4.07679e-05
1.23057e-05
1.49658e-08
1.93986e-08
2.58439e-08
2.72741e-09
4.38001e-08
9.4628e-08
1.86067e-08
5.58815e-10
1.04179e-07
6.88813e-07
2.26878e-07
1.62621e-08
1.34022e-06
3.12438e-06
3.10714e-06
5.924e-07
2.38188e-07
8.78114e-07
1.08433e-08
1.56983e-07
2.63611e-06
5.36e-06
7.75102e-07
1.49154e-08
1.93977e-08
5.82345e-08
3.34947e-09
1.17533e-07
1.17538e-07
4.13572e-08
5.58815e-10
5.58814e-10
5.58815e-10
5.58866e-10
7.04736e-09
1.68704e-06
3.12438e-06
6.62524e-07
4.70889e-08
2.98107e-09
1.61141e-08
1.05115e-08
1.68927e-07
3.50503e-07
2.18963e-07
1.49154e-08
1.48706e-08
4.726e-08
5.72641e-08
2.03305e-09
7.58747e-08
1.17502e-07
3.03757e-08
5.58814e-10
5.58815e-10
5.58865e-10
4.82366e-07
1.69447e-06
1.69395e-06
7.97602e-07
9.95903e-10
1.09986e-09
1.90244e-09
6.67278e-10
1.0735e-09
1.7582e-06
6.17537e-06
6.17383e-06
2.46205e-06
1.48974e-08
1.48777e-08
2.16092e-08
1.04226e-09
4.55554e-09
3.72531e-08
6.69439e-09
5.58816e-10
5.59217e-10
3.07086e-07
1.76752e-06
1.76756e-06
1.43621e-06
7.91396e-10
9.94267e-10
1.01621e-09
8.76574e-10
6.84409e-11
1.87328e-09
3.24355e-06
6.17535e-06
6.17537e-06
6.17151e-06
8.54323e-07
1.2041e-08
1.20149e-08
3.01716e-09
8.06103e-11
7.80421e-11
1.72167e-10
6.14345e-10
6.1684e-10
2.61117e-07
1.70481e-06
1.6235e-06
1.93548e-07
7.91142e-10
1.17434e-09
1.18685e-09
4.84509e-10
6.56868e-11
3.64796e-10
2.26795e-07
3.12231e-06
5.90648e-06
2.51846e-06
8.62099e-09
1.48104e-08
2.04975e-08
3.15441e-08
8.72828e-08
2.75947e-11
1.78007e-10
9.64261e-10
1.36928e-08
1.33585e-07
1.88068e-07
1.80194e-07
8.62608e-11
7.91078e-10
1.30214e-09
9.69685e-10
1.64552e-10
6.56671e-11
7.67748e-11
1.24488e-10
1.20854e-08
1.10581e-07
7.59397e-09
8.61982e-09
2.62137e-08
2.45336e-08
1.27588e-07
1.62755e-07
2.74762e-11
2.37816e-10
2.93832e-09
1.09144e-08
6.42468e-09
2.31417e-11
1.26875e-11
8.59925e-11
5.42699e-10
7.52677e-10
3.25498e-10
6.42337e-11
6.26988e-11
6.60038e-11
6.60099e-11
6.6572e-11
6.51235e-11
1.41783e-10
5.74689e-09
1.74639e-08
1.31683e-08
2.76408e-07
1.6281e-07
2.73151e-11
3.79602e-10
2.39008e-09
3.94953e-09
2.06639e-11
2.29782e-11
1.23216e-11
3.22567e-11
1.2747e-10
1.18155e-10
3.3064e-11
2.10548e-11
4.79425e-11
6.34608e-11
7.38815e-11
7.42501e-11
6.465e-11
6.31418e-11
2.15506e-10
3.22882e-10
6.3569e-10
2.76433e-07
1.37377e-07
2.71948e-11
3.35878e-10
1.07133e-09
3.35572e-10
2.06505e-11
2.2979e-11
6.08344e-12
2.6781e-12
5.57866e-12
2.43348e-12
5.07467e-13
3.28709e-12
1.96449e-11
4.11929e-11
5.60342e-11
5.8296e-11
5.08531e-11
3.67643e-11
1.95978e-11
9.46678e-12
4.83803e-11
2.76458e-07
8.34391e-08
2.71463e-11
1.62186e-10
2.31709e-10
2.33611e-11
1.03651e-11
1.06727e-11
8.29742e-13
4.58373e-15
0
-3.46988e-13
-4.79551e-13
5.39133e-14
1.96131e-12
9.10668e-12
1.51421e-11
1.584e-11
1.41724e-11
1.12296e-11
7.2694e-12
3.67954e-12
2.10938e-12
2.76493e-07
8.25083e-08
2.71375e-11
4.42517e-11
3.68347e-11
6.75503e-12
1.65079e-12
9.54441e-13
-3.39736e-13
-9.85075e-13
-1.1982e-12
-1.26798e-12
-1.12699e-12
-7.34098e-13
-1.70951e-13
2.52339e-13
6.07761e-13
6.34914e-13
5.65932e-13
5.17374e-13
4.64407e-13
3.78094e-13
3.18393e-13
2.76498e-07
2.28336e-07
2.71296e-11
2.71129e-11
2.68951e-11
5.10792e-12
2.99909e-15
-1.85468e-13
-8.8911e-13
-1.33324e-12
-1.49158e-12
-1.45593e-12
-1.28442e-12
-1.0145e-12
-7.07992e-13
-4.25344e-13
-2.52422e-13
-1.69746e-13
-1.21701e-13
-7.67119e-14
-3.57951e-14
-4.13009e-15
5.1393e-16
2.76498e-07
2.76487e-07
2.71375e-11
2.86476e-11
3.15001e-11
5.25026e-12
-3.60803e-14
-3.94388e-13
-8.65985e-13
-1.1579e-12
-1.25101e-12
-1.20113e-12
-1.06323e-12
-8.77635e-13
-6.81655e-13
-5.02392e-13
-3.65984e-13
-2.68678e-13
-1.96471e-13
-1.40176e-13
-9.56831e-14
-6.12552e-14
-3.66719e-14
2.76498e-07
2.52829e-07
2.71418e-11
4.40616e-11
5.2914e-11
6.61654e-12
3.72349e-13
-6.98323e-14
-3.97559e-13
-6.42909e-13
-7.52826e-13
-7.54993e-13
-6.88132e-13
-5.84445e-13
-4.69172e-13
-3.60082e-13
-2.67888e-13
-1.94759e-13
-1.38945e-13
-9.78287e-14
-6.78492e-14
-4.58339e-14
-2.9455e-14
2.30992e-07
5.73308e-08
2.71518e-11
1.07235e-10
9.18162e-11
1.13918e-11
2.75114e-12
1.73524e-12
7.82422e-13
8.8027e-14
-1.82451e-13
-3.041e-13
-3.35568e-13
-3.10707e-13
-2.61059e-13
-2.05742e-13
-1.5473e-13
-1.11429e-13
-7.76506e-14
-5.3133e-14
-3.61666e-14
-2.44155e-14
-1.60146e-14
1.92222e-08
8.35457e-11
9.39035e-11
2.18107e-10
1.32712e-10
2.10574e-11
9.28614e-12
7.50783e-12
5.06496e-12
2.67167e-12
9.69597e-13
1.59235e-13
-7.55935e-14
-1.24872e-13
-1.20905e-13
-1.00067e-13
-7.71953e-14
-5.54759e-14
-3.7813e-14
-2.49156e-14
-1.62776e-14
-1.06372e-14
-6.94807e-15
7.47077e-11
8.32533e-11
2.03342e-10
2.4142e-10
1.49283e-10
3.41133e-11
2.08865e-11
1.81347e-11
1.35663e-11
8.2951e-12
3.92686e-12
1.31597e-12
2.17794e-13
-2.30563e-14
-4.71362e-14
-4.27127e-14
-3.45536e-14
-2.49687e-14
-1.6671e-14
-1.05506e-14
-6.53083e-15
-4.01769e-15
-2.52225e-15
7.46214e-11
8.33861e-11
2.18714e-10
2.41172e-10
1.39802e-10
4.64809e-11
3.58136e-11
3.20053e-11
2.48502e-11
1.66516e-11
8.53888e-12
3.06107e-12
6.43529e-13
3.60928e-14
-1.56484e-14
-1.64957e-14
-1.42342e-14
-1.03954e-14
-6.82493e-15
-4.1598e-15
-2.4339e-15
-1.38907e-15
-8.01806e-16
7.46214e-11
7.59625e-11
1.78071e-10
1.87458e-10
1.02922e-10
5.29662e-11
4.88807e-11
4.57261e-11
3.62948e-11
2.5644e-11
1.37152e-11
4.82339e-12
8.59867e-13
5.09656e-14
-4.32474e-15
-5.99074e-15
-5.52953e-15
-4.07634e-15
-2.62307e-15
-1.536e-15
-8.50294e-16
-4.54071e-16
-2.43324e-16
8.20391e-11
5.5635e-11
7.33326e-11
6.91578e-11
5.79598e-11
5.34305e-11
5.35567e-11
5.40843e-11
4.58206e-11
3.29054e-11
1.79078e-11
5.82574e-12
8.59673e-13
3.93572e-14
-7.52144e-16
-2.10696e-15
-2.05836e-15
-1.51733e-15
-9.49758e-16
-5.33833e-16
-2.83758e-16
-1.46525e-16
-7.4748e-17
1.51485e-10
5.11241e-11
5.11241e-11
5.11241e-11
5.11241e-11
5.21713e-11
5.35158e-11
5.52718e-11
5.0283e-11
3.66295e-11
1.96459e-11
5.90597e-12
7.21858e-13
1.79151e-14
-4.54606e-17
-7.3393e-16
-7.45091e-16
-5.407e-16
-3.26779e-16
-1.76594e-16
-9.03391e-17
-4.47238e-17
-2.18129e-17
7.85108e-10
5.11241e-11
5.11241e-11
5.11241e-11
5.11241e-11
5.17727e-11
5.21756e-11
5.52844e-11
5.05574e-11
3.7075e-11
1.95462e-11
5.38179e-12
4.47143e-13
5.06278e-15
-5.38275e-19
-2.60217e-16
-2.64957e-16
-1.86225e-16
-1.07663e-16
-5.55616e-17
-2.72061e-17
-1.29535e-17
-6.05317e-18
9.95774e-10
6.41201e-08
5.58234e-07
6.8508e-07
8.98822e-08
4.93808e-11
4.93725e-11
5.46258e-11
4.96687e-11
3.60747e-11
1.78601e-11
3.973e-12
2.04366e-13
1.10195e-15
2.21712e-19
-9.46867e-17
-9.3048e-17
-6.21934e-17
-3.3954e-17
-1.6573e-17
-7.67541e-18
-3.48469e-18
-1.5296e-18
9.954e-10
2.27629e-07
8.28863e-07
8.2893e-07
4.11054e-07
3.06151e-10
4.91242e-11
5.26607e-11
4.6806e-11
3.23954e-11
1.39644e-11
2.27235e-12
6.89715e-14
1.82363e-16
8.06387e-21
-3.5445e-17
-3.22261e-17
-2.0087e-17
-1.01886e-17
-4.61286e-18
-1.98542e-18
-8.4564e-19
-3.44129e-19
9.95573e-10
2.02827e-07
8.28929e-07
8.28922e-07
3.93455e-07
1.46474e-10
4.89673e-11
4.94959e-11
4.17879e-11
2.60683e-11
9.00661e-12
9.63856e-13
1.56107e-14
1.94501e-17
-4.23309e-18
-1.35186e-17
-1.0919e-17
-6.21467e-18
-2.87101e-18
-1.17793e-18
-4.64821e-19
-1.82055e-19
-6.75933e-20
9.95832e-10
6.01093e-08
6.56892e-07
6.49641e-07
1.31296e-07
1.53272e-10
4.8821e-11
4.55963e-11
3.44576e-11
1.81776e-11
4.51576e-12
2.7233e-13
1.97386e-15
1.02311e-18
-3.28454e-18
-5.09404e-18
-3.58328e-18
-1.82212e-18
-7.4963e-19
-2.7156e-19
-9.6284e-20
-3.40181e-20
-1.13206e-20
2.32764e-09
2.9853e-09
4.0551e-08
3.29231e-08
8.29774e-10
1.24587e-10
6.01168e-11
4.06779e-11
2.51426e-11
1.0175e-11
1.55158e-12
4.29183e-14
1.13172e-16
1.57713e-20
-1.69793e-18
-1.87594e-18
-1.13443e-18
-5.03477e-19
-1.79498e-19
-5.56929e-20
-1.72774e-20
-5.38585e-21
-1.57283e-21
2.86498e-09
1.70109e-09
5.67846e-10
2.21463e-10
1.21802e-10
1.13913e-10
6.20858e-11
3.24491e-11
1.50046e-11
3.96715e-12
2.98007e-13
3.00521e-15
2.3934e-18
-7.33822e-20
-7.92129e-19
-6.7881e-19
-3.47941e-19
-1.31521e-19
-3.93755e-20
-1.00779e-20
-2.63984e-21
-7.04478e-22
-1.75572e-22
2.55184e-09
1.98821e-09
9.92026e-10
4.71239e-10
2.57279e-10
1.29727e-10
5.46983e-11
2.07845e-11
6.26328e-12
8.5566e-13
2.43441e-14
7.40592e-17
1.52273e-20
-1.86688e-19
-3.5543e-19
-2.42672e-19
-1.04376e-19
-3.28582e-20
-7.9914e-21
-1.61232e-21
-3.38389e-22
-7.40884e-23
-1.51351e-23
8.12618e-10
1.33794e-09
1.0613e-09
6.8165e-10
3.49794e-10
1.35913e-10
4.13014e-11
9.61847e-12
1.44277e-12
7.44232e-14
6.25645e-16
5.45362e-19
1.19203e-23
-1.33005e-19
-1.53551e-19
-8.60798e-20
-3.10898e-20
-8.05207e-21
-1.55078e-21
-2.35312e-22
-3.6571e-23
-6.10852e-24
-9.55615e-25
2.2166e-11
2.87932e-10
6.27299e-10
5.34082e-10
3.10621e-10
1.16943e-10
2.49353e-11
2.80536e-12
1.39445e-13
1.88635e-15
4.19988e-18
9.02162e-22
-2.8572e-20
-7.53072e-20
-6.4349e-20
-3.04201e-20
-9.32728e-21
-1.9897e-21
-3.00258e-22
-3.30255e-23
-3.41255e-24
-3.82401e-25
-4.03335e-26
-2.53595e-26
1.10744e-11
1.32461e-10
2.12194e-10
1.57612e-10
6.20475e-11
9.70587e-12
4.53015e-13
4.9168e-15
1.26571e-17
9.04009e-21
-2.53432e-21
-2.54291e-20
-3.8148e-20
-2.63386e-20
-1.07512e-20
-2.84733e-21
-5.07118e-22
-6.02055e-23
-4.67801e-24
-2.83731e-25
-1.70343e-26
-9.26634e-28
-1.35066e-26
4.40165e-14
5.96885e-12
2.2491e-11
2.26866e-11
1.03291e-11
1.28252e-12
2.56261e-14
5.70641e-17
2.85839e-20
1.14462e-23
-5.50078e-21
-1.63886e-20
-1.80662e-20
-1.05917e-20
-3.81797e-21
-8.9376e-22
-1.37066e-22
-1.32786e-23
-7.42579e-25
-2.23749e-26
-4.21047e-28
-5.3211e-30
1
1
1
1
0.978342
0.977287
0.977101
0.977242
0.347829
0.34872
0.349373
0.350404
0.000678548
0.000550324
0.000568034
0.000562178
0.000516123
0.000515287
0.000544231
0.0005486
0.000515183
0.000515178
0.000676451
0.000676454
0.000516142
0.000493248
0.000282958
0.000353245
7.39475e-05
2.58087e-05
5.16269e-09
3.18649e-07
4.74011e-08
5.77023e-09
4.51317e-09
5.79103e-09
4.72676e-08
8.38879e-09
4.50042e-09
4.51317e-09
1.75078e-08
4.48077e-09
4.48585e-09
4.60769e-09
8.64129e-09
4.47759e-09
4.48081e-09
2.07199e-07
9.42353e-09
4.47768e-09
4.47759e-09
8.0638e-09
1.19755e-08
5.26398e-09
4.61878e-09
6.52751e-09
2.10026e-09
1.53024e-09
1.45494e-08
4.97763e-08
1.50944e-09
1.50943e-09
9.22063e-09
3.64047e-08
1.96627e-09
2.25689e-09
1.69391e-09
1.93803e-10
2.11094e-10
2.04525e-10
3.38282e-11
7.37295e-13
1.32497e-12
5.16109e-13
5.32187e-13
7.39812e-13
3.07602e-13
3.1301e-13
3.23775e-13
3.16525e-13
1.29229e-15
8.04883e-15
1.13874e-14
1.17451e-14
-2.05333e-14
-1.60264e-14
-1.25048e-14
-9.82121e-15
-1.77326e-14
-1.42707e-14
-1.16626e-14
-9.65287e-15
-9.80711e-15
-7.69658e-15
-6.11842e-15
-4.97795e-15
-4.34374e-15
-3.31506e-15
-2.51087e-15
-1.92767e-15
-1.6241e-15
-1.22228e-15
-9.0478e-16
-6.5033e-16
-5.3693e-16
-3.96142e-16
-2.90906e-16
-2.04669e-16
-1.68815e-16
-1.1966e-16
-8.45186e-17
-5.8433e-17
-5.11608e-17
-3.4929e-17
-2.35919e-17
-1.57348e-17
-1.45742e-17
-9.63215e-18
-6.25921e-18
-4.00261e-18
-3.89604e-18
-2.47273e-18
-1.53956e-18
-9.40448e-19
-9.39498e-19
-5.68036e-19
-3.36578e-19
-1.9537e-19
-1.99826e-19
-1.13967e-19
-6.36114e-20
-3.47335e-20
-3.66563e-20
-1.94747e-20
-1.0106e-20
-5.12135e-21
-5.64748e-21
-2.75155e-21
-1.30607e-21
-6.04011e-22
-7.07885e-22
-3.09999e-22
-1.31819e-22
-5.44501e-23
-6.94256e-23
-2.65936e-23
-9.85122e-24
-3.5321e-24
-5.05727e-24
-1.62904e-24
-5.05154e-25
-1.51012e-25
-2.5292e-25
-6.43105e-26
-1.56859e-26
-3.67696e-27
-7.48594e-27
-1.33906e-27
-2.30225e-28
-3.81059e-29
-9.18194e-29
-8.94275e-30
-8.53774e-31
-7.99425e-32
-1.15282e-31
-2.50053e-33
-5.57681e-35
-1.31744e-36
1
1
1
1
0.998546
0.993815
0.992241
0.994793
0.997324
0.997369
0.994383
0.980531
0.98266
0.998406
0.998419
0.997785
0.983053
0.991397
0.998447
0.977387
0.974928
0.972944
0.97153
0.970488
0.96844
0.963243
0.958499
0.96296
0.983442
0.994238
0.993981
0.993341
0.991406
0.984984
0.982335
0.981774
0.980277
0.97646
0.352903
0.352112
0.351696
0.351792
0.354708
0.360916
0.368312
0.373063
0.372371
0.368682
0.376975
0.388092
0.389374
0.379529
0.370024
0.367994
0.373018
0.36596
0.366431
0.000602418
0.000572
0.000696881
0.0012382
0.00141817
0.00122108
0.000898321
0.000717656
0.000659125
0.00065324
0.000650559
0.000648397
0.000646311
0.000648397
0.000650254
0.000652708
0.000654873
0.000657371
0.000659626
0.000551798
0.000553481
0.000565832
0.00119501
0.00141335
0.00138269
0.00139263
0.00141478
0.00141655
0.00141665
0.00141647
0.00124061
0.00064455
0.00102268
0.00115996
0.00116009
0.00116026
0.00116009
0.00114879
0.000658813
0.000640216
0.000640138
0.000629093
0.000762646
0.000863078
0.000780878
0.000689818
0.000647391
0.000605695
0.000480374
0.000334804
0.000486664
0.000505669
0.000564885
0.000601793
0.000543409
0.000578055
0.000575408
0.0003807
0.00038301
0.000371982
0.000303486
0.000122885
8.27232e-06
1.05839e-06
7.85978e-07
7.47228e-07
6.71712e-07
5.76364e-07
5.24826e-07
5.20851e-07
5.20789e-07
4.13135e-06
3.55743e-06
1.82076e-05
7.42011e-05
5.67118e-05
1.54211e-06
1.72676e-06
1.24492e-06
2.74609e-08
6.63016e-09
5.97473e-08
6.96991e-08
1.57249e-05
3.50724e-05
3.96194e-05
4.61602e-05
3.86029e-05
6.08745e-06
5.20161e-07
5.20113e-07
5.20114e-07
5.20114e-07
5.20111e-07
5.20111e-07
7.47321e-09
7.24349e-09
6.28166e-09
6.13317e-09
6.40668e-09
3.12008e-08
2.51332e-05
6.04997e-05
6.05565e-05
6.06146e-05
6.06243e-05
6.06229e-05
1.57826e-05
6.69528e-07
5.20118e-07
5.20115e-07
5.20114e-07
5.20113e-07
5.20111e-07
3.198e-07
1.61521e-06
1.88696e-06
6.13462e-09
6.13462e-09
8.83157e-06
6.04652e-05
6.04906e-05
3.39257e-05
2.62338e-05
5.53593e-05
6.06239e-05
2.04658e-05
1.99838e-05
2.07187e-06
5.20118e-07
5.20115e-07
5.20114e-07
5.20115e-07
4.62367e-06
2.05384e-05
2.01624e-05
2.49051e-06
1.18324e-08
1.48187e-05
4.48736e-05
1.89786e-05
1.626e-06
3.2991e-06
5.0713e-06
1.5877e-05
3.06999e-05
3.06999e-05
2.15546e-05
5.20117e-07
5.20116e-07
5.20116e-07
5.20118e-07
1.11053e-05
2.12711e-05
2.12711e-05
2.12711e-05
9.84083e-06
3.41569e-06
1.21338e-09
1.21265e-09
1.77571e-06
7.70333e-06
7.28222e-06
2.91316e-06
1.92725e-05
3.06882e-05
2.31152e-05
1.93145e-06
5.20117e-07
5.20117e-07
5.20118e-07
2.61568e-06
1.7276e-05
2.12711e-05
2.12663e-05
1.1447e-05
1.18111e-09
1.30068e-09
2.55253e-08
1.25037e-06
1.96002e-06
1.52989e-07
1.94595e-10
1.94795e-10
2.50272e-10
9.93481e-06
1.44523e-05
1.0621e-05
5.20118e-07
5.20118e-07
7.52052e-09
1.14598e-06
6.20649e-06
4.03158e-06
1.18106e-09
1.18079e-09
1.38046e-08
3.31314e-08
1.93873e-10
1.93963e-10
1.93868e-10
1.93965e-10
1.95453e-10
2.96156e-07
9.63059e-06
1.44555e-05
1.44555e-05
1.44543e-05
9.96362e-06
5.46031e-08
1.3973e-09
1.34779e-09
1.31513e-09
1.30962e-09
1.57823e-09
7.13406e-09
1.25024e-08
2.72546e-09
1.93868e-10
3.32205e-10
2.79995e-10
5.91837e-10
1.46933e-09
7.83317e-07
6.89559e-06
9.07479e-06
4.91307e-06
3.7237e-06
5.90187e-08
9.39493e-08
1.27607e-07
8.41977e-08
1.26742e-08
2.02592e-10
2.02592e-10
2.02592e-10
2.1964e-10
6.31616e-10
7.73219e-10
7.42418e-10
3.42557e-09
4.47918e-09
9.62925e-12
9.6295e-12
9.62925e-12
9.92519e-12
2.97159e-11
7.94865e-10
1.47485e-07
2.70135e-07
2.70138e-07
2.11508e-07
2.70983e-08
2.02592e-10
2.91182e-10
2.34221e-09
5.35397e-09
8.97017e-10
2.92521e-10
7.41036e-11
4.94882e-11
3.8386e-11
3.27827e-11
1.92351e-10
7.34107e-09
2.15722e-07
4.57241e-13
2.79266e-08
2.13588e-07
2.70117e-07
2.70069e-07
2.32973e-07
2.02662e-10
3.16697e-09
4.03964e-08
5.9555e-08
2.34576e-08
6.66262e-10
5.43941e-11
1.40934e-10
1.26685e-10
6.58192e-11
1.23295e-09
1.6248e-06
9.76419e-06
4.56842e-13
1.57429e-14
1.91965e-19
8.61287e-08
2.078e-07
1.15011e-07
1.22727e-08
1.35525e-08
7.34133e-08
7.34133e-08
7.34133e-08
7.20141e-09
5.42744e-11
9.94554e-11
9.91587e-11
5.1586e-11
9.74007e-09
6.88664e-06
1.34851e-05
1.76398e-13
3.14591e-14
9.12676e-20
3.45999e-39
4.57176e-20
1.82689e-17
3.43127e-10
1.91609e-08
5.4395e-08
7.30049e-08
5.35972e-08
9.56201e-09
5.41525e-11
5.41518e-11
3.09379e-11
6.891e-12
5.01064e-08
8.75528e-06
1.34852e-05
8.72448e-15
3.03285e-15
5.25424e-16
-1.30489e-16
2.357e-17
2.3629e-17
3.00433e-17
5.57712e-17
3.38776e-16
1.24944e-09
1.12825e-09
3.63379e-13
2.13815e-10
3.13486e-11
8.48932e-12
2.55583e-12
1.10786e-12
3.72093e-06
1.34851e-05
-7.78148e-15
-3.90354e-15
-1.94161e-15
-5.54062e-16
5.97942e-16
1.86483e-14
5.76405e-14
7.47958e-14
7.47903e-14
7.48828e-14
7.50944e-14
3.63273e-13
1.15668e-12
2.82137e-12
2.2273e-12
1.60046e-12
1.10782e-12
6.72017e-08
1.23367e-05
-7.98008e-15
-4.82443e-15
-2.8367e-15
-1.57194e-15
-7.31119e-16
-6.99301e-17
8.78653e-16
4.04441e-14
2.47203e-13
3.81165e-13
3.90621e-13
1.09226e-12
1.67114e-12
8.15031e-13
4.8949e-13
1.21668e-12
1.1079e-12
1.10801e-12
6.97916e-07
-4.10922e-15
-2.5862e-15
-1.60148e-15
-9.73763e-16
-5.74935e-16
-3.1976e-16
-1.45381e-16
-1.20591e-18
2.39462e-15
3.28642e-14
7.01677e-14
1.78791e-13
5.25115e-13
1.74557e-13
1.50346e-13
1.00815e-12
1.1857e-12
1.10798e-12
1.10801e-12
-1.52489e-15
-9.44294e-16
-5.80353e-16
-3.53269e-16
-2.11996e-16
-1.27874e-16
-7.53655e-17
-3.91529e-17
-3.01861e-18
1.00309e-16
6.62638e-16
2.20322e-15
5.71757e-15
1.25757e-14
4.70224e-14
9.36485e-13
2.15946e-12
1.10801e-12
1.10993e-12
-4.6008e-16
-2.7419e-16
-1.61626e-16
-9.51901e-17
-5.66356e-17
-3.3956e-17
-2.01408e-17
-1.11648e-17
-4.40222e-18
3.34923e-18
3.44217e-17
1.75957e-16
8.92416e-16
4.37988e-15
2.99809e-14
9.50449e-13
3.50226e-12
1.10993e-12
2.59777e-07
-1.19807e-16
-6.73184e-17
-3.85359e-17
-2.23294e-17
-1.29634e-17
-7.43532e-18
-4.1401e-18
-2.0303e-18
-4.39671e-19
2.56201e-18
1.90125e-17
1.03248e-16
5.93085e-16
3.19972e-15
2.61105e-14
1.00549e-12
3.95722e-12
1.11331e-12
2.40005e-06
-2.95104e-17
-1.51546e-17
-8.01538e-18
-4.32061e-18
-2.329e-18
-1.14661e-18
-3.28593e-19
3.00369e-20
7.5355e-19
4.11352e-18
1.87671e-17
9.45054e-17
5.34713e-16
2.90435e-15
2.57866e-14
1.06705e-12
3.99315e-12
1.36751e-12
2.64186e-06
-7.02207e-18
-3.19262e-18
-1.4942e-18
-7.06662e-19
-2.85159e-19
2.6249e-20
8.38653e-19
4.93497e-18
1.854e-17
5.09172e-17
1.14947e-16
2.46534e-16
7.57517e-16
3.42206e-15
3.75181e-14
9.33598e-13
3.99208e-12
1.28829e-12
2.64173e-06
-1.63262e-18
-6.63284e-19
-2.71135e-19
-9.66606e-20
9.26272e-20
1.78139e-18
1.10254e-17
5.05265e-17
1.82945e-16
5.22308e-16
1.17299e-15
2.38738e-15
6.16414e-15
2.17822e-14
1.07917e-13
9.48117e-13
3.90274e-12
1.2883e-12
1.67013e-06
-3.55012e-19
-1.31179e-19
-4.67116e-20
4.73561e-21
7.92191e-19
8.62347e-18
5.86233e-17
2.9291e-16
1.13977e-15
3.4994e-15
8.56392e-15
2.08512e-14
6.21913e-14
1.99208e-13
5.45285e-13
1.66075e-12
4.459e-12
1.31611e-12
1.31619e-12
-6.81583e-20
-2.30648e-20
-6.45233e-21
6.80574e-20
1.86613e-18
2.77341e-17
2.42993e-16
1.34195e-15
5.779e-15
2.11897e-14
7.23755e-14
2.48732e-13
6.81077e-13
1.52719e-12
2.61102e-12
4.04748e-12
6.1468e-12
1.31619e-12
2.63895e-07
-1.10704e-20
-3.39767e-21
-1.36594e-22
9.13307e-20
3.4727e-18
7.00719e-17
8.26922e-16
5.52836e-15
3.01709e-14
1.50861e-13
7.65208e-13
2.95139e-12
6.24337e-12
9.37033e-12
1.03312e-11
1.16401e-11
1.02072e-11
1.31664e-12
2.58012e-06
-1.46651e-21
-3.98245e-22
7.89908e-22
1.00548e-19
5.01763e-18
1.31139e-16
2.17806e-15
2.14425e-14
1.63696e-13
1.01573e-12
5.39119e-12
1.78636e-11
3.15396e-11
3.73343e-11
3.33406e-11
3.57738e-11
3.53101e-11
2.26659e-12
2.71538e-06
-1.52266e-22
-3.44175e-23
5.75226e-22
9.73549e-20
5.76043e-18
1.80972e-16
4.13828e-15
6.63539e-14
6.32958e-13
4.03221e-12
1.83724e-11
5.07225e-11
7.95899e-11
8.48902e-11
7.86367e-11
9.69056e-11
1.35434e-10
2.25719e-12
2.71535e-06
-1.17893e-23
-1.63961e-24
2.49814e-22
5.9658e-20
5.74191e-18
1.9831e-16
5.63879e-15
1.35972e-13
1.40464e-12
8.53883e-12
3.30237e-11
8.14625e-11
1.14224e-10
1.15673e-10
1.30155e-10
2.31846e-10
3.55126e-10
2.2824e-12
2.71508e-06
-6.36528e-25
2.08656e-25
1.02964e-22
2.49423e-20
3.57292e-18
1.73723e-16
6.06718e-15
1.84944e-13
1.93411e-12
1.11554e-11
3.89097e-11
9.27676e-11
1.18957e-10
1.16296e-10
1.78908e-10
9.56253e-10
9.54166e-10
2.39627e-12
2.25374e-06
-2.17088e-26
7.33243e-26
3.07214e-23
9.01694e-21
1.36382e-18
7.56314e-17
4.53201e-15
1.938e-13
2.01911e-12
1.12569e-11
3.5861e-11
6.89296e-11
1.07126e-10
5.54234e-11
2.82015e-10
5.32809e-09
4.31472e-09
2.77438e-12
1.33849e-06
-3.95414e-28
1.42434e-26
5.34657e-24
2.28157e-21
4.07503e-19
2.07101e-17
1.41976e-15
1.17247e-13
1.19348e-12
5.88168e-12
1.49502e-11
2.36169e-11
4.23413e-11
2.41047e-12
6.77538e-10
9.73791e-09
9.51169e-09
4.63736e-12
1.39751e-06
-2.69042e-30
1.29622e-27
4.81761e-25
3.13198e-22
7.24543e-20
3.99524e-18
2.3587e-16
2.6084e-14
2.56829e-13
1.15941e-12
2.63368e-12
4.11233e-12
6.76311e-12
7.31034e-17
8.17258e-10
9.64589e-09
9.63925e-09
4.60708e-09
1.40769e-06
-3.23512e-33
7.76397e-32
8.8116e-27
1.98741e-23
5.09498e-21
3.35973e-19
2.07e-17
2.32429e-15
2.19565e-14
9.31938e-14
2.04156e-13
3.25915e-13
4.56608e-13
1.40611e-20
2.28686e-10
3.09305e-09
3.91381e-09
5.78636e-23
1.40744e-06
-1.4206e-38
-1.53959e-40
3.06272e-34
7.86548e-29
2.56733e-25
1.09167e-22
3.35091e-20
4.21467e-18
3.2256e-17
1.39625e-16
3.29025e-16
5.28785e-16
2.56838e-16
0
3.86975e-12
-1.00974e-31
0
-9.69861e-55
1.2312e-06
)
;

boundaryField
{
    leftWall
    {
        type            zeroGradient;
    }
    rightWall
    {
        type            zeroGradient;
    }
    lowerWall
    {
        type            zeroGradient;
    }
    atmosphere
    {
        type            inletOutlet;
        inletValue      uniform 0;
        value           nonuniform List<scalar> 
46
(
0
4.40165e-14
5.96885e-12
2.2491e-11
2.26866e-11
1.03291e-11
1.28252e-12
2.56261e-14
5.70641e-17
2.85839e-20
1.14462e-23
-5.50078e-21
-1.63886e-20
-1.80662e-20
-1.05917e-20
-3.81797e-21
-8.9376e-22
-1.37066e-22
-1.32786e-23
-7.42579e-25
-2.23749e-26
0
0
0
0
0
0
0
0
0
0
0
0
0
0
0
0
0
0
0
0
0
0
0
0
1.2312e-06
)
;
    }
    defaultFaces
    {
        type            empty;
    }
}


// ************************************************************************* //
