/*--------------------------------*- C++ -*----------------------------------*\
  =========                 |
  \\      /  F ield         | OpenFOAM: The Open Source CFD Toolbox
   \\    /   O peration     | Website:  https://openfoam.org
    \\  /    A nd           | Version:  9
     \\/     M anipulation  |
\*---------------------------------------------------------------------------*/
FoamFile
{
    format      ascii;
    class       volScalarField;
    location    "6.56";
    object      p_rgh;
}
// * * * * * * * * * * * * * * * * * * * * * * * * * * * * * * * * * * * * * //

dimensions      [1 -1 -2 0 0 0 0];

internalField   nonuniform List<scalar> 
2268
(
760.999
761.123
761.253
761.379
761.492
761.589
761.664
761.715
761.74
761.736
761.703
761.64
761.547
761.419
761.25
761.042
760.841
760.712
760.675
760.667
760.793
761.122
761.312
760.965
761.077
761.202
761.324
761.438
761.537
761.615
761.669
761.697
761.698
761.668
761.607
761.511
761.377
761.206
761.012
760.87
760.85
760.924
760.866
761.028
761.164
761.364
760.921
761.025
761.147
761.265
761.379
761.48
761.562
761.62
761.654
761.66
761.636
761.58
761.488
761.36
761.201
761.032
760.93
760.95
761.137
761.246
761.128
761.182
761.4
760.866
760.974
761.096
761.213
761.327
761.431
761.517
761.58
761.62
761.634
761.617
761.569
761.487
761.374
761.239
761.101
760.812
760.951
761.136
761.263
761.103
761.15
761.476
760.803
760.92
761.048
761.167
761.284
761.392
761.483
761.553
761.6
761.621
761.612
761.573
761.505
761.414
761.311
761.226
760.619
758.363
759.858
761.117
759.811
761.065
761.587
760.732
760.862
761
761.125
761.247
761.36
761.458
761.536
761.593
761.621
761.618
761.588
761.537
761.47
761.406
761.383
760.939
755.566
755.36
755.484
755.61
760.813
761.727
760.655
760.799
760.949
761.083
761.212
761.333
761.439
761.526
761.594
761.631
761.634
761.612
761.577
761.535
761.511
761.546
761.804
757.52
755.061
754.911
757.121
761.467
761.849
760.572
760.726
760.889
761.034
761.171
761.301
761.418
761.52
761.603
761.649
761.658
761.644
761.626
761.609
761.621
761.701
761.998
762.201
755.511
754.588
761.416
761.804
762.05
761.466
761.869
762.054
762.069
761.973
761.72
761.559
761.35
761.025
760.579
760.321
760.596
760.732
760.718
761.214
761.678
761.741
761.742
761.594
761.427
761.987
762.112
762.133
762.098
762.053
761.896
761.649
761.301
760.921
760.71
760.972
760.98
760.774
761.066
761.472
761.619
761.661
761.622
761.375
761.995
762.158
762.127
762.087
762.031
761.893
761.651
761.257
760.888
760.922
761.189
761.499
761.144
760.884
761.403
761.547
761.669
761.17
762.137
762.427
762.249
762.155
762.105
762.034
761.864
761.61
761.157
760.482
760.908
761.246
761.551
761.149
760.579
761.466
761.517
761.608
761.157
762.945
762.581
762.338
762.206
762.132
762.035
761.784
761.602
761.47
760.101
760.809
761.259
761.491
756.292
759.842
761.481
760.571
761.007
761.181
762.898
762.612
762.373
762.236
762.152
762.058
761.951
761.845
761.735
759.513
753.467
759.195
757.949
750.36
760.232
761.25
757.716
761.649
761.806
762.852
762.611
762.379
762.251
762.175
762.099
762.053
762.031
762.055
758.843
747.822
747.641
748.078
749.754
762.425
762.009
756.344
762.288
762.5
762.806
762.563
762.375
762.293
762.236
762.128
762.084
761.973
762.012
760.369
747.374
747.34
747.638
758.33
762.896
762.366
755.907
761.603
762.524
760.431
760.596
760.781
760.945
761.096
761.242
761.382
761.514
761.632
761.697
761.71
761.704
761.717
761.746
761.792
761.906
762.2
762.785
763.243
763.169
762.631
762.035
762.008
746.743
746.948
747.54
748.491
749.718
750.828
751.813
752.902
754.28
754.188
752.828
751.337
751.035
751.187
751.165
751.521
753.508
756.564
758.393
758.158
755.839
752.368
751.059
285.692
287.792
289.956
290.954
291.231
291.218
290.781
289.736
288.483
288.265
289.054
289.715
289.265
288.26
287.681
287.684
287.826
288.987
290.873
290.462
289.342
289.93
292.873
0.830495
0.835678
0.798257
0.849759
0.929858
0.979191
1.01161
1.05076
1.07536
1.08811
1.09974
1.10967
1.11675
1.21098
1.41806
1.70537
2.08638
1.92095
1.20798
1.29894
1.34678
1.35888
1.26421
1.30523
1.30669
0.875811
1.55903
2.80504
3.2692
3.53112
3.96582
4.11216
4.12552
4.21956
4.24276
4.24231
4.23828
3.98629
3.28678
2.82181
2.26512
1.12373
1.30903
1.33776
1.32921
1.13763
0.679346
0.791071
0.692045
0.657973
0.0130627
0.00584543
0.00196371
-0.000511193
0.0461667
0.131404
0.185779
0.284543
0.24773
0.212354
0.231672
0.258698
0.272499
0.580302
0.792147
0.611009
0.779161
0.882148
0.730397
0.0135024
0.000681899
0.140256
0.0955364
0.034308
0.0106342
0.00142246
0.000373683
-0.000248117
-0.000687617
-0.000754231
-0.000630727
0.00112265
0.00397896
0.0186771
0.103634
0.141899
0.0817978
0.108787
0.176481
0.20687
0.111691
0.365965
0.000537935
-0.000253668
-0.0010253
-0.00139586
0.000751988
0.00415594
0.00486191
0.00222948
-0.000192554
9.47101e-05
0.00165447
0.00127309
0.000877869
0.00318236
0.0858357
0.136415
0.133478
0.0481638
0.0757276
0.10503
0.0172132
0.00850756
0.0357576
0.000795123
0.000285863
-0.000205513
-0.000431375
0.000303563
0.00154598
0.004768
0.00303175
-0.00013211
0.00161924
0.00456005
0.00438609
0.000756705
0.00298346
0.0430064
0.0620995
0.0409634
0.0467632
0.0666449
0.0231694
0.00539839
0.00565095
0.00432521
0.000641384
0.000476448
0.000291052
1.7812e-05
0.000219578
0.000412507
0.00126698
0.000384134
-4.82664e-05
0.00207128
0.00501587
0.005077
0.0011592
0.000573616
0.000994903
-0.000600767
0.000507057
0.00565543
0.0108278
0.00428747
0.0039969
0.00431869
0.00391357
0.000690551
0.000728461
0.000541523
0.00028236
0.000243646
0.000221377
0.000147355
9.09717e-05
4.44919e-05
0.00293401
0.00542108
0.00107332
0.000145837
9.61184e-05
-6.01877e-05
9.80532e-06
0.000865144
0.00194158
0.00229866
0.00260135
0.00316779
0.00348198
0.00337712
0.000714491
0.000705657
0.000642735
0.000364774
0.000277893
0.000239203
0.000192111
0.00107633
0.00331918
0.003199
0.00140621
-3.77358e-05
7.82799e-05
0.000133738
0.000119191
0.000252549
0.00402142
0.0130008
0.0134843
0.00687731
0.00253875
0.00271917
0.00272516
0.000748275
0.000611923
0.000542399
0.000376308
0.000305543
0.000253954
0.000825639
0.00375004
0.00366304
0.00290296
-2.36517e-05
3.96865e-05
0.000117962
0.000174134
0.000211517
0.000315941
0.00710277
0.0133552
0.0137381
0.0141318
0.00363523
0.00210865
0.00213715
0.000785028
0.00062493
0.000498862
0.000394521
0.000324417
0.000261926
0.000751167
0.0037839
0.00354481
0.000431626
4.91637e-05
0.000100156
0.000156862
0.000205117
0.00024925
0.000307918
0.000841237
0.00719414
0.0134425
0.00644425
0.00139762
0.00161771
0.00167105
0.000866348
0.000838267
0.000514142
0.000413067
0.000339623
0.00030202
0.000498973
0.000533259
0.000473695
7.6635e-05
0.000108224
0.000147902
0.000189999
0.000229831
0.000270379
0.000314528
0.000349716
0.000402182
0.000740714
0.000785896
0.00107787
0.00127544
0.0013042
0.00109415
0.00103925
0.000524236
0.00042548
0.000356902
0.00031211
0.0002375
0.000163913
0.000133644
0.000136717
0.000156549
0.000184478
0.000215868
0.000249446
0.000285147
0.000323966
0.000363071
0.000412995
0.000512562
0.000679018
0.000860246
0.000987786
0.000994021
0.00147449
0.00105672
0.000527369
0.000432644
0.000365554
0.000311142
0.00025033
0.000208339
0.000184803
0.000181863
0.000192547
0.000211342
0.00023533
0.00026267
0.000292842
0.000326643
0.000364369
0.000412446
0.000486945
0.00059015
0.00068931
0.000746645
0.000749805
0.00148721
0.00100848
0.00052575
0.000434427
0.000368356
0.000313772
0.000270485
0.000237779
0.000218478
0.000213252
0.000218462
0.000231025
0.000248715
0.000269933
0.000294219
0.000322032
0.000354075
0.000393379
0.000445758
0.000509413
0.000566031
0.000595388
0.000587831
0.00152657
0.000850159
0.000516158
0.000430436
0.000367909
0.000320175
0.000283823
0.000257047
0.000240609
0.000234335
0.00023618
0.00024416
0.000256634
0.00027241
0.000290977
0.00031245
0.000337213
0.000366388
0.000401332
0.000439107
0.000469319
0.000480671
0.000466536
0.0015451
0.000830825
0.000497395
0.00042113
0.000364896
0.000322998
0.000291607
0.000268958
0.000254595
0.000247869
0.00024745
0.000251962
0.000260201
0.000271249
0.000284583
0.000300032
0.000317575
0.000337301
0.00035883
0.000379361
0.000392726
0.000392416
0.000374195
0.0015316
0.00126698
0.0004799
0.000409433
0.000359096
0.000322231
0.000295047
0.000275568
0.000262803
0.000255915
0.000253894
0.000255724
0.000260501
0.000267493
0.000276187
0.00028624
0.000297341
0.000309066
0.00032048
0.000329302
0.000331701
0.00032381
0.000303007
0.00152862
0.00141649
0.000457405
0.00039478
0.000350773
0.000318824
0.000295406
0.000278531
0.000267057
0.000260121
0.000256898
0.000256605
0.00025854
0.000262101
0.000266798
0.000272205
0.00027786
0.000283141
0.000287028
0.000287764
0.00028288
0.000270009
0.000247541
0.00152193
0.00133546
0.000432353
0.000378924
0.000341478
0.000314166
0.000294066
0.000279326
0.000268858
0.000261868
0.000257672
0.000255649
0.000255236
0.000255927
0.000257262
0.000258791
0.000260001
0.00026023
0.000258548
0.000253621
0.000243801
0.000227589
0.000203982
0.00135855
0.00066782
0.000410237
0.000365078
0.000333314
0.000309849
0.000292391
0.000279242
0.000269436
0.000262283
0.000257216
0.000253729
0.000251357
0.000249664
0.000248223
0.000246589
0.000244253
0.000240587
0.000234789
0.000225842
0.000212602
0.000194076
0.000169611
0.00060569
0.000453279
0.00039557
0.000355813
0.000327902
0.000307131
0.000291451
0.000279266
0.000269719
0.000262217
0.000256285
0.000251502
0.000247471
0.000243802
0.000240098
0.00023593
0.000230815
0.000224179
0.000215339
0.000203502
0.00018784
0.00016765
0.000142476
0.000512862
0.000439561
0.000386557
0.000350493
0.000325455
0.000306496
0.000291815
0.000279995
0.000270298
0.000262227
0.000255384
0.000249408
0.000243947
0.000238641
0.000233111
0.000226946
0.000219687
0.000210811
0.00019973
0.000185804
0.000168394
0.000146971
0.00012118
0.000484672
0.000425033
0.000379148
0.000347881
0.000325518
0.000307914
0.000293646
0.000281674
0.000271456
0.000262607
0.000254791
0.000247694
0.000240992
0.000234335
0.000227354
0.000219645
0.000210766
0.000200232
0.000187521
0.000172088
0.000153412
0.000131062
0.000104734
0.000454451
0.000408013
0.00037209
0.000347331
0.000327912
0.000311285
0.000296884
0.000284298
0.000273233
0.000263431
0.000254601
0.000246457
0.000238686
0.000230938
0.000222835
0.000213972
0.000203913
0.000192194
0.000178329
0.000161831
0.000142249
0.000119207
9.24307e-05
0.000422663
0.000389602
0.00036607
0.000349454
0.000333028
0.000316554
0.000301295
0.00028763
0.000275461
0.00026459
0.000254755
0.000245668
0.000237014
0.000228425
0.000219503
0.000209834
0.000198976
0.000186465
0.000171831
0.000154617
0.000134407
0.000110858
8.37199e-05
0.000389496
0.000370541
0.000363661
0.00035694
0.000341565
0.000323384
0.00030634
0.000291173
0.000277749
0.000265809
0.000255062
0.000245195
0.000235873
0.000226698
0.000217252
0.000207098
0.000195778
0.000182816
0.000167735
0.000150083
0.000129463
0.00010555
7.81249e-05
0.000357196
0.000351694
0.000370902
0.000375791
0.000352895
0.000330052
0.000310667
0.00029403
0.00027949
0.000266672
0.000255228
0.000244813
0.000235072
0.000225584
0.000215908
0.000205577
0.000194109
0.000181001
0.000165751
0.000147895
0.000127032
0.000102853
7.51822e-05
0.000322208
0.000615441
0.0028301
0.00339922
0.000754882
0.000332254
0.00031185
0.000294864
0.000279933
0.000266703
0.000254902
0.000244234
0.000234358
0.00022484
0.000215222
0.000205017
0.000193705
0.00018074
0.000165581
0.000147723
0.000126745
0.000102349
7.44268e-05
0.000286975
0.00134357
0.00410411
0.00411287
0.00220894
0.00032694
0.000308728
0.000293114
0.000278688
0.000265581
0.000253788
0.000243167
0.00023343
0.000224157
0.000214886
0.000205105
0.000194252
0.000181725
0.000166915
0.00014925
0.000128258
0.000103641
7.53965e-05
0.000258162
0.0012412
0.00418962
0.00419338
0.00215532
0.000316108
0.000303805
0.000289916
0.000276149
0.000263317
0.000251708
0.000241334
0.000231955
0.000223173
0.000214524
0.000205467
0.000195392
0.000183624
0.000169455
0.000152197
0.000131277
0.000106373
7.7642e-05
0.000246964
0.000592087
0.00346931
0.00342887
0.000943319
0.000312829
0.000301062
0.000286961
0.000272931
0.000259983
0.000248474
0.000238419
0.000229552
0.000221475
0.000213707
0.000205681
0.000196732
0.000186098
0.000172926
0.000156349
0.0001356
0.000110259
8.07335e-05
0.000271702
0.000361627
0.000564183
0.000508954
0.000337305
0.000319396
0.000301822
0.000284553
0.000268893
0.000255264
0.000243703
0.000234002
0.000225787
0.000218613
0.000211977
0.000205295
0.000197861
0.000188809
0.000177109
0.000161616
0.000141199
0.000115145
8.42615e-05
0.000331588
0.000435561
0.000440717
0.000400284
0.00036051
0.000328886
0.000302405
0.000280502
0.000262638
0.000248228
0.000236712
0.000227531
0.000220155
0.000214086
0.000208819
0.000203787
0.000198277
0.000191348
0.000181775
0.000168039
0.000148334
0.000121097
8.78247e-05
0.000436276
0.000544385
0.000506467
0.000435318
0.00037509
0.000329917
0.000296101
0.000270727
0.00025162
0.000237182
0.000226256
0.000217981
0.000211713
0.000206946
0.000203231
0.000200089
0.000196882
0.000192677
0.000186135
0.000175362
0.000157391
0.000128253
9.08355e-05
0.000604981
0.000660949
0.000540441
0.00043739
0.000363989
0.000312256
0.000276098
0.000250789
0.000232851
0.000219958
0.000210608
0.000203828
0.000198988
0.000195669
0.000193569
0.00019239
0.0001917
0.000190757
0.000188367
0.000182558
0.000168696
0.000136574
9.18755e-05
0.000753998
0.000708004
0.000510057
0.000392681
0.000319463
0.000272255
0.000242423
0.00022313
0.000210088
0.000200967
0.000194462
0.000189825
0.000186647
0.000184741
0.000184056
0.000184595
0.000186291
0.000188862
0.000191835
0.00019396
0.000187818
0.000150955
8.90901e-05
0.000927554
0.000640008
0.000415825
0.000315507
0.000258317
0.000230672
0.000218912
0.000212784
0.000208522
0.000205116
0.000202249
0.000199837
0.000197954
0.000196801
0.000196704
0.000198109
0.000201501
0.000207355
0.000217105
0.000233537
0.000243808
0.000199395
8.52331e-05
0.000726425
4.62344e-05
0.000164398
0.000172247
0.000173062
0.000180388
0.000189003
0.000194417
0.000196741
0.000197063
0.000196163
0.000194566
0.000192717
0.000191074
0.000190204
0.000190865
0.000194011
0.000200915
0.000216147
0.000258289
0.000348892
0.000288392
8.74026e-05
761.966
762.057
762.121
762.128
749.522
748.885
748.806
748.954
294.648
295.396
295.946
296.801
0.882756
0.755379
0.770463
0.764924
0.695089
0.693363
0.72349
0.728814
0.686768
0.689502
0.876946
0.876871
0.692099
0.662778
0.391622
0.481191
0.108341
0.0404819
0.00520944
0.00560742
0.00347446
0.00360361
0.00411029
0.00445624
0.00366632
0.00362868
0.00382631
0.0040638
0.00326717
0.00327697
0.00337767
0.00352654
0.00268136
0.00266365
0.00265798
0.00302988
0.00208093
0.00201256
0.00192064
0.00177596
0.00158725
0.00150043
0.00138889
0.00123512
0.00119043
0.00112614
0.00106547
0.00102683
0.000909651
0.000859017
0.000810122
0.000791798
0.000703914
0.000664644
0.000613743
0.000551362
0.000545852
0.000513908
0.000476551
0.000434591
0.000430088
0.000404004
0.000375398
0.000344063
0.000342388
0.00032039
0.00029715
0.000272382
0.000274595
0.000255367
0.000235503
0.000214718
0.000221513
0.000204102
0.000186286
0.000167812
0.000179545
0.000163267
0.000146633
0.000129424
0.000146154
0.000130531
0.000114528
9.79644e-05
0.000119546
0.000104262
8.85617e-05
7.23006e-05
9.84668e-05
8.33281e-05
6.77588e-05
5.16318e-05
8.20576e-05
6.69653e-05
5.14451e-05
3.53752e-05
6.97102e-05
5.46203e-05
3.91146e-05
2.30635e-05
6.09389e-05
4.58371e-05
3.03266e-05
1.42643e-05
5.52918e-05
4.01694e-05
2.46337e-05
8.52685e-06
5.22995e-05
3.71412e-05
2.15526e-05
5.36509e-06
5.14705e-05
3.62471e-05
2.05703e-05
4.26729e-06
5.23016e-05
3.69667e-05
2.11601e-05
4.71282e-06
5.4291e-05
3.8777e-05
2.27934e-05
6.1833e-06
5.69386e-05
4.11511e-05
2.49366e-05
8.15992e-06
5.97268e-05
4.35335e-05
2.70281e-05
1.01067e-05
6.20807e-05
4.52957e-05
2.84393e-05
1.14465e-05
6.32557e-05
4.56588e-05
2.84264e-05
1.15436e-05
6.19059e-05
4.34659e-05
2.6052e-05
9.71645e-06
5.5364e-05
3.67821e-05
2.02006e-05
5.4447e-06
3.97654e-05
2.17551e-05
8.58361e-06
-1.85722e-06
3.75294e-05
1.97482e-05
6.88632e-06
-2.27182e-06
762.649
762.437
762.39
762.389
761.667
759.228
758.448
759.919
761.68
762.82
762.789
755.832
757.054
765.003
763.498
762.761
755.248
758.854
762.615
749.248
747.489
746.185
745.329
744.878
743.945
740.904
738.003
741.115
754.973
762.909
763.385
762.966
761.015
755.979
753.945
753.995
752.245
749.654
298.857
298.215
297.929
298.125
300.611
305.775
311.91
315.857
315.273
312.168
318.903
327.987
329.012
320.958
313.182
311.485
315.619
309.768
310.167
0.799264
0.772239
0.905705
1.48415
1.687
1.49158
1.16429
0.978068
0.920867
0.91225
0.868411
0.803263
0.754059
0.806277
0.856115
0.862166
0.847865
0.870508
0.86916
0.733747
0.737439
0.754905
1.41727
1.65359
1.62469
1.63142
1.64869
1.64539
1.6392
1.62817
1.43217
0.80846
1.20194
1.34919
1.35216
1.35192
1.35417
1.34275
0.855899
0.834256
0.833296
0.809508
0.955933
1.06669
0.96696
0.857598
0.804931
0.752117
0.600611
0.426903
0.603753
0.625996
0.695948
0.739676
0.672195
0.715841
0.714076
0.516838
0.520057
0.504777
0.412116
0.174482
0.0239095
0.0150592
0.0160228
0.0164861
0.0161976
0.0163485
0.0163404
0.0138726
0.0100626
0.0122347
0.0104506
0.0297581
0.102147
0.0808062
0.0069546
0.00748242
0.00710609
0.00579043
0.00821991
0.0106377
0.0127927
0.0361334
0.0633026
0.0695242
0.0786421
0.0674861
0.0194505
0.00897621
0.00698596
0.0057457
0.00509056
0.00430033
0.00509579
0.00475823
0.00529446
0.00572014
0.00608795
0.00724293
0.0087784
0.0489403
0.10283
0.101644
0.101236
0.101625
0.101852
0.0325495
0.00841508
0.00664473
0.00548119
0.00494515
0.00465222
0.00506891
0.00502229
0.00795012
0.00876781
0.00565024
0.00595335
0.0209765
0.106468
0.104656
0.0594335
0.0464885
0.0950092
0.10452
0.0397177
0.0393098
0.00890189
0.00525886
0.00481722
0.00466609
0.00487021
0.0121167
0.0410861
0.0407214
0.00929586
0.00452336
0.0299299
0.0816117
0.0343988
0.00374147
0.0068897
0.00959605
0.0292886
0.0578842
0.0589407
0.0429553
0.00500237
0.00477299
0.00459229
0.00464831
0.0237929
0.0432658
0.0435046
0.0438588
0.0216286
0.00813634
1.08865e-05
-4.60741e-05
0.00377786
0.015143
0.0141622
0.00592282
0.0377695
0.0604229
0.047068
0.00751634
0.00490519
0.00461592
0.00444811
0.00670479
0.0360924
0.0442246
0.0443519
0.0244308
0.000853528
0.000263202
0.000161581
0.0027091
0.00406603
0.000384219
0.00025012
0.000380799
0.000832946
0.0221764
0.0326511
0.0252613
0.00470048
0.00431334
0.000886562
0.00264836
0.0132763
0.00864115
0.000267207
0.000444973
0.000268859
0.00021962
0.000135334
0.000117251
0.000191266
0.000344604
0.000557853
0.00153823
0.0221606
0.0333331
0.0338651
0.03409
0.0240305
0.000797354
0.000223312
-8.81056e-05
-4.92311e-05
0.000179086
0.000273909
0.000214074
0.000185521
0.000164638
0.000173666
0.000243894
0.000372893
0.000541726
0.000734959
0.00264602
0.0169027
0.0222233
0.0129794
0.00994639
0.000686105
0.000491679
0.00038587
0.000263813
0.000177219
0.000190224
0.000160637
0.000142707
0.000149377
0.000175003
0.000238381
0.00034151
0.00047821
0.000625849
0.00073982
0.000877437
0.00113536
0.00150712
0.00119115
0.000444604
0.000632939
0.000814703
0.000779458
0.000657334
0.000204621
0.000117953
0.000108238
0.00012029
0.000150925
0.00018856
0.000264447
0.000365929
0.000489918
0.00063501
0.000847895
0.00115642
0.00151297
0.0020027
0.000358558
0.000302505
0.000694664
0.000801476
0.000798993
0.000699543
6.68183e-05
6.56239e-05
0.000166106
0.000229965
0.000163922
0.000151324
0.000217007
0.000305684
0.000425462
0.000612248
0.00087098
0.00544328
0.0272024
0.000288038
0.00019245
0.000108843
0.000297962
0.000613605
0.000341671
4.35739e-05
3.35497e-05
0.000190414
0.000187489
0.000193989
2.42354e-05
2.60441e-05
5.42539e-05
9.29142e-05
0.000155855
0.000250411
0.0193701
0.0377875
0.000228563
0.000154947
8.70402e-05
3.4746e-05
-1.46941e-06
-2.55441e-05
-4.5915e-05
-1.50564e-05
6.29501e-05
9.52773e-05
1.89249e-05
-0.000129979
-0.000187067
-0.000232764
-0.000305033
-0.000412931
-0.000429463
0.0244163
0.0383644
0.000178179
0.000117621
5.89721e-05
8.62827e-06
-3.25409e-05
-6.72769e-05
-0.000100575
-0.000136287
-0.00017487
-0.000212063
-0.000257879
-0.000317284
-0.000394179
-0.000508052
-0.000680265
-0.000940545
-0.0012664
0.00925559
0.0391542
0.000135399
8.24114e-05
2.90294e-05
-2.07621e-05
-6.61633e-05
-0.000108731
-0.000151578
-0.000197613
-0.000248491
-0.000305983
-0.000373861
-0.000459139
-0.000573467
-0.000733256
-0.000962761
-0.00129885
-0.00175471
-0.00217046
0.0365608
9.92063e-05
5.04273e-05
-2.23438e-07
-5.0293e-05
-9.9204e-05
-0.000147945
-0.00019866
-0.000253741
-0.000315354
-0.000386174
-0.000470553
-0.000574881
-0.000709929
-0.000889139
-0.0011325
-0.00146826
-0.00189722
-0.00229337
-8.98226e-05
6.8828e-05
2.22543e-05
-2.71767e-05
-7.79835e-05
-0.000129837
-0.00018348
-0.000240512
-0.000302928
-0.000372944
-0.000453296
-0.000547877
-0.000662056
-0.000803122
-0.000979491
-0.00120122
-0.00147737
-0.00178245
-0.00195362
-0.00178545
4.36487e-05
-1.86734e-06
-5.0916e-05
-0.000102642
-0.000156924
-0.000214386
-0.00027628
-0.000344265
-0.000420281
-0.000506664
-0.00060635
-0.000722869
-0.000859969
-0.00102042
-0.00120425
-0.00140292
-0.00157167
-0.00157987
-0.00130709
2.31697e-05
-2.19139e-05
-7.0997e-05
-0.000123628
-0.00017984
-0.00024018
-0.00030565
-0.000377576
-0.00045749
-0.000547097
-0.000648201
-0.000762408
-0.000890373
-0.00103026
-0.00117497
-0.00130493
-0.00136796
-0.00127513
1.37913e-05
6.96485e-06
-3.80026e-05
-8.72858e-05
-0.00014069
-0.000198349
-0.000260755
-0.000328706
-0.000403211
-0.000485361
-0.000576187
-0.000676429
-0.000786072
-0.00090347
-0.00102383
-0.00113653
-0.00121862
-0.00122113
-0.00108434
0.00834854
-5.36637e-06
-5.03604e-05
-9.9864e-05
-0.000153843
-0.000212498
-0.00027627
-0.000345793
-0.000421797
-0.000504962
-0.000595714
-0.000693912
-0.000798328
-0.000905829
-0.00101015
-0.00110004
-0.00115494
-0.00113572
-0.000996869
0.00963355
-1.42381e-05
-5.93049e-05
-0.000108966
-0.000163286
-0.00022251
-0.000287042
-0.000357388
-0.000434056
-0.000517386
-0.00060731
-0.000703005
-0.00080237
-0.000901318
-0.000992903
-0.00106642
-0.00110546
-0.00108111
-0.000951849
0.0099685
-2.00979e-05
-6.5226e-05
-0.000114926
-0.000169327
-0.000228708
-0.000293456
-0.000363997
-0.000440684
-0.000523609
-0.000612342
-0.000705544
-0.000800455
-0.000892226
-0.000973263
-0.00103284
-0.00105626
-0.00101949
-0.000888477
0.00628317
-2.3426e-05
-6.85598e-05
-0.000118133
-0.000172322
-0.000231442
-0.000295891
-0.000366073
-0.000442264
-0.000524423
-0.000611895
-0.000702997
-0.000794447
-0.000880649
-0.000952954
-0.000999009
-0.00100109
-0.000931428
-0.000764934
-0.000505951
-2.47204e-05
-6.9759e-05
-0.000118987
-0.000172622
-0.00023103
-0.000294661
-0.000363953
-0.000439207
-0.000520374
-0.000606748
-0.000696516
-0.000786099
-0.000869308
-0.00093634
-0.000972433
-0.000954558
-0.000847089
-0.000631341
0.000876471
-2.44779e-05
-6.92649e-05
-0.000117859
-0.000170528
-0.000227715
-0.000289961
-0.000357812
-0.000431685
-0.000511675
-0.000597238
-0.000686716
-0.000776622
-0.000860656
-0.000928477
-0.000963909
-0.000940833
-0.000819302
-0.000583865
0.0114945
-2.31818e-05
-6.74855e-05
-0.000115063
-0.00016626
-0.000221626
-0.00028184
-0.000347614
-0.000419581
-0.000498125
-0.000583087
-0.000673304
-0.000765863
-0.000855063
-0.000930948
-0.00097732
-0.000967652
-0.000860051
-0.000630578
0.0123841
-2.12971e-05
-6.47803e-05
-0.000110834
-0.000159926
-0.000212756
-0.000270174
-0.000333105
-0.000402468
-0.000479057
-0.00056331
-0.000654888
-0.000751994
-0.000850312
-0.000941153
-0.0010091
-0.00102771
-0.000949933
-0.000725164
0.0126484
-1.92685e-05
-6.14424e-05
-0.0001053
-0.000151507
-0.000200953
-0.000254677
-0.000313828
-0.00037964
-0.000453389
-0.000536261
-0.000629063
-0.000731675
-0.00084204
-0.000953783
-0.00105325
-0.00111386
-0.00107883
-0.000857743
0.0128866
-1.75098e-05
-5.76707e-05
-9.84611e-05
-0.000140847
-0.000185935
-0.000234936
-0.000289189
-0.000350207
-0.00041974
-0.000499788
-0.000592529
-0.000700017
-0.000823431
-0.000960308
-0.00110079
-0.00121643
-0.00124237
-0.00102768
0.0107705
-1.63659e-05
-5.35122e-05
-9.01464e-05
-0.00012764
-0.000167313
-0.00021048
-0.00025857
-0.000313263
-0.000376662
-0.000451488
-0.00054132
-0.000650777
-0.000784944
-0.000948126
-0.00113747
-0.00131066
-0.00143165
-0.00124087
0.00617318
-1.5997e-05
-4.8694e-05
-7.98642e-05
-0.000111325
-0.000144523
-0.00018074
-0.000221329
-0.000267935
-0.000322758
-0.000388935
-0.000471121
-0.000576237
-0.000713906
-0.000897007
-0.00113726
-0.00140001
-0.00167424
-0.00154364
0.00636949
-1.60508e-05
-4.224e-05
-6.64618e-05
-9.07778e-05
-0.00011654
-0.000144777
-0.000176542
-0.000213161
-0.000256527
-0.000309572
-0.000377082
-0.000467025
-0.00059229
-0.000774019
-0.00104969
-0.00145324
-0.00201661
-0.00196556
0.0060739
-1.53359e-05
-3.26797e-05
-4.87487e-05
-6.51873e-05
-8.29077e-05
-0.000102453
-0.000124353
-0.00014932
-0.000178462
-0.00021367
-0.000258385
-0.000319086
-0.000407749
-0.000547804
-0.000801588
-0.00133545
-0.00234114
-0.00268496
0.00512785
-1.19769e-05
-2.19413e-05
-3.09582e-05
-4.05314e-05
-5.10302e-05
-6.25107e-05
-7.49717e-05
-8.84411e-05
-0.00010306
-0.000119254
-0.000138146
-0.000162623
-0.000199771
-0.000266575
-0.000412619
-0.000817894
-0.00196261
-0.00331518
0.00244744
)
;

boundaryField
{
    leftWall
    {
        type            fixedFluxPressure;
        gradient        uniform 0;
        value           nonuniform List<scalar> 
50
(
760.999
760.965
760.921
760.866
760.803
760.732
760.655
760.572
760.431
746.743
285.692
0.830495
1.30523
0.679346
0.0135024
0.000537935
0.000795123
0.000641384
0.000690551
0.000714491
0.000748275
0.000785028
0.000866348
0.00109415
0.00147449
0.00148721
0.00152657
0.0015451
0.0015316
0.00152862
0.00152193
0.00135855
0.00060569
0.000512862
0.000484672
0.000454451
0.000422663
0.000389496
0.000357196
0.000322208
0.000286975
0.000258162
0.000246964
0.000271702
0.000331588
0.000436276
0.000604981
0.000753998
0.000927554
0.000726425
)
;
    }
    rightWall
    {
        type            fixedFluxPressure;
        gradient        uniform 0;
        value           nonuniform List<scalar> 
50
(
761.594
761.622
761.17
761.157
761.181
761.806
762.5
762.524
762.615
749.654
310.167
0.86916
1.34275
0.714076
0.0808062
0.00509579
0.00506891
0.00487021
0.00464831
0.00444811
0.00431334
0.0240305
0.00994639
0.00119115
0.0020027
0.0272024
0.0377875
0.0383644
0.0391542
0.0365608
-8.98226e-05
-0.00178545
-0.00130709
1.37913e-05
0.00834854
0.00963355
0.0099685
0.00628317
-0.000505951
0.000876471
0.0114945
0.0123841
0.0126484
0.0128866
0.0107705
0.00617318
0.00636949
0.0060739
0.00512785
0.00244744
)
;
    }
    lowerWall
    {
        type            fixedFluxPressure;
        gradient        uniform 0;
        value           nonuniform List<scalar> 
62
(
760.999
761.123
761.253
761.379
761.492
761.589
761.664
761.715
761.74
761.736
761.703
761.64
761.547
761.419
761.25
761.042
760.841
760.712
760.675
760.667
760.793
761.122
761.312
761.312
761.364
761.4
761.476
761.587
761.727
761.849
762.05
761.966
762.057
762.121
762.128
761.466
761.427
761.375
762.137
762.945
762.898
762.852
762.806
761.466
761.869
762.054
762.069
761.973
761.72
761.559
761.35
761.025
760.579
760.321
760.596
760.732
760.718
761.214
761.678
761.741
761.742
761.594
)
;
    }
    atmosphere
    {
        type            totalPressure;
        rho             rho;
        psi             none;
        gamma           1;
        p0              uniform 0;
        value           nonuniform List<scalar> 
46
(
-0.000102087
0
0
0
0
0
0
0
0
0
0
0
0
0
0
0
0
0
0
0
0
-3.65563e-07
-1.77477e-06
-3.5012e-06
-4.9068e-06
-6.5303e-06
-8.35981e-06
-1.18772e-05
-1.76586e-05
-2.435e-05
-3.18339e-05
-3.99759e-05
-4.86181e-05
-5.75738e-05
-6.66208e-05
-7.54951e-05
-8.38834e-05
-9.14135e-05
-9.7638e-05
-0.000101993
-0.000103688
-0.000101411
-9.24713e-05
-7.07557e-05
-2.1428e-05
0
)
;
    }
    defaultFaces
    {
        type            empty;
    }
}


// ************************************************************************* //
