/*--------------------------------*- C++ -*----------------------------------*\
  =========                 |
  \\      /  F ield         | OpenFOAM: The Open Source CFD Toolbox
   \\    /   O peration     | Website:  https://openfoam.org
    \\  /    A nd           | Version:  9
     \\/     M anipulation  |
\*---------------------------------------------------------------------------*/
FoamFile
{
    format      ascii;
    class       volScalarField;
    location    "4.34";
    object      p_rgh;
}
// * * * * * * * * * * * * * * * * * * * * * * * * * * * * * * * * * * * * * //

dimensions      [1 -1 -2 0 0 0 0];

internalField   nonuniform List<scalar> 
2268
(
763.481
763.85
764.298
764.817
765.387
765.99
766.611
767.236
767.852
768.441
768.989
769.478
769.892
770.212
770.407
770.438
770.313
769.955
769.828
770.104
770.679
771.291
771.608
763.387
763.723
764.158
764.67
765.244
765.858
766.496
767.142
767.78
768.393
768.963
769.471
769.898
770.223
770.419
770.455
770.368
770.01
769.312
770.452
771.033
771.577
771.837
763.256
763.577
764
764.503
765.08
765.706
766.362
767.032
767.698
768.34
768.939
769.475
769.928
770.28
770.512
770.617
770.368
768.404
768.625
768.808
770.738
771.693
772.07
763.085
763.413
763.838
764.339
764.92
765.559
766.235
766.93
767.624
768.298
768.93
769.499
769.988
770.385
770.683
770.922
771.025
768.093
768.437
768.167
769.976
771.84
772.174
762.876
763.224
763.664
764.175
764.766
765.421
766.118
766.84
767.565
768.273
768.941
769.546
770.075
770.521
770.889
771.225
771.722
770.57
768.111
767.87
771.699
771.994
772.286
762.633
763.008
763.472
764.001
764.609
765.285
766.008
766.759
767.518
768.263
768.971
769.613
770.185
770.678
771.108
771.522
772.066
773.159
771.522
772.418
772.48
772.153
772.381
762.358
762.761
763.255
763.81
764.442
765.143
765.896
766.681
767.478
768.265
769.016
769.697
770.308
770.847
771.329
771.799
772.349
773.243
773.86
773.552
772.654
772.331
772.445
762.05
762.476
763.002
763.587
764.246
764.978
765.766
766.591
767.432
768.27
769.073
769.797
770.449
771.033
771.559
772.069
772.618
773.337
773.782
773.54
772.841
772.512
772.503
764.04
763.7
762.89
761.749
760.478
759.157
757.818
756.497
755.251
753.577
750.984
749.413
746.63
746.892
748.593
748.033
745.373
741.946
740.482
764.128
764.243
763.424
762.311
761.084
759.745
758.334
756.919
755.254
753.445
750.99
748.686
746.266
746.435
748.383
747.068
744.452
742.068
739.916
765.001
764.611
763.612
762.499
761.251
759.977
758.659
757.097
755.223
753.444
748.953
746.161
745.799
748.033
747.987
746.473
744.133
741.383
738.552
765.862
764.923
763.818
762.657
761.395
760.11
758.709
756.736
755.199
753.586
746.714
745.655
744.969
749.659
748.016
746.376
744.199
741.526
737.209
766.126
765.167
763.991
762.799
761.511
760.198
758.681
756.7
755.43
754.499
749.422
744.914
745.12
750.655
748.282
746.619
744.726
742.865
736.231
766.478
765.447
764.143
762.917
761.578
760.234
758.845
757.392
756.17
755.158
754.539
751.644
753.19
750.815
748.652
747.091
744.021
739.556
735.588
766.934
765.592
764.235
763.013
761.575
760.193
758.915
757.712
756.539
755.317
755.094
755.201
753.778
750.955
749.069
747.77
738.86
730.199
740.223
767.525
765.617
764.321
763.158
761.71
760.246
758.843
757.591
756.016
753.019
752.98
754.418
753.42
751.089
749.5
748.596
738.573
730.244
743.41
761.504
761.951
762.524
763.168
763.88
764.67
765.525
766.421
767.347
768.285
769.188
769.983
770.702
771.357
771.941
772.498
773.051
773.595
773.885
773.723
773.233
772.79
772.63
744.685
745.379
747.045
748.804
750.671
752.696
754.928
757.469
760.468
763.876
767.555
769.032
770.261
771.739
772.29
772.604
772.948
773.885
774.125
773.13
770.327
767.562
766.313
284.702
289.094
294.028
299.625
305.005
310.454
315.714
320.08
323.728
326.663
329.105
330.962
333.453
335.428
337.687
341.239
345.958
349.006
350.818
350.618
350.396
352.893
357.081
2.37212
2.38817
2.36568
2.36833
2.4496
2.52483
2.59734
2.76009
2.88679
2.9661
3.04743
4.81848
5.40726
5.76689
6.1473
5.18222
3.79394
2.94082
2.92281
3.74
4.78283
4.30336
2.34686
2.45315
2.45518
2.37916
2.38758
3.32033
3.94581
3.98604
6.35317
7.40929
7.45568
7.4948
7.51472
7.17668
7.56066
7.53161
6.23302
2.93351
2.88681
2.85095
3.2494
4.70603
4.15737
1.6362
2.36325
2.44084
2.44557
2.3662
2.67017
2.99021
3.47679
2.85475
3.14879
3.63872
4.25778
4.61228
4.70004
4.64536
4.35945
4.61988
4.21885
4.05773
3.94799
2.55587
2.0232
2.16141
0.568618
1.22017
1.31502
1.57469
1.3676
1.01667
0.574041
0.401311
0.293759
0.0192953
0.000167828
-0.00687373
-0.0104283
-0.00964392
0.0124613
0.100804
0.50444
0.67984
0.661225
0.652321
0.583982
0.402607
0.475732
0.514021
0.0142557
0.00482911
0.00151092
0.224761
0.0940792
0.0583304
0.0491594
0.00316112
0.00245955
-0.0011305
-0.0042828
-0.00625257
-0.00553617
-0.00274237
-0.00346325
-0.00383292
0.0530453
0.365409
0.521884
0.499705
0.386346
0.386979
0.716604
0.00477853
0.00376958
0.0020199
-0.000587241
0.000489895
0.00135012
0.00120694
0.00104661
0.000303619
-0.00163047
-0.0036085
-0.00275893
0.00189561
0.00204081
-0.00340196
-0.00419335
0.00264287
0.0779925
0.306768
0.486236
0.390812
0.351913
0.583447
0.00350459
0.00319766
0.00212867
0.000469065
0.000243751
0.000342052
0.000146963
-0.00016225
-0.00079117
-0.00165246
-0.00125059
-0.000787791
0.000267968
-0.000989596
-0.0041672
-0.00459647
-0.0042501
-0.0065663
-0.00443571
0.0359406
0.0850909
0.0271623
0.0145272
0.00269005
0.00257448
0.00179398
0.000605138
8.21035e-05
-0.00015502
-0.00047215
-0.00081557
0.0007606
0.001871
0.000939515
-0.0013179
-0.00439274
-0.00452928
-0.00454119
-0.0046866
-0.00506636
-0.00604831
-0.00702888
-0.0070932
-0.00621143
-0.00499145
-0.00464088
0.00216742
0.00179493
0.00117448
0.000422985
-9.03223e-05
-0.000468283
-0.000851292
-0.000685491
0.00253508
0.0019357
3.33929e-05
-0.00348007
-0.00393961
-0.00413812
-0.00427504
-0.00446345
-0.0047872
-0.00536912
-0.00371002
0.00347106
0.00587303
0.00630929
-0.000302867
0.00183914
0.00137624
0.000796766
0.000202076
-0.000284672
-0.000691914
-0.00108275
-0.000965554
-0.000715097
-0.00158553
-0.0028214
-0.00331255
-0.00357986
-0.00379013
-0.00396663
-0.00416165
-0.00442612
-0.00479733
0.0011849
0.00851498
0.00895588
0.00961174
0.00797711
0.00174843
0.00137107
0.000557062
-1.95282e-05
-0.000474471
-0.000866897
-0.00122891
-0.00160714
-0.00204055
-0.00242511
-0.00276645
-0.00305494
-0.00328853
-0.00348107
-0.00365014
-0.00382885
-0.00403917
-0.00429479
-0.0041567
0.00117174
0.0101617
0.0105848
-0.000796269
0.00181194
0.00151293
0.000380858
-0.000220274
-0.000642692
-0.00101314
-0.0013586
-0.00169554
-0.00202239
-0.00232917
-0.00260346
-0.00283866
-0.00303571
-0.00320123
-0.00334956
-0.00349761
-0.00365364
-0.00381644
-0.00395696
-0.00398137
-0.00330678
-0.00277633
-0.00264225
0.00184042
0.00139812
0.000243901
-0.000385554
-0.000783508
-0.00112697
-0.00143707
-0.00172489
-0.00199517
-0.00224411
-0.0024662
-0.00265819
-0.00282098
-0.00295922
-0.00308121
-0.00319475
-0.00330099
-0.00339226
-0.00344458
-0.00341066
-0.00322732
-0.00285129
-0.00230587
0.00182618
0.0013232
0.000120202
-0.000513928
-0.000893109
-0.00121001
-0.00148696
-0.00173534
-0.00196141
-0.0021658
-0.0023471
-0.00250419
-0.00263767
-0.00275026
-0.00284622
-0.00292836
-0.00299436
-0.00303509
-0.00303198
-0.00295513
-0.00276944
-0.00245588
-0.00203207
0.00194833
0.00126574
0.000106974
-0.000611412
-0.000973414
-0.00126613
-0.00151397
-0.0017295
-0.00192016
-0.00208921
-0.00223765
-0.00236573
-0.00247392
-0.0025635
-0.00263606
-0.00269173
-0.00272689
-0.00273318
-0.0026968
-0.00259919
-0.00242139
-0.00215498
-0.00181267
0.00198642
0.00120963
6.73976e-05
-0.000685881
-0.00102889
-0.00129871
-0.00152078
-0.00170843
-0.00187002
-0.00201019
-0.00213135
-0.0022346
-0.00232048
-0.00238935
-0.00244128
-0.00247501
-0.00248669
-0.00246945
-0.00241347
-0.00230715
-0.0021403
-0.0019101
-0.00162586
0.00177809
0.00114295
-9.68227e-05
-0.000742127
-0.00106333
-0.00131067
-0.00150929
-0.00167277
-0.0018099
-0.00192597
-0.00202408
-0.00210582
-0.00217184
-0.00222213
-0.00225602
-0.0022717
-0.00226561
-0.00223241
-0.00216531
-0.00205714
-0.00190255
-0.00170136
-0.00146055
0.00120364
0.000952751
-0.000356539
-0.000781439
-0.00107839
-0.00130386
-0.00148089
-0.00162312
-0.00173935
-0.00183509
-0.00191366
-0.0019769
-0.0020256
-0.00205965
-0.00207819
-0.00207937
-0.00206021
-0.00201667
-0.00194419
-0.00183842
-0.0016967
-0.00151998
-0.00131355
0.000786836
0.000228836
-0.000417186
-0.000803557
-0.0010755
-0.00127927
-0.00143646
-0.00155995
-0.00165833
-0.00173696
-0.00179918
-0.00184693
-0.00188106
-0.00190158
-0.0019077
-0.00189783
-0.00186962
-0.00182015
-0.0017464
-0.0016458
-0.00151718
-0.00136191
-0.00118401
0.000611552
2.1268e-05
-0.000462468
-0.000810308
-0.0010553
-0.00123755
-0.00137633
-0.00148342
-0.0015667
-0.00163121
-0.00168014
-0.00171541
-0.00173793
-0.00174786
-0.00174462
-0.001727
-0.00169324
-0.00164129
-0.00156923
-0.00147559
-0.00136001
-0.00122392
-0.0010704
0.00043579
-7.77176e-05
-0.000497285
-0.000801362
-0.00101754
-0.00117851
-0.00130034
-0.00139324
-0.00146401
-0.00151722
-0.00155579
-0.00158154
-0.00159543
-0.00159772
-0.00158811
-0.00156575
-0.0015294
-0.00147769
-0.00140943
-0.00132386
-0.00122101
-0.00110226
-0.000969978
0.000261474
-0.000169676
-0.000518602
-0.000775077
-0.000961383
-0.0011017
-0.00120824
-0.00128905
-0.00134975
-0.00139425
-0.00142518
-0.00144418
-0.00145222
-0.00144966
-0.00143641
-0.00141195
-0.00137547
-0.00132611
-0.00126319
-0.00118635
-0.00109586
-0.000992948
-0.000879494
9.64787e-05
-0.000248968
-0.000521455
-0.000727943
-0.000885651
-0.00100734
-0.0011005
-0.00117115
-0.0012239
-0.00126199
-0.00128766
-0.00130238
-0.00130704
-0.00130207
-0.00128755
-0.00126322
-0.00122862
-0.00118327
-0.00112682
-0.00105917
-0.000980685
-0.000892464
-0.000796042
-4.96525e-05
-0.000303417
-0.000497673
-0.000655219
-0.000791674
-0.000897865
-0.000979149
-0.0010411
-0.00108754
-0.00112107
-0.00114347
-0.00115596
-0.00115931
-0.00115397
-0.00114013
-0.00111775
-0.00108663
-0.00104655
-0.000997401
-0.000939261
-0.000872516
-0.000798146
-0.00071742
-0.000177948
0.000222658
0.00238303
0.00150803
-0.000604198
-0.000778884
-0.000848194
-0.000901842
-0.000942938
-0.000973227
-0.000993896
-0.00100578
-0.00100946
-0.00100533
-0.000993693
-0.00097464
-0.000948172
-0.000914283
-0.000873038
-0.000824601
-0.000769358
-0.000708177
-0.000642108
-0.000286693
0.000731863
0.00294734
0.00288052
0.000314445
-0.00065639
-0.000711535
-0.000756618
-0.000792903
-0.000820905
-0.000840996
-0.000853496
-0.000858704
-0.000856959
-0.000848575
-0.000833784
-0.00081275
-0.00078563
-0.00075262
-0.000713937
-0.000669934
-0.000621363
-0.000569072
-0.000365565
0.000437409
0.00309515
0.00305485
0.000653895
-0.000530401
-0.0005707
-0.000607742
-0.000640058
-0.000666718
-0.000687185
-0.000701197
-0.000708753
-0.000710099
-0.000705579
-0.000695542
-0.000680311
-0.000660196
-0.0006355
-0.000606473
-0.000573401
-0.000536896
-0.00049759
-0.000414474
-0.000203181
0.00291076
0.00249549
0.00016796
-0.000396522
-0.000425747
-0.000456949
-0.000486834
-0.000513283
-0.000534961
-0.000551087
-0.000561418
-0.000566127
-0.000565616
-0.000560379
-0.000550922
-0.000537722
-0.000521197
-0.000501614
-0.000479152
-0.000454224
-0.000427208
-0.000436657
-0.000310412
0.000101014
-7.09057e-05
-0.000226235
-0.000254163
-0.000278051
-0.000306644
-0.000336003
-0.000363373
-0.000386869
-0.000405363
-0.000418463
-0.000426335
-0.000429499
-0.00042866
-0.000424558
-0.000417891
-0.000409223
-0.00039884
-0.000386742
-0.000373037
-0.000357761
-0.00043123
-0.000243899
-0.000136157
-0.000101784
-9.81779e-05
-0.000109991
-0.000132524
-0.000160916
-0.000191142
-0.000220101
-0.000245562
-0.0002662
-0.00028156
-0.000291879
-0.000297888
-0.000300585
-0.000301036
-0.000300248
-0.00029901
-0.00029765
-0.000295876
-0.000293283
-0.000289418
-0.000399926
-0.000163441
-2.05106e-05
3.05419e-05
3.79608e-05
2.66221e-05
4.13644e-06
-2.4905e-05
-5.637e-05
-8.68327e-05
-0.000113786
-0.000135766
-0.000152309
-0.000163813
-0.000171312
-0.000176203
-0.000180002
-0.00018416
-0.000189845
-0.000197525
-0.000206416
-0.000215208
-0.000222725
-0.000345593
-7.32642e-05
9.20447e-05
0.000150764
0.000159618
0.000148592
0.000126045
9.64683e-05
6.42118e-05
3.30419e-05
5.71727e-06
-1.61784e-05
-3.22399e-05
-4.31068e-05
-5.02027e-05
-5.5431e-05
-6.09028e-05
-6.87176e-05
-8.07126e-05
-9.77995e-05
-0.000118356
-0.00013938
-0.00015861
-0.000256554
3.20475e-05
0.000200238
0.000255382
0.000262025
0.000250571
0.000228109
0.000198655
0.000166701
0.000136293
0.000110393
9.06345e-05
7.72875e-05
6.94177e-05
6.51629e-05
6.20339e-05
5.71762e-05
4.75742e-05
3.01614e-05
2.69809e-06
-3.17221e-05
-6.67083e-05
-9.84089e-05
-0.000118022
0.000163082
0.000304143
0.000340013
0.000340035
0.00032742
0.000305466
0.000277313
0.000247437
0.000219999
0.000198007
0.000183011
0.000175086
0.000173009
0.000174528
0.000176597
0.000175547
0.000167151
0.00014602
0.000106207
5.35062e-05
1.46625e-06
-4.39196e-05
7.88156e-05
0.000319575
0.000396501
0.000397743
0.000387613
0.00037351
0.000352899
0.000327836
0.000302535
0.000280943
0.00026583
0.000258499
0.000258812
0.000265385
0.000275816
0.000286795
0.000294093
0.000292004
0.000270986
0.000215362
0.000136412
6.27114e-05
2.34969e-06
0.00034366
0.000491426
0.000457808
0.00041636
0.00039707
0.000382455
0.000364731
0.000345336
0.00032785
0.000315475
0.000310357
0.000313384
0.000324261
0.000341723
0.000363702
0.000387198
0.000408062
0.00042031
0.000408579
0.000331293
0.000211581
0.000110701
3.59214e-05
0.000588378
0.000579908
0.000443488
0.000378357
0.000360022
0.000350528
0.00034135
0.000334139
0.000331208
0.000334285
0.000344449
0.000362053
0.000386791
0.000417903
0.000454188
0.000493296
0.000531394
0.000566613
0.000589602
0.000477865
0.000271895
0.000131761
4.78432e-05
0.000950521
0.000612929
0.00037946
0.000288471
0.000276968
0.000287687
0.000305721
0.000329729
0.000359098
0.000393342
0.000432299
0.000475957
0.000524413
0.000577982
0.000636875
0.000699809
0.000765511
0.000847856
0.000978462
0.000804037
0.000339122
0.000118396
3.11151e-05
0.000829932
-0.000387625
-4.18887e-05
3.21506e-05
0.000101463
0.000168056
0.000231694
0.000294701
0.000357708
0.000420729
0.000484029
0.000548376
0.00061528
0.000687371
0.00076862
0.00086613
0.00100683
0.00127638
0.00170101
0.00143983
0.000451213
0.000126707
3.03055e-05
770.528
770.01
769.143
768.14
766.23
764.642
762.639
761.225
349.623
344.579
340.798
337.7
3.16342
3.38903
2.66866
1.87429
2.53818
3.35419
2.56657
1.61655
1.19848
3.5114
1.99141
1.62774
0.499457
1.38991
1.2474
0.527002
1.12754
1.11653
0.765363
0.114899
0.580226
0.203465
0.097602
0.0165972
-0.0014248
-0.00365998
0.000580426
0.00529774
-0.00383158
-0.00286589
-0.0011985
0.00026338
-0.00292714
-0.00222486
-0.001413
-0.000534498
-0.00247701
-0.00190975
-0.00133226
-0.00068153
-0.00223467
-0.00170697
-0.00130226
-0.000856108
-0.00183039
-0.00141083
-0.00114971
-0.000943537
-0.00181687
-0.0014951
-0.00121857
-0.00095971
-0.00167484
-0.0014418
-0.00120895
-0.000971979
-0.00152616
-0.00133609
-0.00114277
-0.000945677
-0.00138952
-0.00123154
-0.00106845
-0.000900784
-0.00126184
-0.00112902
-0.000990846
-0.000848251
-0.00114465
-0.0010322
-0.000914974
-0.000793922
-0.00103971
-0.000944015
-0.000844392
-0.000741687
-0.00094687
-0.000865124
-0.000780273
-0.000693075
-0.000864271
-0.000794314
-0.000721946
-0.000647899
-0.00078935
-0.000729581
-0.000667936
-0.000605189
-0.00071976
-0.000669002
-0.000616758
-0.000563882
-0.000653721
-0.000611094
-0.000567239
-0.000523106
-0.000589986
-0.00055479
-0.000518512
-0.000482205
-0.000527666
-0.000499309
-0.000469927
-0.000440677
-0.000466128
-0.000444096
-0.000421031
-0.000398194
-0.000404992
-0.000388839
-0.00037161
-0.000354654
-0.000344185
-0.00033354
-0.000321758
-0.000310252
-0.000284009
-0.000278584
-0.000271941
-0.000265526
-0.000225165
-0.000224746
-0.000222995
-0.000221348
-0.00016874
-0.00017317
-0.000176087
-0.000178874
-0.000116203
-0.000125332
-0.00013266
-0.000139471
-6.94314e-05
-8.30325e-05
-9.43806e-05
-0.000104633
-3.07891e-05
-4.83951e-05
-6.30779e-05
-7.58881e-05
-3.38984e-06
-2.38131e-05
-4.05709e-05
-5.45798e-05
7.98951e-06
-1.1993e-05
-2.82894e-05
-4.14587e-05
-4.80072e-06
-1.97714e-05
-3.05327e-05
-3.83436e-05
-2.83007e-07
-1.29223e-05
-2.1859e-05
-2.77795e-05
767.385
765.719
764.548
763.29
756.719
751.198
747.545
746.344
748.676
752.255
754.873
754.328
753.058
751.246
750.056
749.75
744.562
729.995
743.294
758.867
749.661
742.751
737.469
734.66
730.335
722.324
712.42
705.862
708.311
713.807
716.649
712.935
702.039
695.425
704.899
717.935
727.256
727.522
332.953
326.504
323.855
323.832
325.35
328.013
332.402
334.183
329.527
314.676
298.968
286.358
277.585
272.708
267.131
257.722
254.449
255.092
244.693
1.27855
1.07613
1.05816
1.0294
1.09718
1.12269
0.915357
0.862245
0.843931
0.853601
0.864325
0.870936
0.88103
0.893518
0.88907
0.81637
0.766323
0.749697
0.745247
1.05541
1.04831
1.0426
1.03114
1.08221
2.27565
1.9783
1.78001
1.67604
1.65449
1.61907
1.58005
1.57292
1.6637
1.72323
1.33955
1.13182
1.18892
1.0992
1.5426
1.60372
1.60178
1.01068
2.00801
2.42199
2.411
2.40695
2.40534
2.4046
2.40427
2.40154
2.39753
2.39245
2.38399
1.53324
1.45977
1.45352
1.4498
1.44853
1.60394
1.6067
1.60991
1.48062
0.922841
0.601398
0.584707
0.570586
0.547802
0.561963
0.549213
0.527676
0.55394
0.637676
0.713267
1.04923
0.986848
0.796308
0.34162
0.553812
0.456468
0.50224
0.198307
0.0221481
0.0167579
0.0174509
0.0191278
0.0215921
0.0234292
0.0244843
0.0247111
0.0237703
0.0222753
0.254763
0.122789
0.0240584
0.0273047
0.00691741
0.00219517
0.00218866
0.00311386
0.00670947
0.0108203
0.0140278
0.0162868
0.0201246
0.0284184
0.0688622
0.0854134
0.0857673
0.0450362
0.0213527
0.0201484
0.0207722
0.0229297
0.025921
0.00321947
0.00239112
0.00290044
0.00440609
0.00694374
0.00989008
0.0120201
0.0143516
0.0199243
0.11503
0.1339
0.133367
0.1059
0.029956
0.0209089
0.0203594
0.0206185
0.021732
0.0233064
0.00163489
0.00200315
0.00294404
0.00456791
0.0181755
0.0338616
0.0188571
0.0134166
0.0986344
0.137327
0.133557
0.0539174
0.0330604
0.046044
0.049297
0.043556
0.0358278
0.0278442
0.0231191
0.00083
0.00155743
0.00253411
0.0183757
0.0468133
0.0479656
0.0294827
0.034359
0.136059
0.134546
0.0226465
0.0303228
0.0612584
0.0980114
0.0986369
0.0990129
0.0996186
0.0890449
0.0504426
0.00031403
0.00105037
0.00187838
0.0286707
0.0474107
0.0481243
0.0424455
0.0255484
0.0372545
0.012044
0.00482309
0.0568578
0.0984539
0.0990481
0.0873672
0.0500865
0.0329799
0.0337702
0.0493422
-7.07971e-05
0.000587661
0.00111017
0.0113679
0.0355037
0.0350318
0.00736509
0.00300438
0.00230814
0.00272363
0.00365029
0.0207523
0.0796069
0.0590784
0.00602439
0.00750139
0.00869473
0.0107466
0.0264728
-0.000337034
0.000437953
0.000853839
0.000950001
0.001681
0.00198061
0.00186785
0.00223659
0.00223069
0.00250885
0.0036407
0.00604687
0.00278498
0.00369061
0.00524311
0.00642187
0.00759405
0.0177507
0.038521
-0.000469416
0.00013302
0.000553608
0.000780235
0.000966949
0.00118324
0.00160305
0.00191415
0.00204723
0.00228608
0.0026362
0.0026632
0.00285423
0.00349295
0.00440459
0.00513281
0.0055015
0.0252018
0.0464338
-0.000573901
-0.000122218
0.000297715
0.00112971
0.00152471
0.00166172
0.00141383
0.00166372
0.00183644
0.00203736
0.00225352
0.00241322
0.00261619
0.00302447
0.00352694
0.00385628
0.00388172
0.0117427
0.0465842
-0.000609881
-0.000210601
0.000132361
0.000851136
0.00146018
0.00173543
0.00199122
0.00165808
0.00161629
0.00179123
0.00196335
0.00210291
0.00226183
0.0024961
0.00271773
0.00276402
0.00257865
0.00248172
0.0471546
-0.000615516
-0.000265776
4.11955e-05
0.0003178
0.000816742
0.00145647
0.00182325
0.00153627
0.00143861
0.00161157
0.00185112
0.00190123
0.00192401
0.00200377
0.0020518
0.00192746
0.00156209
0.000964537
0.0454033
-0.000606029
-0.000300977
-2.5076e-05
0.000218905
0.000440635
0.000676491
0.000896587
0.00105991
0.00125569
0.00156171
0.00167454
0.00175673
0.00168521
0.00159433
0.00156045
0.00138112
0.00101791
0.000652069
0.00557705
-0.000588518
-0.000323875
-7.91608e-05
0.000142415
0.000344004
0.000530804
0.000702903
0.000854806
0.000983408
0.00114203
0.0013196
0.00138726
0.0013085
0.00128019
0.00123227
0.00109293
0.000862197
0.000755759
0.000961579
-0.000567597
-0.000339323
-0.000124927
7.2007e-05
0.000251521
0.000415248
0.000562679
0.000690848
0.000797087
0.00088215
0.000948288
0.000997292
0.00103007
0.00104301
0.0010271
0.000974011
0.000911683
0.000997936
0.00133819
-0.000545542
-0.000349799
-0.000164092
7.89009e-06
0.000164639
0.000306013
0.000431276
0.000538802
0.000627521
0.00069855
0.000754482
0.000798557
0.000834732
0.000866915
0.000900147
0.000947422
0.00104772
0.00126797
0.00164162
-0.000523008
-0.000356297
-0.000197254
-4.94287e-05
8.49995e-05
0.000205086
0.000310031
0.000398983
0.000471939
0.00053067
0.000578702
0.000621299
0.000666084
0.000723704
0.000810903
0.000958941
0.00121527
0.00155412
0.00195159
-0.000499834
-0.000359083
-0.000224554
-9.95252e-05
1.36082e-05
0.000113577
0.000199612
0.000271345
0.000329477
0.000376431
0.000416688
0.000457314
0.000509021
0.000587726
0.000719301
0.000950883
0.001342
0.00185739
0.00265896
-0.000475616
-0.000358155
-0.000246021
-0.000142184
-4.90582e-05
3.19804e-05
0.00010021
0.000155535
0.000199047
0.000233581
0.000264194
0.000298946
0.00035012
0.000436027
0.000586315
0.000853972
0.00129939
0.00228675
0.0333788
-0.000449962
-0.000353457
-0.000261701
-0.000177391
-0.000102891
-3.96103e-05
1.1733e-05
5.11215e-05
7.97488e-05
0.000100504
0.000118461
0.000141638
0.000182039
0.000257028
0.000393333
0.000635175
0.00102279
0.00220511
0.053279
-0.000422558
-0.000344939
-0.000271681
-0.000205255
-0.000147976
-0.000101288
-6.59846e-05
-4.21711e-05
-2.88066e-05
-2.32846e-05
-2.10124e-05
-1.48036e-05
5.84678e-06
5.54991e-05
0.000154688
0.000332968
0.00061133
0.00103255
0.0543395
-0.000393176
-0.000332594
-0.000276085
-0.00022595
-0.000184482
-0.000153198
-0.000133043
-0.000124352
-0.00012643
-0.0001372
-0.000152853
-0.000167392
-0.000172137
-0.000155378
-0.000101954
7.2066e-06
0.000189667
0.000430219
0.055511
-0.000361709
-0.000316506
-0.000275116
-0.000239723
-0.000212637
-0.00019549
-0.000189454
-0.000195194
-0.000212501
-0.000239971
-0.000274714
-0.000311962
-0.000344654
-0.000363163
-0.000355488
-0.000307048
-0.000192888
3.59142e-05
0.0503107
-0.000328243
-0.000296916
-0.000269103
-0.00024692
-0.000232731
-0.000228332
-0.000235176
-0.000254336
-0.000286172
-0.000330037
-0.000383986
-0.000444383
-0.000505413
-0.000558653
-0.000593465
-0.000596598
-0.000533401
-0.000295122
0.0459422
-0.000293116
-0.000274275
-0.00025854
-0.000248012
-0.000245146
-0.000251942
-0.000270178
-0.000301386
-0.000346548
-0.00040582
-0.000478196
-0.000561037
-0.000649404
-0.000735395
-0.00080876
-0.000857185
-0.000840584
-0.000603893
0.0470416
-0.000256945
-0.000249255
-0.000244089
-0.000243597
-0.000250359
-0.000266609
-0.000294483
-0.000336
-0.000392807
-0.000465889
-0.000555177
-0.000658895
-0.000772567
-0.000887894
-0.000993117
-0.001073
-0.0010799
-0.000844786
0.0405028
-0.000220599
-0.000222709
-0.000226541
-0.000234361
-0.000248915
-0.000272687
-0.000308183
-0.000357927
-0.000424256
-0.000509047
-0.000613223
-0.000735846
-0.000872548
-0.00101336
-0.00114102
-0.0012266
-0.00119651
-0.000873984
0.00283681
-0.000185137
-0.000195597
-0.000206735
-0.000221018
-0.000241383
-0.000270566
-0.000311427
-0.000366992
-0.000440324
-0.000534298
-0.000651068
-0.000790931
-0.000950098
-0.00111702
-0.00126732
-0.00135188
-0.00125738
-0.000788858
0.00583471
-0.000151711
-0.000168883
-0.000185473
-0.000204235
-0.000228305
-0.000260638
-0.000304396
-0.000363062
-0.00044044
-0.000540552
-0.000667208
-0.00082295
-0.00100641
-0.00120739
-0.00139901
-0.00151883
-0.00142189
-0.000893893
0.0235028
-0.000121462
-0.000143423
-0.000163425
-0.000184567
-0.000210161
-0.000243291
-0.000287304
-0.00034603
-0.000423946
-0.00052629
-0.000658961
-0.000828077
-0.00103736
-0.00128288
-0.00154369
-0.00175514
-0.00175044
-0.0012423
0.0237647
-9.5403e-05
-0.000119848
-0.00014104
-0.000162414
-0.000187358
-0.00021893
-0.000260464
-0.000315914
-0.0003902
-0.00048962
-0.000622348
-0.000798998
-0.00103104
-0.00132701
-0.00168284
-0.00205083
-0.00224469
-0.00180516
0.0234753
-7.42748e-05
-9.83911e-05
-0.000118382
-0.000137873
-0.000160109
-0.000187879
-0.000224215
-0.000272841
-0.000338661
-0.000428478
-0.000552218
-0.00072476
-0.000966534
-0.00130429
-0.00176816
-0.00237197
-0.00292564
-0.00261006
0.0213971
-5.83022e-05
-7.85718e-05
-9.47992e-05
-0.000110384
-0.000128046
-0.000149974
-0.000178533
-0.000216718
-0.000268681
-0.000340601
-0.000442449
-0.000590801
-0.000812258
-0.00115151
-0.00168934
-0.00254014
-0.00376068
-0.00375289
0.020479
-4.67715e-05
-5.92523e-05
-6.95164e-05
-7.96812e-05
-9.14426e-05
-0.000106044
-0.000124823
-0.000149527
-0.000182696
-0.000228375
-0.000293657
-0.000391641
-0.000546472
-0.000806297
-0.00126507
-0.00226374
-0.00437566
-0.00528501
0.0183881
-3.31835e-05
-4.02479e-05
-4.62819e-05
-5.25825e-05
-5.9717e-05
-6.79909e-05
-7.77195e-05
-8.93269e-05
-0.000103478
-0.000121379
-0.000145573
-0.000182046
-0.000245264
-0.000370045
-0.000619421
-0.00136704
-0.00385166
-0.00752081
0.00508202
)
;

boundaryField
{
    leftWall
    {
        type            fixedFluxPressure;
        gradient        uniform 0;
        value           nonuniform List<scalar> 
50
(
763.481
763.387
763.256
763.085
762.876
762.633
762.358
762.05
761.504
744.685
284.702
2.37212
2.45315
2.36325
1.22017
0.0142557
0.00477853
0.00350459
0.00269005
0.00216742
0.00183914
0.00174843
0.00181194
0.00184042
0.00182618
0.00194833
0.00198642
0.00177809
0.00120364
0.000786836
0.000611552
0.00043579
0.000261474
9.64787e-05
-4.96525e-05
-0.000177948
-0.000286693
-0.000365565
-0.000414474
-0.000436657
-0.00043123
-0.000399926
-0.000345593
-0.000256554
-0.000118022
7.88156e-05
0.00034366
0.000588378
0.000950521
0.000829932
)
;
    }
    rightWall
    {
        type            fixedFluxPressure;
        gradient        uniform 0;
        value           nonuniform List<scalar> 
50
(
740.482
739.916
738.552
737.209
736.231
735.588
740.223
743.41
743.294
727.522
244.693
0.745247
1.0992
1.4498
0.796308
0.0273047
0.025921
0.0233064
0.0231191
0.0504426
0.0493422
0.0264728
0.038521
0.0464338
0.0465842
0.0471546
0.0454033
0.00557705
0.000961579
0.00133819
0.00164162
0.00195159
0.00265896
0.0333788
0.053279
0.0543395
0.055511
0.0503107
0.0459422
0.0470416
0.0405028
0.00283681
0.00583471
0.0235028
0.0237647
0.0234753
0.0213971
0.020479
0.0183881
0.00508202
)
;
    }
    lowerWall
    {
        type            fixedFluxPressure;
        gradient        uniform 0;
        value           nonuniform List<scalar> 
62
(
763.481
763.85
764.298
764.817
765.387
765.99
766.611
767.236
767.852
768.441
768.989
769.478
769.892
770.212
770.407
770.438
770.313
769.955
769.828
770.104
770.679
771.291
771.608
771.608
771.837
772.07
772.174
772.286
772.381
772.445
772.503
770.528
770.01
769.143
768.14
764.04
764.128
765.001
765.862
766.126
766.478
766.934
767.525
764.04
763.7
762.89
761.749
760.478
759.157
757.818
756.497
755.251
753.577
750.984
749.413
746.63
746.892
748.593
748.033
745.373
741.946
740.482
)
;
    }
    atmosphere
    {
        type            totalPressure;
        rho             rho;
        psi             none;
        gamma           1;
        p0              uniform 0;
        value           nonuniform List<scalar> 
46
(
-0.00016387
0
0
0
0
0
0
0
0
0
0
0
0
0
0
0
0
0
0
-4.56747e-07
-2.04938e-06
-5.07532e-06
-9.21426e-06
-1.27137e-05
-1.5137e-05
-1.76488e-05
-2.02311e-05
-2.47462e-05
-3.1236e-05
-3.79264e-05
-4.47832e-05
-5.17967e-05
-5.89702e-05
-6.63075e-05
-7.3799e-05
-8.14037e-05
-8.90244e-05
-9.64713e-05
-0.000103403
-0.000109213
-0.000112757
-0.000111679
-0.000100485
-6.70204e-05
-2.12547e-06
0
)
;
    }
    defaultFaces
    {
        type            empty;
    }
}


// ************************************************************************* //
