/*--------------------------------*- C++ -*----------------------------------*\
  =========                 |
  \\      /  F ield         | OpenFOAM: The Open Source CFD Toolbox
   \\    /   O peration     | Website:  https://openfoam.org
    \\  /    A nd           | Version:  9
     \\/     M anipulation  |
\*---------------------------------------------------------------------------*/
FoamFile
{
    format      ascii;
    class       volScalarField;
    location    "4.6";
    object      p;
}
// * * * * * * * * * * * * * * * * * * * * * * * * * * * * * * * * * * * * * //

dimensions      [1 -1 -2 0 0 0 0];

internalField   nonuniform List<scalar> 
2268
(
725.963
726.052
726.343
726.858
727.584
728.512
729.625
730.905
732.328
733.864
735.479
737.131
738.774
740.353
741.8
743.026
744.006
744.631
745.407
746.373
747.407
748.266
748.523
667.092
667.19
667.484
668.004
668.735
669.665
670.778
672.055
673.471
674.997
676.596
678.229
679.85
681.402
682.823
684.035
685.058
685.902
686.919
687.784
688.689
689.433
689.775
608.179
608.289
608.588
609.117
609.854
610.789
611.906
613.183
614.597
616.117
617.707
619.331
620.941
622.484
623.908
625.16
626.318
627.514
628.818
629.413
629.97
630.611
630.995
549.219
549.331
549.636
550.174
550.921
551.865
552.99
554.275
555.695
557.219
558.814
560.442
562.06
563.619
565.082
566.421
567.77
569.616
570.903
571.458
571.687
571.903
572.273
490.209
490.317
490.626
491.175
491.934
492.891
494.029
495.328
496.762
498.303
499.915
501.562
503.205
504.8
506.321
507.764
509.284
511.481
512.905
513.523
513.45
513.276
513.641
431.147
431.247
431.56
432.119
432.893
433.866
435.022
436.341
437.799
439.367
441.009
442.688
444.369
446.01
447.597
449.139
450.758
452.963
454.687
455.326
454.981
454.76
455.085
372.03
372.121
372.441
373.012
373.802
374.794
375.973
377.318
378.808
380.411
382.094
383.817
385.546
387.239
388.891
390.514
392.186
394.211
395.994
396.691
396.401
396.28
396.617
312.857
312.949
313.278
313.863
314.671
315.685
316.889
318.264
319.791
321.441
323.173
324.95
326.733
328.48
330.189
331.873
333.578
335.455
337.059
337.825
337.8
337.769
338.188
739.233
739.647
739.141
737.864
736.107
734.052
731.798
729.42
726.858
724.049
720.885
718.45
715.482
715.012
715.507
714.636
712.855
711.545
712.77
680.905
680.878
680.281
679.094
677.438
675.461
673.261
670.829
668.071
665.177
662.188
660.16
658.643
657.53
656.39
655.127
653.388
652.321
654.375
622.373
622.106
621.379
620.194
618.589
616.671
614.52
612.084
609.371
606.623
603.992
602.672
601.726
599.676
597.476
595.961
594.291
593.026
594.746
563.608
563.383
562.619
561.399
559.791
557.882
555.74
553.372
550.848
548.435
546.881
545.722
544.433
541.373
538.873
537.152
535.478
533.849
535.719
504.826
504.664
503.945
502.694
501.05
499.124
497.012
494.775
492.398
490.316
489.737
488.522
487.024
483.037
480.435
478.598
476.913
474.95
477.671
446.106
445.99
445.342
444.066
442.361
440.393
438.294
436.114
433.87
431.972
431.66
430.759
428.725
424.555
422.056
420.258
418.871
416.477
420.181
387.381
387.503
386.853
385.521
383.724
381.679
379.547
377.38
375.216
373.384
372.819
371.954
369.572
365.921
363.681
362.119
361.676
359.137
363.082
328.812
329.467
328.56
327.086
325.127
322.953
320.752
318.543
316.466
314.794
313.872
312.641
310.354
307.228
305.292
304.132
304.461
303.019
305.877
220.296
220.368
220.7
221.301
222.138
223.187
224.434
225.864
227.465
229.205
231.041
232.918
234.802
236.631
238.414
240.171
241.909
243.621
245.046
245.886
246.137
246.145
246.113
96.5143
96.5336
96.8396
97.4058
98.1661
99.1108
100.243
101.539
103.011
104.633
106.367
108.201
110.122
112.097
114.06
116.003
117.88
119.57
120.921
121.789
122.129
122.094
121.768
17.8196
17.7885
17.8986
18.1538
18.5406
19.031
19.6055
20.2283
20.8916
21.6015
22.3736
23.2419
24.1757
25.2193
26.3047
27.3702
28.3574
29.25
29.9665
30.3961
30.5354
30.4558
30.1951
-0.224945
-0.233088
-0.237201
-0.221131
-0.131975
-0.0169834
0.103328
0.247728
0.285228
0.300884
0.309126
0.306415
0.275417
0.2299
0.184729
0.117266
-0.0917304
-0.203843
-0.269774
-0.344415
-0.34875
-0.374022
-0.485877
-0.595823
-0.596433
-0.598392
-0.592849
-0.5697
-0.533095
-0.480308
-0.429655
-0.392414
-0.369551
-0.351878
-0.339304
-0.337006
-0.339726
-0.351942
-0.381652
-0.440637
-0.482456
-0.518777
-0.563888
-0.594351
-0.625413
-0.676674
-0.943484
-0.944551
-0.94513
-0.946116
-0.956179
-0.969256
-0.97908
-1.0145
-1.0193
-1.01353
-1.00691
-1.00316
-1.00489
-1.00777
-1.01251
-1.00892
-0.957247
-0.950464
-0.957081
-0.981264
-1.0076
-1.01067
-0.998508
-1.22165
-1.2244
-1.22444
-1.22668
-1.23498
-1.24665
-1.25902
-1.26398
-1.27126
-1.27883
-1.28396
-1.28807
-1.28889
-1.28882
-1.28593
-1.28256
-1.2746
-1.26331
-1.25115
-1.23707
-1.2291
-1.2227
-1.19564
-1.3967
-1.39621
-1.39501
-1.39577
-1.39662
-1.39681
-1.39771
-1.39962
-1.40162
-1.40486
-1.40796
-1.41035
-1.41168
-1.41237
-1.4122
-1.41224
-1.41394
-1.40852
-1.40064
-1.39265
-1.3851
-1.38124
-1.37238
-1.52327
-1.52281
-1.52234
-1.52261
-1.52336
-1.52426
-1.52536
-1.52642
-1.52804
-1.53039
-1.53279
-1.53488
-1.53635
-1.53747
-1.53824
-1.53939
-1.54158
-1.54453
-1.54522
-1.54106
-1.53637
-1.53594
-1.53823
-1.64968
-1.64936
-1.64931
-1.64965
-1.65026
-1.65098
-1.65185
-1.65287
-1.65424
-1.65606
-1.65803
-1.65992
-1.66149
-1.66275
-1.66382
-1.66528
-1.66758
-1.67088
-1.67402
-1.67502
-1.67382
-1.67491
-1.67773
-1.77609
-1.77595
-1.77606
-1.77643
-1.77696
-1.7776
-1.77837
-1.77929
-1.78045
-1.78192
-1.78356
-1.78519
-1.78663
-1.78787
-1.78905
-1.7905
-1.79242
-1.79472
-1.79674
-1.7978
-1.79822
-1.79862
-1.79923
-1.90241
-1.90242
-1.90262
-1.90298
-1.90346
-1.90405
-1.90475
-1.9056
-1.90664
-1.90788
-1.90922
-1.91052
-1.91176
-1.91294
-1.91413
-1.91545
-1.917
-1.91869
-1.92013
-1.92106
-1.92152
-1.92185
-1.92208
-2.0286
-2.02874
-2.02899
-2.02934
-2.02979
-2.03033
-2.03097
-2.03176
-2.03269
-2.03372
-2.0348
-2.03588
-2.03697
-2.03805
-2.03916
-2.04034
-2.04162
-2.04296
-2.04418
-2.04503
-2.04548
-2.04568
-2.04566
-2.15466
-2.1549
-2.15519
-2.15554
-2.15596
-2.15645
-2.15703
-2.15773
-2.15853
-2.15939
-2.16029
-2.16123
-2.16219
-2.16316
-2.16416
-2.16519
-2.16628
-2.16739
-2.16848
-2.16928
-2.16971
-2.16984
-2.16962
-2.2806
-2.28092
-2.28125
-2.2816
-2.28199
-2.28244
-2.28296
-2.28356
-2.28424
-2.28498
-2.28576
-2.28657
-2.28741
-2.28827
-2.28915
-2.29005
-2.29096
-2.29187
-2.29273
-2.29345
-2.29387
-2.29392
-2.29368
-2.40646
-2.40684
-2.40719
-2.40754
-2.4079
-2.40831
-2.40877
-2.4093
-2.40988
-2.41052
-2.41119
-2.4119
-2.41263
-2.41338
-2.41414
-2.41491
-2.41567
-2.41641
-2.41708
-2.41762
-2.41794
-2.41802
-2.41787
-2.53223
-2.53265
-2.53303
-2.53337
-2.53371
-2.53408
-2.53449
-2.53495
-2.53546
-2.53601
-2.53659
-2.5372
-2.53784
-2.53848
-2.53914
-2.53979
-2.54043
-2.54103
-2.54156
-2.54197
-2.54223
-2.5423
-2.54221
-2.65794
-2.65839
-2.65877
-2.65911
-2.65943
-2.65976
-2.66013
-2.66053
-2.66097
-2.66144
-2.66195
-2.66248
-2.66303
-2.66359
-2.66415
-2.6647
-2.66523
-2.66572
-2.66614
-2.66647
-2.66667
-2.66674
-2.66668
-2.7836
-2.78406
-2.78445
-2.78477
-2.78507
-2.78538
-2.7857
-2.78605
-2.78643
-2.78684
-2.78728
-2.78774
-2.78821
-2.78869
-2.78916
-2.78963
-2.79007
-2.79047
-2.79081
-2.79107
-2.79124
-2.7913
-2.79125
-2.90922
-2.90967
-2.91006
-2.91037
-2.91065
-2.91092
-2.91121
-2.91152
-2.91185
-2.9122
-2.91258
-2.91297
-2.91338
-2.91379
-2.91419
-2.91458
-2.91495
-2.91528
-2.91555
-2.91576
-2.9159
-2.91594
-2.9159
-3.03481
-3.03525
-3.03562
-3.03591
-3.03617
-3.03641
-3.03667
-3.03694
-3.03722
-3.03753
-3.03785
-3.03819
-3.03854
-3.03888
-3.03922
-3.03955
-3.03986
-3.04013
-3.04035
-3.04052
-3.04062
-3.04066
-3.04063
-3.16035
-3.16078
-3.16112
-3.1614
-3.16163
-3.16185
-3.16207
-3.16231
-3.16256
-3.16282
-3.1631
-3.16339
-3.16368
-3.16397
-3.16426
-3.16454
-3.16479
-3.16501
-3.16519
-3.16533
-3.16542
-3.16545
-3.16542
-3.28587
-3.28626
-3.28658
-3.28683
-3.28704
-3.28724
-3.28743
-3.28764
-3.28785
-3.28808
-3.28832
-3.28856
-3.28881
-3.28906
-3.2893
-3.28953
-3.28974
-3.28993
-3.29008
-3.29019
-3.29026
-3.29029
-3.29026
-3.41136
-3.41171
-3.412
-3.41222
-3.41241
-3.41259
-3.41276
-3.41294
-3.41312
-3.41332
-3.41352
-3.41373
-3.41394
-3.41415
-3.41436
-3.41455
-3.41473
-3.41488
-3.41501
-3.4151
-3.41516
-3.41518
-3.41516
-3.53683
-3.53713
-3.53738
-3.53758
-3.53774
-3.5379
-3.53805
-3.5382
-3.53837
-3.53854
-3.53871
-3.53889
-3.53907
-3.53925
-3.53942
-3.53958
-3.53973
-3.53986
-3.53997
-3.54004
-3.54009
-3.54011
-3.54009
-3.66228
-3.66253
-3.66273
-3.66289
-3.66303
-3.66317
-3.66331
-3.66344
-3.66359
-3.66373
-3.66388
-3.66404
-3.66419
-3.66434
-3.66449
-3.66463
-3.66475
-3.66486
-3.66495
-3.66502
-3.66506
-3.66507
-3.66506
-3.78771
-3.7879
-3.78804
-3.78817
-3.78829
-3.78841
-3.78853
-3.78865
-3.78878
-3.78891
-3.78904
-3.78917
-3.7893
-3.78943
-3.78956
-3.78968
-3.78978
-3.78988
-3.78995
-3.79001
-3.79005
-3.79006
-3.79005
-3.91311
-3.91324
-3.91332
-3.91341
-3.91352
-3.91363
-3.91373
-3.91384
-3.91395
-3.91406
-3.91418
-3.91429
-3.91441
-3.91452
-3.91463
-3.91473
-3.91483
-3.91491
-3.91498
-3.91503
-3.91506
-3.91508
-3.91508
-4.03849
-4.03857
-4.0386
-4.03865
-4.03874
-4.03883
-4.03892
-4.03901
-4.0391
-4.0392
-4.0393
-4.0394
-4.03951
-4.03961
-4.0397
-4.03979
-4.03988
-4.03995
-4.04001
-4.04006
-4.0401
-4.04012
-4.04012
-4.16384
-4.16387
-4.16387
-4.1639
-4.16395
-4.16402
-4.16409
-4.16417
-4.16425
-4.16433
-4.16442
-4.16451
-4.1646
-4.16469
-4.16478
-4.16486
-4.16493
-4.165
-4.16506
-4.16511
-4.16515
-4.16517
-4.16518
-4.28916
-4.28914
-4.28911
-4.28912
-4.28915
-4.28919
-4.28925
-4.28931
-4.28938
-4.28946
-4.28954
-4.28962
-4.2897
-4.28978
-4.28986
-4.28993
-4.29
-4.29006
-4.29012
-4.29017
-4.29021
-4.29023
-4.29025
-4.41445
-4.41436
-4.41431
-4.41431
-4.41432
-4.41434
-4.41439
-4.41445
-4.41451
-4.41458
-4.41465
-4.41472
-4.4148
-4.41487
-4.41494
-4.415
-4.41507
-4.41513
-4.41518
-4.41523
-4.41527
-4.4153
-4.41533
-4.5397
-4.53956
-4.53948
-4.53945
-4.53946
-4.53948
-4.53952
-4.53957
-4.53963
-4.5397
-4.53976
-4.53983
-4.53989
-4.53996
-4.54002
-4.54008
-4.54014
-4.5402
-4.54025
-4.5403
-4.54034
-4.54038
-4.5404
-4.66492
-4.66473
-4.66461
-4.66458
-4.66458
-4.66461
-4.66465
-4.6647
-4.66475
-4.66481
-4.66487
-4.66493
-4.66499
-4.66505
-4.6651
-4.66515
-4.66521
-4.66526
-4.66531
-4.66537
-4.66541
-4.66545
-4.66548
-4.79011
-4.78988
-4.78974
-4.7897
-4.78971
-4.78973
-4.78977
-4.78982
-4.78987
-4.78993
-4.78998
-4.79004
-4.79009
-4.79013
-4.79018
-4.79023
-4.79028
-4.79033
-4.79038
-4.79043
-4.79048
-4.79053
-4.79056
-4.91525
-4.915
-4.91486
-4.91483
-4.91484
-4.91487
-4.91491
-4.91495
-4.915
-4.91505
-4.9151
-4.91514
-4.91518
-4.91522
-4.91526
-4.9153
-4.91534
-4.91539
-4.91545
-4.91551
-4.91556
-4.91561
-4.91565
-5.04034
-5.04009
-5.03998
-5.03996
-5.03998
-5.04002
-5.04006
-5.0401
-5.04015
-5.04019
-5.04023
-5.04026
-5.04029
-5.04031
-5.04034
-5.04037
-5.0404
-5.04045
-5.04051
-5.04058
-5.04065
-5.04071
-5.04076
-5.16537
-5.16516
-5.1651
-5.16512
-5.16516
-5.16519
-5.16523
-5.16527
-5.16531
-5.16534
-5.16537
-5.16539
-5.1654
-5.16541
-5.16542
-5.16544
-5.16546
-5.1655
-5.16557
-5.16566
-5.16575
-5.16582
-5.16587
-5.29034
-5.29021
-5.29027
-5.29033
-5.29036
-5.2904
-5.29043
-5.29046
-5.29049
-5.29051
-5.29053
-5.29053
-5.29053
-5.29053
-5.29052
-5.29051
-5.29052
-5.29054
-5.29063
-5.29076
-5.29087
-5.29094
-5.291
-5.41535
-5.41536
-5.41552
-5.41559
-5.41562
-5.41565
-5.41567
-5.41569
-5.4157
-5.4157
-5.4157
-5.41569
-5.41567
-5.41564
-5.41561
-5.41558
-5.41556
-5.41555
-5.41567
-5.41587
-5.41601
-5.4161
-5.41615
-5.54025
-5.54059
-5.54083
-5.5409
-5.54091
-5.54091
-5.54091
-5.54089
-5.54087
-5.54085
-5.54082
-5.54078
-5.54074
-5.54068
-5.54062
-5.54055
-5.54047
-5.5404
-5.54057
-5.54099
-5.5412
-5.54128
-5.54132
-5.66567
-5.66665
-5.66643
-5.66635
-5.66629
-5.66623
-5.66618
-5.66613
-5.66608
-5.66603
-5.66598
-5.66592
-5.66586
-5.66578
-5.66569
-5.66556
-5.66531
-5.66488
-5.66513
-5.66605
-5.66635
-5.66644
-5.66648
246.175
245.803
245.212
244.338
121.339
120.981
120.506
119.692
29.9392
29.727
29.4513
29.0412
-0.462183
-0.435688
-0.436424
-0.459807
-0.658905
-0.644267
-0.656393
-0.678419
-0.987085
-0.970939
-0.972832
-0.964997
-1.19962
-1.20586
-1.20331
-1.20107
-1.37815
-1.38732
-1.39274
-1.39141
-1.54489
-1.54604
-1.54471
-1.54276
-1.67677
-1.67485
-1.67293
-1.67137
-1.79856
-1.7978
-1.79678
-1.79581
-1.92157
-1.92108
-1.92048
-1.91984
-2.04521
-2.04485
-2.04444
-2.04398
-2.16921
-2.16892
-2.1686
-2.16825
-2.29337
-2.29314
-2.29289
-2.29261
-2.41765
-2.41747
-2.41728
-2.41706
-2.54205
-2.54191
-2.54175
-2.54158
-2.66655
-2.66644
-2.66631
-2.66617
-2.79114
-2.79105
-2.79095
-2.79083
-2.91581
-2.91573
-2.91565
-2.91555
-3.04055
-3.04049
-3.04041
-3.04033
-3.16535
-3.1653
-3.16524
-3.16517
-3.29021
-3.29017
-3.29011
-3.29006
-3.41511
-3.41508
-3.41503
-3.41498
-3.54005
-3.54002
-3.53999
-3.53995
-3.66503
-3.665
-3.66497
-3.66494
-3.79003
-3.79001
-3.78999
-3.78996
-3.91506
-3.91505
-3.91503
-3.91501
-4.04011
-4.0401
-4.04009
-4.04007
-4.16518
-4.16517
-4.16516
-4.16515
-4.29026
-4.29025
-4.29025
-4.29024
-4.41533
-4.41533
-4.41533
-4.41532
-4.54041
-4.54042
-4.54041
-4.54041
-4.66549
-4.6655
-4.6655
-4.6655
-4.79058
-4.79059
-4.79059
-4.7906
-4.91567
-4.91569
-4.91569
-4.9157
-5.04078
-5.04079
-5.04081
-5.04082
-5.1659
-5.16591
-5.16593
-5.16594
-5.29103
-5.29105
-5.29106
-5.29107
-5.41618
-5.41619
-5.4162
-5.41621
-5.54134
-5.54135
-5.54136
-5.54136
-5.66649
-5.6665
-5.6665
-5.6665
240.278
239.368
237.699
235.922
234.072
232.038
229.812
227.406
225.113
223.214
221.752
220.108
217.924
215.426
213.865
213.516
214.622
215.09
215.596
117.566
116.368
115.034
113.646
112.325
110.875
109.165
107.218
104.972
102.601
100.423
98.4759
96.705
95.1259
93.9814
93.3031
93.3525
93.2858
92.4133
28.0875
27.4227
26.9405
26.4831
26.0781
25.6557
25.1482
24.4021
23.3408
22.0094
20.6734
19.5929
18.8793
18.4937
18.1236
17.3773
16.4772
15.9495
15.2023
-0.496057
-0.484864
-0.499848
-0.522463
-0.461819
-0.371691
-0.398959
-0.428915
-0.435137
-0.424539
-0.405556
-0.38473
-0.374385
-0.358281
-0.31008
-0.386477
-0.494152
-0.539691
-0.512594
-0.700965
-0.700763
-0.701353
-0.705327
-0.675345
-0.638062
-0.636951
-0.641407
-0.64727
-0.653794
-0.659602
-0.665529
-0.669754
-0.671112
-0.674805
-0.693828
-0.711058
-0.723144
-0.718198
-0.945671
-0.934039
-0.934256
-0.936542
-0.943968
-0.962612
-0.970078
-0.970591
-0.971627
-0.970546
-0.969732
-0.971714
-0.973168
-0.971894
-0.974194
-0.963844
-0.961927
-0.968649
-0.95992
-1.19049
-1.1858
-1.18701
-1.18568
-1.2122
-1.2365
-1.24338
-1.24356
-1.24232
-1.24009
-1.23762
-1.23519
-1.23357
-1.23329
-1.23296
-1.22194
-1.21597
-1.21314
-1.20724
-1.3964
-1.39966
-1.40059
-1.40012
-1.40549
-1.40304
-1.39899
-1.39573
-1.39127
-1.38635
-1.38251
-1.38
-1.37889
-1.37887
-1.37969
-1.38121
-1.38298
-1.38179
-1.38252
-1.54407
-1.54699
-1.54597
-1.54332
-1.53747
-1.53121
-1.52637
-1.52225
-1.51749
-1.51303
-1.51042
-1.50858
-1.50776
-1.50781
-1.50836
-1.51067
-1.51019
-1.50979
-1.5109
-1.6698
-1.66986
-1.66846
-1.66566
-1.66138
-1.65668
-1.65278
-1.64908
-1.64502
-1.64266
-1.64154
-1.6401
-1.63801
-1.63611
-1.63572
-1.63659
-1.63675
-1.6369
-1.63763
-1.79443
-1.79356
-1.7919
-1.78919
-1.78571
-1.78226
-1.77948
-1.77678
-1.7747
-1.77423
-1.77348
-1.77084
-1.76732
-1.76479
-1.76391
-1.76386
-1.76366
-1.76385
-1.76452
-1.91876
-1.91767
-1.91608
-1.91374
-1.91124
-1.90881
-1.90677
-1.90572
-1.90546
-1.90496
-1.90255
-1.89894
-1.89637
-1.89481
-1.89413
-1.89344
-1.89253
-1.89198
-1.89196
-2.04314
-2.04213
-2.04093
-2.03946
-2.03777
-2.03607
-2.0346
-2.03422
-2.03415
-2.03261
-2.03
-2.02786
-2.02642
-2.02538
-2.02427
-2.02305
-2.02178
-2.02063
-2.0201
-2.1676
-2.16678
-2.16599
-2.16536
-2.16426
-2.16292
-2.16156
-2.16054
-2.15982
-2.15842
-2.15692
-2.15619
-2.1552
-2.15375
-2.15184
-2.15022
-2.14903
-2.14827
-2.14814
-2.29211
-2.29144
-2.29083
-2.29043
-2.28976
-2.2885
-2.28704
-2.28595
-2.28508
-2.28397
-2.28292
-2.28238
-2.28159
-2.27993
-2.27832
-2.27712
-2.27641
-2.27623
-2.27624
-2.41666
-2.4161
-2.41554
-2.41502
-2.41434
-2.41334
-2.41222
-2.41126
-2.4104
-2.40948
-2.40861
-2.40792
-2.40709
-2.40594
-2.40485
-2.40413
-2.40396
-2.40455
-2.40432
-2.54125
-2.54077
-2.54026
-2.53972
-2.53907
-2.53825
-2.53735
-2.53652
-2.53574
-2.53495
-2.53419
-2.53352
-2.53281
-2.53199
-2.53131
-2.53097
-2.53114
-2.53214
-2.53195
-2.6659
-2.66548
-2.66502
-2.66452
-2.66393
-2.66323
-2.66249
-2.66177
-2.66108
-2.66039
-2.65974
-2.65915
-2.65856
-2.65799
-2.65757
-2.65747
-2.65779
-2.65863
-2.65888
-2.7906
-2.79024
-2.78984
-2.78939
-2.78887
-2.78828
-2.78765
-2.78702
-2.78641
-2.78583
-2.78527
-2.78476
-2.78428
-2.78387
-2.78361
-2.7836
-2.78392
-2.78445
-2.78468
-2.91536
-2.91505
-2.9147
-2.9143
-2.91384
-2.91334
-2.91281
-2.91227
-2.91175
-2.91124
-2.91077
-2.91033
-2.90995
-2.90963
-2.90943
-2.90943
-2.90963
-2.90987
-2.90984
-3.04018
-3.03991
-3.0396
-3.03925
-3.03885
-3.03843
-3.03798
-3.03752
-3.03707
-3.03664
-3.03624
-3.03587
-3.03555
-3.03528
-3.03511
-3.03505
-3.03512
-3.03517
-3.03505
-3.16504
-3.16481
-3.16454
-3.16424
-3.1639
-3.16353
-3.16315
-3.16277
-3.16239
-3.16202
-3.16168
-3.16137
-3.16109
-3.16085
-3.16067
-3.16055
-3.16047
-3.16039
-3.16024
-3.28995
-3.28975
-3.28952
-3.28926
-3.28897
-3.28866
-3.28834
-3.28802
-3.2877
-3.28739
-3.2871
-3.28683
-3.28658
-3.28636
-3.28616
-3.28597
-3.28575
-3.28554
-3.28537
-3.41489
-3.41473
-3.41454
-3.41431
-3.41407
-3.41381
-3.41354
-3.41327
-3.413
-3.41274
-3.4125
-3.41227
-3.41205
-3.41184
-3.41162
-3.41137
-3.41102
-3.41069
-3.41035
-3.53987
-3.53974
-3.53957
-3.53939
-3.53918
-3.53897
-3.53874
-3.53852
-3.5383
-3.53808
-3.53788
-3.53769
-3.5375
-3.53731
-3.5371
-3.53684
-3.53642
-3.53607
-3.53559
-3.66488
-3.66477
-3.66464
-3.66448
-3.66431
-3.66414
-3.66395
-3.66377
-3.66359
-3.66341
-3.66325
-3.6631
-3.66294
-3.66279
-3.66261
-3.66238
-3.66204
-3.66181
-3.66138
-3.78991
-3.78983
-3.78972
-3.78959
-3.78945
-3.78931
-3.78916
-3.78901
-3.78887
-3.78874
-3.78861
-3.78849
-3.78838
-3.78827
-3.78814
-3.78798
-3.78777
-3.78765
-3.78732
-3.91497
-3.9149
-3.91481
-3.91471
-3.9146
-3.91449
-3.91437
-3.91425
-3.91415
-3.91405
-3.91396
-3.91388
-3.9138
-3.91374
-3.91366
-3.91358
-3.91348
-3.91339
-3.91311
-4.04004
-4.03999
-4.03992
-4.03984
-4.03975
-4.03966
-4.03957
-4.03949
-4.03941
-4.03934
-4.03929
-4.03924
-4.03921
-4.03919
-4.03917
-4.03915
-4.03912
-4.03904
-4.0388
-4.16513
-4.16509
-4.16503
-4.16497
-4.16491
-4.16484
-4.16477
-4.16472
-4.16467
-4.16463
-4.1646
-4.16459
-4.1646
-4.16461
-4.16463
-4.16466
-4.16467
-4.16456
-4.16426
-4.29022
-4.29019
-4.29015
-4.29011
-4.29006
-4.29001
-4.28997
-4.28993
-4.28991
-4.28989
-4.2899
-4.28992
-4.28995
-4.29
-4.29006
-4.29012
-4.29015
-4.29001
-4.28957
-4.41531
-4.41529
-4.41527
-4.41524
-4.41521
-4.41518
-4.41515
-4.41514
-4.41513
-4.41514
-4.41517
-4.41522
-4.41528
-4.41536
-4.41544
-4.41552
-4.41557
-4.41542
-4.41501
-4.54041
-4.5404
-4.54039
-4.54037
-4.54035
-4.54034
-4.54033
-4.54033
-4.54035
-4.54038
-4.54043
-4.5405
-4.54058
-4.54068
-4.54078
-4.54087
-4.54089
-4.54068
-4.54027
-4.66551
-4.66551
-4.6655
-4.6655
-4.66549
-4.66549
-4.66549
-4.66551
-4.66554
-4.66559
-4.66566
-4.66575
-4.66586
-4.66598
-4.66609
-4.66615
-4.6661
-4.66575
-4.66511
-4.79061
-4.79062
-4.79062
-4.79063
-4.79063
-4.79064
-4.79065
-4.79068
-4.79073
-4.79079
-4.79088
-4.79099
-4.79112
-4.79126
-4.79138
-4.79144
-4.79133
-4.79087
-4.79006
-4.91572
-4.91573
-4.91574
-4.91575
-4.91576
-4.91578
-4.9158
-4.91584
-4.91589
-4.91597
-4.91607
-4.9162
-4.91635
-4.91653
-4.91669
-4.91679
-4.91668
-4.91619
-4.91532
-5.04084
-5.04085
-5.04087
-5.04088
-5.0409
-5.04092
-5.04095
-5.04099
-5.04105
-5.04113
-5.04124
-5.04138
-5.04157
-5.04179
-5.04202
-5.04221
-5.0422
-5.04172
-5.04082
-5.16596
-5.16598
-5.166
-5.16601
-5.16603
-5.16605
-5.16608
-5.16612
-5.16618
-5.16627
-5.16638
-5.16654
-5.16675
-5.16701
-5.16734
-5.16768
-5.16785
-5.16743
-5.16648
-5.29109
-5.29111
-5.29113
-5.29114
-5.29116
-5.29118
-5.29121
-5.29125
-5.2913
-5.29138
-5.29149
-5.29164
-5.29187
-5.29218
-5.29261
-5.29317
-5.29367
-5.29334
-5.2924
-5.41623
-5.41625
-5.41626
-5.41627
-5.41628
-5.4163
-5.41632
-5.41635
-5.4164
-5.41646
-5.41655
-5.41669
-5.4169
-5.41721
-5.41772
-5.41857
-5.41965
-5.41957
-5.41888
-5.54137
-5.54138
-5.54139
-5.5414
-5.54141
-5.54142
-5.54143
-5.54145
-5.54148
-5.54152
-5.54158
-5.54167
-5.54181
-5.54206
-5.54252
-5.54356
-5.54552
-5.54621
-5.54645
-5.66651
-5.66651
-5.66652
-5.66652
-5.66653
-5.66653
-5.66654
-5.66655
-5.66656
-5.66658
-5.6666
-5.66663
-5.66669
-5.66681
-5.66708
-5.66786
-5.67014
-5.67325
-5.67571
)
;

boundaryField
{
    leftWall
    {
        type            calculated;
        value           nonuniform List<scalar> 
50
(
725.963
667.092
608.179
549.219
490.209
431.147
372.03
312.857
220.296
96.5143
17.8196
-0.224945
-0.595823
-0.943484
-1.22165
-1.3967
-1.52327
-1.64968
-1.77609
-1.90241
-2.0286
-2.15466
-2.2806
-2.40646
-2.53223
-2.65794
-2.7836
-2.90922
-3.03481
-3.16035
-3.28587
-3.41136
-3.53683
-3.66228
-3.78771
-3.91311
-4.03849
-4.16384
-4.28916
-4.41445
-4.5397
-4.66492
-4.79011
-4.91525
-5.04034
-5.16537
-5.29034
-5.41535
-5.54025
-5.66567
)
;
    }
    rightWall
    {
        type            calculated;
        value           nonuniform List<scalar> 
50
(
712.77
654.375
594.746
535.719
477.671
420.181
363.082
305.877
215.596
92.4133
15.2023
-0.512594
-0.718198
-0.95992
-1.20724
-1.38252
-1.5109
-1.63763
-1.76452
-1.89196
-2.0201
-2.14814
-2.27624
-2.40432
-2.53195
-2.65888
-2.78468
-2.90984
-3.03505
-3.16024
-3.28537
-3.41035
-3.53559
-3.66138
-3.78732
-3.91311
-4.0388
-4.16426
-4.28957
-4.41501
-4.54027
-4.66511
-4.79006
-4.91532
-5.04082
-5.16648
-5.2924
-5.41888
-5.54645
-5.67571
)
;
    }
    lowerWall
    {
        type            calculated;
        value           nonuniform List<scalar> 
62
(
755.393
755.482
755.772
756.287
757.013
757.941
759.054
760.335
761.758
763.293
764.908
766.56
768.203
769.782
771.23
772.456
773.435
774.053
774.828
775.736
776.714
777.572
777.829
748.523
689.775
630.995
572.273
513.641
455.085
396.617
338.188
308.772
308.399
307.808
306.933
739.233
680.905
622.373
563.608
504.826
446.106
387.381
328.812
768.362
768.807
768.335
767.03
765.262
763.207
760.952
758.578
756.22
753.441
750.268
747.824
744.066
743.514
744.611
744.002
742.24
740.798
741.694
)
;
    }
    atmosphere
    {
        type            calculated;
        value           nonuniform List<scalar> 
46
(
-5.72918
-5.72904
-5.72904
-5.72904
-5.72904
-5.72904
-5.72904
-5.72904
-5.72904
-5.72904
-5.72904
-5.72904
-5.72904
-5.72904
-5.72904
-5.72904
-5.72904
-5.72904
-5.72904
-5.72904
-5.72904
-5.72905
-5.72905
-5.72906
-5.72906
-5.72906
-5.72906
-5.72907
-5.72907
-5.72908
-5.72909
-5.72909
-5.7291
-5.72911
-5.72911
-5.72912
-5.72913
-5.72913
-5.72914
-5.72914
-5.72914
-5.72914
-5.72913
-5.72909
-5.72904
-5.74319
)
;
    }
    defaultFaces
    {
        type            empty;
    }
}


// ************************************************************************* //
