/*--------------------------------*- C++ -*----------------------------------*\
  =========                 |
  \\      /  F ield         | OpenFOAM: The Open Source CFD Toolbox
   \\    /   O peration     | Website:  https://openfoam.org
    \\  /    A nd           | Version:  9
     \\/     M anipulation  |
\*---------------------------------------------------------------------------*/
FoamFile
{
    format      ascii;
    class       volScalarField;
    location    "6.05";
    object      alpha.water;
}
// * * * * * * * * * * * * * * * * * * * * * * * * * * * * * * * * * * * * * //

dimensions      [0 0 0 0 0 0 0];

internalField   nonuniform List<scalar> 
2268
(
1
1
0.999999
0.999999
1
0.999999
1
0.999999
0.999998
0.999999
1
1
1
1
1
1
1
1
0.998972
0.996644
0.996644
0.998209
0.998352
0.999999
0.999999
0.999998
0.999998
1
0.999999
0.999998
0.999998
0.999998
0.999999
1
1
1
1
1
0.999997
0.999986
0.999997
0.9997
0.998198
0.999637
0.999993
0.999993
0.999998
0.999998
0.999998
0.999998
1
1
1
0.999999
0.999999
1
1
1
1
1
1
0.999987
0.999892
0.999997
0.999997
0.999993
0.999993
0.999993
0.999985
1
0.999998
1
0.999999
1
1
1
1
1
1
1
1
1
1
1
1
0.998909
0.996889
0.999557
0.999994
0.999994
0.999892
0.99997
1
1
1
1
1
1
1
1
1
1
1
1
1
1
1
1
0.998493
0.981289
0.981288
0.986908
0.986613
0.999275
0.999992
1
1
1
1
1
1
1
1
1
1
1
1
1
1
1
1
0.999877
0.982652
0.9802
0.9802
0.982797
0.999361
1
1
1
1
1
1
1
1
1
1
1
1
1
1
1
1
1
1
0.995224
0.9802
0.9802
0.993381
0.999996
1
1
1
1
0.999999
0.999999
0.999999
0.999999
0.999999
0.999999
0.999999
0.999999
1
1
1
1
1
1
0.999854
0.9899
0.988447
0.999072
1
1
0.991332
0.994501
0.996737
0.996322
0.994474
0.991573
0.991571
0.991571
0.991604
0.991607
0.993984
0.999288
0.995347
0.993875
0.998603
0.998603
0.998603
0.998434
0.997365
0.991332
0.999965
0.999965
0.999965
0.999965
0.999965
0.999325
0.999229
0.999759
0.99959
0.999189
0.999342
0.996995
0.9934
0.998487
0.998603
0.998603
0.998603
0.997505
0.991332
0.999085
0.999965
0.999965
0.999962
0.999942
0.999942
0.999942
0.99976
0.999393
0.999393
0.999391
0.99939
0.993945
0.997207
0.998603
0.998603
0.998603
0.994501
0.998377
0.999917
0.99993
0.99993
0.999974
0.999969
0.999788
0.99917
0.998562
0.99728
0.999391
0.99939
0.99939
0.970347
0.998242
0.998603
0.998603
0.998554
0.9945
0.999944
0.999984
0.999976
0.999976
0.999976
0.999844
0.999089
0.999089
0.99978
0.992751
0.97642
0.986593
0.968998
0.96269
0.997773
0.997654
0.99188
0.996364
0.9945
0.999989
0.999993
0.999994
0.999986
0.999952
0.999914
0.999665
0.999618
0.999913
0.98741
0.960005
0.959928
0.959928
0.971303
0.998159
0.996272
0.980759
0.995954
0.995406
0.999993
0.999995
0.999995
0.999964
0.999912
0.999926
0.999975
0.999975
0.999913
0.994785
0.961098
0.959927
0.959928
0.992124
0.998513
0.996669
0.980463
0.998449
0.99845
0.999997
0.999997
0.999995
0.999995
0.999994
0.99999
0.999971
0.999352
0.998609
0.99788
0.982907
0.959927
0.968009
0.998256
0.998514
0.997312
0.979563
0.996275
0.99845
1
1
1
1
1
1
1
1
1
1
1
0.999999
1
1
1
1
1
0.999999
0.999999
0.999997
0.999998
0.999999
1
0.94931
0.948105
0.949061
0.951324
0.955722
0.960486
0.965056
0.970036
0.975902
0.980641
0.983976
0.986811
0.990826
0.995461
0.999218
0.999238
0.999396
0.999554
0.999623
0.999568
0.999308
0.998949
0.998793
0.255097
0.256847
0.26037
0.26468
0.269042
0.275472
0.283972
0.293983
0.305438
0.319541
0.33596
0.353474
0.370694
0.387455
0.405028
0.424943
0.445512
0.467046
0.484661
0.492905
0.493713
0.492122
0.49114
0.00136905
0.00119103
0.000889623
0.000910275
0.001194
0.00142441
0.00160888
0.00175505
0.00185989
0.0017892
0.0017107
0.00167875
0.00167875
0.0016787
0.00176714
0.00194017
0.0021702
0.00137508
0.00108304
0.00120545
0.00178286
0.0019492
0.00102278
0.00137114
0.00136077
0.0008259
0.000874359
0.00251119
0.00329528
0.00356035
0.00408169
0.0043431
0.00434309
0.00433798
0.00433815
0.00433792
0.00433748
0.00426133
0.0040211
0.0037247
0.00278057
0.00108039
0.00147695
0.00151416
0.00108037
0.00111979
0.000664847
0.000706837
0.000811854
0.00080309
0.000313183
3.2309e-05
5.11624e-05
0.00015596
0.000113071
0.000317408
0.000446711
0.000555893
0.000618974
0.000642017
0.000620743
0.000535935
0.000458772
0.000805592
0.000904764
0.000833381
0.000631773
0.000887377
0.00108064
4.61904e-05
1.01415e-06
5.93468e-05
0.00012654
7.46554e-06
1.39854e-05
3.28281e-07
9.75708e-08
4.82287e-09
4.82287e-09
4.82234e-09
4.99176e-09
5.3784e-09
5.59561e-09
5.67321e-09
1.75992e-05
0.000114939
0.000173394
0.000196145
8.17315e-05
0.000337449
0.000531486
0.000280598
2.91417e-09
1.05313e-08
1.35457e-08
1.20669e-08
6.351e-09
2.49692e-06
4.83907e-06
2.55867e-06
8.49877e-09
2.03365e-08
9.40057e-07
1.77559e-06
4.16177e-07
7.73775e-09
2.48852e-06
7.03634e-05
0.000115193
7.76906e-05
4.78767e-05
6.84309e-05
0.000161636
4.59708e-05
5.91347e-06
2.69863e-09
1.10139e-08
3.57874e-08
1.23858e-08
1.03922e-09
3.11183e-07
2.43159e-06
1.79946e-06
8.05996e-09
2.22212e-07
3.02217e-06
3.19409e-06
2.0076e-06
7.55828e-09
3.56728e-06
5.37953e-05
6.81714e-05
4.31342e-05
4.78763e-05
6.46359e-05
3.75874e-05
2.28239e-08
9.33685e-08
2.69863e-09
8.85796e-08
1.23364e-07
2.91081e-08
5.56816e-10
6.86662e-10
9.18928e-10
2.94454e-08
6.74865e-09
3.16243e-07
3.19474e-06
3.19477e-06
1.59856e-06
6.62945e-09
1.19594e-06
2.39863e-06
2.66077e-07
2.47673e-06
1.57303e-05
1.93086e-05
3.8911e-07
2.27672e-08
2.28026e-08
3.84216e-09
1.23366e-07
1.23366e-07
4.23247e-08
5.56816e-10
5.56816e-10
5.58186e-10
5.67191e-10
4.26448e-07
1.49565e-06
2.64835e-06
7.57382e-07
1.28298e-07
6.60959e-09
4.73354e-08
7.20981e-09
7.80048e-09
1.67541e-07
4.67533e-07
2.77156e-07
2.27672e-08
2.26908e-08
6.36701e-08
1.41493e-09
2.84964e-08
8.8876e-08
1.72729e-08
5.56816e-10
5.56816e-10
1.02492e-08
9.58517e-07
1.85142e-06
1.85044e-06
8.43887e-07
1.16294e-09
1.19247e-09
2.36898e-09
1.2484e-09
1.05286e-09
7.01148e-08
3.83319e-06
6.38315e-06
5.13826e-06
7.2198e-07
1.81939e-08
1.86251e-08
6.21944e-10
6.21944e-10
3.17476e-09
1.22175e-09
6.77041e-10
5.61594e-10
1.83405e-07
1.85142e-06
1.85142e-06
1.34721e-06
6.66227e-10
1.16134e-09
1.16058e-09
1.13141e-09
6.54117e-11
7.10999e-11
5.91284e-07
6.1175e-06
6.38315e-06
6.38315e-06
4.79526e-06
1.81943e-08
1.81939e-08
2.6101e-08
2.78557e-08
1.68833e-10
2.1785e-10
7.93621e-10
2.24763e-09
1.55227e-07
9.98842e-07
1.05178e-06
7.65803e-08
6.65135e-10
1.49285e-09
1.49346e-09
5.55151e-10
6.53548e-11
9.78737e-11
4.08974e-08
1.67847e-06
5.06835e-06
5.56107e-06
7.55908e-07
1.81943e-08
1.81953e-08
9.94614e-08
1.59302e-07
2.77672e-11
2.21237e-10
1.51159e-09
1.42974e-08
4.70066e-08
2.17363e-09
5.23705e-09
1.14401e-10
6.65319e-10
1.32776e-09
9.63587e-10
1.6732e-10
6.53497e-11
7.27264e-11
1.53562e-10
8.95714e-09
1.41579e-07
2.4246e-07
3.44343e-09
2.64248e-08
3.23604e-08
1.74193e-07
1.74156e-07
2.76974e-11
2.42061e-10
2.60956e-09
7.00305e-09
1.95946e-09
3.48799e-11
2.46052e-11
4.54842e-11
2.87722e-10
4.21835e-10
1.99741e-10
4.85264e-11
5.97573e-11
6.57109e-11
6.57115e-11
6.69043e-11
5.6002e-11
5.5481e-11
1.39764e-09
1.56494e-08
2.19473e-08
2.76455e-07
1.5504e-07
2.76174e-11
3.2438e-10
1.46833e-09
1.14505e-09
4.02778e-11
3.50013e-11
1.51557e-11
9.29963e-12
2.79278e-11
2.31029e-11
7.56068e-12
1.15055e-11
3.71685e-11
5.76902e-11
7.36853e-11
7.81998e-11
7.16031e-11
5.54654e-11
7.59142e-11
4.76511e-10
8.85414e-10
2.76475e-07
1.26579e-07
2.7578e-11
1.8975e-10
4.12214e-10
9.83155e-11
1.78118e-11
1.99459e-11
4.13061e-12
3.78656e-13
2.99511e-13
9.12522e-14
2.25758e-14
7.85433e-13
9.45631e-12
2.9792e-11
4.99428e-11
5.60291e-11
5.28813e-11
4.17937e-11
2.72767e-11
1.35513e-11
2.02165e-11
2.76496e-07
1.13955e-07
2.75709e-11
5.92979e-11
7.32017e-11
1.61148e-11
4.06423e-12
2.64561e-12
4.00273e-14
-6.94218e-13
-9.82979e-13
-1.0367e-12
-8.9729e-13
-4.06302e-13
3.66615e-13
3.60321e-12
9.4682e-12
1.20242e-11
1.22364e-11
1.12382e-11
8.77429e-12
4.6908e-12
2.60897e-12
2.76506e-07
1.74914e-07
2.75708e-11
2.76347e-11
2.75198e-11
6.75958e-12
1.14588e-13
1.61186e-15
-7.92019e-13
-1.3568e-12
-1.59641e-12
-1.57588e-12
-1.38606e-12
-1.04475e-12
-6.00497e-13
5.80643e-15
1.77159e-13
2.99656e-13
3.48631e-13
3.83317e-13
4.09842e-13
3.96422e-13
3.71266e-13
2.76506e-07
2.7648e-07
2.75709e-11
2.75708e-11
2.92914e-11
6.25696e-12
-9.39847e-14
-5.1573e-13
-1.05922e-12
-1.41589e-12
-1.54958e-12
-1.50079e-12
-1.338e-12
-1.10535e-12
-8.44267e-13
-5.80451e-13
-3.8016e-13
-2.58302e-13
-1.76388e-13
-1.12917e-13
-5.93234e-14
-1.35729e-14
1.87191e-15
2.76506e-07
2.76496e-07
2.75708e-11
3.59226e-11
4.61896e-11
6.94381e-12
3.27798e-14
-3.50792e-13
-7.42225e-13
-9.96916e-13
-1.09419e-12
-1.07369e-12
-9.75559e-13
-8.33179e-13
-6.7441e-13
-5.20677e-13
-3.88182e-13
-2.85842e-13
-2.08399e-13
-1.49212e-13
-1.03207e-13
-6.70184e-14
-4.0232e-14
2.65565e-07
1.27868e-07
2.75726e-11
7.87177e-11
8.87579e-11
1.06143e-11
1.4246e-12
5.35497e-13
-5.12535e-14
-3.29114e-13
-4.96838e-13
-5.60364e-13
-5.49648e-13
-4.9364e-13
-4.1518e-13
-3.31885e-13
-2.54679e-13
-1.89227e-13
-1.37518e-13
-9.86135e-14
-6.97782e-14
-4.81757e-14
-3.15973e-14
3.83812e-08
9.73779e-10
7.74677e-11
1.96047e-10
1.34099e-10
1.94497e-11
6.32428e-12
4.5307e-12
2.66483e-12
1.06786e-12
1.86469e-13
-1.14028e-13
-2.09922e-13
-2.28467e-13
-2.09194e-13
-1.74857e-13
-1.37676e-13
-1.02775e-13
-7.38978e-14
-5.20708e-14
-3.63653e-14
-2.51897e-14
-1.69589e-14
7.329e-11
8.22657e-11
1.92728e-10
2.55006e-10
1.60048e-10
3.20071e-11
1.64327e-11
1.35709e-11
9.53832e-12
5.28692e-12
2.23428e-12
6.00958e-13
2.75961e-14
-7.07815e-14
-8.69722e-14
-7.90979e-14
-6.52348e-14
-4.9215e-14
-3.4944e-14
-2.39275e-14
-1.61253e-14
-1.0844e-14
-7.29084e-15
7.30426e-11
8.2525e-11
2.30562e-10
2.55929e-10
1.56197e-10
4.43783e-11
3.06021e-11
2.65861e-11
2.01262e-11
1.26728e-11
6.13514e-12
2.11526e-12
4.27985e-13
8.32959e-15
-3.00975e-14
-3.16214e-14
-2.79963e-14
-2.14699e-14
-1.50465e-14
-9.96819e-15
-6.40425e-15
-4.0653e-15
-2.63152e-15
7.30426e-11
7.71818e-11
2.01455e-10
2.21267e-10
1.21688e-10
5.22345e-11
4.50034e-11
4.07229e-11
3.16857e-11
2.17238e-11
1.12621e-11
3.9781e-12
7.98664e-13
5.55143e-14
-8.93513e-15
-1.16289e-14
-1.11693e-14
-8.72133e-15
-6.0474e-15
-3.88065e-15
-2.36876e-15
-1.39796e-15
-8.33214e-16
7.81186e-11
5.87954e-11
9.51571e-11
9.96999e-11
6.75934e-11
5.38469e-11
5.30227e-11
5.16886e-11
4.19977e-11
2.98852e-11
1.6056e-11
5.45969e-12
8.98251e-13
5.22716e-14
-2.40641e-15
-4.13639e-15
-4.25566e-15
-3.36042e-15
-2.28914e-15
-1.4166e-15
-8.20966e-16
-4.53822e-16
-2.50467e-16
1.28275e-10
5.07918e-11
5.07919e-11
5.07919e-11
5.07918e-11
5.30969e-11
5.38428e-11
5.53461e-11
4.90044e-11
3.52305e-11
1.90222e-11
5.92895e-12
8.33285e-13
3.12437e-14
-5.77647e-16
-1.45775e-15
-1.56671e-15
-1.23291e-15
-8.17485e-16
-4.87604e-16
-2.71916e-16
-1.45182e-16
-7.58724e-17
4.59222e-10
5.07919e-11
5.07918e-11
5.07918e-11
5.07919e-11
5.11419e-11
5.30525e-11
5.54892e-11
5.06404e-11
3.68469e-11
1.954e-11
5.6947e-12
5.9039e-13
1.06262e-14
-6.86601e-17
-5.18437e-16
-5.65152e-16
-4.34536e-16
-2.77971e-16
-1.59798e-16
-8.58211e-17
-4.38857e-17
-2.18313e-17
1.5084e-09
4.27091e-08
4.17147e-07
4.63873e-07
3.45851e-08
5.11274e-11
5.11307e-11
5.53011e-11
5.01347e-11
3.64547e-11
1.86116e-11
4.57523e-12
2.97993e-13
2.36429e-15
0
-1.90108e-16
-2.00963e-16
-1.48186e-16
-9.04988e-17
-4.98226e-17
-2.56253e-17
-1.2594e-17
-5.98451e-18
1.50785e-09
2.27168e-07
8.30713e-07
8.30769e-07
2.8676e-07
4.97506e-11
4.97203e-11
5.39459e-11
4.78943e-11
3.37628e-11
1.5417e-11
2.86375e-12
1.10604e-13
4.05348e-16
5.37493e-21
-7.14104e-17
-7.04213e-17
-4.89178e-17
-2.81553e-17
-1.47216e-17
-7.16168e-18
-3.34842e-18
-1.49171e-18
1.50946e-09
2.36623e-07
8.30769e-07
8.30769e-07
3.54623e-07
8.48864e-11
4.92281e-11
5.10633e-11
4.34608e-11
2.81819e-11
1.06488e-11
1.35852e-12
2.90848e-14
5.07593e-17
-7.17921e-18
-2.72297e-17
-2.41713e-17
-1.55395e-17
-8.29853e-18
-4.04534e-18
-1.83096e-18
-8.01877e-19
-3.30637e-19
1.51187e-09
1.0237e-07
8.24558e-07
7.7863e-07
1.74996e-07
1.38239e-10
4.88532e-11
4.71257e-11
3.67745e-11
2.06897e-11
5.86653e-12
4.48672e-13
4.61755e-15
3.54423e-18
-5.96569e-18
-1.02524e-17
-8.02934e-18
-4.68785e-18
-2.2801e-18
-1.01435e-18
-4.22981e-19
-1.6992e-19
-6.38678e-20
2.3528e-09
8.39333e-09
1.38851e-07
9.67618e-08
8.13297e-09
1.28095e-10
5.63334e-11
4.20436e-11
2.79651e-11
1.25649e-11
2.31871e-12
8.78763e-14
3.56721e-16
8.95848e-20
-3.11674e-18
-3.74774e-18
-2.55401e-18
-1.32605e-18
-5.75195e-19
-2.28116e-19
-8.61867e-20
-3.11749e-20
-1.04984e-20
3.0111e-09
1.4867e-09
5.93326e-10
2.21369e-10
1.01683e-10
1.0166e-10
5.82392e-11
3.40375e-11
1.7829e-11
5.57892e-12
5.4911e-13
8.24814e-15
1.07512e-17
3.23889e-22
-1.425e-18
-1.33243e-18
-7.76296e-19
-3.49657e-19
-1.31517e-19
-4.52463e-20
-1.51407e-20
-4.83351e-21
-1.42833e-21
3.01267e-09
2.12128e-09
8.50592e-10
3.92444e-10
2.08266e-10
1.09725e-10
5.04177e-11
2.24803e-11
8.29384e-12
1.47671e-12
6.07595e-14
2.9502e-16
1.1381e-19
-2.80488e-19
-6.26432e-19
-4.63574e-19
-2.27036e-19
-8.6297e-20
-2.71796e-20
-7.82532e-21
-2.2482e-21
-6.16938e-22
-1.55686e-22
1.79946e-09
1.82013e-09
1.16587e-09
6.45477e-10
3.1143e-10
1.15134e-10
3.70509e-11
1.08343e-11
2.25858e-12
1.74258e-13
2.35405e-15
3.38027e-18
3.01784e-22
-2.13965e-19
-2.63318e-19
-1.58746e-19
-6.46787e-20
-2.02073e-20
-5.12089e-21
-1.17647e-21
-2.7728e-22
-6.29528e-23
-1.30491e-23
2.53015e-10
6.60323e-10
8.03205e-10
5.65109e-10
2.86133e-10
9.98845e-11
2.18304e-11
3.25575e-12
2.70732e-13
6.61164e-15
2.54103e-17
1.04572e-20
-3.88708e-20
-1.19946e-19
-1.06862e-19
-5.38512e-20
-1.8335e-20
-4.64617e-21
-9.15573e-22
-1.57795e-22
-2.8283e-23
-4.97457e-24
-7.94073e-25
2.225e-12
5.16347e-11
2.11528e-10
2.43295e-10
1.55161e-10
5.37486e-11
8.175e-12
5.0408e-13
1.11966e-14
6.58516e-17
8.13329e-20
5.69155e-24
-3.77679e-20
-5.92869e-20
-4.22139e-20
-1.81914e-20
-5.25638e-21
-1.08332e-21
-1.63463e-22
-1.98072e-23
-2.40051e-24
-2.90139e-25
-3.1622e-26
-2.90342e-26
5.08114e-13
1.33221e-11
3.39045e-11
2.97056e-11
1.17594e-11
1.38382e-12
3.46873e-14
1.66162e-16
2.42805e-19
5.68524e-23
-7.23413e-21
-2.4365e-20
-2.72244e-20
-1.63359e-20
-6.14756e-21
-1.5377e-21
-2.61977e-22
-3.02978e-23
-2.45113e-24
-1.70612e-25
-1.12637e-26
-6.45754e-28
-2.41002e-26
4.40995e-16
1.27707e-13
8.49081e-13
1.09116e-12
5.2978e-13
5.54841e-14
7.07109e-16
9.92608e-19
4.50132e-22
-6.96866e-22
-6.87983e-21
-1.32762e-20
-1.18999e-20
-6.22984e-21
-2.09181e-21
-4.64703e-22
-6.79805e-23
-6.28061e-24
-3.38859e-25
-1.01958e-26
-1.94628e-28
-2.63188e-30
0.999998
0.999997
0.999997
0.999996
0.999007
0.998974
0.99887
0.998673
0.490843
0.487837
0.48284
0.475913
0.000667483
0.000490369
0.000490256
0.000490369
0.00116785
0.00104135
0.000490236
0.000547084
0.000545665
0.000490186
0.000490082
0.000544925
0.000236509
0.000640979
0.000641296
0.000641571
8.20082e-05
0.000227821
0.000238478
8.87787e-05
1.04265e-07
9.21627e-09
9.14331e-09
9.09503e-09
9.4752e-08
1.17367e-07
4.25083e-08
9.01836e-09
7.17996e-08
3.66399e-08
8.75886e-09
8.81335e-09
3.67113e-08
1.97413e-08
8.65992e-09
1.08519e-08
1.90873e-08
1.56616e-08
8.59746e-09
1.21336e-08
2.07778e-08
1.85927e-08
8.20699e-09
8.24065e-09
1.56484e-08
1.79617e-09
1.80172e-09
1.60396e-08
1.73489e-09
1.79177e-09
2.32536e-09
3.06183e-08
1.2365e-09
2.50412e-09
2.94973e-09
3.02602e-09
1.6341e-10
2.9655e-10
1.8488e-10
7.45992e-13
2.39845e-12
1.78234e-12
9.73474e-13
9.09859e-13
3.65874e-13
3.63665e-13
3.76894e-13
3.85188e-13
3.45499e-15
9.25191e-15
1.58519e-14
1.80885e-14
-2.2451e-14
-1.7505e-14
-1.35629e-14
-1.05303e-14
-1.92397e-14
-1.55529e-14
-1.27798e-14
-1.06618e-14
-1.05895e-14
-8.38119e-15
-6.71291e-15
-5.50735e-15
-4.66404e-15
-3.59961e-15
-2.74875e-15
-2.12804e-15
-1.73184e-15
-1.31644e-15
-9.83803e-16
-7.13692e-16
-5.66642e-16
-4.22763e-16
-3.13362e-16
-2.22048e-16
-1.75533e-16
-1.25791e-16
-8.96412e-17
-6.23757e-17
-5.24981e-17
-3.61424e-17
-2.45839e-17
-1.65029e-17
-1.47622e-17
-9.81972e-18
-6.41381e-18
-4.12165e-18
-3.89213e-18
-2.48388e-18
-1.55251e-18
-9.51513e-19
-9.24714e-19
-5.61858e-19
-3.33968e-19
-1.94308e-19
-1.93568e-19
-1.10872e-19
-6.20397e-20
-3.39282e-20
-3.48909e-20
-1.86037e-20
-9.67169e-21
-4.90517e-21
-5.27202e-21
-2.576e-21
-1.22406e-21
-5.66077e-22
-6.46697e-22
-2.83801e-22
-1.20713e-22
-4.9819e-23
-6.19061e-23
-2.37477e-23
-8.79283e-24
-3.14732e-24
-4.38558e-24
-1.41439e-24
-4.3821e-25
-1.30714e-25
-2.1186e-25
-5.40019e-26
-1.31707e-26
-3.08227e-27
-5.96257e-27
-1.07519e-27
-1.85659e-28
-3.07887e-29
-6.64312e-29
-6.64245e-30
-6.46898e-31
-6.14852e-32
-6.17219e-32
-1.43867e-33
-3.458e-35
-8.80691e-37
0.999997
0.999997
0.999995
0.999992
0.997605
0.992681
0.991586
0.994388
0.997333
0.99793
0.99793
0.995639
0.998513
0.998514
0.998514
0.992
0.979365
0.986705
0.998443
0.99797
0.997699
0.996165
0.989617
0.983934
0.975692
0.963984
0.953422
0.950772
0.965521
0.977407
0.98063
0.972927
0.953659
0.935152
0.938654
0.951779
0.945654
0.934011
0.460658
0.443733
0.428631
0.41605
0.403793
0.3937
0.38394
0.371326
0.353893
0.331688
0.316715
0.305515
0.294202
0.284065
0.275073
0.265463
0.259806
0.252493
0.253665
0.000506118
0.000537978
0.000555318
0.000560282
0.000573164
0.000590493
0.000601509
0.000604162
0.000604144
0.000618011
0.00069128
0.000750607
0.000782666
0.000833527
0.000948517
0.00112923
0.00122331
0.00122503
0.00118973
0.000646658
0.000643738
0.000642317
0.00105269
0.00160195
0.00160184
0.00142052
0.0014172
0.00141627
0.00141561
0.00134628
0.00116469
0.00111775
0.00100657
0.0011902
0.00122787
0.00122835
0.00122562
0.0011782
0.000797064
0.000797073
0.000750016
0.000614013
0.000899965
0.00120579
0.0011006
0.0010424
0.000937701
0.000814144
0.000732885
0.000639624
0.000596884
0.000625467
0.000647192
0.000671713
0.000637868
0.000629973
0.000582082
0.000642208
0.000646047
0.000564664
0.000509145
0.000338675
5.11417e-06
1.41719e-08
1.42562e-08
1.48567e-08
3.00753e-08
6.52068e-08
1.61643e-07
3.59121e-07
2.74362e-06
3.063e-05
1.96294e-05
4.69085e-05
0.000114764
2.86468e-05
1.35628e-05
6.9566e-06
2.24294e-05
7.01764e-05
1.22627e-08
1.23185e-08
1.40772e-08
6.61487e-07
1.57816e-05
2.95806e-05
3.21748e-05
1.97573e-05
2.36841e-06
5.54157e-07
5.20765e-07
5.20414e-07
5.20522e-07
5.61326e-07
5.4668e-07
9.14331e-09
9.19279e-09
9.25394e-09
9.36301e-09
1.22191e-08
1.44995e-08
5.4322e-07
3.30256e-05
6.09411e-05
6.09649e-05
6.09649e-05
6.09649e-05
1.31161e-05
1.10018e-06
5.20414e-07
5.2034e-07
5.20332e-07
5.20333e-07
5.20333e-07
1.29471e-08
1.68772e-08
5.58303e-08
1.19499e-08
1.26593e-08
1.60158e-08
2.10477e-05
6.08976e-05
6.09462e-05
4.28547e-05
5.93911e-05
6.06286e-05
2.65489e-05
2.51947e-05
4.17774e-06
5.20332e-07
5.20332e-07
5.20332e-07
5.20332e-07
1.65449e-08
4.51567e-06
1.27975e-05
9.30375e-06
2.95053e-08
6.43188e-07
3.8378e-05
6.08838e-05
2.31657e-05
6.54028e-06
1.20233e-05
2.89616e-05
3.54516e-05
3.54516e-05
2.8795e-05
7.42076e-06
5.20332e-07
5.20332e-07
5.20332e-07
3.06938e-07
1.47626e-05
2.13064e-05
2.13064e-05
1.2069e-05
4.35707e-06
2.18507e-05
9.16799e-06
8.46517e-08
6.55057e-06
2.21175e-05
2.20854e-05
2.13542e-05
2.56807e-05
2.87768e-05
2.40112e-05
5.20332e-07
5.20332e-07
5.20332e-07
2.55756e-07
1.33106e-05
2.13064e-05
2.12973e-05
2.12881e-05
1.18668e-05
6.30494e-10
6.30067e-10
7.84307e-08
5.15975e-06
8.07584e-06
3.07702e-07
1.82862e-10
2.31707e-10
5.04642e-06
1.1147e-05
1.53512e-05
1.14868e-05
5.03614e-06
2.532e-08
7.71586e-07
1.06088e-05
1.6079e-05
2.39555e-06
6.3437e-10
6.30067e-10
3.13939e-08
9.41339e-08
1.79743e-10
1.79724e-10
1.79963e-10
1.79964e-10
1.82862e-10
2.99354e-07
1.12883e-05
1.53526e-05
1.53532e-05
1.53521e-05
7.04484e-08
8.01963e-08
2.66645e-09
2.6145e-09
2.60551e-09
2.60325e-09
1.50879e-09
2.13754e-08
3.12406e-08
1.79724e-10
4.22123e-10
1.79964e-10
1.89233e-10
5.82227e-10
6.60954e-10
3.18669e-06
9.95579e-06
9.00447e-06
4.53653e-06
6.71695e-08
7.45617e-08
6.43902e-08
5.93581e-08
6.27363e-09
4.55775e-10
4.5529e-10
1.95308e-10
1.95291e-10
4.98275e-10
1.18229e-09
4.7232e-10
3.14137e-10
5.38727e-09
1.386e-08
4.96537e-12
4.96766e-12
4.96537e-12
4.96766e-12
1.7881e-09
5.56008e-08
2.86955e-07
2.87044e-07
1.89216e-07
3.27714e-08
2.66896e-10
1.95291e-10
2.60499e-10
1.32885e-09
1.31815e-09
6.80539e-10
2.49131e-10
1.00017e-10
3.94649e-11
2.19943e-11
4.96549e-12
4.99082e-12
5.03213e-12
6.97461e-13
1.58866e-08
1.9917e-07
2.87128e-07
2.87128e-07
2.87128e-07
2.28919e-08
1.95377e-10
1.03739e-08
3.82421e-08
3.0737e-08
3.41263e-09
1.11809e-10
1.61796e-10
1.66606e-10
1.0498e-10
4.80922e-11
2.23606e-10
5.15265e-11
6.97185e-13
3.70901e-14
2.84185e-18
8.81751e-08
2.4168e-07
2.40156e-07
6.09641e-08
7.96045e-10
5.08286e-08
7.34938e-08
7.34938e-08
3.21508e-08
7.16613e-11
9.82689e-11
1.54964e-10
7.90076e-11
4.89988e-10
1.90954e-07
2.34184e-06
2.81726e-13
7.40877e-14
2.19472e-18
-7.06516e-38
3.05629e-20
7.0979e-18
1.72218e-09
1.59482e-08
5.9146e-08
7.34938e-08
7.29789e-08
3.83108e-08
7.14781e-11
7.14619e-11
5.68541e-11
2.19969e-11
7.6067e-10
2.54058e-06
1.34864e-05
1.60488e-14
7.1419e-15
1.52732e-15
-5.86075e-17
-8.91871e-37
3.05629e-20
7.09207e-18
5.00426e-17
5.13592e-15
9.59812e-09
1.17764e-08
1.35125e-13
3.46484e-10
4.93687e-11
1.52068e-11
5.14165e-12
1.10093e-10
4.72418e-06
1.34864e-05
-8.32931e-15
-4.01393e-15
-1.96821e-15
-4.42169e-16
4.37193e-17
1.40101e-14
6.72618e-14
8.33077e-14
8.33012e-14
8.3427e-14
8.37289e-14
1.34952e-13
4.11843e-13
4.01591e-12
3.53809e-12
2.0067e-12
1.18195e-12
3.97463e-06
1.34864e-05
-8.91495e-15
-5.46143e-15
-3.2482e-15
-1.81759e-15
-8.57698e-16
-1.26344e-16
6.54366e-16
3.36031e-14
2.81281e-13
4.91751e-13
4.2959e-13
1.21277e-12
2.10325e-12
1.20023e-12
7.40369e-13
1.44752e-12
1.18082e-12
9.49604e-07
1.34863e-05
-4.60708e-15
-2.956e-15
-1.86182e-15
-1.14853e-15
-6.86234e-16
-3.84662e-16
-1.76155e-16
-9.86076e-35
2.71739e-15
4.53626e-14
1.1227e-13
2.96608e-13
7.40566e-13
2.89011e-13
2.42135e-13
1.18051e-12
1.18053e-12
1.18082e-12
1.31935e-05
-1.70754e-15
-1.07921e-15
-6.75971e-16
-4.18478e-16
-2.5416e-16
-1.54778e-16
-9.19041e-17
-4.80391e-17
-4.07553e-18
1.80568e-16
1.22061e-15
4.20277e-15
1.11199e-14
2.28509e-14
7.84957e-14
1.15349e-12
1.20292e-12
1.1812e-12
2.72233e-06
-5.13964e-16
-3.13062e-16
-1.87819e-16
-1.12231e-16
-6.76293e-17
-4.10226e-17
-2.45775e-17
-1.37465e-17
-5.38685e-18
5.22028e-18
5.32626e-17
2.7294e-16
1.37161e-15
6.7549e-15
4.63365e-14
1.29012e-12
2.71747e-12
1.27043e-12
1.27045e-12
-1.32964e-16
-7.62235e-17
-4.44947e-17
-2.62312e-17
-1.54537e-17
-8.99271e-18
-5.10904e-18
-2.55735e-18
-6.62617e-19
3.2221e-18
2.39474e-17
1.37378e-16
8.26311e-16
4.63136e-15
3.76557e-14
1.34641e-12
4.70846e-12
1.27045e-12
5.36369e-08
-3.21725e-17
-1.68901e-17
-9.1313e-18
-5.02025e-18
-2.76127e-18
-1.40701e-18
-5.92196e-19
1.92593e-37
4.52974e-19
3.58521e-18
2.11965e-17
1.18093e-16
7.00224e-16
3.90946e-15
3.59402e-14
1.42158e-12
5.09873e-12
1.27127e-12
2.08413e-06
-7.46759e-18
-3.46863e-18
-1.65981e-18
-8.03218e-19
-3.52838e-19
0
4.99496e-19
2.60551e-18
1.01709e-17
2.69092e-17
6.27222e-17
1.68804e-16
7.29056e-16
3.85884e-15
4.43689e-14
1.38328e-12
5.09741e-12
1.43176e-12
2.94059e-06
-1.69529e-18
-7.00216e-19
-2.91309e-19
-1.07055e-19
5.61309e-20
1.23657e-18
7.77813e-18
3.41371e-17
1.17724e-16
3.24983e-16
7.3216e-16
1.49327e-15
3.70152e-15
1.24566e-14
8.39691e-14
1.23124e-12
4.82394e-12
1.35807e-12
2.94036e-06
-3.61092e-19
-1.34957e-19
-4.84822e-20
2.89762e-21
7.18375e-19
7.16131e-18
4.53467e-17
2.1786e-16
8.24775e-16
2.44166e-15
5.73397e-15
1.28686e-14
3.54351e-14
1.08584e-13
3.20587e-13
1.54166e-12
4.74381e-12
1.35745e-12
1.43646e-06
-6.80317e-20
-2.32116e-20
-6.32021e-21
7.53142e-20
1.84577e-18
2.45079e-17
1.96138e-16
1.05461e-15
4.36736e-15
1.46554e-14
4.12325e-14
1.14766e-13
3.19992e-13
7.81656e-13
1.49953e-12
2.93493e-12
5.81075e-12
2.07657e-12
2.08036e-12
-1.08413e-20
-3.34584e-21
-6.25482e-23
1.08755e-19
3.71433e-18
6.70015e-17
6.96714e-16
4.2954e-15
2.08275e-14
8.88013e-14
3.62697e-13
1.24432e-12
2.69097e-12
4.47061e-12
5.78867e-12
7.16406e-12
7.95787e-12
2.08036e-12
1.02769e-06
-1.40696e-21
-3.82064e-22
1.09849e-21
1.26305e-19
5.83106e-18
1.39326e-16
1.99392e-15
1.62316e-14
1.04326e-13
5.8115e-13
2.98016e-12
9.84814e-12
1.63195e-11
1.98308e-11
1.8932e-11
2.14811e-11
1.78415e-11
2.10211e-12
2.93434e-06
-1.42821e-22
-3.15494e-23
8.38468e-22
1.27899e-19
7.19126e-18
2.14318e-16
4.31403e-15
5.48557e-14
4.67607e-13
2.9012e-12
1.38598e-11
3.84917e-11
5.63431e-11
5.95725e-11
5.36528e-11
7.33931e-11
9.02557e-11
2.11606e-12
2.93438e-06
-1.07862e-23
-1.23622e-24
3.75697e-22
8.98696e-20
7.49473e-18
2.50501e-16
6.69202e-15
1.35383e-13
1.33646e-12
8.13347e-12
3.28274e-11
7.8191e-11
1.06773e-10
1.0808e-10
1.12927e-10
2.09497e-10
3.1816e-10
2.14667e-12
2.93413e-06
-5.66719e-25
3.82512e-25
1.60017e-22
3.93781e-20
5.51353e-18
2.46706e-16
7.71937e-15
2.17908e-13
2.24867e-12
1.30405e-11
4.59183e-11
1.00622e-10
1.27188e-10
1.26609e-10
1.78279e-10
5.84473e-10
7.5309e-10
2.27792e-12
2.7766e-06
-1.87639e-26
1.1762e-25
5.1311e-23
1.4907e-20
2.28545e-18
1.32267e-16
7.08876e-15
2.49419e-13
2.5883e-12
1.45775e-11
4.79555e-11
9.78739e-11
1.26124e-10
9.35098e-11
3.03719e-10
3.29213e-09
2.46442e-09
2.63562e-12
1.83421e-06
-3.30625e-28
2.3627e-26
9.52085e-24
4.09282e-21
7.38129e-19
3.93657e-17
2.8625e-15
2.03593e-13
2.10882e-12
1.0859e-11
2.90326e-11
4.72597e-11
8.05627e-11
1.58441e-11
8.39591e-10
1.03261e-08
8.82698e-09
3.88763e-12
1.76542e-06
-2.13198e-30
2.2868e-27
9.073e-25
6.01332e-22
1.45646e-19
8.38036e-18
5.30007e-16
5.97967e-14
6.10821e-13
2.84605e-12
6.5567e-12
1.02934e-11
1.72137e-11
2.51844e-16
1.62101e-09
1.22487e-08
1.22452e-08
1.76325e-09
1.76572e-06
-2.52382e-33
1.36791e-31
1.67712e-26
4.03669e-23
1.11334e-20
7.84084e-19
5.15798e-17
6.15551e-15
6.10326e-14
2.68664e-13
6.02079e-13
9.78569e-13
1.38815e-12
9.76443e-20
8.03485e-10
8.00098e-09
7.95598e-09
7.35818e-22
1.7655e-06
-1.01958e-38
-1.12895e-40
7.71449e-34
2.23116e-28
8.15936e-25
3.86374e-22
1.30949e-19
1.80725e-17
1.50368e-16
7.02552e-16
1.76507e-15
2.97287e-15
1.57003e-15
1.2326e-35
3.13121e-11
-8.07794e-31
-9.4713e-58
0
1.45905e-06
)
;

boundaryField
{
    leftWall
    {
        type            zeroGradient;
    }
    rightWall
    {
        type            zeroGradient;
    }
    lowerWall
    {
        type            zeroGradient;
    }
    atmosphere
    {
        type            inletOutlet;
        inletValue      uniform 0;
        value           nonuniform List<scalar> 
46
(
0
4.40995e-16
1.27707e-13
8.49081e-13
1.09116e-12
5.2978e-13
5.54841e-14
7.07109e-16
9.92608e-19
4.50132e-22
-6.96866e-22
-6.87983e-21
-1.32762e-20
-1.18999e-20
-6.22984e-21
-2.09181e-21
-4.64703e-22
-6.79805e-23
-6.28061e-24
-3.38859e-25
0
0
0
0
0
0
0
0
0
0
0
0
0
0
0
0
0
0
0
0
0
0
0
0
0
1.45905e-06
)
;
    }
    defaultFaces
    {
        type            empty;
    }
}


// ************************************************************************* //
