/*--------------------------------*- C++ -*----------------------------------*\
  =========                 |
  \\      /  F ield         | OpenFOAM: The Open Source CFD Toolbox
   \\    /   O peration     | Website:  https://openfoam.org
    \\  /    A nd           | Version:  9
     \\/     M anipulation  |
\*---------------------------------------------------------------------------*/
FoamFile
{
    format      ascii;
    class       surfaceScalarField;
    location    "6.05";
    object      phi;
}
// * * * * * * * * * * * * * * * * * * * * * * * * * * * * * * * * * * * * * //

dimensions      [0 3 -1 0 0 0 0];

internalField   nonuniform List<scalar> 
4432
(
-1.4888e-07
1.4888e-07
-2.37714e-07
8.88303e-08
-3.05559e-07
6.78472e-08
-3.66906e-07
6.13441e-08
-4.23825e-07
5.69178e-08
-4.74266e-07
5.04398e-08
-5.11871e-07
3.76017e-08
-5.31039e-07
1.91659e-08
-5.27554e-07
-3.48704e-09
-5.00924e-07
-2.66325e-08
-4.48709e-07
-5.22161e-08
-3.6106e-07
-8.7651e-08
-2.2097e-07
-1.40091e-07
-1.08443e-08
-2.10126e-07
2.71684e-07
-2.8253e-07
5.71017e-07
-2.99332e-07
6.68624e-07
-9.76066e-08
2.10685e-07
4.57941e-07
-6.03759e-07
8.14447e-07
-1.41447e-06
8.10709e-07
-1.63656e-06
2.221e-07
-9.86382e-07
-6.50181e-07
-9.8638e-07
-1.21065e-07
2.69946e-07
-2.12731e-07
1.80491e-07
-2.88262e-07
1.43378e-07
-3.53165e-07
1.26244e-07
-4.10147e-07
1.13896e-07
-4.57542e-07
9.78313e-08
-4.91836e-07
7.18922e-08
-5.09161e-07
3.64875e-08
-5.07407e-07
-5.24342e-09
-4.86433e-07
-4.76096e-08
-4.44469e-07
-9.41823e-08
-3.75506e-07
-1.56616e-07
-2.69019e-07
-2.46579e-07
-1.15269e-07
-3.63876e-07
7.97394e-08
-4.77539e-07
2.71513e-07
-4.91103e-07
3.32832e-07
-1.58924e-07
4.36395e-08
7.47136e-07
-4.74029e-07
1.33212e-06
-9.46447e-07
1.28313e-06
-1.14765e-06
4.23304e-07
-8.59554e-07
-9.38279e-07
-1.84593e-06
-1.04398e-07
3.74346e-07
-1.96402e-07
2.72491e-07
-2.75726e-07
2.22701e-07
-3.43876e-07
1.94393e-07
-4.02718e-07
1.72737e-07
-4.51165e-07
1.46277e-07
-4.86896e-07
1.07622e-07
-5.06965e-07
5.65564e-08
-5.10275e-07
-1.93451e-09
-4.97224e-07
-6.06609e-08
-4.67078e-07
-1.24329e-07
-4.16532e-07
-2.07161e-07
-3.38639e-07
-3.24474e-07
-2.29833e-07
-4.72681e-07
-9.58061e-08
-6.11567e-07
3.77686e-08
-6.24678e-07
9.8008e-08
-2.19163e-07
-6.78579e-08
9.13003e-07
-3.59428e-07
1.62369e-06
-6.1773e-07
1.54143e-06
-7.75871e-07
5.81444e-07
-6.2164e-07
-1.09251e-06
-2.46758e-06
-9.48817e-08
4.69229e-07
-1.85901e-07
3.63506e-07
-2.67277e-07
3.04078e-07
-3.38897e-07
2.66013e-07
-4.01075e-07
2.34915e-07
-4.52789e-07
1.97993e-07
-4.92169e-07
1.47003e-07
-5.17425e-07
8.18136e-08
-5.27637e-07
8.27966e-09
-5.2371e-07
-6.45862e-08
-5.06552e-07
-1.41487e-07
-4.74453e-07
-2.39259e-07
-4.23909e-07
-3.7502e-07
-3.5356e-07
-5.4303e-07
-2.69121e-07
-6.96009e-07
-1.81747e-07
-7.12053e-07
-1.08509e-07
-2.92403e-07
-1.62777e-07
9.67269e-07
-2.81126e-07
1.74203e-06
-3.86632e-07
1.64693e-06
-4.63102e-07
6.57909e-07
-3.39274e-07
-1.21635e-06
-2.80685e-06
-8.9834e-08
5.59064e-07
-1.796e-07
4.5327e-07
-2.62958e-07
3.87437e-07
-3.38282e-07
3.41338e-07
-4.04937e-07
3.01573e-07
-4.61642e-07
2.54701e-07
-5.06859e-07
1.92224e-07
-5.38997e-07
1.13955e-07
-5.57473e-07
2.67587e-08
-5.64015e-07
-5.80424e-08
-5.6063e-07
-1.44871e-07
-5.47255e-07
-2.52633e-07
-5.21968e-07
-4.00309e-07
-4.85731e-07
-5.79269e-07
-4.45294e-07
-7.3645e-07
-4.07824e-07
-7.49526e-07
-3.40241e-07
-3.5999e-07
-2.64335e-07
8.91359e-07
-2.29618e-07
1.70731e-06
-2.05295e-07
1.62261e-06
-1.42032e-07
5.9464e-07
-3.42712e-08
-1.32411e-06
-2.84112e-06
-8.71467e-08
6.46212e-07
-1.76946e-07
5.43068e-07
-2.62984e-07
4.73477e-07
-3.4287e-07
4.21226e-07
-4.1514e-07
3.73845e-07
-4.7822e-07
3.17783e-07
-5.30794e-07
2.44801e-07
-5.71394e-07
1.54556e-07
-5.99406e-07
5.47721e-08
-6.17256e-07
-4.01912e-08
-6.27878e-07
-1.34249e-07
-6.32428e-07
-2.48083e-07
-6.29816e-07
-4.02923e-07
-6.22157e-07
-5.86928e-07
-6.17414e-07
-7.41196e-07
-6.21186e-07
-7.45755e-07
-5.93247e-07
-3.87932e-07
-4.01751e-07
6.9986e-07
-2.25939e-07
1.53149e-06
-5.348e-08
1.45014e-06
1.55913e-07
3.85245e-07
2.17906e-07
-1.38611e-06
-2.62322e-06
-8.48698e-08
7.31083e-07
-1.77529e-07
6.35727e-07
-2.67638e-07
5.63586e-07
-3.53121e-07
5.06709e-07
-4.31969e-07
4.52691e-07
-5.0251e-07
3.88323e-07
-5.63638e-07
3.05929e-07
-6.13919e-07
2.04835e-07
-6.52451e-07
9.33029e-08
-6.82176e-07
-1.04681e-08
-7.06524e-07
-1.09903e-07
-7.27476e-07
-2.27131e-07
-7.43985e-07
-3.86416e-07
-7.5805e-07
-5.72864e-07
-7.77442e-07
-7.21804e-07
-8.05777e-07
-7.1742e-07
-7.9688e-07
-3.96828e-07
-5.6838e-07
4.71361e-07
-2.67364e-07
1.23048e-06
4.4314e-08
1.13847e-06
3.38032e-07
9.15321e-08
3.56243e-07
-1.40432e-06
-2.26697e-06
-8.76964e-08
8.18781e-07
-1.82606e-07
7.30636e-07
-2.77073e-07
6.58052e-07
-3.68738e-07
5.98373e-07
-4.54825e-07
5.38776e-07
-5.33532e-07
4.67028e-07
-6.03997e-07
3.76392e-07
-6.64869e-07
2.65704e-07
-7.14616e-07
1.43047e-07
-7.56559e-07
3.14728e-08
-7.938e-07
-7.26637e-08
-8.29077e-07
-1.91855e-07
-8.6065e-07
-3.54844e-07
-8.89306e-07
-5.44208e-07
-9.20546e-07
-6.90565e-07
-9.54287e-07
-6.83677e-07
-9.37843e-07
-4.13271e-07
-7.18678e-07
2.52197e-07
-3.37448e-07
8.49252e-07
6.31365e-08
7.37883e-07
3.44409e-07
-1.89735e-07
3.30936e-07
-1.39084e-06
-1.93603e-06
-5.58608e-07
5.58608e-07
3.10948e-07
-8.69563e-07
1.05796e-06
-7.47003e-07
1.53832e-06
-4.80369e-07
1.85525e-06
-3.16928e-07
2.07118e-06
-2.15931e-07
2.32248e-06
-2.51297e-07
2.72806e-06
-4.05566e-07
3.28674e-06
-5.5868e-07
3.51192e-06
-2.25187e-07
2.87298e-06
6.38945e-07
1.74251e-06
1.13047e-06
-1.19811e-07
1.86232e-06
-1.57111e-06
1.45129e-06
-5.99611e-07
-9.71495e-07
7.09965e-07
-1.30958e-06
1.09435e-06
-3.84389e-07
1.10479e-06
-1.04404e-08
1.10479e-06
1.67419e-08
5.4187e-07
5.88164e-07
-1.441e-06
1.00201e-06
-1.16084e-06
1.29706e-06
-7.75429e-07
1.51679e-06
-5.36643e-07
1.71595e-06
-4.15092e-07
1.9382e-06
-4.73537e-07
2.25695e-06
-7.24316e-07
2.62494e-06
-9.26673e-07
2.74992e-06
-3.50171e-07
2.24617e-06
1.1427e-06
1.30745e-06
2.06918e-06
5.72075e-08
3.11256e-06
-7.77263e-07
2.28576e-06
-2.60338e-07
-1.48842e-06
3.98941e-07
-1.96886e-06
5.26696e-07
-5.12148e-07
7.08307e-07
-1.92053e-07
1.81309e-06
5.25211e-07
1.66639e-08
7.45342e-07
-1.66114e-06
9.5385e-07
-1.36934e-06
1.14471e-06
-9.66291e-07
1.30607e-06
-6.98008e-07
1.4526e-06
-5.61618e-07
1.61793e-06
-6.3887e-07
1.8388e-06
-9.45187e-07
2.07608e-06
-1.16395e-06
2.10528e-06
-3.79372e-07
1.64292e-06
1.60507e-06
9.22294e-07
2.7898e-06
2.04674e-07
3.83018e-06
-2.26827e-07
2.71726e-06
3.69976e-08
-1.75225e-06
2.86565e-07
-2.21842e-06
1.58184e-07
-3.83768e-07
2.74271e-07
-3.08139e-07
2.08737e-06
7.26435e-07
-7.09767e-07
7.90109e-07
-1.72483e-06
8.84856e-07
-1.46409e-06
1.00991e-06
-1.09135e-06
1.12466e-06
-8.12761e-07
1.22175e-06
-6.58715e-07
1.31594e-06
-7.33065e-07
1.43299e-06
-1.06223e-06
1.5705e-06
-1.30147e-06
1.56942e-06
-3.78288e-07
1.17562e-06
1.99886e-06
6.70619e-07
3.2948e-06
2.60256e-07
4.24055e-06
2.09693e-07
2.76783e-06
3.01008e-07
-1.84356e-06
2.59246e-07
-2.17666e-06
-1.23436e-07
-1.08446e-09
-1.46e-07
-2.85573e-07
1.94137e-06
6.84866e-07
-1.39463e-06
7.34233e-07
-1.7742e-06
7.89285e-07
-1.51914e-06
8.77017e-07
-1.17909e-06
9.55079e-07
-8.9083e-07
1.00342e-06
-7.07061e-07
1.02698e-06
-7.56625e-07
1.03864e-06
-1.0739e-06
1.05771e-06
-1.32054e-06
1.05074e-06
-3.71319e-07
8.09401e-07
2.24021e-06
4.73263e-07
3.63094e-06
3.41991e-07
4.37183e-06
6.1872e-07
2.4911e-06
5.39609e-07
-1.76445e-06
2.62109e-07
-1.89915e-06
-3.04775e-07
5.65802e-07
-4.73391e-07
-1.16955e-07
1.46798e-06
5.50762e-07
-1.94539e-06
6.23696e-07
-1.84714e-06
6.76871e-07
-1.57231e-06
7.44988e-07
-1.24721e-06
7.95451e-07
-9.41297e-07
8.01106e-07
-7.12718e-07
7.60406e-07
-7.15928e-07
6.72235e-07
-9.85726e-07
5.51899e-07
-1.2002e-06
5.19458e-07
-3.38879e-07
5.04891e-07
2.25478e-06
3.84379e-07
3.75145e-06
5.54797e-07
4.20141e-06
9.93212e-07
2.05269e-06
7.12518e-07
-1.48375e-06
2.64005e-07
-1.45064e-06
-3.27321e-07
1.15713e-06
-6.31866e-07
1.87592e-07
8.36113e-07
3.82792e-07
-2.32817e-06
4.99201e-07
-1.96355e-06
5.61797e-07
-1.6349e-06
6.17039e-07
-1.30244e-06
6.47113e-07
-9.7137e-07
6.21318e-07
-6.86922e-07
5.29664e-07
-6.24273e-07
3.59582e-07
-8.15642e-07
1.29944e-07
-9.70559e-07
5.16391e-08
-2.60574e-07
2.27396e-07
2.07903e-06
4.0535e-07
3.5735e-06
8.20796e-07
3.78597e-06
1.21403e-06
1.65946e-06
7.90906e-07
-1.06063e-06
2.57013e-07
-9.16748e-07
-1.93718e-07
1.60786e-06
-6.10107e-07
6.0398e-07
2.26005e-07
2.54691e-07
-2.58286e-06
4.01593e-07
-2.11045e-06
4.56859e-07
-1.69016e-06
4.95102e-07
-1.34068e-06
5.09425e-07
-9.8569e-07
4.65687e-07
-6.43181e-07
3.45597e-07
-5.04181e-07
1.27988e-07
-5.98031e-07
-1.51985e-07
-6.90584e-07
-2.93337e-07
-1.19221e-07
7.17727e-09
1.77851e-06
4.4725e-07
3.13342e-06
1.04674e-06
3.18647e-06
1.2773e-06
1.4289e-06
7.87373e-07
-5.70703e-07
2.42768e-07
-3.72146e-07
-2.38295e-08
1.87445e-06
-4.00088e-07
9.80237e-07
-1.74084e-07
-1.76408e-07
9.95189e-07
-3.99083e-07
9.5331e-07
-6.26223e-07
8.85191e-07
-8.47164e-07
8.19314e-07
-1.05657e-06
7.48178e-07
-1.25189e-06
6.62355e-07
-1.43405e-06
5.5855e-07
-1.60108e-06
4.32739e-07
-1.74598e-06
2.87953e-07
-1.87309e-06
1.58585e-07
-1.99229e-06
4.65387e-08
-2.10715e-06
-7.69949e-08
-2.2115e-06
-2.50497e-07
-2.30153e-06
-4.54182e-07
-2.37342e-06
-6.1867e-07
-2.41895e-06
-6.3815e-07
-2.32534e-06
-5.06883e-07
-1.85346e-06
-2.1969e-07
-1.0091e-06
4.89e-09
-1.43324e-07
-1.279e-07
3.50094e-07
-6.83156e-07
2.44972e-07
-1.28572e-06
-1.48088e-06
-2.10179e-07
-2.51797e-07
1.24698e-06
-4.98988e-07
1.2005e-06
-7.28858e-07
1.11506e-06
-9.50798e-07
1.04125e-06
-1.183e-06
9.8038e-07
-1.40797e-06
8.87311e-07
-1.61934e-06
7.69924e-07
-1.8247e-06
6.38095e-07
-2.02889e-06
4.9214e-07
-2.21453e-06
3.44224e-07
-2.36829e-06
2.00305e-07
-2.49133e-06
4.60447e-08
-2.60516e-06
-1.3667e-07
-2.71273e-06
-3.46606e-07
-2.79328e-06
-5.38117e-07
-2.78598e-06
-6.45444e-07
-2.60129e-06
-6.91573e-07
-2.10781e-06
-7.1317e-07
-1.34491e-06
-7.58012e-07
-5.92519e-07
-8.8029e-07
-1.36077e-07
-1.1396e-06
-9.30356e-09
-1.41249e-06
-1.55817e-06
6.79946e-08
-4.94338e-07
1.74132e-06
-7.91808e-07
1.49796e-06
-1.1693e-06
1.49254e-06
-1.51443e-06
1.38636e-06
-1.75894e-06
1.22489e-06
-1.95337e-06
1.08173e-06
-2.14723e-06
9.63771e-07
-2.33355e-06
8.24405e-07
-2.55244e-06
7.11019e-07
-2.75235e-06
5.44132e-07
-2.88701e-06
3.3496e-07
-2.95572e-06
1.14743e-07
-3.00974e-06
-8.26433e-08
-3.09703e-06
-2.59317e-07
-3.17329e-06
-4.61853e-07
-3.07867e-06
-7.40061e-07
-2.75708e-06
-1.01315e-06
-2.19893e-06
-1.2713e-06
-1.49399e-06
-1.46294e-06
-7.84335e-07
-1.58993e-06
-2.81458e-07
-1.64245e-06
3.83099e-09
-1.69776e-06
-1.86613e-06
3.11811e-07
4.29832e-07
1.3115e-06
3.19405e-07
1.60839e-06
-1.28812e-06
3.1001e-06
-3.01273e-06
3.111e-06
-2.7299e-06
9.42093e-07
-2.45362e-06
8.05474e-07
-2.59651e-06
1.10669e-06
-2.57258e-06
8.00493e-07
-2.551e-06
6.89458e-07
-2.6206e-06
6.13735e-07
-2.71251e-06
4.26866e-07
-2.76835e-06
1.70587e-07
-2.80392e-06
-4.70795e-08
-2.83959e-06
-2.23655e-07
-2.81045e-06
-4.91015e-07
-2.61788e-06
-9.32648e-07
-1.91176e-06
-1.7193e-06
-1.25991e-06
-1.92319e-06
-1.39536e-06
-1.32752e-06
-8.6004e-07
-2.1253e-06
-1.7962e-07
-2.3229e-06
3.30558e-07
-2.20793e-06
-2.33709e-06
8.01522e-07
-5.29018e-07
1.84054e-06
-6.34082e-07
1.71344e-06
-2.34203e-06
4.80804e-06
-4.12326e-06
4.89221e-06
-4.33536e-06
1.15419e-06
-4.5772e-06
1.04735e-06
-5.04838e-06
1.57789e-06
-4.69361e-06
4.45736e-07
-4.37418e-06
3.70034e-07
-3.86858e-06
1.08112e-07
-3.26104e-06
-1.80692e-07
-2.54878e-06
-5.41704e-07
-1.84928e-06
-7.46595e-07
-1.11581e-06
-9.5714e-07
-3.76054e-07
-1.2308e-06
3.57564e-07
-1.66632e-06
1.42308e-06
-2.7849e-06
2.43564e-06
-2.9358e-06
8.74652e-07
2.33513e-07
-2.82249e-07
-9.68358e-07
-7.5664e-07
-1.84851e-06
-3.80661e-07
-2.58373e-06
-3.2572e-06
5.39932e-07
-1.54331e-06
3.38386e-06
-1.98104e-06
2.15125e-06
1.29272e-06
1.53431e-06
4.88902e-06
1.2959e-06
2.74751e-06
3.29568e-06
-3.76542e-07
4.17138e-06
-2.20504e-06
3.40634e-06
-3.14099e-06
1.38164e-06
-3.80799e-06
1.037e-06
-3.55025e-06
-1.49653e-07
-3.01188e-06
-7.19078e-07
-2.4401e-06
-1.11348e-06
-1.98811e-06
-1.19855e-06
-1.74852e-06
-1.19668e-06
-1.75908e-06
-1.22018e-06
-2.01847e-06
-1.40688e-06
-2.62829e-06
-2.17504e-06
-2.61434e-06
-2.94973e-06
-2.2747e-06
-1.06123e-07
-3.46648e-06
2.2342e-07
-3.97783e-06
-1.33715e-06
-3.04116e-06
-3.52046e-06
-2.55756e-06
-3.74098e-06
4.06015e-07
2.97777e-06
-4.6838e-08
2.6041e-06
9.59458e-07
5.27998e-07
1.872e-06
3.83335e-07
1.58838e-06
3.57926e-06
1.22793e-06
4.53178e-06
7.7982e-07
3.85441e-06
-7.68633e-08
2.23828e-06
-4.32162e-07
1.39226e-06
-8.63105e-07
2.81293e-07
-1.16716e-06
-4.14988e-07
-1.57584e-06
-7.04733e-07
-2.16004e-06
-6.1427e-07
-2.96402e-06
-3.92616e-07
-3.82735e-06
-3.56748e-07
-4.02741e-06
-1.20666e-06
-3.73804e-06
-2.46426e-06
-4.37682e-06
-2.31083e-06
-4.01102e-06
-4.71878e-07
-4.24479e-06
4.57347e-07
-3.60238e-06
-1.97929e-06
-4.15092e-06
-2.97176e-06
-7.35684e-07
-5.97285e-06
6.04559e-07
2.37326e-06
1.06765e-06
2.14106e-06
6.73368e-07
9.22308e-07
-3.72018e-08
1.09392e-06
2.99102e-07
3.24296e-06
8.05062e-07
4.02582e-06
1.09787e-06
3.56158e-06
8.24035e-07
2.51208e-06
5.36105e-07
1.68013e-06
2.60388e-08
7.91296e-07
-5.78359e-07
1.89362e-07
-1.28936e-06
6.24768e-09
-2.0916e-06
1.87985e-07
-2.92279e-06
4.38571e-07
-3.56463e-06
2.85023e-07
-3.57247e-06
-1.19886e-06
-3.74015e-06
-2.2966e-06
-4.22958e-06
-1.82148e-06
-3.97736e-06
-7.24217e-07
-2.93293e-06
-5.87123e-07
-2.90441e-06
-2.0078e-06
-4.26153e-06
-1.61454e-06
-4.49062e-07
-4.54791e-06
4.68863e-07
1.90445e-06
6.79233e-07
1.93073e-06
1.25966e-07
1.47559e-06
-5.25774e-07
1.74569e-06
-2.44775e-07
2.96198e-06
3.05849e-07
3.4752e-06
6.61732e-07
3.20569e-06
6.3897e-07
2.53482e-06
4.3559e-07
1.88348e-06
-5.79555e-09
1.23264e-06
-5.79852e-07
7.63363e-07
-1.22348e-06
6.49817e-07
-1.82064e-06
7.85121e-07
-2.2721e-06
8.9005e-07
-2.48805e-06
5.0094e-07
-2.88028e-06
-8.06719e-07
-3.53801e-06
-1.63894e-06
-3.91808e-06
-1.4415e-06
-3.53256e-06
-1.10988e-06
-2.88609e-06
-1.23374e-06
-3.38654e-06
-1.50754e-06
-3.92349e-06
-1.07788e-06
-6.41398e-07
-3.73145e-06
2.4089e-07
1.66358e-06
2.35639e-07
1.93599e-06
-1.74241e-07
1.88549e-06
-5.98687e-07
2.17017e-06
-4.59513e-07
2.82284e-06
-9.88656e-08
3.11456e-06
1.53175e-07
2.95364e-06
1.78961e-07
2.50901e-06
3.52152e-08
2.0272e-06
-2.90798e-07
1.55861e-06
-7.47333e-07
1.21986e-06
-1.2286e-06
1.13102e-06
-1.60434e-06
1.16078e-06
-1.80436e-06
1.09005e-06
-1.92686e-06
6.23442e-07
-2.43958e-06
-2.94016e-07
-3.11311e-06
-9.65416e-07
-3.4158e-06
-1.13876e-06
-3.32335e-06
-1.20227e-06
-3.27697e-06
-1.28006e-06
-3.59889e-06
-1.18556e-06
-3.79709e-06
-8.79651e-07
-6.87926e-07
-3.75056e-06
6.27318e-08
1.60087e-06
-3.76899e-08
2.03641e-06
-3.29624e-07
2.17744e-06
-5.89712e-07
2.43028e-06
-5.51646e-07
2.7848e-06
-3.72399e-07
2.93533e-06
-2.33279e-07
2.81451e-06
-2.20425e-07
2.49614e-06
-3.28854e-07
2.1356e-06
-5.73452e-07
1.80318e-06
-9.21989e-07
1.56837e-06
-1.26285e-06
1.47186e-06
-1.5031e-06
1.401e-06
-1.63298e-06
1.21989e-06
-1.79363e-06
7.84082e-07
-2.19684e-06
1.0918e-07
-2.68546e-06
-4.76816e-07
-2.97415e-06
-8.50046e-07
-3.11097e-06
-1.06536e-06
-3.26764e-06
-1.12328e-06
-3.4756e-06
-9.77474e-07
-3.61837e-06
-7.36743e-07
-6.28402e-07
-3.67772e-06
-6.27917e-08
1.66366e-06
-1.90295e-07
2.1639e-06
-4.0217e-07
2.38932e-06
-5.73333e-07
2.60146e-06
-5.92057e-07
2.80354e-06
-5.27866e-07
2.87115e-06
-4.77415e-07
2.76406e-06
-4.89124e-07
2.50782e-06
-5.89468e-07
2.23591e-06
-7.84682e-07
1.99837e-06
-1.04299e-06
1.82667e-06
-1.27148e-06
1.70035e-06
-1.43132e-06
1.56084e-06
-1.53946e-06
1.32802e-06
-1.68904e-06
9.3367e-07
-1.98275e-06
4.02905e-07
-2.34327e-06
-1.16303e-07
-2.62043e-06
-5.72859e-07
-2.83001e-06
-8.55701e-07
-3.02051e-06
-9.3268e-07
-3.19908e-06
-7.988e-07
-3.32706e-06
-6.0866e-07
-5.41627e-07
-3.4137e-06
-1.35923e-07
1.79957e-06
-2.7314e-07
2.30112e-06
-4.3491e-07
2.5511e-06
-5.60877e-07
2.72744e-06
-6.05989e-07
2.84866e-06
-6.02856e-07
2.86802e-06
-6.03616e-07
2.76481e-06
-6.48157e-07
2.55234e-06
-7.51877e-07
2.3396e-06
-9.11319e-07
2.15779e-06
-1.08698e-06
2.00233e-06
-1.23579e-06
1.84918e-06
-1.34265e-06
1.66774e-06
-1.42684e-06
1.41225e-06
-1.54498e-06
1.05187e-06
-1.74825e-06
6.06228e-07
-2.00867e-06
1.44156e-07
-2.27441e-06
-3.07075e-07
-2.51566e-06
-6.14389e-07
-2.72303e-06
-7.25211e-07
-2.88466e-06
-6.37091e-07
-2.98291e-06
-5.10341e-07
-4.80551e-07
-3.04394e-06
-1.72819e-07
1.97237e-06
-3.15532e-07
2.44385e-06
-4.52083e-07
2.68767e-06
-5.56199e-07
2.83156e-06
-6.12224e-07
2.9047e-06
-6.38231e-07
2.89402e-06
-6.66599e-07
2.79316e-06
-7.34736e-07
2.62045e-06
-8.35545e-07
2.44037e-06
-9.55889e-07
2.27811e-06
-1.07011e-06
2.11655e-06
-1.16435e-06
1.94343e-06
-1.23338e-06
1.7368e-06
-1.29358e-06
1.47249e-06
-1.37885e-06
1.13717e-06
-1.51723e-06
7.44645e-07
-1.70552e-06
3.3247e-07
-1.94569e-06
-6.68934e-08
-2.18976e-06
-3.70306e-07
-2.40421e-06
-5.10723e-07
-2.55499e-06
-4.8629e-07
-2.62231e-06
-4.43024e-07
-4.51788e-07
-2.65112e-06
-1.89999e-07
2.16237e-06
-3.40214e-07
2.5941e-06
-4.67029e-07
2.81451e-06
-5.61909e-07
2.92646e-06
-6.23143e-07
2.96594e-06
-6.63985e-07
2.93485e-06
-7.07203e-07
2.83635e-06
-7.75142e-07
2.68835e-06
-8.59757e-07
2.52494e-06
-9.4309e-07
2.3614e-06
-1.01714e-06
2.19055e-06
-1.07486e-06
2.00112e-06
-1.11793e-06
1.77986e-06
-1.15935e-06
1.5139e-06
-1.22067e-06
1.19848e-06
-1.32056e-06
8.4452e-07
-1.46506e-06
4.76938e-07
-1.65943e-06
1.27428e-07
-1.88026e-06
-1.49527e-07
-2.08105e-06
-3.09985e-07
-2.20526e-06
-3.62151e-07
-2.26332e-06
-3.85068e-07
-4.3538e-07
-2.27987e-06
-1.99688e-07
2.36208e-06
-3.59461e-07
2.75392e-06
-4.83613e-07
2.9387e-06
-5.75456e-07
3.01834e-06
-6.39507e-07
3.03e-06
-6.87024e-07
2.98237e-06
-7.3319e-07
2.8825e-06
-7.88575e-07
2.74371e-06
-8.49177e-07
2.5855e-06
-9.05036e-07
2.4172e-06
-9.50375e-07
2.23584e-06
-9.83789e-07
2.03448e-06
-1.00922e-06
1.80525e-06
-1.03721e-06
1.54184e-06
-1.08267e-06
1.2439e-06
-1.15907e-06
9.20859e-07
-1.27381e-06
5.9161e-07
-1.42817e-06
2.81691e-07
-1.60382e-06
2.60211e-08
-1.76368e-06
-1.50232e-07
-1.87204e-06
-2.53924e-07
-1.92757e-06
-3.29683e-07
-4.16017e-07
-1.94711e-06
-2.09947e-07
2.57207e-06
-3.75775e-07
2.9198e-06
-5.00156e-07
3.06313e-06
-5.91246e-07
3.10946e-06
-6.56119e-07
3.0949e-06
-7.04227e-07
3.0305e-06
-7.45628e-07
2.92392e-06
-7.86903e-07
2.78498e-06
-8.26586e-07
2.62517e-06
-8.5991e-07
2.4505e-06
-8.84338e-07
2.26022e-06
-9.00655e-07
2.05074e-06
-9.13422e-07
1.81796e-06
-9.31109e-07
1.55947e-06
-9.64448e-07
1.27717e-06
-1.023e-06
9.79343e-07
-1.11199e-06
6.80512e-07
-1.23015e-06
3.99746e-07
-1.36332e-06
1.59078e-07
-1.48637e-06
-2.72934e-08
-1.57631e-06
-1.64098e-07
-1.62947e-06
-2.76652e-07
-3.89978e-07
-1.65564e-06
-2.21189e-07
2.79329e-06
-3.88917e-07
3.08758e-06
-5.13569e-07
3.18782e-06
-6.04164e-07
3.20009e-06
-6.68169e-07
3.15893e-06
-7.13637e-07
3.07599e-06
-7.48123e-07
2.95843e-06
-7.76548e-07
2.81343e-06
-7.99471e-07
2.6481e-06
-8.15503e-07
2.46652e-06
-8.24411e-07
2.2691e-06
-8.28126e-07
2.05442e-06
-8.31086e-07
1.82087e-06
-8.40005e-07
1.56833e-06
-8.62621e-07
1.29973e-06
-9.05493e-07
1.02215e-06
-9.71719e-07
7.46669e-07
-1.05901e-06
4.86966e-07
-1.15704e-06
2.57029e-07
-1.24954e-06
6.51316e-08
-1.32186e-06
-9.18407e-08
-1.37049e-06
-2.28077e-07
-3.59471e-07
-1.40105e-06
-2.29914e-07
3.02324e-06
-3.96772e-07
3.25447e-06
-5.21262e-07
3.31233e-06
-6.10724e-07
3.28957e-06
-6.72595e-07
3.22083e-06
-7.14117e-07
3.11754e-06
-7.41628e-07
2.98597e-06
-7.59524e-07
2.83135e-06
-7.69716e-07
2.65831e-06
-7.72914e-07
2.46973e-06
-7.70337e-07
2.26653e-06
-7.64506e-07
2.04857e-06
-7.59461e-07
1.81581e-06
-7.60472e-07
1.56932e-06
-7.73107e-07
1.31234e-06
-8.01768e-07
1.05079e-06
-8.48141e-07
7.93016e-07
-9.09903e-07
5.48703e-07
-9.79808e-07
3.26914e-07
-1.0474e-06
1.3272e-07
-1.10359e-06
-3.56479e-08
-1.14556e-06
-1.86085e-07
-3.28426e-07
-1.17658e-06
-2.34938e-07
3.25819e-06
-3.99569e-07
3.41911e-06
-5.2235e-07
3.43511e-06
-6.09134e-07
3.37637e-06
-6.67604e-07
3.27931e-06
-7.04577e-07
3.15453e-06
-7.25773e-07
3.00719e-06
-7.35442e-07
2.84105e-06
-7.36284e-07
2.65919e-06
-7.30195e-07
2.46367e-06
-7.19223e-07
2.25558e-06
-7.06111e-07
2.03548e-06
-6.94422e-07
1.80414e-06
-6.88288e-07
1.56321e-06
-6.91735e-07
1.31581e-06
-7.07718e-07
1.0668e-06
-7.3712e-07
8.22443e-07
-7.78008e-07
5.89619e-07
-8.25441e-07
3.74383e-07
-8.7275e-07
1.80077e-07
-9.1429e-07
5.95165e-09
-9.47969e-07
-1.52337e-07
-3.00592e-07
-9.75728e-07
-2.34564e-07
3.49276e-06
-3.98454e-07
3.58298e-06
-5.16557e-07
3.55322e-06
-5.98346e-07
3.45816e-06
-6.51994e-07
3.33297e-06
-6.83993e-07
3.18655e-06
-6.99618e-07
3.02284e-06
-7.0297e-07
2.84444e-06
-6.97101e-07
2.65336e-06
-6.84471e-07
2.45109e-06
-6.67503e-07
2.23866e-06
-6.48917e-07
2.01695e-06
-6.31803e-07
1.78708e-06
-6.19415e-07
1.55087e-06
-6.14707e-07
1.31116e-06
-6.19705e-07
1.07185e-06
-6.34893e-07
8.37694e-07
-6.58829e-07
6.13619e-07
-6.88216e-07
4.0384e-07
-7.18814e-07
2.10753e-07
-7.47052e-07
3.4276e-08
-7.71477e-07
-1.27822e-07
-2.78779e-07
-7.93198e-07
-2.29926e-07
3.72268e-06
-3.92701e-07
3.74574e-06
-5.02513e-07
3.66302e-06
-5.77024e-07
3.53267e-06
-6.24637e-07
3.38059e-06
-6.51414e-07
3.21334e-06
-6.62155e-07
3.0336e-06
-6.60705e-07
2.84302e-06
-6.50143e-07
2.64283e-06
-6.33089e-07
2.43408e-06
-6.12023e-07
2.21765e-06
-5.89494e-07
1.99448e-06
-5.68143e-07
1.76579e-06
-5.50554e-07
1.53335e-06
-5.38938e-07
1.29962e-06
-5.34739e-07
1.06773e-06
-5.38268e-07
8.41298e-07
-5.4853e-07
6.23957e-07
-5.63364e-07
4.18753e-07
-5.80064e-07
2.27538e-07
-5.96342e-07
5.06419e-08
-6.11179e-07
-1.12896e-07
-2.64725e-07
-6.25141e-07
-2.24709e-07
3.94737e-06
-3.78101e-07
3.89911e-06
-4.77375e-07
3.76227e-06
-5.43417e-07
3.59869e-06
-5.84468e-07
3.42163e-06
-6.06108e-07
3.23498e-06
-6.12666e-07
3.04017e-06
-6.0765e-07
2.83801e-06
-5.93968e-07
2.62917e-06
-5.74147e-07
2.41429e-06
-5.50533e-07
2.19408e-06
-5.2541e-07
1.9694e-06
-5.01007e-07
1.74144e-06
-4.79386e-07
1.51179e-06
-4.62239e-07
1.28253e-06
-4.50641e-07
1.0562e-06
-4.44841e-07
8.35566e-07
-4.44197e-07
6.23381e-07
-4.47315e-07
4.21942e-07
-4.52459e-07
2.3276e-07
-4.58134e-07
5.63962e-08
-4.63582e-07
-1.07368e-07
-2.592e-07
-4.69023e-07
-2.12073e-07
4.15943e-06
-3.49658e-07
4.03667e-06
-4.3867e-07
3.85126e-06
-4.96378e-07
3.65638e-06
-5.31015e-07
3.45625e-06
-5.47894e-07
3.25184e-06
-5.50983e-07
3.04325e-06
-5.43444e-07
2.83048e-06
-5.27908e-07
2.61364e-06
-5.06666e-07
2.39306e-06
-4.81811e-07
2.16924e-06
-4.55317e-07
1.94294e-06
-4.29032e-07
1.71519e-06
-4.04605e-07
1.4874e-06
-3.83351e-07
1.26132e-06
-3.66098e-07
1.03899e-06
-3.5308e-07
8.22602e-07
-3.43912e-07
6.14268e-07
-3.37706e-07
4.15796e-07
-3.33341e-07
2.2846e-07
-3.29811e-07
5.29348e-08
-3.26517e-07
-1.10592e-07
-2.62204e-07
-3.23437e-07
-1.87948e-07
4.34736e-06
-3.0923e-07
4.15792e-06
-3.87513e-07
3.92952e-06
-4.36731e-07
3.70557e-06
-4.64972e-07
3.48447e-06
-4.77391e-07
3.26424e-06
-4.7762e-07
3.04346e-06
-4.6843e-07
2.82128e-06
-4.52087e-07
2.5973e-06
-4.30551e-07
2.37153e-06
-4.05595e-07
2.14429e-06
-3.78855e-07
1.91621e-06
-3.51833e-07
1.68819e-06
-3.25832e-07
1.46143e-06
-3.01879e-07
1.2374e-06
-2.8063e-07
1.01778e-06
-2.62307e-07
8.04319e-07
-2.46702e-07
5.98707e-07
-2.33259e-07
4.02402e-07
-2.21247e-07
2.16502e-07
-2.09965e-07
4.17099e-08
-1.98912e-07
-1.21584e-07
-2.73158e-07
-1.87892e-07
-1.60011e-07
4.50736e-06
-2.62704e-07
4.26059e-06
-3.27541e-07
3.99433e-06
-3.66715e-07
3.74472e-06
-3.87907e-07
3.50564e-06
-3.95867e-07
3.27218e-06
-3.93677e-07
3.04126e-06
-3.83561e-07
2.81115e-06
-3.67305e-07
2.58103e-06
-3.46456e-07
2.35067e-06
-3.22419e-07
2.12025e-06
-2.96487e-07
1.89028e-06
-2.69832e-07
1.66154e-06
-2.43463e-07
1.43508e-06
-2.18174e-07
1.21213e-06
-1.94481e-07
9.94114e-07
-1.72593e-07
7.82462e-07
-1.52417e-07
5.78566e-07
-1.3361e-07
3.83636e-07
-1.15692e-07
1.98628e-07
-9.81555e-08
2.42201e-08
-8.05646e-08
-1.39127e-07
-2.91064e-07
-6.26066e-08
-1.31942e-07
4.63929e-06
-2.13335e-07
4.34195e-06
-2.61518e-07
4.04249e-06
-2.88352e-07
3.77153e-06
-3.01467e-07
3.51873e-06
-3.0484e-07
3.27554e-06
-3.00619e-07
3.03702e-06
-2.9024e-07
2.80075e-06
-2.74881e-07
2.56566e-06
-2.5561e-07
2.3314e-06
-2.33436e-07
2.09808e-06
-2.09304e-07
1.86615e-06
-1.84077e-07
1.63632e-06
-1.58504e-07
1.40951e-06
-1.33174e-07
1.18682e-06
-1.08487e-07
9.69446e-07
-8.46261e-08
7.58626e-07
-6.15679e-08
5.55535e-07
-3.91114e-08
3.6121e-07
-1.69373e-08
1.76488e-07
5.32955e-09
1.98823e-09
2.80765e-08
-1.61839e-07
-3.14638e-07
5.16865e-08
-1.04844e-07
4.74412e-06
-1.62816e-07
4.39988e-06
-1.90932e-07
4.07057e-06
-2.02909e-07
3.78348e-06
-2.07003e-07
3.5228e-06
-2.05859e-07
3.27437e-06
-2.00118e-07
3.03126e-06
-1.90174e-07
2.7908e-06
-1.76498e-07
2.55197e-06
-1.5965e-07
2.31454e-06
-1.40232e-07
2.07865e-06
-1.18847e-07
1.84476e-06
-9.60687e-08
1.61354e-06
-7.24019e-08
1.38585e-06
-4.82581e-08
1.16268e-06
-2.39245e-08
9.45126e-07
4.46441e-10
7.34271e-07
2.48408e-08
5.31159e-07
4.93651e-08
3.36707e-07
7.4224e-08
1.51651e-07
9.96974e-08
-2.34626e-08
1.26126e-07
-1.88246e-07
-3.42419e-07
1.53927e-07
-7.92636e-08
4.82336e-06
-1.11947e-07
4.43252e-06
-1.16207e-07
4.0748e-06
-1.10845e-07
3.77809e-06
-1.056e-07
3.51753e-06
-1.00525e-07
3.26928e-06
-9.40223e-08
3.02474e-06
-8.52872e-08
2.78205e-06
-7.40815e-08
2.54075e-06
-6.04703e-08
2.30092e-06
-4.46646e-08
2.06284e-06
-2.69404e-08
1.82703e-06
-7.59111e-09
1.59419e-06
1.31041e-08
1.36515e-06
3.49078e-08
1.14088e-06
5.76346e-08
9.22404e-07
8.11723e-08
7.10741e-07
1.05483e-07
5.06858e-07
1.30609e-07
3.11592e-07
1.56665e-07
1.25607e-07
1.83848e-07
-5.0634e-08
2.12454e-07
-2.16842e-07
-3.72857e-07
2.42901e-07
-5.36659e-08
4.877e-06
-5.90745e-08
4.43788e-06
-3.61072e-08
4.0518e-06
-1.20143e-08
3.75397e-06
1.30511e-09
3.50419e-06
9.23387e-09
3.26133e-06
1.55947e-08
3.01836e-06
2.23481e-08
2.77527e-06
3.03309e-08
2.53275e-06
3.99217e-08
2.29131e-06
5.1282e-08
2.05146e-06
6.44581e-08
1.81384e-06
7.94302e-08
1.57921e-06
9.61402e-08
1.34844e-06
1.14511e-07
1.12251e-06
1.34465e-07
9.02448e-07
1.55932e-07
6.89274e-07
1.78862e-07
4.83929e-07
2.03238e-07
2.87219e-07
2.29098e-07
9.97513e-08
2.5656e-07
-7.80906e-08
2.85861e-07
-2.4614e-07
-4.04394e-07
3.17401e-07
-1.54296e-08
4.8924e-06
1.07876e-08
4.41162e-06
5.43088e-08
4.00824e-06
9.12854e-08
3.71696e-06
1.11472e-07
3.48397e-06
1.20976e-07
3.25179e-06
1.26554e-07
3.01275e-06
1.30707e-07
2.77109e-06
1.3477e-07
2.52867e-06
1.39563e-07
2.28649e-06
1.45641e-07
2.04536e-06
1.53384e-07
1.80608e-06
1.6305e-07
1.56953e-06
1.74797e-07
1.33668e-06
1.88711e-07
1.10859e-06
2.04814e-07
8.86338e-07
2.23082e-07
6.71002e-07
2.43454e-07
4.63554e-07
2.65857e-07
2.64814e-07
2.90244e-07
7.53647e-08
3.16644e-07
-1.04489e-07
3.45228e-07
-2.74722e-07
-4.35523e-07
3.76359e-07
5.06907e-08
4.84168e-06
1.0387e-07
4.3584e-06
1.58681e-07
3.9534e-06
1.98624e-07
3.67699e-06
2.2242e-07
3.46015e-06
2.32988e-07
3.24119e-06
2.37339e-07
3.00837e-06
2.38243e-07
2.77016e-06
2.37576e-07
2.52931e-06
2.36689e-07
2.28735e-06
2.36578e-07
2.04545e-06
2.37977e-07
1.80466e-06
2.41416e-07
1.56607e-06
2.47265e-07
1.33081e-06
2.55761e-07
1.10008e-06
2.67026e-07
8.75065e-07
2.81077e-07
6.56944e-07
2.97842e-07
4.46785e-07
3.17185e-07
2.45468e-07
3.38959e-07
5.35906e-08
3.63086e-07
-1.28613e-07
3.89651e-07
-3.01283e-07
-4.64843e-07
4.18976e-07
1.39702e-07
4.70196e-06
2.20839e-07
4.27722e-06
2.79299e-07
3.8949e-06
3.15701e-07
3.64055e-06
3.36524e-07
3.43929e-06
3.46531e-07
3.23115e-06
3.48102e-07
3.00677e-06
3.44294e-07
2.77394e-06
3.37565e-07
2.53601e-06
3.29812e-07
2.29508e-06
3.22455e-07
2.05279e-06
3.16547e-07
1.81055e-06
3.12852e-07
1.56975e-06
3.11918e-07
1.33173e-06
3.14111e-07
1.09787e-06
3.19644e-07
8.69524e-07
3.28576e-07
6.48007e-07
3.40821e-07
4.34537e-07
3.56171e-07
2.30118e-07
3.74354e-07
3.54095e-08
3.9515e-07
-1.49404e-07
4.1854e-07
-3.24666e-07
-4.911e-07
4.44805e-07
2.37656e-07
4.46428e-06
3.56767e-07
4.15807e-06
4.16058e-07
3.83558e-06
4.4484e-07
3.61174e-06
4.59755e-07
3.42434e-06
4.64663e-07
3.22621e-06
4.59841e-07
3.01156e-06
4.48559e-07
2.78519e-06
4.33709e-07
2.55083e-06
4.17549e-07
2.31122e-06
4.01762e-07
2.06855e-06
3.8758e-07
1.82471e-06
3.75905e-07
1.58141e-06
3.67391e-07
1.34024e-06
3.625e-07
1.10276e-06
3.61517e-07
8.70502e-07
3.64547e-07
6.44975e-07
3.71499e-07
4.27585e-07
3.82086e-07
2.19533e-07
3.95881e-07
2.16197e-08
4.12468e-07
-1.65983e-07
4.31695e-07
-3.43884e-07
-5.13212e-07
4.53818e-07
3.36555e-07
4.1277e-06
5.01266e-07
3.99332e-06
5.67659e-07
3.76915e-06
5.9009e-07
3.58927e-06
5.95481e-07
3.41892e-06
5.88624e-07
3.23304e-06
5.72261e-07
3.02789e-06
5.49897e-07
2.80752e-06
5.24502e-07
2.5762e-06
4.98322e-07
2.33737e-06
4.73e-07
2.09385e-06
4.49731e-07
1.84797e-06
4.29399e-07
1.60173e-06
4.12673e-07
1.35695e-06
4.00056e-07
1.11537e-06
3.91895e-07
8.78661e-07
3.88357e-07
6.48514e-07
3.8937e-07
4.26574e-07
3.94585e-07
2.14322e-07
4.03386e-07
1.28253e-08
4.15081e-07
-1.7767e-07
4.29341e-07
-3.58132e-07
-5.30289e-07
4.46428e-07
4.49693e-07
3.67799e-06
6.5962e-07
3.78336e-06
7.37179e-07
3.69156e-06
7.51867e-07
3.57455e-06
7.39978e-07
3.43078e-06
7.14794e-07
3.25819e-06
6.82028e-07
3.06063e-06
6.45395e-07
2.84413e-06
6.07505e-07
2.61407e-06
5.70164e-07
2.3747e-06
5.3464e-07
2.12936e-06
5.01853e-07
1.88074e-06
4.72512e-07
1.63106e-06
4.47198e-07
1.38226e-06
4.26405e-07
1.13616e-06
4.10538e-07
8.94527e-07
3.99857e-07
6.59197e-07
3.94378e-07
4.32056e-07
3.93744e-07
2.14961e-07
3.97136e-07
9.44035e-09
4.03453e-07
-1.83978e-07
4.12115e-07
-3.66785e-07
-5.41638e-07
4.23473e-07
6.04885e-07
3.07308e-06
8.5678e-07
3.53142e-06
9.27376e-07
3.62093e-06
9.20325e-07
3.58157e-06
8.83284e-07
3.46779e-06
8.3501e-07
3.30644e-06
7.82946e-07
3.11267e-06
7.30523e-07
2.89653e-06
6.79504e-07
2.66507e-06
6.30878e-07
2.42331e-06
5.85269e-07
2.17496e-06
5.43144e-07
1.92286e-06
5.0491e-07
1.66928e-06
4.70983e-07
1.41618e-06
4.41807e-07
1.16533e-06
4.17841e-07
9.18494e-07
3.99494e-07
6.77546e-07
3.8698e-07
4.44573e-07
3.80074e-07
2.21872e-07
3.77797e-07
1.17228e-08
3.78424e-07
-1.84599e-07
3.81013e-07
-3.69366e-07
-5.4678e-07
3.86161e-07
8.22007e-07
2.25105e-06
1.0985e-06
3.25488e-06
1.1306e-06
3.5888e-06
1.0832e-06
3.62894e-06
1.01308e-06
3.53788e-06
9.39156e-07