/*--------------------------------*- C++ -*----------------------------------*\
  =========                 |
  \\      /  F ield         | OpenFOAM: The Open Source CFD Toolbox
   \\    /   O peration     | Website:  https://openfoam.org
    \\  /    A nd           | Version:  9
     \\/     M anipulation  |
\*---------------------------------------------------------------------------*/
FoamFile
{
    format      ascii;
    class       volScalarField;
    location    "5.12";
    object      alpha.water;
}
// * * * * * * * * * * * * * * * * * * * * * * * * * * * * * * * * * * * * * //

dimensions      [0 0 0 0 0 0 0];

internalField   nonuniform List<scalar> 
2268
(
1
0.999999
0.999999
0.999999
1
0.999999
1
0.999999
0.999998
0.999999
1
1
1
1
1
1
1
0.999942
0.999899
0.997174
0.996169
0.996514
0.996514
0.999999
0.999998
0.999998
0.999998
1
0.999999
0.999998
0.999998
0.999998
1
1
1
1
1
1
1
0.999964
0.999964
0.999964
0.999964
0.999816
0.999991
0.999592
0.999998
0.999997
0.999998
0.999999
1
0.999999
0.999999
0.999999
1
1
1
1
1
1
1
1
0.999727
0.996548
0.989711
0.997513
0.999571
0.999991
0.999991
1
0.999998
0.999999
0.999999
1
1
1
1
1
1
1
1
1
1
1
1
0.999814
0.980738
0.979894
0.98008
0.989555
0.999881
0.999972
1
0.999999
1
1
1
1
1
1
1
1
1
1
1
1
1
1
1
0.98466
0.979887
0.979887
0.986629
0.999866
0.99996
1
1
1
1
1
1
1
1
1
1
1
1
1
1
1
1
1
0.997675
0.979887
0.979887
0.99297
0.999992
0.999972
1
1
1
1
1
1
1
1
1
1
1
1
1
1
1
1
1
1
0.994701
0.992025
0.999119
0.999997
0.999998
1
1
1
1
1
1
1
1
1
1
1
1
1
1
1
0.999999
0.999999
0.999999
1
1
0.999998
0.999999
1
0.990155
0.991961
0.994335
0.99358
0.991677
0.99068
0.99068
0.99068
0.991448
0.997832
0.998724
0.99872
0.990362
0.975524
0.993654
0.998554
0.998554
0.997557
0.992877
0.990155
0.999742
0.999963
0.999963
0.999963
0.999596
0.998321
0.998334
0.999161
0.99875
0.998725
0.998724
0.987095
0.975527
0.998553
0.998554
0.998555
0.998498
0.992875
0.995614
0.999393
0.999958
0.999963
0.999939
0.999919
0.999915
0.999915
0.999767
0.998816
0.998668
0.994723
0.960229
0.98113
0.998554
0.998555
0.998555
0.998532
0.992876
0.999876
0.999923
0.999879
0.99995
0.999964
0.999964
0.99988
0.998635
0.998391
0.997142
0.971718
0.960337
0.960178
0.976613
0.998554
0.998554
0.998555
0.998553
0.995747
0.999889
0.999969
0.999957
0.999956
0.999964
0.999964
0.999001
0.998136
0.998249
0.995657
0.960167
0.960167
0.960167
0.979637
0.998545
0.998551
0.991311
0.998051
0.998485
0.999982
0.999991
0.999991
0.999979
0.999949
0.999961
0.999493
0.998908
0.999622
0.998913
0.978938
0.960167
0.960172
0.997929
0.998543
0.99812
0.97461
0.996448
0.998486
0.999991
0.999991
0.999991
0.999975
0.999852
0.999852
0.999918
0.999976
0.999976
0.999266
0.992955
0.979565
0.991098
0.998542
0.998542
0.99746
0.974595
0.994415
0.998486
0.999994
0.999993
0.999992
0.999992
0.999992
0.999991
0.999991
0.999991
0.998375
0.99671
0.997352
0.99852
0.998525
0.998541
0.998542
0.998527
0.974586
0.969289
0.99759
1
0.999999
1
1
1
1
1
1
1
0.999999
0.999999
0.999999
0.999999
1
1
1
1
1
1
1
1
1
1
0.947869
0.947772
0.949602
0.95175
0.954771
0.958455
0.962385
0.966321
0.970772
0.974292
0.976584
0.978469
0.980297
0.982283
0.984596
0.987976
0.992602
0.99816
1
1
1
1
1
0.253871
0.257639
0.261631
0.266322
0.270757
0.275501
0.280905
0.286783
0.293059
0.300504
0.309327
0.318984
0.328999
0.339263
0.349505
0.359525
0.369403
0.380902
0.395125
0.404384
0.409935
0.416982
0.429675
0.000687183
0.000685855
0.000685198
0.000685803
0.000685198
0.000686588
0.000692452
0.000690409
0.000686961
0.000684841
0.000684125
0.000684694
0.000684205
0.000716089
0.000897114
0.0012308
0.00170613
0.00230513
0.00158921
0.00194898
0.00239178
0.00230713
0.0019239
0.00174235
0.00174226
0.00151413
0.000945134
0.00208505
0.00413157
0.00480363
0.00505284
0.0051893
0.00534771
0.00539819
0.00539923
0.00539945
0.00539914
0.00539526
0.0053948
0.00539433
0.00234072
0.0011726
0.00193013
0.00237155
0.0021323
0.000944671
0.00123323
0.00138548
0.00143719
0.00155661
0.00155656
0.000374848
0.000114396
0.000335483
0.000537734
0.000714749
0.000936719
0.00120445
0.00136018
0.00133341
0.00123226
0.00100043
0.00135542
0.00161325
0.00117132
0.00117905
0.00106169
0.000794346
0.000567578
0.000254375
0.000170036
0.000221006
0.000294118
5.09365e-05
7.50502e-05
8.94096e-07
8.03658e-09
8.03655e-09
8.03658e-09
8.03655e-09
8.06874e-09
9.14398e-09
1.11397e-08
1.12095e-08
4.55267e-07
1.33759e-05
0.00013084
0.000244359
0.000112279
0.000101018
0.000167198
0.000569426
9.14445e-10
9.12768e-10
9.4908e-10
1.025e-09
1.06461e-09
1.13587e-09
1.08927e-05
4.64095e-06
8.03658e-09
8.03655e-09
3.84672e-08
1.12218e-06
2.20656e-06
9.75267e-07
1.00452e-08
1.13945e-08
6.45771e-05
0.000144643
0.00014438
7.35632e-05
8.45525e-05
0.000306731
0.000478869
1.13746e-09
2.05232e-08
5.00127e-08
1.03691e-08
1.24685e-09
5.71835e-10
7.72629e-09
5.61437e-10
1.29464e-08
8.07621e-09
6.98269e-07
3.8196e-06
3.81995e-06
2.0162e-06
9.66856e-09
2.34102e-08
1.67113e-05
5.79248e-05
7.27093e-05
7.33303e-05
0.000125304
0.000145857
0.000101852
1.67059e-09
1.13646e-07
1.51504e-07
5.35275e-08
5.55073e-10
5.55073e-10
5.55073e-10
5.5511e-10
1.43128e-09
1.08438e-07
1.07109e-06
3.81994e-06
3.59509e-06
8.99497e-08
9.47795e-09
8.16585e-08
8.35595e-08
5.896e-08
1.06388e-06
1.05441e-05
1.42525e-05
2.07311e-08
2.22034e-08
2.0667e-09
1.14847e-07
1.51504e-07
5.21501e-08
5.55073e-10
5.55073e-10
5.5511e-10
3.28011e-08
1.11567e-06
2.16892e-06
2.13068e-06
3.44623e-07
3.80685e-08
5.55327e-09
9.47628e-09
1.06745e-08
3.56855e-09
5.2936e-08
4.77292e-07
1.27125e-06
4.79214e-07
2.01568e-08
1.98677e-08
1.29888e-09
4.17418e-09
3.64051e-08
1.0124e-08
5.55074e-10
5.55234e-10
5.62075e-10
1.00164e-06
2.16859e-06
2.16894e-06
1.11268e-06
1.73292e-09
1.82046e-09
1.81858e-09
1.15161e-09
8.83884e-11
1.29107e-10
8.15163e-07
5.71882e-06
6.56168e-06
5.86793e-06
1.66009e-06
1.98669e-08
1.29888e-09
1.76051e-09
5.73417e-11
5.63527e-11
1.21995e-09
1.43289e-09
1.7867e-09
7.8869e-07
1.64793e-06
7.58486e-07
2.23261e-08
1.73219e-09
2.95235e-09
1.92268e-09
7.21144e-11
6.76933e-11
8.89237e-11
1.41778e-06
6.56168e-06
6.56168e-06
6.56168e-06
4.30523e-06
1.98669e-08
6.39789e-08
1.29689e-07
3.34591e-09
5.5032e-11
1.11079e-09
5.87702e-09
4.56466e-08
1.03667e-07
1.56151e-08
1.23301e-09
4.22413e-10
1.73377e-09
2.31104e-09
5.80097e-10
7.23728e-11
6.57977e-11
2.87695e-10
1.14582e-07
1.40982e-06
4.81553e-06
4.50353e-06
2.57301e-07
1.98669e-08
1.51055e-07
2.11524e-07
1.73362e-08
5.31996e-11
1.89816e-09
5.72911e-09
6.73216e-09
3.61938e-10
1.24347e-10
5.04494e-11
1.64522e-10
4.2843e-10
2.91376e-10
7.81802e-11
6.61894e-11
6.57861e-11
7.08278e-11
9.12693e-11
6.47813e-09
8.39571e-08
8.85746e-08
1.10998e-08
4.95227e-08
1.99544e-07
2.11525e-07
1.71483e-08
5.24805e-11
1.12826e-09
1.47902e-09
5.54993e-10
1.13496e-10
5.99641e-11
1.50061e-11
1.17545e-11
1.54745e-11
3.73917e-12
1.22297e-11
3.3031e-11
5.19337e-11
6.91827e-11
7.01543e-11
7.3981e-11
7.98675e-11
5.11061e-11
2.81427e-09
2.33821e-08
2.19588e-07
2.05461e-07
3.24591e-11
5.24626e-11
4.04376e-10
2.52028e-10
6.91239e-11
3.50032e-11
1.41722e-11
1.75109e-12
8.7578e-14
1.29373e-14
2.06695e-15
4.32307e-13
6.45599e-12
2.92905e-11
6.39749e-11
8.33734e-11
8.56798e-11
7.96897e-11
4.91894e-11
4.04583e-11
1.79431e-10
2.76664e-07
2.09058e-07
3.24785e-11
3.43023e-11
9.71407e-11
5.43534e-11
9.30484e-12
2.75532e-12
3.69444e-13
-2.87922e-13
-1.15436e-12
-1.29581e-12
-1.11895e-12
-6.04389e-13
1.3498e-13
3.72411e-12
1.9018e-11
3.66214e-11
4.39063e-11
4.25208e-11
3.73539e-11
2.18189e-11
7.74352e-12
2.76673e-07
2.44142e-07
2.19575e-09
3.15761e-11
3.15641e-11
1.64086e-11
7.88193e-13
1.00974e-31
-8.98177e-13
-1.48422e-12
-1.88476e-12
-1.93851e-12
-1.75229e-12
-1.40103e-12
-9.21091e-13
-2.3164e-13
3.93683e-13
1.81122e-12
3.96247e-12
5.77969e-12
6.86562e-12
6.12922e-12
3.41437e-12
2.76673e-07
2.757e-07
8.0951e-09
3.1585e-11
3.31193e-11
1.42021e-11
2.30955e-14
-5.85689e-13
-1.23352e-12
-1.6563e-12
-1.85471e-12
-1.8528e-12
-1.70443e-12
-1.46793e-12
-1.1853e-12
-8.81462e-13
-5.83009e-13
-2.79236e-13
3.7274e-15
3.71434e-14
7.44341e-14
1.95042e-13
3.24478e-13
2.76673e-07
2.74029e-07
3.34591e-11
3.34334e-11
6.7878e-11
1.50548e-11
3.27037e-13
-3.7945e-13
-8.35731e-13
-1.14783e-12
-1.29087e-12
-1.31407e-12
-1.24248e-12
-1.10449e-12
-9.30881e-13
-7.49633e-13
-5.78869e-13
-4.28167e-13
-3.00163e-13
-2.04351e-13
-1.31426e-13
-6.81722e-14
-1.64308e-14
1.56519e-07
1.57705e-07
3.36155e-11
9.38359e-11
1.50153e-10
2.32525e-11
2.28654e-12
6.89249e-13
-4.21314e-14
-3.64575e-13
-5.6052e-13
-6.64197e-13
-6.87377e-13
-6.5131e-13
-5.75849e-13
-4.81988e-13
-3.86163e-13
-2.98501e-13
-2.24674e-13
-1.65642e-13
-1.1903e-13
-8.13278e-14
-5.07025e-14
1.12148e-09
4.33891e-09
1.45139e-10
2.55364e-10
2.07775e-10
3.79737e-11
8.65125e-12
5.65768e-12
3.26873e-12
1.26126e-12
2.14728e-13
-1.27747e-13
-2.49812e-13
-2.94527e-13
-2.90116e-13
-2.58984e-13
-2.16019e-13
-1.70697e-13
-1.30142e-13
-9.71618e-14
-7.15937e-14
-5.16559e-14
-3.53317e-14
6.83273e-11
7.00416e-11
2.36891e-10
2.94804e-10
2.21391e-10
4.93612e-11
2.06837e-11
1.63386e-11
1.14471e-11
6.25411e-12
2.57225e-12
6.75616e-13
3.26949e-14
-8.3773e-14
-1.1711e-13
-1.18086e-13
-1.05312e-13
-8.55722e-14
-6.56004e-14
-4.86302e-14
-3.55204e-14
-2.5779e-14
-1.82396e-14
6.83273e-11
7.01089e-11
2.31988e-10
2.9256e-10
1.89592e-10
5.4996e-11
3.54051e-11
3.02407e-11
2.30839e-11
1.45896e-11
7.02295e-12
2.41778e-12
5.01537e-13
1.91673e-14
-3.66707e-14
-4.64443e-14
-4.60279e-14
-3.87471e-14
-2.97847e-14
-2.16927e-14
-1.53777e-14
-1.08652e-14
-7.7065e-15
7.26158e-11
6.06375e-11
1.50656e-10
1.95606e-10
1.17584e-10
5.58697e-11
4.81712e-11
4.36933e-11
3.45155e-11
2.41133e-11
1.28653e-11
4.74913e-12
1.01948e-12
8.7719e-14
-9.24895e-15
-1.66608e-14
-1.86768e-14
-1.62751e-14
-1.25003e-14
-8.90367e-15
-6.06371e-15
-4.06067e-15
-2.77454e-15
1.09267e-10
5.22246e-11
5.2675e-11
5.72784e-11
5.72004e-11
5.42779e-11
5.38513e-11
5.34549e-11
4.40155e-11
3.21818e-11
1.80248e-11
6.54365e-12
1.23408e-12
8.76246e-14
-2.16081e-15
-5.87028e-15
-7.21348e-15
-6.45418e-15
-4.95709e-15
-3.45123e-15
-2.24866e-15
-1.40853e-15
-8.89612e-16
3.79432e-10
5.20851e-11
5.20288e-11
5.19531e-11
5.1903e-11
5.26248e-11
5.39747e-11
5.58506e-11
5.02874e-11
3.70599e-11
2.09422e-11
7.12942e-12
1.14288e-12
5.40139e-14
-5.63171e-16
-2.14806e-15
-2.72978e-15
-2.46077e-15
-1.86208e-15
-1.25788e-15
-7.84318e-16
-4.61386e-16
-2.6716e-16
1.44975e-09
1.96206e-08
1.75883e-07
1.0657e-07
5.14262e-11
5.14216e-11
5.2496e-11
5.58506e-11
5.1603e-11
3.83703e-11
2.13298e-11
6.72738e-12
8.01958e-13
2.03868e-14
-1.41408e-16
-7.8348e-16
-1.00515e-15
-8.95713e-16
-6.61861e-16
-4.33524e-16
-2.60164e-16
-1.4701e-16
-7.97941e-17
2.6948e-09
1.9881e-07
8.35643e-07
8.11794e-07
1.15195e-07
5.14192e-11
5.14162e-11
5.5658e-11
5.05594e-11
3.74587e-11
1.97069e-11
5.15427e-12
3.98794e-13
4.88248e-15
-2.42169e-17
-2.97462e-16
-3.67813e-16
-3.15416e-16
-2.24744e-16
-1.41545e-16
-8.159e-17
-4.40137e-17
-2.23869e-17
2.7729e-09
2.69125e-07
8.36512e-07
8.36512e-07
2.99776e-07
5.14162e-11
5.14141e-11
5.39441e-11
4.7434e-11
3.35477e-11
1.55362e-11
3.05449e-12
1.40152e-13
7.40827e-16
-2.93648e-18
-1.18875e-16
-1.32506e-16
-1.07148e-16
-7.27407e-17
-4.37818e-17
-2.41125e-17
-1.23533e-17
-5.96023e-18
2.77334e-09
1.67929e-07
8.36512e-07
8.36485e-07
2.32889e-07
1.19926e-10
5.06076e-11
5.06093e-11
4.20269e-11
2.69736e-11
1.01608e-11
1.33317e-12
3.21648e-14
7.17694e-17
-1.75223e-17
-4.6926e-17
-4.64307e-17
-3.49436e-17
-2.23239e-17
-1.27296e-17
-6.61984e-18
-3.18379e-18
-1.43511e-18
2.83276e-09
2.58325e-08
5.02011e-07
3.55132e-07
4.3022e-08
1.40474e-10
5.37946e-11
4.602e-11
3.44178e-11
1.8864e-11
5.14881e-12
3.85404e-13
4.19932e-15
3.68215e-18
-1.16025e-17
-1.78065e-17
-1.56234e-17
-1.08049e-17
-6.41235e-18
-3.4129e-18
-1.64953e-18
-7.3488e-19
-3.05576e-19
3.28461e-09
2.45047e-09
4.91365e-09
3.04109e-10
1.01137e-10
1.01101e-10
5.59298e-11
3.90099e-11
2.4862e-11
1.05025e-11
1.75368e-12
6.06113e-14
2.41258e-16
5.78367e-20
-5.47979e-18
-6.41954e-18
-4.95567e-18
-3.10671e-18
-1.69075e-18
-8.27005e-19
-3.66353e-19
-1.49052e-19
-5.63417e-20
3.34768e-09
2.44057e-09
7.62341e-10
2.89418e-10
1.39343e-10
8.1072e-11
4.73166e-11
2.81062e-11
1.4224e-11
3.95449e-12
3.24655e-13
4.13963e-15
4.82508e-18
-6.1291e-19
-2.39624e-18
-2.19234e-18
-1.4626e-18
-8.17268e-19
-4.01682e-19
-1.77717e-19
-7.10622e-20
-2.59843e-20
-8.77839e-21
2.85852e-09
2.46604e-09
1.2659e-09
5.74629e-10
2.34114e-10
8.19139e-11
3.38549e-11
1.55081e-11
5.36924e-12
7.88232e-13
2.50729e-14
9.92331e-17
2.80037e-20
-6.66101e-19
-9.68554e-19
-7.12098e-19
-4.0114e-19
-1.94753e-19
-8.45874e-20
-3.32397e-20
-1.17816e-20
-3.79845e-21
-1.12354e-21
1.11644e-09
1.43747e-09
1.06536e-09
5.77942e-10
2.34363e-10
7.17595e-11
1.974e-11
5.60559e-12
1.0345e-12
6.19364e-14
6.2916e-16
7.03137e-19
-4.30226e-20
-3.69352e-19
-3.6963e-19
-2.22613e-19
-1.0324e-19
-4.2027e-20
-1.56287e-20
-5.32167e-21
-1.63318e-21
-4.52987e-22
-1.14234e-22
9.59097e-11
2.4919e-10
3.80356e-10
2.96962e-10
1.41824e-10
3.96249e-11
7.20819e-12
1.0285e-12
7.68081e-14
1.51085e-15
4.81445e-18
1.4542e-21
-1.00077e-19
-1.74021e-19
-1.35238e-19
-6.77882e-20
-2.53318e-20
-8.30003e-21
-2.52894e-21
-7.20166e-22
-1.85087e-22
-4.26578e-23
-8.83477e-24
7.43792e-13
6.72876e-12
3.21334e-11
4.38235e-11
2.87281e-11
8.65286e-12
1.13264e-12
7.26478e-14
1.83857e-15
1.18018e-17
1.34602e-20
-1.44049e-20
-6.45229e-20
-7.45941e-20
-4.78965e-20
-2.03734e-20
-6.24076e-21
-1.58638e-21
-3.69385e-22
-8.26351e-23
-1.67994e-23
-3.03838e-24
-4.86848e-25
1.90311e-16
1.83279e-14
4.04482e-13
1.19577e-12
1.15819e-12
4.52359e-13
5.11672e-14
1.64318e-15
1.59563e-17
4.81937e-20
1.46482e-23
-1.66402e-20
-3.31584e-20
-3.00761e-20
-1.65482e-20
-6.09287e-21
-1.57074e-21
-3.06888e-22
-5.11727e-23
-8.15269e-24
-1.1857e-24
-1.51447e-25
-1.68428e-26
-1.70376e-26
7.34551e-18
7.39354e-16
4.90166e-15
7.08183e-15
3.86306e-15
4.93059e-16
1.22629e-17
8.28576e-20
9.93922e-23
-2.59068e-21
-1.09195e-20
-1.52213e-20
-1.16117e-20
-5.62034e-21
-1.8267e-21
-4.05531e-22
-6.20099e-23
-7.12319e-24
-7.05986e-25
-6.08808e-26
-4.38189e-27
-2.66492e-28
-7.02364e-26
8.95761e-22
3.16944e-19
8.10912e-18
2.28404e-17
6.81593e-18
9.65318e-19
3.13575e-20
2.1066e-22
-2.34292e-22
-2.52847e-21
-5.82551e-21
-6.50258e-21
-4.34451e-21
-1.89449e-21
-5.57052e-22
-1.10203e-22
-1.41522e-23
-1.14648e-24
-5.75921e-26
-1.76328e-27
-3.49817e-29
-5.22214e-31
1
1
1
1
1
0.999427
0.999039
0.997974
0.434665
0.436559
0.439055
0.441117
0.00177283
0.002318
0.00240711
0.00242661
0.000964959
0.00169344
0.00167
0.00150398
0.00141872
0.00170097
0.0014861
0.000650257
0.000611944
0.000470226
0.000319391
0.000656105
0.000333476
0.000184445
9.81993e-05
0.000125069
4.60005e-05
1.60408e-05
4.48087e-06
3.65012e-07
1.06553e-07
1.77093e-07
3.61165e-07
3.64189e-07
1.06189e-07
1.56322e-07
9.04295e-08
4.60231e-08
1.99088e-08
3.55031e-08
3.97047e-08
3.18031e-08
1.98668e-08
1.98672e-08
2.50519e-08
3.47816e-08
1.98669e-08
2.27531e-08
2.79372e-08
2.80572e-08
4.95167e-08
1.58978e-08
2.52984e-09
3.0604e-09
2.17202e-08
2.2757e-09
2.31283e-09
8.11633e-09
5.45931e-10
1.52141e-09
2.72299e-09
3.26942e-09
7.03831e-12
8.65763e-11
2.11892e-10
6.85499e-11
2.32793e-12
2.10131e-12
1.92024e-12
1.40425e-12
4.03349e-13
4.11188e-13
4.33625e-13
4.43301e-13
2.666e-15
5.12575e-15
1.09405e-14
1.82555e-14
-2.81208e-14
-2.19219e-14
-1.7048e-14
-1.3092e-14
-2.1981e-14
-1.77862e-14
-1.46392e-14
-1.22808e-14
-1.1821e-14
-9.44515e-15
-7.61487e-15
-6.30671e-15
-5.16778e-15
-4.06372e-15
-3.14939e-15
-2.45901e-15
-1.91568e-15
-1.49092e-15
-1.13193e-15
-8.2873e-16
-6.25531e-16
-4.74297e-16
-3.56019e-16
-2.54676e-16
-1.90356e-16
-1.38371e-16
-9.96228e-17
-6.97244e-17
-5.57548e-17
-3.87662e-17
-2.65317e-17
-1.78937e-17
-1.52931e-17
-1.02039e-17
-6.67686e-18
-4.29691e-18
-3.90521e-18
-2.49282e-18
-1.5557e-18
-9.51007e-19
-8.93918e-19
-5.42333e-19
-3.21109e-19
-1.85809e-19
-1.79306e-19
-1.02363e-19
-5.69361e-20
-3.08937e-20
-3.07717e-20
-1.63199e-20
-8.41569e-21
-4.22491e-21
-4.39569e-21
-2.13159e-21
-1.00237e-21
-4.57727e-22
-5.05912e-22
-2.19816e-22
-9.23005e-23
-3.75173e-23
-4.50654e-23
-1.7077e-23
-6.22739e-24
-2.18987e-24
-2.94164e-24
-9.35772e-25
-2.8508e-25
-8.33905e-26
-1.28965e-25
-3.24712e-26
-7.79451e-27
-1.78972e-27
-3.19381e-27
-5.74786e-28
-9.85217e-29
-1.61443e-29
-2.87385e-29
-2.97576e-30
-2.97012e-31
-2.86605e-32
-1.40762e-32
-3.83487e-34
-1.08907e-35
-3.24627e-37
1
1
1
1
0.997271
0.990744
0.988895
0.991271
0.99501
0.997831
0.998477
0.998489
0.99852
0.99854
0.99854
0.996001
0.978936
0.966066
0.973097
0.994778
0.990203
0.985586
0.981741
0.979223
0.974981
0.965888
0.955789
0.950315
0.957074
0.969844
0.974078
0.968255
0.952279
0.943011
0.947037
0.953512
0.956654
0.957497
0.444861
0.440737
0.436355
0.432462
0.428164
0.425479
0.425284
0.422224
0.41434
0.399598
0.384438
0.373466
0.364862
0.35808
0.350606
0.345806
0.347813
0.345632
0.339252
0.00157438
0.00141
0.00133347
0.00124576
0.00190944
0.00229481
0.00176577
0.00131715
0.000942426
0.000848258
0.000848133
0.000847901
0.000847645
0.000847317
0.000847023
0.000846367
0.000845759
0.000845758
0.000845759
0.000543663
0.000538016
0.000533367
0.000528028
0.000940541
0.00208172
0.00135692
0.0012009
0.00121158
0.00108495
0.00104732
0.00106856
0.00116796
0.00122663
0.00136953
0.00133888
0.00123579
0.000845759
0.000845757
0.000546655
0.000994233
0.000994402
0.000528028
0.00105614
0.00180048
0.00182426
0.00179869
0.00176267
0.00176264
0.00176196
0.00176007
0.00145087
0.00135555
0.00136968
0.00128879
0.00117219
0.00106845
0.000859758
0.000996987
0.000996787
0.000995709
0.000994806
0.000873583
0.00045113
0.000270583
0.000295217
0.000251864
0.00021616
0.00021143
0.000202567
0.000312839
0.000340395
0.000275102
0.000211051
0.000130535
0.00037399
0.000464922
0.000330686
0.000200405
0.000145086
0.000294499
9.71626e-05
1.72434e-06
1.69833e-07
2.22227e-07
2.29072e-07
2.35912e-07
2.78211e-07
3.74158e-07
4.51687e-07
4.71871e-07
4.722e-07
1.86547e-06
8.26272e-07
7.6287e-07
7.63189e-07
1.57981e-08
1.52733e-08
1.52994e-08
1.54553e-08
1.56227e-08
2.37754e-08
1.34906e-07
1.35301e-07
8.07153e-06
3.84882e-05
4.76679e-05
4.40772e-05
1.93129e-05
2.21981e-06
6.10371e-07
6.1548e-07
7.37418e-07
7.6267e-07
7.6287e-07
1.40255e-08
1.46316e-08
1.49739e-08
1.52979e-08
1.54553e-08
1.56227e-08
1.80363e-08
5.64594e-06
6.52478e-05
6.64284e-05
6.64284e-05
6.2556e-05
8.67006e-06
2.62361e-06
9.88049e-07
7.74551e-07
8.26807e-07
8.10068e-07
7.68717e-07
1.40255e-08
1.40255e-08
5.22516e-07
3.79136e-06
3.60156e-06
6.22444e-07
7.55736e-07
4.13427e-05
6.63128e-05
5.95799e-05
1.57407e-05
1.57518e-05
3.19764e-05
3.63638e-05
2.51186e-05
1.78799e-05
6.31608e-06
9.05715e-07
7.8311e-07
1.41607e-08
1.44159e-08
6.80546e-06
2.16671e-05
2.09144e-05
5.22049e-06
5.62141e-06
5.69173e-05
5.57664e-05
1.45897e-06
1.14068e-05
4.07243e-05
4.33086e-05
4.3311e-05
4.32807e-05
4.32301e-05
3.96203e-05
2.2338e-06
1.32946e-06
3.50527e-08
5.08618e-07
1.65045e-05
2.1667e-05
2.16672e-05
2.16669e-05
1.6628e-05
6.49414e-06
1.41264e-09
1.41147e-07
2.76453e-05
4.17498e-05
4.17978e-05
1.83339e-05
5.343e-06
8.34463e-06
7.58264e-06
1.45343e-05
1.69441e-05
2.80658e-08
6.72754e-08
5.51058e-06
2.09455e-05
2.16669e-05
5.4547e-06
6.06242e-07
3.86144e-10
1.34978e-09
1.19494e-07
4.61602e-06
9.98182e-06
1.0773e-06
1.64917e-10
1.64977e-10
1.75871e-10
1.79935e-06
1.6944e-05
1.69441e-05
2.84443e-08
1.14282e-07
2.68106e-07
1.21408e-06
1.60383e-06
2.21689e-07
1.6884e-10
3.84822e-10
4.23618e-08
1.85979e-07
1.65443e-10
1.65128e-10
1.64917e-10
1.64856e-10
1.64917e-10
1.83538e-10
6.41078e-06
1.69439e-05
1.6944e-05
4.97269e-08
8.91942e-08
5.91345e-08
3.49021e-08
1.88627e-08
1.4457e-09
1.6866e-10
5.29434e-10
7.60815e-09
1.52175e-08
4.99196e-09
4.05589e-10
3.51719e-10
1.64856e-10
1.64519e-10
1.51273e-10
8.4033e-07
4.93506e-06
1.11186e-05
4.93942e-09
6.90336e-09
1.72455e-07
3.00087e-07
2.16277e-07
9.48172e-10
1.68664e-10
1.76057e-10
4.06251e-10
8.55799e-10
1.8562e-09
1.85709e-09
8.99674e-10
1.66184e-10
1.7978e-10
1.51064e-10
4.81532e-12
4.81532e-12
4.81532e-12
1.06565e-12
1.58387e-10
1.40578e-07
3.00082e-07
3.00087e-07
2.96153e-07
1.07271e-07
1.76133e-10
2.06382e-10
1.3152e-09
4.13088e-09
5.78424e-10
3.27271e-10
1.99781e-10
2.28522e-10
1.98424e-10
2.68036e-11
4.81532e-12
4.81532e-12
1.05867e-12
7.05392e-13
3.62903e-09
7.40585e-08
2.5567e-07
2.96791e-07
2.37176e-07
6.93912e-09
5.2828e-09
4.97895e-08
7.46242e-08
3.5386e-08
6.09271e-09
1.64958e-10
2.25915e-10
2.10104e-10
5.09179e-11
5.13299e-12
4.81544e-12
4.33561e-13
1.88865e-13
4.26339e-15
3.03458e-10
1.13025e-08
3.04628e-08
2.56264e-08
1.26472e-08
5.83758e-08
8.29843e-08
8.29843e-08
8.29843e-08
1.64973e-08
1.64772e-10
1.64767e-10
1.07508e-10
2.33422e-11
5.12678e-12
4.83411e-12
2.28166e-14
1.63066e-14
3.47061e-15
5.87944e-14
1.0337e-13
5.27727e-15
5.74557e-15
6.20434e-15
2.58395e-09
2.52358e-08
4.35347e-08
2.57338e-08
2.9078e-09
2.23109e-10
6.98499e-11
2.85558e-11
2.17297e-11
5.89366e-12
9.86935e-12
-9.97043e-15
-4.35035e-15
-2.05837e-15
-3.15544e-33
7.35821e-19
5.2658e-15
8.05781e-14
1.89499e-13
1.89542e-13
1.89689e-13
1.90086e-13
1.90497e-13
1.91356e-13
9.93657e-12
1.3503e-11
7.52836e-12
1.37177e-10
2.07394e-08
5.63497e-08
-1.04119e-14
-6.48235e-15
-3.90403e-15
-2.20608e-15
-1.04549e-15
-1.72219e-16
8.39261e-16
3.46745e-14
3.56324e-13
8.85283e-13
5.71095e-13
1.35727e-12
3.25274e-12
2.87504e-12
1.93886e-12
2.64981e-12
1.41273e-10
6.19403e-07
8.10443e-06
-5.38107e-15
-3.54992e-15
-2.29465e-15
-1.4454e-15
-8.79321e-16
-4.97617e-16
-2.25243e-16
1.59466e-17
5.46868e-15
7.42749e-14
2.6855e-13
7.651e-13
1.46772e-12
8.57928e-13
6.10423e-13
1.78074e-12
1.37467e-12
1.44504e-06
1.34899e-05
-2.01068e-15
-1.30869e-15
-8.41039e-16
-5.32936e-16
-3.29504e-16
-2.04293e-16
-1.22922e-16
-6.4105e-17
-1.82924e-18
5.86666e-16
4.14985e-15
1.52092e-14
4.20403e-14
7.57233e-14
1.8639e-13
1.37337e-12
1.37364e-12
1.19781e-06
1.34899e-05
-6.10084e-16
-3.8071e-16
-2.33449e-16
-1.42378e-16
-8.74766e-17
-5.40808e-17
-3.29264e-17
-1.85553e-17
-6.69514e-18
1.61436e-17
1.46526e-16
7.30224e-16
3.39034e-15
1.56189e-14
1.04713e-13
1.48381e-12
1.37412e-12
2.04507e-07
1.34899e-05
-1.56707e-16
-9.20639e-17
-5.53362e-17
-3.33806e-17
-2.00324e-17
-1.18715e-17
-6.86138e-18
-3.53082e-18
-7.74285e-19
5.99287e-18
4.56611e-17
2.79946e-16
1.76875e-15
1.03218e-14
8.47193e-14
2.19031e-12
1.97395e-12
1.55094e-12
1.3487e-05
-3.72064e-17
-2.00618e-17
-1.11557e-17
-6.28904e-18
-3.54204e-18
-1.89201e-18
-9.63543e-19
-1.69849e-19
4.00535e-19
5.40502e-18
3.5328e-17
2.12426e-16
1.38898e-15
8.36634e-15
7.7644e-14
2.65534e-12
6.44279e-12
1.55032e-12
1.15937e-05
-8.24753e-18
-3.93357e-18
-1.93625e-18
-9.64801e-19
-4.58589e-19
2.40741e-38
1.64673e-19
8.78399e-19
3.68951e-18
1.02486e-17
3.73432e-17
1.97977e-16
1.27204e-15
7.65519e-15
8.84152e-14
3.00593e-12
9.20039e-12
1.55229e-12
3.80535e-06
-1.77749e-18
-7.47293e-19
-3.16399e-19
-1.18505e-19
1.65002e-20
6.34037e-19
4.33553e-18
1.74005e-17
5.32095e-17
1.31688e-16
2.79406e-16
6.09388e-16
1.97264e-15
9.01504e-15
1.20977e-13
2.81016e-12
9.19801e-12
1.55703e-12
3.72286e-06
-3.60215e-19
-1.35434e-19
-4.83808e-20
3.28242e-21
6.35074e-19
5.4853e-18
3.05414e-17
1.31382e-16
4.49952e-16
1.22125e-15
2.74343e-15
5.74709e-15
1.40002e-14
4.08546e-14
2.09083e-13
2.71915e-12
8.1638e-12
4.47663e-12
5.19768e-06
-6.46319e-20
-2.20046e-20
-5.14992e-21
9.53495e-20
1.93723e-18
2.1316e-17
1.46907e-16
7.23944e-16
2.76028e-15
8.19638e-15
1.99418e-14
4.65976e-14
1.15967e-13
2.72297e-13
6.21726e-13
2.9538e-12
7.38777e-12
3.19334e-12
3.44517e-06
-9.77786e-21
-2.98797e-21
7.67155e-22
1.58937e-19
4.43787e-18
6.53451e-17
5.64573e-16
3.17689e-15
1.36603e-14
4.72834e-14
1.34926e-13
3.54232e-13
8.27092e-13
1.57103e-12
2.39103e-12
4.45138e-12
7.78408e-12
3.1933e-12
3.19334e-12
-1.19734e-21
-3.15316e-22
2.12028e-21
2.08483e-19
8.06116e-18
1.58256e-16
1.76379e-15
1.1668e-14
5.91738e-14
2.56823e-13
9.61882e-13
2.61332e-12
4.60497e-12
6.45266e-12
7.61553e-12
9.25448e-12
8.84099e-12
3.19334e-12
5.09641e-07
-1.1383e-22
-2.18097e-23
1.82336e-21
2.25178e-19
1.14857e-17
2.94967e-16
4.47982e-15
3.88321e-14
2.49512e-13
1.33814e-12
6.0766e-12
1.52616e-11
1.92912e-11
2.09494e-11
2.06184e-11
2.71877e-11
2.27104e-11
3.23903e-12
3.6111e-06
-7.9876e-24
-1.17908e-25
8.90657e-22
2.0062e-19
1.29832e-17
4.11294e-16
8.77827e-15
1.15712e-13
9.47757e-13
5.54185e-12
2.40919e-11
5.25689e-11
5.8039e-11
5.82663e-11
5.87114e-11
1.46745e-10
1.64577e-10
3.27594e-12
3.61115e-06
-3.86879e-25
9.75148e-25
3.95176e-22
1.00883e-19
1.22591e-17
4.52401e-16
1.2586e-14
2.60695e-13
2.47508e-12
1.42814e-11
5.28069e-11
1.00374e-10
1.16076e-10
1.17064e-10
1.59565e-10
5.6819e-10
7.09951e-10
3.38802e-12
3.60963e-06
-1.17155e-26
3.09379e-25
1.45109e-22
4.07538e-20
6.29963e-18
3.64759e-16
1.38681e-14
3.94188e-13
3.96554e-12
2.2002e-11
7.02494e-11
1.24792e-10
1.47129e-10
1.46039e-10
3.30757e-10
1.34577e-09
1.45619e-09
1.21559e-11
3.18327e-06
-1.86157e-28
6.68364e-26
3.06886e-23
1.30864e-20
2.3379e-18
1.35744e-16
9.92825e-15
4.32721e-13
4.42245e-12
2.38599e-11
7.04017e-11
1.19273e-10
1.44929e-10
9.46857e-11
6.43457e-10
5.40679e-09
3.49796e-09
2.77343e-11
2.8167e-06
-9.51193e-31
7.32416e-27
3.27513e-24
2.21025e-21
5.71763e-19
3.51974e-17
2.52488e-15
2.60366e-13
2.76794e-12
1.36951e-11
3.28286e-11
5.17769e-11
8.40085e-11
2.97089e-15
2.05017e-09
1.72033e-08
1.34488e-08
1.50686e-11
2.81206e-06
-1.19057e-33
4.32257e-31
6.12011e-26
1.65515e-22
5.21904e-20
4.13899e-18
3.07072e-16
4.06384e-14
4.40086e-13
2.06669e-12
4.80023e-12
8.02401e-12
1.17688e-11
4.91481e-18
4.40208e-09
1.74629e-08
1.74586e-08
1.93947e-12
2.81029e-06
-4.27915e-39
-3.90854e-41
4.81411e-33
1.73669e-27
7.85726e-24
4.5555e-21
1.85477e-18
3.05505e-16
2.99584e-15
1.63228e-14
4.66692e-14
8.62071e-14
5.69774e-14
-7.88861e-34
1.12482e-09
6.82798e-09
4.85155e-09
-4.96211e-28
1.96292e-06
)
;

boundaryField
{
    leftWall
    {
        type            zeroGradient;
    }
    rightWall
    {
        type            zeroGradient;
    }
    lowerWall
    {
        type            zeroGradient;
    }
    atmosphere
    {
        type            inletOutlet;
        inletValue      uniform 0;
        value           nonuniform List<scalar> 
46
(
0
8.95761e-22
3.16944e-19
8.10912e-18
2.28404e-17
6.81593e-18
9.65318e-19
3.13575e-20
2.1066e-22
-2.34292e-22
-2.52847e-21
-5.82551e-21
-6.50258e-21
-4.34451e-21
-1.89449e-21
-5.57052e-22
-1.10203e-22
-1.41522e-23
-1.14648e-24
-5.75921e-26
0
0
0
0
0
0
0
0
0
0
0
0
0
0
0
0
0
0
0
0
0
0
0
0
0
1.96292e-06
)
;
    }
    defaultFaces
    {
        type            empty;
    }
}


// ************************************************************************* //
