/*--------------------------------*- C++ -*----------------------------------*\
  =========                 |
  \\      /  F ield         | OpenFOAM: The Open Source CFD Toolbox
   \\    /   O peration     | Website:  https://openfoam.org
    \\  /    A nd           | Version:  9
     \\/     M anipulation  |
\*---------------------------------------------------------------------------*/
FoamFile
{
    format      ascii;
    class       surfaceScalarField;
    location    "32.05";
    object      phi;
}
// * * * * * * * * * * * * * * * * * * * * * * * * * * * * * * * * * * * * * //

dimensions      [0 3 -1 0 0 0 0];

internalField   nonuniform List<scalar> 
1300
(
11.2529
1.87548
-4.16642
11.2529
-5.00996
1.87548
-4.24288
4.24288
-1.1875
1.1875
5.7123
5.54056
-2.37743
2.37743
-2.819
2.819
-2.86016
2.86016
-1.06194
1.06194
-1.02826
1.02826
0.693116
-0.693116
-3.41984
3.41984
-1.45619
1.45619
-2.90929
2.90929
6.1281
-6.1281
-3.24654
3.24654
-0.743763
0.743763
-4.26321
15.5161
6.98965
6.98965
-2.3711
2.3711
-1.25395
1.25395
1.41034
-1.41034
9.05114
-9.05114
-4.88472
-5.88381
1.91932
-14.0662
-3.09064
-3.09064
-2.7054
2.7054
-0.829928
1.04555
3.47682
-3.47682
-0.757137
0.757137
-4.32828
0.085398
-4.32828
4.02743
0.215453
4.02743
-1.32878
0.14128
-1.32878
4.67821
-4.67821
1.07574
0.11176
1.07574
3.9281
-3.9281
-5.71006
11.4224
5.5428
-5.32064
20.8367
-5.93222
11.4728
-3.89935
3.89935
-2.29455
-0.0828777
-2.29455
2.37902
-0.00159687
2.37902
-4.00228
4.00228
-2.6092
-0.209795
-2.6092
2.91908
-0.100087
2.91908
3.66642
-3.66642
-2.91622
0.0560596
-2.91622
2.70845
0.151705
2.70845
0.771042
1.10443
-2.64652
3.69207
-1.10443
0.0424987
1.02614
0.0357986
1.02614
-1.01454
-0.0137251
-1.01453
1.04984
-0.0215793
1.04984
0.730131
-0.0370146
0.730131
-0.754862
0.0617457
-0.754862
-8.60801
-8.97305
-3.54362
0.123776
-3.54362
-1.47421
0.0180208
-1.47421
1.49235
-0.0361554
1.49235
-2.52531
2.52531
-3.25119
0.341892
-3.25119
4.80635
1.32175
4.80635
5.04612
6.20674
16.299
-16.299
10.1709
-2.9669
-0.279639
-2.9669
-3.41198
-5.63916
3.41198
-0.165444
-0.805503
0.0617401
-0.805503
5.62659
1.36306
5.62659
2.58623
0.122226
-2.58623
0.215123
4.62616
-4.62616
1.42328
0.947822
1.42328
-1.19154
1.19154
1.12336
-0.0735237
-1.12336
-0.130582
1.38601
0.0243317
1.38601
-1.40975
-0.000595779
-1.40975
7.31108
-13.1949
-7.76766
3.23025
0.189595
-3.23025
0.139606
3.56357
-0.0867505
3.56357
-3.30969
3.30969
-3.61099
0.134179
-3.61099
-0.682216
-0.0749211
-0.682216
0.842021
-0.084884
0.842021
-4.57614
0.247865
-4.57614
-3.69117
0.439985
3.69117
0.336254
1.25011
-1.25011
-1.43659
0.107807
-1.43659
-4.65919
0.0830501
4.65919
0.0190212
-4.77217
0.0939598
-4.77217
-3.71253
0.101533
3.71253
0.215575
4.58935
1.03724
-4.58935
0.661247
-5.36948
11.5762
-5.88338
11.4262
-3.51557
-0.383775
-3.51557
4.0903
-0.19095
4.0903
2.57073
0.33856
-2.57073
0.276187
2.50525
-0.126223
2.50525
-3.94502
-0.0572657
-3.94502
3.80516
0.197122
3.80516
2.54477
-0.039526
-2.54477
-0.0644294
2.89378
0.0252985
2.89378
3.6724
-0.00598145
3.6724
-3.53944
-0.126985
-3.53944
3.17896
-3.17896
3.08059
0.0983708
-3.08059
0.16437
-5.07402
5.07343
-0.00799948
-5.06602
1.01814
1.01814
0.768944
-0.0388135
0.768944
-0.861792
0.10693
-0.861792
8.34467
-16.1123
8.77881
-17.3868
7.53328
-21.5995
8.11644
-17.0895
3.82779
-3.82779
3.76166
0.0661321
-3.76166
0.218045
-1.45605
-0.0181636
-1.45605
-2.28824
-0.23707
-2.28824
2.8573
-0.331993
2.8573
-3.74209
3.74209
-4.12478
0.382686
4.12478
0.68157
2.95496
-0.0611722
-2.95496
-0.0119454
0.924053
0.151685
-0.924053
0.11855
4.86349
-0.237331
4.86349
-4.08521
-0.540949
-4.08521
-1.47494
0.0188929
1.47494
-0.0516603
-1.25895
0.0674031
-1.25895
-5.0745
0.00847756
-5.0387
-1.40127
-1.40127
1.30414
4.9962
-3.58567
0.0462339
3.58567
-0.0221057
3.52705
0.215042
-3.52705
0.217361
-3.26327
0.0843116
3.26327
0.046418
-0.659738
-0.022478
-0.659738
-1.03474
1.03474
-0.917633
-0.117111
0.917633
-0.0756114
1.40556
-0.155451
1.40556
1.47054
0.0218113
-1.47054
0.0339513
-5.01128
0.239111
-5.01128
4.10086
-0.0105662
4.10086
-3.94907
-0.136138
3.94907
-0.276665
-0.00372284
5.07715
-1.01441
-0.000120143
1.01441
-5.10148
5.10136
-0.665129
0.00539105
0.665129
0.103815
1.02967
0.161873
-1.02967
0.16788
3.8487
-0.0435334
-3.8487
0.020902
-2.00732
-0.280925
-2.00732
-3.18464
-0.33093
3.18464
-0.327338
-5.11518
-0.0779364
5.19312
-5.13676
1.33688
0.0491257
-1.33688
5.15049
-1.14363
-0.106478
1.14363
-0.108888
1.60383
-0.198264
1.60383
5.12084
-0.257356
-5.12084
0.10956
-4.11856
0.173537
4.11856
-0.0176923
-1.7751
-0.232218
1.7751
-0.171275
-13.1281
14.4911
7.70865
-6.28029
-6.9146
-11.9194
4.4471
7.12912
14.618
-11.8154
-9.78406
-11.6758
2.86006
-2.69218
-3.72728
3.69027
23.5917
-23.4977
-18.3992
19.0808
20.777
-20.5615
5.70885
5.71351
15.8514
-15.9342
-20.8982
20.5144
15.3882
-15.598
22.0509
-22.1081
-25.8144
25.7709
-16.0928
16.1489
-20.2944
20.1674
-21.0577
20.7811
-8.35262
-9.0342
16.5162
-16.3924
20
-20.2797
-19.3838
19.7257
10.0475
4.44359
11.0848
-6.24673
11.9556
-5.22605
12.9347
8.29365
-16.6463
7.81868
-14.7333
9.04551
10.9545
-8.88007
-3.03938
-17.9699
17.8832
-17.257
17.3034
24.1239
-24.0385
-6.17283
11.8863
-5.25335
12.3825
-11.409
-6.99019
10.0872
4.53073
8.9919
7.52432
-9.18149
-2.49434
-24.7988
24.5414
-25.6599
25.1189
0.10018
2.42593
-2.52611
1.35413
-0.862693
3.28863
1.99736
2.10429
2.45271
-2.29084
0.239463
-2.76558
-2.89616
-5.34042
5.44823
5.15709
-5.04533
16.5467
7.04498
16.5657
-16.7496
-6.74815
-16.5104
11.3637
7.71706
11.7464
12.0617
8.71534
12.1632
10.359
-10.3317
-0.0273072
-11.4777
21.8367
1.55464
-18.4678
-13.9371
8.84678
7.00458
8.84519
-9.89201
-6.04223
-9.61582
-11.0144
-9.88379
-11.3453
12.3183
8.19609
12.1274
-15.3154
15.2977
9.27467
6.11355
9.17458
-8.96355
-6.63446
-9.02798
27.4821
-6.67796
-20.8042
-13.1809
-12.6335
12.9838
9.0671
14.3388
11.4321
14.3597
8.91463
18.5675
-17.9817
5.34824
-9.94704
-6.1458
-9.78267
9.25805
6.89085
9.40975
-11.7668
-8.52762
-11.7206
-11.987
-9.07076
11.9929
8.17449
-12.5344
-13.1255
12.6705
8.11051
7.84093
-17.625
9.24855
-18.2827
-10.9643
-5.42811
-10.7463
10.785
6.68413
-17.4691
-5.86126
23.6339
-12.6794
20.5945
-10.9
-9.37965
-10.912
-14.8042
-4.57965
-14.3642
-7.98929
7.70837
-8.82106
8.48907
26.8766
-16.222
-10.6546
-12.3784
-8.18309
11.7171
-0.632344
-12.8358
12.8085
-0.880182
12.0545
16.4981
15.8658
-10.8802
-6.37674
-10.6629
10.2702
7.03322
10.3545
16.1056
8.01836
16.321
-16.8177
-7.22086
-16.5698
4.841
-4.91592
5.71361
-5.69472
15.5794
9.5395
-15.3421
-9.45665
22.9305
-10.775
-12.1555
-5.11965
5.21411
-0.094463
-1.83102
-0.476897
0.266866
-1.93096
-1.79633
1.86921
0.235084
5.4492
3.65287
-2.41437
2.48177
2.77875
2.70523
-0.190933
2.49873
-2.49334
18.9019
-11.4321
-7.46982
13.9702
-13.8872
-2.59958
-19.3273
16.7277
2.67851
3.00332
-2.94158
-3.9484
-1.39202
-3.91445
2.95196
2.20514
3.10364
2.10715
3.34108
-8.10335
1.56298
6.54038
-5.9962
-3.48236
-13.3462
-6.26634
19.6126
16.6788
7.86257
-16.7884
0.277968
5.29304
-5.32919
-1.5983
-11.7479
8.34799
-9.94629
-15.217
-6.46091
21.6779
-9.58078
-1.08208
9.36573
2.38065
-10.8773
-7.09265
10.7431
1.42012
-12.0645
23.9707
-11.9062
-18.4413
8.51577
13.3209
16.2328
-17.8628
9.31888
8.54388
-4.54188
7.43064
1.41454
7.30442
-19.9297
13.8875
11.3243
8.40139
-11.6629
2.04707
-17.8826
25.1717
-22.2876
-2.88403
12.8223
12.3494
13.5487
13.3279
-7.78504
21.3337
-3.61802
-18.6696
21.5006
-13.0992
15.7826
-28.8818
-29.1104
10.4408
-17.9553
22.0739
-4.11864
-5.20518
-10.1102
23.1604
-2.00656
-21.1539
10.1208
-13.9274
-11.8549
25.7823
-20.6054
18.4893
-6.26806
-12.2213
-12.6647
-9.44346
12.4911
2.80659
-25.8738
31.222
-7.30628
7.8055
1.36909
7.83079
10.6088
-15.9759
5.36715
9.9966
-16.2647
6.76275
-22.7387
-12.1587
24.1936
-12.0349
-17.5869
-15.7959
-1.79095
4.87507
26.347
-16.3072
12.1164
4.19078
8.46173
1.89274
-8.5601
-1.22256
0.968055
16.0864
-17.0545
10.3778
10.5
11.7044
4.38205
10.7702
7.11295
-10.7481
-0.972416
-14.7928
5.72201
-6.61828
-14.5742
20.2962
-16.2679
1.69368
-10.3032
-13.9906
24.2938
-16.449
11.4255
12.5453
18.4587
-19.615
5.62438
-9.74633
-9.86865
10.6435
-17.2618
7.49832
12.7979
15.6088
2.48334
12.7472
11.4464
-19.4314
1.14863
18.9707
-16.4764
3.88864
10.471
-16.005
0.209124
-10.5372
2.66453
-15.3439
-14.8046
16.5297
-21.1094
-12.3521
13.5677
2.75336
-13.9039
-0.46026
-4.9541
-3.03519
-5.18632
-3.27665
-5.54442
-11.0617
-1.92688
-9.1348
5.78149
-6.68665
-4.65868
7.01399
1.47508
-4.9354
4.82892
-5.58014
5.38188
-0.210165
13.0186
15.6556
7.4725
-8.47674
15.9492
-15.6084
23.6267
-29.725
14.1166
15.9488
-23.1697
-13.7762
2.7011
2.13989
2.61622
13.4475
-14.4143
0.966792
-13.2788
17.598
-4.31919
-19.5803
6.30149
-6.13279
5.18668
0.52693
5.16852
1.41638
6.84597
-8.26235
-4.27834
-4.33
-9.16325
-13.8594
23.0226
4.73542
-13.1051
8.36967
-12.0625
16.7979
0.0785234
-13.1836
16.9847
-10.1387
17.5116
-11.9839
5.52769
12.7918
22.3469
-9.55508
16.2482
-6.70865
7.06789
-16.623
-6.7915
-11.2883
18.1791
-13.0055
14.6992
-1.12465
15.8239
-13.7772
3.00222
-2.07285
8.42719
8.64231
16.8088
-12.4267
11.9697
-18.6783
-4.65328
-16.195
-3.39714
1.0187
-13.8256
12.8069
12.0438
-11.0251
-3.24221
8.98416
-5.74195
5.68187
-2.84831
-2.83356
-1.84641
-3.06951
1.86888
0.629848
6.31172
0.489176
-3.33748
-2.00416
-1.90035
10.3744
8.52748
-3.83184
3.73737
3.56497
-0.561648
0.958728
2.14491
4.58716
-3.62844
0.678118
3.90905
-2.26346
3.82772
1.46532
-3.84953
-0.0649156
-3.40814
11.7561
3.13224
-5.33738
1.70894
2.38211
-13.8142
19.7414
-11.4154
-8.32601
22.1236
3.0635
-14.4789
16.2638
-13.5853
8.10345
-14.3698
-6.37548
-19.9608
-12.9158
-10.7095
19.0792
-12.3131
20.1757
3.86213
-20.4537
24.3158
-12.7398
6.27891
-9.44311
10.9084
-4.05808
-5.38503
11.2656
10.4123
-11.0535
-0.694412
0.212096
8.41927
-8.20718
-1.52702
-7.52322
-16.4089
17.829
-8.25569
17.5746
7.69356
-7.63403
25.2086
6.56495
-14.199
-11.8763
-12.9584
-5.6551
10.5777
-1.79553
-7.23245
-14.0168
7.27198
0.0324453
-19.0785
22.0717
-2.99325
-12.0739
-1.81357
14.6359
-18.1003
1.83566
-11.3376
10.7341
12.1487
12.1811
-20.8426
-0.311254
-12.6465
3.1766
-15.8231
15.526
-6.80299
17.2438
-16.0058
11.3471
-14.5307
14.3598
-1.46333
14.7492
-9.38207
6.05496
-15.4984
-12.6918
14.4725
-8.35891
15.8415
-10.1171
25.9586
-17.4234
14.4055
11.5532
-2.71262
-8.19936
-13.9757
11.2631
0.429735
8.26053
17.8373
-10.7244
16.8649
8.92448
-18.6708
-8.33728
-25.8596
7.18882
-13.3144
-7.35658
14.5454
11.1021
12.9949
4.67675
-11.7723
17.7861
-19.5771
-5.75121
-9.0534
14.5789
-3.31583
10.1446
-19.198
-5.19928
13.1092
-0.192473
-12.9168
3.11272
-15.4648
5.1307
-20.5955
15.9787
-16.4389
1.76943
-7.90222
-3.16597
-3.27486
-2.17177
-3.40837
-7.56659
5.39482
-1.2651
3.56382
-12.5209
12.3285
-5.07703
10.4719
-4.05764
-1.12868
4.22892
1.15296
11.6248
3.02517
-16.8014
-9.25462
14.6241
-5.3695
1.1198
-10.8004
3.82374
8.0996
14.0239
-24.8273
1.65764
-15.1437
-4.06966
6.20956
4.9145
16.9583
2.54403
6.55198
-0.342428
9.09601
2.27379
2.19818
-11.2172
12.184
1.58965
15.7063
-1.88295
7.41064
3.28557
3.30359
2.02561
5.72248
2.91983
8.7247
0.462345
-3.86765
2.06783
-3.96818
-1.26965
-4.00699
-0.316725
3.72516
-4.04189
10.496
-1.96852
5.1265
-1.88167
-4.93336
6.81503
-9.35149
-5.49501
-1.58596
-5.60625
7.31519
6.14988
-5.72923
-3.62227
2.39092
-15.3067
11.9789
-12.6733
-2.26096
22.0548
-9.46142
1.25425
-3.18252
-6.26897
-7.66099
7.72591
24.1899
1.01868
12.2837
18.8477
11.755
1.03067
11.9872
-16.1058
-10.7515
-16.4171
-0.891098
13.7448
5.61426
20.7327
17.1674
13.8516
-5.34642
-24.9235
20.7187
-8.53472
16.3995
-3.48276
-17.1128
14.6487
8.97808
-17.402
0.963102
-16.1497
-24.6844
-0.344327
12.6728
-11.2805
10.1518
7.11662
2.01818
-2.42553
-0.849331
2.54264
-0.344463
8.75155
-0.188804
-8.19487
8.38367
-3.53636
2.26671
-0.429267
4.16664
6.38577
4.41725
-3.77762
-7.81951
-8.81651
-4.99767
-17.1425
2.47006
-8.61994
5.68092
-3.41421
2.84735
4.96946
10.096
-1.60166
-9.42343
7.34362
-4.49626
5.59969
)
;

boundaryField
{
    wall-4
    {
        type            calculated;
        value           uniform 0;
    }
    velocity-inlet-5
    {
        type            calculated;
        value           uniform -11.2529;
    }
    velocity-inlet-6
    {
        type            calculated;
        value           uniform -1.87548;
    }
    pressure-outlet-7
    {
        type            calculated;
        value           nonuniform List<scalar> 8(4.16642 5.00996 10.7685 12.1469 17.5811 15.0787 17.1235 15.6497);
    }
    wall-8
    {
        type            calculated;
        value           uniform 0;
    }
    frontAndBackPlanes
    {
        type            empty;
        value           nonuniform List<scalar> 0();
    }
}


// ************************************************************************* //
