/*--------------------------------*- C++ -*----------------------------------*\
  =========                 |
  \\      /  F ield         | OpenFOAM: The Open Source CFD Toolbox
   \\    /   O peration     | Website:  https://openfoam.org
    \\  /    A nd           | Version:  9
     \\/     M anipulation  |
\*---------------------------------------------------------------------------*/
FoamFile
{
    format      ascii;
    class       volScalarField;
    location    "34.05";
    object      p;
}
// * * * * * * * * * * * * * * * * * * * * * * * * * * * * * * * * * * * * * //

dimensions      [0 2 -2 0 0 0 0];

internalField   nonuniform List<scalar> 
918
(
23.4687
23.5754
0.953105
22.8861
1.01747
23.0919
3.27191
13.7845
19.2419
2.93396
2.62538
14.408
20.6349
16.8763
12.9924
0.924796
14.0515
2.24594
18.4596
1.39837
12.9917
20.4474
21.5361
19.2837
14.1208
14.3714
18.5972
1.14535
0.107783
0.255023
0.979325
0.411051
0.147489
21.6288
22.3054
22.2438
15.4945
10.402
3.59712
3.80168
2.98238
2.80536
13.8271
13.9271
5.86667
13.7633
13.7591
16.6434
19.1099
19.2536
19.5468
19.3358
19.7221
5.97356
2.78513
2.60508
2.87603
2.95044
2.98286
2.69773
2.67925
2.48305
2.33713
13.8873
14.481
14.5362
14.2674
14.215
22.4515
21.6945
22.0293
21.1356
21.281
20.211
19.8254
17.2519
17.6044
16.4782
16.0973
12.7828
12.744
13.2123
13.4622
0.14553
1.0758
1.22293
14.0585
14.095
14.095
14.1094
8.28227
2.18778
2.19053
17.8999
17.4764
20.4813
20.7485
20.1955
20.01
1.53024
1.52623
1.1509
1.18159
0.95079
13.333
13.4871
19.235
18.402
14.1543
14.0543
14.1293
11.4995
13.9097
13.983
15.321
15.7765
14.9658
15.4022
18.1672
17.7492
19.0337
19.471
0.393187
0.154556
0.687441
0.318191
0.516507
15.3628
15.1574
15.6104
15.6612
15.8924
10.4069
10.3375
10.3809
10.3008
4.149
4.46361
2.25473
2.5693
2.42017
9.86541
13.9434
13.9901
4.81057
5.51493
5.17824
6.34942
6.72381
16.0091
16.4457
16.1844
17.7308
16.9357
17.2838
19.813
19.3022
19.6026
6.36807
6.60247
5.60773
5.24902
2.23801
2.48759
2.42962
2.98183
2.95988
3.21754
3.34593
2.69829
2.5549
2.8933
2.77673
2.82881
2.16637
2.03654
13.6114
13.3975
14.1504
14.3289
15.0961
14.9478
14.6544
14.8232
19.0205
19.4239
19.4574
19.0732
11.5446
10.1551
13.7167
13.9922
0.302167
0.264652
0.138289
0.380773
0.40081
0.142777
2.01546
1.82692
1.40531
1.68063
14.056
14.0158
8.52286
8.74249
8.11873
7.86258
16.3141
16.4643
17.0984
16.6982
1.9629
1.67666
1.80651
13.6502
13.5226
13.6295
10.9345
10.3679
11.9772
12.247
13.9911
14.0349
14.0308
15.6806
15.9991
19.8218
20.0925
19.9193
20.3051
21.368
21.0192
20.6344
14.5387
14.9471
14.7855
16.1277
15.7614
15.9809
15.1887
15.4934
15.3513
10.3692
10.4155
10.119
10.1969
10.2455
10.1925
9.80263
9.67565
14.0768
14.0318
14.0559
7.25189
7.74995
4.86882
4.54003
12.5433
13.2165
12.892
18.6502
17.9726
18.7055
18.3347
17.8847
18.2082
10.4263
10.3879
10.4213
14.9166
14.2544
14.6063
2.441
2.0768
2.23993
8.93846
9.03187
6.97051
7.5871
7.25022
16.3007
16.6411
17.3212
16.433
16.9006
17.4079
17.186
9.93866
10.0715
9.98836
9.65907
9.55262
9.73469
8.33521
8.94853
3.61251
4.2689
3.96491
9.19985
9.42982
9.27708
18.6297
19.1645
0.765871
1.15328
19.5945
19.3182
0.138914
0.24175
14.2529
12.5505
7.26214
17.1969
16.6295
18.9693
3.1922
6.1023
2.81014
3.38058
2.68631
14.6151
14.249
13.3401
0.452942
1.25629
1.70971
2.8957
18.4101
17.7349
18.851
19.1711
19.2255
0.687546
0.912874
0.584172
1.2428
1.0314
1.27639
15.5505
15.6487
4.32311
18.858
19.1623
19.1801
17.6568
18.6095
17.667
0.935328
0.642242
0.707239
10.0802
12.1211
14.2131
13.7657
13.9627
13.9849
13.7357
14.869
14.5385
14.5035
14.9883
13.9659
13.8205
7.73395
6.38283
8.0684
7.70876
17.0982
16.6861
16.493
16.2387
18.0845
17.6105
18.4609
17.8493
18.3112
18.598
2.94328
3.13298
3.0117
2.52031
6.14309
6.60567
5.48788
5.63331
4.25913
2.42919
2.52765
2.75365
2.58437
2.93127
2.67891
2.94285
2.57918
2.32353
2.32172
2.93104
2.73896
2.60449
14.5935
14.5319
14.3328
14.3709
14.3533
14.469
13.5346
13.9394
13.5671
12.3982
12.9794
12.5066
0.825422
0.662976
0.524867
1.32378
1.35083
1.11112
0.834775
1.17392
1.20206
0.814578
1.54567
1.44556
3.15515
2.64363
8.83973
7.96746
6.90085
16.8001
17.6019
16.7716
18.0123
18.4292
18.5347
18.1551
17.6469
15.7293
15.7245
15.3846
15.338
4.77052
3.73116
4.96658
4.53566
10.4774
14.0649
11.8422
10.8034
11.0997
13.4238
13.9283
13.5807
13.7176
13.2927
12.8209
13.5128
13.0465
13.1478
12.9269
15.7173
16.1925
15.7989
15.2195
15.2394
10.5984
12.0151
5.4651
5.63909
7.24368
6.5375
13.5093
13.9323
13.917
13.5555
13.7432
13.7444
13.6052
13.7794
13.8592
13.7538
11.8241
10.1435
9.04475
9.03833
14.0763
12.3457
12.9299
12.4133
16.12
16.6365
16.2512
15.6456
16.1307
15.6025
15.6297
15.8429
17.2011
16.9507
16.7204
17.1073
3.05473
3.00349
3.64704
3.13301
3.03621
2.8192
3.48354
4.75805
4.41578
6.71808
7.26882
4.57979
3.37244
3.79267
4.80773
5.54108
5.51086
3.96917
4.50094
4.92995
4.44043
5.22401
4.72855
2.71788
3.02531
2.86341
2.83718
3.38181
3.88011
3.37568
2.48074
2.59285
2.25712
2.11938
3.53622
2.99624
3.03312
3.67877
1.10631
1.32861
1.44096
2.41406
1.9132
1.97897
15.1821
14.8262
14.9598
14.239
14.3065
14.2476
13.8721
15.2395
14.9615
15.061
13.7094
13.7962
13.6095
13.9048
14.3208
14.62
15.4519
15.173
14.4121
14.5631
14.214
14.1422
13.4642
12.9013
12.8407
1.11237
0.824493
0.984097
0.911024
0.606223
0.798602
2.18317
1.57274
1.97058
1.72632
1.95963
1.40382
1.30241
4.25283
5.06376
3.96338
3.36484
3.06176
8.89817
9.00968
8.15836
7.8564
8.19794
8.42658
8.37631
7.13419
7.56119
7.37424
9.91508
9.57937
17.5863
17.5304
17.2016
17.0427
17.2691
5.76207
7.66491
6.79875
7.9149
10.2062
10.5018
9.31053
8.70469
9.45599
9.53393
14.0466
14.1227
13.5636
14.0495
14.078
11.8346
12.8819
13.4968
13.3112
13.8311
13.912
12.973
13.5617
13.477
12.7597
12.8126
12.1274
12.466
11.9941
11.7931
14.0557
13.9504
14.2201
13.771
14.1503
13.7145
14.0298
14.0277
14.3084
13.4104
12.8317
12.8501
13.2764
12.9765
13.3224
13.4865
9.30813
9.94821
10.3869
10.9226
10.6299
10.4119
10.2792
10.5809
10.5577
10.829
10.7484
10.5993
11.5602
13.4154
13.7005
13.8019
13.599
13.6451
13.3377
13.6106
13.5399
13.9192
14.0071
14.0568
13.1374
13.2934
13.4882
13.372
11.6748
10.0966
9.94882
9.50883
7.57645
8.04614
11.025
9.90189
8.91709
8.98904
12.1682
10.8055
11.6189
12.0421
10.6937
10.3056
12.9708
13.7589
13.9787
13.703
12.0598
12.1856
12.6353
13.0785
13.2678
13.7235
15.8598
16.4355
16.5134
16.2375
16.0995
16.1993
15.9494
16.0525
16.5266
16.6531
16.4844
2.8802
2.99388
2.92386
2.84921
3.08563
2.86121
3.95633
3.94726
3.15665
3.3369
3.35681
3.46224
2.93131
2.97439
4.8263
5.06193
5.3336
4.83208
6.17527
6.81613
7.39742
7.08303
5.78965
5.86893
6.18419
3.5075
3.53335
3.25168
3.70926
3.76193
2.61176
2.23923
2.04434
2.56554
2.66665
2.05153
1.76864
1.81786
2.33222
2.05108
1.80505
14.9746
14.7329
14.7543
14.5341
14.5887
14.9835
15.2044
15.0145
15.1529
15.2039
14.803
14.6919
14.863
1.81872
1.49344
1.6228
1.58104
1.64345
1.5499
1.7381
7.6054
6.41553
6.80299
5.97839
4.12035
4.64127
9.53846
9.95989
9.99836
9.70951
9.49945
9.86523
9.71601
9.70874
8.26303
9.33169
8.86764
9.26039
9.2818
9.34951
9.06418
9.08038
10.5841
10.6176
9.48262
10.1222
9.33098
7.93178
8.09878
9.11244
10.0861
10.4042
10.2493
9.97942
9.75082
10.1139
10.1686
10.2286
10.2179
8.75141
8.71131
8.31076
13.9683
13.8748
14.0213
14.0265
14.1534
13.9783
13.8154
14.0926
14.1468
13.9311
11.0771
11.136
11.3819
12.1285
12.1806
12.0915
11.3362
13.1002
12.7559
13.3938
13.3406
13.413
13.0033
12.8265
13.0968
10.0804
11.4533
10.9862
11.2494
10.0628
9.30642
13.223
13.2772
13.3425
13.6155
13.5735
14.1569
15.8298
15.6997
15.747
15.79
15.4017
15.439
4.17541
3.82931
4.55096
4.50645
4.06458
3.76466
2.28664
1.96875
1.78094
1.65617
1.88944
1.95054
8.16224
8.18928
6.3337
7.35521
5.87597
4.9342
4.78959
5.95533
7.13659
7.19545
8.51304
9.18909
8.74825
8.57349
7.91784
8.2474
10.1157
10.21
10.1105
10.4295
9.96221
11.7119
11.294
11.6429
13.2569
12.9666
12.3685
12.255
12.2199
12.8129
11.9472
11.1789
11.8913
12.5468
12.505
11.1176
10.8726
11.2993
11.2833
10.1974
10.7176
10.4795
10.832
10.5474
)
;

boundaryField
{
    wall-4
    {
        type            zeroGradient;
    }
    velocity-inlet-5
    {
        type            zeroGradient;
    }
    velocity-inlet-6
    {
        type            zeroGradient;
    }
    pressure-outlet-7
    {
        type            fixedValue;
        value           uniform 0;
    }
    wall-8
    {
        type            zeroGradient;
    }
    frontAndBackPlanes
    {
        type            empty;
    }
}


// ************************************************************************* //
