/*--------------------------------*- C++ -*----------------------------------*\
  =========                 |
  \\      /  F ield         | OpenFOAM: The Open Source CFD Toolbox
   \\    /   O peration     | Website:  https://openfoam.org
    \\  /    A nd           | Version:  9
     \\/     M anipulation  |
\*---------------------------------------------------------------------------*/
FoamFile
{
    format      ascii;
    class       volVectorField;
    location    "27.95";
    object      U;
}
// * * * * * * * * * * * * * * * * * * * * * * * * * * * * * * * * * * * * * //

dimensions      [0 1 -1 0 0 0 0];

internalField   nonuniform List<vector> 
918
(
(2.47629 -0.138943 0)
(0.108704 0.722546 0)
(0.171727 1.05413 0)
(2.31834 0.153728 0)
(-0.0598457 1.2702 -1.22202e-19)
(-0.0924034 0.643931 -5.31402e-18)
(0.529958 0.849497 -2.95463e-19)
(0.274323 0.152874 -2.98858e-20)
(3.00615 -0.0195608 0)
(-0.00823461 0.476749 0)
(-0.0171969 0.589188 0)
(0.605214 0.00676594 0)
(0.0107054 0.439105 0)
(-0.00288246 0.421689 0)
(0.0134399 0.340822 -1.30521e-18)
(-0.00475093 0.769004 -9.20734e-20)
(0.312403 0.0742696 2.15221e-18)
(0.079735 0.642278 -2.23065e-19)
(1.52884 0.128628 0)
(-0.0267458 0.685211 0)
(0.194592 0.157723 -1.26561e-18)
(3.08302 -0.397373 0)
(2.92445 -0.50598 0)
(1.86116 -0.1811 0)
(0.511387 0.0400858 0)
(-0.0253685 0.52155 0)
(-0.00135313 0.494038 1.86247e-18)
(-0.022629 1.40044 0)
(0.0742785 2.88423 0)
(0.168068 1.73676 0)
(-0.0388639 3.16494 0)
(0.0270304 1.63977 9.39621e-20)
(0.0232311 0.68659 0)
(-0.147425 0.775094 -2.03093e-22)
(-0.193914 1.0291 4.4214e-18)
(-0.0415772 1.04471 0)
(0.744577 -0.0060051 0)
(0.161017 0.246326 6.65586e-19)
(0.993393 1.51285 6.53008e-19)
(0.649873 0.784275 -5.16131e-19)
(0.798508 1.57492 6.20235e-20)
(0.416748 0.851234 -3.20242e-19)
(0.552326 0.306566 2.93922e-20)
(0.29697 0.153645 0)
(0.962954 0.566538 0)
(0.532607 0.303949 1.3202e-19)
(0.257977 0.162791 -1.35472e-19)
(0.871596 -0.0554788 0)
(3.02784 -0.00170482 0)
(3.00685 0.0178656 0)
(3.20086 -0.417733 0)
(3.04288 -0.0742118 0)
(3.03116 -0.0388406 0)
(0.0186418 0.903545 -1.14648e-18)
(-0.0542414 0.973869 0)
(0.00283685 0.454908 0)
(-0.0291003 0.980873 0)
(-0.0113793 0.481066 0)
(-0.00133394 0.870521 0)
(-0.0520637 1.11034 0)
(-0.0125539 0.541524 0)
(-0.0253226 1.16163 0)
(-0.00591868 0.621416 0)
(0.790476 0.0116239 0)
(1.16942 -0.0015622 0)
(0.61825 0.0123696 0)
(1.12579 0.0175985 0)
(0.569762 0.00867915 0)
(0.225406 0.921982 1.95984e-18)
(0.0985379 1.2081 0)
(0.176302 1.06604 0)
(0.0331901 0.755774 2.19937e-23)
(0.0372233 0.498055 -2.9311e-18)
(0.0194616 0.747943 0)
(0.00595421 0.422033 0)
(-0.000695328 0.734548 4.51756e-24)
(0.000702477 0.414825 0)
(-0.0169205 0.74318 0)
(-0.0129373 0.42798 0)
(0.0494416 0.649995 0)
(0.048444 0.458239 0)
(0.00800839 0.621959 1.23405e-18)
(0.000746294 0.344906 0)
(-0.0692833 4.69205 0)
(0.00885099 1.45874 9.14098e-20)
(-0.0105074 0.785823 -1.17688e-19)
(0.636097 0.152149 -7.50969e-19)
(0.321619 0.0656852 -7.28729e-19)
(0.644804 0.169725 -2.25472e-18)
(0.317538 0.0955726 -1.4516e-18)
(0.0785736 0.618606 0)
(0.178485 1.31334 1.84982e-19)
(0.179659 0.730005 -2.95143e-19)
(2.06031 0.260946 0)
(1.10704 0.11845 0)
(3.03313 0.103887 0)
(3.10392 0.446059 0)
(2.83919 0.377459 -1.0128e-17)
(2.5781 0.361309 7.77141e-18)
(-0.0707251 1.26253 0)
(-0.0113748 0.622888 0)
(-0.0141511 1.90015 0)
(-0.0507264 1.34614 0)
(-0.048055 0.678864 0)
(0.440327 0.295641 4.00689e-19)
(0.225471 0.163365 0)
(2.2961 -0.266393 0)
(1.32372 -0.119274 0)
(1.07633 0.0126683 0)
(1.01199 0.0187645 0)
(0.540927 0.0108506 0)
(1.01985 0.0563973 0)
(0.821224 0.0703264 0)
(0.343626 0.0286958 3.36309e-18)
(-0.00543509 0.451601 1.77356e-18)
(-0.0270315 0.784628 0)
(-0.0473183 0.847508 0)
(-0.0152741 0.460436 0)
(0.000132483 0.839725 1.81602e-18)
(7.30023e-05 0.48753 0)
(-0.0054789 0.845554 -5.59046e-18)
(-0.00488634 0.496761 1.88638e-18)
(0.0537722 3.56581 0)
(0.04212 4.02515 0)
(-0.0163295 1.41115 -2.05249e-21)
(-0.0131586 1.36342 0)
(-0.00985037 0.74163 0)
(1.41018 0.0348841 0)
(0.760548 0.0154385 0)
(0.709515 0.0142643 0)
(1.41618 -0.0328484 0)
(0.773515 -0.00873984 0)
(0.322089 0.480396 -8.35668e-19)
(0.15682 0.232739 0)
(0.324994 0.50922 9.36542e-20)
(0.163378 0.26846 0)
(1.24064 1.38664 1.66493e-19)
(0.778597 0.740744 -3.92522e-19)
(0.411493 1.42165 0)
(0.607023 1.53358 0)
(0.303463 0.814539 0)
(0.145355 0.353433 -4.42885e-19)
(0.607323 0.280727 0)
(0.313518 0.134642 3.98837e-19)
(1.42718 1.30656 0)
(1.58656 1.16842 0)
(0.874833 0.663842 4.6181e-19)
(1.73381 0.953026 0)
(1.06854 0.438746 2.32205e-20)
(1.47298 0.00813831 0)
(1.501 -0.0292392 0)
(0.801896 -0.00441627 0)
(1.95042 -0.199779 0)
(1.65082 -0.14818 0)
(1.05215 -0.0889697 0)
(3.06126 0.164853 0)
(3.03105 0.0687874 0)
(3.01022 0.0531594 0)
(0.0357443 1.60653 6.08323e-19)
(0.0178935 0.82745 0)
(0.0180197 1.69741 1.07997e-18)
(0.00306844 0.939524 -9.70927e-19)
(0.0646802 1.15182 1.87893e-19)
(0.0476964 0.988705 0)
(0.0401837 0.528452 0)
(-0.0286371 1.00482 0)
(-0.00697285 0.517174 0)
(0.0181082 1.6169 -4.43352e-21)
(-0.0181082 0.86631 0)
(-0.0539622 1.58551 -2.25821e-19)
(-0.0161804 0.821476 4.37353e-19)
(-0.00177265 1.02904 0)
(0.0102593 1.04323 0)
(5.50331e-05 0.531201 0)
(0.0106558 1.17012 0)
(0.000887997 0.611932 0)
(1.4683 -0.00370476 0)
(0.789214 0.00805918 0)
(1.44054 0.0331655 0)
(0.76179 -0.00055779 0)
(0.675384 0.00534437 0)
(1.26196 0.0166818 0)
(1.20239 0.047308 0)
(0.659693 0.0155558 0)
(-0.00580052 1.42077 -1.70212e-20)
(0.00018432 1.37708 0)
(0.00482012 0.732923 0)
(0.00172892 0.417221 0)
(0.28446 0.828801 0)
(0.253636 0.39976 -2.87149e-19)
(-0.00223037 0.635411 0)
(-0.00889648 0.367611 0)
(0.0103265 4.33756 0)
(-0.050156 4.6644 0)
(-0.0196044 4.56607 0)
(-0.0727188 3.36796 2.04505e-20)
(-0.059224 4.60337 0)
(-0.0529287 4.18037 0)
(0.00480946 0.819666 1.08012e-20)
(0.0141957 1.56347 1.65415e-19)
(-0.0359121 1.50384 1.20914e-19)
(-0.00747601 0.826429 0)
(0.66444 0.10571 1.15333e-18)
(0.325689 0.0441637 -1.13028e-18)
(0.149735 1.13375 0)
(0.100989 0.57357 -2.69277e-19)
(0.118219 1.23369 -8.74447e-19)
(0.0519031 0.687406 8.69946e-19)
(0.809202 0.0240634 0)
(1.55677 0.0476794 0)
(1.7097 0.127652 0)
(0.919845 0.0445227 0)
(0.00786969 1.18136 0)
(0.0258034 1.18949 0)
(0.00447482 0.627441 0)
(0.482128 0.315093 1.20366e-18)
(0.436862 0.309094 -1.38674e-18)
(0.234774 0.16418 0)
(1.93547 0.152994 1.15244e-19)
(1.1364 0.0932472 0)
(1.72434 0.118441 0)
(0.88372 0.0226938 0)
(0.678182 0.0857393 0)
(0.699722 0.0460602 -5.40772e-18)
(0.346732 0.0325965 1.99909e-18)
(0.00914719 0.807284 1.69372e-18)
(0.00222275 0.46251 4.08166e-20)
(-0.0108777 1.40842 -3.58013e-20)
(0.00613616 1.38675 1.3659e-18)
(-0.0149832 0.848955 6.29452e-20)
(-0.0119261 0.524486 -2.52912e-22)
(-0.107514 1.00068 -1.1649e-18)
(-0.0529602 1.3532 8.34011e-19)
(-0.0175323 1.35275 -1.35779e-18)
(1.42273 -0.017085 0)
(1.44236 0.0203181 0)
(0.76987 -0.000177895 0)
(1.45218 0.0253832 0)
(1.3632 0.0462296 0)
(0.761542 0.0203069 0)
(1.30062 -0.00215383 0)
(1.31867 -0.00584895 0)
(0.695056 -0.000986615 0)
(0.304881 0.473442 -9.15276e-19)
(0.16137 0.242697 0)
(0.157175 0.308465 1.36949e-19)
(0.309629 0.585961 1.12224e-18)
(0.307437 0.548636 -6.64376e-19)
(0.156837 0.281927 1.29828e-18)
(0.278529 0.717814 2.18175e-18)
(0.148288 0.38091 3.9367e-19)
(0.636104 0.213098 1.53752e-18)
(0.626008 0.25361 3.99334e-19)
(0.316627 0.115048 7.49298e-19)
(1.92123 0.714587 -5.99733e-19)
(1.16765 0.336087 -7.01956e-19)
(-0.0351005 1.70451 4.64206e-19)
(-0.0114056 0.925573 0)
(1.60388 0.0239501 0)
(1.5219 0.0653711 0)
(0.852927 0.0268575 0)
(-0.00355883 1.38473 0)
(0.00507421 0.729574 2.49518e-18)
(0.00465033 0.731252 0)
(0.00207079 0.415097 -2.44222e-18)
(-0.0102751 1.38627 5.9567e-19)
(-0.00947265 1.4225 0)
(0.336574 0.488173 2.57972e-19)
(0.360062 0.546436 -8.63049e-19)
(0.171847 0.257834 7.81188e-19)
(-0.0256694 0.767467 -1.66267e-18)
(-0.0261515 0.689734 0)
(-0.0154342 0.412937 0)
(0.030146 1.54924 -1.27267e-20)
(0.0313593 1.58185 -3.64905e-19)
(0.0178878 0.82322 -1.55941e-20)
(0.213426 1.0443 8.90103e-19)
(0.119681 0.509115 -5.92317e-19)
(0.0119018 1.48553 7.30683e-19)
(0.0558847 1.35136 -8.15519e-19)
(0.0268449 0.760697 3.53104e-20)
(0.00751347 1.36614 -3.80766e-18)
(-0.000214916 1.39326 4.40948e-18)
(0.00377338 0.829776 1.73296e-18)
(-0.0138289 0.805094 -1.72543e-18)
(-0.00430907 0.481399 -1.73859e-18)
(-0.0106511 1.41685 -4.49989e-18)
(-0.0152178 1.40032 4.58908e-18)
(0.2864 0.674873 0)
(0.299807 0.634696 -2.28786e-18)
(0.151955 0.331753 9.90415e-19)
(0.28126 0.796075 1.18512e-18)
(0.138828 0.427571 -1.82864e-18)
(2.05695 0.322569 4.15858e-19)
(2.0515 0.547701 0)
(1.21862 0.220973 -4.01813e-19)
(-0.0739076 1.63659 -4.80201e-21)
(-0.0141111 1.69193 0)
(-0.0157049 0.922658 0)
(0.227128 0.944648 -3.22807e-19)
(0.248268 0.86662 -7.06941e-19)
(0.128826 0.463335 1.32485e-18)
(3.16442 -0.442872 0)
(3.34728 -0.414685 1.81287e-18)
(0.0614625 3.48369 0)
(0.0483679 2.80742 0)
(3.15925 0.249915 1.4192e-20)
(3.12355 0.506295 3.71225e-18)
(0.0226055 3.43289 -2.74455e-20)
(0.00890969 2.66478 0)
(-0.0416449 1.19605 1.55504e-18)
(0.190084 1.31641 0)
(3.4725 1.62502 -3.24773e-19)
(3.17427 0.272573 -2.96098e-20)
(3.14838 -0.118697 0)
(3.10047 -0.000404101 3.73107e-22)
(0.04399 2.58889 0)
(0.157767 3.30236 0)
(-0.0548468 2.53239 0)
(-0.0229677 3.49081 3.15789e-19)
(-0.0249834 3.57171 1.9927e-19)
(2.63344 0.0488295 -1.36491e-20)
(3.0475 0.0311504 0)
(3.15791 0.0868364 0)
(-0.0523344 4.61754 0)
(-0.046032 3.08495 0)
(-0.0721157 2.9343 0)
(0.652463 3.10493 2.65761e-19)
(3.33884 -0.422458 0)
(3.0114 -0.34581 0)
(3.1699 -0.0530369 2.27728e-18)
(3.2927 -0.3287 -2.7421e-18)
(3.1038 -0.125777 0)
(-0.058054 4.51547 0)
(0.0157184 3.9346 0)
(0.00740338 4.2656 0)
(-0.026961 3.09487 0)
(-0.0133428 2.85068 0)
(-0.0306643 2.42339 0)
(2.97422 -0.00317024 0)
(2.85043 0.0486279 -1.805e-20)
(2.2467 3.049 -3.21619e-19)
(3.15695 0.0444551 -2.27835e-18)
(3.19037 0.278179 2.76945e-18)
(3.0828 0.117338 0)
(3.3954 0.328925 2.08737e-18)
(3.35695 0.484366 -2.70665e-18)
(3.07111 0.418429 0)
(-0.0552842 3.34825 0)
(0.00511481 3.27773 8.52441e-20)
(-0.030562 2.57679 -6.04038e-20)
(3.70786 0.555296 2.26561e-18)
(3.47096 0.208489 0)
(-0.151979 1.27126 -2.16599e-18)
(-0.0624275 0.882159 -1.35038e-19)
(-0.0848282 1.33672 2.98568e-18)
(-0.0352305 1.27045 -8.9964e-19)
(-0.000490189 1.08842 0)
(-0.0266647 1.23955 6.94874e-19)
(-0.115052 1.38786 2.1466e-18)
(-0.0590484 1.34056 -1.31417e-18)
(-0.0767375 1.32063 0)
(1.28934 0.597234 0)
(1.17732 0.682409 0)
(3.55655 2.02939 9.53614e-19)
(3.04973 1.93586 -1.19071e-18)
(3.83768 1.70653 0)
(3.38416 1.1568 0)
(3.34934 0.280495 -3.91698e-18)
(2.89884 0.17312 4.83997e-18)
(3.35145 -0.155479 0)
(2.85479 -0.076136 0)
(3.43642 0.043026 0)
(3.5938 0.145057 0)
(3.28683 0.119874 0)
(3.55033 0.298581 0)
(3.40841 0.293059 0)
(3.32755 0.218074 0)
(0.0974591 2.79025 0)
(0.0344434 2.07894 0)
(0.126708 3.05112 0)
(0.0927193 2.20521 0)
(0.215115 3.59531 0)
(0.140261 2.67523 -5.58651e-19)
(0.0535846 3.61183 0)
(0.0115118 3.01564 4.05677e-19)
(-0.0243142 3.20491 -5.1709e-19)
(-0.0589853 2.79688 0)
(-0.0227854 2.19965 0)
(-0.0718286 2.90452 0)
(-0.0554799 2.04792 0)
(-0.10647 4.75014 -2.45554e-19)
(-0.0791731 3.94274 2.77267e-19)
(-0.0742747 3.80366 3.09095e-19)
(-0.0526831 3.01819 0)
(-0.104488 3.80508 -4.58737e-19)
(-0.037161 3.21667 -2.95093e-19)
(-0.0806553 4.78254 1.92575e-19)
(-0.093363 4.46657 -3.50461e-19)
(-0.0684783 4.33632 -3.78955e-19)
(3.03134 0.0883852 3.35874e-18)
(2.2896 0.0321819 -4.22996e-18)
(2.89132 0.132844 -3.32767e-18)
(2.20958 0.0734885 4.15645e-18)
(3.36857 0.0277252 0)
(2.64306 -0.00265135 0)
(3.45415 0.0913537 0)
(3.32024 0.0192883 0)
(2.70665 0.00922658 0)
(3.68029 0.239637 0)
(3.43882 0.0959996 0)
(2.86367 0.0565159 0)
(-0.0223235 4.336 -1.20333e-20)
(-0.0552369 4.65371 0)
(-0.0605832 4.54963 0)
(-0.0751115 3.50605 8.77573e-20)
(-0.037496 2.77958 -3.46658e-21)
(-0.0802126 4.6701 1.13431e-19)
(-0.0943771 4.45827 -1.14628e-19)
(-0.0778972 3.95524 0)
(-0.0560665 3.87553 0)
(-0.0197058 3.9924 0)
(-0.0711469 3.25498 0)
(-0.0426267 2.29991 0)
(0.948761 3.66133 -6.08857e-19)
(0.921124 2.85294 -1.76364e-19)
(0.430343 2.05308 -2.28197e-19)
(0.252313 2.2996 6.97e-19)
(1.02384 4.20031 2.63818e-19)
(3.43308 -0.167422 0)
(3.32213 -0.256546 0)
(2.88327 -0.189515 0)
(3.47032 -0.064346 0)
(3.34581 -0.147865 0)
(3.44893 -0.261023 0)
(3.5195 -0.283601 0)
(3.57949 -0.281129 0)
(3.22413 0.0933874 3.61904e-18)
(2.55519 0.0645182 -4.57622e-18)
(3.0965 0.106578 -3.56249e-18)
(2.5091 0.0566747 4.43274e-18)
(2.2399 3.41683 0)
(1.73959 2.94818 -4.45634e-19)
(2.56691 3.34883 -4.0322e-19)
(2.36947 2.52946 5.3592e-19)
(0.774521 1.21305 2.72227e-18)
(1.44678 0.216478 1.3432e-18)
(3.72255 0.304246 0)
(3.89313 0.572813 -1.84606e-18)
(3.29898 0.243953 -8.23428e-20)
(3.72082 0.440143 0)
(0.23662 1.31234 1.79608e-18)
(-0.0166444 1.20199 -2.87635e-18)
(0.058813 0.769962 1.61453e-18)
(0.275946 0.464905 -7.4784e-19)
(0.187252 1.38377 8.70996e-19)
(0.0506476 1.23717 0)
(0.0577379 1.08617 -1.13228e-18)
(0.191722 1.44298 -4.09213e-18)
(0.329014 1.55698 0)
(0.00867292 1.2902 1.19586e-19)
(-0.00971772 1.45729 -1.34023e-18)
(-0.0410148 1.30282 1.9484e-18)
(-0.0574439 1.41766 0)
(-0.0204762 1.38228 0)
(0.681102 1.04991 0)
(2.45685 2.45517 -1.0662e-18)
(2.644 2.17369 3.95242e-19)
(2.79252 2.88251 0)
(3.21303 3.0676 -3.9457e-19)
(3.16594 2.41175 2.84624e-20)
(0.803682 0.589335 -1.82237e-18)
(1.55585 0.691445 -1.62186e-20)
(1.23288 0.450993 8.72146e-19)
(1.27499 0.843608 5.95049e-20)
(0.938775 0.633805 -2.36947e-18)
(1.46419 0.71413 0)
(1.98979 1.09969 1.45592e-18)
(2.03194 1.01564 0)
(1.41175 0.790659 0)
(1.06191 0.549654 0)
(3.37548 2.18021 1.0085e-18)
(3.94755 0.760917 -1.86339e-18)
(3.84788 1.21609 0)
(3.53381 0.757791 0)
(1.39134 0.364756 1.33248e-18)
(3.25801 1.84223 -8.51501e-19)
(2.83434 1.6544 1.54684e-18)
(3.75527 1.37708 -1.83588e-18)
(3.09793 0.114761 2.464e-18)
(3.16856 0.180817 -2.57896e-18)
(2.66183 0.0916426 0)
(3.30731 -0.0394964 0)
(3.20141 -0.0842565 -2.36654e-18)
(2.63244 -0.0321097 2.34569e-18)
(3.9563 0.0932054 0)
(3.75968 0.145654 0)
(3.69369 0.155373 0)
(3.5883 0.204748 0)
(3.83261 0.0590317 0)
(3.72611 0.052253 0)
(-0.0400203 2.51229 0)
(-0.0376539 2.01142 0)
(0.357278 3.98876 -4.1132e-19)
(0.662892 3.33401 -1.60027e-19)
(0.259707 3.02795 -3.58033e-19)
(0.343818 2.54829 5.73492e-19)
(0.458459 4.01487 0)
(0.470367 4.67179 -5.09911e-19)
(0.383703 4.73013 0)
(0.911482 4.37554 -3.79507e-19)
(0.67351 3.81485 9.68846e-19)
(0.5977 4.65323 4.46959e-19)
(0.741019 4.20139 -1.87519e-19)
(0.602928 4.32669 1.50872e-19)
(0.916801 4.65743 -6.63783e-19)
(0.750133 4.66204 0)
(0.858991 4.58974 5.0456e-19)
(0.00745784 4.57283 -1.81149e-19)
(-0.0183699 3.6479 0)
(0.101908 4.28784 5.49643e-19)
(-0.00243608 4.39081 0)
(-0.00343873 3.45944 -4.51105e-19)
(-0.0151531 2.91301 0)
(-0.0997594 4.30787 -2.8911e-19)
(-0.105331 4.68166 0)
(-0.052643 3.80537 0)
(-0.0395525 3.72716 3.25166e-19)
(-0.0467748 3.88904 1.03844e-20)
(-0.0345287 3.71012 6.25968e-19)
(-0.0410713 2.9505 4.06907e-21)
(-0.113535 4.7107 1.80172e-19)
(-0.102372 4.7422 1.03212e-19)
(-0.0166389 2.62208 0)
(0.00129289 2.1345 0)
(-0.0409865 4.78967 4.86205e-19)
(-0.0477512 4.30854 4.23813e-19)
(-0.0824335 4.58492 -5.54051e-19)
(0.0169767 4.75835 0)
(-0.0782195 4.53565 -3.09076e-19)
(-0.117459 4.16953 1.2775e-19)
(-0.084651 4.2501 -4.13007e-20)
(-0.0698089 4.72961 -2.18879e-19)
(-0.0851686 4.27125 -6.85606e-20)
(-0.0835079 4.21613 3.0671e-19)
(2.87142 0.0610236 -2.36362e-18)
(2.85888 0.049706 2.27309e-18)
(2.3386 0.0345577 0)
(3.5101 0.192033 3.04663e-18)
(2.70368 0.126544 -3.30488e-18)
(2.2545 0.0644856 3.6097e-18)
(3.68249 0.335335 -4.01655e-19)
(3.20989 -0.0485209 0)
(3.17212 -0.0135486 2.23709e-18)
(2.69091 -0.0123748 -2.21945e-18)
(3.87876 0.122247 -1.25243e-19)
(3.77176 0.10186 1.07837e-18)
(4.15977 0.173494 0)
(4.22846 0.181154 -3.75146e-19)
(4.0137 0.145239 0)
(3.6949 0.155409 0)
(4.0323 0.0950891 0)
(3.71179 0.0873343 0)
(4.18472 0.11389 7.8553e-19)
(4.1372 0.0791409 -1.74797e-18)
(4.14067 0.113892 -8.48042e-19)
(4.1864 0.116534 -9.24523e-19)
(4.2157 0.229019 1.77413e-18)
(3.85474 0.188634 0)
(4.06127 0.301922 0)
(-0.0721139 4.58101 -1.35734e-19)
(-0.0327441 4.6449 -1.1678e-20)
(-0.0655006 4.66132 0)
(-0.0548651 4.19746 1.38112e-19)
(-0.0532831 4.22494 2.25373e-20)
(-0.0580761 4.09313 -2.18442e-20)
(-0.0800422 3.52878 2.61195e-19)
(-0.143214 4.00826 -1.45195e-20)
(-0.101968 4.13561 7.47652e-20)
(-0.0740174 3.40447 -1.32314e-19)
(-0.0246636 2.92708 1.58457e-19)
(-0.0753232 4.428 5.20108e-21)
(-0.0882224 4.64247 1.72234e-19)
(1.24357 4.35938 3.4748e-19)
(1.15981 4.5285 7.26077e-19)
(1.73668 3.4661 4.30918e-19)
(1.30867 3.56024 1.69539e-19)
(1.28632 2.88927 0)
(0.548577 2.31898 2.74899e-19)
(0.463608 1.74169 3.30705e-19)
(0.345173 2.56771 1.50993e-20)
(0.49225 3.17365 -1.16131e-18)
(0.631836 3.1325 8.76546e-19)
(0.432839 2.40472 0)
(0.293642 1.97222 -5.57302e-19)
(0.259956 3.0782 1.39481e-18)
(0.273425 2.71988 -3.13883e-20)
(0.157974 2.27663 -1.74815e-18)
(0.591443 1.41112 1.46341e-18)
(0.576407 1.61694 0)
(3.58364 -0.0751498 8.64364e-20)
(3.61861 -0.254102 -7.25992e-20)
(3.72135 -0.217712 -1.26659e-18)
(3.75927 -0.126019 1.28247e-18)
(3.67616 -0.048856 0)
(2.44637 3.87135 0)
(2.61795 3.91455 0)
(2.88953 3.6254 0)
(2.73628 3.64259 0)
(0.854214 1.39444 -3.33924e-21)
(0.611514 1.0391 0)
(1.70916 3.38431 1.50217e-20)
(1.42108 3.46338 0)
(1.32663 2.95059 -1.28377e-18)
(1.40714 2.89323 8.24447e-19)
(1.79129 0.310399 0)
(1.43046 0.262019 3.52076e-19)
(2.41167 0.358827 2.19186e-18)
(1.78608 0.284835 -7.85453e-19)
(1.42633 0.112198 -2.49506e-18)
(4.26631 0.790074 -2.56558e-18)
(3.852 0.995189 -3.67202e-20)
(3.29695 0.844625 2.0679e-18)
(3.87581 0.745454 1.81334e-18)
(3.12309 0.465682 -3.04514e-18)
(2.91025 0.452157 3.75001e-19)
(3.19253 0.682311 -8.18747e-19)
(2.97613 0.683397 0)
(3.75869 0.56398 1.5377e-18)
(4.09568 0.629387 0)
(4.0912 0.776457 0)
(4.04576 0.415911 8.23705e-19)
(4.29665 0.642571 -3.02473e-20)
(4.24944 0.715886 -4.52896e-19)
(4.17657 0.643271 0)
(3.61568 0.130414 1.71824e-18)
(4.19 0.183595 2.14428e-18)
(4.09069 0.151657 -1.67948e-18)
(4.13652 0.240872 -1.44291e-18)
(3.74574 0.238211 -2.15645e-18)
(3.30291 0.375964 0)
(3.40345 0.302405 0)
(2.55813 0.190649 -1.2661e-18)
(2.10848 0.119114 4.76783e-19)
(4.03723 0.352622 1.94041e-18)
(4.28774 0.43284 -2.34658e-18)
(4.28489 0.489468 2.06898e-18)
(4.15714 0.493524 0)
(4.25663 0.337297 0)
(4.26651 0.322392 -9.81972e-19)
(4.2143 0.316158 -1.59658e-18)
(2.22692 3.48729 6.20505e-19)
(1.9377 3.23097 -6.8339e-19)
(1.44579 2.35554 -1.03194e-18)
(1.18644 1.99634 2.66856e-19)
(0.883818 1.37821 -2.62881e-18)
(0.793703 1.21548 9.2217e-19)
(0.600798 0.903974 -1.97044e-21)
(1.11461 1.78479 -1.13791e-18)
(1.14194 1.8819 1.69867e-18)
(0.974408 1.70017 5.06096e-19)
(0.78598 1.28868 -5.12712e-19)
(0.635437 1.07444 0)
(2.44572 2.60683 -1.1544e-19)
(0.705218 1.14422 8.57266e-19)
(0.927788 0.889742 1.15623e-18)
(0.755308 0.813634 1.3378e-18)
(1.08313 0.746542 1.3412e-18)
(1.46696 1.04435 -2.27036e-18)
(1.383 1.07124 1.83949e-18)
(1.00184 0.765538 -6.76778e-19)
(0.817058 0.568026 1.4947e-18)
(1.61553 0.49076 -7.78139e-19)
(1.55899 0.508336 0)
(1.23957 0.407341 4.6063e-21)
(2.50927 1.51591 7.75589e-19)
(2.07987 1.27017 -2.8087e-18)
(1.68671 1.18443 9.08898e-21)
(1.66076 1.09237 0)
(2.86218 2.59511 8.7383e-19)
(3.44681 2.75282 1.03751e-18)
(3.25585 2.93074 -1.196e-18)
(3.55422 2.76335 -4.28401e-19)
(3.48426 2.60358 -1.349e-19)
(3.51244 2.79504 1.38793e-19)
(3.6743 2.26699 -1.67948e-18)
(3.70519 2.49204 4.00762e-19)
(3.78365 2.43578 0)
(3.78443 2.19153 -5.79734e-19)
(4.04898 1.07331 5.80582e-19)
(4.27596 0.993147 1.0022e-18)
(4.30041 0.966856 1.01171e-18)
(4.05504 1.32932 -1.14967e-18)
(4.10286 1.34973 0)
(4.1525 1.23369 0)
(3.32774 1.23572 -1.56053e-20)
(2.41777 0.666495 0)
(2.72189 0.744043 9.30683e-19)
(3.23831 0.885941 -2.64555e-20)
(3.77292 1.53466 5.10763e-18)
(3.56985 1.76188 1.31117e-18)
(3.48099 1.54047 -1.34071e-18)
(3.03741 1.36978 1.43748e-18)
(2.76071 1.36966 8.23792e-19)
(2.30662 1.15591 -7.97825e-19)
(3.67221 -0.0855438 1.98469e-18)
(3.8947 -0.0289334 0)
(3.85894 -0.0665498 1.34211e-18)
(3.74291 -0.0594094 -2.98784e-18)
(3.98056 0.0373762 1.46201e-18)
(3.90444 0.113426 -3.08303e-18)
(3.73986 0.128035 0)
(3.55625 0.17347 -6.28565e-19)
(3.81197 0.12298 1.60532e-18)
(3.69195 0.191384 -8.22582e-19)
(3.6003 0.171078 5.90733e-19)
(-0.0800657 2.59043 0)
(-0.0465952 3.39748 0)
(-0.0317575 2.46151 0)
(-0.0214956 1.97029 0)
(0.0466363 3.94054 6.70706e-19)
(0.140451 3.7219 -1.72966e-19)
(0.317757 4.6442 -2.29747e-19)
(0.253436 4.46096 2.42646e-19)
(-0.024391 4.29359 -4.97544e-19)
(0.0126858 4.32569 3.73619e-19)
(0.0962073 3.86915 2.22656e-20)
(0.0101962 3.55642 -4.67121e-19)
(-0.0121001 3.30808 -6.22667e-20)
(-0.0388193 3.67043 -5.67376e-20)
(0.15375 4.4756 -5.87015e-19)
(0.178914 4.28917 0)
(0.276246 4.63543 2.96436e-19)
(0.269414 4.70969 2.53013e-19)
(0.596367 4.4448 -2.26033e-19)
(0.408528 3.78126 0)
(0.457657 3.62891 -1.11497e-18)
(0.560447 3.99777 7.90046e-19)
(0.48065 4.56225 -6.14854e-19)
(0.371011 4.43306 3.30795e-19)
(0.299981 4.15503 0)
(-0.0338881 4.76243 -5.53218e-19)
(-0.0737143 4.52819 -6.41521e-19)
(-0.0748065 4.74071 0)
(-0.028149 4.36099 -6.2509e-21)
(-0.0180896 4.64226 2.74259e-19)
(-0.117895 3.88098 4.46993e-20)
(-0.0549294 3.48544 -6.53685e-19)
(-0.0949703 3.92373 1.74176e-19)
(-0.134636 4.51714 2.32314e-19)
(-0.075228 4.32739 0)
(-0.0592478 3.88546 0)
(-0.0819804 2.89737 2.00807e-19)
(-0.0473263 3.63067 -6.26585e-20)
(-0.0724524 3.61818 0)
(-0.0880479 2.68637 1.58107e-19)
(-0.0462881 2.19317 -3.06343e-19)
(3.76103 0.0323463 0)
(3.7319 0.00774833 -2.03285e-19)
(4.1795 0.0679668 -1.44001e-18)
(4.08911 0.046317 0)
(3.87634 0.0178281 0)
(4.14973 0.037063 -1.25247e-20)
(4.1003 0.0349568 2.37903e-18)
(4.0001 0.0802188 2.84579e-18)
(3.75586 0.118675 0)
(3.55802 0.11006 0)
(4.01332 0.0939693 1.41754e-18)
(3.70325 0.116146 0)
(3.4721 0.128883 0)
(-0.0811475 4.70037 0)
(-0.106942 4.66855 1.06668e-20)
(-0.0772585 4.72036 6.30017e-20)
(-0.0606957 3.83135 0)
(-0.112401 4.53587 1.11249e-19)
(-0.068115 4.2403 -6.33597e-20)
(-0.0541396 3.92871 0)
(1.41061 4.18592 0)
(1.20967 4.58032 -1.29815e-18)
(1.22502 4.48832 0)
(1.57424 4.48697 1.48459e-18)
(1.59335 4.1207 0)
(1.50179 4.37122 -6.06626e-19)
(1.01154 2.24274 -3.39499e-20)
(0.70922 1.6455 -1.74476e-18)
(0.590713 1.22756 2.12876e-18)
(0.708813 1.83513 3.96836e-19)
(0.975154 2.42434 0)
(1.03652 2.3794 0)
(0.718439 1.68745 0)
(0.532378 1.33023 -1.39531e-18)
(1.2091 3.77513 -9.83521e-19)
(1.12898 2.98917 -2.35513e-19)
(1.32715 3.40519 1.92609e-19)
(0.599376 2.04113 0)
(0.620303 1.94283 0)
(0.4623 1.57131 -3.92748e-19)
(0.957817 2.72072 0)
(2.6873 3.57096 0)
(2.38139 3.00857 -1.45466e-18)
(2.54601 3.02693 -8.58801e-20)
(2.4199 3.40435 0)
(2.2858 3.14942 2.22124e-18)
(3.27808 3.08675 -3.89729e-19)
(3.13409 3.32489 0)
(3.11648 3.15125 6.30497e-19)
(2.87053 3.41264 0)
(2.88207 3.20075 0)
(1.2093 2.00633 -9.30482e-19)
(1.4141 2.40334 -6.99568e-19)
(1.75367 2.9818 1.20606e-18)
(1.69586 2.95982 -3.62267e-19)
(1.06245 1.82225 0)
(1.2069 2.20852 4.71139e-19)
(0.718448 1.28872 -7.15252e-19)
(0.581643 1.04349 -5.62086e-22)
(1.93746 3.69576 0)
(2.19927 3.74297 -5.42638e-19)
(2.33844 3.98625 0)
(2.28412 0.52902 0)
(1.61738 0.341914 0)
(1.20905 0.276592 0)
(2.20917 0.554271 -1.46529e-18)
(1.63532 0.402203 8.17268e-19)
(2.14564 0.129123 -9.85194e-19)
(2.62663 0.29753 0)
(2.46569 0.301647 4.135e-19)
(1.76989 0.135719 1.63304e-18)
(1.53028 0.0812684 -1.03707e-18)
(0.745567 1.55593 8.58085e-19)
(0.959818 1.82041 0)
(0.537667 1.44004 1.56094e-18)
(0.523869 1.61484 -1.4253e-18)
(0.757209 1.81449 -9.88389e-19)
(2.07348 2.46267 1.33776e-18)
(2.09684 2.71208 0)
(1.58354 1.67813 -2.76357e-19)
(2.00976 1.98947 1.74513e-18)
(1.3599 1.29261 -4.23594e-19)
(1.5887 1.31346 4.50703e-19)
(2.10965 1.51325 1.02321e-18)
(2.44279 1.67099 0)
(2.2761 1.85612 0)
(2.00998 1.60605 0)
(3.95682 2.07982 3.84528e-19)
(3.75986 1.88975 -1.2636e-18)
(3.81727 2.02806 1.04681e-18)
(3.9011 1.77145 -1.00836e-18)
(4.15788 1.67386 0)
(4.11695 1.84105 -2.97851e-19)
(2.84053 1.16334 -1.89736e-18)
(2.97089 1.16345 -2.41309e-18)
(2.33203 1.04358 1.45647e-18)
(2.13831 0.934452 -1.41988e-18)
(2.46355 0.846185 -1.17815e-18)
(2.17862 0.776962 1.44888e-18)
(4.00845 0.0334758 -1.52893e-18)
(4.05276 0.0406896 3.1303e-18)
(3.76797 -0.0658808 1.90096e-18)
(3.79119 -0.0737716 -2.28684e-18)
(3.95955 0.0105738 0)
(4.05604 0.0228783 -3.72992e-18)
(0.0970415 4.76175 1.06564e-19)
(0.0678749 4.732 0)
(0.189978 4.73171 9.53518e-19)
(0.211526 4.74929 -8.67477e-19)
(0.23143 4.71854 4.2846e-19)
(0.122437 4.65839 0)
(-0.100941 4.77159 0)
(-0.10678 4.40359 -6.18451e-20)
(-0.105784 4.33239 5.54331e-20)
(-0.11455 4.48192 7.1758e-21)
(-0.105216 4.722 -1.01148e-19)
(-0.0822055 4.70965 5.50892e-20)
(1.87573 4.00975 -1.64333e-18)
(1.81669 4.01631 1.74028e-18)
(1.68425 4.40642 -8.54304e-19)
(1.69312 4.27747 7.61299e-20)
(2.2528 4.08633 0)
(1.85465 4.21975 -6.35596e-19)
(1.98184 3.95955 6.16436e-19)
(1.82408 4.38074 8.34497e-19)
(2.07682 4.21928 0)
(2.22828 4.10023 0)
(1.13863 3.63122 1.49512e-18)
(0.826807 2.81172 2.02345e-18)
(0.954537 2.99006 -1.38969e-18)
(0.746751 2.97182 -2.31917e-19)
(0.902742 3.73096 4.66343e-19)
(0.72239 3.36353 -1.1341e-18)
(0.745768 1.46574 -1.21483e-18)
(0.746226 1.31692 0)
(0.602558 1.11449 -1.33527e-18)
(1.11094 2.064 0)
(1.08792 2.15094 0)
(1.35856 2.19079 -1.09061e-18)
(1.06444 2.01415 -1.03602e-18)
(1.0168 2.03503 1.0987e-18)
(1.03108 1.51915 0)
(1.41031 1.76174 -6.01232e-19)
(1.62724 2.11895 -8.55453e-19)
(1.41077 2.08255 0)
(0.86778 1.81837 7.12465e-19)
(0.77969 1.67944 0)
(2.90604 2.28885 -1.84713e-18)
(3.31889 2.47054 2.60939e-18)
(3.27759 2.19305 -2.59348e-18)
(2.6103 2.02083 -2.31187e-19)
(2.72489 1.94029 -9.74188e-19)
(1.26184 2.1897 7.96176e-19)
(1.31598 2.24453 -1.35993e-18)
(1.45403 2.32947 1.79281e-18)
(1.79025 2.55947 -1.16525e-18)
(1.88887 2.93223 -1.56724e-18)
(1.56309 2.48857 -1.18804e-19)
(1.63284 2.62812 1.37128e-18)
(1.80995 2.69296 9.66183e-20)
(2.01785 2.99868 6.5001e-19)
)
;

boundaryField
{
    wall-4
    {
        type            noSlip;
    }
    velocity-inlet-5
    {
        type            fixedValue;
        value           uniform (3 0 0);
    }
    velocity-inlet-6
    {
        type            fixedValue;
        value           uniform (0 1 0);
    }
    pressure-outlet-7
    {
        type            zeroGradient;
    }
    wall-8
    {
        type            noSlip;
    }
    frontAndBackPlanes
    {
        type            empty;
    }
}


// ************************************************************************* //
