/*--------------------------------*- C++ -*----------------------------------*\
  =========                 |
  \\      /  F ield         | OpenFOAM: The Open Source CFD Toolbox
   \\    /   O peration     | Website:  https://openfoam.org
    \\  /    A nd           | Version:  9
     \\/     M anipulation  |
\*---------------------------------------------------------------------------*/
FoamFile
{
    format      ascii;
    class       volScalarField;
    location    "30.45";
    object      p;
}
// * * * * * * * * * * * * * * * * * * * * * * * * * * * * * * * * * * * * * //

dimensions      [0 2 -2 0 0 0 0];

internalField   nonuniform List<scalar> 
918
(
23.4692
23.576
0.953116
22.8866
1.01722
23.0925
3.27263
13.785
19.2424
2.93429
2.6251
14.4085
20.6354
16.8768
12.993
0.924988
14.052
2.24669
18.46
1.39814
12.9922
20.4479
21.5366
19.2841
14.1212
14.372
18.5978
1.14499
0.107837
0.254968
0.979307
0.410879
0.147548
21.6294
22.306
22.2443
15.495
10.4026
3.5978
3.80234
2.9831
2.80612
13.8276
13.9276
5.86724
13.7639
13.7596
16.6439
19.1104
19.254
19.5472
19.3363
19.7226
5.97415
2.78551
2.60557
2.87625
2.9506
2.98307
2.69747
2.67909
2.4827
2.33674
13.8878
14.4815
14.5367
14.2679
14.2155
22.452
21.6951
22.0298
21.1362
21.2816
20.2115
19.8259
17.2525
17.6049
16.4787
16.0979
12.7834
12.7446
13.2129
13.4628
0.145427
1.07605
1.22324
14.059
14.0955
14.0955
14.1099
8.28303
2.18851
2.1913
17.9004
17.4769
20.4818
20.749
20.196
20.0105
1.52998
1.5259
1.15067
1.18131
0.950511
13.3335
13.4877
19.2355
18.4024
14.1548
14.0548
14.1298
11.4999
13.9102
13.9835
15.3216
15.7771
14.9663
15.4028
18.1677
17.7497
19.0343
19.4716
0.393062
0.154566
0.687591
0.318282
0.516686
15.3633
15.1579
15.6109
15.6617
15.8929
10.4074
10.338
10.3815
10.3013
4.14963
4.46423
2.25549
2.57007
2.42096
9.86606
13.9439
13.9907
4.81117
5.51551
5.17884
6.34996
6.72435
16.0096
16.4462
16.1849
17.7312
16.9361
17.2843
19.8134
19.3026
19.6031
6.36874
6.60313
5.60833
5.24959
2.23868
2.48816
2.43025
2.98192
2.95991
3.21785
3.34624
2.69855
2.5552
2.89328
2.77661
2.82875
2.166
2.03618
13.6119
13.3979
14.1509
14.3294
15.0966
14.9483
14.6549
14.8237
19.021
19.4245
19.458
19.0738
11.5451
10.1556
13.7173
13.9928
0.302115
0.264581
0.138294
0.380929
0.400721
0.142653
2.0157
1.8272
1.40561
1.68097
14.0565
14.0163
8.52363
8.74325
8.11952
7.86334
16.3146
16.4648
17.0989
16.6987
1.96256
1.6763
1.80617
13.6507
13.5232
13.63
10.935
10.3684
11.9777
12.2475
13.9916
14.0354
14.0313
15.6812
15.9997
19.8224
20.093
19.9199
20.3057
21.3685
21.0198
20.635
14.5391
14.9476
14.786
16.1282
15.7619
15.9813
15.1892
15.4939
15.3518
10.3697
10.416
10.1196
10.1975
10.2461
10.1931
9.80329
9.67632
14.0773
14.0323
14.0564
7.25242
7.75047
4.86933
4.54052
12.5437
13.217
12.8925
18.6508
17.9731
18.7061
18.3352
17.8852
18.2088
10.4268
10.3885
10.4218
14.9171
14.255
14.6069
2.44123
2.07699
2.24004
8.93922
9.0326
6.97121
7.58784
7.25094
16.3013
16.6416
17.3218
16.4336
16.9012
17.4085
17.1866
9.9393
10.0721
9.98899
9.65976
9.55332
9.73519
8.33572
8.94903
3.61282
4.26935
3.96527
9.20059
9.43052
9.27778
18.6301
19.165
0.765684
1.15294
19.595
19.3187
0.139235
0.242132
14.2535
12.5511
7.26267
17.1974
16.63
18.9698
3.19266
6.10269
2.8099
3.38078
2.68649
14.6156
14.2495
13.3406
0.452848
1.25661
1.7093
2.89647
18.4106
17.7354
18.8515
19.1716
19.226
0.687491
0.91263
0.584078
1.24231
1.03099
1.27598
15.551
15.6492
4.32376
18.8585
19.1628
19.1805
17.6573
18.61
17.6675
0.935617
0.642625
0.707491
10.0807
12.1216
14.2137
13.7663
13.9633
13.9854
13.7363
14.8696
14.5391
14.504
14.9889
13.9664
13.8211
7.73446
6.38337
8.06892
7.70928
17.0987
16.6866
16.4935
16.2392
18.085
17.611
18.4614
17.8498
18.3116
18.5985
2.94353
3.13323
3.01222
2.52087
6.14344
6.60626
5.48824
5.63383
4.25951
2.42876
2.52733
2.75358
2.58432
2.93146
2.67901
2.94304
2.5794
2.32376
2.32185
2.93116
2.73893
2.60459
14.594
14.5324
14.3333
14.3714
14.3538
14.4695
13.5351
13.9399
13.5676
12.3987
12.9799
12.5071
0.825724
0.663342
0.524924
1.32405
1.35116
1.11093
0.834533
1.17363
1.20187
0.814098
1.54547
1.4452
3.15582
2.64434
8.84045
7.96821
6.90122
16.8006
17.6024
16.7721
18.0128
18.4297
18.5351
18.1555
17.6473
15.7298
15.7249
15.3851
15.3385
4.77108
3.73182
4.96716
4.53624
10.4779
14.0654
11.8426
10.8038
11.1002
13.4243
13.9289
13.5813
13.7182
13.2933
12.8214
13.5133
13.0471
13.1484
12.9274
15.7179
16.193
15.7995
15.22
15.24
10.5989
12.0156
5.46566
5.63965
7.24417
6.53802
13.5098
13.9328
13.9175
13.556
13.7438
13.7449
13.6057
13.7799
13.8597
13.7543
11.8245
10.144
9.04525
9.03884
14.0768
12.3462
12.9304
12.4138
16.1205
16.637
16.2517
15.6461
16.1311
15.603
15.6302
15.8434
17.2016
16.9512
16.7209
17.1078
3.05489
3.00361
3.6473
3.13358
3.0367
2.81983
3.48395
4.75842
4.41613
6.7185
7.26913
4.58015
3.37284
3.79303
4.80803
5.54149
5.51134
3.96943
4.50129
4.93019
4.44072
5.22451
4.729
2.71802
3.02528
2.86347
2.83716
3.38197
3.8804
3.37591
2.48066
2.5926
2.25674
2.119
3.53627
2.99608
3.03285
3.67888
1.10681
1.32898
1.44121
2.41403
1.91332
1.97922
15.1826
14.8267
14.9603
14.2395
14.307
14.2481
13.8725
15.24
14.962
15.0614
13.7099
13.7967
13.6099
13.9053
14.3213
14.6205
15.4524
15.1735
14.4126
14.5635
14.2145
14.1427
13.4647
12.9017
12.8412
1.11266
0.824788
0.98418
0.910929
0.606234
0.798529
2.18344
1.573
1.97064
1.72674
1.96
1.40345
1.30244
4.25328
5.064
3.964
3.36546
3.06251
8.89884
9.01037
8.15905
7.85697
8.19852
8.42727
8.37701
7.13479
7.56191
7.37493
9.9157
9.58003
17.5867
17.5309
17.202
17.0432
17.2696
5.7625
7.66534
6.79924
7.9154
10.2068
10.5024
9.311
8.70519
9.45654
9.53445
14.047
14.1232
13.5641
14.05
14.0784
11.8351
12.8824
13.4972
13.3117
13.8315
13.9124
12.9735
13.5622
13.4775
12.7601
12.8131
12.1279
12.4664
11.9945
11.7936
14.0561
13.9509
14.2206
13.7715
14.1507
13.715
14.0303
14.0282
14.3088
13.4108
12.8322
12.8506
13.2768
12.977
13.3229
13.487
9.30858
9.9487
10.3874
10.9232
10.6305
10.4125
10.2797
10.5814
10.5583
10.8296
10.7489
10.5998
11.5607
13.416
13.701
13.8024
13.5995
13.6457
13.3383
13.6111
13.5404
13.9197
14.0076
14.0572
13.1379
13.294
13.4887
13.3725
11.6752
10.0971
9.94928
9.50929
7.57693
8.04663
11.0255
9.90236
8.91759
8.98953
12.1687
10.806
11.6194
12.0425
10.6941
10.3061
12.9713
13.7594
13.9792
13.7035
12.0603
12.1861
12.6358
13.079
13.2683
13.724
15.8603
16.436
16.5139
16.2379
16.1
16.1998
15.9499
16.053
16.527
16.6536
16.4849
2.88018
2.99386
2.92391
2.84925
3.08588
2.86141
3.95646
3.94733
3.15672
3.33703
3.35701
3.46246
2.93135
2.97446
4.8265
5.06216
5.33384
4.83235
6.17551
6.81664
7.398
7.08342
5.78988
5.86927
6.18463
3.50748
3.53356
3.25187
3.70935
3.76202
2.61156
2.23903
2.04421
2.56507
2.66646
2.05121
1.76827
1.81744
2.33192
2.05068
1.80473
14.9751
14.7334
14.7548
14.5346
14.5892
14.984
15.2049
15.015
15.1533
15.2044
14.8035
14.6924
14.8635
1.81863
1.49372
1.62268
1.58079
1.64362
1.54979
1.73789
7.60591
6.41589
6.80335
5.9788
4.12085
4.64174
9.53905
9.9605
9.99897
9.71015
9.50007
9.86584
9.71663
9.70938
8.26349
9.33228
8.86813
9.26108
9.28245
9.35019
9.06478
9.08085
10.5845
10.6181
9.48307
10.1227
9.33145
7.93225
8.09925
9.11291
10.0865
10.4048
10.2498
9.97991
9.7513
10.1144
10.1691
10.2292
10.2184
8.75186
8.71174
8.3112
13.9688
13.8753
14.0218
14.027
14.1539
13.9788
13.8159
14.0931
14.1473
13.9316
11.0777
11.1366
11.3824
12.1291
12.1811
12.092
11.3367
13.1008
12.7564
13.3943
13.3411
13.4135
13.0038
12.827
13.0973
10.0809
11.4538
10.9867
11.2499
10.0633
9.30691
13.2235
13.2776
13.343
13.616
13.574
14.1574
15.8302
15.7002
15.7475
15.7905
15.4022
15.4394
4.1756
3.82947
4.55099
4.50658
4.0648
3.76487
2.28669
1.96876
1.78082
1.656
1.88946
1.95061
8.16262
8.18972
6.33409
7.35564
5.87646
4.93472
4.79016
5.95573
7.13699
7.19589
8.51353
9.1897
8.74883
8.5741
7.91837
8.24798
10.1163
10.2106
10.1111
10.4301
9.9628
11.7124
11.2946
11.6435
13.2575
12.9671
12.369
12.2556
12.2204
12.8135
11.9477
11.1794
11.8918
12.5473
12.5055
11.1181
10.8731
11.2998
11.2838
10.1979
10.7181
10.48
10.8326
10.5479
)
;

boundaryField
{
    wall-4
    {
        type            zeroGradient;
    }
    velocity-inlet-5
    {
        type            zeroGradient;
    }
    velocity-inlet-6
    {
        type            zeroGradient;
    }
    pressure-outlet-7
    {
        type            fixedValue;
        value           uniform 0;
    }
    wall-8
    {
        type            zeroGradient;
    }
    frontAndBackPlanes
    {
        type            empty;
    }
}


// ************************************************************************* //
