/*--------------------------------*- C++ -*----------------------------------*\
  =========                 |
  \\      /  F ield         | OpenFOAM: The Open Source CFD Toolbox
   \\    /   O peration     | Website:  https://openfoam.org
    \\  /    A nd           | Version:  9
     \\/     M anipulation  |
\*---------------------------------------------------------------------------*/
FoamFile
{
    format      ascii;
    class       volScalarField;
    location    "2";
    object      p;
}
// * * * * * * * * * * * * * * * * * * * * * * * * * * * * * * * * * * * * * //

dimensions      [0 2 -2 0 0 0 0];

internalField   nonuniform List<scalar> 
918
(
28.5487
26.8583
1.33539
27.9432
1.00761
26.3753
6.35003
17.297
24.319
5.17535
3.8135
19.0255
23.9173
20.1566
16.4049
1.43481
18.212
4.5036
23.5149
1.49501
16.3244
25.5252
26.6093
24.3513
18.4799
17.5376
21.8794
1.31447
0.165367
0.553004
0.908622
0.481617
0.464659
24.9124
25.5886
25.5267
20.8346
13.1365
6.97645
7.35054
6.01909
5.64175
17.3498
17.4946
9.79518
17.2099
17.1504
21.9607
24.1875
24.3274
24.6328
24.4058
24.7929
7.45565
5.18039
5.10412
5.22726
5.23017
4.2976
4.08228
4.28966
3.64138
3.45867
18.7701
19.2224
19.4017
18.9008
18.8255
25.7343
24.9774
25.3121
24.418
24.5637
23.4933
23.1075
20.5328
20.8856
19.7572
19.3754
16.1642
16.0735
16.668
16.8523
0.172464
1.72583
1.97699
18.2467
18.3182
18.1491
18.0768
10.3607
4.69682
4.77467
22.9833
22.6073
25.5429
25.8065
25.2484
25.0651
1.82958
2.0704
1.13466
1.31791
1.0597
16.6173
16.7983
24.306
23.5044
18.6939
18.475
18.5873
15.9055
18.2898
18.3212
18.6095
19.0523
18.2142
18.6739
21.4489
21.0304
22.3161
22.7539
0.529408
0.198414
1.19663
0.720722
0.9964
20.6041
20.3129
20.8922
21.0277
21.243
13.134
13.0234
13.151
13.0812
7.87366
8.20696
4.95143
5.38666
5.11967
12.4771
17.576
17.6859
8.66741
9.45079
8.99379
10.4305
10.9003
21.3871
21.7854
21.5274
22.852
22.178
22.4623
24.8802
24.3774
24.6748
7.92809
8.32562
7.1389
6.79687
4.60817
4.93423
4.79194
5.15531
5.05059
4.62852
4.90055
4.05974
3.88837
4.87627
4.49072
4.70566
3.24074
3.02885
18.5354
18.3096
19.1211
19.4134
20.1386
19.9564
19.5701
19.7858
22.3029
22.7063
22.7392
22.355
14.546
12.6695
17.1117
17.3531
0.332903
0.302146
0.169521
0.57676
0.403979
0.208486
2.9165
2.69142
2.20617
2.48941
18.3397
18.3536
10.6027
10.8432
10.1349
9.82231
21.6095
21.7369
22.2645
21.9147
2.78332
2.29939
2.55506
17.025
16.8386
16.9923
15.3953
14.7966
16.5065
16.9853
18.3663
18.3751
18.3706
18.963
19.2802
23.1048
23.3754
23.2023
23.5886
24.6513
24.3024
23.9176
19.6574
20.1098
19.9189
21.4449
21.0778
21.2913
20.2842
20.6868
20.4436
13.0278
13.0642
12.829
12.9216
13.0202
12.9493
12.362
12.2173
17.9601
17.7628
17.8906
11.5056
11.9668
6.44225
6.13991
17.2847
17.99
17.5829
21.932
21.2539
21.987
21.6161
21.166
21.4899
13.0632
12.9643
13.037
18.2118
17.5849
17.9163
3.60662
3.09808
3.27754
11.0877
11.247
8.73916
9.48196
9.14259
19.5804
19.9221
20.602
19.7134
20.1807
20.6886
20.4669
12.6085
12.7778
12.6696
12.133
11.9669
14.0259
12.5661
13.0994
5.15869
5.80764
5.47098
11.4463
11.7996
11.6179
23.7187
24.2489
0.883431
1.33634
24.6643
24.3802
0.337605
0.626325
17.5501
15.7257
11.4029
22.3316
21.8734
24.0531
5.46647
7.62898
4.06739
4.61509
3.58504
19.2167
19.073
17.9984
0.638849
1.75855
1.87637
5.50156
23.4824
22.8531
23.94
24.2629
24.2947
0.835063
0.979693
0.662279
1.59925
1.17835
1.4319
20.6505
20.6923
7.84263
23.9318
24.2398
24.2593
22.7466
23.6641
22.7729
1.46665
1.04116
1.22641
14.5229
16.6168
17.5031
16.9981
17.256
17.2955
17.0789
18.1611
17.8577
17.7995
18.2613
17.5306
17.2075
11.9213
10.396
12.4102
12.1618
22.2267
21.9164
21.6935
21.5225
23.176
22.7407
23.5389
22.9429
23.3908
23.6813
5.49772
5.41948
5.50261
5.15884
7.82772
8.45548
7.19646
7.15032
5.73001
3.83567
3.7243
4.2012
4.379
4.47274
3.7817
4.29268
4.01747
3.31739
3.23887
4.2474
3.91259
4.08858
19.2995
19.4644
18.9742
18.9272
19.274
19.5969
18.2828
18.8859
18.5531
16.9382
17.7665
17.2934
0.844341
0.831602
0.670528
1.93883
2.14436
1.44021
1.14681
1.47628
1.31552
1.13469
1.94672
2.15696
6.11352
5.59055
10.9756
9.98591
9.23684
22.002
22.6969
22.0334
23.0894
23.5198
23.6444
23.2836
22.8013
20.8384
21.024
20.451
20.3626
8.39878
6.92502
8.73898
8.44829
13.2501
18.3428
16.4268
15.2443
15.6017
17.6233
17.172
16.8173
17.137
16.5479
16.0284
16.9276
16.3412
16.4354
16.0647
18.9987
19.4713
19.0777
18.4941
18.5224
13.3138
14.8357
9.46972
9.59676
11.1181
10.6203
16.7682
17.5114
17.6356
16.931
17.0837
17.2698
16.892
17.0473
17.2175
17.2392
15.0782
14.5939
13.461
13.3687
18.0781
15.6179
16.143
16.0967
21.3348
21.8227
21.5201
20.8012
21.3664
20.9804
20.8021
20.9809
22.3399
22.1194
21.8689
22.2465
5.38082
5.25131
6.21408
6.03022
5.74826
5.30838
6.09586
7.14268
6.71755
8.88419
9.31249
7.10741
6.54054
6.51132
7.5155
7.97686
8.10714
5.80156
6.01063
6.52785
6.11139
6.77028
6.37643
4.28124
4.50483
4.68324
4.43051
4.79826
5.39733
5.04019
3.67956
3.90808
3.49609
3.27332
5.16165
4.91945
4.83068
5.45765
1.86915
2.05271
2.23729
3.34153
2.93862
3.14116
20.2019
19.7575
19.9784
18.6212
18.8172
18.7395
18.2195
20.3984
20.0259
20.211
18.5303
18.7991
18.3851
18.6492
19.1542
19.3916
20.5701
20.3164
19.2426
19.529
19.1172
19.015
18.0996
17.7584
17.4448
1.6093
1.14901
1.40434
1.35088
1.0175
1.15696
3.05615
2.43833
2.82064
2.51644
2.77892
1.81312
1.75073
7.3042
7.90551
7.34364
6.52918
6.14372
11.0371
11.2775
10.1447
9.90377
10.2347
10.5342
10.445
8.87029
9.48235
9.29129
12.5478
12.0463
22.668
22.6731
22.3652
22.1993
22.3603
9.34326
10.7951
10.4103
11.2741
12.9512
13.2868
11.8687
11.2044
11.8636
11.9563
18.2158
18.34
17.9875
18.2606
18.3554
16.1992
16.6862
17.2483
17.1221
17.8065
17.8338
17.2199
17.5706
17.525
17.0303
16.8717
16.7279
16.7571
16.4124
16.2407
18.7764
18.6696
18.9211
18.3785
18.6513
17.9325
18.2367
18.5251
18.6038
17.832
17.2411
17.1834
17.531
17.5091
17.8819
17.9966
12.0802
12.5514
13.0457
13.6088
13.3307
13.1072
12.9151
13.2652
13.3484
13.5732
13.4655
13.2214
14.3557
16.6877
16.8796
17.1229
16.9283
16.8035
16.5696
16.8621
16.8356
17.8242
17.7578
17.9035
16.2654
16.5769
16.6536
16.6291
14.6105
13.6185
13.2663
13.2166
11.6473
11.9543
14.5328
13.6492
12.8532
13.0227
16.2999
15.0698
15.8702
15.9307
14.878
14.5826
16.6095
17.4547
17.623
17.2893
15.685
15.6435
16.0727
16.4231
16.5208
16.9929
21.1475
21.5963
21.7201
21.4755
21.2888
21.3669
21.1537
21.3205
21.697
21.828
21.6724
4.69525
4.82411
5.09009
4.88376
5.61286
5.60656
6.31511
6.30807
5.17359
5.40567
5.53932
5.41359
5.10936
5.02403
6.63631
6.98699
7.19597
6.87457
8.37138
8.63482
9.14079
8.99644
7.86726
7.76183
8.04624
5.15235
5.0035
4.83853
5.27449
5.43068
3.78377
3.43273
3.25791
3.80305
4.029
3.06098
2.5154
2.65801
3.00276
3.05976
2.76003
20.1815
19.9142
19.6982
19.5083
19.6321
20.0175
20.3094
20.01
20.1565
20.106
19.7541
19.6192
19.8113
2.45186
2.08244
2.16417
2.45607
2.2448
2.04281
2.19734
9.99243
8.91865
9.26101
8.77924
7.42253
7.81236
12.2839
12.5466
12.6479
12.1458
11.9541
12.1815
12.2665
12.2556
10.5903
11.6199
11.2242
11.516
11.6907
11.7173
11.382
12.0816
13.4471
13.5676
12.3483
12.9401
12.6318
11.5287
11.758
12.3336
13.105
13.0098
12.9477
12.5691
12.3578
12.8149
12.7114
13.0112
13.0082
11.4122
11.5118
11.1722
17.8901
18.0825
18.1579
17.8819
18.1133
18.3507
18.0528
18.2403
18.4093
18.2436
13.8673
13.9575
14.2567
15.1562
15.3345
14.7489
14.1091
15.9823
15.598
16.4545
16.4109
16.3722
16.0622
15.7694
16.13
13.9542
15.1309
14.6767
15.0631
14.0783
13.3789
16.7191
16.8288
16.897
17.2088
17.2093
17.5824
21.0181
20.8462
20.9456
20.9183
20.4796
20.498
5.99661
5.76728
6.47853
6.54675
6.21464
5.89772
3.1062
2.95678
2.68032
2.55141
2.67765
2.90902
10.873
10.6929
9.19677
9.93211
9.18457
8.19869
8.16855
9.05454
10.0453
10.2485
10.6962
11.2846
11.0175
10.7999
10.1354
10.398
12.7757
12.9244
12.8178
13.0107
12.6575
14.5766
14.1582
14.5666
16.2386
15.8603
15.1935
15.0558
15.2866
15.8738
14.9919
14.3943
15.0087
15.5577
15.5927
13.9166
13.629
14.1459
14.012
12.9259
13.4407
13.1761
13.5419
13.2198
)
;

boundaryField
{
    wall-4
    {
        type            zeroGradient;
    }
    velocity-inlet-5
    {
        type            zeroGradient;
    }
    velocity-inlet-6
    {
        type            zeroGradient;
    }
    pressure-outlet-7
    {
        type            fixedValue;
        value           uniform 0;
    }
    wall-8
    {
        type            zeroGradient;
    }
    frontAndBackPlanes
    {
        type            empty;
    }
}


// ************************************************************************* //
