/*--------------------------------*- C++ -*----------------------------------*\
  =========                 |
  \\      /  F ield         | OpenFOAM: The Open Source CFD Toolbox
   \\    /   O peration     | Website:  https://openfoam.org
    \\  /    A nd           | Version:  9
     \\/     M anipulation  |
\*---------------------------------------------------------------------------*/
FoamFile
{
    format      ascii;
    class       volScalarField::Internal;
    location    "65";
    object      tmp<kEpsilon:G>;
}
// * * * * * * * * * * * * * * * * * * * * * * * * * * * * * * * * * * * * * //

dimensions      [0 2 -3 0 0 0 0];

value           nonuniform List<scalar> 
12225
(
0
0
0
0
0
0
0
0
0
0
0
0
0
0
0
0
0
0
947.579
499.678
262.791
278.579
381.248
497.914
608.458
721.316
809.604
899.516
962.788
1026.82
1069.83
1114.5
1150.16
1185.68
1262.09
1239.82
85.3978
122.961
55.335
17.1114
5.06775
4.28959
8.68752
16.6063
26.5347
38.3609
50.9952
64.3225
78.203
91.2725
106.27
117.995
138.182
142.595
5.01931
1.71534
0.639454
0.71834
0.482655
0.199759
0.0394208
0.203614
0.813478
1.92806
3.54092
5.608
8.19239
11.0233
14.6581
18.2873
23.6356
27.6587
0.227284
0.131353
0.137944
0.289129
0.389773
0.364481
0.246622
0.11443
0.0254297
0.00715484
0.0808563
0.260566
0.570581
1.00763
1.66189
2.46423
3.62054
4.66954
0.182737
0.182075
0.238115
0.282634
0.276931
0.263506
0.23025
0.176782
0.118815
0.064795
0.0229851
0.0013299
0.00902935
0.0565073
0.16294
0.331908
0.582571
0.841716
0.131273
0.203503
0.207233
0.180021
0.169407
0.176125
0.173943
0.154742
0.127209
0.0957175
0.0635512
0.0336454
0.0106161
0.000403153
0.0107189
0.0487905
0.118103
0.20665
0.10215
0.143743
0.141334
0.128446
0.128292
0.136373
0.136683
0.125482
0.108512
0.0885204
0.0667547
0.0444324
0.0241632
0.00957657
0.00551621
0.0175325
0.0486874
0.0948255
0.07918
0.102082
0.107775
0.105572
0.106923
0.110888
0.10963
0.101115
0.0886754
0.0742029
0.0584822
0.0424837
0.027949
0.0175152
0.0146326
0.0229288
0.0447077
0.0751657
0.0614764
0.0768377
0.08649
0.0882247
0.0892972
0.0911775
0.0897636
0.0833774
0.0738374
0.0627414
0.0510203
0.0396376
0.0300562
0.0242018
0.0245445
0.0330556
0.0510318
0.0732795
0.0477824
0.0588604
0.0692693
0.0730602
0.0748358
0.0763689
0.0754219
0.0708093
0.0635934
0.0551522
0.0465357
0.0387562
0.0330169
0.0307533
0.0335916
0.0423861
0.057546
0.0747074
0.037801
0.0465567
0.0568318
0.0620094
0.0646752
0.0663744
0.0659197
0.0626672
0.0573271
0.0510675
0.0449882
0.0400177
0.037163
0.0374701
0.0419699
0.050904
0.064265
0.0789751
0.0297617
0.037005
0.0469994
0.0533482
0.0569564
0.0591811
0.0594229
0.0574439
0.053905
0.0497774
0.0459652
0.0433077
0.042641
0.0447361
0.0502314
0.0590896
0.0710113
0.0844157
0.0225132
0.0284549
0.0378968
0.045138
0.0497747
0.0528841
0.0542561
0.053781
0.0521137
0.0501308
0.0485593
0.0480625
0.0492349
0.0526643
0.0586873
0.0671959
0.0776462
0.0901411
0.0161342
0.0211675
0.0300742
0.0379601
0.0436729
0.0478739
0.0506437
0.0518836
0.0521611
0.0523052
0.0529458
0.0544717
0.0573069
0.0618788
0.0683779
0.0767633
0.0862086
0.098371
0.0106833
0.0151016
0.0235477
0.0318628
0.0386505
0.0440943
0.0483748
0.0514149
0.0536511
0.0559147
0.0586833
0.0620487
0.0662648
0.0717731
0.0787335
0.0872502
0.0961357
0.108547
0.00621497
0.0102809
0.0183983
0.0270974
0.0348898
0.041658
0.0475408
0.0523885
0.0565063
0.060742
0.0654846
0.0705911
0.0760489
0.0823127
0.0896848
0.0985168
0.107295
0.120046
0.00284837
0.00683477
0.0148555
0.0240659
0.0328589
0.0409501
0.0484385
0.0550557
0.0609029
0.0668529
0.0733526
0.0800628
0.0866877
0.0936477
0.101396
0.11053
0.119318
0.132307
0.000916752
0.00515142
0.0135209
0.0236654
0.0336865
0.0431472
0.0521645
0.0603832
0.0677722
0.0751048
0.0829427
0.090859
0.0984505
0.105999
0.114109
0.123491
0.132194
0.145228
0.00111477
0.00601988
0.015515
0.0271335
0.0384595
0.0490669
0.0591962
0.068472
0.0768612
0.0850772
0.0935875
0.101896
0.109727
0.117465
0.125757
0.135224
0.14359
0.156299
0.00303814
0.00899449
0.0203495
0.033722
0.0460225
0.0572612
0.0678956
0.077669
0.086512
0.0951497
0.103752
0.112008
0.119675
0.127487
0.135724
0.145149
0.152893
0.165375
0.00654079
0.0143041
0.0282223
0.0432951
0.0564479
0.0682234
0.0790571
0.0885925
0.0970954
0.105429
0.113657
0.121496
0.128957
0.136744
0.144989
0.154076
0.161274
0.173027
0.0115587
0.0235824
0.0403976
0.0545014
0.0670968
0.0801825
0.0924304
0.10209
0.109872
0.117082
0.124105
0.130713
0.137414
0.144588
0.152337
0.16059
0.166914
0.177359
0.0188243
0.0427706
0.0662354
0.073642
0.0782844
0.0886634
0.101847
0.113282
0.122406
0.13023
0.136805
0.142261
0.147289
0.152569
0.157826
0.163281
0.166519
0.173771
0.0398246
0.0755242
0.10328
0.123557
0.122206
0.120406
0.122777
0.126861
0.131667
0.136323
0.139184
0.139962
0.139393
0.138427
0.136701
0.135093
0.131816
0.132489
0.0763185
0.206319
0.0701165
0.0947833
0.198069
0.257155
0.2622
0.239922
0.210837
0.181789
0.153263
0.12709
0.105487
0.0902078
0.0815239
0.0805627
0.0866515
0.10188
0.664843
0.129779
0.304695
0.485979
0.35537
0.283433
0.223533
0.140514
0.0635557
0.0180454
0.0193635
0.0789044
0.201709
0.388347
0.633309
0.93571
1.28219
1.66884
31.9153
71.1934
43.3952
18.4196
7.17998
2.75555
1.18629
1.07965
1.89375
3.36821
5.34776
7.73557
10.3916
13.2787
16.2541
19.3482
22.3643
25.4011
455.33
257.485
100.818
70.2243
91.0705
127.156
166.732
204.094
238.916
270.901
299.291
325.209
347.754
368.402
386.086
402.68
417.166
431.337
0
0
0
0
0
0
0
0
0
0
0
0
0
0
0
0
0
0
0
0
0
0
0
6.68543
7.76332
8.64283
9.36015
9.78478
9.80942
0
9.22552
8.74535
8.15974
7.40654
7.35826
6.56579
6.40963
5.4463
4.45168
3.6053
2.60322
1.54461
1.50268
3.45144
6.77276
11.445
17.5315
25.109
34.0554
44.2818
55.6115
67.9259
80.9747
94.6819
108.812
123.341
138.059
153.007
168
183.136
198.247
213.474
228.658
243.969
259.248
274.681
290.103
305.713
321.331
337.165
353.016
369.095
385.196
401.529
417.859
434.399
450.893
467.562
484.104
500.742
517.152
533.556
549.593
565.478
580.828
595.843
610.122
623.843
636.6
648.552
659.328
669.098
677.577
684.96
690.931
695.687
698.876
700.656
700.694
698.925
695.386
689.422
680.871
670.029
658.719
644.989
629.652
612.684
594.494
574.235
552.874
530.065
506.216
481.432
455.906
429.856
403.464
377.044
350.798
324.927
299.512
274.737
250.728
227.599
205.45
184.333
164.306
145.37
127.499
110.619
94.9131
80.3098
66.7836
54.2865
42.7867
32.2527
22.6966
14.2729
7.85512
7.29575
12.4256
18.5291
24.4925
30.1027
35.3306
40.1785
44.6768
48.8483
52.7239
56.3225
59.6794
62.8093
65.7353
68.4817
71.0374
73.4175
75.6542
77.7508
79.7238
81.5852
83.3495
85.0178
86.6067
88.1057
89.5188
90.8518
92.1143
93.3084
94.4478
95.5308
96.5612
97.5361
98.459
99.3358
100.178
100.979
101.747
102.484
103.196
103.882
104.546
105.184
105.789
106.357
106.882
107.337
107.706
107.961
108.049
107.936
107.509
106.805
105.425
103.79
100.837
97.1537
92.1483
82.1239
0
9.25996
11.2694
8.38555
4.51531
2.64161
1.5845
1.41158
2.06541
3.45078
5.72829
7.39237
10.1465
14.6949
20.223
26.2525
33.484
41.6264
51.7622
62.3573
71.6879
83.9161
97.8218
112.209
126.304
139.258
149.755
157.484
162.195
163.256
160.521
154.398
145.596
135.685
124.604
113.147
101.759
90.8265
80.6102
71.2546
62.8317
55.3389
48.7446
42.9797
37.9738
33.641
29.9091
26.7034
23.9681
21.6474
19.7002
18.0858
16.7812
15.7652
15.0271
14.5533
14.3401
14.3841
14.6875
15.251
16.0744
17.1585
18.504
20.1124
21.977
24.0927
26.4409
28.9991
31.7282
34.5796
37.4867
40.3722
43.157
45.7815
48.1873
50.4598
52.9251
55.6438
58.7193
62.2259
66.2082
70.6641
75.7179
81.313
87.5945
94.0695
100.904
107.959
115.034
122.196
129.213
135.894
142.115
147.728
152.565
156.52
159.501
161.429
162.247
161.871
160.464
158.112
154.978
151.028
146.388
141.192
135.586
129.727
123.731
117.723
111.815
106.033
100.402
94.9938
89.8289
84.9592
80.416
76.176
72.149
68.3646
64.8533
61.3931
57.903
54.648
51.7027
49.0948
46.8045
44.8108
43.0737
41.5581
40.242
39.0981
38.0946
37.215
36.4461
35.7792
35.1846
34.651
34.1772
33.7636
33.3986
33.0734
32.7879
32.5394
32.3155
32.1081
31.9218
31.7502
31.5986
31.4621
31.3338
31.218
31.1051
30.9956
30.8969
30.7958
30.6952
30.6084
30.5283
30.4577
30.3946
30.3407
30.2871
30.2338
30.1921
30.1322
30.0529
29.9758
29.8716
29.7351
29.603
29.4476
29.2627
29.086
28.9978
29.0294
29.6139
31.6487
35.9741
49.8082
0
5.72535
5.63002
3.90833
1.79733
0.807274
1.1016
2.56229
5.09211
8.59717
12.849
18.1544
25.6105
35.2091
46.8863
60.8261
77.1588
94.6606
112.216
125.768
138.606
149.358
156.229
158.293
155.648
149.119
139.695
128.224
115.535
102.766
90.5667
79.551
70.1505
62.2786
56.2769
52.1311
49.7298
48.8671
49.3178
50.8434
53.2304
56.28
59.8336
63.7495
67.9269
72.2764
76.7366
81.2463
85.7669
90.2581
94.6976
99.0477
103.281
107.363
111.274
114.98
118.453
121.653
124.56
127.14
129.366
131.2
132.626
133.628
134.21
134.377
134.162
133.601
132.77
131.762
130.723
129.83
129.308
129.4
130.33
132.194
134.702
137.905
141.859
146.649
152.367
159.088
166.894
175.759
185.706
196.399
207.987
219.823
232.116
244.158
256.232
267.556
277.98
287.123
294.71
300.486
304.289
305.986
305.559
303.028
298.535
292.232
284.314
274.966
264.425
252.975
240.887
228.45
215.888
203.419
191.194
179.336
167.943
157.116
146.934
137.389
128.366
119.839
111.675
103.936
96.7738
90.3956
84.8369
79.847
75.2476
71.0218
67.1626
63.6523
60.4661
57.5846
54.9724
52.6033
50.4545
48.5072
46.738
45.1221
43.6415
42.2886
41.0526
39.917
38.8686
37.9022
37.0073
36.1709
35.3887
34.6463
33.9468
33.2897
32.6595
32.0592
31.4953
30.9601
30.4458
29.9495
29.4677
29.0076
28.5664
28.1427
27.7397
27.3556
26.988
26.6298
26.2881
25.9557
25.6177
25.2841
24.9503
24.6044
24.2587
23.9139
23.5548
23.201
22.8865
22.6223
22.4757
22.5703
22.9425
23.8894
26.1489
30.9481
0
1.18463
1.42109
0.608548
0.191869
0.787882
2.53502
5.45158
9.56255
14.9107
21.5124
29.4535
39.214
51.0985
65.1608
81.029
97.7255
113.418
125.901
133.434
135.898
133.258
126.298
116.166
104.222
91.7639
79.9926
69.6637
61.2191
54.7379
50.2936
47.8132
47.1659
48.1586
50.5892
54.2419
58.914
64.4076
70.5427
77.1582
84.1149
91.2938
98.5972
105.942
113.263
120.505
127.622
134.575
141.33
147.857
154.132
160.127
165.814
171.164
176.154
180.76
184.956
188.719
192.032
194.88
197.251
199.134
200.531
201.459
201.943
202.024
201.751
201.187
200.407
199.504
198.586
197.776
197.199
196.979
197.224
198.059
199.629
202.084
205.563
210.204
216.147
223.502
232.361
242.731
254.589
267.742
282.047
297.328
313.098
328.705
344.447
359.428
373.316
385.646
395.97
403.954
409.325
411.921
411.671
408.634
402.954
394.835
384.516
372.257
358.395
343.286
327.313
310.821
294.137
277.517
261.205
245.362
230.184
215.732
201.944
188.75
176.113
164.171
153.106
142.944
133.62
125.076
117.275
110.129
103.548
97.4954
91.9435
86.8668
82.2312
78.0027
74.1481
70.6297
67.4128
64.469
61.7724
59.2976
57.0188
54.9162
52.9762
51.1852
49.5221
47.9701
46.5192
45.1592
43.8766
42.6635
41.5169
40.4269
39.3927
38.4118
37.478
36.5817
35.7123
34.8803
34.0891
33.3289
32.5972
31.8968
31.229
30.5877
29.9681
29.3696
28.7877
28.2192
27.6645
27.1149
26.5681
26.0321
25.5017
24.9741
24.4654
23.9868
23.5548
23.2066
23.0065
23.0805
23.6259
25.039
27.997
32.2205
0
1.78145
4.19054
5.09631
5.98548
7.67387
10.3698
14.1547
19.1303
25.3561
32.8486
41.6228
51.6599
62.7531
74.3622
85.5211
94.8772
100.967
102.732
100.096
93.8009
85.0246
75.1892
65.4525
56.6557
49.3449
43.7465
39.9705
37.9856
37.7097
39.0144
41.7757
45.8634
51.1428
57.4948
64.7941
72.908
81.7011
91.0395
100.795
110.849
121.092
131.424
141.76
152.022
162.146
172.073
181.753
191.141
200.197
208.887
217.178
225.037
232.431
239.333
245.715
251.548
256.812
261.485
265.553
269
271.821
274.015
275.595
276.583
277.012
276.923
276.364
275.392
274.078
272.506
270.778
269.017
267.383
266.055
265.248
265.196
266.119
268.232
271.744
276.85
283.712
292.451
303.117
315.702
330.076
346.069
363.334
381.693
400.217
418.673
436.757
453.59
468.766
481.665
491.866
498.993
502.844
503.313
500.452
494.39
485.324
473.527
459.314
443.11
425.336
406.456
386.862
366.968
347.08
327.528
308.475
289.979
272.027
254.68
238.108
222.506
207.929
194.398
181.891
170.373
159.773
150.021
141.025
132.717
125.046
117.98
111.481
105.516
100.043
95.0229
90.4126
86.1742
82.2752
78.6856
75.3727
72.3064
69.464
66.8296
64.3846
62.105
59.97
57.9665
56.0815
54.3001
52.6109
51.0096
49.487
48.0389
46.6585
45.3421
44.0794
42.8685
41.7135
40.6135
39.5574
38.5416
37.5652
36.6308
35.7326
34.8638
34.0226
33.2078
32.4151
31.6433
30.8878
30.1448
29.4234
28.7247
28.0482
27.4073
26.8181
26.2981
25.8903
25.6711
25.7649
26.3949
27.8988
30.8442
34.5028
0
6.90941
14.3894
18.448
21.1045
23.8515
27.1096
31.0287
35.7092
41.1369
47.2292
53.7969
60.4974
66.7996
71.9978
75.3197
76.0903
74.09
69.4528
62.9655
55.6467
48.4472
42.0354
36.8693
33.1469
30.9102
30.0989
30.6446
32.4839
35.573
39.8869
45.3992
52.0742
59.8616
68.6984
78.5035
89.1761
100.602
112.658
125.218
138.157
151.356
164.703
178.094
191.434
204.64
217.636
230.356
242.739
254.732
266.284
277.347
287.876
297.83
307.166
315.847
323.837
331.101
337.608
343.332
348.249
352.339
355.592
358.006
359.589
360.358
360.341
359.571
358.097
355.982
353.31
350.198
346.794
343.316
339.997
337.104
334.924
333.741
333.842
335.509
339.009
344.569
352.369
362.516
375.036
389.847
406.767
425.473
445.526
466.553
487.411
508.152
527.7
545.52
560.927
573.34
582.331
587.592
589.007
586.564
580.394
570.68
557.729
541.934
523.761
503.735
482.355
460.141
437.512
414.797
392.15
369.725
347.688
326.339
305.923
286.572
268.357
251.323
235.48
220.799
207.226
194.684
183.09
172.359
162.422
153.223
144.718
136.864
129.62
122.942
116.785
111.106
105.862
101.017
96.536
92.3827
88.5248
84.9367
81.5978
78.4853
75.5734
72.8396
70.2671
67.8409
65.5457
63.3697
61.3057
59.3437
57.4752
55.6918
53.9861
52.352
50.7894
49.2998
47.8786
46.5165
45.2097
43.9579
42.7577
41.6028
40.4856
39.4015
38.3528
37.3356
36.348
35.3887
34.4559
33.5584
32.7014
31.8867
31.1265
30.4398
29.8476
29.3952
29.1615
29.2674
29.9129
31.3628
33.9832
37.0049
0
15.4157
29.485
37.6812
42.4652
46.24
49.6843
52.9141
56.0311
59.0131
61.7449
64.0033
65.4793
65.8292
64.7566
62.1214
58.0136
52.8302
47.11
41.4612
36.4372
32.4048
29.5637
27.9343
27.4842
28.1634
29.9336
32.7798
36.713
41.7603
47.9553
55.3224
63.8678
73.5749
84.4035
96.2905
109.15
122.878
137.356
152.459
168.059
184.028
200.242
216.583
232.941
249.212
265.304
281.13
296.612
311.677
326.258
340.289
353.711
366.465
378.494
389.747
400.172
409.718
418.34
425.995
432.642
438.247
442.781
446.227
448.574
449.824
449.987
449.088
447.167
444.284
440.53
436.03
430.954
425.554
420.107
414.928
410.359
406.742
404.436
403.805
405.194
408.915
415.222
424.293
436.209
450.934
468.294
487.971
509.528
532.384
555.692
578.889
601.079
621.508
639.415
654.078
664.976
671.72
674.124
672.15
665.886
655.546
641.461
624.131
604.074
581.979
558.308
533.505
507.871
481.765
455.525
429.614
404.391
380.111
356.915
334.929
314.218
294.828
276.748
259.946
244.351
229.896
216.492
204.064
192.531
181.835
171.918
162.733
154.228
146.36
139.078
132.335
126.088
120.295
114.918
109.918
105.26
100.916
96.8598
93.0667
89.509
86.1626
83.0081
80.0287
77.2087
74.5351
71.9976
69.5843
67.2855
65.0919
62.9954
60.9884
59.0683
57.2342
55.4868
53.8157
52.2155
50.682
49.2106
47.7938
46.4255
45.1021
43.8231
42.5856
41.3852
40.2263
39.1097
38.0442
37.0376
36.0929
35.223
34.4469
33.7878
33.2911
33.0313
33.1188
33.7143
35.0133
37.1748
39.5044
0
24.0992
44.3202
56.5791
63.4068
67.9775
71.1619
73.107
74.0023
73.9079
72.8389
70.7894
67.7661
63.8288
59.1259
53.9146
48.5346
43.415
38.8797
35.2089
32.5388
30.919
30.3356
30.7511
32.1306
34.4562
37.7402
42.0194
47.3492
53.7913
61.4038
70.2303
80.2935
91.591
104.095
117.754
132.492
148.214
164.808
182.155
200.125
218.59
237.416
256.477
275.649
294.816
313.866
332.698
351.214
369.325
386.943
403.985
420.374
436.032
450.887
464.867
477.903
489.928
500.878
510.689
519.306
526.674
532.747
537.488
540.868
542.872
543.496
542.751
540.668
537.304
532.746
527.123
520.61
513.474
506.035
498.642
491.689
485.573
480.724
477.586
476.594
478.151
482.602
490.208
501.121
515.361
532.787
553.1
575.854
600.369
625.894
651.42
676.185
699.204
719.57
736.465
749.223
757.4
760.695
759.055
752.558
741.449
726.222
707.336
685.369
660.839
634.139
605.817
576.509
546.823
517.291
488.299
460.15
433.057
407.19
382.66
359.544
337.868
317.616
298.741
281.176
264.849
249.683
235.595
222.506
210.345
199.05
188.561
178.826
169.791
161.405
153.618
146.381
139.651
133.385
127.544
122.089
116.989
112.216
107.74
103.534
99.5726
95.8337
92.2992
88.9522
85.7785
82.7654
79.8998
77.1705
74.5672
72.0803
69.7009
67.4255
65.2516
63.1761
61.1955
59.3036
57.492
55.7538
54.0804
52.4655
50.9054
49.3995
47.9461
46.5449
45.199
43.9103
42.6872
41.5407
40.4747
39.5015
38.6396
37.9113
37.3604
37.0537
37.0854
37.5732
38.6497
40.3022
41.9558
0
30.1413
54.1019
69.0968
77.2374
82.0913
84.7224
85.3793
84.3683
81.896
78.1943
73.5309
68.211
62.5667
56.9369
51.6436
46.9661
43.1133
40.2073
38.2875
37.3392
37.3206
38.1864
39.9087
42.4871
45.9469
50.3373
55.723
62.1782
69.7768
78.5845
88.651
100.006
112.654
126.578
141.735
158.059
175.465
193.851
213.105
233.103
253.716
274.813
296.259
317.924
339.681
361.408
382.991
404.317
425.279
445.773
465.7
484.963
503.47
521.129
537.852
553.551
568.14
581.537
593.662
604.44
613.798
621.674
628.011
632.761
635.893
637.385
637.235
635.46
632.106
627.25
621.011
613.559
605.152
596.143
586.908
577.883
569.512
562.287
556.731
553.37
552.702
555.169
561.125
570.811
584.315
601.55
622.276
645.994
672.007
699.441
727.244
754.451
779.957
802.669
821.641
836.097
845.491
849.476
848.042
841.184
829.091
812.221
790.925
765.87
737.691
707.24
675.324
642.643
609.752
577.142
545.18
514.184
484.367
455.914
428.933
403.499
379.619
357.276
336.405
316.946
298.825
281.969
266.289
251.707
238.14
225.52
213.78
202.863
192.707
183.259
174.464
166.271
158.633
151.505
144.844
138.612
132.773
127.297
122.152
117.309
112.743
108.429
104.349
100.484
96.818
93.3375
90.0279
86.8767
83.8723
81.0036
78.2611
75.6396
73.1349
70.743
68.4593
66.2825
64.1999
62.2024
60.2811
58.4296
56.6446
54.9249
53.2696
51.6789
50.1573
48.7093
47.3441
46.0713
44.8933
43.8233
42.8774
42.0749
41.4565
41.0791
41.0192
41.3535
42.1619
43.3077
44.346
0
31.9802
56.3952
71.9498
80.3923
85.097
87.2692
87.2089
85.325
81.9619
77.5032
72.3676
66.9811
61.7394
56.9728
52.9247
49.7475
47.5083
46.2083
45.8062
46.2468
47.4829
49.4885
52.2661
55.8455
60.2786
65.6353
71.9946
79.4391
88.0469
97.8863
109.009
121.449
135.217
150.301
166.669
184.265
203.017
222.832
243.609
265.233
287.58
310.522
333.925
357.657
381.589
405.591
429.541
453.317
476.798
499.867
522.409
544.314
565.476
585.786
605.141
623.436
640.568
656.44
670.953
684.016
695.543
705.451
713.667
720.128
724.783
727.595
728.545
727.635
724.894
720.383
714.203
706.502
697.521
687.624
677.2
666.723
656.663
647.564
640.02
634.636
632.004
632.658
637.054
645.522
658.241
675.201
696.17
720.697
748.05
777.191
807.129
836.54
864.334
889.175
910.027
926.054
936.437
940.74
938.79
930.485
916.056
896.017
871.152
842.404
810.698
776.863
741.662
705.755
669.748
634.117
599.27
565.501
533.06
502.121
472.802
445.157
419.189
394.861
372.111
350.872
331.073
312.633
295.465
279.481
264.598
250.735
237.824
225.797
214.591
204.146
194.404
185.31
176.813
168.868
161.429
154.456
147.913
141.763
135.977
130.524
125.377
120.511
115.906
111.543
107.405
103.475
99.7386
96.1824
92.7936
89.5598
86.471
83.5202
80.7018
78.0103
75.4405
72.9918
70.6503
68.4062
66.2506
64.1772
62.1829
60.2661
58.4261
56.6643
54.9852
53.3938
51.8989
50.5104
49.2329
48.0747
47.0466
46.1648
45.4658
44.9966
44.8152
44.9625
45.4795
46.1464
46.6474
0
30.1208
51.9152
65.7782
73.611
78.0064
80.0079
79.9994
78.4061
75.6263
72.0715
68.1549
64.2667
60.7382
57.8145
55.6458
54.3036
53.7814
54.0484
55.0557
56.7566
59.1349
62.1892
65.9483
70.4632
75.8029
82.0483
89.2858
97.6011
107.074
117.772
129.749
143.041
157.664
173.612
190.863
209.373
229.081
249.91
271.773
294.561
318.161
342.454
367.313
392.61
418.216
444.001
469.838
495.6
521.157
546.382
571.153
595.349
618.853
641.545
663.307
684.022
703.572
721.843
738.725
754.11
767.9
779.999
790.318
798.778
805.311
809.865
812.406
812.922
811.422
807.949
802.581
795.44
786.734
776.82
766.095
755.046
744.16
734.014
725.255
718.56
714.59
713.966
717.225
724.801
737
753.839
775.14
800.494
829.083
859.878
891.764
923.321
953.126
979.699
1001.79
1018.36
1028.49
1031.58
1027.4
1016.12
998.376
974.921
946.692
914.561
879.465
842.236
803.742
764.648
725.581
687.018
649.383
612.965
578.029
544.749
513.239
483.538
455.639
429.484
405.016
382.157
360.836
340.961
322.443
305.188
289.109
274.12
260.145
247.111
234.951
223.599
212.993
203.074
193.791
185.094
176.938
169.28
162.081
155.306
148.922
142.899
137.208
131.826
126.73
121.899
117.317
112.965
108.829
104.894
101.145
97.5701
94.1585
90.9017
87.7927
84.8249
81.9924
79.2918
76.7097
74.2374
71.8664
69.5908
67.407
65.3133
63.3091
61.3962
59.5786
57.8618
56.2538
54.7631
53.394
52.1535
51.0476
50.0833
49.2946
48.7175
48.3934
48.3334
48.5524
48.7808
48.8263
0
25.1828
42.3743
53.3823
59.9947
64.0179
66.1986
66.9328
66.5763
65.4493
63.8911
62.2075
60.6762
59.5168
58.8795
58.8442
59.4393
60.6454
62.4401
64.7951
67.692
71.1442
75.1746
79.8357
85.1963
91.3373
98.3469
106.315
115.33
125.47
136.805
149.388
163.258
178.436
194.925
212.712
231.763
252.031
273.447
295.938
319.392
343.725
368.827
394.585
420.882
447.594
474.6
501.772
528.98
556.093
582.979
609.513
635.565
661.012
685.724
709.574
732.435
754.178
774.677
793.81
811.461
827.52
841.879
854.434
865.093
873.774
880.413
884.964
887.4
887.717
885.943
882.13
876.376
868.848
859.878
849.864
839.29
828.641
818.516
809.603
802.622
798.296
797.287
800.201
807.487
819.478
836.273
857.819
883.742
913.223
945.03
977.914
1010.52
1041.19
1068.23
1090.13
1105.65
1114.04
1114.88
1108.17
1094.25
1073.69
1047.27
1015.91
980.592
942.277
901.843
860.169
817.994
775.969
734.613
694.331
655.42
618.149
582.709
549.186
517.634
488.009
460.248
434.273
410.011
387.368
366.252
346.564
328.208
311.089
295.123
280.223
266.315
253.324
241.181
229.818
219.176
209.199
199.836
191.041
182.77
174.984
167.645
160.721
154.182
148
142.148
136.604
131.348
126.361
121.625
117.123
112.841
108.765
104.88
101.176
97.6417
94.2706
91.0545
87.988
85.0611
82.2635
79.5875
77.0256
74.5718
72.2225
69.9753
67.8297
65.7872
63.8516
62.0277
60.3228
58.7434
57.2931
55.9755
54.7939
53.7466
52.8631
52.169
51.6902
51.415
51.3431
51.1777
50.8448
0
18.6824
30.9491
38.9426
44.2239
47.8727
50.3761
52.0797
53.2488
54.1407
54.9406
55.814
56.8931
58.2754
60.0182
62.1435
64.6516
67.5327
70.78
74.3965
78.4011
82.8269
87.7257
93.1729
99.2402
106.024
113.615
122.105
131.584
142.13
153.811
166.684
180.789
196.155
212.79
230.686
249.826
270.176
291.689
314.308
337.961
362.562
388.013
414.211
441.044
468.391
496.136
524.129
552.267
580.425
608.474
636.284
663.734
690.687
717.011
742.574
767.242
790.879
813.348
834.515
854.259
872.465
889.014
903.792
916.689
927.612
936.491
943.271
947.92
950.427
950.799
949.078
945.332
939.69
932.451
924
914.815
905.363
896.269
888.243
882.052
878.406
877.943
881.171
888.643
900.872
918.145
940.282
966.833
997.036
1029.69
1063.34
1096.29
1126.77
1153.15
1173.86
1187.84
1194.29
1192.8
1183.34
1166.34
1142.45
1112.54
1077.61
1038.68
996.819
952.924
908.148
863.094
818.389
774.535
731.986
691.015
651.855
614.673
579.535
546.475
515.427
486.343
459.136
433.726
410.001
387.868
367.221
347.963
329.993
313.23
297.578
282.957
269.285
256.491
244.503
233.26
222.702
212.778
203.442
194.648
186.356
178.532
171.14
164.154
157.542
151.279
145.343
139.713
134.368
129.293
124.469
119.881
115.516
111.358
107.396
103.619
100.019
96.5902
93.3202
90.1989
87.2171
84.3678
81.6442
79.0404
76.5524
74.1776
71.9151
69.766
67.7334
65.8213
64.0356
62.381
60.859
59.4704
58.2146
57.0859
56.1065
55.2917
54.6544
54.1661
53.8204
53.3078
52.6649
0
12.3578
20.0201
25.2758
29.2458
32.5408
35.4679
38.2328
40.9913
43.8478
46.8989
50.1839
53.7247
57.4963
61.4737
65.625
69.9248
74.3631
78.946
83.7016
88.6734
93.9262
99.5309
105.567
112.132
119.324
127.243
135.984
145.637
156.282
167.99
180.818
194.813
210.007
226.418
244.049
262.892
282.924
304.107
326.399
349.747
374.08
399.32
425.377
452.155
479.552
507.473
535.808
564.431
593.221
622.045
650.806
679.298
707.429
735.061
762.058
788.292
813.611
837.871
860.927
882.658
902.935
921.634
938.624
953.787
967.02
978.247
987.418
994.499
999.469
1002.33
1003.11
1001.84
998.662
993.769
987.611
980.592
973.192
966.037
959.87
955.367
953.221
954.091
958.676
967.455
980.836
998.823
1021.38
1048.31
1078.51
1110.82
1143.62
1175.44
1204.74
1229.59
1248.49
1260.33
1264.3
1260.05
1247.63
1227.5
1200.39
1167.22
1129.05
1086.95
1042.01
995.175
947.507
899.753
852.588
806.489
761.918
719.035
678.154
639.428
602.858
568.623
536.536
506.512
478.447
452.271
427.837
405.033
383.752
363.886
345.329
327.995
311.799
296.652
282.474
269.188
256.724
245.019
234.01
223.645
213.878
204.662
195.965
187.747
179.975
172.621
165.655
159.051
152.787
146.842
141.198
135.835
130.738
125.892
121.282
116.894
112.715
108.736
104.949
101.342
97.905
94.6263
91.4967
88.5092
85.6571
82.9345
80.3372
77.8624
75.5087
73.2767
71.1684
69.1871
67.3367
65.6201
64.0362
62.5829
61.255
60.0477
58.9735
58.0381
57.2438
56.5518
55.9554
55.142
54.2502
0
7.47437
11.4489
14.5647
17.4299
20.3554
23.54
27.1269
31.187
35.7376
40.7398
46.12
51.7754
57.6118
63.535
69.473
75.3674
81.1823
86.9248
92.6354
98.3741
104.221
110.265
116.604
123.34
130.588
138.46
147.059
156.482
166.814
178.13
190.495
203.963
218.575
234.359
251.331
269.492
288.836
309.34
330.978
353.707
377.478
402.225
427.874
454.341
481.532
509.346
537.681
566.428
595.472
624.683
653.937
683.151
712.179
740.878
769.101
796.686
823.498
849.435
874.353
898.09
920.51
941.455
960.794
978.393
994.121
1007.92
1019.74
1029.57
1037.37
1043.14
1046.89
1048.65
1048.49
1046.62
1043.45
1039.31
1034.71
1030.31
1026.83
1024.99
1025.31
1028.36
1034.52
1044.42
1058.26
1076.76
1099.53
1125.7
1154.69
1185.51
1216.83
1247.05
1274.3
1296.79
1313.01
1321.83
1322.51
1314.75
1298.74
1274.99
1244.32
1207.68
1166.19
1120.97
1073.15
1023.77
973.783
923.973
874.999
827.329
781.445
737.49
695.709
656.195
618.945
584.003
551.276
520.682
492.112
465.473
440.581
417.344
395.66
375.415
356.494
338.845
322.347
306.903
292.431
278.851
266.096
254.109
242.817
232.167
222.113
212.608
203.621
195.116
187.063
179.432
172.196
165.329
158.81
152.618
146.736
141.146
135.831
130.779
125.975
121.404
117.058
112.923
108.989
105.247
101.685
98.2898
95.0521
91.9641
89.0188
86.2104
83.5344
80.9879
78.5689
76.2778
74.1151
72.0831
70.1839
68.4181
66.7825
65.2708
63.8751
62.592
61.4246
60.3706
59.4245
58.5419
57.7205
56.6501
55.5646
0
4.33079
5.75387
7.41723
9.46726
12.0845
15.4315
19.613
24.6552
30.5101
37.0644
44.1567
51.5987
59.2028
66.8038
74.2686
81.5047
88.4619
95.1399
101.575
107.84
114.028
120.251
126.629
133.289
140.354
147.94
156.156
165.104
174.875
185.551
197.206
209.901
223.687
238.603
254.674
271.915
290.331
309.913
330.647
352.503
375.444
399.423
424.38
450.245
476.94
504.379
532.472
561.127
590.239
619.703
649.401
679.208
708.992
738.63
767.985
796.935
825.305
852.909
879.59
905.23
929.658
952.748
974.374
994.369
1012.63
1029.06
1043.65
1056.34
1067.12
1075.94
1082.8
1087.69
1090.65
1091.85
1091.64
1090.44
1088.77
1087.32
1086.81
1087.72
1090.34
1095.22
1102.91
1113.95
1129.07
1147.65
1169.74
1195.1
1222.98
1252.21
1281.49
1309.17
1333.49
1352.7
1365.37
1370.42
1367.22
1355.59
1335.79
1308.41
1274.3
1234.45
1190.01
1142.13
1091.94
1040.49
988.721
937.392
887.115
838.374
791.544
746.88
704.553
664.633
627.1
591.92
559.005
528.275
499.601
472.907
447.977
424.71
402.986
382.691
363.699
345.957
329.353
313.798
299.206
285.499
272.61
260.483
249.037
238.223
227.999
218.313
209.156
200.482
192.257
184.452
177.041
170.001
163.312
156.953
150.906
145.157
139.688
134.491
129.553
124.857
120.394
116.152
112.121
108.289
104.646
101.177
97.8726
94.7222
91.7192
88.8576
86.1328
83.542
81.0828
78.755
76.5581
74.4929
72.5601
70.7577
69.0779
67.5131
66.0554
64.6981
63.4384
62.2682
61.1765
60.1174
59.0959
57.8065
56.5776
0
2.79769
2.86946
3.77627
5.37281
7.83466
11.3399
15.9822
21.761
28.5842
36.2818
44.6291
53.375
62.2723
71.1005
79.6828
87.8933
95.6725
103.01
109.942
116.541
122.91
129.168
135.448
141.884
148.607
155.743
163.417
171.723
180.774
190.663
201.473
213.276
226.134
240.097
255.197
271.463
288.908
307.536
327.342
348.31
370.41
393.608
417.853
443.089
469.248
496.257
524.04
552.512
581.584
611.169
641.149
671.424
701.856
732.326
762.708
792.845
822.604
851.814
880.363
908.014
934.59
959.987
983.979
1006.42
1027.15
1046.15
1063.41
1078.92
1092.61
1104.43
1114.32
1122.22
1128.11
1132.11
1134.61
1136
1137.05
1138.53
1140.56
1143.44
1147.68
1153.65
1162.32
1173.71
1187.93
1205.56
1226.25
1249.58
1274.71
1300.64
1326.1
1349.55
1369.35
1383.92
1391.95
1392.48
1384.98
1369.42
1346.13
1315.7
1278.94
1236.88
1190.62
1141.3
1090.02
1037.81
985.564
934
883.677
835.04
788.444
744.121
702.213
662.759
625.712
591.008
558.554
528.258
499.992
473.636
449.044
426.092
404.659
384.632
365.9
348.375
331.958
316.56
302.097
288.495
275.686
263.627
252.223
241.434
231.214
221.514
212.321
203.598
195.315
187.443
179.959
172.842
166.072
159.63
153.502
147.676
142.133
136.869
131.866
127.111
122.596
118.308
114.239
110.372
106.698
103.202
99.8749
96.7051
93.6849
90.8081
88.0699
85.4676
82.998
80.6605
78.4535
76.3767
74.4272
72.5989
70.8855
69.2773
67.7624
66.3334
64.9833
63.7009
62.4724
61.2523
60.0561
58.5804
57.2581
0
2.25387
1.68842
2.37189
3.87352
6.42834
10.2284
15.3596
21.7927
29.3911
37.9308
47.1425
56.7416
66.4489
76.02
85.2609
94.04
102.293
109.99
117.166
123.896
130.282
136.456
142.553
148.712
155.067
161.752
168.888
176.616
185.037
194.258
204.367
215.449
227.572
240.788
255.141
270.665
287.37
305.287
324.405
344.714
366.195
388.813
412.534
437.302
463.067
489.765
517.336
545.705
574.815
604.572
634.908
665.674
696.778
728.097
759.51
790.888
822.1
852.956
883.251
912.803
941.48
969.054
995.354
1020.21
1043.46
1065.13
1085.18
1103.55
1120.17