/*--------------------------------*- C++ -*----------------------------------*\
  =========                 |
  \\      /  F ield         | OpenFOAM: The Open Source CFD Toolbox
   \\    /   O peration     | Website:  https://openfoam.org
    \\  /    A nd           | Version:  9
     \\/     M anipulation  |
\*---------------------------------------------------------------------------*/
FoamFile
{
    format      ascii;
    class       volVectorField;
    location    "65";
    object      U;
}
// * * * * * * * * * * * * * * * * * * * * * * * * * * * * * * * * * * * * * //

dimensions      [0 1 -1 0 0 0 0];

internalField   nonuniform List<vector> 
12225
(
(9.85691 -0.886633 0)
(9.66585 -0.740587 0)
(9.45447 -0.429281 0)
(9.22197 -0.22184 0)
(9.00217 -0.105977 0)
(8.80788 -0.045317 0)
(8.63816 -0.0145511 0)
(8.49278 0.00122288 0)
(8.36721 0.00931804 0)
(8.26 0.0133872 0)
(8.16603 0.0153312 0)
(8.08333 0.0166722 0)
(8.0084 0.0175175 0)
(7.93938 0.0184236 0)
(7.87219 0.0197186 0)
(7.80881 0.0219489 0)
(7.71823 0.0264482 0)
(7.70025 0.041538 0)
(10.0545 0.227773 0)
(10.1212 0.327094 0)
(10.1193 0.261921 0)
(10.0846 0.187011 0)
(10.0417 0.135291 0)
(9.99391 0.10189 0)
(9.93976 0.0802699 0)
(9.87908 0.0658352 0)
(9.81551 0.0558741 0)
(9.75015 0.0486656 0)
(9.68532 0.0433565 0)
(9.62129 0.0394379 0)
(9.55912 0.036681 0)
(9.49888 0.0351423 0)
(9.43952 0.0345806 0)
(9.38442 0.0376745 0)
(9.32216 0.0397477 0)
(9.29071 0.0694299 0)
(10.0035 0.0582396 0)
(10.0303 0.0562009 0)
(10.0554 0.034241 0)
(10.0691 0.0335426 0)
(10.0748 0.0415215 0)
(10.0746 0.0477148 0)
(10.0679 0.0508685 0)
(10.0549 0.0522336 0)
(10.0376 0.0526025 0)
(10.0166 0.0524355 0)
(9.99289 0.0520927 0)
(9.96687 0.0518917 0)
(9.93914 0.0520014 0)
(9.91003 0.0527949 0)
(9.87912 0.0543193 0)
(9.84791 0.058686 0)
(9.81388 0.064168 0)
(9.78581 0.0829359 0)
(9.99769 0.0110599 0)
(10.0108 0.0269568 0)
(10.0343 0.0376812 0)
(10.0511 0.0488946 0)
(10.062 0.0566195 0)
(10.0699 0.059745 0)
(10.0745 0.0603602 0)
(10.0756 0.0601509 0)
(10.0739 0.0597296 0)
(10.0698 0.0592956 0)
(10.0637 0.0590068 0)
(10.0558 0.0590769 0)
(10.0462 0.0595934 0)
(10.0352 0.0609069 0)
(10.0224 0.0631846 0)
(10.009 0.0679092 0)
(9.9945 0.0745376 0)
(9.98301 0.0881262 0)
(9.99931 0.00725225 0)
(10.0087 0.0321256 0)
(10.0267 0.0446459 0)
(10.0403 0.0510355 0)
(10.0504 0.0551489 0)
(10.0592 0.0572391 0)
(10.0664 0.0580651 0)
(10.0714 0.0584365 0)
(10.0744 0.0586855 0)
(10.0758 0.0589475 0)
(10.0757 0.0593549 0)
(10.0742 0.0601021 0)
(10.0714 0.0613176 0)
(10.0676 0.0633177 0)
(10.0626 0.0663485 0)
(10.0572 0.0713458 0)
(10.0517 0.0782152 0)
(10.0487 0.0884615 0)
(10.0003 0.00934683 0)
(10.008 0.0317569 0)
(10.022 0.0418933 0)
(10.0335 0.0467863 0)
(10.0426 0.0509155 0)
(10.0511 0.0538227 0)
(10.0586 0.0554799 0)
(10.0645 0.0565151 0)
(10.0689 0.057338 0)
(10.0721 0.0581327 0)
(10.0741 0.059048 0)
(10.0751 0.0602778 0)
(10.075 0.061981 0)
(10.0742 0.0644321 0)
(10.0726 0.0678698 0)
(10.0709 0.0728511 0)
(10.0694 0.0793435 0)
(10.07 0.0875336 0)
(10.0004 0.00916824 0)
(10.0068 0.0277811 0)
(10.0183 0.0375621 0)
(10.0287 0.0430556 0)
(10.0372 0.047668 0)
(10.0451 0.0510296 0)
(10.0522 0.0531011 0)
(10.0582 0.0545055 0)
(10.0629 0.0556901 0)
(10.0667 0.0568531 0)
(10.0696 0.0581423 0)
(10.0716 0.0597378 0)
(10.0728 0.0618053 0)
(10.0735 0.0645657 0)
(10.0736 0.0682123 0)
(10.0738 0.0730465 0)
(10.0744 0.079012 0)
(10.0765 0.0858159 0)
(10.0004 0.00819344 0)
(10.0057 0.0241799 0)
(10.0154 0.0340853 0)
(10.0249 0.0400687 0)
(10.0328 0.0447662 0)
(10.0401 0.0482531 0)
(10.0468 0.0505835 0)
(10.0526 0.0522871 0)
(10.0575 0.053777 0)
(10.0615 0.0552511 0)
(10.0647 0.0568554 0)
(10.0672 0.0587546 0)
(10.0692 0.0611037 0)
(10.0707 0.0640726 0)
(10.0719 0.0678001 0)
(10.0731 0.0724277 0)
(10.0748 0.0778703 0)
(10.0777 0.0837128 0)
(10.0004 0.00729329 0)
(10.0048 0.0213424 0)
(10.013 0.0310162 0)
(10.0215 0.0371463 0)
(10.029 0.0418046 0)
(10.0358 0.0453718 0)
(10.0422 0.0479455 0)
(10.0478 0.0499347 0)
(10.0526 0.0517011 0)
(10.0567 0.0534453 0)
(10.0601 0.0553157 0)
(10.063 0.0574618 0)
(10.0654 0.0600199 0)
(10.0674 0.0631148 0)
(10.0693 0.0668377 0)
(10.0713 0.0712379 0)
(10.0736 0.0762169 0)
(10.0768 0.0813672 0)
(10.0003 0.00651677 0)
(10.0041 0.0188976 0)
(10.011 0.0280542 0)
(10.0186 0.0341792 0)
(10.0256 0.0388182 0)
(10.032 0.0424632 0)
(10.038 0.0452417 0)
(10.0435 0.0474761 0)
(10.0482 0.0494814 0)
(10.0524 0.0514571 0)
(10.0559 0.0535487 0)
(10.0591 0.0558906 0)
(10.0618 0.058596 0)
(10.0643 0.0617552 0)
(10.0667 0.0654232 0)
(10.0692 0.069599 0)
(10.0719 0.0741843 0)
(10.0753 0.078824 0)
(10.0003 0.00580976 0)
(10.0035 0.0167091 0)
(10.0093 0.0252255 0)
(10.0161 0.0312476 0)
(10.0226 0.0358533 0)
(10.0286 0.0395402 0)
(10.0344 0.0424642 0)
(10.0396 0.0448905 0)
(10.0443 0.0470931 0)
(10.0485 0.0492616 0)
(10.0522 0.0515337 0)
(10.0555 0.0540249 0)
(10.0586 0.0568255 0)
(10.0614 0.0600016 0)
(10.0642 0.0635814 0)
(10.0671 0.0675424 0)
(10.0701 0.0717997 0)
(10.0736 0.0760562 0)
(10.0003 0.00519245 0)
(10.003 0.01489 0)
(10.008 0.0227814 0)
(10.0141 0.0286312 0)
(10.0202 0.0331633 0)
(10.0259 0.0368467 0)
(10.0314 0.0398618 0)
(10.0365 0.0424243 0)
(10.0411 0.0447703 0)
(10.0454 0.0470815 0)
(10.0492 0.0494877 0)
(10.0527 0.0520837 0)
(10.056 0.05494 0)
(10.0591 0.0581016 0)
(10.0622 0.061585 0)
(10.0653 0.0653638 0)
(10.0686 0.0693705 0)
(10.0722 0.0733616 0)
(10.0002 0.0046267 0)
(10.0026 0.0132241 0)
(10.007 0.0204638 0)
(10.0125 0.0260618 0)
(10.0181 0.0304765 0)
(10.0235 0.0341173 0)
(10.0288 0.0371815 0)
(10.0338 0.039844 0)
(10.0384 0.0422965 0)
(10.0427 0.0447068 0)
(10.0466 0.0472006 0)
(10.0503 0.0498652 0)
(10.0538 0.052747 0)
(10.0572 0.0558728 0)
(10.0605 0.0592488 0)
(10.0639 0.0628515 0)
(10.0674 0.0666337 0)
(10.0711 0.0703912 0)
(10.0002 0.00404422 0)
(10.0022 0.0114952 0)
(10.006 0.0179763 0)
(10.0109 0.0232038 0)
(10.0161 0.0274294 0)
(10.0212 0.0309698 0)
(10.0263 0.0340304 0)
(10.0311 0.0367597 0)
(10.0357 0.0392956 0)
(10.04 0.041775 0)
(10.0441 0.0443249 0)
(10.048 0.0470243 0)
(10.0517 0.0499065 0)
(10.0554 0.0529792 0)
(10.059 0.0562364 0)
(10.0626 0.0596596 0)
(10.0663 0.0632214 0)
(10.0701 0.0667488 0)
(10.0002 0.00343906 0)
(10.0019 0.00969027 0)
(10.0052 0.015317 0)
(10.0095 0.0200379 0)
(10.0142 0.0239745 0)
(10.0191 0.0273381 0)
(10.0239 0.030312 0)
(10.0286 0.0330355 0)
(10.0332 0.0356065 0)
(10.0376 0.0381205 0)
(10.0418 0.0406785 0)
(10.0459 0.0433557 0)
(10.0499 0.0461865 0)
(10.0538 0.0491666 0)
(10.0576 0.0522819 0)
(10.0615 0.0555127 0)
(10.0654 0.0588465 0)
(10.0693 0.0621432 0)
(10.0002 0.00280477 0)
(10.0016 0.00780238 0)
(10.0045 0.012474 0)
(10.0083 0.016541 0)
(10.0127 0.0200548 0)
(10.0172 0.0231408 0)
(10.0219 0.0259275 0)
(10.0266 0.0285397 0)
(10.0311 0.0310603 0)
(10.0356 0.0335452 0)
(10.04 0.0360529 0)
(10.0443 0.0386465 0)
(10.0485 0.0413584 0)
(10.0526 0.0441915 0)
(10.0567 0.0471272 0)
(10.0608 0.0501447 0)
(10.065 0.0532375 0)
(10.0691 0.0562886 0)
(10.0002 0.0021291 0)
(10.0014 0.00580158 0)
(10.004 0.00939689 0)
(10.0075 0.0126539 0)
(10.0115 0.0155814 0)
(10.0159 0.0182492 0)
(10.0204 0.0207262 0)
(10.025 0.0231013 0)
(10.0296 0.025445 0)
(10.0342 0.0277902 0)
(10.0388 0.0301635 0)
(10.0433 0.0325973 0)
(10.0478 0.0351192 0)
(10.0522 0.0377352 0)
(10.0565 0.0404336 0)
(10.0609 0.043193 0)
(10.0653 0.04601 0)
(10.0696 0.0487815 0)
(10.0001 0.00138353 0)
(10.0013 0.00360963 0)
(10.0037 0.00597244 0)
(10.007 0.00823543 0)
(10.0109 0.0103789 0)
(10.0151 0.0124402 0)
(10.0197 0.0144474 0)
(10.0243 0.0164385 0)
(10.0291 0.0184564 0)
(10.0338 0.0205222 0)
(10.0385 0.022642 0)
(10.0433 0.0248222 0)
(10.048 0.0270733 0)
(10.0527 0.0293958 0)
(10.0574 0.0317837 0)
(10.062 0.0342207 0)
(10.0666 0.0367034 0)
(10.0711 0.0391431 0)
(10.0002 0.000504985 0)
(10.0013 0.00106265 0)
(10.0037 0.00194396 0)
(10.007 0.00296501 0)
(10.011 0.00409494 0)
(10.0153 0.00533384 0)
(10.02 0.00667785 0)
(10.0248 0.00811341 0)
(10.0298 0.0096464 0)
(10.0348 0.0112748 0)
(10.0398 0.0129978 0)
(10.0448 0.014799 0)
(10.0498 0.0166734 0)
(10.0548 0.0186071 0)
(10.0597 0.0205968 0)
(10.0646 0.0226272 0)
(10.0695 0.0246993 0)
(10.0743 0.0267355 0)
(10.0002 -0.000374187 0)
(10.0015 -0.00145182 0)
(10.004 -0.0020668 0)
(10.0076 -0.00230329 0)
(10.0119 -0.00219517 0)
(10.0166 -0.00178945 0)
(10.0216 -0.00113397 0)
(10.0268 -0.000267269 0)
(10.032 0.000768429 0)
(10.0373 0.00195791 0)
(10.0426 0.00327382 0)
(10.0479 0.00469681 0)
(10.0532 0.00619252 0)
(10.0584 0.00775224 0)
(10.0635 0.00935713 0)
(10.0686 0.0110098 0)
(10.0737 0.012695 0)
(10.0787 0.0143631 0)
(10.0002 -0.00115059 0)
(10.0016 -0.00368659 0)
(10.0045 -0.00563862 0)
(10.0086 -0.00693529 0)
(10.0134 -0.00763821 0)
(10.0185 -0.00788397 0)
(10.0238 -0.00776612 0)
(10.0293 -0.00734492 0)
(10.0349 -0.00668367 0)
(10.0404 -0.00582143 0)
(10.0459 -0.00480055 0)
(10.0514 -0.00365841 0)
(10.0569 -0.00244111 0)
(10.0623 -0.0011631 0)
(10.0676 0.000158079 0)
(10.0729 0.00152433 0)
(10.0781 0.00292091 0)
(10.0832 0.00430132 0)
(10.0002 -0.00189449 0)
(10.0018 -0.00590414 0)
(10.0052 -0.00921677 0)
(10.0099 -0.0114902 0)
(10.0153 -0.0128575 0)
(10.0208 -0.0136129 0)
(10.0266 -0.0139025 0)
(10.0324 -0.0138243 0)
(10.0383 -0.0134575 0)
(10.0441 -0.012866 0)
(10.0499 -0.0120903 0)
(10.0556 -0.0111915 0)
(10.0612 -0.0102039 0)
(10.0667 -0.00916499 0)
(10.0721 -0.00806895 0)
(10.0775 -0.00694198 0)
(10.0829 -0.00577578 0)
(10.088 -0.00463782 0)
(10.0002 -0.00259333 0)
(10.0019 -0.00814412 0)
(10.006 -0.0128091 0)
(10.0115 -0.0159509 0)
(10.0176 -0.0179302 0)
(10.0237 -0.0191443 0)
(10.0298 -0.0197354 0)
(10.036 -0.0198491 0)
(10.0422 -0.0196451 0)
(10.0482 -0.0192175 0)
(10.0542 -0.0186219 0)
(10.06 -0.0179099 0)
(10.0658 -0.017121 0)
(10.0714 -0.0162747 0)
(10.0769 -0.0153796 0)
(10.0824 -0.0144454 0)
(10.0878 -0.0134847 0)
(10.093 -0.0125388 0)
(10.0001 -0.00321305 0)
(10.002 -0.0107749 0)
(10.0068 -0.016553 0)
(10.0134 -0.0200334 0)
(10.0201 -0.0224664 0)
(10.0267 -0.0242226 0)
(10.0334 -0.0251795 0)
(10.0399 -0.0254751 0)
(10.0463 -0.0253678 0)
(10.0526 -0.0250168 0)
(10.0587 -0.0245075 0)
(10.0647 -0.0238947 0)
(10.0705 -0.023225 0)
(10.0762 -0.0225069 0)
(10.0818 -0.0217573 0)
(10.0874 -0.020976 0)
(10.0928 -0.0201851 0)
(10.098 -0.0194003 0)
(9.99994 -0.00312647 0)
(10.0018 -0.0143688 0)
(10.0079 -0.0216825 0)
(10.0154 -0.0247169 0)
(10.0225 -0.0267811 0)
(10.0296 -0.0285944 0)
(10.0369 -0.0297665 0)
(10.0441 -0.0303029 0)
(10.0508 -0.0304164 0)
(10.0573 -0.0302447 0)
(10.0636 -0.0298715 0)
(10.0697 -0.0293703 0)
(10.0755 -0.0287934 0)
(10.0812 -0.0281672 0)
(10.0867 -0.0275048 0)
(10.0921 -0.0268248 0)
(10.0974 -0.0261364 0)
(10.1024 -0.0254668 0)
(9.99862 -0.000194958 0)
(9.99925 -0.0153299 0)
(10.0082 -0.0266172 0)
(10.0178 -0.0313306 0)
(10.0257 -0.0333332 0)
(10.0335 -0.0342544 0)
(10.0415 -0.0345454 0)
(10.0492 -0.0345582 0)
(10.0563 -0.0344471 0)
(10.063 -0.0342075 0)
(10.0692 -0.0338419 0)
(10.075 -0.0333825 0)
(10.0804 -0.03287 0)
(10.0856 -0.0323156 0)
(10.0905 -0.0317283 0)
(10.0951 -0.0311264 0)
(10.0996 -0.0305192 0)
(10.1038 -0.0299421 0)
(9.99491 0.00153672 0)
(9.99309 -0.00779741 0)
(10.0066 -0.0197467 0)
(10.0214 -0.0313851 0)
(10.0326 -0.0393306 0)
(10.0421 -0.0427291 0)
(10.0506 -0.0433133 0)
(10.0579 -0.0428155 0)
(10.0641 -0.0419821 0)
(10.0695 -0.0410007 0)
(10.0741 -0.0399554 0)
(10.078 -0.0389164 0)
(10.0813 -0.0379266 0)
(10.0841 -0.0369821 0)
(10.0866 -0.0360744 0)
(10.0887 -0.0352022 0)
(10.0905 -0.0343767 0)
(10.092 -0.0335949 0)
(9.99473 -0.0304951 0)
(9.99962 -0.0225984 0)
(10.0152 -0.00223002 0)
(10.0315 -0.00127133 0)
(10.0451 -0.0107804 0)
(10.0559 -0.0198413 0)
(10.0629 -0.0259962 0)
(10.0665 -0.0300056 0)
(10.0674 -0.0325394 0)
(10.0665 -0.0339615 0)
(10.064 -0.034592 0)
(10.0604 -0.0347296 0)
(10.056 -0.0345727 0)
(10.0509 -0.03424 0)
(10.0455 -0.0337977 0)
(10.0398 -0.0332918 0)
(10.034 -0.0327931 0)
(10.0281 -0.0322849 0)
(10.0274 -0.18295 0)
(10.0766 -0.288195 0)
(10.0874 -0.247564 0)
(10.0784 -0.186226 0)
(10.0676 -0.139835 0)
(10.0557 -0.107565 0)
(10.0393 -0.0850477 0)
(10.0184 -0.0694503 0)
(9.99445 -0.0585464 0)
(9.96888 -0.0506096 0)
(9.94252 -0.0446005 0)
(9.91592 -0.0399121 0)
(9.88959 -0.0361794 0)
(9.86391 -0.0331435 0)
(9.83914 -0.0306242 0)
(9.81532 -0.028539 0)
(9.79271 -0.026843 0)
(9.77118 -0.0258565 0)
(9.93582 0.689569 0)
(9.86865 0.609686 0)
(9.76561 0.380851 0)
(9.62858 0.21768 0)
(9.48911 0.119548 0)
(9.36197 0.0635754 0)
(9.24924 0.0320669 0)
(9.14965 0.0141911 0)
(9.06225 0.00389341 0)
(8.98582 -0.00209469 0)
(8.91863 -0.0055576 0)
(8.85929 -0.00757625 0)
(8.80655 -0.00872791 0)
(8.75958 -0.009391 0)
(8.71748 -0.0097967 0)
(8.67958 -0.010005 0)
(8.64498 -0.0101291 0)
(8.61311 -0.0106785 0)
(0.0418879 -0.0244128 -2.78435e-19)
(0.106128 -0.0639602 1.10283e-19)
(0.174982 -0.0852037 0)
(0.247628 -0.116396 0)
(0.324152 -0.133046 0)
(0.407585 -0.115754 -1.02666e-19)
(0.467726 -0.0962241 0)
(0.516636 -0.075569 0)
(0.552711 -0.0530587 0)
(0.574375 -0.0362331 0)
(0.587032 -0.0253341 8.674e-20)
(0.582473 0.0319048 0)
(0.553281 0.0658321 0)
(0.520248 0.0607773 0)
(0.483269 0.0569626 0)
(0.442212 0.0562622 5.05239e-20)
(0.399417 0.0508392 0)
(0.357335 0.0384286 0)
(0.320394 0.0200177 0)
(0.293158 5.41582e-05 0)
(0.243915 0.014777 0)
(0.194231 0.0263691 0)
(0.133045 0.0379418 0)
(0.0589207 0.052291 2.02129e-19)
(-0.0261279 0.0666567 -2.0094e-19)
(-0.124698 0.0805502 1.5755e-19)
(-0.23986 0.0972974 1.23715e-19)
(-0.369394 0.114789 0)
(-0.510699 0.130264 0)
(-0.660588 0.142365 -7.08807e-20)
(-0.816192 0.150722 -6.18282e-20)
(-0.974801 0.155552 0)
(-1.13411 0.15718 0)
(-1.29216 0.15618 -4.56295e-20)
(-1.44718 0.152916 0)
(-1.59805 0.148093 0)
(-1.74387 0.142213 3.77824e-20)
(-1.88417 0.135776 0)
(-2.01869 0.129105 3.47121e-20)
(-2.14744 0.122516 6.71085e-20)
(-2.27058 0.116173 0)
(-2.38838 0.110246 0)
(-2.50118 0.104784 0)
(-2.60938 0.0998551 0)
(-2.71339 0.0954367 0)
(-2.81362 0.0915461 5.88034e-20)
(-2.91045 0.0881259 5.79446e-20)
(-3.00423 0.0851609 5.71637e-20)
(-3.09528 0.0825744 0)
(-3.18391 0.0803412 -5.5821e-20)
(-3.27035 0.0783764 0)
(-3.35482 0.0766528 5.47114e-20)
(-3.43746 0.075095 5.42344e-20)
(-3.51841 0.0736697 0)
(-3.59777 0.0722896 0)
(-3.67562 0.0709242 0)
(-3.75196 0.0695016 5.27299e-20)
(-3.82678 0.0679924 0)
(-3.90002 0.0663271 0)
(-3.97164 0.0644919 0)
(-4.04147 0.0624501 0)
(-4.10935 0.0601925 0)
(-4.17508 0.0576962 0)
(-4.23846 0.0549674 0)
(-4.29919 0.052009 0)
(-4.35703 0.0488383 -5.09342e-20)
(-4.41158 0.0454793 0)
(-4.46248 0.0419465 0)
(-4.50927 0.038257 5.08039e-20)
(-4.55147 0.0343993 5.08315e-20)
(-4.58855 0.0303674 0)
(-4.61995 0.0261375 -5.09853e-20)
(-4.6451 0.0217195 5.10969e-20)
(-4.66352 0.0171735 0)
(-4.6748 0.0126549 -5.1303e-20)
(-4.67908 0.008337 0)
(-4.67716 0.00415701 0)
(-4.66875 -0.00014035 5.12158e-20)
(-4.65365 -0.00460737 0)
(-4.63169 -0.00930072 -5.08205e-20)
(-4.60264 -0.0142307 0)
(-4.56628 -0.0194461 4.99926e-20)
(-4.5224 -0.0247944 4.93576e-20)
(-4.47094 -0.0303051 4.85494e-20)
(-4.41183 -0.0357601 9.50813e-20)
(-4.34508 -0.0414542 -9.26775e-20)
(-4.27063 -0.0473758 0)
(-4.18855 -0.0531947 0)
(-4.0991 -0.0589207 0)
(-4.00251 -0.0643809 -7.78275e-20)
(-3.89911 -0.0698389 -7.26455e-20)
(-3.7892 -0.0752196 6.68156e-20)
(-3.67318 -0.0802083 0)
(-3.55151 -0.0848754 -5.31188e-20)
(-3.42468 -0.0891639 -4.52048e-20)
(-3.29324 -0.0930188 -3.65542e-20)
(-3.15779 -0.0964081 0)
(-3.01893 -0.0993156 0)
(-2.87728 -0.101725 0)
(-2.73349 -0.103665 5.70253e-21)
(-2.58811 -0.105138 0)
(-2.44174 -0.106158 0)
(-2.29492 -0.106725 -4.59097e-20)
(-2.14825 -0.106856 0)
(-2.0023 -0.106604 0)
(-1.85763 -0.106005 -9.42453e-20)
(-1.71475 -0.105136 0)
(-1.57411 -0.104007 0)
(-1.43609 -0.102689 1.52258e-19)
(-1.30101 -0.101187 1.74211e-19)
(-1.16909 -0.0995427 0)
(-1.0406 -0.0977541 -2.22969e-19)
(-0.915606 -0.0959587 0)
(-0.794278 -0.0940734 2.79924e-19)
(-0.676648 -0.0921883 0)
(-0.562764 -0.0902753 3.47778e-19)
(-0.452619 -0.0884119 3.87014e-19)
(-0.346183 -0.086519 0)
(-0.243383 -0.0846096 0)
(-0.144196 -0.082648 0)
(-0.048377 -0.0802518 0)
(0.0450455 -0.076504 0)
(0.136006 -0.0717642 0)
(0.223223 -0.0668906 0)
(0.306602 -0.0622905 5.07937e-19)
(0.386119 -0.0580169 -4.88324e-19)
(0.461973 -0.0541186 0)
(0.534355 -0.0505374 0)
(0.60352 -0.0472688 0)
(0.669712 -0.0442851 0)
(0.733118 -0.0415329 -8.39018e-19)
(0.793939 -0.038969 0)
(0.852407 -0.0366497 8.0091e-19)
(0.908691 -0.0345645 -7.84203e-19)
(0.962947 -0.0326614 0)
(1.01533 -0.0308658 0)
(1.06599 -0.0291903 0)
(1.11509 -0.0276944 7.28632e-19)
(1.1627 -0.0263708 7.17002e-19)
(1.20887 -0.0251336 0)
(1.25373 -0.0239519 6.95918e-19)
(1.29742 -0.0228718 6.86242e-19)
(1.34 -0.0218806 -6.77002e-19)
(1.38151 -0.0209269 0)
(1.42207 -0.0200271 0)
(1.46172 -0.0192365 -6.51824e-19)
(1.50048 -0.0185191 0)
(1.53844 -0.0179122 0)
(1.57563 -0.0173188 0)
(1.61209 -0.0166286 0)
(1.6479 -0.0159688 6.17207e-19)
(1.68307 -0.0154358 6.11178e-19)
(1.71765 -0.0150541 0)
(1.75167 -0.0147605 5.99881e-19)
(1.78509 -0.0143876 0)
(1.818 -0.0139399 0)
(1.85043 -0.0135668 5.84622e-19)
(1.8823 -0.0131794 0)
(1.91366 -0.0127861 5.75426e-19)
(1.94452 -0.0124067 0)
(1.97492 -0.0120688 0)
(2.00485 -0.0117711 5.62822e-19)
(2.03437 -0.0115096 0)
(2.06349 -0.0113898 5.5509e-19)
(2.09215 -0.0111816 0)
(2.12047 -0.0108836 0)
(2.14844 -0.0107307 0)
(2.17587 -0.010502 -5.4119e-19)
(2.20281 -0.0101662 0)
(2.22913 -0.00997723 5.35316e-19)
(2.25446 -0.00962553 0)
(2.27863 -0.00884064 0)
(2.30141 -0.00803526 0)
(2.32206 -0.00726755 0)
(2.33985 -0.00628967 0)
(2.35342 -0.0048801 0)
(2.36002 -0.00186675 0)
(2.34733 0.00412369 -1.08086e-18)
(2.32365 0.0173145 0)
(2.19426 0.03271 0)
(0.0504168 -0.21496 6.4852e-19)
(0.135793 -0.275349 -2.90884e-19)
(0.212626 -0.257045 0)
(0.275965 -0.230995 1.05266e-19)
(0.32356 -0.209016 0)
(0.358692 -0.17863 4.58858e-20)
(0.383452 -0.142923 -8.94245e-20)
(0.398597 -0.10519 -8.83122e-20)
(0.404574 -0.0674019 0)
(0.401689 -0.0312326 -8.89512e-20)
(0.389089 0.00306087 -4.42365e-20)
(0.371737 0.0352467 0)
(0.354458 0.0626966 0)
(0.329021 0.0835561 0)
(0.293256 0.0982542 0)
(0.248267 0.107696 -4.03771e-20)
(0.195187 0.112955 0)
(0.131252 0.1184 8.78006e-20)
(0.0574281 0.128432 0)
(-0.0396497 0.151696 0)
(-0.14809 0.1765 -9.91641e-20)
(-0.267996 0.206022 0)
(-0.401416 0.240113 8.63932e-20)
(-0.548164 0.276189 -4.02436e-20)
(-0.704878 0.311153 3.68464e-20)
(-0.867471 0.342724 -3.36987e-20)
(-1.03284 0.369155 -3.08976e-20)
(-1.19832 0.388922 0)
(-1.36156 0.401497 0)
(-1.5207 0.407073 2.46207e-20)
(-1.67429 0.406198 -2.27685e-20)
(-1.82124 0.399864 0)
(-1.96083 0.389165 0)
(-2.09263 0.375394 2.02402e-20)
(-2.21684 0.35967 0)
(-2.33385 0.34282 0)
(-2.44415 0.325567 -1.86139e-20)
(-2.5483 0.308494 0)
(-2.64692 0.291987 1.78209e-20)
(-2.74059 0.27635 -3.54395e-20)
(-2.82987 0.26173 0)
(-2.91526 0.248238 0)
(-2.99722 0.235872 -6.84582e-20)
(-3.07614 0.224627 -6.79454e-20)
(-3.15235 0.214422 -6.75024e-20)
(-3.22613 0.205199 3.33454e-20)
(-3.29774 0.196847 -3.36081e-20)
(-3.36734 0.189291 -9.99399e-20)
(-3.43511 0.182411 6.6208e-20)
(-3.50116 0.176133 3.32329e-20)
(-3.56558 0.170344 0)
(-3.62843 0.164984 -3.30597e-20)
(-3.68973 0.159956 3.24457e-20)
(-3.74947 0.155207 0)
(-3.80765 0.15064 0)
(-3.86423 0.146202 0)
(-3.91913 0.141807 -3.28595e-20)
(-3.97226 0.137401 0)
(-4.02353 0.132897 6.50488e-20)
(-4.07282 0.128242 0)
(-4.11999 0.123367 6.50659e-20)
(-4.16487 0.118222 0)
(-4.2073 0.112737 -6.51304e-20)
(-4.24711 0.106862 0)
(-4.28413 0.100543 6.52369e-20)
(-4.31818 0.0937404 -3.24167e-20)
(-4.34912 0.0864309 0)
(-4.37677 0.0785918 -6.5487e-20)
(-4.40102 0.0702235 -3.29716e-20)
(-4.42176 0.0613184 -3.30138e-20)
(-4.43895 0.0519028 0)
(-4.45258 0.0420078 -3.27944e-20)
(-4.46271 0.0317216 -3.31441e-20)
(-4.46933 0.0211687 0)
(-4.47236 0.0105444 3.31385e-20)
(-4.47121 -6.05872e-05 -6.57764e-20)
(-4.46454 -0.0107005 0)
(-4.45186 -0.0215217 -3.27475e-20)
(-4.4328 -0.0325374 0)
(-4.40702 -0.0437825 9.65405e-20)
(-4.37428 -0.0551927 0)
(-4.33435 -0.066749 -9.41977e-20)
(-4.28707 -0.0783649 -3.07994e-20)
(-4.23231 -0.0900164 3.03911e-20)
(-4.16998 -0.101583 5.93842e-20)
(-4.09999 -0.113006 -5.77966e-20)
(-4.02236 -0.124135 0)
(-3.93725 -0.134952 0)
(-3.84474 -0.14536 0)
(-3.74508 -0.155252 1.41615e-19)
(-3.6386 -0.164602 4.31e-20)
(-3.52575 -0.173274 -3.94453e-20)
(-3.4069 -0.181145 0)
(-3.2825 -0.188155 -3.46503e-20)
(-3.15307 -0.194238 2.6628e-20)
(-3.01919 -0.19937 2.17526e-20)
(-2.88146 -0.203511 0)
(-2.74054 -0.206669 0)
(-2.59706 -0.208825 0)
(-2.45165 -0.209997 -4.35914e-22)
(-2.30495 -0.210185 0)
(-2.15757 -0.209459 2.0952e-20)
(-2.01012 -0.207872 5.33889e-20)
(-1.86318 -0.205503 -4.72659e-20)
(-1.71731 -0.202431 0)
(-1.57303 -0.198757 -3.48834e-20)
(-1.43082 -0.194597 0)
(-1.29109 -0.190021 -1.03282e-19)
(-1.1542 -0.185123 5.6431e-20)
(-1.02043 -0.179951 6.37918e-20)
(-0.890024 -0.174615 0)
(-0.763149 -0.169155 2.45518e-19)
(-0.639933 -0.163637 -1.77099e-19)
(-0.520476 -0.158088 -9.83664e-20)
(-0.404817 -0.152586 0)
(-0.292962 -0.147136 -1.13522e-19)
(-0.18487 -0.141792 -3.59324e-19)
(-0.0804677 -0.136615 0)
(0.0206157 -0.131782 -2.61933e-19)
(0.118298 -0.12724 -2.65624e-19)
(0.2124 -0.122568 -2.69072e-19)
(0.302707 -0.11716 0)
(0.38909 -0.111123 0)
(0.471926 -0.105029 0)
(0.551603 -0.0991706 1.39306e-19)
(0.628234 -0.0936448 1.42982e-19)
(0.70192 -0.0884987 0)
(0.772797 -0.0837159 2.87518e-19)
(0.841005 -0.0792899 2.89158e-19)
(0.906678 -0.0751922 0)
(0.969977 -0.071404 2.93608e-19)
(1.03105 -0.0679006 5.86005e-19)
(1.09002 -0.0646795 -2.95502e-19)
(1.14702 -0.0617073 -2.93437e-19)
(1.20218 -0.058954 0)
(1.25564 -0.0564036 0)
(1.30751 -0.0540534 0)
(1.35788 -0.0518877 -2.98462e-19)
(1.40682 -0.0498736 2.96758e-19)
(1.45445 -0.0479771 5.96353e-19)
(1.50086 -0.0461936 -2.99427e-19)
(1.54614 -0.0445349 2.97856e-19)
(1.59038 -0.0429899 2.99748e-19)
(1.63363 -0.0415391 0)
(1.67595 -0.0401803 0)
(1.71738 -0.0389184 -2.98461e-19)
(1.75797 -0.0377168 0)
(1.79777 -0.0365819 0)
(1.83685 -0.0355214 5.98872e-19)
(1.87524 -0.0345163 0)
(1.91295 -0.033585 2.98928e-19)
(1.95002 -0.0327146 -3.00118e-19)
(1.98649 -0.0318804 0)
(2.02239 -0.0310684 2.99051e-19)
(2.05775 -0.0302523 0)
(2.09257 -0.0294477 0)
(2.12686 -0.0287155 -3.00109e-19)
(2.16063 -0.028003 5.99208e-19)
(2.1939 -0.027307 -3.00023e-19)
(2.22668 -0.0266345 0)
(2.25901 -0.0259926 0)
(2.29092 -0.0253946 2.98892e-19)
(2.3224 -0.0247985 0)
(2.35346 -0.0242464 2.98641e-19)
(2.38415 -0.0236786 0)
(2.41442 -0.0230827 0)
(2.44424 -0.0225392 0)
(2.47359 -0.0219485 2.9894e-19)
(2.50233 -0.0212331 0)
(2.53033 -0.0204517 -2.99008e-19)
(2.55748 -0.0195189 0)
(2.58347 -0.0182936 0)
(2.60794 -0.0168534 6.00162e-19)
(2.63048 -0.0150383 -6.0261e-19)
(2.65058 -0.012496 0)
(2.66693 -0.00874038 0)
(2.68031 -0.00232383 0)
(2.68702 0.00855301 1.88872e-18)
(2.69439 0.0291633 0)
(2.67169 0.0648925 -1.34592e-18)
(0.0445548 -0.399634 9.32294e-22)
(0.104943 -0.434322 2.87551e-19)
(0.148675 -0.385304 0)
(0.182877 -0.329638 -1.60735e-19)
(0.206344 -0.274511 0)
(0.219136 -0.218757 0)
(0.222888 -0.162999 -1.48988e-22)
(0.218709 -0.108162 6.09389e-20)
(0.20712 -0.0550339 6.11234e-20)
(0.188322 -0.00438303 6.1563e-20)
(0.162416 0.0434743 0)
(0.129928 0.0888132 0)
(0.0914957 0.129933 -6.34e-20)
(0.0453033 0.166221 -1.29185e-19)
(-0.0105767 0.198316 1.28904e-19)
(-0.0780726 0.227739 0)
(-0.158485 0.256656 1.20732e-19)
(-0.253218 0.288087 -5.83786e-20)
(-0.362352 0.324926 0)
(-0.485361 0.368005 1.06084e-19)
(-0.618602 0.41465 5.06704e-20)
(-0.760036 0.462847 -9.43517e-20)
(-0.906714 0.50961 -4.47351e-20)
(-1.05517 0.551809 0)
(-1.20197 0.58719 7.79611e-20)
(-1.34415 0.614249 7.34568e-20)
(-1.4797 0.631957 0)
(-1.60755 0.640094 6.59981e-20)
(-1.72742 0.639197 0)
(-1.83942 0.630414 6.03451e-20)
(-1.94406 0.615191 2.89937e-20)
(-2.04207 0.595022 0)
(-2.13424 0.571377 0)
(-2.22148 0.54559 0)
(-2.30455 0.518858 0)
(-2.38403 0.49212 0)
(-2.46043 0.466065 0)
(-2.5342 0.441181 4.91423e-20)
(-2.60569 0.417779 -7.28181e-20)
(-2.67516 0.396036 0)
(-2.74283 0.376015 0)
(-2.80889 0.357704 0)
(-2.87346 0.341029 1.43708e-22)
(-2.93667 0.325885 4.69312e-20)
(-2.99859 0.312136 9.3306e-20)
(-3.0593 0.29964 -9.29847e-20)
(-3.11887 0.288246 -4.6239e-20)
(-3.17735 0.277811 4.63706e-20)
(-3.23476 0.268192 -2.62917e-22)
(-3.29113 0.259257 4.59384e-20)
(-3.34649 0.250877 0)
(-3.40084 0.242943 4.58241e-20)
(-3.45417 0.235349 -2.99989e-22)
(-3.50644 0.227996 0)
(-3.55764 0.220789 0)
(-3.60772 0.213642 -4.57651e-20)
(-3.65661 0.206473 0)
(-3.70426 0.199205 0)
(-3.75057 0.19176 4.54801e-20)
(-3.79546 0.184069 9.17756e-20)
(-3.83882 0.176072 -4.63139e-20)
(-3.88051 0.167706 0)
(-3.9204 0.158917 4.64326e-20)
(-3.95837 0.14965 0)
(-3.99424 0.139866 4.58535e-20)
(-4.02787 0.129528 4.66225e-20)
(-4.05909 0.118618 -9.27413e-20)
(-4.08769 0.107118 -4.61585e-20)
(-4.11347 0.0950282 0)
(-4.13621 0.0823379 9.3266e-20)
(-4.15568 0.0690514 0)
(-4.17159 0.0551591 1.40527e-19)
(-4.18365 0.0406615 9.361e-20)
(-4.19147 0.0255371 9.36328e-20)
(-4.19468 0.00978129 -9.3398e-20)
(-4.19281 -0.00663461 1.39708e-19)
(-4.18544 -0.0236457 0)
(-4.1722 -0.0411817 0)
(-4.15274 -0.0591643 -9.1366e-20)
(-4.12674 -0.0775383 -1.35656e-19)
(-4.09393 -0.0962116 0)
(-4.05407 -0.115098 4.38459e-20)
(-4.00697 -0.13407 0)
(-3.95247 -0.153021 -1.26573e-19)
(-3.89049 -0.171803 8.35289e-22)
(-3.82092 -0.190295 -1.00292e-21)
(-3.74381 -0.208328 7.70634e-20)
(-3.65924 -0.225743 0)
(-3.56736 -0.242363 -7.02728e-20)
(-3.46845 -0.258021 1.70455e-21)
(-3.36283 -0.272664 0)
(-3.25096 -0.286143 0)
(-3.13321 -0.298256 0)
(-3.01004 -0.308881 4.3858e-20)
(-2.882 -0.317947 0)
(-2.74967 -0.325385 0)
(-2.61367 -0.331175 0)
(-2.47465 -0.335308 0)
(-2.33325 -0.337811 0)
(-2.19015 -0.33872 5.39368e-21)
(-2.04596 -0.338071 0)
(-1.90131 -0.335942 -1.33267e-20)
(-1.75681 -0.332427 -2.14442e-20)
(-1.61302 -0.327678 2.96634e-20)
(-1.47048 -0.321827 0)
(-1.32969 -0.315052 4.62794e-20)
(-1.19109 -0.307494 0)
(-1.05508 -0.299304 6.29366e-20)
(-0.921956 -0.290598 -7.12194e-20)
(-0.791997 -0.2815 -2.32537e-19)
(-0.665416 -0.272114 0)
(-0.542362 -0.26256 -2.81304e-19)
(-0.422946 -0.252922 -9.81088e-20)
(-0.307231 -0.243279 0)
(-0.195236 -0.233702 -2.33089e-19)
(-0.0869222 -0.22429 -2.47967e-19)
(0.0178697 -0.215168 3.91581e-19)
(0.119041 -0.206334 0)
(0.216464 -0.197629 1.39801e-19)
(0.310196 -0.189032 1.43196e-19)
(0.400361 -0.180585 4.35149e-19)
(0.487056 -0.172313 0)
(0.570389 -0.164189 0)
(0.650568 -0.156235 0)
(0.72778 -0.148564 1.54295e-19)
(0.802152 -0.141257 0)
(0.8738 -0.134352 0)
(0.942846 -0.127852 -1.63913e-19)
(1.00941 -0.121764 -1.6578e-19)
(1.07364 -0.116067 0)
(1.13565 -0.110745 0)
(1.19557 -0.105784 -3.41298e-19)
(1.25354 -0.101172 0)
(1.30967 -0.0968812 3.46795e-19)
(1.36407 -0.0928828 3.47648e-19)
(1.41686 -0.0891544 0)
(1.46813 -0.085692 0)
(1.51799 -0.0824733 -3.54599e-19)
(1.56649 -0.0794619 -1.31467e-21)
(1.61374 -0.0766301 -1.24811e-21)
(1.65983 -0.0739728 0)
(1.70484 -0.0714805 -7.25392e-19)
(1.74884 -0.0691385 0)
(1.79189 -0.0669328 0)
(1.83405 -0.0648658 0)
(1.87535 -0.0629206 3.68927e-19)
(1.91586 -0.0610896 0)
(1.95562 -0.0593571 -7.41282e-19)
(1.99466 -0.0577184 -3.72762e-19)
(2.03301 -0.0561771 0)
(2.0707 -0.0547168 -3.75062e-19)
(2.10779 -0.0533292 0)
(2.14428 -0.052006 0)
(2.1802 -0.0507229 -1.13328e-18)
(2.21556 -0.0494688 7.57105e-19)
(2.25039 -0.0482638 0)
(2.2847 -0.0471026 7.60854e-19)
(2.3185 -0.0459834 -3.81923e-19)
(2.3518 -0.0448925 0)
(2.38465 -0.0438373 0)
(2.41705 -0.0428263 0)
(2.44902 -0.0418593 -1.15246e-18)
(2.48056 -0.0409371 0)
(2.51169 -0.0400239 -3.85454e-19)
(2.5424 -0.039116 0)
(2.57267 -0.0382251 0)
(2.60248 -0.0373006 0)
(2.63175 -0.0362998 0)
(2.66038 -0.0351863 0)
(2.68829 -0.0338761 0)
(2.71528 -0.0322975 -7.76332e-19)
(2.74114 -0.030423 0)
(2.76564 -0.0281307 -3.90908e-19)
(2.78843 -0.0252072 1.17772e-18)
(2.8091 -0.0213558 0)
(2.82686 -0.0159776 0)
(2.84153 -0.00790314 -8.0982e-19)
(2.85098 0.00512133 -8.26603e-19)
(2.85979 0.0276063 8.35255e-19)
(2.85702 0.0684571 8.90299e-19)
(0.0186692 -0.517248 -7.00896e-19)
(0.0497511 -0.499129 -3.52623e-19)
(0.061324 -0.430398 -1.66387e-19)
(0.0675541 -0.358153 -6.75006e-20)
(0.068034 -0.286182 0)
(0.0617157 -0.214801 1.10035e-19)
(0.0485867 -0.144397 -5.29935e-20)
(0.0288366 -0.07547 0)
(0.00247365 -0.00859017 -5.20944e-20)
(-0.0308042 0.0557959 0)
(-0.0714215 0.117547 1.01075e-19)
(-0.119773 0.176631 0)
(-0.176407 0.233056 4.8836e-20)
(-0.2422 0.287218 9.54197e-20)
(-0.318099 0.339925 -9.26334e-20)
(-0.404913 0.392255 0)
(-0.502913 0.445366 -8.56402e-20)
(-0.611509 0.500127 0)
(-0.728955 0.556451 0)
(-0.852438 0.612816 -7.35352e-20)
(-0.978506 0.66639 0)
(-1.10406 0.714627 2.93425e-22)
(-1.22627 0.755213 0)
(-1.34288 0.786415 0)
(-1.45243 0.80741 -8.89797e-23)
(-1.5542 0.818183 -5.31683e-20)
(-1.64812 0.819281 -5.08223e-20)
(-1.73467 0.811684 -4.86521e-20)
(-1.8147 0.79663 0)
(-1.88924 0.775514 -9.04525e-20)
(-1.95934 0.749813 0)
(-2.02597 0.720956 -4.2731e-20)
(-2.08998 0.690244 0)
(-2.15205 0.658795 0)
(-2.21268 0.627456 4.0048e-20)
(-2.27222 0.596886 0)
(-2.33088 0.567568 -3.88537e-20)
(-2.38884 0.539827 1.47712e-22)
(-2.44616 0.513855 7.58652e-20)
(-2.50288 0.489739 -7.53025e-20)
(-2.55903 0.467489 0)
(-2.61461 0.447051 0)
(-2.66961 0.428331 -3.69046e-20)
(-2.72402 0.411208 0)
(-2.77784 0.39554 -3.66925e-20)
(-2.83105 0.381177 3.65988e-20)
(-2.88365 0.367967 3.65235e-20)
(-2.93564 0.355757 0)
(-2.98702 0.344399 -3.64192e-20)
(-3.03777 0.33375 -3.63872e-20)
(-3.0879 0.323675 7.24333e-20)
(-3.13737 0.314047 -3.63591e-20)
(-3.18617 0.304748 -3.63622e-20)
(-3.23426 0.295663 0)
(-3.28162 0.286684 0)
(-3.32819 0.27771 3.64365e-20)
(-3.37391 0.268644 0)
(-3.41871 0.259394 0)
(-3.46251 0.249871 -7.3194e-20)
(-3.50522 0.239995 -7.33329e-20)
(-3.54674 0.22969 0)
(-3.58692 0.218881 0)
(-3.62565 0.207503 0)
(-3.66276 0.19549 0)
(-3.69809 0.182787 -7.42004e-20)
(-3.73145 0.169346 7.40732e-20)
(-3.76263 0.155126 7.46153e-20)
(-3.79141 0.14009 1.49371e-19)
(-3.81751 0.124209 0)
(-3.84067 0.10745 -2.42515e-22)
(-3.86057 0.0897862 0)
(-3.87689 0.0711882 -7.56039e-20)
(-3.88928 0.0516362 -1.18711e-22)