/*--------------------------------*- C++ -*----------------------------------*\
  =========                 |
  \\      /  F ield         | OpenFOAM: The Open Source CFD Toolbox
   \\    /   O peration     | Website:  https://openfoam.org
    \\  /    A nd           | Version:  9
     \\/     M anipulation  |
\*---------------------------------------------------------------------------*/
FoamFile
{
    format      ascii;
    class       volScalarField;
    location    "0.5";
    object      p;
}
// * * * * * * * * * * * * * * * * * * * * * * * * * * * * * * * * * * * * * //

dimensions      [0 2 -2 0 0 0 0];

internalField   nonuniform List<scalar> 
1681
(
-4.34737e-06
-0.000539251
-0.0046339
-0.00572707
-0.0109048
-0.0120928
-0.0159713
-0.0168839
-0.0181259
-0.0185085
-0.0165235
-0.0162128
-0.0109967
-0.0099064
-0.00186981
1.5798e-05
0.0101892
0.0128143
0.0242722
0.0275052
0.0311339
0.0429383
0.0462267
0.0578739
0.060586
0.0710717
0.0730424
0.0814
0.0825447
0.0879701
0.0882899
0.0902974
0.0898827
0.088485
0.0875197
0.0834075
0.0821753
0.0768353
0.0757285
0.0716139
0.0710806
0.000528179
-6.46703e-06
-0.00432513
-0.00533888
-0.0105551
-0.0116743
-0.0155307
-0.0164191
-0.0176106
-0.0180292
-0.015974
-0.0157599
-0.0104608
-0.00951711
-0.00139334
0.000312546
0.010568
0.0129992
0.0245258
0.0275676
0.031022
0.0428749
0.045971
0.057688
0.0602021
0.0707738
0.0725592
0.0810092
0.0820022
0.0875151
0.0877357
0.0898153
0.0893653
0.0880165
0.0870788
0.082984
0.0818244
0.0764425
0.0754166
0.0710835
0.0705505
0.00460861
0.00426997
-0.000177656
-0.000967968
-0.00593275
-0.00660011
-0.0100022
-0.0103914
-0.0114131
-0.0114192
-0.00962233
-0.00917102
-0.00452089
-0.0035854
0.00361055
0.00501306
0.0142025
0.0160165
0.0264769
0.0286102
0.0309239
0.0418352
0.0439961
0.0546538
0.0565196
0.0660256
0.0674834
0.075002
0.0759764
0.0808382
0.0813
0.0831243
0.0830997
0.0819274
0.0815024
0.0778671
0.0771678
0.0720423
0.0712436
0.066789
0.0664494
0.00572733
0.00530733
0.000562995
-0.000227489
-0.00510107
-0.00576726
-0.00903089
-0.00941316
-0.0103757
-0.0103651
-0.00862326
-0.00813886
-0.00366355
-0.00267192
0.00423963
0.00572524
0.0145434
0.0164663
0.026501
0.0287605
0.0311986
0.0416734
0.0439599
0.0541916
0.0561662
0.0652996
0.0668398
0.0740738
0.0751027
0.0797915
0.0802841
0.0820571
0.0820471
0.0809377
0.0805184
0.0770226
0.0763241
0.0712888
0.0704899
0.0657412
0.0653189
0.0112022
0.0107756
0.00530836
0.00431828
-0.000883394
-0.00157039
-0.00462892
-0.00498096
-0.00575552
-0.00575267
-0.00406222
-0.00366003
0.000473849
0.00129072
0.00759192
0.0088053
0.0168086
0.0183708
0.0274733
0.0293063
0.0312799
0.0408055
0.0426606
0.0519874
0.0536006
0.0619607
0.0632319
0.0699028
0.0707623
0.0751527
0.0755677
0.0773171
0.0773002
0.0763826
0.0759892
0.0726771
0.0719501
0.066556
0.0655527
0.0600654
0.0596376
0.0125261
0.0120213
0.00594477
0.00495249
-0.000358484
-0.00104633
-0.00410876
-0.00445105
-0.00524635
-0.00522259
-0.00360192
-0.0031602
0.000837747
0.00172178
0.00781509
0.00913017
0.0168598
0.0185614
0.0273402
0.0293476
0.0315144
0.0406951
0.0427217
0.0517352
0.0534843
0.061587
0.0629541
0.0694372
0.0703559
0.0746297
0.0750756
0.0767686
0.0767655
0.0758306
0.0754425
0.0721192
0.0713899
0.0658745
0.0648689
0.0587649
0.058253
0.0172982
0.0167035
0.00940698
0.0081051
0.0017525
0.000932444
-0.0024864
-0.00287943
-0.00378827
-0.00380292
-0.00226043
-0.00187887
0.00200386
0.00278204
0.00870441
0.00985321
0.0173746
0.0188454
0.0274181
0.0291373
0.0309608
0.0399967
0.0417323
0.0506145
0.0521438
0.0601549
0.0613768
0.0678207
0.068658
0.072932
0.0733375
0.0750229
0.0749898
0.0739498
0.0735056
0.0697755
0.0688984
0.0622616
0.0609309
0.0535534
0.0529538
0.0185301
0.017894
0.0097928
0.00848124
0.00193254
0.00109937
-0.00238304
-0.00277702
-0.00373212
-0.00374022
-0.00224936
-0.00184328
0.00195771
0.00279322
0.0085845
0.00983665
0.0171691
0.0187997
0.027126
0.0290659
0.0311582
0.0399068
0.0418585
0.0505151
0.0521971
0.060054
0.0613668
0.0677233
0.0686004
0.0728359
0.0732468
0.0749123
0.0748695
0.0737956
0.07334
0.0695371
0.0686429
0.0617878
0.060447
0.0522388
0.0515858
0.0212342
0.0204434
0.0110385
0.00941488
0.00156496
0.000596244
-0.00346045
-0.00389611
-0.00505789
-0.00506663
-0.0036048
-0.00319306
0.000685253
0.00150128
0.00744751
0.00863035
0.0161967
0.0176922
0.0263502
0.0280834
0.03723
0.0391003
0.0408366
0.0499551
0.0515179
0.0598109
0.0610907
0.0678345
0.0687383
0.0732641
0.0737228
0.0755061
0.075488
0.0742568
0.0737615
0.0693325
0.0682833
0.0600034
0.0583223
0.0487086
0.0479045
0.022146
0.0213741
0.0110313
0.0093832
0.00132804
0.000329036
-0.0037907
-0.0042365
-0.00543666
-0.00544667
-0.00400937
-0.00357712
0.000262042
0.00114004
0.00700509
0.00830892
0.0157349
0.0174259
0.025875
0.0278886
0.036757
0.0389922
0.0410061
0.0499446
0.0516959
0.0599009
0.0612845
0.0680167
0.0689556
0.0735149
0.0739629
0.07578
0.0757327
0.0744925
0.0739683
0.069471
0.0683837
0.0598663
0.0581599
0.0475509
0.0467456
0.021752
0.0207524
0.00915055
0.00722314
-0.00221527
-0.00331408
-0.00805168
-0.00850003
-0.00985762
-0.00981254
-0.00825604
-0.00774684
-0.00358005
-0.00264024
0.00372939
0.00504875
0.0131496
0.0147856
0.0240883
0.0259605
0.0278168
0.0378706
0.039717
0.0497172
0.0514258
0.0606248
0.0620716
0.0696803
0.07075
0.0759921
0.076587
0.0787929
0.0788507
0.0775854
0.0770748
0.0719349
0.0707276
0.0606627
0.0586331
0.0466063
0.0455788
0.0221355
0.0212312
0.00858089
0.00659893
-0.00301401
-0.0041778
-0.00893368
-0.0094184
-0.0107668
-0.0107478
-0.00915488
-0.00864432
-0.00444792
-0.00345248
0.00290303
0.00435646
0.0123725
0.014244
0.0233715
0.025599
0.0279382
0.0377138
0.0399264
0.0497802
0.0517285
0.0609081
0.0624761
0.0701664
0.0712608
0.0766398
0.0771946
0.0795298
0.0795214
0.0783204
0.077745
0.0725914
0.0713064
0.061024
0.0589385
0.0457548
0.0447929
0.0177802
0.0165624
0.00269492
0.000492853
-0.0105321
-0.0117185
-0.017052
-0.0174545
-0.0188287
-0.0186545
-0.0167297
-0.0160324
-0.0112138
-0.0100463
-0.00280799
-0.00123705
0.00791657
0.00981671
0.0203457
0.0224865
0.0244995
0.0360557
0.0381153
0.0496965
0.0516643
0.0624702
0.0642032
0.0733502
0.0747052
0.0812714
0.0821141
0.0852409
0.0854701
0.0845179
0.0840637
0.0783756
0.0770519
0.0651619
0.0627946
0.0481736
0.0469052
0.0174082
0.0163732
0.0013716
-0.000939671
-0.0120689
-0.0133844
-0.0186394
-0.0191355
-0.0203993
-0.0203084
-0.0182351
-0.0175864
-0.0126248
-0.0114334
-0.0041078
-0.00240547
0.00673975
0.00891366
0.0193053
0.0218931
0.0245785
0.0358085
0.0383678
0.0498175
0.0521024
0.0629612
0.0648407
0.0741878
0.0755488
0.0823997
0.0831521
0.0865617
0.0866596
0.0859081
0.0853232
0.0797362
0.0782652
0.0662182
0.0637392
0.0477986
0.0466739
0.00824786
0.0068017
-0.00942589
-0.0118648
-0.0244126
-0.0256207
-0.0313491
-0.0316169
-0.0327054
-0.0322971
-0.0296241
-0.0286226
-0.0227086
-0.0211899
-0.0125832
-0.0106322
0.000127849
0.0024241
0.0147885
0.0173321
0.0195771
0.0333629
0.0357299
0.0496584
0.0519981
0.065208
0.0673567
0.0788496
0.0806308
0.0893044
0.0905392
0.0952936
0.0958295
0.0957571
0.0954717
0.0895861
0.0882186
0.0745497
0.0718643
0.0544214
0.052892
0.00683867
0.00567015
-0.0117336
-0.0143729
-0.0269034
-0.0283472
-0.0338316
-0.0342955
-0.0350998
-0.0348784
-0.0318751
-0.0310167
-0.0247848
-0.0233122
-0.0144675
-0.0124155
-0.0015541
0.00104308
0.013321
0.0164158
0.0196169
0.0329637
0.0360343
0.049809
0.0525891
0.0659159
0.0682587
0.0800921
0.0818609
0.0910166
0.0920916
0.0973537
0.0976604
0.0980078
0.0974855
0.0918977
0.0902703
0.0765613
0.0736704
0.05476
0.0534611
-0.008066
-0.00975296
-0.0284732
-0.0311
-0.045037
-0.0461729
-0.0519554
-0.0519643
-0.0523138
-0.0515316
-0.0475996
-0.0461483
-0.0385968
-0.0365809
-0.0260405
-0.0235657
-0.0106056
-0.00777213
0.00706441
0.0101501
0.0126867
0.0294803
0.0322384
0.0493503
0.052173
0.0686898
0.0713935
0.0861964
0.0885689
0.100345
0.102153
0.109501
0.110528
0.112181
0.112228
0.106742
0.105444
0.0901652
0.0871972
0.0666569
0.0648426
-0.0108835
-0.0121952
-0.0320605
-0.0350312
-0.0487568
-0.0502949
-0.0555728
-0.0559435
-0.0557346
-0.0553079
-0.0507671
-0.0496166
-0.0414849
-0.0396435
-0.0286407
-0.0261442
-0.0129158
-0.00978694
0.00504918
0.00878548
0.0126976
0.0288412
0.0326116
0.0494831
0.0529446
0.0696151
0.0726063
0.0879027
0.0902598
0.102769
0.104335
0.112503
0.113166
0.115569
0.115221
0.110344
0.108613
0.0934978
0.0901738
0.0680666
0.0665761
-0.0326694
-0.0346124
-0.0559912
-0.0587391
-0.0738149
-0.0747445
-0.0800348
-0.0796125
-0.0785559
-0.0772154
-0.0713327
-0.0692502
-0.059386
-0.056702
-0.0435778
-0.0404209
-0.0246204
-0.0211023
-0.00313209
0.000635868
0.00350753
0.0241254
0.0273458
0.0485352
0.0519473
0.0727762
0.0761826
0.0954276
0.0985816
0.114703
0.117311
0.128544
0.130306
0.134905
0.135517
0.131381
0.130325
0.113819
0.110634
0.0867017
0.0845758
-0.0373967
-0.0388678
-0.0612485
-0.0645551
-0.0791191
-0.0806967
-0.0850871
-0.0852741
-0.0832466
-0.0825127
-0.0756132
-0.0740697
-0.0632482
-0.0609435
-0.0470337
-0.0440057
-0.0276876
-0.0239418
-0.00582149
-0.00134255
0.00351415
0.0231233
0.0278183
0.0485712
0.052942
0.0738981
0.0777698
0.0976521
0.100832
0.117985
0.120272
0.132742
0.133972
0.139795
0.139795
0.136741
0.135003
0.118996
0.115224
0.0897308
0.0880271
-0.0464191
-0.0475955
-0.0683853
-0.0717663
-0.112465
-0.112992
-0.116901
-0.115806
-0.0887554
-0.0892677
-0.080169
-0.0984725
-0.066808
-0.0661593
-0.049583
-0.0614084
-0.0420733
-0.0377271
-0.0159474
-0.00393345
0.00023026
0.0214822
0.0253497
0.0480129
0.0511475
0.0773653
0.0816263
0.106605
0.110754
0.132739
0.136424
0.153237
0.156054
0.145824
0.166836
0.165536
0.141277
0.148018
0.144737
0.097499
0.0960238
-0.0748645
-0.0765154
-0.101415
-0.105052
-0.119818
-0.121335
-0.123758
-0.123614
-0.118583
-0.117389
-0.10701
-0.104933
-0.090425
-0.087538
-0.069851
-0.0661954
-0.0460091
-0.0415702
-0.0194217
-0.0141393
-0.00807706
0.0155977
0.0214946
0.0468727
0.05243
0.0786343
0.0836744
0.109385
0.11369
0.137035
0.140356
0.158932
0.161036
0.172194
0.17281
0.173294
0.17172
0.155793
0.151588
0.122665
0.120728
-0.0865701
-0.0878166
-0.110476
-0.11427
-0.128503
-0.130609
-0.131489
-0.132387
-0.125143
-0.125254
-0.112346
-0.111768
-0.0945496
-0.0933282
-0.0727973
-0.0709554
-0.0477947
-0.0453243
-0.0200358
-0.0169092
-0.0118517
0.0138202
0.018626
0.0462209
0.050659
0.0793106
0.0832279
0.111606
0.11481
0.140982
0.143253
0.164687
0.165822
0.179615
0.179419
0.181789
0.179784
0.164471
0.160213
0.133411
0.131807
-0.126328
-0.128173
-0.155422
-0.159344
-0.173131
-0.174397
-0.173097
-0.172368
-0.162568
-0.160665
-0.145265
-0.14244
-0.122989
-0.119346
-0.0968898
-0.0924702
-0.067625
-0.0623826
-0.0355296
-0.0293454
-0.0218951
0.00640728
0.0137323
0.044407
0.0514261
0.0838039
0.0903338
0.123183
0.128984
0.160313
0.165081
0.192053
0.19547
0.214618
0.216271
0.222919
0.221816
0.207751
0.2032
0.171182
0.16901
-0.141335
-0.142604
-0.166841
-0.170984
-0.183776
-0.185674
-0.182291
-0.182635
-0.170145
-0.169539
-0.151273
-0.149894
-0.127539
-0.125473
-0.100094
-0.097379
-0.0695512
-0.0661749
-0.0361883
-0.0320998
-0.026044
0.00467087
0.0105526
0.0437989
0.0494152
0.0845632
0.0897617
0.12562
0.130176
0.164754
0.168374
0.19876
0.201128
0.223618
0.22438
0.233686
0.232085
0.219302
0.214616
0.185808
0.184157
-0.196413
-0.19843
-0.227332
-0.231389
-0.241931
-0.242572
-0.234651
-0.2329
-0.215675
-0.212665
-0.19012
-0.186218
-0.160253
-0.155598
-0.127275
-0.121899
-0.0916484
-0.0854604
-0.0533682
-0.0461771
-0.0122659
-0.0038492
0.0050257
0.041538
0.0502211
0.0895804
0.0979013
0.139184
0.146891
0.188198
0.194934
0.233139
0.238479
0.269261
0.272599
0.289429
0.28935
0.280396
0.275755
0.241887
0.239536
-0.215778
-0.216949
-0.241756
-0.246075
-0.254855
-0.256136
-0.245352
-0.244652
-0.224136
-0.222348
-0.196576
-0.19399
-0.164977
-0.161726
-0.130499
-0.126634
-0.0935184
-0.0890057
-0.0539297
-0.0486773
-0.0415477
-0.00535292
0.00171322
0.0411272
0.0480926
0.090523
0.0972647
0.141881
0.148165
0.193144
0.198615
0.240845
0.245059
0.280042
0.282428
0.302969
0.302348
0.295734
0.290891
0.261811
0.260309
-0.292809
-0.294861
-0.323207
-0.326976
-0.329801
-0.329092
-0.309735
-0.306221
-0.277615
-0.27288
-0.240322
-0.234869
-0.200492
-0.194482
-0.159153
-0.152589
-0.116324
-0.109046
-0.0714267
-0.0631527
-0.0527586
-0.0140468
-0.00362001
0.0390022
0.0494331
0.0963241
0.106657
0.157506
0.167518
0.220891
0.230198
0.283047
0.291128
0.33848
0.344487
0.377669
0.379594
0.381739
0.377648
0.345372
0.343066
-0.318456
-0.319224
-0.341623
-0.345672
-0.345353
-0.345253
-0.32186
-0.319325
-0.28665
-0.283005
-0.246829
-0.242503
-0.204992
-0.200155
-0.162045
-0.156737
-0.117857
-0.111998
-0.0716961
-0.0651207
-0.0226173
-0.0151104
-0.00680033
0.0389292
0.0473716
0.0975226
0.106049
0.160461
0.168877
0.226286
0.234212
0.291717
0.298599
0.351186
0.356197
0.394567
0.395926
0.402187
0.397844
0.372947
0.37205
-0.429184
-0.43082
-0.452402
-0.454774
-0.440968
-0.437504
-0.398792
-0.392294
-0.346607
-0.339239
-0.293011
-0.285378
-0.240503
-0.232734
-0.189412
-0.181428
-0.138881
-0.130411
-0.087413
-0.0780497
-0.0663744
-0.0225481
-0.0107354
0.0378033
0.0498979
0.104395
0.116813
0.177956
0.19059
0.25797
0.270499
0.34187
0.353741
0.424195
0.434344
0.493318
0.498998
0.523371
0.521342
0.499251
0.497611
-0.464604
-0.464207
-0.476261
-0.478913
-0.459434
-0.456529
-0.412016
-0.406397
-0.355643
-0.349197
-0.298951
-0.292225
-0.244217
-0.237369
-0.191516
-0.184514
-0.139738
-0.132401
-0.0871737
-0.0792195
-0.0699175
-0.0230017
-0.0134674
0.0381462
0.0481124
0.105834
0.116318
0.181056
0.191982
0.26361
0.274673
0.351285
0.361904
0.438805
0.447925
0.514154
0.519251
0.550749
0.548435
0.538343
0.539071
-0.630378
-0.630355
-0.629239
-0.627519
-0.579791
-0.570944
-0.500385
-0.488984
-0.418491
-0.407238
-0.343137
-0.332571
-0.27534
-0.265414
-0.213683
-0.204123
-0.155703
-0.146052
-0.0985255
-0.0882004
-0.0756365
-0.027547
-0.0147258
0.0388419
0.0523001
0.113733
0.128102
0.199523
0.214936
0.297727
0.314102
0.408047
0.425001
0.526831
0.543257
0.642058
0.654537
0.72138
0.724785
0.732823
0.733391
-0.681826
-0.678447
-0.660508
-0.659062
-0.601255
-0.592939
-0.514073
-0.503476
-0.426682
-0.416215
-0.347703
-0.337867
-0.277617
-0.268403
-0.214521
-0.205709
-0.155573
-0.146794
-0.097617
-0.0884104
-0.0781919
-0.0273387
-0.0167243
0.0395492
0.0509496
0.115253
0.127732
0.202485
0.2162
0.303213
0.318098
0.41776
0.433419
0.543068
0.558419
0.667247
0.679102
0.758013
0.761103
0.789741
0.794318
-0.944396
-0.939278
-0.874985
-0.863025
-0.748778
-0.730115
-0.609455
-0.590586
-0.485854
-0.469307
-0.383255
-0.369106
-0.298598
-0.286348
-0.226921
-0.215892
-0.16307
-0.152497
-0.102245
-0.0913067
-0.0784577
-0.0278474
-0.0146169
0.0421856
0.0564508
0.123154
0.139039
0.219624
0.237659
0.336257
0.356873
0.477099
0.500452
0.643379
0.668773
0.827165
0.851315
0.99704
1.01303
1.09763
1.10437
-1.02568
-1.01469
-0.916139
-0.904503
-0.772235
-0.754076
-0.622052
-0.60387
-0.491773
-0.475866
-0.385348
-0.371767
-0.298696
-0.28698
-0.226055
-0.215577
-0.161749
-0.151822
-0.100652
-0.0905655
-0.0797489
-0.0271356
-0.0157618
0.0429458
0.0554937
0.12426
0.138553
0.221716
0.238287
0.340561
0.359847
0.485784
0.507943
0.659782
0.68417
0.855924
0.879427
1.04598
1.06154
1.18586
1.19956
-1.48224
-1.46201
-1.2223
-1.18489
-0.937916
-0.902259
-0.707542
-0.678837
-0.532079
-0.509612
-0.400492
-0.382984
-0.301189
-0.287267
-0.223242
-0.211531
-0.157602
-0.146887
-0.0971528
-0.0863441
-0.0739965
-0.0240295
-0.0112301
0.0455721
0.059732
0.128327
0.144771
0.23119
0.250987
0.362997
0.387418
0.534637
0.564905
0.756991
0.793889
1.03801
1.08171
1.37829
1.42352
1.7049
1.72851
-1.62865
-1.59709
-1.2751
-1.23824
-0.957084
-0.921691
-0.713285
-0.684709
-0.531736
-0.509393
-0.397604
-0.380239
-0.297664
-0.283905
-0.219943
-0.208451
-0.154837
-0.144459
-0.0949659
-0.0847036
-0.0738844
-0.0232041
-0.0116823
0.0456297
0.058686
0.127782
0.143257
0.230468
0.249413
0.363101
0.386788
0.53773
0.567414
0.767242
0.803721
1.06401
1.10727
1.44205
1.48659
1.85755
1.8941
-2.45217
-2.3944
-1.71551
-1.61016
-1.09609
-1.02908
-0.73694
-0.696948
-0.515074
-0.488172
-0.367647
-0.348779
-0.266678
-0.253054
-0.193515
-0.182874
-0.135102
-0.125778
-0.082593
-0.0733205
-0.0628459
-0.0190719
-0.00803989
0.0428106
0.0554075
0.118783
0.13408
0.217344
0.236906
0.351171
0.377293
0.539446
0.575125
0.809961
0.860222
1.2169
1.29557
1.88359
2.00208
2.74676
2.80938
-2.69856
-2.6202
-1.77262
-1.66822
-1.09755
-1.03099
-0.726274
-0.686155
-0.50294
-0.475879
-0.356866
-0.337899
-0.258112
-0.24441
-0.187199
-0.176516
-0.130792
-0.121514
-0.0800241
-0.0709628
-0.0613959
-0.0185248
-0.00813592
0.0415353
0.0536487
0.115577
0.13049
0.212081
0.231329
0.343946
0.36982
0.531208
0.566758
0.80428
0.854469
1.22653
1.30462
1.95314
2.07064
2.98856
3.07344
-3.53748
-3.43406
-2.33204
-2.05564
-1.18192
-1.04788
-0.666583
-0.607173
-0.423508
-0.389698
-0.285836
-0.264163
-0.201351
-0.18698
-0.145187
-0.134919
-0.102376
-0.0941571
-0.0640053
-0.056486
-0.0493068
-0.0162597
-0.00745867
0.0314659
0.04278
0.092293
0.107264
0.174302
0.194807
0.29135
0.320719
0.468541
0.512545
0.754988
0.82798
1.2857
1.43578
2.39872
2.69197
3.86811
3.97651
-3.61767
-3.49196
-2.39074
-2.091
-1.19483
-1.05099
-0.663893
-0.600803
-0.418292
-0.382836
-0.280971
-0.258524
-0.197442
-0.182686
-0.142378
-0.131842
-0.100636
-0.092129
-0.0632619
-0.0553763
-0.0477713
-0.0160099
-0.00672818
0.030834
0.0427049
0.0906803
0.106344
0.171562
0.193026
0.287379
0.318245
0.463552
0.510127
0.750939
0.828845
1.29203
1.45345
2.43845
2.75669
3.92931
4.06114
)
;

boundaryField
{
    movingWall
    {
        type            zeroGradient;
    }
    fixedWalls
    {
        type            zeroGradient;
    }
    frontAndBack
    {
        type            empty;
    }
}


// ************************************************************************* //
