/*--------------------------------*- C++ -*----------------------------------*\
  =========                 |
  \\      /  F ield         | OpenFOAM: The Open Source CFD Toolbox
   \\    /   O peration     | Website:  https://openfoam.org
    \\  /    A nd           | Version:  9
     \\/     M anipulation  |
\*---------------------------------------------------------------------------*/
FoamFile
{
    format      ascii;
    class       volVectorField;
    location    "0.5";
    object      U;
}
// * * * * * * * * * * * * * * * * * * * * * * * * * * * * * * * * * * * * * //

dimensions      [0 1 -1 0 0 0 0];

internalField   nonuniform List<vector> 
1681
(
(0.00017342 -0.000170496 0)
(0.000172482 -0.000146591 0)
(-0.000264361 0.000305536 0)
(-0.000350709 0.000361007 0)
(-0.00181696 0.000934219 0)
(-0.00204287 0.000968161 0)
(-0.00447668 0.00142635 0)
(-0.00477168 0.00140897 0)
(-0.0078468 0.00169326 0)
(-0.00812124 0.00162444 0)
(-0.0114892 0.00173798 0)
(-0.0116595 0.0016297 0)
(-0.0149951 0.00158926 0)
(-0.014996 0.00145919 0)
(-0.0180156 0.00128429 0)
(-0.0178069 0.00115169 0)
(-0.0202756 0.000862527 0)
(-0.0198434 0.000744823 0)
(-0.0215787 0.000364122 0)
(-0.0209327 0.000274499 0)
(-0.021783 0.000223975 0)
(-0.0209786 -0.000223366 0)
(-0.0216412 -0.000312205 0)
(-0.0199646 -0.000710635 0)
(-0.0204065 -0.000830387 0)
(-0.0179599 -0.00114527 0)
(-0.0181688 -0.00128182 0)
(-0.0151266 -0.00148096 0)
(-0.0151173 -0.00161516 0)
(-0.0117235 -0.0016689 0)
(-0.0115405 -0.00177965 0)
(-0.00810292 -0.00166274 0)
(-0.00781712 -0.00173126 0)
(-0.00469132 -0.00142806 0)
(-0.0043912 -0.0014428 0)
(-0.0019474 -0.000959757 0)
(-0.00172386 -0.000922948 0)
(-0.00028534 -0.000335155 0)
(-0.00020496 -0.000279292 0)
(0.000200454 0.000168179 0)
(0.000198937 0.000192415 0)
(0.000152369 -0.000172419 0)
(0.000153813 -0.000150894 0)
(-0.000354902 0.000399158 0)
(-0.000429447 0.00044717 0)
(-0.00208661 0.00112293 0)
(-0.00227872 0.00114517 0)
(-0.00498298 0.00167958 0)
(-0.00521953 0.00164698 0)
(-0.00861623 0.00197596 0)
(-0.0088068 0.00188937 0)
(-0.0125194 0.00201637 0)
(-0.0125825 0.00188986 0)
(-0.0162562 0.00183435 0)
(-0.0161331 0.00168841 0)
(-0.019455 0.00147366 0)
(-0.0191176 0.00133018 0)
(-0.0218245 0.000980959 0)
(-0.021276 0.000858879 0)
(-0.0231595 0.000403756 0)
(-0.0224291 0.000315757 0)
(-0.0233134 0.000269953 0)
(-0.0224772 -0.000258436 0)
(-0.0232234 -0.000345268 0)
(-0.0214033 -0.000820672 0)
(-0.0219612 -0.00094432 0)
(-0.0192784 -0.00132332 0)
(-0.0196165 -0.00147045 0)
(-0.0162703 -0.00171343 0)
(-0.0163861 -0.00186352 0)
(-0.0126495 -0.00193464 0)
(-0.0125749 -0.00206392 0)
(-0.00878701 -0.00193309 0)
(-0.00858594 -0.00201981 0)
(-0.00513413 -0.00166876 0)
(-0.0048927 -0.0016991 0)
(-0.0021774 -0.0011354 0)
(-0.0019873 -0.00111048 0)
(-0.000360493 -0.000417147 0)
(-0.000291323 -0.000368683 0)
(0.000182038 0.000175259 0)
(0.00017847 0.000197412 0)
(-0.000278805 0.000244325 0)
(-0.000371859 0.00033865 0)
(-0.00168086 0.00168878 0)
(-0.00202694 0.00193023 0)
(-0.00523591 0.00354769 0)
(-0.00587964 0.00376068 0)
(-0.0106081 0.00498234 0)
(-0.0114784 0.00509986 0)
(-0.0170969 0.00575545 0)
(-0.0181049 0.00576303 0)
(-0.0239727 0.00585224 0)
(-0.0250205 0.00575562 0)
(-0.0305408 0.00534084 0)
(-0.031524 0.00515609 0)
(-0.0361914 0.00432523 0)
(-0.0370044 0.00407412 0)
(-0.0404335 0.00292475 0)
(-0.0409759 0.00263185 0)
(-0.0429112 0.00126642 0)
(-0.0430943 0.000957678 0)
(-0.0433665 0.000663282 0)
(-0.0431691 -0.000813158 0)
(-0.0430098 -0.00112783 0)
(-0.041174 -0.0025366 0)
(-0.0406432 -0.00284173 0)
(-0.0372564 -0.00405938 0)
(-0.03644 -0.00432409 0)
(-0.0317423 -0.00522274 0)
(-0.0307438 -0.00541727 0)
(-0.0251332 -0.00587246 0)
(-0.0240651 -0.00597142 0)
(-0.0180841 -0.00587747 0)
(-0.0170593 -0.00586422 0)
(-0.0113533 -0.00515994 0)
(-0.0104759 -0.0050318 0)
(-0.0057235 -0.00374224 0)
(-0.005084 -0.00351988 0)
(-0.0019149 -0.00185897 0)
(-0.00157888 -0.00161628 0)
(-0.00032242 -0.000274326 0)
(-0.000234584 -0.000181515 0)
(-0.000331044 0.000323353 0)
(-0.000416862 0.000406383 0)
(-0.00192458 0.00203614 0)
(-0.00226117 0.00226867 0)
(-0.00585036 0.00415672 0)
(-0.0064833 0.00435427 0)
(-0.0116904 0.00577315 0)
(-0.0125591 0.00586657 0)
(-0.0186879 0.00662947 0)
(-0.0197171 0.00660519 0)
(-0.026063 0.00671197 0)
(-0.0271705 0.00657943 0)
(-0.0330739 0.00610114 0)
(-0.0341698 0.00588165 0)
(-0.0390715 0.00491938 0)
(-0.0400623 0.00463948 0)
(-0.0435373 0.00330702 0)
(-0.0443293 0.00299315 0)
(-0.0461002 0.00141288 0)
(-0.0466043 0.00108789 0)
(-0.0464974 0.000771886 0)
(-0.0466845 -0.000925294 0)
(-0.0462047 -0.00125748 0)
(-0.0445416 -0.00288619 0)
(-0.0437599 -0.00321319 0)
(-0.0403325 -0.00462351 0)
(-0.0393366 -0.00491745 0)
(-0.0344046 -0.00595781 0)
(-0.0332921 -0.00618719 0)
(-0.0272928 -0.00671252 0)
(-0.0261648 -0.00684736 0)
(-0.0196967 -0.00673561 0)
(-0.0186512 -0.00675416 0)
(-0.0124265 -0.00593508 0)
(-0.0115517 -0.00583107 0)
(-0.00631668 -0.00433295 0)
(-0.00568867 -0.00412617 0)
(-0.00214148 -0.00218623 0)
(-0.00181508 -0.00195262 0)
(-0.000365206 -0.000332945 0)
(-0.000284248 -0.000250518 0)
(-0.000928502 0.00177616 0)
(-0.00112399 0.00205129 0)
(-0.00368629 0.00525717 0)
(-0.00431885 0.00585703 0)
(-0.00981757 0.00944862 0)
(-0.0108664 0.00995711 0)
(-0.0184637 0.0125727 0)
(-0.0197958 0.0128801 0)
(-0.0285341 0.0142035 0)
(-0.0300161 0.0142753 0)
(-0.0389932 0.0142944 0)
(-0.0404902 0.014132 0)
(-0.0488665 0.0129787 0)
(-0.0502379 0.0126047 0)
(-0.0572925 0.0104823 0)
(-0.0584004 0.00993315 0)
(-0.0635748 0.00707783 0)
(-0.0642922 0.00639997 0)
(-0.0672096 0.00306436 0)
(-0.0674282 0.00231232 0)
(-0.0678278 0.00155477 0)
(-0.0675404 -0.0020022 0)
(-0.0673565 -0.00276758 0)
(-0.0645927 -0.00619542 0)
(-0.0638952 -0.00689977 0)
(-0.0587928 -0.00990171 0)
(-0.0576855 -0.01048 0)
(-0.0505986 -0.0127499 0)
(-0.0492108 -0.0131448 0)
(-0.0407118 -0.014389 0)
(-0.0391894 -0.0145564 0)
(-0.0300482 -0.0145326 0)
(-0.0285425 -0.0144486 0)
(-0.0196661 -0.013025 0)
(-0.0183215 -0.0126944 0)
(-0.0106698 -0.00993237 0)
(-0.00962349 -0.00940235 0)
(-0.00416456 -0.00570898 0)
(-0.00354422 -0.00510439 0)
(-0.00105157 -0.00190505 0)
(-0.000862918 -0.00163282 0)
(-0.0009652 0.00199895 0)
(-0.00114819 0.00223984 0)
(-0.00393672 0.00592777 0)
(-0.00455087 0.0065174 0)
(-0.0104401 0.0104968 0)
(-0.0114759 0.0109966 0)
(-0.0195162 0.0138701 0)
(-0.0208587 0.0141689 0)
(-0.0300234 0.0156053 0)
(-0.0315588 0.0156672 0)
(-0.0408921 0.0156597 0)
(-0.0425048 0.0154846 0)
(-0.0511191 0.0141844 0)
(-0.0526817 0.0137938 0)
(-0.0598201 0.0114316 0)
(-0.061199 0.0108598 0)
(-0.0662844 0.0077046 0)
(-0.0673457 0.00699235 0)
(-0.0700013 0.0033337 0)
(-0.0706178 0.00252546 0)
(-0.0706008 0.00167247 0)
(-0.0707366 -0.00218687 0)
(-0.0701572 -0.0030124 0)
(-0.0676642 -0.0067692 0)
(-0.0666229 -0.00751102 0)
(-0.0616161 -0.0108261 0)
(-0.0602371 -0.0114282 0)
(-0.0530676 -0.0139535 0)
(-0.0514884 -0.0143642 0)
(-0.0427463 -0.015767 0)
(-0.0411094 -0.0159454 0)
(-0.0316016 -0.0159503 0)
(-0.0300447 -0.0158748 0)
(-0.0207299 -0.0143288 0)
(-0.0193774 -0.0140065 0)
(-0.0112739 -0.0109697 0)
(-0.0102423 -0.0104491 0)
(-0.00439096 -0.00635312 0)
(-0.0037894 -0.00575974 0)
(-0.00107476 -0.00207967 0)
(-0.000898157 -0.00184028 0)
(-0.00156444 0.0045964 0)
(-0.00185374 0.00512843 0)
(-0.00567376 0.0110244 0)
(-0.00657835 0.0121084 0)
(-0.0143259 0.0183475 0)
(-0.0157553 0.0192086 0)
(-0.0260643 0.0235757 0)
(-0.0278151 0.0240791 0)
(-0.0393829 0.026164 0)
(-0.0412771 0.0262639 0)
(-0.0529779 0.0260708 0)
(-0.0548501 0.0257714 0)
(-0.0656651 0.0235295 0)
(-0.067349 0.0228677 0)
(-0.0764091 0.0189291 0)
(-0.0777461 0.0179647 0)
(-0.0843791 0.0127432 0)
(-0.0852265 0.0115529 0)
(-0.0889764 0.00549549 0)
(-0.0892144 0.00417013 0)
(-0.0897326 0.00282656 0)
(-0.0893903 -0.00360841 0)
(-0.0892074 -0.00495473 0)
(-0.0857056 -0.0111729 0)
(-0.0848949 -0.0124069 0)
(-0.0783977 -0.0178854 0)
(-0.0770714 -0.0188994 0)
(-0.0679993 -0.0231017 0)
(-0.0663012 -0.0238009 0)
(-0.0553376 -0.0262148 0)
(-0.0534346 -0.0265262 0)
(-0.0415064 -0.0267299 0)
(-0.0395781 -0.0266127 0)
(-0.0277923 -0.02437 0)
(-0.026018 -0.0238288 0)
(-0.0155859 -0.0192111 0)
(-0.0141516 -0.0183118 0)
(-0.00640968 -0.0118806 0)
(-0.00551562 -0.0107846 0)
(-0.00176499 -0.00487683 0)
(-0.00148308 -0.00434794 0)
(-0.00155632 0.00491774 0)
(-0.00182684 0.00538598 0)
(-0.00588652 0.0120147 0)
(-0.00675901 0.0130977 0)
(-0.0149064 0.0198068 0)
(-0.016319 0.0206852 0)
(-0.0270537 0.0253222 0)
(-0.0288313 0.0258595 0)
(-0.0407708 0.0280155 0)
(-0.0427613 0.0281582 0)
(-0.0547272 0.0278582 0)
(-0.0567881 0.0275984 0)
(-0.0677198 0.025109 0)
(-0.0696968 0.0244688 0)
(-0.0787026 0.0201891 0)
(-0.0804325 0.0192117 0)
(-0.08684 0.0136077 0)
(-0.0881579 0.0123511 0)
(-0.0915331 0.00592404 0)
(-0.0922796 0.00445951 0)
(-0.0923153 0.00288046 0)
(-0.0924671 -0.00385326 0)
(-0.0917818 -0.00534637 0)
(-0.0886696 -0.0119408 0)
(-0.0873906 -0.0132473 0)
(-0.0811309 -0.0191257 0)
(-0.0794121 -0.0201548 0)
(-0.0703986 -0.0247211 0)
(-0.0684081 -0.0253965 0)
(-0.0573219 -0.0280777 0)
(-0.0552326 -0.028345 0)
(-0.0430238 -0.0286633 0)
(-0.0410036 -0.0284996 0)
(-0.0288252 -0.0261769 0)
(-0.027029 -0.0256007 0)
(-0.0161525 -0.0206909 0)
(-0.0147385 -0.0197758 0)
(-0.00658715 -0.012851 0)
(-0.00572628 -0.0117586 0)
(-0.00173821 -0.0051168 0)
(-0.00147457 -0.00465 0)
(-0.00214658 0.00861139 0)
(-0.00252237 0.00946947 0)
(-0.0075526 0.0188549 0)
(-0.00871187 0.0205353 0)
(-0.0186566 0.0300154 0)
(-0.020444 0.0312718 0)
(-0.0333837 0.0376349 0)
(-0.0355223 0.0383261 0)
(-0.0497824 0.0411633 0)
(-0.0520482 0.0412469 0)
(-0.066283 0.0406422 0)
(-0.068482 0.0401371 0)
(-0.0815218 0.036462 0)
(-0.0834679 0.035429 0)
(-0.0943361 0.0292186 0)
(-0.0958575 0.0277482 0)
(-0.103808 0.0196226 0)
(-0.104753 0.0178275 0)
(-0.10928 0.00845281 0)
(-0.109525 0.00646459 0)
(-0.110363 -0.00346001 0)
(-0.109816 -0.00549097 0)
(-0.109664 -0.00750785 0)
(-0.10556 -0.01714 0)
(-0.104683 -0.0190005 0)
(-0.0969955 -0.0275407 0)
(-0.0955063 -0.0290892 0)
(-0.0846834 -0.0357368 0)
(-0.082731 -0.0368334 0)
(-0.0695211 -0.0408172 0)
(-0.0672857 -0.0413498 0)
(-0.052732 -0.0420195 0)
(-0.050416 -0.0419186 0)
(-0.0358035 -0.0388761 0)
(-0.0336208 -0.0381322 0)
(-0.0204225 -0.0313918 0)
(-0.0186127 -0.0300751 0)
(-0.00858051 -0.0202686 0)
(-0.00742297 -0.0185619 0)
(-0.00243136 -0.00911114 0)
(-0.00206119 -0.00825346 0)
(-0.00208566 0.00897294 0)
(-0.00243484 0.00973005 0)
(-0.00772238 0.0201713 0)
(-0.00883312 0.0218775 0)
(-0.0191914 0.0318894 0)
(-0.020959 0.0332164 0)
(-0.0343131 0.0398267 0)
(-0.0365015 0.0406283 0)
(-0.0510859 0.0434534 0)
(-0.053504 0.0436688 0)
(-0.0679172 0.0428395 0)
(-0.0703988 0.0424583 0)
(-0.0834325 0.0384103 0)
(-0.0858014 0.0374578 0)
(-0.0964669 0.0308001 0)
(-0.0985376 0.0293287 0)
(-0.106106 0.020758 0)
(-0.107688 0.0188428 0)
(-0.111697 0.00909911 0)
(-0.112603 0.00683884 0)
(-0.112858 -0.00331288 0)
(-0.112916 -0.00579103 0)
(-0.112115 -0.00809382 0)
(-0.108554 -0.018102 0)
(-0.107045 -0.0200945 0)
(-0.099762 -0.0291033 0)
(-0.0977232 -0.0306571 0)
(-0.0871152 -0.0377865 0)
(-0.084739 -0.0387987 0)
(-0.0715314 -0.0431889 0)
(-0.0690148 -0.043589 0)
(-0.0542617 -0.0445024 0)
(-0.0517982 -0.044262 0)
(-0.0368286 -0.0412269 0)
(-0.034603 -0.0403697 0)
(-0.0209561 -0.0333544 0)
(-0.0191719 -0.0319699 0)
(-0.00870327 -0.0215947 0)
(-0.00759668 -0.0198673 0)
(-0.00234496 -0.00935155 0)
(-0.00200106 -0.00859337 0)
(-0.00269971 0.0137499 0)
(-0.00315721 0.0149994 0)
(-0.00937224 0.0286809 0)
(-0.0107724 0.0310628 0)
(-0.0228906 0.0443786 0)
(-0.0250163 0.046068 0)
(-0.0405491 0.0546459 0)
(-0.0430488 0.0555112 0)
(-0.0599278 0.0590504 0)
(-0.0625306 0.0590696 0)
(-0.0791869 0.05782 0)
(-0.0816723 0.0570411 0)
(-0.0968036 0.0515797 0)
(-0.0989705 0.0500985 0)
(-0.111523 0.0411851 0)
(-0.113193 0.0391309 0)
(-0.122378 0.0276171 0)
(-0.123398 0.0251431 0)
(-0.128685 0.0119283 0)
(-0.128928 0.00920843 0)
(-0.12971 0.00647727 0)
(-0.129407 -0.00754106 0)
(-0.129317 -0.0102968 0)
(-0.12474 -0.0239097 0)
(-0.123842 -0.0264772 0)
(-0.115137 -0.0386381 0)
(-0.113537 -0.0408108 0)
(-0.101144 -0.050429 0)
(-0.0989883 -0.0520152 0)
(-0.0836786 -0.0580176 0)
(-0.0811528 -0.0588544 0)
(-0.0640524 -0.060299 0)
(-0.0613772 -0.060273 0)
(-0.0439373 -0.056516 0)
(-0.041361 -0.0555859 0)
(-0.0253369 -0.046486 0)
(-0.0231568 -0.0447087 0)
(-0.0107672 -0.0308695 0)
(-0.00934869 -0.0284361 0)
(-0.00309096 -0.0145711 0)
(-0.00263334 -0.0133134 0)
(-0.00258337 0.014096 0)
(-0.00300566 0.0151998 0)
(-0.00950299 0.0303419 0)
(-0.0108386 0.032803 0)
(-0.0233891 0.0466899 0)
(-0.0254969 0.0485418 0)
(-0.0414321 0.0573052 0)
(-0.0440162 0.0584047 0)
(-0.0611646 0.0617999 0)
(-0.0639949 0.0620897 0)
(-0.0807291 0.0604486 0)
(-0.083618 0.0599234 0)
(-0.0985989 0.0539237 0)
(-0.101353 0.0526152 0)
(-0.113525 0.0431262 0)
(-0.115944 0.0410955 0)
(-0.124552 0.0290774 0)
(-0.126426 0.0264132 0)
(-0.131007 0.0128647 0)
(-0.132121 0.00968885 0)
(-0.132173 0.00619215 0)
(-0.132635 -0.00789444 0)
(-0.131699 -0.0111331 0)
(-0.127868 -0.0250845 0)
(-0.126122 -0.0278662 0)
(-0.118035 -0.0405616 0)
(-0.115681 -0.0427215 0)
(-0.103697 -0.052966 0)
(-0.100944 -0.0543748 0)
(-0.0857909 -0.0609713 0)
(-0.0828552 -0.0615398 0)
(-0.0656551 -0.063416 0)
(-0.0627528 -0.0631042 0)
(-0.0449983 -0.0594982 0)
(-0.0423439 -0.0583263 0)
(-0.0258629 -0.04901 0)
(-0.0237084 -0.0470724 0)
(-0.010843 -0.0326075 0)
(-0.00949356 -0.0301027 0)
(-0.00294078 -0.0147505 0)
(-0.00251863 -0.0136383 0)
(-0.00325576 0.0199867 0)
(-0.00379294 0.0216883 0)
(-0.0112058 0.0404909 0)
(-0.0128382 0.0436684 0)
(-0.0271458 0.0614189 0)
(-0.0295923 0.0635698 0)
(-0.0477054 0.07456 0)
(-0.0505383 0.0755777 0)
(-0.069972 0.0797318 0)
(-0.0728743 0.0796332 0)
(-0.0918377 0.077473 0)
(-0.0945663 0.076352 0)
(-0.111647 0.0687391 0)
(-0.113992 0.0667395 0)
(-0.128093 0.0547084 0)
(-0.129876 0.0520056 0)
(-0.140205 0.0366633 0)
(-0.141277 0.0334541 0)
(-0.147307 0.0159376 0)
(-0.147547 0.0124378 0)
(-0.148471 0.00895259 0)
(-0.148298 -0.0096393 0)
(-0.148297 -0.01318 0)
(-0.143403 -0.031298 0)
(-0.14253 -0.0346362 0)
(-0.133013 -0.050965 0)
(-0.131358 -0.0538428 0)
(-0.117608 -0.0669843 0)
(-0.115306 -0.0691521 0)
(-0.0980674 -0.0776856 0)
(-0.0952998 -0.0789179 0)
(-0.0757384 -0.0815297 0)
(-0.0727368 -0.0816503 0)
(-0.0524486 -0.0773396 0)
(-0.0494928 -0.0762532 0)
(-0.0305316 -0.0645927 0)
(-0.0279806 -0.0623212 0)
(-0.0130922 -0.0437679 0)
(-0.011406 -0.0404973 0)
(-0.00379484 -0.0212885 0)
(-0.003246 -0.0195605 0)
(-0.00308362 0.0202718 0)
(-0.00357744 0.0217783 0)
(-0.011304 0.0425213 0)
(-0.0128603 0.04587 0)
(-0.02762 0.0641956 0)
(-0.0300621 0.0666512 0)
(-0.0485551 0.0777131 0)
(-0.0515264 0.0791462 0)
(-0.0711524 0.082964 0)
(-0.074384 0.0833334 0)
(-0.0932929 0.0805564 0)
(-0.0965793 0.0798719 0)
(-0.113326 0.071508 0)
(-0.116465 0.0698133 0)
(-0.129961 0.05705 0)
(-0.132743 0.0544148 0)
(-0.142246 0.0385062 0)
(-0.144451 0.035027 0)
(-0.149522 0.0172414 0)
(-0.150913 0.0130536 0)
(-0.150903 0.00838968 0)
(-0.15172 -0.0100399 0)
(-0.150611 -0.0143237 0)
(-0.146732 -0.0327036 0)
(-0.144731 -0.0363618 0)
(-0.136111 -0.0532901 0)
(-0.133436 -0.0561267 0)
(-0.120352 -0.070071 0)
(-0.117225 -0.071932 0)
(-0.100352 -0.0813044 0)
(-0.0969991 -0.0820778 0)
(-0.0774805 -0.0853814 0)
(-0.0741354 -0.0850062 0)
(-0.0536017 -0.0810634 0)
(-0.0505072 -0.0795432 0)
(-0.0310883 -0.0677836 0)
(-0.0285492 -0.0652053 0)
(-0.0131367 -0.0460017 0)
(-0.0115337 -0.0425695 0)
(-0.00357921 -0.0213599 0)
(-0.00307522 -0.0198295 0)
(-0.00384503 0.0273427 0)
(-0.00446232 0.0295515 0)
(-0.0131251 0.0543216 0)
(-0.0149851 0.0583755 0)
(-0.0315324 0.0811406 0)
(-0.034282 0.0837671 0)
(-0.0549599 0.0973131 0)
(-0.0580922 0.0984486 0)
(-0.0799712 0.103066 0)
(-0.0831251 0.102789 0)
(-0.104204 0.0994029 0)
(-0.107121 0.0978719 0)
(-0.125916 0.0877255 0)
(-0.128388 0.0851463 0)
(-0.14381 0.0696062 0)
(-0.145669 0.0662072 0)
(-0.15697 0.0466563 0)
(-0.15808 0.0426786 0)
(-0.164778 0.0204841 0)
(-0.165027 0.0161807 0)
(-0.166074 0.0119365 0)
(-0.166137 -0.0116421 0)
(-0.166235 -0.0159865 0)
(-0.161242 -0.039065 0)
(-0.160431 -0.0432139 0)
(-0.150402 -0.064228 0)
(-0.148753 -0.0678764 0)
(-0.133972 -0.0851157 0)
(-0.131593 -0.0879534 0)
(-0.112714 -0.099605 0)
(-0.109769 -0.101332 0)
(-0.0879267 -0.105617 0)
(-0.0846457 -0.105974 0)
(-0.0615362 -0.10139 0)
(-0.0582223 -0.100198 0)
(-0.0361979 -0.0858588 0)
(-0.0332731 -0.083077 0)
(-0.0156789 -0.0591314 0)
(-0.0137107 -0.0549216 0)
(-0.00459424 -0.0293676 0)
(-0.0039462 -0.0270994 0)
(-0.00361889 0.0275385 0)
(-0.00418673 0.0295054 0)
(-0.0131988 0.0567517 0)
(-0.0149813 0.0611228 0)
(-0.0319943 0.0844135 0)
(-0.0347733 0.0875492 0)
(-0.0557848 0.100985 0)
(-0.0591379 0.102782 0)
(-0.0810923 0.106799 0)
(-0.0847115 0.107249 0)
(-0.105554 0.102956 0)
(-0.109221 0.102098 0)
(-0.127443 0.090939 0)
(-0.130955 0.0888386 0)
(-0.145491 0.0723804 0)
(-0.148647 0.0691179 0)
(-0.158812 0.0489329 0)
(-0.161395 0.0446048 0)
(-0.166812 0.0222295 0)
(-0.16857 0.0169682 0)
(-0.168415 0.0110241 0)
(-0.169759 -0.0120761 0)
(-0.168419 -0.0174896 0)
(-0.164783 -0.0407091 0)
(-0.162499 -0.0453102 0)
(-0.153719 -0.0669812 0)
(-0.150722 -0.0705541 0)
(-0.136942 -0.0887993 0)
(-0.13345 -0.0911686 0)
(-0.115222 -0.103962 0)
(-0.111459 -0.104986 0)
(-0.0898727 -0.110305 0)
(-0.0860802 -0.109887 0)
(-0.062847 -0.105981 0)
(-0.0592933 -0.104088 0)
(-0.0368362 -0.0898506 0)
(-0.0338842 -0.0865444 0)
(-0.0157166 -0.0619783 0)
(-0.0138349 -0.057458 0)
(-0.00431443 -0.0293108 0)
(-0.00371924 -0.0272919 0)
(-0.00449831 0.0358811 0)
(-0.00519829 0.0386466 0)
(-0.0152009 0.070255 0)
(-0.0172864 0.0752494 0)
(-0.0361433 0.103553 0)
(-0.0391748 0.106648 0)
(-0.0623596 0.122787 0)
(-0.0657449 0.123987 0)
(-0.0898498 0.128805 0)
(-0.0931894 0.128277 0)
(-0.116033 0.12327 0)
(-0.119066 0.121263 0)
(-0.139156 0.108176 0)
(-0.141691 0.10497 0)
(-0.158025 0.0855646 0)
(-0.159919 0.0814462 0)
(-0.171867 0.0573962 0)
(-0.173009 0.0526473 0)
(-0.180187 0.025527 0)
(-0.180481 0.020429 0)
(-0.181588 0.0154536 0)
(-0.182015 -0.0133832 0)
(-0.182192 -0.0185136 0)
(-0.177408 -0.046888 0)
(-0.176681 -0.0518537 0)
(-0.16659 -0.0779989 0)
(-0.165003 -0.0824578 0)
(-0.149717 -0.104368 0)
(-0.147343 -0.107952 0)
(-0.127326 -0.123389 0)
(-0.124291 -0.125715 0)
(-0.100547 -0.132332 0)
(-0.0970575 -0.133034 0)
(-0.0712917 -0.128646 0)
(-0.0676578 -0.12743 0)
(-0.0424897 -0.11045 0)
(-0.039193 -0.107169 0)
(-0.0186454 -0.0772022 0)
(-0.0163762 -0.0719638 0)
(-0.00554165 -0.038982 0)
(-0.00478282 -0.0361045 0)
(-0.00422309 0.0359852 0)
(-0.00487168 0.0384764 0)
(-0.0152606 0.0731177 0)
(-0.0172848 0.0786485 0)
(-0.0366049 0.107353 0)
(-0.0397299 0.111235 0)
(-0.063161 0.126992 0)
(-0.0668883 0.129168 0)
(-0.0908907 0.133038 0)
(-0.0948711 0.133553 0)
(-0.117226 0.127286 0)
(-0.121235 0.126229 0)
(-0.140449 0.111829 0)
(-0.144297 0.109305 0)
(-0.159408 0.0887802 0)
(-0.16292 0.0848858 0)
(-0.173374 0.0601376 0)
(-0.176364 0.0549655 0)
(-0.181888 0.027774 0)
(-0.184113 0.0214289 0)
(-0.183693 0.0141253 0)
(-0.185755 -0.0138244 0)
(-0.184104 -0.0204162 0)
(-0.18107 -0.0487516 0)
(-0.178483 -0.0543364 0)
(-0.17005 -0.0811639 0)
(-0.166751 -0.0855269 0)
(-0.152873 -0.108647 0)
(-0.149051 -0.111592 0)
(-0.130066 -0.128515 0)
(-0.125921 -0.129858 0)
(-0.102745 -0.137933 0)
(-0.0985129 -0.137519 0)
(-0.0728296 -0.134229 0)
(-0.0687983 -0.131963 0)
(-0.0432744 -0.1154 0)
(-0.0398706 -0.111289 0)
(-0.0187135 -0.0808177 0)
(-0.0165138 -0.0750364 0)
(-0.00520408 -0.0388191 0)
(-0.00450237 -0.0362304 0)
(-0.00525524 0.0457099 0)
(-0.00604293 0.0490744 0)
(-0.0175152 0.0884103 0)
(-0.0198256 0.0943877 0)
(-0.041062 0.12864 0)
(-0.0443452 0.132167 0)
(-0.0698808 0.150746 0)
(-0.0734525 0.15193 0)
(-0.0993654 0.156503 0)
(-0.102799 0.15564 0)
(-0.12679 0.148497 0)
(-0.129844 0.145952 0)
(-0.150519 0.129482 0)
(-0.153041 0.125626 0)
(-0.169596 0.102053 0)
(-0.171489 0.0972291 0)
(-0.183511 0.068522 0)
(-0.184703 0.0630435 0)
(-0.191989 0.0309401 0)
(-0.192406 0.0251017 0)
(-0.193432 0.0194623 0)
(-0.194382 -0.0146825 0)
(-0.194553 -0.0205331 0)
(-0.190404 -0.0543397 0)
(-0.189743 -0.0600781 0)
(-0.180246 -0.0916593 0)
(-0.178764 -0.0969255 0)
(-0.163779 -0.124032 0)
(-0.161499 -0.128412 0)
(-0.141181 -0.148373 0)
(-0.138168 -0.151399 0)
(-0.113233 -0.161196 0)
(-0.109639 -0.162375 0)
(-0.081647 -0.158924 0)
(-0.0777602 -0.157802 0)
(-0.0495073 -0.138489 0)
(-0.0458546 -0.13476 0)
(-0.0221098 -0.0982753 0)
(-0.0195196 -0.0919393 0)
(-0.00669797 -0.0503729 0)
(-0.00581362 -0.0468196 0)
(-0.00494102 0.0457563 0)
(-0.00568201 0.0488448 0)
(-0.0175777 0.0917387 0)
(-0.0198694 0.0985671 0)
(-0.0415379 0.132988 0)
(-0.0450212 0.137662 0)
(-0.0706522 0.155478 0)
(-0.074734 0.158011 0)
(-0.100282 0.161202 0)
(-0.104568 0.161728 0)
(-0.127736 0.152925 0)
(-0.132005 0.151614 0)
(-0.151438 0.133527 0)
(-0.155528 0.130538 0)
(-0.170498 0.105676 0)
(-0.17428 0.101143 0)
(-0.184464 0.0717219 0)
(-0.18782 0.0657383 0)
(-0.193107 0.0337191 0)
(-0.195877 0.0263479 0)
(-0.195049 0.0176617 0)
(-0.197989 -0.0150852 0)
(-0.195945 -0.0228545 0)
(-0.193897 -0.0563399 0)
(-0.191044 -0.0629322 0)
(-0.183598 -0.0951258 0)
(-0.180082 -0.100344 0)
(-0.166948 -0.1288 0)
(-0.162892 -0.13242 0)
(-0.144069 -0.154202 0)
(-0.139623 -0.155979 0)
(-0.115684 -0.167716 0)
(-0.111057 -0.167407 0)
(-0.0834734 -0.165591 0)
(-0.0789622 -0.162999 0)
(-0.0505178 -0.144565 0)
(-0.0466203 -0.139598 0)
(-0.0222642 -0.102855 0)
(-0.019694 -0.09563 0)
(-0.00631822 -0.0501876 0)
(-0.00548817 -0.0469324 0)
(-0.00549801 0.049666 0)
(-0.00625332 0.0527394 0)
(-0.0184397 0.0960261 0)
(-0.020743 0.102279 0)
(-0.0463784 0.15631 0)
(-0.0498676 0.160187 0)
(-0.0774143 0.180746 0)
(-0.0810756 0.1818 0)
(-0.102488 0.166003 0)
(-0.10637 0.166845 0)
(-0.129977 0.156667 0)
(-0.138534 0.171015 0)
(-0.153541 0.136 0)
(-0.156758 0.133971 0)
(-0.172359 0.106806 0)
(-0.178652 0.11277 0)
(-0.189831 0.0794398 0)
(-0.191135 0.0733357 0)
(-0.197887 0.0364631 0)
(-0.195715 0.0270871 0)
(-0.195725 0.0210244 0)
(-0.197858 -0.0150329 0)
(-0.197064 -0.0206124 0)
(-0.194249 -0.0571237 0)
(-0.197272 -0.0672738 0)
(-0.189286 -0.104351 0)
(-0.187906 -0.110355 0)
(-0.174403 -0.143053 0)
(-0.172296 -0.148228 0)
(-0.152975 -0.173481 0)
(-0.150118 -0.177286 0)
(-0.125197 -0.19133 0)
(-0.121646 -0.193133 0)
(-0.0857891 -0.171576 0)
(-0.0882703 -0.190878 0)
(-0.0572758 -0.169961 0)
(-0.0485259 -0.145644 0)
(-0.0262018 -0.122666 0)
(-0.0232757 -0.115198 0)
(-0.00699866 -0.0544562 0)
(-0.00615422 -0.051222 0)
(-0.00584541 0.0570698 0)
(-0.00669688 0.0608398 0)
(-0.0202818 0.112768 0)
(-0.0228779 0.121024 0)
(-0.0468912 0.161211 0)
(-0.0507404 0.166674 0)
(-0.0781405 0.185955 0)
(-0.0825276 0.188762 0)
(-0.108773 0.190474 0)
(-0.113256 0.190895 0)
(-0.136132 0.178864 0)
(-0.140502 0.177185 0)
(-0.158993 0.154994 0)
(-0.163133 0.151461 0)
(-0.17692 0.12216 0)
(-0.180764 0.116952 0)
(-0.189901 0.083031 0)
(-0.193403 0.0762512 0)
(-0.198051 0.0397543 0)
(-0.201123 0.0314368 0)
(-0.199999 0.0214953 0)
(-0.203609 -0.0156312 0)
(-0.201392 -0.0245379 0)
(-0.200609 -0.062808 0)
(-0.197703 -0.0704376 0)
(-0.191975 -0.107856 0)
(-0.188458 -0.114019 0)
(-0.177172 -0.148034 0)
(-0.173088 -0.152474 0)
(-0.155755 -0.179778 0)
(-0.151184 -0.182171 0)
(-0.127801 -0.198631 0)
(-0.122899 -0.198611 0)
(-0.094439 -0.199491 0)
(-0.0894911 -0.196701 0)
(-0.0586032 -0.17731 0)
(-0.0541824 -0.171492 0)
(-0.0265258 -0.128441 0)
(-0.0235214 -0.119593 0)
(-0.00775518 -0.0638159 0)
(-0.00676752 -0.0597812 0)
(-0.00651569 0.0616434 0)
(-0.00740425 0.0654928 0)
(-0.0212403 0.117261 0)
(-0.0239035 0.1249 0)
(-0.048373 0.166717 0)
(-0.0521537 0.171722 0)
(-0.0799484 0.19133 0)
(-0.08407 0.193892 0)
(-0.110588 0.195011 0)
(-0.114557 0.19543 0)
(-0.137688 0.182211 0)
(-0.14122 0.180805 0)
(-0.160135 0.157031 0)
(-0.163056 0.1541 0)
(-0.177606 0.122896 0)
(-0.179829 0.118701 0)
(-0.190175 0.0825228 0)
(-0.191678 0.077286 0)
(-0.198009 0.0380659 0)
(-0.198803 0.031974 0)
(-0.199423 0.0249704 0)
(-0.201256 -0.0154202 0)
(-0.201125 -0.0220447 0)
(-0.198832 -0.063091 0)
(-0.197873 -0.069088 0)
(-0.191047 -0.108922 0)
(-0.189192 -0.113997 0)
(-0.177234 -0.150166 0)
(-0.174457 -0.153966 0)
(-0.156787 -0.183183 0)
(-0.153145 -0.185301 0)
(-0.129578 -0.203332 0)
(-0.125257 -0.203331 0)
(-0.0965346 -0.205166 0)
(-0.0918849 -0.20264 0)
(-0.0605116 -0.183144 0)
(-0.0561587 -0.177796 0)
(-0.0278706 -0.133066 0)
(-0.0247805 -0.124842 0)
(-0.0086211 -0.0690403 0)
(-0.0075926 -0.0649301 0)
(-0.00706638 0.0702644 0)
(-0.00805538 0.0748079 0)
(-0.0235883 0.136395 0)
(-0.0265375 0.146184 0)
(-0.0527847 0.191748 0)
(-0.0569888 0.197923 0)
(-0.0853663 0.217566 0)
(-0.089952 0.220466 0)
(-0.115525 0.219532 0)
(-0.120005 0.219641 0)
(-0.140926 0.203545 0)
(-0.145128 0.201319 0)
(-0.161012 0.174679 0)
(-0.164882 0.170477 0)
(-0.176054 0.136888 0)
(-0.179603 0.130952 0)
(-0.186657 0.0930815 0)
(-0.189906 0.0855303 0)
(-0.193405 0.0453613 0)
(-0.196296 0.0362234 0)
(-0.195145 0.0253332 0)
(-0.198911 -0.0153219 0)
(-0.196936 -0.0252134 0)
(-0.197573 -0.0674058 0)
(-0.194986 -0.076047 0)
(-0.191769 -0.118063 0)
(-0.188614 -0.125246 0)
(-0.180544 -0.164651 0)
(-0.176788 -0.170082 0)
(-0.162746 -0.203374 0)
(-0.15837 -0.206635 0)
(-0.137508 -0.228975 0)
(-0.132578 -0.229533 0)
(-0.104968 -0.23476 0)
(-0.0997183 -0.232026 0)
(-0.0674306 -0.213251 0)
(-0.0624976 -0.206692 0)
(-0.0316917 -0.157885 0)
(-0.0281852 -0.147264 0)
(-0.00966774 -0.0802265 0)
(-0.00848467 -0.0752879 0)
(-0.00788209 0.0755521 0)
(-0.00892788 0.0802643 0)
(-0.0246828 0.141075 0)
(-0.027743 0.150208 0)
(-0.054299 0.197246 0)
(-0.0584449 0.202805 0)
(-0.0869378 0.222627 0)
(-0.0912003 0.22503 0)
(-0.116722 0.223501 0)
(-0.120548 0.22329 0)
(-0.141458 0.206197 0)
(-0.14459 0.203895 0)
(-0.160768 0.17603 0)
(-0.163099 0.172091 0)
(-0.175081 0.13706 0)
(-0.176606 0.131846 0)
(-0.185114 0.0922068 0)
(-0.185892 0.085995 0)
(-0.191511 0.0435383 0)
(-0.191627 0.0365339 0)
(-0.192865 0.0287138 0)
(-0.194137 -0.0150156 0)
(-0.19477 -0.0225816 0)
(-0.193289 -0.0672149 0)
(-0.193185 -0.0742964 0)
(-0.188439 -0.11829 0)
(-0.187446 -0.124579 0)
(-0.17849 -0.16568 0)
(-0.176475 -0.170759 0)
(-0.162111 -0.205589 0)
(-0.159013 -0.208917 0)
(-0.13819 -0.23263 0)
(-0.134084 -0.233559 0)
(-0.106562 -0.239773 0)
(-0.101739 -0.237607 0)
(-0.0693171 -0.218945 0)
(-0.0644721 -0.213058 0)
(-0.0332459 -0.162784 0)
(-0.0296086 -0.152851 0)
(-0.0107532 -0.0864853 0)
(-0.00950464 -0.0813787 0)
(-0.00884026 0.085887 0)
(-0.0100067 0.0912933 0)
(-0.0278447 0.162843 0)
(-0.0312051 0.174208 0)
(-0.0593238 0.224015 0)
(-0.0638241 0.230688 0)
(-0.0917679 0.248843 0)
(-0.0963411 0.251518 0)
(-0.119095 0.246309 0)
(-0.123235 0.245796 0)
(-0.139804 0.224682 0)
(-0.143418 0.221672 0)
(-0.154441 0.1904 0)
(-0.157582 0.185401 0)
(-0.164277 0.148017 0)
(-0.167059 0.141348 0)
(-0.170699 0.100522 0)
(-0.173247 0.092334 0)
(-0.174847 0.0497791 0)
(-0.17723 0.0401089 0)
(-0.177392 -0.00301936 0)
(-0.179563 -0.0141542 0)
(-0.178021 -0.0246877 0)
(-0.180201 -0.0693946 0)
(-0.17831 -0.0788497 0)
(-0.178429 -0.124237 0)
(-0.176103 -0.132407 0)
(-0.172833 -0.176464 0)
(-0.169912 -0.183017 0)
(-0.161445 -0.222366 0)
(-0.157767 -0.22678 0)
(-0.14217 -0.2561 0)
(-0.137648 -0.257641 0)
(-0.113594 -0.2693 0)
(-0.10834 -0.267047 0)
(-0.0766214 -0.251369 0)
(-0.0712808 -0.244354 0)
(-0.037995 -0.191331 0)
(-0.0339292 -0.178876 0)
(-0.0123034 -0.100113 0)
(-0.010878 -0.0941521 0)
(-0.00985873 0.0919596 0)
(-0.0110958 0.0976 0)
(-0.0291336 0.167694 0)
(-0.0326287 0.178358 0)
(-0.0608395 0.229298 0)
(-0.0652515 0.235195 0)
(-0.0929086 0.253237 0)
(-0.0970537 0.255174 0)
(-0.119314 0.249304 0)
(-0.122626 0.248188 0)
(-0.138824 0.226257 0)
(-0.141141 0.22288 0)
(-0.152245 0.190761 0)
(-0.153584 0.185749 0)
(-0.161041 0.147425 0)
(-0.16152 0.141232 0)
(-0.166722 0.0991939 0)
(-0.166508 0.0921325 0)
(-0.170486 0.0478496 0)
(-0.169752 0.0401166 0)
(-0.17155 0.0317215 0)
(-0.171905 -0.0137927 0)
(-0.173361 -0.0220686 0)
(-0.172956 -0.0687461 0)
(-0.173892 -0.0767301 0)
(-0.172167 -0.123574 0)
(-0.172345 -0.130988 0)
(-0.168051 -0.176218 0)
(-0.167214 -0.182622 0)
(-0.158501 -0.22307 0)
(-0.156426 -0.227817 0)
(-0.141169 -0.25827 0)
(-0.137745 -0.260483 0)
(-0.11426 -0.273187 0)
(-0.109619 -0.271796 0)
(-0.0782854 -0.256582 0)
(-0.0731075 -0.250464 0)
(-0.0397462 -0.196404 0)
(-0.0355326 -0.184724 0)
(-0.0136553 -0.107463 0)
(-0.0121456 -0.101267 0)
(-0.0115782 0.104835 0)
(-0.0129787 0.111164 0)
(-0.0335502 0.192298 0)
(-0.0373743 0.205146 0)
(-0.0664122 0.256817 0)
(-0.0710405 0.263559 0)
(-0.096065 0.277343 0)
(-0.100235 0.279295 0)
(-0.116906 0.267705 0)
(-0.120173 0.26616 0)
(-0.129104 0.239089 0)
(-0.13154 0.235043 0)
(-0.134855 0.19929 0)
(-0.136678 0.193418 0)
(-0.136682 0.153221 0)
(-0.138158 0.145923 0)
(-0.136833 0.103672 0)
(-0.138231 0.0951245 0)
(-0.136995 0.052023 0)
(-0.138548 0.0422486 0)
(-0.137337 0.0308691 0)
(-0.140038 -0.012228 0)
(-0.139051 -0.0228823 0)
(-0.142834 -0.0680651 0)
(-0.141955 -0.0779309 0)
(-0.146183 -0.124753 0)
(-0.145172 -0.133683 0)
(-0.148357 -0.180887 0)
(-0.146887 -0.188557 0)
(-0.146644 -0.233336 0)
(-0.144356 -0.239147 0)
(-0.137573 -0.276187 0)
(-0.134144 -0.279189 0)
(-0.117617 -0.299656 0)
(-0.112911 -0.298515 0)
(-0.0851776 -0.289532 0)
(-0.079719 -0.282626 0)
(-0.0456366 -0.228514 0)
(-0.0410026 -0.214355 0)
(-0.0160469 -0.124396 0)
(-0.0143257 -0.117342 0)
(-0.0128896 0.111808 0)
(-0.0143651 0.11839 0)
(-0.0350942 0.197274 0)
(-0.0390439 0.209358 0)
(-0.0677969 0.261539 0)
(-0.0722488 0.26735 0)
(-0.0963808 0.280554 0)
(-0.099958 0.281569 0)
(-0.115544 0.269189 0)
(-0.117777 0.266834 0)
(-0.125893 0.239131 0)
(-0.126821 0.234523 0)
(-0.12995 0.198329 0)
(-0.129789 0.192259 0)
(-0.13044 0.15166 0)
(-0.129467 0.144648 0)
(-0.129709 0.101805 0)
(-0.128215 0.0941561 0)
(-0.129481 0.0500128 0)
(-0.127733 0.0418797 0)
(-0.130762 -0.00328818 0)
(-0.128976 -0.0118539 0)
(-0.131245 -0.0204536 0)
(-0.132105 -0.0669759 0)
(-0.134213 -0.0755118 0)