/*--------------------------------*- C++ -*----------------------------------*\
  =========                 |
  \\      /  F ield         | OpenFOAM: The Open Source CFD Toolbox
   \\    /   O peration     | Website:  https://openfoam.org
    \\  /    A nd           | Version:  9
     \\/     M anipulation  |
\*---------------------------------------------------------------------------*/
FoamFile
{
    format      ascii;
    class       volScalarField;
    location    "33.8";
    object      p;
}
// * * * * * * * * * * * * * * * * * * * * * * * * * * * * * * * * * * * * * //

dimensions      [0 2 -2 0 0 0 0];

internalField   nonuniform List<scalar> 
918
(
23.4687
23.5755
0.953093
22.8861
1.01747
23.0919
3.27195
13.7845
19.2419
2.93398
2.62538
14.408
20.6349
16.8763
12.9925
0.924805
14.0515
2.24598
18.4596
1.39836
12.9917
20.4474
21.5361
19.2837
14.1208
14.3715
18.5972
1.14532
0.107782
0.255014
0.979329
0.411047
0.147491
21.6288
22.3055
22.2438
15.4945
10.4021
3.59716
3.80172
2.98242
2.80541
13.8272
13.9271
5.86671
13.7634
13.7591
16.6435
19.11
19.2536
19.5468
19.3358
19.7222
5.97359
2.78515
2.60511
2.87605
2.95045
2.98287
2.69773
2.67925
2.48304
2.33712
13.8874
14.4811
14.5363
14.2675
14.2151
22.4515
21.6946
22.0293
21.1356
21.2811
20.211
19.8254
17.2519
17.6044
16.4782
16.0974
12.7829
12.744
13.2124
13.4622
0.145524
1.07582
1.22295
14.0585
14.095
14.095
14.1095
8.28231
2.18782
2.19057
17.9
17.4764
20.4813
20.7485
20.1956
20.01
1.53023
1.52622
1.15089
1.18158
0.950777
13.333
13.4872
19.2351
18.402
14.1544
14.0544
14.1294
11.4995
13.9097
13.983
15.321
15.7765
14.9658
15.4022
18.1672
17.7492
19.0338
19.471
0.393178
0.154554
0.687449
0.318197
0.516517
15.3629
15.1574
15.6104
15.6612
15.8925
10.4069
10.3375
10.3809
10.3008
4.14904
4.46365
2.25477
2.56934
2.42022
9.86545
13.9434
13.9902
4.8106
5.51497
5.17828
6.34945
6.72384
16.0091
16.4457
16.1845
17.7308
16.9357
17.2839
19.813
19.3022
19.6026
6.3681
6.6025
5.60776
5.24905
2.23804
2.48763
2.42966
2.98184
2.95989
3.21756
3.34595
2.69831
2.55491
2.89331
2.77673
2.82882
2.16637
2.03653
13.6114
13.3975
14.1504
14.3289
15.0962
14.9479
14.6545
14.8232
19.0205
19.424
19.4574
19.0733
11.5446
10.1551
13.7167
13.9922
0.302164
0.264647
0.13829
0.380781
0.400807
0.142774
2.01547
1.82694
1.40532
1.68065
14.0561
14.0159
8.5229
8.74253
8.11877
7.86262
16.3141
16.4644
17.0985
16.6983
1.96289
1.67665
1.80649
13.6502
13.5227
13.6295
10.9346
10.368
11.9772
12.247
13.9911
14.0349
14.0309
15.6807
15.9991
19.8219
20.0925
19.9194
20.3052
21.368
21.0193
20.6345
14.5387
14.9471
14.7855
16.1278
15.7614
15.9809
15.1888
15.4935
15.3514
10.3692
10.4155
10.119
10.1969
10.2455
10.1925
9.80266
9.67569
14.0768
14.0318
14.0559
7.25193
7.74998
4.86885
4.54005
12.5433
13.2165
12.8921
18.6502
17.9726
18.7056
18.3347
17.8847
18.2082
10.4263
10.388
10.4213
14.9166
14.2544
14.6064
2.44101
2.07682
2.23994
8.9385
9.03191
6.97055
7.58713
7.25025
16.3007
16.6411
17.3213
16.433
16.9007
17.4079
17.186
9.9387
10.0715
9.98839
9.65911
9.55266
9.73473
8.33524
8.94856
3.61253
4.26893
3.96493
9.19989
9.42985
9.27711
18.6297
19.1645
0.765858
1.15326
19.5946
19.3183
0.138926
0.241767
14.253
12.5506
7.26217
17.1969
16.6295
18.9693
3.19223
6.10232
2.81014
3.38059
2.68632
14.6151
14.2491
13.3402
0.452935
1.25631
1.7097
2.89574
18.4101
17.7349
18.8511
19.1712
19.2255
0.687543
0.912859
0.584167
1.24278
1.03138
1.27637
15.5506
15.6487
4.32315
18.8581
19.1624
19.1801
17.6568
18.6095
17.667
0.935341
0.642259
0.707248
10.0802
12.1211
14.2132
13.7658
13.9628
13.9849
13.7358
14.8691
14.5386
14.5035
14.9883
13.9659
13.8206
7.73398
6.38287
8.06844
7.70879
17.0983
16.6862
16.493
16.2387
18.0845
17.6106
18.4609
17.8494
18.3112
18.598
2.9433
3.133
3.01173
2.52035
6.14311
6.6057
5.4879
5.63334
4.25915
2.42918
2.52765
2.75365
2.58438
2.93129
2.67892
2.94286
2.5792
2.32354
2.32173
2.93105
2.73896
2.60449
14.5935
14.532
14.3329
14.3709
14.3533
14.4691
13.5347
13.9394
13.5672
12.3983
12.9794
12.5067
0.825435
0.662998
0.524869
1.32379
1.35085
1.11111
0.834764
1.17391
1.20205
0.814556
1.54567
1.44555
3.15519
2.64367
8.83977
7.9675
6.90087
16.8001
17.6019
16.7716
18.0123
18.4293
18.5347
18.1551
17.6469
15.7294
15.7245
15.3847
15.3381
4.77055
3.73119
4.96661
4.53569
10.4774
14.0649
11.8422
10.8034
11.0997
13.4238
13.9283
13.5807
13.7176
13.2927
12.8209
13.5128
13.0465
13.1479
12.9269
15.7173
16.1925
15.799
15.2195
15.2394
10.5984
12.0151
5.46513
5.63913
7.24371
6.53753
13.5093
13.9323
13.9171
13.5555
13.7433
13.7444
13.6052
13.7794
13.8592
13.7538
11.8241
10.1435
9.04478
9.03837
14.0763
12.3457
12.93
12.4133
16.1201
16.6365
16.2512
15.6457
16.1307
15.6025
15.6298
15.8429
17.2011
16.9507
16.7205
17.1073
3.05475
3.0035
3.64707
3.13304
3.03624
2.81924
3.48356
4.75807
4.41581
6.7181
7.26884
4.57982
3.37246
3.7927
4.80775
5.54111
5.51089
3.96919
4.50096
4.92997
4.44045
5.22403
4.72857
2.71789
3.02532
2.86343
2.83718
3.38182
3.88012
3.37569
2.48074
2.59285
2.25711
2.11937
3.53623
2.99624
3.03311
3.67878
1.10634
1.32862
1.44097
2.41406
1.91321
1.97898
15.1821
14.8262
14.9598
14.2391
14.3065
14.2476
13.8721
15.2396
14.9616
15.061
13.7095
13.7962
13.6095
13.9048
14.3208
14.6201
15.4519
15.173
14.4121
14.5631
14.214
14.1423
13.4643
12.9013
12.8408
1.11238
0.824511
0.984102
0.911018
0.606221
0.798596
2.18318
1.57276
1.97059
1.72633
1.95965
1.40381
1.30242
4.25286
5.06378
3.96341
3.36488
3.06181
8.89821
9.00972
8.15839
7.85643
8.19797
8.42662
8.37635
7.13422
7.56123
7.37427
9.91511
9.57941
17.5863
17.5304
17.2016
17.0427
17.2692
5.7621
7.66494
6.79878
7.91493
10.2062
10.5019
9.31056
8.70472
9.45602
9.53397
14.0466
14.1227
13.5636
14.0495
14.078
11.8347
12.8819
13.4968
13.3113
13.8311
13.912
12.973
13.5617
13.477
12.7597
12.8126
12.1274
12.466
11.9941
11.7931
14.0557
13.9504
14.2202
13.771
14.1503
13.7146
14.0298
14.0278
14.3084
13.4104
12.8317
12.8501
13.2764
12.9765
13.3224
13.4866
9.30816
9.94824
10.3869
10.9226
10.6299
10.412
10.2792
10.5809
10.5578
10.8291
10.7484
10.5993
11.5602
13.4155
13.7005
13.8019
13.599
13.6452
13.3378
13.6106
13.5399
13.9192
14.0071
14.0568
13.1375
13.2935
13.4882
13.372
11.6748
10.0967
9.94885
9.50886
7.57648
8.04617
11.0251
9.90192
8.91712
8.98907
12.1682
10.8056
11.6189
12.0421
10.6937
10.3056
12.9708
13.7589
13.9788
13.703
12.0598
12.1856
12.6353
13.0786
13.2678
13.7235
15.8599
16.4355
16.5134
16.2375
16.0995
16.1994
15.9495
16.0525
16.5266
16.6532
16.4844
2.88021
2.99389
2.92387
2.84923
3.08565
2.86123
3.95635
3.94728
3.15667
3.33692
3.35683
3.46226
2.93132
2.97441
4.82632
5.06195
5.33362
4.8321
6.17529
6.81616
7.39746
7.08305
5.78966
5.86895
6.18422
3.5075
3.53337
3.2517
3.70927
3.76194
2.61176
2.23923
2.04434
2.56552
2.66665
2.05153
1.76863
1.81785
2.33221
2.05107
1.80504
14.9746
14.7329
14.7543
14.5341
14.5887
14.9836
15.2044
15.0145
15.1529
15.2039
14.803
14.6919
14.863
1.81872
1.49346
1.6228
1.58104
1.64346
1.5499
1.7381
7.60543
6.41555
6.80302
5.97841
4.12038
4.6413
9.5385
9.95992
9.9984
9.70954
9.49949
9.86526
9.71604
9.70878
8.26306
9.33173
8.86767
9.26043
9.28183
9.34955
9.06422
9.08041
10.5841
10.6177
9.48265
10.1223
9.33101
7.93181
8.09881
9.11247
10.0861
10.4042
10.2494
9.97945
9.75085
10.1139
10.1686
10.2287
10.2179
8.75144
8.71134
8.31079
13.9683
13.8748
14.0214
14.0265
14.1534
13.9784
13.8154
14.0926
14.1469
13.9312
11.0772
11.1361
11.3819
12.1286
12.1806
12.0915
11.3362
13.1003
12.7559
13.3938
13.3406
13.413
13.0033
12.8265
13.0968
10.0804
11.4534
10.9863
11.2495
10.0629
9.30645
13.223
13.2772
13.3425
13.6155
13.5735
14.1569
15.8298
15.6997
15.747
15.7901
15.4018
15.439
4.17543
3.82932
4.55097
4.50646
4.0646
3.76468
2.28665
1.96876
1.78093
1.65616
1.88945
1.95055
8.16227
8.18931
6.33373
7.35524
5.876
4.93423
4.78962
5.95536
7.13662
7.19548
8.51307
9.18912
8.74828
8.57353
7.91787
8.24743
10.1157
10.2101
10.1106
10.4295
9.96225
11.7119
11.2941
11.643
13.2569
12.9666
12.3685
12.2551
12.2199
12.8129
11.9472
11.1789
11.8914
12.5468
12.505
11.1176
10.8726
11.2993
11.2833
10.1975
10.7176
10.4796
10.8321
10.5474
)
;

boundaryField
{
    wall-4
    {
        type            zeroGradient;
    }
    velocity-inlet-5
    {
        type            zeroGradient;
    }
    velocity-inlet-6
    {
        type            zeroGradient;
    }
    pressure-outlet-7
    {
        type            fixedValue;
        value           uniform 0;
    }
    wall-8
    {
        type            zeroGradient;
    }
    frontAndBackPlanes
    {
        type            empty;
    }
}


// ************************************************************************* //
