/*--------------------------------*- C++ -*----------------------------------*\
  =========                 |
  \\      /  F ield         | OpenFOAM: The Open Source CFD Toolbox
   \\    /   O peration     | Website:  https://openfoam.org
    \\  /    A nd           | Version:  9
     \\/     M anipulation  |
\*---------------------------------------------------------------------------*/
FoamFile
{
    format      ascii;
    class       volVectorField;
    location    "33.8";
    object      U;
}
// * * * * * * * * * * * * * * * * * * * * * * * * * * * * * * * * * * * * * //

dimensions      [0 1 -1 0 0 0 0];

internalField   nonuniform List<vector> 
918
(
(2.47629 -0.138943 0)
(0.108704 0.722546 0)
(0.171782 1.05381 0)
(2.31834 0.153728 0)
(-0.0596976 1.27092 -1.22324e-19)
(-0.0924034 0.643931 -5.31376e-18)
(0.530063 0.849701 -2.95322e-19)
(0.274314 0.152869 -2.98836e-20)
(3.00615 -0.0195607 0)
(-0.00826864 0.477023 0)
(-0.0172308 0.589671 0)
(0.605211 0.00676635 0)
(0.0107054 0.439105 0)
(-0.00288244 0.421689 0)
(0.0134372 0.340815 -1.30509e-18)
(-0.00468683 0.768705 -9.20509e-20)
(0.312397 0.0742684 2.15207e-18)
(0.0797484 0.642583 -2.22914e-19)
(1.52884 0.128628 0)
(-0.0267114 0.685513 0)
(0.194584 0.157718 -1.2655e-18)
(3.08302 -0.397373 0)
(2.92445 -0.50598 0)
(1.86116 -0.1811 0)
(0.511381 0.0400857 0)
(-0.0253686 0.52155 0)
(-0.00135314 0.494038 1.86236e-18)
(-0.0223958 1.40057 0)
(0.0749296 2.8839 0)
(0.168281 1.73662 0)
(-0.0382319 3.16532 0)
(0.0273298 1.64028 9.40557e-20)
(0.0233448 0.686602 0)
(-0.147425 0.775094 -2.03083e-22)
(-0.193914 1.0291 4.42118e-18)
(-0.0415772 1.04471 0)
(0.744578 -0.00600497 0)
(0.161 0.246301 6.65513e-19)
(0.993572 1.51317 6.5277e-19)
(0.649987 0.784434 -5.1595e-19)
(0.798665 1.57535 6.19891e-20)
(0.41685 0.851497 -3.20056e-19)
(0.552305 0.306554 2.93901e-20)
(0.29696 0.153641 0)
(0.963027 0.56659 0)
(0.532583 0.303937 1.3201e-19)
(0.257967 0.162785 -1.35462e-19)
(0.871596 -0.0554787 0)
(3.02784 -0.00170478 0)
(3.00685 0.0178656 0)
(3.20086 -0.417733 0)
(3.04288 -0.0742117 0)
(3.03116 -0.0388406 0)
(0.0185988 0.902967 -1.14622e-18)
(-0.0542632 0.974454 0)
(0.00283767 0.455153 0)
(-0.029163 0.981563 0)
(-0.0114092 0.481409 0)
(-0.00135201 0.869769 0)
(-0.052123 1.11127 0)
(-0.0125582 0.541959 0)
(-0.025373 1.16267 0)
(-0.00592644 0.621958 0)
(0.790479 0.0116245 0)
(1.16942 -0.00156167 0)
(0.618247 0.0123698 0)
(1.12578 0.0175987 0)
(0.569758 0.00867944 0)
(0.225406 0.921982 1.95974e-18)
(0.0985379 1.2081 0)
(0.176302 1.06604 0)
(0.0331901 0.755774 2.19925e-23)
(0.0372233 0.498055 -2.93095e-18)
(0.0194616 0.747943 0)
(0.00595421 0.422033 0)
(-0.000695308 0.734548 4.51726e-24)
(0.00070248 0.414825 0)
(-0.0169204 0.74318 0)
(-0.0129373 0.42798 0)
(0.0494343 0.649974 0)
(0.0484374 0.458219 0)
(0.00800495 0.621949 1.23394e-18)
(0.000744599 0.344903 0)
(-0.0676321 4.69186 0)
(0.00896322 1.45806 9.13875e-20)
(-0.0104521 0.785363 -1.17648e-19)
(0.636083 0.152146 -7.5092e-19)
(0.321613 0.0656844 -7.28682e-19)
(0.644788 0.169721 -2.25457e-18)
(0.31753 0.0955706 -1.45151e-18)
(0.0785246 0.61837 0)
(0.178552 1.31391 1.84845e-19)
(0.179714 0.730299 -2.94924e-19)
(2.06031 0.260946 0)
(1.10704 0.11845 0)
(3.03313 0.103887 0)
(3.10392 0.446059 0)
(2.83919 0.377459 -1.01276e-17)
(2.5781 0.361309 7.77108e-18)
(-0.0706453 1.26322 0)
(-0.0113297 0.623326 0)
(-0.0138144 1.90043 0)
(-0.0507084 1.34666 0)
(-0.0479995 0.679068 0)
(0.440309 0.295626 4.00655e-19)
(0.225463 0.163358 0)
(2.2961 -0.266393 0)
(1.32372 -0.119273 0)
(1.07632 0.0126689 0)
(1.01198 0.0187649 0)
(0.540922 0.0108512 0)
(1.01986 0.0563997 0)
(0.821214 0.0703255 0)
(0.343622 0.0286956 3.36288e-18)
(-0.00543499 0.451601 1.77343e-18)
(-0.0270312 0.784627 0)
(-0.0473175 0.847507 0)
(-0.0152739 0.460435 0)
(0.000132485 0.839725 1.81591e-18)
(7.30055e-05 0.48753 0)
(-0.00547891 0.845554 -5.59013e-18)
(-0.00488634 0.496761 1.88627e-18)
(0.0547156 3.56601 0)
(0.0434074 4.02511 0)
(-0.0162284 1.41074 -2.05159e-21)
(-0.0130499 1.36334 0)
(-0.00977903 0.741484 0)
(1.41018 0.0348844 0)
(0.760549 0.0154388 0)
(0.709514 0.0142643 0)
(1.41618 -0.0328482 0)
(0.773515 -0.0087397 0)
(0.322055 0.480346 -8.35576e-19)
(0.156805 0.232719 0)
(0.324956 0.509162 9.36438e-20)
(0.163359 0.26843 0)
(1.2408 1.3869 1.66438e-19)
(0.778691 0.74086 -3.9241e-19)
(0.411598 1.42218 0)
(0.607192 1.53406 0)
(0.30355 0.814815 0)
(0.145328 0.353373 -4.42822e-19)
(0.607302 0.280718 0)
(0.31351 0.134639 3.98809e-19)
(1.42733 1.30674 0)
(1.58668 1.16855 0)
(0.874913 0.663922 4.61703e-19)
(1.73392 0.953102 0)
(1.0686 0.438778 2.32221e-20)
(1.47298 0.00813852 0)
(1.501 -0.0292391 0)
(0.801896 -0.00441618 0)
(1.95042 -0.199779 0)
(1.65082 -0.14818 0)
(1.05215 -0.0889696 0)
(3.06126 0.164853 0)
(3.03105 0.0687875 0)
(3.01022 0.0531594 0)
(0.0357112 1.60553 6.08185e-19)
(0.0178685 0.826968 0)
(0.0179378 1.69617 1.07972e-18)
(0.00302849 0.938819 -9.70699e-19)
(0.0646806 1.15241 1.87767e-19)
(0.0477088 0.989271 0)
(0.0401849 0.528738 0)
(-0.0286782 1.00562 0)
(-0.00698965 0.517571 0)
(0.0181364 1.61553 -4.43289e-21)
(-0.0180638 0.865534 0)
(-0.053951 1.58407 -2.25783e-19)
(-0.0161281 0.820716 4.37282e-19)
(-0.00178605 1.0299 0)
(0.0102739 1.04411 0)
(5.23339e-05 0.531636 0)
(0.0106661 1.17114 0)
(0.000910993 0.612466 0)
(1.46831 -0.00370335 0)
(0.789219 0.0080599 0)
(1.44055 0.0331662 0)
(0.761792 -0.000557504 0)
(0.675382 0.0053446 0)
(1.26195 0.0166822 0)
(1.20239 0.0473083 0)
(0.65969 0.015556 0)
(-0.00580052 1.42077 -1.70202e-20)
(0.000184321 1.37708 0)
(0.00482012 0.732923 0)
(0.00172892 0.417221 0)
(0.284436 0.828754 0)
(0.253615 0.399733 -2.87121e-19)
(-0.00223253 0.635409 0)
(-0.00889714 0.367611 0)
(0.0117912 4.33775 0)
(-0.0485008 4.66419 0)
(-0.0179295 4.56593 0)
(-0.0718862 3.36781 2.04128e-20)
(-0.0577253 4.60303 0)
(-0.0515838 4.18026 0)
(0.00484302 0.819085 1.08115e-20)
(0.0142178 1.56237 1.65383e-19)
(-0.0358557 1.50289 1.20872e-19)
(-0.0074447 0.825896 0)
(0.664427 0.105708 1.15325e-18)
(0.325684 0.0441634 -1.13021e-18)
(0.149658 1.13332 0)
(0.100938 0.573383 -2.69223e-19)
(0.118112 1.23314 -8.74252e-19)
(0.0518461 0.687088 8.69752e-19)
(0.809201 0.0240635 0)
(1.55677 0.0476796 0)
(1.7097 0.127652 0)
(0.919845 0.0445228 0)
(0.00793656 1.18229 0)
(0.0258388 1.19034 0)
(0.004504 0.627906 0)
(0.482105 0.315078 1.20357e-18)
(0.436841 0.309078 -1.38663e-18)
(0.234765 0.164173 0)
(1.93551 0.153003 1.15235e-19)
(1.13643 0.0932522 0)
(1.72436 0.118444 0)
(0.883731 0.0226953 0)
(0.678171 0.0857387 0)
(0.699713 0.0460597 -5.40738e-18)
(0.346728 0.0325964 1.99896e-18)
(0.00914741 0.807284 1.6936e-18)
(0.00222281 0.46251 4.08167e-20)
(-0.0108777 1.40842 -3.57992e-20)
(0.00613616 1.38675 1.36582e-18)
(-0.0149832 0.848955 6.29416e-20)
(-0.0119261 0.524486 -2.52898e-22)
(-0.107514 1.00068 -1.16484e-18)
(-0.0529602 1.3532 8.33966e-19)
(-0.0175323 1.35275 -1.35772e-18)
(1.42273 -0.0170846 0)
(1.44236 0.0203186 0)
(0.769872 -0.000177553 0)
(1.45218 0.0253834 0)
(1.36319 0.0462298 0)
(0.761541 0.0203071 0)
(1.30062 -0.00215354 0)
(1.31867 -0.00584864 0)
(0.695054 -0.000986402 0)
(0.304852 0.473397 -9.15182e-19)
(0.161355 0.242676 0)
(0.157152 0.308425 1.36931e-19)
(0.309583 0.585882 1.1221e-18)
(0.307398 0.548568 -6.64296e-19)
(0.156818 0.281894 1.29813e-18)
(0.278473 0.717676 2.18144e-18)
(0.148257 0.380841 3.93609e-19)
(0.636087 0.213092 1.53742e-18)
(0.625989 0.253603 3.99307e-19)
(0.316619 0.115045 7.49247e-19)
(1.92132 0.714637 -5.99644e-19)
(1.1677 0.336107 -7.01865e-19)
(-0.0351196 1.70314 4.64098e-19)
(-0.0114071 0.924808 0)
(1.6039 0.0239534 0)
(1.52191 0.0653728 0)
(0.852934 0.0268589 0)
(-0.00355882 1.38473 0)
(0.00507421 0.729574 2.49503e-18)
(0.00465034 0.731252 0)
(0.00207079 0.415097 -2.44207e-18)
(-0.0102751 1.38627 5.95632e-19)
(-0.00947265 1.4225 0)
(0.336543 0.488131 2.57946e-19)
(0.360032 0.546394 -8.62963e-19)
(0.171832 0.257814 7.81111e-19)
(-0.0256693 0.767468 -1.66255e-18)
(-0.0261518 0.689734 0)
(-0.0154343 0.412938 0)
(0.0302165 1.54798 -1.27055e-20)
(0.0314108 1.58062 -3.64876e-19)
(0.0178953 0.822564 -1.559e-20)
(0.213332 1.04396 8.89936e-19)
(0.119637 0.508976 -5.92206e-19)
(0.0118657 1.48467 7.30516e-19)
(0.0558067 1.35065 -8.15334e-19)
(0.0268039 0.760294 3.53037e-20)
(0.00751361 1.36614 -3.80739e-18)
(-0.000214799 1.39326 4.40918e-18)
(0.0037734 0.829776 1.73284e-18)
(-0.0138288 0.805094 -1.72531e-18)
(-0.00430905 0.481399 -1.73848e-18)
(-0.0106511 1.41685 -4.49959e-18)
(-0.0152177 1.40032 4.58878e-18)
(0.286347 0.674756 0)
(0.299757 0.634598 -2.28756e-18)
(0.151929 0.331703 9.90285e-19)
(0.281189 0.795904 1.18493e-18)
(0.138792 0.427479 -1.82834e-18)
(2.057 0.322586 4.15819e-19)
(2.05157 0.547733 0)
(1.21866 0.220984 -4.01771e-19)
(-0.0738515 1.63514 -4.80131e-21)
(-0.0141286 1.69051 0)
(-0.0157198 0.92184 0)
(0.227053 0.944385 -3.22751e-19)
(0.248198 0.866406 -7.0682e-19)
(0.128787 0.463225 1.32463e-18)
(3.16442 -0.442872 0)
(3.34728 -0.414685 1.81279e-18)
(0.0623565 3.48427 0)
(0.048844 2.80818 0)
(3.15925 0.249915 1.4192e-20)
(3.12355 0.506296 3.71209e-18)
(0.0234042 3.43259 -2.73949e-20)
(0.00928302 2.66427 0)
(-0.0416466 1.19604 1.55492e-18)
(0.19006 1.31638 0)
(3.47262 1.62512 -3.24729e-19)
(3.17427 0.272573 -2.96098e-20)
(3.14838 -0.118696 0)
(3.10047 -0.000403979 3.73119e-22)
(0.0439146 2.59037 0)
(0.157467 3.30061 0)
(-0.0549203 2.53443 0)
(-0.02301 3.48831 3.15758e-19)
(-0.0248394 3.56929 1.99237e-19)
(2.63343 0.0488319 -1.36492e-20)
(3.04751 0.0311532 0)
(3.15793 0.0868413 0)
(-0.0508095 4.61734 0)
(-0.0456988 3.08328 0)
(-0.0717917 2.93597 0)
(0.652557 3.10603 2.65629e-19)
(3.33884 -0.422458 0)
(3.0114 -0.34581 0)
(3.1699 -0.0530368 2.27718e-18)
(3.2927 -0.3287 -2.74198e-18)
(3.1038 -0.125776 0)
(-0.0566506 4.51564 0)
(0.0168214 3.93535 0)
(0.00876538 4.26594 0)
(-0.0265207 3.09646 0)
(-0.0128819 2.85171 0)
(-0.0304792 2.4247 0)
(2.97423 -0.00316929 0)
(2.85043 0.0486288 -1.805e-20)
(2.24691 3.04941 -3.215e-19)
(3.15695 0.0444553 -2.27825e-18)
(3.19037 0.278179 2.76933e-18)
(3.0828 0.117338 0)
(3.3954 0.328926 2.08727e-18)
(3.35695 0.484366 -2.70653e-18)
(3.07111 0.418429 0)
(-0.0547467 3.3467 0)
(0.00578703 3.27683 8.51852e-20)
(-0.0302787 2.57566 -6.03548e-20)
(3.70791 0.555321 2.26541e-18)
(3.47099 0.208501 0)
(-0.151984 1.27126 -2.16581e-18)
(-0.0624332 0.88216 -1.35027e-19)
(-0.0848384 1.33672 2.98544e-18)
(-0.0352366 1.27045 -8.99568e-19)
(-0.000495931 1.08841 0)
(-0.0266646 1.23955 6.9482e-19)
(-0.115054 1.38786 2.14643e-18)
(-0.0590499 1.34056 -1.31407e-18)
(-0.0767368 1.32063 0)
(1.28929 0.597214 0)
(1.17726 0.682378 0)
(3.55665 2.02951 9.53479e-19)
(3.04989 1.936 -1.19053e-18)
(3.83774 1.70662 0)
(3.38428 1.15687 0)
(3.34934 0.280496 -3.91678e-18)
(2.89884 0.173121 4.83972e-18)
(3.35145 -0.155478 0)
(2.85479 -0.0761356 0)
(3.43642 0.0430264 0)
(3.5938 0.145057 0)
(3.28683 0.119875 0)
(3.55033 0.298581 0)
(3.40841 0.293059 0)
(3.32755 0.218074 0)
(0.0972982 2.79194 0)
(0.0343393 2.08045 0)
(0.126584 3.05273 0)
(0.0927595 2.20648 0)
(0.214765 3.59372 0)
(0.140107 2.67382 -5.58546e-19)
(0.0533166 3.61002 0)
(0.0113027 3.01358 4.05596e-19)
(-0.02441 3.20263 -5.17003e-19)
(-0.0589632 2.79912 0)
(-0.022842 2.20169 0)
(-0.0718771 2.90679 0)
(-0.0555074 2.04962 0)
(-0.106694 4.74927 -2.45543e-19)
(-0.0790436 3.94034 2.77269e-19)
(-0.0742681 3.80116 3.09074e-19)
(-0.0526592 3.01535 0)
(-0.104367 3.80268 -4.58657e-19)
(-0.0370596 3.21393 -2.95052e-19)
(-0.0807875 4.78163 1.92543e-19)
(-0.0933111 4.46475 -3.50462e-19)
(-0.0685397 4.33449 -3.78929e-19)
(3.03133 0.0883887 3.35855e-18)
(2.28959 0.0321829 -4.22971e-18)
(2.89131 0.132847 -3.32747e-18)
(2.20957 0.07349 4.1562e-18)
(3.36858 0.0277288 0)
(2.64307 -0.00265029 0)
(3.45416 0.09136 0)
(3.32025 0.0192922 0)
(2.70666 0.00922886 0)
(3.68031 0.23965 0)
(3.43884 0.0960073 0)
(2.8637 0.0565207 0)
(-0.0210695 4.33546 -1.20277e-20)
(-0.0538311 4.65336 0)
(-0.0591666 4.54918 0)
(-0.0746539 3.50417 8.77165e-20)
(-0.0373179 2.77758 -3.46522e-21)
(-0.0791162 4.67001 1.13477e-19)
(-0.0931899 4.45852 -1.14675e-19)
(-0.0770239 3.95646 0)
(-0.0551804 3.87661 0)
(-0.0186961 3.99332 0)
(-0.0706993 3.25688 0)
(-0.0425506 2.30162 0)
(0.948798 3.66247 -6.08626e-19)
(0.921339 2.85385 -1.76282e-19)
(0.430131 2.05243 -2.28155e-19)
(0.252119 2.29865 6.96849e-19)
(1.02336 4.19972 2.63791e-19)
(3.43308 -0.167421 0)
(3.32213 -0.256546 0)
(2.88327 -0.189515 0)
(3.47032 -0.0643456 0)
(3.34581 -0.147864 0)
(3.44893 -0.261022 0)
(3.5195 -0.283601 0)
(3.57949 -0.281129 0)
(3.22413 0.0933886 3.61884e-18)
(2.55519 0.0645187 -4.57597e-18)
(3.09649 0.106579 -3.56229e-18)
(2.50909 0.0566756 4.43249e-18)
(2.24 3.41729 0)
(1.73983 2.94879 -4.45479e-19)
(2.56698 3.34914 -4.03119e-19)
(2.36972 2.5298 5.35788e-19)
(0.774422 1.21292 2.72199e-18)
(1.44675 0.216477 1.34311e-18)
(3.72257 0.304262 0)
(3.89316 0.572839 -1.8459e-18)
(3.29902 0.243966 -8.23361e-20)
(3.72079 0.440158 0)
(0.236576 1.31232 1.79593e-18)
(-0.0166649 1.20198 -2.87611e-18)
(0.0587922 0.769957 1.61439e-18)
(0.275918 0.464892 -7.47778e-19)
(0.187226 1.38373 8.7092e-19)
(0.0506343 1.23716 0)
(0.0577281 1.08616 -1.13219e-18)
(0.191689 1.44296 -4.09178e-18)
(0.328967 1.55694 0)
(0.00867325 1.2902 1.19578e-19)
(-0.00971743 1.45729 -1.34013e-18)
(-0.0410144 1.30282 1.94827e-18)
(-0.0574434 1.41766 0)
(-0.0204758 1.38228 0)
(0.681034 1.04982 0)
(2.45665 2.45509 -1.06612e-18)
(2.64421 2.17392 3.95172e-19)
(2.79264 2.88276 0)
(3.21305 3.06782 -3.94525e-19)
(3.16606 2.41192 2.84646e-20)
(0.803629 0.589297 -1.82223e-18)
(1.55579 0.691425 -1.62181e-20)
(1.23283 0.450979 8.72086e-19)
(1.27492 0.843567 5.95005e-20)
(0.938721 0.633772 -2.36929e-18)
(1.46412 0.714103 0)
(1.98968 1.09965 1.45582e-18)
(2.03184 1.01561 0)
(1.41167 0.790627 0)
(1.06187 0.549632 0)
(3.37538 2.18024 1.00842e-18)
(3.94759 0.760954 -1.86323e-18)
(3.84794 1.21615 0)
(3.53389 0.757829 0)
(1.3913 0.364749 1.3324e-18)
(3.2579 1.84223 -8.51442e-19)
(2.83421 1.65438 1.54673e-18)
(3.75522 1.3771 -1.83576e-18)
(3.09793 0.114762 2.46387e-18)
(3.16856 0.180818 -2.57882e-18)
(2.66183 0.0916429 0)
(3.30731 -0.0394951 0)
(3.20141 -0.0842557 -2.36641e-18)
(2.63244 -0.0321093 2.34556e-18)
(3.95629 0.0932078 0)
(3.75968 0.145656 0)
(3.69369 0.155374 0)
(3.5883 0.204749 0)
(3.83261 0.0590327 0)
(3.72611 0.0522538 0)
(-0.0401225 2.51405 0)
(-0.0377375 2.01296 0)
(0.35704 3.99014 -4.11321e-19)
(0.662942 3.33535 -1.59963e-19)
(0.259717 3.02944 -3.57902e-19)
(0.343893 2.54951 5.73275e-19)
(0.458337 4.01607 0)
(0.469884 4.67198 -5.09851e-19)
(0.383083 4.7304 0)
(0.910958 4.37503 -3.7947e-19)
(0.672958 3.81374 9.68737e-19)
(0.597224 4.65369 4.46917e-19)
(0.740847 4.20232 -1.87487e-19)
(0.602709 4.3277 1.50847e-19)
(0.916458 4.65783 -6.63711e-19)
(0.749867 4.66205 0)
(0.858503 4.58988 5.04497e-19)
(0.00708251 4.57147 -1.81138e-19)
(-0.0185155 3.64568 0)
(0.101567 4.28642 5.49611e-19)
(-0.00277759 4.38915 0)
(-0.00359969 3.45743 -4.51015e-19)
(-0.0152405 2.91082 0)
(-0.0999331 4.30951 -2.89123e-19)
(-0.105544 4.68187 0)
(-0.0529381 3.8073 0)
(-0.0397561 3.72963 3.25185e-19)
(-0.0468478 3.88661 1.03849e-20)
(-0.034561 3.70783 6.25877e-19)
(-0.0410218 2.94802 4.0685e-21)
(-0.113467 4.71024 1.80195e-19)
(-0.102341 4.74198 1.03222e-19)
(-0.0165832 2.62427 0)
(0.00134891 2.13634 0)
(-0.0413601 4.78937 4.86251e-19)
(-0.0481767 4.31005 4.23928e-19)
(-0.0827603 4.58574 -5.54176e-19)
(0.016527 4.75855 0)
(-0.0773629 4.53474 -3.08947e-19)
(-0.116784 4.16787 1.27664e-19)
(-0.0839963 4.24854 -4.12828e-20)
(-0.0696077 4.72915 -2.18909e-19)
(-0.0848314 4.26961 -6.85596e-20)
(-0.0832658 4.21449 3.06648e-19)
(2.87142 0.0610251 -2.36349e-18)
(2.85887 0.0497082 2.27296e-18)
(2.3386 0.0345587 0)
(3.51009 0.19204 3.04644e-18)
(2.70367 0.126547 -3.30468e-18)
(2.25448 0.0644879 3.60948e-18)
(3.68247 0.335346 -4.0163e-19)
(3.20989 -0.0485195 0)
(3.17213 -0.0135465 2.23696e-18)
(2.69091 -0.0123739 -2.21932e-18)
(3.87877 0.122255 -1.25235e-19)
(3.77177 0.101866 1.07831e-18)
(4.15977 0.173505 0)
(4.22847 0.181165 -3.75123e-19)
(4.01369 0.145246 0)
(3.69489 0.155414 0)
(4.0323 0.0950921 0)
(3.71179 0.0873368 0)
(4.18472 0.113897 7.85483e-19)
(4.1372 0.0791466 -1.74787e-18)
(4.14067 0.113899 -8.47989e-19)
(4.1864 0.116541 -9.24467e-19)
(4.2157 0.229032 1.77402e-18)
(3.85475 0.188642 0)
(4.06129 0.301939 0)
(-0.0712024 4.58007 -1.35711e-19)
(-0.0313551 4.64442 -1.16766e-20)
(-0.0644367 4.66092 0)
(-0.0540229 4.19627 1.38092e-19)
(-0.0522438 4.22403 2.25288e-20)
(-0.0571417 4.09198 -2.18341e-20)
(-0.0798045 3.52625 2.61156e-19)
(-0.14276 4.00628 -1.45138e-20)
(-0.101589 4.13371 7.47556e-20)
(-0.0737028 3.40223 -1.32257e-19)
(-0.0245266 2.92471 1.58392e-19)
(-0.0743599 4.42896 5.20876e-21)
(-0.0873112 4.64253 1.7221e-19)
(1.24335 4.36012 3.47378e-19)
(1.15951 4.52891 7.26028e-19)
(1.7368 3.46674 4.30768e-19)
(1.30881 3.56117 1.69461e-19)
(1.28658 2.89001 0)
(0.548317 2.31828 2.74856e-19)
(0.463438 1.74119 3.30647e-19)
(0.34494 2.56671 1.5089e-20)
(0.491902 3.17247 -1.16118e-18)
(0.631365 3.13151 8.76412e-19)
(0.432588 2.40391 0)
(0.293461 1.97148 -5.57197e-19)
(0.259674 3.07685 1.39454e-18)
(0.273205 2.71877 -3.13799e-20)
(0.157816 2.27552 -1.74779e-18)
(0.591314 1.41087 1.46322e-18)
(0.576245 1.61658 0)
(3.58364 -0.0751493 8.64321e-20)
(3.61861 -0.254101 -7.25956e-20)
(3.72135 -0.217712 -1.26653e-18)
(3.75927 -0.126018 1.28241e-18)
(3.67616 -0.0488553 0)
(2.44631 3.87164 0)
(2.61782 3.91472 0)
(2.88946 3.62561 0)
(2.73613 3.64272 0)
(0.854097 1.39428 -3.33967e-21)
(0.611433 1.03898 0)
(1.70878 3.38394 1.50203e-20)
(1.42067 3.46292 0)
(1.3263 2.95011 -1.28362e-18)
(1.4068 2.89283 8.24352e-19)
(1.79126 0.310396 0)
(1.43043 0.262016 3.52053e-19)
(2.41164 0.358828 2.19172e-18)
(1.78605 0.284835 -7.85402e-19)
(1.42631 0.112198 -2.49491e-18)
(4.26631 0.790106 -2.56539e-18)
(3.85196 0.995213 -3.6721e-20)
(3.29689 0.844638 2.06777e-18)
(3.87577 0.745474 1.81322e-18)
(3.12305 0.465689 -3.04495e-18)
(2.91021 0.452162 3.74977e-19)
(3.19248 0.682315 -8.18692e-19)
(2.97608 0.683405 0)
(3.75866 0.563996 1.53761e-18)
(4.09565 0.629409 0)
(4.09117 0.776484 0)
(4.04578 0.41593 8.23647e-19)
(4.29665 0.642597 -3.02467e-20)
(4.24946 0.71592 -4.52865e-19)
(4.1766 0.643303 0)
(3.61567 0.13042 1.71814e-18)
(4.19 0.183607 2.14414e-18)
(4.09068 0.151665 -1.67937e-18)
(4.13651 0.240884 -1.44282e-18)
(3.74573 0.238221 -2.15632e-18)
(3.30288 0.37597 0)
(3.40343 0.302414 0)
(2.55811 0.190651 -1.26602e-18)
(2.10846 0.119115 4.76754e-19)
(4.03722 0.352634 1.94029e-18)
(4.28774 0.43286 -2.34642e-18)
(4.28488 0.489489 2.06884e-18)
(4.15713 0.493546 0)
(4.25664 0.337316 0)
(4.26651 0.322402 -9.81914e-19)
(4.2143 0.316172 -1.59648e-18)
(2.22662 3.48713 6.20452e-19)
(1.93738 3.23073 -6.83327e-19)
(1.44558 2.35531 -1.03183e-18)
(1.18629 1.99618 2.66831e-19)
(0.883703 1.37806 -2.62853e-18)
(0.793615 1.21537 9.22077e-19)
(0.600732 0.903884 -1.97192e-21)
(1.11447 1.78463 -1.13779e-18)
(1.14178 1.88171 1.6985e-18)
(0.974298 1.70004 5.06047e-19)
(0.7859 1.28858 -5.12662e-19)
(0.635381 1.07436 0)
(2.4455 2.60674 -1.1543e-19)
(0.705135 1.14418 8.57195e-19)
(0.927711 0.889683 1.15614e-18)
(0.755241 0.813589 1.33769e-18)
(1.08306 0.7465 1.3411e-18)
(1.46686 1.04429 -2.27019e-18)
(1.38289 1.07118 1.83935e-18)
(1.00177 0.765489 -6.76725e-19)
(0.817009 0.567993 1.49458e-18)
(1.61548 0.490749 -7.78088e-19)
(1.55894 0.508322 0)
(1.23953 0.407331 4.60577e-21)
(2.50914 1.51587 7.75533e-19)
(2.07975 1.27012 -2.8085e-18)
(1.6866 1.18437 9.08688e-21)
(1.66066 1.09232 0)
(2.862 2.59507 8.73768e-19)
(3.44675 2.7529 1.03743e-18)
(3.25576 2.93079 -1.19591e-18)
(3.5542 2.76346 -4.28365e-19)
(3.48429 2.60375 -1.34885e-19)
(3.51246 2.7952 1.38777e-19)
(3.67421 2.26706 -1.67936e-18)
(3.70518 2.49211 4.00723e-19)
(3.78367 2.43589 0)
(3.78446 2.19165 -5.79682e-19)
(4.04896 1.07334 5.80539e-19)
(4.27597 0.993187 1.00212e-18)
(4.30041 0.966896 1.01163e-18)
(4.05502 1.32936 -1.14958e-18)
(4.10288 1.34979 0)
(4.15252 1.23375 0)
(3.32766 1.23573 -1.56066e-20)
(2.4177 0.666488 0)
(2.72183 0.744042 9.30624e-19)
(3.23824 0.885953 -2.64566e-20)
(3.77286 1.53469 5.10727e-18)
(3.56977 1.7619 1.31108e-18)
(3.4809 1.54048 -1.34062e-18)
(3.03731 1.36977 1.43738e-18)
(2.7606 1.36964 8.23736e-19)
(2.30652 1.15588 -7.97771e-19)
(3.67221 -0.0855426 1.98458e-18)
(3.8947 -0.0289322 0)
(3.85894 -0.0665486 1.34204e-18)
(3.74291 -0.0594083 -2.98768e-18)
(3.98056 0.0373779 1.46193e-18)
(3.90444 0.113427 -3.08287e-18)
(3.73986 0.128037 0)
(3.55625 0.173471 -6.28532e-19)
(3.81197 0.122982 1.60524e-18)
(3.69195 0.191385 -8.22539e-19)
(3.6003 0.171079 5.90701e-19)
(-0.0801467 2.5925 0)
(-0.0467153 3.3997 0)
(-0.0318888 2.46339 0)
(-0.0215621 1.9719 0)
(0.0463299 3.94214 6.70672e-19)
(0.14019 3.7236 -1.72942e-19)
(0.317296 4.64486 -2.29743e-19)
(0.253061 4.46225 2.42642e-19)
(-0.0246965 4.29494 -4.97573e-19)
(0.0123038 4.32699 3.73636e-19)
(0.0959073 3.87092 2.22702e-20)
(0.00998877 3.55838 -4.67102e-19)
(-0.0122601 3.31013 -6.22683e-20)
(-0.0390247 3.67236 -5.67418e-20)
(0.153312 4.47437 -5.86982e-19)
(0.178503 4.28776 0)
(0.275801 4.63473 2.96417e-19)
(0.26902 4.70949 2.52985e-19)
(0.595921 4.44416 -2.26024e-19)
(0.408071 3.77984 0)
(0.457218 3.62768 -1.11481e-18)
(0.559874 3.99655 7.89934e-19)
(0.480113 4.56168 -6.14804e-19)
(0.370514 4.43197 3.30772e-19)
(0.299458 4.15346 0)
(-0.0341549 4.76174 -5.53269e-19)
(-0.0739643 4.52615 -6.41468e-19)
(-0.0750943 4.73942 0)
(-0.0283811 4.35908 -6.24773e-21)
(-0.018453 4.64089 2.74273e-19)
(-0.117959 3.88297 4.47133e-20)
(-0.0548514 3.48763 -6.53888e-19)
(-0.0949707 3.92574 1.74204e-19)
(-0.134813 4.51857 2.32415e-19)
(-0.0754478 4.32898 0)
(-0.0591978 3.88776 0)
(-0.0818291 2.89949 2.00904e-19)
(-0.0471379 3.63313 -6.26909e-20)
(-0.0723067 3.6206 0)
(-0.0879155 2.68849 1.58181e-19)
(-0.0461892 2.19487 -3.06485e-19)
(3.76103 0.0323493 0)
(3.7319 0.0077514 -2.03273e-19)
(4.1795 0.067972 -1.43992e-18)
(4.08911 0.0463222 0)
(3.87634 0.0178329 0)
(4.14973 0.0370668 -1.25249e-20)
(4.1003 0.0349602 2.37889e-18)
(4.0001 0.0802228 2.84563e-18)
(3.75586 0.118678 0)
(3.55801 0.110063 0)
(4.01332 0.0939746 1.41746e-18)
(3.70324 0.11615 0)
(3.47209 0.128886 0)
(-0.0805982 4.69961 0)
(-0.10604 4.66814 1.0671e-20)
(-0.0764827 4.71975 6.29708e-20)
(-0.0603058 3.8334 0)
(-0.111671 4.53628 1.1126e-19)
(-0.0673781 4.24156 -6.33827e-20)
(-0.0535523 3.93073 0)
(1.41008 4.18549 0)
(1.20933 4.5805 -1.29803e-18)
(1.22464 4.48825 0)
(1.57394 4.48724 1.48441e-18)
(1.59329 4.12141 0)
(1.50165 4.3717 -6.06539e-19)
(1.01132 2.24239 -3.39456e-20)
(0.709058 1.64522 -1.74454e-18)
(0.590599 1.22736 2.12849e-18)
(0.708617 1.83474 3.9678e-19)
(0.974881 2.42386 0)
(1.03626 2.37895 0)
(0.718272 1.68713 0)
(0.532255 1.32996 -1.39511e-18)
(1.20856 3.77456 -9.83413e-19)
(1.12863 2.98858 -2.35485e-19)
(1.32673 3.40464 1.92586e-19)
(0.599161 2.04058 0)
(0.620112 1.94237 0)
(0.462156 1.57092 -3.92684e-19)
(0.95751 2.72013 0)
(2.68712 3.57099 0)
(2.38114 3.00846 -1.45453e-18)
(2.54578 3.02686 -8.58729e-20)
(2.41962 3.40426 0)
(2.28552 3.14926 2.22105e-18)
(3.27798 3.08682 -3.89691e-19)
(3.13406 3.32507 0)
(3.11645 3.15143 6.30429e-19)
(2.87042 3.4127 0)
(2.88191 3.20076 0)
(1.20911 2.00608 -9.30383e-19)
(1.41388 2.40307 -6.99499e-19)
(1.75337 2.98151 1.20595e-18)
(1.69555 2.9595 -3.62232e-19)
(1.06228 1.82202 0)
(1.20669 2.20823 4.7109e-19)
(0.718343 1.28855 -7.1517e-19)
(0.58156 1.04335 -5.60363e-22)
(1.93708 3.69547 0)
(2.19892 3.74285 -5.42592e-19)
(2.33815 3.98623 0)
(2.28408 0.529021 0)
(1.61734 0.341911 0)
(1.20902 0.276587 0)
(2.20912 0.554268 -1.4652e-18)
(1.63527 0.402197 8.17216e-19)
(2.14561 0.129125 -9.85134e-19)
(2.6266 0.297533 0)
(2.46566 0.301649 4.13474e-19)
(1.76987 0.13572 1.63294e-18)
(1.53026 0.0812685 -1.037e-18)
(0.745496 1.55583 8.58005e-19)
(0.959712 1.82029 0)
(0.537619 1.43996 1.5608e-18)
(0.523809 1.61477 -1.42517e-18)
(0.757121 1.81441 -9.88299e-19)
(2.07326 2.46254 1.33764e-18)
(2.0966 2.71193 0)
(1.58337 1.67802 -2.76335e-19)
(2.00957 1.98936 1.745e-18)
(1.35977 1.29253 -4.23562e-19)
(1.58857 1.31338 4.50667e-19)
(2.10951 1.51318 1.02314e-18)
(2.44264 1.67093 0)
(2.27593 1.85604 0)
(2.00983 1.60597 0)
(3.9568 2.07991 3.84483e-19)
(3.7598 1.88979 -1.26351e-18)
(3.8172 2.02812 1.04673e-18)
(3.90105 1.77151 -1.00828e-18)
(4.15789 1.67393 0)
(4.11697 1.84113 -2.97824e-19)
(2.84043 1.16333 -1.89723e-18)
(2.9708 1.16344 -2.41292e-18)
(2.33194 1.04356 1.45637e-18)
(2.13823 0.934433 -1.41978e-18)
(2.46347 0.846177 -1.17807e-18)
(2.17854 0.776947 1.44879e-18)
(4.00845 0.0334776 -1.52885e-18)
(4.05276 0.0406919 3.13012e-18)
(3.76797 -0.0658791 1.90085e-18)
(3.79119 -0.0737698 -2.28671e-18)
(3.95955 0.0105767 0)
(4.05604 0.0228813 -3.72971e-18)
(0.096625 4.76151 1.06548e-19)
(0.067447 4.73214 0)
(0.189482 4.73149 9.53538e-19)
(0.211057 4.74925 -8.67497e-19)
(0.230954 4.71905 4.2845e-19)
(0.121954 4.65912 0)
(-0.100644 4.77121 0)
(-0.106445 4.4044 -6.18491e-20)
(-0.10534 4.33359 5.54372e-20)
(-0.114069 4.48249 7.1835e-21)
(-0.104753 4.72136 -1.01165e-19)
(-0.0818775 4.70899 5.50885e-20)
(1.87532 4.00956 -1.6432e-18)
(1.81628 4.01605 1.74013e-18)
(1.68397 4.4066 -8.54217e-19)
(1.69267 4.27728 7.6122e-20)
(2.25268 4.08663 0)
(1.85457 4.22021 -6.35459e-19)
(1.98181 3.96005 6.16302e-19)
(1.82387 4.38112 8.34412e-19)
(2.07659 4.21939 0)
(2.22804 4.10038 0)
(1.13811 3.63057 1.49496e-18)
(0.826453 2.81102 2.02316e-18)
(0.954166 2.98939 -1.38949e-18)
(0.746379 2.97102 -2.3188e-19)
(0.902221 3.7301 4.66277e-19)
(0.721927 3.36258 -1.13394e-18)
(0.745627 1.46551 -1.21468e-18)
(0.746106 1.31673 0)
(0.602459 1.11433 -1.33511e-18)
(1.11074 2.06371 0)
(1.0877 2.15064 0)
(1.35838 2.19067 -1.09051e-18)
(1.06432 2.01402 -1.03592e-18)
(1.01668 2.03492 1.0986e-18)
(1.03095 1.51907 0)
(1.41016 1.76163 -6.01181e-19)
(1.62706 2.11882 -8.55382e-19)
(1.41059 2.08243 0)
(0.867673 1.8183 7.124e-19)
(0.779589 1.67938 0)
(2.90585 2.2888 -1.847e-18)
(3.31877 2.47055 2.60921e-18)
(3.27746 2.19306 -2.59329e-18)
(2.61013 2.02076 -2.3117e-19)
(2.72473 1.94025 -9.74119e-19)
(1.26168 2.18955 7.96102e-19)
(1.31581 2.24436 -1.3598e-18)
(1.45384 2.32932 1.79265e-18)
(1.79002 2.55931 -1.16514e-18)
(1.88859 2.93201 -1.5671e-18)
(1.56287 2.48838 -1.18792e-19)
(1.6326 2.6279 1.37115e-18)
(1.8097 2.69277 9.66093e-20)
(2.01757 2.99849 6.49949e-19)
)
;

boundaryField
{
    wall-4
    {
        type            noSlip;
    }
    velocity-inlet-5
    {
        type            fixedValue;
        value           uniform (3 0 0);
    }
    velocity-inlet-6
    {
        type            fixedValue;
        value           uniform (0 1 0);
    }
    pressure-outlet-7
    {
        type            zeroGradient;
    }
    wall-8
    {
        type            noSlip;
    }
    frontAndBackPlanes
    {
        type            empty;
    }
}


// ************************************************************************* //
