/*--------------------------------*- C++ -*----------------------------------*\
  =========                 |
  \\      /  F ield         | OpenFOAM: The Open Source CFD Toolbox
   \\    /   O peration     | Website:  https://openfoam.org
    \\  /    A nd           | Version:  9
     \\/     M anipulation  |
\*---------------------------------------------------------------------------*/
FoamFile
{
    format      ascii;
    class       volScalarField;
    location    "14";
    object      p;
}
// * * * * * * * * * * * * * * * * * * * * * * * * * * * * * * * * * * * * * //

dimensions      [0 2 -2 0 0 0 0];

internalField   nonuniform List<scalar> 
918
(
23.4493
23.6204
0.98614
22.8664
0.996277
23.1369
3.32911
13.806
19.2224
2.95234
2.64582
14.3882
20.6798
16.9212
13.0403
0.927865
14.048
2.28238
18.4399
1.40485
13.0339
20.428
21.5167
19.2643
14.1042
14.4132
18.6422
1.18438
0.114336
0.276136
0.969158
0.409243
0.155708
21.6738
22.3504
22.2887
15.4754
10.4331
3.64904
3.85074
3.03964
2.86067
13.8461
13.9437
5.89395
13.7882
13.786
16.6241
19.0904
19.234
19.5273
19.3163
19.7027
5.96605
2.80959
2.62906
2.89916
2.96922
2.97233
2.72079
2.70075
2.50619
2.35995
13.8691
14.4614
14.5163
14.2481
14.1959
22.4964
21.7395
22.0742
21.1806
21.326
20.2559
19.8703
17.2969
17.6493
16.5231
16.1422
12.83
12.79
13.2613
13.5096
0.148333
1.07449
1.2223
14.0534
14.0879
14.094
14.1105
8.30914
2.23023
2.23397
17.8802
17.4567
20.4617
20.7289
20.1759
19.9904
1.54266
1.54116
1.17123
1.19416
0.962786
13.37
13.5221
19.2157
18.3826
14.1358
14.037
14.111
11.4846
13.8935
13.9678
15.3662
15.8213
15.0098
15.4469
18.2121
17.7941
19.0787
19.516
0.405691
0.159775
0.692058
0.322975
0.520536
15.3438
15.1385
15.5905
15.6421
15.8733
10.4364
10.3632
10.4135
10.3335
4.19394
4.50586
2.30241
2.62418
2.47029
9.90395
13.9577
14.0011
4.84868
5.54539
5.21436
6.36709
6.73886
15.9899
16.4264
16.1652
17.7114
16.9164
17.2645
19.7933
19.2826
19.583
6.36317
6.60541
5.59958
5.24238
2.27376
2.51408
2.45698
3.00154
2.97962
3.20389
3.33676
2.68931
2.54691
2.91413
2.79832
2.8493
2.18903
2.05697
13.5933
13.3794
14.1318
14.3103
15.076
14.9278
14.6345
14.8031
19.0654
19.4689
19.5024
19.1182
11.5807
10.1722
13.7644
14.0391
0.303784
0.267664
0.136163
0.379253
0.398622
0.142526
2.01169
1.82303
1.40386
1.67804
14.0477
14.0058
8.55156
8.77398
8.14344
7.88426
16.2942
16.4445
17.0787
16.6784
1.9812
1.69306
1.82332
13.6791
13.5551
13.6606
10.9208
10.3571
11.9609
12.2301
13.98
14.0211
14.0182
15.7257
16.0441
19.8668
20.1375
19.9643
20.3501
21.4129
21.0642
20.6794
14.52
14.9282
14.7668
16.1078
15.7415
15.9609
15.1687
15.4735
15.3313
10.3935
10.4387
10.1554
10.2327
10.2789
10.2267
9.84079
9.71358
14.08
14.0405
14.0613
7.26106
7.75641
4.86143
4.53239
12.5259
13.1986
12.8747
18.6952
18.0175
18.7505
18.3796
17.9296
18.2532
10.4485
10.4074
10.4418
14.962
14.3007
14.6521
2.43141
2.07088
2.23463
8.97163
9.06476
6.97747
7.60242
7.26293
16.3457
16.6861
17.3662
16.478
16.9456
17.4529
17.231
9.97754
10.1097
10.0265
9.69834
9.59099
9.72656
8.33581
8.94598
3.60218
4.25774
3.95479
9.23367
9.46631
9.31242
18.6103
19.1451
0.780593
1.1837
19.5749
19.2986
0.146479
0.243534
14.2982
12.5902
7.27573
17.1771
16.6103
18.9498
3.19983
6.10329
2.82291
3.37862
2.68702
14.5946
14.2313
13.3233
0.462609
1.25805
1.71468
2.92438
18.3907
17.7156
18.8315
19.1517
19.206
0.693447
0.92785
0.587259
1.25859
1.04204
1.2837
15.5317
15.6286
4.36707
18.8385
19.1427
19.1605
17.6371
18.5898
17.6473
0.936464
0.642721
0.713567
10.0709
12.1079
14.2585
13.8108
14.0082
14.0305
13.7817
14.9143
14.5849
14.5489
15.0331
13.9773
13.8428
7.73577
6.39981
8.07316
7.71286
17.0785
16.6663
16.4738
16.2195
18.0649
17.591
18.4414
17.8297
18.2915
18.5784
2.95687
3.14439
3.02515
2.54049
6.14365
6.61484
5.48688
5.63042
4.25423
2.45372
2.54558
2.7657
2.60289
2.9347
2.68264
2.94273
2.57659
2.32467
2.32158
2.93057
2.74247
2.60518
14.5728
14.5116
14.3125
14.3506
14.3354
14.4506
13.5175
13.9214
13.5489
12.3838
12.9619
12.4892
0.826797
0.657305
0.530237
1.32896
1.35535
1.12059
0.846435
1.18736
1.2051
0.83399
1.54422
1.4611
3.17983
2.67873
8.87168
7.99428
6.89781
16.7809
17.5826
16.7523
17.9928
18.4097
18.5152
18.1356
17.6275
15.7092
15.7044
15.3645
15.3177
4.79259
3.77106
4.99149
4.56707
10.5073
14.0528
11.8282
10.7919
11.0853
13.4031
13.9747
13.6239
13.7681
13.3367
12.8627
13.5603
13.0908
13.192
12.9666
15.7623
16.2374
15.8439
15.2644
15.2844
10.6217
12.0204
5.49087
5.65686
7.2426
6.54204
13.5453
13.9402
13.9224
13.5783
13.7709
13.7573
13.6182
13.7887
13.878
13.77
11.8119
10.1322
9.03923
9.03376
14.0731
12.3402
12.9289
12.3952
16.1
16.6167
16.2313
15.6267
16.1115
15.5834
15.61
15.8227
17.1815
16.931
16.7009
17.0878
3.07229
3.01921
3.65437
3.15191
3.05235
2.84052
3.4951
4.75852
4.41864
6.72237
7.26516
4.58132
3.39415
3.80008
4.80671
5.53852
5.52004
3.97303
4.49804
4.92343
4.43966
5.22161
4.72504
2.73015
3.03153
2.8742
2.85007
3.38206
3.87454
3.37282
2.48789
2.60525
2.27787
2.14013
3.53758
3.00985
3.04536
3.68332
1.10924
1.33218
1.44799
2.41797
1.91573
1.97705
15.162
14.8059
14.9396
14.2186
14.287
14.2284
13.8518
15.2206
14.943
15.0422
13.6913
13.778
13.5915
13.8863
14.3002
14.5997
15.4322
15.153
14.3922
14.5438
14.1952
14.1232
13.4469
12.8823
12.8226
1.11268
0.82014
0.986735
0.922722
0.613888
0.8086
2.18253
1.57466
1.97533
1.72615
1.95844
1.42
1.3046
4.25995
5.05501
3.98117
3.38868
3.10445
8.92753
9.04126
8.18187
7.87297
8.21641
8.45271
8.4024
7.14436
7.57999
7.3894
9.95306
9.61787
17.5668
17.511
17.1822
17.0233
17.2497
5.77295
7.65476
6.80372
7.9224
10.2325
10.5353
9.31719
8.7173
9.47909
9.5479
14.0354
14.1129
13.5495
14.0356
14.0633
11.8164
12.8659
13.4784
13.29
13.814
13.8967
12.9618
13.548
13.4561
12.7357
12.7924
12.1108
12.4472
11.9738
11.7753
14.0351
13.9304
14.2
13.7504
14.1295
13.6961
14.0097
14.0097
14.2903
13.3905
12.8133
12.8341
13.2582
12.9556
13.3029
13.4649
9.30439
9.95462
10.4085
10.9478
10.6583
10.4345
10.3005
10.6044
10.5845
10.8523
10.7722
10.6187
11.5618
13.4579
13.7399
13.8491
13.6277
13.6726
13.3665
13.6453
13.5706
13.9171
14.011
14.0579
13.1429
13.3079
13.5112
13.3908
11.6725
10.0731
9.93651
9.49821
7.56991
8.04524
11.0073
9.89531
8.91384
8.98135
12.1537
10.7901
11.6012
12.0235
10.6762
10.2908
12.9585
13.7521
13.9698
13.6879
12.0446
12.1728
12.6232
13.0721
13.2656
13.7284
15.8407
16.416
16.494
16.2182
16.08
16.1796
15.9296
16.0328
16.5069
16.6334
16.4646
2.89787
3.00894
2.9418
2.86679
3.09706
2.87772
3.9596
3.95048
3.16805
3.34695
3.3652
3.47417
2.94497
2.9871
4.82074
5.0537
5.32919
4.8332
6.17199
6.82404
7.40559
7.08779
5.78636
5.86613
6.18294
3.51089
3.53155
3.25268
3.70437
3.76261
2.6252
2.25425
2.05492
2.57944
2.6783
2.06352
1.78269
1.83475
2.33965
2.0712
1.82167
14.9555
14.714
14.7353
14.5152
14.5698
14.9641
15.1849
14.9946
15.1327
15.1836
14.7832
14.6716
14.8429
1.82311
1.48399
1.63399
1.59057
1.63606
1.55098
1.73642
7.6103
6.40976
6.79234
5.98227
4.13467
4.64807
9.5701
9.99507
10.0338
9.74558
9.53248
9.89678
9.75143
9.74485
8.27236
9.35311
8.88082
9.29338
9.31577
9.38495
9.09039
9.07338
10.583
10.6122
9.47766
10.125
9.32755
7.93264
8.09675
9.10741
10.0773
10.4319
10.2725
9.99046
9.76396
10.143
10.1944
10.2603
10.2505
8.75396
8.70454
8.29403
13.9579
13.8668
14.0145
14.0179
14.148
13.9607
13.7978
14.0764
14.1314
13.9143
11.1011
11.1636
11.4095
12.1665
12.2198
12.1025
11.3484
13.1275
12.7743
13.4263
13.3676
13.4287
13.0117
12.8387
13.1172
10.0667
11.4382
10.9687
11.2344
10.0501
9.29869
13.2183
13.2685
13.3428
13.6187
13.5678
14.1565
15.8104
15.6802
15.7278
15.7709
15.3825
15.4195
4.17632
3.83332
4.54646
4.50703
4.06834
3.77193
2.2916
1.97743
1.79369
1.66701
1.89181
1.95189
8.15882
8.19196
6.32925
7.35631
5.8899
4.95184
4.80559
5.95846
7.13795
7.20313
8.52373
9.21479
8.77053
8.59794
7.9313
8.26538
10.151
10.2428
10.1441
10.4638
9.99662
11.7406
11.3226
11.6734
13.2962
12.9979
12.3962
12.2841
12.2539
12.8526
11.9408
11.1634
11.8806
12.5506
12.5065
11.1425
10.8965
11.3232
11.3
10.2103
10.7384
10.4992
10.8487
10.5551
)
;

boundaryField
{
    wall-4
    {
        type            zeroGradient;
    }
    velocity-inlet-5
    {
        type            zeroGradient;
    }
    velocity-inlet-6
    {
        type            zeroGradient;
    }
    pressure-outlet-7
    {
        type            fixedValue;
        value           uniform 0;
    }
    wall-8
    {
        type            zeroGradient;
    }
    frontAndBackPlanes
    {
        type            empty;
    }
}


// ************************************************************************* //
