/*--------------------------------*- C++ -*----------------------------------*\
  =========                 |
  \\      /  F ield         | OpenFOAM: The Open Source CFD Toolbox
   \\    /   O peration     | Website:  https://openfoam.org
    \\  /    A nd           | Version:  9
     \\/     M anipulation  |
\*---------------------------------------------------------------------------*/
FoamFile
{
    format      ascii;
    class       surfaceScalarField;
    location    "14";
    object      phi;
}
// * * * * * * * * * * * * * * * * * * * * * * * * * * * * * * * * * * * * * //

dimensions      [0 3 -1 0 0 0 0];

internalField   nonuniform List<scalar> 
1300
(
11.2529
1.87548
-4.34341
11.2529
-4.88419
1.87548
-4.19131
4.19131
-1.20141
1.20141
5.71232
5.54054
-2.38968
2.38968
-2.86871
2.86871
-2.86398
2.86398
-1.06194
1.06194
-1.02828
1.02828
0.697087
-0.697087
-3.35018
3.35018
-1.46482
1.46482
-2.89943
2.89943
6.12818
-6.12818
-3.3389
3.3389
-0.752988
0.752988
-4.26324
15.5161
6.98962
6.98962
-2.37721
2.37721
-1.25458
1.25458
1.41034
-1.41034
9.36132
-9.36132
-5.01791
-6.04298
1.86555
-13.7449
-3.01864
-3.01864
-2.7054
2.7054
-0.829928
1.04555
3.47583
-3.47583
-0.76927
0.76927
-4.26914
0.0778268
-4.26914
3.98461
0.206697
3.98461
-1.34276
0.141354
-1.34276
4.62406
-4.62406
1.09018
0.111227
1.09018
3.9278
-3.9278
-5.71004
11.4224
5.54282
-5.32062
20.8367
-5.93224
11.4728
-3.92142
3.92142
-2.30103
-0.0886478
-2.30103
2.39958
-0.0099047
2.39958
-3.96842
3.96842
-2.64998
-0.218722
-2.64998
2.98004
-0.111333
2.98004
3.66247
-3.66247
-2.91908
0.0550996
-2.91908
2.71286
0.151114
2.71286
0.771042
1.10443
-2.64652
3.69207
-1.10443
0.0424987
1.02614
0.0357986
1.02614
-1.01454
-0.0137423
-1.01454
1.04991
-0.0216306
1.04991
0.736954
-0.0398672
0.736954
-0.756678
0.0595912
-0.756678
-8.52816
-8.93326
-3.47962
0.129435
-3.47962
-1.48134
0.0165269
-1.48134
1.50276
-0.0379375
1.50276
-2.56161
2.56161
-3.22981
0.330379
-3.22981
4.80653
1.32166
4.80653
5.04614
6.20672
16.299
-16.299
10.1708
-3.04949
-0.289402
-3.04949
-3.52145
-5.83987
3.52145
-0.182556
-0.816529
0.0635411
-0.816529
5.62649
1.36313
5.62649
2.59168
0.121184
-2.59168
0.214471
4.61138
-4.61138
1.42703
0.950176
1.42703
-1.19133
1.19133
1.1236
-0.0736909
-1.1236
-0.130974
1.38601
0.0243346
1.38601
-1.40975
-0.000595381
-1.40975
7.42016
-13.4631
-7.89143
3.16076
0.189424
-3.16076
0.142116
3.56208
-0.086258
3.56208
-3.31066
3.31066
-3.61026
0.134438
-3.61026
-0.692543
-0.0767265
-0.692543
0.856038
-0.0867689
0.856038
-4.51359
0.24445
-4.51359
-3.65979
0.429984
3.65979
0.324821
1.27268
-1.27268
-1.44926
0.106502
-1.44926
-4.60011
0.0865272
4.60011
0.0239444
-4.725
0.100945
-4.725
-3.71204
0.101775
3.71204
0.21576
4.58916
1.03733
-4.58916
0.661362
-5.36951
11.5762
-5.88335
11.4262
-3.54865
-0.372765
-3.54865
4.10189
-0.180469
4.10189
2.57154
0.327891
-2.57154
0.270508
2.53378
-0.134194
2.53378
-3.92538
-0.0430437
-3.92538
3.7661
0.202325
3.7661
2.58092
-0.0471472
-2.58092
-0.069061
2.96461
0.015426
2.96461
3.66717
-0.00470443
3.66717
-3.53665
-0.125815
-3.53665
3.18076
-3.18076
3.08294
0.0978114
-3.08294
0.163868
-5.07402
5.07343
-0.00799932
-5.06602
1.01814
1.01814
0.779629
-0.0426756
0.77963
-0.862042
0.105364
-0.862042
8.35593
-16.2474
8.81717
-17.3453
7.43468
-21.1796
7.97614
-16.9094
3.77043
-3.77043
3.69874
0.071697
-3.69874
0.219121
-1.46174
-0.0196065
-1.46174
-2.32276
-0.238849
-2.32276
2.8967
-0.335091
2.8967
-3.74259
3.74259
-4.12508
0.382488
4.12508
0.681446
3.03141
-0.0667932
-3.03141
-0.0180864
0.93727
0.152911
-0.93727
0.12074
4.84231
-0.23093
4.84231
-4.07471
-0.53667
-4.07471
-1.47943
0.0176894
1.47943
-0.0523969
-1.25887
0.0675448
-1.25887
-5.0745
0.00847751
-5.0387
-1.40127
-1.40127
1.30414
4.9962
-3.58353
0.0468831
3.58353
-0.0214495
3.52776
0.214834
-3.52776
0.2171
-3.26464
0.0838868
3.26464
0.0460168
-0.669569
-0.022974
-0.669569
-1.05185
1.05185
-0.932903
-0.118946
0.932903
-0.0768646
1.43021
-0.157537
1.43021
1.48196
0.0207956
-1.48196
0.0326965
-4.97124
0.246238
-4.97124
4.10329
-0.00140228
4.10329
-3.94167
-0.133043
3.94167
-0.274502
-0.00372219
5.07715
-1.01442
-0.000123881
1.01442
-5.10149
5.10136
-0.67478
0.00521064
0.67478
0.10485
1.02943
0.161903
-1.02943
0.167383
3.79955
-0.0334556
-3.79955
0.0291192
-2.03829
-0.284471
-2.03829
-3.22174
-0.326914
3.22174
-0.325036
-5.11513
-0.0779937
5.19312
-5.13676
1.33687
0.0491397
-1.33687
5.1505
-1.16354
-0.109132
1.16354
-0.111695
1.63224
-0.202025
1.63224
5.09008
-0.247763
-5.09008
0.118837
-4.10691
0.181533
4.10691
-0.0036203
-1.80503
-0.233261
1.80503
-0.172796
-13.128
14.4911
7.70875
-6.39181
-7.07133
-12.2317
4.4472
7.12903
14.618
-11.5818
-9.59782
-11.4397
2.86042
-2.69303
-3.75502
3.71515
23.4398
-23.3388
-18.3997
19.0811
20.7763
-20.5605
5.70868
5.71368
15.8288
-15.9175
-21.0168
20.644
15.5601
-15.7788
21.9529
-21.996
-25.5949
25.5614
-16.1074
16.1625
-20.2832
20.1574
-21.0368
20.7623
-8.27831
-9.06701
16.2513
-16.1219
20.378
-20.6674
-19.2237
19.5541
10.0473
4.44376
11.0847
-6.24681
11.9555
-5.22597
12.9347
8.38477
-16.6631
7.86259
-14.9339
9.29183
11.0861
-9.10928
-3.1224
-17.9665
17.8802
-17.2606
17.3066
23.8698
-23.792
-6.17275
11.8864
-5.25343
12.3825
-11.4091
-6.99061
10.0874
4.53059
8.81465
7.4367
-9.00407
-2.4356
-24.7285
24.4808
-25.6199
25.0832
0.0972957
2.42757
-2.52487
1.35187
-0.859099
3.28667
2.00132
2.10668
2.45246
-2.29056
0.240572
-2.76544
-2.89642
-5.40103
5.50754
5.22789
-5.11666
16.3998
7.03998
16.4238
-16.6578
-6.68107
-16.4115
11.3644
7.71678
11.7468
12.0605
8.71575
12.1623
10.3594
-10.3315
-0.0278874
-11.4774
21.8368
1.55496
-18.468
-13.9374
8.87143
6.95742
8.86152
-9.85508
-6.06242
-9.58457
-11.1151
-9.90171
-11.442
12.377
8.26699
12.1966
-15.308
15.3044
9.42751
6.13255
9.31618
-9.05601
-6.72278
-9.12507
27.3539
-6.57223
-20.7817
-13.0919
-12.503
12.8896
9.06335
14.1763
11.3852
14.2054
8.82213
18.5318
-17.8855
5.38247
-9.95366
-6.15373
-9.7898
9.2707
6.89179
9.42181
-11.7621
-8.52109
-11.7152
-11.9779
-9.05894
11.9826
8.17478
-12.5178
-13.102
12.6509
8.11147
7.78969
-17.3875
9.11972
-18.1867
-10.7975
-5.32446
-10.5783
10.8334
6.58344
-17.4168
-5.8297
23.886
-12.7999
20.7636
-11.1204
-9.547
-11.1385
-14.647
-4.57673
-14.217
-8.10488
7.82041
-8.93368
8.59859
26.9508
-16.1939
-10.7569
-12.378
-8.18247
11.7167
-0.632014
-12.836
12.8081
-0.880494
12.0542
16.498
15.866
-10.8817
-6.37889
-10.6646
10.2739
7.03277
10.3578
15.9262
7.94355
16.1329
-16.6313
-7.16061
-16.3869
4.92031
-4.99704
5.73616
-5.71847
15.5419
9.54132
-15.311
-9.41759
22.9682
-10.784
-12.1842
-5.13085
5.2549
-0.124046
-1.84418
-0.492305
0.260684
-1.93839
-1.81663
1.8788
0.227885
5.48278
3.66615
-2.41419
2.48174
2.77893
2.70524
-0.191176
2.5363
-2.53109
19.0592
-11.5348
-7.52433
13.8227
-13.7362
-2.56418
-19.218
16.6538
2.68756
3.05645
-2.9929
-3.98531
-1.41573
-3.95261
2.99849
2.2294
3.1514
2.12346
3.38408
-8.19402
1.59123
6.60279
-6.07056
-3.52543
-13.353
-6.33073
19.6837
16.6056
7.87519
-16.7244
0.312897
5.32923
-5.36717
-1.55651
-11.7965
8.44788
-10.0044
-15.2654
-6.43307
21.6984
-9.58157
-1.08308
9.36673
2.38012
-10.8758
-7.09067
10.7414
1.42091
-12.0637
23.9718
-11.9081
-18.4426
8.51643
13.3203
16.2332
-17.8629
9.31799
8.54488
-4.54255
7.4753
1.38622
7.34111
-19.8296
13.7672
11.2518
8.30229
-11.5797
1.9951
-17.8345
25.1194
-22.1822
-2.9372
12.8492
12.2702
13.5949
13.3559
-7.88494
21.4799
-3.53193
-18.6502
21.3665
-13.0642
15.6761
-28.7403
-29.032
10.3817
-18.0242
22.036
-4.01179
-5.16512
-10.1429
23.1893
-2.05228
-21.137
10.1443
-13.9752
-11.8455
25.8208
-20.5475
18.5683
-6.34355
-12.2248
-12.6338
-9.3622
12.4522
2.85216
-25.7168
31.0993
-7.18502
7.95302
1.36316
7.96845
10.6436
-15.8994
5.25577
9.90386
-16.2474
6.84823
-22.7476
-12.0743
23.9897
-11.9154
-17.3988
-15.6706
-1.72812
4.80307
26.2962
-16.1883
11.9719
4.21635
8.46639
1.89138
-8.5642
-1.2256
0.975239
16.1046
-17.0798
10.3971
10.5182
11.7333
4.37128
10.7669
7.11339
-10.7454
-0.969836
-14.7855
5.72657
-6.61073
-14.5593
20.2858
-16.2655
1.70624
-10.3019
-13.9984
24.3003
-16.4556
11.4288
12.5431
18.4616
-19.6155
5.6171
-9.7508
-9.86472
10.6484
-17.2591
7.4872
12.7986
15.5987
2.49662
12.698
11.2916
-19.2815
1.09476
18.7283
-16.2928
3.87818
10.3272
-15.8501
0.179444
-10.3989
2.62029
-15.4202
-14.7965
16.3984
-20.9752
-12.3418
13.4153
2.71767
-13.7401
-0.476896
-5.03058
-3.0743
-5.26384
-3.31003
-5.62365
-11.195
-1.95791
-9.23706
5.8625
-6.76562
-4.67638
7.09065
1.50794
-5.02132
4.91219
-5.67368
5.47166
-0.210565
13.0187
15.6554
7.47292
-8.47612
15.949
-15.5262
23.4697
-29.6232
14.097
15.8863
-23.0469
-13.7369
2.74653
2.17378
2.65976
13.6115
-14.579
0.967523
-13.4367
17.7652
-4.32857
-19.8333
6.39666
-6.22187
5.21268
0.523483
5.19307
1.42565
6.86132
-8.28697
-4.29282
-4.34521
-9.14432
-13.8522
22.9965
4.77497
-13.1163
8.3413
-12.1041
16.8791
0.106357
-13.2226
17.035
-10.1736
17.5584
-11.9977
5.56069
12.7946
22.367
-9.57237
16.23
-6.68871
7.03977
-16.6121
-6.81245
-11.2985
18.1903
-13.0018
14.708
-1.11049
15.8185
-13.8008
3.01682
-2.06752
8.45072
8.66519
16.8105
-12.4392
11.9858
-18.6745
-4.62631
-16.1779
-3.37929
1.04292
-13.8977
12.8548
12.1807
-11.1377
-3.28628
9.11549
-5.82921
5.76999
-2.88591
-2.88409
-1.87559
-3.12145
1.89856
0.637734
6.40773
0.498871
-3.38478
-2.03221
-1.92737
10.4286
8.63053
-3.89797
3.77393
3.63729
-0.580843
0.971143
2.18026
4.66012
-3.68898
0.691906
3.96822
-2.301
3.8596
1.46963
-3.88039
-0.0722147
-3.42152
11.8694
3.18127
-5.41067
1.72168
2.35899
-13.8938
19.716
-11.4161
-8.29985
22.0749
3.02566
-14.4418
16.1924
-13.5048
8.05595
-14.3867
-6.38583
-19.8906
-12.8506
-10.7363
19.0776
-12.2603
20.1355
3.81221
-20.4484
24.2606
-12.7742
6.34114
-9.50799
10.9776
-4.10486
-5.40313
11.3091
10.3894
-11.0649
-0.731538
0.244148
8.48472
-8.24057
-1.51968
-7.59024
-16.4076
17.8285
-8.25724
17.5752
7.6918
-7.63254
25.2078
6.56647
-14.199
-11.8761
-12.9592
-5.65413
10.5791
-1.83341
-7.29165
-14.0582
7.3388
0.00230623
-19.0216
22.0688
-3.04726
-12.0641
-1.70307
14.5522
-18.1348
1.88742
-11.2866
10.7822
12.1685
12.1708
-20.8918
-0.24516
-12.6248
3.22937
-15.8542
15.4996
-6.86532
17.247
-16.1225
11.4461
-14.6145
14.3098
-1.54439
14.6717
-9.41595
6.10996
-15.4722
-12.62
14.5673
-8.43476
15.9305
-10.201
26.1315
-17.386
14.5959
11.5356
-2.78148
-8.35698
-14.1406
11.3591
0.455331
8.42378
17.8331
-10.7197
16.8633
8.91692
-18.6677
-8.34222
-25.8607
7.19301
-13.3177
-7.35477
14.5478
11.1068
12.9982
4.68306
-11.7726
17.7265
-19.4546
-5.8111
-8.98543
14.7493
-3.39021
10.2179
-19.2033
-5.20229
13.1487
-0.209657
-12.939
3.04521
-15.387
5.13384
-20.5209
15.8413
-16.3182
1.80137
-8.02324
-3.21995
-3.33165
-2.20579
-3.46789
-7.68342
5.47763
-1.28676
3.62543
-12.6346
12.425
-5.13062
10.6082
-4.12462
-1.13923
4.29741
1.17424
11.7825
3.04402
-16.7809
-9.32962
14.7299
-5.4003
1.09901
-10.8537
3.87621
8.05623
14.0187
-24.7101
1.66315
-15.1177
-4.13676
6.31054
4.97872
17.1594
2.58039
6.65774
-0.3472
9.23813
2.31256
2.2357
-11.2744
12.2419
1.58045
15.6774
-1.88698
7.44767
3.30609
3.32262
2.04455
5.73622
2.92897
8.75304
0.466067
-3.87915
2.08963
-4.01699
-1.29515
-4.05967
-0.34452
3.76317
-4.10769
10.6045
-1.97401
5.20424
-1.93587
-5.00831
6.94417
-9.4602
-5.58915
-1.62093
-5.68239
7.40408
6.18701
-5.78315
-3.67705
2.42566
-15.2763
11.961
-12.6926
-2.3032
21.9574
-9.52427
1.2837
-3.18313
-6.30655
-7.72227
7.79449
24.1905
1.01724
12.2824
18.8457
11.755
1.03529
12.0704
-16.0822
-10.6772
-16.3273
-0.827754
13.7245
5.66544
20.6308
17.201
13.8108
-5.39251
-24.8471
20.7614
-8.51951
16.4328
-3.49377
-17.0271
14.543
8.92675
-17.2606
0.942421
-16.0847
-24.6042
-0.355877
12.7809
-11.4266
10.2874
7.21309
2.02397
-2.46623
-0.865415
2.58518
-0.349479
8.88866
-0.178444
-8.30255
8.481
-3.58473
2.28958
-0.473651
4.24758
6.47052
4.49651
-3.80604
-7.91373
-8.87641
-5.01741
-17.1763
2.50745
-8.69446
5.76116
-3.47158
2.87707
5.00942
10.2137
-1.61171
-9.52602
7.44091
-4.56384
5.64982
)
;

boundaryField
{
    wall-4
    {
        type            calculated;
        value           uniform 0;
    }
    velocity-inlet-5
    {
        type            calculated;
        value           uniform -11.2529;
    }
    velocity-inlet-6
    {
        type            calculated;
        value           uniform -1.87548;
    }
    pressure-outlet-7
    {
        type            calculated;
        value           nonuniform List<scalar> 8(4.34341 4.88419 11.0609 11.8794 17.4614 15.3116 17.1731 15.4108);
    }
    wall-8
    {
        type            calculated;
        value           uniform 0;
    }
    frontAndBackPlanes
    {
        type            empty;
        value           nonuniform List<scalar> 0();
    }
}


// ************************************************************************* //
