/*--------------------------------*- C++ -*----------------------------------*\
  =========                 |
  \\      /  F ield         | OpenFOAM: The Open Source CFD Toolbox
   \\    /   O peration     | Website:  https://openfoam.org
    \\  /    A nd           | Version:  9
     \\/     M anipulation  |
\*---------------------------------------------------------------------------*/
FoamFile
{
    format      ascii;
    class       volVectorField;
    location    "14";
    object      U;
}
// * * * * * * * * * * * * * * * * * * * * * * * * * * * * * * * * * * * * * //

dimensions      [0 1 -1 0 0 0 0];

internalField   nonuniform List<vector> 
918
(
(2.47629 -0.138942 0)
(0.108704 0.722546 0)
(0.174382 1.09896 0)
(2.31834 0.153729 0)
(-0.0583067 1.23899 -1.2026e-19)
(-0.0924034 0.643931 -5.32426e-18)
(0.522707 0.839543 -3.00482e-19)
(0.277372 0.154387 -2.99274e-20)
(3.00615 -0.0195647 0)
(-0.00907694 0.479824 0)
(-0.0182089 0.599948 0)
(0.605987 0.00667465 0)
(0.0107054 0.439105 0)
(-0.0028885 0.4217 0)
(0.0139869 0.342767 -1.30991e-18)
(-0.00543858 0.753186 -9.2132e-20)
(0.314083 0.0745233 2.15162e-18)
(0.0784079 0.640773 -2.26504e-19)
(1.52887 0.12862 0)
(-0.0285741 0.704448 0)
(0.197238 0.159506 -1.26953e-18)
(3.08302 -0.397379 0)
(2.92445 -0.505987 0)
(1.86116 -0.181104 0)
(0.512638 0.0401036 0)
(-0.0253253 0.521545 0)
(-0.00135333 0.494038 1.86671e-18)
(-0.0243837 1.44807 0)
(0.0736287 2.96182 0)
(0.170117 1.79633 0)
(-0.0409726 3.09527 0)
(0.0260406 1.6002 9.24626e-20)
(0.0220268 0.670969 0)
(-0.147425 0.775094 -2.03505e-22)
(-0.193914 1.0291 4.42992e-18)
(-0.0415772 1.04471 0)
(0.744362 -0.0060329 0)
(0.163588 0.250094 6.67429e-19)
(0.97962 1.49486 6.61152e-19)
(0.64042 0.77381 -5.22417e-19)
(0.789073 1.5576 6.31944e-20)
(0.411772 0.842841 -3.26344e-19)
(0.558776 0.30993 2.94331e-20)
(0.299945 0.154947 0)
(0.951725 0.559566 0)
(0.53966 0.30764 1.32259e-19)
(0.261331 0.164678 -1.35717e-19)
(0.871528 -0.0554911 0)
(3.02784 -0.00171294 0)
(3.00685 0.0178615 0)
(3.20086 -0.417742 0)
(3.04288 -0.0742207 0)
(3.03116 -0.0388465 0)
(0.0175728 0.908444 -1.14487e-18)
(-0.05395 0.977777 0)
(0.00256231 0.456761 0)
(-0.0295179 0.987779 0)
(-0.0121497 0.486178 0)
(-0.00222562 0.862702 0)
(-0.0528843 1.12899 0)
(-0.0128797 0.550574 0)
(-0.0269851 1.18507 0)
(-0.00689158 0.634709 0)
(0.789634 0.0115011 0)
(1.17079 -0.00167528 0)
(0.618847 0.0123226 0)
(1.12749 0.0175767 0)
(0.570648 0.008618 0)
(0.225406 0.921982 1.96379e-18)
(0.0985379 1.2081 0)
(0.176302 1.06604 0)
(0.0331901 0.755774 2.20397e-23)
(0.0372233 0.498055 -2.937e-18)
(0.0194616 0.747943 0)
(0.0059542 0.422033 0)
(-0.000701358 0.734555 4.52904e-24)
(0.000700948 0.414827 0)
(-0.0169436 0.743207 0)
(-0.0129571 0.428014 0)
(0.0508257 0.654874 0)
(0.0495994 0.46251 0)
(0.00881721 0.624543 1.2385e-18)
(0.0011613 0.345657 0)
(-0.0785038 4.65949 0)
(0.0077801 1.43044 9.14679e-20)
(-0.0104629 0.771413 -1.17554e-19)
(0.639729 0.152847 -7.50689e-19)
(0.323047 0.0658105 -7.28312e-19)
(0.649156 0.170703 -2.25422e-18)
(0.31957 0.0960583 -1.45172e-18)
(0.0794608 0.627307 0)
(0.176422 1.30701 1.8847e-19)
(0.177701 0.725867 -3.00727e-19)
(2.06036 0.260923 0)
(1.10708 0.118438 0)
(3.03313 0.103883 0)
(3.10393 0.446055 0)
(2.8392 0.377447 -1.01176e-17)
(2.57811 0.361306 7.76347e-18)
(-0.0718624 1.29738 0)
(-0.0115576 0.64101 0)
(-0.0171761 1.96345 0)
(-0.0537779 1.38851 0)
(-0.0500921 0.700257 0)
(0.445776 0.300014 4.01863e-19)
(0.228181 0.165512 0)
(2.29607 -0.266408 0)
(1.3237 -0.119283 0)
(1.07836 0.0125266 0)
(1.01446 0.0186724 0)
(0.541982 0.0107143 0)
(1.01669 0.0559462 0)
(0.823437 0.0705385 0)
(0.344442 0.0287481 3.35941e-18)
(-0.00545751 0.451511 1.77874e-18)
(-0.027097 0.784721 0)
(-0.0475445 0.847805 0)
(-0.0153185 0.460582 0)
(0.000131577 0.839724 1.82035e-18)
(7.18969e-05 0.487529 0)
(-0.00547904 0.845554 -5.60338e-18)
(-0.00488637 0.496761 1.89067e-18)
(0.0485599 3.6429 0)
(0.035917 4.08647 0)
(-0.0165589 1.38102 -2.06764e-21)
(-0.0144535 1.33296 0)
(-0.00996726 0.725844 0)
(1.4097 0.0348073 0)
(0.760231 0.0153789 0)
(0.709725 0.0142425 0)
(1.41584 -0.0328948 0)
(0.773356 -0.00877143 0)
(0.327313 0.487826 -8.38002e-19)
(0.15915 0.236111 0)
(0.330418 0.517548 9.39302e-20)
(0.16606 0.272792 0)
(1.22428 1.36738 1.68409e-19)
(0.768048 0.730565 -3.96121e-19)
(0.407956 1.4111 0)
(0.600346 1.51933 0)
(0.300193 0.808417 0)
(0.147956 0.3597 -4.44547e-19)
(0.613581 0.283276 0)
(0.316088 0.135545 3.99089e-19)
(1.40924 1.28862 0)
(1.56832 1.15352 0)
(0.863956 0.655093 4.6492e-19)
(1.716 0.942184 0)
(1.0581 0.433955 2.29635e-20)
(1.47274 0.00808902 0)
(1.50085 -0.02927 0)
(0.801789 -0.00443748 0)
(1.95037 -0.199798 0)
(1.65072 -0.148203 0)
(1.05211 -0.0889812 0)
(3.06126 0.164846 0)
(3.03105 0.0687785 0)
(3.01022 0.0531537 0)
(0.0333628 1.6171 6.07569e-19)
(0.0168472 0.835444 0)
(0.0162707 1.70348 1.07825e-18)
(0.00201257 0.941588 -9.69359e-19)
(0.06373 1.14997 1.90789e-19)
(0.0473142 0.990266 0)
(0.0391892 0.529649 0)
(-0.0298344 1.01539 0)
(-0.00770277 0.523562 0)
(0.01656 1.60469 -4.41989e-21)
(-0.0187619 0.861627 0)
(-0.0540848 1.56935 -2.25052e-19)
(-0.0163081 0.812454 4.35805e-19)
(-0.00290054 1.04289 0)
(0.0096964 1.05954 0)
(-0.000554146 0.539241 0)
(0.00897352 1.1975 0)
(0.000124546 0.627654 0)
(1.46646 -0.00400868 0)
(0.788095 0.00790317 0)
(1.43923 0.0330127 0)
(0.761189 -0.000620604 0)
(0.675764 0.0052937 0)
(1.26279 0.0165936 0)
(1.20345 0.0472602 0)
(0.660187 0.0155001 0)
(-0.00580078 1.42077 -1.70604e-20)
(0.000184242 1.37708 0)
(0.00482007 0.732923 0)
(0.00172886 0.417221 0)
(0.288929 0.838296 0)
(0.257352 0.405014 -2.87631e-19)
(-0.00165271 0.636207 0)
(-0.00871594 0.367697 0)
(-2.85404e-05 4.37614 0)
(-0.0593455 4.65052 0)
(-0.0307044 4.57975 0)
(-0.076034 3.3018 2.07275e-20)
(-0.0705015 4.55515 0)
(-0.0603472 4.11682 0)
(0.00399364 0.806966 1.07237e-20)
(0.0131167 1.53772 1.65051e-19)
(-0.035572 1.47685 1.20783e-19)
(-0.00798815 0.812327 0)
(0.667491 0.106085 1.15249e-18)
(0.326839 0.0441868 -1.12949e-18)
(0.151426 1.15018 0)
(0.102383 0.582021 -2.70192e-19)
(0.119804 1.25058 -8.76772e-19)
(0.0523051 0.696772 8.72275e-19)
(0.809312 0.0240387 0)
(1.55693 0.0476387 0)
(1.70979 0.127631 0)
(0.919912 0.0445078 0)
(0.0069735 1.21156 0)
(0.0246067 1.22211 0)
(0.00382399 0.644224 0)
(0.489083 0.319522 1.20605e-18)
(0.44307 0.313809 -1.38987e-18)
(0.237947 0.166389 0)
(1.92824 0.151307 1.15087e-19)
(1.13154 0.0922879 0)
(1.71939 0.117782 0)
(0.881493 0.0223793 0)
(0.68066 0.0858657 0)
(0.701804 0.0461874 -5.40195e-18)
(0.347628 0.0326064 1.9971e-18)
(0.0090931 0.807197 1.69841e-18)
(0.00220607 0.462477 4.08129e-20)
(-0.0108777 1.40842 -3.58801e-20)
(0.00613615 1.38675 1.36884e-18)
(-0.0149832 0.848955 6.30838e-20)
(-0.0119261 0.524486 -2.53457e-22)
(-0.107514 1.00068 -1.16731e-18)
(-0.0529602 1.3532 8.35732e-19)
(-0.0175323 1.35275 -1.36071e-18)
(1.42175 -0.0171858 0)
(1.44164 0.020196 0)
(0.76941 -0.000255089 0)
(1.45242 0.025344 0)
(1.36353 0.046199 0)
(0.761694 0.0202815 0)
(1.30126 -0.00221673 0)
(1.31913 -0.00591791 0)
(0.695348 -0.00103521 0)
(0.309433 0.480622 -9.17194e-19)
(0.163736 0.246224 0)
(0.159745 0.313399 1.37436e-19)
(0.314656 0.595713 1.12593e-18)
(0.312549 0.557832 -6.66542e-19)
(0.159354 0.286524 1.30242e-18)
(0.28324 0.730623 2.18985e-18)
(0.150793 0.387472 3.9519e-19)
(0.640987 0.214693 1.53776e-18)
(0.631461 0.255731 3.99422e-19)
(0.31884 0.115712 7.49593e-19)
(1.90471 0.706576 -6.00688e-19)
(1.15863 0.33252 -7.02447e-19)
(-0.0368017 1.70612 4.63452e-19)
(-0.0125356 0.925814 0)
(1.60026 0.023266 0)
(1.51942 0.0650066 0)
(0.851387 0.0265696 0)
(-0.00355933 1.38473 0)
(0.00507278 0.729575 2.5012e-18)
(0.00465006 0.731252 0)
(0.00207043 0.415098 -2.44811e-18)
(-0.0102777 1.38627 5.97147e-19)
(-0.00947411 1.4225 0)
(0.341552 0.495338 2.58474e-19)
(0.365225 0.554216 -8.64655e-19)
(0.174338 0.261514 7.82572e-19)
(-0.0256988 0.767301 -1.66752e-18)
(-0.0260319 0.689715 0)
(-0.0154066 0.412823 0)
(0.0293114 1.5305 -1.25913e-20)
(0.0301184 1.55881 -3.63967e-19)
(0.0170209 0.812366 -1.54338e-20)
(0.216443 1.05998 8.932e-19)
(0.121276 0.51685 -5.9438e-19)
(0.0107787 1.50004 7.31525e-19)
(0.0552586 1.36786 -8.16873e-19)
(0.0262827 0.769521 3.57444e-20)
(0.00747859 1.36614 -3.81778e-18)
(-0.000245184 1.39327 4.4212e-18)
(0.0037687 0.829771 1.73739e-18)
(-0.0138478 0.805073 -1.73009e-18)
(-0.00431365 0.481391 -1.74305e-18)
(-0.0106584 1.41685 -4.51126e-18)
(-0.0152287 1.40032 4.60071e-18)
(0.291663 0.686757 0)
(0.305064 0.64539 -2.29609e-18)
(0.154646 0.337343 9.94048e-19)
(0.286304 0.809955 1.18974e-18)
(0.141247 0.435047 -1.83569e-18)
(2.04657 0.319344 4.15458e-19)
(2.03772 0.542005 0)
(1.21154 0.218931 -4.01655e-19)
(-0.0744308 1.62862 -4.79182e-21)
(-0.0162234 1.68854 0)
(-0.0167647 0.919697 0)
(0.23007 0.95974 -3.23908e-19)
(0.252165 0.881577 -7.09498e-19)
(0.130702 0.471173 1.32971e-18)
(3.16441 -0.442893 0)
(3.34727 -0.414707 1.81095e-18)
(0.0553514 3.54998 0)
(0.0439918 2.88377 0)
(3.15926 0.249894 1.41888e-20)
(3.12355 0.506274 3.70833e-18)
(0.0188458 3.36896 -2.78198e-20)
(0.00780132 2.60823 0)
(-0.041148 1.19628 1.55991e-18)
(0.194633 1.32527 0)
(3.44857 1.60927 -3.25129e-19)
(3.17436 0.272513 -2.96114e-20)
(3.14823 -0.118788 0)
(3.10047 -0.000431113 3.70529e-22)
(0.0391656 2.58636 0)
(0.151361 3.32224 0)
(-0.0604098 2.56319 0)
(-0.0305048 3.47144 3.15688e-19)
(-0.0310754 3.53869 1.99313e-19)
(2.63584 0.0482722 -1.36282e-20)
(3.04568 0.030511 0)
(3.1545 0.0857482 0)
(-0.064122 4.60767 0)
(-0.0493821 3.03174 0)
(-0.0773826 2.9936 0)
(0.642427 3.07904 2.67963e-19)
(3.33882 -0.422496 0)
(3.01135 -0.345838 0)
(3.1699 -0.0530706 2.27483e-18)
(3.2927 -0.328726 -2.73919e-18)
(3.10381 -0.125795 0)
(-0.0712702 4.5263 0)
(0.00478373 3.98983 0)
(-0.00397552 4.30009 0)
(-0.0337316 3.15746 0)
(-0.0186851 2.92043 0)
(-0.0365196 2.49784 0)
(2.97364 -0.00338711 0)
(2.85103 0.0484356 -1.80463e-20)
(2.21922 3.01512 -3.25711e-19)
(3.15695 0.0444228 -2.27589e-18)
(3.19037 0.278154 2.76652e-18)
(3.0828 0.117318 0)
(3.39544 0.328849 2.0849e-18)
(3.35698 0.484335 -2.70371e-18)
(3.07116 0.418405 0)
(-0.0573316 3.2914 0)
(0.00336107 3.21483 8.56666e-20)
(-0.0316054 2.52216 -6.06732e-20)
(3.6969 0.550023 2.26358e-18)
(3.46492 0.206016 0)
(-0.150703 1.27145 -2.17273e-18)
(-0.0608583 0.881951 -1.35477e-19)
(-0.0821626 1.33808 2.99507e-18)
(-0.033645 1.27142 -9.02415e-19)
(0.000977993 1.08989 0)
(-0.0266829 1.23942 6.96976e-19)
(-0.114526 1.38787 2.15326e-18)
(-0.0586147 1.3406 -1.31813e-18)
(-0.0768895 1.3206 0)
(1.30417 0.602341 0)
(1.19439 0.690487 0)
(3.53523 2.01136 9.54827e-19)
(3.02114 1.91582 -1.19252e-18)
(3.82222 1.69172 0)
(3.36164 1.14615 0)
(3.34944 0.280401 -3.91222e-18)
(2.899 0.173051 4.83399e-18)
(3.35129 -0.155607 0)
(2.85451 -0.0762256 0)
(3.43642 0.04292 0)
(3.59381 0.144945 0)
(3.28683 0.119819 0)
(3.55036 0.298488 0)
(3.40843 0.293004 0)
(3.32756 0.218014 0)
(0.0901535 2.79252 0)
(0.0313261 2.08578 0)
(0.117897 3.045 0)
(0.0899799 2.19967 0)
(0.206432 3.61663 0)
(0.137804 2.69946 -5.59314e-19)
(0.0448295 3.62861 0)
(0.00649373 3.0325 4.05371e-19)
(-0.0306145 3.20344 -5.16336e-19)
(-0.064786 2.83487 0)
(-0.0273 2.23942 0)
(-0.0794998 2.93576 0)
(-0.0577208 2.07384 0)
(-0.124674 4.73488 -2.45631e-19)
(-0.0881831 3.91181 2.77644e-19)
(-0.0821108 3.78138 3.09121e-19)
(-0.0554814 2.99262 0)
(-0.111739 3.77037 -4.58717e-19)
(-0.0414319 3.17613 -2.95031e-19)
(-0.0983077 4.76556 1.92425e-19)
(-0.107536 4.43832 -3.50929e-19)
(-0.0816674 4.31346 -3.7901e-19)
(3.03361 0.0875801 3.35379e-18)
(2.29134 0.0319554 -4.22379e-18)
(2.89413 0.132057 -3.32275e-18)
(2.21273 0.0731412 4.15034e-18)
(3.36723 0.0268971 0)
(2.64167 -0.00288772 0)
(3.45162 0.0899483 0)
(3.31836 0.0184247 0)
(2.70402 0.00872314 0)
(3.67617 0.23674 0)
(3.43554 0.0942945 0)
(2.85849 0.0554933 0)
(-0.0315588 4.27211 -1.20982e-20)
(-0.0671242 4.6291 0)
(-0.0724675 4.50091 0)
(-0.0796946 3.45155 8.80054e-20)
(-0.0391577 2.7318 -3.46904e-21)
(-0.0939211 4.6581 1.1468e-19)
(-0.106342 4.46913 -1.15884e-19)
(-0.0878667 3.99386 0)
(-0.066126 3.92269 0)
(-0.0337954 4.03729 0)
(-0.0777348 3.31389 0)
(-0.0453131 2.35467 0)
(0.933721 3.63076 -6.12411e-19)
(0.908226 2.82369 -1.78022e-19)
(0.436117 2.08327 -2.2899e-19)
(0.25413 2.32969 6.98859e-19)
(1.01821 4.21682 2.63801e-19)
(3.43299 -0.167537 0)
(3.32208 -0.256612 0)
(2.88316 -0.189553 0)
(3.47032 -0.0644467 0)
(3.34581 -0.147919 0)
(3.44893 -0.261081 0)
(3.51949 -0.283662 0)
(3.57946 -0.281218 0)
(3.22466 0.0931217 3.61419e-18)
(2.55566 0.0644037 -4.57015e-18)
(3.0972 0.106272 -3.55763e-18)
(2.51002 0.056485 4.42662e-18)
(2.21561 3.38441 0)
(1.71535 2.91347 -4.48895e-19)
(2.54495 3.3206 -4.05732e-19)
(2.33787 2.49777 5.39119e-19)
(0.787702 1.23265 2.72939e-18)
(1.4528 0.216598 1.34186e-18)
(3.71687 0.300831 0)
(3.8859 0.567432 -1.84451e-18)
(3.29025 0.241449 -8.22342e-20)
(3.72621 0.436647 0)
(0.247069 1.31721 1.80201e-18)
(-0.0113595 1.20417 -2.88564e-18)
(0.0644863 0.771457 1.62015e-18)
(0.283289 0.468752 -7.5034e-19)
(0.192569 1.3918 8.73774e-19)
(0.0538939 1.24074 0)
(0.0600153 1.09097 -1.13589e-18)
(0.199517 1.44883 -4.10557e-18)
(0.338991 1.56589 0)
(0.00859278 1.29015 1.19921e-19)
(-0.00979124 1.45729 -1.3439e-18)
(-0.0411062 1.30287 1.95375e-18)
(-0.057585 1.41766 0)
(-0.0205846 1.3822 0)
(0.691609 1.0654 0)
(2.48132 2.47021 -1.06727e-18)
(2.61313 2.14686 3.96271e-19)
(2.76629 2.85513 0)
(3.19486 3.04277 -3.94469e-19)
(3.14101 2.38857 2.81744e-20)
(0.817628 0.599654 -1.82727e-18)
(1.57287 0.696261 -1.63193e-20)
(1.24496 0.45453 8.72466e-19)
(1.29451 0.854028 5.96124e-20)
(0.953799 0.64288 -2.3742e-18)
(1.48209 0.720866 0)
(2.01471 1.10789 1.45731e-18)
(2.05545 1.02295 0)
(1.4314 0.799069 0)
(1.07575 0.555745 0)
(3.38708 2.1743 1.00688e-18)
(3.93793 0.753658 -1.86122e-18)
(3.8346 1.20575 0)
(3.51716 0.750685 0)
(1.40132 0.366285 1.33226e-18)
(3.27604 1.84185 -8.51503e-19)
(2.85843 1.65798 1.54631e-18)
(3.76442 1.37086 -1.83333e-18)
(3.09826 0.11455 2.46076e-18)
(3.16874 0.180691 -2.57575e-18)
(2.66213 0.0915662 0)
(3.30684 -0.0397821 0)
(3.20111 -0.0844219 -2.36356e-18)
(2.63197 -0.0321983 2.34274e-18)
(3.95647 0.0926512 0)
(3.76008 0.145244 0)
(3.69371 0.155227 0)
(3.58837 0.204606 0)
(3.83263 0.0588011 0)
(3.7261 0.0520781 0)
(-0.0453073 2.52226 0)
(-0.0413455 2.02503 0)
(0.341358 3.97198 -4.11881e-19)
(0.650204 3.30946 -1.61051e-19)
(0.251555 3.01382 -3.60201e-19)
(0.337243 2.53224 5.77031e-19)
(0.443489 3.99412 0)
(0.452558 4.65996 -5.0995e-19)
(0.366758 4.71715 0)
(0.903425 4.38606 -3.79469e-19)
(0.670945 3.84378 9.69627e-19)
(0.581275 4.63793 4.46928e-19)
(0.725118 4.1756 -1.88328e-19)
(0.585327 4.30361 1.51497e-19)
(0.900392 4.63678 -6.63997e-19)
(0.732967 4.6525 0)
(0.845015 4.57904 5.04943e-19)
(-0.0107662 4.56478 -1.81236e-19)
(-0.027733 3.64864 0)
(0.0858333 4.28965 5.48926e-19)
(-0.0176433 4.38854 0)
(-0.0115777 3.47035 -4.50781e-19)
(-0.020094 2.92051 0)
(-0.115723 4.31458 -2.9041e-19)
(-0.123384 4.67225 0)
(-0.0660198 3.81632 0)
(-0.0532399 3.7493 3.26578e-19)
(-0.0574586 3.87189 1.03633e-20)
(-0.0435832 3.70355 6.25073e-19)
(-0.0448885 2.94042 4.06055e-21)
(-0.12916 4.69611 1.80576e-19)
(-0.119279 4.7307 1.03386e-19)
(-0.0217235 2.66653 0)
(-0.00195047 2.17731 0)
(-0.0607144 4.77606 4.86897e-19)
(-0.0664216 4.30947 4.25734e-19)
(-0.101129 4.57984 -5.56084e-19)
(-0.003215 4.74622 0)
(-0.0895402 4.49779 -3.10324e-19)
(-0.125976 4.11891 1.28039e-19)
(-0.092904 4.21134 -4.14493e-20)
(-0.0852051 4.71329 -2.19358e-19)
(-0.0963176 4.23739 -6.86304e-20)
(-0.0932812 4.18633 3.0656e-19)
(2.87259 0.0606772 -2.36036e-18)
(2.86054 0.0492098 2.26981e-18)
(2.33985 0.034337 0)
(3.51373 0.19035 3.04203e-18)
(2.70772 0.125838 -3.30013e-18)
(2.25838 0.0639833 3.60463e-18)
(3.68686 0.332907 -4.01039e-19)
(3.20925 -0.0488483 0)
(3.17119 -0.0140403 2.23418e-18)
(2.68999 -0.0125835 -2.21656e-18)
(3.87664 0.120441 -1.25069e-19)
(3.77027 0.100539 1.07688e-18)
(4.15838 0.171032 0)
(4.22771 0.17865 -3.74603e-19)
(4.01481 0.143559 0)
(3.6967 0.154184 0)
(4.03248 0.0943917 0)
(3.71233 0.0867443 0)
(4.18472 0.112232 7.84378e-19)
(4.1375 0.077851 -1.74554e-18)
(4.13986 0.112323 -8.46871e-19)
(4.18579 0.114877 -9.23206e-19)
(4.21435 0.226158 1.7716e-18)
(3.85251 0.186754 0)
(4.05833 0.298181 0)
(-0.085352 4.54174 -1.36562e-19)
(-0.0423308 4.61285 -1.1728e-20)
(-0.0776204 4.63662 0)
(-0.064379 4.14736 1.39017e-19)
(-0.0622531 4.17086 2.26168e-20)
(-0.0651373 4.03218 -2.1982e-20)
(-0.0847692 3.4865 2.61036e-19)
(-0.150854 3.96348 -1.45208e-20)
(-0.111871 4.09765 7.48267e-20)
(-0.0784 3.35695 -1.32205e-19)
(-0.0271078 2.88273 1.58342e-19)
(-0.0872782 4.44947 5.18188e-21)
(-0.102848 4.63773 1.71218e-19)
(1.22674 4.33028 3.48884e-19)
(1.14354 4.50802 7.25194e-19)
(1.71448 3.43144 4.34046e-19)
(1.28988 3.52436 1.71132e-19)
(1.26797 2.85592 0)
(0.555163 2.35246 2.75702e-19)
(0.469326 1.76836 3.31829e-19)
(0.346955 2.60092 1.53592e-20)
(0.493939 3.21227 -1.16194e-18)
(0.636595 3.17016 8.7837e-19)
(0.437289 2.43774 0)
(0.297073 2.00029 -5.58854e-19)
(0.255939 3.10572 1.39672e-18)
(0.27189 2.75009 -3.19952e-20)
(0.156922 2.30323 -1.75122e-18)
(0.60216 1.43553 1.46857e-18)
(0.586128 1.64427 0)
(3.58363 -0.075263 8.63363e-20)
(3.61858 -0.2542 -7.25151e-20)
(3.7213 -0.217859 -1.2651e-18)
(3.75924 -0.126187 1.28096e-18)
(3.67615 -0.0490215 0)
(2.42991 3.8501 0)
(2.60922 3.89654 0)
(2.878 3.60389 0)
(2.72945 3.62934 0)
(0.868596 1.41693 -3.44307e-21)
(0.622138 1.05636 0)
(1.72947 3.41973 1.50364e-20)
(1.43154 3.49376 0)
(1.34485 2.9911 -1.2869e-18)
(1.42569 2.92855 8.26289e-19)
(1.79926 0.310754 0)
(1.43742 0.262579 3.51829e-19)
(2.41964 0.358446 2.18934e-18)
(1.79303 0.284651 -7.84743e-19)
(1.43128 0.112158 -2.4923e-18)
(4.26461 0.783009 -2.56142e-18)
(3.86159 0.9892 -3.64879e-20)
(3.31067 0.841056 2.06514e-18)
(3.88399 0.740673 1.81072e-18)
(3.13189 0.463938 -3.04105e-18)
(2.91952 0.450815 3.74536e-19)
(3.2046 0.680677 -8.17667e-19)
(2.98718 0.680844 0)
(3.76625 0.560382 1.53543e-18)
(4.10058 0.62443 0)
(4.09644 0.770178 0)
(4.0414 0.411913 8.22562e-19)
(4.29515 0.636818 -3.03809e-20)
(4.24374 0.708723 -4.52152e-19)
(4.17097 0.636333 0)
(3.61808 0.128983 1.71564e-18)
(4.1904 0.181076 2.14091e-18)
(4.09181 0.149784 -1.67693e-18)
(4.13825 0.238082 -1.44064e-18)
(3.74855 0.236097 -2.15319e-18)
(3.31007 0.374502 0)
(3.40823 0.300462 0)
(2.56338 0.190028 -1.26434e-18)
(2.11386 0.118802 4.76155e-19)
(4.03945 0.349831 1.93722e-18)
(4.28613 0.428328 -2.3434e-18)
(4.28622 0.484705 2.06601e-18)
(4.15958 0.488604 0)
(4.25548 0.333163 0)
(4.26496 0.320107 -9.79068e-19)
(4.21463 0.312985 -1.59394e-18)
(2.24259 3.505 6.20092e-19)
(1.95902 3.2598 -6.83923e-19)
(1.46887 2.38795 -1.03409e-18)
(1.20655 2.02429 2.67428e-19)
(0.898941 1.40024 -2.63568e-18)
(0.806452 1.23381 9.24028e-19)
(0.610412 0.917992 -1.89002e-21)
(1.13322 1.81088 -1.14044e-18)
(1.16131 1.91034 1.70246e-18)
(0.990404 1.72331 5.07133e-19)
(0.798242 1.30696 -5.13769e-19)
(0.644826 1.08914 0)
(2.4709 2.6232 -1.15406e-19)
(0.723892 1.15531 8.59924e-19)
(0.94603 0.904459 1.15914e-18)
(0.771588 0.825039 1.34205e-18)
(1.1008 0.757771 1.34388e-18)
(1.49074 1.05906 -2.27469e-18)
(1.4065 1.08726 1.84318e-18)
(1.01931 0.778293 -6.7848e-19)
(0.830373 0.577153 1.49807e-18)
(1.62801 0.493167 -7.77822e-19)
(1.57308 0.511893 0)
(1.2499 0.409958 4.75957e-21)
(2.53539 1.52437 7.76207e-19)
(2.10651 1.28077 -2.81114e-18)
(1.7123 1.19896 9.54104e-21)
(1.68502 1.10426 0)
(2.88152 2.60057 8.73389e-19)
(3.44479 2.74041 1.03557e-18)
(3.25577 2.92307 -1.19376e-18)
(3.54573 2.74859 -4.27631e-19)
(3.46799 2.58114 -1.34802e-19)
(3.49896 2.77449 1.38621e-19)
(3.68003 2.25478 -1.67701e-18)
(3.69878 2.47991 4.00879e-19)
(3.77248 2.4178 0)
(3.77216 2.17446 -5.78998e-19)
(4.05304 1.06664 5.79702e-19)
(4.27196 0.984639 1.00085e-18)
(4.29818 0.958256 1.01016e-18)
(4.05789 1.32053 -1.14802e-18)
(4.09691 1.33804 0)
(4.14538 1.22245 0)
(3.34449 1.23283 -1.51826e-20)
(2.43402 0.667508 0)
(2.73759 0.743603 9.30045e-19)
(3.25283 0.882562 -2.61139e-20)
(3.78232 1.52773 5.10046e-18)
(3.58187 1.75596 1.30953e-18)
(3.4956 1.53682 -1.33963e-18)
(3.05792 1.36994 1.43636e-18)
(2.78394 1.3724 8.238e-19)
(2.33082 1.16169 -7.97845e-19)
(3.67199 -0.0858129 1.98223e-18)
(3.89466 -0.0292194 0)
(3.8589 -0.0668197 1.34045e-18)
(3.74282 -0.0596672 -2.98416e-18)
(3.98055 0.0369862 1.46016e-18)
(3.90454 0.113052 -3.07913e-18)
(3.74001 0.127635 0)
(3.5565 0.173238 -6.27765e-19)
(3.81203 0.122746 1.60332e-18)
(3.69204 0.191173 -8.21558e-19)
(3.60042 0.170876 5.8998e-19)
(-0.0854584 2.61524 0)
(-0.056273 3.41466 0)
(-0.037035 2.47967 0)
(-0.0247424 1.99046 0)
(0.0319823 3.93537 6.73277e-19)
(0.127497 3.71547 -1.7416e-19)
(0.299357 4.62997 -2.29976e-19)
(0.235295 4.44387 2.42641e-19)
(-0.0415759 4.29048 -4.99237e-19)
(-0.00521924 4.32118 3.7488e-19)
(0.0809455 3.86632 2.23347e-20)
(-0.00161324 3.55879 -4.68464e-19)
(-0.0213967 3.31877 -6.25174e-20)
(-0.0512461 3.67824 -5.69636e-20)
(0.137379 4.47686 -5.8626e-19)
(0.164448 4.29632 0)
(0.258788 4.63436 2.96055e-19)
(0.25005 4.70076 2.53005e-19)
(0.582746 4.44928 -2.25882e-19)
(0.403033 3.80976 0)
(0.452765 3.65695 -1.11587e-18)
(0.556481 4.02542 7.90671e-19)
(0.46612 4.56384 -6.14554e-19)
(0.355768 4.44069 3.30677e-19)
(0.288758 4.17493 0)
(-0.0530993 4.74923 -5.53736e-19)
(-0.0898812 4.51098 -6.41218e-19)
(-0.0932241 4.7235 0)
(-0.0432533 4.35121 -6.17796e-21)
(-0.0362384 4.63227 2.74424e-19)
(-0.129802 3.90192 4.49753e-20)
(-0.0630806 3.51894 -6.57891e-19)
(-0.107329 3.95092 1.75431e-19)
(-0.153021 4.52327 2.33653e-19)
(-0.0916758 4.33544 0)
(-0.0727881 3.91849 0)
(-0.0877291 2.95322 2.02632e-19)
(-0.0566197 3.67951 -6.32242e-20)
(-0.0820087 3.66281 0)
(-0.0913405 2.7361 1.59689e-19)
(-0.0484705 2.24026 -3.0927e-19)
(3.76044 0.0316701 0)
(3.73124 0.00704894 -2.03017e-19)
(4.17931 0.0667735 -1.43807e-18)
(4.08851 0.0451368 0)
(3.8753 0.0167433 0)
(4.14967 0.0361842 -1.24754e-20)
(4.10025 0.0341903 2.37587e-18)
(4.00043 0.0793112 2.84185e-18)
(3.75655 0.117926 0)
(3.55892 0.109377 0)
(4.01387 0.0927403 1.41557e-18)
(3.70429 0.115184 0)
(3.47339 0.128159 0)
(-0.0943616 4.67391 0)
(-0.117989 4.65027 1.08036e-20)
(-0.0920679 4.69745 6.37436e-20)
(-0.0708143 3.87262 0)
(-0.12336 4.53786 1.11364e-19)
(-0.0805446 4.26928 -6.37266e-20)
(-0.0660099 3.97842 0)
(1.41086 4.2027 0)
(1.19574 4.566 -1.29726e-18)
(1.21411 4.48504 0)
(1.5611 4.4693 1.48503e-18)
(1.57513 4.08721 0)
(1.48417 4.34567 -6.07123e-19)
(1.02775 2.27747 -3.40613e-20)
(0.722285 1.67327 -1.75092e-18)
(0.601461 1.24836 2.1361e-18)
(0.720131 1.86595 3.98247e-19)
(0.989074 2.46195 0)
(1.05243 2.41626 0)
(0.730121 1.71623 0)
(0.541347 1.35354 -1.40037e-18)
(1.21664 3.80388 -9.84597e-19)
(1.14089 3.02797 -2.35941e-19)
(1.33887 3.43935 1.92964e-19)
(0.606357 2.07257 0)
(0.629304 1.97406 0)
(0.469164 1.59749 -3.94187e-19)
(0.968621 2.75839 0)
(2.68767 3.56688 0)
(2.40126 3.02584 -1.45474e-18)
(2.56286 3.03819 -8.58337e-20)
(2.43375 3.41656 0)
(2.30739 3.17059 2.22147e-18)
(3.27708 3.07622 -3.89498e-19)
(3.12159 3.30451 0)
(3.10517 3.13013 6.3013e-19)
(2.86692 3.40526 0)
(2.88508 3.19957 0)
(1.22942 2.03836 -9.32822e-19)
(1.43662 2.43847 -7.00781e-19)
(1.77525 3.0151 1.20745e-18)
(1.71742 2.99505 -3.62962e-19)
(1.0802 1.85183 0)
(1.22488 2.2421 4.72054e-19)
(0.730787 1.31004 -7.17417e-19)
(0.5915 1.06121 -6.21557e-22)
(1.94987 3.71893 0)
(2.20805 3.75478 -5.42281e-19)
(2.3384 3.98158 0)
(2.29534 0.528436 0)
(1.62612 0.342528 0)
(1.21663 0.277526 0)
(2.22198 0.554304 -1.46427e-18)
(1.64625 0.403333 8.16956e-19)
(2.15131 0.128796 -9.83889e-19)
(2.63365 0.296783 0)
(2.47286 0.301121 4.13012e-19)
(1.77563 0.135569 1.63112e-18)
(1.53482 0.0812505 -1.0358e-18)
(0.75723 1.57489 8.59966e-19)
(0.975974 1.84306 0)
(0.546284 1.45626 1.56508e-18)
(0.534541 1.629 -1.42887e-18)
(0.772612 1.83181 -9.91525e-19)
(2.10175 2.48546 1.33971e-18)
(2.12467 2.73668 0)
(1.6126 1.70085 -2.76967e-19)
(2.03995 2.01101 1.74684e-18)
(1.3858 1.3122 -4.24461e-19)
(1.61587 1.33191 4.51715e-19)
(2.1385 1.52731 1.0246e-18)
(2.47171 1.68221 0)
(2.3053 1.87231 0)
(2.03934 1.62347 0)
(3.95271 2.0651 3.84291e-19)
(3.76702 1.88081 -1.26201e-18)
(3.82177 2.01709 1.04501e-18)
(3.9051 1.76064 -1.00693e-18)
(4.15211 1.66148 0)
(4.10861 1.82645 -2.97518e-19)
(2.86184 1.16432 -1.89678e-18)
(2.98999 1.16277 -2.41105e-18)
(2.3541 1.04719 1.45613e-18)
(2.15884 0.938385 -1.42028e-18)
(2.48216 0.847318 -1.17784e-18)
(2.19708 0.780009 1.44842e-18)
(4.00841 0.0330453 -1.52696e-18)
(4.05272 0.0401649 3.12621e-18)
(3.76773 -0.0662631 1.89854e-18)
(3.79092 -0.0741787 -2.28393e-18)
(3.95922 0.0099118 0)
(4.05587 0.0221922 -3.72499e-18)
(0.0767947 4.74979 1.06733e-19)
(0.0478668 4.71934 0)
(0.170293 4.72176 9.53142e-19)
(0.191679 4.73829 -8.67163e-19)
(0.211497 4.70347 4.2882e-19)
(0.103001 4.64528 0)
(-0.115993 4.75572 0)
(-0.120602 4.4097 -6.21618e-20)
(-0.11989 4.34899 5.5726e-20)
(-0.128534 4.48639 7.51244e-21)
(-0.119279 4.7002 -1.01547e-19)
(-0.0967787 4.68875 5.51482e-20)
(1.87972 4.01837 -1.64249e-18)
(1.81811 4.02768 1.74006e-18)
(1.67291 4.39263 -8.54115e-19)
(1.69344 4.28402 7.61478e-20)
(2.24342 4.05757 0)
(1.83842 4.18976 -6.37677e-19)
(1.96575 3.9277 6.18429e-19)
(1.80891 4.35723 8.34303e-19)
(2.06425 4.20697 0)
(2.21834 4.08696 0)
(1.14601 3.66254 1.49678e-18)
(0.835879 2.84947 2.0288e-18)
(0.963768 3.02795 -1.39324e-18)
(0.75491 3.01079 -2.32607e-19)
(0.907257 3.76576 4.67187e-19)
(0.727375 3.40191 -1.13631e-18)
(0.759059 1.49013 -1.21893e-18)
(0.758358 1.33908 0)
(0.612597 1.13312 -1.33965e-18)
(1.12817 2.09646 0)
(1.10577 2.18369 0)
(1.38367 2.21456 -1.09317e-18)
(1.08296 2.03796 -1.03839e-18)
(1.03547 2.05702 1.10148e-18)
(1.05573 1.53727 0)
(1.43905 1.78443 -6.02585e-19)
(1.65539 2.1446 -8.56259e-19)
(1.43705 2.10569 0)
(0.886817 1.83512 7.14674e-19)
(0.798723 1.69349 0)
(2.92897 2.296 -1.84545e-18)
(3.32969 2.46762 2.60585e-18)
(3.29334 2.19124 -2.59007e-18)
(2.63721 2.03228 -2.31154e-19)
(2.75054 1.94823 -9.7386e-19)
(1.28359 2.21636 7.98027e-19)
(1.33819 2.27358 -1.36263e-18)
(1.47932 2.35635 1.7961e-18)
(1.81693 2.58655 -1.16728e-18)
(1.91329 2.96263 -1.56862e-18)
(1.58761 2.51903 -1.18824e-19)
(1.65752 2.66083 1.37375e-18)
(1.83661 2.72262 9.6784e-20)
(2.04193 3.02591 6.50926e-19)
)
;

boundaryField
{
    wall-4
    {
        type            noSlip;
    }
    velocity-inlet-5
    {
        type            fixedValue;
        value           uniform (3 0 0);
    }
    velocity-inlet-6
    {
        type            fixedValue;
        value           uniform (0 1 0);
    }
    pressure-outlet-7
    {
        type            zeroGradient;
    }
    wall-8
    {
        type            noSlip;
    }
    frontAndBackPlanes
    {
        type            empty;
    }
}


// ************************************************************************* //
