/*--------------------------------*- C++ -*----------------------------------*\
  =========                 |
  \\      /  F ield         | OpenFOAM: The Open Source CFD Toolbox
   \\    /   O peration     | Website:  https://openfoam.org
    \\  /    A nd           | Version:  9
     \\/     M anipulation  |
\*---------------------------------------------------------------------------*/
FoamFile
{
    format      ascii;
    class       volScalarField;
    location    "3.77";
    object      p_rgh;
}
// * * * * * * * * * * * * * * * * * * * * * * * * * * * * * * * * * * * * * //

dimensions      [1 -1 -2 0 0 0 0];

internalField   nonuniform List<scalar> 
2268
(
730.339
730.703
731.541
732.872
734.658
736.818
739.35
742.217
745.37
748.757
752.321
755.998
759.716
763.39
766.921
770.185
773.061
775.454
777.066
779.431
781.518
782.925
783.392
730.272
730.638
731.461
732.785
734.544
736.73
739.285
742.167
745.335
748.739
752.32
756.013
759.74
763.417
766.946
770.212
773.139
775.639
776.607
779.122
781.763
783.114
783.467
730.104
730.488
731.305
732.632
734.4
736.594
739.164
742.067
745.259
748.691
752.302
756.023
759.778
763.479
767.039
770.361
773.422
774.437
776.577
778.316
781.025
783.21
783.777
729.825
730.225
731.051
732.386
734.169
736.38
738.974
741.907
745.134
748.604
752.256
756.023
759.825
763.58
767.207
770.633
773.887
775.812
776.458
778.21
780.36
783.463
783.991
729.432
729.847
730.691
732.042
733.846
736.083
738.71
741.682
744.954
748.474
752.182
756.008
759.877
763.71
767.431
770.98
774.385
777.976
777.464
778.069
782.313
783.895
784.393
728.925
729.352
730.221
731.595
733.427
735.698
738.367
741.389
744.718
748.3
752.075
755.977
759.931
763.861
767.695
771.374
774.894
778.496
781.781
782.894
784.54
784.501
785.004
728.298
728.74
729.638
731.043
732.911
735.226
737.948
741.031
744.427
748.083
751.939
755.93
759.985
764.029
767.99
771.802
775.426
778.989
782.341
784.518
785.31
785.394
785.763
727.546
728.028
728.963
730.403
732.312
734.677
737.461
740.617
744.09
747.829
751.775
755.867
760.037
764.21
768.31
772.26
775.985
779.541
782.783
785.075
786.282
786.796
786.821
784.936
784.558
783.407
781.477
779.051
776.25
773.237
770.198
767.008
763.263
759.209
755.025
751.038
749.683
749.949
747.13
742.478
739.55
740.141
785.021
784.91
783.754
781.899
779.581
776.831
773.822
770.613
767.169
763.276
758.929
753.873
751.04
749.241
750.171
747.267
743.764
739.297
740.153
786.062
785.45
784.052
782.127
779.718
777.065
774.151
770.682
766.968
763.586
757.419
753.198
750.629
751.453
749.818
746.88
740.934
740.525
741.413
786.821
785.841
784.343
782.348
779.932
777.272
774.249
770.333
767.025
763.918
757.144
752.526
750.215
753.643
749.905
747.068
740.607
739.448
740.754
787.257
786.309
784.742
782.666
780.205
777.481
774.451
770.55
767.166
764.814
760.623
753.839
752.249
753.686
750.181
747.522
745.458
731.996
739.897
787.847
786.94
785.21
783.047
780.48
777.671
774.658
771.517
768.3
765.318
763.226
761.234
758.295
753.741
750.487
748.05
746.626
728.505
738.114
788.69
787.517
785.733
783.5
780.718
777.786
774.742
771.603
768.518
765.22
762.318
760.554
757.728
753.728
750.749
748.591
746.232
726.713
738.039
789.648
788.16
786.327
784.029
781.191
778.158
774.752
771.473
767.804
761.503
759.225
759.682
757.296
753.682
750.953
749.102
747.581
733.709
737.324
726.279
726.802
727.761
729.236
731.204
733.655
736.552
739.839
743.454
747.343
751.451
755.726
760.106
764.519
768.858
773.039
776.914
780.507
783.716
786.256
788.132
789.58
790.567
644.897
646.997
649.741
653.604
660.193
668.867
678.439
689.289
701.064
712.717
723.615
734.362
745.44
756.857
767.573
774.591
778.676
782.412
785.692
788.411
790.642
792.432
793.787
117.45
118.058
121.8
128.63
135.266
144.135
155.327
168.87
184.229
203.272
225.775
250.659
276.865
303.775
332.044
365.3
397.314
426.63
450.442
466.691
479.423
489.716
499.735
2.13482
2.26028
2.11112
1.85514
2.17981
2.44077
2.63524
2.84802
3.19194
3.43851
3.59903
3.71873
3.76554
3.71562
3.62602
3.36213
4.48146
6.62526
10.059
13.1989
14.4924
16.2755
18.111
2.10944
2.92701
2.5902
1.81341
4.07793
4.1441
3.59019
3.72316
7.41829
8.49418
8.54001
8.56017
8.59283
8.60779
8.53194
3.89816
3.79848
3.76203
4.34341
8.34927
7.07923
2.90891
0.889602
3.26878
3.25588
3.26893
1.98394
2.04796
3.81427
4.89754
4.89587
4.62796
4.61076
5.18168
5.74978
5.96946
6.37595
6.74131
7.2366
7.24845
7.23203
6.04617
2.59188
2.58092
0.855456
0.627997
2.19356
1.85831
2.09859
2.41451
2.39972
1.33387
0.76839
1.10148
0.615337
0.0884582
0.0331261
0.0132185
0.00617011
0.00218458
-0.000266199
0.476122
0.597328
0.436058
0.867357
0.670937
0.516852
0.537554
0.564678
0.0455066
0.0449648
0.0444686
0.450982
0.440382
0.645969
0.363764
0.0469185
0.0261654
0.0238957
0.0180371
0.0117732
0.00737757
0.00704423
0.00152879
0.013761
0.0979156
0.289081
0.845281
0.871391
0.5028
0.510345
1.00954
0.0364765
0.0381315
0.0370014
0.0325597
0.0284414
0.0248675
0.0247403
0.0244903
0.0223873
0.0200077
0.0160218
0.0111386
0.0176313
0.0143081
0.00147195
-0.00292089
0.00939139
0.081298
0.542945
0.893027
0.902021
0.490805
0.923928
0.032373
0.0333714
0.0321544
0.028912
0.0256811
0.0230213
0.0218604
0.0206898
0.0190799
0.018615
0.0183479
0.013452
0.00649369
0.00364877
-0.000919592
-0.00474995
-0.00850222
-0.0136106
0.00145429
0.219974
0.342323
0.24919
0.0285647
0.0286289
0.0289808
0.0277729
0.025234
0.0227902
0.0206244
0.0191903
0.0179706
0.0199735
0.0191501
0.0163671
0.00908752
0.00488321
0.001628
-0.00160337
-0.00503046
-0.00885682
-0.0136401
-0.0199081
-0.025602
-0.0278105
-0.0203507
-0.0251653
0.025378
0.0248426
0.0237165
0.0219964
0.020093
0.0182959
0.0168028
0.016012
0.0166304
0.0142466
0.00982764
0.00675632
0.00402374
0.00112625
-0.00185791
-0.00498277
-0.00839415
-0.0122906
-0.0165913
-0.016307
-0.0135606
-0.0131325
-0.0156679
0.0226857
0.0218261
0.0206617
0.0192075
0.0176486
0.0161254
0.0147047
0.0132597
0.0116493
0.00983432
0.00782677
0.0055966
0.0031945
0.000657616
-0.00198026
-0.00474785
-0.00768666
-0.0108394
-0.0114959
-0.00306037
-0.0045718
-0.00486664
-0.00469506
0.0205199
0.0196877
0.0182445
0.0168245
0.0154825
0.0141397
0.0128146
0.0114481
0.00997577
0.00835913
0.00657233
0.00461611
0.00251269
0.000294451
-0.00201939
-0.00443
-0.00693527
-0.00951985
-0.0119204
-0.00898141
-0.00106917
-0.00159021
-0.00208233
0.0187448
0.018013
0.0162489
0.014785
0.0135861
0.0123838
0.0111696
0.00991013
0.00856472
0.00710642
0.00551686
0.00379454
0.00195343
1.52245e-05
-0.00200108
-0.00408129
-0.00620417
-0.00833231
-0.0103871
-0.0120274
-0.0106347
-0.008599
-0.0125413
0.0171781
0.0162587
0.0145142
0.0130244
0.01193
0.0108409
0.00973275
0.00858063
0.0073585
0.00604643
0.00463132
0.00311207
0.00149894
-0.00019114
-0.0019395
-0.00372521
-0.0055189
-0.00727731
-0.00893016
-0.0103605
-0.0114272
-0.0120252
-0.0121671
0.0156723
0.0146989
0.0130426
0.0114881
0.0104787
0.00948632
0.00847761
0.00743036
0.00632501
0.00514697
0.00388773
0.00254722
0.0011339
-0.000337665
-0.00184936
-0.00337846
-0.00489417
-0.00635495
-0.00770264
-0.00885789
-0.00973139
-0.0102631
-0.0104618
0.0142532
0.0132845
0.0117336
0.0101319
0.00920033
0.00829549
0.00737994
0.00643224
0.00543642
0.0043817
0.00326273
0.00208053
0.000842705
-0.000437583
-0.00174312
-0.00305188
-0.00433508
-0.00555632
-0.00666929
-0.00761864
-0.00834824
-0.00881988
-0.00903479
0.0128229
0.0119809
0.0104066
0.00892497
0.00807067
0.00724883
0.00642124
0.00556759
0.00467405
0.00373255
0.00273997
0.00169828
0.000614634
-0.000498977
-0.00162657
-0.00274787
-0.00383749
-0.00486483
-0.00579378
-0.0065849
-0.00720112
-0.00761703
-0.00783069
0.0112855
0.0105809
0.00890921
0.0078493
0.00707388
0.006332
0.00558778
0.00482259
0.00402416
0.00318634
0.00230767
0.00139087
0.00044276
-0.00052577
-0.00150025
-0.00246262
-0.00339109
-0.00426052
-0.00504283
-0.00570932
-0.00623443
-0.00660048
-0.00680465
0.00980038
0.00870619
0.00769306
0.00689518
0.00619881
0.00553422
0.00486898
0.00418646
0.0034759
0.00273267
0.00195651
0.00115068
0.000321705
-0.000520598
-0.0013634
-0.002191
-0.00298507
-0.00372511
-0.00438924
-0.00495613
-0.00540751
-0.00573055
-0.00592232
0.0085899
0.00759972
0.00675444
0.00605303
0.00543678
0.0048471
0.0042564
0.0036504
0.00302034
0.00236286
0.00167854
0.000970981
0.000246399
-0.000486408
-0.00121624
-0.00192969
-0.00261152
-0.00324512
-0.00381334
-0.00429997
-0.00469155
-0.00497844
-0.0051578
0.00746548
0.00662586
0.00591683
0.00531774
0.00478193
0.00426389
0.00374271
0.00320675
0.00264959
0.00206909
0.00146643
0.000845323
0.000211646
-0.000426741
-0.00106013
-0.00167723
-0.00226544
-0.00281135
-0.0033014
-0.00372304
-0.00406606
-0.00432297
-0.00449111
0.00642872
0.00574778
0.00518324
0.00468815
0.00422983
0.00377893
0.00332112
0.00284826
0.00235618
0.00184391
0.00131304
0.0007673
0.000212142
-0.000345431
-0.000897005
-0.00143314
-0.00194345
-0.00241709
-0.00284327
-0.00321208
-0.00351555
-0.00374775
-0.0039062
0.00549808
0.004973
0.00456092
0.0041655
0.00377635
0.0033855
0.00298431
0.00256744
0.00213261
0.00167992
0.00121137
0.000730598
0.000242649
-0.000246222
-0.000728858
-0.00119726
-0.00164291
-0.002057
-0.00243089
-0.0027566
-0.00302783
-0.00323973
-0.00339008
0.00467784
0.00474099
0.005924
0.00441167
0.00341151
0.00307372
0.0027231
0.00235568
0.00197072
0.00156942
0.00115428
0.000728893
0.000297941
-0.000133013
-0.000557779
-0.000969694
-0.00136175
-0.00172678
-0.0020578
-0.00234835
-0.0025933
-0.00278872
-0.00293263
0.00397091
0.00478937
0.00680799
0.00656622
0.00347067
0.00283057
0.00252642
0.00220292
0.00186126
0.00150397
0.00113418
0.000755627
0.000372702
-9.62248e-06
-0.000386017
-0.000750928
-0.00109861
-0.00142324
-0.00171916
-0.00198108
-0.00220482
-0.00238713
-0.00252635
0.00337891
0.00412382
0.00655168
0.00640167
0.00384239
0.00264418
0.00238317
0.0020985
0.00179423
0.00147442
0.00114298
0.000803874
0.000461324
0.000119782
-0.000216183
-0.000541976
-0.000852927
-0.00114432
-0.00141159
-0.00165038
-0.00185724
-0.0020295
-0.00216575
0.0028941
0.00312902
0.00636893
0.00626995
0.00343394
0.00250672
0.00228303
0.00203163
0.00175918
0.00147112
0.00117209
0.000866324
0.000557874
0.000250714
-5.12769e-05
-0.000344359
-0.000624805
-0.000888852
-0.00113281
-0.00135311
-0.00154681
-0.00171168
-0.00184648
0.00248819
0.00265271
0.00396365
0.0034041
0.00267509
0.00240928
0.00221492
0.00199093
0.00174521
0.00148408
0.00121271
0.000935484
0.000656257
0.000378529
0.000105514
-0.000159853
-0.000414704
-0.000656106
-0.000881109
-0.00108671
-0.00127035
-0.00142999
-0.0015645
0.00214625
0.00241552
0.00254935
0.00254504
0.00246659
0.00233628
0.00216523
0.00196406
0.00174119
0.00150341
0.00125624
0.00100411
0.000750654
0.000498869
0.000251277
1.00221e-05
-0.000222852
-0.000445179
-0.000654621
-0.000848572
-0.00102457
-0.00118064
-0.00131552
0.00185301
0.00219868
0.00239118
0.00243127
0.0023788
0.00226959
0.00211937
0.00193878
0.00173658
0.00152002
0.00129494
0.00106584
0.000836104
0.00060821
0.000383938
0.000164577
-4.86811e-05
-0.000254429
-0.000450858
-0.000635537
-0.000805822
-0.0009595
-0.00109506
0.00159192
0.00199274
0.0022335
0.00231068
0.00228358
0.00219572
0.0020658
0.00190505
0.00172265
0.00152638
0.0013225
0.00111563
0.000908924
0.000704274
0.000502616
0.000304275
0.000109468
-8.12427e-05
-0.000266571
-0.000443981
-0.000610204
-0.000762443
-0.000898754
0.00135984
0.00179811
0.00207438
0.00217988
0.0021745
0.00210673
0.00199668
0.00185551
0.00169269
0.00151661
0.00133403
0.00114976
0.000966662
0.000785949
0.000607563
0.000430669
0.000254289
7.78855e-05
-9.79314e-05
-0.000270132
-0.000434064
-0.000585864
-0.000722985
0.00115837
0.00162549
0.00191838
0.00203845
0.0020482
0.00199772
0.00190639
0.00178439
0.00164122
0.00148586
0.0013256
0.00116538
0.00100768
0.000852896
0.000699788
0.000546107
0.000389313
0.00022724
5.92546e-05
-0.000110491
-0.000274532
-0.000427229
-0.000565337
0.000979639
0.00147559
0.00176947
0.00188714
0.00190203
0.00186408
0.0017894
0.00168598
0.0015629
0.00142956
0.00129363
0.00116003
0.00103073
0.000905159
0.000780749
0.000653568
0.000519009
0.00037226
0.000209787
3.79434e-05
-0.000129946
-0.000285469
-0.000424862
0.000815113
0.00134073
0.00162546
0.0017241
0.00173141
0.00169912
0.00163842
0.0015534
0.00145178
0.00134291
0.00123455
0.00113131
0.00103454
0.000942703
0.00085194
0.000756513
0.000649171
0.000520578
0.000359878
0.000177674
-1.29229e-07
-0.000161184
-0.000302112
0.000656927
0.00120801
0.00148062
0.00154312
0.00152757
0.00149291
0.00144403
0.00137849
0.00130114
0.00122053
0.00114396
0.00107551
0.00101588
0.000962956
0.000912048
0.00085607
0.000784795
0.000681186
0.000516161
0.000309113
0.000112556
-5.70227e-05
-0.000199036
0.00050303
0.00105833
0.00131476
0.00132434
0.00127388
0.0012325
0.0011964
0.00115371
0.00110503
0.00105736
0.00101706
0.00098739
0.000968725
0.000959047
0.000953903
0.000946124
0.000924643
0.000862212
0.000682577
0.000424579
0.000198484
1.99768e-05
-0.000119552
0.000380751
0.000873928
0.00106702
0.00101106
0.000932135
0.000894841
0.000883523
0.000875917
0.000867605
0.000863497
0.000868578
0.000885234
0.000913866
0.000953371
0.000999951
0.00104677
0.0010922
0.00111802
0.000901792
0.000513115
0.000234765
5.41837e-05
-7.14618e-05
0.000427235
0.000541894
0.000568614
0.000477107
0.000417836
0.000427566
0.000482145
0.000549902
0.000619419
0.000692226
0.000772018
0.000860858
0.00096014
0.00107063
0.00118975
0.00131335
0.00146682
0.001732
0.00143536
0.000615197
0.000209665
3.62633e-05
-5.97587e-05
0.000267441
-0.000942033
-0.00050454
-0.000340808
-0.000242056
-0.000115319
3.65226e-05
0.000190379
0.000338875
0.00048475
0.00063142
0.000782681
0.000943994
0.00112326
0.00133442
0.00162734
0.00215391
0.00294873
0.00254301
0.000805228
0.0002239
4.36134e-05
-3.05688e-05
793.743
794.224
794.255
793.898
795.243
795.608
795.512
795.067
509.046
510.612
509.181
505.303
18.9502
19.2089
19.7143
20.5573
2.59828
5.87953
5.94195
2.90883
1.63812
4.45796
3.14749
2.57133
1.52641
3.25848
0.877811
1.1682
2.01363
1.98791
0.468026
0.0384238
0.746437
0.22051
0.0186345
-0.00818757
-0.027396
-0.0251509
-0.0170806
-0.0148436
-0.0240833
-0.0228927
-0.0213626
-0.0187847
-0.0196944
-0.0198538
-0.019142
-0.0185127
-0.00416612
-0.0133196
-0.0170334
-0.0165576
-0.00974445
-0.0112834
-0.0150997
-0.0147046
-0.0138528
-0.0131621
-0.0128748
-0.0128659
-0.0120282
-0.0118704
-0.011644
-0.0114136
-0.0104135
-0.0103315
-0.0102104
-0.0100463
-0.0090373
-0.00899532
-0.0089169
-0.00879843
-0.00786142
-0.00784479
-0.00779516
-0.00770953
-0.00685126
-0.00685097
-0.00682152
-0.00676044
-0.00597802
-0.0059888
-0.00597424
-0.00593243
-0.00521892
-0.00523752
-0.00523459
-0.00520859
-0.00455559
-0.00457991
-0.00458641
-0.00457374
-0.00397285
-0.00400155
-0.00401587
-0.00401462
-0.00345833
-0.00349062
-0.00351159
-0.00352018
-0.00300243
-0.00303791
-0.00306461
-0.00308169
-0.00259802
-0.00263648
-0.00266816
-0.00269249
-0.00223974
-0.00228102
-0.00231694
-0.00234729
-0.00192315
-0.00196698
-0.00200637
-0.00204152
-0.00164394
-0.00168994
-0.00173202
-0.00177079
-0.00139751
-0.00144522
-0.00148927
-0.00153061
-0.00117912
-0.00122808
-0.00127349
-0.00131653
-0.00098432
-0.00103415
-0.00108042
-0.0011245
-0.000809504
-0.000859882
-0.00090664
-0.000951239
-0.000652336
-0.000702979
-0.000749875
-0.000794484
-0.000511906
-0.000562454
-0.000609035
-0.000653044
-0.000388652
-0.000438514
-0.000484063
-0.000526601
-0.000284067
-0.000332206
-0.000375536
-0.000415312
-0.00020031
-0.0002448
-0.000284029
-0.000319224
-0.000140499
-0.000177312
-0.000209374
-0.000237765
-0.000111624
-0.000136276
-0.000156168
-0.000172983
-6.24194e-05
-7.62324e-05
-8.6552e-05
-9.43904e-05
791.346
789.492
787.401
783.656
773.519
766.174
757.011
752.525
755.72
759.432
762.239
759.884
756.763
753.506
751.07
749.707
748.69
738.15
730.599
793.491
778.777
765.553
757.695
753.755
749.647
737.867
725.755
718.222
719.704
718.626
716.576
710.254
698.499
689.574
694.652
704.121
718.06
720.436
497.869
495.871
493.1
487.554
480.284
471.004
463.571
450.379
420.262
381.442
345.909
316.558
291.739
271.924
255.858
241.672
239.911
247.43
250.478
22.1792
24.4202
25.5203
24.0537
19.7651
14.1655
8.12229
1.37644
1.32064
1.33624
1.34365
1.33574
1.33823
1.3016
1.27652
1.30711
1.29102
1.20721
1.17233
2.42974
1.28606
1.26476
1.26907
1.75042
2.49491
2.06382
2.06215
1.76297
1.71001
1.63885
1.49647
1.28591
1.25215
1.22415
1.21727
1.22957
1.21741
1.19912
1.42532
1.26538
1.26723
1.26624
1.76104
2.6999
2.70653
2.70095
2.6996
2.69709
2.69437
2.69417
2.69472
2.35657
1.61068
1.8873
1.90666
1.89216
1.41407
1.95007
2.22975
2.22887
2.22187
2.19375
1.65264
1.59463
1.38843
1.38181
1.2354
1.1217
0.980026
1.01633
1.24031
1.14232
1.17014
1.09129
0.874458
1.04526
1.10188
1.33885
1.16959
1.18192
0.725278
0.0418342
0.00497814
0.00850211
0.0121165
0.0182072
0.0246693
0.0307013
0.0337855
0.037156
0.0640668
0.0468302
0.044491
0.351407
0.265413
0.0241087
-0.027219
-0.0258203
-0.0235049
-0.0152453
-0.0035234
0.00315941
0.00711852
0.0136712
0.0197084
0.0260637
0.0510162
0.0847671
0.0937705
0.0401899
0.037082
0.0383105
0.0345233
0.0361181
-0.0209163
-0.0223552
-0.0208941
-0.0178292
-0.0119528
-0.0043232
0.00130511
0.00560216
0.0111207
0.0180728
0.081762
0.143038
0.144693
0.131306
0.0325121
0.0343893
0.0351575
0.0334839
0.0337306
-0.0195271
-0.0191555
-0.0174882
-0.0145881
-0.0095556
0.00819577
0.0333301
0.0131607
0.0105854
0.0881983
0.143784
0.144938
0.0935287
0.0356317
0.0404959
0.0585116
0.0594263
0.039907
0.0368633
-0.0174896
-0.0166039
-0.0149859
-0.0124824
0.0117288
0.0383197
0.0416331
0.0345788
0.0299632
0.135956
0.145987
0.0743282
0.0223841
0.041965
0.108702
0.110605
0.11125
0.111376
0.090842
-0.0156215
-0.0147072
-0.0131774
-0.0109911
0.0201803
0.0398221
0.0423776
0.0260862
0.0208967
0.0634797
0.0479288
0.00727915
0.0303953
0.106764
0.108561
0.109048
0.0726772
0.0665045
0.0885746
-0.0139319
-0.0130227
-0.0117448
-0.0100567
0.00471705
0.0246463
0.0176043
-0.00111844
-0.000526637
0.000251311
0.00203749
0.00478197
0.0175208
0.0946733
0.105616
0.0256465
0.0121084
0.0122665
0.0412419
-0.0123739
-0.011499
-0.0102052
-0.00900682
-0.00793031
-0.00647035
-0.00487439
-0.00285396
-0.00121132
4.86152e-05
0.00161804
0.00343157
0.0107766
0.0213184
0.0133004
0.00829915
0.0095344
0.0119864
0.0117435
-0.0109645
-0.0101859
-0.00922864
-0.00818825
-0.0070266
-0.00568825
-0.00445154
-0.00285291
-0.00143265
-0.000211751
0.00109634
0.00253092
0.00378981
0.00404278
0.00512154
0.00643929
0.00728057
0.0103936
0.0122251
-0.0096879
-0.00906937
-0.00831361
-0.00728393
-0.0056699
-0.00456215
-0.00355265
-0.00277059
-0.00158308
-0.000490663
0.000597056
0.00164586
0.0024917
0.00314071
0.0039545
0.00483207
0.0054386
0.00610369
0.0359841
-0.00852647
-0.00802369
-0.00738366
-0.00658164
-0.00518945
-0.00402284
-0.00297866
-0.00196513
-0.0016476
-0.0007578
0.000143273
0.000972978
0.00166492
0.00224256
0.00283849
0.00341682
0.00382847
0.00498797
0.0495568
-0.00750242
-0.00709331
-0.00656057
-0.00592507
-0.00516068
-0.00400984
-0.00292513
-0.0021332
-0.00162014
-0.000948733
-0.000101743
0.00052332
0.000983534
0.00141997
0.00183543
0.0021909
0.00242789
0.0027173
0.0500779
-0.00660397
-0.00627434
-0.0058348
-0.00530354
-0.00469862
-0.00403031
-0.00330288
-0.00257633
-0.00183574
-0.00102413
-0.000341308
0.00018806
0.000517878
0.000703259
0.000973558
0.00116673
0.00126005
0.00120599
0.0507548
-0.00581681
-0.00555513
-0.00519675
-0.00475745
-0.0042536
-0.00369931
-0.00311161
-0.00251463
-0.00193612
-0.00135083
-0.000755872
-0.000287698
-7.58464e-05
9.87343e-05
0.000263042
0.000338453
0.000321196
0.000307701
0.051463
-0.00512675
-0.00492368
-0.00463621
-0.0042781
-0.00386433
-0.00340925
-0.00292919
-0.00244404
-0.00197528
-0.00154169
-0.00115532
-0.000829111
-0.000571156
-0.000390439
-0.000294152
-0.000298032
-0.000397955
-0.000409985
0.0526973
-0.00452047
-0.00436815
-0.00414261
-0.00385599
-0.00352168
-0.00315316
-0.00276524
-0.00237433
-0.00199748
-0.00164962
-0.00134223
-0.00108477
-0.000885798
-0.000752426
-0.000693352
-0.000727101
-0.000850185
-0.000848177
0.0372128
-0.00398586
-0.00387767
-0.00370625
-0.00348226
-0.00321752
-0.00292407
-0.00261495
-0.00230335
-0.00200327
-0.0017261
-0.00148099
-0.00127493
-0.00111303
-0.000998394
-0.00093471
-0.000931353
-0.000970035
-0.000839575
-0.000556687
-0.00351262
-0.00344292
-0.00331876
-0.00314942
-0.0029452
-0.00271649
-0.00247445
-0.00223001
-0.00199376
-0.00177441
-0.00157823
-0.00140876
-0.00126642
-0.00114772
-0.00104585
-0.000950475
-0.000820032
-0.000495743
6.5986e-05
-0.00309246
-0.00305631
-0.00297326
-0.0028513
-0.00269937
-0.00252627
-0.00234137
-0.00215351
-0.00197068
-0.00179897
-0.00164172
-0.0014988
-0.00136554
-0.00123118
-0.00107679
-0.000869277
-0.000547483
-6.1134e-05
0.000589324
-0.00271891
-0.00271172
-0.00266407
-0.00258289
-0.00247576
-0.00235016
-0.00221384
-0.00207389
-0.0019362
-0.00180459
-0.00167986
-0.00155862
-0.00143173
-0.00128201
-0.00107949
-0.000770224
-0.000278855
0.000343621
0.0011388
-0.00238674
-0.00240414
-0.00238656
-0.00233997
-0.00227088
-0.00218557
-0.00209051
-0.00199134
-0.00189235
-0.00179569
-0.00170026
-0.00160043
-0.0014842
-0.00133048
-0.00110293
-0.000736624
-0.000154644
0.000526345
0.0247199
-0.00209139
-0.00212919
-0.00213664
-0.00211894
-0.00208171
-0.00203031
-0.00197016
-0.00190585
-0.00184059
-0.00177544
-0.00170832
-0.00163267
-0.00153574
-0.00139622
-0.00117887
-0.000823864
-0.000267906
0.000364858
0.0579356
-0.00182862
-0.0018828
-0.00191057
-0.00191649
-0.00190554
-0.00188233
-0.00185154
-0.00181705
-0.00178144
-0.00174531
-0.00170639
-0.00165838
-0.00158951
-0.00148086
-0.00130313
-0.00101052
-0.00055696
-2.80784e-05
0.0591082
-0.00159423
-0.00166105
-0.0017048
-0.00172956
-0.00173981
-0.00173963
-0.00173321
-0.00172403
-0.00171444
-0.00170505
-0.001694
-0.00167601
-0.00164112
-0.00157352
-0.00144986
-0.00123597
-0.000891162
-0.000431117
0.0596961
-0.00138413
-0.00146024
-0.00151605
-0.0015553
-0.00158212
-0.00160028
-0.00161364
-0.00162555
-0.00163842
-0.00165322
-0.00166893
-0.00168165
-0.00168355
-0.00166177
-0.00159768
-0.0014647
-0.0012189
-0.000803756
0.0592733
-0.00119462
-0.00127704
-0.00134138
-0.00139118
-0.00143035
-0.00146248
-0.0014913
-0.00152017
-0.00155179
-0.00158774
-0.00162806
-0.00167044
-0.00170922
-0.0017342
-0.00173052
-0.00167731
-0.00152676
-0.00115863
0.0605894
-0.00102262
-0.00110868
-0.00117835
-0.00123508
-0.00128269
-0.00132471
-0.00136482
-0.00140653
-0.00145293
-0.00150637
-0.00156807
-0.0016374
-0.00171068
-0.00177986
-0.00183221
-0.00184852
-0.00177344
-0.0014465
0.0539229
-0.000865903
-0.000953096
-0.00102508
-0.00108536
-0.00113776
-0.00118579
-0.00123316
-0.00128355
-0.0013405
-0.00140717
-0.00148606
-0.00157822
-0.00168185
-0.00179019
-0.00188966
-0.00195376
-0.00190377
-0.0015441
0.0207953
-0.000723055
-0.000808841
-0.000880219
-0.000940852
-0.000994585
-0.00104497
-0.00109569
-0.00115059
-0.00121362
-0.00128879
-0.00137991
-0.00149002
-0.00161959
-0.00176356
-0.00190671
-0.00201034
-0.00196007
-0.00151789
0.0201495
-0.000593327
-0.000674967
-0.00074281
-0.000800723
-0.000852577
-0.000901871
-0.000952216
-0.00100751
-0.00107201
-0.00115048
-0.00124817
-0.00137071
-0.00152216
-0.00170185
-0.00189813
-0.00206667
-0.00206747
-0.001618
0.0304513
-0.000476285
-0.000550696
-0.000612037
-0.000664325
-0.000711351
-0.000756418
-0.00080292
-0.000854617
-0.000915879
-0.000992001
-0.00108963
-0.00121749
-0.00138484
-0.00159966
-0.0018625
-0.0021376
-0.00228351
-0.00191003
0.0308763
-0.000371504
-0.000435226
-0.000487093
-0.000531075
-0.000570674
-0.000608775
-0.000648336
-0.000692728
-0.000746074
-0.000813755
-0.000903404
-0.0010264
-0.00119796
-0.00143849
-0.00176864
-0.00221433
-0.00263185
-0.0024226
0.0306985
-0.000278592
-0.000327815
-0.000367292
-0.000400595
-0.00043058
-0.000459456
-0.000489484
-0.000523313
-0.000564329
-0.000617238
-0.000689441
-0.000793137
-0.000947265
-0.00118356
-0.00156122
-0.00220672
-0.0031008
-0.00318334
0.0303458
-0.000195709
-0.000226036
-0.000250695
-0.000271563
-0.000290378
-0.000308424
-0.000327031
-0.00034781
-0.000372886
-0.000405373
-0.000450507
-0.000517653
-0.000623689
-0.000802502
-0.00112322
-0.00172223
-0.00334413
-0.00427916
0.0290484
-0.000103484
-0.000116528
-0.000127171
-0.000136148
-0.000143961
-0.000150944
-0.000157482
-0.000164075
-0.000171418
-0.000180599
-0.00019363
-0.000214874
-0.000254476
-0.000336361
-0.000442947
-0.000894505
-0.00265123
-0.00562825
0.00371223
)
;

boundaryField
{
    leftWall
    {
        type            fixedFluxPressure;
        gradient        uniform 0;
        value           nonuniform List<scalar> 
50
(
730.339
730.272
730.104
729.825
729.432
728.925
728.298
727.546
726.279
644.897
117.45
2.13482
2.10944
3.26878
2.19356
0.0455066
0.0364765
0.032373
0.0286289
0.025378
0.0226857
0.0205199
0.0187448
0.0171781
0.0156723
0.0142532
0.0128229
0.0112855
0.00980038
0.0085899
0.00746548
0.00642872
0.00549808
0.00467784
0.00397091
0.00337891
0.0028941
0.00248819
0.00214625
0.00185301
0.00159192
0.00135984
0.00115837
0.000979639
0.000815113
0.000656927
0.00050303
0.000380751
0.000427235
0.000267441
)
;
    }
    rightWall
    {
        type            fixedFluxPressure;
        gradient        uniform 0;
        value           nonuniform List<scalar> 
50
(
740.141
740.153
741.413
740.754
739.897
738.114
738.039
737.324
730.599
720.436
250.478
1.17233
1.19912
1.41407
1.04526
0.265413
0.0361181
0.0337306
0.0368633
0.090842
0.0885746
0.0412419
0.0117435
0.0122251
0.0359841
0.0495568
0.0500779
0.0507548
0.051463
0.0526973
0.0372128
-0.000556687
6.5986e-05
0.000589324
0.0011388
0.0247199
0.0579356
0.0591082
0.0596961
0.0592733
0.0605894
0.0539229
0.0207953
0.0201495
0.0304513
0.0308763
0.0306985
0.0303458
0.0290484
0.00371223
)
;
    }
    lowerWall
    {
        type            fixedFluxPressure;
        gradient        uniform 0;
        value           nonuniform List<scalar> 
62
(
730.339
730.703
731.541
732.872
734.658
736.818
739.35
742.217
745.37
748.757
752.321
755.998
759.716
763.39
766.921
770.185
773.061
775.454
777.066
779.431
781.518
782.925
783.392
783.392
783.467
783.777
783.991
784.393
785.004
785.763
786.821
793.743
794.224
794.255
793.898
784.936
785.021
786.062
786.821
787.257
787.847
788.69
789.648
784.936
784.558
783.407
781.477
779.051
776.25
773.237
770.198
767.008
763.263
759.209
755.025
751.038
749.683
749.949
747.13
742.478
739.55
740.141
)
;
    }
    atmosphere
    {
        type            totalPressure;
        rho             rho;
        psi             none;
        gamma           1;
        p0              uniform 0;
        value           nonuniform List<scalar> 
46
(
-3.8653e-05
0
0
0
0
0
0
0
0
0
0
0
0
0
0
0
0
0
-6.51677e-07
-3.04615e-06
-7.88548e-06
-1.44702e-05
-2.19263e-05
-2.74732e-05
-3.10742e-05
-3.46144e-05
-3.80673e-05
-4.37371e-05
-5.07286e-05
-5.66473e-05
-6.13722e-05
-6.48479e-05
-6.70685e-05
-6.80668e-05
-6.79064e-05
-6.66778e-05
-6.44965e-05
-6.15015e-05
-5.78484e-05
-5.36796e-05
-4.90322e-05
-4.35896e-05
-3.59452e-05
-2.22273e-05
-2.05532e-07
0
)
;
    }
    defaultFaces
    {
        type            empty;
    }
}


// ************************************************************************* //
