/*--------------------------------*- C++ -*----------------------------------*\
  =========                 |
  \\      /  F ield         | OpenFOAM: The Open Source CFD Toolbox
   \\    /   O peration     | Website:  https://openfoam.org
    \\  /    A nd           | Version:  9
     \\/     M anipulation  |
\*---------------------------------------------------------------------------*/
FoamFile
{
    format      ascii;
    class       volScalarField;
    location    "4.7";
    object      p_rgh;
}
// * * * * * * * * * * * * * * * * * * * * * * * * * * * * * * * * * * * * * //

dimensions      [1 -1 -2 0 0 0 0];

internalField   nonuniform List<scalar> 
2268
(
769.263
769.032
768.754
768.439
768.097
767.739
767.371
767.001
766.63
766.259
765.886
765.507
765.11
764.677
764.173
763.543
762.788
761.917
761.434
761.23
761.364
761.622
761.519
769.32
769.105
768.834
768.526
768.186
767.825
767.45
767.066
766.675
766.279
765.876
765.462
765.025
764.548
764.001
763.347
762.641
761.95
761.328
761.459
761.525
761.668
761.587
769.391
769.188
768.923
768.622
768.285
767.921
767.538
767.14
766.729
766.307
765.872
765.423
764.95
764.44
763.876
763.248
762.507
760.276
759.31
759.929
761.13
761.561
761.593
769.48
769.273
769.007
768.712
768.375
768.008
767.617
767.206
766.778
766.333
765.873
765.397
764.9
764.375
763.822
763.262
762.391
758.995
758.904
758.302
759.625
761.504
761.508
769.582
769.361
769.089
768.792
768.454
768.083
767.683
767.261
766.819
766.358
765.878
765.383
764.872
764.343
763.815
763.331
762.996
760.328
758.364
757.816
760.563
761.47
761.441
769.694
769.455
769.171
768.868
768.526
768.147
767.739
767.308
766.854
766.38
765.886
765.378
764.857
764.329
763.823
763.396
763.242
763.324
759.446
759.559
762.025
761.45
761.392
769.815
769.555
769.256
768.944
768.595
768.208
767.79
767.348
766.886
766.401
765.897
765.378
764.849
764.319
763.825
763.426
763.263
763.645
763.86
763.359
762.159
761.416
761.379
769.943
769.668
769.355
769.032
768.674
768.274
767.842
767.389
766.918
766.426
765.912
765.384
764.845
764.302
763.801
763.4
763.198
763.367
763.444
762.929
761.944
761.271
761.313
756.075
757.285
757.983
758.236
758.269
758.239
758.179
758.106
758.057
757.747
756.885
756.554
755.02
755.377
757.983
758.949
758.51
758.109
759.698
755.905
757.456
758.039
758.402
758.585
758.617
758.539
758.483
758.189
757.669
756.94
756.888
753.996
755.24
758.101
758.371
757.955
757.893
759.97
756.601
757.318
757.8
758.174
758.435
758.609
758.723
758.672
758.313
757.746
756.237
753.138
753.621
756.833
758.256
758.144
757.722
757.488
759.935
756.633
757.216
757.627
758.019
758.32
758.545
758.699
758.394
758.223
758.087
751.285
751.978
752.997
757.354
758.659
758.283
757.736
757.084
758.426
756.263
757.005
757.497
757.913
758.23
758.485
758.488
758.285
758.526
758.916
752.694
751.508
752.262
757.864
759.257
758.698
757.988
756.931
749.931
755.881
756.805
757.401
757.836
758.153
758.431
758.616
758.665
759.114
759.633
759.749
752.939
756.973
761
759.939
759.339
753.427
756.749
748.256
755.3
756.725
757.346
757.795
758.051
758.309
758.675
759.129
759.576
759.948
761.5
762.696
763.365
761.561
760.647
760.108
751.21
753.16
747.974
754.59
756.925
757.413
757.812
758.081
758.279
758.615
759.093
759.29
758.64
760.281
763.001
763.114
761.922
761.375
761.348
753.035
745.659
747.965
770.183
769.878
769.541
769.196
768.818
768.39
767.928
767.455
766.974
766.473
765.949
765.405
764.846
764.265
763.72
763.27
762.975
762.862
762.68
762.178
761.401
760.71
760.255
766.989
766.079
765.028
764.039
763.417
762.808
762.194
761.698
761.21
760.815
760.412
759.567
758.548
756.113
753.981
752.411
751.586
751.347
750.957
749.822
747.903
745.752
743.818
338.324
334.565
331.328
328.471
325.117
321.841
318.373
315.701
313.161
310.153
307.014
304.813
303.039
302.483
302.582
303.028
304.275
305.294
304.884
302.025
296.601
290.23
284.317
2.514
2.35888
2.38189
2.51252
3.09386
3.7007
4.06509
3.58679
3.17717
2.90126
2.72783
1.96977
1.56499
1.51526
1.45543
1.3789
1.20958
1.09045
1.0245
0.963208
0.940282
0.915061
0.839025
2.42487
2.3601
2.19509
2.1608
2.74185
3.46134
5.69833
6.8462
6.87146
6.8824
6.90181
6.89993
6.88285
6.85617
6.81863
6.71356
3.85692
2.84198
2.58387
2.62508
3.06435
3.04201
1.8202
1.94815
2.18916
2.05359
2.02482
2.33184
2.61551
3.03996
2.38461
2.63399
2.8256
2.93008
2.93749
2.65464
2.28209
1.76591
1.48166
2.81458
2.85665
2.85855
1.84374
1.15674
1.20574
0.565283
0.987214
1.05169
1.01792
1.01832
0.889577
0.59476
0.240894
0.152067
0.0275584
-0.00168358
-0.00374483
-0.00384774
-0.00133239
0.00275639
0.00897534
0.01299
0.0110988
0.0407079
0.0543442
0.271394
0.250775
0.260465
0.508957
0.000426283
-0.000541728
0.000584332
9.38473e-05
-0.000653109
0.0100284
0.0241243
0.00957056
0.000135998
-0.000932532
-0.00126733
-0.000560694
0.00277582
0.00666598
0.0069354
0.00899668
0.0111349
0.206076
0.339222
0.345763
0.242293
0.326373
0.715015
-0.000155767
-0.000357443
0.000315719
0.000337431
-8.77525e-05
-0.000412033
-0.00064353
-0.000122155
4.76507e-05
-0.000182683
-0.000252551
0.00277527
0.00818788
0.00973305
0.00514875
0.00618231
0.00664912
0.0237267
0.123022
0.19128
0.230459
0.280521
0.300053
-0.000394871
-8.34549e-05
0.0003245
0.000201406
-4.13678e-05
-0.000123659
-9.38923e-05
0.000182336
0.000327894
0.000327223
0.00122874
0.00464286
0.00761601
0.00562381
0.00358885
0.00421232
0.00399893
0.00242995
0.000734709
0.000331311
0.00762317
-0.000727377
-0.00247672
-0.000474519
-7.56262e-05
0.000180756
3.13768e-05
-7.16824e-05
-3.81972e-05
6.32386e-05
0.000268142
0.00168387
0.00426747
0.0044541
0.00321285
0.00129243
0.00186699
0.00255598
0.00287986
0.00266603
0.0019012
0.00131416
0.00156722
0.000699514
1.05423e-05
-0.000856367
-0.000479274
-0.000342323
-0.000194462
-0.00016677
-0.000134044
-5.78751e-05
5.93929e-05
0.00109402
0.00464618
0.00473138
0.00390936
0.000914774
0.00115308
0.00156746
0.00194076
0.00211625
0.00197803
0.00160067
0.00728033
0.0132395
0.0131034
0.00737445
0.000443537
-0.000430196
-0.000389629
-0.000338181
-0.000283205
-0.000213707
-0.000118972
-1.89974e-06
0.0010958
0.00242844
0.00205867
0.000749076
0.000742416
0.00101346
0.00127868
0.00148912
0.00156459
0.00143898
0.00150988
0.0105694
0.0138993
0.0137222
0.0135456
0.00260421
-0.000221271
-0.00010916
-0.000374243
-0.000360946
-0.000292484
-0.000187341
-5.74587e-05
0.000136595
0.000129655
0.000265661
0.000441751
0.000638486
0.000838982
0.00101539
0.00113871
0.00115884
0.00103936
0.000762465
0.000681332
0.0083778
0.0131014
0.00500768
-1.08295e-05
7.16377e-05
0.000192749
-0.000368454
-0.000418235
-0.000359619
-0.00026734
-0.000157563
-5.24716e-05
6.77162e-05
0.000202452
0.000354302
0.000514392
0.000666748
0.000794006
0.000870842
0.000868964
0.000770285
0.000569924
0.000285134
-1.94314e-05
-0.000188899
-0.000143788
9.7403e-05
0.000290167
0.000257898
-0.000362712
-0.000456829
-0.000414214
-0.000336632
-0.00023749
-0.000125385
-5.49991e-06
0.000122583
0.00025752
0.000392045
0.000514689
0.000611592
0.000665755
0.000661049
0.000589458
0.000453379
0.000270427
9.22366e-05
-1.01931e-05
-5.66759e-06
8.84978e-05
0.000425322
0.000333089
-0.000393544
-0.000481299
-0.000456868
-0.000391827
-0.000301309
-0.000195511
-8.13249e-05
3.81645e-05
0.000159282
0.000275552
0.000378209
0.000457087
0.000501085
0.000501132
0.000454536
0.000366648
0.000252835
0.000144731
8.05263e-05
7.77058e-05
0.000121095
0.000768947
0.00040502
-0.000362878
-0.000495862
-0.000488682
-0.000436748
-0.000357075
-0.000260605
-0.000154943
-4.51155e-05
6.40771e-05
0.000166647
0.000255607
0.00032368
0.000363844
0.000371113
0.00034547
0.000292742
0.000225033
0.000161759
0.000124496
0.000123465
0.000151956
0.000862178
0.000545485
-0.000302363
-0.000502783
-0.000509715
-0.00047002
-0.000401272
-0.000314667
-0.000218315
-0.000118139
-1.93787e-05
7.24493e-05
0.000151682
0.00021314
0.00025251
0.000267325
0.00025864
0.000231549
0.000195002
0.000161358
0.000142995
0.000145912
0.0001674
0.000931668
0.000609121
-0.00029245
-0.000503671
-0.000520907
-0.00049139
-0.000432219
-0.000354529
-0.000266764
-0.000175323
-8.55204e-05
-2.30935e-06
6.9742e-05
0.000126944
0.000166724
0.000188054
0.000192299
0.000183466
0.000167863
0.00015344
0.000147566
0.000153922
0.000171603
0.000821765
0.000644612
-0.000397169
-0.000499156
-0.000523601
-0.000502586
-0.000451698
-0.000381963
-0.000301959
-0.00021831
-0.000136224
-6.0075e-05
6.46763e-06
6.07385e-05
0.000101207
0.000127598
0.000141215
0.000145021
0.000143329
0.000141299
0.000143499
0.000152319
0.000167637
0.00020729
9.34185e-05
-0.000384816
-0.000487585
-0.000517534
-0.000503811
-0.000460573
-0.00039855
-0.00032619
-0.000250043
-0.000175063
-0.000105082
-4.30766e-05
8.94118e-06
4.99877e-05
8.00838e-05
0.000100305
0.000112739
0.00012027
0.00012626
0.000133612
0.000143896
0.00015725
0.000126977
-0.000169232
-0.000366722
-0.000468037
-0.000501415
-0.000493287
-0.000457035
-0.000402723
-0.000338277
-0.000269822
-0.000201881
-0.000137779
-7.99809e-05
-3.01271e-05
1.1006e-05
4.34408e-05
6.79309e-05
8.58572e-05
9.90818e-05
0.000109769
0.000119751
0.000130009
0.000140686
0.000101253
-0.000166257
-0.000346712
-0.000441165
-0.000474291
-0.000469633
-0.000439268
-0.000392316
-0.000335803
-0.000275143
-0.000214291
-0.000156094
-0.000102654
-5.54202e-05
-1.51638e-05
1.79756e-05
4.4396e-05
6.49143e-05
8.06611e-05
9.2989e-05
0.00010303
0.000111364
0.000118091
6.24854e-05
-0.000170043
-0.000325275
-0.000406857
-0.000436518
-0.000433363
-0.000407812
-0.000367603
-0.000318674
-0.000265602
-0.000211752
-0.000159558
-0.00011087
-6.7048e-05
-2.89394e-05
3.1091e-06
2.91743e-05
4.96505e-05
6.51698e-05
7.65612e-05
8.45355e-05
8.9452e-05
9.14368e-05
1.52967e-05
-0.000176583
-0.000300017
-0.000364385
-0.000388552
-0.000386183
-0.000365004
-0.000331079
-0.000289313
-0.000243496
-0.000196481
-0.000150393
-0.000106904
-6.7332e-05
-3.25961e-05
-3.21168e-06
2.06642e-05
3.91476e-05
5.25651e-05
6.14418e-05
6.62691e-05
6.73264e-05
6.48246e-05
-3.51574e-05
-0.000182532
-0.000266279
-0.000310629
-0.000330195
-0.000329743
-0.000313163
-0.000285316
-0.000250373
-0.000211522
-0.000171208
-0.000131326
-9.342e-05
-5.87622e-05
-2.83043e-05
-2.6543e-06
1.78959e-05
3.33064e-05
4.37385e-05
4.95567e-05
5.11488e-05
4.87717e-05
4.27194e-05
-8.28724e-05
-0.000148498
2.96417e-05
-0.000228242
-0.000262757
-0.000266193
-0.000254016
-0.000231721
-0.000203114
-0.000170889
-0.000137123
-0.000103499
-7.1426e-05
-4.21034e-05
-1.64637e-05
4.85796e-06
2.15066e-05
3.33633e-05
4.05028e-05
4.32024e-05
4.1789e-05
3.64914e-05
2.7636e-05
-0.000127025
0.000514505
0.00308006
0.00274507
5.01584e-05
-0.000199675
-0.000189375
-0.000170965
-0.000147674
-0.00012149
-9.40013e-05
-6.65813e-05
-4.04439e-05
-1.66758e-05
3.84619e-06
2.0492e-05
3.28733e-05
4.08213e-05
4.43569e-05
4.37017e-05
3.91383e-05
3.085e-05
1.91463e-05
-0.000169807
0.000956878
0.00332609
0.0033411
0.000981558
-0.000132775
-0.000119914
-0.000103269
-8.41023e-05
-6.3298e-05
-4.17538e-05
-2.03984e-05
-1.86879e-07
1.79308e-05
3.31426e-05
4.48163e-05
5.25215e-05
5.60364e-05
5.53404e-05
5.06296e-05
4.21757e-05
3.01369e-05
1.47986e-05
-0.000201067
0.000622367
0.00346525
0.0034892
0.00103485
-6.13786e-05
-4.43941e-05
-2.8783e-05
-1.32882e-05
2.44079e-06
1.8252e-05
3.36944e-05
4.80691e-05
6.05497e-05
7.0355e-05
7.6807e-05
7.93951e-05
7.78248e-05
7.20453e-05
6.22813e-05
4.88735e-05
3.20293e-05
1.2056e-05
-0.000216809
2.60154e-06
0.00275577
0.00223598
0.000345302
2.03675e-05
3.80919e-05
5.12724e-05
6.24603e-05
7.28875e-05
8.2993e-05
9.26925e-05
0.000101458
0.00010852
0.00011305
0.00011425
0.000111466
0.000104293
9.26628e-05
7.69175e-05
5.76038e-05
3.51038e-05
9.82399e-06
-0.000211457
-7.50935e-05
0.000139489
8.4591e-05
8.87813e-05
0.00011217
0.000125673
0.000133847
0.000139475
0.000144135
0.000148577
0.00015288
0.000156559
0.000158797
0.000158608
0.00015497
0.000146991
0.000134083
0.000116156
9.37987e-05
6.79777e-05
3.94209e-05
8.72423e-06
-0.00018363
-4.01969e-06
0.000112227
0.000165933
0.000192549
0.000206816
0.000212858
0.000214153
0.000213348
0.000212116
0.000211298
0.000210964
0.00021056
0.000209102
0.00020533
0.000197869
0.000185444
0.000167141
0.000142774
0.000113376
8.06878e-05
4.60085e-05
1.02073e-05
-0.000130994
8.42277e-05
0.000220156
0.000273946
0.00029142
0.000295694
0.000293167
0.000287036
0.000279857
0.000273335
0.000268275
0.000264656
0.00026177
0.000258367
0.000252802
0.000243194
0.00022767
0.000204705
0.000173782
0.000136695
9.66207e-05
5.57482e-05
1.52588e-05
-5.14876e-05
0.000188197
0.000329019
0.000372808
0.000378077
0.000371977
0.000360949
0.000347926
0.000335395
0.000325008
0.000317454
0.000312564
0.000309413
0.00030644
0.000301539
0.000292161
0.000275525
0.00024895
0.000210913
0.00016455
0.000115867
6.83758e-05
2.34706e-05
7.26081e-05
0.000314526
0.000434227
0.000455329
0.000445541
0.000429248
0.000410766
0.000392449
0.000376589
0.000364638
0.000357079
0.000353531
0.000352858
0.000353235
0.000352113
0.000346173
0.000331351
0.000302785
0.000256093
0.000196895
0.000137104
8.204e-05
3.28466e-05
0.000256937
0.000470302
0.000524485
0.00050878
0.000484016
0.000459728
0.000436217
0.000415403
0.000399258
0.000388831
0.000384269
0.000384971
0.000389703
0.000396587
0.00040286
0.000404558
0.000396178
0.000368985
0.00031066
0.000231937
0.000157112
9.33156e-05
4.02286e-05
0.000505681
0.00063758
0.000570925
0.000514756
0.000481493
0.000453983
0.000429608
0.000410537
0.000398186
0.000392938
0.000394514
0.000402179
0.000414856
0.000431022
0.000448193
0.000462365
0.000467371
0.000449036
0.000373721
0.000263524
0.000169029
9.67342e-05
4.17313e-05
0.000703186
0.000693691
0.000522088
0.000453241
0.000428016
0.000407184
0.000390612
0.000381381
0.000379901
0.000385691
0.000398116
0.000416537
0.000440397
0.000469002
0.000500702
0.000532491
0.000560118
0.000564553
0.000459535
0.000283184
0.000160211
8.37423e-05
3.27597e-05
0.000986373
0.000657795
0.000416495
0.000343507
0.000336366
0.000338481
0.000348264
0.000366108
0.000390312
0.000419651
0.000453598
0.000492109
0.000535625
0.000584691
0.000638996
0.000699583
0.000774577
0.000840671
0.000679751
0.000305351
0.000123824
4.98039e-05
1.12949e-05
0.000765192
-0.00017133
2.57245e-05
0.000101711
0.000168424
0.00022347
0.000273834
0.000323194
0.000372427
0.000422146
0.00047323
0.000526967
0.000585364
0.00065117
0.000728433
0.000834181
0.00103561
0.00139062
0.00117843
0.000368137
0.000106937
2.89063e-05
-1.99778e-06
760.237
759.92
759.614
759.291
742.886
742.417
741.742
740.226
280.642
278.818
276.919
273.918
0.870187
0.895235
0.89711
0.883661
1.63637
2.53526
2.53426
2.10469
0.837
2.30455
1.85111
1.30858
0.636696
0.709901
0.768796
0.53254
0.823957
0.661873
0.388067
0.0925484
0.326179
0.00334605
0.0115751
0.00558658
-0.00170634
4.16634e-05
0.00135557
0.00370909
-0.000343045
0.000414526
0.00105233
0.00130939
8.52028e-05
0.000353898
0.000673604
0.000960554
0.000190054
0.000355808
0.000533487
0.000759998
0.000178084
0.000301378
0.000422508
0.000567976
0.000329426
0.000371939
0.000304902
0.000388592
0.000237673
0.000258957
0.000270707
0.000322851
0.000176736
0.000212949
0.00025236
0.000285781
0.000191765
0.000216771
0.000237698
0.000255362
0.000197568
0.00021544
0.000228465
0.000237994
0.000195292
0.000208315
0.000216423
0.000220979
0.000186712
0.000196151
0.000200778
0.000201813
0.000172455
0.000178876
0.000180631
0.000178816
0.000151721
0.000155364
0.000154765
0.000150855
0.00012438
0.000125566
0.000123342
0.000118359
9.305e-05
9.2304e-05
8.91892e-05
8.39683e-05
6.27142e-05
6.05553e-05
5.68891e-05
5.15893e-05
3.81243e-05
3.4781e-05
3.03461e-05
2.44159e-05
2.12754e-05
1.66065e-05
1.08431e-05
3.45721e-06
1.08656e-05
4.53857e-06
-3.04798e-06
-1.24393e-05
3.84272e-06
-4.39568e-06
-1.39341e-05
-2.53153e-05
-2.34572e-06
-1.25071e-05
-2.37325e-05
-3.66099e-05
-8.33733e-06
-2.02058e-05
-3.26585e-05
-4.63889e-05
-1.29434e-05
-2.6213e-05
-3.94882e-05
-5.35984e-05
-1.43608e-05
-2.87728e-05
-4.26639e-05
-5.6982e-05
-1.15673e-05
-2.69638e-05
-4.14416e-05
-5.60148e-05
-5.13695e-06
-2.14089e-05
-3.6476e-05
-5.1359e-05
2.78733e-06
-1.41671e-05
-2.96671e-05
-4.47024e-05
9.1732e-06
-8.01706e-06
-2.34725e-05
-3.8149e-05
1.09763e-05
-5.5211e-06
-2.00248e-05
-3.34411e-05
5.68675e-06
-8.26817e-06
-2.0312e-05
-3.12005e-05
-8.50799e-06
-1.74603e-05
-2.4649e-05
-3.10557e-05
-1.48171e-05
-2.02244e-05
-2.43465e-05
-2.77809e-05
756.77
757.526
757.634
757.923
755.227
751.492
750.496
751.849
754.943
758.965
761.718
762.753
762.996
762.498
762.488
762.862
754.909
747.163
755.397
734.15
733.835
732.568
731.401
731.721
731.277
727.345
721.009
719.255
724.724
733.571
740.01
738.9
730.252
724.693
731.928
753.824
755.488
755.371
266.669
268.954
275.791
284.925
295.214
306.563
318.714
329.059
331.595
327.778
323.125
320.774
321.665
325.197
327.656
327.918
329.138
340.455
338.916
0.84452
0.852012
0.839092
0.807962
0.87505
0.949249
0.928703
0.89719
0.892539
0.927825
1.19016
1.50356
1.51602
1.5582
2.03994
1.59584
1.11568
1.04914
1.07417
0.910334
0.971052
1.01365
0.918671
1.36201
2.17546
1.97201
1.704
1.63166
1.54461
1.5023
1.49286
1.48733
1.48806
1.95211
1.27996
1.08489
1.06973
1.07102
1.18356
1.46977
1.46869
0.943318
1.90188
2.30744
2.30279
2.30482
2.30475
2.30548
2.3037
2.18668
2.08584
2.10927
2.1094
2.09524
1.75002
1.41862
1.41161
1.35864
1.47505
1.47236
1.47588
1.21032
0.667107
0.462699
0.526111
0.510692
0.508562
0.494327
0.528631
0.557375
0.540422
0.597542
0.752732
0.972791
0.940585
1.03334
0.352548
0.431708
0.346203
0.457469
0.0861398
0.0113172
0.0130194
0.0135987
0.0160916
0.0189265
0.0207381
0.0216158
0.0218891
0.0225619
0.0189232
0.125537
0.0272801
0.0501878
0.121264
0.00325422
0.000159937
0.000211898
0.000947556
0.00526611
0.00871742
0.0112266
0.0133269
0.0192499
0.0540735
0.0867693
0.0856576
0.0592933
0.0237655
0.0150732
0.0122772
0.0119964
0.0113569
0.0099277
0.00212752
0.00120048
0.00147079
0.00279531
0.00537462
0.00780426
0.00956674
0.0123455
0.0747706
0.127129
0.126503
0.126622
0.0514254
0.0154744
0.0146069
0.0129824
0.0120247
0.0111844
0.0102946
0.00159669
0.00151861
0.00211705
0.00703954
0.0170675
0.0155829
0.00883143
0.0343541
0.131106
0.129939
0.0783335
0.0333435
0.0401099
0.0649214
0.0551651
0.0392851
0.0226824
0.0112297
0.0103821
0.00132996
0.0014953
0.0039306
0.0341134
0.0456157
0.035386
0.0124476
0.0799878
0.134252
0.061324
0.0154317
0.0450633
0.0918733
0.0922425
0.0920673
0.0921772
0.0924683
0.05765
0.0171511
0.00106345
0.00119598
0.0110021
0.0458569
0.0463691
0.0467688
0.0421098
0.0241542
0.0195245
0.00101575
0.0170282
0.0927886
0.0932373
0.0916667
0.0359016
0.0257238
0.0269591
0.03303
0.0378759
0.00076665
0.000848576
0.00183461
0.0300716
0.0472467
0.0258336
0.00245968
0.000617241
0.000204355
0.000634124
0.00371748
0.0360401
0.0489908
0.00556599
0.0029704
0.00395362
0.00473462
0.0133357
0.0385264
0.000570708
0.000704606
0.000704903
0.00100827
0.0023542
0.00132052
0.000469572
0.000454051
0.000339629
0.000777463
0.00149092
0.000500433
0.000430331
0.00143752
0.00240169
0.00303361
0.00531595
0.034423
0.0416569
0.000468905
0.000556235
0.00043871
0.000160637
6.61401e-05
0.000159169
0.000352428
0.000383846
0.000361866
0.000468
0.000505201
0.000387076
0.00060685
0.00117927
0.00170348
0.00191822
0.00292046
0.0282742
0.0416471
0.000328465
0.000315904
0.000416677
0.000884413
0.00086342
0.000393224
0.000304374
0.000332568
0.000333819
0.000374656
0.000401757
0.000407616
0.000552834
0.000837275
0.00102762
0.000923785
0.000371045
0.00105197
0.041993
0.000280454
0.000270149
0.000324773
0.000891435
0.000949625
0.00100321
0.0008504
0.000309638
0.000285783
0.000305265
0.000321898
0.000330876
0.000399425
0.000503835
0.000495599
0.000232443
-0.000375141
-0.00138029
0.00973108
0.000251018
0.000240908
0.000209889
0.000242248
0.000644824
0.00101298
0.000946697
0.000385109
0.00023344
0.000315945
0.000408464
0.000323794
0.000254972
0.000232809
0.000133963
-0.000155911
-0.000670506
-0.00132821
-0.00154781
0.000225975
0.00021572
0.000193124
0.000163691
0.000153312
0.000203366
0.000232252
0.000191279
0.00026742
0.000391327
0.000374767
0.000354376
0.000169461
3.18202e-05
-8.64768e-05
-0.000326257
-0.000688903
-0.00106268
-0.00112125
0.000200751
0.000189191
0.000169565
0.000145135
0.000124345
0.00011106
0.000101617
8.9318e-05
7.49135e-05
0.000111882
0.000160561
0.000108645
-3.26706e-05
-0.000109138
-0.000208818
-0.000367982
-0.000573447
-0.000757692
-0.000755405
0.000172929
0.000158949
0.000139014
0.000114974
9.10826e-05
6.93163e-05
4.7772e-05
2.28655e-05
-7.8938e-06
-4.37591e-05
-8.28288e-05
-0.000123054
-0.000164114
-0.000211273
-0.000270525
-0.000338432
-0.000393901
-0.000421386
-0.000397442
0.000141647
0.000124849
0.000103059
7.72407e-05
4.94208e-05
2.04894e-05
-1.0582e-05
-4.56272e-05
-8.572e-05
-0.000129875
-0.000175853
-0.000220568
-0.000260505
-0.000291968
-0.000306931
-0.00028303
-0.000186588
-6.92045e-05
2.36486e-05
0.000107527
8.81655e-05
6.40174e-05
3.54843e-05
3.42054e-06
-3.18944e-05
-7.10641e-05
-0.000114924
-0.000163618
-0.000215775
-0.000268554
-0.000317568
-0.000356858
-0.00037585
-0.0003572
-0.000264685
-4.63449e-05
0.000517317
0.00443324
7.26143e-05
5.10243e-05
2.43181e-05
-7.41909e-06
-4.39339e-05
-8.52606e-05
-0.000131775
-0.000183755
-0.000240805
-0.000301297
-0.00036201
-0.000417652
-0.000463157
-0.000482255
-0.000456768
-0.000353831
-0.000111367
0.00196291
0.043723
3.96476e-05
1.57299e-05
-1.38769e-05
-4.92338e-05
-9.03916e-05
-0.000137542
-0.000190957
-0.000250657
-0.00031605
-0.000385568
-0.00045619
-0.000523295
-0.000580372
-0.000616268
-0.000615656
-0.000552228
-0.000390331
0.00209869
0.0493948
1.08517e-05
-1.59747e-05
-4.89815e-05
-8.83152e-05
-0.00013421
-0.000186971
-0.000246879
-0.00031393
-0.000387616
-0.000466624
-0.000548557
-0.000629695
-0.000704696
-0.000766043
-0.000803685
-0.000803358
-0.000757572
-0.000387667
0.0505886
-1.29332e-05
-4.33495e-05
-8.01431e-05
-0.000123582
-0.000174068
-0.000232043
-0.000297904
-0.000371796
-0.00045347
-0.00054206
-0.000635886
-0.000732286
-0.000827487
-0.000916603
-0.000994177
-0.00105561
-0.00109826
-0.00111881
0.0518864
-3.22372e-05
-6.65484e-05
-0.000107118
-0.000154404
-0.000209004
-0.000271543
-0.000342621
-0.000422638
-0.000511701
-0.000609443
-0.000714868
-0.000826217
-0.00094088
-0.00105548
-0.00116687
-0.00127388
-0.0013664
-0.00137547
0.047605
-4.81864e-05
-8.60793e-05
-0.000129916
-0.000180385
-0.000238304
-0.000304519
-0.00037988
-0.000465097
-0.000560657
-0.000666665
-0.000782675
-0.000907522
-0.00103912
-0.0011743
-0.00130966
-0.0014421
-0.00154834
-0.00150768
0.0318771
-6.15777e-05
-0.000102218
-0.000148431
-0.000201128
-0.000261351
-0.000330179
-0.000408733
-0.000498046
-0.000598977
-0.000712042
-0.000837199
-0.000973574
-0.00111906
-0.00126984
-0.00142098
-0.00156665
-0.00167387
-0.00158248
0.0348248
-7.23891e-05
-0.000114727
-0.00016227
-0.000216118
-0.000277528
-0.000347812
-0.000428362
-0.000520531
-0.000625538
-0.000744262
-0.000876955
-0.0010228
-0.00117922
-0.00134113
-0.00150138
-0.00165119
-0.00175298
-0.00164243
0.035778
-7.9923e-05
-0.000122988
-0.000170858
-0.000224796
-0.000286265
-0.000356806
-0.000438077
-0.000531755
-0.000639424
-0.000762332
-0.000900983
-0.00105445
-0.00121925
-0.00138786
-0.00154804
-0.00168093
-0.00173355
-0.00154937
0.00369613
-8.33883e-05
-0.000126424
-0.000173741
-0.000226772
-0.000287186
-0.000356751
-0.00043739
-0.000531123
-0.000639947
-0.000765572
-0.000908889
-0.001069
-0.00124146
-0.00141569
-0.0015717
-0.00167274
-0.00163582
-0.00130632
-0.000665971
-8.25174e-05
-0.000124918
-0.000170877
-0.000222028
-0.000280255
-0.000347548
-0.000426093
-0.000518276
-0.000626595
-0.000753422
-0.000900422
-0.00106739
-0.00125
-0.00143598
-0.0015994
-0.00168773
-0.00159042
-0.0011592
0.0114741
-7.78732e-05
-0.000118996
-0.000162743
-0.000210991
-0.000265832
-0.000329446
-0.000404263
-0.00049304
-0.000598866
-0.000725014
-0.000874468
-0.00104888
-0.00124611
-0.0014554
-0.00165011
-0.00177032
-0.0016858
-0.00122535
0.0199824
-7.07343e-05
-0.000109698
-0.000150225
-0.000194437
-0.00024459
-0.000302985
-0.000372222
-0.000455376
-0.000556133
-0.000678837
-0.000828314
-0.0010094
-0.00122462
-0.00146916
-0.00172253
-0.00192547
-0.00193027
-0.00148576
0.0202739
-6.2654e-05
-9.82207e-05
-0.000134328
-0.000173269
-0.000217355
-0.000268877
-0.000330462
-0.000405347
-0.000497672
-0.00061279
-0.000757651
-0.000941204
-0.001173
-0.00145964
-0.00179616
-0.00213843
-0.00231882
-0.00192111
0.0193109
-5.48788e-05
-8.54327e-05
-0.000115766
-0.00014816
-0.00018479
-0.00022774
-0.000279436
-0.000342991
-0.000422622
-0.000524259
-0.000656571
-0.000832516
-0.00106994
-0.00139185
-0.00182398
-0.00236914
-0.00286731
-0.00256242
0.0169309
-4.77509e-05
-7.1344e-05
-9.44631e-05
-0.000119055
-0.000146884
-0.000179577
-0.000219056
-0.000267879
-0.000329697
-0.00041003
-0.000517792
-0.000667726
-0.000883444
-0.00120478
-0.00169842
-0.00245014
-0.00353214
-0.00350182
0.0161842
-4.06088e-05
-5.54336e-05
-7.01951e-05
-8.60566e-05
-0.000104066
-0.000125148
-0.000150414
-0.000181392
-0.00022037
-0.000271045
-0.000339901
-0.000438879
-0.000589891
-0.000836226
-0.00126339
-0.00218401
-0.00407192
-0.00483465
0.0143785
-3.25539e-05
-4.02276e-05
-4.80496e-05
-5.64731e-05
-6.57637e-05
-7.61233e-05
-8.78069e-05
-0.000101186
-0.000116862
-0.000135953
-0.000160825
-0.00019703
-0.000257869
-0.000375147
-0.00062195
-0.0013221
-0.00355146
-0.00659255
0.00452003
)
;

boundaryField
{
    leftWall
    {
        type            fixedFluxPressure;
        gradient        uniform 0;
        value           nonuniform List<scalar> 
50
(
769.263
769.32
769.391
769.48
769.582
769.694
769.815
769.943
770.183
766.989
338.324
2.514
2.42487
1.94815
0.987214
0.000426283
-0.000155767
-0.000394871
-0.000474519
-0.000479274
-0.000430196
-0.000221271
7.16377e-05
0.000290167
0.000425322
0.000768947
0.000862178
0.000931668
0.000821765
0.00020729
0.000126977
0.000101253
6.24854e-05
1.52967e-05
-3.51574e-05
-8.28724e-05
-0.000127025
-0.000169807
-0.000201067
-0.000216809
-0.000211457
-0.00018363
-0.000130994
-5.14876e-05
7.26081e-05
0.000256937
0.000505681
0.000703186
0.000986373
0.000765192
)
;
    }
    rightWall
    {
        type            fixedFluxPressure;
        gradient        uniform 0;
        value           nonuniform List<scalar> 
50
(
759.698
759.97
759.935
758.426
749.931
748.256
747.974
747.965
755.397
755.371
338.916
1.07417
1.07102
1.41161
1.03334
0.121264
0.0099277
0.0102946
0.0103821
0.0171511
0.0378759
0.0385264
0.0416569
0.0416471
0.041993
0.00973108
-0.00154781
-0.00112125
-0.000755405
-0.000397442
2.36486e-05
0.00443324
0.043723
0.0493948
0.0505886
0.0518864
0.047605
0.0318771
0.0348248
0.035778
0.00369613
-0.000665971
0.0114741
0.0199824
0.0202739
0.0193109
0.0169309
0.0161842
0.0143785
0.00452003
)
;
    }
    lowerWall
    {
        type            fixedFluxPressure;
        gradient        uniform 0;
        value           nonuniform List<scalar> 
62
(
769.263
769.032
768.754
768.439
768.097
767.739
767.371
767.001
766.63
766.259
765.886
765.507
765.11
764.677
764.173
763.543
762.788
761.917
761.434
761.23
761.364
761.622
761.519
761.519
761.587
761.593
761.508
761.441
761.392
761.379
761.313
760.237
759.92
759.614
759.291
756.075
755.905
756.601
756.633
756.263
755.881
755.3
754.59
756.075
757.285
757.983
758.236
758.269
758.239
758.179
758.106
758.057
757.747
756.885
756.554
755.02
755.377
757.983
758.949
758.51
758.109
759.698
)
;
    }
    atmosphere
    {
        type            totalPressure;
        rho             rho;
        psi             none;
        gamma           1;
        p0              uniform 0;
        value           nonuniform List<scalar> 
46
(
-0.000138862
0
0
0
0
0
0
0
0
0
0
0
0
0
0
0
0
0
-4.198e-08
-1.05769e-06
-3.54299e-06
-7.2282e-06
-1.17546e-05
-1.5421e-05
-1.79159e-05
-2.04759e-05
-2.30875e-05
-2.76186e-05
-3.40908e-05
-4.07138e-05
-4.74441e-05
-5.42572e-05
-6.11344e-05
-6.80472e-05
-7.49406e-05
-8.17116e-05
-8.81835e-05
-9.40726e-05
-9.89397e-05
-0.0001021
-0.000102418
-9.77952e-05
-8.37749e-05
-5.14363e-05
-4.0465e-07
0
)
;
    }
    defaultFaces
    {
        type            empty;
    }
}


// ************************************************************************* //
