/*--------------------------------*- C++ -*----------------------------------*\
  =========                 |
  \\      /  F ield         | OpenFOAM: The Open Source CFD Toolbox
   \\    /   O peration     | Website:  https://openfoam.org
    \\  /    A nd           | Version:  9
     \\/     M anipulation  |
\*---------------------------------------------------------------------------*/
FoamFile
{
    format      ascii;
    class       volVectorField;
    location    "23";
    object      U;
}
// * * * * * * * * * * * * * * * * * * * * * * * * * * * * * * * * * * * * * //

dimensions      [0 1 -1 0 0 0 0];

internalField   nonuniform List<vector> 
918
(
(2.47629 -0.138943 0)
(0.108704 0.722546 0)
(0.171873 1.05828 0)
(2.31834 0.153728 0)
(-0.059928 1.26587 -1.21813e-19)
(-0.0924034 0.643931 -5.31446e-18)
(0.529406 0.848471 -2.95789e-19)
(0.274373 0.152897 -2.98878e-20)
(3.00615 -0.0195609 0)
(-0.00819813 0.475983 0)
(-0.0172647 0.588752 0)
(0.605235 0.0067635 0)
(0.0107054 0.439105 0)
(-0.00288259 0.421689 0)
(0.0134538 0.340861 -1.3054e-18)
(-0.00494416 0.767782 -9.1993e-20)
(0.31244 0.0742765 2.15227e-18)
(0.079616 0.641083 -2.23377e-19)
(1.52884 0.128628 0)
(-0.0269692 0.686272 0)
(0.194635 0.157747 -1.26577e-18)
(3.08302 -0.397373 0)
(2.92445 -0.50598 0)
(1.86116 -0.1811 0)
(0.511421 0.0400864 0)
(-0.025368 0.52155 0)
(-0.00135314 0.494038 1.86265e-18)
(-0.0231503 1.40417 0)
(0.0731755 2.89143 0)
(0.167907 1.74187 0)
(-0.0400696 3.1576 0)
(0.0265172 1.63493 9.36618e-20)
(0.0229465 0.684866 0)
(-0.147425 0.775093 -2.03111e-22)
(-0.193914 1.0291 4.42176e-18)
(-0.0415772 1.04471 0)
(0.744572 -0.00600584 0)
(0.161102 0.24645 6.65714e-19)
(0.992434 1.51124 6.53493e-19)
(0.649265 0.783447 -5.16482e-19)
(0.797678 1.57283 6.21039e-20)
(0.416225 0.849969 -3.20685e-19)
(0.552441 0.30663 2.93942e-20)
(0.29702 0.153669 0)
(0.962541 0.566247 0)
(0.532739 0.304015 1.32031e-19)
(0.258034 0.162822 -1.35483e-19)
(0.871594 -0.0554791 0)
(3.02784 -0.00170504 0)
(3.00685 0.0178655 0)
(3.20086 -0.417733 0)
(3.04288 -0.074212 0)
(3.03116 -0.0388408 0)
(0.0186733 0.905542 -1.147e-18)
(-0.0541942 0.972106 0)
(0.00279991 0.454083 0)
(-0.0289612 0.97903 0)
(-0.0113661 0.480211 0)
(-0.00143053 0.871488 0)
(-0.052118 1.10933 0)
(-0.0126311 0.540907 0)
(-0.0254012 1.16102 0)
(-0.00601316 0.621192 0)
(0.790453 0.0116206 0)
(1.16946 -0.00156529 0)
(0.618266 0.0123683 0)
(1.12583 0.0175977 0)
(0.569786 0.00867745 0)
(0.225406 0.921982 1.96001e-18)
(0.0985378 1.2081 0)
(0.176302 1.06604 0)
(0.0331901 0.755774 2.19957e-23)
(0.0372233 0.498055 -2.93135e-18)
(0.0194616 0.747943 0)
(0.0059542 0.422033 0)
(-0.000695464 0.734548 4.51805e-24)
(0.00070244 0.414825 0)
(-0.0169209 0.74318 0)
(-0.0129377 0.427981 0)
(0.0494802 0.650102 0)
(0.0484789 0.458339 0)
(0.00802599 0.622008 1.23424e-18)
(0.000754853 0.344917 0)
(-0.0727976 4.69011 0)
(0.00854043 1.4569 9.13299e-20)
(-0.010609 0.78509 -1.17609e-19)
(0.636179 0.152167 -7.50991e-19)
(0.321652 0.0656896 -7.28747e-19)
(0.644896 0.169749 -2.25479e-18)
(0.317578 0.0955844 -1.45166e-18)
(0.078776 0.61972 0)
(0.178126 1.31103 1.85283e-19)
(0.179372 0.728734 -2.95634e-19)
(2.06031 0.260945 0)
(1.10704 0.118449 0)
(3.03313 0.103887 0)
(3.10392 0.446059 0)
(2.83919 0.377459 -1.01281e-17)
(2.5781 0.361309 7.77143e-18)
(-0.0710188 1.26418 0)
(-0.0115032 0.623516 0)
(-0.0149263 1.9049 0)
(-0.0510105 1.34876 0)
(-0.0483205 0.680291 0)
(0.440425 0.295718 4.00737e-19)
(0.225514 0.163399 0)
(2.29609 -0.266394 0)
(1.32372 -0.119274 0)
(1.07638 0.0126643 0)
(1.01206 0.0187621 0)
(0.540955 0.0108471 0)
(1.01976 0.0563836 0)
(0.821283 0.0703318 0)
(0.343648 0.0286972 3.36314e-18)
(-0.0054357 0.451599 1.77378e-18)
(-0.0270328 0.78463 0)
(-0.047323 0.847515 0)
(-0.015275 0.460439 0)
(0.000132447 0.839725 1.81621e-18)
(7.29741e-05 0.48753 0)
(-0.00547891 0.845554 -5.59101e-18)
(-0.00488634 0.496761 1.88656e-18)
(0.0518257 3.57233 0)
(0.0395581 4.0309 0)
(-0.0165179 1.40859 -2.05224e-21)
(-0.013475 1.36032 0)
(-0.00997027 0.740137 0)
(1.41017 0.034882 0)
(0.76054 0.0154369 0)
(0.70952 0.0142637 0)
(1.41617 -0.0328496 0)
(0.77351 -0.00874068 0)
(0.322269 0.480652 -8.3583e-19)
(0.156895 0.232844 0)
(0.325188 0.50952 9.36736e-20)
(0.163474 0.268609 0)
(1.23971 1.38528 1.66599e-19)
(0.778076 0.740119 -3.92719e-19)
(0.410967 1.41931 0)
(0.606162 1.53132 0)
(0.303026 0.813279 0)
(0.145495 0.35374 -4.43053e-19)
(0.607441 0.280777 0)
(0.313563 0.134658 3.98857e-19)
(1.42636 1.30554 0)
(1.58586 1.16772 0)
(0.874384 0.663404 4.61984e-19)
(1.73319 0.952593 0)
(1.06819 0.438566 2.32121e-20)
(1.47297 0.008137 0)
(1.50099 -0.02924 0)
(0.801893 -0.00441683 0)
(1.95042 -0.19978 0)
(1.65082 -0.148181 0)
(1.05215 -0.08897 0)
(3.06126 0.164853 0)
(3.03105 0.0687872 0)
(3.01022 0.0531592 0)
(0.0356738 1.61013 6.08613e-19)
(0.0179056 0.829354 0)
(0.0180688 1.7013 1.08043e-18)
(0.00306887 0.941639 -9.71321e-19)
(0.064608 1.14963 1.88153e-19)
(0.0476477 0.98678 0)
(0.0401212 0.527461 0)
(-0.028635 1.00302 0)
(-0.00700337 0.516309 0)
(0.0178157 1.61896 -4.432e-21)
(-0.0183173 0.86777 0)
(-0.0540712 1.58711 -2.2569e-19)
(-0.0163418 0.822221 4.37065e-19)
(-0.0018571 1.02745 0)
(0.0101208 1.04192 0)
(-2.06689e-05 0.53042 0)
(0.0104552 1.17004 0)
(0.000743377 0.612006 0)
(1.46825 -0.00371311 0)
(0.789183 0.00805489 0)
(1.44051 0.0331614 0)
(0.761774 -0.000559493 0)
(0.675394 0.00534303 0)
(1.26198 0.0166794 0)
(1.20242 0.0473067 0)
(0.659706 0.0155543 0)
(-0.00580052 1.42077 -1.70229e-20)
(0.000184313 1.37708 0)
(0.00482011 0.732923 0)
(0.00172892 0.417221 0)
(0.284587 0.829048 0)
(0.25374 0.3999 -2.87185e-19)
(-0.00221991 0.635423 0)
(-0.00889342 0.367611 0)
(0.0071096 4.34115 0)
(-0.0535806 4.6641 0)
(-0.0232133 4.56814 0)
(-0.0743529 3.36188 2.04824e-20)
(-0.0628028 4.60009 0)
(-0.055801 4.17495 0)
(0.00463129 0.81943 1.07671e-20)
(0.014026 1.56285 1.65294e-19)
(-0.0359967 1.50269 1.20834e-19)
(-0.00760732 0.825907 0)
(0.664513 0.105721 1.15335e-18)
(0.325719 0.0441653 -1.13031e-18)
(0.150069 1.13581 0)
(0.101216 0.574489 -2.69444e-19)
(0.11864 1.23617 -8.75055e-19)
(0.052104 0.688834 8.7055e-19)
(0.809205 0.0240628 0)
(1.55677 0.0476783 0)
(1.7097 0.127652 0)
(0.919847 0.0445223 0)
(0.00759449 1.18188 0)
(0.025596 1.19053 0)
(0.00432999 0.627845 0)
(0.482254 0.315175 1.20376e-18)
(0.436973 0.309179 -1.38688e-18)
(0.234826 0.164217 0)
(1.93527 0.152943 1.15246e-19)
(1.13626 0.0932179 0)
(1.7242 0.118421 0)
(0.883659 0.0226847 0)
(0.678245 0.0857434 0)
(0.699778 0.0460633 -5.4078e-18)
(0.346757 0.0325973 1.99912e-18)
(0.00914595 0.807282 1.69392e-18)
(0.00222236 0.462509 4.08167e-20)
(-0.0108777 1.40842 -3.58046e-20)
(0.00613615 1.38675 1.36602e-18)
(-0.0149832 0.848955 6.29511e-20)
(-0.0119261 0.524486 -2.52935e-22)
(-0.107514 1.00068 -1.16501e-18)
(-0.0529602 1.3532 8.34084e-19)
(-0.0175323 1.35275 -1.35792e-18)
(1.4227 -0.0170878 0)
(1.44234 0.0203148 0)
(0.769858 -0.000179957 0)
(1.45218 0.0253822 0)
(1.3632 0.0462288 0)
(0.761546 0.0203063 0)
(1.30064 -0.00215551 0)
(1.31869 -0.00585078 0)
(0.695063 -0.000987896 0)
(0.305029 0.473675 -9.15415e-19)
(0.161443 0.242803 0)
(0.157294 0.308668 1.3699e-19)
(0.309865 0.586369 1.12254e-18)
(0.307637 0.548985 -6.64547e-19)
(0.156938 0.282089 1.2986e-18)
(0.278823 0.718537 2.18259e-18)
(0.148455 0.381268 3.93846e-19)
(0.636201 0.213135 1.53758e-18)
(0.626113 0.253653 3.9935e-19)
(0.316667 0.115061 7.49331e-19)
(1.9207 0.714295 -5.99821e-19)
(1.16738 0.335968 -7.02033e-19)
(-0.0352144 1.70834 4.64382e-19)
(-0.0115287 0.927649 0)
(1.60379 0.0239308 0)
(1.52183 0.0653611 0)
(0.852886 0.0268496 0)
(-0.00355882 1.38473 0)
(0.00507418 0.729574 2.49544e-18)
(0.00465034 0.731252 0)
(0.00207078 0.415097 -2.44247e-18)
(-0.0102752 1.38626 5.95732e-19)
(-0.00947268 1.4225 0)
(0.336729 0.488391 2.58008e-19)
(0.360214 0.546656 -8.63164e-19)
(0.171921 0.257938 7.81289e-19)
(-0.0256705 0.767463 -1.66287e-18)
(-0.0261502 0.689731 0)
(-0.0154341 0.412934 0)
(0.0298727 1.54998 -1.27659e-20)
(0.0310997 1.58189 -3.64556e-19)
(0.0177597 0.823433 -1.55893e-20)
(0.213867 1.04596 8.90626e-19)
(0.119894 0.509815 -5.92666e-19)
(0.0119646 1.48893 7.31151e-19)
(0.0560995 1.35436 -8.16057e-19)
(0.0269452 0.762379 3.53485e-20)
(0.00751272 1.36614 -3.80808e-18)
(-0.000215557 1.39326 4.40998e-18)
(0.00377329 0.829776 1.73314e-18)
(-0.0138293 0.805094 -1.72562e-18)
(-0.00430916 0.481399 -1.73878e-18)
(-0.0106513 1.41685 -4.50037e-18)
(-0.015218 1.40032 4.58957e-18)
(0.286678 0.675484 0)
(0.300066 0.635204 -2.28857e-18)
(0.152087 0.332008 9.90732e-19)
(0.281632 0.796973 1.18568e-18)
(0.139016 0.428051 -1.82948e-18)
(2.05665 0.322471 4.15875e-19)
(2.05109 0.547516 0)
(1.21842 0.22091 -4.0184e-19)
(-0.0741667 1.63942 -4.80144e-21)
(-0.0143871 1.69529 0)
(-0.0158345 0.924478 0)
(0.227498 0.945988 -3.22975e-19)
(0.248627 0.867732 -7.07308e-19)
(0.129021 0.46391 1.32551e-18)
(3.16442 -0.442873 0)
(3.34728 -0.414686 1.81287e-18)
(0.0594947 3.48867 0)
(0.0472353 2.81258 0)
(3.15925 0.249915 1.41919e-20)
(3.12355 0.506295 3.71226e-18)
(0.0210169 3.42737 -2.74884e-20)
(0.00829309 2.6599 0)
(-0.041637 1.19605 1.55525e-18)
(0.190207 1.31661 0)
(3.4718 1.62445 -3.24812e-19)
(3.17427 0.272571 -2.96098e-20)
(3.14838 -0.118699 0)
(3.10047 -0.000404827 3.7304e-22)
(0.0438054 2.58402 0)
(0.158248 3.30875 0)
(-0.0554348 2.52964 0)
(-0.0239226 3.49523 3.15765e-19)
(-0.0262851 3.57395 1.99248e-19)
(2.6335 0.0488148 -1.36485e-20)
(3.04746 0.0311334 0)
(3.15782 0.0868068 0)
(-0.0557562 4.61755 0)
(-0.0471537 3.08254 0)
(-0.0733097 2.93641 0)
(0.651768 3.10009 2.66004e-19)
(3.33884 -0.42246 0)
(3.0114 -0.34581 0)
(3.1699 -0.0530378 2.27729e-18)
(3.2927 -0.328701 -2.74211e-18)
(3.1038 -0.125777 0)
(-0.0615765 4.51674 0)
(0.0129681 3.93858 0)
(0.00422356 4.26856 0)
(-0.0283919 3.09747 0)
(-0.0145803 2.85488 0)
(-0.0314924 2.42729 0)
(2.97421 -0.00317598 0)
(2.85044 0.0486229 -1.80498e-20)
(2.24547 3.04678 -3.21864e-19)
(3.15695 0.0444543 -2.27836e-18)
(3.19037 0.278179 2.76946e-18)
(3.0828 0.117337 0)
(3.3954 0.328923 2.08738e-18)
(3.35695 0.484365 -2.70666e-18)
(3.07111 0.418429 0)
(-0.0564878 3.34531 0)
(0.00398787 3.27307 8.52723e-20)
(-0.0311798 2.57295 -6.04185e-20)
(3.70756 0.555144 2.2657e-18)
(3.4708 0.208422 0)
(-0.151956 1.27126 -2.16627e-18)
(-0.0623992 0.882157 -1.35056e-19)
(-0.0847772 1.33675 2.98607e-18)
(-0.0352013 1.27047 -8.99757e-19)
(-0.000461759 1.08844 0)
(-0.026666 1.23955 6.94962e-19)
(-0.115044 1.38786 2.14688e-18)
(-0.0590419 1.34056 -1.31434e-18)
(-0.0767411 1.32063 0)
(1.28966 0.597351 0)
(1.17769 0.682581 0)
(3.55598 2.02872 9.53734e-19)
(3.04882 1.93504 -1.19087e-18)
(3.83729 1.70602 0)
(3.3835 1.15645 0)
(3.34934 0.280493 -3.91699e-18)
(2.89884 0.173118 4.83998e-18)
(3.35144 -0.155482 0)
(2.85478 -0.0761383 0)
(3.43642 0.0430232 0)
(3.5938 0.145054 0)
(3.28683 0.119873 0)
(3.55033 0.298578 0)
(3.40841 0.293058 0)
(3.32755 0.218072 0)
(0.0973331 2.78512 0)
(0.0344673 2.07453 0)
(0.1264 3.04569 0)
(0.0924027 2.20063 0)
(0.21563 3.60133 0)
(0.140635 2.68083 -5.58938e-19)
(0.0536847 3.6182 0)
(0.0116792 3.02261 4.05832e-19)
(-0.0247956 3.21083 -5.17122e-19)
(-0.059973 2.79452 0)
(-0.0232846 2.19802 0)
(-0.0727621 2.90128 0)
(-0.0557831 2.04525 0)
(-0.108465 4.75156 -2.45471e-19)
(-0.0809061 3.94541 2.77184e-19)
(-0.0754703 3.80776 3.08999e-19)
(-0.0532124 3.02228 0)
(-0.105917 3.80709 -4.58638e-19)
(-0.0380515 3.21845 -2.94988e-19)
(-0.0829077 4.78387 1.92537e-19)
(-0.0956434 4.46847 -3.50355e-19)
(-0.0703076 4.33892 -3.78839e-19)
(3.0314 0.088364 3.35875e-18)
(2.28965 0.0321758 -4.22997e-18)
(2.8914 0.132823 -3.32768e-18)
(2.20967 0.0734793 4.15647e-18)
(3.36854 0.0277031 0)
(2.64302 -0.00265769 0)
(3.45409 0.0913157 0)
(3.32019 0.0192652 0)
(2.70658 0.00921298 0)
(3.68018 0.239558 0)
(3.43874 0.0959533 0)
(2.86354 0.0564875 0)
(-0.0252811 4.33153 -1.2044e-20)
(-0.0587328 4.65271 0)
(-0.0641344 4.54645 0)
(-0.0766789 3.50415 8.77579e-20)
(-0.038098 2.77842 -3.4656e-21)
(-0.0835552 4.66974 1.13459e-19)
(-0.0975044 4.45927 -1.14655e-19)
(-0.0804977 3.9569 0)
(-0.058588 3.87818 0)
(-0.0226464 3.9952 0)
(-0.0727722 3.25666 0)
(-0.0431622 2.30122 0)
(0.948141 3.65622 -6.09191e-19)
(0.919965 2.84863 -1.76505e-19)
(0.431312 2.05628 -2.28331e-19)
(0.25306 2.30392 6.97457e-19)
(1.02556 4.20297 2.63832e-19)
(3.43308 -0.167425 0)
(3.32213 -0.256548 0)
(2.88327 -0.189516 0)
(3.47032 -0.0643487 0)
(3.34581 -0.147866 0)
(3.44893 -0.261024 0)
(3.5195 -0.283603 0)
(3.57949 -0.281132 0)
(3.22415 0.0933804 3.61905e-18)
(2.5552 0.0645152 -4.57623e-18)
(3.09651 0.10657 -3.5625e-18)
(2.50912 0.0566697 4.43275e-18)
(2.23928 3.41443 0)
(1.73821 2.94506 -4.45913e-19)
(2.56645 3.34718 -4.03373e-19)
(2.36806 2.52761 5.36111e-19)
(0.775045 1.21377 2.72273e-18)
(1.44693 0.216485 1.34322e-18)
(3.7224 0.30415 0)
(3.89294 0.572658 -1.84614e-18)
(3.29874 0.24388 -8.23447e-20)
(3.72096 0.440053 0)
(0.236851 1.31245 1.79633e-18)
(-0.0165395 1.20203 -2.87673e-18)
(0.0589178 0.769991 1.61475e-18)
(0.276089 0.464975 -7.47942e-19)
(0.187385 1.38394 8.71117e-19)
(0.0507159 1.23724 0)
(0.0577888 1.08627 -1.13244e-18)
(0.191897 1.44311 -4.09269e-18)
(0.329267 1.55718 0)
(0.00867107 1.2902 1.196e-19)
(-0.0097194 1.45729 -1.34038e-18)
(-0.0410167 1.30282 1.94863e-18)
(-0.0574474 1.41766 0)
(-0.0204791 1.38227 0)
(0.681458 1.05039 0)
(2.45798 2.45569 -1.06628e-18)
(2.64282 2.17237 3.95316e-19)
(2.79179 2.88114 0)
(3.21285 3.06639 -3.94579e-19)
(3.16525 2.41075 2.84509e-20)
(0.803973 0.589547 -1.82258e-18)
(1.55623 0.691564 -1.62216e-20)
(1.23313 0.451071 8.72185e-19)
(1.27542 0.84384 5.95098e-20)
(0.939082 0.633993 -2.36968e-18)
(1.46458 0.714283 0)
(1.9904 1.0999 1.45601e-18)
(2.03251 1.01583 0)
(1.41218 0.790847 0)
(1.06219 0.549779 0)
(3.37607 2.18006 1.00848e-18)
(3.9473 0.760698 -1.86345e-18)
(3.84754 1.21576 0)
(3.53334 0.757569 0)
(1.39157 0.364798 1.33253e-18)
(3.25867 1.84226 -8.5153e-19)
(2.8351 1.65453 1.54688e-18)
(3.75559 1.37693 -1.83589e-18)
(3.09794 0.114755 2.46401e-18)
(3.16857 0.180814 -2.57897e-18)
(2.66184 0.0916405 0)
(3.30729 -0.0395039 0)
(3.2014 -0.0842608 -2.36655e-18)
(2.63242 -0.0321121 2.3457e-18)
(3.9563 0.0931908 0)
(3.75969 0.145643 0)
(3.69369 0.155369 0)
(3.5883 0.204744 0)
(3.83261 0.0590256 0)
(3.72611 0.0522484 0)
(-0.0403319 2.50765 0)
(-0.0378259 2.00767 0)
(0.357042 3.98353 -4.11056e-19)
(0.662176 3.32833 -1.60103e-19)
(0.259142 3.02228 -3.58151e-19)
(0.343253 2.54332 5.73708e-19)
(0.458093 4.00999 0)
(0.470908 4.67092 -5.09817e-19)
(0.384531 4.72898 0)
(0.913131 4.37775 -3.79524e-19)
(0.675389 3.81967 9.69065e-19)
(0.598475 4.65132 4.46844e-19)
(0.741021 4.19729 -1.87487e-19)
(0.602839 4.32244 1.50842e-19)
(0.917476 4.65551 -6.63689e-19)
(0.7504 4.66183 0)
(0.860196 4.58904 5.04533e-19)
(0.00657184 4.57628 -1.81119e-19)
(-0.0189998 3.65383 0)
(0.101494 4.2922 5.49573e-19)
(-0.00298222 4.3955 0)
(-0.00377253 3.46584 -4.5128e-19)
(-0.0154115 2.91952 0)
(-0.101532 4.30484 -2.88963e-19)
(-0.107402 4.68084 0)
(-0.0536687 3.80129 0)
(-0.0408457 3.72286 3.25011e-19)
(-0.0480524 3.8937 1.03747e-20)
(-0.0355633 3.71564 6.25977e-19)
(-0.0416885 2.95576 4.06854e-21)
(-0.11609 4.71108 1.80089e-19)
(-0.104996 4.74239 1.03161e-19)
(-0.017488 2.62082 0)
(0.000740225 2.13386 0)
(-0.0424031 4.78989 4.85927e-19)
(-0.0489762 4.30494 4.23394e-19)
(-0.0840176 4.58287 -5.53567e-19)
(0.0160316 4.75736 0)
(-0.0811597 4.53448 -3.09019e-19)
(-0.119932 4.16806 1.27713e-19)
(-0.0870077 4.24972 -4.1299e-20)
(-0.0726493 4.72973 -2.18774e-19)
(-0.0875104 4.2717 -6.85205e-20)
(-0.08562 4.21712 3.06612e-19)
(2.87145 0.0610145 -2.36363e-18)
(2.85892 0.0496929 2.2731e-18)
(2.33863 0.0345519 0)
(3.5102 0.191988 3.04664e-18)
(2.70379 0.126525 -3.30489e-18)
(2.2546 0.0644722 3.60972e-18)
(3.68261 0.335273 -4.01657e-19)
(3.20988 -0.0485296 0)
(3.1721 -0.0135617 2.2371e-18)
(2.69088 -0.0123803 -2.21946e-18)
(3.87871 0.122199 -1.25244e-19)
(3.77172 0.101825 1.07838e-18)
(4.15973 0.173429 0)
(4.22844 0.181087 -3.75149e-19)
(4.01373 0.145195 0)
(3.69495 0.155377 0)
(4.0323 0.0950708 0)
(3.7118 0.0873188 0)
(4.18472 0.113846 7.85533e-19)
(4.13721 0.079107 -1.74798e-18)
(4.14065 0.11385 -8.48048e-19)
(4.18638 0.11649 -9.24527e-19)
(4.21566 0.228943 1.77415e-18)
(3.85468 0.188583 0)
(4.0612 0.301821 0)
(-0.0753119 4.57962 -1.35769e-19)
(-0.0355794 4.64337 -1.16819e-20)
(-0.0687048 4.66045 0)
(-0.0574901 4.19532 1.38155e-19)
(-0.055958 4.22173 2.2546e-20)
(-0.0603573 4.08948 -2.1857e-20)
(-0.0813105 3.52992 2.61105e-19)
(-0.14534 4.00795 -1.45174e-20)
(-0.104212 4.13608 7.47387e-20)
(-0.0753129 3.40414 -1.32312e-19)
(-0.0253208 2.9273 1.58452e-19)
(-0.0784677 4.42878 5.1923e-21)
(-0.0915647 4.64241 1.72173e-19)
(1.24399 4.35592 3.47574e-19)
(1.16051 4.52648 7.25862e-19)
(1.73582 3.46282 4.31189e-19)
(1.3077 3.55579 1.69674e-19)
(1.28489 2.88557 0)
(0.549757 2.32242 2.7502e-19)
(0.46442 1.74419 3.30876e-19)
(0.346076 2.57233 1.51432e-20)
(0.493579 3.179 -1.16153e-18)
(0.633731 3.13716 8.76898e-19)
(0.433913 2.4086 0)
(0.294419 1.97576 -5.57615e-19)
(0.260658 3.08379 1.39556e-18)
(0.274106 2.72476 -3.14344e-20)
(0.158443 2.28134 -1.74919e-18)
(0.592121 1.41246 1.46386e-18)
(0.577256 1.61883 0)
(3.58364 -0.0751528 8.64367e-20)
(3.61861 -0.254104 -7.25994e-20)
(3.72135 -0.217716 -1.2666e-18)
(3.75927 -0.126024 1.28248e-18)
(3.67616 -0.0488604 0)
(2.44659 3.86981 0)
(2.61854 3.9136 0)
(2.88984 3.62427 0)
(2.73697 3.64192 0)
(0.85484 1.3953 -3.33561e-21)
(0.611939 1.03975 0)
(1.71114 3.38637 1.5023e-20)
(1.42307 3.46576 0)
(1.3284 2.95312 -1.28406e-18)
(1.40891 2.89538 8.24622e-19)
(1.79148 0.310415 0)
(1.43063 0.262037 3.52084e-19)
(2.41187 0.358824 2.19188e-18)
(1.78626 0.284835 -7.85467e-19)
(1.42645 0.112198 -2.4951e-18)
(4.26628 0.789886 -2.5656e-18)
(3.85228 0.995048 -3.67155e-20)
(3.29733 0.844551 2.06792e-18)
(3.87604 0.745338 1.81335e-18)
(3.12332 0.465644 -3.04517e-18)
(2.91049 0.452133 3.75004e-19)
(3.19284 0.682287 -8.18755e-19)
(2.97641 0.683348 0)
(3.7589 0.563891 1.53771e-18)
(4.09581 0.629258 0)
(4.09135 0.776298 0)
(4.04565 0.415803 8.23715e-19)
(4.29662 0.642419 -3.02508e-20)
(4.24931 0.715687 -4.52899e-19)
(4.17643 0.643078 0)
(3.61574 0.130376 1.71825e-18)
(4.19001 0.183529 2.14428e-18)
(4.09072 0.151607 -1.67948e-18)
(4.13656 0.240799 -1.44291e-18)
(3.74582 0.238156 -2.15646e-18)
(3.30309 0.375929 0)
(3.40357 0.302356 0)
(2.55827 0.190633 -1.2661e-18)
(2.10862 0.119106 4.76787e-19)
(4.03729 0.352548 1.94042e-18)
(4.2877 0.432718 -2.34661e-18)
(4.28493 0.489341 2.069e-18)
(4.15721 0.493395 0)
(4.25661 0.337185 0)
(4.26647 0.322332 -9.81943e-19)
(4.21431 0.316073 -1.59658e-18)
(2.22855 3.4882 6.20498e-19)
(1.93942 3.23233 -6.83444e-19)
(1.44697 2.35678 -1.03208e-18)
(1.18725 1.99726 2.66891e-19)
(0.884432 1.37899 -2.62925e-18)
(0.794167 1.21608 9.22301e-19)
(0.601144 0.904446 -1.96152e-21)
(1.11536 1.78566 -1.13807e-18)
(1.14278 1.88291 1.69892e-18)
(0.974994 1.70088 5.06162e-19)
(0.786402 1.28923 -5.12779e-19)
(0.635732 1.07486 0)
(2.44695 2.60742 -1.15443e-19)
(0.705665 1.14446 8.57378e-19)
(0.92821 0.890078 1.15636e-18)
(0.755675 0.813889 1.33797e-18)
(1.08351 0.74678 1.34132e-18)
(1.46754 1.04469 -2.27056e-18)
(1.38357 1.07163 1.83966e-18)
(1.00222 0.765817 -6.76851e-19)
(0.817329 0.568208 1.49484e-18)
(1.61581 0.490826 -7.78161e-19)
(1.55931 0.508422 0)
(1.23979 0.407405 4.6095e-21)
(2.51006 1.51615 7.75632e-19)
(2.08057 1.27045 -2.80886e-18)
(1.68736 1.18479 9.1012e-21)
(1.66135 1.09265 0)
(2.86323 2.59533 8.73837e-19)
(3.44715 2.75235 1.03747e-18)
(3.25631 2.93047 -1.19596e-18)
(3.55434 2.76277 -4.28397e-19)
(3.48404 2.60258 -1.34904e-19)
(3.51235 2.79417 1.38798e-19)
(3.67478 2.26662 -1.67946e-18)
(3.70521 2.49166 4.00782e-19)
(3.78352 2.43511 0)
(3.7842 2.19088 -5.79744e-19)
(4.04912 1.07315 5.80585e-19)
(4.27588 0.992915 1.00222e-18)
(4.30038 0.966622 1.01172e-18)
(4.05518 1.32909 -1.14967e-18)
(4.10276 1.34938 0)
(4.15236 1.23335 0)
(3.32822 1.23568 -1.55969e-20)
(2.41817 0.666536 0)
(2.7223 0.744055 9.30704e-19)
(3.2387 0.885875 -2.64481e-20)
(3.77327 1.5345 5.10764e-18)
(3.57032 1.76176 1.31117e-18)
(3.48149 1.54041 -1.34073e-18)
(3.03803 1.36982 1.4375e-18)
(2.76138 1.36977 8.23822e-19)
(2.30724 1.15608 -7.97854e-19)
(3.6722 -0.0855509 1.9847e-18)
(3.8947 -0.028941 0)
(3.85894 -0.0665569 1.34211e-18)
(3.74291 -0.0594162 -2.98785e-18)
(3.98056 0.037366 1.46202e-18)
(3.90445 0.113416 -3.08304e-18)
(3.73986 0.128024 0)
(3.55625 0.173464 -6.28567e-19)
(3.81198 0.122974 1.60533e-18)
(3.69196 0.191378 -8.22584e-19)
(3.6003 0.171073 5.90735e-19)
(-0.08061 2.58673 0)
(-0.0475381 3.39294 0)
(-0.032061 2.4574 0)
(-0.0217265 1.96708 0)
(0.0461501 3.93569 6.70302e-19)
(0.140177 3.71653 -1.72885e-19)
(0.317826 4.64169 -2.29636e-19)
(0.253202 4.45626 2.42515e-19)
(-0.0255169 4.28993 -4.97224e-19)
(0.0117386 4.32208 3.73388e-19)
(0.0955935 3.86399 2.22861e-20)
(0.00955293 3.551 -4.66896e-19)
(-0.0127523 3.30314 -6.22302e-20)
(-0.0397814 3.66581 -5.6698e-20)
(0.153679 4.47946 -5.86936e-19)
(0.179069 4.2939 0)
(0.276402 4.63775 2.96425e-19)
(0.269313 4.71013 2.53019e-19)
(0.597305 4.44717 -2.25999e-19)
(0.409789 3.78714 0)
(0.458942 3.63414 -1.11535e-18)
(0.562252 4.00295 7.90302e-19)
(0.481593 4.56431 -6.14866e-19)
(0.371689 4.43691 3.30789e-19)
(0.300957 4.16093 0)
(-0.0355216 4.76372 -5.52929e-19)
(-0.0752093 4.53221 -6.41442e-19)
(-0.0764672 4.74302 0)
(-0.0293211 4.3655 -6.25695e-21)
(-0.019175 4.64553 2.74137e-19)
(-0.119656 3.87814 4.46765e-20)
(-0.0564391 3.48342 -6.53309e-19)
(-0.0968342 3.92193 1.7415e-19)
(-0.1369 4.51491 2.32093e-19)
(-0.0770651 4.32452 0)
(-0.0612851 3.88356 0)
(-0.0830506 2.89801 2.00789e-19)
(-0.0489808 3.63009 -6.26495e-20)
(-0.0741171 3.61717 0)
(-0.0889231 2.68609 1.58093e-19)
(-0.046865 2.19357 -3.0632e-19)
(3.76101 0.0323284 0)
(3.73188 0.00772983 -2.03286e-19)
(4.17949 0.0679353 -1.44002e-18)
(4.08909 0.0462859 0)
(3.87631 0.0177993 0)
(4.14973 0.0370398 -1.25233e-20)
(4.1003 0.0349366 2.37904e-18)
(4.00011 0.080195 2.8458e-18)
(3.75588 0.118655 0)
(3.55804 0.110042 0)
(4.01334 0.093937 1.41755e-18)
(3.70327 0.116121 0)
(3.47213 0.128864 0)
(-0.0841211 4.70012 0)
(-0.110169 4.66791 1.06653e-20)
(-0.0804854 4.71974 6.30038e-20)
(-0.0628804 3.83117 0)
(-0.115446 4.53577 1.11202e-19)
(-0.0710763 4.24106 -6.33512e-20)
(-0.0566599 3.92956 0)
(1.41283 4.18804 0)
(1.21061 4.57936 -1.29794e-18)
(1.22626 4.4886 0)
(1.57524 4.48557 1.48454e-18)
(1.59329 4.11727 0)
(1.50201 4.36888 -6.06621e-19)
(1.01271 2.24462 -3.39596e-20)
(0.710068 1.64701 -1.7453e-18)
(0.591315 1.22861 2.12938e-18)
(0.709837 1.8372 3.96982e-19)
(0.976567 2.4269 0)
(1.03791 2.38179 0)
(0.71932 1.68916 0)
(0.533027 1.33163 -1.39583e-18)
(1.21148 3.77796 -9.83687e-19)
(1.13071 2.99219 -2.35569e-19)
(1.32916 3.40798 1.92655e-19)
(0.600404 2.04392 0)
(0.621268 1.94521 0)
(0.463029 1.57335 -3.92934e-19)
(0.959339 2.72377 0)
(2.68824 3.57082 0)
(2.38274 3.00924 -1.45471e-18)
(2.54727 3.0274 -8.58814e-20)
(2.42136 3.4049 0)
(2.28731 3.15032 2.22133e-18)
(3.27861 3.08635 -3.89734e-19)
(3.13421 3.32393 0)
(3.11657 3.15024 6.30507e-19)
(2.87112 3.41235 0)
(2.88295 3.20076 0)
(1.21032 2.00766 -9.30645e-19)
(1.4153 2.40479 -6.99654e-19)
(1.75525 2.98337 1.20614e-18)
(1.6975 2.96154 -3.62313e-19)
(1.06336 1.82351 0)
(1.20801 2.21008 4.7121e-19)
(0.719 1.28958 -7.15407e-19)
(0.582085 1.04421 -5.72329e-22)
(1.93944 3.69733 0)
(2.20103 3.74367 -5.42632e-19)
(2.33986 3.98639 0)
(2.2844 0.529019 0)
(1.61759 0.341936 0)
(1.20922 0.276618 0)
(2.20949 0.554287 -1.46533e-18)
(1.63557 0.402239 8.17292e-19)
(2.14578 0.129115 -9.85202e-19)
(2.62681 0.297513 0)
(2.46588 0.301637 4.13504e-19)
(1.77004 0.135717 1.63306e-18)
(1.53039 0.0812682 -1.03708e-18)
(0.745946 1.55646 8.58192e-19)
(0.960389 1.82107 0)
(0.537922 1.44048 1.56115e-18)
(0.524189 1.61519 -1.42548e-18)
(0.757686 1.81494 -9.88529e-19)
(2.07474 2.46343 1.33788e-18)
(2.09821 2.71297 0)
(1.58446 1.67876 -2.76385e-19)
(2.01081 1.99012 1.74526e-18)
(1.36058 1.2931 -4.23634e-19)
(1.58943 1.31393 4.50751e-19)
(2.11048 1.51363 1.02329e-18)
(2.44368 1.67132 0)
(2.27707 1.85661 0)
(2.01085 1.60654 0)
(3.95688 2.07931 3.84555e-19)
(3.76022 1.88952 -1.2636e-18)
(3.81766 2.02772 1.04679e-18)
(3.90135 1.77113 -1.00836e-18)
(4.15782 1.67347 0)
(4.11683 1.84057 -2.97858e-19)
(2.84112 1.16339 -1.89741e-18)
(2.97142 1.16346 -2.41313e-18)
(2.33258 1.04369 1.45652e-18)
(2.13881 0.934569 -1.41994e-18)
(2.46401 0.846236 -1.17819e-18)
(2.17906 0.777052 1.44892e-18)
(4.00845 0.0334644 -1.52894e-18)
(4.05275 0.0406758 3.13031e-18)
(3.76796 -0.0658909 1.90097e-18)
(3.79118 -0.0737823 -2.28685e-18)
(3.95954 0.0105563 0)
(4.05603 0.0228602 -3.72994e-18)
(0.0962323 4.76202 1.06579e-19)
(0.0670812 4.73113 0)
(0.189816 4.73204 9.53099e-19)
(0.211357 4.74912 -8.67091e-19)
(0.231209 4.71639 4.28249e-19)
(0.122066 4.65577 0)
(-0.1039 4.77162 0)
(-0.109647 4.40282 -6.18474e-20)
(-0.10872 4.33195 5.54352e-20)
(-0.117517 4.48169 7.19575e-21)
(-0.108187 4.72189 -1.01124e-19)
(-0.085046 4.70969 5.50571e-20)
(1.87767 4.0107 -1.64325e-18)
(1.81858 4.01759 1.74026e-18)
(1.68529 4.40548 -8.54205e-19)
(1.69507 4.27842 7.61341e-20)
(2.25319 4.08478 0)
(1.85479 4.2174 -6.35729e-19)
(1.98178 3.957 6.16569e-19)
(1.82481 4.37884 8.34399e-19)
(2.07772 4.21865 0)
(2.22933 4.09942 0)
(1.14091 3.63441 1.49537e-18)
(0.828469 2.81525 2.02418e-18)
(0.95629 2.99346 -1.39018e-18)
(0.748447 2.97576 -2.3202e-19)
(0.904879 3.73509 4.66493e-19)
(0.72429 3.36806 -1.13451e-18)
(0.746522 1.46694 -1.21517e-18)
(0.746868 1.31791 0)
(0.603084 1.11534 -1.33563e-18)
(1.112 2.06557 0)
(1.08904 2.15257 0)
(1.35951 2.19149 -1.09074e-18)
(1.06511 2.01485 -1.03615e-18)
(1.01746 2.03565 1.09884e-18)
(1.03179 1.5196 0)
(1.41121 1.76236 -6.01301e-19)
(1.6283 2.11972 -8.55521e-19)
(1.41174 2.08322 0)
(0.868365 1.8188 7.12564e-19)
(0.78024 1.67979 0)
(2.90709 2.28912 -1.84712e-18)
(3.31958 2.47048 2.60936e-18)
(3.27835 2.19303 -2.59347e-18)
(2.61129 2.02121 -2.31192e-19)
(2.72582 1.94054 -9.7421e-19)
(1.2627 2.19053 7.96279e-19)
(1.31692 2.24549 -1.3601e-18)
(1.45507 2.33032 1.793e-18)
(1.79152 2.5604 -1.16537e-18)
(1.8904 2.93348 -1.56736e-18)
(1.56428 2.48965 -1.18811e-19)
(1.63416 2.62938 1.37145e-18)
(1.81132 2.69404 9.6629e-20)
(2.01939 2.9998 6.50075e-19)
)
;

boundaryField
{
    wall-4
    {
        type            noSlip;
    }
    velocity-inlet-5
    {
        type            fixedValue;
        value           uniform (3 0 0);
    }
    velocity-inlet-6
    {
        type            fixedValue;
        value           uniform (0 1 0);
    }
    pressure-outlet-7
    {
        type            zeroGradient;
    }
    wall-8
    {
        type            noSlip;
    }
    frontAndBackPlanes
    {
        type            empty;
    }
}


// ************************************************************************* //
