/*--------------------------------*- C++ -*----------------------------------*\
  =========                 |
  \\      /  F ield         | OpenFOAM: The Open Source CFD Toolbox
   \\    /   O peration     | Website:  https://openfoam.org
    \\  /    A nd           | Version:  9
     \\/     M anipulation  |
\*---------------------------------------------------------------------------*/
FoamFile
{
    format      ascii;
    class       volScalarField;
    location    "4.37";
    object      alpha.water;
}
// * * * * * * * * * * * * * * * * * * * * * * * * * * * * * * * * * * * * * //

dimensions      [0 0 0 0 0 0 0];

internalField   nonuniform List<scalar> 
2268
(
1
1
0.999999
0.999999
0.999999
0.999999
1
0.999999
0.999998
0.999999
1
1
1
1
1
1
1
0.999515
0.999363
0.997375
0.996132
0.995551
0.995456
0.999999
0.999999
0.999998
0.999998
1
0.999999
0.999998
0.999998
0.999998
0.999999
1
1
1
1
1
1
0.999927
0.997336
0.986959
0.997891
0.99998
0.999995
0.998779
0.999998
0.999998
0.999998
0.999999
1
0.999999
1
0.999999
1
1
1
1
1
1
1
1
0.997922
0.982167
0.979797
0.982909
0.996201
0.999995
0.999995
0.999999
0.999999
0.999999
1
1
1
1
1
1
1
1
1
1
1
1
1
0.999152
0.979797
0.979797
0.979797
0.990261
0.999993
0.999968
1
1
1
1
1
1
1
1
1
1
1
1
1
1
1
1
1
0.990985
0.979797
0.979803
0.996808
0.999996
0.999954
1
1
1
1
1
1
1
1
1
1
1
1
1
1
1
1
1
0.999932
0.991752
0.994765
0.999833
0.999996
0.999954
1
1
1
1
1
1
1
1
1
1
1
1
1
1
1
1
0.999999
0.999999
0.999999
0.999997
0.999998
0.999997
0.999987
1
1
1
1
1
1
1
1
1
1
1
1
1
1
1
0.999999
0.999999
0.999999
0.999999
0.999999
0.999999
0.999998
0.999998
0.989784
0.990317
0.991143
0.990658
0.990658
0.990658
0.990658
0.991845
0.998518
0.998637
0.997189
0.995769
0.965375
0.96535
0.987065
0.99695
0.998455
0.985911
0.964169
0.989784
0.999434
0.999958
0.999561
0.999652
0.99905
0.998138
0.998662
0.998843
0.998637
0.995596
0.980883
0.960586
0.969242
0.998455
0.998455
0.998455
0.996605
0.964136
0.995993
0.999819
0.999958
0.99995
0.999869
0.999888
0.999888
0.999402
0.998094
0.997044
0.976782
0.960524
0.96055
0.98644
0.998455
0.998455
0.998455
0.99326
0.96176
0.999815
0.999815
0.99994
0.999958
0.99993
0.999962
0.999562
0.997025
0.996987
0.995273
0.962778
0.960523
0.960522
0.996022
0.998456
0.998455
0.998411
0.993493
0.96167
0.999741
0.999741
0.999911
0.999965
0.999965
0.999965
0.999045
0.99665
0.9973
0.997604
0.975707
0.960524
0.966285
0.998456
0.998456
0.998454
0.998454
0.998415
0.961669
0.999784
0.999952
0.99997
0.999965
0.999926
0.999914
0.999594
0.998937
0.99913
0.999095
0.995179
0.985642
0.995558
0.998456
0.998456
0.99842
0.99314
0.985755
0.96167
0.999963
0.999974
0.999978
0.999936
0.99976
0.99976
0.999921
0.999976
0.999913
0.998993
0.998028
0.99829
0.998457
0.998457
0.998456
0.998396
0.975973
0.958878
0.971529
0.999984
0.999983
0.999983
0.999983
0.999983
0.999982
0.999982
0.999982
0.998519
0.993401
0.993465
0.997862
0.998457
0.998456
0.998456
0.998454
0.975389
0.958412
0.984003
1
1
1
1
1
1
1
1
1
1
1
1
1
1
1
1
1
1
1
1
1
1
1
0.962687
0.962691
0.964731
0.966976
0.96954
0.972394
0.975596
0.979317
0.983778
0.988857
0.994494
0.997125
0.999518
1
1
1
1
1
1
1
1
1
0.999727
0.298575
0.303383
0.308987
0.316109
0.323929
0.332639
0.341965
0.351014
0.360031
0.36885
0.377594
0.386601
0.395462
0.406567
0.417281
0.428805
0.441756
0.452663
0.460418
0.463527
0.462758
0.463572
0.468225
0.00182098
0.0018209
0.0018209
0.0018209
0.0018209
0.00182226
0.00182533
0.00182809
0.00183381
0.00184164
0.00184692
0.00300457
0.00423707
0.00460075
0.00509785
0.00459546
0.0035896
0.00293291
0.00319604
0.00434762
0.0054084
0.00521541
0.00386273
0.00187907
0.00187775
0.0018209
0.0018209
0.0026018
0.00326776
0.00327851
0.00550503
0.00639074
0.00639279
0.00639329
0.00639279
0.00610438
0.00647783
0.00647733
0.00547954
0.0022957
0.00229614
0.00229569
0.00253848
0.00411226
0.00363637
0.00131588
0.00175999
0.00185502
0.00185461
0.0018279
0.0020064
0.00219401
0.00264873
0.00204114
0.00229054
0.00275079
0.003315
0.00365868
0.00375633
0.0037809
0.00356305
0.00376601
0.00334768
0.00319276
0.00310958
0.00198804
0.00162376
0.0017578
0.000304454
0.00084813
0.000820419
0.000981999
0.000922394
0.00064592
0.000334706
0.000197992
0.000154889
1.95697e-09
2.33416e-09
2.71618e-09
2.71262e-09
2.72663e-09
3.1252e-09
8.28726e-05
0.000397834
0.000564381
0.000534398
0.000508179
0.000418996
0.000239956
0.000307592
0.000304456
1.00667e-06
1.81586e-09
1.81586e-09
9.09074e-05
3.4833e-05
2.50429e-05
2.3427e-05
1.15468e-09
1.96214e-09
1.19395e-08
1.20199e-08
2.80959e-08
7.57251e-07
2.22676e-06
8.68718e-07
1.43628e-07
4.56456e-05
0.000257847
0.000362141
0.000317516
0.000231173
0.000230465
0.000439409
1.41758e-09
9.88515e-09
1.40128e-08
5.42242e-10
5.41082e-10
5.41083e-10
5.41083e-10
1.14335e-09
4.32798e-08
1.22826e-08
1.39828e-08
1.73133e-06
4.80078e-06
4.74525e-06
6.41881e-07
8.71889e-08
3.64032e-06
5.91463e-05
0.0002125
0.000313109
0.000235809
0.000218346
0.00038202
1.41758e-09
1.43747e-07
1.85701e-07
5.25444e-08
1.09026e-09
5.41082e-10
5.41084e-10
1.03527e-09
5.24247e-09
2.10357e-07
1.21969e-06
2.28032e-06
3.27808e-06
2.2822e-06
2.70289e-07
8.6733e-08
3.70516e-07
2.21823e-08
4.20551e-06
3.26477e-05
5.72293e-05
2.36689e-05
1.81904e-05
1.41759e-09
1.49343e-07
1.85303e-07
4.34671e-08
5.41349e-10
5.41084e-10
5.41349e-10
3.4688e-08
1.33276e-06
2.28938e-06
2.28942e-06
1.343e-06
4.67956e-09
1.41677e-08
8.43939e-09
5.64253e-09
1.11672e-10
2.99641e-09
4.32861e-08
1.39972e-07
1.7367e-07
1.60227e-07
1.15548e-07
1.94828e-09
8.85805e-09
2.3474e-08
7.32755e-09
1.42323e-09
6.47821e-10
9.54555e-10
4.06171e-07
2.28846e-06
2.28942e-06
1.56014e-06
2.60837e-08
4.65168e-09
4.63398e-09
2.88544e-10
7.76583e-11
8.9212e-11
1.13889e-10
1.2264e-06
4.94247e-06
5.94092e-06
5.37646e-06
1.46313e-06
1.44714e-09
1.55683e-10
4.79318e-11
4.64444e-11
1.16641e-09
3.67694e-09
8.0413e-09
3.03602e-07
6.46444e-07
4.36208e-07
5.91591e-08
6.0091e-10
6.74631e-09
4.14724e-09
7.76583e-11
7.76583e-11
7.67727e-11
1.19816e-09
3.49435e-06
6.71859e-06
6.7187e-06
6.71859e-06
5.2082e-06
5.23775e-08
1.36815e-07
1.89026e-08
4.47522e-11
9.93825e-10
5.37861e-09
1.40254e-08
1.60702e-08
1.27572e-09
1.84837e-10
6.92152e-11
6.02119e-10
1.81354e-09
6.599e-10
9.08165e-11
9.84929e-11
7.40819e-11
6.90461e-10
2.45998e-07
3.15091e-06
6.71869e-06
6.60624e-06
8.87304e-07
1.29952e-07
2.75559e-07
3.96204e-08
4.29936e-11
1.15046e-09
2.46309e-09
2.50765e-09
9.03075e-10
3.75399e-10
8.05813e-11
2.42406e-11
3.91026e-11
2.86774e-11
2.78664e-11
5.48112e-11
6.40415e-11
6.03487e-11
7.16653e-11
1.17394e-10
2.90242e-08
3.30174e-07
3.12507e-07
1.3343e-08
1.66832e-07
2.75728e-07
5.259e-08
4.20806e-11
6.04529e-10
7.57203e-10
4.71947e-10
2.18015e-10
1.03141e-10
2.38616e-11
4.15286e-12
5.37102e-13
1.60206e-13
1.48503e-12
1.04367e-11
2.55961e-11
5.342e-11
7.77143e-11
8.16222e-11
9.40863e-11
9.44325e-11
7.07827e-11
8.1273e-10
1.78901e-07
2.75856e-07
5.07626e-08
4.17829e-11
2.10552e-10
2.17335e-10
7.83305e-11
2.765e-11
7.94145e-12
1.41972e-12
1.00974e-31
-8.44794e-13
-8.66511e-13
-3.98074e-13
2.31848e-13
4.63419e-12
3.0451e-11
7.31574e-11
9.90489e-11
1.01295e-10
9.04987e-11
6.26398e-11
3.17849e-11
2.44482e-07
2.76055e-07
7.95228e-08
4.17121e-11
5.36546e-11
5.33641e-11
9.76563e-12
8.75151e-13
0
-9.15374e-13
-1.614e-12
-1.97984e-12
-1.90164e-12
-1.53622e-12
-9.11674e-13
2.98898e-14
2.47838e-12
1.59753e-11
3.62237e-11
4.85024e-11
4.99765e-11
4.50449e-11
2.29955e-11
2.78287e-07
2.78287e-07
9.47352e-08
4.16508e-11
4.16127e-11
3.5305e-11
1.69624e-12
-1.96111e-13
-1.03243e-12
-1.71908e-12
-2.10554e-12
-2.25584e-12
-2.16965e-12
-1.92243e-12
-1.56258e-12
-1.10983e-12
-5.24467e-13
1.31993e-13
1.0438e-12
3.31586e-12
5.64487e-12
6.88361e-12
5.92491e-12
2.4779e-07
2.78143e-07
6.36088e-08
4.17121e-11
7.34312e-11
4.29445e-11
1.91172e-12
-2.7961e-13
-9.18742e-13
-1.43797e-12
-1.71228e-12
-1.82192e-12
-1.78624e-12
-1.64003e-12
-1.42059e-12
-1.16346e-12
-8.96915e-13
-6.34495e-13
-3.88924e-13
-9.9627e-14
1.7049e-14
5.60728e-14
1.60844e-13
9.33087e-08
2.40506e-07
8.72513e-10
4.18083e-11
2.22299e-10
6.15282e-11
4.22158e-12
5.30111e-13
-1.9e-13
-6.16533e-13
-8.73949e-13
-1.0397e-12
-1.11083e-12
-1.0853e-12
-9.84061e-13
-8.41544e-13
-6.87796e-13
-5.39894e-13
-4.08666e-13
-2.95278e-13
-2.02053e-13
-1.28375e-13
-6.62309e-14
2.588e-09
3.72995e-08
2.20876e-10
2.59539e-10
3.23259e-10
1.00749e-10
1.1179e-11
5.22307e-12
2.69743e-12
7.94571e-13
-3.81732e-14
-3.0988e-13
-4.70533e-13
-5.46182e-13
-5.49782e-13
-5.01829e-13
-4.27297e-13
-3.45328e-13
-2.69126e-13
-2.04572e-13
-1.52038e-13
-1.08981e-13
-7.24697e-14
8.17227e-11
5.37839e-11
2.20938e-10
3.57549e-10
3.29525e-10
1.01228e-10
2.39555e-11
1.63023e-11
1.13675e-11
6.12195e-12
2.4148e-12
5.29053e-13
-4.49626e-14
-1.84592e-13
-2.42637e-13
-2.50542e-13
-2.27979e-13
-1.90356e-13
-1.50439e-13
-1.14983e-13
-8.63441e-14
-6.39758e-14
-4.55395e-14
8.19292e-11
5.28346e-11
1.92027e-10
3.3755e-10
2.71964e-10
8.32912e-11
3.83272e-11
3.09889e-11
2.40282e-11
1.56424e-11
7.6915e-12
2.70328e-12
5.55158e-13
-2.54155e-15
-7.98918e-14
-1.04801e-13
-1.06439e-13
-9.29388e-14
-7.44514e-14
-5.66621e-14
-4.20002e-14
-3.0902e-14
-2.25238e-14
9.47139e-11
5.2822e-11
8.28618e-11
1.62947e-10
1.40026e-10
6.22659e-11
4.93407e-11
4.43113e-11
3.59385e-11
2.60952e-11
1.47141e-11
5.94882e-12
1.47648e-12
1.63042e-13
-1.70825e-14
-3.74424e-14
-4.49451e-14
-4.13344e-14
-3.34734e-14
-2.51658e-14
-1.81345e-14
-1.29013e-14
-9.30683e-15
2.86615e-10
5.27684e-11
5.27686e-11
5.27694e-11
5.38167e-11
5.37741e-11
5.37746e-11
5.37683e-11
4.5225e-11
3.47084e-11
2.13585e-11
9.12966e-12
2.19806e-12
2.16637e-13
-2.14005e-15
-1.2608e-14
-1.79123e-14
-1.7197e-14
-1.39648e-14
-1.03009e-14
-7.16782e-15
-4.838e-15
-3.31501e-15
1.70113e-09
5.27686e-11
5.27685e-11
5.27687e-11
5.27672e-11
5.27655e-11
5.36565e-11
5.65857e-11
5.15775e-11
4.02466e-11
2.52644e-11
1.03754e-11
2.18727e-12
1.62806e-13
-1.57325e-16
-4.48451e-15
-6.89431e-15
-6.77119e-15
-5.50139e-15
-3.97931e-15
-2.66132e-15
-1.69125e-15
-1.06261e-15
3.33819e-09
1.30946e-07
6.721e-07
4.76793e-07
1.56134e-08
5.26399e-11
5.26373e-11
5.65859e-11
5.32107e-11
4.18268e-11
2.58941e-11
9.89785e-12
1.62713e-12
7.08851e-14
-5.20186e-17
-1.74398e-15
-2.63193e-15
-2.5738e-15
-2.05332e-15
-1.44052e-15
-9.23557e-16
-5.5434e-16
-3.18302e-16
3.49877e-09
2.80213e-07
8.41575e-07
8.416e-07
2.09663e-07
5.26373e-11
5.26338e-11
5.62888e-11
5.21643e-11
4.06987e-11
2.38309e-11
7.72339e-12
8.84565e-13
2.12782e-14
-1.43104e-17
-6.68062e-16
-9.75892e-16
-9.32094e-16
-7.23172e-16
-4.91483e-16
-3.03564e-16
-1.74415e-16
-9.4908e-17
3.4509e-09
2.12778e-07
8.416e-07
8.416e-07
2.78332e-07
7.12611e-11
5.2632e-11
5.44419e-11
4.88127e-11
3.61241e-11
1.8684e-11
4.67064e-12
3.36658e-13
3.95264e-15
-1.73675e-18
-2.67796e-16
-3.5932e-16
-3.25977e-16
-2.42875e-16
-1.58563e-16
-9.38313e-17
-5.14133e-17
-2.64789e-17
3.45089e-09
4.91386e-08
7.95999e-07
7.07769e-07
1.39657e-07
1.68968e-10
5.18345e-11
5.1085e-11
4.28238e-11
2.87269e-11
1.21148e-11
2.04566e-12
7.89234e-14
3.63336e-16
-1.90729e-17
-1.13675e-16
-1.30366e-16
-1.09936e-16
-7.7469e-17
-4.80124e-17
-2.69276e-17
-1.39257e-17
-6.73327e-18
3.4509e-09
3.67123e-09
1.05341e-07
5.54997e-08
5.82307e-09
1.43746e-10
5.73136e-11
4.59797e-11
3.463e-11
1.97506e-11
5.96097e-12
5.6144e-13
9.38266e-15
1.54249e-17
-2.5225e-17
-4.55693e-17
-4.55421e-17
-3.53016e-17
-2.31864e-17
-1.34452e-17
-7.05311e-18
-3.40361e-18
-1.53024e-18
3.45704e-09
2.90766e-09
8.85015e-10
2.23797e-10
7.48297e-11
7.48017e-11
5.16251e-11
3.74778e-11
2.44335e-11
1.05395e-11
1.87349e-12
7.72756e-14
4.38058e-16
1.90759e-19
-1.29184e-17
-1.71475e-17
-1.50088e-17
-1.05777e-17
-6.39511e-18
-3.42539e-18
-1.65926e-18
-7.37719e-19
-3.04593e-19
3.27109e-09
3.07179e-09
1.19928e-09
4.27607e-10
1.4402e-10
6.14004e-11
3.84857e-11
2.52808e-11
1.31158e-11
3.56613e-12
2.91664e-13
4.12029e-15
6.12345e-18
-2.00656e-18
-5.80487e-18
-5.93254e-18
-4.55527e-18
-2.89765e-18
-1.59467e-18
-7.79178e-19
-3.4396e-19
-1.38966e-19
-5.19383e-20
1.87112e-09
2.24133e-09
1.2919e-09
5.57573e-10
1.79172e-10
5.53007e-11
2.5232e-11
1.26399e-11
4.30256e-12
5.74264e-13
1.67128e-14
6.8252e-17
2.44826e-20
-1.61897e-18
-2.23456e-18
-1.86544e-18
-1.25412e-18
-7.13096e-19
-3.52836e-19
-1.55157e-19
-6.15245e-20
-2.22404e-20
-7.40002e-21
3.68119e-10
6.84077e-10
6.77302e-10
3.86586e-10
1.35999e-10
3.69835e-11
1.18035e-11
3.74639e-12
6.5166e-13
3.28053e-14
2.84714e-16
2.99775e-19
-2.85007e-19
-8.02959e-19
-7.84844e-19
-5.37889e-19
-3.10653e-19
-1.55456e-19
-6.80977e-20
-2.6525e-20
-9.28988e-21
-2.94989e-21
-8.56363e-22
1.33366e-11
4.77636e-11
1.00468e-10
8.62232e-11
4.09424e-11
1.14065e-11
2.70282e-12
4.85451e-13
3.55634e-14
5.82487e-16
1.58102e-18
4.13439e-22
-2.41257e-19
-3.35235e-19
-2.56948e-19
-1.44105e-19
-6.92572e-20
-2.97703e-20
-1.13063e-20
-3.82282e-21
-1.15773e-21
-3.15455e-22
-7.78602e-23
5.87395e-14
4.70936e-13
2.42686e-12
3.58256e-12
2.58179e-12
9.33559e-13
1.96427e-13
2.08088e-14
6.555e-16
4.18519e-18
3.21767e-21
-5.03455e-20
-1.26233e-19
-1.264e-19
-7.96319e-20
-3.65722e-20
-1.40169e-20
-5.01023e-21
-1.60117e-21
-4.56915e-22
-1.16214e-22
-2.63034e-23
-5.32481e-24
6.9452e-17
8.72441e-16
7.73712e-15
2.00943e-14
2.26815e-14
1.28801e-14
3.10984e-15
2.54652e-16
5.11176e-18
1.74591e-20
-3.98328e-21
-3.7081e-20
-5.48888e-20
-4.44063e-20
-2.37048e-20
-9.07257e-21
-2.74575e-21
-7.62438e-22
-1.94662e-22
-4.47603e-23
-9.12285e-24
-1.62883e-24
-2.55734e-25
5.86379e-20
1.77078e-18
1.05729e-17
3.08799e-17
4.01118e-17
3.33547e-17
1.11414e-17
1.09972e-18
2.45182e-20
5.25024e-23
-7.78113e-21
-1.90262e-20
-2.15118e-20
-1.48139e-20
-6.86184e-21
-2.24295e-21
-5.43088e-22
-1.10229e-22
-2.0752e-23
-3.53994e-24
-5.30676e-25
-6.80273e-26
-7.50327e-27
1.00125e-24
2.4627e-21
2.5841e-20
8.32739e-20
9.29138e-20
7.53441e-20
2.84181e-20
3.53428e-21
5.73896e-23
-1.11424e-21
-4.99748e-21
-8.33146e-21
-7.86251e-21
-4.75941e-21
-1.95615e-21
-5.59622e-22
-1.12181e-22
-1.63391e-23
-2.02671e-24
-2.19072e-25
-2.00673e-26
-1.4934e-27
-9.3249e-29
-1.86324e-25
2.94757e-25
3.1531e-23
7.53293e-22
1.42367e-21
3.47821e-22
6.46754e-23
5.42955e-24
-1.5407e-22
-1.00318e-21
-2.48591e-21
-3.31055e-21
-2.73125e-21
-1.49269e-21
-5.58945e-22
-1.4481e-22
-2.55583e-23
-2.95457e-24
-2.20865e-25
-1.03872e-26
-2.94818e-28
-5.82992e-30
-9.44709e-32
1
1
1
1
1
0.999423
0.997342
0.995881
0.460565
0.453648
0.448104
0.442355
0.00418846
0.00407517
0.00316721
0.00223353
0.00200383
0.00285463
0.00207836
0.00113546
0.000801352
0.00280498
0.00156807
0.00119427
0.000304449
0.00101508
0.000949567
0.000387974
0.000794871
0.000797999
0.000544122
6.65832e-05
0.000384535
0.000149773
7.07916e-05
6.9488e-06
3.04378e-06
1.02394e-07
1.24919e-06
2.75873e-06
2.40204e-08
3.29823e-08
2.48661e-07
3.2114e-07
2.40076e-08
2.40078e-08
2.62639e-08
5.03281e-08
2.40078e-08
2.40073e-08
2.40272e-08
5.56953e-08
2.40072e-08
4.08122e-08
2.44539e-08
2.58131e-08
1.0059e-07
1.09686e-07
6.88257e-08
1.06475e-08
1.58897e-08
2.75757e-08
2.14454e-08
1.05989e-08
1.16043e-11
3.08697e-11
5.21456e-10
2.09856e-09
1.0174e-11
6.11492e-12
3.76232e-12
5.40687e-12
4.09721e-12
3.1854e-12
2.52842e-12
2.17535e-12
2.57078e-13
3.0865e-13
3.8586e-13
4.38114e-13
-1.67731e-14
-9.11544e-16
1.82825e-15
4.64901e-15
-4.22185e-14
-3.26598e-14
-2.54904e-14
-2.01983e-14
-2.90799e-14
-2.31289e-14
-1.8568e-14
-1.52944e-14
-1.52144e-14
-1.20893e-14
-9.51846e-15
-7.62041e-15
-6.5644e-15
-5.21042e-15
-4.02945e-15
-3.05239e-15
-2.40984e-15
-1.8949e-15
-1.46227e-15
-1.07475e-15
-7.86839e-16
-5.9823e-16
-4.52557e-16
-3.36982e-16
-2.35964e-16
-1.71802e-16
-1.23908e-16
-8.89972e-17
-6.76697e-17
-4.7148e-17
-3.23163e-17
-2.18912e-17
-1.80689e-17
-1.20205e-17
-7.82749e-18
-5.00381e-18
-4.38496e-18
-2.77961e-18
-1.71938e-18
-1.03957e-18
-9.45323e-19
-5.67582e-19
-3.31884e-19
-1.89209e-19
-1.76808e-19
-9.9575e-20
-5.45163e-20
-2.9045e-20
-2.7985e-20
-1.4596e-20
-7.3848e-21
-3.62854e-21
-3.64509e-21
-1.73284e-21
-7.96908e-22
-3.55034e-22
-3.78213e-22
-1.6059e-22
-6.5733e-23
-2.59847e-23
-3.00446e-23
-1.10927e-23
-3.93109e-24
-1.34037e-24
-1.73083e-24
-5.35275e-25
-1.58101e-25
-4.4737e-26
-6.61842e-26
-1.62068e-26
-3.77221e-27
-8.37745e-28
-1.40267e-27
-2.4754e-28
-4.1438e-29
-6.60633e-30
-1.02547e-29
-1.07563e-30
-1.07888e-31
-1.03639e-32
-2.95927e-33
-9.64989e-35
-3.21964e-36
-1.07177e-37
1
1
1
0.999865
0.989828
0.981864
0.977875
0.978114
0.984563
0.992715
0.998079
0.998322
0.998456
0.998455
0.998455
0.998316
0.986579
0.958312
0.984003
0.992961
0.981361
0.971915
0.963693
0.957955
0.94993
0.936666
0.921503
0.912666
0.917967
0.92667
0.93058
0.923977
0.90662
0.89633
0.909933
0.931519
0.948541
0.951465
0.432288
0.419041
0.410714
0.405631
0.402354
0.399962
0.399443
0.396075
0.384477
0.361429
0.338589
0.319977
0.30611
0.296894
0.286729
0.272932
0.267623
0.266568
0.254545
0.00138659
0.000975619
0.00084082
0.00077418
0.000793445
0.000671342
0.000466659
0.000416902
0.000416779
0.000416902
0.000417135
0.000417358
0.000417565
0.000417776
0.000417986
0.00041815
0.00041808
0.00041815
0.000418779
0.000679812
0.000676404
0.000671134
0.000669894
0.000672517
0.00185586
0.0015262
0.00131636
0.00122144
0.0012029
0.00117163
0.00113785
0.00113225
0.00122495
0.00133225
0.000993841
0.000756566
0.000798373
0.00071667
0.0010717
0.00115209
0.00115165
0.000669894
0.0014989
0.00189832
0.00189832
0.00189832
0.00189817
0.00189752
0.00189627
0.00189448
0.0018922
0.00188938
0.0018856
0.00121936
0.00111056
0.00111008
0.00110864
0.00102738
0.00115224
0.00115287
0.00115263
0.00111098
0.000697504
0.000438095
0.000419662
0.000396656
0.000364657
0.000361741
0.000343658
0.000319598
0.000328796
0.000382858
0.000498348
0.000724796
0.000656
0.000536352
0.000255882
0.000403417
0.000350334
0.000379394
0.000152187
8.04811e-06
3.25261e-07
1.61588e-07
1.61631e-07
1.61588e-07
1.66318e-07
2.18658e-07
3.19964e-07
4.25324e-07
4.76327e-07
0.000146053
5.02425e-05
1.13193e-06
1.14051e-06
9.79747e-08
2.16587e-08
6.53664e-08
2.60517e-08
3.57839e-08
5.50373e-08
2.7776e-07
5.25503e-07
1.48288e-06
5.5544e-06
3.24999e-05
4.15473e-05
4.12952e-05
1.54013e-05
1.10253e-06
1.11133e-06
1.11711e-06
1.12939e-06
1.33257e-06
2.03345e-08
1.28003e-08
1.28009e-08
1.60564e-08
1.68459e-08
1.74759e-08
1.75359e-08
4.23832e-07
2.26632e-06
6.03253e-05
7.02207e-05
7.02207e-05
5.19088e-05
6.8265e-06
1.46872e-06
1.11711e-06
1.12265e-06
1.30733e-06
1.59854e-06
3.8518e-08
1.27884e-08
1.27947e-08
1.28009e-08
5.77455e-06
1.32813e-05
4.42528e-06
1.20136e-06
4.85037e-05
7.01665e-05
6.78583e-05
2.23017e-05
1.192e-05
1.90377e-05
2.02707e-05
1.63457e-05
1.14091e-05
5.9533e-06
2.696e-06
5.55451e-08
1.27884e-08
1.27884e-08
7.23263e-06
2.17421e-05
2.17413e-05
1.13967e-05
1.38237e-05
6.7185e-05
6.6354e-05
6.60238e-06
1.07485e-05
2.80889e-05
4.44892e-05
4.44978e-05
4.44892e-05
4.44533e-05
3.8688e-05
1.7609e-05
5.57284e-08
1.27901e-08
7.53002e-08
1.34035e-05
2.17421e-05
2.17422e-05
1.89137e-05
1.05739e-05
1.6833e-05
3.43348e-06
2.80235e-08
2.55971e-05
4.44551e-05
4.44978e-05
3.6709e-05
1.78357e-05
9.9113e-06
9.9098e-06
1.76624e-05
4.06493e-08
1.28294e-08
2.10253e-08
5.26176e-06
1.64674e-05
1.57316e-05
2.45334e-06
1.5477e-07
1.65284e-10
1.6528e-10
1.80355e-08
8.01116e-06
3.36709e-05
2.19769e-05
1.59529e-10
1.59578e-10
1.6576e-10
6.37023e-07
8.01336e-06
2.02887e-08
9.17144e-08
9.51127e-08
9.91957e-08
5.29329e-07
4.4977e-07
1.64197e-10
1.61697e-10
1.65071e-10
2.22528e-10
3.28633e-07
1.17146e-06
1.59242e-10
1.5924e-10
1.59242e-10
1.60193e-10
1.55937e-07
5.08307e-06
1.48042e-05
1.77592e-08
5.42487e-08
6.66259e-08
6.41229e-08
6.31576e-08
1.29837e-08
1.61697e-10
1.6163e-10
1.61697e-10
5.35738e-09
3.5446e-08
3.70154e-10
3.7001e-10
1.5924e-10
1.5924e-10
1.59305e-10
1.71026e-09
8.71798e-06
1.69559e-05
2.5416e-09
1.40078e-09
2.49036e-08
2.44142e-07
3.04329e-07
2.28762e-07
2.01139e-09
1.61643e-10
1.63835e-10
6.59407e-10
2.06306e-09
3.44791e-09
2.48568e-09
1.5924e-10
1.66622e-10
1.66439e-10
6.59763e-11
3.07074e-06
1.6956e-05
1.73417e-12
1.20041e-12
2.94849e-09
1.78796e-07
3.04438e-07
3.04447e-07
2.90569e-07
7.80518e-08
1.63827e-10
1.87557e-10
1.05779e-09
3.40717e-10
1.80988e-10
1.80987e-10
2.31067e-10
2.19859e-10
6.36614e-11
1.79397e-07
1.69558e-05
1.73256e-12
1.15814e-12
4.78547e-12
7.31565e-09
1.06664e-07
2.47461e-07
2.90566e-07
1.09631e-07
1.51542e-08
2.37903e-08
6.18478e-08
4.03607e-08
1.08484e-08
1.80988e-10
2.49703e-10
2.49709e-10
6.36696e-11
4.44457e-12
1.43821e-05
4.63458e-13
4.08398e-13
1.34027e-13
6.65894e-13
4.18695e-10
1.04659e-08
1.7629e-08
1.05337e-08
2.58105e-08
8.75348e-08
8.96934e-08
8.96934e-08
4.40921e-08
3.5242e-10
2.24742e-10
2.21625e-10
5.86463e-11
4.41605e-12
2.14669e-07
1.02007e-14
1.89249e-14
8.33665e-15
0
1.09097e-13
6.43545e-14
2.78358e-14
2.21498e-13
7.68437e-10
1.88881e-08
5.00044e-08
5.17807e-08
1.32168e-08
9.21107e-10
1.69237e-10
9.23501e-11
1.93122e-11
4.41032e-12
4.41605e-12
-1.59899e-14
-7.55864e-15
-3.4149e-15
-1.43341e-15
-5.04871e-32
0
2.41085e-14
2.20772e-13
2.20793e-13
2.20826e-13
2.21062e-13
2.21355e-13
2.22076e-13
2.37397e-11
4.46245e-11
2.61477e-11
7.63714e-12
4.40696e-12
4.41032e-12
-1.29388e-14
-8.06555e-15
-4.83432e-15
-2.76377e-15
-1.37093e-15
-4.53427e-16
4.28006e-16
1.97516e-14
2.7235e-13
1.17603e-12
6.32114e-13
1.37448e-12
3.97677e-12
5.37532e-12
4.80748e-12
5.32673e-12
4.22607e-12
4.21802e-12
4.50618e-12
-6.39558e-15
-4.18645e-15
-2.68515e-15
-1.68424e-15
-1.02288e-15
-5.80957e-16
-2.73517e-16
-6.5932e-18
6.03055e-15
9.19648e-14
4.10992e-13
1.24679e-12
2.66498e-12
1.98708e-12
1.47995e-12
2.809e-12
2.87331e-12
2.87651e-12
2.52704e-11
-2.40099e-15
-1.55613e-15
-9.96488e-16
-6.26342e-16
-3.83855e-16
-2.37076e-16
-1.42246e-16
-7.44854e-17
7.21093e-19
1.09503e-15
8.71858e-15
3.60702e-14
1.12095e-13
2.04725e-13
3.81858e-13
1.98187e-12
1.81985e-12
2.51442e-08
3.09823e-07
-7.44817e-16
-4.6182e-16
-2.79751e-16
-1.69064e-16
-1.02938e-16
-6.31325e-17
-3.82082e-17
-2.13312e-17
-6.97844e-18
3.37758e-17
3.04677e-16
1.55093e-15
6.93814e-15
2.9195e-14
1.68725e-13
1.81781e-12
1.81858e-12
1.67076e-07
9.85928e-06
-1.91785e-16
-1.11908e-16
-6.707e-17
-4.01391e-17
-2.38316e-17
-1.39793e-17
-7.99956e-18
-4.03833e-18
-6.20909e-19
1.02916e-17
7.91958e-17
4.96357e-16
3.14484e-15
1.79937e-14
1.41031e-13
2.19479e-12
1.81985e-12
2.1731e-07
1.35415e-05
-4.55762e-17
-2.46011e-17
-1.35921e-17
-7.58868e-18
-4.23004e-18
-2.26611e-18
-1.15381e-18
-3.12886e-19
7.43566e-19
8.6249e-18
5.79032e-17
3.73375e-16
2.50874e-15
1.51994e-14
1.34191e-13
3.25877e-12
1.82117e-12
2.85448e-08
1.35422e-05
-1.0036e-17
-4.74936e-18
-2.3086e-18
-1.13561e-18
-5.41936e-19
-6.99833e-20
5.8759e-20
5.43696e-19
2.39505e-18
9.43566e-18
5.35882e-17
3.4179e-16
2.32999e-15
1.42814e-14
1.54189e-13
4.25241e-12
1.39901e-11
5.97525e-12
1.35394e-05
-2.05777e-18
-8.49718e-19
-3.52649e-19
-1.28997e-19
-4.81482e-38
4.49013e-19
3.10855e-18
1.19503e-17
3.36986e-17
7.67942e-17
1.67853e-16
5.01257e-16
2.53739e-15
1.45747e-14
2.28174e-13
5.51452e-12
1.44168e-11
5.97323e-12
1.16997e-05
-3.88311e-19
-1.42361e-19
-4.89839e-20
4.23577e-21
5.82258e-19
4.74883e-18
2.50455e-17
1.01731e-16
3.24836e-16
8.21354e-16
1.73027e-15
3.58809e-15
9.72667e-15
3.5668e-14
3.38388e-13
5.71376e-12
1.44117e-11
5.9701e-12
1.04733e-05
-6.4487e-20
-2.12654e-20
-4.00942e-21
1.13454e-19
2.0848e-18
2.07234e-17
1.31005e-16
6.03411e-16
2.14719e-15
5.95196e-15
1.37951e-14
2.99826e-14
6.92372e-14
1.63727e-13
5.97309e-13
5.59279e-12
1.33142e-11
5.96811e-12
1.04758e-05
-8.965e-21
-2.62994e-21
2.20233e-21
2.16023e-19
5.3493e-18
6.9813e-17
5.45034e-16
2.87167e-15
1.15199e-14
3.58632e-14
9.27609e-14
2.22296e-13
4.87259e-13
9.07337e-13
1.57009e-12
5.69914e-12
1.07585e-11
5.96697e-12
8.37129e-06
-9.99147e-22
-2.42836e-22
3.67795e-21
3.21503e-19
1.07685e-17
1.84732e-16
1.81642e-15
1.11235e-14
5.16602e-14
1.94384e-13
5.85791e-13
1.42082e-12
2.60838e-12
3.89974e-12
4.93196e-12
7.82838e-12
9.51181e-12
5.96754e-12
4.44348e-07
-8.55197e-23
-1.07007e-23
3.54608e-21
3.81171e-19
1.72136e-17
3.86365e-16
4.90589e-15
3.64847e-14
2.02937e-13
9.52043e-13
3.47451e-12
7.45042e-12
1.00607e-11
1.19046e-11
1.32933e-11
1.56804e-11
1.20083e-11
5.96697e-12
1.31562e-06
-5.34404e-24
3.10211e-24
1.9737e-21
3.84471e-19
2.17713e-17
6.23106e-16
1.07424e-14
1.07137e-13
7.37211e-13
4.02694e-12
1.63779e-11
2.90328e-11
2.96318e-11
3.05721e-11
3.31847e-11
6.91625e-11
6.82405e-11
6.08761e-12
4.71503e-06
-2.28114e-25
2.03138e-24
8.91286e-22
2.31825e-19
2.27206e-17
7.57631e-16
1.823e-14
2.74158e-13
2.28749e-12
1.29391e-11
4.86034e-11
7.54791e-11
7.29299e-11
7.53248e-11
1.165e-10
5.79673e-10
5.90927e-10
6.16231e-12
4.71509e-06
-6.01809e-27
7.45468e-25
3.63728e-22
9.68944e-20
1.45029e-17
7.49576e-16
2.27157e-14
5.25609e-13
4.94963e-12
2.70653e-11
8.50989e-11
1.2738e-10
1.36259e-10
1.4521e-10
4.68979e-10
1.7341e-09
1.78765e-09
6.55686e-12
4.63201e-06
-7.98347e-29
1.73604e-25
8.63038e-23
3.50534e-20
5.94816e-18
3.58348e-16
2.21434e-14
6.80027e-13
6.74925e-12
3.5539e-11
1.00219e-10
1.46979e-10
1.72381e-10
1.80278e-10
9.68006e-10
2.81667e-09
2.33878e-09
8.09129e-12
4.27441e-06
-9.70317e-32
2.12029e-26
1.01576e-23
6.67076e-21
1.73847e-18
1.09462e-16
8.32833e-15
6.3891e-13
6.5901e-12
3.34169e-11
8.26163e-11
1.23416e-10
1.57993e-10
1.03399e-10
1.7851e-09
1.39874e-08
7.29103e-09
1.06233e-11
4.27202e-06
-4.25203e-34
1.21923e-30
1.88814e-25
5.442e-22
1.85671e-19
1.57242e-17
1.24868e-15
1.69683e-13
1.91464e-12
9.24967e-12
2.1574e-11
3.59355e-11
5.32378e-11
8.85988e-17
6.64158e-09
2.64026e-08
2.52758e-08
7.9047e-12
4.26884e-06
-1.49968e-39
1.5906e-41
2.28693e-32
9.489e-27
4.90906e-23
3.22968e-20
1.46249e-17
2.68838e-15
2.94137e-14
1.77733e-13
5.5246e-13
1.07655e-12
8.35292e-13
-4.36787e-39
6.40035e-09
1.92901e-08
1.53153e-08
0
2.67367e-06
)
;

boundaryField
{
    leftWall
    {
        type            zeroGradient;
    }
    rightWall
    {
        type            zeroGradient;
    }
    lowerWall
    {
        type            zeroGradient;
    }
    atmosphere
    {
        type            inletOutlet;
        inletValue      uniform 0;
        value           nonuniform List<scalar> 
46
(
0
2.94757e-25
3.1531e-23
7.53293e-22
1.42367e-21
3.47821e-22
6.46754e-23
5.42955e-24
-1.5407e-22
-1.00318e-21
-2.48591e-21
-3.31055e-21
-2.73125e-21
-1.49269e-21
-5.58945e-22
-1.4481e-22
-2.55583e-23
-2.95457e-24
-2.20865e-25
0
0
0
0
0
0
0
0
0
0
0
0
0
0
0
0
0
0
0
0
0
0
0
0
0
0
2.67367e-06
)
;
    }
    defaultFaces
    {
        type            empty;
    }
}


// ************************************************************************* //
