/*--------------------------------*- C++ -*----------------------------------*\
  =========                 |
  \\      /  F ield         | OpenFOAM: The Open Source CFD Toolbox
   \\    /   O peration     | Website:  https://openfoam.org
    \\  /    A nd           | Version:  9
     \\/     M anipulation  |
\*---------------------------------------------------------------------------*/
FoamFile
{
    format      ascii;
    class       volScalarField;
    location    "235";
    object      epsilon;
}
// * * * * * * * * * * * * * * * * * * * * * * * * * * * * * * * * * * * * * //

dimensions      [0 2 -3 0 0 0 0];

internalField   nonuniform List<scalar> 
12225
(
285.514
270.7
257.919
243.805
232.468
223.077
216.821
212.695
212.742
213.946
217.257
220.851
228.189
232.571
241.628
245.747
257.368
263.851
52.4946
91.8785
106.973
114.745
124.845
136.777
152.692
169.895
191.107
210.92
235.216
255.465
281.031
299.294
324.712
339.174
364.57
373.349
20.3236
34.8557
44.6758
50.4682
55.3972
59.6053
64.6654
69.6401
76.3172
83.18
91.4324
99.3134
108.163
116.926
125.527
135.246
142.549
153.676
15.3484
19.6973
24.113
27.5682
30.4977
32.8689
35.1555
37.2926
39.5025
41.9166
44.3358
47.1998
49.6793
53.0347
55.4086
59.2262
61.4202
65.6263
14.6509
15.8626
17.3672
19.0735
20.6385
22.0256
23.2461
24.4308
25.4439
26.5942
27.523
28.7572
29.6312
30.9837
31.8115
33.2616
34.0737
35.6394
14.7068
14.8769
15.2015
15.8666
16.5668
17.2866
17.9236
18.584
19.119
19.7338
20.1931
20.7985
21.208
21.8218
22.1974
22.8239
23.1775
23.8555
14.7421
14.6201
14.6248
14.737
14.9297
15.219
15.4912
15.8088
16.0709
16.3825
16.618
16.92
17.1307
17.4267
17.6155
17.9114
18.0807
18.4049
14.7626
14.5866
14.4638
14.3812
14.3669
14.39
14.4381
14.5337
14.6185
14.7366
14.8308
14.9564
15.0476
15.176
15.2608
15.3914
15.4695
15.619
14.7667
14.5908
14.4346
14.2963
14.1849
14.1044
14.0398
14.0066
13.9814
13.9785
13.9809
13.9916
14.004
14.0294
14.0471
14.0793
14.103
14.1454
14.7663
14.5939
14.432
14.282
14.143
14.0219
13.9115
13.8193
13.737
13.6698
13.6102
13.5633
13.5181
13.4871
13.4516
13.4341
13.4021
13.4007
14.7658
14.5945
14.4321
14.2803
14.1361
14.0032
13.8782
13.7644
13.6582
13.5629
13.4736
13.3952
13.3198
13.2561
13.1916
13.1408
13.0838
13.0451
14.7657
14.5943
14.4321
14.2798
14.1353
13.9998
13.8715
13.7518
13.6385
13.5337
13.4341
13.343
13.2557
13.1771
13.1003
13.0328
12.9647
12.9074
14.7657
14.5941
14.432
14.2794
14.1349
13.9989
13.8699
13.7485
13.6332
13.5249
13.422
13.3257
13.2338
13.1484
13.0663
12.9906
12.9172
12.8502
14.7657
14.5939
14.4318
14.279
14.1346
13.9983
13.8691
13.7472
13.6315
13.5223
13.4184
13.3203
13.227
13.139
13.055
12.9759
12.9002
12.8291
14.7657
14.5938
14.4317
14.2787
14.1342
13.9977
13.8686
13.7464
13.6307
13.5211
13.4171
13.3185
13.2248
13.136
13.0516
12.9714
12.8951
12.8227
14.7657
14.5937
14.4315
14.2785
14.1339
13.9973
13.8681
13.7458
13.63
13.5202
13.4161
13.3174
13.2236
13.1346
13.05
12.9696
12.8931
12.8204
14.7657
14.5937
14.4315
14.2783
14.1337
13.997
13.8677
13.7453
13.6294
13.5195
13.4154
13.3165
13.2227
13.1336
13.0489
12.9684
12.8918
12.819
14.7657
14.5937
14.4314
14.2782
14.1335
13.9968
13.8674
13.7449
13.629
13.5191
13.4148
13.3159
13.222
13.1328
13.0481
12.9675
12.8909
12.818
14.7657
14.5937
14.4314
14.2782
14.1335
13.9967
13.8673
13.7448
13.6288
13.5189
13.4146
13.3156
13.2217
13.1325
13.0477
12.9671
12.8904
12.8174
14.7657
14.5937
14.4314
14.2782
14.1336
13.9968
13.8674
13.745
13.629
13.519
13.4148
13.3158
13.2219
13.1327
13.0479
12.9673
12.8907
12.8177
14.7657
14.5937
14.4315
14.2784
14.1337
13.997
13.8677
13.7453
13.6294
13.5195
13.4154
13.3166
13.2229
13.1338
13.0493
12.9689
12.8926
12.8199
14.7657
14.5937
14.4316
14.2785
14.1341
13.9974
13.8685
13.7464
13.6312
13.522
13.419
13.3214
13.2293
13.1418
13.0595
12.981
12.9073
12.8368
14.7658
14.5937
14.4318
14.2788
14.1353
14.0002
13.8742
13.756
13.6463
13.5435
13.4485
13.3591
13.277
13.1992
13.1282
13.0601
12.9988
12.9386
14.7655
14.5928
14.4328
14.2844
14.1515
14.0321
13.929
13.8375
13.7593
13.6894
13.6306
13.5769
13.5328
13.4905
13.4574
13.423
13.3988
13.3693
14.7592
14.5932
14.4603
14.3602
14.3029
14.2766
14.2805
14.2921
14.321
14.3531
14.3959
14.4345
14.4824
14.5217
14.572
14.6089
14.6616
14.6939
14.7213
14.6911
14.754
14.9176
15.1828
15.4611
15.7476
16.012
16.2723
16.5038
16.7361
16.9386
17.1508
17.331
17.531
17.6937
17.8889
18.036
14.7477
15.5124
16.5473
17.6841
18.7044
19.5675
20.3372
20.9968
21.6195
22.1661
22.719
23.2109
23.7401
24.2045
24.7329
25.1829
25.7253
26.1663
15.9871
20.9921
25.0238
27.7604
29.7847
31.3585
32.7771
34.058
35.3596
36.6166
37.9758
39.2975
40.7621
42.1463
43.7185
45.1746
46.8847
48.3595
29.9032
47.2183
54.8696
58.6736
61.6141
64.4322
67.581
70.9781
74.7394
78.7155
82.9868
87.3463
91.9074
96.4528
101.104
105.626
110.179
114.581
165.798
160.075
154.899
149.564
144.479
139.677
135.614
132.109
129.27
126.974
125.32
124.045
123.34
122.825
122.842
122.96
123.285
123.829
0.24977
0.296231
0.541739
0.767226
1.00252
1.26481
1.56238
1.89964
2.27509
2.68139
3.1101
3.55167
3.99868
4.44332
4.87969
5.3006
5.69996
6.06952
6.40203
6.68781
6.91915
7.08731
7.18898
7.21522
7.17166
7.04507
6.94528
6.89198
7.27484
7.54062
7.84629
8.13283
8.37335
8.66478
8.95579
9.2404
40.4059
41.5166
40.7204
9.40134
44.0983
46.5516
50.1881
53.5574
57.2972
61.1081
65.1363
69.3102
73.6705
78.1999
82.9127
87.8061
92.8871
98.1571
103.621
109.28
115.138
121.199
127.464
133.935
140.614
147.503
154.603
161.914
169.435
177.168
185.11
193.26
201.615
210.174
218.932
227.887
237.031
246.362
255.871
265.555
275.402
285.408
295.562
305.856
316.278
326.819
337.466
348.209
359.032
369.924
380.866
391.847
402.844
413.841
424.814
435.74
446.591
457.342
467.966
478.448
488.802
499.105
509.23
519.215
529.033
538.68
548.135
557.386
566.417
575.215
583.764
592.053
600.068
607.797
615.227
622.349
629.151
635.624
641.755
647.541
652.968
658.033
662.727
667.05
670.99
674.543
677.693
680.441
682.77
684.677
686.115
686.887
688.192
688.532
688.468
688.018
686.986
685.559
683.767
681.581
679.065
676.153
672.859
669.199
665.18
660.841
656.137
651.071
645.65
639.875
633.753
627.287
620.485
613.349
605.889
598.109
590.02
581.627
572.944
563.983
554.762
545.297
535.621
525.812
516.323
509.989
505.503
501.002
496.315
491.426
486.355
481.115
475.731
470.214
464.59
458.862
453.035
447.112
440.98
434.62
427.917
420.344
411.966
382.457
1.21003
0.736457
0.742412
0.841524
0.994253
1.19024
1.42796
1.70518
2.0174
2.35841
2.72145
3.10027
3.48939
3.88422
4.28071
4.67523
5.06424
5.44429
5.8118
6.16323
6.4948
6.80235
7.10649
7.42959
7.79069
8.22893
8.79439
9.50031
10.2749
11.127
12.0158
12.9773
14.0912
14.9118
16.3229
19.1297
23.0603
23.4617
23.9308
23.9692
28.5497
29.7763
31.5913
33.3552
35.2092
37.1136
39.0882
41.1268
43.2355
45.4136
47.6637
49.9866
52.3836
54.8557
57.4039
60.029
62.7317
65.5125
68.372
71.3103
74.3276
77.424
80.5991
83.8527
87.1842
90.5931
94.0781
97.6386
101.273
104.98
108.757
112.604
116.517
120.495
124.535
128.634
132.788
136.996
141.252
145.554
149.898
154.279
158.692
163.133
167.597
172.077
176.569
181.065
185.558
190.042
194.508
198.949
203.358
207.729
212.063
216.368
220.668
225.026
229.322
233.563
237.742
241.854
245.892
249.85
253.723
257.506
261.192
264.776
268.254
271.621
274.871
278.001
281.006
283.882
286.625
289.231
291.698
294.022
296.2
298.231
300.111
301.835
303.402
304.807
306.05
307.128
308.039
308.791
309.484
309.913
310.194
310.293
310.193
309.945
309.553
309.005
308.313
307.461
306.453
305.291
303.979
302.52
300.907
299.141
297.224
295.156
292.937
290.571
288.056
285.397
282.593
279.646
276.56
273.337
269.98
266.493
262.882
259.153
255.316
251.402
247.53
244.187
241.225
238.285
235.285
232.212
229.071
225.869
222.616
219.322
215.998
212.653
209.292
205.926
202.536
199.134
195.707
192.322
189.32
184.687
2.51674
1.28352
1.14961
1.19276
1.31056
1.48218
1.70023
1.95988
2.2558
2.58195
2.9322
3.30112
3.68434
4.07869
4.48201
4.89304
5.31114
5.73649
6.17001
6.61397
7.07286
7.55564
8.06205
8.59664
9.17416
9.80419
10.4935
11.2303
12.0029
12.8056
13.6607
14.5871
15.6
16.7035
17.989
19.4608
20.8891
21.9101
23.0393
24.3697
26.0559
27.4161
28.8697
30.3647
31.915
33.5176
35.1747
36.8865
38.6539
40.4776
42.3583
44.2968
46.2936
48.3494
50.4646
52.6397
54.8751
57.1712
59.5282
61.9462
64.4253
66.9654
69.5663
72.2279
74.9497
77.7311
80.5716
83.4703
86.4263
89.4386
92.5058
95.6267
98.7997
102.023
105.295
108.613
111.975
115.379
118.822
122.301
125.813
129.355
132.924
136.516
140.127
143.752
147.388
151.031
154.675
158.317
161.952
165.577
169.188
172.783
176.365
179.934
183.497
187.045
190.553
194.017
197.432
200.792
204.093
207.329
210.496
213.59
216.605
219.537
222.383
225.137
227.796
230.357
232.815
235.167
237.411
239.542
241.559
243.459
245.24
246.899
248.435
249.843
251.123
252.272
253.291
254.178
254.935
255.567
256.084
256.445
256.666
256.729
256.646
256.447
256.122
255.669
255.092
254.384
253.549
252.587
251.5
250.29
248.954
247.494
245.91
244.204
242.375
240.427
238.358
236.172
233.87
231.452
228.921
226.28
223.531
220.677
217.722
214.671
211.534
208.333
205.129
202.077
199.153
196.242
193.298
190.311
187.284
184.223
181.136
178.03
174.919
171.808
168.706
165.623
162.562
159.541
156.581
153.783
151.359
148.788
3.95045
1.8836
1.60144
1.59376
1.69084
1.85159
2.06199
2.31496
2.60495
2.92658
3.27466
3.64464
4.03299
4.43738
4.85661
5.29061
5.74013
6.20669
6.69232
7.19955
7.73106
8.28937
8.87535
9.48989
10.1344
10.8083
11.5082
12.2284
12.9653
13.7586
14.6038
15.5093
16.4834
17.5378
18.6486
19.8063
20.9686
22.1192
23.333
24.6401
26.0035
27.3554
28.7498
30.1894
31.6775
33.2152
34.8038
36.444
38.1366
39.8825
41.6822
43.5366
45.4462
47.4117
49.4335
51.5122
53.6483
55.8422
58.0942
60.4048
62.774
65.202
67.6888
70.2345
72.8388
75.5014
78.2219
80.9998
83.8344
86.7249
89.6703
92.6694
95.7211
98.8237
101.976
105.175
108.42
111.709
115.038
118.405
121.808
125.244
128.708
132.199
135.712
139.244
142.79
146.347
149.912
153.479
157.046
160.609
164.165
167.711
171.246
174.768
178.273
181.75
185.19
188.586
191.933
195.227
198.461
201.632
204.733
207.76
210.708
213.573
216.35
219.035
221.624
224.113
226.498
228.777
230.945
233
234.94
236.761
238.462
240.039
241.492
242.818
244.015
245.081
246.017
246.821
247.496
248.044
248.464
248.739
248.855
248.832
248.682
248.405
248
247.467
246.808
246.022
245.109
244.072
242.912
241.63
240.227
238.704
237.061
235.3
233.424
231.432
229.327
227.11
224.784
222.349
219.809
217.165
214.42
211.579
208.644
205.622
202.524
199.365
196.185
193.051
189.96
186.869
183.754
180.61
177.439
174.247
171.043
167.828
164.616
161.42
158.248
155.111
152.019
148.996
146.073
143.343
140.937
138.682
5.35995
2.48738
2.05475
1.99805
2.07248
2.22162
2.42458
2.6717
2.95671
3.27452
3.62052
3.99078
4.38219
4.7927
5.2213
5.66797
6.1335
6.61933
7.12723
7.65911
8.2166
8.80082
9.41206
10.0501
10.7144
11.4048
12.1197
12.8588
13.6252
14.4289
15.2749
16.1686
17.1157
18.1183
19.172
20.2689
21.3995
22.5644
23.7764
25.0371
26.3499
27.6997
29.0933
30.5334
32.022
33.5604
35.1498
36.7914
38.486
40.2348
42.0386
43.8985
45.8156
47.7904
49.8233
51.9153
54.067
56.2792
58.5524
60.8872
63.2841
65.7435
68.2658
70.8512
73.4996
76.2113
78.9859
81.8233
84.7229
87.6843
90.7065
93.7888
96.9299
100.128
103.383
106.692
110.053
113.464
116.923
120.427
123.974
127.559
131.181
134.834
138.517
142.224
145.952
149.697
153.455
157.221
160.991
164.761
168.527
172.284
176.028
179.752
183.451
187.117
190.744
194.324
197.852
201.323
204.73
208.067
211.33
214.511
217.608
220.613
223.522
226.33
229.033
231.627
234.107
236.47
238.713
240.831
242.822
244.685
246.415
248.011
249.47
250.791
251.973
253.013
253.911
254.668
255.283
255.758
256.093
256.261
256.279
256.149
255.883
255.48
254.938
254.26
253.447
252.499
251.419
250.208
248.869
247.402
245.811
244.095
242.258
240.301
238.227
236.036
233.732
231.316
228.791
226.16
223.424
220.586
217.651
214.622
211.504
208.304
205.031
201.7
198.336
194.974
191.618
188.253
184.869
181.463
178.041
174.608
171.172
167.738
164.324
160.936
157.584
154.282
151.044
147.894
144.867
142.046
139.514
137.151
6.68917
3.06714
2.48825
2.38318
2.43397
2.57024
2.76452
3.00448
3.28294
3.59475
3.93566
4.3021
4.69125
5.10113
5.53061
5.97943
6.44801
6.93735
7.44877
7.98373
8.54357
9.12937
9.74181
10.3813
11.0481
11.7425
12.4648
13.2168
14.0009
14.821
15.6809
16.5841
17.5333
18.5298
19.573
20.6608
21.791
22.9643
24.1838
25.4509
26.766
28.1278
29.5376
30.997
32.5075
34.0703
35.687
37.3586
39.0864
40.8717
42.7156
44.6192
46.5833
48.6096
50.6992
52.8532
55.0728
57.3591
59.7129
62.1352
64.6269
67.1886
69.8212
72.525
75.3005
78.1481
81.0677
84.0593
87.1228
90.2578
93.4635
96.7392
100.084
103.496
106.974
110.517
114.121
117.786
121.507
125.284
129.111
132.986
136.906
140.866
144.862
148.89
152.946
157.024
161.119
165.227
169.343
173.461
177.576
181.681
185.77
189.837
193.874
197.875
201.831
205.736
209.583
213.366
217.077
220.711
224.26
227.718
231.079
234.338
237.487
240.523
243.44
246.232
248.896
251.427
253.821
256.074
258.184
260.148
261.962
263.625
265.134
266.487
267.684
268.722
269.601
270.322
270.884
271.288
271.521
271.586
271.486
271.231
270.822
270.259
269.545
268.679
267.666
266.507
265.205
263.761
262.18
260.464
258.615
256.635
254.528
252.297
249.943
247.469
244.879
242.175
239.36
236.437
233.409
230.281
227.056
223.739
220.336
216.854
213.301
209.69
206.04
202.372
198.692
194.998
191.287
187.562
183.827
180.09
176.359
172.644
168.955
165.304
161.701
158.161
154.701
151.347
148.132
145.129
142.384
139.762
7.89852
3.60344
2.88637
2.73379
2.7602
2.88223
3.06622
3.2972
3.56698
3.87019
4.20272
4.56132
4.94338
5.34703
5.77109
6.21512
6.67927
7.16422
7.67101
8.20091
8.75524
9.33534
9.94237
10.5775
11.2417
11.936
12.6618
13.4207
14.2147
15.046
15.9169
16.8295
17.7856
18.7865
19.8327
20.9245
22.0621
23.2461
24.4782
25.7595
27.091
28.4734
29.908
31.3962
32.9393
34.539
36.1967
37.9141
39.6925
41.5337
43.4391
45.4103
47.4488
49.5562
51.7343
53.9844
56.3082
58.707
61.1823
63.7354
66.3675
69.0798
71.8734
74.749
77.7075
80.7494
83.8751
87.0849
90.3786
93.7561
97.2168
100.76
104.385
108.09
111.873
115.733
119.667
123.673
127.748
131.888
136.091
140.351
144.666
149.031
153.44
157.889
162.372
166.884
171.419
175.97
180.533
185.099
189.662
194.215
198.75
203.259
207.734
212.167
216.55
220.875
225.134
229.32
233.424
237.438
241.356
245.17
248.873
252.457
255.917
259.246
262.437
265.486
268.387
271.135
273.726
276.155
278.42
280.518
282.444
284.197
285.775
287.175
288.397
289.439
290.301
290.982
291.485
291.801
291.926
291.87
291.636
291.226
290.643
289.888
288.963
287.872
286.618
285.204
283.632
281.908
280.035
278.016
275.855
273.556
271.121
268.556
265.863
263.045
260.107
257.052
253.884
250.606
247.223
243.74
240.161
236.492
232.738
228.907
225.008
221.052
217.053
213.026
208.98
204.917
200.84
196.754
192.665
188.582
184.515
180.472
176.466
172.508
168.61
164.788
161.061
157.453
153.998
150.754
147.743
144.801
8.96
4.08173
3.2378
3.03923
3.04092
3.14743
3.3195
3.53971
3.79883
4.09116
4.41267
4.76032
5.13177
5.52532
5.93986
6.37492
6.83055
7.30727
7.80597
8.32784
8.87426
9.4467
10.0466
10.6755
11.3349
12.0263
12.7512
13.5113
14.3082
15.1437
16.0194
16.937
17.898
18.9037
19.9552
21.0535
22.2002
23.3963
24.6431
25.9421
27.2946
28.702
30.1659
31.6881
33.2703
34.9144
36.6221
38.3955
40.2365
42.1469
44.1289
46.1844
48.3155
50.5243
52.8128
55.183
57.6369
60.1765
62.8037
65.5202
68.3277
71.2279
74.2221
77.3117
80.4977
83.781
87.1624
90.6422
94.2207
97.8977
101.673
105.545
109.514
113.577
117.734
121.982
126.318
130.739
135.242
139.824
144.48
149.206
153.997
158.847
163.751
168.703
173.696
178.725
183.781
188.858
193.948
199.043
204.134
209.214
214.272
219.301
224.29
229.23
234.113
238.928
243.667
248.321
252.881
257.338
261.683
265.907
270.003
273.963
277.778
281.442
284.947
288.288
291.458
294.452
297.265
299.892
302.33
304.575
306.624
308.474
310.124
311.571
312.814
313.852
314.686
315.315
315.74
315.946
315.95
315.748
315.348
314.751
313.959
312.975
311.803
310.447
308.91
307.196
305.312
303.261
301.048
298.678
296.156
293.487
290.675
287.725
284.641
281.429
278.092
274.636
271.064
267.383
263.596
259.709
255.728
251.659
247.507
243.281
238.989
234.641
230.25
225.826
221.381
216.919
212.446
207.97
203.498
199.039
194.604
190.203
185.848
181.553
177.329
173.194
169.166
165.27
161.536
158.013
154.701
151.415
9.85688
4.49331
3.53649
3.29232
3.27087
3.3606
3.51928
3.72717
3.97402
4.25375
4.56237
4.89699
5.2555
5.63643
6.03882
6.4623
6.90696
7.37323
7.86165
8.37357
8.91044
9.4738
10.0652
10.6864
11.3389
12.0246
12.7453
13.5029
14.2981
15.1327
16.0084
16.9267
17.8892
18.8974
19.9531
21.058
22.2144
23.4234
24.6864
26.0052
27.3814
28.8167
30.3136
31.8743
33.5011
35.1962
36.962
38.8008
40.715
42.7071
44.7796
46.935
49.176
51.5052
53.9251
56.4383
59.0475
61.755
64.5632
67.4746
70.4913
73.6153
76.8486
80.1928
83.6494
87.2196
90.9043
94.7042
98.6197
102.651
106.797
111.057
115.43
119.915
124.509
129.21
134.015
138.92
143.921
149.015
154.195
159.458
164.796
170.205
175.676
181.203
186.778
192.394
198.041
203.712
209.398
215.088
220.773
226.443
232.088
237.696
243.258
248.762
254.199
259.556
264.825
269.995
275.055
279.995
284.805
289.476
293.998
298.361
302.558
306.581
310.42
314.069
317.522
320.772
323.814
326.643
329.255
331.646
333.812
335.752
337.463
338.943
340.191
341.207
341.99
342.542
342.856
342.934
342.782
342.404
341.802
340.979
339.94
338.687
337.225
335.56
333.696
331.64
329.396
326.971
324.372
321.604
318.674
315.588
312.351
308.971
305.452
301.8
298.02
294.12
290.103
285.976
281.745
277.416
272.995
268.488
263.902
259.245
254.525
249.752
244.936
240.088
235.219
230.335
225.445
220.557
215.679
210.823
205.999
201.219
196.495
191.84
187.269
182.798
178.446
174.236
170.198
166.368
162.733
159.092
10.5812
4.8329
3.77867
3.49204
3.44793
3.52046
3.66476
3.8592
4.09263
4.35864
4.65317
4.97349
5.3177
5.68443
6.07276
6.48277
6.91491
7.37013
7.84911
8.35231
8.88085
9.4362
10.0199
10.6337
11.2791
11.9581
12.6722
13.4232
14.2128
15.043
15.9155
16.8321
17.7945
18.8047
19.8646
20.9759
22.1408
23.3614
24.6398
25.9782
27.3789
28.8463
30.3809
31.986
33.6645
35.4193
37.2531
39.1689
41.1696
43.2583
45.4381
47.7121
50.0835
52.5556
55.1316
57.8147
60.608
63.5146
66.5376
69.6798
72.9439
76.3325
79.8478
83.492
87.2669
91.1738
95.2141
99.3884
103.697
108.14
112.717
117.427
122.268
127.238
132.336
137.557
142.898
148.355
153.923
159.597
165.371
171.238
177.192
183.225
189.33
195.497
201.717
207.982
214.281
220.605
226.942
233.282
239.613
245.923
252.201
258.434
264.611
270.719
276.746
282.68
288.509
294.221
299.806
305.25
310.544
315.676
320.635
325.412
329.997
334.38
338.554
342.509
346.239
349.737
352.997
356.013
358.782
361.3
363.562
365.567
367.313
368.798
370.021
370.981
371.681
372.117
372.288
372.199
371.853
371.254
370.406
369.314
367.982
366.414
364.617
362.597
360.36
357.912
355.262
352.417
349.385
346.173
342.789
339.24
335.536
331.681
327.685
323.553
319.292
314.909
310.412
305.805
301.096
296.293
291.4
286.426
281.378
276.263
271.09
265.867
260.605
255.313
250.003
244.682
239.359
234.045
228.749
223.482
218.256
213.083
207.976
202.948
198.015
193.193
188.501
183.962
179.599
175.445
171.474
167.478
11.1324
5.0994
3.9647
3.64002
3.57411
3.62934
3.75869
3.93895
4.15825
4.40988
4.68965
4.99499
5.32467
5.67838
6.055
6.45384
6.87488
7.31837
7.78457
8.27481
8.79072
9.33385
9.90579
10.5082
11.1429
11.8117
12.5165
13.2592
14.0416
14.866
15.7344
16.6489
17.6118
18.6252
19.6914
20.8129
21.9921
23.2317
24.5345
25.9029
27.3396
28.8456
30.4256
32.0844
33.8261
35.654
37.5714
39.5817
41.6885
43.8954
46.2062
48.6248
51.1551
53.801
56.5664
59.4551
62.471
65.6178
68.8991
72.3182
75.8785
79.5828
83.4339
87.4341
91.5855
95.8898
100.348
104.961
109.729
114.652
119.729
124.958
130.337
135.865
141.537
147.35
153.299
159.378
165.583
171.907
178.342
184.881
191.515
198.236
205.033
211.898
218.819
225.785
232.785
239.808
246.84
253.869
260.882
267.865
274.806
281.69
288.504
295.234
301.866
308.388
314.785
321.045
327.154
333.101
338.872
344.456
349.841
355.016
359.97
364.693
369.177
373.412
377.39
381.105
384.55
387.719
390.608
393.214
395.532
397.561
399.298
400.743
401.894
402.753
403.319
403.593
403.576
403.269
402.676
401.805
400.661
399.248
397.571
395.638
393.455
391.028
388.368
385.481
382.376
379.063
375.55
371.848
367.966
363.913
359.699
355.331
350.819
346.171
341.395
336.498
331.489
326.374
321.161
315.857
310.471
305.008
299.477
293.886
288.242
282.554
276.832
271.085
265.323
259.556
253.795
248.048
242.328
236.644
231.011
225.439
219.942
214.536
209.234
204.054
199.014
194.136
189.439
184.95
180.637
176.291
11.52
5.29597
4.0978
3.74011
3.65372
3.69202
3.80626
3.97204
4.17686
4.41443
4.68155
4.97477
5.29195
5.63143
5.99227
6.37513
6.78043
7.20871
7.66089
8.1384
8.64233
9.17407
9.7352
10.3275
10.9527
11.6129
12.3102
13.0466
13.8245
14.6461
15.5139
16.4304
17.3983
18.4203
19.4992
20.6378
21.8391
23.1065
24.4437
25.8532
27.3373
28.8965
30.5395
32.2714
34.0965
36.0202
38.0468
40.1798
42.4236
44.7825
47.2611
49.864
52.5958
55.4611
58.4647
61.6109
64.9043
68.3492
71.9496
75.7095
79.6325
83.7217
87.9803
92.4105
97.0146
101.794
106.75
111.882
117.191
122.676
128.335
134.166
140.167
146.333
152.66
159.143
165.777
172.554
179.468
186.511
193.674
200.947
208.321
215.784
223.327
230.936
238.6
246.306
254.041
261.791
269.542
277.279
284.989
292.656
300.264
307.799
315.246
322.589
329.814
336.906
343.85
350.631
357.237
363.652
369.865
375.861
381.629
387.157
392.433
397.447
402.189
406.649
410.82
414.694
418.264
421.526
424.475
427.107
429.418
431.407
433.073
434.414
435.431
436.124
436.495
436.544
436.278
435.686
434.785
433.582
432.081
430.288
428.209
425.853
423.228
420.343
417.206
413.829
410.22
406.391
402.353
398.118
393.696
389.098
384.336
379.42
374.36
369.165
363.844
358.407
352.862
347.217
341.48
335.659
329.763
323.798
317.772
311.694
305.571
299.412
293.225
287.019
280.806
274.594
268.394
262.217
256.074
249.976
243.937
237.969
232.085
226.301
220.632
215.094
209.706
204.486
199.452
194.627
189.974
185.289
11.7585
5.42915
4.18316
3.79767
3.69253
3.7147
3.8144
3.9674
4.16054
4.38592
4.63841
4.91552
5.21623
5.53985
5.88644
6.25577
6.64812
7.0641
7.50462
7.97088
8.46423
8.98618
9.53844
10.1229
10.7416
11.3967
12.0906
12.8258
13.6049
14.4307
15.3059
16.2335
17.2167
18.259
19.3645
20.5356
21.7756
23.0877
24.4741
25.9388
27.4885
29.1299
30.8681
32.7084
34.656
36.7166
38.8961
41.199
43.6305
46.196
48.9009
51.7506
54.7505
57.9059
61.2221
64.7041
68.357
72.1855
76.1939
80.3864
84.7668
89.3382
94.1035
99.0648
104.224
109.582
115.139
120.894
126.847
132.996
139.338
145.87
152.587
159.485
166.556
173.796
181.196
188.747
196.442
204.27
212.22
220.281
228.442
236.691
245.013
253.396
261.824
270.285
278.762
287.241
295.706
304.141
312.529
320.855
329.102
337.252
345.291
353.202
360.968
368.574
376.004
383.243
390.276
397.089
403.668
409.999
416.07
421.868
427.382
432.6
437.513
442.11
446.385
450.329
453.936
457.202
460.121
462.69
464.906
466.769
468.277
469.43
470.228
470.674
470.769
470.522
469.917
468.969
467.688
466.082
464.155
461.914
459.37
456.53
453.404
450.002
446.336
442.416
438.255
433.865
429.258
424.448
419.448
414.27
408.928
403.434
397.798
392.032
386.146
380.15
374.053
367.865
361.593
355.247
348.834
342.362
335.84
329.275
322.675
316.047
309.4
302.743
296.085
289.437
282.809
276.213
269.659
263.159
256.726
250.372
244.112
237.961
231.933
226.046
220.316
214.76
209.395
204.24
199.255
194.246
11.843
5.49865
4.22412
3.81774
3.69704
3.70685
3.79488
3.93462
4.11266
4.32266
4.56077
4.82472
5.1129
5.42454
5.75941
6.11761
6.49956
6.90598
7.33788
7.79656
8.28357
8.80066
9.34975
9.93296
10.5526
11.2112
11.9115
12.6568
13.4506
14.2957
15.1952
16.1525
17.1713
18.2547
19.4042
20.6254
21.9244
23.3067
24.7788
26.3458
28.0136
29.7888
31.6774
33.6856
35.8201
38.088
40.4948
43.0468
45.7507
48.6129
51.6399
54.8378
58.2126
61.7699
65.5155
69.4546
73.5924
77.9335
82.4822
87.2424
92.2172
97.4093
102.821
108.452
114.305
120.379
126.672
133.183
139.909
146.847
153.992
161.338
168.879
176.609
184.519
192.6
200.843
209.238
217.773
226.436
235.215
244.096
253.067
262.112
271.217
280.366
289.544
298.735
307.921
317.087
326.215
335.288
344.289
353.201
362.005
370.685
379.224
387.603
395.808
403.82
411.624
419.205
426.548
433.637
440.458
446.999
453.245
459.186
464.808
470.102
475.056
479.663
483.914
487.802
491.322
494.467
497.235
499.623
501.629
503.252
504.492
505.348
505.822
505.919
505.651
504.993
503.962
502.571
500.827
498.736
496.306
493.545
490.465
487.076
483.387
479.412
475.162
470.651
465.89
460.896
455.681
450.26
444.65
438.864
432.917
426.822
420.593
414.241
407.778
401.214
394.56
387.825
381.019
374.149
367.225
360.254
353.244
346.203
339.138
332.057
324.966
317.875
310.793
303.729
296.695
289.7
282.757
275.876
269.07
262.352
255.736
249.236
242.868
236.648
230.591
224.715
219.031
213.56
208.258
202.948
11.8223
5.51149
4.22699
3.80987
3.67829
3.67486
3.74848
3.87479
4.04114
4.24021
4.46793
4.72195
5.00093
5.30428
5.63189
5.984
6.36118
6.76436
7.19479
7.65404
8.14407
8.66736
9.22615
9.82261
10.4595
11.1399
11.8669
12.6434
13.4715
14.3548
15.2991
16.3096
17.3913
18.5496
19.7913
21.121
22.5449
24.0698
25.703
27.4516
29.3226
31.3233
33.4611
35.7437
38.1785
40.7735
43.5358
46.4731
49.5934
52.9046
56.4143
60.1286
64.0531
68.1933
72.5544
77.1411
81.9576
87.0078
92.2946
97.8205
103.587
109.595
115.845
122.335
129.064
136.03
143.228
150.655
158.305
166.171
174.248
182.526
190.997
199.652
208.479
217.468
226.606
235.881
245.28
254.788
264.392
274.076
283.825
293.623
303.454
313.302
323.148
332.977
342.77
352.51
362.18
371.762
381.238
390.59
399.8
408.85
417.725
426.405
434.875
443.117
451.117
458.859
466.328
473.509
480.389
486.954
493.192
499.092
504.642
509.831
514.652
519.093
523.15
526.814
530.081
532.947
535.41
537.465
539.114
540.355
541.19
541.619
541.638
541.287
540.507
539.335
537.779
535.845
533.543
530.878
527.862
524.504
520.816
516.81
512.498
507.892
503.008
497.858
492.458
486.822
480.968
474.91
468.666
462.253
455.686
448.981
442.151
435.21
428.17
421.043
413.839
406.569
399.242
391.865
384.448
376.998
369.524
362.031
354.529
347.021
339.517
332.023
324.548
317.102
309.694
302.334
295.035
287.807
280.661
273.61
266.667
259.848
253.168
246.641
240.284
234.109
228.13
222.363
216.767
211.184
11.7452
5.49704
4.2087
3.77955
3.63477
3.62079
3.685
3.80276
3.96128
4.1536
4.37577
4.62561
4.90206
5.20489
5.53472
5.89172
6.27663
6.69076
7.13577
7.61356
8.12607
8.67487
9.26146
9.89074
10.5669
11.2943
12.0772
12.9208
13.831
14.8129
15.8722
17.0152
18.2489
19.5807
21.0185
22.5698
24.2427
26.0458
27.988
30.078
32.3248
34.7372
37.3239
40.0936
43.0541
46.2121
49.5769
53.1579
56.9645
61.0066
65.2948
69.831
74.6179
79.6586
84.9558
90.5117
96.3277
102.405
108.742
115.339
122.194
129.304
136.666
144.274
152.123
160.207
168.518
177.05
185.792
194.736
203.87
213.185
222.668
232.307
242.089
252.001
262.029
272.158
282.374
292.661
303.003
313.385
323.791
334.204
344.607
354.983
365.316
375.587
385.78
395.878
405.862
415.717
425.423
434.965
444.324
453.485
462.43
471.143
479.608
487.81
495.733
503.363
510.687
517.69
524.36
530.685
536.653
542.253
547.476
552.313
556.754
560.792
564.421
567.635
570.429
572.803
574.752
576.276
577.376
578.048
578.301
578.137
577.56
576.55
575.133
573.312
571.097
568.496
565.518
562.17
558.465
554.414
550.031
545.327
540.318
535.017
529.438
523.597
517.51
511.194
504.665
497.942
491.042
483.984
476.785
469.461
462.029
454.5
446.89
439.21
431.471
423.683
415.855
407.996
400.113
392.214
384.306
376.396
368.491
360.595
352.715
344.858
337.031
329.242
321.502
313.821
306.207
298.671
291.225
283.88
276.65
269.548
262.589
255.788
249.16
242.717
236.469
230.434
224.571
218.746
11.583
5.45601
4.16762
3.73184
3.58222
3.56486
3.62683
3.74412
3.90464
4.1015
4.33079
4.59061
4.8801
5.19886
5.54633
5.92345
6.33278
6.77675
7.25803
7.77972
8.34544
8.95971
9.6273
10.3528
11.1417
12.0003
12.9354
13.9545
15.066
16.278
17.5991
19.0384
20.6058
22.3117
24.1666
26.1814
28.3669
30.7341
33.294
36.0573
39.0342
42.2346
45.6677
49.3423
53.2663
57.4462
61.8894
66.6034
71.5949
76.8709
82.4377
88.2912
94.4283
100.846
107.541
114.51
121.748
129.25
137.01
145.02
153.274
161.762
170.477
179.409
188.549
197.884
207.406
217.102
226.96
236.97
247.117
257.389
267.773
278.256
288.823
299.46
310.154
320.89
331.652
342.427
353.2
363.954
374.676
385.349
395.957
406.486
416.92
427.242
437.437
447.49
457.384
467.104
476.634
485.958
495.062
503.93
512.547
520.898
528.969
536.746
544.216
551.364
558.18
564.652
570.768
576.516
581.888
586.873
591.463
595.652
599.429
602.789
605.728
608.241
610.321
611.975
613.195
613.981
614.341
614.258
613.78
612.834
611.48
609.707
607.522
604.933
601.951
598.583
594.838
590.728
586.264
581.46
576.33
570.887
565.146
559.122
552.83
546.288
539.511
532.517
525.325
517.951
510.417
502.741
494.942
487.037
479.043
470.973
462.841
454.661
446.443
438.196
429.93
421.651
413.367
405.085
396.812
388.554
380.315
372.101
363.916
355.766
347.658
339.599
331.597
323.662
315.802
308.026
300.344
292.768
285.309
277.982
270.8
263.778
256.929
250.265
243.793
237.533
231.441
225.423
11.4022
5.38318
4.11287
3.68525
3.54227
3.53326
3.60599
3.73604
3.91069
4.12302
4.37131
4.65474
4.9735
5.32869
5.72266
6.15767
6.63692
7.16448
7.74516
8.3845
9.08892
9.86588
10.7235
11.6702
12.7151
13.8685
15.1416
16.5467
18.0967
19.8048
21.6844
23.7494
26.0137
28.4916
31.1972
34.1439
37.3443
40.8103
44.5532
48.5829
52.9073
57.5326
62.4639
67.7061
73.2615
79.1297
85.3103
91.806
98.6142
105.74
113.158
120.858
128.828
137.057
145.533
154.243
163.176
172.32
181.663
191.191
200.893
210.757
220.771
230.923
241.2
251.591
262.085
272.668
283.33
294.059
304.843
315.67
326.528
337.406
348.292
359.172
370.037
380.873
391.668
402.41
413.087
423.686
434.194
444.599
454.888
465.048
475.066
484.928
494.622
504.134
513.452
522.56
531.447
540.099
548.503
556.646
564.515
572.097
579.38
586.351
592.999
599.312
605.28
610.893
616.141
621.014
625.504
629.601
633.302
636.599
639.482
641.945
643.991
645.613
646.799
647.571
647.909
647.813
647.326