/*--------------------------------*- C++ -*----------------------------------*\
  =========                 |
  \\      /  F ield         | OpenFOAM: The Open Source CFD Toolbox
   \\    /   O peration     | Website:  https://openfoam.org
    \\  /    A nd           | Version:  9
     \\/     M anipulation  |
\*---------------------------------------------------------------------------*/
FoamFile
{
    format      ascii;
    class       volScalarField;
    location    "235";
    object      p;
}
// * * * * * * * * * * * * * * * * * * * * * * * * * * * * * * * * * * * * * //

dimensions      [0 2 -2 0 0 0 0];

internalField   nonuniform List<scalar> 
12225
(
-0.972377
-3.16034
-4.2604
-4.58113
-4.76253
-4.93171
-5.06345
-5.15889
-5.23586
-5.30371
-5.3643
-5.41994
-5.47073
-5.51848
-5.56359
-5.60217
-5.65029
-5.62707
-4.13474
-4.90356
-5.0641
-4.97196
-4.95954
-5.02756
-5.10531
-5.17133
-5.23131
-5.2892
-5.3444
-5.39605
-5.44491
-5.49129
-5.53624
-5.57653
-5.62294
-5.65674
-4.53537
-4.52118
-4.64864
-4.72711
-4.82212
-4.94244
-5.04988
-5.13499
-5.20716
-5.27296
-5.33363
-5.38927
-5.44136
-5.49027
-5.53759
-5.58123
-5.63055
-5.67397
-4.41399
-4.35735
-4.59904
-4.75745
-4.8593
-4.96565
-5.06354
-5.14384
-5.21292
-5.27643
-5.33553
-5.39022
-5.4417
-5.49036
-5.5376
-5.58269
-5.63125
-5.67903
-4.40406
-4.42843
-4.65653
-4.79816
-4.88188
-4.97407
-5.06548
-5.14343
-5.21129
-5.27391
-5.33252
-5.38712
-5.43868
-5.4877
-5.53541
-5.58181
-5.63021
-5.67992
-4.46216
-4.51095
-4.68524
-4.8092
-4.8908
-4.97875
-5.06696
-5.14369
-5.21094
-5.273
-5.33123
-5.38571
-5.43726
-5.48646
-5.53437
-5.58133
-5.62937
-5.67882
-4.52247
-4.56659
-4.70179
-4.81815
-4.90197
-4.98622
-5.07028
-5.14512
-5.21146
-5.27278
-5.33044
-5.38463
-5.43601
-5.48521
-5.53307
-5.5801
-5.62754
-5.67573
-4.57593
-4.6135
-4.72348
-4.8318
-4.91486
-4.99456
-5.0741
-5.14675
-5.21202
-5.2725
-5.3295
-5.38331
-5.43443
-5.48347
-5.53112
-5.57786
-5.62444
-5.67102
-4.62558
-4.65868
-4.74962
-4.8476
-4.92773
-5.00318
-5.07845
-5.14871
-5.2127
-5.27221
-5.32843
-5.38171
-5.43245
-5.48116
-5.52838
-5.57453
-5.62006
-5.66492
-4.67255
-4.7018
-4.77732
-4.86456
-4.9408
-5.0124
-5.0836
-5.15121
-5.21366
-5.27203
-5.32733
-5.37991
-5.43009
-5.47827
-5.52487
-5.57021
-5.61453
-5.65767
-4.71679
-4.74228
-4.80548
-4.88266
-4.95437
-5.02224
-5.08952
-5.15429
-5.21497
-5.27203
-5.32626
-5.37798
-5.42742
-5.47489
-5.5207
-5.56504
-5.60809
-5.64957
-4.75473
-4.77707
-4.83127
-4.90011
-4.96724
-5.03165
-5.09551
-5.15761
-5.21648
-5.27222
-5.32534
-5.37613
-5.42475
-5.47142
-5.51636
-5.5597
-5.60153
-5.64158
-4.78976
-4.80948
-4.8563
-4.91768
-4.98017
-5.04118
-5.1018
-5.16124
-5.21823
-5.27254
-5.32447
-5.37423
-5.42193
-5.46771
-5.51171
-5.554
-5.59463
-5.63335
-4.82645
-4.84363
-4.88364
-4.93765
-4.99496
-5.05211
-5.10923
-5.1657
-5.22045
-5.27304
-5.32351
-5.372
-5.41854
-5.46319
-5.50603
-5.54709
-5.58638
-5.62369
-4.86353
-4.87831
-4.9123
-4.95937
-5.01123
-5.06419
-5.11761
-5.17089
-5.22309
-5.27363
-5.32238
-5.36933
-5.41445
-5.45775
-5.49923
-5.53889
-5.57673
-5.61259
-4.89904
-4.91167
-4.94058
-4.98151
-5.02805
-5.07671
-5.1264
-5.1764
-5.22585
-5.27411
-5.3209
-5.36608
-5.40957
-5.45131
-5.49127
-5.52942
-5.56575
-5.60015
-4.93008
-4.94094
-4.96588
-5.0018
-5.04364
-5.08831
-5.13449
-5.18134
-5.22805
-5.27396
-5.31866
-5.36195
-5.40368
-5.44375
-5.48211
-5.5187
-5.55353
-5.58652
-4.95227
-4.96191
-4.98415
-5.01659
-5.05499
-5.09657
-5.13994
-5.1842
-5.22855
-5.27233
-5.3151
-5.35658
-5.3966
-5.43505
-5.47185
-5.50696
-5.54037
-5.57205
-4.95873
-4.96788
-4.98908
-5.02019
-5.05724
-5.09745
-5.13941
-5.18226
-5.22521
-5.2676
-5.309
-5.34911
-5.38779
-5.42492
-5.46044
-5.49432
-5.52657
-5.55719
-4.94235
-4.95212
-4.9747
-5.00774
-5.04669
-5.08831
-5.13118
-5.1746
-5.21785
-5.26029
-5.3015
-5.34127
-5.37947
-5.41604
-5.45093
-5.48416
-5.51574
-5.54571
-4.91534
-4.92612
-4.95137
-4.98835
-5.03107
-5.07551
-5.12051
-5.16564
-5.21016
-5.25339
-5.29503
-5.33499
-5.37322
-5.40968
-5.44438
-5.47734
-5.50862
-5.5383
-4.88
-4.89181
-4.92114
-4.96469
-5.01291
-5.06082
-5.10854
-5.15617
-5.20261
-5.24708
-5.28948
-5.32991
-5.3684
-5.40494
-5.4396
-5.47244
-5.50356
-5.53305
-4.83938
-4.85126
-4.88569
-4.93892
-4.99441
-5.04629
-5.0971
-5.14744
-5.19585
-5.24162
-5.28492
-5.32599
-5.36486
-5.4016
-5.43632
-5.46915
-5.5002
-5.52961
-4.79563
-4.80659
-4.84833
-4.91271
-4.97483
-5.03144
-5.08698
-5.14074
-5.1909
-5.23761
-5.28162
-5.32319
-5.36233
-5.39918
-5.43391
-5.46669
-5.49767
-5.52697
-4.74871
-4.75415
-4.81677
-4.89494
-4.95682
-5.015
-5.07606
-5.13433
-5.18675
-5.2347
-5.27961
-5.32176
-5.36119
-5.39812
-5.43283
-5.46555
-5.49644
-5.5257
-4.70542
-4.66897
-4.77847
-4.8894
-4.9516
-5.00682
-5.06894
-5.12859
-5.18172
-5.23034
-5.27595
-5.31865
-5.35841
-5.39553
-5.43035
-5.46313
-5.49405
-5.52333
-4.71951
-4.5605
-4.68941
-4.84346
-4.93352
-5.00482
-5.07367
-5.13449
-5.1872
-5.23538
-5.28056
-5.32272
-5.3619
-5.39846
-5.43274
-5.46502
-5.49553
-5.52453
-4.84222
-4.66221
-4.6764
-4.74851
-4.83684
-4.936
-5.02661
-5.1003
-5.16191
-5.21695
-5.26717
-5.31284
-5.35454
-5.39293
-5.42852
-5.46176
-5.49311
-5.52318
-4.54953
-5.1411
-5.22993
-5.10565
-5.05127
-5.07837
-5.12527
-5.16842
-5.20989
-5.25197
-5.29337
-5.3326
-5.36946
-5.40408
-5.43655
-5.467
-5.49566
-5.52432
-1.56128
-3.32404
-4.32871
-4.62782
-4.77694
-4.9205
-5.03445
-5.11533
-5.17946
-5.23623
-5.28739
-5.33333
-5.37491
-5.41304
-5.44823
-5.48028
-5.50905
-5.53276
-6.40655
-6.4066
-6.40704
-6.40792
-6.4091
-6.41053
-6.41222
-6.41421
-6.41651
-6.41918
-6.42226
-6.42579
-6.42982
-6.43439
-6.43956
-6.44536
-6.45182
-6.45895
-6.46676
-6.47524
-6.48441
-6.49429
-6.50488
-6.51601
-6.52739
-6.53899
-6.55123
-6.56478
-6.58043
-6.59772
-6.61618
-6.63677
-6.65912
-6.68294
-6.70897
-6.73803
-6.76826
-6.79544
-6.81862
-6.83748
-6.85775
-6.88253
-6.90854
-6.9357
-6.96358
-6.992
-7.02079
-7.04983
-7.07902
-7.10826
-7.13744
-7.1665
-7.19532
-7.22382
-7.25189
-7.27945
-7.30639
-7.33259
-7.35794
-7.38233
-7.40561
-7.42767
-7.44836
-7.46755
-7.48506
-7.50076
-7.51448
-7.52605
-7.5353
-7.54205
-7.54612
-7.54732
-7.54547
-7.54037
-7.53184
-7.51968
-7.50368
-7.48367
-7.45944
-7.43081
-7.39758
-7.35957
-7.31659
-7.26848
-7.21503
-7.1561
-7.09152
-7.02116
-6.94489
-6.86257
-6.77407
-6.67925
-6.57799
-6.47025
-6.35608
-6.23558
-6.10868
-5.97496
-5.83414
-5.68636
-5.53175
-5.37037
-5.20226
-5.02747
-4.84603
-4.65802
-4.46351
-4.26257
-4.05531
-3.84184
-3.62227
-3.39673
-3.16535
-2.9283
-2.68572
-2.43777
-2.18462
-1.92645
-1.66344
-1.39581
-1.12377
-0.84753
-0.56728
-0.283232
0.00440741
0.295388
0.589481
0.886425
1.18599
1.48792
1.79198
2.0979
2.40535
2.71406
3.02375
3.33414
3.64497
3.95593
4.26672
4.57704
4.88658
5.19505
5.50215
5.80757
6.11101
6.41216
6.71069
7.00629
7.29863
7.58738
7.87221
8.15279
8.42879
8.69987
8.9657
9.22597
9.48034
9.72853
9.97028
10.2054
10.4336
10.6549
10.8687
11.0749
11.2731
11.4635
11.6458
11.8201
11.9863
12.1445
12.2947
12.4371
12.5718
12.6991
12.8195
12.9338
13.0439
13.1521
13.2733
13.4053
-6.40496
-6.40536
-6.406
-6.40675
-6.40743
-6.40808
-6.4089
-6.41003
-6.41155
-6.4135
-6.41593
-6.41885
-6.42227
-6.42622
-6.43073
-6.43581
-6.44149
-6.44778
-6.45467
-6.46217
-6.47027
-6.47894
-6.48812
-6.49777
-6.50807
-6.51951
-6.53236
-6.54697
-6.56277
-6.57946
-6.59797
-6.61727
-6.6366
-6.65614
-6.67586
-6.69475
-6.71302
-6.735
-6.76155
-6.79396
-6.82787
-6.85727
-6.8858
-6.91415
-6.94261
-6.97124
-7.00005
-7.029
-7.05803
-7.08708
-7.11606
-7.1449
-7.17352
-7.20182
-7.22973
-7.25713
-7.28394
-7.31004
-7.33532
-7.35967
-7.38295
-7.40504
-7.42581
-7.4451
-7.46277
-7.47866
-7.49262
-7.50447
-7.51404
-7.52117
-7.52565
-7.52733
-7.52599
-7.52147
-7.51355
-7.50206
-7.48679
-7.46755
-7.44414
-7.41638
-7.38407
-7.34704
-7.30509
-7.25805
-7.20574
-7.148
-7.08466
-7.01559
-6.94065
-6.85971
-6.77268
-6.67942
-6.57979
-6.47369
-6.36101
-6.24162
-6.11535
-5.98233
-5.8427
-5.69641
-5.5434
-5.38365
-5.2172
-5.04406
-4.86429
-4.67793
-4.48507
-4.28579
-4.08017
-3.86833
-3.65038
-3.42644
-3.19667
-2.96118
-2.72016
-2.47374
-2.2221
-1.96541
-1.70386
-1.43766
-1.16703
-0.892153
-0.613236
-0.330474
-0.0440925
0.245675
0.538583
0.834384
1.13285
1.43375
1.73683
2.04182
2.3484
2.65629
2.96522
3.27492
3.58512
3.89551
4.2058
4.51568
4.82486
5.13304
5.43993
5.74521
6.0486
6.34977
6.64842
6.94421
7.23684
7.52597
7.81129
8.09244
8.36912
8.64097
8.90768
9.16894
9.42445
9.67388
9.91687
10.1531
10.3821
10.6037
10.818
11.0246
11.2235
11.4146
11.5977
11.7728
11.94
12.0992
12.2505
12.394
12.5299
12.6586
12.7806
12.8966
13.009
13.1194
13.2422
13.3666
-6.40022
-6.40144
-6.40317
-6.40453
-6.40533
-6.40588
-6.40647
-6.4073
-6.4085
-6.41013
-6.41225
-6.41486
-6.41798
-6.42164
-6.42586
-6.43065
-6.43603
-6.44202
-6.44863
-6.45586
-6.46376
-6.47232
-6.48158
-6.49156
-6.50247
-6.51463
-6.5283
-6.54346
-6.5598
-6.57705
-6.59535
-6.61457
-6.63459
-6.65538
-6.67641
-6.6969
-6.71668
-6.73723
-6.76002
-6.78592
-6.81375
-6.84146
-6.86926
-6.89718
-6.92523
-6.95344
-6.98178
-7.01023
-7.03874
-7.06726
-7.09571
-7.12404
-7.15216
-7.17999
-7.20745
-7.23444
-7.26086
-7.28661
-7.31158
-7.33566
-7.35872
-7.38063
-7.40125
-7.42045
-7.43807
-7.45398
-7.46799
-7.47995
-7.4897
-7.49704
-7.50182
-7.50383
-7.5029
-7.49884
-7.49145
-7.48055
-7.46594
-7.44742
-7.4248
-7.3979
-7.36651
-7.33046
-7.28957
-7.24364
-7.19252
-7.13603
-7.07401
-7.00631
-6.93277
-6.85328
-6.76773
-6.67599
-6.57798
-6.47357
-6.36267
-6.24513
-6.12082
-5.98974
-5.85201
-5.70761
-5.55653
-5.39874
-5.23427
-5.06313
-4.88538
-4.70105
-4.51023
-4.31299
-4.10942
-3.89962
-3.68372
-3.46183
-3.23409
-3.00064
-2.76163
-2.51721
-2.26756
-2.01284
-1.75325
-1.48898
-1.22026
-0.947259
-0.670189
-0.389239
-0.104643
0.183376
0.474562
0.768682
1.06551
1.36482
1.66636
1.96984
2.27498
2.58148
2.88909
3.19753
3.50652
3.81577
4.12498
4.43385
4.74208
5.04938
5.35546
5.66001
5.96273
6.26332
6.56146
6.85683
7.14912
7.438
7.72315
8.00425
8.28094
8.55291
8.81982
9.08134
9.33716
9.58701
9.83064
10.0678
10.2981
10.5214
10.7374
10.946
11.1469
11.3399
11.5251
11.7023
11.8715
12.0328
12.1862
12.3319
12.47
12.601
12.7253
12.844
12.9592
13.0717
13.1955
13.3056
-6.39281
-6.39498
-6.3983
-6.40089
-6.40249
-6.40357
-6.40449
-6.40548
-6.40671
-6.40829
-6.41029
-6.41276
-6.41573
-6.41923
-6.42326
-6.42787
-6.43305
-6.43883
-6.44522
-6.45225
-6.45995
-6.46837
-6.47756
-6.48761
-6.49866
-6.51089
-6.52443
-6.53928
-6.55527
-6.57221
-6.58999
-6.60858
-6.62794
-6.64811
-6.66898
-6.69029
-6.71194
-6.73418
-6.75744
-6.78203
-6.80776
-6.83413
-6.86097
-6.88815
-6.91559
-6.94325
-6.97108
-6.99904
-7.02709
-7.05515
-7.08318
-7.11109
-7.13883
-7.16631
-7.19344
-7.22013
-7.2463
-7.27182
-7.29661
-7.32053
-7.34348
-7.36531
-7.3859
-7.40511
-7.42279
-7.43878
-7.45293
-7.46507
-7.47503
-7.48265
-7.48773
-7.4901
-7.48958
-7.48596
-7.47907
-7.46871
-7.45469
-7.4368
-7.41487
-7.38869
-7.35808
-7.32285
-7.28281
-7.2378
-7.18762
-7.13213
-7.07114
-7.00452
-6.93209
-6.85375
-6.76935
-6.67878
-6.58193
-6.4787
-6.369
-6.25273
-6.12979
-6.00018
-5.86391
-5.72098
-5.57138
-5.41509
-5.25213
-5.08252
-4.9063
-4.72352
-4.53425
-4.33857
-4.13656
-3.92833
-3.71399
-3.49366
-3.26748
-3.03558
-2.79812
-2.55524
-2.30711
-2.0539
-1.79582
-1.53304
-1.26578
-0.994221
-0.718564
-0.439008
-0.155781
0.130888
0.42075
0.713577
1.00915
1.30725
1.6076
1.90991
2.21391
2.51934
2.82592
3.13338
3.44143
3.74979
4.05814
4.36621
4.67369
4.98029
5.28571
5.58966
5.89183
6.19192
6.48961
6.78459
7.07655
7.36516
7.65009
7.93102
8.20761
8.47957
8.74656
9.00829
9.26444
9.51474
9.75894
9.9968
10.228
10.4524
10.6696
10.8795
11.0818
11.2764
11.4631
11.6418
11.8127
11.9756
12.1306
12.278
12.4178
12.5505
12.6766
12.7969
12.9136
13.0261
13.1469
13.2416
-6.3846
-6.38776
-6.39286
-6.39691
-6.39955
-6.40141
-6.40295
-6.40439
-6.40595
-6.40776
-6.40992
-6.4125
-6.41556
-6.41912
-6.42321
-6.42786
-6.43309
-6.43892
-6.44537
-6.45248
-6.46029
-6.46883
-6.47819
-6.48845
-6.4997
-6.51207
-6.52563
-6.54041
-6.55631
-6.57321
-6.59099
-6.60953
-6.62877
-6.64866
-6.6692
-6.69039
-6.71226
-6.7349
-6.75839
-6.78275
-6.80787
-6.83359
-6.85979
-6.88638
-6.91329
-6.94046
-6.96784
-6.99537
-7.02301
-7.0507
-7.07838
-7.10597
-7.1334
-7.1606
-7.18749
-7.21396
-7.23994
-7.26531
-7.28997
-7.3138
-7.33668
-7.35848
-7.37908
-7.39832
-7.41606
-7.43216
-7.44644
-7.45874
-7.46891
-7.47675
-7.4821
-7.48476
-7.48456
-7.4813
-7.4748
-7.46486
-7.45128
-7.43388
-7.41245
-7.38681
-7.35677
-7.32213
-7.28272
-7.23835
-7.18885
-7.13405
-7.07379
-7.00791
-6.93626
-6.85871
-6.77513
-6.6854
-6.5894
-6.48702
-6.37819
-6.26283
-6.14085
-6.01224
-5.87699
-5.73508
-5.58649
-5.43124
-5.26931
-5.10075
-4.92558
-4.74387
-4.55566
-4.36106
-4.16013
-3.95299
-3.73974
-3.52051
-3.29541
-3.06461
-2.82823
-2.58644
-2.33939
-2.08727
-1.83026
-1.56855
-1.30234
-1.03182
-0.757171
-0.478622
-0.196376
0.0893137
0.37823
0.670129
0.964818
1.26205
1.56155
1.86302
2.16622
2.47089
2.77676
3.08354
3.39095
3.6987
4.00649
4.31403
4.62102
4.92718
5.23221
5.53581
5.83768
6.13751
6.43499
6.7298
7.02164
7.31017
7.59509
7.87606
8.15279
8.42494
8.69222
8.9543
9.21088
9.46165
9.70636
9.94472
10.1765
10.4015
10.6194
10.8301
11.0332
11.2287
11.4163
11.5961
11.7679
11.9319
12.088
12.2365
12.3774
12.5111
12.6382
12.7592
12.8759
12.9868
13.1034
13.1843
-6.37725
-6.38134
-6.38804
-6.39348
-6.39718
-6.39992
-6.40218
-6.40422
-6.40628
-6.40849
-6.411
-6.41389
-6.41722
-6.42103
-6.42537
-6.43027
-6.43575
-6.44184
-6.44857
-6.45597
-6.46409
-6.47297
-6.48268
-6.49328
-6.50486
-6.51747
-6.53118
-6.54598
-6.56184
-6.57869
-6.59644
-6.61499
-6.63425
-6.65418
-6.67474
-6.69592
-6.71775
-6.74028
-6.76355
-6.78754
-6.81219
-6.8374
-6.8631
-6.88922
-6.91568
-6.94244
-6.96944
-6.99662
-7.02394
-7.05133
-7.07873
-7.10607
-7.13328
-7.16029
-7.18701
-7.21335
-7.23921
-7.2645
-7.2891
-7.3129
-7.33578
-7.35761
-7.37826
-7.39758
-7.41543
-7.43165
-7.44609
-7.45857
-7.46893
-7.477
-7.48259
-7.48551
-7.48559
-7.48264
-7.47645
-7.46685
-7.45363
-7.43659
-7.41555
-7.39031
-7.36069
-7.32648
-7.28752
-7.2436
-7.19458
-7.14026
-7.0805
-7.01512
-6.94399
-6.86697
-6.78394
-6.69477
-6.59934
-6.49755
-6.38932
-6.27457
-6.15324
-6.0253
-5.89072
-5.74948
-5.60157
-5.44699
-5.28576
-5.1179
-4.94344
-4.76244
-4.57497
-4.3811
-4.18092
-3.97454
-3.76206
-3.5436
-3.31929
-3.08928
-2.8537
-2.6127
-2.36646
-2.11515
-1.85895
-1.59806
-1.33265
-1.06293
-0.789069
-0.511299
-0.229835
0.0550875
0.343245
0.634417
0.928395
1.22492
1.52373
1.82452
2.12707
2.43113
2.73642
3.04265
3.34954
3.6568
3.96413
4.27125
4.57787
4.88369
5.18842
5.49177
5.79343
6.09308
6.39044
6.68518
6.97699
7.26555
7.55056
7.83169
8.10864
8.38106
8.64867
8.91114
9.16817
9.41943
9.66465
9.90354
10.1358
10.3614
10.5799
10.7911
10.9949
11.1911
11.3795
11.56
11.7327
11.8974
12.0543
12.2035
12.3451
12.4795
12.607
12.7281
12.8442
12.9527
13.065
13.1339
-6.37193
-6.37684
-6.38479
-6.39138
-6.39606
-6.39964
-6.40263
-6.40532
-6.40793
-6.41065
-6.41361
-6.4169
-6.42062
-6.4248
-6.42951
-6.43477
-6.44062
-6.44709
-6.45421
-6.46202
-6.47056
-6.47986
-6.48997
-6.50096
-6.51287
-6.52574
-6.53961
-6.55447
-6.57031
-6.58707
-6.6047
-6.62314
-6.64233
-6.66221
-6.68275
-6.70392
-6.72573
-6.74817
-6.77126
-6.79498
-6.8193
-6.84415
-6.86948
-6.89524
-6.92137
-6.94781
-6.97452
-7.00145
-7.02853
-7.05571
-7.08292
-7.11011
-7.13719
-7.16409
-7.19072
-7.21701
-7.24284
-7.26812
-7.29275
-7.31659
-7.33954
-7.36145
-7.38221
-7.40165
-7.41964
-7.43602
-7.45063
-7.46331
-7.47387
-7.48215
-7.48796
-7.49112
-7.49144
-7.48874
-7.48281
-7.47347
-7.46052
-7.44376
-7.423
-7.39804
-7.3687
-7.33479
-7.29611
-7.2525
-7.20377
-7.14975
-7.09029
-7.02522
-6.9544
-6.87769
-6.79498
-6.70613
-6.61104
-6.5096
-6.40172
-6.28734
-6.16639
-6.03884
-5.90466
-5.76382
-5.61632
-5.46216
-5.30135
-5.13391
-4.9599
-4.77935
-4.59235
-4.39896
-4.19928
-3.99341
-3.78145
-3.56353
-3.33978
-3.11033
-2.87533
-2.63493
-2.3893
-2.13861
-1.88304
-1.62277
-1.35801
-1.0889
-0.815684
-0.538543
-0.257724
0.026568
0.314094
0.604663
0.898029
1.19395
1.49215
1.79237
2.09436
2.39789
2.70266
3.00841
3.31483
3.62164
3.92856
4.2353
4.54157
4.84708
5.15153
5.45464
5.7561
6.0556
6.35285
6.64753
6.93933
7.22794
7.51305
7.79435
8.0715
8.34421
8.61215
8.875
9.13246
9.38422
9.62996
9.86941
10.1023
10.3284
10.5475
10.7593
10.9637
11.1605
11.3496
11.5308
11.7041
11.8695
12.027
12.1767
12.3188
12.4535
12.5811
12.7019
12.8168
12.9228
13.0313
13.0895
-6.36939
-6.37489
-6.38368
-6.39113
-6.39661
-6.40092
-6.40459
-6.40789
-6.41106
-6.41429
-6.41772
-6.42146
-6.4256
-6.4302
-6.43531
-6.44098
-6.44724
-6.45412
-6.46167
-6.4699
-6.47885
-6.48857
-6.49908
-6.51042
-6.52264
-6.53575
-6.54977
-6.56471
-6.58054
-6.59724
-6.61477
-6.63309
-6.65215
-6.67192
-6.69237
-6.71346
-6.73519
-6.75754
-6.78049
-6.80404
-6.82814
-6.85276
-6.87785
-6.90337
-6.92928
-6.95552
-6.98205
-7.00881
-7.03575
-7.06282
-7.08994
-7.11706
-7.1441
-7.17099
-7.19763
-7.22394
-7.24982
-7.27517
-7.29988
-7.32383
-7.3469
-7.36895
-7.38985
-7.40946
-7.42762
-7.44418
-7.45898
-7.47184
-7.4826
-7.49108
-7.49709
-7.50045
-7.50097
-7.49847
-7.49274
-7.48358
-7.47082
-7.45424
-7.43366
-7.40887
-7.3797
-7.34594
-7.30742
-7.26396
-7.21538
-7.1615
-7.10217
-7.03724
-6.96655
-6.88997
-6.80738
-6.71867
-6.6237
-6.5224
-6.41467
-6.30044
-6.17966
-6.05228
-5.91827
-5.77762
-5.63031
-5.47634
-5.31574
-5.14852
-4.97474
-4.79445
-4.60771
-4.4146
-4.21523
-4.00967
-3.79806
-3.5805
-3.35713
-3.12808
-2.8935
-2.65354
-2.40837
-2.15815
-1.90308
-1.64331
-1.37904
-1.11045
-0.837743
-0.561133
-0.280843
0.00291292
0.289917
0.579958
0.872794
1.16818
1.46585
1.76556
2.06708
2.37013
2.67445
2.97975
3.28574
3.59215
3.89869
4.20507
4.51101
4.81622
5.12041
5.42329
5.72456
6.02391
6.32105
6.61567
6.90746
7.19612
7.48132
7.76276
8.04012
8.31309
8.58134
8.84457
9.10245
9.35467
9.60092
9.84091
10.0743
10.301
10.5207
10.7331
10.9381
11.1355
11.3251
11.5069
11.6807
11.8466
12.0046
12.1548
12.2972
12.432
12.5595
12.6796
12.7932
12.8964
13.0015
13.0505
-6.36988
-6.37571
-6.38496
-6.39296
-6.39902
-6.40392
-6.40814
-6.41198
-6.41565
-6.41934
-6.42322
-6.42738
-6.43192
-6.43691
-6.44241
-6.44845
-6.45509
-6.46235
-6.47027
-6.47887
-6.48819
-6.49826
-6.5091
-6.52074
-6.5332
-6.5465
-6.56066
-6.57566
-6.5915
-6.60817
-6.62562
-6.64385
-6.66281
-6.68248
-6.70282
-6.72382
-6.74546
-6.76771
-6.79056
-6.81399
-6.83796
-6.86244
-6.8874
-6.91279
-6.93858
-6.96472
-6.99116
-7.01786
-7.04476
-7.07181
-7.09893
-7.12607
-7.15316
-7.1801
-7.20682
-7.23323
-7.25923
-7.28472
-7.30957
-7.33367
-7.35691
-7.37914
-7.40022
-7.42001
-7.43836
-7.45511
-7.47009
-7.48313
-7.49407
-7.50272
-7.5089
-7.51242
-7.51308
-7.51071
-7.50511
-7.49607
-7.4834
-7.46691
-7.4464
-7.42168
-7.39255
-7.35883
-7.32034
-7.27689
-7.2283
-7.17442
-7.11508
-7.05012
-6.9794
-6.90279
-6.82017
-6.73141
-6.63642
-6.53508
-6.42732
-6.31307
-6.19227
-6.06488
-5.93088
-5.79023
-5.64294
-5.489
-5.32844
-5.16128
-4.98757
-4.80738
-4.62075
-4.42779
-4.22857
-4.0232
-3.8118
-3.59448
-3.37136
-3.1426
-2.90833
-2.6687
-2.42389
-2.17406
-1.91937
-1.66002
-1.39616
-1.128
-0.855736
-0.579588
-0.299751
-0.0164645
0.270082
0.559642
0.852003
1.1469
1.44411
1.74337
2.04445
2.34707
2.65096
2.95584
3.26144
3.56746
3.87364
4.17968
4.48531
4.79024
5.09419
5.39685
5.69795
5.99716
6.29421
6.58877
6.88056
7.16925
7.45455
7.73614
8.01371
8.28692
8.55549
8.81907
9.07735
9.33001
9.57675
9.81724
10.0512
10.2784
10.4986
10.7116
10.9171
11.115
11.3052
11.4874
11.6617
11.8281
11.9864
12.1369
12.2794
12.4142
12.5413
12.6605
12.7727
12.8732
12.9752
13.0162
-6.37332
-6.37926
-6.38861
-6.39685
-6.40327
-6.40856
-6.41321
-6.41745
-6.42153
-6.42561
-6.42986
-6.43437
-6.43925
-6.44457
-6.45038
-6.45674
-6.46369
-6.47125
-6.47946
-6.48835
-6.49795
-6.50828
-6.51936
-6.53121
-6.54384
-6.55728
-6.57153
-6.58658
-6.60242
-6.61906
-6.63647
-6.65462
-6.6735
-6.69309
-6.71336
-6.73429
-6.75587
-6.77806
-6.80085
-6.82421
-6.84813
-6.87256
-6.89747
-6.92283
-6.94859
-6.97472
-7.00117
-7.0279
-7.05484
-7.08195
-7.10916
-7.1364
-7.1636
-7.19067
-7.21754
-7.24411
-7.27028
-7.29594
-7.32097
-7.34527
-7.36869
-7.39111
-7.41239
-7.43237
-7.4509
-7.46782
-7.48296
-7.49616
-7.50724
-7.51601
-7.5223
-7.52591
-7.52666
-7.52435
-7.51878
-7.50976
-7.4971
-7.48059
-7.46005
-7.43527
-7.40607
-7.37227
-7.33367
-7.2901
-7.24139
-7.18736
-7.12786
-7.06274
-6.99185
-6.91507
-6.83226
-6.74333
-6.64815
-6.54664
-6.4387
-6.32429
-6.20333
-6.0758
-5.94166
-5.80088
-5.65348
-5.49944
-5.3388
-5.17158
-4.99784
-4.81762
-4.63101
-4.43809
-4.23894
-4.03366
-3.82239
-3.60522
-3.3823
-3.15375
-2.91972
-2.68037
-2.43586
-2.18636
-1.93202
-1.67301
-1.40953
-1.14176
-0.869901
-0.594165
-0.314758
-0.0318994
0.254199
0.543308
0.835207
1.12965
1.42642
1.72525
2.02588
2.32807
2.63154
2.93601
3.24121
3.54685
3.85268
4.15839
4.46372
4.76838
5.07208
5.37454
5.67547
5.97455
6.2715
6.56602
6.8578
7.14654
7.43194
7.71367
7.99143
8.2649
8.53376
8.79769
9.05636
9.30945
9.55664
9.79762
10.0321
10.2598
10.4805
10.694
10.9
11.0984
11.289
11.4717
11.6464
11.8131
11.9717
12.1222
12.2648
12.3994
12.526
12.6443
12.7548
12.8527
12.952
12.9861
-6.37942
-6.38527
-6.39441
-6.40262
-6.40916
-6.41467
-6.41957
-6.42409
-6.42845
-6.43281
-6.43732
-6.4421
-6.44722
-6.45278
-6.45882
-6.46539
-6.47255
-6.48031
-6.48871
-6.49779
-6.50755
-6.51804
-6.52926
-6.54123
-6.55396
-6.56748
-6.58177
-6.59684
-6.61269
-6.62931
-6.64668
-6.66479
-6.68363
-6.70317
-6.7234
-6.7443
-6.76585
-6.78803
-6.81082
-6.83419
-6.85812
-6.88258
-6.90752
-6.93292
-6.95874
-6.98495
-7.01148
-7.03831
-7.06537
-7.09261
-7.11997
-7.14737
-7.17473
-7.20199
-7.22905
-7.25581
-7.28217
-7.30803
-7.33327
-7.35776
-7.38138
-7.40398
-7.42542
-7.44556
-7.46424
-7.48129
-7.49655
-7.50984
-7.521
-7.52982
-7.53614
-7.53976
-7.5405
-7.53814
-7.53252
-7.52341
-7.51064
-7.49401
-7.47331
-7.44836
-7.41897
-7.38495
-7.34613
-7.30231
-7.25334
-7.19905
-7.13927
-7.07386
-7.00267
-6.92559
-6.84249
-6.75325
-6.65778
-6.55597
-6.44776
-6.33307
-6.21185
-6.08406
-5.94968
-5.80868
-5.66107
-5.50685
-5.34605
-5.17869
-5.00484
-4.82455
-4.63789
-4.44494
-4.2458
-4.04058
-3.82939
-3.61233
-3.38956
-3.16119
-2.92739
-2.68829
-2.44407
-2.19487
-1.94086
-1.6822
-1.41908
-1.15169
-0.88024
-0.604912
-0.325945
-0.0435286
0.242101
0.530749
0.822171
1.11615
1.41246
1.71084
2.01101
2.31275
2.61578
2.91983
3.22462
3.52988
3.83533
4.14072
4.44574
4.75013
5.05359
5.35584
5.65659
5.95554
6.2524
6.54688
6.83865
7.12744
7.41292
7.6948
7.97275
8.24647
8.51561
8.77988
9.03892
9.29241
9.54004
9.78148
10.0164
10.2446
10.4658
10.6798
10.8862
11.085
11.276
11.4591
11.6341
11.801
11.9598
12.1105
12.2529
12.3872
12.5132
12.6304
12.7392
12.8347
12.9314
12.9597
-6.38775
-6.39333
-6.40202
-6.40995
-6.41641
-6.42196
-6.42694
-6.43159
-6.43609
-6.4406
-6.44526
-6.45018
-6.45543
-6.46111
-6.46726
-6.47394
-6.48118
-6.48903
-6.49751
-6.50665
-6.51649
-6.52704
-6.53831
-6.55033
-6.56311
-6.57665
-6.59095
-6.60603
-6.62187
-6.63848
-6.65583
-6.67393
-6.69276
-6.7123
-6.73253
-6.75345
-6.77503
-6.79725
-6.82008
-6.8435
-6.86749
-6.89202
-6.91706
-6.94257
-6.96852
-6.99486
-7.02155
-7.04854
-7.07577
-7.10319
-7.13072
-7.15831
-7.18588
-7.21333
-7.24059
-7.26755
-7.2941
-7.32015
-7.34556
-7.37021
-7.39398
-7.41671
-7.43827
-7.45851
-7.47726
-7.49436
-7.50965
-7.52295
-7.53408
-7.54285
-7.5491
-7.55262
-7.55322
-7.55071
-7.5449
-7.53559
-7.52259
-7.5057
-7.48473
-7.45949
-7.42978
-7.39543
-7.35626
-7.31208
-7.26274
-7.20806
-7.1479
-7.08209
-7.01051
-6.93303
-6.84953
-6.75991
-6.66405
-6.56187
-6.45328
-6.33824
-6.21669
-6.08858
-5.9539
-5.81263
-5.66476
-5.51031
-5.3493
-5.18177
-5.00778
-4.82737
-4.64064
-4.44766
-4.24852
-4.04334
-3.83222
-3.61528
-3.39266
-3.16449
-2.93092
-2.6921
-2.44818
-2.19931
-1.94565
-1.68736
-1.42465
-1.15768
-0.886659
-0.611793
-0.333299
-0.051378
0.233756
0.521898
0.812813
1.10629
1.4021
1.69998
1.99965
2.3009
2.60346
2.90705
3.21141
3.51626
3.82133
4.12635
4.43105
4.73514
5.03834
5.34037
5.64094
5.93975
6.2365
6.53091
6.82268
7.1115
7.39706
7.67907
7.9572
8.23114
8.50056
8.76514
9.02453
9.27842
9.52646
9.76834
10.0038
10.2324
10.454
10.6684
10.8753
11.0745
11.2659
11.4492
11.6245
11.7916
11.9505
12.1011
12.2434
12.3772
12.5025
12.6185
12.7258
12.819
12.9133
12.9366
-6.3978
-6.40299
-6.41104
-6.4185
-6.4247
-6.4301
-6.43501
-6.43963
-6.44411
-6.44862
-6.45329
-6.4582
-6.46345
-6.46912
-6.47525
-6.48191
-6.48913
-6.49697
-6.50543
-6.51457
-6.52439
-6.53493
-6.54619
-6.5582
-6.57096
-6.58449
-6.59878
-6.61385
-6.62968
-6.64628
-6.66363
-6.68174
-6.70058
-6.72015
-6.74042
-6.76138
-6.78301
-6.80529
-6.82819
-6.8517
-6.8758
-6.90045
-6.92563
-6.9513
-6.97742
-7.00394
-7.03081
-7.05798
-7.0854
-7.113
-7.14072
-7.16849
-7.19623
-7.22385
-7.25127
-7.27838
-7.30507
-7.33123
-7.35674
-7.38148
-7.4053
-7.42808
-7.44965
-7.46987
-7.48858
-7.50561
-7.5208
-7.53397
-7.54494
-7.55354
-7.55957
-7.56285
-7.56319
-7.56039
-7.55427
-7.54462
-7.53126
-7.51399
-7.49262
-7.46696
-7.43683
-7.40204
-7.36241
-7.31777
-7.26796
-7.21281
-7.15217
-7.08589
-7.01384
-6.93589
-6.85194
-6.76187
-6.66557
-6.56296
-6.45398
-6.33855
-6.21662
-6.08817
-5.95317
-5.8116
-5.66347
-5.50878
-5.34757
-5.17988
-5.00575
-4.82526
-4.63847
-4.44548
-4.24637
-4.04126
-3.83026
-3.61348
-3.39106
-3.16314
-2.92986
-2.69136
-2.44779
-2.19931
-1.94605
-1.68822
-1.42595
-1.15947
-0.888955
-0.614625
-0.336671
-0.0553136
0.229271
0.516835
0.807188
1.10011
1.39536
1.69265
1.99178
2.29248
2.59452
2.8976
3.20148
3.50587
3.81052
4.11515
4.4195
4.72326
5.02618
5.32796
5.62832
5.92695
6.22359
6.51792
6.80965
7.09848
7.38411
7.66623
7.94452
8.21867
8.48834
8.75321
9.01294
9.26719
9.51562
9.75791
9.99374
10.2228
10.4449
10.6596
10.8669
11.0664
11.2581
11.4418
11.6172
11.7845
11.9434
12.0939
12.2359
12.3693
12.4937
12.6086
12.7142
12.8052
12.8972
12.9166
-6.40909
-6.41381
-6.42108
-6.42793
-6.43372
-6.4388
-6.44346
-6.44787
-6.45217
-6.45651
-6.46101
-6.46578
-6.47088
-6.47641
-6.48241
-6.48895
-6.49606
-6.50378
-6.51215
-6.52119
-6.53093
-6.54139
-6.55258
-6.56453
-6.57724
-6.59073
-6.60499
-6.62003
-6.63585
-6.65245
-6.6698
-6.68791
-6.70677
-6.72637
-6.74668
-6.76769
-6.78938
-6.81174
-6.83474
-6.85837
-6.88261
-6.90741
-6.93275
-6.95858
-6.98486
-7.01154
-7.03857
-7.06589
-7.09344
-7.12117
-7.149
-7.17688
-7.20471
-7.23241
-7.25988
-7.28703
-7.31374
-7.33989
-7.36537
-7.39004
-7.41377
-7.43643
-7.45785
-7.47789
-7.4964
-7.5132
-7.52813
-7.54101
-7.55167
-7.55992
-7.56559
-7.56848
-7.56841
-7.56518
-7.55861
-7.5485
-7.53466
-7.5169
-7.49503
-7.46886
-7.43821
-7.40289
-7.36274
-7.31757
-7.26723
-7.21156
-7.15039
-7.0836
-7.01105
-6.93262
-6.84819
-6.75765
-6.66091
-6.55788
-6.44849
-6.33268
-6.2104
-6.08162
-5.94632
-5.80448
-5.65612
-5.50123
-5.33986
-5.17205
-4.99784
-4.81731
-4.63053
-4.43759
-4.23858
-4.03362
-3.82281
-3.60627
-3.38414
-3.15655
-2.92364
-2.68556
-2.44244
-2.19444
-1.94169
-1.68439
-1.42268
-1.15678
-0.886876
-0.613171
-0.335857
-0.0551304
0.228797
0.515703
0.805412
1.0977
1.39228
1.68892
1.98741
2.28751
2.58894
2.89146
3.19479
3.49868
3.80285
4.10704
4.41098
4.71438
5.01696
5.31846
5.61857
5.91701
6.21349
6.50771
6.79938
7.0882
7.37386
7.65606
7.93449
8.20882
8.47871
8.74385
9.00388
9.25846
9.50724
9.7499
9.98611
10.2156
10.438
10.6531
10.8607
11.0606
11.2525
11.4364
11.612
11.7793
11.9382
12.0886
12.2303
12.3631
12.4867
12.6004
12.7044
12.7934
12.8832
12.8993
-6.42119
-6.4254
-6.43184
-6.43797
-6.44318
-6.44778
-6.452
-6.456
-6.45993
-6.46392
-6.4681
-6.47256
-6.47738
-6.48264
-6.4884
-6.4947
-6.5016
-6.50913
-6.51732
-6.52621
-6.53581
-6.54614
-6.55723
-6.56908
-6.5817
-6.59511
-6.6093
-6.62429
-6.64006
-6.65662
-6.67395
-6.69205
-6.71091
-6.73052
-6.75086
-6.77192
-6.79368
-6.81613
-6.83924
-6.86297
-6.88731
-6.91221
-6.93764
-6.96355
-6.9899
-7.01664
-7.0437
-7.07104
-7.09859
-7.1263
-7.1541
-7.18192
-7.20968
-7.23728
-7.26463
-7.29163
-7.31816
-7.34411
-7.36935
-7.39377
-7.41721
-7.43955
-7.46063
-7.48031
-7.49842
-7.51481
-7.5293
-7.54173
-7.55192
-7.55968
-7.56485
-7.56722
-7.56661
-7.56285
-7.55572
-7.54505
-7.53065
-7.51232
-7.48987
-7.46313
-7.4319
-7.39602
-7.3553
-7.30958
-7.25869
-7.20248
-7.14079
-7.07349
-7.00046
-6.92155
-6.83667
-6.74569
-6.64854
-6.54512
-6.43538
-6.31924
-6.19667
-6.06763
-5.9321
-5.79006
-5.64155
-5.48655
-5.32512
-5.15728
-4.9831
-4.80263
-4.61597
-4.42318
-4.22439
-4.01968
-3.80919
-3.59301
-3.37129
-3.14416
-2.91176
-2.67421
-2.43167
-2.18425
-1.93215
-1.67549
-1.41448
-1.14928
-0.880108
-0.607129
-0.330559
-0.0505823
0.232562
0.518718
0.807686
1.09922
1.39302
1.68891
1.98668
2.28608
2.58683
2.88869
3.1914
3.49471
3.79834
4.10203
4.40549
4.70847
5.01068
5.31184
5.61166
5.90986
6.20613
6.50021
6.79177
7.08054
7.3662
7.64845
7.92697
8.20144
8.47152
8.73688
8.99716
9.25203
9.50112
9.7441
9.98065
10.2104
10.4332
10.6487
10.8566
11.0567
11.2489
11.4329
11.6086
11.776
11.9348
12.0849
12.2263
12.3585
12.4813
12.5938
12.6963
12.7833
12.871
12.8845
-6.43428
-6.43797
-6.44359
-6.44891
-6.45338
-6.45727
-6.46082
-6.46417
-6.46749
-6.47091
-6.47456
-6.47852
-6.4829
-6.48774
-6.49312
-6.49908
-6.50566
-6.5129
-6.52083
-6.52947
-6.53885
-6.54897
-6.55987
-6.57154
-6.584
-6.59726
-6.61131
-6.62616
-6.64181
-6.65826
-6.6755
-6.69352
-6.71232
-6.73188
-6.75218
-6.77322
-6.79496
-6.81739
-6.84046
-6.86415
-6.88843
-6.91325
-6.93857
-6.96436
-6.99056
-7.01712
-7.044
-7.07113
-7.09845
-7.12592
-7.15345
-7.18099
-7.20844
-7.2357
-7.26269
-7.28929
-7.31539
-7.34089
-7.36566
-7.38958
-7.41251
-7.43431
-7.45485
-7.47396
-7.4915
-7.5073
-7.5212
-7.53302
-7.54259
-7.54974
-7.55428
-7.55602
-7.5548
-7.5504
-7.54266
-7.53137
-7.51636
-7.49742
-7.47438
-7.44705
-7.41526
-7.37881
-7.33755
-7.29129
-7.2399
-7.1832
-7.12106
-7.05332
-6.97986
-6.90055
-6.81529
-6.72396
-6.62649
-6.52279
-6.41279
-6.29643
-6.17368
-6.04449
-5.90886
-5.76677
-5.61823
-5.46327
-5.3019
-5.13419
-4.96017
-4.77993
-4.59353
-4.40107
-4.20264
-3.99836
-3.78834
-3.57269
-3.35155
-3.12505
-2.8933
-2.65646
-2.41464
-2.16799
-1.91667
-1.66084
-1.40067
-1.13634
-0.868025
-0.595926
-0.32025
-0.0412002
0.241037
0.526318
0.814406
1.10501
1.39791
1.69294
1.98986
2.28843
2.58838
2.88948
3.19148
3.4941
3.79709