/*--------------------------------*- C++ -*----------------------------------*\
  =========                 |
  \\      /  F ield         | OpenFOAM: The Open Source CFD Toolbox
   \\    /   O peration     | Website:  https://openfoam.org
    \\  /    A nd           | Version:  9
     \\/     M anipulation  |
\*---------------------------------------------------------------------------*/
FoamFile
{
    format      ascii;
    class       volScalarField;
    location    "190";
    object      nut;
}
// * * * * * * * * * * * * * * * * * * * * * * * * * * * * * * * * * * * * * //

dimensions      [0 2 -1 0 0 0 0];

internalField   nonuniform List<scalar> 
12225
(
4.14923e-05
3.93411e-05
3.74827e-05
3.54334e-05
3.37834e-05
3.24218e-05
3.15085e-05
3.09118e-05
3.09184e-05
3.10916e-05
3.15764e-05
3.20933e-05
3.31591e-05
3.38205e-05
3.50591e-05
3.59566e-05
3.66616e-05
3.93977e-05
0.000332219
0.000215172
0.000179273
0.000157674
0.000146212
0.000138204
0.000132722
0.000131677
0.000129484
0.000130088
0.000129027
0.000129459
0.000128646
0.000128571
0.000128067
0.000127474
0.000127443
0.000126174
0.000668688
0.000450651
0.000355757
0.00030983
0.000275281
0.000251098
0.0002317
0.000217281
0.000202646
0.000192141
0.000182589
0.000175212
0.000169349
0.000163669
0.000160273
0.000155529
0.000153805
0.000149716
0.000801679
0.00069166
0.000572551
0.00050006
0.000449372
0.000411993
0.000380757
0.000356015
0.000333979
0.000314784
0.000298344
0.00028162
0.00027031
0.000256037
0.000248175
0.000236069
0.000230476
0.000220287
0.000839623
0.000810187
0.000740701
0.00067642
0.00062392
0.000581394
0.00054585
0.000514564
0.000489496
0.000464426
0.000445844
0.000424044
0.000409909
0.000390765
0.000379852
0.00036296
0.000354716
0.000339247
0.000850344
0.000843277
0.000819553
0.00078653
0.000750764
0.00071589
0.000685745
0.000656131
0.000632535
0.000607509
0.000588981
0.000567225
0.000552256
0.000533058
0.000520751
0.000503589
0.000493607
0.000477206
0.000851579
0.000851019
0.0008433
0.000833478
0.000817108
0.000796953
0.000777865
0.000756733
0.000738893
0.000719137
0.000703522
0.000685603
0.000672102
0.000655889
0.000644283
0.000629409
0.0006198
0.000604905
0.000851581
0.000851816
0.000850037
0.000847463
0.0008414
0.00083375
0.000824822
0.000813432
0.000802807
0.000790465
0.000779708
0.000767527
0.000757412
0.000745758
0.000736528
0.000725425
0.000717447
0.000705818
0.000851673
0.000851531
0.000851015
0.000850343
0.000848875
0.00084617
0.000843026
0.000838304
0.000833401
0.000827358
0.000821213
0.000814762
0.000808423
0.000801491
0.00079528
0.0007883
0.000782498
0.000774905
0.000851754
0.000851386
0.000851043
0.000850633
0.000850247
0.000849368
0.000848404
0.00084678
0.000844955
0.000842529
0.000839922
0.000836796
0.000833791
0.000830144
0.000826967
0.000822905
0.000819911
0.000815267
0.000851784
0.000851358
0.000851012
0.000850613
0.000850329
0.000849905
0.000849526
0.000848929
0.000848303
0.000847393
0.000846465
0.000845175
0.000843988
0.000842348
0.000840993
0.000839026
0.000837634
0.000835353
0.000851788
0.000851359
0.000850996
0.000850605
0.000850292
0.000849938
0.000849646
0.00084928
0.000848955
0.000848504
0.000848098
0.000847507
0.000846996
0.000846242
0.000845639
0.000844718
0.000844055
0.000842972
0.000851786
0.000851363
0.000850986
0.000850604
0.000850269
0.000849926
0.00084963
0.000849313
0.000849042
0.000848728
0.000848462
0.000848126
0.000847843
0.000847465
0.000847155
0.000846725
0.000846385
0.000845901
0.000851783
0.000851364
0.000850978
0.000850602
0.000850256
0.000849916
0.000849607
0.0008493
0.000849022
0.00084874
0.000848488
0.000848224
0.000847988
0.000847734
0.000847508
0.000847257
0.000847033
0.000846783
0.000851781
0.000851364
0.000850973
0.000850598
0.000850246
0.000849909
0.000849592
0.000849286
0.000849
0.000848723
0.000848463
0.000848212
0.000847975
0.000847745
0.000847528
0.000847316
0.000847115
0.000846919
0.00085178
0.000851363
0.000850969
0.000850594
0.000850239
0.000849901
0.00084958
0.000849275
0.000848984
0.000848707
0.000848443
0.000848191
0.000847951
0.000847721
0.000847503
0.000847293
0.000847093
0.000846902
0.000851779
0.000851362
0.000850967
0.000850591
0.000850234
0.000849895
0.000849572
0.000849265
0.000848973
0.000848694
0.000848429
0.000848175
0.000847933
0.000847702
0.000847481
0.00084727
0.000847068
0.000846875
0.000851779
0.000851362
0.000850965
0.000850589
0.000850231
0.00084989
0.000849567
0.000849259
0.000848965
0.000848685
0.000848418
0.000848164
0.00084792
0.000847687
0.000847465
0.000847253
0.000847049
0.000846855
0.000851779
0.000851362
0.000850965
0.000850588
0.00085023
0.000849889
0.000849565
0.000849256
0.000848962
0.000848682
0.000848414
0.000848158
0.000847914
0.000847681
0.000847457
0.000847244
0.000847039
0.000846844
0.000851779
0.000851362
0.000850966
0.000850589
0.000850231
0.000849891
0.000849568
0.000849259
0.000848965
0.000848685
0.000848417
0.000848162
0.000847917
0.000847684
0.00084746
0.000847246
0.000847041
0.000846845
0.000851779
0.000851363
0.000850967
0.000850592
0.000850235
0.000849897
0.000849573
0.000849267
0.000848973
0.000848694
0.000848424
0.000848169
0.00084792
0.000847684
0.000847451
0.000847231
0.000847013
0.000846806
0.000851778
0.000851366
0.000850968
0.000850599
0.00085024
0.000849908
0.00084958
0.000849274
0.000848965
0.000848671
0.000848365
0.000848072
0.000847757
0.000847456
0.000847123
0.000846812
0.000846457
0.000846136
0.000851773
0.000851376
0.000850971
0.000850615
0.000850241
0.00084989
0.000849479
0.000849054
0.00084853
0.000847978
0.000847301
0.000846605
0.000845767
0.00084494
0.000843955
0.00084303
0.000841918
0.00084094
0.000851767
0.000851415
0.000850964
0.000850548
0.000849861
0.000848967
0.00084761
0.000845976
0.000843905
0.000841637
0.000838955
0.000836215
0.000833117
0.000830114
0.000826764
0.000823681
0.000820185
0.000817179
0.000851859
0.00085138
0.000850195
0.000848243
0.00084447
0.000839354
0.000832766
0.000825659
0.000817962
0.000810012
0.000801619
0.000793629
0.000785333
0.000777708
0.000769745
0.000762702
0.000755125
0.000748796
0.000852108
0.000847667
0.000839902
0.000827146
0.000808708
0.000789646
0.000769976
0.000751414
0.000733306
0.000716896
0.000700935
0.000686782
0.000672832
0.000660672
0.00064838
0.000637943
0.000626956
0.000618023
0.000843241
0.000822507
0.000775185
0.000726459
0.000684896
0.000649852
0.000618462
0.00059202
0.000568382
0.000548313
0.00052969
0.000513993
0.000498754
0.000486019
0.000473204
0.000462711
0.000451625
0.000442808
0.000795685
0.000668241
0.000570626
0.000509905
0.000465605
0.000431184
0.000404147
0.000382482
0.0003642
0.000349071
0.000335943
0.000325063
0.000314509
0.000306238
0.000297962
0.00029137
0.000284284
0.000278934
0.000501314
0.000348357
0.000292674
0.000259181
0.000236323
0.000221177
0.000211621
0.000203855
0.000198564
0.000195076
0.000192221
0.000190368
0.000188583
0.000187439
0.000186166
0.000185472
0.000184555
0.000184143
7.27385e-05
7.02256e-05
6.79542e-05
6.56138e-05
6.33828e-05
6.12762e-05
5.94944e-05
5.79552e-05
5.67108e-05
5.57032e-05
5.49775e-05
5.44179e-05
5.41094e-05
5.3881e-05
5.3897e-05
5.39324e-05
5.4091e-05
5.43235e-05
5.92475e-07
1.2663e-05
2.2255e-05
3.14135e-05
4.10395e-05
5.11882e-05
6.18866e-05
7.30479e-05
8.44686e-05
9.59346e-05
0.000107223
0.000118179
0.000128667
0.000138632
0.00014802
0.00015685
0.000165109
0.000172824
0.000179918
0.000186303
0.000192529
0.000197291
0.000199311
0.000199455
0.000197018
0.000192416
0.000187102
0.000188882
0.000190205
0.000195778
0.000197774
0.000192331
3.99014e-05
4.45616e-05
4.44765e-05
4.72179e-05
4.92497e-05
4.97763e-05
5.11204e-05
5.217e-05
5.3327e-05
5.44538e-05
5.55845e-05
5.67144e-05
5.78373e-05
5.89615e-05
6.00783e-05
6.11962e-05
6.23073e-05
6.34195e-05
6.45253e-05
6.5632e-05
6.67327e-05
6.78339e-05
6.89294e-05
7.00251e-05
7.11151e-05
7.22047e-05
7.32885e-05
7.43714e-05
7.54479e-05
7.65227e-05
7.75907e-05
7.86564e-05
7.97144e-05
8.07692e-05
8.18155e-05
8.28576e-05
8.38901e-05
8.49174e-05
8.59341e-05
8.69444e-05
8.7943e-05
8.8934e-05
8.99122e-05
9.08812e-05
9.18362e-05
9.27805e-05
9.37096e-05
9.46266e-05
9.55269e-05
9.64134e-05
9.72818e-05
9.81346e-05
9.89673e-05
9.9782e-05
0.000100574
0.000101346
0.000102092
0.000102815
0.000103512
0.000104184
0.000104832
0.000105464
0.000106068
0.000106649
0.000107204
0.000107734
0.000108238
0.000108716
0.000109166
0.000109589
0.000109983
0.000110348
0.000110684
0.000110991
0.000111267
0.000111513
0.000111729
0.000111913
0.000112067
0.000112189
0.00011228
0.00011234
0.000112369
0.000112367
0.000112335
0.000112271
0.000112179
0.000112059
0.000111926
0.000111759
0.000111551
0.000111283
0.000111003
0.000110712
0.000110407
0.000110078
0.000109702
0.000109311
0.00010891
0.00010847
0.00010803
0.000107574
0.00010711
0.000106644
0.000106173
0.000105692
0.000105163
0.000104654
0.000104162
0.00010364
0.000103159
0.000102615
0.000102216
0.000101674
0.000101188
0.000100691
0.000100215
9.97491e-05
9.92965e-05
9.89403e-05
9.86217e-05
9.82963e-05
9.79285e-05
9.76157e-05
9.7307e-05
9.70039e-05
9.67183e-05
9.64454e-05
9.61613e-05
9.58847e-05
9.56247e-05
9.52874e-05
9.50772e-05
9.4277e-05
9.41061e-05
9.41268e-05
9.41469e-05
9.4143e-05
9.41124e-05
9.40279e-05
9.3882e-05
9.36999e-05
9.34612e-05
9.3152e-05
9.27449e-05
9.2244e-05
9.1568e-05
8.9272e-05
2.41802e-06
4.19971e-05
8.73734e-05
0.000118634
0.000139948
0.000156513
0.000171027
0.000184795
0.000198312
0.000211656
0.000224719
0.000237336
0.000249345
0.000260616
0.00027104
0.000280534
0.000289017
0.000296412
0.000302623
0.000307568
0.000311208
0.000312531
0.000310583
0.000305822
0.000298186
0.000288089
0.000276891
0.000277056
0.000274144
0.000273217
0.000273517
0.000250854
0.000235539
0.000247143
0.000254072
0.000276453
0.000283796
0.000290549
0.000297617
0.000305052
0.000312775
0.000320649
0.000328656
0.000336759
0.000344946
0.00035321
0.000361546
0.000369954
0.000378433
0.000386987
0.000395615
0.000404322
0.000413108
0.000421978
0.000430934
0.000439978
0.000449112
0.00045834
0.000467661
0.000477079
0.000486593
0.000496205
0.000505914
0.000515721
0.000525625
0.000535626
0.00054572
0.000555908
0.000566185
0.000576551
0.000587
0.000597531
0.000608139
0.00061882
0.000629568
0.00064038
0.000651248
0.000662167
0.000673131
0.000684136
0.000695172
0.000706236
0.000717319
0.000728416
0.000739517
0.000750614
0.000761693
0.00077274
0.000783726
0.000794608
0.000805303
0.000815671
0.000825488
0.000834639
0.000843724
0.000852647
0.00086142
0.000870027
0.00087846
0.000886705
0.000894751
0.000902584
0.000910194
0.000917569
0.000924698
0.000931569
0.000938174
0.000944502
0.000950543
0.00095629
0.000961735
0.000966871
0.000971693
0.000976196
0.000980378
0.000984236
0.000987772
0.000990988
0.000993891
0.000996479
0.000998717
0.00100048
0.00100207
0.00100322
0.00100416
0.00100491
0.00100507
0.00100506
0.00100474
0.00100423
0.00100347
0.00100244
0.00100127
0.000999895
0.00099837
0.000996697
0.000994884
0.000992908
0.000990765
0.000988706
0.000986668
0.000984595
0.000982355
0.00098057
0.000978352
0.00097649
0.00097441
0.000972539
0.00097077
0.000969217
0.000968187
0.000967318
0.000966471
0.000965801
0.000965479
0.000965288
0.000965383
0.000965526
0.000965739
0.000966077
0.000966421
0.000966687
0.000966939
0.000966831
0.000966784
0.000964151
0.000959062
0.000952993
0.000946211
0.000938741
0.000930637
0.000921828
0.000912263
0.000901965
0.000890961
0.000879115
0.000866329
0.000852949
0.00083708
0.000800197
4.73131e-06
6.48377e-05
0.000133107
0.000185233
0.000223411
0.000251758
0.00027393
0.00029248
0.000308978
0.000324273
0.000338748
0.000352516
0.000365557
0.000377799
0.000389159
0.000399557
0.000408914
0.000417146
0.000424146
0.000429779
0.000433869
0.000436816
0.000439244
0.000441194
0.000443231
0.000446455
0.000452434
0.00046068
0.000469454
0.000478326
0.000485807
0.000490472
0.000500402
0.000516543
0.000532924
0.000553131
0.00056904
0.000584706
0.000600364
0.000616192
0.000632209
0.000648393
0.000664731
0.000681207
0.000697817
0.000714557
0.000731427
0.00074843
0.000765568
0.000782846
0.000800268
0.00081784
0.000835564
0.000853445
0.000871486
0.00088969
0.00090806
0.000926597
0.000945303
0.000964177
0.000983221
0.00100243
0.00102181
0.00104135
0.00106106
0.00108092
0.00110094
0.0011211
0.0011414
0.00116184
0.00118241
0.0012031
0.0012239
0.0012448
0.00126579
0.00128687
0.00130801
0.00132921
0.00135046
0.00137174
0.00139304
0.00141434
0.00143562
0.00145688
0.00147808
0.00149921
0.00152023
0.0015411
0.00156178
0.0015822
0.00160228
0.00162192
0.00164104
0.00165973
0.00167817
0.00169631
0.00171414
0.00173163
0.00174876
0.00176551
0.00178185
0.00179776
0.00181321
0.00182817
0.00184264
0.00185658
0.00186998
0.00188281
0.00189506
0.0019067
0.00191773
0.00192812
0.00193787
0.00194697
0.0019554
0.00196317
0.00197027
0.00197669
0.00198243
0.00198748
0.00199179
0.00199536
0.00199836
0.00200071
0.00200242
0.00200385
0.00200415
0.00200394
0.00200313
0.00200182
0.00199998
0.00199764
0.00199489
0.00199171
0.00198816
0.00198427
0.00198006
0.00197555
0.0019708
0.00196599
0.00196111
0.00195618
0.00195117
0.00194642
0.00194141
0.00193669
0.00193199
0.00192752
0.0019233
0.00191943
0.00191602
0.00191292
0.00191003
0.00190749
0.00190532
0.00190343
0.00190185
0.00190039
0.00189903
0.00189779
0.00189653
0.00189511
0.00189347
0.00189129
0.00188855
0.00188352
0.00187563
0.00186597
0.00185497
0.00184274
0.00182933
0.00181467
0.00179871
0.00178142
0.00176282
0.00174281
0.00172121
0.00169819
0.00167039
0.00161365
7.13379e-06
8.2173e-05
0.000167661
0.000235053
0.000285787
0.000324079
0.000353803
0.000377881
0.000398345
0.000416502
0.000433126
0.000448632
0.000463221
0.000476981
0.000489954
0.000502171
0.000513672
0.000524507
0.00053474
0.000544453
0.000553765
0.000562901
0.000572156
0.000581846
0.000592446
0.000604493
0.000618817
0.000635516
0.000653546
0.000672144
0.000690712
0.0007096
0.000729915
0.000751495
0.000773611
0.000796309
0.000818574
0.000840905
0.000863448
0.000886144
0.000909001
0.000932021
0.000955203
0.000978549
0.00100206
0.00102574
0.00104958
0.00107361
0.00109781
0.0011222
0.00114679
0.00117158
0.00119657
0.00122178
0.00124719
0.00127283
0.00129868
0.00132475
0.00135104
0.00137755
0.00140428
0.00143121
0.00145836
0.00148571
0.00151326
0.001541
0.00156893
0.00159703
0.0016253
0.00165373
0.0016823
0.001711
0.00173983
0.00176876
0.00179778
0.00182688
0.00185604
0.00188524
0.00191447
0.0019437
0.00197292
0.0020021
0.00203122
0.00206026
0.00208917
0.00211794
0.00214652
0.00217486
0.00220293
0.00223066
0.00225798
0.00228484
0.00231124
0.00233722
0.00236283
0.00238803
0.00241281
0.00243713
0.00246095
0.00248426
0.002507
0.00252916
0.0025507
0.00257159
0.00259179
0.00261128
0.00263003
0.002648
0.00266518
0.00268154
0.00269705
0.0027117
0.00272546
0.00273832
0.00275026
0.00276128
0.00277136
0.00278049
0.00278867
0.00279587
0.00280209
0.00280732
0.00281166
0.00281511
0.00281782
0.00281981
0.00282052
0.0028204
0.00281943
0.00281768
0.00281516
0.00281194
0.00280806
0.00280357
0.00279852
0.00279295
0.00278693
0.00278048
0.0027737
0.0027667
0.00275953
0.00275225
0.00274491
0.00273767
0.00273037
0.00272327
0.00271631
0.00270962
0.00270324
0.00269727
0.00269175
0.00268663
0.00268189
0.00267758
0.0026737
0.00267018
0.002667
0.00266403
0.00266112
0.00265862
0.00265616
0.00265354
0.00265059
0.00264705
0.00264265
0.00263637
0.00262766
0.002617
0.00260469
0.00259083
0.00257544
0.00255848
0.00253985
0.00251954
0.00249755
0.00247376
0.00244804
0.00242015
0.00238662
0.00232444
9.44937e-06
9.66321e-05
0.000196338
0.000276344
0.000338057
0.000385265
0.000422053
0.000451609
0.000476281
0.000497713
0.000516997
0.000534827
0.000551633
0.000567687
0.000583177
0.000598257
0.000613074
0.000627773
0.000642497
0.000657381
0.00067255
0.000688143
0.000704329
0.000721345
0.000739544
0.000759378
0.000780839
0.000803537
0.000827338
0.000851806
0.000876563
0.000901584
0.000927038
0.000953449
0.000980466
0.00100795
0.00103545
0.0010631
0.00109086
0.00111877
0.00114685
0.0011751
0.00120354
0.00123217
0.001261
0.00129002
0.00131925
0.00134868
0.00137832
0.00140817
0.00143825
0.00146857
0.00149914
0.00152995
0.00156101
0.00159231
0.00162387
0.00165568
0.00168773
0.00172002
0.00175256
0.00178532
0.00181832
0.00185154
0.00188496
0.00191859
0.00195241
0.00198641
0.00202058
0.00205491
0.00208937
0.00212396
0.00215865
0.00219344
0.0022283
0.00226322
0.00229817
0.00233314
0.00236809
0.00240302
0.00243789
0.00247268
0.00250736
0.00254191
0.00257628
0.00261046
0.00264439
0.00267804
0.00271137
0.00274434
0.00277691
0.00280907
0.0028408
0.00287209
0.00290295
0.00293333
0.00296322
0.00299257
0.00302135
0.00304952
0.00307705
0.00310389
0.00313002
0.0031554
0.00317998
0.00320373
0.00322663
0.00324862
0.00326969
0.00328979
0.0033089
0.00332699
0.00334404
0.00336002
0.00337492
0.00338871
0.00340139
0.00341293
0.00342332
0.00343255
0.0034406
0.00344749
0.00345323
0.00345799
0.00346183
0.00346463
0.00346604
0.0034664
0.00346571
0.00346402
0.00346138
0.00345784
0.00345347
0.00344831
0.00344244
0.00343591
0.00342878
0.00342112
0.00341302
0.00340457
0.00339586
0.00338696
0.00337797
0.00336898
0.00336001
0.00335118
0.00334254
0.00333417
0.00332614
0.00331854
0.0033114
0.00330474
0.00329856
0.00329288
0.0032877
0.00328298
0.00327867
0.00327467
0.00327085
0.00326733
0.00326389
0.00326034
0.00325649
0.00325206
0.00324675
0.00323987
0.00323101
0.00322029
0.00320787
0.0031938
0.00317807
0.0031607
0.00314173
0.00312096
0.00309833
0.00307378
0.00304721
0.00301823
0.00298362
0.00292446
1.16121e-05
0.000108731
0.000220328
0.000311222
0.000382751
0.000438224
0.000481821
0.000516909
0.000546061
0.000571171
0.000593588
0.000614242
0.000633766
0.000652599
0.000671056
0.000689385
0.000707796
0.000726477
0.000745588
0.000765261
0.000785589
0.000806641
0.000828476
0.000851169
0.000874839
0.000899618
0.000925529
0.00095247
0.000980311
0.00100884
0.00103788
0.00106734
0.00109724
0.00112765
0.00115849
0.00118967
0.00122107
0.00125267
0.00128445
0.00131641
0.00134856
0.0013809
0.00141344
0.00144618
0.00147912
0.00151228
0.00154566
0.00157927
0.00161313
0.00164723
0.00168157
0.00171616
0.001751
0.00178608
0.00182141
0.00185699
0.00189282
0.00192889
0.00196521
0.00200176
0.00203854
0.00207554
0.00211277
0.0021502
0.00218783
0.00222564
0.00226363
0.00230179
0.00234009
0.00237853
0.00241708
0.00245574
0.00249449
0.00253331
0.00257217
0.00261107
0.00264998
0.00268888
0.00272774
0.00276655
0.00280528
0.00284391
0.0028824
0.00292074
0.00295888
0.00299681
0.00303448
0.00307187
0.00310894
0.00314566
0.00318201
0.00321796
0.0032535
0.00328859
0.00332322
0.00335735
0.00339096
0.003424
0.00345644
0.00348825
0.00351937
0.00354978
0.00357942
0.00360827
0.00363628
0.00366341
0.00368962
0.00371486
0.00373911
0.00376232
0.00378446
0.0038055
0.00382539
0.00384412
0.00386165
0.00387797
0.00389304
0.00390686
0.0039194
0.00393063
0.00394056
0.00394917
0.00395646
0.00396277
0.00396791
0.00397177
0.00397415
0.00397531
0.00397526
0.00397404
0.00397171
0.00396831
0.00396391
0.00395858
0.00395238
0.00394537
0.00393764
0.00392925
0.0039203
0.00391089
0.0039011
0.00389104
0.0038808
0.00387048
0.00386014
0.0038499
0.00383982
0.00383
0.0038205
0.00381142
0.00380281
0.0037947
0.00378713
0.00378013
0.00377369
0.00376779
0.0037624
0.00375746
0.00375289
0.00374866
0.00374462
0.00374059
0.00373638
0.00373172
0.00372631
0.00371969
0.0037115
0.00370171
0.00369033
0.00367735
0.00366274
0.00364652
0.00362848
0.00360864
0.00358697
0.00356344
0.00353799
0.00351017
0.00347715
0.00342444
1.35692e-05
0.000118719
0.00024022
0.000340629
0.000420945
0.000484193
0.000534415
0.000575095
0.000608955
0.00063807
0.000663978
0.000687797
0.000710328
0.000732141
0.000753653
0.00077518
0.000796967
0.000819211
0.000842067
0.000865648
0.000890023
0.000915225
0.00094126
0.000968126
0.000995833
0.0010244
0.00105381
0.00108404
0.001115
0.0011466
0.00117874
0.00121135
0.00124439
0.00127783
0.00131162
0.00134572
0.00138007
0.00141464
0.00144942
0.00148438
0.00151954
0.0015549
0.00159045
0.0016262
0.00166216
0.00169833
0.00173472
0.00177134
0.00180819
0.00184528
0.0018826
0.00192016
0.00195796
0.001996
0.00203428
0.0020728
0.00211156
0.00215054
0.00218976
0.0022292
0.00226886
0.00230873
0.0023488
0.00238907
0.00242952
0.00247014
0.00251091
0.00255184
0.0025929
0.00263407
0.00267536
0.00271673
0.00275817
0.00279966
0.0028412
0.00288275
0.0029243
0.00296583
0.00300732
0.00304874
0.00309008
0.0031313
0.00317239
0.00321332
0.00325407
0.0032946
0.00333489
0.00337491
0.00341464
0.00345404
0.00349309
0.00353177
0.00357005
0.00360791
0.00364531
0.00368223
0.00371863
0.00375448
0.00378974
0.00382437
0.00385832
0.00389156
0.00392405
0.00395574
0.00398658
0.00401654
0.00404557
0.00407362
0.00410064
0.00412661
0.00415147
0.00417518
0.0041977
0.004219
0.00423904
0.00425778
0.00427521
0.0042913
0.00430601
0.00431932
0.00433122
0.00434169
0.00435072
0.00435875
0.00436537
0.00437049
0.0043741
0.00437632
0.00437719
0.00437673
0.004375
0.00437206
0.00436796
0.00436277
0.00435655
0.00434939
0.00434134
0.00433251
0.00432298
0.00431285
0.00430222
0.00429119
0.00427987
0.00426837
0.00425677
0.00424519
0.00423371
0.00422242
0.00421143
0.00420082
0.00419065
0.00418101
0.00417192
0.00416345
0.0041556
0.00414838
0.00414179
0.00413578
0.0041303
0.00412529
0.00412064
0.0041162
0.00411176
0.00410711
0.00410196
0.00409595
0.0040888
0.00408038
0.00407062
0.00405945
0.0040468
0.00403263
0.00401681
0.0039993
0.00398008
0.00395916
0.00393648
0.00391163
0.00388221
0.00383749
1.52827e-05
0.000126773
0.000256409
0.00036529
0.000453316
0.000523783
0.000580385
0.000626627
0.000665311
0.000698622
0.000728234
0.000755399
0.000781044
0.000805848
0.000830305
0.000854783
0.000879554
0.00090482
0.00093073
0.000957381
0.00098483
0.00101309
0.00104216
0.00107202
0.00110262
0.00113396
0.00116601
0.00119873
0.00123208
0.00126599
0.00130039
0.00133524
0.00137048
0.00140609
0.00144201
0.00147821
0.00151465
0.0015513
0.00158815
0.0016252
0.00166242
0.00169983
0.00173743
0.00177522
0.0018132
0.00185138
0.00188977
0.00192837
0.00196718
0.00200621
0.00204546
0.00208493
0.00212462
0.00216453
0.00220467
0.00224503
0.0022856
0.00232639
0.00236739
0.0024086
0.00245001
0.00249162
0.00253341
0.00257537
0.00261751
0.00265981
0.00270225
0.00274483
0.00278753
0.00283034
0.00287325
0.00291624
0.0029593
0.00300242
0.00304557
0.00308874
0.00313191
0.00317506
0.00321819
0.00326126
0.00330425
0.00334715
0.00338994
0.00343258
0.00347507
0.00351737
0.00355946
0.00360132
0.00364292
0.00368424
0.00372526
0.00376594
0.00380627
0.00384621
0.00388574
0.00392483
0.00396343
0.00400152
0.00403906
0.00407601
0.00411232
0.00414796
0.00418288
0.00421704
0.00425038
0.00428286
0.00431444
0.00434505
0.00437466
0.0044032
0.00443064
0.00445692
0.004482
0.00450583
0.00452836
0.00454956
0.00456939
0.00458781
0.00460479
0.0046203
0.00463431
0.00464679
0.00465779
0.00466769
0.00467598
0.00468255
0.00468759
0.0046911
0.0046931
0.00469363
0.00469273
0.00469047
0.00468688
0.00468204
0.00467601
0.00466886
0.00466068
0.00465154
0.00464155
0.00463081
0.00461941
0.00460747
0.0045951
0.00458241
0.00456951
0.00455651
0.00454352
0.00453064
0.00451799
0.00450565
0.00449374
0.00448232
0.00447148
0.00446128
0.00445177
0.00444298
0.00443493
0.00442761
0.004421
0.00441506
0.00440969
0.00440477
0.00440013
0.00439558
0.00439086
0.00438569
0.00437982
0.00437307
0.00436532
0.00435647
0.00434641
0.00433505
0.00432228
0.00430804
0.00429232
0.00427509
0.00425635
0.0042357
0.00421116
0.00417492
1.67288e-05
0.000133058
0.000269226
0.000385351
0.000480232
0.000557325
0.000619971
0.000671624
0.000715105
0.000752658
0.000786034
0.000816581
0.000845314
0.000872994
0.000900179
0.000927281
0.000954603
0.000982361
0.0010107
0.00103972
0.00106946
0.00109994
0.00113115
0.00116307
0.00119565
0.00122885
0.00126269
0.00129714
0.00133214
0.00136765
0.00140358
0.00143988
0.00147654
0.00151351
0.00155077
0.00158829
0.00162602
0.00166394
0.00170203
0.00174028
0.0017787
0.00181729
0.00185603
0.00189495
0.00193404
0.0019733
0.00201275
0.00205238
0.0020922
0.00213222
0.00217243
0.00221285
0.00225346
0.00229427
0.00233529
0.00237651
0.00241792
0.00245954
0.00250136
0.00254337
0.00258556
0.00262794
0.0026705
0.00271323
0.00275612
0.00279917
0.00284237
0.00288571
0.00292917
0.00297275
0.00301643
0.00306021
0.00310408
0.00314801
0.00319199
0.00323602
0.00328007
0.00332413
0.00336819
0.00341222
0.00345622
0.00350015
0.00354401
0.00358777
0.00363142
0.00367493
0.00371828
0.00376145
0.00380441
0.00384716
0.00388966
0.00393188
0.00397381
0.00401541
0.00405666
0.00409752
0.00413796
0.00417796
0.00421746
0.00425643
0.00429483
0.00433261
0.00436974
0.00440616
0.00444182
0.00447667
0.00451066
0.00454373
0.00457583
0.0046069
0.00463689
0.00466574
0.00469339
0.00471978
0.00474487
0.00476861
0.00479093
0.00481181
0.0048312
0.00484905
0.00486533
0.00488
0.00489319
0.004905
0.00491512
0.00492346
0.00493015
0.00493515
0.00493848
0.00494018
0.00494031
0.0049389
0.004936
0.00493166
0.00492596
0.00491897
0.00491075
0.0049014
0.00489102
0.0048797
0.00486755
0.00485468
0.00484121
0.00482726
0.00481296
0.00479841
0.00478374
0.00476908
0.00475454
0.00474025
0.00472633
0.00471287
0.00469998
0.00468775
0.00467627
0.00466561
0.0046558
0.00464689
0.00463889
0.00463178
0.00462551
0.00461999
0.0046151
0.00461065
0.00460644
0.00460223
0.00459779
0.00459293
0.0045875
0.00458136
0.00457436
0.0045664
0.00455733
0.0045471
0.00453564
0.00452295
0.004509
0.00449343
0.00447459
0.00444689
1.78961e-05
0.000137725
0.000278942
0.000401103
0.000501985
0.000585057
0.000653308
0.000710096
0.000758207
0.000799898
0.000836959
0.000870793
0.000902476
0.000932829
0.000962457
0.000991808
0.00102121
0.00105096
0.00108118
0.00111195
0.00114333
0.00117534
0.00120797
0.0012412
0.00127498
0.00130925
0.00134414
0.00137956
0.00141547
0.00145185
0.00148851
0.00152549
0.00156278
0.00160034
0.00163819
0.00167629
0.00171456
0.00175295
0.00179147
0.00183011
0.00186888
0.00190778
0.0019468
0.00198597
0.00202527
0.00206473
0.00210433
0.0021441
0.00218403
0.00222413
0.00226441
0.00230486
0.00234549
0.00238631
0.00242732
0.00246852
0.00250991
0.00255149
0.00259327
0.00263524
0.00267739
0.00271974
0.00276227
0.00280499
0.00284788
0.00289094
0.00293417
0.00297757
0.00302111
0.0030648
0.00310863
0.00315258
0.00319665
0.00324083
0.0032851
0.00332945
0.00337388
0.00341836
0.00346288
0.00350743
0.003552
0.00359655
0.00364109
0.00368559
0.00373004
0.00377441
0.00381868
0.00386284
0.00390687
0.00395074
0.00399443
0.00403792
0.00408119
0.0041242
0.00416693
0.00420934
0.00425142
0.00429311
0.00433439
0.00437522
0.00441556
0.00445535
0.00449456
0.00453314
0.00457103
0.00460818
0.00464453
0.00468003
0.00471461
0.00474822
0.00478078
0.00481223
0.00484251
0.00487156
0.0048993
0.00492568
0.00495064
0.00497412
0.00499607
0.00501643
0.00503517
0.00505224
0.00506775
0.00508165
0.00509382
0.00510417
0.00511273
0.00511942
0.00512427
0.00512734
0.00512866
0.00512828
0.00512623
0.00512256
0.00511733
0.00511061
0.00510246
0.00509298
0.00508226
0.0050704
0.00505751
0.0050437
0.00502909
0.00501382
0.004998
0.00498177
0.00496528
0.00494865
0.00493202
0.00491555
0.00489935
0.00488358
0.00486836
0.00485381
0.00484006
0.00482721
0.00481536
0.00480457
0.0047949
0.00478638
0.00477901
0.00477273
0.00476746
0.00476307
0.00475938
0.00475618
0.00475327
0.00475046
0.00474757
0.00474444
0.0047409
0.00473678
0.00473195
0.00472629
0.00471972
0.00471221
0.0047037
0.00469385
0.00468128
0.00466205
1.8786e-05
0.000140935
0.000285838
0.000412858
0.000518861
0.000607196
0.000680516
0.000742037
0.000794473
0.000840056
0.000880584
0.00091748
0.000951865
0.000984629
0.00101638
0.00104756
0.00107843
0.00110948
0.00114085
0.00117264
0.00120491
0.00123769
0.001271
0.00130482
0.00133913
0.00137394
0.00140921
0.00144489
0.00148096
0.00151737
0.00155409
0.00159111
0.00162838
0.00166591
0.00170368
0.00174168
0.00177969
0.00181777
0.0018559
0.0018941
0.00193236
0.0019707
0.00200912
0.00204765
0.00208629
0.00212504
0.00216392
0.00220293
0.00224209
0.0022814
0.00232087
0.00236051
0.00240032
0.00244032
0.0024805
0.00252089
0.00256147
0.00260226
0.00264326
0.00268447
0.0027259
0.00276755
0.00280942
0.0028515
0.0028938
0.00293632
0.00297906
0.003022
0.00306514
0.00310849
0.00315203
0.00319575
0.00323965
0.00328371
0.00332794
0.00337231
0.00341681
0.00346143
0.00350617
0.00355099
0.0035959
0.00364087
0.00368589
0.00373094
0.003776
0.00382106
0.00386609
0.00391109
0.00395602
0.00400087
0.00404562
0.00409024
0.0041347
0.004179
0.00422309
0.00426694
0.00431054
0.00435383
0.0043968
0.0044394
0.00448159
0.00452332
0.00456455
0.00460523
0.00464532
0.00468474
0.00472344
0.00476137
0.00479845
0.00483461
0.00486979
0.00490391
0.00493691
0.00496869
0.0049992
0.00502835
0.00505608
0.00508231
0.00510699
0.00513004
0.00515142
0.00517109
0.00518906
0.00520528
0.00521975
0.00523233
0.00524302
0.0052516
0.00525816
0.00526279
0.00526551
0.00526635
0.00526534
0.0052625
0.00525791
0.0052516
0.00524366
0.00523416
0.0052232
0.00521087
0.00519729
0.00518256
0.00516681
0.00515019
0.00513281
0.00511484
0.00509641
0.00507768
0.00505881
0.00503997
0.00502131
0.00500301
0.00498522
0.0049681
0.00495181
0.00493651
0.00492233
0.00490939
0.0048978
0.00488764
0.00487895
0.00487173
0.00486595
0.00486152
0.0048583
0.00485611
0.00485478
0.00485412
0.00485394
0.00485405
0.00485426
0.00485436
0.00485417
0.00485354
0.00485236
0.00485053
0.00484797
0.00484433
0.00483843
0.00482757
1.94113e-05
0.000142876
0.000290205
0.000420933
0.000531146
0.000623952
0.000701702
0.000767429
0.000823746
0.000872836
0.000916481
0.000956044
0.000992534
0.00102708
0.00106035
0.0010929
0.00112517
0.00115739
0.00118968
0.00122217
0.00125493
0.00128802
0.00132147
0.00135528
0.00138944
0.00142393
0.00145873
0.00149383
0.00152919
0.0015648
0.00160065
0.00163668
0.00167286
0.00170924
0.00174583
0.00178266
0.00181958
0.00185652
0.00189345
0.00193033
0.00196719
0.00200406
0.00204098
0.00207795
0.002115
0.00215215
0.0021894
0.00222678
0.0022643
0.00230197
0.00233981
0.00237783
0.00241604
0.00245446
0.00249311
0.00253198
0.0025711
0.00261047
0.0026501
0.00269
0.00273018
0.00277064
0.00281138
0.00285242
0.00289375
0.00293536
0.00297728
0.00301948
0.00306196
0.00310473