/*--------------------------------*- C++ -*----------------------------------*\
  =========                 |
  \\      /  F ield         | OpenFOAM: The Open Source CFD Toolbox
   \\    /   O peration     | Website:  https://openfoam.org
    \\  /    A nd           | Version:  9
     \\/     M anipulation  |
\*---------------------------------------------------------------------------*/
FoamFile
{
    format      ascii;
    class       volVectorField;
    location    "190";
    object      U;
}
// * * * * * * * * * * * * * * * * * * * * * * * * * * * * * * * * * * * * * //

dimensions      [0 1 -1 0 0 0 0];

internalField   nonuniform List<vector> 
12225
(
(9.85698 -0.886442 0)
(9.66664 -0.740746 0)
(9.4557 -0.429481 0)
(9.22449 -0.222211 0)
(9.00643 -0.106453 0)
(8.81429 -0.0458614 0)
(8.64733 -0.0151687 0)
(8.50512 0.000460438 0)
(8.38336 0.00840301 0)
(8.28054 0.0122957 0)
(8.19198 0.0140219 0)
(8.11567 0.0150285 0)
(8.04866 0.0154202 0)
(7.98933 0.0156981 0)
(7.93557 0.0156968 0)
(7.88832 0.0160497 0)
(7.83264 0.0165931 0)
(7.82258 0.0120738 0)
(10.0545 0.227566 0)
(10.121 0.326913 0)
(10.1196 0.261573 0)
(10.0855 0.186545 0)
(10.0434 0.134675 0)
(9.99667 0.101124 0)
(9.94394 0.0793016 0)
(9.88515 0.0645838 0)
(9.82376 0.0542848 0)
(9.76118 0.0467085 0)
(9.69967 0.0409578 0)
(9.63975 0.036436 0)
(9.58236 0.0328148 0)
(9.52783 0.0300083 0)
(9.47576 0.027642 0)
(9.42813 0.0269958 0)
(9.37977 0.0246003 0)
(9.34668 0.0349037 0)
(10.0035 0.0579191 0)
(10.0303 0.0560092 0)
(10.0561 0.0337849 0)
(10.0703 0.0329038 0)
(10.077 0.0406571 0)
(10.0778 0.0465592 0)
(10.0725 0.0493791 0)
(10.0613 0.050332 0)
(10.046 0.0502419 0)
(10.0275 0.0495439 0)
(10.007 0.0485239 0)
(9.98467 0.0473935 0)
(9.96143 0.0462606 0)
(9.93766 0.0452827 0)
(9.91355 0.0443608 0)
(9.88998 0.0442493 0)
(9.86633 0.0436865 0)
(9.8445 0.0468609 0)
(9.99779 0.0110548 0)
(10.011 0.026612 0)
(10.035 0.0371576 0)
(10.0525 0.0480961 0)
(10.0643 0.0554679 0)
(10.0734 0.058206 0)
(10.0794 0.0583842 0)
(10.0823 0.0576533 0)
(10.0826 0.0566204 0)
(10.0811 0.0554461 0)
(10.0779 0.0542061 0)
(10.0735 0.0530225 0)
(10.068 0.0519003 0)
(10.0618 0.0509646 0)
(10.0549 0.0501306 0)
(10.0478 0.0498744 0)
(10.0406 0.0495035 0)
(10.0336 0.0505667 0)
(9.99935 0.00719983 0)
(10.009 0.0316599 0)
(10.0275 0.0439318 0)
(10.0418 0.0499372 0)
(10.0527 0.0536326 0)
(10.0628 0.0552648 0)
(10.0715 0.0555554 0)
(10.0782 0.0552795 0)
(10.0833 0.0547556 0)
(10.0871 0.0540785 0)
(10.0898 0.0533077 0)
(10.0917 0.0525437 0)
(10.0928 0.0518119 0)
(10.0933 0.0512049 0)
(10.0934 0.0506962 0)
(10.0932 0.050523 0)
(10.0931 0.0503686 0)
(10.0931 0.0506973 0)
(10.0003 0.00918074 0)
(10.0083 0.031177 0)
(10.0227 0.0409559 0)
(10.0349 0.0454111 0)
(10.045 0.0490635 0)
(10.0547 0.0514078 0)
(10.0637 0.0524013 0)
(10.0713 0.0526507 0)
(10.0777 0.0525391 0)
(10.0833 0.0522067 0)
(10.0881 0.051734 0)
(10.0922 0.0512145 0)
(10.0957 0.0506929 0)
(10.0989 0.0502373 0)
(10.1017 0.0498488 0)
(10.1043 0.0496318 0)
(10.107 0.0494368 0)
(10.1098 0.0493058 0)
(10.0005 0.00894781 0)
(10.0071 0.0270942 0)
(10.0191 0.036428 0)
(10.0301 0.0414124 0)
(10.0395 0.0454444 0)
(10.0486 0.0481203 0)
(10.0572 0.0494031 0)
(10.0648 0.0498907 0)
(10.0716 0.0499881 0)
(10.0776 0.0498438 0)
(10.0831 0.0495401 0)
(10.0881 0.0491596 0)
(10.0927 0.0487536 0)
(10.0969 0.0483705 0)
(10.1009 0.0480193 0)
(10.1047 0.0477351 0)
(10.1086 0.0474302 0)
(10.1125 0.047022 0)
(10.0004 0.00791965 0)
(10.006 0.0233899 0)
(10.0161 0.0327532 0)
(10.0262 0.0381271 0)
(10.0351 0.0421316 0)
(10.0435 0.0448264 0)
(10.0517 0.0462522 0)
(10.0591 0.0469051 0)
(10.0658 0.0471525 0)
(10.072 0.0471421 0)
(10.0777 0.0469563 0)
(10.083 0.0466699 0)
(10.0879 0.0463348 0)
(10.0926 0.0459868 0)
(10.0971 0.0456341 0)
(10.1015 0.0452779 0)
(10.1058 0.0448552 0)
(10.1102 0.0442685 0)
(10.0004 0.00696464 0)
(10.0051 0.0204396 0)
(10.0137 0.0294744 0)
(10.0228 0.034891 0)
(10.0311 0.0387525 0)
(10.0391 0.0414268 0)
(10.0468 0.0429747 0)
(10.0539 0.0437687 0)
(10.0605 0.0441346 0)
(10.0666 0.0442249 0)
(10.0723 0.0441239 0)
(10.0777 0.0439011 0)
(10.0828 0.043606 0)
(10.0877 0.0432671 0)
(10.0923 0.0428895 0)
(10.0969 0.0424617 0)
(10.1014 0.0419328 0)
(10.1059 0.0412281 0)
(10.0004 0.00613443 0)
(10.0043 0.0178761 0)
(10.0116 0.0262996 0)
(10.0198 0.0316153 0)
(10.0276 0.0353516 0)
(10.0351 0.0379914 0)
(10.0423 0.03962 0)
(10.0492 0.0405181 0)
(10.0556 0.0409718 0)
(10.0616 0.0411362 0)
(10.0673 0.0410957 0)
(10.0726 0.040915 0)
(10.0777 0.0406399 0)
(10.0826 0.0402948 0)
(10.0873 0.0398832 0)
(10.0919 0.0393909 0)
(10.0965 0.038778 0)
(10.1009 0.0379982 0)
(10.0003 0.00537504 0)
(10.0037 0.0155685 0)
(10.0099 0.0232643 0)
(10.0172 0.0283833 0)
(10.0245 0.0319784 0)
(10.0315 0.0345424 0)
(10.0383 0.0361969 0)
(10.0449 0.0371598 0)
(10.0511 0.0376745 0)
(10.0569 0.037891 0)
(10.0625 0.0378928 0)
(10.0678 0.037739 0)
(10.0728 0.037472 0)
(10.0777 0.0371139 0)
(10.0824 0.0366686 0)
(10.0869 0.0361243 0)
(10.0913 0.0354521 0)
(10.0957 0.0346298 0)
(10.0003 0.00471032 0)
(10.0032 0.0136287 0)
(10.0086 0.02062 0)
(10.0152 0.0254745 0)
(10.0219 0.0289043 0)
(10.0285 0.0313635 0)
(10.035 0.0329993 0)
(10.0413 0.0339889 0)
(10.0473 0.034537 0)
(10.053 0.0347837 0)
(10.0584 0.0348096 0)
(10.0636 0.03467 0)
(10.0686 0.0344037 0)
(10.0733 0.034032 0)
(10.0779 0.0335603 0)
(10.0824 0.032981 0)
(10.0867 0.0322747 0)
(10.091 0.0314374 0)
(10.0003 0.00409592 0)
(10.0028 0.0118606 0)
(10.0075 0.0181225 0)
(10.0134 0.0226361 0)
(10.0196 0.025866 0)
(10.0258 0.0281944 0)
(10.032 0.0297787 0)
(10.038 0.0307672 0)
(10.0438 0.0313297 0)
(10.0493 0.0315921 0)
(10.0546 0.0316316 0)
(10.0597 0.0314993 0)
(10.0646 0.0312312 0)
(10.0693 0.030848 0)
(10.0738 0.0303569 0)
(10.0781 0.0297557 0)
(10.0823 0.029032 0)
(10.0864 0.0281967 0)
(10.0002 0.00346125 0)
(10.0024 0.0100229 0)
(10.0064 0.0154436 0)
(10.0117 0.0194913 0)
(10.0174 0.0224375 0)
(10.0232 0.0245752 0)
(10.029 0.0260567 0)
(10.0347 0.027006 0)
(10.0402 0.027557 0)
(10.0456 0.0278177 0)
(10.0507 0.0278586 0)
(10.0556 0.0277265 0)
(10.0604 0.0274536 0)
(10.0649 0.0270605 0)
(10.0693 0.0265563 0)
(10.0736 0.0259444 0)
(10.0776 0.025219 0)
(10.0815 0.0244019 0)
(10.0002 0.00280222 0)
(10.002 0.00811402 0)
(10.0055 0.0125932 0)
(10.0101 0.0160451 0)
(10.0153 0.0186053 0)
(10.0206 0.0204765 0)
(10.026 0.0217906 0)
(10.0314 0.0226481 0)
(10.0367 0.0231501 0)
(10.0418 0.0233829 0)
(10.0467 0.0234074 0)
(10.0515 0.0232646 0)
(10.0561 0.0229834 0)
(10.0605 0.0225828 0)
(10.0648 0.0220748 0)
(10.0688 0.0214659 0)
(10.0727 0.0207576 0)
(10.0764 0.0199761 0)
(10.0002 0.00211808 0)
(10.0017 0.00613583 0)
(10.0047 0.00957949 0)
(10.0087 0.0123017 0)
(10.0134 0.0143564 0)
(10.0183 0.0158678 0)
(10.0233 0.0169348 0)
(10.0283 0.0176335 0)
(10.0333 0.0180356 0)
(10.0382 0.0182043 0)
(10.0429 0.0181878 0)
(10.0475 0.0180197 0)
(10.0519 0.0177245 0)
(10.0562 0.0173194 0)
(10.0602 0.016817 0)
(10.0642 0.0162266 0)
(10.0679 0.0155528 0)
(10.0714 0.014825 0)
(10.0002 0.00140577 0)
(10.0015 0.00407398 0)
(10.0041 0.00638562 0)
(10.0076 0.00824321 0)
(10.0118 0.00966096 0)
(10.0163 0.0107034 0)
(10.0209 0.0114311 0)
(10.0257 0.0118932 0)
(10.0304 0.0121341 0)
(10.035 0.0121946 0)
(10.0395 0.0121071 0)
(10.0439 0.0118962 0)
(10.0481 0.0115797 0)
(10.0522 0.0111721 0)
(10.0561 0.0106839 0)
(10.0598 0.0101255 0)
(10.0634 0.0095015 0)
(10.0668 0.00884094 0)
(10.0001 0.000648702 0)
(10.0013 0.0018762 0)
(10.0036 0.00293859 0)
(10.0069 0.00378847 0)
(10.0107 0.00442712 0)
(10.0149 0.00487709 0)
(10.0192 0.00516117 0)
(10.0237 0.00529918 0)
(10.0281 0.00531016 0)
(10.0326 0.00521206 0)
(10.0369 0.00501988 0)
(10.0411 0.00474577 0)
(10.0451 0.00439945 0)
(10.049 0.00398948 0)
(10.0528 0.00352307 0)
(10.0563 0.00300766 0)
(10.0597 0.00244728 0)
(10.063 0.0018661 0)
(10.0001 -0.000196369 0)
(10.0013 -0.000580288 0)
(10.0035 -0.00093569 0)
(10.0066 -0.0012558 0)
(10.0103 -0.00153936 0)
(10.0143 -0.00180007 0)
(10.0185 -0.00205624 0)
(10.0228 -0.00231968 0)
(10.0272 -0.00259841 0)
(10.0314 -0.0028978 0)
(10.0356 -0.00322302 0)
(10.0397 -0.00357629 0)
(10.0436 -0.00395914 0)
(10.0473 -0.00437075 0)
(10.0509 -0.00481038 0)
(10.0544 -0.00527507 0)
(10.0577 -0.00576427 0)
(10.0608 -0.00626018 0)
(10.0001 -0.00100511 0)
(10.0013 -0.00293844 0)
(10.0037 -0.0046613 0)
(10.007 -0.00609715 0)
(10.0108 -0.00724185 0)
(10.015 -0.00815544 0)
(10.0193 -0.00889907 0)
(10.0237 -0.0095153 0)
(10.0281 -0.0100379 0)
(10.0324 -0.0104994 0)
(10.0365 -0.0109239 0)
(10.0406 -0.0113291 0)
(10.0444 -0.0117254 0)
(10.0481 -0.0121215 0)
(10.0517 -0.0125213 0)
(10.055 -0.0129284 0)
(10.0582 -0.0133438 0)
(10.0613 -0.0137577 0)
(10.0002 -0.00170268 0)
(10.0015 -0.00499834 0)
(10.0041 -0.00791757 0)
(10.0078 -0.010263 0)
(10.012 -0.0120548 0)
(10.0165 -0.0134431 0)
(10.021 -0.014534 0)
(10.0256 -0.0153848 0)
(10.0301 -0.016052 0)
(10.0344 -0.0165948 0)
(10.0387 -0.0170572 0)
(10.0427 -0.0174687 0)
(10.0466 -0.0178478 0)
(10.0503 -0.0182092 0)
(10.0538 -0.0185612 0)
(10.0571 -0.0189104 0)
(10.0603 -0.01926 0)
(10.0633 -0.0196035 0)
(10.0002 -0.00236512 0)
(10.0017 -0.00703345 0)
(10.0047 -0.0111709 0)
(10.009 -0.0143361 0)
(10.0137 -0.0166284 0)
(10.0185 -0.0183582 0)
(10.0234 -0.0196857 0)
(10.0282 -0.0206814 0)
(10.0329 -0.0214272 0)
(10.0374 -0.0220039 0)
(10.0417 -0.0224687 0)
(10.0458 -0.0228575 0)
(10.0497 -0.0231979 0)
(10.0534 -0.0235084 0)
(10.0569 -0.0238032 0)
(10.0603 -0.0240887 0)
(10.0634 -0.0243719 0)
(10.0664 -0.0246462 0)
(10.0002 -0.00298507 0)
(10.0018 -0.00909385 0)
(10.0054 -0.0144457 0)
(10.0105 -0.018332 0)
(10.0159 -0.0210734 0)
(10.0212 -0.0230931 0)
(10.0263 -0.0245464 0)
(10.0314 -0.0255585 0)
(10.0363 -0.0262836 0)
(10.041 -0.0268318 0)
(10.0454 -0.0272596 0)
(10.0495 -0.0276026 0)
(10.0535 -0.0278905 0)
(10.0572 -0.0281456 0)
(10.0607 -0.028382 0)
(10.0641 -0.0286083 0)
(10.0672 -0.0288297 0)
(10.0702 -0.0290439 0)
(10.0001 -0.00353155 0)
(10.0018 -0.011549 0)
(10.0063 -0.0178831 0)
(10.0123 -0.021979 0)
(10.0183 -0.0250446 0)
(10.0241 -0.0274526 0)
(10.0297 -0.0290894 0)
(10.0351 -0.0300983 0)
(10.0402 -0.0307499 0)
(10.0449 -0.031209 0)
(10.0494 -0.0315431 0)
(10.0537 -0.0317934 0)
(10.0577 -0.0319931 0)
(10.0615 -0.0321668 0)
(10.065 -0.0323272 0)
(10.0683 -0.0324826 0)
(10.0714 -0.0326353 0)
(10.0744 -0.0327834 0)
(9.99991 -0.00338057 0)
(10.0016 -0.0149667 0)
(10.0073 -0.022723 0)
(10.0142 -0.0262336 0)
(10.0206 -0.0288198 0)
(10.0269 -0.0311844 0)
(10.0331 -0.0329049 0)
(10.039 -0.0339923 0)
(10.0445 -0.0346915 0)
(10.0495 -0.0351551 0)
(10.0541 -0.0354534 0)
(10.0584 -0.0356408 0)
(10.0624 -0.0357633 0)
(10.0661 -0.0358517 0)
(10.0695 -0.0359243 0)
(10.0727 -0.0359909 0)
(10.0756 -0.0360562 0)
(10.0783 -0.0361189 0)
(9.9986 -0.000397951 0)
(9.99909 -0.0157554 0)
(10.0075 -0.0274274 0)
(10.0166 -0.0324874 0)
(10.0238 -0.0348634 0)
(10.0306 -0.0362185 0)
(10.0376 -0.0369697 0)
(10.0441 -0.0374359 0)
(10.0499 -0.0377841 0)
(10.055 -0.038031 0)
(10.0596 -0.0381761 0)
(10.0637 -0.0382449 0)
(10.0672 -0.0382667 0)
(10.0704 -0.0382629 0)
(10.0732 -0.0382489 0)
(10.0756 -0.0382328 0)
(10.0778 -0.0382189 0)
(10.0796 -0.0382045 0)
(9.99488 0.00133568 0)
(9.99288 -0.00809188 0)
(10.006 -0.0203497 0)
(10.0202 -0.0322738 0)
(10.0307 -0.0404753 0)
(10.0392 -0.0441461 0)
(10.0467 -0.0450578 0)
(10.0529 -0.0449126 0)
(10.0578 -0.0444451 0)
(10.0617 -0.043849 0)
(10.0647 -0.0432044 0)
(10.0668 -0.0425684 0)
(10.0683 -0.0419747 0)
(10.0691 -0.0414314 0)
(10.0695 -0.0409486 0)
(10.0693 -0.0405226 0)
(10.0689 -0.0401507 0)
(10.0681 -0.0398077 0)
(9.99473 -0.0305613 0)
(9.99925 -0.0228713 0)
(10.0147 -0.002634 0)
(10.0304 -0.0019074 0)
(10.0434 -0.0116562 0)
(10.0533 -0.0209194 0)
(10.0594 -0.0272759 0)
(10.0619 -0.0315032 0)
(10.0615 -0.0342776 0)
(10.0591 -0.0359735 0)
(10.0551 -0.0369055 0)
(10.0498 -0.0373392 0)
(10.0435 -0.0374654 0)
(10.0365 -0.0374035 0)
(10.029 -0.037244 0)
(10.021 -0.0370421 0)
(10.0129 -0.0368631 0)
(10.0047 -0.0366756 0)
(10.0273 -0.182758 0)
(10.0763 -0.288313 0)
(10.0871 -0.247754 0)
(10.0777 -0.186519 0)
(10.0664 -0.140295 0)
(10.0538 -0.10822 0)
(10.0365 -0.0858798 0)
(10.0145 -0.0704193 0)
(9.9894 -0.05965 0)
(9.96237 -0.0518761 0)
(9.9344 -0.046054 0)
(9.90609 -0.0415565 0)
(9.87792 -0.0380009 0)
(9.85022 -0.0351264 0)
(9.82324 -0.0327608 0)
(9.79707 -0.0308408 0)
(9.77199 -0.0293258 0)
(9.74799 -0.0285081 0)
(9.93574 0.689319 0)
(9.86861 0.609605 0)
(9.76454 0.380623 0)
(9.62664 0.217442 0)
(9.4859 0.119268 0)
(9.35722 0.0631873 0)
(9.2427 0.0315761 0)
(9.14116 0.0136165 0)
(9.05149 0.00326366 0)
(8.97252 -0.00279769 0)
(8.90262 -0.00635336 0)
(8.84046 -0.00847264 0)
(8.78476 -0.00972355 0)
(8.73466 -0.0104703 0)
(8.68924 -0.0109737 0)
(8.6479 -0.0112433 0)
(8.6097 -0.0114513 0)
(8.57436 -0.012113 0)
(0.0072698 -0.0169292 -7.73787e-19)
(0.0213919 -0.0199031 5.87121e-19)
(0.0298962 -0.0120933 0)
(0.0326543 -0.00208094 0)
(0.0290332 0.0066621 0)
(0.0204131 0.0130259 -2.57686e-19)
(0.00810856 0.0171672 0)
(-0.00683746 0.0196475 0)
(-0.0236484 0.0210687 0)
(-0.0418177 0.0218948 0)
(-0.0610129 0.0224239 1.40155e-19)
(-0.0810332 0.022813 0)
(-0.101747 0.0231323 0)
(-0.123081 0.0233916 0)
(-0.144982 0.0235848 0)
(-0.167422 0.0237007 9.5097e-20)
(-0.190362 0.0237542 0)
(-0.21378 0.0237838 0)
(-0.23772 0.0238849 0)
(-0.262259 0.0242356 0)
(-0.287428 0.0247998 0)
(-0.313059 0.0259525 0)
(-0.338734 0.0283842 0)
(-0.364289 0.0318061 6.72716e-20)
(-0.389801 0.0384784 -6.54297e-20)
(-0.4157 0.0514432 6.55717e-20)
(-0.443491 0.0695337 7.41148e-20)
(-0.477795 0.0489401 0)
(-0.513835 0.0063584 0)
(-0.54168 0.0107176 -1.05836e-19)
(-0.576693 0.0177333 -1.00023e-19)
(-0.615211 0.0221788 0)
(-0.653078 0.0270031 0)
(-0.691861 0.0189889 -7.40506e-20)
(-0.730343 0.0635089 0)
(-0.766197 0.0760268 0)
(-0.811237 0.0326545 7.68853e-20)
(-0.845429 0.0332165 0)
(-0.882484 0.0343357 7.19205e-20)
(-0.920719 0.0349433 1.39224e-19)
(-0.959562 0.0351523 0)
(-0.99873 0.0351572 0)
(-1.03806 0.035041 0)
(-1.07745 0.0348466 0)
(-1.11684 0.0346114 0)
(-1.1562 0.0343446 1.17024e-19)
(-1.1955 0.0340647 1.14083e-19)
(-1.23472 0.0337699 1.11311e-19)
(-1.27385 0.0334711 0)
(-1.31287 0.0331624 -1.06223e-19)
(-1.35178 0.032852 0)
(-1.39056 0.0325319 1.01658e-19)
(-1.42921 0.0322085 9.95456e-20)
(-1.46769 0.0318744 0)
(-1.50601 0.0315345 0)
(-1.54413 0.0311802 0)
(-1.58205 0.0308166 9.20405e-20)
(-1.61973 0.0304358 0)
(-1.65715 0.0300425 0)
(-1.69429 0.0296281 0)
(-1.73112 0.0291978 0)
(-1.76761 0.0287442 0)
(-1.80371 0.0282719 0)
(-1.8394 0.0277728 0)
(-1.87464 0.0272526 0)
(-1.90939 0.0267037 -7.90808e-20)
(-1.94361 0.0261316 0)
(-1.97727 0.0255294 0)
(-2.01031 0.0249029 7.55661e-20)
(-2.04269 0.0242453 7.44565e-20)
(-2.07436 0.0235626 0)
(-2.10529 0.0228479 -7.23147e-20)
(-2.13541 0.0221075 7.12776e-20)
(-2.16469 0.0213347 0)
(-2.19307 0.0205357 -6.92593e-20)
(-2.22052 0.0197042 0)
(-2.24696 0.0188463 0)
(-2.27237 0.0179568 6.63382e-20)
(-2.29667 0.0170407 0)
(-2.31983 0.0160917 -6.44372e-20)
(-2.34179 0.0151146 0)
(-2.3625 0.0141036 6.25545e-20)
(-2.38191 0.0130616 6.16152e-20)
(-2.39997 0.011981 6.06749e-20)
(-2.41662 0.0108636 1.19463e-19)
(-2.43181 0.0097015 -1.17568e-19)
(-2.44549 0.00849449 0)
(-2.45757 0.00723305 0)
(-2.46798 0.00591721 0)
(-2.47664 0.00454323 -1.09848e-19)
(-2.48348 0.00312683 -1.07877e-19)
(-2.48842 0.00171117 1.05888e-19)
(-2.49132 0.000387326 0)
(-2.49227 -0.000779577 -1.01756e-19)
(-2.49166 -0.00184104 -9.96076e-20)
(-2.48943 -0.00287316 -9.74082e-20)
(-2.48563 -0.0038892 0)
(-2.48024 -0.00489787 0)
(-2.47329 -0.00589607 0)
(-2.46478 -0.00688101 -8.80252e-20)
(-2.45471 -0.00784819 0)
(-2.44309 -0.0087971 0)
(-2.42995 -0.00972601 8.03001e-20)
(-2.4153 -0.0106324 0)
(-2.39918 -0.0115152 0)
(-2.3816 -0.0123704 7.19255e-20)
(-2.36261 -0.0131979 0)
(-2.34226 -0.0139931 0)
(-2.32057 -0.0147563 -6.28672e-20)
(-2.29761 -0.0154827 -5.96926e-20)
(-2.27341 -0.0161732 0)
(-2.24803 -0.0168229 5.31094e-20)
(-2.22153 -0.0174334 0)
(-2.19397 -0.0180001 -4.62158e-20)
(-2.16539 -0.0185248 0)
(-2.13588 -0.019003 -3.90169e-20)
(-2.10548 -0.0194355 -3.53058e-20)
(-2.07426 -0.0198189 0)
(-2.04228 -0.0201571 0)
(-2.00961 -0.0204554 0)
(-1.97632 -0.0207162 0)
(-1.94246 -0.0208977 0)
(-1.90814 -0.0210124 0)
(-1.8734 -0.0210923 0)
(-1.8383 -0.0211363 -3.14486e-21)
(-1.8029 -0.0211617 -1.15459e-21)
(-1.76725 -0.0211378 0)
(-1.73139 -0.021049 0)
(-1.6954 -0.0208815 0)
(-1.65934 -0.0206759 0)
(-1.62322 -0.0204538 -4.6871e-20)
(-1.5871 -0.0201842 0)
(-1.551 -0.0198711 6.53556e-20)
(-1.51494 -0.0195462 -7.47279e-20)
(-1.47892 -0.0191855 0)
(-1.44296 -0.0188151 0)
(-1.40703 -0.0184212 0)
(-1.37109 -0.0180236 1.13074e-19)
(-1.33509 -0.0175892 1.22888e-19)
(-1.29901 -0.0171489 0)
(-1.26284 -0.0167281 1.42838e-19)
(-1.22656 -0.0163415 1.53008e-19)
(-1.19011 -0.0159979 -1.63307e-19)
(-1.15341 -0.0157113 0)
(-1.1163 -0.0155063 0)
(-1.07871 -0.0153377 -1.95471e-19)
(-1.04049 -0.0152224 0)
(-1.00151 -0.0152027 0)
(-0.961628 -0.0152752 0)
(-0.920681 -0.0154611 0)
(-0.878517 -0.0157553 2.56761e-19)
(-0.834961 -0.016192 2.70969e-19)
(-0.789831 -0.0167857 0)
(-0.74295 -0.0175313 3.0244e-19)
(-0.694158 -0.0184238 0)
(-0.643265 -0.019492 0)
(-0.590115 -0.0207538 3.6083e-19)
(-0.534538 -0.0222174 0)
(-0.47636 -0.0238988 4.10731e-19)
(-0.415438 -0.0257987 0)
(-0.351599 -0.0279353 0)
(-0.284715 -0.0303717 5.11269e-19)
(-0.214736 -0.0331339 0)
(-0.141678 -0.0360957 6.03995e-19)
(-0.0654939 -0.0390062 0)
(0.0137088 -0.0408238 0)
(0.0968569 -0.0416095 0)
(0.183887 -0.0423429 -6.19095e-19)
(0.274504 -0.0430086 0)
(0.368379 -0.0435618 5.82597e-19)
(0.465083 -0.0439614 0)
(0.564099 -0.0441607 0)
(0.664804 -0.0441182 0)
(0.766449 -0.0437827 0)
(0.868148 -0.0430778 0)
(0.96845 -0.041867 0)
(1.06639 -0.039762 0)
(1.15467 -0.0360416 -1.00609e-18)
(1.24107 -0.0280487 0)
(1.25046 -0.00370555 0)
(0.00416836 -0.0422317 1.73664e-18)
(0.00775566 -0.0309677 -9.27787e-19)
(0.00468797 -0.0117939 0)
(-0.00140056 0.0058761 2.78054e-19)
(-0.0102034 0.0209281 0)
(-0.0216625 0.0329173 1.02696e-19)
(-0.0355957 0.0419632 -1.86046e-19)
(-0.0517893 0.0485376 -1.70819e-19)
(-0.0699527 0.0532415 0)
(-0.0897942 0.0566326 -1.4729e-19)
(-0.11106 0.0591525 -6.90627e-20)
(-0.133551 0.0611104 0)
(-0.157123 0.0627117 0)
(-0.181689 0.0640806 0)
(-0.2072 0.0652992 0)
(-0.233648 0.0664199 -5.40877e-20)
(-0.261033 0.067493 0)
(-0.289393 0.0685591 1.01198e-19)
(-0.318779 0.0696647 0)
(-0.349216 0.0708548 0)
(-0.380762 0.072145 -9.43297e-20)
(-0.413527 0.073436 0)
(-0.447735 0.0745266 9.24224e-20)
(-0.483868 0.0751642 -4.66597e-20)
(-0.522038 0.075634 4.75373e-20)
(-0.561478 0.0768392 -4.93069e-20)
(-0.600026 0.07923 -5.21086e-20)
(-0.640378 0.0817431 0)
(-0.681573 0.08425 0)
(-0.723349 0.0882335 5.27644e-20)
(-0.762283 0.0912127 -5.02445e-20)
(-0.799748 0.0926489 0)
(-0.836956 0.0927675 0)
(-0.877424 0.0918698 4.09261e-20)
(-0.913826 0.090637 0)
(-0.951671 0.0909882 0)
(-0.989946 0.0901406 -3.83549e-20)
(-1.03084 0.0907303 0)
(-1.0698 0.0910493 3.63161e-20)
(-1.10761 0.0909497 -7.13449e-20)
(-1.14476 0.0905236 0)
(-1.1815 0.0898821 0)
(-1.21793 0.0891068 -1.3335e-19)
(-1.25409 0.088242 -1.30654e-19)
(-1.29002 0.0873252 -1.2809e-19)
(-1.32571 0.0863704 6.26636e-20)
(-1.36118 0.0853955 -6.18187e-20)
(-1.39642 0.0844014 -1.818e-19)
(-1.43143 0.0833972 1.18966e-19)
(-1.46621 0.0823778 5.86216e-20)
(-1.50074 0.0813483 0)
(-1.53502 0.0803012 -5.67023e-20)
(-1.56903 0.0792398 5.54856e-20)
(-1.60276 0.078156 0)
(-1.6362 0.0770518 0)
(-1.66931 0.0759179 0)
(-1.70209 0.0747569 -5.24795e-20)
(-1.73452 0.07356 0)
(-1.76656 0.0723296 1.01652e-19)
(-1.79819 0.0710568 0)
(-1.82939 0.0697447 9.88128e-20)
(-1.86012 0.0683855 0)
(-1.89037 0.0669824 -9.61141e-20)
(-1.92008 0.0655273 0)
(-1.94924 0.0640243 9.35338e-20)
(-1.97781 0.0624662 -4.60114e-20)
(-2.00576 0.0608578 0)
(-2.03304 0.0591925 -8.98403e-20)
(-2.05963 0.0574761 -4.44421e-20)
(-2.08549 0.0557021 -4.38491e-20)
(-2.11058 0.0538768 0)
(-2.13486 0.0519944 -4.24676e-20)
(-2.15829 0.0500612 -4.21029e-20)
(-2.18084 0.0480718 0)
(-2.20247 0.0460332 4.09563e-20)
(-2.22313 0.0439407 -8.05965e-20)
(-2.2428 0.0418018 0)
(-2.26143 0.0396133 -3.92426e-20)
(-2.27898 0.0373818 0)
(-2.29542 0.0351031 1.14151e-19)
(-2.3107 0.0327843 0)
(-2.32479 0.0304221 -1.10686e-19)
(-2.33766 0.0280227 -3.63395e-20)
(-2.34927 0.0255818 3.56707e-20)
(-2.35959 0.0231049 7.01661e-20)
(-2.36859 0.0205874 -6.89763e-20)
(-2.37626 0.0180328 0)
(-2.38256 0.0154355 0)
(-2.3875 0.0127966 0)
(-2.39109 0.0101155 1.92042e-19)
(-2.39339 0.00740179 6.26871e-20)
(-2.39449 0.00469349 -6.13562e-20)
(-2.39447 0.00207065 0)
(-2.39332 -0.00040322 -5.87207e-20)
(-2.39072 -0.00276212 5.71188e-20)
(-2.38663 -0.00506508 5.56505e-20)
(-2.38102 -0.00732141 0)
(-2.37389 -0.00953818 0)
(-2.36524 -0.0117121 0)
(-2.35507 -0.0138408 4.94866e-20)
(-2.34339 -0.0159174 0)
(-2.33022 -0.0179375 -9.29038e-20)
(-2.31556 -0.0198953 -1.34136e-19)
(-2.29945 -0.0217862 8.62108e-20)
(-2.28192 -0.023607 0)
(-2.26298 -0.0253529 3.99369e-20)
(-2.24269 -0.0270217 0)
(-2.22107 -0.0286084 7.21143e-20)
(-2.19818 -0.0301119 -3.45704e-20)
(-2.17405 -0.031527 -3.27262e-20)
(-2.14874 -0.0328537 0)
(-2.1223 -0.0340872 -8.53347e-20)
(-2.09479 -0.0352288 5.32867e-20)
(-2.06625 -0.0362748 2.42815e-20)
(-2.03675 -0.0372279 0)
(-2.00635 -0.0380851 2.03023e-20)
(-1.9751 -0.0388486 5.57434e-20)
(-1.94307 -0.0395151 0)
(-1.91031 -0.0400881 2.93547e-20)
(-1.87689 -0.0405687 2.52726e-20)
(-1.84288 -0.0409627 2.11743e-20)
(-1.80834 -0.0412696 0)
(-1.77332 -0.0414936 0)
(-1.73788 -0.0416393 0)
(-1.70208 -0.0417092 -2.81611e-21)
(-1.66597 -0.0417054 1.61945e-22)
(-1.62961 -0.0416389 0)
(-1.59304 -0.0415102 7.60634e-21)
(-1.5563 -0.041315 1.1683e-20)
(-1.51944 -0.0410669 0)
(-1.48249 -0.0407712 2.06231e-20)
(-1.44548 -0.0404404 4.7541e-20)
(-1.40843 -0.0400752 -2.85516e-20)
(-1.37135 -0.0396961 -3.0883e-20)
(-1.33424 -0.0393005 0)
(-1.29709 -0.0389096 0)
(-1.25989 -0.0385198 0)
(-1.2226 -0.038147 -4.76242e-20)
(-1.18517 -0.0377911 4.99963e-20)
(-1.14755 -0.037474 1.08553e-19)
(-1.10971 -0.037219 -5.84347e-20)
(-1.07162 -0.0370393 6.08212e-20)
(-1.0332 -0.0369637 6.53424e-20)
(-0.994335 -0.0369815 0)
(-0.954925 -0.0371205 0)
(-0.914847 -0.0373819 -7.4421e-20)
(-0.873943 -0.0377646 0)
(-0.83207 -0.0382759 0)
(-0.789066 -0.0389309 1.69105e-19)
(-0.744762 -0.0397272 0)
(-0.698971 -0.0406769 9.06703e-20)
(-0.651495 -0.0417785 -9.45694e-20)
(-0.602142 -0.0430509 0)
(-0.550717 -0.0444832 1.00665e-19)
(-0.497006 -0.046074 0)
(-0.440799 -0.0478186 0)
(-0.3819 -0.0497285 -1.12694e-19)
(-0.320111 -0.0517814 2.33082e-19)
(-0.255239 -0.053998 -1.21619e-19)
(-0.187129 -0.0563768 0)
(-0.115618 -0.0588988 0)
(-0.0407046 -0.0614599 1.35553e-19)
(0.0377208 -0.0639568 0)
(0.11992 -0.0664379 1.40322e-19)
(0.20601 -0.0690374 0)
(0.295684 -0.071544 0)
(0.388469 -0.0737523 0)
(0.484022 -0.0757083 1.53021e-19)
(0.582095 -0.0773657 0)
(0.682337 -0.0786696 -1.59561e-19)
(0.784329 -0.0795612 0)
(0.887585 -0.0799844 0)
(0.991537 -0.079869 3.37024e-19)
(1.0955 -0.0791304 -3.44023e-19)
(1.19868 -0.0776159 0)
(1.29984 -0.0750655 0)
(1.39785 -0.0707453 0)
(1.48819 -0.0634764 1.12408e-18)
(1.5743 -0.048178 0)
(1.62443 -0.0119803 -8.04803e-19)
(-0.00314216 -0.0430531 -1.07505e-21)
(-0.00851047 -0.0179837 8.83792e-19)
(-0.0178073 0.00668718 0)
(-0.029246 0.0279704 -3.5244e-19)
(-0.0422081 0.0462207 0)
(-0.056468 0.0615703 0)
(-0.0721341 0.0741463 4.34179e-23)
(-0.0893314 0.0842124 1.0958e-19)
(-0.108092 0.0921622 1.03254e-19)
(-0.128368 0.0984436 9.80546e-20)
(-0.150069 0.103487 0)
(-0.173092 0.107657 0)
(-0.197344 0.111243 -8.60599e-20)
(-0.222758 0.114457 -1.66001e-19)
(-0.249292 0.117457 1.60618e-19)
(-0.276924 0.120354 0)
(-0.305646 0.123229 1.51715e-19)
(-0.335457 0.126137 -7.41191e-20)
(-0.366365 0.129112 0)
(-0.398364 0.132167 1.41924e-19)
(-0.431403 0.135286 6.98407e-20)
(-0.465365 0.138433 -1.37049e-19)
(-0.500147 0.141573 -6.77659e-20)
(-0.535705 0.144726 0)
(-0.571864 0.148101 1.33243e-19)
(-0.608134 0.151857 1.33469e-19)
(-0.644034 0.155353 0)
(-0.680039 0.157015 1.33812e-19)
(-0.716461 0.157266 0)
(-0.75279 0.15804 1.26338e-19)
(-0.788217 0.15848 6.06035e-20)
(-0.822826 0.157989 0)
(-0.857027 0.156801 0)
(-0.891274 0.155177 0)
(-0.924864 0.154546 0)
(-0.957951 0.153428 0)
(-0.991274 0.150342 0)
(-1.02514 0.148138 9.85184e-20)
(-1.05876 0.14639 -1.44733e-19)
(-1.09196 0.14479 0)
(-1.12481 0.143206 0)
(-1.15737 0.141597 0)
(-1.18969 0.139958 1.58517e-22)
(-1.22181 0.138292 8.7634e-20)
(-1.25375 0.136607 1.71988e-19)
(-1.28553 0.134909 -1.68998e-19)
(-1.31714 0.1332 -8.29812e-20)
(-1.34859 0.131481 8.17703e-20)
(-1.37988 0.129751 -1.69828e-22)
(-1.411 0.128006 7.89952e-20)
(-1.44194 0.126245 0)
(-1.47268 0.12446 7.65672e-20)
(-1.50323 0.12265 -1.72876e-22)
(-1.53355 0.120807 0)
(-1.56364 0.118927 0)
(-1.59348 0.117005 -7.21512e-20)
(-1.62305 0.115035 0)
(-1.65232 0.113012 0)
(-1.68127 0.110934 6.89779e-20)
(-1.70988 0.108793 1.36384e-19)
(-1.73813 0.106589 -6.74222e-20)
(-1.76598 0.104315 0)
(-1.7934 0.101971 6.56038e-20)
(-1.82038 0.0995525 0)
(-1.84686 0.0970583 6.35406e-20)
(-1.87283 0.0944853 6.29869e-20)
(-1.89825 0.091834 -1.23985e-19)
(-1.92309 0.089102 -6.10161e-20)
(-1.94731 0.0862906 0)
(-1.97088 0.0833981 1.19022e-19)
(-1.99375 0.0804267 0)
(-2.0159 0.0773751 1.73784e-19)
(-2.03728 0.0742463 1.14162e-19)
(-2.05786 0.0710397 1.12554e-19)
(-2.07761 0.0677589 -1.10948e-19)
(-2.09648 0.0644044 1.64109e-19)
(-2.11443 0.0609809 0)
(-2.13143 0.0574897 0)
(-2.14744 0.0539352 -1.04494e-19)
(-2.16241 0.0503188 -1.54363e-19)
(-2.17633 0.0466459 0)
(-2.18915 0.0429185 4.98341e-20)
(-2.20083 0.0391421 0)
(-2.21135 0.0353194 -1.44339e-19)
(-2.22068 0.0314573 -5.22901e-23)
(-2.22879 0.0275601 3.38465e-23)
(-2.23566 0.0236369 9.10152e-20)
(-2.24127 0.0196959 0)
(-2.24562 0.0157513 -8.74437e-20)
(-2.2487 0.0118211 4.3947e-23)
(-2.25051 0.00792861 0)
(-2.25105 0.00409882 0)
(-2.25028 0.000336372 0)
(-2.24814 -0.00337985 7.77962e-20)
(-2.24458 -0.00705875 0)
(-2.23958 -0.0106882 0)
(-2.23312 -0.0142616 0)
(-2.2252 -0.017772 0)
(-2.21581 -0.0212119 0)
(-2.20495 -0.0245731 6.53292e-20)
(-2.19265 -0.0278469 0)
(-2.1789 -0.0310248 6.05627e-20)
(-2.16374 -0.0340986 5.82627e-20)
(-2.14717 -0.0370615 -5.59318e-20)
(-2.12922 -0.0399065 0)
(-2.10994 -0.0426282 -5.11817e-20)
(-2.08935 -0.0452203 0)
(-2.06749 -0.0476784 -4.63225e-20)
(-2.0444 -0.0499971 4.38557e-20)
(-2.02013 -0.052173 1.25019e-19)
(-1.99473 -0.0542023 0)
(-1.96824 -0.0560827 1.09965e-19)
(-1.94072 -0.0578122 3.47893e-20)
(-1.91223 -0.0593901 0)
(-1.88281 -0.0608163 5.83641e-20)
(-1.85252 -0.0620914 5.32257e-20)
(-1.82142 -0.0632158 -7.15645e-20)
(-1.78957 -0.06419 0)
(-1.75702 -0.065017 -1.8313e-20)
(-1.72384 -0.065701 -1.57238e-20)
(-1.69007 -0.0662478 -4.05445e-20)
(-1.65578 -0.0666593 0)
(-1.62103 -0.0669422 0)
(-1.58586 -0.0671045 0)
(-1.55033 -0.0671552 -4.01921e-21)
(-1.51448 -0.0670961 0)
(-1.47836 -0.0669402 0)
(-1.44201 -0.0666898 -4.63109e-21)
(-1.40548 -0.066346 -7.09436e-21)
(-1.36879 -0.0659234 0)
(-1.33196 -0.0654385 0)
(-1.29504 -0.0649016 -2.86397e-20)
(-1.25801 -0.0643259 0)
(-1.2209 -0.0637285 3.79576e-20)
(-1.1837 -0.0631216 4.15799e-20)
(-1.14639 -0.0625218 0)
(-1.10896 -0.0619401 0)
(-1.07136 -0.0613869 -5.4858e-20)
(-1.03354 -0.0608785 -7.91237e-22)
(-0.995448 -0.0604373 -7.56581e-22)
(-0.957046 -0.0600984 0)
(-0.918277 -0.0598849 -1.43335e-19)
(-0.879067 -0.0598229 0)
(-0.839298 -0.0599183 0)
(-0.798871 -0.0601915 0)
(-0.75764 -0.0606529 8.68108e-20)
(-0.715464 -0.0613077 0)
(-0.672189 -0.0621651 -1.86536e-19)
(-0.627652 -0.0632417 -9.71212e-20)
(-0.581676 -0.0645399 0)
(-0.53407 -0.066071 -1.03791e-19)
(-0.484639 -0.0678342 0)
(-0.433187 -0.0698436 0)
(-0.379511 -0.0720895 -3.40866e-19)
(-0.323397 -0.0745661 2.34016e-19)
(-0.26464 -0.0772653 0)
(-0.203044 -0.0801911 2.48919e-19)
(-0.138422 -0.0833188 -1.29003e-19)
(-0.0705975 -0.0866388 0)
(0.000487192 -0.090072 0)
(0.0750281 -0.0935806 0)
(0.153139 -0.0972006 -4.2594e-19)
(0.234872 -0.100914 0)
(0.3202 -0.104631 -1.48846e-19)
(0.408981 -0.108275 0)
(0.500982 -0.111793 0)
(0.595827 -0.115039 0)
(0.693183 -0.117909 0)
(0.792711 -0.120318 0)
(0.894017 -0.12219 0)
(0.996659 -0.12344 -3.55601e-19)
(1.10014 -0.123989 0)
(1.2039 -0.123729 -1.89794e-19)
(1.30727 -0.122531 5.81496e-19)
(1.40951 -0.120168 0)
(1.50951 -0.116245 0)
(1.60633 -0.109859 -4.18839e-19)
(1.69692 -0.0994317 -4.33741e-19)
(1.78436 -0.0802222 4.44215e-19)
(1.8516 -0.0419147 4.67302e-19)
(-0.0093321 -0.0254657 -2.62551e-18)
(-0.0203927 0.00738698 -1.05518e-18)
(-0.0336491 0.0346444 -3.81592e-19)
(-0.048896 0.0575945 -1.37166e-19)
(-0.0650501 0.0774334 0)
(-0.0818073 0.0945854 1.98824e-19)
(-0.0993349 0.109247 -9.08264e-20)
(-0.117837 0.121615 0)
(-0.13745 0.131955 -8.03338e-20)
(-0.158245 0.140595 0)
(-0.180241 0.147883 1.47064e-19)
(-0.203418 0.154148 0)
(-0.227736 0.159673 6.84961e-20)
(-0.253149 0.164688 1.32769e-19)
(-0.279608 0.169369 -1.28983e-19)
(-0.307067 0.173842 0)
(-0.335476 0.178191 -1.22448e-19)
(-0.364777 0.182462 0)
(-0.394895 0.186666 0)
(-0.425732 0.190781 -1.14237e-19)
(-0.457144 0.194755 0)
(-0.488954 0.198515 1.8833e-22)
(-0.520985 0.201987 0)
(-0.553087 0.205114 0)
(-0.585115 0.207889 -2.3546e-23)
(-0.61691 0.210262 -1.00511e-19)
(-0.648388 0.211969 -9.89064e-20)
(-0.679705 0.212692 -9.70663e-20)
(-0.711031 0.212585 0)
(-0.742281 0.21214 -1.8515e-19)
(-0.773265 0.211338 0)
(-0.803945 0.210123 -8.76255e-20)
(-0.834361 0.208576 0)
(-0.864537 0.206833 0)
(-0.894391 0.205053 8.12635e-20)
(-0.923947 0.202954 0)
(-0.953443 0.200268 -7.78949e-20)
(-0.98304 0.197598 -2.0159e-24)
(-1.01263 0.195069 1.49527e-19)
(-1.04212 0.192653 -1.46593e-19)
(-1.07148 0.190307 0)
(-1.10071 0.188 0)
(-1.12982 0.185714 -6.9264e-20)
(-1.15881 0.183439 0)
(-1.18769 0.18117 -6.70032e-20)
(-1.21647 0.178901 6.58881e-20)
(-1.24515 0.17663 6.48149e-20)
(-1.27371 0.17435 0)
(-1.30217 0.172057 -6.27827e-20)
(-1.33051 0.169745 -6.18183e-20)
(-1.35871 0.167406 1.21623e-19)
(-1.38678 0.165035 -5.99802e-20)
(-1.41469 0.162624 -5.91022e-20)
(-1.44242 0.160167 0)
(-1.46997 0.157656 0)
(-1.49732 0.155084 5.66102e-20)
(-1.52443 0.152446 0)