/*--------------------------------*- C++ -*----------------------------------*\
  =========                 |
  \\      /  F ield         | OpenFOAM: The Open Source CFD Toolbox
   \\    /   O peration     | Website:  https://openfoam.org
    \\  /    A nd           | Version:  9
     \\/     M anipulation  |
\*---------------------------------------------------------------------------*/
FoamFile
{
    format      ascii;
    class       volScalarField;
    location    "4.25";
    object      p;
}
// * * * * * * * * * * * * * * * * * * * * * * * * * * * * * * * * * * * * * //

dimensions      [1 -1 -2 0 0 0 0];

internalField   nonuniform List<scalar> 
2268
(
749.874
749.909
749.746
749.351
748.731
747.894
746.853
745.624
744.227
742.685
741.02
739.255
737.417
735.526
733.588
731.594
729.562
727.538
725.997
725.182
724.857
724.798
724.646
690.984
690.993
690.829
690.431
689.817
688.991
687.962
686.747
685.365
683.834
682.179
680.418
678.575
676.669
674.713
672.717
670.764
669.046
667.819
666.674
666.111
665.99
665.901
632.119
632.112
631.944
631.542
630.93
630.111
629.093
627.89
626.519
624.999
623.351
621.595
619.752
617.847
615.905
613.972
612.28
611.045
609.948
608.393
607.371
607.078
607.002
573.284
573.283
573.117
572.712
572.1
571.284
570.269
569.071
567.706
566.19
564.546
562.791
560.951
559.058
557.157
555.327
553.863
553.133
551.914
550.356
548.851
548.129
547.997
514.483
514.5
514.344
513.941
513.329
512.511
511.496
510.297
508.929
507.412
505.764
504.005
502.164
500.282
498.414
496.652
495.28
494.742
493.695
492.085
490.118
489.126
488.934
455.719
455.761
455.621
455.225
454.612
453.792
452.772
451.566
450.191
448.666
447.008
445.236
443.386
441.505
439.654
437.927
436.536
435.863
434.933
433.242
431.144
430.084
429.786
396.995
397.065
396.944
396.558
395.946
395.12
394.093
392.875
391.487
389.949
388.277
386.483
384.614
382.722
380.869
379.145
377.696
376.747
375.676
373.992
372.106
371.045
370.541
338.314
338.407
338.306
337.93
337.316
336.483
335.445
334.214
332.811
331.259
329.57
327.75
325.853
323.94
322.068
320.321
318.806
317.64
316.396
314.773
313.074
312.033
311.208
723.576
723.705
723.808
723.984
724.308
724.8
725.44
726.178
726.893
727.378
727.18
727.348
727.23
728.893
731.582
732.14
730.436
727.754
727.396
665.324
665.083
665.132
665.356
665.731
666.277
666.959
667.631
668.135
668.524
668.557
669.298
670.531
671.621
672.415
672.454
670.813
669.616
670.418
606.833
606.42
606.324
606.534
606.929
607.516
608.242
608.91
609.439
609.944
610.539
612.069
613.62
614.006
613.38
613.228
611.885
611.355
612.837
548.023
547.663
547.488
547.672
548.08
548.688
549.437
550.19
550.892
551.628
553.227
555.104
556.353
555.904
554.811
554.557
553.511
553.123
555.231
489.08
488.78
488.558
488.745
489.167
489.799
490.592
491.531
492.391
493.339
495.578
497.919
498.954
497.582
496.526
496.241
495.473
494.831
497.958
430.08
429.763
429.512
429.743
430.189
430.852
431.69
432.728
433.76
434.889
437.239
439.84
440.637
439.129
438.355
438.177
437.56
436.967
440.767
371.002
370.566
370.343
370.674
371.16
371.849
372.71
373.798
374.98
376.267
378.508
380.875
381.594
380.66
380.251
380.333
380.158
380.442
383.333
311.91
311.091
311.079
311.568
312.073
312.768
313.626
314.74
316.09
317.696
319.863
321.864
322.651
322.238
322.202
322.671
323.228
324.464
325.682
246.624
246.747
246.676
246.323
245.706
244.861
243.805
242.547
241.116
239.543
237.824
235.951
233.995
232.027
230.094
228.275
226.651
225.237
223.81
222.244
220.756
219.738
218.936
122.31
122.578
122.639
122.386
121.806
120.951
119.844
118.469
116.866
115.111
113.233
111.313
109.35
107.387
105.527
103.854
102.341
100.941
99.6052
98.36
97.3869
96.8659
96.4431
30.4595
30.6757
30.7233
30.6319
30.41
30.0171
29.4661
28.7809
27.9355
26.9789
25.985
25.0233
24.0545
23.0779
22.1419
21.2641
20.4239
19.6916
19.0978
18.6728
18.407
18.2179
17.9454
-0.140087
-0.125943
-0.159559
-0.162144
-0.0544748
0.0298065
0.103165
0.277773
0.433288
0.52719
0.627229
0.668417
0.682447
0.69595
0.631586
0.426654
0.174684
0.0512545
0.0231819
0.0769175
0.105064
-0.0101363
-0.252754
-0.489679
-0.484376
-0.483181
-0.476437
-0.434114
-0.38513
-0.337627
-0.274591
-0.20477
-0.168038
-0.153581
-0.152788
-0.163598
-0.180829
-0.222131
-0.28631
-0.352378
-0.392821
-0.426285
-0.477791
-0.516059
-0.568337
-0.641116
-0.867317
-0.861749
-0.861545
-0.876302
-0.879925
-0.881613
-0.879149
-0.907208
-0.926981
-0.929604
-0.925237
-0.920428
-0.92027
-0.924573
-0.924118
-0.892451
-0.872983
-0.866418
-0.874599
-0.913965
-0.940564
-0.945015
-0.921143
-1.20239
-1.20121
-1.19344
-1.19651
-1.21217
-1.23063
-1.24475
-1.26023
-1.2754
-1.28702
-1.29243
-1.29264
-1.28849
-1.28164
-1.27137
-1.2616
-1.24778
-1.22955
-1.21089
-1.18659
-1.17686
-1.17291
-1.13791
-1.41704
-1.42036
-1.41902
-1.41152
-1.41571
-1.41575
-1.41731
-1.41844
-1.41723
-1.41613
-1.41633
-1.41527
-1.41256
-1.40885
-1.40491
-1.40179
-1.39248
-1.38132
-1.36764
-1.35417
-1.34678
-1.34409
-1.33136
-1.54757
-1.54765
-1.55179
-1.55185
-1.55078
-1.54871
-1.54756
-1.54559
-1.54349
-1.54195
-1.54087
-1.53941
-1.53717
-1.53441
-1.53146
-1.52861
-1.52513
-1.52441
-1.52144
-1.51531
-1.50984
-1.50885
-1.51
-1.672
-1.67207
-1.67396
-1.67404
-1.67376
-1.67275
-1.67164
-1.67015
-1.66841
-1.66679
-1.66554
-1.66409
-1.6623
-1.66009
-1.65776
-1.65574
-1.65409
-1.65424
-1.65558
-1.65605
-1.65377
-1.65219
-1.65293
-1.79623
-1.79627
-1.79722
-1.79736
-1.79717
-1.79651
-1.79562
-1.79442
-1.79301
-1.79163
-1.79038
-1.78902
-1.78743
-1.78564
-1.7838
-1.78223
-1.78106
-1.78079
-1.78097
-1.78084
-1.78005
-1.77838
-1.77758
-1.92036
-1.92048
-1.92095
-1.92107
-1.92091
-1.92042
-1.9197
-1.91875
-1.91763
-1.91649
-1.9153
-1.914
-1.91256
-1.91106
-1.9096
-1.90833
-1.90735
-1.90686
-1.9066
-1.90616
-1.90534
-1.90424
-1.90338
-2.04447
-2.04471
-2.045
-2.04509
-2.04495
-2.04456
-2.04396
-2.04318
-2.04228
-2.04128
-2.04017
-2.03897
-2.03771
-2.03645
-2.03524
-2.03418
-2.03333
-2.03277
-2.0324
-2.03198
-2.03124
-2.03036
-2.02952
-2.16859
-2.16897
-2.16925
-2.16933
-2.1692
-2.16887
-2.16835
-2.16769
-2.1669
-2.166
-2.16501
-2.16396
-2.16288
-2.1618
-2.16078
-2.15986
-2.15911
-2.15854
-2.15815
-2.15779
-2.15722
-2.15647
-2.15565
-2.29278
-2.29328
-2.29361
-2.29371
-2.2936
-2.29331
-2.29286
-2.29228
-2.29157
-2.29078
-2.28991
-2.28899
-2.28804
-2.28711
-2.28623
-2.28543
-2.28474
-2.28418
-2.28373
-2.28334
-2.2829
-2.28227
-2.28148
-2.41705
-2.41766
-2.41806
-2.41819
-2.41811
-2.41786
-2.41747
-2.41695
-2.41632
-2.41562
-2.41485
-2.41404
-2.41322
-2.4124
-2.41162
-2.41091
-2.41027
-2.40972
-2.40925
-2.40881
-2.40834
-2.4078
-2.40719
-2.54142
-2.54211
-2.54256
-2.54274
-2.5427
-2.54249
-2.54214
-2.54168
-2.54113
-2.54051
-2.53983
-2.53911
-2.53839
-2.53767
-2.53698
-2.53633
-2.53575
-2.53522
-2.53475
-2.5343
-2.53385
-2.53337
-2.53288
-2.66592
-2.66664
-2.66714
-2.66735
-2.66734
-2.66717
-2.66687
-2.66647
-2.66598
-2.66543
-2.66483
-2.6642
-2.66355
-2.66292
-2.6623
-2.66172
-2.66118
-2.66068
-2.66023
-2.6598
-2.65938
-2.65895
-2.65854
-2.79054
-2.79127
-2.79179
-2.79202
-2.79204
-2.7919
-2.79165
-2.7913
-2.79087
-2.79038
-2.78985
-2.78929
-2.78872
-2.78815
-2.78759
-2.78707
-2.78657
-2.78611
-2.78568
-2.78528
-2.78489
-2.78452
-2.78417
-2.91527
-2.91598
-2.9165
-2.91674
-2.91678
-2.91667
-2.91646
-2.91615
-2.91577
-2.91534
-2.91487
-2.91437
-2.91387
-2.91336
-2.91286
-2.91239
-2.91194
-2.91151
-2.91111
-2.91074
-2.91039
-2.91005
-2.90975
-3.04009
-3.04077
-3.04126
-3.04151
-3.04156
-3.04148
-3.04129
-3.04102
-3.04069
-3.04031
-3.0399
-3.03946
-3.03901
-3.03855
-3.03811
-3.03768
-3.03727
-3.03688
-3.03651
-3.03617
-3.03585
-3.03556
-3.0353
-3.16499
-3.16562
-3.16608
-3.16631
-3.16637
-3.16631
-3.16615
-3.16592
-3.16563
-3.16529
-3.16492
-3.16453
-3.16413
-3.16373
-3.16333
-3.16294
-3.16257
-3.16222
-3.16189
-3.16158
-3.16129
-3.16103
-3.1608
-3.28996
-3.29053
-3.29093
-3.29115
-3.29121
-3.29115
-3.29102
-3.29082
-3.29056
-3.29027
-3.28994
-3.2896
-3.28924
-3.28888
-3.28853
-3.28818
-3.28785
-3.28753
-3.28723
-3.28695
-3.28669
-3.28646
-3.28626
-3.41499
-3.41548
-3.41582
-3.41601
-3.41606
-3.41602
-3.4159
-3.41573
-3.41551
-3.41525
-3.41496
-3.41466
-3.41434
-3.41402
-3.41371
-3.4134
-3.4131
-3.41281
-3.41254
-3.41229
-3.41206
-3.41186
-3.41168
-3.54006
-3.54046
-3.54074
-3.54089
-3.54094
-3.5409
-3.5408
-3.54065
-3.54045
-3.54023
-3.53998
-3.53971
-3.53943
-3.53915
-3.53887
-3.53859
-3.53833
-3.53807
-3.53783
-3.53761
-3.53741
-3.53723
-3.53708
-3.66516
-3.66547
-3.66568
-3.66579
-3.66582
-3.66579
-3.6657
-3.66557
-3.6654
-3.6652
-3.66498
-3.66475
-3.66451
-3.66426
-3.66401
-3.66377
-3.66353
-3.66331
-3.6631
-3.6629
-3.66272
-3.66257
-3.66244
-3.79028
-3.7905
-3.79062
-3.79069
-3.79071
-3.79069
-3.79061
-3.79049
-3.79035
-3.79018
-3.78999
-3.78978
-3.78957
-3.78936
-3.78914
-3.78893
-3.78872
-3.78852
-3.78834
-3.78817
-3.78802
-3.78788
-3.78777
-3.91541
-3.91554
-3.91559
-3.91562
-3.91563
-3.9156
-3.91553
-3.91543
-3.9153
-3.91515
-3.91499
-3.91482
-3.91463
-3.91444
-3.91426
-3.91407
-3.91389
-3.91372
-3.91356
-3.91342
-3.91329
-3.91317
-3.91308
-4.04053
-4.04058
-4.04058
-4.04058
-4.04056
-4.04052
-4.04045
-4.04037
-4.04026
-4.04013
-4.03999
-4.03984
-4.03969
-4.03953
-4.03936
-4.0392
-4.03905
-4.03891
-4.03877
-4.03865
-4.03853
-4.03844
-4.03836
-4.16563
-4.16562
-4.16557
-4.16555
-4.16551
-4.16546
-4.16539
-4.16531
-4.16522
-4.16511
-4.165
-4.16487
-4.16474
-4.1646
-4.16446
-4.16433
-4.1642
-4.16408
-4.16396
-4.16386
-4.16377
-4.16369
-4.16363
-4.29073
-4.29063
-4.29056
-4.29051
-4.29046
-4.2904
-4.29034
-4.29027
-4.29019
-4.2901
-4.29
-4.2899
-4.28979
-4.28968
-4.28956
-4.28945
-4.28934
-4.28924
-4.28914
-4.28906
-4.28899
-4.28893
-4.28888
-4.41581
-4.41564
-4.41552
-4.41546
-4.4154
-4.41534
-4.41529
-4.41523
-4.41517
-4.4151
-4.41502
-4.41494
-4.41484
-4.41475
-4.41466
-4.41456
-4.41447
-4.41439
-4.41431
-4.41425
-4.41419
-4.41415
-4.41412
-4.54088
-4.54065
-4.54049
-4.5404
-4.54035
-4.5403
-4.54026
-4.54021
-4.54016
-4.54011
-4.54005
-4.53998
-4.5399
-4.53983
-4.53975
-4.53967
-4.5396
-4.53953
-4.53947
-4.53943
-4.53939
-4.53936
-4.53934
-4.66594
-4.66566
-4.66547
-4.66537
-4.66532
-4.66528
-4.66524
-4.66521
-4.66517
-4.66513
-4.66508
-4.66503
-4.66497
-4.66491
-4.66485
-4.66478
-4.66472
-4.66467
-4.66463
-4.6646
-4.66458
-4.66456
-4.66456
-4.79097
-4.79067
-4.79047
-4.79037
-4.79032
-4.79028
-4.79025
-4.79023
-4.7902
-4.79017
-4.79014
-4.7901
-4.79005
-4.79
-4.78994
-4.78989
-4.78984
-4.7898
-4.78978
-4.78976
-4.78976
-4.78976
-4.78977
-4.91599
-4.91567
-4.91547
-4.91538
-4.91534
-4.91531
-4.91529
-4.91527
-4.91526
-4.91524
-4.91521
-4.91518
-4.91514
-4.91509
-4.91505
-4.915
-4.91496
-4.91493
-4.91491
-4.91491
-4.91493
-4.91495
-4.91498
-5.04096
-5.04066
-5.04049
-5.04043
-5.0404
-5.04037
-5.04036
-5.04035
-5.04034
-5.04032
-5.0403
-5.04027
-5.04024
-5.0402
-5.04015
-5.04011
-5.04007
-5.04005
-5.04004
-5.04006
-5.0401
-5.04014
-5.04018
-5.16589
-5.16563
-5.16553
-5.16551
-5.16549
-5.16547
-5.16546
-5.16546
-5.16545
-5.16544
-5.16542
-5.16539
-5.16536
-5.16531
-5.16527
-5.16522
-5.16518
-5.16516
-5.16516
-5.1652
-5.16527
-5.16534
-5.16539
-5.29075
-5.29059
-5.2906
-5.29063
-5.29063
-5.29062
-5.29061
-5.2906
-5.29059
-5.29058
-5.29056
-5.29053
-5.29049
-5.29044
-5.29039
-5.29034
-5.2903
-5.29026
-5.29025
-5.29032
-5.29044
-5.29054
-5.29061
-5.41563
-5.41563
-5.41575
-5.4158
-5.41581
-5.4158
-5.41579
-5.41578
-5.41577
-5.41574
-5.41571
-5.41568
-5.41563
-5.41557
-5.41552
-5.41545
-5.41539
-5.41534
-5.4153
-5.41541
-5.41562
-5.41577
-5.41585
-5.54037
-5.54071
-5.54095
-5.54104
-5.54105
-5.54103
-5.541
-5.54096
-5.54092
-5.54087
-5.54081
-5.54075
-5.54069
-5.54061
-5.54054
-5.54046
-5.54037
-5.54027
-5.54011
-5.54029
-5.54079
-5.54103
-5.54112
-5.66559
-5.6669
-5.66653
-5.66645
-5.66639
-5.66632
-5.66625
-5.66617
-5.6661
-5.66602
-5.66595
-5.66587
-5.66579
-5.66571
-5.66561
-5.6655
-5.66534
-5.66504
-5.66457
-5.66485
-5.66592
-5.66627
-5.66637
217.752
217.181
216.675
216.421
95.7106
95.2501
94.9504
94.9492
17.6496
17.4865
17.3763
17.3761
-0.136904
-0.0967369
-0.130134
-0.212157
-0.60642
-0.591615
-0.613286
-0.626443
-0.920815
-0.895441
-0.912479
-0.912791
-1.15765
-1.16679
-1.16829
-1.16751
-1.34422
-1.3562
-1.3615
-1.36208
-1.51517
-1.51666
-1.51522
-1.51298
-1.65149
-1.64914
-1.64696
-1.64536
-1.77649
-1.77556
-1.77443
-1.77345
-1.90252
-1.90187
-1.9012
-1.90057
-2.02872
-2.02821
-2.02774
-2.0273
-2.1549
-2.15447
-2.1541
-2.15377
-2.28089
-2.28055
-2.28026
-2.28001
-2.40675
-2.40649
-2.40627
-2.40608
-2.53253
-2.53233
-2.53216
-2.53201
-2.65826
-2.6581
-2.65796
-2.65784
-2.78394
-2.7838
-2.78369
-2.78358
-2.90956
-2.90944
-2.90934
-2.90925
-3.03513
-3.03503
-3.03494
-3.03487
-3.16065
-3.16057
-3.16049
-3.16042
-3.28613
-3.28606
-3.28599
-3.28593
-3.41157
-3.41151
-3.41145
-3.4114
-3.53698
-3.53693
-3.53688
-3.53683
-3.66235
-3.66231
-3.66226
-3.66223
-3.7877
-3.78766
-3.78762
-3.78759
-3.91302
-3.91299
-3.91296
-3.91293
-4.03832
-4.03829
-4.03826
-4.03824
-4.16359
-4.16357
-4.16355
-4.16354
-4.28885
-4.28884
-4.28883
-4.28882
-4.4141
-4.41409
-4.41408
-4.41408
-4.53933
-4.53933
-4.53933
-4.53933
-4.66456
-4.66456
-4.66456
-4.66457
-4.78978
-4.78978
-4.78979
-4.7898
-4.915
-4.91501
-4.91502
-4.91503
-5.04021
-5.04023
-5.04024
-5.04025
-5.16543
-5.16545
-5.16547
-5.16548
-5.29066
-5.29068
-5.2907
-5.29071
-5.4159
-5.41592
-5.41594
-5.41595
-5.54116
-5.54118
-5.54119
-5.5412
-5.66641
-5.66642
-5.66643
-5.66644
217.676
217.802
218.355
219.255
220.41
221.635
222.829
223.942
225.084
226.504
228.237
229.897
230.775
230.956
231.428
232.587
234.065
235.686
235.911
95.3815
95.6444
96.5477
97.8816
99.5962
101.469
103.37
104.967
106.075
106.917
107.695
108.57
109.35
110.042
110.899
111.932
113.321
114.889
114.31
17.54
17.9163
18.546
19.3142
20.2297
21.3147
22.4972
23.6068
24.4155
24.6807
24.6718
24.7176
24.9656
25.4491
25.9277
26.0598
26.4353
27.1445
26.9167
-0.359312
-0.44383
-0.46488
-0.482055
-0.422437
-0.346638
-0.375457
-0.410176
-0.427562
-0.420169
-0.408348
-0.401153
-0.389671
-0.377335
-0.39495
-0.485911
-0.513169
-0.53346
-0.543831
-0.644227
-0.656038
-0.663684
-0.671908
-0.649676
-0.621799
-0.613811
-0.615189
-0.618749
-0.623113
-0.62738
-0.632073
-0.638056
-0.648314
-0.668964
-0.71338
-0.71758
-0.715051
-0.719324
-0.898314
-0.893382
-0.898455
-0.906138
-0.917087
-0.939568
-0.950769
-0.955176
-0.955439
-0.953875
-0.951105
-0.950568
-0.951318
-0.953082
-0.959652
-0.976574
-0.974262
-0.979486
-0.983372
-1.17071
-1.16738
-1.17143
-1.17279
-1.19871
-1.22256
-1.23221
-1.23598
-1.23685
-1.23625
-1.23515
-1.23511
-1.23555
-1.2357
-1.23547
-1.21638
-1.21848
-1.2238
-1.22549
-1.37304
-1.37926
-1.38239
-1.38382
-1.3887
-1.38916
-1.38894
-1.39038
-1.39129
-1.39164
-1.39241
-1.39354
-1.39532
-1.398
-1.40067
-1.39262
-1.39972
-1.39975
-1.39855
-1.51369
-1.51878
-1.51983
-1.52055
-1.51902
-1.51745
-1.51698
-1.51732
-1.51725
-1.51674
-1.51771
-1.51946
-1.52161
-1.52427
-1.52629
-1.52724
-1.52963
-1.52789
-1.52562
-1.64393
-1.64547
-1.64601
-1.64592
-1.64505
-1.64409
-1.64402
-1.64428
-1.64375
-1.64444
-1.64654
-1.64892
-1.65041
-1.65069
-1.65131
-1.65181
-1.6531
-1.65246
-1.65146
-1.7722
-1.77254
-1.77259
-1.77226
-1.77157
-1.7712
-1.77155
-1.77207
-1.77225
-1.77468
-1.77761
-1.77855
-1.77791
-1.7763
-1.77637
-1.77674
-1.77735
-1.77722
-1.77725
-1.89965
-1.89952
-1.89944
-1.89922
-1.89907
-1.89932
-1.89984
-1.90103
-1.90306
-1.90562
-1.90669
-1.90539
-1.904
-1.90344
-1.90358
-1.90394
-1.90408
-1.90387
-1.904
-2.02662
-2.0264
-2.02644
-2.02675
-2.02713
-2.02761
-2.02834
-2.02973
-2.03246
-2.03377
-2.03321
-2.03261
-2.03193
-2.03229
-2.0329
-2.03284
-2.03248
-2.03198
-2.03171
-2.15327
-2.15307
-2.15323
-2.1539
-2.15468
-2.15524
-2.15576
-2.15662
-2.15823
-2.15903
-2.15915
-2.15978
-2.16039
-2.16058
-2.16026
-2.15947
-2.15876
-2.15844
-2.15849
-2.27964
-2.27948
-2.27964
-2.28021
-2.28101
-2.28153
-2.2818
-2.28245
-2.2835
-2.28424
-2.28474
-2.28559
-2.28669
-2.28665
-2.28562
-2.28492
-2.28451
-2.28443
-2.28446
-2.40579
-2.40566
-2.40577
-2.40615
-2.40667
-2.40712
-2.40752
-2.4081
-2.40887
-2.40953
-2.41009
-2.41078
-2.41136
-2.41141
-2.41101
-2.41069
-2.41061
-2.41095
-2.41074
-2.53178
-2.53167
-2.53174
-2.532
-2.53238
-2.53276
-2.53316
-2.53367
-2.53429
-2.53486
-2.5354
-2.53595
-2.53641
-2.53658
-2.53654
-2.53656
-2.53678
-2.53759
-2.53723
-2.65765
-2.65755
-2.6576
-2.65779
-2.65808
-2.65841
-2.65877
-2.65922
-2.65973
-2.66023
-2.66072
-2.6612
-2.66162
-2.6619
-2.66209
-2.66236
-2.66277
-2.66373
-2.66337
-2.78343
-2.78334
-2.78337
-2.78351
-2.78375
-2.78403
-2.78436
-2.78474
-2.78517
-2.78562
-2.78606
-2.7865
-2.78691
-2.78725
-2.78758
-2.78799
-2.78856
-2.78931
-2.78927
-2.90912
-2.90904
-2.90906
-2.90917
-2.90936
-2.90961
-2.9099
-2.91023
-2.91061
-2.91101
-2.91141
-2.91182
-2.9122
-2.91257
-2.91295
-2.91342
-2.91402
-2.91457
-2.91474
-3.03475
-3.03468
-3.03469
-3.03478
-3.03493
-3.03514
-3.0354
-3.0357
-3.03603
-3.03639
-3.03676
-3.03712
-3.03748
-3.03784
-3.03821
-3.03863
-3.03911
-3.03943
-3.03945
-3.16033
-3.16026
-3.16026
-3.16034
-3.16047
-3.16065
-3.16088
-3.16114
-3.16144
-3.16175
-3.16208
-3.16241
-3.16273
-3.16305
-3.16336
-3.16367
-3.16397
-3.16404
-3.16377
-3.28585
-3.28579
-3.28579
-3.28585
-3.28597
-3.28613
-3.28633
-3.28656
-3.28683
-3.28711
-3.2874
-3.28768
-3.28796
-3.28822
-3.28844
-3.28863
-3.28873
-3.28863
-3.28828
-3.41133
-3.41128
-3.41128
-3.41134
-3.41144
-3.41158
-3.41176
-3.41196
-3.4122
-3.41245
-3.4127
-3.41295
-3.41318
-3.41337
-3.41351
-3.41356
-3.41348
-3.41325
-3.41286
-3.53677
-3.53673
-3.53673
-3.53678
-3.53687
-3.537
-3.53716
-3.53735
-3.53756
-3.53778
-3.538
-3.53821
-3.53839
-3.53853
-3.53859
-3.53853
-3.53828
-3.53792
-3.53744
-3.66218
-3.66214
-3.66215
-3.6622
-3.66228
-3.6624
-3.66254
-3.66271
-3.6629
-3.6631
-3.66329
-3.66348
-3.66363
-3.66372
-3.66373
-3.66359
-3.66323
-3.66277
-3.66211
-3.78755
-3.78753
-3.78754
-3.78759
-3.78766
-3.78777
-3.7879
-3.78806
-3.78823
-3.78841
-3.78859
-3.78875
-3.78888
-3.78896
-3.78895
-3.78879
-3.78843
-3.78802
-3.78736
-3.9129
-3.91288
-3.9129
-3.91295
-3.91302
-3.91312
-3.91325
-3.91339
-3.91355
-3.91372
-3.91389
-3.91404
-3.91417
-3.91424
-3.91424
-3.91412
-3.91386
-3.91355
-3.91308
-4.03822
-4.03822
-4.03824
-4.03828
-4.03836
-4.03845
-4.03857
-4.03871
-4.03886
-4.03902
-4.03918
-4.03934
-4.03946
-4.03955
-4.03958
-4.03952
-4.03935
-4.0391
-4.03868
-4.16352
-4.16353
-4.16355
-4.1636
-4.16367
-4.16377
-4.16388
-4.16401
-4.16416
-4.16432
-4.16448
-4.16463
-4.16477
-4.16488
-4.16494
-4.16493
-4.16483
-4.1646
-4.16418
-4.28881
-4.28882
-4.28885
-4.2889
-4.28897
-4.28906
-4.28917
-4.2893
-4.28944
-4.2896
-4.28976
-4.28992
-4.29008
-4.29021
-4.2903
-4.29034
-4.2903
-4.29007
-4.28958
-4.41407
-4.41409
-4.41413
-4.41418
-4.41425
-4.41434
-4.41445
-4.41457
-4.41471
-4.41487
-4.41504
-4.41521
-4.41538
-4.41553
-4.41566
-4.41574
-4.41575
-4.41552
-4.41496
-4.53933
-4.53935
-4.53939
-4.53945
-4.53952
-4.5396
-4.53971
-4.53983
-4.53997
-4.54013
-4.5403
-4.54048
-4.54066
-4.54084
-4.54099
-4.54111
-4.54115
-4.54094
-4.54046
-4.66458
-4.66461
-4.66465
-4.6647
-4.66477
-4.66485
-4.66496
-4.66507
-4.66521
-4.66537
-4.66554
-4.66573
-4.66593
-4.66612
-4.6663
-4.66643
-4.66644
-4.66615
-4.66562
-4.78981
-4.78985
-4.78989
-4.78994
-4.79001
-4.79009
-4.79019
-4.7903
-4.79044
-4.79059
-4.79077
-4.79096
-4.79117
-4.79139
-4.79158
-4.79171
-4.79166
-4.79122
-4.7904
-4.91505
-4.91508
-4.91513
-4.91518
-4.91524
-4.91532
-4.91541
-4.91552
-4.91564
-4.91579
-4.91597
-4.91617
-4.9164
-4.91664
-4.91687
-4.91703
-4.91696
-4.91646
-4.9155
-5.04028
-5.04032
-5.04036
-5.04041
-5.04046
-5.04053
-5.04061
-5.04071
-5.04083
-5.04098
-5.04115
-5.04136
-5.0416
-5.04188
-5.04218
-5.04242
-5.04244
-5.04194
-5.04097
-5.16551
-5.16555
-5.16558
-5.16563
-5.16568
-5.16574
-5.16581
-5.1659
-5.166
-5.16614
-5.1663
-5.16651
-5.16677
-5.16709
-5.16748
-5.16787
-5.16809
-5.16766
-5.16668
-5.29074
-5.29077
-5.29081
-5.29084
-5.29089
-5.29093
-5.29099
-5.29107
-5.29116
-5.29127
-5.29142
-5.29162
-5.29188
-5.29224
-5.29273
-5.29336
-5.29393
-5.29362
-5.29264
-5.41597
-5.416
-5.41603
-5.41605
-5.41609
-5.41612
-5.41617
-5.41622
-5.41629
-5.41638
-5.4165
-5.41667
-5.4169
-5.41726
-5.41782
-5.41875
-5.41995
-5.41993
-5.41929
-5.54121
-5.54122
-5.54124
-5.54126
-5.54128
-5.5413
-5.54133
-5.54137
-5.54141
-5.54147
-5.54155
-5.54166
-5.54182
-5.54209
-5.54259
-5.54371
-5.54583
-5.54662
-5.54712
-5.66644
-5.66645
-5.66646
-5.66647
-5.66648
-5.66649
-5.66651
-5.66652
-5.66654
-5.66656
-5.66659
-5.66663
-5.6667
-5.66683
-5.66712
-5.66794
-5.67043
-5.67416
-5.67685
)
;

boundaryField
{
    leftWall
    {
        type            calculated;
        value           nonuniform List<scalar> 
50
(
749.874
690.984
632.119
573.284
514.483
455.719
396.995
338.314
246.624
122.31
30.4595
-0.140087
-0.489679
-0.867317
-1.20239
-1.41704
-1.54757
-1.672
-1.79623
-1.92036
-2.04447
-2.16859
-2.29278
-2.41705
-2.54142
-2.66592
-2.79054
-2.91527
-3.04009
-3.16499
-3.28996
-3.41499
-3.54006
-3.66516
-3.79028
-3.91541
-4.04053
-4.16563
-4.29073
-4.41581
-4.54088
-4.66594
-4.79097
-4.91599
-5.04096
-5.16589
-5.29075
-5.41563
-5.54037
-5.66559
)
;
    }
    rightWall
    {
        type            calculated;
        value           nonuniform List<scalar> 
50
(
727.396
670.418
612.837
555.231
497.958
440.767
383.333
325.682
235.911
114.31
26.9167
-0.543831
-0.719324
-0.983372
-1.22549
-1.39855
-1.52562
-1.65146
-1.77725
-1.904
-2.03171
-2.15849
-2.28446
-2.41074
-2.53723
-2.66337
-2.78927
-2.91474
-3.03945
-3.16377
-3.28828
-3.41286
-3.53744
-3.66211
-3.78736
-3.91308
-4.03868
-4.16418
-4.28958
-4.41496
-4.54046
-4.66562
-4.7904
-4.9155
-5.04097
-5.16668
-5.29264
-5.41929
-5.54712
-5.67685
)
;
    }
    lowerWall
    {
        type            calculated;
        value           nonuniform List<scalar> 
62
(
779.303
779.338
779.175
778.78
778.16
777.324
776.282
775.053
773.657
772.115
770.45
768.684
766.846
764.956
763.017
761.023
758.991
756.939
755.374
754.526
754.174
754.094
753.941
724.646
665.901
607.002
547.997
488.934
429.786
370.541
311.208
280.349
279.778
279.273
279.018
723.576
665.324
606.833
548.023
489.08
430.08
371.002
311.91
752.704
752.845
752.972
753.139
753.463
753.956
754.596
755.358
756.269
756.765
756.525
756.684
755.611
757.264
760.472
761.461
759.819
756.358
755.695
)
;
    }
    atmosphere
    {
        type            calculated;
        value           nonuniform List<scalar> 
46
(
-5.7292
-5.72904
-5.72904
-5.72904
-5.72904
-5.72904
-5.72904
-5.72904
-5.72904
-5.72904
-5.72904
-5.72904
-5.72904
-5.72904
-5.72904
-5.72904
-5.72904
-5.72904
-5.72904
-5.72904
-5.72904
-5.72905
-5.72905
-5.72905
-5.72906
-5.72906
-5.72906
-5.72907
-5.72907
-5.72908
-5.72909
-5.72909
-5.7291
-5.72911
-5.72912
-5.72912
-5.72913
-5.72914
-5.72914
-5.72915
-5.72915
-5.72915
-5.72914
-5.72911
-5.72904
-5.74473
)
;
    }
    defaultFaces
    {
        type            empty;
    }
}


// ************************************************************************* //
