/*--------------------------------*- C++ -*----------------------------------*\
  =========                 |
  \\      /  F ield         | OpenFOAM: The Open Source CFD Toolbox
   \\    /   O peration     | Website:  https://openfoam.org
    \\  /    A nd           | Version:  9
     \\/     M anipulation  |
\*---------------------------------------------------------------------------*/
FoamFile
{
    format      ascii;
    class       volScalarField;
    location    "5.55";
    object      nut;
}
// * * * * * * * * * * * * * * * * * * * * * * * * * * * * * * * * * * * * * //

dimensions      [0 2 -1 0 0 0 0];

internalField   nonuniform List<scalar> 
2268
(
1.44508e-05
1.64575e-05
1.98124e-05
2.20674e-05
2.37512e-05
2.50795e-05
2.61652e-05
2.7073e-05
2.78419e-05
2.84971e-05
2.90657e-05
2.95914e-05
3.00478e-05
3.04134e-05
3.06147e-05
3.0474e-05
2.95707e-05
2.78478e-05
2.62791e-05
2.50905e-05
2.36832e-05
2.12514e-05
1.41545e-05
3.2766e-05
0.000126956
0.000169596
0.000197119
0.000217343
0.000233265
0.000246464
0.000257811
0.000267801
0.00027669
0.00028438
0.000290581
0.000295922
0.000300084
0.000302184
0.000300446
0.000291784
0.000268003
0.000243613
0.000229745
0.000216985
0.000163481
4.52054e-05
3.88455e-05
0.000217472
0.000314372
0.000377557
0.000424034
0.000460518
0.000490493
0.000515925
0.000537951
0.000557179
0.0005737
0.000587374
0.000598793
0.000607179
0.000610662
0.000605826
0.000586949
0.000545303
0.000500668
0.000462943
0.000407096
0.000274351
5.34859e-05
4.33286e-05
0.000282836
0.000430839
0.000529559
0.000602675
0.000660094
0.000707034
0.000746507
0.000780287
0.00080938
0.000834189
0.000854688
0.000871369
0.000883039
0.000887141
0.000879322
0.000852971
0.000800706
0.000739721
0.000673317
0.000567874
0.000362228
6.04447e-05
4.68696e-05
0.000332584
0.000525787
0.00065769
0.00075623
0.000833807
0.000897104
0.000950048
0.000995002
0.00103335
0.00106579
0.00109242
0.00111363
0.00112793
0.00113239
0.00112226
0.00109106
0.00103261
0.000958022
0.000863668
0.000711684
0.000439885
6.71636e-05
4.98241e-05
0.000372472
0.000605115
0.000767285
0.000889493
0.00098604
0.00106481
0.00113051
0.00118602
0.00123306
0.00127257
0.00130482
0.00133008
0.00134674
0.00135167
0.00134011
0.00130602
0.00124398
0.00115833
0.00103974
0.000846083
0.000509921
7.47395e-05
5.23933e-05
0.000405856
0.000673021
0.000862545
0.0010065
0.00112065
0.00121389
0.00129159
0.00135704
0.00141225
0.00145838
0.00149585
0.00152493
0.0015439
0.00154965
0.00153756
0.00150209
0.00143817
0.00134438
0.00120716
0.000978878
0.000580073
8.46729e-05
5.47011e-05
0.000434731
0.000732422
0.000946622
0.0011104
0.00124074
0.0013474
0.00143631
0.00151111
0.00157403
0.00162639
0.00166882
0.00170159
0.00172298
0.00172995
0.00171819
0.00168258
0.00161816
0.0015197
0.00137134
0.00112182
0.000673087
9.99139e-05
1.26867e-05
2.16934e-05
2.5439e-05
2.7088e-05
2.78701e-05
2.81962e-05
2.83412e-05
2.85099e-05
2.86994e-05
2.83725e-05
2.67907e-05
2.48059e-05
2.2489e-05
2.30855e-05
2.59523e-05
2.54724e-05
2.26093e-05
1.89989e-05
2.16321e-05
4.274e-05
0.000173897
0.00023095
0.000258098
0.000270183
0.000274737
0.000275822
0.000275138
0.00027198
0.000261526
0.000235941
0.000200317
0.000167319
0.000176261
0.000218214
0.000210228
0.000173657
0.000119027
4.56478e-05
5.15929e-05
0.000291384
0.000433145
0.000505552
0.000539722
0.00055368
0.000557552
0.000555945
0.000548049
0.000525169
0.000474208
0.000409317
0.00035302
0.00036629
0.000415282
0.000391904
0.000315878
0.000207676
4.98583e-05
5.95414e-05
0.000373626
0.000593781
0.000714009
0.000773709
0.000799724
0.000807743
0.000805307
0.000792312
0.000759031
0.000691013
0.000609064
0.000542547
0.000551036
0.000581572
0.000536093
0.000425806
0.000270648
5.2033e-05
6.71198e-05
0.000441782
0.000729112
0.000892834
0.000976823
0.00101498
0.00102743
0.00102414
0.00100612
0.000964582
0.000886659
0.000796002
0.000725205
0.00072006
0.0007216
0.000650434
0.000509397
0.000312926
5.29663e-05
7.58486e-05
0.000506883
0.000853664
0.00105343
0.00115757
0.00120613
0.00122241
0.00121806
0.00119533
0.00114733
0.00106463
0.00096991
0.000895452
0.000871016
0.000840822
0.000742287
0.000571745
0.000337465
5.32921e-05
8.78659e-05
0.000579776
0.000979436
0.00120475
0.00132293
0.00137899
0.00139788
0.00139212
0.00136503
0.00131204
0.00122744
0.00113072
0.00105078
0.00100448
0.00094332
0.000817097
0.000617329
0.000348546
5.3404e-05
0.000106186
0.0006831
0.00111772
0.0013531
0.00147788
0.00153797
0.0015579
0.00155026
0.00151917
0.00146214
0.00137669
0.0012785
0.00119092
0.0011222
0.00103228
0.000879012
0.000651164
0.000354751
5.32799e-05
5.8026e-05
0.000474694
0.000815164
0.00106441
0.00125657
0.00141036
0.00153669
0.00164223
0.00173104
0.00180559
0.00186739
0.00191708
0.00195499
0.00197968
0.00198861
0.00197823
0.00194424
0.00188165
0.00178248
0.00162857
0.00138211
0.000993266
0.000483133
6.16348e-05
0.000517719
0.000905222
0.00119313
0.00141594
0.00159521
0.00174357
0.00186846
0.00197418
0.00206327
0.00213726
0.00219695
0.00224228
0.00227261
0.00228621
0.00228067
0.00225282
0.00219834
0.00211065
0.00197894
0.00178619
0.001518
0.00118886
6.50946e-05
0.000551573
0.00098228
0.00130478
0.00155158
0.00175054
0.00191652
0.00205774
0.0021784
0.00228076
0.00236622
0.00243557
0.00248877
0.00252549
0.00254498
0.00254612
0.00252685
0.00248368
0.00241271
0.00231139
0.00217437
0.00200359
0.00181919
6.86799e-05
0.0005758
0.00104984
0.00140844
0.00167068
0.00188372
0.00206304
0.00221779
0.00235179
0.00246658
0.00256319
0.00264222
0.00270343
0.00274698
0.00277326
0.00278238
0.0027729
0.00274092
0.00268457
0.00261104
0.00251731
0.00241086
0.00230653
7.05172e-05
0.000600005
0.00110825
0.00148997
0.00175713
0.00198766
0.00218248
0.00235139
0.00249881
0.00262624
0.00273463
0.0028243
0.00289377
0.0029439
0.00297725
0.00299509
0.00299551
0.00297267
0.00292931
0.00287625
0.0028121
0.00274616
0.00268906
7.03912e-05
0.000594626
0.00110247
0.0014798
0.00177976
0.00204362
0.0022667
0.00245557
0.00261975
0.00276169
0.00288304
0.00298313
0.0030613
0.00311885
0.00315922
0.00318457
0.00319245
0.00317687
0.00314731
0.00310896
0.00306752
0.0030305
0.00299792
6.94032e-05
0.000549692
0.00108494
0.00148582
0.00179947
0.00208781
0.00233155
0.0025413
0.00272295
0.00287936
0.00301273
0.00312301
0.00320969
0.00327382
0.00331849
0.0033457
0.00335866
0.00335812
0.00334468
0.00332261
0.00329997
0.00328078
0.00325782
6.99798e-05
0.000562594
0.00108342
0.00149918
0.00184154
0.00214135
0.00239826
0.00262171
0.00281699
0.002986
0.00312997
0.00324922
0.00334388
0.00341489
0.00346486
0.00349793
0.00351972
0.00353085
0.00353137
0.00352497
0.00351555
0.00350299
0.00348719
7.13803e-05
0.000591264
0.00111321
0.00154236
0.00190151
0.00220964
0.00247472
0.00270586
0.00290856
0.00308539
0.00323749
0.00336445
0.00346655
0.00354492
0.00360258
0.00364436
0.00367545
0.00369655
0.00370815
0.00371292
0.00371221
0.00370601
0.00369466
7.25838e-05
0.000616398
0.00115637
0.00160084
0.00197165
0.00228667
0.00255748
0.0027935
0.00300068
0.00318205
0.00333909
0.00347206
0.00358088
0.00366701
0.00373369
0.00378528
0.00382576
0.00385607
0.00387711
0.00389041
0.00389662
0.00389576
0.00388849
7.3729e-05
0.00063771
0.00119913
0.00165976
0.00204187
0.00236458
0.00264133
0.00288199
0.00309297
0.00327788
0.00343863
0.00357627
0.00369128
0.0037852
0.00386096
0.0039221
0.00397154
0.00401035
0.00403953
0.00405991
0.0040718
0.00407537
0.00407172
7.47365e-05
0.000654582
0.00123534
0.00171194
0.00210617
0.00243808
0.00272207
0.00296839
0.00318384
0.00337264
0.00353728
0.00367939
0.00380027
0.00390154
0.0039857
0.00405546
0.00411304
0.00415946
0.00419563
0.00422198
0.00423876
0.00424638
0.00424587
7.56941e-05
0.000665967
0.00126349
0.00175551
0.00216256
0.00250486
0.00279738
0.00305059
0.00327165
0.00346525
0.00363449
0.00378154
0.00390822
0.00401632
0.004108
0.00418538
0.00425017
0.00430328
0.00434549
0.00437707
0.00439829
0.00440964
0.00441201
7.64937e-05
0.000675401
0.00128655
0.00179207
0.00221139
0.00256461
0.00286655
0.00312767
0.00335534
0.0035547
0.00372934
0.00388187
0.00401442
0.00412897
0.00422744
0.00431158
0.00438275
0.00444176
0.00448926
0.00452555
0.00455088
0.00456575
0.00457085
7.71691e-05
0.000683258
0.00130619
0.001824
0.00225499
0.00261883
0.00293019
0.00319959
0.00343454
0.00364039
0.00382103
0.00397945
0.00411801
0.00423874
0.00434346
0.00443368
0.00451058
0.00457487
0.00462709
0.00466764
0.0046968
0.004715
0.00472275
7.77622e-05
0.000689974
0.00132347
0.00185263
0.00229463
0.00266869
0.00298934
0.00326708
0.00350951
0.00372217
0.00390919
0.00407373
0.0042183
0.00434499
0.00445552
0.00455129
0.00463337
0.00470244
0.00475895
0.00480341
0.00483611
0.00485742
0.00486771
7.8293e-05
0.000695832
0.00133903
0.00187878
0.00233118
0.00271504
0.00304471
0.00333068
0.00358062
0.0038002
0.00399369
0.00416437
0.00431484
0.0044472
0.00456314
0.00466399
0.00475077
0.00482415
0.00488461
0.00493265
0.0049686
0.00499278
0.00500546
7.87664e-05
0.00070099
0.00135322
0.00190293
0.00236521
0.00275845
0.00309684
0.00339084
0.00364817
0.00387459
0.00407445
0.00425112
0.00440724
0.00454492
0.00466584
0.00477131
0.00486232
0.0049396
0.00500364
0.00505491
0.0050938
0.00512059
0.00513552
7.91778e-05
0.000705553
0.00136625
0.00192538
0.00239704
0.00279925
0.00314604
0.00344781
0.00371231
0.00394534
0.00415132
0.00433368
0.00449508
0.00463765
0.00476308
0.00487267
0.00496745
0.00504817
0.00511539
0.00516955
0.00521107
0.00524025
0.00525726
7.95192e-05
0.000709614
0.00137825
0.00194629
0.00242688
0.00283766
0.00319247
0.00350168
0.00377302
0.00401233
0.00422406
0.00441167
0.00457789
0.00472484
0.00485424
0.00496743
0.00506547
0.00514916
0.00521913
0.00527584
0.00531971
0.00535105
0.00537004
7.9788e-05
0.000713223
0.00138931
0.00196579
0.00245485
0.00287377
0.0032362
0.00355244
0.00383019
0.00407532
0.00429231
0.00448466
0.00465511
0.00480585
0.00493863
0.00505486
0.00515563
0.00524182
0.00531412
0.00537305
0.00541902
0.00545237
0.00547327
7.99846e-05
0.000716388
0.00139947
0.00198393
0.00248102
0.00290761
0.00327719
0.00359997
0.00388362
0.00413401
0.00435566
0.00455211
0.00472615
0.00488003
0.00501557
0.00513424
0.00523721
0.00532545
0.00539971
0.00546057
0.00550846
0.00554374
0.0055666
8.01004e-05
0.00071912
0.00140878
0.00200077
0.0025054
0.00293917
0.00331537
0.0036441
0.00393303
0.00418803
0.00441366
0.00461349
0.00479042
0.00494676
0.00508441
0.00520493
0.00530962
0.00539951
0.00547544
0.00553804
0.00558779
0.00562505
0.00565003
8.01333e-05
0.000721478
0.00141729
0.00201635
0.00252803
0.00296841
0.00335061
0.00368464
0.00397814
0.00423701
0.00446584
0.00466831
0.00484738
0.00500548
0.00514463
0.0052665
0.00537249
0.00546374
0.00554117
0.00560547
0.00565716
0.00569662
0.00572404
8.00973e-05
0.000723541
0.0014251
0.00203074
0.00254888
0.00299525
0.00338275
0.00372134
0.00401863
0.00428056
0.00451181
0.00471613
0.00489663
0.00505585
0.00519595
0.00531876
0.00542578
0.00551827
0.00559722
0.00566338
0.0057173
0.00575936
0.00578973
8.00059e-05
0.000725374
0.00143228
0.00204395
0.00256794
0.00301957
0.00341161
0.00375394
0.00405419
0.00431836
0.00455122
0.00475666
0.00493793
0.00509774
0.00523842
0.00536193
0.00546992
0.00556374
0.00564446
0.00571288
0.00576955
0.00581482
0.00584884
7.98685e-05
0.000727019
0.00143885
0.00205597
0.00258509
0.00304121
0.00343696
0.00378218
0.00408455
0.00435015
0.00458389
0.00478982
0.00497135
0.00513141
0.00527249
0.00539671
0.00550585
0.00560138
0.00568439
0.00575572
0.0058159
0.00586524
0.0059038
7.96907e-05
0.000728487
0.00144479
0.00206669
0.00260016
0.00305993
0.00345853
0.0038058
0.00410949
0.00437581
0.00460981
0.00481576
0.00499728
0.00515748
0.00529907
0.00542431
0.00553512
0.00563302
0.00571916
0.00579434
0.00585904
0.0059135
0.00595765
7.94698e-05
0.000729736
0.00144994
0.00207584
0.00261283
0.00307539
0.003476
0.00382454
0.00412888
0.00439535
0.00462923
0.00483498
0.00501648
0.00517705
0.00531958
0.0054465
0.00555982
0.0056611
0.00575149
0.00583172
0.00590219
0.005963
0.00601393
7.91759e-05
0.000730559
0.0014539
0.00208296
0.0026226
0.00308712
0.00348899
0.00383819
0.00414268
0.004409
0.00464263
0.0048483
0.00503011
0.00519162
0.0053359
0.00546552
0.00558253
0.00568851
0.00578456
0.0058713
0.00594898
0.00601752
0.0060765
7.87953e-05
0.00073028
0.00145581
0.00208718
0.00262864
0.00309443
0.00349704
0.00384652
0.00415098
0.00441716
0.00465079
0.00485684
0.00503968
0.00520309
0.00535028
0.00548392
0.00560612
0.00571841
0.00582179
0.00591671
0.00600323
0.00608099
0.00614931
7.83916e-05
0.000726954
0.00145405
0.00208734
0.00263016
0.00309678
0.00349984
0.00384953
0.00415413
0.00442055
0.00465478
0.00486205
0.00504697
0.00521353
0.00536507
0.00550434
0.00563344
0.00575387
0.00586648
0.00597149
0.00606865
0.00615724
0.00623621
7.79071e-05
0.000721891
0.00144886
0.00208291
0.00262634
0.00309345
0.00349701
0.00384727
0.00415257
0.00442002
0.00465581
0.00486545
0.00505377
0.00522496
0.00538247
0.00552911
0.005667
0.00579758
0.00592154
0.00603879
0.00614862
0.00624979
0.00634077
7.7327e-05
0.000715619
0.00143995
0.00207281
0.00261588
0.00308342
0.00348802
0.00383973
0.00414682
0.00441647
0.0046551
0.00486847
0.00506167
0.00523903
0.00540414
0.00555991
0.00570854
0.00585146
0.00598919
0.0061212
0.0062461
0.00636184
0.00646623
7.66153e-05
0.00070742
0.00142561
0.0020547
0.00259659
0.00306514
0.00347212
0.00382688
0.00413738
0.00441078
0.00465374
0.00487228
0.00507175
0.00525669
0.00543088
0.00559743
0.00575878
0.00591648
0.00607088
0.00622078
0.00636368
0.00649635
0.00661561
7.5687e-05
0.000695112
0.00140172
0.002024
0.00256473
0.00303624
0.00344823
0.00380861
0.00412471
0.0044037
0.0046525
0.00487753
0.00508443
0.00527801
0.0054624
0.00564118
0.00581731
0.00599272
0.00616749
0.00633936
0.00650407
0.00665649
0.00679207
7.43904e-05
0.00067457
0.00135988
0.00197219
0.00251417
0.00299332
0.00341501
0.00378478
0.00410926
0.00439578
0.00465181
0.00488428
0.00509926
0.00530203
0.00549731
0.00568956
0.00588277
0.00607956
0.00627971
0.00647922
0.00667086
0.00684643
0.00699948
7.24988e-05
0.000635263
0.00128196
0.00188402
0.00243568
0.00293212
0.00337118
0.00375553
0.00409155
0.00438746
0.00465169
0.004892
0.00511511
0.00532697
0.00553331
0.00574007
0.00595295
0.00617583
0.00640829
0.00664366
0.00686963
0.00707242
0.00724314
7.08845e-05
0.000543426
0.00113017
0.00173525
0.00231797
0.00284913
0.00331671
0.00372183
0.0040725
0.0043791
0.00465186
0.00489974
0.00513035
0.00535057
0.00556758
0.00578948
0.00602462
0.00627915
0.0065532
0.00683703
0.00710957
0.00734438
0.0075305
8.87979e-05
0.000338875
0.000854597
0.00150133
0.00215447
0.00274575
0.00325489
0.00368644
0.00405372
0.00437128
0.004652
0.00490644
0.00514327
0.00537049
0.00559706
0.00583378
0.00609259
0.00638368
0.00671052
0.00706308
0.00740741
0.00767865
0.0078715
0.000190766
0.000150632
0.000491906
0.00119466
0.00196082
0.00263611
0.00319528
0.0036548
0.00403784
0.00436484
0.0046519
0.0049112
0.00515246
0.00538478
0.00561878
0.005868
0.00614848
0.00647647
0.00686506
0.00731809
0.00780169
0.00810294
0.00827727
0.000413255
0.000142581
0.000244019
0.000922298
0.00180114
0.00255554
0.00315538
0.00363497
0.00402828
0.004361
0.00465163
0.00491355
0.00515711
0.00539212
0.00563026
0.00588686
0.00618101
0.00653499
0.00697726
0.00755944
0.00840884
0.00865999
0.00875279
0.00010388
9.7476e-05
9.68849e-05
0.000102061
0.000942137
0.000899987
0.000895673
0.000928898
0.00171129
0.0016746
0.00166605
0.0016861
0.00225164
0.00222734
0.00221615
0.00221963
0.00265516
0.00263682
0.00262529
0.0026225
0.0029721
0.00295915
0.00295125
0.0029492
0.00323977
0.00322923
0.00322377
0.00322101
0.00347368
0.00346588
0.00346004
0.00345506
0.00368466
0.00367854
0.00367273
0.00366686
0.00388049
0.00387492
0.00386889
0.00386212
0.00406511
0.00405983
0.00405347
0.00404588
0.00424044
0.00423547
0.00422898
0.00422088
0.00440775
0.00440321
0.00439682
0.00438852
0.00456784
0.00456385
0.00455776
0.00454953
0.00472106
0.00471771
0.00471207
0.00470408
0.00486737
0.00486473
0.00485962
0.004852
0.00500647
0.00500455
0.00500003
0.00499287
0.00513784
0.00513667
0.00513279
0.00512616
0.00526088
0.00526047
0.00525727
0.00525124
0.00537495
0.00537532
0.00537285
0.00536751
0.00547951
0.00548072
0.00547907
0.00547452
0.00557428
0.00557642
0.0055757
0.00557209
0.00565935
0.00566257
0.00566297
0.00566049
0.0057353
0.00573984
0.00574158
0.0057405
0.00580337
0.00580951
0.00581291
0.00581354
0.00586541
0.00587352
0.00587896
0.00588167
0.00592397
0.00593448
0.00594238
0.00594761
0.00598218
0.00599556
0.00600638
0.00601457
0.00604363
0.00606038
0.0060746
0.00608621
0.00611218
0.0061328
0.00615087
0.00616631
0.00619177
0.0062167
0.00623903
0.00625866
0.00628619
0.00631583
0.00634274
0.00636681
0.00639891
0.00643358
0.00646529
0.00649393
0.00653309
0.00657299
0.00660958
0.00664277
0.00669159
0.00673678
0.00677814
0.00681562
0.00687725
0.00692754
0.00697327
0.00701449
0.00709332
0.00714805
0.00719727
0.00724119
0.00734388
0.00740158
0.0074526
0.00749744
0.00763406
0.00769183
0.00774173
0.00778467
0.00796958
0.0080223
0.0080664
0.00810332
0.00835459
0.00839402
0.00842567
0.00845128
0.00878545
0.00880087
0.0088126
0.00882176
0.000523971
0.00100768
0.0013642
0.00158304
0.00170709
0.00176901
0.00178882
0.00177781
0.00174096
0.00167906
0.00159285
0.00149175
0.00138958
0.00128637
0.0011537
0.000959565
0.000694921
0.000368143
5.29105e-05
0.00117948
0.00148951
0.0017311
0.00189615
0.00199712
0.00204834
0.00206102
0.00204293
0.00199846
0.00192964
0.00183754
0.00172699
0.00160318
0.00146263
0.00128663
0.00105203
0.000756238
0.000404175
5.43536e-05
0.00177555
0.00193896
0.0020864
0.00219762
0.00226902
0.00230312
0.00230421
0.00227722
0.00222481
0.00214806
0.00204831
0.00192703
0.00178421
0.00161493
0.00140796
0.00115159
0.000841055
0.000468533
6.10838e-05
0.00224957
0.0023298
0.00241277
0.00247953
0.00252269
0.00253795
0.0025245
0.00248683
0.00242588
0.0023414
0.0022334
0.00210203
0.0019442
0.0017552
0.00152901
0.00126177
0.000944625
0.000543047
7.32341e-05
0.00263134
0.00266802
0.00270868
0.00274067
0.00275898
0.00275616
0.00272582
0.00267564
0.00260542
0.00251295
0.00239665
0.00225629
0.00208872
0.00188969
0.00165234
0.00137902
0.00105795
0.000622638
9.02983e-05
0.00295139
0.00296235
0.0029753
0.00297753
0.00297156
0.0029501
0.00290637
0.00284489
0.0027642
0.00266177
0.00253542
0.00238294
0.00220199
0.00199103
0.00174497
0.00145515
0.00108943
0.0005961
8.7114e-05
0.00321728
0.00321259
0.00320812
0.00319635
0.00316657
0.00312658
0.00307096
0.00299927
0.00290817
0.00279435
0.00265539
0.00248951
0.00229585
0.00207124
0.00180957
0.00148882
0.00105877
0.000478716
8.05235e-05
0.00344708
0.00343257
0.00341359
0.00338595
0.00334325
0.00328857
0.00322268
0.00314139
0.0030393
0.00291303
0.00276047
0.00258042
0.00237246
0.00213252
0.00185231
0.00150979
0.00106218
0.000482847
7.67782e-05
0.00365593
0.00363389
0.00360396
0.00356307
0.00350855
0.00344208
0.00336513
0.00327291
0.00315773
0.00301708
0.0028501
0.002655
0.00242988
0.00217237
0.0018744
0.00151968
0.00108135
0.000535289
7.61998e-05
0.00384893
0.00382168
0.00378424
0.00373441
0.00367047
0.00359332
0.00350431
0.00339876
0.00326867
0.00311219
0.00292826
0.00271485
0.00247102
0.00219384
0.00187704
0.00151171
0.00108261
0.000569304
7.62642e-05
0.0040308
0.00399979
0.00395722
0.003901
0.00382965
0.00374318
0.00364239
0.00352289
0.0033782
0.00320608
0.00300468
0.00277142
0.00250499
0.00220282
0.00186208
0.00147958
0.00104798
0.000552355
7.43225e-05
0.00420446
0.00417069
0.00412437
0.00406322
0.00398573
0.0038914
0.00378006
0.00364816
0.00349044
0.00330426
0.00308707
0.00283514
0.00254559
0.0022162
0.00184556
0.00143314
0.000982117
0.000496509
7.0534e-05
0.00437138
0.0043356
0.00428634
0.00422124
0.00413866
0.00403783
0.0039179
0.00377587
0.00360749
0.00340976
0.00317917
0.00291129
0.00260278
0.00225105
0.0018539
0.001412
0.000938962
0.000463747
6.92577e-05
0.00453213
0.00449497
0.0044434
0.0043752
0.00428862
0.00418266
0.00405612
0.00390627
0.00372957
0.0035227
0.00328168
0.00300214
0.00268096
0.00231567
0.00190422
0.00144757
0.000958734
0.000470109
6.89819e-05
0.00468676
0.00464876
0.0045955
0.00452499
0.0044355
0.00432578
0.00419434
0.00403872
0.00385574
0.003642
0.00339367
0.00310684
0.00277865
0.00240722
0.00199136
0.00153153
0.00103321
0.000513371
7.20328e-05
0.00483502
0.00479664
0.0047423
0.00467024
0.00457879
0.00446649
0.00433167
0.00417202
0.00398461
0.00376615
0.00351306
0.00322187
0.00288991
0.00251544
0.00209744
0.00163518
0.00112717
0.000575882
7.68835e-05
0.00497643
0.00493813
0.0048833
0.00481038
0.00471778
0.00460391
0.00446701
0.00430481
0.00411457
0.00389313
0.00363709
0.00334313
0.00300836
0.00263048
0.00220734
0.00173606
0.00121102
0.000627218
8.05989e-05
0.00511044
0.00507261
0.00501784
0.00494471
0.00485169
0.00473714
0.00459923
0.00443574
0.00424398
0.00402089
0.00376309
0.00346706
0.00312934
0.00274642
0.00231436
0.00182786
0.00127905
0.000661944
8.33807e-05
0.00523641
0.00519945
0.00514526
0.00507253
0.00497977
0.00486535
0.00472738
0.00456363
0.00437144
0.00414773
0.00388897
0.00359125
0.00325022
0.00286091
0.00241723
0.0019114
0.00133419
0.000683333
8.56594e-05
0.00535375
0.00531806
0.00526497
0.00519324
0.00510142
0.00498787
0.00485069
0.0046876
0.0044959
0.00427242
0.00401338
0.00371436
0.00337006
0.00297395
0.0025177
0.00199091
0.0013828
0.000696719
8.78687e-05
0.00546206
0.00542807
0.00537662
0.00530651
0.00521631
0.00510436
0.00496874
0.00480711
0.00461672
0.00439423
0.00413559
0.00383586
0.00348885
0.00308662
0.00261883
0.00207246
0.00143446
0.000712064
9.04707e-05
0.00556122
0.00552944
0.00548023
0.00541238
0.00532448
0.00521486
0.00508153
0.00492211
0.00473375
0.00451294
0.00425538
0.00395567
0.00360689
0.00320002
0.00272322
0.00216149
0.00149963
0.000744783
9.37931e-05
0.00565156
0.00562259
0.00557627
0.00551139
0.00542651
0.00531992
0.00518958
0.00503305
0.00484736
0.00462885
0.00437298
0.00407397
0.00372438
0.00331444
0.00283132
0.00225877
0.00157976
0.000796525
9.77475e-05
0.00573397
0.0057085
0.00566582
0.00560465
0.00552353
0.00542068
0.005294
0.00514097
0.0049585
0.00474278
0.00448904
0.00419122
0.00384145
0.00342937
0.00294138
0.0023601
0.00166611
0.000855122
0.000102059
0.00580996
0.0057888
0.00575056
0.0056939
0.00561729
0.00551888
0.00539649
0.0052475
0.00506871
0.00485611
0.00460476
0.0043083
0.00395845
0.00354424
0.00305113
0.00246007
0.00174844
0.000905529
0.000106852
0.00588169
0.00586573
0.00583279
0.00578146
0.00571011
0.00561682
0.00549932
0.00535487
0.00518012
0.00497095
0.00472216
0.00442708
0.00407703
0.00366042
0.00316162
0.00255963
0.00182809
0.000949952
0.00011153
0.00595191
0.0059421
0.00591535
0.00587017
0.00580484
0.00571735
0.00560532
0.00546589
0.00529557
0.00509004
0.00484384
0.00455001
0.00419942
0.00377982
0.00327451
0.00266056
0.00190812
0.000994434
0.000115732
0.00602391
0.0060212
0.0060015
0.00596324
0.00590463
0.00582358
0.00571758
0.00558366
0.00541812
0.00521642
0.00497282
0.00468
0.00432835
0.00390497
0.00339211
0.00276507
0.00199081
0.00104114
0.000119406
0.00610129
0.00610655
0.00609468
0.00606403
0.00601277
0.00593871
0.00583928
0.00571132
0.00555095
0.00535333
0.00511238
0.00482031
0.004467
0.00403887
0.00351716
0.00287553
0.00207795
0.00109083
0.000123123
0.00618778
0.00620175
0.00619831
0.0061758
0.00613237
0.0060658
0.00597342
0.00585192
0.00569717
0.00550399
0.00526585
0.00497441
0.00461888
0.00418491
0.00365277
0.00299454
0.00217128
0.00114386
0.000127571
0.00628702
0.00631021
0.00631557
0.00630152
0.00626623
0.00620751
0.00612263
0.00600813
0.00585959
0.00567143
0.00543653
0.00514584
0.00478773
0.00434688
0.00380247
0.0031251
0.00227303
0.00120164
0.000132781
0.00640239
0.00643499
0.00644922
0.00644365
0.00641661
0.00636597
0.00628901
0.00618211
0.00604057
0.00585831
0.0056275
0.00533815
0.00497748
0.00452894
0.00397035
0.00327077
0.00238592
0.00126594
0.000138624
0.00653681
0.00657866
0.00660144
0.00660406
0.00658511
0.00654263
0.00647394
0.00637534
0.00624183
0.00606676
0.00584147
0.00555476
0.00519231
0.00473581
0.00416125
0.00343586
0.00251307
0.00133831
0.000145232
0.00669273
0.00674319
0.00677378
0.00678392
0.00677261
0.00673818
0.00667807
0.00658856
0.00646437
0.0062983
0.0060807
0.00579891
0.00543659
0.00497288
0.00438107
0.00362589
0.00265841
0.00142016
0.000153095
0.00687207
0.00692994
0.0069671
0.00698368
0.00697926
0.00695255
0.00690124
0.00682166
0.00670835
0.00655362
0.0063468
0.00607353
0.00571488
0.00524645
0.00463737
0.00384837
0.00282762
0.00151409
0.000162583
0.00707628
0.00713968
0.0071816
0.00720312
0.0072045
0.00718497
0.00714254
0.00707372
0.00697307
0.00683251
0.00664051
0.00638093
0.00603178
0.00556389
0.00494002
0.00411406
0.00302948
0.00162456
0.000173876
0.00730641
0.00737263
0.00741689
0.0074414
0.00744718
0.00743402
0.00740037
0.00734305
0.00725683
0.00713362
0.00696136
0.0067224
0.00639151
0.0059336
0.00530208
0.00443899
0.00327804
0.00175836
0.000187331
0.0075631
0.0076284
0.00767198
0.00769715
0.00770566
0.00769783
0.00767258
0.00762723
0.00755704
0.00745435
0.00730725
0.0070974
0.00679694
0.00636441
0.00574063
0.0048477
0.00359778
0.00192744
0.000203715
0.00784637
0.00790596
0.00794531
0.00796857
0.00797796
0.00797422
0.00795671
0.00792335
0.00787022
0.0077907
0.007674
0.00750258
0.00724791
0.00686368
0.00627658
0.00537837
0.00403497
0.00215794
0.000224698
0.00815511
0.0082034
0.00823478
0.00825355
0.00826199
0.00826095
0.00825017
0.00822825
0.00819234
0.00813744
0.00805503
0.00793054
0.0077384
0.00743283
0.00693112
0.00608837
0.0046829
0.00252143
0.000252816
0.00848624
0.00851766
0.00853775
0.00854987
0.00855572
0.008556
0.00855066
0.00853896
0.00851926
0.00848857
0.00844167
0.00836912
0.00825328
0.00805904
0.00771257
0.007052
0.00573453
0.0032395
0.000291629
0.00883393
0.00884456
0.00885129
0.0088554
0.0088575
0.00885785
0.00885647
0.00885316
0.00884741
0.00883834
0.00882432
0.00880236
0.00876658
0.00870424
0.00858386
0.00831335
0.00757236
0.00519942
0.000343883
)
;

boundaryField
{
    leftWall
    {
        type            nutkWallFunction;
        Cmu             0.09;
        kappa           0.41;
        E               9.8;
        value           nonuniform List<scalar> 
50
(
2.58499e-06
3.92287e-06
4.69038e-06
5.24686e-06
5.6815e-06
6.04117e-06
6.35188e-06
6.62943e-06
7.02687e-06
7.45542e-06
7.86893e-06
7.37608e-06
6.42304e-06
5.35869e-06
1.44135e-06
1.83891e-08
2.54165e-07
4.5396e-07
6.43848e-07
8.10314e-07
9.67365e-07
1.09872e-06
1.21019e-06
1.30795e-06
1.3956e-06
1.47308e-06
1.54018e-06
1.59572e-06
1.63928e-06
1.67094e-06
1.68727e-06
1.69112e-06
1.68459e-06
1.66898e-06
1.64582e-06
1.61602e-06
1.5791e-06
1.53015e-06
1.46703e-06
1.40003e-06
1.31978e-06
1.22381e-06
1.10613e-06
9.52581e-07
7.3792e-07
4.24086e-07
1.5586e-07
3.08594e-06
1.84869e-05
4.87442e-05
)
;
    }
    rightWall
    {
        type            nutkWallFunction;
        Cmu             0.09;
        kappa           0.41;
        E               9.8;
        value           nonuniform List<scalar> 
50
(
4.36872e-06
5.53802e-06
6.05206e-06
6.31576e-06
6.42873e-06
6.46569e-06
6.47749e-06
6.46085e-06
6.41318e-06
6.58327e-06
7.38836e-06
8.38977e-06
8.57902e-06
7.22923e-06
4.4659e-06
1.13802e-06
1.06128e-06
1.07504e-06
7.46254e-07
1.09887e-07
5.97429e-09
1.16709e-08
5.01436e-07
1.16157e-06
1.77084e-06
2.22347e-06
2.59189e-06
2.94672e-06
3.39528e-06
4.02696e-06
4.65211e-06
5.33066e-06
6.07948e-06
6.80875e-06
7.39202e-06
7.90032e-06
8.48701e-06
9.18312e-06
9.9741e-06
1.08332e-05
1.18144e-05
1.30048e-05
1.44168e-05
1.60708e-05
1.80222e-05
2.03675e-05
2.33406e-05
2.72685e-05
3.25972e-05
3.96243e-05
)
;
    }
    lowerWall
    {
        type            nutkWallFunction;
        Cmu             0.09;
        kappa           0.41;
        E               9.8;
        value           nonuniform List<scalar> 
62
(
9.2345e-07
1.75797e-06
2.22027e-06
2.52508e-06
2.74999e-06
2.92593e-06
3.06882e-06
3.18767e-06
3.28791e-06
3.373e-06
3.44654e-06
3.51445e-06
3.57324e-06
3.62026e-06
3.64617e-06
3.62829e-06
3.5121e-06
3.28793e-06
3.08269e-06
2.92597e-06
2.73961e-06
2.4141e-06
1.4323e-06
1.4323e-06
5.47777e-06
6.48472e-06
7.31635e-06
8.10864e-06
8.99101e-06
1.01358e-05
1.18627e-05
1.23017e-05
1.15822e-05
1.15142e-05
1.20957e-05
1.22014e-06
5.17402e-06
6.2578e-06
7.2115e-06
8.10422e-06
9.12157e-06
1.05039e-05
1.25683e-05
1.22014e-06
2.47344e-06
2.9718e-06
3.18819e-06
3.29027e-06
3.33278e-06
3.35165e-06
3.37368e-06
3.39834e-06
3.35594e-06
3.14983e-06
2.88886e-06
2.58119e-06
2.66296e-06
3.04266e-06
2.97864e-06
2.59903e-06
2.11127e-06
1.61383e-06
)
;
    }
    atmosphere
    {
        type            calculated;
        value           nonuniform List<scalar> 
46
(
0.009
0.000142581
0.000244019
0.000922298
0.00180114
0.00255554
0.00315538
0.00363497
0.00402828
0.004361
0.00465163
0.00491355
0.00515711
0.00539212
0.00563026
0.00588686
0.00618101
0.00653499
0.00697726
0.00755944
0.009
0.009
0.009
0.009
0.009
0.009
0.009
0.009
0.009
0.009
0.009
0.009
0.009
0.009
0.009
0.009
0.009
0.009
0.009
0.009
0.009
0.009
0.009
0.009
0.009
0.000343883
)
;
    }
    defaultFaces
    {
        type            empty;
    }
}


// ************************************************************************* //
