/*--------------------------------*- C++ -*----------------------------------*\
  =========                 |
  \\      /  F ield         | OpenFOAM: The Open Source CFD Toolbox
   \\    /   O peration     | Website:  https://openfoam.org
    \\  /    A nd           | Version:  9
     \\/     M anipulation  |
\*---------------------------------------------------------------------------*/
FoamFile
{
    format      ascii;
    class       volScalarField;
    location    "9.7";
    object      p_rgh;
}
// * * * * * * * * * * * * * * * * * * * * * * * * * * * * * * * * * * * * * //

dimensions      [1 -1 -2 0 0 0 0];

internalField   nonuniform List<scalar> 
2268
(
754.544
754.699
754.971
755.363
755.866
756.469
757.161
757.929
758.759
759.637
760.547
761.473
762.396
763.296
764.153
764.952
765.687
766.359
766.936
767.39
767.922
768.267
768.463
754.509
754.661
754.931
755.321
755.824
756.428
757.122
757.894
758.729
759.613
760.529
761.459
762.384
763.286
764.147
764.962
765.724
766.427
766.983
767.475
768.005
768.303
768.491
754.447
754.598
754.867
755.257
755.761
756.368
757.067
757.844
758.688
759.581
760.506
761.445
762.379
763.29
764.164
764.996
765.784
766.518
767.034
767.538
768.099
768.368
768.558
754.356
754.507
754.778
755.169
755.677
756.29
756.996
757.783
758.638
759.543
760.482
761.436
762.385
763.312
764.204
765.048
765.853
766.613
767.22
767.584
768.188
768.462
768.643
754.235
754.389
754.662
755.058
755.573
756.194
756.911
757.711
758.58
759.501
760.457
761.429
762.399
763.35
764.268
765.097
765.872
766.679
767.453
767.759
768.328
768.496
768.754
754.085
754.242
754.52
754.922
755.446
756.079
756.811
757.627
758.513
759.453
760.43
761.424
762.421
763.402
764.353
765.167
765.767
766.784
767.572
768.206
768.515
767.683
768.93
753.905
754.065
754.35
754.761
755.297
755.945
756.694
757.53
758.437
759.399
760.399
761.42
762.447
763.465
764.459
765.428
764.812
764.812
767.701
768.361
767.29
767.156
769.101
753.697
753.86
754.152
754.573
755.123
755.79
756.56
757.42
758.35
759.337
760.364
761.415
762.478
763.539
764.585
765.627
763.964
763.505
765.39
767.797
766.332
767.385
769.645
766.743
766.397
766.179
765.667
764.976
764.118
763.066
761.954
760.859
759.743
758.489
757.331
756.716
756.149
755.552
755.028
754.558
754.276
754.211
766.799
766.396
766.154
765.642
764.959
764.103
763.167
762.161
761.088
760.003
758.766
757.356
756.463
756.151
755.536
755.022
754.525
754.09
754.1
766.856
766.245
766.199
765.663
764.971
764.114
763.171
762.163
761.1
760.049
759.024
757.307
756.338
755.856
755.529
754.967
754.207
753.923
753.848
766.588
766.042
766.34
765.753
765.031
764.151
763.177
762.15
761.049
760.011
759.105
757.852
756.272
755.964
755.522
754.978
754.366
753.917
754.221
765.457
766.495
766.567
765.898
765.129
764.21
763.245
762.21
761.012
759.989
759.091
758.553
757.596
756.534
755.209
754.855
754.472
754.216
754.123
765.627
766.899
766.847
766.079
765.255
764.335
763.35
762.245
761.066
760.066
759.158
758.441
757.614
756.565
754.851
752.823
752.555
754.014
753.966
766.183
767.766
767.141
766.282
765.406
764.444
763.437
762.129
760.733
760.032
759.12
758.333
757.479
756.444
753.797
752.203
751.585
752.927
753.845
768.985
768.341
767.407
766.493
765.572
764.565
763.55
761.831
758.198
757.995
758.99
758.228
757.313
754.853
753.191
754.24
751.245
752.421
753.722
753.326
753.492
753.792
754.23
754.805
755.505
756.316
757.221
758.194
759.226
760.3
761.403
762.53
763.669
764.807
765.958
767.141
765.84
764.235
764.922
767.99
770.107
770.143
733.314
733.203
733.843
735.329
737.472
739.621
741.841
744.263
746.221
748.047
749.753
751.268
753.381
756.055
759.263
763.168
767.55
768.896
769.805
770.43
770.816
771.071
771.202
239.638
241.1
243.03
244.989
247.41
250.754
254.945
259.916
266.06
273.11
280.744
288.666
296.108
302.92
309.057
314.731
320.887
329.794
337.342
341.769
344.006
345.292
345.402
0.398775
0.398376
0.378458
0.412372
0.451238
0.464148
0.468994
0.484948
0.498387
0.500804
0.500455
0.499977
0.552866
0.601778
0.737145
0.945696
1.19745
0.922825
0.493414
0.480579
0.572007
0.582119
0.489091
0.644359
0.643804
0.378544
0.800551
1.30755
1.38203
1.38335
1.55188
1.69516
1.70842
1.71414
1.71456
1.69048
1.60741
1.58982
1.58634
1.47082
1.03596
0.454579
0.483478
0.571261
0.555636
0.391103
0.24127
0.268212
0.318029
0.228886
0.0107472
0.00849399
0.007338
0.00546965
0.00387693
0.00332532
0.0032936
0.00529689
0.00549389
0.022173
0.0274532
0.0262708
0.0464516
0.203296
0.288182
0.26211
0.285547
0.301614
0.163709
0.00809145
0.00748175
0.0125821
0.00663433
0.00698772
0.00659469
0.00602584
0.00497419
0.00394167
0.00327809
0.00594949
0.0465508
0.0550423
0.0542072
0.0530208
0.00986598
-0.00249294
-0.00184078
0.00620409
-0.00271549
0.00207382
0.0445298
0.0723569
0.0068832
0.00641951
0.00623879
0.00622722
0.00710366
0.00688253
0.00526116
0.00491493
0.00472247
0.00332223
0.00376371
0.0163759
0.0241218
0.0139685
0.00750512
0.00894782
-0.00227841
-0.00281724
-0.00283691
-0.00282797
-0.00313984
-0.00322351
-0.00119394
0.00619303
0.00588534
0.00566051
0.00571585
0.00778786
0.0074038
0.0063967
0.00605123
0.00679053
0.00600575
0.0015887
-0.000106941
-0.0010248
-0.001503
0.00272562
0.00863599
-0.00169156
-0.00240449
-0.00249437
-0.00255279
-0.00267883
-0.00253386
-0.0013564
0.00544411
0.0052146
0.00499619
0.00482245
0.00670935
0.00688491
0.00607264
0.00552186
0.00662917
0.00579431
0.00101201
7.61542e-05
-0.000539176
-0.00102014
-0.00108743
-0.000708689
-0.000920154
-0.00211507
-0.00225011
-0.0023517
-0.00245354
-0.00160776
0.0243973
0.00481833
0.00463677
0.00443461
0.00415729
0.00458791
0.00556059
0.00359194
0.00423069
0.00656741
0.00393446
0.000768769
0.00014936
0.000575474
0.00257732
0.00136098
-0.0013442
-0.0016218
-0.00187132
-0.00205347
-0.00222819
-0.00241531
-0.00126299
0.0287582
0.00426636
0.00412203
0.00394421
0.00368991
0.00338211
0.00308513
0.00271031
0.00320694
0.00658366
0.00213764
0.000660782
0.000151687
0.000670007
0.00904438
0.00959318
0.00364951
-0.00141839
-0.00169938
-0.00190874
-0.00212178
-0.00238346
-0.00267672
-0.00179127
0.00377999
0.0038062
0.00366655
0.00327633
0.0029983
0.00268628
0.00242978
0.00429091
0.00462495
0.000994762
0.00056764
0.000117228
0.000193119
0.00813616
0.0101562
0.0100135
0.00293205
-0.00160007
-0.00181288
-0.002017
-0.00227281
-0.00261713
-0.00306995
0.0033475
0.00344825
0.00330994
0.00292265
0.00265769
0.0024237
0.00393454
0.0046858
0.0031814
0.000875537
0.000491014
8.51689e-05
-0.000349052
-0.000260024
0.00736189
0.0105282
0.00672974
-0.00154897
-0.0017067
-0.00189035
-0.00209821
-0.00234965
-0.0026367
0.00295611
0.00308788
0.0029671
0.00259236
0.00234998
0.00254673
0.00497897
0.00463255
0.00216109
0.000770199
0.000431088
7.30457e-05
-0.000303884
-0.000684595
-0.000390857
0.000771273
0.000615627
-0.00126547
-0.00158499
-0.00173503
-0.00189186
-0.00207821
-0.00224522
0.00260522
0.00261693
0.00258643
0.00228774
0.00207695
0.00212803
0.00485425
0.00433184
0.000960416
0.000683764
0.00038719
7.54859e-05
-0.000246261
-0.000572094
-0.000876254
-0.00111194
-0.00124634
-0.00129983
-0.00142962
-0.00155186
-0.00168859
-0.00184018
-0.00197028
0.00230261
0.00225014
0.00216245
0.00202129
0.00184194
0.00172877
0.00183583
0.00162564
0.000861828
0.000617031
0.000356136
8.49728e-05
-0.000189534
-0.000460128
-0.000710344
-0.000915834
-0.0010667
-0.0011814
-0.00128658
-0.0013973
-0.00151315
-0.00162413
-0.00170732
0.00204691
0.00200488
0.00192137
0.00179888
0.0016458
0.00147631
0.00122111
0.000998718
0.000785938
0.000565049
0.000334153
9.75423e-05
-0.00013856
-0.000368031
-0.000580634
-0.000763357
-0.000911109
-0.00103315
-0.00114412
-0.00124785
-0.00134251
-0.00142288
-0.00148068
0.00182692
0.00190431
0.00171789
0.00160437
0.00147285
0.00130843
0.00110891
0.000915265
0.000721298
0.000522238
0.000317641
0.000110744
-9.41235e-05
-0.000291938
-0.000475945
-0.000638885
-0.00077773
-0.000896359
-0.00100144
-0.00109502
-0.00117599
-0.00124101
-0.00128452
0.00228022
0.0022645
0.00153833
0.00143058
0.00131632
0.00116723
0.00100411
0.000835403
0.000662567
0.0004852
0.000304495
0.000123047
-5.5852e-05
-0.000228182
-0.000389255
-0.000534628
-0.000662191
-0.000773205
-0.000870374
-0.000954624
-0.00102508
-0.0010794
-0.00111394
0.00227521
0.00209234
0.00136324
0.00127448
0.00117391
0.00104605
0.000908267
0.000761483
0.000609018
0.000452303
0.000293085
0.000133685
-2.3124e-05
-0.000174167
-0.000316037
-0.000445691
-0.000561421
-0.000663247
-0.000751993
-0.000827807
-0.000889891
-0.000936556
-0.000965415
0.00214619
0.00137948
0.00120525
0.00113565
0.001047
0.000940019
0.00082164
0.000694112
0.00056044
0.000422628
0.000282601
0.000142519
4.77048e-06
-0.000128073
-0.000253409
-0.000368953
-0.000473205
-0.000565605
-0.000646078
-0.000714333
-0.000769613
-0.000810668
-0.000835908
0.00204047
0.00110829
0.00107247
0.00101336
0.000936747
0.000846033
0.000744018
0.000633366
0.000516607
0.000395783
0.000272822
0.000149718
2.85575e-05
-8.85187e-05
-0.000199421
-0.000302312
-0.000395839
-0.000479196
-0.000551897
-0.000613432
-0.000663094
-0.000699935
-0.000722874
0.00195133
0.00120541
0.000956547
0.000905277
0.000840149
0.000762611
0.000674833
0.000579013
0.000477286
0.000371577
0.000263723
0.000155552
4.89023e-05
-5.43984e-05
-0.000152608
-0.000244184
-0.000327901
-0.000402875
-0.000468457
-0.000524054
-0.000569021
-0.00060262
-0.00062411
0.00187339
0.00183782
0.000854113
0.000808616
0.000754204
0.000688532
0.000613411
0.000530682
0.000442241
0.000349891
0.000255355
0.000160306
6.63829e-05
-2.4829e-05
-0.000111841
-0.000193324
-0.000268175
-0.000335523
-0.000394679
-0.000445045
-0.000486046
-0.000517097
-0.000537687
0.00180494
0.00178198
0.000760675
0.000721998
0.000677876
0.000623108
0.000559262
0.000488044
0.000411259
0.00033063
0.000247776
0.000164236
8.14793e-05
8.97053e-07
-7.62207e-05
-0.00014872
-0.000215615
-0.000276095
-0.000329497
-0.000375257
-0.000412873
-0.000441879
-0.000461918
0.00174516
0.00156933
0.000672254
0.00064585
0.000611285
0.00056618
0.000512128
0.000450854
0.000384154
0.000313699
0.00024102
0.000167537
9.45685e-05
2.33384e-05
-4.50319e-05
-0.000109541
-0.000169322
-0.000223647
-0.00027191
-0.000313607
-0.000348305
-0.000375633
-0.000395346
0.0015964
0.000736665
0.000599316
0.000581352
0.000554931
0.00051778
0.000471834
0.000418877
0.000360718
0.000298966
0.000235069
0.000170329
0.000105924
4.29226e-05
-1.7708e-05
-7.51085e-05
-0.000128532
-0.000177344
-0.000221017
-0.000259112
-0.000291267
-0.000317188
-0.000336704
0.000676207
0.000539147
0.00054023
0.000529877
0.000509058
0.00047776
0.000438095
0.000391803
0.000340661
0.00028622
0.000229822
0.000172643
0.000115716
5.99597e-05
6.18992e-06
-4.48725e-05
-9.26015e-05
-0.000136465
-0.000176019
-0.0002109
-0.000240813
-0.000265524
-0.000284918
0.000516298
0.000483516
0.000494749
0.00048983
0.000472803
0.000445481
0.000410295
0.000369073
0.000323529
0.000275126
0.000225078
0.000174413
0.000124016
7.46551e-05
2.6991e-05
-1.83945e-05
-6.09972e-05
-0.000100391
-0.000136224
-0.000168208
-0.000196113
-0.000219761
-0.000239069
0.000457032
0.000457028
0.000463698
0.000460086
0.000444999
0.000419926
0.00038758
0.000349949
0.000308713
0.000265217
0.000220515
0.000175469
0.000130804
8.71221e-05
4.49292e-05
4.66808e-06
-3.32804e-05
-6.86e-05
-0.000101033
-0.000130371
-0.000156448
-0.000179135
-0.00019837
0.000401195
0.00043583
0.000439002
0.000437734
0.000424217
0.000399972
0.000368876
0.000333474
0.000295426
0.000255888
0.00021571
0.000175556
0.000135974
9.73914e-05
6.01564e-05
2.4575e-05
-9.09638e-06
-4.06519e-05
-6.99308e-05
-9.68095e-05
-0.000121189
-0.000142985
-0.000162146
0.000380411
0.000397913
0.000415556
0.000422175
0.000410073
0.000384639
0.000352961
0.00031849
0.000282697
0.000246395
0.000210135
0.00017434
0.000139355
0.000105429
7.27568e-05
4.15126e-05
1.1833e-05
-1.61852e-05
-4.24812e-05
-6.7021e-05
-8.97806e-05
-0.000110726
-0.000129809
0.000369126
0.000368464
0.000401493
0.000418842
0.000403224
0.000372609
0.000338068
0.000303436
0.000269322
0.000235864
0.000203191
0.000171437
0.000140731
0.000111153
8.2759e-05
5.56042e-05
2.97168e-05
5.09042e-06
-1.83147e-05
-4.05631e-05
-6.17227e-05
-8.18276e-05
-0.000100835
0.000336039
0.000409416
0.000405318
0.0019837
0.000417969
0.000362671
0.000320617
0.000285884
0.000253757
0.000223309
0.000194247
0.000166452
0.000139879
0.000114463
9.01561e-05
6.69217e-05
4.47005e-05
2.33971e-05
2.87398e-06
-1.70448e-05
-3.65503e-05
-5.57876e-05
-7.47441e-05
0.000317045
0.000464698
0.00334023
0.00442378
0.00383997
0.000775762
0.000294834
0.000262943
0.000234416
0.000207837
0.000182794
0.000159102
0.000136647
0.000115292
9.49417e-05
7.55089e-05
5.68801e-05
3.88962e-05
2.13323e-05
3.88646e-06
-1.38059e-05
-3.20916e-05
-5.10692e-05
0.00031475
0.000395198
0.00449866
0.00447795
0.00444732
0.001182
0.000258959
0.000234047
0.000210969
0.000189258
0.000168733
0.000149344
0.000131017
0.000113638
9.71223e-05
8.13799e-05
6.62872e-05
5.16602e-05
3.72128e-05
2.2512e-05
6.95422e-06
-1.01787e-05
-2.9333e-05
0.000317686
0.000403751
0.00239689
0.0045263
0.00370548
0.000672552
0.000218767
0.000201583
0.000184551
0.000168072
0.000152253
0.000137201
0.000122923
0.000109377
9.65281e-05
8.4325e-05
7.2682e-05
6.14455e-05
5.03222e-05
3.87823e-05
2.59594e-05
1.05486e-05
-9.10202e-06
0.000430156
0.00042253
0.000341892
0.001675
0.000564211
0.000218625
0.000179822
0.000168031
0.000156312
0.000144743
0.000133439
0.000122542
0.000112105
0.000102161
9.27356e-05
8.38427e-05
7.54784e-05
6.75844e-05
5.99536e-05
5.20853e-05
4.29892e-05
3.07355e-05
9.85843e-06
0.000536352
0.000443866
0.000320178
0.000229395
0.00017729
0.000154288
0.00014374
0.000136283
0.000129298
0.000122257
0.000115166
0.000108125
0.000101221
9.45469e-05
8.81859e-05
8.22287e-05
7.67818e-05
7.19392e-05
6.76981e-05
6.38652e-05
5.95585e-05
5.05445e-05
2.88358e-05
0.000619534
0.000420799
0.000275295
0.000191175
0.000142049
0.000124101
0.000119838
0.000117952
0.000115699
0.000112835
0.000109496
0.00010581
0.000101909
9.79196e-05
9.39709e-05
9.02266e-05
8.69121e-05
8.43029e-05
8.26963e-05
8.27196e-05
8.54235e-05
8.53458e-05
5.75682e-05
0.000495362
5.50835e-05
0.000121691
0.000106586
9.63718e-05
9.57442e-05
9.82086e-05
9.96371e-05
9.98534e-05
9.9357e-05
9.83647e-05
9.69582e-05
9.51951e-05
9.3145e-05
9.09127e-05
8.86633e-05
8.66503e-05
8.52182e-05
8.48382e-05
8.69672e-05
9.70677e-05
0.000120932
9.67875e-05
770.351
770.323
770.197
769.903
771.081
770.951
770.905
770.309
345.828
345.195
344.098
342.66
0.429965
0.626071
0.675813
0.568398
0.316678
0.615789
0.681858
0.445543
0.113648
0.319451
0.465734
0.401674
0.017492
0.0065242
0.00161408
0.0156332
6.36217e-05
-0.00166234
-0.0019389
-0.00170647
0.0207506
0.0313609
0.00730893
0.000709443
0.0333313
0.0334445
0.0336931
0.0339528
0.0349173
0.0350679
0.0352302
0.0354189
0.0120066
0.0367756
0.0368161
0.036919
-0.00342592
-0.00361823
-0.00366756
-0.00359538
-0.00281271
-0.00289905
-0.0029182
-0.0028745
-0.00232391
-0.00235296
-0.00222797
-0.00204049
-0.00201799
-0.00202828
-0.00166932
-0.00142372
-0.00173465
-0.00174039
-0.00173094
-0.00158835
-0.00149683
-0.00149817
-0.00148952
-0.00147182
-0.00129466
-0.00129393
-0.00128539
-0.00126968
-0.00112116
-0.00111981
-0.00111217
-0.00109879
-0.000971357
-0.000970202
-0.000963945
-0.000953003
-0.000841544
-0.000841025
-0.000836351
-0.000827825
-0.000728777
-0.00072911
-0.000726046
-0.000719801
-0.000630605
-0.000631877
-0.000630355
-0.000626195
-0.000544944
-0.000547161
-0.000547067
-0.000544777
-0.000470004
-0.00047313
-0.000474334
-0.000473705
-0.000404258
-0.000408233
-0.000410603
-0.000411442
-0.000346407
-0.000351158
-0.000354568
-0.000356703
-0.00029535
-0.000300802
-0.000305134
-0.000308412
-0.000250158
-0.000256235
-0.000261383
-0.000265666
-0.000210043
-0.000216676
-0.000222542
-0.000227711
-0.000174337
-0.000181462
-0.000187963
-0.000193913
-0.000142466
-0.000150033
-0.000157099
-0.00016374
-0.000113934
-0.000121911
-0.000129491
-0.00013675
-8.83051e-05
-9.66892e-05
-0.000104756
-0.000112583
-6.51983e-05
-7.40367e-05
-8.26018e-05
-9.09647e-05
-4.42942e-05
-5.37219e-05
-6.28488e-05
-7.17348e-05
-2.53941e-05
-3.56788e-05
-4.54991e-05
-5.48874e-05
-8.70375e-06
-2.02498e-05
-3.08794e-05
-4.06366e-05
4.81548e-06
-8.73118e-06
-1.9902e-05
-2.94589e-05
1.46721e-05
-4.06896e-06
-1.49633e-05
-2.23178e-05
3.41689e-05
1.08083e-05
-1.02396e-06
-7.98541e-06
769.685
768.637
767.787
766.849
765.723
763.717
762.569
761.756
757.198
753.322
752.313
752.592
751.449
750.949
754.585
753.924
753.242
752.731
753.174
770.511
767.71
763.957
760.264
757.201
754.797
752.463
751.73
753.747
753.07
751.699
749.012
746.673
744.433
741.806
739.488
737.788
733.557
731.751
340.077
334.56
330.695
326.718
322.288
317.439
311.603
304.56
297.369
290.874
283.514
276.973
271.225
265.252
259.143
255.302
253.431
253.2
252.86
0.425817
0.834457
0.866716
0.853793
0.817379
0.558634
0.384538
0.2979
0.287492
0.280782
0.269088
0.248231
0.228438
0.250761
0.264892
0.269648
0.270803
0.270829
0.265388
0.34475
0.817909
0.823445
0.795948
0.810345
0.831671
0.841744
0.848791
0.84761
0.807489
0.688339
0.48472
0.236706
0.482572
0.574629
0.576368
0.577525
0.577873
0.507316
0.204377
0.189936
0.207291
0.184426
0.147969
0.11886
0.0948872
0.0752452
0.032737
0.0236319
0.0257732
0.0286045
0.105064
0.0906151
0.0827622
0.115211
0.130728
0.140995
0.183549
0.0300825
-0.00100977
-0.000535672
0.00128469
0.00378036
0.0123377
0.0150505
0.0149818
0.0165701
0.0296496
0.0445475
0.0601716
0.0596169
0.03787
0.0116486
0.00987149
0.00955724
0.00946441
0.00968857
-0.00072242
-0.000800893
-0.000304806
0.00378049
0.0367582
0.0502853
0.0509773
0.0316422
0.0466373
0.0663156
0.0671082
0.0682012
0.0685109
0.0514804
0.0106729
0.00867454
0.00861882
0.00864623
0.00876902
-9.14249e-05
-0.000669209
-0.000564154
0.0211065
0.0512275
0.0514445
0.0365602
0.0435997
0.037699
0.0176897
0.0308517
0.0458126
0.0449889
0.014069
0.00734671
0.00770657
0.00785799
0.00796986
0.00816689
0.0219487
-0.000778785
-0.00101321
0.0071751
0.0170959
0.00776123
-0.000520102
0.000363204
0.000858668
0.00166331
0.00219874
0.00286455
0.00597236
0.0126877
0.00654344
0.00700384
0.00724706
0.00736654
0.0074791
0.0357818
0.0248624
-0.00151662
-0.00163911
-0.00175129
-0.00131533
-9.76955e-05
0.000904972
0.0010734
0.00144797
0.00239786
0.0111455
0.0168778
0.00995946
0.00600722
0.00648076
0.00675252
0.00687293
0.00686145
0.0249156
0.00914012
-0.0018652
-0.00161227
-0.00144995
-0.000588718
0.000379998
0.000932516
0.00086303
0.00123953
0.00353715
0.0168571
0.0175874
0.015019
0.00557355
0.00605923
0.0063509
0.0064472
0.0063145
-0.00331178
-0.00260023
-0.00192266
-0.00154731
-0.00125173
-0.000875751
-0.000424988
4.67365e-05
0.000547618
0.00102853
0.00143734
0.00793371
0.0178975
0.0187227
0.00836628
0.00567022
0.00601306
0.00608403
0.00583617
-0.002711
-0.00225813
-0.00178329
-0.00143002
-0.00112252
-0.000776336
-0.000381532
3.15197e-05
0.000448671
0.000847838
0.00119573
0.0014711
0.00924358
0.0154556
0.0092011
0.0083576
0.0138341
0.0128094
0.00804102
-0.00189301
-0.00172137
-0.00156694
-0.00129523
-0.00100196
-0.000685872
-0.000344433
8.34893e-06
0.000360193
0.000695834
0.000998312
0.00126044
0.00152554
0.00194392
0.00655335
0.0269571
0.0271709
0.0271545
0.0268982
-0.00134928
-0.00112066
-0.000930593
-0.00113931
-0.000895733
-0.000615308
-0.000306361
6.13521e-06
0.000285261
0.000562272
0.000821758
0.00105408
0.00128665
0.00155599
0.00424278
0.0205684
0.026305
0.0154522
0.00865558
-0.00120585
-0.000879408
-0.000664082
-0.000494454
-0.000806624
-0.000559823
-0.00021116
0.000112734
0.000278323
0.000448757
0.000662111
0.000858641
0.0010391
0.00120511
0.00128992
0.00119332
0.00121707
0.00139036
0.00134013
-0.00142777
-0.00108003
-0.000560158
-0.000510788
-0.000711746
-0.00051244
-0.000161657
8.83381e-05
0.000303171
0.00039441
0.000520101
0.000683624
0.000825813
0.000942711
0.00100525
0.00100554
0.00105332
0.00115901
0.00109948
-0.0012332
-0.00113368
-0.001001
-0.000841527
-0.000662385
-0.000475698
-0.000214967
6.55175e-05
0.000237749
0.000295742
0.000394958
0.000530284
0.000644358
0.00073422
0.000791618
0.000821622
0.000883235
0.00100793
0.0010724
-0.00106803
-0.000987321
-0.000878594
-0.000747723
-0.000601826
-0.000448711
-0.000293132
-0.000127873
3.19902e-05
0.00015693
0.000286017
0.000396841
0.00048851
0.000559357
0.00060845
0.000645054
0.00070281
0.000901825
0.00533057
-0.000927658
-0.000862435
-0.000773873
-0.000666583
-0.000546111
-0.000418399
-0.000287838
-0.000157901
-3.20008e-05
8.5894e-05
0.000191261
0.000281119
0.00035384
0.000408575
0.000446329
0.000474381
0.000509177
0.000664046
0.006934
-0.000807575
-0.000755324
-0.000683618
-0.000596107
-0.000497198
-0.000391573
-0.0002832
-0.000175511
-7.18272e-05
2.43832e-05
0.000109647
0.000181379
0.000238008
0.000278859
0.000304625
0.000319436
0.000330898
0.000338462
0.00699712
-0.000704239
-0.000663004
-0.000605532
-0.000534772
-0.000454281
-0.000367838
-0.000278929
-0.000190736
-0.000106293
-2.85749e-05
3.96204e-05
9.61233e-05
0.000139489
0.000168964
0.000184502
0.000186889
0.000178916
0.000174581
0.00709361
-0.000614863
-0.000583071
-0.000537728
-0.000481251
-0.000416552
-0.000346735
-0.000274805
-0.000203589
-0.000135754
-7.38031e-05
-1.9972e-05
2.40075e-05
5.69799e-05
7.82974e-05
8.74632e-05
8.32159e-05
6.56533e-05
5.68752e-05
0.00641026
-0.000537218
-0.000513569
-0.000478622
-0.000434385
-0.000383268
-0.000327848
-0.000270678
-0.0002142
-0.000160675
-0.000112155
-7.03348e-05
-3.64186e-05
-1.10254e-05
5.78954e-06
1.42045e-05
1.3846e-05
6.14988e-06
1.14502e-05
0.000399876
-0.00046949
-0.000452886
-0.00042689
-0.000393181
-0.000353774
-0.000310816
-0.00026645
-0.000222754
-0.000181589
-0.000144556
-0.000112833
-8.70213e-05
-6.69866e-05
-5.17317e-05
-3.92649e-05
-2.62376e-05
-6.18374e-06
3.1648e-05
0.000110905
-0.000410183
-0.00039969
-0.000381421
-0.000356789
-0.000327487
-0.000295312
-0.000262068
-0.000229473
-0.000199041
-0.000171968
-0.000148962
-0.000130045
-0.000114315
-9.96523e-05
-8.20293e-05
-5.38446e-05
-3.73126e-06
6.50705e-05
0.000236662
-0.000358054
-0.000352868
-0.000341277
-0.000324476
-0.000303901
-0.000281059
-0.000257467
-0.000234552
-0.000213533
-0.00019528
-0.000180137
-0.000167685
-0.000156468
-0.000143606
-0.000123839
-8.73242e-05
-2.10978e-05
6.18551e-05
0.00544032
-0.000312067
-0.000311485
-0.000305663
-0.000295614
-0.00028256
-0.000267781
-0.000252568
-0.000238122
-0.000225441
-0.000215174
-0.000207436
-0.000201575
-0.000195894
-0.000187307
-0.000170517
-0.000136269
-7.34836e-05
4.39723e-06
0.00887196
-0.000271354
-0.00027476
-0.000273905
-0.00026965
-0.000263049
-0.000255208
-0.000247248
-0.000240214
-0.000234967
-0.000232038
-0.000231452
-0.00023251
-0.000233534
-0.000231589
-0.000221979
-0.000197195
-0.000148291
-8.12392e-05
0.00904199
-0.000235189
-0.000242032
-0.000245425
-0.000246103
-0.000244985
-0.000243056
-0.000241323
-0.000240744
-0.000242117
-0.000245954
-0.000252306
-0.000260557
-0.000269183
-0.000275523
-0.000275497
-0.000262837
-0.000228453
-0.000166523
0.00914592
-0.000202968
-0.000212749
-0.000219731
-0.000224541
-0.000228005
-0.000231026
-0.000234554
-0.000239514
-0.000246718
-0.000256736
-0.000269739
-0.000285281
-0.000302085
-0.000317828
-0.000328818
-0.000329426
-0.000308819
-0.000247896
0.00897155
-0.000174185
-0.000186444
-0.000196394
-0.000204577
-0.000211757
-0.000218799
-0.000226639
-0.000236225
-0.000248436
-0.000263973
-0.0002832
-0.000305932
-0.000331218
-0.000357108
-0.000380122
-0.000395077
-0.000389514
-0.000330449
0.00916184
-0.000148423
-0.000162727
-0.000175039
-0.000185848
-0.000195891
-0.000206031
-0.000217227
-0.000230488
-0.000246808
-0.000267071
-0.000291906
-0.000321474
-0.000355195
-0.00039144
-0.000426845
-0.000455672
-0.000464739
-0.000411378
0.00933372
-0.000125345
-0.000141263
-0.000155324
-0.000168001
-0.000180043
-0.000192344
-0.000205915
-0.000221846
-0.000241272
-0.000265299
-0.00029488
-0.000330591
-0.000372259
-0.000418511
-0.000465653
-0.0005014
-0.000514665
-0.000461846
0.00319375
-0.000104686
-0.000121763
-0.000136915
-0.000150666
-0.00016382
-0.000177329
-0.000192261
-0.000209792
-0.000231202
-0.000257839
-0.00029104
-0.000331933
-0.000380866
-0.000436738
-0.000495148
-0.000530262
-0.00053741
-0.000469651
-0.000269754
-8.6259e-05
-0.000103958
-0.000119457
-0.000133428
-0.000146782
-0.000160535
-0.000175798
-0.000193807
-0.00021596
-0.000243847
-0.000279246
-0.000323978
-0.000379346
-0.000445126
-0.00051717
-0.000561872
-0.000575236
-0.000487496
0.000956293
-6.99353e-05
-8.75454e-05
-0.00010251
-0.000115787
-0.000128426
-0.000141482
-0.000156063
-0.0001734
-0.000194942
-0.000222468
-0.000258188
-0.00030478
-0.00036509
-0.000441181
-0.000532069
-0.000613372
-0.000650931
-0.000559749
0.00302962
-5.56065e-05
-7.20862e-05
-8.54501e-05
-9.70728e-05
-0.000108121
-0.000119615
-0.000132563
-0.000148087
-0.000167565
-0.000192816
-0.000226351
-0.000271686
-0.00033353
-0.000417665
-0.000530584
-0.000670615
-0.000783523
-0.00069958
0.00296445
-4.30084e-05
-5.67446e-05
-6.72508e-05
-7.62796e-05
-8.49709e-05
-9.41594e-05
-0.000104622
-0.000117229
-0.000133103
-0.000153837
-0.000181858
-0.000221016
-0.000277342
-0.000360417
-0.000488578
-0.00069268
-0.000943854
-0.000913901
0.00270194
-3.09894e-05
-3.99229e-05
-4.65289e-05
-5.23643e-05
-5.82613e-05
-6.46953e-05
-7.20795e-05
-8.08927e-05
-9.17916e-05
-0.000105789
-0.000124599
-0.000151297
-0.000191429
-0.000255668
-0.000372601
-0.000622416
-0.00107928
-0.00123661
0.00199986
-1.44858e-05
-1.95448e-05
-2.31726e-05
-2.67713e-05
-3.07219e-05
-3.51243e-05
-4.00251e-05
-4.54816e-05
-5.16064e-05
-5.86454e-05
-6.71625e-05
-7.85093e-05
-9.59052e-05
-0.000126963
-0.000193912
-0.00037721
-0.000884698
-0.00143451
0.00115344
)
;

boundaryField
{
    leftWall
    {
        type            fixedFluxPressure;
        gradient        uniform 0;
        value           nonuniform List<scalar> 
50
(
754.544
754.509
754.447
754.356
754.235
754.085
753.905
753.697
753.326
733.314
239.638
0.398775
0.644359
0.24127
0.00809145
0.0068832
0.00619303
0.00544411
0.00481833
0.00426636
0.00377999
0.0033475
0.00295611
0.00260522
0.00230261
0.00204691
0.00182692
0.00228022
0.00227521
0.00214619
0.00204047
0.00195133
0.00187339
0.00180494
0.00174516
0.0015964
0.000676207
0.000516298
0.000457032
0.000401195
0.000380411
0.000369126
0.000336039
0.000317045
0.00031475
0.000317686
0.000430156
0.000536352
0.000619534
0.000495362
)
;
    }
    rightWall
    {
        type            fixedFluxPressure;
        gradient        uniform 0;
        value           nonuniform List<scalar> 
50
(
754.211
754.1
753.848
754.221
754.123
753.966
753.845
753.722
753.174
731.751
252.86
0.265388
0.507316
0.183549
0.00968857
0.00876902
0.00816689
0.0074791
0.00686145
0.0063145
0.00583617
0.00804102
0.0268982
0.00865558
0.00134013
0.00109948
0.0010724
0.00533057
0.006934
0.00699712
0.00709361
0.00641026
0.000399876
0.000110905
0.000236662
0.00544032
0.00887196
0.00904199
0.00914592
0.00897155
0.00916184
0.00933372
0.00319375
-0.000269754
0.000956293
0.00302962
0.00296445
0.00270194
0.00199986
0.00115344
)
;
    }
    lowerWall
    {
        type            fixedFluxPressure;
        gradient        uniform 0;
        value           nonuniform List<scalar> 
62
(
754.544
754.699
754.971
755.363
755.866
756.469
757.161
757.929
758.759
759.637
760.547
761.473
762.396
763.296
764.153
764.952
765.687
766.359
766.936
767.39
767.922
768.267
768.463
768.463
768.491
768.558
768.643
768.754
768.93
769.101
769.645
770.351
770.323
770.197
769.903
766.743
766.799
766.856
766.588
765.457
765.627
766.183
768.985
766.743
766.397
766.179
765.667
764.976
764.118
763.066
761.954
760.859
759.743
758.489
757.331
756.716
756.149
755.552
755.028
754.558
754.276
754.211
)
;
    }
    atmosphere
    {
        type            totalPressure;
        rho             rho;
        psi             none;
        gamma           1;
        p0              uniform 0;
        value           nonuniform List<scalar> 
46
(
-4.87404e-05
0
0
0
0
0
0
0
0
0
0
0
0
0
0
0
0
0
0
0
0
0
-2.17532e-07
-7.48843e-07
-1.25787e-06
-1.89493e-06
-2.65561e-06
-4.19944e-06
-6.87497e-06
-1.0097e-05
-1.38014e-05
-1.79171e-05
-2.23635e-05
-2.70487e-05
-3.18669e-05
-3.66962e-05
-4.13955e-05
-4.57999e-05
-4.97127e-05
-5.28885e-05
-5.49925e-05
-5.54947e-05
-5.33564e-05
-4.61548e-05
-2.58804e-05
0
)
;
    }
    defaultFaces
    {
        type            empty;
    }
}


// ************************************************************************* //
