/*--------------------------------*- C++ -*----------------------------------*\
  =========                 |
  \\      /  F ield         | OpenFOAM: The Open Source CFD Toolbox
   \\    /   O peration     | Website:  https://openfoam.org
    \\  /    A nd           | Version:  9
     \\/     M anipulation  |
\*---------------------------------------------------------------------------*/
FoamFile
{
    format      ascii;
    class       volScalarField;
    location    "6.32";
    object      k;
}
// * * * * * * * * * * * * * * * * * * * * * * * * * * * * * * * * * * * * * //

dimensions      [0 2 -2 0 0 0 0];

internalField   nonuniform List<scalar> 
2268
(
0.000183712
0.000449404
0.000655727
0.000816353
0.000947945
0.0010588
0.00115392
0.00123635
0.00130804
0.00137142
0.00143004
0.00148375
0.00153211
0.00157059
0.00158954
0.00156886
0.00146712
0.00130391
0.00114591
0.00102817
0.000905342
0.000723768
0.000329138
0.000394527
0.00104252
0.00147069
0.00180856
0.00208641
0.00232039
0.00252091
0.0026948
0.00284664
0.00297971
0.00309802
0.00320418
0.00329653
0.00336656
0.00339576
0.00335161
0.00319038
0.00290554
0.00260831
0.00234321
0.00206632
0.00161057
0.000740671
0.000559142
0.00139391
0.00192326
0.00234167
0.00268707
0.00297806
0.00322678
0.00344161
0.00362853
0.00379195
0.00393637
0.00406413
0.00417253
0.00425162
0.00428203
0.00423337
0.00407044
0.00379157
0.00348131
0.00316881
0.00280279
0.00221808
0.00103352
0.000699571
0.00167474
0.00227202
0.00274213
0.00313095
0.00345871
0.00373851
0.0039797
0.00418916
0.00437206
0.004533
0.00467408
0.00479197
0.00487634
0.00490898
0.00486454
0.00471728
0.00446482
0.00416917
0.003847
0.00344497
0.00279216
0.00132017
0.000822236
0.00192179
0.00257484
0.00308463
0.00350596
0.00386101
0.0041638
0.00442446
0.0046506
0.00484793
0.00502109
0.00517207
0.00529723
0.00538655
0.00542389
0.00538929
0.0052654
0.00504856
0.00478059
0.00447017
0.00406405
0.00337605
0.0016329
0.000932874
0.00214818
0.00285168
0.00339513
0.00384281
0.00421942
0.00454014
0.00481596
0.00505511
0.00526379
0.00544664
0.00560575
0.00573745
0.00583247
0.00587714
0.00585647
0.00576
0.00558489
0.0053534
0.00506827
0.0046784
0.00398248
0.00203587
0.00103554
0.00236081
0.00311212
0.00368584
0.00415581
0.00454992
0.00488489
0.00517268
0.00542218
0.00564003
0.00583091
0.00599716
0.00613533
0.00623723
0.0062917
0.0062881
0.00622108
0.00608984
0.00590098
0.00564951
0.00529229
0.004638
0.0026121
0.00113317
0.00256426
0.00336197
0.00396383
0.00445297
0.00486126
0.00520745
0.00550464
0.00576239
0.0059877
0.0061855
0.00635836
0.00650327
0.00661329
0.00667967
0.00669528
0.00665823
0.00656903
0.00642475
0.00621109
0.00589728
0.00534999
0.00366862
0.000302255
0.000859324
0.0011658
0.00131079
0.00138804
0.00142435
0.00145252
0.0014805
0.00148526
0.00139624
0.00122315
0.00103059
0.000837501
0.000795091
0.000970938
0.000953339
0.000712159
0.000490537
0.000301795
0.000590925
0.00180148
0.00240771
0.00273009
0.00290124
0.00298823
0.0030366
0.00305992
0.00302189
0.00284836
0.00253141
0.0021984
0.00187185
0.00176889
0.00198323
0.00189572
0.00149022
0.00103731
0.000476514
0.000846624
0.0022975
0.00305807
0.00346087
0.00367168
0.00377747
0.00382978
0.00384258
0.00377837
0.00357372
0.00324399
0.00288451
0.00253474
0.00238956
0.00250014
0.00235172
0.00188604
0.00130479
0.000555714
0.00113424
0.00275355
0.00358352
0.00401433
0.00423616
0.00434406
0.00439092
0.00439008
0.00430573
0.00408503
0.00375352
0.00339352
0.00304725
0.00287332
0.00289164
0.00269139
0.00218281
0.00149116
0.000610955
0.00145561
0.00324406
0.00408205
0.00450402
0.00471715
0.00481594
0.00485098
0.00483447
0.00473354
0.00450419
0.00417379
0.00382136
0.00348608
0.0032919
0.00323304
0.0029885
0.00244434
0.00165591
0.000671872
0.00187367
0.0037843
0.00457945
0.00496502
0.0051552
0.00523685
0.00525542
0.00522172
0.00510644
0.00487296
0.00454804
0.00420658
0.00388503
0.00367755
0.00354851
0.00326068
0.00268158
0.00182908
0.000737723
0.00250915
0.00438166
0.005081
0.00540978
0.00556733
0.00562639
0.00562516
0.00557305
0.00544506
0.00521053
0.00489849
0.00457105
0.00426397
0.00403936
0.00384539
0.00351086
0.00289537
0.00201786
0.000812358
0.00355386
0.00503471
0.00558225
0.00584185
0.00596133
0.00599454
0.00597143
0.00590008
0.00576079
0.00552828
0.0052355
0.00492645
0.00462875
0.00437503
0.00412381
0.00373936
0.00308895
0.00221686
0.000901571
0.00128241
0.00287317
0.00374272
0.00438633
0.00490098
0.00532658
0.00568593
0.00599426
0.00626211
0.00649693
0.0067036
0.00688523
0.00703993
0.00716303
0.00724948
0.00729677
0.00730691
0.00728061
0.00720072
0.00704551
0.00679628
0.00642064
0.005753
0.0014654
0.00326419
0.00424357
0.00494349
0.00547951
0.00591474
0.00628069
0.00659613
0.0068723
0.00711668
0.00733442
0.00752862
0.00769905
0.0078436
0.00796033
0.00804893
0.00811026
0.00814031
0.00812058
0.00803112
0.0078663
0.00764206
0.00735484
0.00164946
0.00366497
0.00480711
0.00556369
0.00608658
0.00650399
0.00685568
0.00716458
0.0074401
0.00768874
0.00791485
0.00812095
0.00830699
0.00847245
0.00861761
0.00874214
0.00884344
0.0089115
0.00892752
0.00889299
0.00879999
0.00866567
0.00850935
0.00183823
0.00410333
0.00556259
0.00636777
0.00679116
0.00714901
0.00744656
0.00772736
0.00798782
0.00823244
0.00846014
0.00867283
0.00887037
0.00905169
0.00922134
0.00937751
0.00951218
0.0096063
0.00963695
0.00965593
0.00962428
0.00954395
0.00943673
0.00197162
0.004548
0.00647024
0.00691893
0.00726923
0.00764263
0.00791763
0.00819584
0.00846156
0.00872076
0.00896334
0.00919312
0.00939812
0.00958112
0.00977062
0.00995874
0.0101131
0.0101929
0.0102386
0.0102904
0.0102673
0.0102258
0.0101634
0.00222021
0.00478087
0.00617562
0.0068948
0.00747228
0.00808166
0.00830348
0.00853849
0.00880284
0.00907674
0.00934782
0.00960715
0.00983267
0.0100463
0.0102651
0.0104547
0.0105827
0.0106378
0.0106622
0.010716
0.0107252
0.0107128
0.0106675
0.00227772
0.00477763
0.00617794
0.00692908
0.00754394
0.00811685
0.00845221
0.00876864
0.00906647
0.0093609
0.00965023
0.00992357
0.0101671
0.0103762
0.0105654
0.0107333
0.0108481
0.0109145
0.010969
0.0110209
0.0110431
0.0110604
0.0110158
0.0024143
0.00457526
0.00592347
0.0067488
0.00744168
0.00802159
0.00848374
0.00888963
0.00925655
0.00959573
0.00991284
0.0102024
0.0104499
0.0106458
0.0108126
0.010971
0.0110936
0.0111804
0.0112473
0.0113002
0.0113313
0.0113394
0.0113214
0.00240954
0.00446027
0.00576067
0.00666724
0.00739885
0.00800895
0.00852832
0.00898536
0.00939493
0.00976706
0.0101051
0.0104059
0.0106595
0.0108631
0.0110364
0.0111975
0.0113323
0.0114312
0.0115053
0.0115594
0.0115922
0.0116039
0.011605
0.00241188
0.0044537
0.00574668
0.00667748
0.0074263
0.00805682
0.00860222
0.0090836
0.00951413
0.00990275
0.0102523
0.0105601
0.0108221
0.0110427
0.0112374
0.0114147
0.0115602
0.0116685
0.011751
0.0118102
0.0118434
0.0118549
0.011856
0.00241245
0.00450998
0.00580412
0.00673991
0.00749571
0.00813672
0.00869484
0.00918838
0.00962964
0.0100269
0.0103832
0.0106977
0.0109715
0.0112111
0.011426
0.0116174
0.0117741
0.0118948
0.0119874
0.0120529
0.0120894
0.0121023
0.0121011
0.00241006
0.00458494
0.00588654
0.00682429
0.00758349
0.00823022
0.00879575
0.00929718
0.00974581
0.0101495
0.0105119
0.0108346
0.011121
0.0113768
0.0116067
0.0118094
0.0119784
0.0121127
0.0122165
0.0122906
0.0123348
0.0123538
0.0123541
0.00241279
0.00466529
0.00597468
0.00691564
0.00767789
0.00832883
0.00889986
0.00940775
0.00986308
0.0102732
0.0106427
0.0109746
0.0112731
0.0115421
0.011784
0.0119973
0.0121789
0.0123276
0.0124442
0.0125297
0.0125847
0.0126133
0.0126199
0.00241422
0.00473768
0.00606202
0.00700822
0.00777434
0.00842954
0.00900572
0.00951977
0.00998194
0.0103994
0.0107772
0.0111192
0.0114292
0.0117101
0.0119633
0.012188
0.0123824
0.0125456
0.0126767
0.012776
0.0128446
0.012886
0.0129031
0.00240672
0.00481058
0.00614741
0.00710046
0.00787164
0.00853181
0.00911352
0.00963402
0.0101036
0.0105295
0.0109169
0.0112699
0.0115917
0.0118848
0.0121501
0.0123873
0.0125953
0.0127733
0.0129202
0.0130355
0.0131204
0.0131774
0.0132084
0.00240943
0.00487915
0.00623128
0.00719226
0.00796956
0.00863565
0.00922376
0.00975155
0.0102296
0.0106652
0.0110635
0.0114286
0.0117634
0.0120697
0.0123487
0.0126001
0.0128233
0.0130173
0.0131813
0.0133147
0.0134182
0.0134932
0.0135408
0.00241451
0.00494587
0.00631383
0.00728347
0.00806799
0.00874122
0.00933697
0.00987336
0.0103613
0.0108081
0.0112189
0.0115976
0.0119468
0.0122683
0.012563
0.0128308
0.0130712
0.0132833
0.0134664
0.0136199
0.0137441
0.0138392
0.0139059
0.00240828
0.00501462
0.00639479
0.00737382
0.00816683
0.00884864
0.00945359
0.0100002
0.0104998
0.0109595
0.0113847
0.0117789
0.0121447
0.0124836
0.0127964
0.0130832
0.0133434
0.0135764
0.013781
0.013957
0.0141038
0.0142214
0.0143094
0.00240627
0.00508145
0.00647376
0.00746308
0.00826604
0.00895809
0.00957406
0.0101329
0.010646
0.0111208
0.0115625
0.0119745
0.0123593
0.0127183
0.0130522
0.013361
0.0136442
0.013901
0.0141303
0.0143314
0.0145036
0.0146461
0.0147581
0.00242288
0.00514417
0.00654988
0.00755115
0.00836573
0.00906982
0.00969878
0.0102719
0.0108008
0.0112931
0.0117538
0.0121864
0.0125931
0.0129754
0.0133337
0.013668
0.0139777
0.0142619
0.0145193
0.0147489
0.0149497
0.0151203
0.0152593
0.00245178
0.0052015
0.00662348
0.00763829
0.00846614
0.00918415
0.00982822
0.010418
0.0109652
0.0114776
0.0119602
0.0124165
0.0128486
0.0132577
0.0136442
0.0140081
0.0143485
0.0146642
0.014954
0.0152162
0.0154493
0.0156517
0.0158215
0.00247909
0.00525613
0.00669516
0.00772478
0.00856753
0.00930144
0.00996288
0.0105718
0.0111401
0.0116756
0.0121835
0.012667
0.0131282
0.0135684
0.0139877
0.0143857
0.0147616
0.0151139
0.0154408
0.0157405
0.0160108
0.0162497
0.0164548
0.00250481
0.00530827
0.00676509
0.00781083
0.00867022
0.00942212
0.0101033
0.0107341
0.0113266
0.0118886
0.0124253
0.0129402
0.0134351
0.0139111
0.0143682
0.0148059
0.015223
0.0156176
0.0159876
0.0163305
0.0166438
0.0169247
0.0171704
0.00252835
0.00535771
0.00683334
0.00789666
0.00877452
0.00954663
0.0102502
0.0109058
0.0115257
0.012118
0.0126878
0.0132386
0.0137722
0.0142896
0.0147906
0.0152744
0.0157393
0.0161831
0.0166031
0.0169963
0.0173594
0.0176891
0.0179816
0.0025487
0.0054045
0.00690011
0.00798254
0.00888081
0.00967545
0.0104042
0.0110877
0.0117388
0.0123654
0.012973
0.013565
0.0141432
0.0147084
0.0152603
0.0157976
0.0163183
0.0168196
0.017298
0.0177498
0.0181709
0.0185571
0.018904
0.00256643
0.00544916
0.00696576
0.0080688
0.00898943
0.00980903
0.0105658
0.0112808
0.0119669
0.0126326
0.0132832
0.0139223
0.0145518
0.0151723
0.0157832
0.016383
0.0169689
0.0175374
0.0180842
0.0186046
0.0190934
0.0195455
0.0199554
0.00258254
0.00549222
0.0070306
0.00815567
0.00910065
0.00994772
0.0107356
0.0114857
0.0122112
0.0129209
0.0136205
0.0143135
0.015002
0.0156865
0.0163661
0.0170388
0.0177011
0.0183486
0.0189758
0.0195767
0.0201448
0.0206736
0.0211566
0.00259749
0.00553394
0.00709474
0.0082432
0.00921451
0.0100917
0.0109139
0.011703
0.0124727
0.013232
0.013987
0.0147416
0.0154979
0.0162564
0.017016
0.017774
0.0185262
0.0192667
0.0199887
0.0206844
0.0213456
0.021964
0.0225316
0.00261128
0.00557412
0.00715789
0.0083311
0.00933078
0.0102408
0.0111007
0.0119331
0.012752
0.013567
0.0143846
0.0152092
0.0160434
0.0168875
0.0177404
0.0185985
0.0194566
0.0203072
0.0211413
0.0219491
0.0227198
0.0234429
0.0241084
0.00262338
0.00561187
0.00721918
0.00841868
0.00944882
0.0103944
0.0112957
0.0121757
0.0130491
0.0139262
0.0148143
0.0157186
0.0166419
0.0175851
0.0185467
0.0195226
0.0205058
0.021487
0.0224546
0.0233953
0.0242953
0.0251408
0.0259195
0.00263187
0.00564534
0.00727676
0.00850387
0.00956704
0.0105515
0.0114979
0.0124301
0.0133635
0.0143096
0.0152767
0.0162709
0.0172962
0.0183538
0.0194422
0.0205565
0.0216883
0.0228252
0.0239521
0.0250512
0.0261044
0.0270935
0.028003
0.00263662
0.00566896
0.0073266
0.00858445
0.00968382
0.0107105
0.011706
0.0126949
0.013694
0.014716
0.0157708
0.0168662
0.0180073
0.0191965
0.0204327
0.0217102
0.0230186
0.0243421
0.0256604
0.0269497
0.0281853
0.0293431
0.0304035
0.00263417
0.00567921
0.00736598
0.00865798
0.00979701
0.0108695
0.0119179
0.0129679
0.0140381
0.0151428
0.0162942
0.0175021
0.018774
0.020114
0.0215218
0.0229917
0.0245108
0.0260591
0.0276092
0.0291285
0.030583
0.03194
0.0331741
0.00262249
0.00567446
0.00739217
0.00872171
0.00990414
0.0110262
0.0121311
0.0132462
0.0143921
0.0155856
0.0168417
0.0181735
0.0195916
0.021103
0.0227094
0.0244057
0.026177
0.0279977
0.0298311
0.0316319
0.0333517
0.0349452
0.0363791
0.00259966
0.00565172
0.00740154
0.0087726
0.0100027
0.0111779
0.0123425
0.0135258
0.0147507
0.0160377
0.0174055
0.0188714
0.0204505
0.0221545
0.0239891
0.0259509
0.0280243
0.0301775
0.0323613
0.0345116
0.0365575
0.0384342
0.0400973
0.00256093
0.00560372
0.00738881
0.0088074
0.0100905
0.0113226
0.0125491
0.0138018
0.0151073
0.0164901
0.017974
0.0195817
0.0213349
0.0232518
0.025345
0.0276162
0.0300511
0.0326127
0.0352358
0.0378285
0.0402835
0.0425028
0.0444267
0.00249633
0.00551715
0.00734687
0.00882369
0.0101668
0.011459
0.0127476
0.0140685
0.015453
0.0169307
0.0185313
0.0202847
0.0222207
0.0243675
0.026748
0.0293744
0.0322395
0.0353046
0.0384873
0.0416548
0.0446375
0.0472766
0.0494927
0.00241709
0.00537452
0.00726997
0.00882223
0.0102337
0.0115871
0.012935
0.0143193
0.0157772
0.0173445
0.0190575
0.0209543
0.0230749
0.0254607
0.0281504
0.0311746
0.0345436
0.0382284
0.0421344
0.0460743
0.049768
0.052928
0.055457
0.00242145
0.00518645
0.00716275
0.00881013
0.0102964
0.0117078
0.0131073
0.0145457
0.0160671
0.0177136
0.0195283
0.0215582
0.023855
0.0264758
0.0294816
0.0329317
0.0368714
0.0413066
0.0461564
0.0511784
0.0558973
0.0597052
0.0625303
0.00394775
0.00512224
0.00704495
0.00879845
0.0103606
0.0118202
0.0132582
0.014737
0.0163078
0.0180181
0.0199172
0.0220602
0.0245107
0.0273434
0.0306457
0.0345165
0.03906
0.0443622
0.0504288
0.0570338
0.0634111
0.0679867
0.0709801
0.0181262
0.0064239
0.00693488
0.00878449
0.0104232
0.0119158
0.013376
0.0148795
0.0164829
0.0182376
0.0201972
0.0224233
0.0249893
0.0279859
0.0315265
0.0357547
0.0408522
0.0470433
0.0545691
0.0635269
0.07313
0.0783642
0.0811111
0.0840451
0.014184
0.00702239
0.00876625
0.0104676
0.0119757
0.0134434
0.0149572
0.0165764
0.0183537
0.020345
0.0226153
0.0252439
0.0283311
0.0320075
0.0364492
0.0419047
0.0487491
0.0576035
0.0696243
0.0872525
0.0916712
0.0931424
0.00414113
0.00358156
0.00348979
0.00379796
0.00707303
0.00692458
0.00685526
0.00687025
0.00838971
0.00831669
0.00825701
0.00821381
0.00935283
0.00929852
0.00923985
0.00917872
0.0101053
0.0100697
0.010019
0.00995014
0.0106566
0.0106531
0.0106127
0.0105515
0.011015
0.010995
0.010948
0.0108922
0.0113004
0.0112673
0.011226
0.0111781
0.0115901
0.0115615
0.0115186
0.0114697
0.0118419
0.0118205
0.0117866
0.0117436
0.0120857
0.0120678
0.0120408
0.0120051
0.012339
0.0123232
0.0123003
0.0122703
0.0126084
0.0125954
0.0125763
0.0125511
0.0128982
0.0128894
0.0128749
0.0128544
0.0132126
0.0132094
0.0132004
0.0131852
0.0135561
0.0135598
0.0135572
0.0135482
0.0139341
0.0139457
0.0139506
0.0139486
0.0143523
0.0143729
0.0143864
0.0143926
0.0148176
0.0148484
0.0148717
0.0148873
0.0153376
0.0153801
0.0154147
0.0154412
0.0159214
0.0159773
0.0160249
0.0160638
0.0165793
0.0166506
0.0167131
0.0167665
0.0173233
0.0174124
0.017492
0.017562
0.0181673
0.0182769
0.0183763
0.0184653
0.0191275
0.0192606
0.0193828
0.0194938
0.0202226
0.0203828
0.0205311
0.0206672
0.021474
0.0216653
0.0218436
0.0220083
0.0229067
0.0231337
0.023346
0.0235432
0.0245497
0.0248172
0.0250681
0.0253018
0.0264362
0.0267496
0.0270439
0.0273183
0.0286051
0.0289701
0.0293125
0.0296317
0.0311018
0.0315242
0.0319194
0.0322872
0.0339799
0.0344653
0.0349177
0.035337
0.0373035
0.0378568
0.0383694
0.0388418
0.0411501
0.0417747
0.0423484
0.0428727
0.0456142
0.0463103
0.046942
0.0475129
0.0508129
0.051574
0.0522539
0.0528591
0.0568905
0.0576984
0.058405
0.0590217
0.0640222
0.0648375
0.065531
0.0661211
0.0724087
0.0731573
0.0737713
0.0742778
0.0822432
0.0828035
0.0832425
0.0835917
0.0936169
0.0938324
0.0939917
0.0941135
0.00527077
0.00600127
0.00632594
0.00648443
0.00654615
0.00653988
0.00648303
0.0063816
0.00622565
0.00600302
0.0057428
0.00546455
0.00516775
0.00485512
0.00452389
0.00406612
0.00337552
0.00251766
0.00109441
0.00700408
0.0071708
0.00726996
0.00730767
0.00729361
0.00723481
0.00713616
0.00699943
0.00682339
0.00660539
0.00635279
0.00608001
0.00575928
0.00538166
0.00496996
0.00444655
0.00374268
0.0028699
0.00134507
0.00816545
0.00814265
0.00812138
0.00807044
0.00799431
0.0078934
0.00776437
0.00760478
0.00741116
0.00718497
0.006926
0.00664307
0.00628997
0.00585452
0.005377
0.0048097
0.00410136
0.00319256
0.00151922
0.00908107
0.00897977
0.00889673
0.00877312
0.00865203
0.00852525
0.0083764
0.00820335
0.00800295
0.00777319
0.00750842
0.00721202
0.00681702
0.00630676
0.0057632
0.00515724
0.00443376
0.00347809
0.00169948
0.00982922
0.00967594
0.00954179
0.00939639
0.00926856
0.009119
0.00893874
0.00875305
0.00855148
0.008294
0.00796889
0.0076088
0.00722474
0.00672879
0.00611831
0.0054675
0.00472335
0.00373307
0.00186562
0.0104489
0.0103374
0.0101938
0.00997463
0.00979117
0.00961937
0.00943003
0.00922917
0.00900479
0.00872198
0.00834148
0.00793642
0.00751998
0.00698816
0.00637775
0.00572684
0.00495987
0.00390986
0.00194888
0.010806
0.0107137
0.0106095
0.0104366
0.0102655
0.0100962
0.00988859
0.00966279
0.00939086
0.00906159
0.00866114
0.00821141
0.00772376
0.007183
0.00658973
0.00594487
0.00516465
0.00407425
0.00197618
0.011098
0.010989
0.010873
0.0107258
0.0105632
0.0103899
0.0101878
0.0099351
0.0096186
0.00926555
0.00886558
0.00841139
0.00790365
0.00735086
0.00673603
0.00606561
0.00529112
0.00422705
0.00200416
0.011385
0.0112546
0.0111137
0.0109531
0.0107728
0.0105821
0.0103689
0.0100818
0.00973777
0.00937071
0.00896701
0.00852022
0.00803624
0.00748726
0.00683565
0.00611023
0.00529535
0.00423375
0.00204622
0.0116624
0.0115266
0.0113787
0.0112106
0.0110113
0.0107882
0.0105373
0.0102194
0.00985815
0.0094661
0.00903007
0.00855511
0.00807277
0.00753329
0.00687007
0.00609382
0.00521383
0.00409723
0.00201713
0.011934
0.0118055
0.011659
0.0114866
0.0112724
0.0110198
0.0107347
0.0103994
0.0100181
0.00959478
0.00912204
0.00860083
0.00805636
0.00747126
0.0067999
0.00601529
0.00508598
0.00389252
0.00195356
0.0122098
0.0120929
0.0119484
0.0117703
0.0115458
0.0112771
0.0109745
0.0106252
0.0102238
0.00977417
0.00927074
0.00870718
0.0080888
0.00741993
0.00669095
0.00588692
0.00493411
0.00369647
0.00194757
0.0124994
0.0123939
0.0122527
0.0120704
0.0118401
0.0115652
0.0112525
0.0108926
0.0104786
0.0100111
0.00948378
0.00888785
0.00822002
0.00748283
0.00667853
0.00580927
0.00482028
0.00356711
0.00194906
0.0128107
0.0127155
0.0125804
0.0123993
0.0121684
0.0118914
0.0115723
0.0112053
0.0107835
0.0103042
0.00976044
0.0091435
0.00844818
0.00767307
0.00681817
0.00588281
0.00483247
0.003545
0.00190415
0.0131499
0.0130647
0.0129378
0.0127625
0.0125358
0.0122603
0.0119386
0.0115671
0.0111399
0.0106525
0.0100984
0.00946945
0.00876007
0.00796683
0.00708625
0.00610983
0.00500524
0.00365939
0.00193447
0.0135224
0.0134482
0.0133308
0.0131641
0.0129449
0.0126743
0.0123536
0.0119803
0.0115498
0.0110572
0.0104966
0.00986094
0.00914417
0.00834144
0.00744637
0.00644383
0.00529325
0.00387562
0.00194934
0.0139338
0.0138726
0.0137664
0.0136102
0.0134007
0.0131375
0.0128206
0.0124482
0.0120164
0.011521
0.0109565
0.0103167
0.00959529
0.00878598
0.00787915
0.00685441
0.00566244
0.00416845
0.00195068
0.0143905
0.0143448
0.0142522
0.0141084
0.0139102
0.0136561
0.0133452
0.0129757
0.0125446
0.0120479
0.011481
0.0108382
0.0101131
0.00929792
0.0083797
0.00733235
0.00609612
0.00451531
0.00214354
0.0149001
0.0148727
0.0147963
0.014667
0.0144816
0.0142382
0.0139349
0.01357
0.0131408
0.0126438
0.012075
0.0114292
0.0107001
0.00987888
0.00895023
0.00788375
0.00661227
0.00496039
0.00239711
0.0154713
0.0154655
0.0154082
0.0152957
0.015125
0.0148935
0.0145993
0.0142401
0.0138134
0.0133163
0.0127451
0.0120951
0.0113603
0.0105316
0.00959284
0.00851229
0.00722062
0.00552664
0.00269775
0.016114
0.0161334
0.0160984
0.0160055
0.0158514
0.0156336
0.0153494
0.0149967
0.0145728
0.014075
0.0134998
0.0128431
0.012099
0.0112588
0.0103065
0.00921047
0.00790024
0.00616718
0.00302628
0.0168398
0.0168885
0.0168794
0.016809
0.016674
0.0164713
0.0161984
0.0158526
0.0154313
0.0149314
0.0143498
0.0136824
0.0129236
0.0120646
0.0110896
0.00996677
0.00862043
0.00682801
0.00337977
0.0176621
0.0177446
0.0177654
0.0177208
0.0176073
0.0174218
0.0171612
0.0168227
0.0164032
0.0158996
0.0153083
0.0146251
0.013844
0.012956
0.0119437
0.0107744
0.00936842
0.00746912
0.00375446
0.0185963
0.0187176
0.0187726
0.0187574
0.0186683
0.0185019
0.0182549
0.0179239
0.0175055
0.0169959
0.0163911
0.015686
0.0148738
0.0139446
0.0128809
0.0116459
0.0101494
0.00809709
0.00406395
0.01966
0.0198258
0.0199197
0.0199377
0.0198761
0.019731
0.0194988
0.0191756
0.0187574
0.0182396
0.0176169
0.0168837
0.0160319
0.01505
0.0139177
0.012593
0.0109727
0.00872367
0.00430197
0.0208738
0.0210899
0.0212277
0.021283
0.0212519
0.0211304
0.0209144
0.0205995
0.0201808
0.0196527
0.0190088
0.0182415
0.0173411
0.0162935
0.0150747
0.0136365
0.0118622
0.00938246
0.00452664
0.0222607
0.0225335
0.0227204
0.0228171
0.0228197
0.0227242
0.0225261
0.0222203
0.0218009
0.0212609
0.0205923
0.0197852
0.0188273
0.0177012
0.0163787
0.0148049
0.0128505
0.0101142
0.00479487
0.0238474
0.0241834
0.0244244
0.0245665
0.024606
0.0245389
0.0243604
0.0240648
0.023645
0.0230923
0.0223963
0.0215445
0.0205211
0.0193047
0.0178621
0.0161318
0.0139731
0.0109543
0.00513593
0.0256638
0.0260695
0.0263695
0.0265607
0.0266399
0.0266034
0.0264464
0.0261626
0.0257433
0.025178
0.0244534
0.0235534
0.022458
0.0211406
0.0195626
0.0176551
0.0152662
0.0119318
0.00555511
0.0277441
0.0282255
0.0285887
0.0288318
0.0289529
0.028949
0.0288155
0.0285453
0.0281286
0.0275523
0.0267998
0.0258504
0.0246787
0.023252
0.021524
0.0194179
0.0167682
0.0130729
0.00604493
0.0301272
0.0306892
0.0311183
0.031415
0.0315792
0.0316094
0.0315012
0.0312473
0.0308363
0.0302526
0.0294754
0.0284787
0.0272301
0.0256886
0.0237984
0.0214711
0.0185245
0.0144093
0.00660508
0.0328572
0.0335028
0.0339988
0.0343489
0.034556
0.0346206
0.0345394
0.0343049
0.0339043
0.033319
0.0325239
0.0314865
0.0301655
0.0285089
0.0264479
0.0238781
0.020594
0.0159883
0.00725851
0.0359845
0.036714
0.0372745
0.0376752
0.0379231
0.0380213
0.0379683
0.0377568
0.0373727
0.0367947
0.0359927
0.0349266
0.0335447
0.0317808
0.0295478
0.0267183
0.0230554
0.0178804
0.0080634
0.0395672
0.040376
0.0409948
0.0414399
0.0417237
0.0418531
0.0418287
0.041644
0.0412841
0.040725
0.0399317
0.0388562
0.0374345
0.0355824
0.033188
0.0300914
0.0260104
0.0201755
0.00906821
0.0436715
0.0445488
0.0452141
0.045693
0.0460047
0.0461607
0.0461642
0.0460099
0.0456828
0.0451569
0.044393
0.0433352
0.0419062
0.0400008
0.0374746
0.0341211
0.0295904
0.0229885
0.0103118
0.0483734
0.0492995
0.0499922
0.0504893
0.0508173
0.0509928
0.0510219
0.0509009
0.0506155
0.050139
0.0494292
0.048424
0.0470337
0.04513
0.0425293
0.03896
0.0339698
0.0264802
0.0118579
0.0537588
0.0547019
0.0553951
0.055889
0.0562181
0.0564032
0.0564535
0.0563674
0.0561317
0.0557209
0.0550922
0.0541806
0.0528875
0.0510643
0.0484846
0.0447934
0.0393856
0.0308931
0.0138202
0.0599222
0.0608364
0.0614942
0.0619586
0.06227
0.0624525
0.0625175
0.0624652
0.062285
0.0619537
0.0614321
0.0606569
0.0595285
0.0578871
0.0554706
0.0518327
0.046158
0.0366095
0.0163899
0.0669638
0.0677878
0.068367
0.0687717
0.0690446
0.0692104
0.0692812
0.0692587
0.0691353
0.0688924
0.0684975
0.0678962
0.0669987
0.0656522
0.0635849
0.0602839
0.0546957
0.0442581
0.019951
0.0749818
0.0756429
0.0760969
0.0764113
0.0766248
0.0767591
0.0768248
0.0768245
0.0767536
0.0765995
0.0763393
0.0759338
0.0753156
0.0743638
0.0728446
0.0702623
0.0654253
0.0548659
0.0253087
0.0840628
0.0844885
0.0847753
0.0849732
0.0851091
0.0851976
0.0852461
0.0852568
0.0852277
0.0851523
0.0850186
0.0848057
0.084477
0.0839648
0.0831289
0.0816329
0.0784928
0.0698462
0.0337591
0.0942731
0.0944133
0.094507
0.0945719
0.0946172
0.0946478
0.0946664
0.0946737
0.0946696
0.0946524
0.0946196
0.0945664
0.0944852
0.0943627
0.094172
0.0938391
0.093059
0.0897206
0.0470963
)
;

boundaryField
{
    leftWall
    {
        type            kqRWallFunction;
        value           nonuniform List<scalar> 
50
(
0.000183712
0.000394527
0.000559142
0.000699571
0.000822236
0.000932874
0.00103554
0.00113317
0.00128241
0.0014654
0.00164946
0.00183823
0.00197162
0.00222021
0.00227772
0.0024143
0.00240954
0.00241188
0.00241245
0.00241006
0.00241279
0.00241422
0.00240672
0.00240943
0.00241451
0.00240828
0.00240627
0.00242288
0.00245178
0.00247909
0.00250481
0.00252835
0.0025487
0.00256643
0.00258254
0.00259749
0.00261128
0.00262338
0.00263187
0.00263662
0.00263417
0.00262249
0.00259966
0.00256093
0.00249633
0.00241709
0.00242145
0.00394775
0.0181262
0.0840451
)
;
    }
    rightWall
    {
        type            kqRWallFunction;
        value           nonuniform List<scalar> 
50
(
0.000301795
0.000476514
0.000555714
0.000610955
0.000671872
0.000737723
0.000812358
0.000901571
0.00109441
0.00134507
0.00151922
0.00169948
0.00186562
0.00194888
0.00197618
0.00200416
0.00204622
0.00201713
0.00195356
0.00194757
0.00194906
0.00190415
0.00193447
0.00194934
0.00195068
0.00214354
0.00239711
0.00269775
0.00302628
0.00337977
0.00375446
0.00406395
0.00430197
0.00452664
0.00479487
0.00513593
0.00555511
0.00604493
0.00660508
0.00725851
0.0080634
0.00906821
0.0103118
0.0118579
0.0138202
0.0163899
0.019951
0.0253087
0.0337591
0.0470963
)
;
    }
    lowerWall
    {
        type            kqRWallFunction;
        value           nonuniform List<scalar> 
62
(
0.000183712
0.000449404
0.000655727
0.000816353
0.000947945
0.0010588
0.00115392
0.00123635
0.00130804
0.00137142
0.00143004
0.00148375
0.00153211
0.00157059
0.00158954
0.00156886
0.00146712
0.00130391
0.00114591
0.00102817
0.000905342
0.000723768
0.000329138
0.000329138
0.000740671
0.00103352
0.00132017
0.0016329
0.00203587
0.0026121
0.00366862
0.00414113
0.00358156
0.00348979
0.00379796
0.000302255
0.000590925
0.000846624
0.00113424
0.00145561
0.00187367
0.00250915
0.00355386
0.000302255
0.000859324
0.0011658
0.00131079
0.00138804
0.00142435
0.00145252
0.0014805
0.00148526
0.00139624
0.00122315
0.00103059
0.000837501
0.000795091
0.000970938
0.000953339
0.000712159
0.000490537
0.000301795
)
;
    }
    atmosphere
    {
        type            inletOutlet;
        inletValue      uniform 0.1;
        value           nonuniform List<scalar> 
46
(
0.1
0.014184
0.00702239
0.00876625
0.0104676
0.0119757
0.0134434
0.0149572
0.0165764
0.0183537
0.020345
0.0226153
0.0252439
0.0283311
0.0320075
0.0364492
0.0419047
0.0487491
0.0576035
0.0696243
0.1
0.1
0.1
0.1
0.1
0.1
0.1
0.1
0.1
0.1
0.1
0.1
0.1
0.1
0.1
0.1
0.1
0.1
0.1
0.1
0.1
0.1
0.1
0.1
0.1
0.0470963
)
;
    }
    defaultFaces
    {
        type            empty;
    }
}


// ************************************************************************* //
