/*--------------------------------*- C++ -*----------------------------------*\
  =========                 |
  \\      /  F ield         | OpenFOAM: The Open Source CFD Toolbox
   \\    /   O peration     | Website:  https://openfoam.org
    \\  /    A nd           | Version:  9
     \\/     M anipulation  |
\*---------------------------------------------------------------------------*/
FoamFile
{
    format      ascii;
    class       volScalarField;
    location    "7.69";
    object      epsilon;
}
// * * * * * * * * * * * * * * * * * * * * * * * * * * * * * * * * * * * * * //

dimensions      [0 2 -3 0 0 0 0];

internalField   nonuniform List<scalar> 
2268
(
0.000134555
0.000740931
0.00132417
0.00185056
0.00232321
0.00274578
0.00312064
0.00344956
0.0037351
0.00398392
0.00421192
0.00442101
0.00460961
0.00475466
0.00480037
0.00465213
0.00420938
0.00363206
0.00302045
0.00246251
0.00195576
0.00129849
0.000448156
0.000278415
0.000493549
0.000737461
0.000963096
0.00116589
0.00134614
0.00150504
0.00164407
0.00176513
0.00187094
0.00196588
0.00205008
0.00212255
0.00217601
0.002194
0.00215116
0.00202808
0.00186572
0.0016525
0.00140919
0.00114191
0.000871835
0.000693392
0.000475614
0.000513994
0.000671973
0.000828524
0.00097224
0.00110107
0.0012152
0.00131563
0.00140375
0.00148131
0.00155036
0.0016111
0.00166231
0.0016993
0.00171275
0.00169062
0.00162731
0.00153795
0.00141274
0.00126468
0.00111431
0.00100622
0.00115277
0.000670459
0.000573827
0.000684236
0.000806522
0.000922212
0.00102721
0.00112087
0.00120375
0.00127696
0.00134186
0.00139976
0.00145079
0.00149367
0.00152473
0.00153765
0.00152564
0.00148718
0.00142984
0.00135077
0.00126336
0.00119689
0.00122041
0.00168751
0.000859018
0.000647054
0.00072292
0.000822338
0.000919943
0.00100982
0.00109058
0.00116244
0.00122631
0.00128335
0.00133457
0.00138005
0.00141854
0.00144699
0.00146082
0.00145603
0.00143297
0.00139669
0.00135055
0.00131118
0.00131805
0.00147609
0.00235029
0.00104328
0.000726943
0.000774755
0.000856639
0.000940645
0.00101924
0.0010904
0.00115403
0.00121095
0.0012622
0.00130862
0.00135031
0.00138609
0.00141337
0.00142876
0.00143001
0.00141896
0.0014
0.0013804
0.00138157
0.00145677
0.00176782
0.00327739
0.00122646
0.000811368
0.000834932
0.000902237
0.000975014
0.00104429
0.00110747
0.00116426
0.00121536
0.00126181
0.00130436
0.00134312
0.00137703
0.00140387
0.00142111
0.00142776
0.00142706
0.0014241
0.00142686
0.00146147
0.00159664
0.00208477
0.00484747
0.00141161
0.000899909
0.000901501
0.000955913
0.00101876
0.00107975
0.00113577
0.00118635
0.00123219
0.00127432
0.00131348
0.00134977
0.00138226
0.00140907
0.00142832
0.00143996
0.00144838
0.00146017
0.0014819
0.00154119
0.00171394
0.00234347
0.00805008
0.000596492
0.00214072
0.00334888
0.00395411
0.00432498
0.00450774
0.00461648
0.00463909
0.00439676
0.00381252
0.00308703
0.00238469
0.00189191
0.00185774
0.00189541
0.00173683
0.00119527
0.000709328
0.000147799
0.000622168
0.00115057
0.00154811
0.00177541
0.00192171
0.00200958
0.00205968
0.00206375
0.00198412
0.0018234
0.00160498
0.00133912
0.00112709
0.00104095
0.000961185
0.000849721
0.000637588
0.000434223
0.000216951
0.000847007
0.00109352
0.00130492
0.0014335
0.00151837
0.00157259
0.00160182
0.00159701
0.00154141
0.00144458
0.00130875
0.00113443
0.000986056
0.00090172
0.000820745
0.000726297
0.000583871
0.000446297
0.000372505
0.00115354
0.00118898
0.00128143
0.00134589
0.00139296
0.00142503
0.00144071
0.00142995
0.00138224
0.00130749
0.00120383
0.00107163
0.000953513
0.000873101
0.0007964
0.000715947
0.00060893
0.000511691
0.000551995
0.0016038
0.00136952
0.00133292
0.00133788
0.00135361
0.00136773
0.00137287
0.00135794
0.0013146
0.00125128
0.00116614
0.00105984
0.000960368
0.000883343
0.000810345
0.000740717
0.000657524
0.000595288
0.000752538
0.00233429
0.00161406
0.00141766
0.0013637
0.00135169
0.0013505
0.00134706
0.00132934
0.00128966
0.00123443
0.00116256
0.0010745
0.000987796
0.000913018
0.000842991
0.000780071
0.000711714
0.000681384
0.000972382
0.00370647
0.00190095
0.00151156
0.00140396
0.0013685
0.00135454
0.00134418
0.00132484
0.00128903
0.00124121
0.00118031
0.00110609
0.00102862
0.000954991
0.000886784
0.000826957
0.000766282
0.00076519
0.0012271
0.0068254
0.00215661
0.0015926
0.00144797
0.00139505
0.00137105
0.00135535
0.00133544
0.00130395
0.00126401
0.00121317
0.00114993
0.00107935
0.0010063
0.00093742
0.000877675
0.000821733
0.000849211
0.00153093
0.00170847
0.00104552
0.0010144
0.00104988
0.00109819
0.00114699
0.00119233
0.00123359
0.00127154
0.00130727
0.00134151
0.0013743
0.00140497
0.00143206
0.00145454
0.0014734
0.00149421
0.0015254
0.00157148
0.00165295
0.00182387
0.00224053
0.00350876
0.00211989
0.00125899
0.00118502
0.00119613
0.00122633
0.00125977
0.00129056
0.00131899
0.00134629
0.00137375
0.00140213
0.00143141
0.00146092
0.00148955
0.00151668
0.00154358
0.00157531
0.00161908
0.00167705
0.00175559
0.00187902
0.00210178
0.00250853
0.00267456
0.00151142
0.00137492
0.00135668
0.00136955
0.00138739
0.00139969
0.00141314
0.00142923
0.00144862
0.00147216
0.00149977
0.00153022
0.00156202
0.0015942
0.00162723
0.00166531
0.00171314
0.00176885
0.00183366
0.00191397
0.00202851
0.00218514
0.00350215
0.0018066
0.00156957
0.0015244
0.00152712
0.00152761
0.00151167
0.00150851
0.00151288
0.00152409
0.0015438
0.00157193
0.00160553
0.00164272
0.00168125
0.00171914
0.00176081
0.00180977
0.00185681
0.00190976
0.00195888
0.00200793
0.00207289
0.00436372
0.00204642
0.00173693
0.00169287
0.00165431
0.00160096
0.00158287
0.00158537
0.00158361
0.00159108
0.00160934
0.00163821
0.00167411
0.00171113
0.00174635
0.00177136
0.00179885
0.00183851
0.00188694
0.00193424
0.00196871
0.00199861
0.00203677
0.00430485
0.00219288
0.00185191
0.00184398
0.0017201
0.00163957
0.00162948
0.00163897
0.00163477
0.00163715
0.00165291
0.00168081
0.00171785
0.0017631
0.00180085
0.00181437
0.00183922
0.00188117
0.00192765
0.00198281
0.00200576
0.00200361
0.00200843
0.00167849
0.00186588
0.00176735
0.00173165
0.00167087
0.00163758
0.00163905
0.0016445
0.00164822
0.00166105
0.00168292
0.00171194
0.00174538
0.00178456
0.00181678
0.00183599
0.00185765
0.00188991
0.00192606
0.0019658
0.00199036
0.00198847
0.00198647
0.00176448
0.00193026
0.00173092
0.00167079
0.00164103
0.00162703
0.001628
0.00163789
0.00165243
0.00167262
0.00169885
0.00172995
0.00176485
0.00180094
0.00183066
0.00185267
0.00187413
0.00190022
0.00192959
0.00195809
0.00197944
0.00198631
0.00198381
0.00176515
0.00195531
0.00170182
0.00163212
0.00161176
0.00160958
0.00161838
0.0016343
0.001655
0.00168007
0.00170999
0.00174494
0.00178441
0.00182347
0.00185349
0.00187371
0.00189243
0.00191378
0.00193655
0.00195832
0.00197703
0.00198852
0.00198932
0.00176873
0.00192785
0.00167489
0.00160169
0.00158598
0.00159226
0.00160898
0.00163148
0.0016578
0.0016875
0.00172125
0.00175987
0.00180234
0.00184275
0.00187333
0.00189475
0.00191361
0.00193295
0.00195202
0.00196989
0.00198592
0.00199774
0.00200229
0.00746636
0.00193232
0.00165663
0.00158231
0.00156901
0.00158022
0.00160251
0.00163034
0.00166154
0.00169549
0.00173262
0.00177347
0.00181659
0.00185719
0.00188995
0.00191503
0.0019368
0.0019573
0.00197601
0.00199265
0.00200739
0.00201927
0.00202672
0.00746644
0.00192905
0.00165024
0.00157438
0.00156157
0.00157502
0.0016006
0.00163217
0.00166718
0.0017047
0.00174463
0.0017869
0.00183025
0.00187148
0.00190731
0.00193721
0.0019633
0.00198688
0.0020077
0.00202567
0.00204135
0.00205462
0.00206494
0.00176577
0.00192906
0.00165507
0.00157602
0.00156219
0.00157624
0.00160363
0.00163776
0.00167573
0.00171623
0.00175861
0.00180249
0.00184682
0.00188959
0.0019289
0.00196395
0.00199509
0.00202293
0.00204745
0.00206873
0.00208744
0.00210384
0.0021178
0.00176411
0.00196027
0.00166831
0.00158492
0.00156927
0.00158311
0.00161152
0.00164757
0.00168799
0.00173115
0.00177609
0.0018222
0.00186861
0.00191399
0.00195713
0.00199728
0.00203392
0.00206699
0.00209648
0.00212264
0.00214608
0.00216713
0.00218574
0.00176485
0.00198958
0.00168757
0.00159942
0.00158165
0.001595
0.00162414
0.00166185
0.00170458
0.00175046
0.00179835
0.00184749
0.00189706
0.00194612
0.00199372
0.00203911
0.00208166
0.00212085
0.00215652
0.00218895
0.00221857
0.00224559
0.00226995
0.00176543
0.00202547
0.00171158
0.00161849
0.00159862
0.00161151
0.00164139
0.00168084
0.00172606
0.00177503
0.00182646
0.00187947
0.00193327
0.00198705
0.00204001
0.00209138
0.00214046
0.00218669
0.00222977
0.0022698
0.00230696
0.0023413
0.00237263
0.00747054
0.00207371
0.00173961
0.00164155
0.00161975
0.00163241
0.00166332
0.00170482
0.00175299
0.00180564
0.00186135
0.00191916
0.00197827
0.00203791
0.00209735
0.00215581
0.00221257
0.00226701
0.0023188
0.00236781
0.00241395
0.00245705
0.00249675
0.00176476
0.00210905
0.0017713
0.00166823
0.00164481
0.00165766
0.00169005
0.00173417
0.00178591
0.00184299
0.00190387
0.00196754
0.00203317
0.00209998
0.00216725
0.00223422
0.00230015
0.00236437
0.00242638
0.00248594
0.00254268
0.00259619
0.00264593
0.00176795
0.00215096
0.00180602
0.0016983
0.00167372
0.0016873
0.00172182
0.00176926
0.00182539
0.0018878
0.00195493
0.00202568
0.00209919
0.00217469
0.00225142
0.00232862
0.00240551
0.00248137
0.00255553
0.00262752
0.0026968
0.00276271
0.00282446
0.00176531
0.00221561
0.00184386
0.0017317
0.00170648
0.00172147
0.0017589
0.00181051
0.00187198
0.00194083
0.00201546
0.00209472
0.00217772
0.00226367
0.00235179
0.00244127
0.0025313
0.00262104
0.00270967
0.00279643
0.00288064
0.00296134
0.0030375
0.00176713
0.00226439
0.00188441
0.00176835
0.00174316
0.00176035
0.00180157
0.00185836
0.00192632
0.00200289
0.00208648
0.00217592
0.00227029
0.00236877
0.00247056
0.00257479
0.00268055
0.00278689
0.00289281
0.00299726
0.00309931
0.00319775
0.00329124
0.00176622
0.00232641
0.00192764
0.00180822
0.00178388
0.00180416
0.00185019
0.00191332
0.00198906
0.00207486
0.0021691
0.00227067
0.00237861
0.0024921
0.00261027
0.00273219
0.00285686
0.00298313
0.00310979
0.00323553
0.00335902
0.00347881
0.00359321
0.00747433
0.00239546
0.00197269
0.00185137
0.0018288
0.00185317
0.00190513
0.00197589
0.00206093
0.00215769
0.00226459
0.00238054
0.00250465
0.00263605
0.00277385
0.00291703
0.00306443
0.00321471
0.00336639
0.00351781
0.00366721
0.00381282
0.00395253
0.00176546
0.0024476
0.00202057
0.00189804
0.00187815
0.00190766
0.0019668
0.00204665
0.00214268
0.0022524
0.00237428
0.00250729
0.0026506
0.00280338
0.00296471
0.00313345
0.00330827
0.00348757
0.00366952
0.00385206
0.00403292
0.00420986
0.00438024
0.00176701
0.00250343
0.00207149
0.00194839
0.00193211
0.0019679
0.00203558
0.00212615
0.00223511
0.00236006
0.00249959
0.0026528
0.00281894
0.00299723
0.00318675
0.00338626
0.00359425
0.00380876
0.00402751
0.00424792
0.0044671
0.00468217
0.00488982
0.00747044
0.00258319
0.00212576
0.00200267
0.00199085
0.00203412
0.00211185
0.00221494
0.002339
0.00248177
0.00264204
0.00281909
0.00301234
0.00322112
0.0034445
0.00368116
0.00392932
0.00418664
0.0044503
0.00471698
0.004983
0.00524461
0.00549761
0.00747484
0.00265492
0.00218312
0.00206063
0.00205438
0.00210649
0.0021959
0.00231351
0.00245508
0.0026186
0.00280315
0.00300829
0.00323368
0.00347885
0.00374294
0.00402454
0.00432157
0.0046312
0.00494986
0.00527328
0.00559672
0.00591528
0.00622358
0.00748268
0.00271726
0.00224217
0.002122
0.00212265
0.00218508
0.00228795
0.00242226
0.00258401
0.00277156
0.0029844
0.00322251
0.00348595
0.00377455
0.00408761
0.00442366
0.0047803
0.00515406
0.00554038
0.00593374
0.00632791
0.00671639
0.00709224
0.00176623
0.00278906
0.00230474
0.00218678
0.00219556
0.00226988
0.00238812
0.00254145
0.00272628
0.00294148
0.00318711
0.00346379
0.00377216
0.00411253
0.0044845
0.00488664
0.00531618
0.00576885
0.00623879
0.00671875
0.00720044
0.00767515
0.00813376
0.00746783
0.00286841
0.00236776
0.00225447
0.00227294
0.00236079
0.00249636
0.00267116
0.00288215
0.00312891
0.00341234
0.0037339
0.00409512
0.00449707
0.00493989
0.00542231
0.00594124
0.00649139
0.00706519
0.00765298
0.00824357
0.00882511
0.00938544
0.00176771
0.00292264
0.00243169
0.00232488
0.00235453
0.00245757
0.00261246
0.00281121
0.00305155
0.00333402
0.00366063
0.00403409
0.00445718
0.00493214
0.00546003
0.00604004
0.00666881
0.00733987
0.00804336
0.00876628
0.00949326
0.0102079
0.0108938
0.00748593
0.00299602
0.00249631
0.00239759
0.00244
0.00255991
0.00273605
0.00296116
0.00323398
0.00355635
0.00393181
0.00436477
0.0048598
0.0054209
0.00605065
0.00674919
0.00751316
0.00833477
0.00920119
0.0100947
0.0109939
0.0118757
0.0127171
0.00176723
0.00304904
0.00256065
0.00247222
0.00252916
0.00266755
0.00286666
0.00312023
0.00342839
0.00379468
0.00422466
0.00472504
0.00530293
0.00596494
0.00671606
0.00755825
0.00848875
0.00949852
0.010571
0.0116818
0.0128005
0.0138939
0.0149296
0.00748231
0.00311323
0.00262426
0.00254899
0.00262238
0.00278058
0.00300385
0.00328735
0.00363307
0.00404673
0.0045365
0.00511216
0.00578429
0.00656329
0.00745792
0.00847339
0.0096088
0.0108544
0.0121891
0.0135795
0.0149816
0.0163461
0.0176259
0.00748596
0.00315891
0.00268786
0.00262975
0.00272133
0.00289987
0.00314738
0.00346114
0.00384549
0.0043089
0.0048628
0.00552087
0.00629835
0.00721098
0.00827333
0.00949613
0.0108827
0.0124241
0.0140949
0.0158492
0.0176225
0.0193398
0.0209296
0.00748281
0.00319677
0.00275619
0.0027202
0.00283044
0.0030278
0.00329753
0.0036399
0.00406215
0.00457599
0.00519667
0.00594266
0.00683521
0.00789738
0.00915227
0.0106198
0.0123115
0.0142234
0.016327
0.0185612
0.0208304
0.0230157
0.0250034
0.00749279
0.0032305
0.0028457
0.00283487
0.00295932
0.00316912
0.00345515
0.00382143
0.00427835
0.00484089
0.00552849
0.00636515
0.00737946
0.00860414
0.0100744
0.0118244
0.0138811
0.016253
0.0189153
0.0217911
0.0247385
0.0275621
0.0300678
0.00747517
0.00332579
0.00300863
0.00300785
0.00312632
0.00333154
0.0036213
0.00400256
0.00448772
0.00509432
0.00584568
0.00677167
0.00790939
0.00930348
0.0110054
0.0130705
0.0155515
0.0184843
0.021864
0.0256074
0.0295112
0.0332406
0.0364289
0.00748212
0.0037752
0.0034061
0.00331409
0.00336186
0.00352426
0.00379539
0.00417785
0.00468171
0.00532469
0.00613284
0.00714154
0.00839689
0.00995722
0.0118941
0.0142918
0.0172429
0.0208344
0.0251166
0.0300383
0.03534
0.0404377
0.0445283
0.0144046
0.0064521
0.00454842
0.00390215
0.00370363
0.00375072
0.00397076
0.00433757
0.00484892
0.00551835
0.00637251
0.00745116
0.00880891
0.010518
0.0126722
0.0153907
0.0188203
0.0231311
0.0284906
0.0349837
0.042401
0.0497927
0.0550275
0.147489
0.0238878
0.00804829
0.00499637
0.00416038
0.00399011
0.00412754
0.00446557
0.00497503
0.00566041
0.00654673
0.00767646
0.00911084
0.010934
0.0132599
0.0162421
0.020088
0.0250759
0.0315703
0.0399982
0.0506378
0.06258
0.0689372
1.53735
0.124926
0.0173628
0.00656101
0.00459851
0.00416956
0.00422783
0.0045398
0.00504439
0.00573667
0.00663945
0.00779625
0.00927198
0.0111578
0.0135799
0.0167147
0.0208137
0.0262476
0.0335931
0.0438172
0.0587144
0.082019
0.0876826
0.00879683
0.00711183
0.00710513
0.00855798
0.00297545
0.00301102
0.00299528
0.00292482
0.00228475
0.00230897
0.00229757
0.00225092
0.00210719
0.00211559
0.0021084
0.00208405
0.00205385
0.00205708
0.00204933
0.00202265
0.00200921
0.00200881
0.00200647
0.00199265
0.00198451
0.00198338
0.00198115
0.00197175
0.00197784
0.00197414
0.00197014
0.00196342
0.00198403
0.00198027
0.0019761
0.00197083
0.00200078
0.00199894
0.00199631
0.00199282
0.00202894
0.00202952
0.00202916
0.0020278
0.00207039
0.0020732
0.00207514
0.00207599
0.00212634
0.00213118
0.00213517
0.00213811
0.00219768
0.00220464
0.00221067
0.00221565
0.00228589
0.00229531
0.0023037
0.00231095
0.00239337
0.00240574
0.00241697
0.00242694
0.00252329
0.00253924
0.00255392
0.0025672
0.00267946
0.00269976
0.00271864
0.00273599
0.00286643
0.002892
0.00291599
0.00293828
0.00308964
0.00312158
0.00315176
0.00318005
0.00335566
0.00339529
0.00343296
0.00346852
0.00367245
0.00372138
0.00376811
0.00381245
0.00404968
0.00410986
0.00416753
0.00422249
0.0044991
0.00457287
0.00464376
0.00471153
0.00503496
0.00512518
0.00521204
0.00529525
0.00567463
0.00578476
0.0058909
0.00599271
0.00643928
0.00657351
0.00670293
0.0068271
0.00735488
0.00751829
0.00767576
0.00782678
0.00845341
0.00865208
0.00884326
0.00902639
0.00977437
0.0100156
0.0102473
0.0104686
0.011367
0.0116596
0.0119397
0.0122064
0.013293
0.0136476
0.0139854
0.0143055
0.0156306
0.0160597
0.0164659
0.0168485
0.0184796
0.0189981
0.019485
0.0199396
0.0219694
0.0225944
0.0231749
0.0237109
0.0262693
0.0270194
0.0277061
0.0283309
0.0316047
0.0324979
0.0332995
0.0340147
0.0382804
0.0393272
0.0402416
0.0410361
0.046714
0.0479019
0.0489006
0.0497379
0.0574783
0.0587336
0.0597338
0.0605326
0.0713238
0.0724383
0.07326
0.0738751
0.0890568
0.0895957
0.0899449
0.0901828
0.00332203
0.00206441
0.00166461
0.00151157
0.0014432
0.00140841
0.001387
0.00136772
0.00134394
0.00131702
0.00128233
0.00123306
0.00117019
0.00109663
0.00102262
0.00095927
0.000910139
0.00097414
0.00191427
0.00239396
0.00195273
0.00171347
0.00158599
0.00151654
0.0014778
0.00145524
0.00144021
0.0014278
0.00141563
0.00140011
0.00136492
0.0013046
0.00122492
0.00114332
0.0010726
0.00102751
0.00111678
0.00223715
0.00210914
0.00190994
0.00175758
0.00165581
0.00159262
0.00155603
0.00153687
0.0015276
0.00152438
0.00152429
0.0015246
0.00149981
0.00143962
0.00135595
0.00126819
0.00119195
0.0011493
0.00124281
0.00234745
0.0020191
0.00191749
0.00180948
0.00172558
0.00166957
0.00163721
0.00162332
0.00162056
0.00162541
0.00163499
0.00165106
0.0016348
0.00157585
0.00149327
0.00139964
0.00132334
0.00128706
0.0013934
0.00283032
0.00197131
0.0019064
0.00184147
0.00178515
0.00174388
0.00171698
0.00170806
0.00171251
0.00171929
0.00171654
0.00171647
0.00173611
0.00171512
0.00157389
0.00146558
0.00139997
0.00139711
0.00154736
0.00271417
0.00195701
0.00191614
0.00185937
0.00181619
0.00179022
0.00177954
0.00178045
0.00178495
0.00178777
0.00177238
0.00177404
0.00177874
0.00172257
0.00162395
0.00154138
0.0014862
0.00148982
0.0017129
0.00293785
0.00194856
0.00192164
0.00188341
0.00185161
0.00182901
0.00181727
0.00181352
0.00180386
0.00179352
0.00178241
0.00178616
0.00180684
0.00177164
0.00166155
0.00159466
0.00155542
0.00156095
0.00169756
0.00112466
0.00194814
0.0019246
0.00189669
0.00187035
0.00184824
0.00183199
0.00181695
0.00179809
0.00178176
0.00177348
0.00178722
0.00181073
0.00177793
0.00167626
0.00159382
0.00155151
0.00157927
0.00184928
0.00490408
0.00196024
0.0019426
0.00192141
0.00189722
0.00187297
0.00185216
0.00183013
0.00180614
0.00178264
0.00176574
0.00176315
0.00176737
0.00174731
0.00168197
0.00159915
0.00154716
0.0015786
0.00187911
0.00115903
0.00198595
0.00197385
0.00195768
0.00193492
0.00190901
0.00188497
0.00185914
0.00182927
0.00179723
0.00176797
0.00174451
0.00172385
0.00169921
0.00166
0.00159602
0.00154377
0.00156263
0.00183389
0.00489242
0.00202414
0.00201543
0.00200193
0.00198066
0.00195507
0.00193003
0.00190098
0.00186529
0.00182608
0.00178642
0.00174726
0.00170659
0.0016637
0.00162127
0.00157435
0.00153299
0.00153533
0.00172515
0.00489384
0.00207546
0.00206924
0.00205705
0.00203725
0.00201255
0.00198606
0.00195437
0.00191538
0.00187123
0.00182398
0.00177424
0.00172053
0.00166185
0.00160318
0.00155428
0.00151863
0.00151424
0.00164065
0.00115808
0.00214089
0.00213798
0.00212759
0.00210924
0.00208511
0.00205714
0.00202353
0.00198262
0.00193526
0.00188281
0.00182598
0.00176414
0.00169614
0.00162368
0.00155891
0.00151344
0.00150461
0.00159681
0.00489695
0.00222184
0.0022232
0.00221588
0.00219978
0.00217671
0.00214812
0.00211322
0.00207088
0.00202132
0.00196542
0.00190394
0.00183696
0.00176395
0.00168511
0.00160637
0.00154285
0.00152107
0.00158468
0.0011576
0.00232082
0.00232699
0.00232394
0.00231139
0.00229056
0.00226257
0.00222724
0.002184
0.00213299
0.00207489
0.00201056
0.00194068
0.00186582
0.00178677
0.00170587
0.00163457
0.00160427
0.00166233
0.00115333
0.00244115
0.002453
0.00245525
0.00244738
0.00243001
0.00240389
0.00236917
0.0023258
0.00227406
0.00221469
0.00214879
0.00207771
0.00200317
0.00192756
0.00185448
0.00179518
0.00178847
0.00192458
0.00111876
0.00258675
0.00260549
0.00261415
0.002612
0.00259917
0.0025761
0.00254308
0.0025004
0.00244859
0.00238861
0.00232191
0.00225054
0.00217737
0.0021067
0.00204538
0.00200909
0.00204717
0.00229895
0.00111821
0.00276206
0.00278922
0.00280559
0.00281029
0.00280308
0.00278416
0.00275384
0.00271263
0.00266128
0.00260103
0.00253373
0.00246207
0.00239005
0.00232375
0.00227345
0.00226051
0.00234499
0.00274407
0.00500942
0.00297233
0.00300973
0.00303538
0.00304824
0.00304784
0.00303415
0.00300748
0.00296839
0.00291786
0.00285736
0.00278912
0.00271642
0.00264417
0.00258006
0.00253721
0.0025421
0.00266287
0.00315646
0.0060961
0.0032238
0.00327364
0.00331045
0.00333307
0.00334083
0.00333354
0.00331139
0.00327501
0.00322548
0.00316448
0.00309453
0.00301942
0.00294481
0.0028797
0.00283966
0.00285614
0.00300994
0.00359895
0.00715215
0.00352404
0.00358893
0.00363919
0.0036735
0.00369101
0.00369137
0.00367468
0.00364154
0.00359307
0.00353108
0.00345835
0.00337901
0.00329935
0.00322946
0.0031869
0.00320733
0.00337994
0.00403549
0.00802861
0.00388221
0.00396528
0.00403172
0.00408001
0.00410915
0.00411862
0.0041084
0.00407902
0.00403161
0.00396802
0.00389116
0.00380545
0.00371767
0.00363879
0.00358807
0.00360434
0.00378378
0.00448774
0.00885778
0.00430945
0.00441443
0.00450027
0.00456528
0.00460825
0.0046285
0.00462591
0.00460089
0.0045545
0.00448859
0.00440611
0.00431166
0.00421243
0.00412016
0.00405577
0.00406088
0.00423988
0.0049884
0.00975567
0.00481924
0.00495054
0.00505961
0.0051445
0.00520386
0.00523686
0.00524323
0.00522328
0.00517793
0.00510896
0.0050193
0.00491362
0.00479948
0.00468951
0.00460607
0.00459448
0.00476968
0.00557035
0.0108306
0.00542794
0.00559076
0.00572748
0.00583594
0.00591463
0.00596261
0.00597951
0.00596548
0.00592133
0.00584866
0.00575028
0.00563096
0.00549853
0.00536638
0.00525881
0.00522597
0.00539651
0.00626444
0.0121672
0.00615541
0.0063558
0.00652527
0.00666147
0.00676281
0.00682832
0.00685754
0.00685053
0.00680793
0.00673115
0.00662281
0.00648757
0.00633346
0.00617473
0.00603811
0.00597973
0.00614514
0.0070956
0.013782
0.00702573
0.00727071
0.00747871
0.00764731
0.00777497
0.0078608
0.00790442
0.00790583
0.0078655
0.00778458
0.00766538
0.0075123
0.00733345
0.00714401
0.0069734
0.00688483
0.00704354
0.00808819
0.015678
0.00806828
0.00836582
0.00861876
0.00882483
0.00898275
0.00909197
0.00915232
0.00916387
0.00912697
0.00904246
0.00891218
0.0087401
0.00853422
0.00831045
0.00810111
0.00797723
0.00812634
0.00927432
0.0178823
0.00931885
0.00967796
0.00998284
0.0102317
0.010424
0.0105597
0.0106393
0.0106631
0.0106314
0.0105447
0.0104042
0.0102132
0.00997937
0.00971896
0.009467
0.00930294
0.00943903
0.0106982
0.0204259
0.0108213
0.011252
0.0116161
0.0119131
0.0121437
0.0123091
0.0124105
0.012449
0.0124249
0.0123385
0.0121902
0.0119826
0.0117221
0.0114252
0.0111292
0.0109222
0.0110449
0.0124344
0.0234789
0.0126299
0.0131426
0.0135732
0.0139233
0.0141956
0.0143933
0.0145191
0.0145751
0.0145619
0.0144797
0.0143283
0.014109
0.0138271
0.0134982
0.0131613
0.012914
0.013031
0.0145953
0.0273602
0.0148114
0.0154169
0.0159206
0.0163275
0.0166438
0.0168757
0.017028
0.0171043
0.0171061
0.0170337
0.0168865
0.0166646
0.0163717
0.0160221
0.0156558
0.0153802
0.0155106
0.0173188
0.0323586
0.0174492
0.0181574
0.0187389
0.0192044
0.0195652
0.0198316
0.0200116
0.0201109
0.0201324
0.0200772
0.0199445
0.0197339
0.0194478
0.0190989
0.0187274
0.0184505
0.0186304
0.0207734
0.0387307
0.0206474
0.0214655
0.0221263
0.0226487
0.0230516
0.0233506
0.023558
0.0236822
0.0237284
0.0236989
0.0235943
0.0234143
0.0231615
0.0228482
0.0225152
0.0222892
0.0225844
0.0251902
0.0468518
0.0245361
0.0254666
0.0262021
0.0267749
0.0272133
0.02754
0.0277721
0.0279217
0.0279968
0.0280022
0.027941
0.0278159
0.0276325
0.0274066
0.0271835
0.027102
0.0276342
0.030911
0.0573774
0.0292788
0.0303142
0.0311116
0.031721
0.032183
0.0325284
0.0327797
0.0329528
0.0330591
0.0331072
0.0331046
0.0330608
0.0329904
0.0329211
0.0329147
0.0331353
0.0341286
0.0384409
0.0713063
0.0350791
0.0361966
0.0370304
0.0376537
0.0381212
0.0384717
0.0387327
0.038924
0.0390603
0.0391549
0.0392222
0.0392828
0.0393689
0.039536
0.0398885
0.0406555
0.0425102
0.0485355
0.0902196
0.042189
0.0433415
0.04417
0.0447744
0.0452224
0.0455597
0.0458172
0.0460168
0.0461766
0.0463143
0.046453
0.0466281
0.046899
0.047371
0.0482366
0.0498814
0.0532706
0.0623422
0.117084
0.0509132
0.0520204
0.0527837
0.0533265
0.0537249
0.0540266
0.0542631
0.0544565
0.0546262
0.0547934
0.0549887
0.0552629
0.055708
0.0564969
0.0579678
0.0608199
0.0667137
0.0814439
0.157837
0.0616063
0.0625506
0.0631736
0.0636063
0.063922
0.0641639
0.064359
0.064527
0.0646855
0.0648562
0.0650723
0.0653936
0.0659352
0.0669314
0.0688872
0.0729693
0.0822162
0.107043
0.225296
0.0746575
0.0752966
0.0757016
0.0759783
0.0761809
0.076339
0.0764711
0.0765904
0.07671
0.0768465
0.0770278
0.0773058
0.0777868
0.0787043
0.0806184
0.0850257
0.0966182
0.135069
0.349611
0.0904643
0.0906781
0.0908097
0.0908994
0.0909662
0.0910202
0.0910675
0.0911129
0.0911612
0.0912193
0.091299
0.0914229
0.0916386
0.0920569
0.0929721
0.0953175
0.10289
0.139155
0.579832
)
;

boundaryField
{
    leftWall
    {
        type            epsilonWallFunction;
        value           nonuniform List<scalar> 
50
(
0.000134555
0.000278415
0.000475614
0.000670459
0.000859018
0.00104328
0.00122646
0.00141161
0.00170847
0.00211989
0.00267456
0.00350215
0.00436372
0.00430485
0.00167849
0.00176448
0.00176515
0.00176873
0.00746636
0.00746644
0.00176577
0.00176411
0.00176485
0.00176543
0.00747054
0.00176476
0.00176795
0.00176531
0.00176713
0.00176622
0.00747433
0.00176546
0.00176701
0.00747044
0.00747484
0.00748268
0.00176623
0.00746783
0.00176771
0.00748593
0.00176723
0.00748231
0.00748596
0.00748281
0.00749279
0.00747517
0.00748212
0.0144046
0.147489
1.53735
)
;
    }
    rightWall
    {
        type            epsilonWallFunction;
        value           nonuniform List<scalar> 
50
(
0.000147799
0.000216951
0.000372505
0.000551995
0.000752538
0.000972382
0.0012271
0.00153093
0.00191427
0.00223715
0.00234745
0.00283032
0.00271417
0.00293785
0.00112466
0.00490408
0.00115903
0.00489242
0.00489384
0.00115808
0.00489695
0.0011576
0.00115333
0.00111876
0.00111821
0.00500942
0.0060961
0.00715215
0.00802861
0.00885778
0.00975567
0.0108306
0.0121672
0.013782
0.015678
0.0178823
0.0204259
0.0234789
0.0273602
0.0323586
0.0387307
0.0468518
0.0573774
0.0713063
0.0902196
0.117084
0.157837
0.225296
0.349611
0.579832
)
;
    }
    lowerWall
    {
        type            epsilonWallFunction;
        value           nonuniform List<scalar> 
62
(
0.000134555
0.000740931
0.00132417
0.00185056
0.00232321
0.00274578
0.00312064
0.00344956
0.0037351
0.00398392
0.00421192
0.00442101
0.00460961
0.00475466
0.00480037
0.00465213
0.00420938
0.00363206
0.00302045
0.00246251
0.00195576
0.00129849
0.000448156
0.000448156
0.000693392
0.00115277
0.00168751
0.00235029
0.00327739
0.00484747
0.00805008
0.00879683
0.00711183
0.00710513
0.00855798
0.000596492
0.000622168
0.000847007
0.00115354
0.0016038
0.00233429
0.00370647
0.0068254
0.000596492
0.00214072
0.00334888
0.00395411
0.00432498
0.00450774
0.00461648
0.00463909
0.00439676
0.00381252
0.00308703
0.00238469
0.00189191
0.00185774
0.00189541
0.00173683
0.00119527
0.000709328
0.000147799
)
;
    }
    atmosphere
    {
        type            inletOutlet;
        inletValue      uniform 0.1;
        value           nonuniform List<scalar> 
46
(
0.1
0.124926
0.0173628
0.00656101
0.00459851
0.00416956
0.00422783
0.0045398
0.00504439
0.00573667
0.00663945
0.00779625
0.00927198
0.0111578
0.0135799
0.0167147
0.0208137
0.0262476
0.0335931
0.0438172
0.0587144
0.1
0.1
0.1
0.1
0.1
0.1
0.1
0.1
0.1
0.1
0.1
0.1
0.1
0.1
0.1
0.1
0.1
0.1
0.1
0.1
0.1
0.1
0.1
0.1
0.579832
)
;
    }
    defaultFaces
    {
        type            empty;
    }
}


// ************************************************************************* //
