/*--------------------------------*- C++ -*----------------------------------*\
  =========                 |
  \\      /  F ield         | OpenFOAM: The Open Source CFD Toolbox
   \\    /   O peration     | Website:  https://openfoam.org
    \\  /    A nd           | Version:  9
     \\/     M anipulation  |
\*---------------------------------------------------------------------------*/
FoamFile
{
    format      ascii;
    class       volScalarField;
    location    "7.69";
    object      p;
}
// * * * * * * * * * * * * * * * * * * * * * * * * * * * * * * * * * * * * * //

dimensions      [1 -1 -2 0 0 0 0];

internalField   nonuniform List<scalar> 
2268
(
734.13
734.059
733.985
733.918
733.861
733.813
733.775
733.744
733.718
733.694
733.667
733.632
733.581
733.498
733.367
733.181
732.959
732.761
732.608
732.474
732.465
732.481
732.459
675.29
675.225
675.155
675.091
675.032
674.981
674.938
674.901
674.868
674.836
674.799
674.751
674.682
674.58
674.437
674.259
674.085
673.955
673.908
673.813
673.662
673.551
673.533
616.451
616.392
616.325
616.264
616.205
616.153
616.105
616.063
616.023
615.983
615.936
615.876
615.792
615.677
615.528
615.36
615.211
615.116
615.125
615.069
614.8
614.62
614.61
557.615
557.555
557.488
557.429
557.373
557.319
557.27
557.224
557.18
557.133
557.079
557.01
556.919
556.8
556.653
556.496
556.345
556.234
556.25
556.203
555.894
555.69
555.697
498.778
498.714
498.646
498.588
498.532
498.479
498.43
498.382
498.335
498.285
498.226
498.153
498.061
497.947
497.811
497.672
497.523
497.305
497.326
497.264
496.952
496.809
496.799
439.941
439.87
439.798
439.74
439.685
439.634
439.585
439.539
439.49
439.437
439.375
439.301
439.214
439.111
438.997
438.89
438.81
438.507
438.387
438.316
438.066
438.055
437.91
381.101
381.023
380.948
380.888
380.834
380.785
380.738
380.694
380.646
380.591
380.526
380.453
380.373
380.287
380.203
380.147
380.215
380.212
379.891
379.722
379.632
379.368
379.015
322.258
322.178
322.099
322.038
321.985
321.937
321.894
321.852
321.806
321.748
321.68
321.607
321.537
321.472
321.422
321.418
321.613
322.042
321.887
321.69
321.52
320.735
320.136
730.261
730.837
731.241
731.318
731.219
731.011
730.761
730.479
730.177
729.908
729.741
729.632
729.609
729.742
729.706
729.885
729.919
729.958
730.011
671.671
671.807
672.238
672.334
672.275
672.147
671.957
671.694
671.418
671.247
671.269
671.335
671.325
671.117
670.96
671.092
671.134
671.154
671.257
613.165
613.052
613.319
613.379
613.331
613.214
613.035
612.797
612.566
612.458
612.611
612.804
612.834
612.508
612.241
612.352
612.396
612.522
612.644
554.657
554.464
554.503
554.487
554.425
554.308
554.143
553.933
553.747
553.65
553.829
554.025
554.097
553.797
553.534
553.644
553.672
553.978
554.115
496.041
495.828
495.722
495.634
495.549
495.431
495.286
495.11
494.958
494.848
495.001
495.189
495.251
494.992
494.922
494.959
494.956
495.319
495.466
437.206
437.048
436.916
436.792
436.69
436.565
436.438
436.308
436.194
436.025
436.128
436.339
436.399
436.091
436.373
436.494
436.44
436.572
436.739
378.228
378.166
378.078
377.952
377.838
377.701
377.593
377.529
377.516
377.429
377.25
377.481
377.561
377.532
377.908
377.959
378.034
377.788
378.018
319.227
319.318
319.24
319.118
318.993
318.828
318.743
318.783
318.987
319.486
318.877
318.809
318.906
319.676
319.594
319.403
319.536
319.069
319.322
230.271
230.183
230.096
230.028
229.975
229.929
229.893
229.859
229.816
229.754
229.676
229.601
229.548
229.519
229.523
229.587
229.797
230.159
230.149
229.952
229.629
229.019
228.222
105.847
105.724
105.583
105.475
105.421
105.363
105.286
105.261
105.281
105.307
105.326
105.34
105.341
105.321
105.304
105.335
105.478
105.732
105.867
105.698
105.255
104.782
104.134
21.6554
21.5642
21.5011
21.461
21.4433
21.4407
21.4425
21.4403
21.4711
21.5319
21.6039
21.6566
21.6522
21.6133
21.5617
21.5485
21.647
21.8072
21.8929
21.8225
21.6029
21.3555
21.0868
-0.718008
-0.72275
-0.663702
-0.610149
-0.603663
-0.566947
-0.461235
-0.442968
-0.454849
-0.458563
-0.465117
-0.47849
-0.514888
-0.542813
-0.566141
-0.59244
-0.639068
-0.699122
-0.755574
-0.7587
-0.743969
-0.735291
-0.747245
-0.933858
-0.934823
-0.925255
-0.918606
-0.915182
-0.90455
-0.88348
-0.869201
-0.862538
-0.856324
-0.852521
-0.850672
-0.852219
-0.862188
-0.871209
-0.88101
-0.893637
-0.905081
-0.914988
-0.918395
-0.918286
-0.922132
-0.925505
-1.12906
-1.12882
-1.13258
-1.13983
-1.14042
-1.14264
-1.15306
-1.15542
-1.15649
-1.15751
-1.15799
-1.15785
-1.15581
-1.15096
-1.14647
-1.14472
-1.14228
-1.13695
-1.13062
-1.12881
-1.12623
-1.12178
-1.11678
-1.28115
-1.28099
-1.28206
-1.28084
-1.28124
-1.28282
-1.28326
-1.28334
-1.2836
-1.2837
-1.28327
-1.28249
-1.2807
-1.27795
-1.27665
-1.27654
-1.27717
-1.27881
-1.27955
-1.27997
-1.27987
-1.27689
-1.2756
-1.40773
-1.40768
-1.40885
-1.40755
-1.40771
-1.40793
-1.40832
-1.4085
-1.40868
-1.40877
-1.40867
-1.40852
-1.40824
-1.40819
-1.40859
-1.4079
-1.40681
-1.40697
-1.40749
-1.40765
-1.40815
-1.40946
-1.40974
-1.53329
-1.53327
-1.53378
-1.53322
-1.53333
-1.53344
-1.53361
-1.53378
-1.53394
-1.53408
-1.53419
-1.53446
-1.53515
-1.53653
-1.5367
-1.53584
-1.53464
-1.53416
-1.53397
-1.53366
-1.53381
-1.5342
-1.53422
-1.65871
-1.6587
-1.65893
-1.65872
-1.65879
-1.65892
-1.65905
-1.65917
-1.65931
-1.65948
-1.65968
-1.65996
-1.66054
-1.66116
-1.66126
-1.66095
-1.66055
-1.66003
-1.65956
-1.65929
-1.65928
-1.65938
-1.65931
-1.78405
-1.78408
-1.78418
-1.78412
-1.78418
-1.78429
-1.78441
-1.78451
-1.78466
-1.78487
-1.78511
-1.78529
-1.78561
-1.78593
-1.78599
-1.78573
-1.7854
-1.78513
-1.78492
-1.78477
-1.78473
-1.78475
-1.78471
-1.90939
-1.90942
-1.90947
-1.90946
-1.90951
-1.90959
-1.90969
-1.90979
-1.90997
-1.91022
-1.9104
-1.91053
-1.91073
-1.91092
-1.91097
-1.9108
-1.91058
-1.91036
-1.91022
-1.91019
-1.91017
-1.9102
-1.91026
-2.03469
-2.03476
-2.03477
-2.03478
-2.03483
-2.0349
-2.03498
-2.03509
-2.03528
-2.03551
-2.03561
-2.03574
-2.03589
-2.03604
-2.03614
-2.03618
-2.03606
-2.03586
-2.0357
-2.03564
-2.03562
-2.03565
-2.03576
-2.15999
-2.16006
-2.16006
-2.16007
-2.16012
-2.1602
-2.16029
-2.16042
-2.16059
-2.16073
-2.16083
-2.16094
-2.16107
-2.1612
-2.16134
-2.1615
-2.16154
-2.16143
-2.16127
-2.16109
-2.16103
-2.16105
-2.16115
-2.28532
-2.28531
-2.28532
-2.28535
-2.28541
-2.28549
-2.28561
-2.28574
-2.28587
-2.28595
-2.28603
-2.28614
-2.28625
-2.28637
-2.28649
-2.28663
-2.28675
-2.28675
-2.28659
-2.28642
-2.28636
-2.28637
-2.28644
-2.41063
-2.41056
-2.41059
-2.41062
-2.41068
-2.41076
-2.41088
-2.411
-2.41108
-2.41115
-2.41123
-2.41132
-2.41142
-2.41152
-2.41162
-2.41172
-2.4118
-2.41181
-2.41174
-2.41165
-2.41162
-2.41162
-2.41167
-2.5359
-2.53583
-2.53586
-2.53589
-2.53594
-2.53601
-2.5361
-2.5362
-2.53627
-2.53635
-2.53642
-2.5365
-2.53658
-2.53667
-2.53675
-2.53683
-2.53688
-2.5369
-2.53687
-2.53683
-2.53681
-2.53682
-2.53685
-2.66114
-2.66113
-2.66113
-2.66116
-2.6612
-2.66125
-2.66133
-2.6614
-2.66147
-2.66154
-2.66161
-2.66168
-2.66175
-2.66182
-2.66188
-2.66194
-2.66199
-2.662
-2.662
-2.66199
-2.66198
-2.66199
-2.662
-2.78638
-2.78642
-2.78641
-2.78642
-2.78645
-2.7865
-2.78655
-2.78661
-2.78667
-2.78673
-2.78679
-2.78685
-2.78691
-2.78697
-2.78702
-2.78707
-2.78711
-2.78713
-2.78713
-2.78713
-2.78713
-2.78714
-2.78715
-2.91167
-2.91167
-2.91167
-2.91168
-2.9117
-2.91174
-2.91178
-2.91183
-2.91188
-2.91193
-2.91198
-2.91203
-2.91208
-2.91213
-2.91217
-2.91221
-2.91224
-2.91226
-2.91227
-2.91228
-2.91228
-2.91229
-2.9123
-3.03695
-3.0369
-3.03692
-3.03693
-3.03695
-3.03697
-3.03701
-3.03704
-3.03708
-3.03713
-3.03717
-3.03721
-3.03725
-3.03729
-3.03733
-3.03736
-3.03739
-3.03741
-3.03742
-3.03743
-3.03744
-3.03745
-3.03746
-3.16217
-3.16217
-3.16217
-3.16217
-3.16219
-3.1622
-3.16223
-3.16226
-3.16229
-3.16233
-3.16236
-3.1624
-3.16243
-3.16247
-3.1625
-3.16253
-3.16255
-3.16257
-3.16258
-3.16259
-3.1626
-3.16261
-3.16262
-3.28739
-3.28743
-3.28742
-3.28741
-3.28742
-3.28743
-3.28745
-3.28747
-3.2875
-3.28753
-3.28756
-3.28759
-3.28762
-3.28765
-3.28767
-3.2877
-3.28772
-3.28774
-3.28775
-3.28776
-3.28777
-3.28778
-3.28779
-3.41264
-3.41267
-3.41265
-3.41265
-3.41265
-3.41266
-3.41267
-3.41269
-3.41271
-3.41273
-3.41276
-3.41278
-3.41281
-3.41283
-3.41285
-3.41287
-3.41289
-3.41291
-3.41293
-3.41294
-3.41295
-3.41296
-3.41297
-3.53788
-3.5379
-3.53788
-3.53787
-3.53787
-3.53787
-3.53788
-3.5379
-3.53791
-3.53793
-3.53795
-3.53797
-3.53799
-3.53802
-3.53804
-3.53806
-3.53807
-3.53809
-3.53811
-3.53812
-3.53813
-3.53814
-3.53816
-3.66311
-3.66312
-3.6631
-3.66309
-3.66308
-3.66308
-3.66309
-3.6631
-3.66311
-3.66313
-3.66315
-3.66317
-3.66318
-3.6632
-3.66322
-3.66324
-3.66326
-3.66327
-3.66329
-3.6633
-3.66332
-3.66333
-3.66334
-3.78831
-3.78833
-3.78831
-3.7883
-3.78829
-3.78829
-3.78829
-3.7883
-3.78831
-3.78833
-3.78834
-3.78836
-3.78838
-3.78839
-3.78841
-3.78843
-3.78844
-3.78846
-3.78847
-3.78849
-3.78851
-3.78852
-3.78853
-3.9135
-3.91354
-3.91351
-3.9135
-3.91349
-3.91349
-3.91349
-3.9135
-3.91351
-3.91352
-3.91354
-3.91355
-3.91357
-3.91358
-3.9136
-3.91361
-3.91363
-3.91365
-3.91366
-3.91368
-3.91369
-3.91371
-3.91373
-4.03874
-4.03871
-4.0387
-4.03869
-4.03868
-4.03868
-4.03868
-4.03869
-4.0387
-4.03872
-4.03873
-4.03874
-4.03876
-4.03877
-4.03879
-4.0388
-4.03882
-4.03884
-4.03885
-4.03887
-4.03889
-4.0389
-4.03892
-4.16393
-4.16391
-4.16389
-4.16387
-4.16387
-4.16387
-4.16387
-4.16388
-4.1639
-4.16391
-4.16392
-4.16394
-4.16395
-4.16397
-4.16398
-4.16399
-4.16401
-4.16403
-4.16404
-4.16406
-4.16408
-4.16409
-4.16411
-4.28912
-4.28911
-4.28907
-4.28905
-4.28905
-4.28905
-4.28906
-4.28907
-4.28909
-4.2891
-4.28912
-4.28913
-4.28914
-4.28916
-4.28917
-4.28918
-4.2892
-4.28921
-4.28923
-4.28925
-4.28927
-4.28929
-4.28931
-4.41432
-4.4143
-4.41425
-4.41422
-4.41422
-4.41424
-4.41425
-4.41427
-4.41428
-4.41429
-4.41431
-4.41432
-4.41434
-4.41435
-4.41436
-4.41437
-4.41439
-4.4144
-4.41442
-4.41444
-4.41445
-4.41447
-4.4145
-4.53952
-4.53948
-4.53942
-4.53939
-4.5394
-4.53942
-4.53944
-4.53946
-4.53947
-4.53949
-4.5395
-4.53951
-4.53953
-4.53954
-4.53955
-4.53956
-4.53958
-4.53959
-4.5396
-4.53962
-4.53964
-4.53966
-4.53968
-4.66474
-4.66465
-4.66461
-4.66459
-4.66459
-4.66462
-4.66464
-4.66465
-4.66467
-4.66468
-4.6647
-4.66471
-4.66472
-4.66473
-4.66474
-4.66475
-4.66476
-4.66478
-4.66479
-4.66481
-4.66483
-4.66485
-4.66487
-4.78992
-4.78985
-4.78981
-4.7898
-4.78981
-4.78982
-4.78984
-4.78985
-4.78987
-4.78988
-4.78989
-4.7899
-4.78991
-4.78992
-4.78993
-4.78994
-4.78995
-4.78996
-4.78997
-4.78999
-4.79001
-4.79003
-4.79006
-4.9151
-4.91502
-4.91501
-4.91501
-4.91503
-4.91503
-4.91504
-4.91506
-4.91507
-4.91508
-4.91509
-4.9151
-4.91511
-4.91512
-4.91512
-4.91513
-4.91514
-4.91515
-4.91516
-4.91517
-4.91519
-4.91521
-4.91524
-5.04022
-5.04016
-5.04017
-5.0402
-5.04022
-5.04023
-5.04025
-5.04026
-5.04027
-5.04028
-5.04029
-5.0403
-5.04031
-5.04031
-5.04032
-5.04032
-5.04033
-5.04033
-5.04034
-5.04035
-5.04037
-5.0404
-5.04043
-5.1653
-5.16527
-5.16531
-5.16536
-5.1654
-5.16543
-5.16545
-5.16547
-5.16548
-5.16549
-5.1655
-5.1655
-5.16551
-5.16551
-5.16551
-5.16552
-5.16552
-5.16552
-5.16553
-5.16554
-5.16555
-5.16558
-5.16561
-5.29034
-5.29034
-5.29046
-5.29054
-5.2906
-5.29064
-5.29066
-5.29068
-5.29069
-5.2907
-5.2907
-5.29071
-5.29071
-5.29071
-5.29071
-5.29071
-5.29071
-5.29071
-5.29071
-5.29072
-5.29073
-5.29076
-5.2908
-5.4154
-5.41547
-5.41565
-5.41576
-5.41583
-5.41586
-5.41588
-5.4159
-5.4159
-5.41591
-5.41591
-5.41592
-5.41592
-5.41592
-5.41592
-5.41591
-5.41591
-5.41591
-5.4159
-5.4159
-5.4159
-5.41594
-5.41599
-5.54044
-5.5407
-5.5409
-5.541
-5.54106
-5.54109
-5.5411
-5.5411
-5.5411
-5.5411
-5.54111
-5.54111
-5.5411
-5.5411
-5.5411
-5.5411
-5.54109
-5.54108
-5.54107
-5.54105
-5.54103
-5.54108
-5.54119
-5.66579
-5.66637
-5.66629
-5.6663
-5.66632
-5.66631
-5.66631
-5.66631
-5.66631
-5.66631
-5.66631
-5.66631
-5.66631
-5.6663
-5.6663
-5.6663
-5.66629
-5.66628
-5.66626
-5.66623
-5.66616
-5.6662
-5.66638
229.006
228.734
228.661
228.511
104.303
104.218
104.106
103.931
21.063
21.0133
20.9525
20.8792
-0.765453
-0.772095
-0.770215
-0.763324
-0.926882
-0.926297
-0.928627
-0.926921
-1.11498
-1.11475
-1.11339
-1.11417
-1.27519
-1.27427
-1.27313
-1.27454
-1.40871
-1.40818
-1.40814
-1.408
-1.53373
-1.53339
-1.53307
-1.53278
-1.65896
-1.65869
-1.65834
-1.65802
-1.78456
-1.78445
-1.7843
-1.78411
-1.91034
-1.91044
-1.91061
-1.9107
-2.03593
-2.03609
-2.03631
-2.03657
-2.1613
-2.16141
-2.16154
-2.16169
-2.28655
-2.28661
-2.28668
-2.28676
-2.41173
-2.41177
-2.41181
-2.41184
-2.53689
-2.53691
-2.53693
-2.53694
-2.66202
-2.66204
-2.66205
-2.66206
-2.78716
-2.78717
-2.78717
-2.78718
-2.91231
-2.91231
-2.91232
-2.91232
-3.03746
-3.03746
-3.03747
-3.03747
-3.16262
-3.16263
-3.16263
-3.16264
-3.2878
-3.2878
-3.28781
-3.28781
-3.41298
-3.41298
-3.41299
-3.41299
-3.53816
-3.53817
-3.53817
-3.53818
-3.66335
-3.66336
-3.66337
-3.66337
-3.78855
-3.78855
-3.78856
-3.78857
-3.91374
-3.91375
-3.91376
-3.91376
-4.03893
-4.03894
-4.03895
-4.03896
-4.16413
-4.16414
-4.16415
-4.16416
-4.28932
-4.28933
-4.28934
-4.28935
-4.41451
-4.41452
-4.41453
-4.41454
-4.5397
-4.53971
-4.53972
-4.53973
-4.66489
-4.6649
-4.66491
-4.66492
-4.79007
-4.79009
-4.7901
-4.79011
-4.91526
-4.91527
-4.91529
-4.9153
-5.04045
-5.04046
-5.04047
-5.04049
-5.16564
-5.16565
-5.16566
-5.16568
-5.29083
-5.29084
-5.29086
-5.29087
-5.41602
-5.41604
-5.41605
-5.41606
-5.54123
-5.54124
-5.54125
-5.54126
-5.66642
-5.66643
-5.66644
-5.66645
227.608
227.454
227.269
227.148
227.091
227.067
227.052
227.136
227.596
228.379
228.576
228.509
228.511
228.656
228.212
227.84
227.978
227.576
227.704
103.508
103.458
103.448
103.535
103.749
104.048
104.257
104.339
104.467
104.908
105.498
105.584
105.479
105.086
104.423
104.283
104.527
104.598
104.837
20.736
20.7024
20.7815
20.9302
21.1433
21.3938
21.6133
21.6783
21.4735
21.3896
21.6302
21.6658
21.5819
21.4014
21.1152
21.1766
21.3489
21.5723
21.8494
-0.748729
-0.740502
-0.690923
-0.68156
-0.686037
-0.698497
-0.704925
-0.703474
-0.696737
-0.707464
-0.736724
-0.778125
-0.814904
-0.753372
-0.693552
-0.684442
-0.685357
-0.697431
-0.703763
-0.925126
-0.923945
-0.913794
-0.908526
-0.908322
-0.914519
-0.917097
-0.91933
-0.923136
-0.929996
-0.940724
-0.951891
-0.956517
-0.947161
-0.939161
-0.934946
-0.932891
-0.932845
-0.935105
-1.11213
-1.11298
-1.12364
-1.12715
-1.12869
-1.12937
-1.1302
-1.13137
-1.13293
-1.13615
-1.13969
-1.13818
-1.12991
-1.1343
-1.13339
-1.13148
-1.13037
-1.12971
-1.12904
-1.2756
-1.2746
-1.2766
-1.27733
-1.27704
-1.27486
-1.27326
-1.27285
-1.27265
-1.27116
-1.26834
-1.26783
-1.26942
-1.27444
-1.27667
-1.2781
-1.27867
-1.27964
-1.27853
-1.40774
-1.40663
-1.40538
-1.40421
-1.40302
-1.40098
-1.40008
-1.39977
-1.39928
-1.39842
-1.3971
-1.39683
-1.39827
-1.40091
-1.40275
-1.40397
-1.40467
-1.40515
-1.40462
-1.53226
-1.53146
-1.53094
-1.5304
-1.52982
-1.52904
-1.52937
-1.52982
-1.52947
-1.52899
-1.52814
-1.52739
-1.52716
-1.52755
-1.52875
-1.5297
-1.53027
-1.53055
-1.53011
-1.65756
-1.65692
-1.65657
-1.65664
-1.65704
-1.65798
-1.65867
-1.65869
-1.65833
-1.65793
-1.65744
-1.65663
-1.6552
-1.65433
-1.65475
-1.65534
-1.65572
-1.65587
-1.65566
-1.78387
-1.78333
-1.78282
-1.78293
-1.78371
-1.78494
-1.78511
-1.78437
-1.78387
-1.7836
-1.78362
-1.78327
-1.78229
-1.78116
-1.78087
-1.78085
-1.78105
-1.78118
-1.78108
-1.91072
-1.91025
-1.90979
-1.90955
-1.9097
-1.91008
-1.91006
-1.90968
-1.90933
-1.90909
-1.90894
-1.90876
-1.90848
-1.9075
-1.90653
-1.90615
-1.90629
-1.90643
-1.90648
-2.03685
-2.03675
-2.03638
-2.03583
-2.03538
-2.03535
-2.03523
-2.03498
-2.03472
-2.03449
-2.03431
-2.03419
-2.03397
-2.03321
-2.03213
-2.03161
-2.03148
-2.0316
-2.03189
-2.16195
-2.16211
-2.16179
-2.16117
-2.16078
-2.16062
-2.16046
-2.16025
-2.16003
-2.15982
-2.15965
-2.15949
-2.15929
-2.15894
-2.15824
-2.15759
-2.15712
-2.15685
-2.15723
-2.28689
-2.28691
-2.28671
-2.28635
-2.28606
-2.28588
-2.2857
-2.28552
-2.28533
-2.28515
-2.285
-2.28485
-2.28472
-2.28459
-2.28414
-2.28356
-2.28292
-2.28222
-2.28263
-2.4119
-2.41189
-2.41174
-2.4115
-2.41128
-2.41111
-2.41095
-2.41079
-2.41063
-2.41048
-2.41035
-2.41022
-2.4101
-2.40994
-2.40964
-2.4092
-2.40867
-2.40819
-2.40866
-2.53697
-2.53695
-2.53684
-2.53667
-2.5365
-2.53635
-2.53621
-2.53607
-2.53594
-2.53582
-2.53571
-2.53562
-2.53553
-2.53542
-2.53527
-2.53511
-2.53498
-2.53497
-2.53536
-2.66207
-2.66205
-2.66197
-2.66185
-2.66172
-2.66159
-2.66147
-2.66136
-2.66125
-2.66116
-2.66109
-2.66103
-2.66099
-2.66098
-2.661
-2.66114
-2.6615
-2.66197
-2.66207
-2.78719
-2.78717
-2.78712
-2.78703
-2.78693
-2.78683
-2.78673
-2.78664
-2.78657
-2.7865
-2.78646
-2.78643
-2.78645
-2.7865
-2.78664
-2.78691
-2.78739
-2.78805
-2.78794
-2.91233
-2.91231
-2.91227
-2.91221
-2.91214
-2.91206
-2.91199
-2.91193
-2.91187
-2.91183
-2.91181
-2.91182
-2.91186
-2.91196
-2.91213
-2.9124
-2.91277
-2.91315
-2.91303
-3.03748
-3.03747
-3.03744
-3.0374
-3.03735
-3.0373
-3.03725
-3.0372
-3.03717
-3.03715
-3.03715
-3.03717
-3.03724
-3.03734
-3.0375
-3.03773
-3.03799
-3.03819
-3.03807
-3.16265
-3.16264
-3.16262
-3.1626
-3.16256
-3.16253
-3.16249
-3.16247
-3.16245
-3.16245
-3.16246
-3.1625
-3.16257
-3.16267
-3.16281
-3.16298
-3.16314
-3.16323
-3.1631
-3.28782
-3.28782
-3.28781
-3.2878
-3.28778
-3.28776
-3.28774
-3.28773
-3.28772
-3.28773
-3.28776
-3.28781
-3.28787
-3.28797
-3.28808
-3.2882
-3.28828
-3.28829
-3.28813
-3.413
-3.41301
-3.41301
-3.413
-3.41299
-3.41299
-3.41298
-3.41298
-3.41299
-3.41301
-3.41304
-3.41309
-3.41315
-3.41324
-3.41332
-3.41341
-3.41344
-3.41341
-3.41323
-3.53819
-3.5382
-3.53821
-3.53821
-3.53821
-3.53821
-3.53821
-3.53822
-3.53824
-3.53827
-3.53831
-3.53836
-3.53842
-3.53849
-3.53856
-3.53862
-3.53864
-3.5386
-3.53844
-3.66339
-3.6634
-3.66341
-3.66342
-3.66342
-3.66343
-3.66345
-3.66346
-3.66349
-3.66352
-3.66356
-3.66361
-3.66367
-3.66373
-3.66379
-3.66384
-3.66386
-3.66382
-3.66368
-3.78858
-3.7886
-3.78861
-3.78862
-3.78864
-3.78865
-3.78867
-3.78869
-3.78872
-3.78876
-3.7888
-3.78885
-3.7889
-3.78896
-3.78901
-3.78906
-3.78907
-3.78904
-3.78892
-3.91378
-3.9138
-3.91381
-3.91383
-3.91385
-3.91387
-3.91389
-3.91392
-3.91395
-3.91399
-3.91403
-3.91408
-3.91413
-3.91418
-3.91423
-3.91426
-3.91427
-3.91423
-3.91414
-4.03898
-4.03899
-4.03901
-4.03904
-4.03906
-4.03908
-4.03911
-4.03914
-4.03917
-4.03921
-4.03926
-4.0393
-4.03935
-4.03939
-4.03943
-4.03944
-4.03942
-4.03936
-4.03923
-4.16417
-4.16419
-4.16421
-4.16424
-4.16426
-4.16429
-4.16432
-4.16435
-4.16439
-4.16443
-4.16448
-4.16452
-4.16457
-4.1646
-4.16462
-4.16462
-4.16456
-4.16445
-4.16426
-4.28936
-4.28939
-4.28941
-4.28944
-4.28946
-4.28949
-4.28952
-4.28956
-4.2896
-4.28964
-4.28969
-4.28974
-4.28978
-4.28981
-4.28983
-4.28981
-4.28973
-4.28959
-4.28937
-4.41456
-4.41458
-4.41461
-4.41463
-4.41466
-4.41469
-4.41473
-4.41476
-4.41481
-4.41485
-4.4149
-4.41495
-4.41499
-4.41503
-4.41504
-4.41502
-4.41495
-4.41481
-4.41459
-4.53975
-4.53977
-4.5398
-4.53983
-4.53986
-4.53989
-4.53992
-4.53996
-4.54001
-4.54005
-4.5401
-4.54016
-4.54021
-4.54025
-4.54027
-4.54026
-4.5402
-4.54007
-4.53986
-4.66494
-4.66497
-4.66499
-4.66502
-4.66505
-4.66508
-4.66512
-4.66516
-4.6652
-4.66525
-4.66531
-4.66536
-4.66542
-4.66547
-4.66551
-4.66552
-4.66548
-4.66535
-4.66512
-4.79013
-4.79016
-4.79018
-4.79021
-4.79024
-4.79027
-4.79031
-4.79035
-4.79039
-4.79044
-4.7905
-4.79056
-4.79063
-4.7907
-4.79075
-4.79079
-4.79077
-4.79064
-4.79038
-4.91532
-4.91535
-4.91537
-4.9154
-4.91543
-4.91546
-4.9155
-4.91553
-4.91558
-4.91563
-4.91569
-4.91576
-4.91584
-4.91592
-4.916
-4.91606
-4.91607
-4.91595
-4.91568
-5.04051
-5.04054
-5.04056
-5.04059
-5.04061
-5.04064
-5.04068
-5.04071
-5.04076
-5.04081
-5.04087
-5.04094
-5.04103
-5.04113
-5.04124
-5.04134
-5.04138
-5.04125
-5.04094
-5.1657
-5.16572
-5.16575
-5.16577
-5.1658
-5.16582
-5.16585
-5.16589
-5.16593
-5.16598
-5.16604
-5.16611
-5.16621
-5.16633
-5.16647
-5.16662
-5.16671
-5.16656
-5.16618
-5.29089
-5.29091
-5.29093
-5.29095
-5.29098
-5.291
-5.29102
-5.29105
-5.29109
-5.29113
-5.29119
-5.29126
-5.29136
-5.29149
-5.29167
-5.29189
-5.29209
-5.29195
-5.29156
-5.41608
-5.4161
-5.41612
-5.41613
-5.41615
-5.41617
-5.41619
-5.41621
-5.41624
-5.41627
-5.41632
-5.41638
-5.41647
-5.4166
-5.4168
-5.41713
-5.41752
-5.41747
-5.41714
-5.54127
-5.54129
-5.5413
-5.54131
-5.54132
-5.54133
-5.54134
-5.54136
-5.54138
-5.5414
-5.54143
-5.54148
-5.54154
-5.54164
-5.54182
-5.54221
-5.54293
-5.54315
-5.54311
-5.66646
-5.66647
-5.66647
-5.66648
-5.66649
-5.6665
-5.6665
-5.66651
-5.66652
-5.66653
-5.66655
-5.66657
-5.66659
-5.66664
-5.66674
-5.66703
-5.66783
-5.66874
-5.66956
)
;

boundaryField
{
    leftWall
    {
        type            calculated;
        value           nonuniform List<scalar> 
50
(
734.13
675.29
616.451
557.615
498.778
439.941
381.101
322.258
230.271
105.847
21.6554
-0.718008
-0.933858
-1.12906
-1.28115
-1.40773
-1.53329
-1.65871
-1.78405
-1.90939
-2.03469
-2.15999
-2.28532
-2.41063
-2.5359
-2.66114
-2.78638
-2.91167
-3.03695
-3.16217
-3.28739
-3.41264
-3.53788
-3.66311
-3.78831
-3.9135
-4.03874
-4.16393
-4.28912
-4.41432
-4.53952
-4.66474
-4.78992
-4.9151
-5.04022
-5.1653
-5.29034
-5.4154
-5.54044
-5.66579
)
;
    }
    rightWall
    {
        type            calculated;
        value           nonuniform List<scalar> 
50
(
730.011
671.257
612.644
554.115
495.466
436.739
378.018
319.322
227.704
104.837
21.8494
-0.703763
-0.935105
-1.12904
-1.27853
-1.40462
-1.53011
-1.65566
-1.78108
-1.90648
-2.03189
-2.15723
-2.28263
-2.40866
-2.53536
-2.66207
-2.78794
-2.91303
-3.03807
-3.1631
-3.28813
-3.41323
-3.53844
-3.66368
-3.78892
-3.91414
-4.03923
-4.16426
-4.28937
-4.41459
-4.53986
-4.66512
-4.79038
-4.91568
-5.04094
-5.16618
-5.29156
-5.41714
-5.54311
-5.66956
)
;
    }
    lowerWall
    {
        type            calculated;
        value           nonuniform List<scalar> 
62
(
763.56
763.488
763.414
763.348
763.29
763.242
763.204
763.173
763.147
763.123
763.096
763.062
763.01
762.928
762.797
762.61
762.388
762.19
761.995
761.828
761.838
761.91
761.881
732.459
673.533
614.61
555.697
496.799
437.91
379.015
320.136
291.6
291.326
291.254
291.106
730.261
671.671
613.165
554.657
496.041
437.206
378.228
319.227
759.573
760.265
760.645
760.717
760.618
760.334
760.02
759.738
759.444
759.136
758.941
758.832
758.809
759.132
759.096
759.276
759.309
759.348
759.397
)
;
    }
    atmosphere
    {
        type            calculated;
        value           nonuniform List<scalar> 
46
(
-5.72911
-5.72904
-5.72904
-5.72904
-5.72904
-5.72904
-5.72904
-5.72904
-5.72904
-5.72904
-5.72904
-5.72904
-5.72904
-5.72904
-5.72904
-5.72904
-5.72904
-5.72904
-5.72904
-5.72904
-5.72904
-5.72904
-5.72904
-5.72904
-5.72904
-5.72905
-5.72905
-5.72905
-5.72906
-5.72906
-5.72907
-5.72907
-5.72908
-5.72909
-5.7291
-5.7291
-5.72911
-5.72912
-5.72912
-5.72912
-5.72912
-5.72912
-5.72912
-5.7291
-5.72907
-5.73396
)
;
    }
    defaultFaces
    {
        type            empty;
    }
}


// ************************************************************************* //
