/*--------------------------------*- C++ -*----------------------------------*\
  =========                 |
  \\      /  F ield         | OpenFOAM: The Open Source CFD Toolbox
   \\    /   O peration     | Website:  https://openfoam.org
    \\  /    A nd           | Version:  9
     \\/     M anipulation  |
\*---------------------------------------------------------------------------*/
FoamFile
{
    format      ascii;
    class       volScalarField;
    location    "0.2";
    object      k;
}
// * * * * * * * * * * * * * * * * * * * * * * * * * * * * * * * * * * * * * //

dimensions      [0 2 -2 0 0 0 0];

internalField   nonuniform List<scalar> 
2268
(
0.00845024
0.0137584
0.0206385
0.0263004
0.0314914
0.0365174
0.0415482
0.0466675
0.0518879
0.0571481
0.062309
0.0671545
0.0714058
0.0747463
0.0768526
0.0774122
0.0760381
0.0735429
0.0695915
0.0639884
0.0570692
0.0460181
0.0309662
0.0132833
0.0296168
0.0426376
0.0536131
0.0635292
0.0729808
0.0823181
0.0917079
0.101154
0.110505
0.119457
0.127581
0.134364
0.139296
0.141985
0.142296
0.140449
0.136481
0.131954
0.128806
0.130285
0.125452
0.0760883
0.0163452
0.0371012
0.0528919
0.0662704
0.0784253
0.090056
0.101567
0.113139
0.124751
0.136188
0.147055
0.156816
0.16486
0.170629
0.173784
0.174417
0.173268
0.17135
0.170174
0.170726
0.174332
0.172813
0.108657
0.0185148
0.0422109
0.0596687
0.07445
0.0879694
0.100987
0.113923
0.126947
0.140009
0.152842
0.164991
0.175852
0.184768
0.191183
0.194855
0.196125
0.196182
0.196936
0.200527
0.207402
0.214931
0.214903
0.134385
0.0200421
0.04601
0.0646036
0.0802992
0.0947477
0.10876
0.122752
0.136877
0.151054
0.164977
0.178145
0.189913
0.199603
0.206687
0.211037
0.213238
0.214877
0.218508
0.226997
0.241012
0.255003
0.257634
0.159423
0.0211863
0.0488117
0.0682177
0.0845548
0.099675
0.114436
0.129251
0.144256
0.159343
0.174181
0.188234
0.200834
0.211295
0.219128
0.224323
0.227689
0.231152
0.237744
0.250994
0.27222
0.294704
0.303928
0.186175
0.0220617
0.0507726
0.070746
0.0875644
0.103203
0.118555
0.134033
0.149762
0.165622
0.181261
0.196127
0.209533
0.220794
0.229459
0.235628
0.240301
0.245674
0.255132
0.27278
0.300768
0.333045
0.354586
0.216228
0.0227393
0.0520294
0.0723459
0.0895364
0.105597
0.121436
0.137467
0.153811
0.170346
0.186715
0.202357
0.216573
0.228675
0.238241
0.245458
0.251482
0.25869
0.270697
0.292062
0.325666
0.367741
0.406736
0.252142
0.0107287
0.0183208
0.0225501
0.0249101
0.0257922
0.0258277
0.0250294
0.0238877
0.0227052
0.021641
0.0207257
0.0199341
0.0192047
0.0184598
0.0175754
0.0163697
0.0145562
0.0117564
0.0103672
0.0213045
0.0401287
0.0464425
0.0499929
0.0513594
0.0509989
0.0494854
0.0474757
0.045448
0.043663
0.0421879
0.0409584
0.0398364
0.0386342
0.0370937
0.0348298
0.0312161
0.0251278
0.0140731
0.0300161
0.0587853
0.0653622
0.0678571
0.0679039
0.066385
0.0638578
0.0609284
0.0580833
0.0556107
0.0535956
0.0519542
0.0504991
0.0489792
0.0470642
0.0442791
0.0398502
0.0322852
0.0170592
0.0398748
0.078939
0.0843618
0.084668
0.0825722
0.0792814
0.0753518
0.0713046
0.0675472
0.0643323
0.0617371
0.0596601
0.0578727
0.0560708
0.0538695
0.0507349
0.0458012
0.0373101
0.0192223
0.0523839
0.102703
0.105513
0.102625
0.097573
0.0917778
0.0859359
0.0804643
0.0756195
0.071553
0.0682985
0.0657284
0.0635753
0.0614844
0.059021
0.0556024
0.0502903
0.0411107
0.0208881
0.068625
0.131018
0.129622
0.122526
0.113722
0.104643
0.0963187
0.0890685
0.0829341
0.0778966
0.0739009
0.0707767
0.0682173
0.065819
0.0630989
0.0594281
0.053805
0.0440776
0.0222101
0.0893655
0.163228
0.156424
0.144432
0.131323
0.11825
0.106855
0.0974453
0.0898031
0.0836714
0.078856
0.0751208
0.0721155
0.0693887
0.0664097
0.0625049
0.0566154
0.0464426
0.0232855
0.118827
0.197187
0.184591
0.167883
0.15039
0.1328
0.117767
0.105797
0.0964124
0.0890578
0.0833465
0.0789483
0.0754605
0.0723846
0.069142
0.0650146
0.0588923
0.0483591
0.0242015
0.0233318
0.0528518
0.0733832
0.0909886
0.10757
0.124019
0.140747
0.157885
0.175319
0.192704
0.209478
0.22493
0.238358
0.249372
0.258273
0.266415
0.27639
0.291882
0.317486
0.356761
0.408923
0.462483
0.347293
0.0239805
0.0528376
0.0729924
0.0906802
0.107595
0.124545
0.141926
0.159886
0.178355
0.197029
0.215356
0.232576
0.247887
0.260806
0.271613
0.281669
0.293411
0.31001
0.334676
0.370229
0.415902
0.459822
0.411809
0.0245116
0.0522676
0.0716742
0.0890707
0.105963
0.123088
0.140835
0.159392
0.178753
0.198674
0.218617
0.23772
0.254949
0.269571
0.281702
0.292561
0.304237
0.319122
0.339358
0.366851
0.401512
0.437341
0.430968
0.0250232
0.051612
0.0701798
0.0870539
0.103624
0.120609
0.138427
0.157329
0.1774
0.198486
0.22008
0.241183
0.260415
0.276674
0.289929
0.301396
0.31305
0.326794
0.344092
0.366619
0.394722
0.427385
0.441022
0.0255654
0.0511516
0.0690098
0.085294
0.101363
0.117977
0.135617
0.154618
0.175173
0.197259
0.220464
0.243684
0.265132
0.28336
0.298411
0.311883
0.32613
0.343004
0.362758
0.384462
0.40951
0.444318
0.470236
0.0261745
0.0511086
0.0685097
0.0842789
0.0998316
0.11601
0.133363
0.152305
0.173141
0.19601
0.220687
0.246094
0.270144
0.291237
0.30982
0.327951
0.348122
0.371595
0.397404
0.417632
0.439134
0.475212
0.525338
0.0269007
0.0516576
0.068894
0.0843706
0.0996088
0.115518
0.132691
0.151598
0.172635
0.196102
0.222024
0.249611
0.276839
0.302269
0.326457
0.350831
0.377749
0.406234
0.425632
0.436885
0.447709
0.46826
0.527118
0.0278623
0.0527032
0.0701719
0.0858175
0.101188
0.117212
0.134511
0.153609
0.174982
0.19906
0.226099
0.255863
0.286991
0.317962
0.348296
0.378108
0.403483
0.420691
0.429083
0.432864
0.436711
0.449777
0.497975
0.0294315
0.0536744
0.0721789
0.0888087
0.104926
0.121552
0.139416
0.159137
0.181266
0.206348
0.234716
0.266622
0.301784
0.337876
0.3728
0.400342
0.414699
0.41968
0.418695
0.417402
0.420187
0.432274
0.474269
0.0326599
0.0545815
0.0753867
0.0939473
0.111359
0.129069
0.148075
0.16905
0.192497
0.219091
0.249142
0.282279
0.320233
0.359125
0.393065
0.41524
0.423942
0.419781
0.408995
0.40023
0.399615
0.411606
0.452538
0.0391835
0.0588815
0.0821173
0.102562
0.121334
0.140633
0.161312
0.183802
0.208294
0.235514
0.265989
0.300435
0.339277
0.378332
0.41124
0.430136
0.430897
0.416512
0.395752
0.378439
0.371751
0.381007
0.421948
0.0477879
0.0716901
0.0949416
0.114924
0.133481
0.15331
0.174499
0.197452
0.222569
0.25037
0.282165
0.318644
0.35805
0.395709
0.423642
0.434447
0.426031
0.403239
0.375365
0.351967
0.339806
0.344101
0.3801
0.0540344
0.0873158
0.112103
0.126918
0.142855
0.162316
0.184391
0.208997
0.236268
0.266255
0.298844
0.33383
0.369374
0.400537
0.420073
0.422199
0.406714
0.379732
0.349615
0.324281
0.309653
0.311223
0.341116
0.0561108
0.0955678
0.115696
0.130831
0.14926
0.170716
0.194542
0.220344
0.24799
0.277412
0.308299
0.339627
0.368989
0.391823
0.402254
0.397236
0.378353
0.351149
0.322461
0.2987
0.284353
0.284475
0.307707
0.0530225
0.0900682
0.113676
0.133736
0.154842
0.17765
0.202123
0.227978
0.254915
0.282589
0.310413
0.336707
0.358825
0.373128
0.376138
0.366797
0.347363
0.322556
0.2978
0.27753
0.264983
0.263858
0.279463
0.0509726
0.088381
0.114296
0.136949
0.15953
0.182929
0.207291
0.232374
0.257735
0.282737
0.306379
0.327002
0.342352
0.349912
0.347931
0.33665
0.318527
0.297372
0.277256
0.260877
0.250407
0.248081
0.256691
0.0507778
0.0901641
0.117132
0.140563
0.163464
0.186653
0.210217
0.233849
0.256987
0.27882
0.298229
0.313731
0.323632
0.32645
0.321617
0.310062
0.294109
0.276715
0.260604
0.247453
0.238568
0.235124
0.238341
0.051253
0.0927316
0.120245
0.143724
0.16629
0.188727
0.211051
0.232882
0.25358
0.272282
0.287921
0.299292
0.305258
0.305106
0.298969
0.288032
0.274293
0.259955
0.246756
0.235768
0.227723
0.223175
0.222539
0.0515931
0.0947248
0.122516
0.145729
0.167627
0.189012
0.209878
0.229816
0.248165
0.264095
0.276678
0.285004
0.28838
0.286587
0.280096
0.270087
0.258173
0.245959
0.234592
0.224779
0.216927
0.211282
0.207925
0.0514123
0.0955336
0.123347
0.146108
0.167165
0.187363
0.206718
0.224837
0.241095
0.254744
0.265017
0.271257
0.273078
0.270529
0.264189
0.2551
0.244529
0.233658
0.223299
0.213959
0.205895
0.199229
0.193946
0.0505972
0.094954
0.12249
0.144633
0.16474
0.183699
0.201577
0.218032
0.232508
0.244359
0.252969
0.257864
0.258846
0.256082
0.25013
0.241859
0.23226
0.22222
0.212372
0.203129
0.194698
0.187184
0.18058
0.0491951
0.0930369
0.119962
0.141306
0.160369
0.178066
0.194526
0.209479
0.222453
0.232905
0.240339
0.244408
0.24501
0.24234
0.236886
0.229348
0.220505
0.211055
0.201516
0.192268
0.183529
0.175432
0.168022
0.0473397
0.0900054
0.115983
0.136337
0.154255
0.170666
0.185756
0.199335
0.211017
0.220354
0.226942
0.230512
0.231005
0.228598
0.223694
0.216853
0.208693
0.199784
0.190565
0.181411
0.172571
0.164221
0.156464
0.0452028
0.0861881
0.11092
0.130097
0.146765
0.161853
0.175597
0.187883
0.198409
0.206808
0.212744
0.215998
0.216523
0.214461
0.210134
0.203989
0.196526
0.188228
0.179466
0.170616
0.161957
0.153707
0.146013
0.0429582
0.0819525
0.105209
0.123053
0.13838
0.152106
0.164511
0.175548
0.18499
0.192541
0.197921
0.200943
0.201556
0.199866
0.196125
0.190692
0.183979
0.176407
0.168286
0.159984
0.151799
0.143971
0.136679
0.0407541
0.0776461
0.0992945
0.115704
0.129629
0.14197
0.153041
0.162853
0.171248
0.177991
0.18285
0.18566
0.186365
0.185039
0.181877
0.17717
0.171262
0.164518
0.157214
0.149679
0.142213
0.135067
0.128427
0.0386966
0.0735498
0.0935677
0.108512
0.121021
0.131986
0.141746
0.150363
0.157737
0.163691
0.168034
0.170622
0.171397
0.170407
0.167802
0.163817
0.158743
0.152889
0.146527
0.139914
0.133339
0.127043
0.121207
0.0368457
0.0698527
0.0883221
0.101847
0.112987
0.122628
0.131132
0.138604
0.144998
0.150184
0.154012
0.156361
0.157174
0.15648
0.154394
0.151107
0.146862
0.141921
0.136543
0.130923
0.125318
0.119947
0.114973
0.035223
0.0666508
0.0837369
0.0959615
0.105835
0.114249
0.121591
0.128001
0.133476
0.137935
0.141263
0.143362
0.144182
0.143739
0.142122
0.139484
0.136026
0.13197
0.127545
0.122908
0.118268
0.113812
0.109681
0.0338244
0.063967
0.0798858
0.0909804
0.0997374
0.107063
0.113369
0.118828
0.123475
0.127269
0.130129
0.131981
0.132782
0.132544
0.131336
0.129278
0.126533
0.123287
0.119726
0.115999
0.112251
0.108636
0.105272
0.0326345
0.0617809
0.0767653
0.086926
0.0947424
0.101143
0.106562
0.111202
0.115133
0.118342
0.120783
0.122403
0.12317
0.123093
0.122225
0.120662
0.118534
0.11599
0.11318
0.110239
0.107264
0.104376
0.10167
0.0316404
0.0600622
0.0743345
0.0837551
0.0908094
0.0964513
0.10114
0.105103
0.108435
0.111153
0.113234
0.114646
0.115369
0.115411
0.114814
0.113654
0.112033
0.110069
0.107881
0.105582
0.103241
0.100949
0.09878
0.0308459
0.0587993
0.0725535
0.0814023
0.087853
0.0928886
0.0969919
0.10041
0.103258
0.105574
0.107358
0.108592
0.109267
0.109391
0.109
0.108151
0.106925
0.105416
0.103717
0.101916
0.100073
0.0982467
0.0964968
0.0302868
0.0580245
0.0714147
0.0798172
0.085785
0.0903348
0.0939704
0.0969542
0.0994167
0.101412
0.102954
0.104039
0.104664
0.10484
0.104593
0.103971
0.103038
0.101866
0.100531
0.0991004
0.0976267
0.0961486
0.0947119
0.0300545
0.0578352
0.0709645
0.0789894
0.0845445
0.0886856
0.0919347
0.0945646
0.0967151
0.0984508
0.0997956
0.100755
0.101331
0.101532
0.101381
0.100913
0.100181
0.0992432
0.0981615
0.0969906
0.0957742
0.0945404
0.0933252
0.0303333
0.0584099
0.0713116
0.0789574
0.0841104
0.0878702
0.0907716
0.0930922
0.0949754
0.0964912
0.0976693
0.0985195
0.0990454
0.0992535
0.099159
0.0987891
0.0981836
0.0973923
0.0964684
0.0954599
0.0944036
0.0933232
0.0922494
0.0314486
0.060017
0.0726237
0.0798023
0.0844973
0.0878506
0.0904009
0.0924219
0.0940546
0.0953689
0.0963957
0.0971457
0.0976209
0.0978231
0.0977595
0.0974468
0.096913
0.0961984
0.095351
0.0944171
0.0934315
0.0924199
0.0914139
0.0338918
0.0630123
0.075104
0.0816219
0.085733
0.0886059
0.090765
0.0924674
0.0938433
0.0949567
0.095835
0.0964863
0.0969088
0.0970983
0.0970526
0.0967756
0.0962807
0.0955944
0.0947567
0.0938148
0.0928072
0.0917764
0.0907646
0.0383121
0.0678264
0.0789393
0.0844784
0.0878188
0.0901045
0.0918106
0.093159
0.094258
0.0951588
0.0958814
0.0964287
0.0967945
0.0969683
0.0969391
0.096697
0.0962363
0.0955601
0.0946877
0.0936578
0.0925143
0.0913595
0.0902633
0.0457662
0.0749475
0.0841988
0.0883186
0.0906802
0.092275
0.0934723
0.0944334
0.0952331
0.0959042
0.0964568
0.0968879
0.0971879
0.0973429
0.0973362
0.0971476
0.0967514
0.0961166
0.0952128
0.0940258
0.0925638
0.0911455
0.0898812
0.0591234
0.0847766
0.0906263
0.0928754
0.0941285
0.0949937
0.0956676
0.0962306
0.096718
0.0971426
0.0975052
0.0977995
0.0980155
0.098141
0.0981607
0.0980539
0.0977871
0.0972998
0.09648
0.0951367
0.0929622
0.0910924
0.0895902
0.0881992
0.0964151
0.0972315
0.0975947
0.0978642
0.098094
0.0982996
0.0984891
0.0986658
0.0988294
0.0989767
0.0991029
0.099203
0.0992714
0.0993025
0.0992889
0.0992163
0.0990441
0.0986343
0.0975051
0.0935575
0.0910882
0.0893789
0.306214
0.239611
0.187203
0.201983
0.371155
0.347949
0.336882
0.376484
0.404485
0.379764
0.367645
0.383197
0.428738
0.40811
0.390068
0.391834
0.464473
0.445861
0.422812
0.412817
0.528948
0.504635
0.470664
0.446526
0.58762
0.588489
0.534011
0.489747
0.582568
0.627997
0.583536
0.53026
0.554101
0.63266
0.625081
0.566415
0.53602
0.622975
0.649986
0.603793
0.512411
0.606042
0.677048
0.652142
0.473863
0.567027
0.667255
0.688728
0.419185
0.496513
0.594381
0.669693
0.364576
0.42048
0.49602
0.578189
0.316075
0.351236
0.399532
0.459394
0.277209
0.296494
0.322731
0.35613
0.247844
0.25681
0.269091
0.284912
0.225264
0.228226
0.232639
0.238628
0.206678
0.20636
0.206651
0.20762
0.19038
0.18829
0.186469
0.184959
0.175674
0.172635
0.169747
0.167035
0.162409
0.158908
0.155532
0.152295
0.150606
0.146964
0.143456
0.140088
0.140258
0.136703
0.133297
0.130042
0.131288
0.127978
0.124825
0.12183
0.123571
0.120605
0.117793
0.115135
0.116978
0.114402
0.11197
0.109677
0.111393
0.109215
0.10716
0.105227
0.106717
0.104913
0.103209
0.101604
0.102858
0.101384
0.0999891
0.0986708
0.099721
0.0985259
0.0973891
0.0963101
0.0972077
0.0962373
0.0953088
0.0944224
0.095217
0.0944216
0.0936553
0.0929193
0.0936514
0.0929876
0.0923439
0.091722
0.0924217
0.0918531
0.091299
0.0907614
0.0914504
0.0909465
0.0904548
0.0899773
0.0906734
0.0902082
0.0897561
0.089319
0.0900404
0.0895909
0.0891592
0.0887465
0.0895159
0.0890619
0.0886347
0.088234
0.0890779
0.0886043
0.0881708
0.0877744
0.0887168
0.0882198
0.0877782
0.0873846
0.0884607
0.0879516
0.0875084
0.08712
0.212126
0.238035
0.227401
0.205642
0.180982
0.155964
0.134752
0.118396
0.106067
0.0966978
0.0895451
0.0840925
0.079841
0.0762171
0.0725688
0.068108
0.0616455
0.0506035
0.0251912
0.379454
0.345401
0.288036
0.256377
0.22495
0.191004
0.16038
0.136628
0.119257
0.106534
0.0970707
0.0899702
0.0845426
0.0800952
0.0758709
0.0709829
0.0641439
0.0526219
0.0261146
0.456205
0.576757
0.428151
0.320547
0.273019
0.229847
0.18914
0.156513
0.132924
0.116168
0.104046
0.0951185
0.0884195
0.0831034
0.0782958
0.0730053
0.0658491
0.0539755
0.0267313
0.463512
0.655467
0.64761
0.423293
0.329364
0.272397
0.2213
0.178468
0.147356
0.125805
0.110661
0.0997517
0.0917214
0.0855223
0.0801434
0.0744795
0.0670527
0.0549151
0.0271575
0.463038
0.650358
0.769534
0.572257
0.399883
0.318451
0.256533
0.202636
0.162687
0.135528
0.117002
0.103986
0.0945976
0.0875281
0.0816047
0.0755988
0.0679366
0.0555933
0.0274779
0.467372
0.627482
0.806147
0.718179
0.490377
0.369058
0.294152
0.228848
0.178887
0.145317
0.123082
0.107877
0.0971386
0.0892319
0.0827991
0.0764822
0.0686096
0.056093
0.0277819
0.477189
0.602869
0.79271
0.809989
0.591158
0.426238
0.333832
0.25668
0.195762
0.155072
0.128839
0.111432
0.0993974
0.0907137
0.0838182
0.0772159
0.069152
0.0564848
0.0280302
0.489825
0.576918
0.746756
0.83562
0.692365
0.492598
0.376516
0.285691
0.212927
0.164732
0.134339
0.114654
0.101357
0.0919606
0.0846599
0.0778143
0.0695837
0.0567855
0.0282171
0.505291
0.556556
0.691978
0.809151
0.756171
0.567663
0.424368
0.316514
0.230998
0.174004
0.139098
0.117242
0.10286
0.0929004
0.085297
0.0782698
0.0699072
0.0570016
0.0283421
0.528204
0.5472
0.645279
0.763593
0.779024
0.634647
0.476725
0.348187
0.247255
0.181434
0.142481
0.118889
0.103747
0.0934504
0.085687
0.0785604
0.0701121
0.0571296
0.0284099
0.563862
0.556458
0.620661
0.722476
0.780425
0.67975
0.519965
0.373031
0.257914
0.185292
0.143761
0.119272
0.103863
0.0935312
0.085786
0.0786604
0.0701842
0.0571631
0.0284215
0.621771
0.596049
0.631154
0.705917
0.771121
0.703206
0.542226
0.381748
0.258311
0.183747
0.142271
0.11813
0.1031
0.0930942
0.0855677
0.0785527
0.070113
0.0570983
0.0283852
0.690073
0.671896
0.683455
0.724733
0.759846
0.689709
0.531714
0.366117
0.245397
0.175995
0.137774
0.1154
0.101458
0.0921536
0.0850384
0.078237
0.0698963
0.0569343
0.0283381
0.671128
0.73658
0.752991
0.758618
0.742195
0.636856
0.469806
0.319171
0.219307
0.16277
0.130638
0.111295
0.099081
0.0907926
0.0842451
0.077741
0.0695532
0.0566867
0.0283048
0.541513
0.655747
0.717763
0.713802
0.648476
0.521717
0.37567
0.261558
0.189841
0.147704
0.122348
0.106554
0.0963646
0.0892215
0.0832943
0.0771209
0.069115
0.0563704
0.0282418
0.404777
0.48737
0.547152
0.549392
0.483436
0.382725
0.284372
0.210996
0.163383
0.133322
0.114166
0.101839
0.0936343
0.0875956
0.0822696
0.0764271
0.0686136
0.0560043
0.0281442
0.309317
0.351567
0.382988
0.380527
0.336532
0.275142
0.217508
0.173082
0.141968
0.120909
0.106897
0.097586
0.0911108
0.0860356
0.0812447
0.0757088
0.0680821
0.0556093
0.028018
0.248676
0.265406
0.275672
0.269122
0.24236
0.207358
0.173722
0.146165
0.125554
0.110955
0.100929
0.0940076
0.0889114
0.084618
0.080276
0.0750077
0.0675506
0.0552051
0.0278702
0.209863
0.213404
0.213009
0.204772
0.187468
0.166075
0.145115
0.127259
0.113447
0.103404
0.0962863
0.0911296
0.0870692
0.0833809
0.0793997
0.0743545
0.0670425
0.054808
0.0277076
0.183172
0.1805
0.175578
0.167008
0.15445
0.139948
0.126024
0.114124
0.10481
0.0978867
0.0927882
0.0888764
0.0855674
0.0823344
0.0786347
0.0737683
0.066574
0.0544297
0.0275358
0.163246
0.157802
0.15122
0.14303
0.133252
0.122847
0.113229
0.105152
0.0987896
0.0939339
0.0901925
0.0871392
0.084367
0.0814712
0.077986
0.0732578
0.0661537
0.0540775
0.0273612
0.147628
0.141145
0.134264
0.126883
0.119127
0.111519
0.104705
0.0990883
0.0946261
0.0911146
0.0882755
0.0858122
0.0834223
0.0807741
0.0774493
0.0728241
0.0657847
0.0537558
0.0271916
0.135198
0.128616
0.122121
0.115748
0.109604
0.103945
0.0990324
0.0949797
0.091731
0.0890939
0.0868593
0.084805
0.0826885
0.0802213
0.0770143
0.0724628
0.0654665
0.0534667
0.0270323
0.125319
0.119143
0.113348
0.107991
0.103121
0.0988277
0.0951777
0.0921617
0.0896923
0.0876331
0.085811
0.0840444
0.082125
0.0797899
0.0766681
0.0721673
0.0651965
0.0532114
0.0268855
0.117495
0.111967
0.106962
0.102517
0.0986294
0.095296
0.0924965
0.0901742
0.0882372
0.0865681
0.0850334
0.0834726
0.0816968
0.0794581
0.076397
0.0719294
0.064971
0.05299
0.0267515
0.111297
0.106494
0.102251
0.0985789
0.0954411
0.092794
0.0905835
0.0887393
0.0871743
0.0857865
0.0844564
0.0830448
0.0813743
0.0792062
0.0761878
0.0717409
0.0647859
0.0528017
0.0266308
0.106367
0.102277
0.0987172
0.0956806
0.0931186
0.0909743
0.0891855
0.0876824
0.0863853
0.0852026
0.0840268
0.0827266
0.0811336
0.0790171
0.0760288
0.0715939
0.0646367
0.0526449
0.0265238
0.102427
0.0989901
0.0960193
0.0935005
0.0913857
0.0896193
0.0881423
0.0868905
0.0857916
0.0847622
0.0837024
0.0824877
0.0809554
0.0788776
0.07591
0.0714814
0.0645191
0.0525175
0.0264308
0.0992693
0.0964044
0.093929
0.0918298
0.0900661
0.08859
0.0873498
0.086288
0.0853394
0.0844267
0.0834556
0.0823065
0.0808205
0.0787729
0.0758219
0.0713977
0.0644293
0.052417
0.0263554
0.0967385
0.0943575
0.0922907
0.0905299
0.0890441
0.0877948
0.086738
0.0858231
0.0849907
0.0841685
0.0832664
0.0821684
0.0807182
0.0786938
0.0757551
0.0713336
0.0643606
0.052341
0.0263079
0.0947138
0.0927305
0.0909953
0.0895062
0.0882415
0.0871712
0.0862587
0.0854593
0.0847182
0.0839673
0.0831197
0.0820621
0.0806406
0.0786347
0.0757059
0.0712871
0.0643113
0.0522871
0.0262714
0.093097
0.091433
0.0899634
0.0886913
0.0876029
0.0866753
0.0858777
0.0851702
0.084502
0.0838081
0.0830043
0.0819794
0.0805813
0.0785911
0.0756712
0.071256
0.0642796
0.0522531
0.0262414
0.0918063
0.0903937
0.0891344
0.0880352
0.087088
0.086275
0.08557
0.0849367
0.0843275
0.0836798
0.0829118
0.0819139
0.0805356
0.0785592
0.0756483
0.071238
0.0642636
0.052237
0.0262173
0.0907714
0.0895538
0.0884602
0.0874991
0.0866658
0.0859461
0.0853167
0.0847443
0.0841835
0.0835742
0.0828359
0.081861
0.0805001
0.0785365
0.0756349
0.0712311
0.0642611
0.0522366
0.026199
0.0899321
0.0888643
0.0879015
0.0870518
0.0863118
0.0856693
0.085103
0.0845816
0.0840617
0.0834847
0.0827721
0.0818172
0.0804719
0.0785208
0.075629
0.0712334
0.0642703
0.0522498
0.0261865
0.0892361
0.0882831
0.087425
0.0866671
0.0860057
0.085429
0.084917
0.0844396
0.0839552
0.0834065
0.0827165
0.0817797
0.0804492
0.0785103
0.0756292
0.0712433
0.0642892
0.0522745
0.0261796
0.0886395
0.0877753
0.0870031
0.0863237
0.0857309
0.0852126
0.0847489
0.0843111
0.0838586
0.0833357
0.0826663
0.0817465
0.0804302
0.0785036
0.0756339
0.0712591
0.0643157
0.0523082
0.0261779
0.0881083
0.0873143
0.0866156
0.0860061
0.0854758
0.0850111
0.0845922
0.084191
0.0837683
0.0832693
0.0826196
0.0817159
0.0804135
0.0784994
0.0756415
0.0712785
0.064347
0.0523477
0.0261804
0.0876222
0.086886
0.086253
0.0857077
0.0852357
0.0848213
0.0844445
0.0840778
0.083683
0.0832068
0.0825755
0.0816873
0.0803982
0.0784962
0.0756501
0.071299
0.0643796
0.0523887
0.0261858
0.0871801
0.0864942
0.0859207
0.0854345
0.0850161
0.0846479
0.0843096
0.0839746
0.0836054
0.0831498
0.0825354
0.0816613
0.0803843
0.0784933
0.0756578
0.0713174
0.0644085
0.0524241
0.0261912
0.0868052
0.0861632
0.0856413
0.0852054
0.0848324
0.0845032
0.0841973
0.0838887
0.0835408
0.0831025
0.082502
0.0816395
0.0803724
0.0784903
0.075663
0.0713305
0.0644281
0.052444
0.0261929
0.0865552
0.085945
0.0854575
0.0850544
0.0847106
0.0844064
0.0841215
0.0838301
0.0834963
0.0830693
0.0824782
0.0816233
0.0803626
0.0784862
0.0756641
0.0713361
0.0644363
0.0524479
0.0261815
)
;

boundaryField
{
    leftWall
    {
        type            kqRWallFunction;
        value           nonuniform List<scalar> 
50
(
0.00845024
0.0132833
0.0163452
0.0185148
0.0200421
0.0211863
0.0220617
0.0227393
0.0233318
0.0239805
0.0245116
0.0250232
0.0255654
0.0261745
0.0269007
0.0278623
0.0294315
0.0326599
0.0391835
0.0477879
0.0540344
0.0561108
0.0530225
0.0509726
0.0507778
0.051253
0.0515931
0.0514123
0.0505972
0.0491951
0.0473397
0.0452028
0.0429582
0.0407541
0.0386966
0.0368457
0.035223
0.0338244
0.0326345
0.0316404
0.0308459
0.0302868
0.0300545
0.0303333
0.0314486
0.0338918
0.0383121
0.0457662
0.0591234
0.0881992
)
;
    }
    rightWall
    {
        type            kqRWallFunction;
        value           nonuniform List<scalar> 
50
(
0.0103672
0.0140731
0.0170592
0.0192223
0.0208881
0.0222101
0.0232855
0.0242015
0.0251912
0.0261146
0.0267313
0.0271575
0.0274779
0.0277819
0.0280302
0.0282171
0.0283421
0.0284099
0.0284215
0.0283852
0.0283381
0.0283048
0.0282418
0.0281442
0.028018
0.0278702
0.0277076
0.0275358
0.0273612
0.0271916
0.0270323
0.0268855
0.0267515
0.0266308
0.0265238
0.0264308
0.0263554
0.0263079
0.0262714
0.0262414
0.0262173
0.026199
0.0261865
0.0261796
0.0261779
0.0261804
0.0261858
0.0261912
0.0261929
0.0261815
)
;
    }
    lowerWall
    {
        type            kqRWallFunction;
        value           nonuniform List<scalar> 
62
(
0.00845024
0.0137584
0.0206385
0.0263004
0.0314914
0.0365174
0.0415482
0.0466675
0.0518879
0.0571481
0.062309
0.0671545
0.0714058
0.0747463
0.0768526
0.0774122
0.0760381
0.0735429
0.0695915
0.0639884
0.0570692
0.0460181
0.0309662
0.0309662
0.0760883
0.108657
0.134385
0.159423
0.186175
0.216228
0.252142
0.306214
0.239611
0.187203
0.201983
0.0107287
0.0213045
0.0300161
0.0398748
0.0523839
0.068625
0.0893655
0.118827
0.0107287
0.0183208
0.0225501
0.0249101
0.0257922
0.0258277
0.0250294
0.0238877
0.0227052
0.021641
0.0207257
0.0199341
0.0192047
0.0184598
0.0175754
0.0163697
0.0145562
0.0117564
0.0103672
)
;
    }
    atmosphere
    {
        type            inletOutlet;
        inletValue      uniform 0.1;
        value           nonuniform List<scalar> 
46
(
0.1
0.1
0.1
0.1
0.1
0.1
0.1
0.1
0.1
0.1
0.1
0.1
0.1
0.1
0.1
0.1
0.1
0.1
0.1
0.1
0.0935575
0.0910882
0.0893789
0.0884607
0.0879516
0.0875084
0.08712
0.0865552
0.085945
0.0854575
0.0850544
0.0847106
0.0844064
0.0841215
0.0838301
0.0834963
0.0830693
0.0824782
0.0816233
0.0803626
0.0784862
0.0756641
0.0713361
0.0644363
0.0524479
0.0261815
)
;
    }
    defaultFaces
    {
        type            empty;
    }
}


// ************************************************************************* //
