/*--------------------------------*- C++ -*----------------------------------*\
  =========                 |
  \\      /  F ield         | OpenFOAM: The Open Source CFD Toolbox
   \\    /   O peration     | Website:  https://openfoam.org
    \\  /    A nd           | Version:  9
     \\/     M anipulation  |
\*---------------------------------------------------------------------------*/
FoamFile
{
    format      ascii;
    class       surfaceScalarField;
    location    "0.2";
    object      phi;
}
// * * * * * * * * * * * * * * * * * * * * * * * * * * * * * * * * * * * * * //

dimensions      [0 3 -1 0 0 0 0];

internalField   nonuniform List<scalar> 
4432
(
-2.67597e-06
2.67597e-06
-3.42345e-07
-2.33362e-06
4.2714e-06
-4.61374e-06
9.82709e-06
-5.55569e-06
1.57994e-05
-5.97227e-06
2.2038e-05
-6.23866e-06
2.85246e-05
-6.48655e-06
3.52642e-05
-6.73966e-06
4.22489e-05
-6.98466e-06
4.94401e-05
-7.19117e-06
5.67532e-05
-7.31312e-06
6.40399e-05
-7.28676e-06
7.1067e-05
-7.0271e-06
7.74886e-05
-6.4216e-06
8.27932e-05
-5.30454e-06
8.62143e-05
-3.42108e-06
8.63422e-05
-1.27933e-07
8.06405e-05
5.70165e-06
6.70852e-05
1.35554e-05
4.46685e-05
2.24166e-05
1.59368e-05
2.87317e-05
-1.01628e-05
2.60996e-05
-1.01628e-05
6.04529e-08
2.61551e-06
3.31019e-06
-5.58336e-06
8.22827e-06
-9.53182e-06
1.38216e-05
-1.1149e-05
1.97757e-05
-1.19264e-05
2.60003e-05
-1.24633e-05
3.24789e-05
-1.29651e-05
3.921e-05
-1.34708e-05
4.61779e-05
-1.39526e-05
5.33356e-05
-1.43489e-05
6.05912e-05
-1.45687e-05
6.77924e-05
-1.4488e-05
7.4709e-05
-1.39437e-05
8.10098e-05
-1.27223e-05
8.62396e-05
-1.05344e-05
8.97986e-05
-6.98006e-06
9.11264e-05
-1.45574e-06
8.96716e-05
7.15643e-06
8.34655e-05
1.97615e-05
6.95543e-05
3.63278e-05
4.52815e-05
5.30045e-05
1.70545e-05
5.43266e-05
6.89176e-06
1.88577e-06
7.2974e-07
5.89305e-06
-9.59064e-06
1.09608e-05
-1.45996e-05
1.65277e-05
-1.6716e-05
2.23998e-05
-1.77985e-05
2.85299e-05
-1.85934e-05
3.4913e-05
-1.93482e-05
4.15467e-05
-2.01045e-05
4.84107e-05
-2.08165e-05
5.54531e-05
-2.13913e-05
6.25792e-05
-2.16947e-05
6.96377e-05
-2.15465e-05
7.64056e-05
-2.07117e-05
8.25703e-05
-1.8887e-05
8.77123e-05
-1.56763e-05
9.12817e-05
-1.05495e-05
9.26275e-05
-2.80151e-06
9.11692e-05
8.61467e-06
8.60751e-05
2.48557e-05
7.60122e-05
4.63906e-05
5.81992e-05
7.08176e-05
3.16735e-05
8.08523e-05
3.85652e-05
3.07438e-06
-2.34464e-06
7.76129e-06
-1.42776e-05
1.30526e-05
-1.98908e-05
1.86389e-05
-2.23023e-05
2.445e-05
-2.36096e-05
3.04914e-05
-2.46347e-05
3.67774e-05
-2.56342e-05
4.33103e-05
-2.66374e-05
5.00696e-05
-2.75759e-05
5.70028e-05
-2.83245e-05
6.40159e-05
-2.87078e-05
7.09619e-05
-2.84925e-05
7.76271e-05
-2.73769e-05
8.37156e-05
-2.49754e-05
8.88343e-05
-2.07951e-05
9.24799e-05
-1.4195e-05
9.40419e-05
-4.3635e-06
9.2889e-05
9.76759e-06
8.83498e-05
2.93949e-05
7.95605e-05
5.51799e-05
6.44965e-05
8.58816e-05
3.95345e-05
0.000105814
7.80997e-05
3.79281e-06
-6.13745e-06
9.06707e-06
-1.95518e-05
1.46206e-05
-2.54444e-05
2.02741e-05
-2.79558e-05
2.60595e-05
-2.9395e-05
3.20352e-05
-3.06103e-05
3.82386e-05
-3.18377e-05
4.46813e-05
-3.30802e-05
5.13468e-05
-3.42413e-05
5.81858e-05
-3.51635e-05
6.51089e-05
-3.56309e-05
7.19765e-05
-3.53601e-05
7.85858e-05
-3.39862e-05
8.46576e-05
-3.10472e-05
8.98239e-05
-2.59614e-05
9.36215e-05
-1.79927e-05
9.54915e-05
-6.23344e-06
9.48262e-05
1.04329e-05
9.09702e-05
3.32509e-05
8.30373e-05
6.31128e-05
6.92194e-05
9.96995e-05
4.49207e-05
0.000130113
0.00012302
4.22935e-06
-1.03668e-05
9.94791e-06
-2.52704e-05
1.57411e-05
-3.12376e-05
2.14787e-05
-3.36934e-05
2.72622e-05
-3.51785e-05
3.31926e-05
-3.65407e-05
3.93289e-05
-3.7974e-05
4.56934e-05
-3.94446e-05
5.22764e-05
-4.08243e-05
5.90353e-05
-4.19224e-05
6.5889e-05
-4.24846e-05
7.2708e-05
-4.21791e-05
7.93024e-05
-4.05807e-05
8.541e-05
-3.71547e-05
9.06873e-05
-3.12387e-05
9.47087e-05
-2.20141e-05
9.69701e-05
-8.4948e-06
9.69155e-05
1.04875e-05
9.39118e-05
3.62546e-05
8.70058e-05
7.00187e-05
7.43335e-05
0.000112372
5.05835e-05
0.000153863
0.000173604
4.50827e-06
-1.48751e-05
1.0519e-05
-3.12811e-05
1.64898e-05
-3.72084e-05
2.2298e-05
-3.95015e-05
2.80854e-05
-4.09659e-05
3.39812e-05
-4.24365e-05
4.006e-05
-4.40527e-05
4.63539e-05
-4.57386e-05
5.28618e-05
-4.73322e-05
5.95504e-05
-4.8611e-05
6.63495e-05
-4.92837e-05
7.3143e-05
-4.89726e-05
7.97556e-05
-4.71933e-05
8.59425e-05
-4.33416e-05
9.13843e-05
-3.66806e-05
9.56929e-05
-2.63227e-05
9.84235e-05
-1.12254e-05
9.90934e-05
9.81758e-06
9.71399e-05
3.82081e-05
9.16425e-05
7.55161e-05
8.08284e-05
0.000123186
5.85187e-05
0.000176173
0.000232123
4.68759e-06
-1.95627e-05
1.08642e-05
-3.74578e-05
1.69346e-05
-4.32788e-05
2.27803e-05
-4.53473e-05
2.85626e-05
-4.67482e-05
3.4424e-05
-4.82979e-05
4.04477e-05
-5.00764e-05
4.66735e-05
-5.19644e-05
5.31091e-05
-5.37678e-05
5.97323e-05
-5.52342e-05
6.64868e-05
-5.60383e-05
7.32721e-05
-5.57579e-05
7.9929e-05
-5.38502e-05
8.62299e-05
-4.96424e-05
9.18784e-05
-4.23291e-05
9.65236e-05
-3.09679e-05
9.97834e-05
-1.44852e-05
0.000101269
8.33178e-06
0.000100555
3.89224e-05
9.69426e-05
7.91284e-05
8.90686e-05
0.00013106
6.88324e-05
0.000196409
0.000300955
-5.70271e-06
5.70271e-06
-1.46553e-05
8.95251e-06
-2.1534e-05
6.87864e-06
-2.43155e-05
2.78148e-06
-2.43288e-05
1.31218e-08
-2.287e-05
-1.45866e-06
-2.07802e-05
-2.08998e-06
-1.84684e-05
-2.3116e-06
-1.61591e-05
-2.30938e-06
-1.39647e-05
-2.1946e-06
-1.19435e-05
-2.02103e-06
-1.01167e-05
-1.8267e-06
-8.49485e-06
-1.62197e-06
-7.05791e-06
-1.43699e-06
-5.76886e-06
-1.28881e-06
-4.55536e-06
-1.21367e-06
-3.27788e-06
-1.27767e-06
-1.74839e-06
-1.52908e-06
-1.74874e-06
-1.07933e-05
1.64961e-05
-1.96331e-05
1.77921e-05
-2.4535e-05
1.17804e-05
-2.57982e-05
4.04467e-06
-2.52646e-05
-5.2065e-07
-2.36593e-05
-3.06377e-06
-2.14658e-05
-4.2836e-06
-1.90339e-05
-4.74363e-06
-1.65854e-05
-4.75782e-06
-1.42667e-05
-4.51331e-06
-1.21433e-05
-4.14441e-06
-1.02366e-05
-3.73341e-06
-8.53752e-06
-3.32085e-06
-7.02689e-06
-2.94782e-06
-5.65888e-06
-2.65693e-06
-4.36974e-06
-2.50268e-06
-3.07768e-06
-2.56993e-06
-1.65878e-06
-2.9479e-06
-3.40773e-06
-1.30526e-05
2.95486e-05
-2.10928e-05
2.58323e-05
-2.5214e-05
1.59014e-05
-2.62784e-05
5.10908e-06
-2.56067e-05
-1.19244e-06
-2.39427e-05
-4.72758e-06
-2.17125e-05
-6.5139e-06
-1.92341e-05
-7.22231e-06
-1.67255e-05
-7.26638e-06
-1.43398e-05
-6.89893e-06
-1.21564e-05
-6.32757e-06
-1.02013e-05
-5.68877e-06
-8.46444e-06
-5.0576e-06
-6.9168e-06
-4.49568e-06
-5.51237e-06
-4.06125e-06
-4.19599e-06
-3.81872e-06
-2.90848e-06
-3.85791e-06
-1.55223e-06
-4.30391e-06
-4.95992e-06
-1.5034e-05
4.45826e-05
-2.27015e-05
3.34996e-05
-2.61853e-05
1.93852e-05
-2.68664e-05
5.79028e-06
-2.59448e-05
-2.11417e-06
-2.41587e-05
-6.51369e-06
-2.18799e-05
-8.79284e-06
-1.93662e-05
-9.73603e-06
-1.68136e-05
-9.81879e-06
-1.43736e-05
-9.33901e-06
-1.21378e-05
-8.56358e-06
-1.01394e-05
-7.6874e-06
-8.36821e-06
-6.82828e-06
-6.79166e-06
-6.07217e-06
-5.36357e-06
-5.48954e-06
-4.0329e-06
-5.14942e-06
-2.74948e-06
-5.14155e-06
-1.43268e-06
-5.62044e-06
-6.39253e-06
-1.77732e-05
6.23558e-05
-2.5046e-05
4.07725e-05
-2.76117e-05
2.19509e-05
-2.76458e-05
5.82435e-06
-2.633e-05
-3.43e-06
-2.43511e-05
-8.49266e-06
-2.19949e-05
-1.1149e-05
-1.94449e-05
-1.22862e-05
-1.68585e-05
-1.24052e-05
-1.43749e-05
-1.18227e-05
-1.20925e-05
-1.08457e-05
-1.00537e-05
-9.72626e-06
-8.25117e-06
-8.63081e-06
-6.65125e-06
-7.67248e-06
-5.2074e-06
-6.93357e-06
-3.8706e-06
-6.48586e-06
-2.59562e-06
-6.41662e-06
-1.31876e-06
-6.8973e-06
-7.71135e-06
-2.18742e-05
8.42299e-05
-2.83588e-05
4.7257e-05
-2.95095e-05
2.31015e-05
-2.86135e-05
4.92839e-06
-2.67565e-05
-5.28706e-06
-2.4511e-05
-1.07383e-05
-2.20458e-05
-1.36142e-05
-1.94549e-05
-1.4877e-05
-1.68441e-05
-1.50159e-05
-1.433e-05
-1.43369e-05
-1.20112e-05
-1.31646e-05
-9.93836e-06
-1.17992e-05
-8.10996e-06
-1.04592e-05
-6.49297e-06
-9.28944e-06
-5.04116e-06
-8.3855e-06
-3.70673e-06
-7.82001e-06
-2.44831e-06
-7.6751e-06
-1.2173e-06
-8.12845e-06
-8.92878e-06
-2.7892e-05
0.000112122
-3.27441e-05
5.21092e-05
-3.17876e-05
2.21449e-05
-2.96966e-05
2.83743e-06
-2.71813e-05
-7.80225e-06
-2.46085e-05
-1.33111e-05
-2.20061e-05
-1.62166e-05
-1.93691e-05
-1.75139e-05
-1.67431e-05
-1.76419e-05
-1.42143e-05
-1.68658e-05
-1.18741e-05
-1.55048e-05
-9.77908e-06
-1.38943e-05
-7.93446e-06
-1.23037e-05
-6.3098e-06
-1.09139e-05
-4.85977e-06
-9.83557e-06
-3.53785e-06
-9.14188e-06
-2.30642e-06
-8.90657e-06
-1.1271e-06
-9.30779e-06
-1.00559e-05
-3.61026e-05
0.000148224
-3.77344e-05
5.3741e-05
-3.41541e-05
1.85646e-05
-3.0713e-05
-6.03539e-07
-2.75168e-05
-1.09985e-05
-2.45957e-05
-1.62321e-05
-2.18429e-05
-1.89694e-05
-1.91572e-05
-2.01996e-05
-1.65247e-05
-2.02745e-05
-1.39974e-05
-1.9393e-05
-1.16544e-05
-1.78476e-05
-9.55397e-06
-1.59948e-05
-7.70745e-06
-1.41502e-05
-6.08828e-06
-1.25329e-05
-4.65276e-06
-1.12712e-05
-3.35582e-06
-1.04389e-05
-2.16173e-06
-1.01007e-05
-1.04176e-06
-1.04278e-05
-1.10976e-05
1.01922e-05
-2.97549e-05
2.36467e-05
-5.09122e-05
3.6589e-05
-5.62211e-05
4.89863e-05
-5.77446e-05
6.1212e-05
-5.89739e-05
7.35496e-05
-6.06354e-05
8.61787e-05
-6.27056e-05
9.92003e-05
-6.49859e-05
0.000112659
-6.72266e-05
0.000126551
-6.91257e-05
0.000140809
-7.0297e-05
0.00015528
-7.02286e-05
0.00016968
-6.82498e-05
0.000183573
-6.35358e-05
0.000196392
-5.51483e-05
0.000207502
-4.20778e-05
0.000216292
-2.32748e-05
0.000222298
2.32537e-06
0.000225216
3.60049e-05
0.00022501
7.9334e-05
0.000221927
0.000134143
0.000218423
0.000199913
0.000287357
0.000232021
1.04477e-05
-4.02026e-05
2.35629e-05
-6.40274e-05
3.60596e-05
-6.87178e-05
4.80488e-05
-6.97338e-05
5.99185e-05
-7.08436e-05
7.19135e-05
-7.26305e-05
8.41833e-05
-7.49753e-05
9.68303e-05
-7.76329e-05
0.000109933
-8.03297e-05
0.000123551
-8.27434e-05
0.000137703
-8.44489e-05
0.000152324
-8.48493e-05
0.000167196
-8.31221e-05
0.000181915
-7.82553e-05
0.000195937
-6.91695e-05
0.000208697
-5.48378e-05
0.000219773
-3.43513e-05
0.000229007
-6.90806e-06
0.000236711
2.83004e-05
0.000243924
7.21215e-05
0.00025299
0.000125076
0.000267055
0.000185849
0.000265988
0.000288423
1.06116e-05
-5.08142e-05
2.30437e-05
-7.64595e-05
3.47303e-05
-8.04044e-05
4.60285e-05
-8.1032e-05
5.73057e-05
-8.21209e-05
6.87456e-05
-8.40704e-05
8.04575e-05
-8.66872e-05
9.25398e-05
-8.97152e-05
0.000105104
-9.28941e-05
0.000118276
-9.59156e-05
0.00013217
-9.83429e-05
0.000146818
-9.94972e-05
0.000162045
-9.83493e-05
0.000177401
-9.36106e-05
0.000192237
-8.40058e-05
0.000205908
-6.85091e-05
0.000217982
-4.64247e-05
0.000228341
-1.72676e-05
0.000237274
1.93672e-05
0.000245695
6.3701e-05
0.000255108
0.000115663
0.000267899
0.000173058
0.000242677
0.00029121
1.06921e-05
-6.15063e-05
2.22182e-05
-8.79856e-05
3.29116e-05
-9.10978e-05
4.336e-05
-9.14804e-05
5.38736e-05
-9.26345e-05
6.45634e-05
-9.47602e-05
7.54993e-05
-9.76232e-05
8.67752e-05
-0.000100991
9.85306e-05
-0.000104649
0.000110952
-0.000108337
0.000124251
-0.000111642
0.000138567
-0.000113814
0.000153734
-0.000113516
0.00016913
-0.000109007
0.000183828
-9.87038e-05
0.000196905
-8.15861e-05
0.00020771
-5.72291e-05
0.00021597
-2.55279e-05
0.000221766
1.35708e-05
0.000226383
5.90843e-05
0.000233434
0.000108612
0.000247718
0.000158774
0.000218569
0.000271827
1.06806e-05
-7.2187e-05
2.11551e-05
-9.846e-05
3.08355e-05
-0.000100778
4.04098e-05
-0.000101055
5.00831e-05
-0.000102308
5.9896e-05
-0.000104573
6.98868e-05
-0.000107614
8.01405e-05
-0.000111245
9.08042e-05
-0.000115313
0.000102094
-0.000119627
0.0001143
-0.000123848
0.000127692
-0.000127206
0.000142066
-0.000127889
0.000156458
-0.0001234
0.000169473
-0.000111719
0.000179904
-9.20167e-05
0.000186931
-6.4256e-05
0.000189605
-2.82025e-05
0.000189931
1.3245e-05
0.000191185
5.78301e-05
0.000198111
0.000101686
0.000218342
0.000138543
0.000186243
0.000250668
1.03957e-05
-8.25826e-05
1.9873e-05
-0.000107937
2.87517e-05
-0.000109657
3.75748e-05
-0.000109878
4.64389e-05
-0.000111172
5.53505e-05
-0.000113485
6.43331e-05
-0.000116597
7.34518e-05
-0.000120363
8.28185e-05
-0.00012468
9.26012e-05
-0.000129409
0.000103102
-0.000134348
0.00011476
-0.000138864
0.000127293
-0.000140423
0.000139268
-0.000135375
0.000148957
-0.000121407
0.000155201
-9.82607e-05
0.000158401
-6.74567e-05
0.000152257
-2.20584e-05
0.000144922
2.05807e-05
0.000146293
5.64585e-05
0.000158733
8.92472e-05
0.000182563
0.000114713
0.000143375
0.00022543
9.38177e-06
-9.19644e-05
1.84721e-05
-0.000117028
2.70405e-05
-0.000118225
3.5332e-05
-0.000118169
4.34923e-05
-0.000119332
5.15769e-05
-0.000121569
5.96192e-05
-0.000124639
6.7653e-05
-0.000128397
7.57101e-05
-0.000132737
8.37892e-05
-0.000137488
9.20176e-05
-0.000142577
0.000101071
-0.000147917
0.000110641
-0.000149992
0.000118968
-0.000143702
0.000124546
-0.000126985
0.000127389
-0.000101104
0.000127146
-6.72133e-05
0.000143093
-3.80059e-05
0.000158883
4.79039e-06
0.000172653
4.26888e-05
0.000184051
7.78493e-05
0.000193895
0.000104868
0.000123907
0.000213363
7.64264e-06
-9.9607e-05
1.75992e-05
-0.000126984
2.62398e-05
-0.000126866
3.40635e-05
-0.000125993
4.15828e-05
-0.000126852
4.89526e-05
-0.000128939
5.62166e-05
-0.000131903
6.33781e-05
-0.000135559
7.04214e-05
-0.00013978
7.71625e-05
-0.000144229
8.31297e-05
-0.000148544
8.91204e-05
-0.000153908
9.49849e-05
-0.000155857
9.92416e-05
-0.000147958
0.000101242
-0.000128986
0.000109136
-0.000108998
0.00012839
-8.64673e-05
0.000141574
-5.11899e-05
0.000157035
-1.06708e-05
0.00017182
2.79032e-05
0.000187165
6.25052e-05
0.000200388
9.16446e-05
0.000116481
0.000207815
8.13881e-06
-0.000107746
1.88949e-05
-0.00013774
2.65538e-05
-0.000134525
3.35182e-05
-0.000132957
4.04037e-05
-0.000133737
4.7221e-05
-0.000135756
5.39607e-05
-0.000138643
6.06048e-05
-0.000142203
6.71221e-05
-0.000146298
7.34143e-05
-0.000150522
7.85932e-05
-0.000153723
8.21403e-05
-0.000157455
8.46163e-05
-0.000158333
8.35307e-05
-0.000146873
9.15541e-05
-0.000137009
0.000105288
-0.000122731
0.000112383
-9.35632e-05
0.000118718
-5.75246e-05
0.000127839
-1.97913e-05
0.000140166
1.55757e-05
0.00015558
4.70916e-05
0.00017178
7.54444e-05
0.000106306
0.000181955
1.94276e-05
-0.000127173
2.4121e-05
-0.000142434
2.72274e-05
-0.000137631
3.30218e-05
-0.000138752
3.95527e-05
-0.000140268
4.62354e-05
-0.000142439
5.32168e-05
-0.000145624
6.04523e-05
-0.000149438
6.78914e-05
-0.000153737
7.55193e-05
-0.00015815
8.18234e-05
-0.000160027
8.2497e-05
-0.000158129
8.03748e-05
-0.000156211
8.58628e-05
-0.000152361
9.1258e-05
-0.000142404
8.88665e-05
-0.00012034
8.52067e-05
-8.99033e-05
8.34497e-05
-5.57675e-05
8.5653e-05
-2.19945e-05
9.27578e-05
8.47104e-06
0.000105281
3.45684e-05
0.000123053
5.76724e-05
8.71899e-05
0.000142169
5.21841e-05
-0.000179358
3.2818e-05
-0.000123068
2.79648e-05
-0.000132778
3.37702e-05
-0.000144557
4.11348e-05
-0.000147633
4.8644e-05
-0.000149948
5.64014e-05
-0.000153381
6.40804e-05
-0.000157117
7.08231e-05
-0.000160479
7.61619e-05
-0.000163488
8.33562e-05
-0.000167221
8.74809e-05
-0.000162253
8.7266e-05
-0.000155996
8.21962e-05
-0.000147291
7.2465e-05
-0.000132673
6.10502e-05
-0.000108925
5.0553e-05
-7.9406e-05
4.2936e-05
-4.81504e-05
3.95333e-05
-1.85918e-05
4.12637e-05
6.74087e-06
4.93331e-05
2.6499e-05
6.53834e-05
4.16223e-05
6.28629e-05
8.97103e-05
3.90552e-05
-0.000218413
3.0928e-05
-0.00011494
2.96535e-05
-0.000131503
3.37885e-05
-0.000148692
4.09468e-05
-0.000154791
4.90358e-05
-0.000158037
5.68565e-05
-0.000161202
6.39741e-05
-0.000164235
7.00226e-05
-0.000166528
7.40763e-05
-0.000167542
7.32793e-05
-0.000166424
7.10343e-05
-0.000160008
6.54925e-05
-0.000150454
5.56515e-05
-0.00013745
4.18432e-05
-0.000118865
2.70933e-05
-9.41751e-05
1.35493e-05
-6.5862e-05
2.63735e-06
-3.72383e-05
-4.75669e-06
-1.11977e-05
-7.96264e-06
9.9469e-06
-5.87429e-06
2.44107e-05
3.46751e-06
3.22804e-05
4.33852e-05
2.29452e-05
-1.94078e-05
-0.000199005
3.8711e-06
-0.000138219
1.92176e-05
-0.00014685
2.79192e-05
-0.000157394
3.54243e-05
-0.000162296
4.20376e-05
-0.00016465
4.7432e-05
-0.000166596
5.13478e-05
-0.000168151
5.34747e-05
-0.000168655
5.32057e-05
-0.000167273
4.9629e-05
-0.000162847
4.38402e-05
-0.000154219
3.51732e-05
-0.000141787
2.3072e-05
-0.000125349
8.3542e-06
-0.000104147
-6.98419e-06
-7.88367e-05
-2.12741e-05
-5.15721e-05
-3.35214e-05
-2.49908e-05
-4.32476e-05
-1.47133e-06
-5.03075e-05
1.70068e-05
-5.45644e-05
2.86676e-05
-5.53864e-05
3.31023e-05
3.74897e-05
-4.94907e-05
-2.07387e-05
-0.000178266
4.6564e-07
-0.000159423
1.36062e-05
-0.00015999
2.01983e-05
-0.000163986
2.46016e-05
-0.000166699
2.81901e-05
-0.000168239
3.0757e-05
-0.000169163
3.18703e-05
-0.000169264
3.10992e-05
-0.000167884
2.80053e-05
-0.000164179
2.23627e-05
-0.000157205
1.44162e-05
-0.000146273
4.02243e-06
-0.000131393
-8.75772e-06
-0.000112568
-2.30875e-05
-8.98169e-05
-3.75834e-05
-6.43408e-05
-5.10964e-05
-3.8059e-05
-6.30085e-05
-1.30786e-05
-7.32046e-05
8.72493e-06
-8.20406e-05
2.58428e-05
-9.04484e-05
3.70754e-05
-9.97456e-05
4.23995e-05
4.64829e-05
-0.000108739
-6.767e-06
-0.000171499
5.70972e-07
-0.000166761
6.7544e-06
-0.000166174
1.00277e-05
-0.000167259
1.17795e-05
-0.000168451
1.26779e-05
-0.000169137
1.25931e-05
-0.000169079
1.11626e-05
-0.000167834
8.01557e-06
-0.000164737
2.86074e-06
-0.000159024
-4.37754e-06
-0.000149967
-1.35569e-05
-0.000137094
-2.45559e-05
-0.000120394
-3.70368e-05
-0.000100088
-5.01387e-05
-7.6715e-05
-6.28987e-05
-5.15807e-05
-7.45773e-05
-2.63805e-05
-8.48317e-05
-2.82417e-06
-9.37619e-05
1.76551e-05
-0.000101971
3.40516e-05
-0.000110788
4.58928e-05
-0.000122288
5.38999e-05
6.1657e-05
-0.000137463
-3.26855e-06
-0.00016823
-2.06239e-06
-0.000167967
-8.42908e-07
-0.000167393
-5.76353e-07
-0.000167526
-1.20316e-06
-0.000167824
-2.62752e-06
-0.000167713
-4.99627e-06
-0.00016671
-8.57676e-06
-0.000164253
-1.36252e-05
-0.000159688
-2.02993e-05
-0.00015235
-2.85813e-05
-0.000141685
-3.82734e-05
-0.000127402
-4.9082e-05
-0.000109585
-6.05211e-05
-8.86486e-05
-7.18548e-05
-6.53814e-05
-8.23845e-05
-4.10509e-05
-9.16314e-05
-1.71337e-05
-9.94413e-05
4.98589e-06
-0.000106012
2.42261e-05
-0.000111952
3.9991e-05
-0.000118378
5.23193e-05
-0.000126837
6.23586e-05
7.30814e-05
-0.000138261
-4.13066e-06
-0.0001641
-6.1533e-06
-0.000165945
-8.01536e-06
-0.000165531
-1.02394e-05
-0.000165302
-1.30246e-05
-0.000165039
-1.64851e-05
-0.000164253
-2.07868e-05
-0.000162408
-2.61177e-05
-0.000158922
-3.2621e-05
-0.000153185
-4.03341e-05
-0.000144637
-4.91434e-05
-0.000132875
-5.87815e-05
-0.000117764
-6.88624e-05
-9.95044e-05
-7.88723e-05
-7.86385e-05
-8.82095e-05
-5.60444e-05
-9.63631e-05
-3.28974e-05
-0.000103037
-1.04598e-05
-0.000108205
1.01534e-05
-0.00011211
2.8132e-05
-0.00011527
4.31504e-05
-0.000118443
5.54921e-05
-0.000122421
6.63367e-05
7.80136e-05
-0.000127353
-5.56321e-06
-0.000158536
-1.00193e-05
-0.000161489
-1.41672e-05
-0.000161383
-1.8432e-05
-0.000161037
-2.30674e-05
-0.000160404
-2.82478e-05
-0.000159072
-3.4121e-05
-0.000156535
-4.08015e-05
-0.000152242
-4.83347e-05
-0.000145652
-5.66588e-05
-0.000136313
-6.55814e-05
-0.000123953
-7.4785e-05
-0.00010856
-8.38559e-05
-9.04335e-05
-9.23148e-05
-7.01795e-05
-9.96845e-05
-4.86747e-05
-0.000105607
-2.69752e-05
-0.000109922
-6.14407e-06
-0.000112693
1.29236e-05
-0.000114182
2.9621e-05
-0.000114811
4.37794e-05
-0.000115067
5.57477e-05
-0.000115273
6.65435e-05
7.79037e-05
-0.000115164
-6.94843e-06
-0.000151588
-1.31793e-05
-0.000155258
-1.90602e-05
-0.000155503
-2.49421e-05
-0.000155155
-3.10731e-05
-0.000154273
-3.76208e-05
-0.000152525
-4.46944e-05
-0.000149461
-5.23407e-05
-0.000144595
-6.05247e-05
-0.000137468
-6.91095e-05
-0.000127728
-7.785e-05
-0.000115212
-8.64071e-05
-0.000100003
-9.4381e-05
-8.24595e-05
-0.000101357
-6.32032e-05
-0.000106973
-4.30591e-05
-0.000110994
-2.29541e-05
-0.000113363
-3.77514e-06
-0.000114199
1.37595e-05
-0.000113768
2.919e-05
-0.000112416
4.2428e-05
-0.000110468
5.3799e-05
-0.000108035
6.41109e-05
7.46369e-05
-0.000104769
-8.00084e-06
-0.000143587
-1.54896e-05
-0.000147769
-2.26395e-05
-0.000148353
-2.97357e-05
-0.000148059
-3.69925e-05
-0.000147016
-4.4546e-05
-0.000144971
-5.24594e-05
-0.000141548
-6.07215e-05
-0.000136333
-6.92354e-05
-0.000128954
-7.78139e-05
-0.00011915
-8.61847e-05
-0.000106841
-9.4012e-05
-9.21755e-05
-0.000100934
-7.55375e-05
-0.00010661
-5.75268e-05
-0.000110777
-3.88921e-05
-0.000113298
-2.04334e-05
-0.000114186
-2.88748e-06
-0.000113593
1.31672e-05
-0.000111778
2.73741e-05
-0.00010903
3.96807e-05
-0.000105587
5.03555e-05
-0.00010149
6.00138e-05
6.95903e-05
-9.64433e-05
-8.65125e-06
-0.000134936
-1.69529e-05
-0.000139467
-2.49598e-05
-0.000140346
-3.2891e-05
-0.000140128
-4.09155e-05
-0.000138991
-4.91286e-05
-0.000136758
-5.75501e-05
-0.000133126
-6.6122e-05
-0.000127761
-7.47054e-05
-0.00012037
-8.30846e-05
-0.00011077
-9.09809e-05
-9.89452e-05
-9.80791e-05
-8.50773e-05
-0.000104065
-6.95513e-05
-0.00010867
-5.29225e-05
-0.000111709
-3.58527e-05
-0.000113118
-1.90247e-05
-0.000112955
-3.05051e-06
-0.000111389
1.16013e-05
-0.000108661
2.46464e-05
-0.000105025
3.60445e-05
-0.000100671
4.60016e-05
-9.56337e-05
5.49764e-05
6.36604e-05
-8.97038e-05
-8.92078e-06
-0.000126015
-1.76456e-05
-0.000130743
-2.61426e-05
-0.000131849
-3.45632e-05
-0.000131707
-4.30261e-05
-0.000130529
-5.15849e-05
-0.000128199
-6.02224e-05
-0.000124489
-6.88469e-05
-0.000119137
-7.72947e-05
-0.000111922
-8.53397e-05
-0.000102725
-9.27117e-05
-9.15732e-05
-9.91253e-05
-7.86637e-05
-0.000104315
-6.43614e-05
-0.000108072
-4.91654e-05
-0.000110274
-3.36505e-05
-0.000110905
-1.83945e-05
-0.000110049
-3.90575e-06
-0.00010788
9.4317e-06
-0.00010462
2.13863e-05
-0.000100494
3.19185e-05
-9.56704e-05
4.11782e-05
-9.01966e-05
4.95027e-05
5.74068e-05
-8.3943e-05
-8.86232e-06
-0.000117153
-1.76794e-05
-0.000121926
-2.63499e-05
-0.000123178
-3.49571e-05
-0.0001231
-4.35693e-05
-0.000121916
-5.22019e-05
-0.000119566
-6.08086e-05
-0.000115882
-6.92764e-05
-0.000110669
-7.7431e-05
-0.000103768
-8.50491e-05
-9.51074e-05
-9.18789e-05
-8.47435e-05
-9.76681e-05
-7.28743e-05
-0.000102196
-5.98337e-05
-0.000105302
-4.60597e-05
-0.000106907
-3.20448e-05
-0.000107027
-1.82751e-05
-0.000105759
-5.17312e-06
-0.000103272
6.94391e-06
-9.97687e-05
1.78834e-05
-9.54525e-05
2.76023e-05
-9.04787e-05
3.62043e-05
-8.49104e-05
4.39344e-05
5.1177e-05
-7.86808e-05
-8.545e-06
-0.000108608
-1.71862e-05
-0.000113284
-2.57664e-05
-0.000114598
-3.43054e-05
-0.000114561
-4.28239e-05
-0.000113398
-5.13051e-05
-0.000111085
-5.9681e-05
-0.000107506
-6.78277e-05
-0.000102522
-7.55714e-05
-9.60239e-05
-8.27007e-05
-8.79782e-05
-8.89872e-05
-7.8457e-05
-9.42121e-05
-6.76495e-05
-9.81925e-05
-5.58533e-05
-0.000100806
-4.34468e-05
-0.000102003
-3.08471e-05
-0.000101817
-1.84611e-05
-0.00010035
-6.64014e-06
-9.77584e-05
4.35199e-06
-9.42281e-05
1.43531e-05
-8.99418e-05
2.33159e-05
-8.5045e-05
3.13075e-05
-7.96139e-05
3.85033e-05
4.51902e-05
-7.36271e-05
-8.04554e-06
-0.000100562
-1.63053e-05
-0.000105024
-2.4585e-05
-0.000106318
-3.28501e-05
-0.000106295
-4.10802e-05
-0.000105168
-4.92319e-05
-0.000102933
-5.72226e-05
-9.95158e-05
-6.49254e-05
-9.48193e-05
-7.21743e-05
-8.87751e-05
-7.87755e-05
-8.1377e-05
-8.45268e-05
-7.27057e-05
-8.92405e-05
-6.29358e-05
-9.27661e-05
-5.23278e-05
-9.50087e-05
-4.12043e-05
-9.59404e-05
-2.99154e-05
-9.56014e-05
-1.88001e-05
-9.40911e-05
-8.1505e-06
-9.15522e-05
1.81298e-06
-8.81519e-05
1.09527e-05
-8.40543e-05
1.92183e-05
-7.93952e-05
2.66485e-05
-7.42579e-05
3.3366e-05
3.95847e-05
-6.86525e-05
-7.4366e-06
-9.31258e-05
-1.517e-05
-9.7291e-05
-2.29914e-05
-9.84967e-05
-3.08259e-05
-9.84611e-05
-3.86198e-05
-9.73734e-05
-4.63095e-05
-9.52438e-05
-5.3803e-05
-9.20223e-05
-6.09765e-05
-8.76459e-05
-6.76761e-05
-8.20756e-05
-7.37288e-05
-7.53244e-05
-7.89586e-05
-6.74758e-05
-8.32066e-05
-5.86878e-05
-8.63491e-05
-4.91854e-05
-8.83124e-05
-3.9241e-05
-8.90812e-05
-2.91465e-05
-8.86981e-05
-1.91832e-05
-8.72551e-05
-9.59362e-06
-8.48795e-05
-5.62645e-07
-8.17193e-05
7.79245e-06
-7.79206e-05
1.54196e-05
-7.36082e-05
2.23361e-05
-6.88675e-05
2.86252e-05
3.44452e-05
-6.3728e-05
-6.77789e-06
-8.63479e-05
-1.38965e-05
-9.01724e-05
-2.11519e-05
-9.12414e-05
-2.84451e-05
-9.11679e-05
-3.56995e-05
-9.01189e-05
-4.28364e-05
-8.81071e-05
-4.97596e-05
-8.5099e-05
-5.63514e-05
-8.10541e-05
-6.24728e-05
-7.59543e-05
-6.79721e-05
-6.98251e-05
-7.26992e-05
-6.27486e-05
-7.65206e-05
-5.48664e-05
-7.93349e-05
-4.63711e-05
-8.10847e-05
-3.74912e-05
-8.17621e-05
-2.8469e-05
-8.14082e-05
-1.95371e-05
-8.01051e-05
-1.08967e-05
-7.79642e-05
-2.70366e-06
-7.51142e-05
4.94242e-06
-7.16833e-05
1.19887e-05
-6.77842e-05
1.8437e-05
-6.34999e-05
2.43408e-05
2.98159e-05
-5.88707e-05
-6.1128e-06
-8.0235e-05
-1.25764e-05
-8.37089e-05
-1.9204e-05
-8.46138e-05
-2.58883e-05
-8.44836e-05
-3.25394e-05
-8.34679e-05
-3.90697e-05
-8.15769e-05
-4.53826e-05
-7.87858e-05
-5.13686e-05
-7.50681e-05
-5.69043e-05
-7.04187e-05
-6.18592e-05
-6.48701e-05
-6.61066e-05
-5.85012e-05
-6.95359e-05
-5.14372e-05
-7.20643e-05
-4.38428e-05
-7.36464e-05
-3.59091e-05
-7.42787e-05
-2.78367e-05
-7.39982e-05
-1.98177e-05
-7.28761e-05
-1.20188e-05
-7.10089e-05
-4.57094e-06
-6.85046e-05
2.43815e-06
-6.54752e-05
8.95926e-06
-6.20202e-05
1.4982e-05
-5.82171e-05
2.05376e-05
2.57095e-05
-5.41107e-05
-5.46828e-06
-7.47667e-05
-1.12736e-05
-7.79036e-05
-1.72515e-05
-7.86359e-05
-2.32969e-05
-7.84383e-05
-2.93155e-05
-7.74494e-05
-3.52167e-05
-7.56757e-05
-4.0907e-05
-7.30954e-05
-4.62859e-05
-6.96892e-05
-5.12457e-05
-6.5459e-05
-5.56756e-05
-6.04401e-05
-5.94703e-05
-5.47065e-05
-6.25387e-05
-4.83689e-05
-6.48135e-05
-4.1568e-05
-6.62587e-05
-3.44639e-05
-6.68726e-05
-2.72227e-05
-6.66873e-05
-2.00031e-05
-6.57626e-05
-1.29435e-05
-6.41795e-05
-6.15407e-06
-6.20292e-05
2.87859e-07
-5.94065e-05
6.33649e-06
-5.63977e-05
1.19732e-05
-5.3073e-05
1.72129e-05
2.21142e-05
-4.94778e-05
-4.85654e-06
-6.99103e-05
-1.00261e-05
-7.27341e-05
-1.53637e-05
-7.32984e-05
-2.07714e-05
-7.30305e-05
-2.61571e-05
-7.20638e-05
-3.1432e-05
-7.04007e-05
-3.65086e-05
-6.80188e-05
-4.12966e-05
-6.49011e-05
-4.57032e-05
-6.10523e-05
-4.96357e-05
-5.65075e-05
-5.30072e-05
-5.1335e-05
-5.57433e-05
-4.56327e-05
-5.77897e-05
-3.95216e-05
-5.91173e-05
-3.31362e-05
-5.97251e-05
-2.66149e-05
-5.96394e-05
-2.00888e-05
-5.89095e-05
-1.36734e-05
-5.76018e-05
-7.46175e-06
-5.5792e-05
-1.52197e-06
-5.35592e-05
4.10375e-06
-5.09775e-05
9.39147e-06
-4.81087e-05
1.43441e-05
1.90019e-05
-4.49963e-05
-4.27911e-06
-6.56313e-05
-8.85e-06
-6.81631e-05
-1.35784e-05
-6.85701e-05
-1.83733e-05
-6.82355e-05
-2.31476e-05
-6.72896e-05
-2.78183e-05
-6.57299e-05
-3.2306e-05
-6.35311e-05
-3.65318e-05
-6.06753e-05
-4.04169e-05
-5.71671e-05
-4.38846e-05
-5.30398e-05
-4.68638e-05
-4.83558e-05
-4.92943e-05
-4.32022e-05
-5.11321e-05
-3.76837e-05
-5.23536e-05
-3.19148e-05
-5.29575e-05
-2.60111e-05
-5.29643e-05
-2.00821e-05
-5.24134e-05
-1.42244e-05
-5.13584e-05
-8.51676e-06
-4.98616e-05
-3.01875e-06
-4.79876e-05
2.22974e-06
-4.57995e-05
7.20339e-06
-4.33513e-05
1.18959e-05
1.63338e-05
-4.06832e-05
-3.73081e-06
-6.19005e-05
-7.74687e-06
-6.4147e-05
-1.19099e-05
-6.44071e-05
-1.61316e-05
-6.40137e-05
-2.03305e-05
-6.30907e-05
-2.44317e-05
-6.16286e-05
-2.83659e-05
-5.95969e-05
-3.20662e-05
-5.69751e-05
-3.54669e-05
-5.37662e-05
-3.85054e-05
-5.00013e-05
-4.1124e-05
-4.57374e-05
-4.32739e-05
-4.10524e-05
-4.49195e-05
-3.60381e-05
-4.60413e-05
-3.07931e-05
-4.66372e-05
-2.54153e-05
-4.67225e-05
-1.99969e-05
-4.63276e-05
-1.46192e-05
-4.54949e-05
-9.34939e-06
-4.42747e-05
-4.23898e-06
-4.272e-05
6.75032e-07
-4.08842e-05
5.36763e-06
-3.88144e-05
9.82613e-06
1.40663e-05
-3.6547e-05
-3.20294e-06
-5.86975e-05
-6.71123e-06
-6.06388e-05
-1.03582e-05
-6.07601e-05
-1.40528e-05
-6.03192e-05
-1.77187e-05
-5.94248e-05
-2.12911e-05
-5.80561e-05
-2.47124e-05
-5.61756e-05
-2.79276e-05
-5.37598e-05
-3.08837e-05
-5.08101e-05
-3.35297e-05
-4.73554e-05
-3.58189e-05
-4.34483e-05
-3.77119e-05
-3.91594e-05
-3.91796e-05
-3.45705e-05
-4.02056e-05
-2.97672e-05
-4.07867e-05
-2.48343e-05
-4.09335e-05
-1.98501e-05
-4.06687e-05
-1.4884e-05
-4.0025e-05
-9.99311e-06
-3.90422e-05
-5.22181e-06
-3.77639e-05
-6.03313e-07
-3.62361e-05
3.83986e-06
-3.45003e-05
8.09023e-06
1.21549e-05
-3.25889e-05
-2.68638e-06
-5.6011e-05
-5.73841e-06
-5.75869e-05
-8.91979e-06
-5.75786e-05
-1.21318e-05
-5.71074e-05
-1.53057e-05
-5.62508e-05
-1.83895e-05
-5.49722e-05
-2.13384e-05
-5.32268e-05
-2.41093e-05
-5.09888e-05
-2.66601e-05
-4.82593e-05
-2.89495e-05
-4.50661e-05
-3.09394e-05
-4.14583e-05
-3.25978e-05
-3.75011e-05
-3.39007e-05
-3.32677e-05
-3.48337e-05
-2.88343e-05
-3.53929e-05
-2.4275e-05
-3.55849e-05
-1.96582e-05
-3.54253e-05
-1.50436e-05
-3.49382e-05
-1.04802e-05
-3.41546e-05
-6.00549e-06
-3.31114e-05
-1.64659e-06
-3.1848e-05
2.57645e-06
-3.04028e-05
6.64503e-06
1.05569e-05
-2.88048e-05
-2.17659e-06
-5.38344e-05
-4.83353e-06
-5.49301e-05
-7.59682e-06
-5.48152e-05
-1.03619e-05
-5.43424e-05
-1.30764e-05
-5.35363e-05
-1.57055e-05
-5.23431e-05
-1.82182e-05
-5.0714e-05
-2.05826e-05
-4.86244e-05
-2.27648e-05
-4.60771e-05
-2.47309e-05
-4.30999e-05
-2.64494e-05
-3.97398e-05
-2.78936e-05
-3.60568e-05
-2.90435e-05
-3.21178e-05
-2.98866e-05
-2.79912e-05
-3.04184e-05
-2.37433e-05
-3.06418e-05
-1.94349e-05
-3.05664e-05
-1.5119e-05
-3.02085e-05
-1.08382e-05
-2.9591e-05
-6.62314e-06
-2.87444e-05
-2.49318e-06
-2.7706e-05
1.53813e-06
-2.65126e-05
5.45166e-06
9.23459e-06
-2.51903e-05
-1.69132e-06
-5.21432e-05
-4.02599e-06
-5.25954e-05
-6.40598e-06
-5.24353e-05
-8.74161e-06
-5.20068e-05
-1.10145e-05
-5.12634e-05
-1.32127e-05
-5.01449e-05
-1.53189e-05
-4.86078e-05
-1.73091e-05
-4.66342e-05
-1.91549e-05
-4.42313e-05
-2.0827e-05
-4.14278e-05
-2.22983e-05
-3.82686e-05
-2.35459e-05
-3.48092e-05
-2.45532e-05
-3.11106e-05
-2.53096e-05
-2.72349e-05
-2.58103e-05
-2.32426e-05
-2.60556e-05
-1.91896e-05
-2.60498e-05
-1.51248e-05
-2.58012e-05
-1.10869e-05
-2.53238e-05
-7.10052e-06
-2.46426e-05
-3.17434e-06
-2.37959e-05
6.91451e-07
-2.28221e-05
4.47795e-06
8.15742e-06
-2.17449e-05
-1.32129e-06
-5.0822e-05
-3.38947e-06
-5.05272e-05
-5.3811e-06
-5.04438e-05
-7.27391e-06
-5.0114e-05
-9.10445e-06
-4.94329e-05
-1.08851e-05
-4.83642e-05
-1.26073e-05
-4.68857e-05
-1.42498e-05
-4.49917e-05
-1.57858e-05
-4.26953e-05
-1.71878e-05