/*--------------------------------*- C++ -*----------------------------------*\
  =========                 |
  \\      /  F ield         | OpenFOAM: The Open Source CFD Toolbox
   \\    /   O peration     | Website:  https://openfoam.org
    \\  /    A nd           | Version:  9
     \\/     M anipulation  |
\*---------------------------------------------------------------------------*/
FoamFile
{
    format      ascii;
    class       volScalarField;
    location    "6.27";
    object      k;
}
// * * * * * * * * * * * * * * * * * * * * * * * * * * * * * * * * * * * * * //

dimensions      [0 2 -2 0 0 0 0];

internalField   nonuniform List<scalar> 
2268
(
0.000187819
0.000458669
0.000669274
0.000833016
0.000966975
0.00107967
0.00117622
0.0012597
0.00133206
0.00139508
0.00145384
0.00150748
0.00155575
0.00159433
0.00161216
0.00158867
0.00148685
0.00131907
0.0011646
0.00104644
0.000921299
0.000737992
0.000335064
0.000402022
0.00105974
0.00149525
0.0018383
0.00211998
0.00235689
0.00255965
0.00273521
0.00288822
0.00302203
0.0031403
0.00324627
0.00333856
0.00340919
0.00343982
0.00339796
0.00323795
0.00294772
0.00264827
0.00238012
0.00210004
0.00163983
0.00075413
0.000568724
0.0014159
0.00195417
0.002379
0.00272921
0.00302391
0.0032755
0.00349252
0.00368102
0.00384559
0.00399027
0.00411826
0.0042271
0.00430719
0.00433907
0.004292
0.00412949
0.0038463
0.00353181
0.00321487
0.00284467
0.002255
0.00105249
0.000710764
0.00170026
0.00230759
0.00278504
0.00317941
0.0035115
0.00379468
0.00403849
0.00424992
0.00443433
0.00459594
0.00473774
0.00485653
0.00494211
0.00497597
0.00493219
0.00478427
0.00452783
0.00422691
0.0038996
0.00349304
0.00283386
0.00134337
0.000834835
0.00195033
0.00261447
0.00313246
0.00356006
0.00392002
0.00422666
0.00449032
0.00471875
0.00491787
0.00509207
0.00524416
0.00537055
0.00546109
0.00549914
0.00546419
0.00533875
0.00511832
0.00484471
0.00452897
0.00411894
0.00342121
0.00165864
0.000946744
0.00217943
0.00289509
0.00344765
0.00390236
0.00428451
0.00460956
0.00488871
0.00513038
0.00534102
0.00552519
0.00568566
0.00581875
0.00591485
0.00595962
0.00593764
0.00583892
0.00566109
0.00542414
0.00513412
0.00474219
0.00403162
0.00206016
0.00105057
0.00239452
0.00315915
0.00374297
0.00422083
0.00462115
0.00496094
0.00525234
0.00550453
0.00572439
0.00591673
0.00608446
0.00622407
0.00632685
0.00638089
0.00637525
0.00630562
0.00617267
0.00597885
0.00572334
0.00536313
0.00469121
0.00264636
0.00114917
0.00260033
0.00341253
0.00402553
0.00452349
0.00493874
0.00529022
0.00559126
0.00585177
0.00607909
0.00627831
0.00645267
0.00659903
0.00670979
0.00677545
0.00678875
0.00674915
0.00665944
0.00651028
0.00629276
0.00597253
0.00540866
0.00372407
0.000302503
0.000872197
0.00117938
0.00132636
0.00140533
0.00144409
0.0014743
0.00150423
0.00150974
0.00141809
0.00124275
0.00104556
0.000849415
0.000816476
0.00100484
0.000977837
0.000732072
0.000504174
0.000311946
0.00060105
0.00183088
0.00243744
0.00276224
0.00293575
0.00302539
0.0030762
0.00310134
0.003063
0.00288572
0.00256519
0.0022269
0.0018984
0.00181114
0.00204195
0.00193785
0.0015226
0.00106318
0.000492476
0.000864185
0.00233402
0.00309916
0.00350473
0.00371758
0.00382532
0.00387932
0.00389304
0.00382768
0.00361924
0.00328614
0.00292267
0.00257316
0.00244311
0.00256264
0.00239904
0.0019235
0.0013319
0.000574434
0.0011584
0.00279806
0.00363379
0.00406743
0.00429078
0.00439974
0.00444728
0.00444636
0.00436038
0.00413643
0.0038022
0.00344007
0.00309547
0.0029339
0.00295523
0.00274141
0.00222331
0.00151729
0.00062679
0.00148019
0.00329645
0.0041403
0.00456475
0.00477886
0.00487786
0.00491261
0.0048952
0.00479253
0.00456078
0.00422861
0.00387601
0.00354308
0.00335849
0.00329878
0.00304039
0.00248356
0.0016774
0.000686007
0.00190694
0.00384625
0.00464505
0.00503229
0.00522295
0.0053041
0.00532158
0.00528643
0.00516967
0.00493481
0.00460922
0.00426904
0.00395056
0.00374916
0.00361731
0.00331443
0.00271627
0.00184573
0.000748348
0.00256767
0.00445469
0.00515348
0.00548294
0.00564058
0.00569865
0.00569575
0.00564193
0.005513
0.00527835
0.0049664
0.00464099
0.00433702
0.00411371
0.00391803
0.00356648
0.00292562
0.00203058
0.000817404
0.00365385
0.0051178
0.0056611
0.00592065
0.00604001
0.00607194
0.0060468
0.00597371
0.00583416
0.00560296
0.0053101
0.00500293
0.00470696
0.00445081
0.00419912
0.00379701
0.00311674
0.0022271
0.000899504
0.00129964
0.00291317
0.00379872
0.00445495
0.0049799
0.00541371
0.00577914
0.00609164
0.0063623
0.00659903
0.00680713
0.00698981
0.00714558
0.00726901
0.0073544
0.00739924
0.00740679
0.00737976
0.00729922
0.00713919
0.00687421
0.006478
0.00579055
0.00148388
0.00330611
0.00430014
0.00501387
0.00556262
0.0060089
0.00638312
0.00670393
0.00698361
0.00723047
0.00745013
0.0076457
0.00781766
0.00796319
0.00808002
0.00816809
0.0082288
0.00825777
0.00823466
0.0081383
0.00796014
0.00772041
0.0074232
0.00167564
0.00370495
0.00485687
0.0056251
0.00615944
0.00659292
0.00695884
0.00727655
0.0075576
0.00781018
0.00803962
0.00824922
0.00843898
0.00860739
0.00875455
0.00888141
0.00898585
0.0090546
0.00906489
0.0090225
0.00891724
0.00877131
0.00860896
0.00186916
0.00411539
0.00560133
0.00639933
0.00681391
0.00720552
0.00753425
0.00783048
0.00810044
0.00835189
0.00858719
0.00880846
0.00901495
0.0092024
0.00937475
0.00953497
0.00967788
0.00977708
0.00979659
0.00980801
0.00976417
0.00967436
0.0095611
0.00199486
0.00450051
0.00641025
0.00692181
0.00728451
0.00771409
0.00801948
0.00830498
0.00857483
0.00883812
0.00908938
0.00932972
0.00954809
0.00973221
0.00991321
0.0100974
0.0102533
0.0103349
0.0103772
0.0104264
0.0104007
0.0103618
0.0102962
0.00225403
0.00476353
0.00618489
0.00696213
0.0075458
0.00822215
0.00846109
0.00869109
0.00894908
0.00921739
0.00948504
0.00974528
0.00997696
0.0101835
0.0103949
0.0105929
0.0107311
0.0107917
0.0108232
0.0108845
0.0108856
0.0108651
0.0108166
0.0022605
0.00476532
0.00620928
0.00698896
0.00761102
0.00821891
0.00858389
0.00891461
0.00921706
0.00951055
0.0097984
0.0100741
0.0103258
0.0105358
0.0107191
0.0108896
0.0110119
0.0110852
0.0111425
0.0111927
0.0112113
0.011229
0.011176
0.00240777
0.00459179
0.00596171
0.00681867
0.00752215
0.00812379
0.00860465
0.00902177
0.00939563
0.00974069
0.0100623
0.0103593
0.0106194
0.010821
0.0109851
0.0111429
0.0112686
0.011359
0.0114257
0.0114753
0.0115041
0.0115098
0.0114797
0.00241384
0.00451237
0.00583616
0.00676343
0.007507
0.00813221
0.00866142
0.00912269
0.0095352
0.00991171
0.0102547
0.0105618
0.0108246
0.0110356
0.0112132
0.0113787
0.0115162
0.0116137
0.0116848
0.0117356
0.0117656
0.0117697
0.0117659
0.00240525
0.00452863
0.00584622
0.00679314
0.00755377
0.00819555
0.00874816
0.00923244
0.00966432
0.0100545
0.0104068
0.0107188
0.0109871
0.0112148
0.0114166
0.0116002
0.0117472
0.0118523
0.0119311
0.0119867
0.0120155
0.0120206
0.0120187
0.00240905
0.00459222
0.0059123
0.00686331
0.00763061
0.00828146
0.00884672
0.00934447
0.00978782
0.0101861
0.0105438
0.0108613
0.0111395
0.0113847
0.0116057
0.0118019
0.0119592
0.0120768
0.0121659
0.0122278
0.0122603
0.0122684
0.0122641
0.00240473
0.00467138
0.00599592
0.00694865
0.00771906
0.00837512
0.00894811
0.00945494
0.00990688
0.0103123
0.0106761
0.0110011
0.0112906
0.0115502
0.011784
0.0119894
0.0121586
0.0122907
0.0123916
0.0124626
0.0125035
0.0125187
0.0125158
0.00241197
0.00474792
0.00608314
0.00703869
0.0078118
0.0084717
0.0090502
0.00956393
0.0100233
0.0104361
0.0108075
0.0111415
0.011442
0.0117133
0.0119572
0.0121718
0.0123533
0.0125006
0.0126151
0.0126981
0.0127504
0.0127759
0.0127793
0.00241152
0.00482326
0.00616965
0.00712987
0.00790644
0.00857019
0.00915351
0.00967328
0.0101398
0.0105604
0.0109405
0.0112845
0.011596
0.0118781
0.0121322
0.0123572
0.0125515
0.0127138
0.0128434
0.0129408
0.0130071
0.0130457
0.0130598
0.00241592
0.00489607
0.00625453
0.00722093
0.00800213
0.00867046
0.00925893
0.00978491
0.0102589
0.0106881
0.011078
0.0114328
0.0117558
0.0120496
0.0123152
0.0125524
0.01276
0.0129374
0.0130832
0.013197
0.0132798
0.0133343
0.0133626
0.00241024
0.00496531
0.00633812
0.00731155
0.00809837
0.00877235
0.00936701
0.00990016
0.0103825
0.0108215
0.0112223
0.011589
0.0119248
0.0122317
0.0125108
0.012762
0.0129847
0.0131781
0.0133412
0.0134733
0.0135749
0.0136477
0.0136927
0.00241469
0.00503621
0.00642027
0.00740156
0.00819527
0.00887612
0.00947822
0.0100198
0.010512
0.0109621
0.0113753
0.0117557
0.0121059
0.0124279
0.0127226
0.0129902
0.0132301
0.0134414
0.0136236
0.013776
0.0138984
0.0139915
0.0140557
0.00241479
0.00510285
0.00650009
0.00749042
0.00829251
0.00898179
0.00959294
0.0101447
0.0106483
0.0111113
0.0115389
0.0119348
0.0123016
0.0126411
0.012954
0.0132406
0.0135003
0.0137323
0.013936
0.0141108
0.014256
0.0143716
0.0144572
0.00243204
0.00516783
0.00657671
0.00757785
0.00838999
0.00908943
0.00971149
0.0102753
0.0107925
0.0112705
0.0117146
0.0121284
0.0125143
0.0128739
0.013208
0.0135166
0.0137993
0.0140552
0.0142833
0.0144831
0.0146537
0.0147942
0.0149038
0.00246264
0.00522615
0.00665057
0.00766403
0.00848779
0.00919922
0.00983419
0.0104123
0.0109452
0.0114407
0.0119039
0.0123383
0.0127463
0.0131292
0.0134878
0.0138219
0.0141311
0.0144143
0.0146706
0.0148987
0.0150977
0.0152662
0.0154028
0.00249122
0.00528153
0.00672217
0.00774913
0.0085861
0.00931142
0.00996147
0.0105561
0.0111074
0.0116231
0.0121083
0.0125664
0.0129998
0.0134097
0.0137966
0.0141603
0.0145001
0.0148149
0.0151034
0.0153639
0.0155953
0.0157955
0.0159627
0.00251763
0.00533424
0.00679167
0.00783333
0.00868517
0.00942637
0.0100938
0.0107076
0.0112801
0.0118189
0.0123294
0.0128149
0.0132776
0.0137186
0.0141382
0.0145361
0.0149114
0.0152627
0.0155883
0.0158861
0.0161545
0.016391
0.0165934
0.00254233
0.00538422
0.00685916
0.00791683
0.00878528
0.00954447
0.0102317
0.0108675
0.0114641
0.0120296
0.0125691
0.013086
0.0135824
0.0140592
0.0145168
0.0149544
0.0153708
0.0157643
0.0161328
0.0164738
0.016785
0.0170634
0.0173062
0.00256464
0.00543131
0.00692473
0.00799987
0.00888677
0.00966619
0.0103759
0.0110365
0.0116607
0.0122565
0.0128292
0.0133821
0.0139173
0.0144357
0.0149371
0.0154207
0.015885
0.0163276
0.0167461
0.0171372
0.0174979
0.0178249
0.0181144
0.00258363
0.00547557
0.00698863
0.00808275
0.00899003
0.00979202
0.0105269
0.0112156
0.0118711
0.0125014
0.0131119
0.0137062
0.014286
0.0148523
0.0154046
0.0159417
0.0164617
0.0169617
0.0174383
0.0178879
0.0183064
0.0186897
0.0190334
0.00260002
0.00551759
0.00705123
0.00816582
0.00909544
0.00992243
0.0106854
0.0114057
0.0120964
0.0127658
0.0134195
0.014061
0.0146922
0.0153138
0.0159252
0.0165247
0.0171097
0.0176768
0.0182217
0.0187397
0.0192257
0.0196745
0.020081
0.00261477
0.00555792
0.0071129
0.00824937
0.00920329
0.0100578
0.010852
0.0116076
0.0123378
0.0130514
0.0137542
0.0144497
0.01514
0.0158255
0.0165055
0.0171779
0.0178392
0.0184851
0.0191101
0.0197083
0.0202734
0.0207987
0.021278
0.00262829
0.0055968
0.00717374
0.00833344
0.00931369
0.0101984
0.011027
0.0118218
0.0125963
0.0133597
0.0141181
0.0148752
0.0156333
0.0163929
0.0171528
0.0179104
0.0186613
0.0194
0.0201196
0.0208123
0.0214702
0.0220848
0.0226484
0.0026406
0.00563403
0.00723351
0.0084178
0.00942643
0.0103441
0.0112106
0.0120487
0.0128726
0.0136918
0.0145128
0.0153401
0.0161761
0.0170213
0.0178744
0.0187319
0.0195886
0.020437
0.0212685
0.0220729
0.0228399
0.0235589
0.0242201
0.00265109
0.00566874
0.00729147
0.00850181
0.00954088
0.0104942
0.0114023
0.0122881
0.0131666
0.0140481
0.0149398
0.0158468
0.016772
0.0177162
0.0186778
0.0196528
0.0206344
0.0216132
0.0225776
0.0235146
0.0244105
0.0252516
0.0260257
0.00265773
0.00569917
0.00734536
0.00858333
0.0096555
0.0106478
0.0116011
0.0125393
0.0134781
0.0144287
0.0153994
0.0163964
0.0174235
0.018482
0.0195703
0.0206835
0.0218132
0.0229472
0.0240705
0.0251656
0.0262142
0.0271985
0.0281032
0.00266081
0.00571928
0.00739158
0.00866029
0.00976873
0.0108034
0.0118059
0.0128011
0.0138056
0.0148323
0.0158909
0.0169891
0.0181319
0.0193218
0.0205576
0.0218336
0.0231395
0.0244596
0.0257738
0.0270585
0.0282891
0.0294419
0.0304971
0.00265662
0.00572633
0.00742748
0.00873029
0.00987847
0.0109591
0.0120147
0.0130712
0.0141469
0.0152564
0.0164117
0.0176224
0.0188959
0.0202363
0.0216434
0.0231113
0.0246274
0.0261717
0.0277171
0.0292313
0.0306804
0.032032
0.0332606
0.00264335
0.00571864
0.00745035
0.00879064
0.00998229
0.0111125
0.0122249
0.0133467
0.0144983
0.0156967
0.0169567
0.0182913
0.0197108
0.0212223
0.0228275
0.0245212
0.0262888
0.0281049
0.0299329
0.031728
0.0334419
0.0350297
0.0364581
0.00261907
0.0056932
0.0074566
0.00883831
0.0100777
0.0112613
0.0124335
0.0136236
0.0148545
0.0161465
0.0175182
0.0189867
0.020567
0.0222708
0.0241035
0.0260622
0.0281311
0.0302788
0.0324565
0.0346004
0.03664
0.0385107
0.0401681
0.0025789
0.0056426
0.00744091
0.00887009
0.0101625
0.0114032
0.0126375
0.0138972
0.0152088
0.0165968
0.0180845
0.0196947
0.0214488
0.023365
0.0254557
0.0277229
0.0301525
0.0327076
0.0353238
0.0379095
0.0403577
0.0425707
0.0444891
0.00251264
0.00555375
0.00739621
0.00888357
0.0102362
0.0115371
0.0128337
0.0141618
0.0155526
0.0170355
0.0186399
0.0203956
0.0223322
0.0244776
0.026855
0.0294765
0.0323352
0.0353929
0.0385676
0.0417273
0.0447029
0.0473356
0.0495463
0.0024186
0.00541161
0.00731707
0.0088796
0.0103008
0.0116631
0.0130192
0.0144109
0.0158751
0.0174476
0.0191644
0.0210632
0.0231841
0.025568
0.0282538
0.0312721
0.0346335
0.0383097
0.0422067
0.0461379
0.0498239
0.0529776
0.0555015
0.00241945
0.0052176
0.00720666
0.00886516
0.0103615
0.0117821
0.01319
0.0146359
0.0161638
0.0178154
0.0196339
0.0216656
0.0239622
0.0265806
0.0295816
0.0330247
0.0369557
0.0413809
0.0462205
0.0512327
0.0559434
0.059745
0.0625654
0.00394179
0.0051496
0.00708661
0.00885172
0.0104242
0.0118932
0.0133398
0.0148263
0.0164035
0.018119
0.0200217
0.0221664
0.0246163
0.027446
0.0307427
0.0346057
0.0391392
0.04443
0.0504848
0.0570785
0.0634466
0.0680162
0.0710056
0.0181033
0.00644574
0.00697498
0.00883666
0.010486
0.0119882
0.013457
0.0149681
0.0165781
0.0183379
0.0203011
0.0225286
0.0250938
0.028087
0.0316214
0.0358408
0.0409273
0.0471056
0.0546177
0.0635622
0.0731538
0.0783825
0.0811266
0.0840444
0.0141975
0.00706171
0.00881797
0.0105301
0.0120478
0.0135241
0.0150455
0.0166712
0.0184537
0.0204485
0.0227202
0.0253478
0.0284313
0.0321012
0.0365336
0.0419774
0.048808
0.0576472
0.0696515
0.0872619
0.0916772
0.0931473
0.00414719
0.00359808
0.00352038
0.0038493
0.00714202
0.00699728
0.00693201
0.00695023
0.00848762
0.00841374
0.00835374
0.00831052
0.00946412
0.00940196
0.00934118
0.0092815
0.0102216
0.0101732
0.0101142
0.0100432
0.0107645
0.0107423
0.0106994
0.0106382
0.0111583
0.0111338
0.011079
0.011016
0.0114568
0.0114208
0.0113757
0.0113222
0.0117562
0.0117278
0.011681
0.0116262
0.0120074
0.0119865
0.01195
0.011903
0.0122486
0.0122302
0.0122015
0.0121633
0.0124992
0.0124822
0.0124578
0.0124258
0.0127656
0.0127511
0.0127305
0.0127036
0.0130526
0.0130423
0.0130262
0.0130042
0.0133645
0.0133599
0.0133494
0.0133328
0.0137059
0.0137082
0.0137042
0.0136938
0.0140819
0.0140921
0.0140957
0.0140924
0.0144981
0.0145174
0.0145295
0.0145344
0.0149613
0.0149908
0.0150128
0.0150271
0.0154791
0.0155203
0.0155536
0.0155786
0.0160605
0.0161151
0.0161613
0.0161988
0.0167158
0.0167857
0.0168468
0.0168986
0.0174569
0.0175445
0.0176227
0.0176911
0.0182978
0.0184057
0.0185036
0.018591
0.0192544
0.0193859
0.0195064
0.0196157
0.0203455
0.020504
0.0206505
0.0207848
0.0215926
0.0217821
0.0219585
0.0221213
0.0230205
0.0232455
0.0234559
0.0236511
0.0246582
0.0249237
0.0251726
0.0254042
0.026539
0.0268503
0.0271424
0.0274147
0.0287017
0.0290645
0.0294046
0.0297217
0.0311917
0.0316118
0.0320048
0.0323704
0.0340627
0.0345457
0.0349958
0.0354129
0.0373787
0.0379296
0.03844
0.0389102
0.0412172
0.0418396
0.0424111
0.0429333
0.045673
0.0463669
0.0469966
0.0475656
0.0508631
0.0516222
0.0523003
0.0529038
0.0569319
0.0577381
0.0584431
0.0590583
0.0640548
0.0648686
0.0655607
0.0661497
0.0724322
0.0731797
0.0737927
0.0742984
0.0822574
0.082817
0.0832554
0.0836041
0.0936214
0.0938367
0.0939959
0.0941175
0.00534815
0.00608246
0.00640845
0.00656901
0.00663175
0.00662473
0.00656599
0.00646329
0.00630871
0.00608935
0.00582676
0.00554812
0.00524994
0.00493357
0.00460169
0.00412613
0.00340554
0.00252632
0.00108855
0.00708808
0.00725843
0.0073615
0.00740324
0.00739147
0.00733235
0.00723141
0.0070927
0.00691687
0.00669977
0.00644349
0.00616457
0.00584001
0.00546345
0.00504943
0.00451126
0.0037854
0.00289024
0.00134112
0.00826241
0.00824321
0.00822621
0.00818118
0.00810805
0.00800564
0.00787162
0.00770648
0.00750861
0.0072793
0.00701418
0.006721
0.00636562
0.00593885
0.00546252
0.00488661
0.00416358
0.00323385
0.00152902
0.00918844
0.00909334
0.00901486
0.00889975
0.00877959
0.00864727
0.00848822
0.00830457
0.00809416
0.00785437
0.00757795
0.0072664
0.00687359
0.00638376
0.0058548
0.00524633
0.00451021
0.00353023
0.00175037
0.00992674
0.00978382
0.00965958
0.00952461
0.00940192
0.00925021
0.009059
0.00886078
0.00864536
0.00837721
0.00804492
0.00767928
0.00729577
0.00679992
0.00620096
0.00555677
0.0047999
0.00378012
0.00188241
0.0105401
0.0104366
0.0103062
0.0101053
0.00992861
0.00975703
0.00956502
0.00936103
0.00912779
0.00883367
0.0084423
0.00802708
0.00760345
0.00706821
0.00646863
0.00581806
0.00503913
0.00396257
0.00193918
0.0109201
0.0108249
0.0107337
0.0105804
0.0104092
0.0102342
0.0100211
0.00979138
0.0095131
0.00917787
0.00877221
0.00831739
0.00782132
0.00727421
0.00668042
0.00603323
0.00524479
0.00413628
0.00197544
0.0112328
0.011118
0.0110073
0.0108684
0.0107021
0.0105156
0.0103034
0.0100459
0.00972624
0.00937241
0.00897822
0.00853031
0.00801768
0.0074545
0.00682699
0.00614673
0.00536271
0.004285
0.00204572
0.0115324
0.0113954
0.011254
0.011094
0.0109073
0.0107025
0.0104791
0.0101897
0.00984293
0.00947257
0.00907241
0.0086343
0.00815105
0.0075927
0.00692583
0.00618727
0.00535962
0.00428747
0.00209311
0.011815
0.011673
0.0115229
0.0113536
0.0111492
0.0109144
0.0106552
0.010335
0.00996959
0.00957187
0.00913519
0.00866393
0.0081791
0.00763003
0.0069558
0.00616767
0.00527246
0.00414221
0.00205013
0.0120874
0.011954
0.0118054
0.0116318
0.0114141
0.011153
0.0108613
0.0105236
0.0101386
0.00970903
0.00923216
0.00870878
0.00815754
0.00755964
0.00687582
0.00608036
0.00513738
0.00392965
0.00195507
0.0123618
0.0122414
0.0120954
0.0119163
0.0116891
0.0114145
0.0111071
0.0107563
0.0103516
0.00989623
0.0093873
0.00881821
0.00819071
0.00750781
0.00676325
0.00594395
0.00497809
0.00372445
0.00195047
0.0126491
0.0125411
0.0123988
0.0122157
0.0119832
0.0117041
0.0113882
0.0110268
0.01061
0.0101378
0.00960528
0.00900317
0.00832621
0.00757636
0.00675658
0.00587013
0.00486629
0.0035965
0.00194981
0.0129581
0.0128607
0.0127246
0.0125427
0.01231
0.01203
0.0117084
0.0113396
0.0109153
0.0104322
0.0098841
0.00926174
0.00855894
0.00777412
0.00690705
0.0059574
0.00489177
0.00358384
0.00190151
0.0132952
0.0132078
0.0130796
0.0129032
0.0126748
0.0123969
0.0120729
0.0116995
0.0112698
0.0107793
0.0102215
0.0095881
0.0088731
0.00807312
0.00718458
0.00619884
0.00508203
0.00371367
0.00193474
0.0136658
0.0135892
0.01347
0.0133018
0.0130808
0.012808
0.012485
0.0121095
0.0116765
0.0111811
0.0106173
0.00997775
0.00925663
0.00844926
0.00754946
0.00654211
0.00538477
0.00394969
0.00195342
0.0140753
0.0140115
0.013903
0.0137448
0.0135332
0.0132677
0.0129485
0.0125737
0.0121394
0.0116411
0.0110735
0.0104301
0.009705
0.00889199
0.00798199
0.00695489
0.00576014
0.00425621
0.00197896
0.0145301
0.0144815
0.0143862
0.0142399
0.0140393
0.0137827
0.0134694
0.0130973
0.0126635
0.0121639
0.0115938
0.0109475
0.0102187
0.00939972
0.00847818
0.00742818
0.0061888
0.00459658
0.002177
0.0150376
0.0150071
0.0149277
0.0147956
0.0146075
0.0143613
0.0140554
0.0136878
0.0132557
0.0127557
0.0121835
0.011534
0.0108008
0.00997513
0.00904178
0.00797015
0.00669119
0.00502165
0.00241994
0.0156064
0.0155974
0.0155368
0.0154213
0.0152476
0.0150133
0.0147162
0.0143541
0.0139245
0.0134242
0.0128494
0.0121954
0.011456
0.010622
0.00967687
0.00858819
0.00728434
0.00556775
0.00271212
0.0162465
0.0162626
0.0162242
0.016128
0.0159708
0.0157499
0.0154627
0.015107
0.01468
0.0141788
0.0136
0.012939
0.0121901
0.0113439
0.0103841
0.0092781
0.00795392
0.00619806
0.00303592
0.0169695
0.0170147
0.0170021
0.0169283
0.0167899
0.0165841
0.016308
0.0159591
0.0155345
0.0150313
0.014446
0.0137743
0.0130105
0.0121454
0.0111627
0.0100296
0.00867148
0.00685943
0.00338202
0.0177886
0.0178675
0.0178846
0.0178365
0.0177195
0.0175307
0.0172669
0.0169252
0.0165025
0.0159955
0.0154005
0.0147132
0.0139274
0.0130335
0.0120147
0.0108355
0.00941783
0.00750435
0.00376229
0.0187192
0.0188368
0.018888
0.0188691
0.0187765
0.0186067
0.0183564
0.0180222
0.0176006
0.0170877
0.0164794
0.0157705
0.0149541
0.0140195
0.0129497
0.011707
0.0102018
0.00814041
0.00408885
0.0197791
0.0199409
0.0200309
0.0200451
0.0199798
0.0198313
0.0195958
0.0192694
0.018848
0.0183271
0.0177013
0.0169644
0.0161088
0.0151225
0.0139853
0.0126552
0.0110294
0.0087754
0.00434191
0.0209885
0.0212005
0.0213342
0.0213857
0.0213508
0.0212258
0.0210066
0.0206885
0.0202668
0.0197357
0.0190888
0.0183183
0.0174147
0.0163636
0.0151413
0.0136995
0.0119217
0.00943826
0.00456859
0.0223706
0.0226391
0.0228218
0.0229146
0.0229134
0.0228144
0.022613
0.0223041
0.0218818
0.0213391
0.0206678
0.0198581
0.0188975
0.0177689
0.0164438
0.0148676
0.0129107
0.0101701
0.00483298
0.023952
0.0242836
0.0245203
0.0246584
0.0246942
0.0246235
0.0244418
0.0241433
0.0237208
0.0231656
0.0224673
0.0216133
0.0205878
0.0193695
0.0179251
0.0161931
0.0140323
0.0110082
0.00516896
0.0257628
0.0261639
0.0264596
0.0266467
0.0267221
0.0266822
0.0265222
0.0262355
0.0258137
0.0252462
0.0245196
0.0236179
0.0225208
0.0212022
0.0196229
0.0177142
0.0153232
0.011983
0.00558476
0.027837
0.0283137
0.0286725
0.0289116
0.029029
0.0290218
0.0288854
0.0286126
0.0281936
0.0276153
0.0268611
0.0259103
0.0247375
0.0233099
0.0215812
0.0194742
0.0168226
0.0131216
0.00607319
0.0302136
0.0307709
0.0311957
0.0314884
0.0316491
0.031676
0.0315651
0.0313088
0.0308958
0.0303103
0.0295318
0.028534
0.0272847
0.0257426
0.023852
0.0215242
0.0185759
0.0144556
0.00663306
0.0329367
0.0335777
0.0340694
0.0344157
0.0346195
0.0346811
0.0345974
0.0343607
0.0339583
0.0333716
0.0325754
0.0315371
0.0302156
0.0285588
0.0264976
0.0239275
0.0206421
0.0160317
0.00728496
0.0360569
0.0367818
0.0373383
0.0377354
0.0379802
0.0380757
0.0380204
0.037807
0.0374213
0.0368421
0.0360392
0.0349725
0.0335903
0.0318264
0.0295933
0.0267636
0.0230995
0.0179199
0.00808585
0.0396321
0.0404367
0.0410517
0.0414935
0.0417744
0.0419014
0.041875
0.0416886
0.0413274
0.0407673
0.0399734
0.0388974
0.0374755
0.0356233
0.033229
0.0301323
0.0260501
0.0202109
0.00908725
0.0437289
0.0446023
0.0452641
0.04574
0.0460492
0.0462031
0.0462049
0.0460492
0.045721
0.0451943
0.0444299
0.0433717
0.0419426
0.0400371
0.037511
0.0341572
0.0296254
0.0230198
0.0103289
0.0484232
0.0493456
0.0500354
0.0505298
0.0508558
0.0510294
0.0510571
0.050935
0.0506487
0.0501716
0.0494614
0.0484559
0.0470653
0.0451616
0.0425608
0.0389911
0.034
0.0265073
0.0118733
0.0538008
0.0547408
0.0554315
0.0559233
0.0562506
0.0564343
0.0564835
0.0563964
0.0561601
0.0557487
0.0551197
0.0542078
0.0529145
0.0510911
0.0485112
0.0448195
0.0394108
0.0309159
0.013834
0.0599566
0.0608683
0.0615241
0.0619867
0.0622967
0.0624781
0.0625422
0.0624892
0.0623084
0.0619768
0.0614548
0.0606794
0.0595508
0.057909
0.0554921
0.0518536
0.0461779
0.0366275
0.0164022
0.0669906
0.0678127
0.0683904
0.0687938
0.0690656
0.0692306
0.0693007
0.0692777
0.0691538
0.0689107
0.0685155
0.0679139
0.0670161
0.0656692
0.0636015
0.0602996
0.0547103
0.0442712
0.0199646
0.0750012
0.0756609
0.0761138
0.0764273
0.0766401
0.0767738
0.0768391
0.0768384
0.0767672
0.0766128
0.0763524
0.0759466
0.0753281
0.0743759
0.0728561
0.070273
0.0654349
0.054874
0.0253205
0.0840745
0.0844995
0.0847857
0.0849831
0.0851186
0.0852067
0.0852549
0.0852654
0.085236
0.0851605
0.0850266
0.0848134
0.0844845
0.083972
0.0831356
0.081639
0.0784979
0.06985
0.033768
0.0942769
0.0944169
0.0945104
0.0945751
0.0946203
0.0946509
0.0946693
0.0946765
0.0946723
0.0946551
0.0946222
0.0945689
0.0944876
0.094365
0.0941741
0.093841
0.0930605
0.0897218
0.0470984
)
;

boundaryField
{
    leftWall
    {
        type            kqRWallFunction;
        value           nonuniform List<scalar> 
50
(
0.000187819
0.000402022
0.000568724
0.000710764
0.000834835
0.000946744
0.00105057
0.00114917
0.00129964
0.00148388
0.00167564
0.00186916
0.00199486
0.00225403
0.0022605
0.00240777
0.00241384
0.00240525
0.00240905
0.00240473
0.00241197
0.00241152
0.00241592
0.00241024
0.00241469
0.00241479
0.00243204
0.00246264
0.00249122
0.00251763
0.00254233
0.00256464
0.00258363
0.00260002
0.00261477
0.00262829
0.0026406
0.00265109
0.00265773
0.00266081
0.00265662
0.00264335
0.00261907
0.0025789
0.00251264
0.0024186
0.00241945
0.00394179
0.0181033
0.0840444
)
;
    }
    rightWall
    {
        type            kqRWallFunction;
        value           nonuniform List<scalar> 
50
(
0.000311946
0.000492476
0.000574434
0.00062679
0.000686007
0.000748348
0.000817404
0.000899504
0.00108855
0.00134112
0.00152902
0.00175037
0.00188241
0.00193918
0.00197544
0.00204572
0.00209311
0.00205013
0.00195507
0.00195047
0.00194981
0.00190151
0.00193474
0.00195342
0.00197896
0.002177
0.00241994
0.00271212
0.00303592
0.00338202
0.00376229
0.00408885
0.00434191
0.00456859
0.00483298
0.00516896
0.00558476
0.00607319
0.00663306
0.00728496
0.00808585
0.00908725
0.0103289
0.0118733
0.013834
0.0164022
0.0199646
0.0253205
0.033768
0.0470984
)
;
    }
    lowerWall
    {
        type            kqRWallFunction;
        value           nonuniform List<scalar> 
62
(
0.000187819
0.000458669
0.000669274
0.000833016
0.000966975
0.00107967
0.00117622
0.0012597
0.00133206
0.00139508
0.00145384
0.00150748
0.00155575
0.00159433
0.00161216
0.00158867
0.00148685
0.00131907
0.0011646
0.00104644
0.000921299
0.000737992
0.000335064
0.000335064
0.00075413
0.00105249
0.00134337
0.00165864
0.00206016
0.00264636
0.00372407
0.00414719
0.00359808
0.00352038
0.0038493
0.000302503
0.00060105
0.000864185
0.0011584
0.00148019
0.00190694
0.00256767
0.00365385
0.000302503
0.000872197
0.00117938
0.00132636
0.00140533
0.00144409
0.0014743
0.00150423
0.00150974
0.00141809
0.00124275
0.00104556
0.000849415
0.000816476
0.00100484
0.000977837
0.000732072
0.000504174
0.000311946
)
;
    }
    atmosphere
    {
        type            inletOutlet;
        inletValue      uniform 0.1;
        value           nonuniform List<scalar> 
46
(
0.1
0.0141975
0.00706171
0.00881797
0.0105301
0.0120478
0.0135241
0.0150455
0.0166712
0.0184537
0.0204485
0.0227202
0.0253478
0.0284313
0.0321012
0.0365336
0.0419774
0.048808
0.0576472
0.0696515
0.1
0.1
0.1
0.1
0.1
0.1
0.1
0.1
0.1
0.1
0.1
0.1
0.1
0.1
0.1
0.1
0.1
0.1
0.1
0.1
0.1
0.1
0.1
0.1
0.1
0.0470984
)
;
    }
    defaultFaces
    {
        type            empty;
    }
}


// ************************************************************************* //
