/*--------------------------------*- C++ -*----------------------------------*\
  =========                 |
  \\      /  F ield         | OpenFOAM: The Open Source CFD Toolbox
   \\    /   O peration     | Website:  https://openfoam.org
    \\  /    A nd           | Version:  9
     \\/     M anipulation  |
\*---------------------------------------------------------------------------*/
FoamFile
{
    format      ascii;
    class       volVectorField;
    location    "5.35";
    object      U;
}
// * * * * * * * * * * * * * * * * * * * * * * * * * * * * * * * * * * * * * //

dimensions      [0 1 -1 0 0 0 0];

internalField   nonuniform List<vector> 
2268
(
(-0.00193273 0.00083358 0)
(-0.00449136 0.000540374 0)
(-0.00631785 0.000434359 0)
(-0.00809812 0.00040807 0)
(-0.00972938 0.000395277 0)
(-0.011278 0.000383096 0)
(-0.0126922 0.000342434 0)
(-0.0138927 0.000275806 0)
(-0.0147822 0.00017987 0)
(-0.0152994 6.25933e-05 0)
(-0.0153886 -6.61649e-05 0)
(-0.0149884 -0.000233878 0)
(-0.0139937 -0.000452626 0)
(-0.0122177 -0.000748308 0)
(-0.00939347 -0.00110266 0)
(-0.00570038 -0.0014271 0)
(-0.00108098 -0.000993975 0)
(-0.000508386 0.00150841 0)
(-0.00907705 0.00368235 0)
(-0.0215053 0.00327153 0)
(-0.0275682 0.000210994 0)
(-0.0218931 -0.00372296 0)
(-0.00813131 -0.00396607 0)
(-0.00155269 0.00222153 0)
(-0.00399976 0.00162693 0)
(-0.00595705 0.00137856 0)
(-0.00786369 0.00125388 0)
(-0.00959171 0.00117028 0)
(-0.011186 0.00108215 0)
(-0.0126033 0.000948351 0)
(-0.0137873 0.000757435 0)
(-0.0146746 0.000512196 0)
(-0.015222 0.000227664 0)
(-0.0154 -8.87168e-05 0)
(-0.0151652 -0.000469909 0)
(-0.0144416 -0.00095168 0)
(-0.0131247 -0.00156768 0)
(-0.0111068 -0.00226272 0)
(-0.00856457 -0.00276317 0)
(-0.00569159 -0.00178263 0)
(-0.00514247 0.00278434 0)
(-0.0098821 0.00678225 0)
(-0.0168586 0.00598226 0)
(-0.0198918 0.000645292 0)
(-0.0174156 -0.00670774 0)
(-0.00880343 -0.0105676 0)
(-0.00127553 0.00338171 0)
(-0.00370125 0.00262994 0)
(-0.00572404 0.0022964 0)
(-0.00770252 0.00209817 0)
(-0.00950388 0.00194532 0)
(-0.0111522 0.00177846 0)
(-0.0126091 0.00154799 0)
(-0.0138309 0.00123741 0)
(-0.0147711 0.000852839 0)
(-0.0153972 0.000415454 0)
(-0.0156886 -7.0034e-05 0)
(-0.015619 -0.000637485 0)
(-0.0151451 -0.00133581 0)
(-0.0142167 -0.00219456 0)
(-0.0128092 -0.00312803 0)
(-0.0110841 -0.00373242 0)
(-0.00912404 -0.00251355 0)
(-0.0083093 0.00342483 0)
(-0.0100263 0.0083924 0)
(-0.0129197 0.00740005 0)
(-0.0142718 0.000862706 0)
(-0.0128341 -0.00864187 0)
(-0.00671258 -0.0160505 0)
(-0.00113792 0.00450456 0)
(-0.00351765 0.00368179 0)
(-0.00560248 0.00326997 0)
(-0.00764791 0.00299925 0)
(-0.00952602 0.00277246 0)
(-0.011244 0.00252117 0)
(-0.0127649 0.00218991 0)
(-0.014052 0.00175979 0)
(-0.0150685 0.00123978 0)
(-0.0157899 0.000656741 0)
(-0.0162056 1.71706e-05 0)
(-0.0163055 -0.000714387 0)
(-0.016072 -0.00159135 0)
(-0.0154938 -0.00263309 0)
(-0.0145992 -0.00372269 0)
(-0.0135578 -0.00438651 0)
(-0.0124322 -0.00310829 0)
(-0.0112285 0.00330886 0)
(-0.0103719 0.00865299 0)
(-0.0101423 0.00774711 0)
(-0.00950976 0.000694776 0)
(-0.0079399 -0.0101228 0)
(-0.00349108 -0.0198643 0)
(-0.00107528 0.00556499 0)
(-0.00341214 0.00474586 0)
(-0.00556526 0.00427774 0)
(-0.00768367 0.00394175 0)
(-0.00964651 0.00364173 0)
(-0.0114482 0.00330456 0)
(-0.013052 0.00287165 0)
(-0.0144252 0.00232389 0)
(-0.0155365 0.00167326 0)
(-0.0163669 0.000953238 0)
(-0.016915 0.000174477 0)
(-0.0171852 -0.000698136 0)
(-0.0171789 -0.00171837 0)
(-0.0169096 -0.00289067 0)
(-0.0164365 -0.00406755 0)
(-0.0159412 -0.00474068 0)
(-0.0155481 -0.00350398 0)
(-0.0140406 0.00244478 0)
(-0.0111813 0.00777281 0)
(-0.00846385 0.00698297 0)
(-0.00559203 -0.00023289 0)
(-0.00323401 -0.0112757 0)
(-0.000221875 -0.0215663 0)
(-0.00104509 0.00660144 0)
(-0.0033739 0.00581788 0)
(-0.00560819 0.00531212 0)
(-0.00780827 0.00491918 0)
(-0.00986309 0.00454942 0)
(-0.0117588 0.00412791 0)
(-0.0134588 0.00359485 0)
(-0.0149325 0.00293249 0)
(-0.0161511 0.00215607 0)
(-0.017099 0.00130694 0)
(-0.0177818 0.000402149 0)
(-0.0182156 -0.000591249 0)
(-0.0184133 -0.00172715 0)
(-0.0183995 -0.00299334 0)
(-0.0182392 -0.00421583 0)
(-0.0180871 -0.00487534 0)
(-0.0180535 -0.0037511 0)
(-0.0164821 0.00112308 0)
(-0.0124697 0.00597391 0)
(-0.00775042 0.00519742 0)
(-0.00298715 -0.00197755 0)
(0.000106712 -0.0123803 0)
(0.00232842 -0.0216193 0)
(-0.00102796 0.00768261 0)
(-0.00339396 0.00690203 0)
(-0.00573074 0.00637961 0)
(-0.00801821 0.00593856 0)
(-0.0101684 0.00550314 0)
(-0.0121631 0.0049997 0)
(-0.0139664 0.00436839 0)
(-0.0155484 0.0035938 0)
(-0.0168808 0.00269427 0)
(-0.0179489 0.00172062 0)
(-0.0187624 0.000698028 0)
(-0.0193459 -0.000403662 0)
(-0.0197167 -0.00163814 0)
(-0.0198969 -0.00298229 0)
(-0.019936 -0.00424473 0)
(-0.019922 -0.00491754 0)
(-0.0198659 -0.00399621 0)
(-0.0182839 -0.000301303 0)
(-0.0138155 0.00355836 0)
(-0.00782885 0.00263961 0)
(-0.00216623 -0.00411424 0)
(0.00107288 -0.0135121 0)
(0.00320087 -0.0210902 0)
(-0.00108244 0.00837479 0)
(-0.00351341 0.0080542 0)
(-0.00592369 0.00753063 0)
(-0.00829749 0.00703806 0)
(-0.0105421 0.00653312 0)
(-0.0126349 0.00594579 0)
(-0.0145419 0.00521526 0)
(-0.0162326 0.00432823 0)
(-0.017679 0.00330432 0)
(-0.0188648 0.00220559 0)
(-0.0198004 0.00106604 0)
(-0.0205132 -0.000145148 0)
(-0.0210196 -0.00146971 0)
(-0.0213321 -0.00289657 0)
(-0.0214712 -0.00422741 0)
(-0.0214498 -0.00498641 0)
(-0.0211712 -0.0043637 0)
(-0.0194392 -0.00174211 0)
(-0.0149239 0.000912699 0)
(-0.00868158 -0.000245371 0)
(-0.00311853 -0.00620096 0)
(-0.000262712 -0.0142957 0)
(0.000282138 -0.0203636 0)
(-0.00966627 0.00184283 0)
(-0.000336904 -0.00354794 0)
(0.0109312 -0.00313238 0)
(0.0190043 -0.00206447 0)
(0.0245088 -0.00123796 0)
(0.0279414 -0.000727696 0)
(0.0301609 -0.00049301 0)
(0.0326512 -0.000867529 0)
(0.03693 -0.00185269 0)
(0.0453501 -0.00227376 0)
(0.0477409 0.000525392 0)
(0.0412574 0.00378226 0)
(0.0168997 0.00859355 0)
(-0.0160633 0.00376086 0)
(-0.0041444 -0.0071542 0)
(0.0203578 -0.00680259 0)
(0.0347083 -0.00213605 0)
(0.0325093 0.00253926 0)
(0.0169106 0.00634816 0)
(-0.00182561 0.00261655 0)
(0.00560114 -0.00622485 0)
(0.0117647 -0.00574378 0)
(0.0169257 -0.00409077 0)
(0.0209364 -0.00272113 0)
(0.0238385 -0.00180669 0)
(0.0260899 -0.00150605 0)
(0.0286267 -0.00227503 0)
(0.032274 -0.00394377 0)
(0.0374539 -0.00364769 0)
(0.037815 0.00257863 0)
(0.0315467 0.0090134 0)
(0.0145334 0.0170708 0)
(0.00018692 0.00635427 0)
(0.00940868 -0.0112069 0)
(0.0212025 -0.0114817 0)
(0.0283492 -0.00266494 0)
(0.0253648 0.00556512 0)
(0.0188145 0.0147721 0)
(0.00477188 0.000298169 0)
(0.00858402 -0.00813771 0)
(0.0120233 -0.00750064 0)
(0.0156016 -0.00563442 0)
(0.0187249 -0.00396227 0)
(0.0211288 -0.00277038 0)
(0.0230371 -0.00242169 0)
(0.0250499 -0.00340641 0)
(0.0274607 -0.00537256 0)
(0.0303702 -0.0045226 0)
(0.0294747 0.00446169 0)
(0.0226196 0.0128946 0)
(0.0129885 0.0208823 0)
(0.0102733 0.00592303 0)
(0.0160056 -0.0140702 0)
(0.0213268 -0.0143547 0)
(0.0238543 -0.00258227 0)
(0.0180551 0.00759598 0)
(0.0151401 0.0226951 0)
(0.00660549 -0.00318288 0)
(0.00945588 -0.00937044 0)
(0.0117199 -0.00874575 0)
(0.0144269 -0.00687652 0)
(0.0169664 -0.00501207 0)
(0.0189563 -0.0035763 0)
(0.0204147 -0.00311796 0)
(0.0216775 -0.00413216 0)
(0.0227534 -0.00610383 0)
(0.0236389 -0.00479895 0)
(0.0223333 0.00628585 0)
(0.0169205 0.0156866 0)
(0.0134259 0.0216592 0)
(0.0168274 0.00461839 0)
(0.0199925 -0.0152108 0)
(0.0208173 -0.0154759 0)
(0.0199798 -0.000991204 0)
(0.0118869 0.00982855 0)
(0.0102701 0.0285192 0)
(0.00603118 -0.0066497 0)
(0.00906348 -0.0104014 0)
(0.0110032 -0.00970244 0)
(0.0132697 -0.00789418 0)
(0.0154241 -0.00589409 0)
(0.0170578 -0.00421465 0)
(0.0180624 -0.00356175 0)
(0.0185751 -0.00441744 0)
(0.0183217 -0.00613379 0)
(0.0171768 -0.00451649 0)
(0.0160531 0.00739834 0)
(0.0138916 0.0169575 0)
(0.0151753 0.0204346 0)
(0.0210834 0.00293144 0)
(0.0219101 -0.0149738 0)
(0.0191048 -0.0151732 0)
(0.0160953 0.00165018 0)
(0.00670791 0.0121779 0)
(0.00554715 0.0319413 0)
(0.00497956 -0.0096826 0)
(0.0081918 -0.0114668 0)
(0.0100942 -0.0105576 0)
(0.0121277 -0.00877236 0)
(0.0140246 -0.00664249 0)
(0.0153788 -0.00468866 0)
(0.0160083 -0.00376619 0)
(0.0159172 -0.00429849 0)
(0.0146018 -0.00552055 0)
(0.011755 -0.00369384 0)
(0.010892 0.00747162 0)
(0.0122185 0.0165986 0)
(0.0171796 0.0180009 0)
(0.0233345 0.00157902 0)
(0.0215944 -0.0135738 0)
(0.0158385 -0.0137597 0)
(0.011996 0.00457851 0)
(0.00289055 0.0145996 0)
(0.00146622 0.0335111 0)
(0.00377842 -0.0124124 0)
(0.00726681 -0.0126357 0)
(0.00916779 -0.0113913 0)
(0.0110233 -0.00956809 0)
(0.0127268 -0.00730176 0)
(0.0139008 -0.00504265 0)
(0.0143016 -0.00379492 0)
(0.0138328 -0.00389363 0)
(0.0119299 -0.00448527 0)
(0.00833109 -0.00255102 0)
(0.0075141 0.00682294 0)
(0.011128 0.0148777 0)
(0.0182953 0.0149895 0)
(0.0234399 0.00107864 0)
(0.0193907 -0.0112528 0)
(0.0112201 -0.0114817 0)
(0.00720706 0.00707121 0)
(-0.000335829 0.0171159 0)
(-0.00261825 0.0335225 0)
(0.00360698 -0.0148137 0)
(0.00658212 -0.0136872 0)
(0.00834314 -0.0121671 0)
(0.00995804 -0.0102851 0)
(0.0114654 -0.00790477 0)
(0.0125514 -0.00535544 0)
(0.0129173 -0.00375614 0)
(0.0123371 -0.00335417 0)
(0.0103045 -0.00330893 0)
(0.00685599 -0.00140696 0)
(0.00620786 0.00593557 0)
(0.0106295 0.0124229 0)
(0.0180821 0.0121051 0)
(0.0216787 0.00144336 0)
(0.0160349 -0.00813466 0)
(0.00576228 -0.0083729 0)
(0.00144829 0.00899927 0)
(-0.00332492 0.0194799 0)
(-0.00584997 0.0318802 0)
(-0.000983979 0.0118065 0)
(-0.0036036 0.0105583 0)
(-0.00623392 0.00969112 0)
(-0.00877755 0.00900757 0)
(-0.011171 0.00834228 0)
(-0.0134076 0.00759887 0)
(-0.0154644 0.00670037 0)
(-0.0173125 0.00563181 0)
(-0.0189254 0.00440598 0)
(-0.0202856 0.00310454 0)
(-0.0213964 0.00177646 0)
(-0.0222693 0.000388429 0)
(-0.0229207 -0.00109305 0)
(-0.0233514 -0.00268308 0)
(-0.0235284 -0.00419973 0)
(-0.0233674 -0.00525421 0)
(-0.0226404 -0.00524631 0)
(-0.0205243 -0.00416302 0)
(-0.0162439 -0.00327043 0)
(-0.0107031 -0.00470522 0)
(-0.0061535 -0.00906221 0)
(-0.00444405 -0.014491 0)
(-0.00884492 -0.0170044 0)
(-0.00137088 0.00969462 0)
(-0.00428924 0.010955 0)
(-0.0069678 0.0107775 0)
(-0.00956726 0.0102884 0)
(-0.0120101 0.0097099 0)
(-0.0142996 0.00896542 0)
(-0.0164265 0.00801411 0)
(-0.0183599 0.00687392 0)
(-0.0201014 0.00556063 0)
(-0.0216428 0.00414656 0)
(-0.0229263 0.00268629 0)
(-0.0239 0.00115236 0)
(-0.0245547 -0.000495311 0)
(-0.0249122 -0.00227726 0)
(-0.0249867 -0.00405723 0)
(-0.0246889 -0.00559276 0)
(-0.0236474 -0.00650039 0)
(-0.021235 -0.0070201 0)
(-0.0172445 -0.00768176 0)
(-0.0124963 -0.00908037 0)
(-0.00856325 -0.0114297 0)
(-0.00660587 -0.0138566 0)
(-0.00696991 -0.0149531 0)
(-0.00332423 0.0163347 0)
(-0.00602219 0.015307 0)
(-0.00863816 0.0138718 0)
(-0.0121062 0.0127128 0)
(-0.0152261 0.0119956 0)
(-0.0173424 0.0111131 0)
(-0.0190505 0.00991664 0)
(-0.0206338 0.00853165 0)
(-0.0221498 0.00702226 0)
(-0.023634 0.00534875 0)
(-0.0248903 0.0035899 0)
(-0.0257156 0.00175539 0)
(-0.0260649 -0.000174105 0)
(-0.0260712 -0.00219584 0)
(-0.0258909 -0.00420585 0)
(-0.0254018 -0.00605662 0)
(-0.0238987 -0.00764377 0)
(-0.0208688 -0.00924131 0)
(-0.0169936 -0.0107685 0)
(-0.0127604 -0.0119947 0)
(-0.00887319 -0.013216 0)
(-0.00661919 -0.0146815 0)
(-0.00621772 -0.0156636 0)
(-0.00532097 0.023181 0)
(-0.00186796 0.016803 0)
(-0.00446018 0.0157689 0)
(-0.0141794 0.0155277 0)
(-0.0221993 0.0139256 0)
(-0.0220088 0.0118939 0)
(-0.0208366 0.0109789 0)
(-0.0207781 0.00950475 0)
(-0.0208781 0.00816881 0)
(-0.0217804 0.00641172 0)
(-0.0228963 0.00436572 0)
(-0.0235638 0.00215434 0)
(-0.0235366 -0.000142563 0)
(-0.0233487 -0.00223259 0)
(-0.0231394 -0.00445627 0)
(-0.0223907 -0.00652673 0)
(-0.0194462 -0.00915703 0)
(-0.0142947 -0.0111865 0)
(-0.0128601 -0.012334 0)
(-0.0120705 -0.0140664 0)
(-0.0078212 -0.0150073 0)
(-0.00442749 -0.015967 0)
(-0.00551996 -0.0163912 0)
(-0.00210613 0.0218054 0)
(0.00178627 0.0183927 0)
(-8.2867e-05 0.0295279 0)
(-0.0149641 0.0462495 0)
(-0.0202642 0.0234262 0)
(-0.017318 0.0108158 0)
(-0.020424 0.0137347 0)
(-0.023623 0.0106883 0)
(-0.0240034 0.0103323 0)
(-0.0232475 0.00961123 0)
(-0.0217721 0.00681967 0)
(-0.019157 0.00280626 0)
(-0.0153162 -0.00105594 0)
(-0.0107337 -0.00356282 0)
(-0.00614445 -0.00708276 0)
(-0.000922109 -0.0126762 0)
(0.00633621 -0.0225688 0)
(0.0150437 -0.027445 0)
(0.0156305 -0.0100063 0)
(-0.000246321 -0.024943 0)
(-0.00158871 -0.029041 0)
(-0.00238235 -0.0218757 0)
(-0.00851747 -0.0138906 0)
(0.00416751 0.0244025 0)
(0.00301732 0.0148561 0)
(0.000984518 0.0257411 0)
(0.01524 0.0353527 0)
(0.0291634 0.0143306 0)
(0.0245654 0.00986303 0)
(0.0085232 0.0228013 0)
(-0.00661896 0.0135597 0)
(-0.0150684 0.00894 0)
(-0.017388 0.00613023 0)
(-0.0162566 0.00170379 0)
(-0.01328 -0.0032982 0)
(-0.00961609 -0.00715549 0)
(-0.00600685 -0.00930154 0)
(-0.00310966 -0.0112552 0)
(-0.00299948 -0.01442 0)
(-0.00761805 -0.0211169 0)
(-0.0134777 -0.0237268 0)
(-0.0111512 0.00618409 0)
(-0.0099875 -0.00620815 0)
(-0.0186818 -0.0144388 0)
(-0.0289086 -0.0103479 0)
(-0.0203354 -0.015927 0)
(0.0124202 0.0108585 0)
(0.0119403 0.0199279 0)
(0.00947318 0.0221466 0)
(0.0215609 0.0175523 0)
(0.0273972 0.0141531 0)
(0.0198081 0.0241997 0)
(0.0166288 0.0383026 0)
(0.0133862 0.0279211 0)
(0.00769455 0.0164185 0)
(0.00375873 0.00812045 0)
(0.00186129 0.00103016 0)
(0.000739546 -0.00505622 0)
(-0.000778504 -0.00927482 0)
(-0.00333703 -0.0108094 0)
(-0.00731334 -0.0108715 0)
(-0.0127916 -0.010257 0)
(-0.0184272 -0.0147035 0)
(-0.0245544 -0.0220752 0)
(-0.0225095 -0.00948065 0)
(-0.0210264 -0.00484946 0)
(-0.0311528 -0.00457446 0)
(-0.0299164 -0.0133359 0)
(-0.0166278 -0.0301685 0)
(-0.00110982 0.00132469 0)
(0.00598689 0.0170214 0)
(0.0113822 0.0163445 0)
(0.0147959 0.0100687 0)
(0.0144291 0.0179108 0)
(0.0125425 0.0264357 0)
(0.0144803 0.0342146 0)
(0.0170459 0.0291363 0)
(0.0162033 0.0201727 0)
(0.0140021 0.0115614 0)
(0.0114519 0.00421834 0)
(0.00842387 -0.00144787 0)
(0.00459497 -0.00461135 0)
(-0.00018447 -0.00489336 0)
(-0.00562204 -0.00362001 0)
(-0.0109615 -0.00308926 0)
(-0.0151054 -0.00990569 0)
(-0.0193236 -0.0159508 0)
(-0.021981 -0.00921495 0)
(-0.0220406 0.000208257 0)
(-0.0197363 -0.00290788 0)
(-0.0135235 -0.02247 0)
(-0.0121323 -0.0335223 0)
(-0.0018266 0.00446152 0)
(0.00201198 0.0106926 0)
(0.00637828 0.0121812 0)
(0.00706333 0.0123413 0)
(0.00628364 0.0182962 0)
(0.00700163 0.024843 0)
(0.0104531 0.0290299 0)
(0.0142822 0.0264447 0)
(0.0157256 0.020283 0)
(0.0151604 0.0133379 0)
(0.0131917 0.00710988 0)
(0.0101303 0.00240899 0)
(0.0062414 0.000144222 0)
(0.00196871 0.000243165 0)
(-0.00187377 0.00114261 0)
(-0.0045503 0.000464698 0)
(-0.00762582 -0.00655452 0)
(-0.0127187 -0.0114177 0)
(-0.0161904 -0.00746608 0)
(-0.0142994 -0.00392258 0)
(-0.00858009 -0.0107664 0)
(-0.00620971 -0.0248186 0)
(-0.0126486 -0.0282542 0)
(-0.000392928 0.00232319 0)
(0.000651235 0.00809707 0)
(0.00201443 0.0106195 0)
(0.00176615 0.0129643 0)
(0.00148125 0.0176982 0)
(0.00293258 0.0224651 0)
(0.00622726 0.0250118 0)
(0.00978688 0.0234725 0)
(0.0118788 0.01922 0)
(0.0122431 0.0140718 0)
(0.0110657 0.00927004 0)
(0.00863445 0.00563651 0)
(0.00548292 0.0038389 0)
(0.00238035 0.00363325 0)
(5.67364e-05 0.00360954 0)
(-0.00124255 0.00205974 0)
(-0.00324679 -0.00301182 0)
(-0.00708574 -0.00702358 0)
(-0.00949381 -0.00669453 0)
(-0.00796415 -0.00754647 0)
(-0.00561378 -0.0139529 0)
(-0.00739139 -0.0208836 0)
(-0.0131948 -0.0214301 0)
(-0.000608637 0.00359425 0)
(-0.000828003 0.00777637 0)
(-0.000832127 0.0105315 0)
(-0.0013086 0.0132868 0)
(-0.00130241 0.0169542 0)
(5.87763e-05 0.0202545 0)
(0.00264503 0.0218496 0)
(0.00547064 0.0207971 0)
(0.00743059 0.0178364 0)
(0.00810051 0.0141803 0)
(0.00746033 0.0107219 0)
(0.00575413 0.00805566 0)
(0.00353218 0.00647776 0)
(0.00149724 0.00578522 0)
(0.000106338 0.00499367 0)
(-0.000734943 0.00307572 0)
(-0.00208113 -0.000632122 0)
(-0.00434542 -0.00415848 0)
(-0.00578556 -0.00623947 0)
(-0.00554648 -0.00885487 0)
(-0.00562897 -0.0130967 0)
(-0.00816219 -0.0164818 0)
(-0.0125179 -0.0169512 0)
(-0.000773597 0.0043344 0)
(-0.00158411 0.00832241 0)
(-0.00229616 0.0110368 0)
(-0.00288861 0.0135936 0)
(-0.00287612 0.0163265 0)
(-0.00187092 0.0185506 0)
(-4.26809e-05 0.0195139 0)
(0.00198297 0.0186867 0)
(0.00348807 0.0166015 0)
(0.00407628 0.014071 0)
(0.00371364 0.0116388 0)
(0.00265345 0.00963546 0)
(0.00130132 0.0081649 0)
(9.40821e-05 0.00709272 0)
(-0.000714214 0.00584569 0)
(-0.00125838 0.00382131 0)
(-0.00210898 0.000764956 0)
(-0.0034411 -0.00258584 0)
(-0.00450788 -0.00559966 0)
(-0.00506291 -0.0084493 0)
(-0.00609437 -0.0113091 0)
(-0.00850216 -0.0131607 0)
(-0.0118378 -0.0134863 0)
(-0.000938075 0.00564344 0)
(-0.00199394 0.00932457 0)
(-0.00297949 0.0118092 0)
(-0.00365517 0.013962 0)
(-0.00376679 0.0159447 0)
(-0.00315033 0.0174064 0)
(-0.00196212 0.0179295 0)
(-0.000643418 0.0172344 0)
(0.000332776 0.0157307 0)
(0.000730401 0.0139514 0)
(0.000561618 0.0121586 0)
(-6.80009e-07 0.0105214 0)
(-0.000719756 0.00910661 0)
(-0.00134675 0.007815 0)
(-0.00174917 0.00632019 0)
(-0.00202842 0.00428709 0)
(-0.00249136 0.00158592 0)
(-0.00329888 -0.00155486 0)
(-0.00425664 -0.00469473 0)
(-0.00526625 -0.00739448 0)
(-0.00668565 -0.00947818 0)
(-0.0088107 -0.0105321 0)
(-0.0113252 -0.0107395 0)
(-0.00104669 0.0071175 0)
(-0.00221535 0.0105029 0)
(-0.00331301 0.0127024 0)
(-0.00405602 0.0144253 0)
(-0.00431946 0.0158258 0)
(-0.00404438 0.01674 0)
(-0.0033641 0.0169521 0)
(-0.00258786 0.0163531 0)
(-0.00201678 0.015209 0)
(-0.00175931 0.0138405 0)
(-0.0017891 0.0123856 0)
(-0.00202418 0.0109415 0)
(-0.00233613 0.00954888 0)
(-0.00258793 0.00813447 0)
(-0.00271905 0.00651476 0)
(-0.00280218 0.00450817 0)
(-0.00301834 0.00204726 0)
(-0.00354246 -0.000773865 0)
(-0.00442033 -0.00363848 0)
(-0.00560651 -0.00606888 0)
(-0.0071289 -0.00770455 0)
(-0.0089469 -0.00844728 0)
(-0.010826 -0.00866851 0)
(-0.00112865 0.0087147 0)
(-0.00237325 0.0117751 0)
(-0.00352739 0.0136614 0)
(-0.00432443 0.0149874 0)
(-0.00472169 0.0159333 0)
(-0.00471167 0.0164447 0)
(-0.00440297 0.0164272 0)
(-0.00399419 0.015862 0)
(-0.00366406 0.0149014 0)
(-0.00347868 0.0137256 0)
(-0.00342829 0.0124315 0)
(-0.00347085 0.0110796 0)
(-0.00353956 0.00968672 0)
(-0.00356929 0.0082051 0)
(-0.00354359 0.00653419 0)
(-0.00352372 0.0045813 0)
(-0.00363504 0.00232468 0)
(-0.00401882 -0.000147543 0)
(-0.0047736 -0.00261052 0)
(-0.0059094 -0.00470531 0)
(-0.00731724 -0.00610117 0)
(-0.00880331 -0.00681091 0)
(-0.0102269 -0.00712627 0)
(-0.00120932 0.0104209 0)
(-0.00251657 0.0131168 0)
(-0.00370763 0.0146658 0)
(-0.00454825 0.0156311 0)
(-0.00504594 0.0162102 0)
(-0.00521796 0.0164102 0)
(-0.00514862 0.0162043 0)
(-0.00496435 0.015606 0)
(-0.0047752 0.0147045 0)
(-0.00462966 0.0136052 0)
(-0.00453107 0.012376 0)
(-0.00446209 0.0110559 0)
(-0.00439389 0.00965315 0)
(-0.00430381 0.00814073 0)
(-0.00420089 0.00646802 0)
(-0.0041406 0.00459575 0)
(-0.00421677 0.00253357 0)
(-0.00453481 0.000367875 0)
(-0.00517031 -0.00172546 0)
(-0.00611943 -0.00350422 0)
(-0.00727057 -0.00476856 0)
(-0.00845875 -0.00552591 0)
(-0.00957478 -0.00594112 0)
(-0.00128686 0.0122322 0)
(-0.00265073 0.0145135 0)
(-0.00386848 0.0157061 0)
(-0.00474282 0.0163347 0)
(-0.0053076 0.0165999 0)
(-0.0055922 0.0165396 0)
(-0.00566408 0.0161601 0)
(-0.00560844 0.0154846 0)
(-0.00549831 0.0145697 0)
(-0.0053729 0.0134799 0)
(-0.00524467 0.0122619 0)
(-0.00511288 0.0109427 0)
(-0.00497189 0.00952962 0)
(-0.00482277 0.00801147 0)
(-0.00468715 0.00636821 0)
(-0.00461389 0.00459208 0)
(-0.0046728 0.00270998 0)
(-0.0049363 0.000799635 0)
(-0.00545048 -0.0010078 0)
(-0.00620143 -0.00255361 0)
(-0.00710226 -0.00372032 0)
(-0.00803399 -0.00450677 0)
(-0.00891289 -0.00500639 0)
(-0.00136214 0.0141398 0)
(-0.00276919 0.0159503 0)
(-0.00400216 0.0167739 0)
(-0.00489783 0.0170775 0)
(-0.00550101 0.0170568 0)
(-0.0058478 0.0167625 0)
(-0.00599598 0.0162144 0)
(-0.00600854 0.0154367 0)
(-0.00593905 0.0144679 0)
(-0.00582186 0.0133496 0)
(-0.00567528 0.0121141 0)
(-0.00550925 0.0107819 0)
(-0.00533169 0.00936199 0)
(-0.00515596 0.00785412 0)
(-0.00500806 0.00625647 0)
(-0.00492911 0.00457836 0)
(-0.00496988 0.00285324 0)
(-0.00517773 0.00114647 0)
(-0.00557759 -0.00044715 0)
(-0.00615269 -0.00182402 0)
(-0.00684054 -0.00291218 0)
(-0.00755912 -0.00370778 0)
(-0.00824642 -0.00426611 0)
(-0.00142335 0.0161311 0)
(-0.00285925 0.0174122 0)
(-0.00409522 0.017857 0)
(-0.0049966 0.0178396 0)
(-0.00561405 0.0175473 0)
(-0.00598825 0.0170323 0)
(-0.00617187 0.0163177 0)
(-0.00621622 0.015425 0)
(-0.00616477 0.0143811 0)
(-0.00604923 0.0132141 0)
(-0.00589133 0.0119471 0)
(-0.00570736 0.010597 0)
(-0.00551253 0.00917413 0)
(-0.00532562 0.00768533 0)
(-0.0051725 0.00613878 0)
(-0.0050865 0.00455184 0)
(-0.00510391 0.00295803 0)
(-0.00525487 0.00141014 0)
(-0.00555166 -2.39588e-05 0)
(-0.00597841 -0.00127588 0)
(-0.0064912 -0.00229999 0)
(-0.00703419 -0.00309212 0)
(-0.00756239 -0.00368601 0)
(-0.00145057 0.0181797 0)
(-0.00290635 0.0188874 0)
(-0.0041338 0.0189387 0)
(-0.00502212 0.0186013 0)
(-0.00563326 0.0180461 0)
(-0.00601103 0.017319 0)
(-0.00620507 0.0164406 0)
(-0.00626021 0.0154277 0)
(-0.00621437 0.014299 0)
(-0.00609752 0.0130739 0)
(-0.00593303 0.0117697 0)
(-0.0057404 0.0104005 0)
(-0.00553818 0.0089775 0)
(-0.0053466 0.00751125 0)
(-0.0051893 0.00601471 0)
(-0.00509268 0.00450785 0)
(-0.00508245 0.00302116 0)
(-0.0051776 0.00159624 0)
(-0.00538343 0.000281796 0)
(-0.00568644 -0.000876169 0)
(-0.00605586 -0.00184789 0)
(-0.00645334 -0.00262965 0)
(-0.00684647 -0.00324255 0)
(-0.00144911 0.0202472 0)
(-0.00290339 0.0203624 0)
(-0.00410334 0.0199975 0)
(-0.00495822 0.019343 0)
(-0.00554588 0.0185339 0)
(-0.00591104 0.0176035 0)
(-0.00610061 0.016566 0)
(-0.0061551 0.0154329 0)
(-0.00610879 0.0142166 0)
(-0.00599011 0.0129304 0)
(-0.00582266 0.0115874 0)
(-0.00562703 0.0101993 0)
(-0.0054226 0.0087774 0)
(-0.00522901 0.00733354 0)
(-0.00506686 0.00588223 0)
(-0.00495682 0.00444305 0)
(-0.00491717 0.00304223 0)
(-0.00495986 0.00171216 0)
(-0.00508657 0.000488011 0)
(-0.00528643 -0.000598653 0)
(-0.00553762 -0.00152784 0)
(-0.00581338 -0.00229648 0)
(-0.00609016 -0.0029183 0)
(-0.00142235 0.022296 0)
(-0.00283752 0.0218106 0)
(-0.00398352 0.0210109 0)
(-0.004789 0.0200482 0)
(-0.00534118 0.018997 0)
(-0.00568365 0.0178737 0)
(-0.00586045 0.0166844 0)
(-0.0059087 0.0154348 0)
(-0.00585976 0.0141323 0)
(-0.00574028 0.0127856 0)
(-0.00557312 0.0114041 0)
(-0.00537852 0.00999766 0)
(-0.0051752 0.00857665 0)
(-0.00498118 0.00715274 0)
(-0.00481395 0.00574007 0)
(-0.00468967 0.00435633 0)
(-0.00462142 0.00302332 0)
(-0.00461681 0.00176605 0)
(-0.00467579 0.000610143 0)
(-0.00478974 -0.000422347 0)
(-0.00494295 -0.00131766 0)
(-0.0051163 -0.00207347 0)
(-0.00529237 -0.00269917 0)
(-0.00134722 0.0242721 0)
(-0.00268232 0.0231932 0)
(-0.00375498 0.0219645 0)
(-0.00450412 0.020707 0)
(-0.00501408 0.0194276 0)
(-0.00532801 0.0181231 0)
(-0.00548774 0.0167911 0)
(-0.0055275 0.0154314 0)
(-0.00547597 0.0140467 0)
(-0.0053577 0.0126418 0)
(-0.00519404 0.0112233 0)
(-0.00500393 0.00979884 0)
(-0.00480463 0.00837748 0)
(-0.00461206 0.00696982 0)
(-0.00444084 0.00558855 0)
(-0.00430361 0.00424888 0)
(-0.00420985 0.00296849 0)
(-0.00416448 0.00176656 0)
(-0.00416669 0.000661891 0)
(-0.00420969 -0.000329893 0)
(-0.00428191 -0.00119921 0)
(-0.00436929 -0.00194443 0)
(-0.00445864 -0.00257249 0)
(-0.00122677 0.0261066 0)
(-0.00244609 0.0244719 0)
(-0.00342705 0.0228479 0)
(-0.00410959 0.0213122 0)
(-0.00456951 0.0198197 0)
(-0.00484968 0.0183477 0)
(-0.00498946 0.0168839 0)
(-0.00501998 0.0154224 0)
(-0.00496695 0.0139612 0)
(-0.00485238 0.0125019 0)
(-0.0046955 0.0110482 0)
(-0.00451333 0.00960598 0)
(-0.00432117 0.00818248 0)
(-0.00413274 0.00678678 0)
(-0.00396005 0.00542972 0)
(-0.00381301 0.00412389 0)
(-0.00369858 0.00288333 0)
(-0.00361998 0.00172269 0)
(-0.00357611 0.00065577 0)
(-0.0035616 -0.000306285 0)
(-0.00356772 -0.00115681 0)
(-0.00358382 -0.0018949 0)
(-0.00359963 -0.00252609 0)
(-0.00108841 0.0277533 0)
(-0.00216375 0.0256181 0)
(-0.00302714 0.023642 0)
(-0.00362278 0.0218515 0)
(-0.00402013 0.0201655 0)
(-0.00425983 0.018543 0)
(-0.00437681 0.0169614 0)
(-0.00439784 0.0154083 0)
(-0.00434484 0.0138779 0)
(-0.00423667 0.0123688 0)
(-0.00408992 0.0108823 0)
(-0.0039193 0.00942247 0)
(-0.00373786 0.00799483 0)
(-0.00355708 0.00660677 0)
(-0.0033867 0.00526713 0)
(-0.00323441 0.00398607 0)
(-0.00310536 0.00277457 0)
(-0.00300168 0.00164369 0)
(-0.00292219 0.000603537 0)
(-0.00286261 -0.000337981 0)
(-0.00281618 -0.00117635 0)
(-0.0027746 -0.00191135 0)
(-0.00272961 -0.00254785 0)
(-0.000944141 0.029191 0)
(-0.0018538 0.026608 0)
(-0.00257356 0.0243208 0)
(-0.00305964 0.0223066 0)
(-0.00338014 0.0204546 0)
(-0.0035724 0.0187042 0)
(-0.00366415 0.0170219 0)
(-0.0036759 0.0153898 0)
(-0.00362475 0.013799 0)
(-0.00352582 0.0122455 0)
(-0.00339267 0.0107291 0)
(-0.00323739 0.00925206 0)
(-0.00307066 0.0078184 0)
(-0.00290176 0.00643387 0)
(-0.00273837 0.0051055 0)
(-0.00258637 0.00384127 0)
(-0.00244953 0.00264966 0)
(-0.00232923 0.00153893 0)
(-0.00222433 0.000516416 0)
(-0.00213136 -0.000412405 0)
(-0.00204498 -0.00124468 0)
(-0.00195854 -0.00198086 0)
(-0.00186523 -0.00262556 0)
(-0.000800523 0.0304079 0)
(-0.00152744 0.0274199 0)
(-0.00207875 0.0248578 0)
(-0.00243254 0.0226579 0)
(-0.00266285 0.0206767 0)
(-0.00280254 0.0188271 0)
(-0.00286812 0.0170648 0)
(-0.00287162 0.0153683 0)
(-0.0028245 0.0137268 0)
(-0.0027378 0.0121353 0)
(-0.00262179 0.0105923 0)
(-0.00248583 0.00909879 0)
(-0.00233815 0.00765753 0)
(-0.00218586 0.00627288 0)
(-0.00203475 0.00495031 0)
(-0.00188915 0.00369601 0)
(-0.00175174 0.00251645 0)
(-0.00162335 0.00141776 0)
(-0.0015029 0.00040516 0)
(-0.00138758 -0.000517726 0)
(-0.00127308 -0.00134938 0)
(-0.00115397 -0.00209093 0)
(-0.00102453 -0.00274701 0)
(-0.000664062 0.0313978 0)
(-0.00119239 0.0280339 0)
(-0.00155081 0.0252246 0)
(-0.00175023 0.0228855 0)
(-0.00188063 0.0208244 0)
(-0.00196666 0.0189104 0)
(-0.00200738 0.0170911 0)
(-0.0020046 0.0153457 0)
(-0.00196402 0.0136642 0)
(-0.00189262 0.0120416 0)
(-0.00179742 0.0104758 0)
(-0.0016849 0.00896694 0)
(-0.00156085 0.00751695 0)
(-0.00143023 0.00612906 0)
(-0.00129704 0.00480751 0)
(-0.00116424 0.00355713 0)
(-0.00103357 0.00238289 0)
(-0.000905437 0.00128931 0)
(-0.000778872 0.000280018 0)
(-0.000651581 -0.000642788 0)
(-0.000520088 -0.00147871 0)
(-0.000379905 -0.00222956 0)
(-0.000226116 -0.00290014 0)
(-0.000530302 0.0321635 0)
(-0.000840942 0.0284341 0)
(-0.000987187 0.0253946 0)
(-0.00101786 0.0229736 0)
(-0.00104748 0.020897 0)
(-0.00108412 0.0189562 0)
(-0.00110292 0.017103 0)
(-0.00109602 0.0153244 0)
(-0.00106443 0.0136139 0)
(-0.00101147 0.0119676 0)
(-0.000940839 0.0103834 0)
(-0.000856093 0.00886099 0)
(-0.000760473 0.00740163 0)
(-0.000656789 0.0060079 0)
(-0.000547327 0.00468324 0)
(-0.00043375 0.00343156 0)
(-0.000316988 0.00225678 0)
(-0.000197119 0.00116232 0)
(-7.32984e-05 0.00015065 0)
(5.62812e-05 -0.000777137 0)
(0.000194386 -0.0016216 0)
(0.000344732 -0.00238526 0)
(0.000511565 -0.00307322 0)
(-0.000319309 0.0326745 0)
(-0.000383212 0.0286068 0)
(-0.000347212 0.02538 0)
(-0.000248905 0.0229337 0)
(-0.000193149 0.0208969 0)
(-0.000180311 0.0189665 0)
(-0.000177133 0.0171016 0)
(-0.00016699 0.0153061 0)
(-0.000146619 0.0135787 0)
(-0.000115421 0.011917 0)
(-7.34717e-05 0.0103194 0)
(-2.11565e-05 0.00878564 0)
(4.09688e-05 0.00731674 0)
(0.000112278 0.00591504 0)
(0.000192184 0.00458365 0)
(0.00028024 0.00332603 0)
(0.000376242 0.00214556 0)
(0.000480363 0.00104499 0)
(0.000593269 2.60169e-05 0)
(0.000716261 -0.00091109 0)
(0.000851428 -0.00176775 0)
(0.00100179 -0.00254722 0)
(0.00117103 -0.00325505 0)
(4.70167e-05 0.0328096 0)
(0.00023594 0.0285597 0)
(0.00039411 0.0252406 0)
(0.000560381 0.0228126 0)
(0.000670551 0.0208339 0)
(0.000728041 0.0189413 0)
(0.000753837 0.0170868 0)
(0.000765569 0.0152923 0)
(0.000771152 0.0135615 0)
(0.000775981 0.0118938 0)
(0.000784146 0.0102885 0)
(0.00079871 0.00874599 0)
(0.000821893 0.00726767 0)
(0.000855252 0.00585617 0)
(0.000899843 0.00451476 0)
(0.000956354 0.00324699 0)
(0.00102523 0.00205615 0)
(0.0011068 0.000944799 0)
(0.00120147 -8.57584e-05 0)
(0.00130993 -0.00103586 0)
(0.00143355 -0.00190771 0)
(0.00157468 -0.00270541 0)
(0.00173652 -0.00343512 0)
(0.000512482 0.0323732 0)
(0.000954678 0.0283144 0)
(0.00121656 0.0250216 0)
(0.00142581 0.0226546 0)
(0.001562 0.0207318 0)
(0.00164632 0.0188856 0)
(0.00168625 0.0170625 0)
(0.00169146 0.0152879 0)
(0.00167428 0.0135679 0)
(0.0016453 0.0119038 0)
(0.00161288 0.0102966 0)
(0.00158344 0.00874779 0)
(0.00156182 0.0072601 0)
(0.00155158 0.00583697 0)
(0.00155529 0.00448238 0)
(0.00157466 0.00320042 0)
(0.00161068 0.00199483 0)
(0.00166376 0.000868407 0)
(0.00173387 -0.000177522 0)
(0.00182095 -0.00114366 0)
(0.00192549 -0.00203303 0)
(0.00204915 -0.00285076 0)
(0.00219474 -0.00360383 0)
(0.000961319 0.0313564 0)
(0.00170657 0.0278315 0)
(0.00209775 0.0247318 0)
(0.00234381 0.0224773 0)
(0.0024962 0.0206101 0)
(0.00258928 0.0188154 0)
(0.00262214 0.0170426 0)
(0.00260334 0.0153049 0)
(0.00254972 0.0136081 0)
(0.00247625 0.0119556 0)
(0.00239474 0.0103508 0)
(0.0023143 0.00879747 0)
(0.00224185 0.0072999 0)
(0.00218256 0.00586299 0)
(0.00214023 0.00449189 0)
(0.00211745 0.00319169 0)
(0.00211568 0.00196702 0)
(0.00213529 0.000821445 0)
(0.00217569 -0.000243246 0)
(0.00223577 -0.00122788 0)
(0.00231489 -0.00213638 0)
(0.00241396 -0.00297523 0)
(0.00253555 -0.00375261 0)
(0.00134162 0.0297936 0)
(0.00243573 0.0270628 0)
(0.00300666 0.0243451 0)
(0.00332097 0.0222693 0)
(0.00348753 0.0204811 0)
(0.00356149 0.0187579 0)
(0.00355624 0.0170513 0)
(0.00348958 0.0153621 0)
(0.00338228 0.0136962 0)
(0.00325191 0.0120599 0)
(0.00311229 0.0104596 0)
(0.002974 0.00890166 0)
(0.00284517 0.00739272 0)
(0.002732 0.00593935 0)
(0.00263918 0.00454809 0)
(0.00257002 0.00322539 0)
(0.00252642 0.00197719 0)
(0.0025087 0.000808391 0)
(0.00251552 -0.000278189 0)
(0.0025443 -0.00128316 0)
(0.00259288 -0.00221158 0)