/*--------------------------------*- C++ -*----------------------------------*\
  =========                 |
  \\      /  F ield         | OpenFOAM: The Open Source CFD Toolbox
   \\    /   O peration     | Website:  https://openfoam.org
    \\  /    A nd           | Version:  9
     \\/     M anipulation  |
\*---------------------------------------------------------------------------*/
FoamFile
{
    format      ascii;
    class       surfaceScalarField;
    location    "13.3";
    object      phi;
}
// * * * * * * * * * * * * * * * * * * * * * * * * * * * * * * * * * * * * * //

dimensions      [0 3 -1 0 0 0 0];

internalField   nonuniform List<scalar> 
1300
(
11.2529
1.87548
-4.37048
11.2529
-4.87538
1.87548
-4.18845
4.18845
-1.20658
1.20658
5.71233
5.54053
-2.39763
2.39763
-2.88107
2.88107
-2.86519
2.86519
-1.06194
1.06194
-1.02829
1.02829
0.698126
-0.698126
-3.34073
3.34073
-1.46882
1.46882
-2.90449
2.90449
6.12821
-6.12821
-3.35703
3.35703
-0.755815
0.755815
-4.26325
15.5161
6.98961
6.98961
-2.37927
2.37927
-1.25473
1.25473
1.41034
-1.41034
9.41239
-9.41239
-5.04191
-6.06112
1.86446
-13.713
-3.01093
-3.01093
-2.7054
2.7054
-0.829928
1.04555
3.47551
-3.47551
-0.771643
0.771643
-4.26443
0.0759785
-4.26443
3.98405
0.204401
3.98405
-1.34827
0.141693
-1.34827
4.61445
-4.61445
1.09512
0.11146
1.09512
3.9277
-3.9277
-5.71003
11.4224
5.54283
-5.32061
20.8367
-5.93225
11.4728
-3.91753
3.91753
-2.30826
-0.0893726
-2.30826
2.40968
-0.0120513
2.40968
-3.9598
3.9598
-2.66176
-0.219314
-2.66176
2.99403
-0.112951
2.99403
3.66124
-3.66124
-2.91998
0.0547924
-2.91998
2.71427
0.150918
2.71427
0.771042
1.10443
-2.64652
3.69207
-1.10443
0.0424987
1.02614
0.0357986
1.02614
-1.01454
-0.0137464
-1.01454
1.04993
-0.0216428
1.04993
0.738601
-0.0404756
0.738601
-0.757192
0.0590665
-0.757192
-8.52396
-8.91181
-3.47016
0.129424
-3.47016
-1.48456
0.0157349
-1.48456
1.50754
-0.0387201
1.50754
-2.5643
2.5643
-3.23319
0.328695
-3.23319
4.80658
1.32163
4.80658
5.04614
6.20672
16.299
-16.299
10.1708
-3.06679
-0.290245
-3.06679
-3.54194
-5.87045
3.54194
-0.184907
-0.820021
0.0642061
-0.820021
5.62646
1.36315
5.62646
2.59344
0.120836
-2.59344
0.214171
4.60699
-4.60699
1.42837
0.950892
1.42837
-1.19128
1.19128
1.12366
-0.073731
-1.12366
-0.131068
1.38601
0.0243352
1.38601
-1.40975
-0.000595293
-1.40975
7.44416
-13.5053
-7.89971
3.15222
0.188509
-3.15222
0.141296
3.56162
-0.086104
3.56162
-3.31097
3.31097
-3.61003
0.134519
-3.61003
-0.694617
-0.0770258
-0.694617
0.858722
-0.0870789
0.858722
-4.50682
0.242393
-4.50682
-3.66121
0.428026
3.66121
0.322837
1.27641
-1.27641
-1.45461
0.106341
-1.45461
-4.59165
0.0848275
4.59165
0.0228041
-4.71507
0.100622
-4.71507
-3.71188
0.10185
3.71188
0.215819
4.5891
1.03736
-4.5891
0.661398
-5.36951
11.5762
-5.88335
11.4262
-3.54744
-0.370091
-3.54744
4.0958
-0.178272
4.0958
2.57837
0.326122
-2.57837
0.270111
2.54498
-0.135303
2.54498
-3.91734
-0.0424554
-3.91734
3.75786
0.201938
3.75786
2.59291
-0.0479209
-2.59291
-0.0688548
2.98024
0.0137855
2.98024
3.66557
-0.0043339
3.66557
-3.53578
-0.125456
-3.53578
3.18133
-3.18133
3.08369
0.0976331
-3.08369
0.163712
-5.07402
5.07343
-0.00799929
-5.06602
1.01814
1.01814
0.781998
-0.0433972
0.781999
-0.862146
0.104954
-0.862146
8.36591
-16.2656
8.80706
-17.331
7.41097
-21.124
7.96376
-16.8756
3.76121
-3.76121
3.68901
0.0722041
-3.68901
0.218854
-1.46413
-0.0204213
-1.46413
-2.32597
-0.238323
-2.32597
2.89872
-0.334424
2.89872
-3.74275
3.74275
-4.12518
0.382426
4.12518
0.681406
3.04776
-0.0675175
-3.04776
-0.0190284
0.941608
0.153507
-0.941608
0.121587
4.83632
-0.229326
4.83632
-4.07157
-0.535426
-4.07157
-1.48116
0.0170203
1.48116
-0.0527821
-1.25886
0.0675757
-1.25886
-5.0745
0.0084775
-5.0387
-1.40127
-1.40127
1.30414
4.9962
-3.58286
0.047082
3.58286
-0.0212453
3.52798
0.214768
-3.52798
0.217017
-3.26508
0.0837512
3.26508
0.0458893
-0.671603
-0.0230144
-0.671603
-1.05486
1.05486
-0.935745
-0.119113
0.935745
-0.0770229
1.43408
-0.157668
1.43408
1.4871
0.0204385
-1.4871
0.0324933
-4.96155
0.246473
-4.96155
4.09619
-0.000392437
4.09619
-3.93941
-0.132159
3.93941
-0.273835
-0.003722
5.07715
-1.01442
-0.000124791
1.01442
-5.10149
5.10136
-0.676842
0.00523902
0.676842
0.105157
1.02938
0.161897
-1.02938
0.167237
3.79094
-0.033085
-3.79094
0.0297297
-2.04177
-0.284206
-2.04177
-3.22225
-0.325184
3.22225
-0.323535
-5.11511
-0.0780063
5.19312
-5.13676
1.33686
0.0491429
-1.33686
5.1505
-1.16693
-0.109485
1.16692
-0.112068
1.63636
-0.202279
1.63636
5.08193
-0.245608
-5.08193
0.120379
-4.09861
0.181264
4.09861
-0.00241288
-1.80898
-0.232784
1.80898
-0.172627
-13.1279
14.4911
7.70878
-6.41709
-7.08818
-12.2875
4.44724
7.129
14.618
-11.5483
-9.57568
-11.407
2.86054
-2.6933
-3.76181
3.72134
23.4014
-23.3008
-18.3998
19.0813
20.776
-20.5602
5.70862
5.71374
15.8582
-15.9476
-21.0025
20.6324
15.6102
-15.8295
21.9124
-21.9549
-25.5435
25.5104
-16.1121
16.1668
-20.2797
20.1542
-21.0303
20.7565
-8.27673
-9.05429
16.2061
-16.0767
20.4531
-20.7434
-19.2274
19.5561
10.0473
4.44381
11.0846
-6.24684
11.9555
-5.22594
12.9347
8.38875
-16.6655
7.87687
-14.9651
9.33905
11.1141
-9.15415
-3.13339
-17.9654
17.8793
-17.2618
17.3077
23.8361
-23.7601
-6.17272
11.8865
-5.25345
12.3824
-11.4091
-6.99074
10.0875
4.53055
8.78866
7.41744
-8.97717
-2.42984
-24.7072
24.4615
-25.6073
25.0719
0.0964927
2.428
-2.5245
1.35122
-0.858139
3.28614
2.0024
2.10735
2.4524
-2.2905
0.240899
-2.76539
-2.89646
-5.42147
5.52781
5.24975
-5.13829
16.3706
7.03082
16.3934
-16.6326
-6.66819
-16.3861
11.3646
7.71669
11.747
12.0602
8.71588
12.162
10.3595
-10.3314
-0.0280708
-11.4773
21.8368
1.55507
-18.4681
-13.9375
8.89758
6.96061
8.88553
-9.87123
-6.07633
-9.60112
-11.114
-9.88852
-11.4392
12.3642
8.26822
12.186
-15.2838
15.2814
9.4649
6.1453
9.35195
-9.08731
-6.74221
-9.15616
27.323
-6.56244
-20.7606
-13.0643
-12.4792
12.8624
9.05002
14.1428
11.3677
14.1725
8.80782
18.5152
-17.8578
5.37862
-9.95577
-6.15628
-9.79206
9.27478
6.89207
9.42569
-11.7607
-8.51903
-11.7136
-11.9751
-9.05528
11.9794
8.17483
-12.5126
-13.0947
12.6448
8.11173
7.76862
-17.3443
9.10695
-18.1612
-10.768
-5.30871
-10.5491
10.8339
6.57147
-17.4054
-5.83153
23.93
-12.8159
20.7966
-11.1664
-9.57692
-11.1855
-14.6415
-4.58595
-14.2135
-8.1158
7.83159
-8.94005
8.60562
26.9457
-16.1744
-10.7713
-12.3779
-8.18228
11.7166
-0.63191
-12.8361
12.808
-0.880593
12.0541
16.4979
15.866
-10.8822
-6.37957
-10.6652
10.2751
7.03262
10.3588
15.9083
7.92779
16.1127
-16.6039
-7.1562
-16.3615
4.93547
-5.0125
5.74447
-5.72745
15.5304
9.54147
-15.3011
-9.40604
22.9793
-10.7859
-12.1934
-5.13394
5.26519
-0.131251
-1.8478
-0.496577
0.259238
-1.94033
-1.82148
1.88126
0.22609
5.49128
3.6698
-2.41415
2.48173
2.77897
2.70524
-0.191224
2.54404
-2.5388
19.0848
-11.5448
-7.54002
13.7965
-13.7116
-2.56508
-19.1919
16.6268
2.68172
3.07115
-3.00694
-3.99871
-1.42275
-3.96622
3.01231
2.23744
3.16581
2.12968
3.39813
-8.22051
1.59846
6.62205
-6.09084
-3.53982
-13.3547
-6.3345
19.6892
16.585
7.87649
-16.7054
0.319325
5.34303
-5.38176
-1.55164
-11.8031
8.46796
-10.0196
-15.273
-6.42555
21.6986
-9.58182
-1.08339
9.36705
2.37994
-10.8754
-7.09004
10.7409
1.42116
-12.0634
23.9722
-11.9087
-18.443
8.51664
13.3201
16.2333
-17.8629
9.3177
8.5452
-4.54276
7.49954
1.38599
7.36424
-19.8358
13.7595
11.2638
8.29231
-11.5899
1.98883
-17.847
25.1115
-22.1624
-2.9491
12.8583
12.2532
13.5853
13.3604
-7.89462
21.4799
-3.51319
-18.6493
21.3602
-13.0679
15.6516
-28.7195
-29.012
10.3627
-18.0143
22.0103
-3.99599
-5.15376
-10.13
23.1681
-2.05554
-21.1126
10.1304
-13.9798
-11.8585
25.8383
-20.5422
18.6007
-6.3564
-12.2443
-12.6111
-9.3438
12.4298
2.85158
-25.6915
31.0701
-7.1763
7.98657
1.36538
8.00036
10.6433
-15.8857
5.24248
9.89897
-16.2554
6.85945
-22.7452
-12.0529
23.9465
-11.8935
-17.3616
-15.6421
-1.71956
4.79411
26.276
-16.1618
11.9465
4.2153
8.46786
1.89095
-8.5655
-1.22657
0.97759
16.1102
-17.0878
10.4033
10.5241
11.7427
4.36754
10.7658
7.11353
-10.7445
-0.96903
-14.7832
5.72791
-6.60835
-14.5544
20.2823
-16.2647
1.71027
-10.3014
-14.0009
24.3024
-16.4577
11.4298
12.5423
18.4625
-19.6157
5.61476
-9.75221
-9.86346
10.6499
-17.2583
7.48398
12.7983
15.5957
2.501
12.6819
11.2646
-19.2533
1.0921
18.682
-16.2522
3.87219
10.3003
-15.8187
0.176606
-10.3725
2.61508
-15.431
-14.7903
16.3746
-20.9606
-12.3448
13.4056
2.70708
-13.7285
-0.484979
-5.03945
-3.07635
-5.27223
-3.30979
-5.63026
-11.2044
-1.96301
-9.24139
5.86858
-6.7688
-4.6704
7.09233
1.51329
-5.03491
4.92542
-5.68663
5.48435
-0.210691
13.0187
15.6553
7.47306
-8.47592
15.949
-15.5147
23.4424
-29.5941
14.0795
15.8638
-23.02
-13.7303
2.75503
2.18044
2.66795
13.6311
-14.6043
0.973224
-13.4594
17.7805
-4.32115
-19.8684
6.40905
-6.23737
5.22285
0.521623
5.20243
1.42952
6.86576
-8.29528
-4.29794
-4.35072
-9.13766
-13.8485
22.9861
4.78638
-13.1178
8.33141
-12.116
16.9023
0.116008
-13.2338
17.0509
-10.1851
17.5725
-12
5.57254
12.7942
22.3715
-9.57729
16.2236
-6.68216
7.03088
-16.6082
-6.81758
-11.3018
18.1939
-13.0005
14.7108
-1.10604
15.8169
-13.8081
3.02224
-2.06543
8.45869
8.67286
16.8103
-12.4428
11.9913
-18.6734
-4.61692
-16.1724
-3.37408
1.04104
-13.9036
12.8626
12.1977
-11.1567
-3.29556
9.13868
-5.84312
5.78703
-2.89406
-2.89297
-1.88142
-3.13108
1.90443
0.63961
6.42664
0.500554
-3.39461
-2.03825
-1.93309
10.439
8.64586
-3.91499
3.78374
3.65575
-0.584602
0.975466
2.19035
4.67951
-3.70405
0.695008
3.98451
-2.31193
3.87168
1.47136
-3.89211
-0.0741063
-3.4286
11.8966
3.19345
-5.43089
1.72685
2.3598
-13.9046
19.7002
-11.4036
-8.29657
22.06
3.02327
-14.4269
16.1686
-13.4869
8.04774
-14.3822
-6.37912
-19.866
-12.8352
-10.7418
19.0732
-12.2443
20.1208
3.80016
-20.4402
24.2403
-12.7827
6.35719
-9.52856
10.9999
-4.11961
-5.40895
11.316
10.3826
-11.0658
-0.737241
0.250195
8.50027
-8.25008
-1.51933
-7.61017
-16.4071
17.8283
-8.25773
17.5754
7.69125
-7.63207
25.2075
6.56695
-14.199
-11.8761
-12.9594
-5.65383
10.5795
-1.83924
-7.31692
-14.0835
7.36484
-0.000601566
-19.037
22.0941
-3.05708
-12.0764
-1.68312
14.5414
-18.1495
1.89413
-11.29
10.804
12.19
12.1894
-20.8784
-0.234176
-12.6102
3.23777
-15.8479
15.491
-6.87359
17.2363
-16.1196
11.4492
-14.6063
14.2872
-1.56071
14.6536
-9.41116
6.10695
-15.4507
-12.5992
14.593
-8.44769
15.9584
-10.2143
26.1727
-17.3906
14.6343
11.5383
-2.79409
-8.39137
-14.1758
11.3817
0.458528
8.45888
17.8318
-10.7183
16.8628
8.91451
-18.6667
-8.34375
-25.8611
7.19434
-13.3187
-7.3542
14.5485
11.1083
12.9992
4.68508
-11.7726
17.708
-19.4276
-5.81446
-8.97588
14.7819
-3.40017
10.226
-19.2019
-5.20496
13.1518
-0.221121
-12.9306
3.02264
-15.3675
5.13994
-20.5074
15.8206
-16.3056
1.80599
-8.04336
-3.22892
-3.34098
-2.2096
-3.47702
-7.69979
5.49018
-1.29073
3.63469
-12.6467
12.4256
-5.13378
10.624
-4.13351
-1.13872
4.30614
1.17821
11.8022
3.04073
-16.771
-9.33469
14.7435
-5.40881
1.10427
-10.8629
3.88059
8.05082
14.0091
-24.6776
1.65765
-15.1134
-4.14777
6.32821
4.99091
17.1886
2.58432
6.6766
-0.348383
9.26092
2.31957
2.24254
-11.2747
12.2479
1.58794
15.6674
-1.88812
7.46066
3.31431
3.33004
2.05171
5.74068
2.93219
8.76292
0.467641
-3.88308
2.09475
-4.02784
-1.29986
-4.07124
-0.349904
3.77194
-4.12185
10.624
-1.97817
5.21522
-1.94403
-5.02732
6.97135
-9.48405
-5.61192
-1.62742
-5.69922
7.42607
6.19734
-5.79865
-3.6854
2.42791
-15.2631
11.9543
-12.6916
-2.30902
21.9313
-9.54093
1.29085
-3.18374
-6.31932
-7.74207
7.81618
24.1907
1.01678
12.282
18.8451
11.755
1.03674
12.0777
-16.0737
-10.6675
-16.3079
-0.8169
13.7245
5.66834
20.6077
17.2066
13.8065
-5.39545
-24.823
20.7521
-8.50421
16.431
-3.50031
-17.0071
14.531
8.91145
-17.2381
0.932449
-16.0746
-24.5789
-0.361503
12.7871
-11.4407
10.302
7.2256
2.01579
-2.47331
-0.867679
2.59242
-0.349875
8.91104
-0.177123
-8.32487
8.50199
-3.59482
2.29496
-0.481843
4.26558
6.48951
4.51133
-3.81353
-7.93538
-8.88117
-5.02342
-17.1777
2.51148
-8.70882
5.777
-3.48204
2.88402
5.01995
10.2352
-1.61537
-9.54129
7.45849
-4.57447
5.6607
)
;

boundaryField
{
    wall-4
    {
        type            calculated;
        value           uniform 0;
    }
    velocity-inlet-5
    {
        type            calculated;
        value           uniform -11.2529;
    }
    velocity-inlet-6
    {
        type            calculated;
        value           uniform -1.87548;
    }
    pressure-outlet-7
    {
        type            calculated;
        value           nonuniform List<scalar> 8(4.37048 4.87538 11.103 11.8486 17.4358 15.3439 17.173 15.3747);
    }
    wall-8
    {
        type            calculated;
        value           uniform 0;
    }
    frontAndBackPlanes
    {
        type            empty;
        value           nonuniform List<scalar> 0();
    }
}


// ************************************************************************* //
