/*--------------------------------*- C++ -*----------------------------------*\
  =========                 |
  \\      /  F ield         | OpenFOAM: The Open Source CFD Toolbox
   \\    /   O peration     | Website:  https://openfoam.org
    \\  /    A nd           | Version:  9
     \\/     M anipulation  |
\*---------------------------------------------------------------------------*/
FoamFile
{
    format      ascii;
    class       volVectorField;
    location    "27.8";
    object      U;
}
// * * * * * * * * * * * * * * * * * * * * * * * * * * * * * * * * * * * * * //

dimensions      [0 1 -1 0 0 0 0];

internalField   nonuniform List<vector> 
918
(
(2.47629 -0.138943 0)
(0.108704 0.722546 0)
(0.171727 1.05418 0)
(2.31834 0.153728 0)
(-0.0598501 1.27013 -1.22195e-19)
(-0.0924034 0.643931 -5.31403e-18)
(0.529951 0.849485 -2.95468e-19)
(0.274324 0.152874 -2.98859e-20)
(3.00615 -0.0195608 0)
(-0.00823306 0.476735 0)
(-0.0171965 0.589168 0)
(0.605215 0.00676591 0)
(0.0107054 0.439105 0)
(-0.00288247 0.421689 0)
(0.0134401 0.340823 -1.30521e-18)
(-0.0047548 0.768999 -9.20725e-20)
(0.312404 0.0742697 2.15221e-18)
(0.0797341 0.642261 -2.2307e-19)
(1.52884 0.128628 0)
(-0.0267492 0.685213 0)
(0.194593 0.157723 -1.26561e-18)
(3.08302 -0.397373 0)
(2.92445 -0.50598 0)
(1.86116 -0.1811 0)
(0.511387 0.0400858 0)
(-0.0253684 0.52155 0)
(-0.00135313 0.494038 1.86247e-18)
(-0.0226403 1.40047 0)
(0.0742513 2.88432 0)
(0.168061 1.73682 0)
(-0.0388914 3.16486 0)
(0.0270182 1.63971 9.39565e-20)
(0.0232254 0.686571 0)
(-0.147425 0.775094 -2.03094e-22)
(-0.193914 1.0291 4.42141e-18)
(-0.0415772 1.04471 0)
(0.744577 -0.0060051 0)
(0.161018 0.246327 6.65588e-19)
(0.993382 1.51283 6.53017e-19)
(0.649866 0.784265 -5.16138e-19)
(0.798498 1.5749 6.20249e-20)
(0.416742 0.851218 -3.20249e-19)
(0.552327 0.306567 2.93923e-20)
(0.29697 0.153646 0)
(0.96295 0.566535 0)
(0.532609 0.30395 1.3202e-19)
(0.257978 0.162791 -1.35472e-19)
(0.871596 -0.0554788 0)
(3.02784 -0.00170482 0)
(3.00685 0.0178656 0)
(3.20086 -0.417733 0)
(3.04288 -0.0742118 0)
(3.03116 -0.0388406 0)
(0.0186437 0.903577 -1.14649e-18)
(-0.0542403 0.973838 0)
(0.00283668 0.454895 0)
(-0.0290971 0.980837 0)
(-0.0113781 0.481048 0)
(-0.00133433 0.870553 0)
(-0.0520623 1.1103 0)
(-0.0125545 0.541504 0)
(-0.0253218 1.16159 0)
(-0.00591941 0.621396 0)
(0.790475 0.0116239 0)
(1.16942 -0.00156223 0)
(0.61825 0.0123696 0)
(1.12579 0.0175985 0)
(0.569763 0.00867913 0)
(0.225406 0.921982 1.95984e-18)
(0.0985379 1.2081 0)
(0.176302 1.06604 0)
(0.0331901 0.755774 2.19938e-23)
(0.0372233 0.498055 -2.9311e-18)
(0.0194616 0.747943 0)
(0.00595421 0.422033 0)
(-0.00069533 0.734548 4.51757e-24)
(0.000702477 0.414825 0)
(-0.0169205 0.74318 0)
(-0.0129373 0.42798 0)
(0.0494421 0.649996 0)
(0.0484444 0.45824 0)
(0.0080086 0.62196 1.23406e-18)
(0.000746397 0.344906 0)
(-0.0693598 4.69204 0)
(0.00884442 1.45874 9.14089e-20)
(-0.0105101 0.785828 -1.17688e-19)
(0.636098 0.152149 -7.5097e-19)
(0.321619 0.0656852 -7.2873e-19)
(0.644805 0.169726 -2.25473e-18)
(0.317538 0.0955728 -1.45161e-18)
(0.0785764 0.61862 0)
(0.178481 1.31331 1.84987e-19)
(0.179656 0.729988 -2.95152e-19)
(2.06031 0.260946 0)
(1.10704 0.11845 0)
(3.03313 0.103887 0)
(3.10392 0.446059 0)
(2.83919 0.377459 -1.01281e-17)
(2.5781 0.361309 7.77142e-18)
(-0.0707308 1.26253 0)
(-0.0113776 0.622881 0)
(-0.0141677 1.90019 0)
(-0.05073 1.34615 0)
(-0.0480593 0.678873 0)
(0.440329 0.295641 4.0069e-19)
(0.225471 0.163365 0)
(2.2961 -0.266393 0)
(1.32372 -0.119274 0)
(1.07633 0.0126682 0)
(1.01199 0.0187645 0)
(0.540927 0.0108506 0)
(1.01985 0.0563972 0)
(0.821224 0.0703265 0)
(0.343626 0.0286958 3.3631e-18)
(-0.0054351 0.451601 1.77356e-18)
(-0.0270315 0.784628 0)
(-0.0473184 0.847508 0)
(-0.0152741 0.460436 0)
(0.000132483 0.839725 1.81603e-18)
(7.30021e-05 0.48753 0)
(-0.0054789 0.845554 -5.59047e-18)
(-0.00488634 0.496761 1.88638e-18)
(0.0537287 3.56587 0)
(0.0420621 4.02521 0)
(-0.0163342 1.41113 -2.05249e-21)
(-0.0131647 1.36339 0)
(-0.00985348 0.741618 0)
(1.41018 0.034884 0)
(0.760548 0.0154385 0)
(0.709515 0.0142642 0)
(1.41618 -0.0328484 0)
(0.773514 -0.00873985 0)
(0.322092 0.480399 -8.35671e-19)
(0.156821 0.232741 0)
(0.324996 0.509224 9.36546e-20)
(0.163379 0.268462 0)
(1.24062 1.38663 1.66495e-19)
(0.778591 0.740737 -3.92526e-19)
(0.411486 1.42162 0)
(0.607013 1.53356 0)
(0.303458 0.814522 0)
(0.145356 0.353436 -4.42888e-19)
(0.607325 0.280727 0)
(0.313518 0.134642 3.98837e-19)
(1.42717 1.30655 0)
(1.58655 1.16841 0)
(0.874828 0.663837 4.61814e-19)
(1.7338 0.953021 0)
(1.06854 0.438744 2.32204e-20)
(1.47298 0.00813829 0)
(1.501 -0.0292392 0)
(0.801896 -0.00441627 0)
(1.95042 -0.199779 0)
(1.65082 -0.14818 0)
(1.05215 -0.0889697 0)
(3.06126 0.164853 0)
(3.03105 0.0687874 0)
(3.01022 0.0531594 0)
(0.0357454 1.60659 6.08329e-19)
(0.0178946 0.827478 0)
(0.0180231 1.69748 1.07998e-18)
(0.00306997 0.939562 -9.70936e-19)
(0.0646799 1.15179 1.87898e-19)
(0.0476957 0.988673 0)
(0.0401834 0.528437 0)
(-0.0286355 1.00479 0)
(-0.0069724 0.517154 0)
(0.0181046 1.61696 -4.43353e-21)
(-0.0181114 0.866347 0)
(-0.0539638 1.58557 -2.25821e-19)
(-0.0161837 0.821507 4.37353e-19)
(-0.00177263 1.029 0)
(0.010258 1.04319 0)
(5.46172e-05 0.53118 0)
(0.0106534 1.17008 0)
(0.00088569 0.611916 0)
(1.4683 -0.00370485 0)
(0.789213 0.00805913 0)
(1.44054 0.0331655 0)
(0.761789 -0.000557808 0)
(0.675384 0.00534436 0)
(1.26196 0.0166818 0)
(1.20239 0.047308 0)
(0.659693 0.0155558 0)
(-0.00580052 1.42077 -1.70212e-20)
(0.000184321 1.37708 0)
(0.00482012 0.732923 0)
(0.00172892 0.417221 0)
(0.284462 0.828804 0)
(0.253637 0.399761 -2.8715e-19)
(-0.00223024 0.635412 0)
(-0.00889644 0.367611 0)
(0.0102565 4.33759 0)
(-0.0502329 4.6644 0)
(-0.0196827 4.5661 0)
(-0.0727561 3.3679 2.04514e-20)
(-0.0592985 4.60334 0)
(-0.0529907 4.18032 0)
(0.00480635 0.819681 1.08007e-20)
(0.0141929 1.5635 1.65414e-19)
(-0.0359147 1.50385 1.20914e-19)
(-0.00747848 0.826439 0)
(0.66444 0.10571 1.15333e-18)
(0.32569 0.0441637 -1.13028e-18)
(0.149739 1.13378 0)
(0.100991 0.573581 -2.69279e-19)
(0.118225 1.23372 -8.74456e-19)
(0.0519063 0.687424 8.69955e-19)
(0.809202 0.0240634 0)
(1.55677 0.0476794 0)
(1.7097 0.127652 0)
(0.919845 0.0445227 0)
(0.00786455 1.18134 0)
(0.0257999 1.18948 0)
(0.00447225 0.627431 0)
(0.48213 0.315093 1.20366e-18)
(0.436863 0.309095 -1.38674e-18)
(0.234775 0.16418 0)
(1.93547 0.152993 1.15244e-19)
(1.1364 0.0932468 0)
(1.72434 0.118441 0)
(0.88372 0.0226937 0)
(0.678183 0.0857394 0)
(0.699723 0.0460603 -5.40773e-18)
(0.346732 0.0325965 1.99909e-18)
(0.00914717 0.807284 1.69373e-18)
(0.00222274 0.46251 4.08166e-20)
(-0.0108777 1.40842 -3.58013e-20)
(0.00613616 1.38675 1.3659e-18)
(-0.0149832 0.848955 6.29453e-20)
(-0.0119261 0.524486 -2.52912e-22)
(-0.107514 1.00068 -1.16491e-18)
(-0.0529602 1.3532 8.34012e-19)
(-0.0175323 1.35275 -1.3578e-18)
(1.42273 -0.0170851 0)
(1.44236 0.020318 0)
(0.76987 -0.000177917 0)
(1.45218 0.0253832 0)
(1.3632 0.0462296 0)
(0.761542 0.0203069 0)
(1.30062 -0.00215385 0)
(1.31868 -0.00584897 0)
(0.695056 -0.000986628 0)
(0.304882 0.473445 -9.15279e-19)
(0.161371 0.242698 0)
(0.157176 0.308467 1.36949e-19)
(0.309632 0.585966 1.12225e-18)
(0.307439 0.54864 -6.64379e-19)
(0.156839 0.281929 1.29829e-18)
(0.278532 0.717822 2.18176e-18)
(0.14829 0.380914 3.93673e-19)
(0.636105 0.213099 1.53752e-18)
(0.626009 0.253611 3.99335e-19)
(0.316627 0.115048 7.49299e-19)
(1.92122 0.714583 -5.99735e-19)
(1.16765 0.336086 -7.01959e-19)
(-0.0351007 1.70458 4.64211e-19)
(-0.0114063 0.925613 0)
(1.60388 0.0239499 0)
(1.5219 0.065371 0)
(0.852927 0.0268575 0)
(-0.00355883 1.38473 0)
(0.00507421 0.729574 2.49519e-18)
(0.00465033 0.731252 0)
(0.00207079 0.415097 -2.44222e-18)
(-0.0102751 1.38627 5.95671e-19)
(-0.00947266 1.4225 0)
(0.336575 0.488176 2.57973e-19)
(0.360064 0.546439 -8.63052e-19)
(0.171848 0.257835 7.8119e-19)
(-0.0256694 0.767467 -1.66267e-18)
(-0.0261514 0.689734 0)
(-0.0154342 0.412937 0)
(0.0301409 1.54929 -1.27278e-20)
(0.0313545 1.58188 -3.64903e-19)
(0.017886 0.823242 -1.55943e-20)
(0.213432 1.04432 8.90111e-19)
(0.119684 0.509123 -5.92322e-19)
(0.0119036 1.48558 7.3069e-19)
(0.0558888 1.3514 -8.15527e-19)
(0.0268471 0.76072 3.53108e-20)
(0.00751346 1.36614 -3.80766e-18)
(-0.000214923 1.39326 4.40949e-18)
(0.00377338 0.829776 1.73296e-18)
(-0.0138289 0.805094 -1.72543e-18)
(-0.00430907 0.481399 -1.7386e-18)
(-0.0106511 1.41685 -4.4999e-18)
(-0.0152178 1.40032 4.58909e-18)
(0.286403 0.67488 0)
(0.29981 0.634702 -2.28787e-18)
(0.151956 0.331755 9.9042e-19)
(0.281264 0.796085 1.18513e-18)
(0.13883 0.427576 -1.82865e-18)
(2.05695 0.322568 4.15859e-19)
(2.05149 0.547699 0)
(1.21862 0.220973 -4.01814e-19)
(-0.0739114 1.63666 -4.80203e-21)
(-0.0141118 1.692 0)
(-0.0157051 0.922699 0)
(0.227133 0.944664 -3.2281e-19)
(0.248272 0.866632 -7.06947e-19)
(0.128828 0.463342 1.32486e-18)
(3.16442 -0.442872 0)
(3.34728 -0.414685 1.81287e-18)
(0.061419 3.48373 0)
(0.0483435 2.80745 0)
(3.15925 0.249915 1.4192e-20)
(3.12355 0.506295 3.71226e-18)
(0.022569 3.43284 -2.74467e-20)
(0.00889356 2.66474 0)
(-0.0416447 1.19605 1.55505e-18)
(0.190085 1.31642 0)
(3.47249 1.62501 -3.24774e-19)
(3.17427 0.272573 -2.96098e-20)
(3.14838 -0.118697 0)
(3.10047 -0.000404109 3.73106e-22)
(0.0439924 2.58881 0)
(0.157782 3.30246 0)
(-0.0548498 2.5323 0)
(-0.0229735 3.49093 3.15789e-19)
(-0.0250007 3.5718 1.99271e-19)
(2.63344 0.0488293 -1.36491e-20)
(3.0475 0.0311502 0)
(3.15791 0.0868361 0)
(-0.0524097 4.61755 0)
(-0.0460542 3.08497 0)
(-0.0721388 2.93427 0)
(0.652457 3.10487 2.65766e-19)
(3.33884 -0.422459 0)
(3.0114 -0.34581 0)
(3.1699 -0.0530369 2.27729e-18)
(3.2927 -0.3287 -2.7421e-18)
(3.1038 -0.125777 0)
(-0.0581282 4.51548 0)
(0.0156606 3.93462 0)
(0.00733508 4.26562 0)
(-0.0269893 3.09485 0)
(-0.0133683 2.8507 0)
(-0.0306785 2.42339 0)
(2.97422 -0.0031703 0)
(2.85043 0.0486279 -1.805e-20)
(2.24669 3.04897 -3.21623e-19)
(3.15695 0.0444551 -2.27836e-18)
(3.19037 0.278179 2.76946e-18)
(3.0828 0.117338 0)
(3.3954 0.328925 2.08738e-18)
(3.35695 0.484366 -2.70666e-18)
(3.07111 0.418429 0)
(-0.0553122 3.34826 0)
(0.00508536 3.2777 8.52451e-20)
(-0.0305765 2.57678 -6.04047e-20)
(3.70786 0.555294 2.26561e-18)
(3.47096 0.208489 0)
(-0.151979 1.27126 -2.16599e-18)
(-0.0624272 0.882159 -1.35038e-19)
(-0.0848275 1.33672 2.98569e-18)
(-0.0352302 1.27045 -8.99643e-19)
(-0.000489842 1.08842 0)
(-0.0266647 1.23955 6.94876e-19)
(-0.115052 1.38786 2.14661e-18)
(-0.0590483 1.34056 -1.31417e-18)
(-0.0767375 1.32063 0)
(1.28935 0.597235 0)
(1.17732 0.68241 0)
(3.55655 2.02938 9.53618e-19)
(3.04972 1.93585 -1.19071e-18)
(3.83767 1.70653 0)
(3.38416 1.1568 0)
(3.34934 0.280495 -3.91699e-18)
(2.89884 0.17312 4.83997e-18)
(3.35145 -0.155479 0)
(2.85479 -0.076136 0)
(3.43642 0.0430259 0)
(3.5938 0.145057 0)
(3.28683 0.119874 0)
(3.55033 0.298581 0)
(3.40841 0.293059 0)
(3.32755 0.218074 0)
(0.097465 2.79016 0)
(0.0344477 2.07886 0)
(0.126712 3.05103 0)
(0.0927164 2.20513 0)
(0.215132 3.5954 0)
(0.140269 2.67531 -5.58655e-19)
(0.0535963 3.61193 0)
(0.0115212 3.01576 4.0568e-19)
(-0.0243132 3.20502 -5.17093e-19)
(-0.0589952 2.79679 0)
(-0.0227884 2.19957 0)
(-0.0718351 2.90442 0)
(-0.0554811 2.04784 0)
(-0.106477 4.75018 -2.45553e-19)
(-0.0791937 3.94284 2.77267e-19)
(-0.0742849 3.80378 3.09095e-19)
(-0.0526883 3.01832 0)
(-0.104506 3.80517 -4.58739e-19)
(-0.0371738 3.21677 -2.95093e-19)
(-0.0806697 4.78258 1.92575e-19)
(-0.093386 4.46664 -3.5046e-19)
(-0.0684916 4.3364 -3.78955e-19)
(3.03134 0.0883849 3.35875e-18)
(2.2896 0.0321819 -4.22996e-18)
(2.89133 0.132843 -3.32767e-18)
(2.20958 0.0734884 4.15646e-18)
(3.36857 0.0277249 0)
(2.64306 -0.00265141 0)
(3.45415 0.0913533 0)
(3.32024 0.0192881 0)
(2.70664 0.00922644 0)
(3.68029 0.239636 0)
(3.43882 0.0959991 0)
(2.86367 0.0565156 0)
(-0.0223869 4.33597 -1.20334e-20)
(-0.0553107 4.65371 0)
(-0.0606567 4.54961 0)
(-0.0751424 3.50609 8.77581e-20)
(-0.0375082 2.77963 -3.4666e-21)
(-0.08028 4.6701 1.1343e-19)
(-0.0944434 4.45827 -1.14627e-19)
(-0.0779508 3.95523 0)
(-0.0561185 3.87553 0)
(-0.0197647 3.9924 0)
(-0.0711785 3.25495 0)
(-0.0426355 2.29988 0)
(0.948757 3.66127 -6.08865e-19)
(0.921111 2.85288 -1.76367e-19)
(0.430356 2.05312 -2.28199e-19)
(0.252324 2.29966 6.97006e-19)
(1.02387 4.20034 2.63818e-19)
(3.43308 -0.167422 0)
(3.32213 -0.256546 0)
(2.88327 -0.189515 0)
(3.47032 -0.064346 0)
(3.34581 -0.147865 0)
(3.44893 -0.261023 0)
(3.5195 -0.283601 0)
(3.57949 -0.281129 0)
(3.22413 0.0933873 3.61904e-18)
(2.55519 0.0645182 -4.57622e-18)
(3.0965 0.106578 -3.5625e-18)
(2.5091 0.0566747 4.43274e-18)
(2.2399 3.4168 0)
(1.73957 2.94815 -4.4564e-19)
(2.56691 3.34881 -4.03224e-19)
(2.36945 2.52944 5.35925e-19)
(0.774527 1.21306 2.72228e-18)
(1.44678 0.216478 1.3432e-18)
(3.72255 0.304245 0)
(3.89312 0.572811 -1.84607e-18)
(3.29898 0.243953 -8.2343e-20)
(3.72082 0.440142 0)
(0.236623 1.31234 1.79609e-18)
(-0.0166432 1.20199 -2.87636e-18)
(0.0588142 0.769963 1.61453e-18)
(0.275947 0.464906 -7.47842e-19)
(0.187253 1.38377 8.70998e-19)
(0.0506484 1.23717 0)
(0.0577385 1.08618 -1.13229e-18)
(0.191725 1.44299 -4.09214e-18)
(0.329017 1.55698 0)
(0.0086729 1.2902 1.19587e-19)
(-0.00971774 1.45729 -1.34023e-18)
(-0.0410148 1.30282 1.94841e-18)
(-0.057444 1.41766 0)
(-0.0204763 1.38228 0)
(0.681106 1.04991 0)
(2.45686 2.45518 -1.0662e-18)
(2.64399 2.17367 3.95244e-19)
(2.79251 2.8825 0)
(3.21303 3.06759 -3.94571e-19)
(3.16593 2.41173 2.84623e-20)
(0.803686 0.589338 -1.82238e-18)
(1.55586 0.691447 -1.62187e-20)
(1.23288 0.450993 8.72147e-19)
(1.275 0.84361 5.9505e-20)
(0.938779 0.633807 -2.36948e-18)
(1.4642 0.714131 0)
(1.9898 1.09969 1.45593e-18)
(2.03194 1.01564 0)
(1.41175 0.790661 0)
(1.06192 0.549655 0)
(3.37549 2.18021 1.0085e-18)
(3.94755 0.760914 -1.8634e-18)
(3.84788 1.21609 0)
(3.5338 0.757789 0)
(1.39134 0.364756 1.33249e-18)
(3.25802 1.84223 -8.51503e-19)
(2.83435 1.6544 1.54684e-18)
(3.75527 1.37708 -1.83589e-18)
(3.09793 0.114761 2.464e-18)
(3.16856 0.180817 -2.57896e-18)
(2.66183 0.0916425 0)
(3.30731 -0.0394964 0)
(3.20141 -0.0842565 -2.36654e-18)
(2.63244 -0.0321097 2.3457e-18)
(3.9563 0.0932053 0)
(3.75968 0.145654 0)
(3.69369 0.155373 0)
(3.5883 0.204748 0)
(3.83261 0.0590316 0)
(3.72611 0.052253 0)
(-0.0400179 2.5122 0)
(-0.0376516 2.01134 0)
(0.357287 3.98868 -4.11317e-19)
(0.662887 3.33393 -1.60029e-19)
(0.259704 3.02787 -3.58037e-19)
(0.343813 2.54822 5.73498e-19)
(0.458463 4.0148 0)
(0.47039 4.67178 -5.09911e-19)
(0.383732 4.73011 0)
(0.911511 4.37557 -3.79508e-19)
(0.673541 3.81491 9.6885e-19)
(0.597724 4.6532 4.46959e-19)
(0.741026 4.20133 -1.87519e-19)
(0.602938 4.32663 1.50872e-19)
(0.916818 4.65741 -6.63784e-19)
(0.750145 4.66204 0)
(0.859017 4.58973 5.04561e-19)
(0.00746774 4.5729 -1.81149e-19)
(-0.018368 3.64802 0)
(0.101921 4.28791 5.49643e-19)
(-0.00242536 4.3909 0)
(-0.0034338 3.45955 -4.51109e-19)
(-0.0151509 2.91313 0)
(-0.0997691 4.30779 -2.89107e-19)
(-0.10534 4.68164 0)
(-0.0526403 3.80527 0)
(-0.0395561 3.72704 3.25163e-19)
(-0.0467815 3.88916 1.03842e-20)
(-0.0345341 3.71023 6.25971e-19)
(-0.041077 2.95062 4.06908e-21)
(-0.113561 4.71072 1.8017e-19)
(-0.102398 4.74221 1.03211e-19)
(-0.0166494 2.62201 0)
(0.00128535 2.13443 0)
(-0.0409821 4.78968 4.86201e-19)
(-0.0477444 4.30846 4.23805e-19)
(-0.0824327 4.58488 -5.54041e-19)
(0.0169889 4.75833 0)
(-0.0782773 4.53567 -3.09078e-19)
(-0.117507 4.16956 1.27751e-19)
(-0.0846972 4.25014 -4.1301e-20)
(-0.069844 4.72963 -2.18877e-19)
(-0.0852048 4.2713 -6.85602e-20)
(-0.0835375 4.21619 3.06711e-19)
(2.87142 0.0610235 -2.36363e-18)
(2.85888 0.0497059 2.2731e-18)
(2.3386 0.0345576 0)
(3.5101 0.192032 3.04663e-18)
(2.70368 0.126544 -3.30488e-18)
(2.2545 0.0644855 3.60971e-18)
(3.68249 0.335335 -4.01656e-19)
(3.20989 -0.048521 0)
(3.17212 -0.0135488 2.23709e-18)
(2.69091 -0.0123748 -2.21945e-18)
(3.87876 0.122247 -1.25243e-19)
(3.77176 0.10186 1.07837e-18)
(4.15977 0.173493 0)
(4.22846 0.181153 -3.75147e-19)
(4.0137 0.145238 0)
(3.6949 0.155408 0)
(4.0323 0.0950889 0)
(3.71179 0.0873341 0)
(4.18472 0.11389 7.85531e-19)
(4.1372 0.0791406 -1.74798e-18)
(4.14067 0.113892 -8.48043e-19)
(4.1864 0.116533 -9.24524e-19)
(4.2157 0.229018 1.77414e-18)
(3.85474 0.188633 0)
(4.06127 0.301921 0)
(-0.0721756 4.58102 -1.35735e-19)
(-0.0328123 4.64489 -1.1678e-20)
(-0.0655656 4.66132 0)
(-0.0549178 4.19747 1.38112e-19)
(-0.0533394 4.22493 2.25375e-20)
(-0.0581261 4.09312 -2.18444e-20)
(-0.0800636 3.52887 2.61195e-19)
(-0.143252 4.00831 -1.45196e-20)
(-0.102005 4.13567 7.47652e-20)
(-0.0740416 3.40453 -1.32315e-19)
(-0.0246754 2.92715 1.58459e-19)
(-0.075386 4.42798 5.20077e-21)
(-0.0882862 4.64247 1.72234e-19)
(1.24359 4.35933 3.47483e-19)
(1.15982 4.52847 7.26076e-19)
(1.73667 3.46606 4.30924e-19)
(1.30867 3.56019 1.69541e-19)
(1.2863 2.88922 0)
(0.548592 2.31902 2.74901e-19)
(0.463618 1.74172 3.30707e-19)
(0.345186 2.56777 1.50999e-20)
(0.49227 3.17372 -1.16131e-18)
(0.631863 3.13256 8.76551e-19)
(0.432853 2.40477 0)
(0.293653 1.97227 -5.57306e-19)
(0.259971 3.07828 1.39482e-18)
(0.273437 2.71994 -3.13888e-20)
(0.157982 2.27669 -1.74817e-18)
(0.591451 1.41113 1.46342e-18)
(0.576417 1.61696 0)
(3.58364 -0.0751498 8.64365e-20)
(3.61861 -0.254102 -7.25993e-20)
(3.72135 -0.217712 -1.2666e-18)
(3.75927 -0.126019 1.28248e-18)
(3.67616 -0.048856 0)
(2.44638 3.87133 0)
(2.61796 3.91453 0)
(2.88954 3.62539 0)
(2.73629 3.64258 0)
(0.854221 1.39445 -3.3392e-21)
(0.611518 1.03911 0)
(1.70919 3.38434 1.50218e-20)
(1.42111 3.46341 0)
(1.32665 2.95062 -1.28378e-18)
(1.40716 2.89326 8.2445e-19)
(1.79129 0.310399 0)
(1.43046 0.262019 3.52076e-19)
(2.41167 0.358827 2.19186e-18)
(1.78608 0.284835 -7.85454e-19)
(1.42633 0.112198 -2.49507e-18)
(4.26631 0.790072 -2.56558e-18)
(3.85201 0.995188 -3.67202e-20)
(3.29696 0.844624 2.06791e-18)
(3.87581 0.745452 1.81334e-18)
(3.12309 0.465682 -3.04515e-18)
(2.91025 0.452157 3.75001e-19)
(3.19253 0.68231 -8.18748e-19)
(2.97613 0.683396 0)
(3.75869 0.563979 1.53771e-18)
(4.09568 0.629386 0)
(4.0912 0.776456 0)
(4.04576 0.41591 8.23706e-19)
(4.29665 0.642569 -3.02473e-20)
(4.24944 0.715884 -4.52897e-19)
(4.17657 0.643268 0)
(3.61568 0.130413 1.71824e-18)
(4.19 0.183595 2.14428e-18)
(4.09069 0.151656 -1.67948e-18)
(4.13652 0.240871 -1.44291e-18)
(3.74574 0.238211 -2.15646e-18)
(3.30291 0.375963 0)
(3.40345 0.302405 0)
(2.55814 0.190649 -1.2661e-18)
(2.10848 0.119114 4.76784e-19)
(4.03723 0.352621 1.94042e-18)
(4.28774 0.432838 -2.34659e-18)
(4.28489 0.489467 2.06899e-18)
(4.15714 0.493523 0)
(4.25663 0.337296 0)
(4.26651 0.322392 -9.81973e-19)
(4.2143 0.316157 -1.59658e-18)
(2.22694 3.4873 6.20506e-19)
(1.93772 3.23098 -6.83392e-19)
(1.44581 2.35555 -1.03194e-18)
(1.18645 1.99636 2.66857e-19)
(0.883825 1.37822 -2.62881e-18)
(0.793708 1.21549 9.22173e-19)
(0.600802 0.903979 -1.97035e-21)
(1.11462 1.7848 -1.13791e-18)
(1.14195 1.88191 1.69868e-18)
(0.974414 1.70018 5.06097e-19)
(0.785985 1.28869 -5.12713e-19)
(0.635441 1.07444 0)
(2.44574 2.60684 -1.1544e-19)
(0.705223 1.14423 8.57268e-19)
(0.927792 0.889746 1.15623e-18)
(0.755312 0.813637 1.3378e-18)
(1.08313 0.746545 1.34121e-18)
(1.46697 1.04435 -2.27036e-18)
(1.383 1.07125 1.8395e-18)
(1.00184 0.765541 -6.7678e-19)
(0.817061 0.568028 1.4947e-18)
(1.61553 0.49076 -7.7814e-19)
(1.559 0.508337 0)
(1.23957 0.407342 4.60633e-21)
(2.50928 1.51591 7.75591e-19)
(2.07988 1.27017 -2.8087e-18)
(1.68672 1.18443 9.08911e-21)
(1.66077 1.09237 0)
(2.8622 2.59511 8.73832e-19)
(3.44681 2.75281 1.03751e-18)
(3.25585 2.93073 -1.196e-18)
(3.55423 2.76335 -4.28402e-19)
(3.48426 2.60357 -1.349e-19)
(3.51244 2.79503 1.38793e-19)
(3.6743 2.26699 -1.67948e-18)
(3.70519 2.49203 4.00763e-19)
(3.78365 2.43577 0)
(3.78442 2.19153 -5.79736e-19)
(4.04898 1.07331 5.80583e-19)
(4.27595 0.993145 1.0022e-18)
(4.30041 0.966853 1.01171e-18)
(4.05504 1.32932 -1.14967e-18)
(4.10286 1.34973 0)
(4.1525 1.23369 0)
(3.32774 1.23572 -1.56053e-20)
(2.41777 0.666495 0)
(2.7219 0.744044 9.30685e-19)
(3.23831 0.88594 -2.64554e-20)
(3.77292 1.53466 5.10764e-18)
(3.56986 1.76188 1.31118e-18)
(3.481 1.54047 -1.34071e-18)
(3.03742 1.36978 1.43748e-18)
(2.76072 1.36966 8.23794e-19)
(2.30663 1.15591 -7.97827e-19)
(3.67221 -0.0855439 1.98469e-18)
(3.8947 -0.0289335 0)
(3.85894 -0.0665499 1.34211e-18)
(3.74291 -0.0594095 -2.98784e-18)
(3.98056 0.0373761 1.46201e-18)
(3.90444 0.113426 -3.08304e-18)
(3.73986 0.128035 0)
(3.55625 0.17347 -6.28566e-19)
(3.81197 0.12298 1.60532e-18)
(3.69195 0.191384 -8.22583e-19)
(3.6003 0.171078 5.90734e-19)
(-0.0800669 2.59034 0)
(-0.0465972 3.39737 0)
(-0.0317546 2.46142 0)
(-0.0214946 1.97021 0)
(0.0466463 3.94046 6.70702e-19)
(0.140461 3.72181 -1.72966e-19)
(0.317777 4.64416 -2.29746e-19)
(0.253451 4.46089 2.42644e-19)
(-0.024386 4.29352 -4.97539e-19)
(0.0126949 4.32562 3.73616e-19)
(0.096216 3.86906 2.22655e-20)
(0.010201 3.55632 -4.67118e-19)
(-0.0120978 3.30798 -6.22661e-20)
(-0.0388175 3.67034 -5.67369e-20)
(0.153768 4.47566 -5.87015e-19)
(0.178932 4.28925 0)
(0.276266 4.63547 2.96436e-19)
(0.269431 4.7097 2.53013e-19)
(0.59639 4.44484 -2.26033e-19)
(0.408552 3.78134 0)
(0.457681 3.62898 -1.11498e-18)
(0.560478 3.99784 7.9005e-19)
(0.480676 4.56228 -6.14855e-19)
(0.371035 4.43313 3.30795e-19)
(0.300008 4.15512 0)
(-0.0338888 4.76246 -5.53214e-19)
(-0.073716 4.52828 -6.41522e-19)
(-0.0748081 4.74077 0)
(-0.0281474 4.36109 -6.25109e-21)
(-0.0180821 4.64232 2.74257e-19)
(-0.117909 3.88089 4.46984e-20)
(-0.0549468 3.48536 -6.53672e-19)
(-0.0949897 3.92366 1.74174e-19)
(-0.134652 4.51708 2.32308e-19)
(-0.0752367 4.32731 0)
(-0.0592709 3.88537 0)
(-0.0819974 2.89732 2.00803e-19)
(-0.0473508 3.63059 -6.26573e-20)
(-0.0724754 3.61809 0)
(-0.0880618 2.6863 1.58105e-19)
(-0.0462978 2.19312 -3.06338e-19)
(3.76103 0.0323461 0)
(3.7319 0.00774814 -2.03285e-19)
(4.1795 0.0679664 -1.44001e-18)
(4.0891 0.0463167 0)
(3.87634 0.0178278 0)
(4.14973 0.0370627 -1.25247e-20)
(4.1003 0.0349566 2.37903e-18)
(4.0001 0.0802186 2.8458e-18)
(3.75586 0.118675 0)
(3.55802 0.11006 0)
(4.01332 0.0939689 1.41754e-18)
(3.70325 0.116146 0)
(3.4721 0.128883 0)
(-0.0811976 4.7004 0)
(-0.107004 4.66856 1.06666e-20)
(-0.0773174 4.72037 6.30024e-20)
(-0.0607324 3.83129 0)
(-0.112457 4.53586 1.11248e-19)
(-0.0681703 4.24027 -6.33589e-20)
(-0.0541854 3.92867 0)
(1.41064 4.18595 0)
(1.20968 4.58031 -1.29815e-18)
(1.22504 4.48833 0)
(1.57425 4.48695 1.4846e-18)
(1.59335 4.12066 0)
(1.5018 4.37119 -6.06627e-19)
(1.01155 2.24276 -3.39501e-20)
(0.709229 1.64552 -1.74477e-18)
(0.59072 1.22757 2.12877e-18)
(0.708825 1.83515 3.96838e-19)
(0.97517 2.42437 0)
(1.03654 2.37943 0)
(0.718449 1.68747 0)
(0.532385 1.33024 -1.39532e-18)
(1.20913 3.77516 -9.83524e-19)
(1.129 2.9892 -2.35514e-19)
(1.32717 3.40522 1.9261e-19)
(0.599389 2.04117 0)
(0.620315 1.94286 0)
(0.462309 1.57133 -3.92751e-19)
(0.957836 2.72075 0)
(2.68731 3.57096 0)
(2.3814 3.00858 -1.45466e-18)
(2.54603 3.02694 -8.58802e-20)
(2.41991 3.40436 0)
(2.28581 3.14943 2.22124e-18)
(3.27809 3.08675 -3.8973e-19)
(3.13409 3.32488 0)
(3.11648 3.15124 6.30498e-19)
(2.87054 3.41264 0)
(2.88208 3.20075 0)
(1.20931 2.00634 -9.30485e-19)
(1.41411 2.40335 -6.9957e-19)
(1.75369 2.98181 1.20606e-18)
(1.69588 2.95984 -3.62268e-19)
(1.06246 1.82226 0)
(1.20691 2.20853 4.7114e-19)
(0.718454 1.28873 -7.15254e-19)
(0.581648 1.0435 -5.62195e-22)
(1.93749 3.69578 0)
(2.19929 3.74298 -5.42639e-19)
(2.33846 3.98625 0)
(2.28413 0.52902 0)
(1.61738 0.341914 0)
(1.20905 0.276592 0)
(2.20918 0.554271 -1.4653e-18)
(1.63532 0.402204 8.1727e-19)
(2.14564 0.129123 -9.85196e-19)
(2.62663 0.29753 0)
(2.46569 0.301647 4.135e-19)
(1.7699 0.135719 1.63304e-18)
(1.53028 0.0812684 -1.03707e-18)
(0.745571 1.55593 8.58087e-19)
(0.959824 1.82042 0)
(0.53767 1.44005 1.56095e-18)
(0.523873 1.61484 -1.4253e-18)
(0.757215 1.8145 -9.88392e-19)
(2.07349 2.46268 1.33776e-18)
(2.09686 2.71209 0)
(1.58355 1.67814 -2.76357e-19)
(2.00977 1.98948 1.74514e-18)
(1.3599 1.29262 -4.23595e-19)
(1.58871 1.31347 4.50704e-19)
(2.10966 1.51325 1.02321e-18)
(2.4428 1.67099 0)
(2.27611 1.85613 0)
(2.00999 1.60606 0)
(3.95682 2.07982 3.8453e-19)
(3.75986 1.88975 -1.2636e-18)
(3.81728 2.02806 1.04681e-18)
(3.9011 1.77145 -1.00836e-18)
(4.15788 1.67386 0)
(4.11695 1.84105 -2.97851e-19)
(2.84054 1.16334 -1.89736e-18)
(2.97089 1.16345 -2.41309e-18)
(2.33204 1.04358 1.45648e-18)
(2.13832 0.934453 -1.41988e-18)
(2.46355 0.846185 -1.17815e-18)
(2.17862 0.776963 1.44888e-18)
(4.00845 0.0334756 -1.52894e-18)
(4.05276 0.0406895 3.1303e-18)
(3.76797 -0.0658809 1.90096e-18)
(3.79119 -0.0737717 -2.28684e-18)
(3.95955 0.0105736 0)
(4.05604 0.0228781 -3.72993e-18)
(0.0970539 4.76176 1.06565e-19)
(0.0678877 4.73199 0)
(0.189998 4.73172 9.53513e-19)
(0.211544 4.7493 -8.67472e-19)
(0.231449 4.71851 4.28458e-19)
(0.122455 4.65835 0)
(-0.100982 4.7716 0)
(-0.106822 4.40356 -6.18448e-20)
(-0.10583 4.33236 5.54328e-20)
(-0.114598 4.4819 7.17578e-21)
(-0.105264 4.72202 -1.01147e-19)
(-0.0822466 4.70967 5.50889e-20)
(1.87576 4.00976 -1.64333e-18)
(1.81672 4.01632 1.74028e-18)
(1.68427 4.40641 -8.54305e-19)
(1.69314 4.27749 7.61301e-20)
(2.2528 4.08631 0)
(1.85466 4.21972 -6.356e-19)
(1.98185 3.95952 6.1644e-19)
(1.8241 4.38072 8.34498e-19)
(2.07683 4.21927 0)
(2.2283 4.10022 0)
(1.13866 3.63126 1.49512e-18)
(0.826828 2.81176 2.02346e-18)
(0.954559 2.9901 -1.3897e-18)
(0.746773 2.97186 -2.31918e-19)
(0.902772 3.73101 4.66345e-19)
(0.722416 3.36359 -1.13411e-18)
(0.745777 1.46575 -1.21483e-18)
(0.746234 1.31693 0)
(0.602564 1.1145 -1.33528e-18)
(1.11095 2.06401 0)
(1.08793 2.15096 0)
(1.35857 2.1908 -1.09061e-18)
(1.06445 2.01416 -1.03602e-18)
(1.01681 2.03504 1.09871e-18)
(1.03109 1.51915 0)
(1.41032 1.76174 -6.01234e-19)
(1.62726 2.11896 -8.55455e-19)
(1.41078 2.08255 0)
(0.867787 1.81838 7.12467e-19)
(0.779696 1.67945 0)
(2.90605 2.28885 -1.84713e-18)
(3.3189 2.47054 2.60939e-18)
(3.2776 2.19305 -2.59348e-18)
(2.61031 2.02083 -2.31187e-19)
(2.7249 1.94029 -9.7419e-19)
(1.26185 2.18971 7.96179e-19)
(1.31599 2.24455 -1.35993e-18)
(1.45404 2.32948 1.79281e-18)
(1.79027 2.55948 -1.16525e-18)
(1.88889 2.93224 -1.56724e-18)
(1.5631 2.48859 -1.18804e-19)
(1.63286 2.62814 1.37129e-18)
(1.80996 2.69297 9.66185e-20)
(2.01787 2.99869 6.50011e-19)
)
;

boundaryField
{
    wall-4
    {
        type            noSlip;
    }
    velocity-inlet-5
    {
        type            fixedValue;
        value           uniform (3 0 0);
    }
    velocity-inlet-6
    {
        type            fixedValue;
        value           uniform (0 1 0);
    }
    pressure-outlet-7
    {
        type            zeroGradient;
    }
    wall-8
    {
        type            noSlip;
    }
    frontAndBackPlanes
    {
        type            empty;
    }
}


// ************************************************************************* //
