/*--------------------------------*- C++ -*----------------------------------*\
  =========                 |
  \\      /  F ield         | OpenFOAM: The Open Source CFD Toolbox
   \\    /   O peration     | Website:  https://openfoam.org
    \\  /    A nd           | Version:  9
     \\/     M anipulation  |
\*---------------------------------------------------------------------------*/
FoamFile
{
    format      ascii;
    class       volScalarField;
    location    "120";
    object      nut;
}
// * * * * * * * * * * * * * * * * * * * * * * * * * * * * * * * * * * * * * //

dimensions      [0 2 -1 0 0 0 0];

internalField   nonuniform List<scalar> 
12225
(
4.14928e-05
3.93414e-05
3.74816e-05
3.54349e-05
3.37804e-05
3.24259e-05
3.1502e-05
3.09141e-05
3.09185e-05
3.10952e-05
3.15748e-05
3.20969e-05
3.31738e-05
3.38044e-05
3.51699e-05
3.56856e-05
3.76287e-05
3.98945e-05
0.000332273
0.00021512
0.000179305
0.000157627
0.000146251
0.000138151
0.000132681
0.000131752
0.000129392
0.000130195
0.000128915
0.000129587
0.000128523
0.000128721
0.000127943
0.000127594
0.000127507
0.000126695
0.000668813
0.000450494
0.000355861
0.000309711
0.000275384
0.000250974
0.000231787
0.000217156
0.000202642
0.000192113
0.000182555
0.000175147
0.000169307
0.000163539
0.000160225
0.000155286
0.000153693
0.000149393
0.00080163
0.000691529
0.000572736
0.000499897
0.000449518
0.000411826
0.000380885
0.000355849
0.000334078
0.000314583
0.00029842
0.000281398
0.000270305
0.000255788
0.000248057
0.000235732
0.000230119
0.000219588
0.000839613
0.000810109
0.000740853
0.00067626
0.000624059
0.00058124
0.000545967
0.000514409
0.000489585
0.000464252
0.000445881
0.000423853
0.00040984
0.000390535
0.000379612
0.000362608
0.000354276
0.000338376
0.000850345
0.000843258
0.00081957
0.000786459
0.00075087
0.000715789
0.000685822
0.000656026
0.000632579
0.000607394
0.00058897
0.000567091
0.000552153
0.000532865
0.000520503
0.000503241
0.000493133
0.000476476
0.000851582
0.000851012
0.000843301
0.000833453
0.000817158
0.000796904
0.000777899
0.000756677
0.000738903
0.000719074
0.000703491
0.000685514
0.000672006
0.000655738
0.000644082
0.000629123
0.000619419
0.000604361
0.000851584
0.000851811
0.000850043
0.000847451
0.00084141
0.000833751
0.000824812
0.000813413
0.000802806
0.000790434
0.00077968
0.000767472
0.000757343
0.000745653
0.000736389
0.000725225
0.00071719
0.000705456
0.000851675
0.000851527
0.000851019
0.000850339
0.000848877
0.000846168
0.000843027
0.000838294
0.000833396
0.000827344
0.000821192
0.000814733
0.00080838
0.000801429
0.000795197
0.000788181
0.000782353
0.000774665
0.000851755
0.000851385
0.000851045
0.000850631
0.000850247
0.000849366
0.000848404
0.000846776
0.000844951
0.000842522
0.000839911
0.00083678
0.000833769
0.000830111
0.000826924
0.000822844
0.000819839
0.000815153
0.000851785
0.000851358
0.000851012
0.000850613
0.000850329
0.000849904
0.000849525
0.000848927
0.0008483
0.000847389
0.000846459
0.000845167
0.000843978
0.000842332
0.000840974
0.000838999
0.000837605
0.000835311
0.000851788
0.000851359
0.000850996
0.000850605
0.000850291
0.000849938
0.000849645
0.000849279
0.000848953
0.000848501
0.000848095
0.000847502
0.000846991
0.000846235
0.000845632
0.000844708
0.000844045
0.00084296
0.000851786
0.000851363
0.000850985
0.000850604
0.000850269
0.000849925
0.000849629
0.000849312
0.000849041
0.000848726
0.00084846
0.000848123
0.000847841
0.000847462
0.000847153
0.000846723
0.000846385
0.000845901
0.000851783
0.000851364
0.000850978
0.000850601
0.000850256
0.000849916
0.000849607
0.000849299
0.000849021
0.000848739
0.000848487
0.000848223
0.000847988
0.000847734
0.000847509
0.000847259
0.000847037
0.000846789
0.000851781
0.000851364
0.000850972
0.000850598
0.000850246
0.000849908
0.000849591
0.000849286
0.000849
0.000848723
0.000848463
0.000848212
0.000847976
0.000847746
0.00084753
0.00084732
0.000847121
0.000846927
0.00085178
0.000851363
0.000850969
0.000850594
0.000850239
0.000849901
0.00084958
0.000849275
0.000848985
0.000848707
0.000848444
0.000848192
0.000847953
0.000847724
0.000847506
0.000847298
0.000847099
0.00084691
0.000851779
0.000851362
0.000850967
0.000850591
0.000850234
0.000849895
0.000849572
0.000849265
0.000848973
0.000848695
0.00084843
0.000848176
0.000847935
0.000847704
0.000847484
0.000847274
0.000847073
0.000846882
0.000851779
0.000851362
0.000850965
0.000850589
0.000850231
0.000849891
0.000849567
0.000849259
0.000848966
0.000848686
0.000848419
0.000848165
0.000847922
0.00084769
0.000847468
0.000847257
0.000847054
0.000846861
0.000851779
0.000851362
0.000850965
0.000850588
0.00085023
0.000849889
0.000849565
0.000849257
0.000848962
0.000848682
0.000848415
0.000848159
0.000847915
0.000847682
0.000847459
0.000847246
0.000847042
0.000846847
0.000851779
0.000851362
0.000850965
0.000850589
0.000850231
0.000849891
0.000849567
0.00084926
0.000848965
0.000848686
0.000848417
0.000848163
0.000847918
0.000847685
0.000847461
0.000847248
0.000847042
0.000846846
0.000851779
0.000851363
0.000850967
0.000850592
0.000850235
0.000849897
0.000849573
0.000849267
0.000848973
0.000848694
0.000848424
0.000848169
0.00084792
0.000847683
0.000847451
0.000847231
0.000847013
0.000846806
0.000851778
0.000851366
0.000850968
0.000850599
0.00085024
0.000849907
0.00084958
0.000849274
0.000848964
0.000848671
0.000848365
0.000848072
0.000847756
0.000847455
0.000847122
0.00084681
0.000846456
0.000846134
0.000851773
0.000851376
0.00085097
0.000850615
0.00085024
0.000849889
0.000849478
0.000849054
0.000848529
0.000847978
0.0008473
0.000846604
0.000845766
0.000844938
0.000843952
0.000843027
0.000841914
0.000840935
0.000851768
0.000851415
0.000850964
0.000850548
0.000849861
0.000848966
0.00084761
0.000845976
0.000843904
0.000841636
0.000838954
0.000836213
0.000833114
0.00083011
0.000826758
0.000823673
0.000820175
0.000817166
0.000851859
0.00085138
0.000850196
0.000848243
0.00084447
0.000839354
0.000832765
0.000825658
0.000817961
0.000810009
0.000801615
0.000793624
0.000785326
0.000777698
0.000769732
0.000762686
0.000755105
0.000748771
0.000852108
0.000847667
0.000839902
0.000827145
0.000808709
0.000789645
0.000769976
0.000751411
0.000733303
0.000716892
0.000700929
0.000686773
0.00067282
0.000660657
0.000648361
0.000637919
0.000626927
0.000617987
0.000843241
0.000822505
0.000775187
0.000726456
0.000684897
0.000649849
0.000618462
0.000592017
0.00056838
0.000548307
0.000529684
0.000513982
0.000498741
0.000486002
0.000473184
0.000462685
0.000451594
0.000442771
0.000795682
0.00066824
0.000570629
0.000509903
0.000465607
0.000431181
0.000404148
0.000382478
0.000364199
0.000349065
0.000335938
0.000325055
0.000314499
0.000306225
0.000297947
0.00029135
0.000284261
0.000278906
0.000501314
0.000348356
0.000292674
0.00025918
0.000236324
0.000221176
0.000211621
0.000203853
0.000198564
0.000195073
0.000192221
0.000190365
0.000188581
0.000187435
0.000186164
0.000185468
0.000184554
0.000184141
7.27385e-05
7.02255e-05
6.79542e-05
6.56137e-05
6.33828e-05
6.12761e-05
5.94944e-05
5.79551e-05
5.67108e-05
5.57032e-05
5.49775e-05
5.44181e-05
5.41097e-05
5.38815e-05
5.38986e-05
5.39336e-05
5.40929e-05
5.43262e-05
2.60543e-06
3.79444e-05
5.90486e-05
7.84565e-05
9.70293e-05
0.000114794
0.000131137
0.000145643
0.000157297
0.000165677
0.000169899
0.000172422
0.000176484
0.000180875
0.000187941
0.000187793
0.000178553
0.000154827
2.6783e-05
3.40721e-05
3.85565e-05
4.54198e-05
4.89027e-05
5.04408e-05
5.22096e-05
5.3922e-05
5.56218e-05
5.73058e-05
5.89638e-05
6.05988e-05
6.22026e-05
6.37782e-05
6.53213e-05
6.68341e-05
6.83157e-05
6.97674e-05
7.11907e-05
7.25868e-05
7.39595e-05
7.53077e-05
7.66351e-05
7.79411e-05
7.92298e-05
8.05e-05
8.17561e-05
8.29963e-05
8.42254e-05
8.5441e-05
8.6648e-05
8.78435e-05
8.90325e-05
9.02116e-05
9.13861e-05
9.25521e-05
9.37146e-05
9.48694e-05
9.60218e-05
9.71662e-05
9.83065e-05
9.94374e-05
0.000100564
0.000101679
0.000102789
0.000103886
0.000104977
0.000106054
0.000107123
0.000108176
0.000109218
0.000110243
0.000111253
0.000112243
0.000113213
0.000114157
0.000115077
0.000115966
0.000116826
0.000117655
0.000118477
0.000119258
0.000120014
0.000120732
0.00012142
0.000122067
0.000122682
0.000123252
0.000123789
0.000124276
0.000124723
0.000125116
0.000125446
0.000125726
0.000125951
0.000126126
0.000126249
0.000126325
0.000126357
0.000126356
0.000126307
0.000126221
0.000125806
0.000125633
0.000125354
0.000125034
0.000124666
0.000124268
0.000123839
0.000123377
0.000122886
0.000122366
0.000121827
0.000121288
0.000120751
0.00012018
0.000119622
0.00011906
0.000118502
0.000117903
0.000117372
0.000116799
0.00011627
0.000115754
0.000115338
0.000114896
0.000114456
0.000113998
0.000113551
0.000113102
0.000112564
0.000112193
0.000111755
0.00011152
0.000110994
0.000110634
0.000110251
0.000109878
0.000109498
0.00010912
0.000108743
0.000108404
0.000108012
0.000107614
0.000107219
0.000106809
0.000106387
0.000105951
0.000105497
0.000105023
0.000104526
0.000104006
0.00010346
0.000102892
0.000102303
0.000101687
0.000101026
0.000100335
9.9649e-05
9.89367e-05
9.81078e-05
9.74816e-05
9.62704e-05
9.51138e-05
9.45816e-05
9.41024e-05
9.36095e-05
9.30955e-05
9.2559e-05
9.19773e-05
9.14133e-05
9.08171e-05
9.01662e-05
8.94731e-05
8.87759e-05
8.80577e-05
8.72857e-05
8.64641e-05
8.5653e-05
8.47299e-05
8.37915e-05
8.11221e-05
6.78159e-06
6.87334e-05
0.00013656
0.000186129
0.000221
0.000246644
0.000265994
0.000280413
0.000290489
0.000296008
0.000296485
0.000294142
0.000292755
0.000295605
0.000296911
0.000293207
0.000282655
0.000264571
0.000240237
0.000254388
0.000272492
0.000290596
0.000302949
0.000313743
0.000324852
0.000336433
0.000348384
0.000360661
0.000373196
0.000385927
0.00039878
0.000411695
0.000424618
0.000437503
0.000450302
0.000462976
0.000475482
0.000487801
0.000499992
0.000512054
0.000523984
0.000535791
0.000547478
0.000559061
0.000570549
0.000581961
0.000593308
0.000604612
0.000615887
0.000627155
0.000638431
0.000649737
0.00066109
0.000672509
0.000684014
0.000695625
0.000707367
0.000719252
0.000731242
0.000743349
0.000755579
0.00076794
0.000780436
0.000793071
0.000805848
0.000818766
0.000831827
0.000845027
0.000858363
0.000871826
0.000885409
0.000899094
0.000912862
0.000926675
0.000940482
0.000954118
0.000967359
0.000979873
0.00099167
0.00100333
0.0010148
0.00102606
0.00103708
0.00104782
0.00105824
0.00106831
0.00107799
0.00108726
0.00109609
0.00110446
0.00111231
0.00111956
0.00112622
0.00113227
0.00113769
0.00114247
0.0011466
0.00115009
0.001153
0.00115529
0.00115639
0.00115741
0.00115793
0.00115774
0.00115693
0.00115563
0.00115384
0.00115158
0.00114892
0.00114589
0.00114255
0.00113896
0.00113508
0.00113095
0.00112671
0.00112235
0.00111794
0.00111343
0.00110898
0.00110468
0.00110054
0.00109649
0.00109261
0.00108816
0.00108458
0.00108025
0.00107655
0.00107309
0.00106969
0.00106664
0.00106328
0.00106078
0.00105717
0.00105469
0.00105217
0.0010498
0.00104754
0.00104537
0.00104325
0.00104113
0.00103891
0.00103676
0.00103461
0.00103244
0.00103022
0.00102792
0.00102551
0.00102295
0.00102021
0.00101729
0.00101412
0.00101074
0.00100712
0.00100325
0.000999037
0.000994435
0.00098954
0.000984446
0.000978559
0.00097283
0.000966007
0.000955333
0.000943546
0.000931164
0.000918318
0.000905092
0.000891544
0.000877613
0.000863441
0.000849103
0.000834279
0.000819334
0.000804415
0.00078936
0.000774114
0.000758712
0.000742812
0.000727166
0.000712957
0.000663101
1.21878e-05
0.000100659
0.000195432
0.000269441
0.000324356
0.000364235
0.000392785
0.000412708
0.000425746
0.00043375
0.000439074
0.000443454
0.000451557
0.000461511
0.000472593
0.000483354
0.000493009
0.000502108
0.000513489
0.000534604
0.000558958
0.000583891
0.000607178
0.00063098
0.000655481
0.000680547
0.000706079
0.000731984
0.000758178
0.00078456
0.000811012
0.000837398
0.00086368
0.000889803
0.000915715
0.000941376
0.000966759
0.000991859
0.00101668
0.00104124
0.00106552
0.00108955
0.00111334
0.00113691
0.00116029
0.00118349
0.00120654
0.00122948
0.00125233
0.00127512
0.00129788
0.00132064
0.00134343
0.00136628
0.00138921
0.00141226
0.00143543
0.00145875
0.00148223
0.00150587
0.00152969
0.00155371
0.00157793
0.00160235
0.00162697
0.0016518
0.00167683
0.00170204
0.00172742
0.00175296
0.00177861
0.00180434
0.00183009
0.0018558
0.00188136
0.00190664
0.00193149
0.00195579
0.00197962
0.00200314
0.0020263
0.00204907
0.00207135
0.0020931
0.00211424
0.00213471
0.00215442
0.00217334
0.0021914
0.00220853
0.00222464
0.00223965
0.0022535
0.00226614
0.00227755
0.0022877
0.00229657
0.00230417
0.00231051
0.00231558
0.00231919
0.00232142
0.00232259
0.00232294
0.00232204
0.00232012
0.00231721
0.00231337
0.00230869
0.00230325
0.00229715
0.00229045
0.0022832
0.0022755
0.00226746
0.00225915
0.00225065
0.00224201
0.00223334
0.00222478
0.00221632
0.00220793
0.0021996
0.00219109
0.00218308
0.00217476
0.00216694
0.00215942
0.00215208
0.00214498
0.0021379
0.00213126
0.00212419
0.00211785
0.00211161
0.00210553
0.00209955
0.00209364
0.00208773
0.00208175
0.00207566
0.00206953
0.00206328
0.00205688
0.00205027
0.00204338
0.00203617
0.00202856
0.00202051
0.002012
0.00200289
0.00199326
0.00198306
0.00197226
0.00196077
0.00194856
0.00193565
0.00192212
0.00190756
0.00189242
0.0018761
0.00185634
0.00183465
0.00181184
0.00178821
0.00176389
0.00173899
0.0017135
0.00168754
0.00166132
0.00163471
0.00160785
0.00158147
0.00155489
0.00152808
0.00150131
0.00147401
0.00144673
0.00142031
0.00135205
1.79419e-05
0.0001269
0.000243866
0.000337153
0.000408003
0.000460787
0.000499966
0.000529174
0.000551343
0.000569038
0.000584713
0.000600729
0.000617199
0.00063497
0.000655005
0.000676832
0.000699896
0.000724092
0.000750342
0.000779826
0.000811284
0.00084365
0.000877511
0.000911984
0.000946979
0.000982554
0.00101862
0.00105501
0.00109174
0.00112879
0.0011662
0.00120354
0.00124071
0.00127765
0.0013143
0.00135062
0.00138657
0.00142216
0.00145738
0.00149223
0.00152673
0.00156089
0.00159473
0.00162826
0.00166151
0.00169452
0.00172732
0.00175993
0.0017924
0.00182475
0.00185704
0.00188928
0.00192151
0.00195377
0.00198609
0.0020185
0.00205102
0.00208367
0.00211648
0.00214946
0.00218263
0.00221599
0.00224956
0.00228335
0.00231734
0.00235154
0.00238594
0.00242051
0.00245524
0.0024901
0.00252504
0.00256001
0.00259496
0.0026298
0.00266445
0.0026988
0.00273274
0.00276623
0.0027993
0.00283196
0.00286417
0.00289584
0.00292689
0.00295723
0.00298677
0.00301542
0.00304309
0.0030697
0.00309515
0.00311934
0.00314218
0.00316355
0.00318338
0.0032016
0.00321816
0.00323302
0.00324614
0.00325751
0.00326712
0.00327495
0.00328095
0.00328523
0.00328751
0.00328842
0.00328813
0.00328634
0.00328318
0.00327868
0.00327294
0.00326609
0.00325824
0.0032495
0.00323997
0.00322975
0.00321898
0.00320775
0.00319615
0.00318429
0.00317226
0.00316019
0.00314812
0.00313605
0.00312401
0.00311197
0.00310014
0.0030883
0.00307675
0.00306544
0.00305433
0.00304342
0.00303265
0.00302212
0.00301157
0.00300139
0.00299136
0.00298145
0.00297163
0.00296183
0.002952
0.00294208
0.00293202
0.00292182
0.00291142
0.00290076
0.00288978
0.00287838
0.00286651
0.00285408
0.00284103
0.00282733
0.00281288
0.00279784
0.00278203
0.00276538
0.00274783
0.00272935
0.00270993
0.00268958
0.00266811
0.00264564
0.00262177
0.00259534
0.00256696
0.0025372
0.00250643
0.00247474
0.00244224
0.00240901
0.00237515
0.00234085
0.00230614
0.0022711
0.00223618
0.00220124
0.00216703
0.00213337
0.00209972
0.00206592
0.00203272
0.00196252
2.36124e-05
0.000150002
0.000286304
0.000396763
0.000482836
0.000548651
0.000599235
0.000638796
0.000670764
0.000697956
0.000722709
0.000746919
0.000771877
0.000798334
0.000826153
0.000855473
0.000886463
0.000919456
0.000954624
0.00099189
0.00103092
0.00107138
0.00111314
0.00115591
0.00119951
0.00124383
0.00128874
0.00133416
0.00137987
0.0014257
0.00147146
0.00151709
0.00156252
0.0016077
0.00165256
0.00169704
0.0017411
0.00178475
0.00182797
0.00187079
0.00191319
0.0019552
0.00199683
0.0020381
0.00207903
0.00211965
0.00216001
0.00220012
0.00224002
0.00227976
0.00231937
0.00235889
0.00239835
0.0024378
0.00247725
0.00251675
0.00255632
0.002596
0.00263579
0.00267573
0.00271583
0.0027561
0.00279655
0.00283719
0.00287802
0.00291902
0.0029602
0.00300153
0.00304298
0.00308453
0.00312613
0.00316774
0.0032093
0.00325075
0.003292
0.003333
0.00337366
0.00341396
0.00345386
0.00349333
0.00353228
0.00357064
0.00360832
0.0036452
0.00368119
0.00371617
0.00375005
0.00378272
0.00381406
0.00384396
0.0038723
0.00389897
0.00392387
0.00394692
0.00396804
0.00398718
0.00400427
0.0040193
0.00403222
0.00404301
0.00405168
0.00405823
0.0040627
0.00406496
0.00406562
0.00406486
0.00406237
0.00405819
0.00405244
0.00404525
0.00403675
0.00402707
0.00401634
0.00400468
0.00399221
0.00397907
0.00396535
0.00395118
0.00393666
0.00392191
0.00390699
0.00389196
0.00387686
0.00386173
0.00384665
0.00383159
0.00381667
0.00380191
0.00378729
0.00377283
0.00375851
0.00374436
0.00373031
0.00371647
0.00370277
0.00368919
0.00367566
0.00366217
0.00364864
0.00363502
0.00362128
0.00360737
0.00359325
0.00357882
0.00356403
0.00354879
0.00353301
0.00351662
0.00349953
0.00348168
0.00346295
0.00344342
0.00342299
0.0034016
0.00337919
0.00335574
0.00333123
0.00330564
0.00327886
0.00325089
0.00322146
0.00319
0.00315676
0.0031221
0.00308636
0.00304983
0.0030124
0.00297412
0.00293513
0.00289559
0.00285559
0.00281526
0.00277485
0.00273443
0.00269445
0.00265535
0.00261743
0.00258067
0.00254507
0.00248028
2.89605e-05
0.000169892
0.000323016
0.000449053
0.000549501
0.000628044
0.000689982
0.00073984
0.000781322
0.000817406
0.000850452
0.000882281
0.000914202
0.000947072
0.00098135
0.00101731
0.00105511
0.00109485
0.00113655
0.00118011
0.00122537
0.00127214
0.00132023
0.00136943
0.00141955
0.00147042
0.00152187
0.00157376
0.00162591
0.00167817
0.00173039
0.00178249
0.00183437
0.00188597
0.00193723
0.00198811
0.00203857
0.00208859
0.00213814
0.00218722
0.00223582
0.00228396
0.00233164
0.00237889
0.00242572
0.00247218
0.00251828
0.00256407
0.00260959
0.00265485
0.00269992
0.00274482
0.00278958
0.00283426
0.00287888
0.00292347
0.00296807
0.00301271
0.0030574
0.00310218
0.00314707
0.00319208
0.00323722
0.00328249
0.00332792
0.00337349
0.00341919
0.00346503
0.00351096
0.00355699
0.00360306
0.00364915
0.00369522
0.00374121
0.00378708
0.00383277
0.00387825
0.00392345
0.00396831
0.00401277
0.00405675
0.00410016
0.0041429
0.00418487
0.00422596
0.00426605
0.00430502
0.00434275
0.00437913
0.004414
0.00444725
0.00447875
0.00450838
0.00453605
0.00456165
0.00458511
0.00460635
0.00462531
0.00464194
0.00465622
0.00466811
0.00467763
0.00468479
0.00468961
0.00469216
0.00469298
0.0046921
0.00468914
0.00468429
0.00467769
0.00466948
0.00465978
0.00464873
0.00463647
0.00462313
0.00460884
0.00459374
0.00457793
0.00456154
0.00454469
0.00452745
0.00450992
0.00449216
0.00447422
0.00445617
0.00443804
0.00441991
0.0044018
0.00438374
0.00436576
0.00434786
0.00433007
0.00431238
0.00429482
0.00427737
0.00426001
0.00424271
0.00422545
0.00420818
0.00419086
0.00417344
0.00415589
0.00413814
0.00412013
0.00410178
0.004083
0.00406371
0.00404382
0.00402325
0.00400194
0.0039798
0.00395679
0.00393285
0.00390793
0.00388197
0.00385495
0.00382684
0.0037976
0.00376718
0.00373551
0.00370243
0.00366767
0.00363133
0.00359364
0.00355482
0.00351516
0.00347435
0.00343266
0.00339023
0.00334722
0.00330376
0.00325999
0.00321611
0.00317229
0.00312883
0.00308613
0.00304487
0.00300605
0.00296925
0.00291206
3.38131e-05
0.000186527
0.000353988
0.000494177
0.000607801
0.000698549
0.00077148
0.000831282
0.000881806
0.00092615
0.000966755
0.00100549
0.00104374
0.00108247
0.00112231
0.00116365
0.00120671
0.00125159
0.00129829
0.00134675
0.00139684
0.0014484
0.00150127
0.00155524
0.00161014
0.00166579
0.00172201
0.00177863
0.0018355
0.00189248
0.00194942
0.00200624
0.00206283
0.00211912
0.00217504
0.00223055
0.0022856
0.00234017
0.00239423
0.00244777
0.00250077
0.00255326
0.00260524
0.00265672
0.00270773
0.0027583
0.00280844
0.00285821
0.00290762
0.00295673
0.00300556
0.00305415
0.00310254
0.00315078
0.00319889
0.00324691
0.00329488
0.00334282
0.00339076
0.00343874
0.00348678
0.00353489
0.0035831
0.00363141
0.00367985
0.00372841
0.00377709
0.0038259
0.00387483
0.00392386
0.00397297
0.00402215
0.00407135
0.00412055
0.00416972
0.00421881
0.00426778
0.00431658
0.00436514
0.00441341
0.00446131
0.00450874
0.00455562
0.00460183
0.00464726
0.00469179
0.0047353
0.00477766
0.00481872
0.00485834
0.00489637
0.00493267
0.00496711
0.00499957
0.00502991
0.00505804
0.00508385
0.00510725
0.00512818
0.00514656
0.00516238
0.00517559
0.00518621
0.00519425
0.00519978
0.00520306
0.00520439
0.00520343
0.00520027
0.00519503
0.00518784
0.00517883
0.00516815
0.00515594
0.00514233
0.00512747
0.00511148
0.00509451
0.00507667
0.00505809
0.00503887
0.00501911
0.00499889
0.00497829
0.00495738
0.00493623
0.0049149
0.00489344
0.0048719
0.00485032
0.00482872
0.00480716
0.00478563
0.00476417
0.00474279
0.00472149
0.00470025
0.00467906
0.00465791
0.00463676
0.00461558
0.00459432
0.00457295
0.00455138
0.00452956
0.0045074
0.00448483
0.00446174
0.00443807
0.00441374
0.00438866
0.00436278
0.00433603
0.00430836
0.00427973
0.00425008
0.00421938
0.00418761
0.0041547
0.00412059
0.00408519
0.00404837
0.00401014
0.00397065
0.00393005
0.00388846
0.00384587
0.00380239
0.00375818
0.0037134
0.00366818
0.00362269
0.00357711
0.00353162
0.00348652
0.00344218
0.00339923
0.00335897
0.00332189
0.0032712
3.80708e-05
0.000200059
0.000379474
0.000532351
0.000657843
0.000759978
0.000843348
0.000912637
0.000971743
0.00102383
0.00107141
0.00111642
0.00116034
0.00120421
0.00124877
0.00129452
0.00134172
0.00139054
0.001441
0.00149308
0.00154668
0.00160168
0.00165791
0.00171521
0.0017734
0.00183232
0.00189179
0.00195164
0.00201174
0.00207192
0.00213208
0.00219208
0.00225185
0.00231129
0.00237035
0.00242895
0.00248707
0.00254466
0.00260171
0.00265819
0.0027141
0.00276944
0.00282422
0.00287845
0.00293216
0.00298537
0.00303809
0.00309038
0.00314225
0.00319376
0.00324492
0.00329579
0.00334639
0.00339677
0.00344697
0.00349703
0.00354697
0.00359684
0.00364666
0.00369648
0.00374631
0.00379618
0.00384613
0.00389617
0.00394631
0.00399659
0.00404699
0.00409755
0.00414825
0.00419911
0.00425011
0.00430124
0.00435251
0.00440387
0.00445533
0.00450684
0.00455837
0.00460989
0.00466133
0.00471265
0.00476377
0.00481462
0.00486509
0.00491509
0.0049645
0.00501321
0.00506107
0.00510794
0.00515368
0.00519812
0.0052411
0.00528246
0.00532204
0.00535968
0.00539524
0.00542857
0.00545954
0.00548803
0.00551393
0.00553715
0.00555763
0.00557531
0.00559017
0.00560221
0.00561146
0.00561819
0.00562232
0.00562414
0.00562337
0.00562018
0.00561467
0.00560698
0.00559725
0.00558562
0.00557224
0.00555725
0.0055408
0.00552302
0.00550405
0.00548402
0.00546304
0.00544123
0.0054187
0.00539553
0.00537181
0.00534764
0.00532307
0.0052982
0.00527307
0.00524776
0.00522232
0.00519679
0.00517123
0.00514567
0.00512014
0.00509467
0.00506926
0.00504394
0.0050187
0.00499352
0.0049684
0.00494331
0.0049182
0.00489303
0.00486773
0.00484224
0.00481648
0.00479036
0.00476381
0.00473674
0.00470908
0.00468076
0.00465171
0.00462188
0.00459121
0.00455965
0.00452716
0.0044937
0.00445922
0.00442367
0.00438696
0.00434904
0.00430991
0.00426962
0.00422829
0.00418597
0.00414272
0.00409863
0.00405382
0.00400848
0.00396276
0.00391681
0.00387082
0.003825
0.00377962
0.00373508
0.003692
0.00365149
0.00361489
0.00356962
4.16893e-05
0.00021073
0.000399839
0.000563651
0.000699756
0.000812298
0.000905376
0.00098357
0.00105075
0.00111008
0.00116411
0.00121485
0.00126381
0.00131215
0.00136068
0.00140997
0.00146037
0.00151209
0.00156522
0.00161977
0.00167567
0.00173285
0.00179117
0.00185049
0.00191066
0.00197151
0.00203288
0.00209462
0.00215659
0.00221865
0.00228065
0.00234249
0.00240405
0.00246526
0.00252604
0.00258635
0.00264613
0.00270536
0.002764
0.00282203
0.00287946
0.00293629
0.0029925
0.00304813
0.00310319
0.0031577
0.00321169
0.00326519
0.00331823
0.00337085
0.00342308
0.00347497
0.00352655
0.00357786
0.00362894
0.00367983
0.00373057
0.00378121
0.00383176
0.00388228
0.0039328
0.00398334
0.00403395
0.00408466
0.00413548
0.00418645
0.00423759
0.00428893
0.00434047
0.00439225
0.00444426
0.00449651
0.00454902
0.00460177
0.00465477
0.004708
0.00476144
0.00481507
0.00486884
0.00492272
0.00497664
0.00503053
0.00508431
0.00513789
0.00519114
0.00524395
0.00529617
0.00534766
0.00539825
0.00544777
0.00549603
0.00554285
0.00558803
0.0056314
0.00567275
0.00571193
0.00574874
0.00578304
0.00581467
0.00584352
0.00586946
0.00589242
0.00591233
0.00592917
0.00594294
0.00595389
0.00596182
0.00596701
0.00596931
0.00596885
0.00596567
0.00595989
0.00595167
0.00594114
0.00592846
0.00591379
0.00589726
0.00587903
0.00585923
0.00583802
0.00581551
0.00579184
0.00576713
0.00574149
0.00571503
0.00568784
0.00566004
0.0056317
0.00560291
0.00557377
0.00554434
0.0055147
0.00548491
0.00545505
0.00542516
0.0053953
0.00536551
0.00533583
0.00530627
0.00527687
0.00524761
0.0052185
0.00518952
0.00516062
0.00513177
0.00510291
0.00507397
0.00504488
0.00501557
0.00498596
0.00495597
0.00492552
0.00489455
0.00486299
0.00483079
0.00479789
0.00476424
0.00472978
0.00469446
0.00465824
0.00462104
0.00458283
0.00454359
0.00450334
0.00446214
0.00442003
0.00437704
0.00433326
0.00428883
0.00424392
0.0041987
0.00415332
0.00410797
0.00406287
0.00401831
0.00397469
0.00393263
0.00389319
0.00385785
0.00381742
4.46611e-05
0.000218813
0.000415491
0.000588436
0.000733801
0.000855617
0.000957507
0.00104387
0.00111848
0.00118448
0.00124441
0.0013003
0.00135373
0.00140589
0.00145768
0.00150973
0.00156246
0.00161614
0.00167094
0.0017269
0.00178399
0.00184213
0.00190135
0.00196151
0.00202245
0.002084
0.00214602
0.00220839
0.00227099
0.00233374
0.00239638
0.00245879
0.00252088
0.00258256
0.00264377
0.00270446
0.00276459
0.00282412
0.00288303
0.00294131
0.00299895
0.00305595
0.00311232
0.00316807
0.00322322
0.00327779
0.00333182
0.00338532
0.00343834
0.00349091
0.00354307
0.00359485
0.0036463
0.00369746
0.00374837
0.00379907
0.0038496
0.0039
0.00395032
0.0040006
0.00405088
0.0041012
0.0041516
0.00420211
0.00425278
0.00430364
0.00435474
0.00440609
0.00445775
0.00450973
0.00456207
0.00461479
0.00466792
0.00472147
0.00477545
0.00482988
0.00488475
0.00494004
0.00499576
0.00505185
0.00510829
0.005165
0.00522193
0.00527898
0.00533604
0.00539299
0.00544969
0.00550598
0.00556169
0.00561662
0.00567056
0.0057233
0.00577463
0.0058243
0.00587211
0.00591783
0.00596123
0.00600212
0.00604029
0.00607558
0.00610784
0.00613693
0.00616275
0.00618525
0.00620438
0.00622027
0.00623285
0.0062422
0.00624837
0.00625139
0.00625122
0.006248
0.00624188
0.00623302
0.00622156
0.00620768
0.00619151
0.00617322
0.00615296
0.00613088
0.00610713
0.00608184
0.00605516
0.00602722
0.00599813
0.00596803
0.00593704
0.00590526
0.00587281
0.00583979
0.0058063
0.00577245
0.00573833
0.00570402
0.00566962
0.0056352
0.00560084
0.0055666
0.00553254
0.00549871
0.00546513
0.00543182
0.00539879
0.00536604
0.00533353
0.00530123
0.00526909
0.00523705
0.00520505
0.00517301
0.00514085
0.0051085
0.00507589
0.00504295
0.00500962
0.00497583
0.00494153
0.00490663
0.00487108
0.00483481
0.00479779
0.00475996
0.0047213
0.0046818
0.00464146
0.00460032
0.00455839
0.00451571
0.00447246
0.00442882
0.00438494
0.00434099
0.00429716
0.00425366
0.00421081
0.004169
0.0041289
0.00409153
0.00405833
0.00402233
4.7004e-05
0.000224586
0.000426862
0.000607142
0.000760327
0.00089015
0.000999793
0.00109342
0.00117469
0.00124665
0.00131182
0.00137222
0.00142946
0.00148477
0.00153909
0.00159311
0.00164732
0.00170203
0.00175757
0.00181401
0.0018713
0.00192933
0.00198838
0.00204825
0.0021088
0.00216989
0.0022314
0.0022932
0.00235521
0.00241736
0.00247929
0.00254113
0.00260256
0.00266349
0.00272387
0.00278367
0.00284285
0.0029014
0.00295929
0.00301652
0.00307309
0.003129
0.00318427
0.00323891
0.00329294
0.00334639
0.00339929
0.00345167
0.00350356
0.00355501
0.00360605
0.00365672
0.00370706
0.00375712
0.00380693
0.00385654
0.003906
0.00395535
0.00400463
0.0040539
0.00410319
0.00415255
0.00420203
0.00425168
0.00430155
0.00435168
0.00440211
0.00445291
0.00450411
0.00455576
0.00460791
0.0046606
0.00471387
0.00476776
0.00482231
0.00487753
0.00493345
0.00499009
0.00504744
0.00510549
0.00516422
0.0052236
0.00528356
0.00534402
0.0054049
0.00546607
0.00552738
0.00558868
0.00564978
0.00571046
0.0057705
0.00582965
0.00588766
0.00594427
0.00599919
0.00605217
0.00610294
0.00615122
0.00619678
0.00623939
0.00627884
0.00631495
0.00634758
0.00637662
0.006402
0.00642372
0.00644175
0.00645617
0.00646706
0.00647443
0.00647801
0.00647804
0.00647469
0.00646811
0.00645848
0.00644594
0.00643066
0.00641279
0.00639252
0.00636998
0.00634535
0.00631878
0.00629042
0.00626043
0.00622895
0.00619613
0.00616211
0.00612701
0.00609098
0.00605415
0.00601664
0.00597858
0.00594009
0.0059013
0.00586231
0.00582324
0.00578419
0.00574527
0.00570657
0.00566815
0.00563009
0.00559245
0.00555525
0.00551851
0.00548224
0.00544643
0.00541105
0.00537605
0.00534138
0.00530699
0.00527279
0.00523871
0.00520468
0.00517062
0.00513647
0.00510216
0.00506762
0.00503274
0.00499745
0.00496168
0.00492537
0.00488848
0.00485098
0.00481284
0.00477401
0.0047345
0.0046943
0.00465339
0.00461201
0.00457035
0.00452856
0.00448679
0.00444521
0.00440408
0.00436369
0.00432447
0.00428712
0.00425267
0.0042223
0.00419045
4.87492e-05
0.000228313
0.000434369
0.000620203
0.000779691
0.000916129
0.00103231
0.00113215
0.0012191
0.00129615
0.00136573
0.00142987
0.00149014
0.00154781
0.00160384
0.00165894
0.00171375
0.00176858
0.00182391
0.00187985
0.00193648
0.00199385
0.00205192
0.00211057
0.00216968
0.00222916
0.00228887
0.0023487
0.00240854
0.00246833
0.0025283
0.00258837
0.0026479
0.00270685
0.00276514
0.00282276
0.00287972
0.00293599
0.00299157
0.00304646
0.00310068
0.00315426
0.00320721
0.00325954
0.00331129
0.00336249
0.00341317
0.00346337
0.00351313
0.00356248
0.00361147
0.00366014
0.00370853
0.00375668
0.00380463
0.00385243
0.00390013
0.00394776
0.00399538
0.00404304
0.00409079
0.00413866
0.00418673
0.00423504
0.00428364
0.0043326
0.00438196
0.00443179
0.00448215
0.00453309
0.00458469
0.00463699
0.00469007
0.00474397
0.00479875
0.00485447
0.00491116
0.00496887
0.00502761
0.0050874
0.00514825
0.00521014