/*--------------------------------*- C++ -*----------------------------------*\
  =========                 |
  \\      /  F ield         | OpenFOAM: The Open Source CFD Toolbox
   \\    /   O peration     | Website:  https://openfoam.org
    \\  /    A nd           | Version:  9
     \\/     M anipulation  |
\*---------------------------------------------------------------------------*/
FoamFile
{
    format      ascii;
    class       volScalarField;
    location    "6.44";
    object      epsilon;
}
// * * * * * * * * * * * * * * * * * * * * * * * * * * * * * * * * * * * * * //

dimensions      [0 2 -3 0 0 0 0];

internalField   nonuniform List<scalar> 
2268
(
0.000227793
0.00118863
0.00209327
0.00291013
0.00364428
0.00430564
0.00490546
0.00545217
0.00594987
0.00640465
0.00682735
0.00723071
0.0076143
0.00794315
0.00812492
0.00797777
0.0072472
0.00615421
0.00502992
0.00415564
0.00342385
0.00239328
0.000732189
0.000462272
0.000806831
0.00119353
0.00155281
0.00187682
0.00216682
0.00242594
0.00265765
0.00286536
0.00305327
0.00322582
0.0033843
0.00352588
0.0036381
0.00369294
0.00364189
0.0034385
0.00316288
0.00280222
0.00242026
0.0020036
0.00157251
0.00117681
0.000783202
0.00085088
0.00110659
0.00136223
0.00159735
0.00180868
0.00199699
0.00216439
0.00231364
0.00244798
0.00257028
0.00268073
0.00277659
0.00284979
0.00288447
0.00285711
0.00275328
0.00260744
0.00240408
0.00217234
0.00193578
0.00176136
0.00194167
0.00109891
0.000949871
0.00113062
0.00133415
0.00152711
0.00170239
0.00185912
0.0019986
0.00212302
0.00223498
0.0023366
0.00242792
0.00250655
0.00256647
0.00259719
0.00258534
0.00252608
0.00243667
0.00231018
0.00217191
0.00206661
0.00209413
0.00281209
0.00140231
0.0010665
0.00119158
0.00135991
0.00152564
0.00167829
0.00181568
0.00193845
0.00204839
0.00214762
0.00223785
0.00231914
0.00238948
0.00244427
0.00247634
0.00247778
0.00244745
0.00239549
0.00232289
0.00225782
0.00226356
0.00249837
0.00391556
0.00169625
0.00119134
0.00127066
0.00141187
0.00155712
0.00169298
0.00181624
0.00192706
0.0020269
0.00211752
0.0022004
0.00227566
0.00234173
0.00239511
0.00243094
0.00244468
0.00243703
0.00241569
0.00238659
0.00238265
0.00248972
0.00296807
0.00544918
0.00198534
0.00132155
0.00136117
0.00147992
0.00160823
0.00173018
0.0018418
0.00194294
0.00203479
0.00211885
0.00219644
0.0022678
0.00233175
0.0023857
0.00242649
0.00245181
0.00246352
0.00246896
0.00247669
0.00252281
0.0027172
0.00347604
0.00774991
0.00227966
0.00145758
0.0014609
0.00156002
0.00167324
0.00178259
0.00188366
0.00197614
0.00206102
0.00213957
0.002213
0.00228167
0.00234474
0.00240039
0.00244662
0.00248264
0.00251112
0.00253949
0.00257775
0.00266071
0.00291077
0.00391079
0.0126973
0.000730481
0.00316964
0.00498318
0.00595766
0.00648407
0.00671436
0.00690613
0.00710341
0.00712995
0.00647294
0.00524924
0.00404053
0.00294799
0.00281893
0.00369194
0.00365514
0.00235084
0.00132701
0.0004382
0.000805244
0.00176869
0.00240815
0.00277369
0.00298909
0.0031091
0.003189
0.0032422
0.00321852
0.00302166
0.00274697
0.00236974
0.00198565
0.00182211
0.00181531
0.00168873
0.00125341
0.000841315
0.0005184
0.00128696
0.00173645
0.00207005
0.00226358
0.00238324
0.0024567
0.00250521
0.00252923
0.0024958
0.002369
0.00221825
0.00200623
0.00176734
0.0016149
0.00151699
0.0013894
0.00110633
0.000814269
0.000662331
0.00195766
0.00196276
0.0020725
0.00214627
0.00220029
0.00223835
0.00226499
0.00227291
0.00223353
0.0021277
0.00201141
0.00185804
0.00167961
0.00154732
0.00144099
0.00131997
0.00109407
0.000847876
0.000791954
0.00282011
0.00231934
0.00219254
0.00215514
0.00215237
0.00215924
0.0021667
0.00216176
0.00211731
0.00202025
0.00191608
0.00179065
0.00164745
0.00153479
0.00143439
0.00132196
0.00112758
0.000910593
0.000940565
0.00403924
0.00276078
0.00236018
0.0022167
0.00216339
0.00214213
0.00213176
0.00211499
0.00206568
0.00197381
0.00187681
0.00176866
0.00165032
0.00155592
0.00145831
0.00135256
0.00117812
0.000990669
0.00111425
0.00605007
0.00324405
0.00253483
0.0022992
0.0022032
0.00215714
0.00213012
0.00210204
0.00204827
0.00196041
0.00187279
0.00177913
0.00168099
0.001599
0.00149768
0.00139408
0.00123183
0.00107842
0.00132258
0.0101556
0.00364364
0.00268278
0.00238516
0.00225693
0.00218995
0.00214767
0.00210885
0.00205129
0.00196799
0.00189272
0.00181508
0.00173253
0.00165108
0.0015448
0.00143869
0.00128501
0.00116969
0.00159782
0.00273183
0.00167187
0.00162616
0.00169923
0.00179106
0.0018817
0.00196685
0.00204636
0.00212108
0.00219195
0.00225994
0.00232553
0.00238835
0.0024475
0.0025023
0.00255329
0.00260383
0.00266143
0.00273567
0.00285235
0.00310309
0.00377163
0.0058715
0.00334837
0.00198378
0.00189248
0.00193777
0.00199927
0.00206033
0.00211962
0.00217887
0.0022386
0.00229903
0.00236028
0.00242259
0.00248604
0.00255029
0.00261489
0.00268005
0.00274814
0.00282381
0.00291265
0.00302891
0.00321726
0.00357748
0.00428063
0.00399775
0.00235813
0.00224504
0.00226343
0.002282
0.00229652
0.00231478
0.00234462
0.00238386
0.00243069
0.00248311
0.0025405
0.00260297
0.00267062
0.00274294
0.00281824
0.00289609
0.00297767
0.00306566
0.00316915
0.00330169
0.00349219
0.00375917
0.00479134
0.00282728
0.0027551
0.00272917
0.00267526
0.00261306
0.0025653
0.00255416
0.00256433
0.00259149
0.00262982
0.00267791
0.00273583
0.00280414
0.00288319
0.00296725
0.00305083
0.00313046
0.00321347
0.00331143
0.00340796
0.00351033
0.00362432
0.00569583
0.00327855
0.00335741
0.00297838
0.00283254
0.00275474
0.00270091
0.00269241
0.00270648
0.00273617
0.00277459
0.00282456
0.002885
0.00295815
0.00304819
0.00314617
0.00323811
0.00330037
0.00337241
0.00346126
0.00350301
0.00355014
0.00358995
0.00642096
0.00346332
0.00315801
0.00295631
0.00290097
0.00287295
0.00275953
0.0027296
0.00274833
0.0027942
0.00285525
0.00292639
0.00300306
0.00309315
0.00318906
0.00326848
0.00332746
0.00335673
0.00338335
0.00344004
0.00347988
0.00351643
0.00354774
0.00697975
0.00346417
0.00312526
0.00294162
0.00287765
0.00283911
0.00278118
0.00276523
0.00278229
0.00282537
0.00288672
0.00295669
0.00303041
0.00310738
0.00317994
0.00323807
0.00327619
0.00330298
0.00333627
0.00337861
0.00341048
0.00344369
0.00345733
0.00747013
0.00324933
0.00290042
0.00279152
0.00276369
0.00275137
0.00275462
0.0027744
0.00280973
0.00285719
0.00291529
0.00297831
0.00303717
0.00309071
0.00314441
0.00319575
0.00323818
0.00327134
0.00330349
0.00333635
0.0033614
0.0033818
0.00338849
0.00747702
0.00306257
0.00274208
0.00267408
0.00266811
0.0026819
0.00271424
0.00275861
0.00281083
0.00286855
0.00293024
0.0029912
0.00304382
0.00308719
0.00312829
0.0031714
0.00321343
0.00324848
0.00327781
0.00330395
0.00332568
0.00334026
0.00333895
0.00176694
0.0029893
0.00266791
0.00260142
0.00260459
0.00263375
0.00268004
0.00273584
0.00279673
0.00286054
0.0029248
0.00298463
0.00303497
0.00307674
0.00311636
0.00315834
0.00319828
0.00323161
0.00325915
0.00328266
0.00329944
0.0033062
0.00330038
0.00176933
0.00298239
0.00264542
0.00256818
0.00257072
0.00260505
0.00265612
0.00271558
0.00277925
0.00284476
0.00290917
0.00296824
0.0030194
0.00306438
0.00310736
0.00315026
0.00318935
0.00322225
0.00324949
0.00327087
0.00328336
0.0032858
0.00327905
0.00176899
0.00302488
0.0026525
0.00256114
0.00255837
0.00259177
0.0026427
0.00270214
0.00276574
0.00283073
0.00289421
0.00295321
0.00300669
0.00305583
0.00310257
0.00314709
0.00318689
0.00322063
0.00324834
0.00326903
0.00328058
0.00328303
0.00327795
0.00747827
0.00310481
0.00267552
0.00257
0.00255997
0.00258954
0.00263815
0.00269615
0.0027586
0.00282242
0.00288508
0.00294468
0.00300067
0.00305342
0.00310339
0.00315005
0.0031918
0.00322759
0.00325698
0.00327901
0.00329247
0.00329777
0.00329622
0.00748111
0.00315892
0.00270681
0.00258825
0.00257036
0.00259504
0.00264055
0.00269664
0.00275779
0.00282074
0.00288329
0.0029441
0.00300255
0.00305843
0.00311146
0.0031609
0.0032056
0.0032446
0.00327716
0.00330245
0.00331984
0.00332979
0.00333318
0.0074704
0.00322173
0.00274284
0.00261205
0.00258645
0.00260612
0.00264844
0.00270267
0.00276288
0.00282569
0.00288906
0.00295173
0.00301291
0.00307205
0.00312855
0.0031816
0.00323023
0.00327356
0.00331072
0.00334096
0.00336393
0.00337993
0.00338951
0.0074763
0.00327913
0.00278127
0.00263914
0.00260636
0.00262143
0.00266097
0.00271378
0.00277375
0.00283735
0.00290249
0.00296782
0.0030324
0.00309548
0.00315631
0.00321406
0.00326781
0.0033167
0.00335988
0.00339666
0.00342671
0.00345011
0.00346712
0.00748161
0.0033328
0.00282095
0.00266823
0.00262901
0.00264023
0.00267773
0.00272994
0.00279058
0.00285598
0.00292391
0.0029929
0.00306189
0.00313
0.00319638
0.00326018
0.0033205
0.00337646
0.00342724
0.00347215
0.00351077
0.00354298
0.00356872
0.00176777
0.00338272
0.00286122
0.00269853
0.00265379
0.00266213
0.0026986
0.00275127
0.00281366
0.00288199
0.0029539
0.00302779
0.00310249
0.00317703
0.0032505
0.00332199
0.00339059
0.0034554
0.00351557
0.00357035
0.00361921
0.00366177
0.0036977
0.00748583
0.00345224
0.00290179
0.00272965
0.0026804
0.00268702
0.00272366
0.00277801
0.00284342
0.00291599
0.00299325
0.00307352
0.00315551
0.00323819
0.00332057
0.00340169
0.00348059
0.00355632
0.00362794
0.00369461
0.00375562
0.00381036
0.00385824
0.00749274
0.00351688
0.00294222
0.00276133
0.00270877
0.00271496
0.0027531
0.0028105
0.00288036
0.00295868
0.00304291
0.00313127
0.00322244
0.00331528
0.00340873
0.00350177
0.00359335
0.00368241
0.00376792
0.00384887
0.00392434
0.00399348
0.00405544
0.00750422
0.0035779
0.00298234
0.00279346
0.00273895
0.00274614
0.00278722
0.00284919
0.00292511
0.00301089
0.00310395
0.00320244
0.00330498
0.00341035
0.00351742
0.00362507
0.00373214
0.00383744
0.00393974
0.00403785
0.00413061
0.00421689
0.00429557
0.00746943
0.00365246
0.00302166
0.00282603
0.00277116
0.00278086
0.00282645
0.00289464
0.0029784
0.00307361
0.00317762
0.0032886
0.00340507
0.00352577
0.00364949
0.00377496
0.00390089
0.00402589
0.00414852
0.00426734
0.00438087
0.00448768
0.00458633
0.00752902
0.00371391
0.00305857
0.00285913
0.0028057
0.00281952
0.00287127
0.00294749
0.00304109
0.00314793
0.00326537
0.00339155
0.00352497
0.00366432
0.00380826
0.00395541
0.00410427
0.00425321
0.0044005
0.00454437
0.00468299
0.00481454
0.00493721
0.00764787
0.00376111
0.0030938
0.00289331
0.00284299
0.00286256
0.00292225
0.00300848
0.00311413
0.00323511
0.00336879
0.00351335
0.00366728
0.0038292
0.00399768
0.00417116
0.0043479
0.00452597
0.00470327
0.00487758
0.00504662
0.00520811
0.00535979
0.00775616
0.0038047
0.00312879
0.00292904
0.00288343
0.00291045
0.00298
0.00307839
0.00319858
0.00333652
0.0034897
0.00365634
0.00383496
0.00402415
0.00422236
0.00442784
0.00463855
0.00485216
0.00506607
0.00527752
0.00548361
0.00568147
0.00586828
0.00785247
0.00384606
0.00316399
0.00296666
0.0029274
0.00296368
0.00304512
0.00315806
0.00329553
0.00345366
0.00363006
0.00382309
0.00403136
0.00425343
0.00448768
0.00473211
0.00498429
0.00524139
0.00550017
0.0057571
0.0060085
0.00625068
0.00648011
0.00794188
0.00388602
0.00319977
0.00300648
0.00297526
0.0030227
0.00311825
0.00324832
0.00340613
0.00358806
0.00379197
0.00401643
0.00426021
0.00452193
0.00479988
0.00509179
0.00539477
0.0057053
0.00601926
0.00633212
0.00663912
0.0069355
0.00721671
0.00802668
0.00392504
0.0032364
0.00304875
0.00302733
0.00308793
0.00319994
0.00334995
0.00353149
0.00374129
0.0039776
0.00423935
0.00452559
0.00483509
0.0051661
0.00551603
0.00588143
0.00625786
0.00664001
0.00702196
0.00739749
0.00776033
0.00810444
0.008107
0.00396315
0.00327394
0.00309364
0.00308384
0.00315971
0.00329068
0.00346365
0.0036726
0.00391481
0.00418909
0.00449492
0.00483183
0.00519889
0.00559437
0.00601541
0.00645777
0.00691585
0.0073827
0.00785038
0.00831057
0.00875511
0.00917582
0.0081803
0.00399974
0.00331228
0.00314121
0.00314496
0.00323829
0.00339083
0.00358995
0.0038303
0.00410988
0.00442839
0.00478612
0.00518333
0.00561967
0.0060936
0.00660195
0.00713958
0.00769927
0.00827178
0.00884644
0.00941189
0.00995711
0.0104713
0.00823823
0.00403368
0.00335118
0.0031915
0.00321084
0.00332387
0.00350062
0.00372918
0.00400507
0.0043274
0.00469704
0.00511552
0.00558426
0.00610382
0.00667315
0.00728893
0.00794494
0.0086318
0.00933712
0.0100462
0.0107432
0.011413
0.0120413
0.00827465
0.00406539
0.00339093
0.00324456
0.00328151
0.00341646
0.00362005
0.00388129
0.00419695
0.00456762
0.00499583
0.0054849
0.00603802
0.00665726
0.0073426
0.0080908
0.00889449
0.00974148
0.0106149
0.0114941
0.0123567
0.0131815
0.0139492
0.00828078
0.00409471
0.00343086
0.00330021
0.00335704
0.00351614
0.00374897
0.00404587
0.0044053
0.00482987
0.0053244
0.00589473
0.00654667
0.00728473
0.00811078
0.00902233
0.0100109
0.0110608
0.0121487
0.0132453
0.0143184
0.0153368
0.0162749
0.00824139
0.00411591
0.00346986
0.00335883
0.00343813
0.00362331
0.00388724
0.00422213
0.00462871
0.00511227
0.0056807
0.00634335
0.00710981
0.00798842
0.00898437
0.0100971
0.0113178
0.0126264
0.0139908
0.0153685
0.0167116
0.0179741
0.0191206
0.00814723
0.00412504
0.00350858
0.00342268
0.003527
0.00373932
0.00403496
0.00440884
0.00486471
0.00541124
0.00606034
0.00682601
0.00772321
0.00876611
0.0099655
0.0113252
0.0128374
0.014478
0.0162029
0.0179493
0.0196439
0.0212168
0.0226181
0.0079775
0.00412079
0.0035524
0.00349846
0.00362905
0.00386728
0.00419279
0.00460436
0.00510952
0.00572106
0.00645578
0.00733369
0.00837707
0.00960861
0.0110483
0.0127084
0.0145862
0.0166549
0.0188556
0.0210948
0.0232559
0.0252278
0.0269393
0.00769335
0.00411056
0.00361975
0.00360309
0.00375584
0.00401317
0.00436208
0.00480635
0.00535768
0.00603333
0.00685564
0.00785194
0.00905399
0.0104965
0.0122139
0.0142337
0.0165659
0.0191878
0.0220247
0.0249372
0.0277334
0.0302256
0.0323107
0.00751328
0.00413111
0.00376774
0.00377635
0.00392949
0.00418661
0.00454443
0.00501112
0.00560146
0.00633651
0.00724415
0.00835987
0.00972712
0.0113967
0.013424
0.0158624
0.0187492
0.0220813
0.0257766
0.0296323
0.033322
0.0365069
0.0390322
0.00747
0.00458014
0.00418707
0.00410776
0.00418709
0.00439928
0.0047395
0.00521213
0.00583014
0.00661569
0.00760108
0.00883003
0.0103592
0.012259
0.0146137
0.0175162
0.0210544
0.0252774
0.030126
0.0353255
0.0403202
0.0444688
0.0474963
0.0159027
0.00747434
0.00546389
0.00477399
0.00457513
0.00465625
0.00493963
0.00539751
0.00602923
0.00685287
0.00790272
0.00922964
0.0109035
0.0130164
0.015687
0.0190621
0.0233096
0.0285841
0.0349192
0.0420032
0.0489578
0.0546147
0.0581979
0.154955
0.026119
0.00940346
0.00603647
0.00510516
0.00493337
0.00512115
0.00554746
0.00618046
0.00702821
0.00812407
0.00952392
0.0113086
0.0135899
0.0165204
0.0203059
0.0252155
0.0315633
0.0395784
0.0490445
0.0588937
0.0676059
0.0717455
1.53831
0.127569
0.0195428
0.00782882
0.00561683
0.00514327
0.00523828
0.0056349
0.00626398
0.00712274
0.00824253
0.00968157
0.011527
0.0139028
0.0169837
0.0210178
0.0263551
0.033457
0.0427809
0.054396
0.067859
0.0851197
0.0889743
0.0158803
0.0123844
0.0117553
0.0134642
0.0052013
0.00526184
0.00519687
0.0050438
0.00395471
0.00400438
0.00398134
0.00389072
0.00370387
0.00372456
0.00369644
0.00362812
0.00361719
0.00362682
0.00360349
0.00354817
0.00361782
0.0036345
0.00359666
0.00353875
0.00348205
0.00348058
0.0034562
0.00342118
0.00337652
0.00336204
0.00334397
0.00332206
0.00332165
0.00330474
0.00328529
0.00326511
0.00328496
0.00327146
0.00325532
0.0032374
0.00326677
0.0032565
0.00324393
0.00322931
0.00326858
0.00326074
0.00325101
0.00323945
0.00329012
0.0032846
0.00327744
0.00326861
0.00333098
0.00332806
0.00332356
0.00331747
0.00339193
0.00339197
0.00339043
0.00338729
0.00347493
0.00347838
0.0034802
0.00348032
0.00358279
0.00359018
0.00359582
0.00359965
0.00371905
0.00373099
0.00374104
0.00374914
0.00388806
0.0039053
0.0039205
0.00393358
0.00409522
0.00411869
0.00413994
0.00415887
0.00434716
0.004378
0.00440641
0.00443227
0.004652
0.00469164
0.00472858
0.00476269
0.00501974
0.00506991
0.00511706
0.00516103
0.0054626
0.00552542
0.0055848
0.00564057
0.00599554
0.00607357
0.00614765
0.00621755
0.00663688
0.00673323
0.00682496
0.00691179
0.00740912
0.00752752
0.00764041
0.00774748
0.0083398
0.00848471
0.00862293
0.0087541
0.00946297
0.00963965
0.00980804
0.00996775
0.0108207
0.0110354
0.0112395
0.0114327
0.0124654
0.0127251
0.0129713
0.0132036
0.0144625
0.0147753
0.0150705
0.0153478
0.0168941
0.0172691
0.0176206
0.0179487
0.0198644
0.0203111
0.0207263
0.0211105
0.0235066
0.0240342
0.0245192
0.024963
0.0279917
0.0286074
0.0291652
0.0296685
0.0335406
0.0342461
0.0348732
0.0354289
0.040438
0.0412232
0.0419038
0.0424931
0.0490447
0.0498777
0.0505756
0.0511618
0.0597996
0.0606133
0.0612624
0.0617856
0.0732074
0.0738805
0.0743774
0.0747548
0.089823
0.0901421
0.0903453
0.0904849
0.00566999
0.00358749
0.0028304
0.00250962
0.00234974
0.00225694
0.00219378
0.00213962
0.00207757
0.00200398
0.00194758
0.0018965
0.00182889
0.00173297
0.00161948
0.00150746
0.00137195
0.00131516
0.00208647
0.00416324
0.00336924
0.00290939
0.00264273
0.00247921
0.00237046
0.00229065
0.00222393
0.00216019
0.00209763
0.00204967
0.00201349
0.00194688
0.00183289
0.00171695
0.00161084
0.00151629
0.00154973
0.002765
0.00363049
0.00325592
0.00296993
0.00275646
0.00260491
0.00249617
0.00241339
0.00234555
0.00228532
0.0022298
0.00218473
0.00215144
0.00207526
0.00194516
0.00182385
0.00172974
0.00167747
0.00178675
0.00318735
0.00347092
0.00324753
0.00305891
0.00287174
0.00273829
0.00264404
0.00256994
0.00251014
0.00246114
0.00241629
0.00237941
0.00235601
0.00225719
0.00209091
0.00194771
0.00186076
0.00184615
0.00208173
0.00357693
0.00342608
0.00326287
0.00311877
0.00297402
0.00287044
0.00278339
0.00270629
0.00265147
0.00260923
0.00254784
0.00246753
0.00240723
0.00234669
0.00222115
0.00207608
0.00198676
0.00200403
0.00224259
0.00431784
0.00343912
0.00333447
0.00322682
0.00306674
0.00294814
0.00285996
0.00278289
0.0027208
0.00266915
0.00260537
0.00250997
0.00243884
0.00236827
0.00225118
0.00213441
0.00207405
0.00210796
0.00240915
0.0050086
0.00336316
0.00329554
0.00322029
0.00310341
0.00301093
0.00294588
0.0028766
0.00281195
0.00274362
0.00266295
0.00256162
0.00245868
0.00236213
0.00226441
0.00218307
0.0021485
0.00219698
0.00253319
0.00520568
0.00328308
0.00322674
0.00316584
0.00309037
0.00302554
0.00297736
0.00292553
0.00285535
0.00277104
0.00268632
0.0025907
0.00248376
0.00237981
0.00228775
0.0022104
0.00218064
0.00225439
0.00263597
0.00501937
0.00323057
0.00317704
0.00312019
0.00306023
0.00300663
0.00296454
0.00291735
0.00283841
0.00275095
0.00267188
0.0025846
0.00248701
0.00240433
0.002326
0.00223817
0.00218847
0.00224942
0.00263975
0.00502385
0.00320584
0.00315615
0.00310535
0.0030537
0.00300157
0.00295255
0.00289451
0.00281188
0.00272846
0.00264998
0.00256209
0.0024669
0.0023973
0.00233666
0.0022546
0.00218801
0.00221194
0.00253974
0.00490117
0.00320251
0.00315857
0.00311331
0.00306626
0.00301279
0.00295446
0.00288719
0.00280603
0.00272275
0.00263996
0.00254976
0.00245244
0.00237091
0.00230722
0.00224036
0.00218109
0.00217535
0.00238612
0.00115915
0.00321773
0.00317991
0.00313812
0.0030922
0.00303762
0.00297521
0.00290553
0.00282523
0.00274019
0.00265351
0.00256112
0.00246167
0.00236486
0.00228133
0.00221204
0.00216884
0.00216383
0.00230918
0.00489746
0.0032515
0.00321965
0.00318088
0.003135
0.00308018
0.00301754
0.00294783
0.00286922
0.00278464
0.00269627
0.00260186
0.00250038
0.00239644
0.00229816
0.00221517
0.00216792
0.00216933
0.00228544
0.00489325
0.00330484
0.00327896
0.00324441
0.00320048
0.00314693
0.00308527
0.00301649
0.00294003
0.00285686
0.00276808
0.00267261
0.00257009
0.00246369
0.00235971
0.00226882
0.0022102
0.00220788
0.00230602
0.00112377
0.00337942
0.00335977
0.00333059
0.0032908
0.00324042
0.00318099
0.00311388
0.00303922
0.00295731
0.00286867
0.00277304
0.00267071
0.00256446
0.00246024
0.0023686
0.00230619
0.00229869
0.00238757
0.00114791
0.00347771
0.00346482
0.00344179
0.00340749
0.00336181
0.00330595
0.00324127
0.00316835
0.00308753
0.00299928
0.00290395
0.00280252
0.00269803
0.00259675
0.00250987
0.00245533
0.00246429
0.00260287
0.00116124
0.00360298
0.00359767
0.00358157
0.00355365
0.00351362
0.00346227
0.00340073
0.00332982
0.00325012
0.00316236
0.00306749
0.00296723
0.00286524
0.00276864
0.0026903
0.00265338
0.00270522
0.00297082
0.00491073
0.00375932
0.0037627
0.00375448
0.00373372
0.00370004
0.00365385
0.00359603
0.00352746
0.00344903
0.00336181
0.00326732
0.00316806
0.00306853
0.00297693
0.00290827
0.00289201
0.0029977
0.00344305
0.00541636
0.00395175
0.00396526
0.00396611
0.00395345
0.00392682
0.00388636
0.00383274
0.00376687
0.00368983
0.00360306
0.00350864
0.00340982
0.00331203
0.00322462
0.00316465
0.00316683
0.00331825
0.00390643
0.00653034
0.00418645
0.00421187
0.00422332
0.00421995
0.00420125
0.00416719
0.00411828
0.0040554
0.0039798
0.00389326
0.00379835
0.00369904
0.00360169
0.00351692
0.00346379
0.00348163
0.0036721
0.00439728
0.00788994
0.00447102
0.00451056
0.00453449
0.00454193
0.0045323
0.00450549
0.00446187
0.00440229
0.00432814
0.00424144
0.00414523
0.00404414
0.00394548
0.00386125
0.00381291
0.00384466
0.00407137
0.00492417
0.00942838
0.00481474
0.00487108
0.00490979
0.00492994
0.00493088
0.00491238
0.00487476
0.00481885
0.00474609
0.00465872
0.00456017
0.00445568
0.00435351
0.00426726
0.00422141
0.00426688
0.00453619
0.00553215
0.0112168
0.00522897
0.00530533
0.00536161
0.00539677
0.00541007
0.00540125
0.00537054
0.00531873
0.00524732
0.00515867
0.00505651
0.00494663
0.00483824
0.00474666
0.00469995
0.00475609
0.00506588
0.00620488
0.0129881
0.00572753
0.00582776
0.0059049
0.00595779
0.00598565
0.00598813
0.00596543
0.00591831
0.00584822
0.00575763
0.00565041
0.00553284
0.00541498
0.00531378
0.00526012
0.00531789
0.0056517
0.00688768
0.0143989
0.00632727
0.0064559
0.00655774
0.00663153
0.00667646
0.00669218
0.00667882
0.0066371
0.00656843
0.00647525
0.00636155
0.0062338
0.00610266
0.00598627
0.00591772
0.00596525
0.00630292
0.00759052
0.0155555
0.00704867
0.00721099
0.00734192
0.0074402
0.00750507
0.00753621
0.00753378
0.00749843
0.00743148
0.00733524
0.00721359
0.00707302
0.00692447
0.00678687
0.00669509
0.00672119
0.00704877
0.00837598
0.0168196
0.00791669
0.00811867
0.00828361
0.00841038
0.00849836
0.00854739
0.00855771
0.00852995
0.00846528
0.00836576
0.00823496
0.00807912
0.00790916
0.00774454
0.00762184
0.00761769
0.00792909
0.00931104
0.0184284
0.00896159
0.00920998
0.00941435
0.00957389
0.00968835
0.00975792
0.00978305
0.0097644
0.00970294
0.00960038
0.00945979
0.00928688
0.00909222
0.00889559
0.00873552
0.00869469
0.00898921
0.0104554
0.0205292
0.0102203
0.0105225
0.010772
0.0109687
0.011113
0.0112059
0.011248
0.0112403
0.0111836
0.011079
0.010929
0.0107384
0.0105171
0.010285
0.0100827
0.0100007
0.0102798
0.0118612
0.0231637
0.0117378
0.0121016
0.012402
0.01264
0.0128175
0.0129362
0.0129977
0.0130032
0.0129533
0.0128489
0.0126913
0.0124844
0.0122369
0.0119683
0.0117214
0.0115954
0.0118609
0.0135831
0.0263422
0.0135692
0.0140025
0.014359
0.0146419
0.0148551
0.0150019
0.0150851
0.0151063
0.0150664
0.0149657
0.0148046
0.0145855
0.0143157
0.0140138
0.013724
0.0135549
0.0138103
0.015698
0.0301245
0.0157821
0.0162919
0.0167086
0.0170389
0.0172893
0.0174658
0.0175726
0.0176124
0.0175864
0.0174947
0.0173369
0.0171138
0.016831
0.0165054
0.0161821
0.0159784
0.0162362
0.0183325
0.0347725
0.0184595
0.0190512
0.0195301
0.019908
0.0201956
0.0204019
0.0205337
0.020595
0.0205877
0.0205122
0.0203677
0.0201539
0.0198746
0.019545
0.0192102
0.0189963
0.019289
0.0216837
0.040828
0.0217038
0.0223794
0.022919
0.0233416
0.0236638
0.0238986
0.0240555
0.0241407
0.0241575
0.024107
0.023989
0.0238033
0.0235534
0.0232534
0.0229488
0.0227751
0.023169
0.0260059
0.0487981
0.0256413
0.0263969
0.0269904
0.0274509
0.0278017
0.0280609
0.0282414
0.0283519
0.0283977
0.0283818
0.028306
0.0281727
0.0279877
0.0277684
0.0275643
0.027523
0.0281402
0.0316372
0.0592501
0.0304274
0.0312503
0.0318838
0.0323694
0.0327389
0.0330154
0.0332156
0.0333508
0.033429
0.0334563
0.0334387
0.0333846
0.0333084
0.0332389
0.0332414
0.0334888
0.0345519
0.0390754
0.0731426
0.0362526
0.0371172
0.0377673
0.0382589
0.0386323
0.0389155
0.0391283
0.0392846
0.0393953
0.0394708
0.0395237
0.0395728
0.0396498
0.0398108
0.0401627
0.0409427
0.04285
0.0490776
0.0921094
0.0433481
0.0442117
0.0448441
0.0453156
0.0456734
0.0459489
0.0461636
0.0463333
0.0464715
0.0465932
0.046719
0.0468828
0.0471431
0.0476048
0.0484623
0.050108
0.0535316
0.0627886
0.119036
0.0519895
0.0527897
0.0533597
0.0537794
0.0540984
0.0543483
0.0545503
0.0547206
0.0548741
0.0550293
0.0552146
0.0554792
0.0559138
0.056691
0.0581501
0.060996
0.0669129
0.0818165
0.159856
0.0624993
0.0631566
0.0636127
0.0639459
0.0642008
0.0644049
0.0645763
0.064729
0.0648774
0.0650406
0.0652504
0.0655649
0.066098
0.0670838
0.0690282
0.0731045
0.0823822
0.107461
0.228522
0.0752465
0.0756771
0.0759701
0.0761842
0.0763505
0.0764874
0.076607
0.076719
0.0768341
0.0769676
0.0771461
0.0774205
0.0778963
0.0788066
0.0807125
0.0851164
0.0967387
0.13542
0.352235
0.0906547
0.0907959
0.0908913
0.0909619
0.0910183
0.0910667
0.0911111
0.091155
0.0912027
0.0912605
0.0913398
0.0914629
0.0916771
0.092093
0.0930052
0.0953491
0.102931
0.139279
0.580757
)
;

boundaryField
{
    leftWall
    {
        type            epsilonWallFunction;
        value           nonuniform List<scalar> 
50
(
0.000227793
0.000462272
0.000783202
0.00109891
0.00140231
0.00169625
0.00198534
0.00227966
0.00273183
0.00334837
0.00399775
0.00479134
0.00569583
0.00642096
0.00697975
0.00747013
0.00747702
0.00176694
0.00176933
0.00176899
0.00747827
0.00748111
0.0074704
0.0074763
0.00748161
0.00176777
0.00748583
0.00749274
0.00750422
0.00746943
0.00752902
0.00764787
0.00775616
0.00785247
0.00794188
0.00802668
0.008107
0.0081803
0.00823823
0.00827465
0.00828078
0.00824139
0.00814723
0.0079775
0.00769335
0.00751328
0.00747
0.0159027
0.154955
1.53831
)
;
    }
    rightWall
    {
        type            epsilonWallFunction;
        value           nonuniform List<scalar> 
50
(
0.0004382
0.0005184
0.000662331
0.000791954
0.000940565
0.00111425
0.00132258
0.00159782
0.00208647
0.002765
0.00318735
0.00357693
0.00431784
0.0050086
0.00520568
0.00501937
0.00502385
0.00490117
0.00115915
0.00489746
0.00489325
0.00112377
0.00114791
0.00116124
0.00491073
0.00541636
0.00653034
0.00788994
0.00942838
0.0112168
0.0129881
0.0143989
0.0155555
0.0168196
0.0184284
0.0205292
0.0231637
0.0263422
0.0301245
0.0347725
0.040828
0.0487981
0.0592501
0.0731426
0.0921094
0.119036
0.159856
0.228522
0.352235
0.580757
)
;
    }
    lowerWall
    {
        type            epsilonWallFunction;
        value           nonuniform List<scalar> 
62
(
0.000227793
0.00118863
0.00209327
0.00291013
0.00364428
0.00430564
0.00490546
0.00545217
0.00594987
0.00640465
0.00682735
0.00723071
0.0076143
0.00794315
0.00812492
0.00797777
0.0072472
0.00615421
0.00502992
0.00415564
0.00342385
0.00239328
0.000732189
0.000732189
0.00117681
0.00194167
0.00281209
0.00391556
0.00544918
0.00774991
0.0126973
0.0158803
0.0123844
0.0117553
0.0134642
0.000730481
0.000805244
0.00128696
0.00195766
0.00282011
0.00403924
0.00605007
0.0101556
0.000730481
0.00316964
0.00498318
0.00595766
0.00648407
0.00671436
0.00690613
0.00710341
0.00712995
0.00647294
0.00524924
0.00404053
0.00294799
0.00281893
0.00369194
0.00365514
0.00235084
0.00132701
0.0004382
)
;
    }
    atmosphere
    {
        type            inletOutlet;
        inletValue      uniform 0.1;
        value           nonuniform List<scalar> 
46
(
0.1
0.127569
0.0195428
0.00782882
0.00561683
0.00514327
0.00523828
0.0056349
0.00626398
0.00712274
0.00824253
0.00968157
0.011527
0.0139028
0.0169837
0.0210178
0.0263551
0.033457
0.0427809
0.054396
0.067859
0.1
0.1
0.1
0.1
0.1
0.1
0.1
0.1
0.1
0.1
0.1
0.1
0.1
0.1
0.1
0.1
0.1
0.1
0.1
0.1
0.1
0.1
0.1
0.1
0.580757
)
;
    }
    defaultFaces
    {
        type            empty;
    }
}


// ************************************************************************* //
