/*--------------------------------*- C++ -*----------------------------------*\
  =========                 |
  \\      /  F ield         | OpenFOAM: The Open Source CFD Toolbox
   \\    /   O peration     | Website:  https://openfoam.org
    \\  /    A nd           | Version:  9
     \\/     M anipulation  |
\*---------------------------------------------------------------------------*/
FoamFile
{
    format      ascii;
    class       volScalarField;
    location    "6.44";
    object      p;
}
// * * * * * * * * * * * * * * * * * * * * * * * * * * * * * * * * * * * * * //

dimensions      [1 -1 -2 0 0 0 0];

internalField   nonuniform List<scalar> 
2268
(
744.745
744.575
744.19
743.578
742.756
741.74
740.55
739.207
737.737
736.164
734.516
732.824
731.113
729.403
727.709
726.056
724.511
723.183
722.154
721.343
720.826
720.669
720.578
685.918
685.742
685.355
684.74
683.915
682.896
681.701
680.353
678.875
677.293
675.636
673.93
672.2
670.469
668.762
667.118
665.638
664.422
663.524
662.761
662.057
661.753
661.677
627.135
626.953
626.561
625.941
625.109
624.083
622.879
621.52
620.031
618.436
616.764
615.041
613.294
611.548
609.837
608.211
606.767
605.578
604.722
603.975
603.156
602.799
602.74
568.4
568.216
567.82
567.19
566.348
565.31
564.092
562.718
561.213
559.6
557.909
556.166
554.402
552.648
550.941
549.337
547.908
546.587
545.721
544.952
544.12
543.816
543.785
509.715
509.532
509.13
508.489
507.633
506.578
505.343
503.949
502.423
500.786
499.069
497.304
495.523
493.761
492.065
490.495
489.16
487.907
486.835
485.927
485.177
484.831
484.807
451.081
450.899
450.491
449.839
448.965
447.889
446.631
445.213
443.66
441.993
440.244
438.45
436.648
434.879
433.193
431.666
430.48
429.686
428.432
427.391
426.781
425.87
425.798
392.501
392.319
391.904
391.237
390.341
389.241
387.955
386.508
384.925
383.221
381.432
379.602
377.773
375.99
374.31
372.815
371.716
371.218
370.189
369.129
368.118
366.888
366.738
333.977
333.791
333.367
332.68
331.759
330.628
329.312
327.833
326.216
324.469
322.632
320.759
318.899
317.096
315.407
313.92
312.816
312.383
311.651
310.565
309.163
307.848
307.707
722.294
723.016
723.903
724.855
725.897
727.027
728.243
729.489
730.664
731.75
732.904
734.427
736.111
737.166
738.672
740.096
740.919
741.455
741.593
663.831
664.126
664.958
665.922
667.017
668.248
669.496
670.731
671.877
673.003
674.329
675.892
677.723
678.693
679.798
681.157
682.085
682.653
682.896
605.297
605.367
606.027
606.953
608.061
609.304
610.575
611.825
612.977
614.153
615.579
617.226
619.139
620.078
621.095
622.405
623.347
623.984
624.339
546.481
546.562
547.105
547.997
549.108
550.363
551.66
552.953
554.182
555.4
556.754
558.536
560.362
561.157
562.536
563.833
564.696
565.458
565.957
487.368
487.569
488.124
489.019
490.145
491.421
492.782
494.149
495.477
496.86
497.872
499.792
501.572
502.934
504.26
505.435
506.165
507.107
507.64
428.125
428.446
429.068
430.002
431.161
432.469
433.892
435.364
436.845
438.492
439.82
441.473
443.27
445.722
446.238
447.218
447.931
448.842
449.342
368.823
369.27
369.951
370.948
372.156
373.497
374.981
376.578
378.27
380.317
382.827
384.276
386.104
388.671
388.214
389.086
389.982
390.495
390.988
309.425
310.042
310.801
311.879
313.142
314.5
316.038
317.781
319.73
322.202
325.732
327.543
329.269
331.121
330.116
330.924
332.121
332.055
332.593
242.565
242.373
241.928
241.208
240.236
239.051
237.681
236.149
234.474
232.648
230.717
228.761
226.843
224.998
223.273
221.745
220.551
219.803
219.051
217.954
216.552
215.386
214.924
118.661
118.506
118.083
117.317
116.235
114.94
113.466
111.826
110.069
108.254
106.414
104.572
102.737
100.969
99.3282
97.8549
96.5888
95.5569
94.6439
93.7015
92.8028
92.1826
92.008
28.5311
28.4521
28.1888
27.787
27.2526
26.5751
25.7779
24.8852
23.9413
23.0492
22.2027
21.3412
20.4588
19.6175
18.8595
18.1948
17.602
17.0836
16.6189
16.2185
15.8967
15.7041
15.6531
-0.622857
-0.616134
-0.650579
-0.604883
-0.469221
-0.41508
-0.389313
-0.35271
-0.332602
-0.324626
-0.324805
-0.334664
-0.333958
-0.335976
-0.365042
-0.408229
-0.460467
-0.526755
-0.613297
-0.60978
-0.584238
-0.571962
-0.589053
-0.876097
-0.871044
-0.878765
-0.862672
-0.831381
-0.807262
-0.792689
-0.775579
-0.765272
-0.761167
-0.758744
-0.758454
-0.763302
-0.772918
-0.789267
-0.80665
-0.822979
-0.836283
-0.850788
-0.857467
-0.85192
-0.849684
-0.853089
-1.12319
-1.12375
-1.12445
-1.12849
-1.15105
-1.1572
-1.15626
-1.15605
-1.15231
-1.1487
-1.14599
-1.1439
-1.14315
-1.14145
-1.13553
-1.12621
-1.11679
-1.10631
-1.09041
-1.08731
-1.08345
-1.08053
-1.07157
-1.29396
-1.29501
-1.29144
-1.29174
-1.29152
-1.29098
-1.29244
-1.29226
-1.29157
-1.28975
-1.28745
-1.28484
-1.28097
-1.27599
-1.26961
-1.26285
-1.25855
-1.25861
-1.25739
-1.25317
-1.25428
-1.25432
-1.25033
-1.4217
-1.4226
-1.42171
-1.42228
-1.41923
-1.41756
-1.41705
-1.41644
-1.41546
-1.41389
-1.41191
-1.40962
-1.4067
-1.40328
-1.39965
-1.39669
-1.39459
-1.39279
-1.39111
-1.391
-1.39202
-1.39084
-1.39205
-1.54492
-1.54514
-1.54496
-1.54486
-1.54343
-1.54231
-1.54159
-1.54076
-1.53968
-1.53828
-1.53661
-1.53472
-1.53255
-1.53042
-1.52909
-1.5286
-1.52698
-1.52444
-1.523
-1.52254
-1.52118
-1.52023
-1.52099
-1.66895
-1.66893
-1.66876
-1.66855
-1.6676
-1.66675
-1.66603
-1.66515
-1.66408
-1.66286
-1.66151
-1.66001
-1.65835
-1.65687
-1.65611
-1.65561
-1.65414
-1.65251
-1.65149
-1.65018
-1.64876
-1.64798
-1.64813
-1.79302
-1.79295
-1.79277
-1.79246
-1.79183
-1.79113
-1.79042
-1.78958
-1.78862
-1.78761
-1.78652
-1.7853
-1.78395
-1.78272
-1.78183
-1.78102
-1.77984
-1.77852
-1.77753
-1.77654
-1.77565
-1.77509
-1.77503
-1.91718
-1.91715
-1.91698
-1.91667
-1.91618
-1.91559
-1.91492
-1.91415
-1.91333
-1.91248
-1.91158
-1.9105
-1.90937
-1.90833
-1.90746
-1.90663
-1.90564
-1.90459
-1.90371
-1.9029
-1.90227
-1.90186
-1.90175
-2.04148
-2.04145
-2.04131
-2.04105
-2.04064
-2.04013
-2.03955
-2.03888
-2.03819
-2.03745
-2.03661
-2.03567
-2.03473
-2.03385
-2.03305
-2.03231
-2.03157
-2.03084
-2.0301
-2.0294
-2.02881
-2.02843
-2.0283
-2.16587
-2.16587
-2.16576
-2.16553
-2.16519
-2.16476
-2.16428
-2.16374
-2.16313
-2.16244
-2.16166
-2.16086
-2.16007
-2.15931
-2.15861
-2.15797
-2.15741
-2.15691
-2.15635
-2.15576
-2.15517
-2.15478
-2.15464
-2.29036
-2.29039
-2.2903
-2.29012
-2.28983
-2.28947
-2.28905
-2.28859
-2.28805
-2.28741
-2.28674
-2.28605
-2.28537
-2.28471
-2.2841
-2.28354
-2.28305
-2.28264
-2.28223
-2.28172
-2.28122
-2.28091
-2.28079
-2.41497
-2.41498
-2.41493
-2.41478
-2.41453
-2.41422
-2.41385
-2.41343
-2.41295
-2.41241
-2.41183
-2.41124
-2.41066
-2.41009
-2.40955
-2.40906
-2.40861
-2.40822
-2.40784
-2.40744
-2.40709
-2.40686
-2.40677
-2.53963
-2.53967
-2.53963
-2.53951
-2.5393
-2.53903
-2.5387
-2.53833
-2.53791
-2.53744
-2.53694
-2.53644
-2.53593
-2.53544
-2.53497
-2.53453
-2.53413
-2.53377
-2.53344
-2.53313
-2.53286
-2.53268
-2.53261
-2.66438
-2.66443
-2.6644
-2.6643
-2.66412
-2.66389
-2.6636
-2.66327
-2.6629
-2.6625
-2.66207
-2.66163
-2.66119
-2.66076
-2.66035
-2.65997
-2.65962
-2.6593
-2.65901
-2.65875
-2.65855
-2.65841
-2.65835
-2.78918
-2.78925
-2.78923
-2.78914
-2.78899
-2.78879
-2.78854
-2.78825
-2.78793
-2.78757
-2.7872
-2.78682
-2.78644
-2.78607
-2.78571
-2.78538
-2.78507
-2.78479
-2.78455
-2.78433
-2.78416
-2.78405
-2.78401
-2.91403
-2.91412
-2.91411
-2.91404
-2.91391
-2.91373
-2.91351
-2.91326
-2.91297
-2.91267
-2.91235
-2.91202
-2.91169
-2.91136
-2.91105
-2.91076
-2.91049
-2.91025
-2.91004
-2.90986
-2.90972
-2.90963
-2.9096
-3.03896
-3.03903
-3.03903
-3.03897
-3.03886
-3.0387
-3.03851
-3.03829
-3.03804
-3.03778
-3.0375
-3.03721
-3.03693
-3.03665
-3.03638
-3.03612
-3.03589
-3.03568
-3.0355
-3.03535
-3.03523
-3.03516
-3.03513
-3.16391
-3.16398
-3.16399
-3.16394
-3.16384
-3.1637
-3.16354
-3.16334
-3.16313
-3.1629
-3.16266
-3.16241
-3.16216
-3.16192
-3.16168
-3.16146
-3.16126
-3.16108
-3.16092
-3.1608
-3.1607
-3.16064
-3.16061
-3.28891
-3.28897
-3.28898
-3.28894
-3.28885
-3.28873
-3.28858
-3.28842
-3.28823
-3.28803
-3.28782
-3.2876
-3.28739
-3.28718
-3.28697
-3.28678
-3.28661
-3.28645
-3.28632
-3.28621
-3.28613
-3.28608
-3.28606
-3.41393
-3.41399
-3.414
-3.41396
-3.41388
-3.41378
-3.41365
-3.4135
-3.41334
-3.41316
-3.41298
-3.41279
-3.41261
-3.41243
-3.41225
-3.41209
-3.41194
-3.4118
-3.41169
-3.41159
-3.41153
-3.41148
-3.41147
-3.53897
-3.53902
-3.53903
-3.53899
-3.53893
-3.53884
-3.53873
-3.5386
-3.53846
-3.53831
-3.53815
-3.53799
-3.53783
-3.53767
-3.53752
-3.53737
-3.53724
-3.53713
-3.53703
-3.53695
-3.5369
-3.53686
-3.53685
-3.66402
-3.66407
-3.66408
-3.66405
-3.66399
-3.66391
-3.66382
-3.66371
-3.66359
-3.66345
-3.66332
-3.66318
-3.66304
-3.6629
-3.66277
-3.66265
-3.66254
-3.66244
-3.66236
-3.66229
-3.66224
-3.66221
-3.66221
-3.7891
-3.78914
-3.78914
-3.78912
-3.78907
-3.789
-3.78892
-3.78882
-3.78872
-3.78861
-3.78849
-3.78837
-3.78825
-3.78813
-3.78802
-3.78791
-3.78782
-3.78773
-3.78766
-3.78761
-3.78757
-3.78755
-3.78754
-3.9142
-3.91422
-3.91422
-3.9142
-3.91415
-3.9141
-3.91403
-3.91395
-3.91386
-3.91376
-3.91366
-3.91356
-3.91345
-3.91335
-3.91326
-3.91317
-3.91308
-3.91301
-3.91295
-3.91291
-3.91287
-3.91286
-3.91286
-4.03931
-4.03932
-4.03931
-4.03929
-4.03925
-4.0392
-4.03914
-4.03908
-4.039
-4.03892
-4.03883
-4.03875
-4.03866
-4.03857
-4.03849
-4.03841
-4.03834
-4.03828
-4.03823
-4.03819
-4.03817
-4.03815
-4.03816
-4.16443
-4.16444
-4.16441
-4.16438
-4.16435
-4.16431
-4.16427
-4.16421
-4.16415
-4.16408
-4.16401
-4.16393
-4.16386
-4.16378
-4.16371
-4.16365
-4.16359
-4.16354
-4.16349
-4.16346
-4.16344
-4.16344
-4.16344
-4.28957
-4.28956
-4.28951
-4.28948
-4.28946
-4.28944
-4.2894
-4.28935
-4.2893
-4.28925
-4.28918
-4.28912
-4.28906
-4.28899
-4.28893
-4.28888
-4.28883
-4.28878
-4.28875
-4.28872
-4.28871
-4.28871
-4.28871
-4.41472
-4.4147
-4.41464
-4.4146
-4.41458
-4.41457
-4.41454
-4.4145
-4.41446
-4.41441
-4.41436
-4.41431
-4.41425
-4.4142
-4.41415
-4.4141
-4.41406
-4.41402
-4.414
-4.41398
-4.41397
-4.41397
-4.41398
-4.53988
-4.53984
-4.53979
-4.53976
-4.53974
-4.53972
-4.53969
-4.53966
-4.53962
-4.53958
-4.53954
-4.5395
-4.53945
-4.53941
-4.53936
-4.53932
-4.53929
-4.53926
-4.53923
-4.53922
-4.53921
-4.53922
-4.53923
-4.66504
-4.66499
-4.66494
-4.66492
-4.6649
-4.66487
-4.66485
-4.66482
-4.66479
-4.66476
-4.66472
-4.66469
-4.66465
-4.66461
-4.66457
-4.66454
-4.66451
-4.66448
-4.66447
-4.66446
-4.66445
-4.66446
-4.66448
-4.79018
-4.79011
-4.79008
-4.79006
-4.79004
-4.79002
-4.79
-4.78998
-4.78996
-4.78993
-4.78991
-4.78988
-4.78984
-4.78981
-4.78978
-4.78975
-4.78973
-4.78971
-4.78969
-4.78969
-4.78969
-4.7897
-4.78972
-4.9153
-4.91521
-4.91517
-4.91517
-4.91517
-4.91516
-4.91516
-4.91515
-4.91513
-4.91511
-4.91509
-4.91507
-4.91504
-4.91501
-4.91499
-4.91496
-4.91494
-4.91493
-4.91492
-4.91491
-4.91492
-4.91493
-4.91496
-5.04038
-5.04027
-5.04024
-5.04027
-5.0403
-5.04031
-5.04032
-5.04032
-5.04031
-5.0403
-5.04028
-5.04026
-5.04024
-5.04022
-5.0402
-5.04018
-5.04016
-5.04015
-5.04014
-5.04014
-5.04014
-5.04016
-5.04019
-5.16542
-5.1653
-5.16533
-5.16539
-5.16544
-5.16547
-5.16549
-5.16549
-5.16549
-5.16549
-5.16547
-5.16546
-5.16544
-5.16542
-5.16541
-5.16539
-5.16537
-5.16536
-5.16536
-5.16536
-5.16537
-5.16539
-5.16542
-5.29038
-5.29033
-5.29044
-5.29054
-5.2906
-5.29065
-5.29067
-5.29068
-5.29068
-5.29068
-5.29067
-5.29066
-5.29065
-5.29063
-5.29062
-5.2906
-5.29059
-5.29058
-5.29058
-5.29057
-5.29058
-5.29061
-5.29065
-5.41538
-5.41542
-5.41563
-5.41574
-5.41581
-5.41585
-5.41587
-5.41588
-5.41588
-5.41588
-5.41587
-5.41586
-5.41585
-5.41584
-5.41583
-5.41582
-5.41581
-5.4158
-5.41579
-5.41579
-5.41579
-5.41582
-5.41588
-5.54035
-5.54065
-5.54088
-5.54098
-5.54103
-5.54106
-5.54106
-5.54106
-5.54106
-5.54105
-5.54105
-5.54104
-5.54103
-5.54103
-5.54102
-5.54101
-5.541
-5.54099
-5.54098
-5.54097
-5.54095
-5.541
-5.54111
-5.6657
-5.66642
-5.66629
-5.66628
-5.66628
-5.66627
-5.66626
-5.66625
-5.66625
-5.66624
-5.66624
-5.66624
-5.66623
-5.66623
-5.66622
-5.66622
-5.66622
-5.66621
-5.6662
-5.66617
-5.66609
-5.66615
-5.66634
214.732
214.802
215.031
215.439
91.9835
92.0816
92.2956
92.6058
15.6509
15.6974
15.8018
15.9668
-0.618751
-0.627787
-0.630662
-0.633425
-0.85367
-0.853442
-0.852667
-0.85183
-1.05669
-1.05205
-1.05046
-1.05064
-1.245
-1.24443
-1.24604
-1.24678
-1.39529
-1.39605
-1.39543
-1.39545
-1.52261
-1.52293
-1.52255
-1.52235
-1.64864
-1.64882
-1.64879
-1.64873
-1.77519
-1.77527
-1.77529
-1.77527
-1.90182
-1.90189
-1.90196
-1.90206
-2.02837
-2.02845
-2.02858
-2.02878
-2.15471
-2.1548
-2.15493
-2.15513
-2.28084
-2.28091
-2.28103
-2.28118
-2.40681
-2.40687
-2.40695
-2.40707
-2.53265
-2.53269
-2.53276
-2.53284
-2.65838
-2.65841
-2.65847
-2.65853
-2.78403
-2.78406
-2.7841
-2.78415
-2.90962
-2.90964
-2.90967
-2.90971
-3.03514
-3.03516
-3.03519
-3.03522
-3.16063
-3.16064
-3.16066
-3.16069
-3.28607
-3.28608
-3.2861
-3.28613
-3.41148
-3.41149
-3.41151
-3.41153
-3.53686
-3.53687
-3.53689
-3.53691
-3.66222
-3.66223
-3.66224
-3.66226
-3.78755
-3.78756
-3.78758
-3.78759
-3.91287
-3.91288
-3.91289
-3.91291
-4.03817
-4.03818
-4.03819
-4.03821
-4.16345
-4.16347
-4.16348
-4.16349
-4.28873
-4.28874
-4.28875
-4.28877
-4.41399
-4.414
-4.41402
-4.41403
-4.53925
-4.53926
-4.53927
-4.53929
-4.66449
-4.66451
-4.66452
-4.66454
-4.78974
-4.78975
-4.78977
-4.78978
-4.91498
-4.91499
-4.915
-4.91502
-5.04021
-5.04023
-5.04024
-5.04026
-5.16544
-5.16546
-5.16548
-5.16549
-5.29068
-5.29069
-5.29071
-5.29073
-5.41591
-5.41593
-5.41594
-5.41596
-5.54115
-5.54117
-5.54118
-5.54119
-5.66638
-5.6664
-5.66641
-5.66642
216.53
217.315
218.307
219.529
220.995
222.636
224.36
226.19
228.321
231.117
234.589
236.812
238.513
239.602
239.324
239.989
241.413
241.096
241.419
93.4077
94.2968
95.3181
96.5654
98.127
100.001
101.968
103.873
105.756
107.829
110.357
112.723
114.388
115.33
115.786
116.551
118.214
117.85
117.958
16.3586
16.7758
17.2319
17.8566
18.6334
19.5805
20.6584
21.7123
22.5206
23.1237
24.0999
25.3858
26.2816
26.6948
26.9084
27.3557
28.2633
28.1581
28.2519
-0.636303
-0.635388
-0.621675
-0.551094
-0.514324
-0.528677
-0.55664
-0.577025
-0.579135
-0.579105
-0.611071
-0.67333
-0.714748
-0.678198
-0.633861
-0.631665
-0.654082
-0.616018
-0.559239
-0.850437
-0.848777
-0.845542
-0.838202
-0.829391
-0.826893
-0.832544
-0.837573
-0.842388
-0.84796
-0.857086
-0.868711
-0.87594
-0.876103
-0.873682
-0.87306
-0.874965
-0.87535
-0.873797
-1.0518
-1.05253
-1.05392
-1.06749
-1.07839
-1.08562
-1.09143
-1.09601
-1.09974
-1.10414
-1.11011
-1.11572
-1.11733
-1.11745
-1.11583
-1.11559
-1.1161
-1.1145
-1.11531
-1.24697
-1.24739
-1.24899
-1.25391
-1.26081
-1.26516
-1.26576
-1.26588
-1.26706
-1.26905
-1.27113
-1.27364
-1.27697
-1.28106
-1.28377
-1.2852
-1.2857
-1.28448
-1.28545
-1.39616
-1.39664
-1.39674
-1.39643
-1.3948
-1.39344
-1.39255
-1.3924
-1.39398
-1.39579
-1.39772
-1.40015
-1.40401
-1.40766
-1.41051
-1.4125
-1.41351
-1.41375
-1.41352
-1.52232
-1.52235
-1.52241
-1.52239
-1.52181
-1.52112
-1.5205
-1.52186
-1.52437
-1.52622
-1.52728
-1.52856
-1.53054
-1.53257
-1.53479
-1.53671
-1.53771
-1.53803
-1.53792
-1.64862
-1.64829
-1.64831
-1.64872
-1.64898
-1.64934
-1.65032
-1.65313
-1.65554
-1.65685
-1.65771
-1.65802
-1.65744
-1.65811
-1.65972
-1.66126
-1.66211
-1.66246
-1.66246
-1.77519
-1.77494
-1.77503
-1.77537
-1.77625
-1.77796
-1.78058
-1.78268
-1.78354
-1.78428
-1.78565
-1.78607
-1.78479
-1.78457
-1.78496
-1.7859
-1.78656
-1.78699
-1.78714
-1.90228
-1.90253
-1.9027
-1.90278
-1.90367
-1.9056
-1.90803
-1.90901
-1.90934
-1.91015
-1.91122
-1.91195
-1.91192
-1.9117
-1.91117
-1.91075
-1.91096
-1.91148
-1.91181
-2.02926
-2.03002
-2.03038
-2.03067
-2.03114
-2.03206
-2.03334
-2.03421
-2.03487
-2.03576
-2.03654
-2.03704
-2.03744
-2.03753
-2.03692
-2.03597
-2.03579
-2.03603
-2.03646
-2.15557
-2.15653
-2.15718
-2.15754
-2.15772
-2.15802
-2.1588
-2.15951
-2.16016
-2.16086
-2.16144
-2.16185
-2.16214
-2.16226
-2.16222
-2.16181
-2.16151
-2.16146
-2.16196
-2.28151
-2.28218
-2.28282
-2.28316
-2.28332
-2.28367
-2.28424
-2.28482
-2.28538
-2.28593
-2.28642
-2.28679
-2.28707
-2.28728
-2.28752
-2.28758
-2.28749
-2.28741
-2.28785
-2.40731
-2.40778
-2.40823
-2.40857
-2.40884
-2.40918
-2.40965
-2.41014
-2.41061
-2.41108
-2.41149
-2.41182
-2.41209
-2.41231
-2.41253
-2.41271
-2.41271
-2.41258
-2.41288
-2.53302
-2.53337
-2.53372
-2.53403
-2.53431
-2.53464
-2.53504
-2.53545
-2.53587
-2.53626
-2.53662
-2.53693
-2.53718
-2.53738
-2.53754
-2.5376
-2.53755
-2.53741
-2.53762
-2.65867
-2.65893
-2.65922
-2.6595
-2.65977
-2.66008
-2.66042
-2.66078
-2.66114
-2.66149
-2.66181
-2.6621
-2.66234
-2.66253
-2.66266
-2.66268
-2.6626
-2.66247
-2.66248
-2.78425
-2.78447
-2.78471
-2.78496
-2.78522
-2.78549
-2.78579
-2.78611
-2.78643
-2.78675
-2.78704
-2.78732
-2.78756
-2.78776
-2.78792
-2.788
-2.78802
-2.78805
-2.788
-2.90979
-2.90996
-2.91017
-2.91039
-2.91063
-2.91088
-2.91115
-2.91144
-2.91173
-2.91202
-2.9123
-2.91257
-2.91283
-2.91307
-2.9133
-2.9135
-2.91372
-2.91411
-2.91405
-3.03529
-3.03543
-3.03561
-3.0358
-3.03602
-3.03625
-3.0365
-3.03676
-3.03703
-3.03731
-3.03758
-3.03785
-3.03812
-3.03841
-3.03871
-3.03904
-3.03942
-3.04018
-3.03995
-3.16075
-3.16087
-3.16102
-3.1612
-3.16139
-3.16161
-3.16183
-3.16208
-3.16233
-3.16259
-3.16285
-3.16313
-3.16341
-3.16373
-3.16408
-3.1645
-3.16502
-3.16575
-3.1657
-3.28618
-3.28628
-3.28642
-3.28658
-3.28675
-3.28695
-3.28716
-3.28738
-3.28762
-3.28787
-3.28812
-3.28839
-3.28868
-3.289
-3.28937
-3.28982
-3.29035
-3.29089
-3.29103
-3.41158
-3.41167
-3.41179
-3.41193
-3.4121
-3.41228
-3.41247
-3.41268
-3.4129
-3.41313
-3.41338
-3.41364
-3.41392
-3.41423
-3.41457
-3.41497
-3.41541
-3.41573
-3.41573
-3.53695
-3.53703
-3.53714
-3.53727
-3.53742
-3.53759
-3.53777
-3.53797
-3.53817
-3.53839
-3.53863
-3.53887
-3.53913
-3.53941
-3.53971
-3.54002
-3.54032
-3.54044
-3.54024
-3.6623
-3.66238
-3.66248
-3.6626
-3.66274
-3.66289
-3.66306
-3.66324
-3.66343
-3.66364
-3.66386
-3.66409
-3.66432
-3.66457
-3.66482
-3.66505
-3.66521
-3.66519
-3.66489
-3.78763
-3.7877
-3.7878
-3.78791
-3.78803
-3.78818
-3.78833
-3.7885
-3.78868
-3.78888
-3.78908
-3.78929
-3.7895
-3.78972
-3.78992
-3.79008
-3.79015
-3.79006
-3.78973
-3.91294
-3.91301
-3.9131
-3.9132
-3.91332
-3.91345
-3.9136
-3.91376
-3.91393
-3.9141
-3.91429
-3.91448
-3.91468
-3.91486
-3.91502
-3.91514
-3.91518
-3.91507
-3.91476
-4.03824
-4.03831
-4.03839
-4.03848
-4.03859
-4.03872
-4.03885
-4.039
-4.03916
-4.03933
-4.0395
-4.03967
-4.03985
-4.04001
-4.04014
-4.04024
-4.04026
-4.04015
-4.03988
-4.16353
-4.16359
-4.16366
-4.16375
-4.16386
-4.16397
-4.1641
-4.16424
-4.16438
-4.16454
-4.1647
-4.16486
-4.16502
-4.16516
-4.16527
-4.16534
-4.16534
-4.16524
-4.16502
-4.2888
-4.28886
-4.28893
-4.28901
-4.28911
-4.28922
-4.28934
-4.28947
-4.2896
-4.28975
-4.2899
-4.29005
-4.29019
-4.29031
-4.29041
-4.29045
-4.29042
-4.29027
-4.29004
-4.41406
-4.41412
-4.41419
-4.41427
-4.41436
-4.41446
-4.41457
-4.41469
-4.41482
-4.41495
-4.41509
-4.41523
-4.41536
-4.41547
-4.41555
-4.41557
-4.41549
-4.41529
-4.41496
-4.53932
-4.53937
-4.53944
-4.53951
-4.53959
-4.53969
-4.53979
-4.5399
-4.54003
-4.54015
-4.54029
-4.54042
-4.54054
-4.54065
-4.54072
-4.54072
-4.54062
-4.5404
-4.54002
-4.66457
-4.66462
-4.66468
-4.66475
-4.66483
-4.66491
-4.66501
-4.66511
-4.66523
-4.66535
-4.66548
-4.6656
-4.66573
-4.66584
-4.66591
-4.66592
-4.66583
-4.6656
-4.66523
-4.78981
-4.78986
-4.78992
-4.78998
-4.79005
-4.79013
-4.79022
-4.79032
-4.79042
-4.79054
-4.79066
-4.79079
-4.79092
-4.79104
-4.79113
-4.79116
-4.7911
-4.79087
-4.79049
-4.91505
-4.9151
-4.91515
-4.91521
-4.91527
-4.91534
-4.91543
-4.91551
-4.91561
-4.91572
-4.91584
-4.91597
-4.9161
-4.91624
-4.91636
-4.91644
-4.91641
-4.91619
-4.91577
-5.04029
-5.04033
-5.04038
-5.04043
-5.04049
-5.04055
-5.04062
-5.0407
-5.04079
-5.04089
-5.04101
-5.04114
-5.04128
-5.04144
-5.0416
-5.04173
-5.04177
-5.04155
-5.04109
-5.16552
-5.16556
-5.1656
-5.16565
-5.1657
-5.16575
-5.16581
-5.16588
-5.16596
-5.16606
-5.16616
-5.16629
-5.16644
-5.16662
-5.16683
-5.16705
-5.16718
-5.16696
-5.16645
-5.29075
-5.29078
-5.29082
-5.29086
-5.2909
-5.29094
-5.291
-5.29105
-5.29112
-5.2912
-5.2913
-5.29142
-5.29157
-5.29177
-5.29203
-5.29236
-5.29265
-5.29247
-5.29194
-5.41598
-5.41601
-5.41603
-5.41606
-5.41609
-5.41613
-5.41617
-5.41621
-5.41627
-5.41633
-5.41641
-5.41651
-5.41665
-5.41684
-5.41714
-5.41761
-5.4182
-5.41812
-5.41766
-5.54121
-5.54122
-5.54124
-5.54126
-5.54128
-5.54131
-5.54133
-5.54137
-5.5414
-5.54144
-5.54149
-5.54156
-5.54166
-5.54181
-5.54207
-5.54265
-5.5437
-5.54404
-5.54402
-5.66643
-5.66644
-5.66645
-5.66647
-5.66648
-5.66649
-5.66651
-5.66652
-5.66654
-5.66656
-5.66658
-5.6666
-5.66664
-5.66671
-5.66687
-5.66729
-5.66848
-5.6699
-5.67116
)
;

boundaryField
{
    leftWall
    {
        type            calculated;
        value           nonuniform List<scalar> 
50
(
744.745
685.918
627.135
568.4
509.715
451.081
392.501
333.977
242.565
118.661
28.5311
-0.622857
-0.876097
-1.12319
-1.29396
-1.4217
-1.54492
-1.66895
-1.79302
-1.91718
-2.04148
-2.16587
-2.29036
-2.41497
-2.53963
-2.66438
-2.78918
-2.91403
-3.03896
-3.16391
-3.28891
-3.41393
-3.53897
-3.66402
-3.7891
-3.9142
-4.03931
-4.16443
-4.28957
-4.41472
-4.53988
-4.66504
-4.79018
-4.9153
-5.04038
-5.16542
-5.29038
-5.41538
-5.54035
-5.6657
)
;
    }
    rightWall
    {
        type            calculated;
        value           nonuniform List<scalar> 
50
(
741.593
682.896
624.339
565.957
507.64
449.342
390.988
332.593
241.419
117.958
28.2519
-0.559239
-0.873797
-1.11531
-1.28545
-1.41352
-1.53792
-1.66246
-1.78714
-1.91181
-2.03646
-2.16196
-2.28785
-2.41288
-2.53762
-2.66248
-2.788
-2.91405
-3.03995
-3.1657
-3.29103
-3.41573
-3.54024
-3.66489
-3.78973
-3.91476
-4.03988
-4.16502
-4.29004
-4.41496
-4.54002
-4.66523
-4.79049
-4.91577
-5.04109
-5.16645
-5.29194
-5.41766
-5.54402
-5.67116
)
;
    }
    lowerWall
    {
        type            calculated;
        value           nonuniform List<scalar> 
62
(
774.174
774.005
773.619
773.008
772.185
771.169
769.979
768.637
767.166
765.593
763.946
762.254
760.542
758.832
757.139
755.485
753.94
752.612
751.539
750.676
750.167
750.066
749.975
720.578
661.677
602.74
543.785
484.807
425.798
366.738
307.707
277.329
277.399
277.625
278.036
722.294
663.831
605.297
546.481
487.368
428.125
368.823
309.425
751.472
752.325
753.26
754.214
755.23
756.243
757.445
758.691
759.868
760.942
762.096
763.717
765.401
766.457
768.06
769.485
770.307
770.839
770.967
)
;
    }
    atmosphere
    {
        type            calculated;
        value           nonuniform List<scalar> 
46
(
-5.72915
-5.72904
-5.72904
-5.72904
-5.72904
-5.72904
-5.72904
-5.72904
-5.72904
-5.72904
-5.72904
-5.72904
-5.72904
-5.72904
-5.72904
-5.72904
-5.72904
-5.72904
-5.72904
-5.72904
-5.72904
-5.72904
-5.72904
-5.72904
-5.72905
-5.72905
-5.72905
-5.72905
-5.72906
-5.72907
-5.72907
-5.72908
-5.72909
-5.7291
-5.72911
-5.72912
-5.72913
-5.72913
-5.72914
-5.72914
-5.72915
-5.72914
-5.72913
-5.72911
-5.72906
-5.73638
)
;
    }
    defaultFaces
    {
        type            empty;
    }
}


// ************************************************************************* //
