/*--------------------------------*- C++ -*----------------------------------*\
  =========                 |
  \\      /  F ield         | OpenFOAM: The Open Source CFD Toolbox
   \\    /   O peration     | Website:  https://openfoam.org
    \\  /    A nd           | Version:  9
     \\/     M anipulation  |
\*---------------------------------------------------------------------------*/
FoamFile
{
    format      ascii;
    class       volScalarField;
    location    "210";
    object      epsilon;
}
// * * * * * * * * * * * * * * * * * * * * * * * * * * * * * * * * * * * * * //

dimensions      [0 2 -3 0 0 0 0];

internalField   nonuniform List<scalar> 
12225
(
285.523
270.705
257.917
243.81
232.463
223.085
216.811
212.699
212.743
213.947
217.259
220.842
228.17
232.678
241.45
246.062
256.692
253.901
52.4925
91.8829
106.973
114.749
124.841
136.785
152.688
169.905
191.113
210.931
235.24
255.481
281.077
299.349
324.743
339.56
363.651
378.982
20.5285
34.8726
44.6752
50.4695
55.3951
59.6081
64.6634
69.643
76.3183
83.1827
91.4415
99.3169
108.183
116.939
125.559
135.312
142.549
153.989
16.0023
19.4864
24.0815
27.5637
30.4965
32.8695
35.1553
37.2932
39.503
41.9173
44.3378
47.2024
49.6831
53.0421
55.4137
59.2533
61.3893
65.6924
15.0385
15.7124
17.3991
19.0784
20.6393
22.0259
23.2462
24.431
25.4443
26.5945
27.5237
28.7582
29.6326
30.9864
31.813
33.274
34.0479
35.6682
14.7897
14.8256
15.2495
15.8676
16.5677
17.287
17.9238
18.5841
19.1192
19.734
20.1934
20.799
21.2086
21.823
22.1979
22.8298
23.1623
23.8693
14.7658
14.6146
14.6409
14.7257
14.9351
15.2199
15.4916
15.8089
16.0709
16.3826
16.6182
16.9203
17.1309
17.4272
17.6156
17.9145
18.0716
18.4122
14.7687
14.5866
14.466
14.3801
14.3677
14.3896
14.4394
14.5334
14.6185
14.7366
14.8308
14.9565
15.0477
15.1763
15.2608
15.3933
15.4628
15.6237
14.768
14.591
14.4349
14.2963
14.185
14.1044
14.0399
14.0066
13.9814
13.9785
13.9809
13.9917
14.0037
14.0299
14.0462
14.0812
14.0969
14.1516
14.7665
14.594
14.432
14.282
14.143
14.0219
13.9115
13.8194
13.737
13.6698
13.6102
13.5633
13.5181
13.4872
13.4515
13.4344
13.4018
13.4011
14.7659
14.5945
14.4322
14.2803
14.1362
14.0032
13.8782
13.7644
13.6582
13.5629
13.4735
13.3952
13.3198
13.2561
13.1915
13.1408
13.0838
13.0452
14.7657
14.5943
14.4321
14.2798
14.1353
13.9999
13.8715
13.7518
13.6385
13.5337
13.4341
13.343
13.2557
13.1771
13.1003
13.0328
12.9647
12.9074
14.7657
14.5941
14.432
14.2794
14.1349
13.9989
13.8699
13.7485
13.6332
13.5249
13.422
13.3257
13.2338
13.1483
13.0663
12.9906
12.9172
12.8502
14.7657
14.5939
14.4318
14.279
14.1346
13.9983
13.8692
13.7472
13.6315
13.5223
13.4184
13.3203
13.227
13.1389
13.055
12.9759
12.9002
12.8291
14.7657
14.5938
14.4317
14.2787
14.1342
13.9977
13.8686
13.7464
13.6307
13.5211
13.4171
13.3185
13.2248
13.136
13.0516
12.9715
12.8952
12.8228
14.7657
14.5937
14.4316
14.2785
14.1339
13.9973
13.8681
13.7458
13.63
13.5202
13.4161
13.3174
13.2236
13.1346
13.05
12.9696
12.8932
12.8204
14.7657
14.5937
14.4315
14.2783
14.1337
13.997
13.8677
13.7453
13.6294
13.5195
13.4154
13.3165
13.2227
13.1336
13.0489
12.9684
12.8918
12.819
14.7657
14.5937
14.4314
14.2782
14.1335
13.9968
13.8674
13.745
13.629
13.5191
13.4148
13.3159
13.222
13.1329
13.0481
12.9675
12.8909
12.818
14.7657
14.5937
14.4314
14.2782
14.1335
13.9967
13.8673
13.7448
13.6288
13.5189
13.4146
13.3157
13.2217
13.1325
13.0477
12.9671
12.8904
12.8174
14.7657
14.5937
14.4314
14.2782
14.1336
13.9968
13.8674
13.745
13.629
13.5191
13.4148
13.3159
13.2219
13.1327
13.0479
12.9673
12.8907
12.8177
14.7657
14.5937
14.4315
14.2784
14.1338
13.997
13.8677
13.7453
13.6294
13.5196
13.4154
13.3166
13.2229
13.1338
13.0493
12.969
12.8927
12.82
14.7657
14.5937
14.4316
14.2785
14.1341
13.9974
13.8685
13.7464
13.6312
13.522
13.419
13.3214
13.2293
13.1418
13.0595
12.981
12.9074
12.8368
14.7659
14.5937
14.4318
14.2788
14.1353
14.0002
13.8742
13.756
13.6463
13.5435
13.4485
13.3591
13.277
13.1992
13.1282
13.0601
12.9988
12.9387
14.7661
14.5928
14.4329
14.2844
14.1515
14.0321
13.9289
13.8375
13.7593
13.6894
13.6307
13.5769
13.5328
13.4905
13.4574
13.423
13.3989
13.3693
14.7641
14.5936
14.461
14.3604
14.3029
14.2767
14.2796
14.294
14.3202
14.3529
14.3959
14.4345
14.4824
14.5217
14.572
14.6089
14.6616
14.6939
14.757
14.6921
14.7579
14.9172
15.1828
15.4611
15.7475
16.0121
16.2723
16.5038
16.7361
16.9386
17.1507
17.3309
17.5309
17.6936
17.8888
18.0359
14.9575
15.4344
16.5693
17.6884
18.7053
19.5677
20.3372
20.9969
21.6194
22.1661
22.7189
23.2108
23.7399
24.2043
24.7327
25.1826
25.725
26.1659
16.2579
20.9389
25.015
27.7587
29.7844
31.3585
32.7767
34.0583
35.3593
36.6163
37.9754
39.2972
40.7615
42.1458
43.7178
45.1737
46.8837
48.3584
29.9428
47.225
54.8705
58.6735
61.6139
64.4321
67.5796
70.9791
74.7382
78.7142
82.9855
87.3446
91.9055
96.4506
101.1
105.623
110.175
114.577
165.79
160.073
154.899
149.564
144.479
139.678
135.613
132.11
129.27
126.973
125.32
124.044
123.339
122.829
122.825
122.982
123.269
123.826
0.388712
0.426048
0.764334
1.0853
1.42918
1.80191
2.20875
2.64824
3.11419
3.59645
4.08539
4.57088
5.04478
5.49814
5.92298
6.30946
6.64779
6.92634
7.13457
7.26305
7.29755
7.24349
7.07903
6.91998
6.81647
7.13961
7.45206
7.77787
8.06393
8.35627
8.66963
8.84598
8.61477
9.0011
9.20233
39.6339
40.0927
40.2107
44.7402
47.1901
50.8624
54.2567
58.0328
61.8813
65.9465
70.162
74.5618
79.1357
83.8913
88.8327
93.9607
99.2832
104.799
110.517
116.435
122.562
128.895
135.444
142.203
149.183
156.377
163.796
171.43
179.29
187.366
195.668
204.184
212.924
221.873
231.041
240.412
249.995
259.772
269.751
279.912
290.262
300.779
311.471
322.313
333.312
344.44
355.703
367.072
378.551
390.106
401.74
413.416
425.134
436.857
448.574
460.252
471.858
483.364
494.743
505.99
517.132
528.267
539.214
550.031
560.673
571.136
581.392
591.423
601.207
610.72
619.946
628.86
637.446
645.678
653.541
661.008
668.066
674.688
680.86
686.56
691.772
696.478
700.663
704.31
707.406
709.941
711.903
713.26
714.038
714.161
713.51
712.355
710.779
708.644
705.722
702.243
698.143
693.474
688.225
682.436
676.098
669.228
661.828
653.985
645.701
637.018
627.967
618.59
608.928
599.021
588.909
578.63
568.227
557.735
547.196
536.644
526.118
515.65
505.281
495.04
484.975
475.158
465.858
458.716
453.426
448.3
443.523
438.842
434.324
430.1
426.16
422.507
419.166
416.156
413.474
411.181
409.297
407.795
406.537
405.616
405.334
404.876
404.203
401.859
384.764
1.72524
1.03131
1.03419
1.1724
1.38352
1.64922
1.96234
2.3153
2.69919
3.10471
3.52327
3.94749
4.37114
4.78895
5.19621
5.58853
5.96153
6.31117
6.63374
6.92639
7.20604
7.5099
7.86264
8.30725
8.85249
9.48405
10.1596
10.8032
11.6361
12.6129
13.8656
15.5185
16.9005
19.5214
21.0002
24.6865
25.504
26.9599
28.728
30.34
32.1156
33.9134
35.7973
37.7366
39.7476
41.8247
43.9729
46.1924
48.485
50.8523
53.2952
55.8154
58.4135
61.091
63.8482
66.6866
69.606
72.6078
75.6915
78.8582
82.1071
85.439
88.8528
92.349
95.926
99.5839
103.321
107.137
111.029
114.997
119.038
123.151
127.333
131.582
135.894
140.268
144.699
149.185
153.72
158.303
162.927
167.589
172.282
177.002
181.741
186.496
191.256
196.016
200.768
205.504
210.214
214.891
219.531
224.136
228.717
233.301
237.95
242.554
247.1
251.582
255.991
260.32
264.562
268.707
272.748
276.678
280.487
284.17
287.717
291.12
294.372
297.465
300.39
303.14
305.708
308.086
310.267
312.244
314.011
315.56
316.886
317.984
318.846
319.468
319.824
319.917
319.803
319.47
318.896
318.023
316.904
315.533
313.918
312.061
309.97
307.648
305.101
302.337
299.374
296.217
292.881
289.379
285.725
281.936
278.026
274.013
269.91
265.734
261.501
257.227
252.926
248.615
244.308
240.02
235.768
231.57
227.457
223.521
220.077
217.038
214.15
211.398
208.731
206.169
203.743
201.452
199.303
197.304
195.466
193.788
192.286
190.975
189.859
188.906
188.116
187.6
187.221
187.142
186.982
186.731
3.4626
1.75193
1.55751
1.60731
1.75846
1.97862
2.25379
2.57435
2.93124
3.31571
3.71997
4.13777
4.56434
4.99624
5.43192
5.87123
6.3147
6.76469
7.22607
7.70853
8.2173
8.75454
9.33585
9.96993
10.6512
11.3744
12.1377
12.953
13.8568
14.8674
15.9936
17.1634
18.444
19.8417
21.164
22.6034
23.8152
25.1362
26.5223
27.9351
29.4084
30.9321
32.5116
34.1444
35.8326
37.5764
39.377
41.2351
43.1516
45.1272
47.1627
49.2588
51.4161
53.6351
55.9164
58.2605
60.6675
63.138
65.6719
68.2694
70.9305
73.655
76.4426
79.293
82.2056
85.1798
88.2148
91.3097
94.4632
97.6744
100.942
104.263
107.638
111.063
114.537
118.058
121.622
125.228
128.872
132.551
136.262
140.001
143.765
147.55
151.351
155.164
158.984
162.808
166.63
170.447
174.255
178.05
181.832
185.603
189.365
193.124
196.875
200.587
204.255
207.871
211.431
214.927
218.353
221.703
224.972
228.151
231.236
234.22
237.096
239.859
242.501
245.016
247.399
249.642
251.74
253.686
255.475
257.101
258.557
259.84
260.943
261.862
262.592
263.129
263.446
263.561
263.535
263.294
262.853
262.195
261.334
260.273
259.015
257.563
255.922
254.096
252.091
249.915
247.576
245.082
242.443
239.67
236.774
233.768
230.663
227.471
224.206
220.88
217.504
214.093
210.658
207.212
203.766
200.333
196.926
193.559
190.253
187.054
184.068
181.283
178.627
176.08
173.624
171.267
169.02
166.887
164.874
162.987
161.233
159.614
158.139
156.815
155.648
154.632
153.772
153.116
152.668
152.564
152.613
153.264
5.29547
2.52295
2.1287
2.10427
2.21786
2.41261
2.66723
2.97031
3.31318
3.68827
4.08897
4.51001
4.94783
5.40074
5.8681
6.35043
6.84954
7.36804
7.90908
8.47608
9.07136
9.69669
10.3542
11.0437
11.7635
12.5134
13.2983
14.1292
15.0169
15.9659
16.9744
18.0517
19.1625
20.3123
21.4858
22.6959
23.9202
25.2022
26.5337
27.9029
29.3189
30.7834
32.2979
33.8632
35.4803
37.1499
38.8729
40.6501
42.4825
44.3706
46.3154
48.3173
50.377
52.495
54.6718
56.9081
59.2041
61.5603
63.9769
66.4542
68.9921
71.5908
74.2502
76.9699
79.7497
82.5891
85.4875
88.4442
91.4582
94.5285
97.654
100.833
104.065
107.346
110.677
114.054
117.474
120.937
124.439
127.977
131.548
135.149
138.776
142.426
146.096
149.781
153.478
157.182
160.891
164.6
168.307
172.009
175.704
179.389
183.064
186.724
190.36
193.959
197.514
201.019
204.469
207.858
211.178
214.425
217.591
220.671
223.659
226.548
229.332
232.006
234.562
236.995
239.298
241.466
243.493
245.372
247.099
248.667
250.071
251.306
252.367
253.249
253.948
254.461
254.761
254.878
254.844
254.6
254.16
253.519
252.682
251.653
250.434
249.028
247.441
245.676
243.74
241.64
239.384
236.979
234.435
231.763
228.972
226.075
223.084
220.009
216.863
213.657
210.405
207.117
203.807
200.485
197.163
193.854
190.567
187.317
184.121
181.006
178.018
175.168
172.43
169.794
167.253
164.81
162.472
160.244
158.131
156.138
154.27
152.532
150.928
149.466
148.15
146.983
145.974
145.154
144.555
144.283
144.312
144.825
7.06819
3.2887
2.69596
2.60198
2.6787
2.85063
3.0883
3.37749
3.7091
4.07607
4.4726
4.89409
5.3373
5.80038
6.2827
6.78469
7.30753
7.85287
8.4224
9.01759
9.63928
10.288
10.9642
11.6685
12.401
13.1629
13.9582
14.7929
15.6714
16.5946
17.56
18.5723
19.6353
20.7419
21.8893
23.0791
24.3113
25.588
26.9082
28.2751
29.6896
31.1528
32.6659
34.2298
35.8456
37.5144
39.2372
41.0149
42.8485
44.739
46.6877
48.6951
50.7618
52.8885
55.0759
57.3248
59.6359
62.0096
64.4466
66.9473
69.5119
72.1408
74.8341
77.5918
80.4139
83.3
86.2498
89.2627
92.3382
95.4752
98.6727
101.93
105.244
108.615
112.04
115.518
119.046
122.621
126.241
129.904
133.605
137.342
141.111
144.909
148.732
152.576
156.437
160.311
164.194
168.082
171.972
175.859
179.739
183.608
187.459
191.286
195.083
198.84
202.551
206.211
209.811
213.347
216.811
220.196
223.497
226.707
229.819
232.827
235.725
238.505
241.162
243.689
246.08
248.329
250.429
252.375
254.16
255.78
257.229
258.501
259.592
260.497
261.212
261.734
262.037
262.153
262.1
261.832
261.359
260.682
259.804
258.726
257.452
255.986
254.332
252.495
250.483
248.301
245.958
243.462
240.823
238.051
235.157
232.154
229.052
225.864
222.602
219.28
215.908
212.499
209.066
205.621
202.176
198.741
195.33
191.953
188.624
185.365
182.199
179.141
176.185
173.327
170.567
167.906
165.35
162.905
160.574
158.363
156.276
154.319
152.495
150.81
149.27
147.881
146.655
145.618
144.806
144.311
144.146
144.32
8.72538
4.01832
3.23502
3.07384
3.11436
3.26394
3.48504
3.76036
4.07984
4.43648
4.82484
5.24067
5.68084
6.1433
6.62707
7.13206
7.65882
8.20836
8.7818
9.38024
10.0046
10.6556
11.3342
12.0414
12.7785
13.5479
14.3525
15.1957
16.0797
17.0061
17.9755
18.9889
20.0474
21.1506
22.2983
23.4912
24.7301
26.0155
27.3481
28.7291
30.1595
31.6406
33.1735
34.7596
36.4
38.0961
39.8489
41.6597
43.5296
45.4598
47.4511
49.5049
51.6225
53.805
56.0536
58.3692
60.7529
63.2057
65.7282
68.3214
70.9858
73.7221
76.5306
79.4117
82.3656
85.3922
88.4914
91.6628
94.906
98.22
101.604
105.057
108.577
112.163
115.813
119.525
123.296
127.123
131.005
134.937
138.916
142.938
147.001
151.099
155.229
159.386
163.566
167.763
171.974
176.192
180.414
184.634
188.845
193.042
197.217
201.364
205.476
209.544
213.562
217.522
221.418
225.242
228.988
232.647
236.213
239.679
243.037
246.281
249.403
252.397
255.255
257.972
260.539
262.952
265.203
267.286
269.195
270.925
272.469
273.823
274.982
275.94
276.694
277.241
277.556
277.672
277.593
277.29
276.767
276.027
275.072
273.904
272.527
270.944
269.162
267.184
265.019
262.674
260.157
257.476
254.644
251.669
248.565
245.342
242.014
238.594
235.095
231.529
227.911
224.252
220.567
216.867
213.166
209.474
205.803
202.166
198.575
195.046
191.596
188.238
184.975
181.809
178.741
175.775
172.916
170.169
167.539
165.03
162.647
160.395
158.278
156.302
154.474
152.8
151.296
149.985
148.902
148.12
147.652
147.419
10.226
4.69
3.7281
3.50194
3.50683
3.63381
3.83775
4.09822
4.40398
4.74779
5.12436
5.5297
5.96079
6.41557
6.89285
7.39222
7.91392
8.45866
9.02743
9.62139
10.2418
10.8898
11.567
12.2746
13.0146
13.7888
14.5996
15.4491
16.3391
17.2711
18.2462
19.2652
20.329
21.4383
22.5938
23.7966
25.0475
26.3476
27.6979
29.0995
30.5536
32.0618
33.6252
35.2455
36.9241
38.6626
40.4623
42.3249
44.2518
46.2446
48.3047
50.4338
52.6334
54.9051
57.2504
59.6706
62.1673
64.7416
67.395
70.1284
72.943
75.8396
78.8191
81.882
85.0288
88.2598
91.5751
94.9744
98.4575
102.024
105.672
109.401
113.21
117.097
121.059
125.095
129.202
133.376
137.615
141.915
146.273
150.683
155.142
159.645
164.187
168.763
173.366
177.993
182.637
187.291
191.95
196.606
201.253
205.883
210.488
215.06
219.591
224.073
228.498
232.859
237.146
241.353
245.471
249.491
253.406
257.208
260.89
264.442
267.858
271.13
274.251
277.213
280.01
282.634
285.079
287.338
289.405
291.274
292.938
294.394
295.636
296.658
297.458
298.033
298.356
298.464
298.35
297.996
297.404
296.577
295.516
294.226
292.708
290.969
289.012
286.846
284.476
281.912
279.162
276.235
273.144
269.898
266.512
262.997
259.368
255.637
251.821
247.931
243.984
239.992
235.968
231.928
227.882
223.845
219.827
215.841
211.9
208.016
204.204
200.475
196.837
193.295
189.852
186.513
183.283
180.167
177.17
174.298
171.554
168.944
166.472
164.145
161.968
159.953
158.113
156.471
155.061
153.94
153.108
152.459
11.5401
5.288
4.1634
3.87275
3.84478
3.94847
4.13436
4.37887
4.6695
4.9986
5.36093
5.7527
6.17109
6.61417
7.08074
7.57033
8.08304
8.61949
9.18061
9.76762
10.3819
11.0249
11.6984
12.4039
13.1432
13.9182
14.7307
15.5824
16.4751
17.4101
18.3887
19.4121
20.4814
21.5977
22.7621
23.976
25.2406
26.5573
27.9275
29.3527
30.8345
32.3746
33.9745
35.6362
37.3615
39.1521
41.01
42.9371
44.9353
47.0067
49.1531
51.3767
53.6794
56.0633
58.5303
61.0823
63.7212
66.4488
69.2668
72.1767
75.1801
78.2782
81.4723
84.7632
88.1518
91.6386
95.2239
98.9077
102.69
106.569
110.546
114.618
118.785
123.043
127.392
131.827
136.347
140.948
145.626
150.377
155.196
160.079
165.02
170.014
175.055
180.137
185.252
190.395
195.558
200.734
205.915
211.094
216.26
221.406
226.522
231.601
236.631
241.605
246.514
251.347
256.097
260.753
265.307
269.75
274.072
278.266
282.321
286.229
289.983
293.574
296.993
300.233
303.287
306.147
308.807
311.258
313.496
315.513
317.304
318.864
320.188
321.27
322.108
322.698
323.016
323.099
322.931
322.504
321.818
320.876
319.68
318.234
316.541
314.606
312.437
310.039
307.421
304.592
301.56
298.338
294.936
291.367
287.645
283.782
279.795
275.697
271.504
267.23
262.892
258.504
254.079
249.633
245.179
240.73
236.299
231.898
227.539
223.236
219
214.843
210.774
206.799
202.924
199.155
195.496
191.955
188.535
185.242
182.081
179.057
176.175
173.441
170.864
168.453
166.223
164.198
162.406
160.896
159.654
158.563
12.6501
5.8015
4.5324
4.18086
4.12123
4.20175
4.36905
4.59683
4.87139
5.18466
5.53137
5.90789
6.31163
6.74082
7.1944
7.67193
8.17354
8.69981
9.25165
9.83017
10.4366
11.0727
11.74
12.4404
13.1757
13.9475
14.7577
15.6079
16.4998
17.4349
18.4148
19.4408
20.5145
21.6373
22.8107
24.0362
25.3155
26.6499
28.0416
29.4926
31.0051
32.581
34.2225
35.9318
37.711
39.5626
41.4887
43.4919
45.5746
47.7392
49.9883
52.3245
54.7502
57.2681
59.8807
62.5904
65.3995
68.3106
71.3257
74.4469
77.6762
81.0154
84.466
88.0292
91.7063
95.498
99.4048
103.427
107.564
111.816
116.182
120.659
125.248
129.945
134.748
139.653
144.658
149.757
154.948
160.224
165.581
171.013
176.513
182.074
187.691
193.354
199.058
204.792
210.549
216.32
222.095
227.866
233.621
239.351
245.046
250.694
256.287
261.812
267.26
272.621
277.883
283.037
288.072
292.979
297.746
302.364
306.823
311.115
315.229
319.157
322.891
326.421
329.741
332.842
335.717
338.359
340.761
342.918
344.824
346.473
347.861
348.983
349.836
350.416
350.705
350.733
350.482
349.95
349.137
348.046
346.679
345.04
343.133
340.965
338.541
335.871
332.963
329.826
326.471
322.91
319.154
315.217
311.114
306.858
302.466
297.954
293.337
288.632
283.854
279.02
274.144
269.243
264.329
259.417
254.521
249.653
244.825
240.05
235.34
230.707
226.159
221.705
217.351
213.103
208.969
204.953
201.061
197.299
193.672
190.185
186.844
183.656
180.629
177.775
175.108
172.651
170.43
168.485
166.791
165.231
13.5474
6.22506
4.83207
4.42512
4.3352
4.39291
4.54141
4.75208
5.01014
5.30711
5.63763
5.99816
6.38634
6.80059
7.23988
7.70382
8.19272
8.7074
9.24902
9.81935
10.4182
11.0472
11.7081
12.4026
13.1325
13.8994
14.7054
15.552
16.4411
17.3745
18.3539
19.3811
20.4577
21.5858
22.7671
24.0036
25.2973
26.6505
28.0671
29.5473
31.0945
32.7117
34.4013
36.1661
38.0088
39.932
41.9388
44.0321
46.2149
48.4902
50.8613
53.3313
55.9033
58.5806
61.3662
64.2632
67.2747
70.4035
73.6524
77.0239
80.5206
84.1446
87.8979
91.782
95.7985
99.9483
104.232
108.65
113.202
117.887
122.705
127.653
132.731
137.934
143.26
148.705
154.265
159.935
165.71
171.584
177.55
183.602
189.732
195.932
202.194
208.508
214.866
221.257
227.672
234.099
240.529
246.95
253.351
259.718
266.042
272.309
278.508
284.627
290.653
296.576
302.383
308.063
313.603
318.994
324.222
329.279
334.152
338.832
343.309
347.573
351.615
355.427
359
362.326
365.397
368.208
370.751
373.02
375.01
376.716
378.133
379.259
380.089
380.618
380.841
380.77
380.395
379.716
378.734
377.451
375.87
373.995
371.831
369.385
366.666
363.681
360.44
356.955
353.236
349.295
345.145
340.801
336.278
331.59
326.755
321.789
316.71
311.534
306.278
300.959
295.594
290.197
284.784
279.369
273.967
268.591
263.254
257.967
252.744
247.594
242.529
237.557
232.685
227.921
223.27
218.74
214.336
210.064
205.929
201.938
198.097
194.413
190.896
187.557
184.411
181.48
178.787
176.367
174.187
172.135
14.2322
6.55786
5.06324
4.60759
4.48935
4.52511
4.65503
4.84862
5.09022
5.37097
5.68544
6.02973
6.4021
6.80171
7.22864
7.68118
8.15941
8.66377
9.19498
9.75367
10.3412
10.9595
11.6103
12.2954
13.0167
13.7761
14.5755
15.4169
16.3023
17.2338
18.2134
19.2433
20.3257
21.4629
22.6573
23.9114
25.2275
26.6077
28.0542
29.5691
31.1585
32.8261
34.5747
36.4077
38.3281
40.3394
42.445
44.6486
46.9537
49.3643
51.884
54.5168
57.2665
60.137
63.132
66.2552
69.5104
72.9008
76.43
80.101
83.9166
87.8795
91.9918
96.2556
100.672
105.243
109.969
114.849
119.884
125.073
130.413
135.904
141.543
147.325
153.248
159.306
165.495
171.809
178.24
184.782
191.428
198.169
204.995
211.898
218.867
225.893
232.962
240.066
247.19
254.324
261.455
268.569
275.653
282.695
289.679
296.593
303.424
310.157
316.779
323.277
329.637
335.847
341.894
347.766
353.449
358.932
364.205
369.255
374.072
378.646
382.968
387.028
390.819
394.331
397.559
400.494
403.13
405.463
407.488
409.199
410.593
411.668
412.42
412.845
412.944
412.72
412.165
411.284
410.08
408.553
406.707
404.546
402.076
399.306
396.245
392.901
389.286
385.41
381.287
376.928
372.348
367.561
362.583
357.43
352.119
346.668
341.095
335.417
329.653
323.819
317.934
312.012
306.07
300.123
294.185
288.271
282.394
276.566
270.799
265.104
259.492
253.973
248.553
243.242
238.045
232.969
228.021
223.207
218.533
214.005
209.63
205.417
201.375
197.517
193.858
190.418
187.219
184.292
181.598
179.034
14.7149
6.80339
5.22983
4.73298
4.58903
4.60422
4.71622
4.89317
5.11864
5.3837
5.68352
6.01472
6.37444
6.76092
7.17263
7.6098
8.07312
8.56323
9.08097
9.6275
10.2045
10.8132
11.4554
12.1328
12.8475
13.6014
14.3968
15.2358
16.1209
17.0543
18.0388
19.0768
20.171
21.324
22.5389
23.8189
25.1665
26.5841
28.074
29.6394
31.2874
33.0223
34.8485
36.7711
38.7933
40.919
43.1524
45.4979
47.9598
50.5427
53.2512
56.0898
59.0631
62.1758
65.4321
68.8366
72.3933
76.1064
79.9795
84.0163
88.2199
92.593
97.1382
101.857
106.752
111.823
117.071
122.496
128.096
133.87
139.817
145.933
152.215
158.658
165.258
172.008
178.902
185.933
193.093
200.374
207.765
215.258
222.84
230.502
238.231
246.015
253.841
261.695
269.564
277.435
285.291
293.12
300.905
308.632
316.284
323.848
331.307
338.648
345.854
352.911
359.804
366.52
373.044
379.362
385.463
391.333
396.959
402.331
407.437
412.267
416.811
421.059
425.005
428.639
431.954
434.945
437.606
439.931
441.917
443.561
444.859
445.81
446.41
446.66
446.562
446.113
445.31
444.163
442.672
440.84
438.67
436.167
433.338
430.193
426.74
422.991
418.957
414.651
410.085
405.272
400.227
394.966
389.503
383.856
378.043
372.082
365.991
359.789
353.494
347.125
340.699
334.232
327.742
321.243
314.751
308.279
301.842
295.453
289.122
282.863
276.685
270.598
264.611
258.732
252.967
247.325
241.81
236.431
231.194
226.105
221.172
216.405
211.814
207.411
203.213
199.237
195.506
192.047
188.819
185.732
15.0136
6.97025
5.33845
4.80807
4.64139
4.63819
4.73311
4.89474
5.10722
5.35954
5.64552
5.96071
6.30414
6.67485
7.07249
7.49705
7.94869
8.42799
8.93587
9.47355
10.0425
10.6443
11.2808
11.9541
12.6662
13.4197
14.2168
15.0601
15.9524
16.8965
17.8956
18.9535
20.0724
21.2554
22.5057
23.8262
25.2178
26.6874
28.2407
29.8832
31.6199
33.4556
35.3956
37.4455
39.6101
41.8942
44.3029
46.8414
49.515
52.3291
55.289
58.4
61.6674
65.0964
68.6921
72.4592
76.4024
80.5261
84.8343
89.3307
94.0184
98.9002
103.978
109.254
114.729
120.403
126.276
132.347
138.615
145.075
151.726
158.564
165.582
172.776
180.139
187.663
195.341
203.163
211.12
219.201
227.395
235.691
244.075
252.535
261.057
269.626
278.228
286.847
295.469
304.076
312.654
321.186
329.654
338.043
346.335
354.513
362.561
370.463
378.202
385.763
393.129
400.286
407.218
413.912
420.354
426.53
432.429
438.037
443.344
448.34
453.014
457.358
461.364
465.024
468.331
471.281
473.868
476.089
477.94
479.42
480.527
481.261
481.62
481.606
481.226
480.458
479.329
477.838
475.988
473.781
471.222
468.314
465.068
461.492
457.598
453.396
448.9
444.123
439.077
433.777
428.238
422.474
416.502
410.34
404.006
397.517
390.894
384.154
377.317
370.401
363.424
356.403
349.355
342.296
335.241
328.204
321.199
314.24
307.338
300.505
293.752
287.089
280.524
274.066
267.723
261.502
255.409
249.452
243.638
237.974
232.469
227.132
221.975
217.011
212.255
207.727
203.446
199.44
195.666
192.051
15.1249
7.05885
5.39349
4.83903
4.65306
4.63552
4.71782
4.86671
5.06378
5.30046
5.5716
5.87427
6.20621
6.5663
6.95408
7.36957
7.81319
8.28571
8.78821
9.32202
9.88873
10.4902
11.1285
11.8059
12.5252
13.2896
14.1014
14.9632
15.8784
16.8504
17.8821
18.9759
20.1349
21.365
22.6711
24.0584
25.5324
27.0983
28.7618
30.529
32.4057
34.398
36.5122
38.7549
41.1315
43.6481
46.3113
49.1274
52.1028
55.2437
58.5559
62.0453
65.7178
69.5787
73.6336
77.8872
82.3444
87.0094
91.8859
96.977
102.285
107.813
113.562
119.531
125.722
132.133
138.762
145.607
152.665
159.931
167.4
175.066
182.922
190.961
199.173
207.55
216.082
224.757
233.564
242.49
251.522
260.646
269.849
279.114
288.426
297.77
307.128
316.484
325.821
335.121
344.368
353.542
362.626
371.601
380.451
389.156
397.7
406.065
414.233
422.189
429.915
437.397
444.619
451.565
458.223
464.578
470.619
476.333
481.71
486.74
491.412
495.719
499.653
503.208
506.378
509.158
511.545
513.536
515.131
516.327
517.128
517.533
517.538
517.164
516.375
515.205
513.657
511.735
509.443
506.785
503.764
500.386
496.662
492.601
488.214
483.515
478.516
473.231
467.673
461.858
455.8
449.515
443.018
436.328
429.462
422.439
415.278
407.998
400.618
393.155
385.629
378.057
370.454
362.838
355.223
347.624
340.055
332.529
325.059
317.655
310.33
303.092
295.951
288.916
281.994
275.193
268.52
261.983
255.589
249.345
243.263
237.35
231.621
226.088
220.767
215.678
210.839
206.28
201.955
197.817
15.1001
7.07574
5.40083
4.83427
4.63641
4.60672
4.67458
4.80964
4.99542
5.2223
5.48476
5.7796
6.1049
6.45964
6.8435
7.25667
7.69981
8.17404
8.68103
9.22221
9.79916
10.4141
11.0696
11.7683
12.5127
13.3049
14.1474
15.0455
16.0037
17.0265
18.1187
19.2858
20.5328
21.8647
23.2876
24.8079
26.4322
28.1672
30.0197
31.9967
34.1053
36.3529
38.747
41.2944
44.0026
46.8793
49.9324
53.1697
56.5986
60.2255
64.0564
68.097
72.3529
76.8293
81.5309
86.4621
91.6266
97.0275
102.667
108.547
114.669
121.033
127.637
134.481
141.562
148.877
156.421
164.19
172.178
180.379
188.783
197.384
206.172
215.136
224.266
233.55
242.976
252.531
262.201
271.971
281.828
291.754
301.735
311.753
321.792
331.834
341.862
351.858
361.802
371.678
381.467
391.149
400.706
410.12
419.371
428.443
437.315
445.971
454.394
462.566
470.472
478.095
485.42
492.433
499.12
505.468
511.465
517.101
522.364
527.245
531.736
535.829
539.519
542.799
545.665
548.113
550.142
551.751
552.941
553.71
554.07
554.009
553.55
552.658
551.369
549.688
547.621
545.174
542.353
539.163
535.609
531.696
527.434
522.835
517.91
512.673
507.136
501.315
495.223
488.874
482.283
475.467
468.441
461.221
453.827
446.275
438.585
430.774
422.863
414.868
406.808
398.699
390.559
382.403
374.246
366.102
357.986
349.91
341.887
333.928
326.044
318.246
310.542
302.942
295.452
288.082
280.838
273.729
266.762
259.946
253.29
246.807
240.508
234.409
228.525
222.877
217.482
212.372
207.502
202.853
14.9976
7.0549
5.38045
4.80416
4.5934
4.55322
4.61327
4.74203
4.92266
5.14596
5.40673
5.70226
6.03078
6.39123
6.78357
7.20832
7.66637
8.15886
8.6868
9.25078
9.85467
10.5019
11.1959
11.9404
12.7397
13.5986
14.5216
15.5137
16.5805
17.7281
18.9628
20.2916
21.7216
23.2598
24.9139
26.6921
28.6027
30.6542
32.8551
35.2141
37.7394
40.4394
43.3217
46.3937
49.6652
53.1453
56.8436
60.7706
64.9352
69.3409
73.9914
78.8909
84.0426
89.4499
95.1149
101.04
107.225
113.67
120.375
127.339
134.557
142.028
149.747
157.708
165.906
174.334
182.984
191.848
200.918
210.182
219.631
229.253
239.037
248.97
259.039
269.23
279.53
289.923
300.395
310.93
321.511
332.124
342.749
353.372
363.973
374.536
385.041
395.473
405.81
416.036
426.132
436.08
445.86
455.456
464.847
474.018
482.948
491.623
500.024
508.136
515.944
523.431
530.584
537.389
543.833
549.904
555.592
560.887
565.779
570.26
574.324
577.964
581.175
583.952
586.295
588.198
589.665
590.694
591.29
591.447
591.201
590.511
589.393
587.867
585.939
583.618
580.911
577.827
574.375
570.561
566.389
561.865
557.001
551.806
546.293
540.475
534.366
527.979
521.328
514.429
507.294
499.94
492.382
484.637
476.72
468.65
460.443
452.118
443.693
435.185
426.611
417.989
409.333
400.659
391.982
383.317
374.675
366.071
357.517
349.023
340.601
332.261
324.012
315.864
307.823
299.898
292.097
284.429
276.901
269.524
262.306
255.261
248.402
241.745
235.306
229.108
223.166
217.515
212.11
206.972
14.776
7.00102
5.33317
4.75272
4.54059
4.50081
4.56325
4.69742
4.88601
5.1199
5.39405
5.7053
6.05074
6.4315
6.84858
7.30336
7.79771
8.33405
8.9156
9.5459
10.2285
10.9679
11.7692
12.6381
13.5808
14.6041
15.7152
16.9215
18.2312
19.6527
21.1952
22.8683
24.682
26.6465
28.7721
31.0693
33.549
36.2214
39.0971
42.1859
45.4971
49.0398
52.8222
56.8524
61.1383
65.688
70.5093
75.6088
80.9959
86.6681
92.6237
98.8609
105.378
112.172
119.241
126.578
134.181
142.043
150.157
158.516
167.113
175.94
184.986
194.243
203.7
213.347
223.174
233.168
243.318
253.612
264.037
274.581
285.23
295.972
306.792
317.677
328.611
339.581
350.572
361.569
372.555
383.517
394.436
405.299
416.087
426.785
437.375
447.841
458.166
468.332
478.323
488.121
497.71
507.072
516.191
525.051
533.634
541.924
549.907
557.569
564.894
571.87
578.483
584.721
590.572
596.027
601.076
605.712
609.926
613.711
617.063
619.978
622.452
624.479
626.065
627.199
627.898
628.148
627.974
627.365
626.306
624.837
622.956
620.673
617.997
614.937
611.505
607.709
603.561
599.068
594.236
589.07
583.58
577.777
571.672
565.277
558.606
551.671
544.487
537.066
529.422
521.571
513.525
505.302
496.915
488.38
479.715
470.934
462.055
453.095
444.069
434.993
425.883
416.752
407.615
398.485
389.376
380.3
371.268
362.293
353.383
344.55
335.803
327.151
318.602
310.164
301.846
293.655
285.603
277.697
269.949
262.372
254.982
247.794
240.827
234.104
227.641
221.476
215.562
209.961
14.5141
6.89941
5.26505
4.70254
4.50505
4.48059
4.56002
4.71131
4.91922
5.17678
5.4802
5.82802
6.22031
6.65784
7.14267
7.67779
8.26699
8.91492
9.62708
10.4095
11.2689
12.2127
13.2496
14.3887
15.6401
17.0144
18.5234
20.179
21.994
23.9814
26.1546
28.5269
31.112
33.9234
36.9739
40.276
43.841
47.6798
51.8023
56.2167
60.9293
65.9453
71.2697
76.9059
82.8549
89.1177
95.6983
102.596
109.802
117.304
125.09
133.149
141.47
150.042
158.853
167.892
177.145
186.602
196.25
206.077
216.071
226.219
236.511
246.934
257.476
268.126
278.872
289.702
300.605
311.57
322.585
333.638
344.718
355.814
366.912
378.002
389.071
400.108
411.099
422.033
432.896
443.675
454.356
464.927
475.373
485.68
495.833
505.819
515.623
525.23
534.623
543.789
552.713
561.38
569.776
577.884
585.692
593.184
600.348
607.17
613.639
619.743
625.471
630.81
635.751
640.287
644.411
648.116
651.394
654.241
656.653
658.633
660.172
661.263
661.93
662.132
661.932
661.291
660.195
658.697