/*--------------------------------*- C++ -*----------------------------------*\
  =========                 |
  \\      /  F ield         | OpenFOAM: The Open Source CFD Toolbox
   \\    /   O peration     | Website:  https://openfoam.org
    \\  /    A nd           | Version:  9
     \\/     M anipulation  |
\*---------------------------------------------------------------------------*/
FoamFile
{
    format      ascii;
    class       volScalarField;
    location    "210";
    object      k;
}
// * * * * * * * * * * * * * * * * * * * * * * * * * * * * * * * * * * * * * //

dimensions      [0 2 -2 0 0 0 0];

internalField   nonuniform List<scalar> 
12225
(
0.362814
0.343992
0.327745
0.309819
0.2954
0.283483
0.275512
0.270285
0.270339
0.271895
0.276045
0.280754
0.289896
0.295599
0.30698
0.312511
0.326964
0.335087
0.440186
0.468698
0.461605
0.448369
0.450348
0.458313
0.474539
0.498556
0.524389
0.552138
0.580751
0.60619
0.633877
0.653904
0.679846
0.693298
0.717626
0.729374
0.390541
0.417873
0.420231
0.416826
0.411628
0.407803
0.408018
0.410036
0.414555
0.421402
0.430734
0.439716
0.4512
0.461163
0.472887
0.483594
0.493583
0.50623
0.377546
0.386982
0.391406
0.391342
0.390222
0.387896
0.385662
0.384081
0.382882
0.382896
0.383388
0.384324
0.386304
0.388472
0.390923
0.394268
0.396538
0.40105
0.374562
0.37609
0.378412
0.378665
0.378263
0.377205
0.375489
0.373738
0.37201
0.370455
0.369259
0.368106
0.367382
0.366807
0.366446
0.366344
0.366358
0.36672
0.373814
0.37271
0.372645
0.372383
0.371761
0.370817
0.369553
0.368083
0.366571
0.364976
0.363528
0.362063
0.360755
0.359529
0.358397
0.357429
0.356442
0.355789
0.373782
0.371742
0.370386
0.369287
0.368234
0.367114
0.365915
0.364587
0.363238
0.361808
0.360422
0.359024
0.357678
0.356382
0.355121
0.353966
0.352794
0.351804
0.37382
0.37156
0.369634
0.367977
0.366501
0.365108
0.363775
0.362429
0.361107
0.359766
0.35845
0.357144
0.355863
0.354622
0.353401
0.352249
0.351098
0.350052
0.373832
0.371553
0.369449
0.367525
0.365777
0.364154
0.362645
0.361199
0.359817
0.358473
0.35717
0.355903
0.354667
0.353475
0.352307
0.351195
0.350097
0.349072
0.373831
0.37156
0.369418
0.367405
0.365529
0.363773
0.362133
0.360585
0.359122
0.357728
0.356395
0.355118
0.353888
0.35271
0.351569
0.350481
0.349419
0.34842
0.373829
0.37156
0.369413
0.367378
0.365458
0.363645
0.361937
0.360324
0.358799
0.357353
0.355979
0.354672
0.353424
0.352235
0.351094
0.350008
0.348959
0.347969
0.373828
0.371558
0.369409
0.36737
0.365439
0.363609
0.361876
0.360234
0.358677
0.357201
0.3558
0.354468
0.3532
0.351994
0.350842
0.349747
0.348695
0.3477
0.373827
0.371556
0.369405
0.367365
0.36543
0.363593
0.361851
0.360197
0.358626
0.357134
0.355715
0.354368
0.353084
0.351864
0.3507
0.349594
0.348535
0.347532
0.373826
0.371555
0.369401
0.36736
0.365422
0.363583
0.361837
0.360178
0.3586
0.357101
0.355674
0.354317
0.353024
0.351794
0.350622
0.349506
0.34844
0.347427
0.373826
0.371553
0.369398
0.367355
0.365416
0.363575
0.361826
0.360164
0.358584
0.357081
0.355651
0.354289
0.352993
0.351758
0.35058
0.349459
0.348388
0.347368
0.373826
0.371552
0.369396
0.367351
0.36541
0.363567
0.361817
0.360154
0.358572
0.357067
0.355634
0.354271
0.352972
0.351734
0.350554
0.349429
0.348356
0.347333
0.373825
0.371551
0.369394
0.367348
0.365406
0.363562
0.36181
0.360145
0.358562
0.357055
0.355621
0.354256
0.352955
0.351716
0.350535
0.349408
0.348333
0.347309
0.373825
0.371551
0.369393
0.367346
0.365403
0.363558
0.361805
0.360139
0.358555
0.357047
0.355612
0.354245
0.352944
0.351703
0.35052
0.349393
0.348317
0.347291
0.373825
0.37155
0.369393
0.367346
0.365402
0.363557
0.361804
0.360137
0.358552
0.357044
0.355608
0.354241
0.352938
0.351697
0.350513
0.349385
0.348308
0.347281
0.373825
0.371551
0.369393
0.367347
0.365404
0.363559
0.361806
0.36014
0.358555
0.357047
0.355611
0.354244
0.352942
0.351701
0.350517
0.349389
0.348312
0.347285
0.373826
0.371551
0.369395
0.367349
0.365407
0.363563
0.361811
0.360146
0.358562
0.357055
0.355621
0.354256
0.352955
0.351715
0.350534
0.349407
0.348333
0.347308
0.373826
0.371552
0.369397
0.367352
0.365412
0.363571
0.361822
0.360161
0.358583
0.357083
0.355656
0.354299
0.353006
0.351775
0.350602
0.349483
0.348417
0.347398
0.373826
0.371554
0.369399
0.367359
0.365429
0.363603
0.361875
0.36024
0.358691
0.35722
0.355823
0.354494
0.353227
0.352019
0.350866
0.349763
0.348711
0.347701
0.373828
0.371551
0.369412
0.367417
0.365556
0.363819
0.362189
0.360651
0.359189
0.357794
0.356456
0.355172
0.353936
0.352745
0.351601
0.350496
0.349436
0.34841
0.373823
0.371554
0.369605
0.367893
0.366339
0.364892
0.363495
0.362122
0.360761
0.359414
0.358081
0.35677
0.355489
0.354238
0.353029
0.351856
0.350734
0.349645
0.373788
0.371991
0.371113
0.370266
0.36936
0.368311
0.367048
0.36563
0.364121
0.362575
0.36103
0.359522
0.358073
0.356682
0.355382
0.354141
0.35301
0.351924
0.374355
0.375572
0.377775
0.377858
0.377288
0.375886
0.373836
0.371641
0.369505
0.367482
0.365664
0.364084
0.36271
0.361535
0.36061
0.359818
0.359289
0.3588
0.379125
0.394296
0.398249
0.396573
0.392538
0.387603
0.383646
0.380448
0.378268
0.376853
0.376497
0.37674
0.377415
0.37869
0.38044
0.382421
0.384825
0.387136
0.408394
0.42754
0.422416
0.411056
0.402226
0.397924
0.398626
0.400963
0.406069
0.413054
0.420998
0.429827
0.438834
0.448188
0.457304
0.466548
0.475318
0.484176
0.36605
0.353415
0.341988
0.33021
0.318983
0.308381
0.299411
0.291671
0.285404
0.280333
0.276682
0.273866
0.272312
0.271173
0.271211
0.271472
0.272189
0.273389
0.0013353
0.00668252
0.0120035
0.0170303
0.0223924
0.028209
0.0345515
0.0413993
0.0486345
0.0560927
0.0635938
0.0709708
0.0780674
0.0847455
0.0908774
0.0963596
0.101116
0.105133
0.108468
0.110845
0.112675
0.115196
0.117858
0.121293
0.124621
0.130997
0.135445
0.139301
0.142261
0.143745
0.143475
0.142433
0.139629
0.139336
0.13865
0.131728
0.137759
0.147295
0.154857
0.161308
0.169328
0.176793
0.184834
0.192862
0.201152
0.209566
0.218164
0.226917
0.235836
0.244919
0.254163
0.263573
0.273142
0.282879
0.292774
0.302836
0.313053
0.323435
0.333969
0.344663
0.355504
0.366499
0.377635
0.388918
0.400331
0.411882
0.423552
0.43535
0.447253
0.459271
0.47138
0.483588
0.495872
0.508238
0.52066
0.533146
0.545669
0.558236
0.570819
0.583424
0.596022
0.608619
0.621184
0.633723
0.6462
0.658621
0.67095
0.683188
0.695301
0.707282
0.719099
0.730727
0.742138
0.753314
0.764248
0.774967
0.785564
0.79591
0.806032
0.815902
0.82552
0.834864
0.843923
0.852681
0.861123
0.869237
0.877007
0.884423
0.891467
0.898131
0.904397
0.910255
0.91569
0.920691
0.925245
0.929341
0.932967
0.936115
0.93877
0.940925
0.942573
0.943708
0.944333
0.944429
0.94396
0.942849
0.941176
0.93911
0.936659
0.933461
0.929776
0.92553
0.920769
0.915479
0.909692
0.9034
0.896611
0.889305
0.881568
0.873396
0.864819
0.855863
0.846557
0.836936
0.827031
0.816877
0.806503
0.795947
0.785239
0.774416
0.763508
0.752553
0.74158
0.730626
0.719725
0.708931
0.698344
0.688458
0.681256
0.674996
0.669057
0.663203
0.657458
0.651943
0.646657
0.641591
0.636779
0.632252
0.62804
0.624151
0.620587
0.617389
0.614598
0.612206
0.610049
0.608095
0.606483
0.604244
0.600682
0.581968
0.00594975
0.0204474
0.0298513
0.0371168
0.0437452
0.0504199
0.0574217
0.0648176
0.0725474
0.0804881
0.0884943
0.0964236
0.104144
0.111537
0.118496
0.124936
0.130799
0.136073
0.140811
0.145147
0.149396
0.154011
0.159404
0.165893
0.173217
0.180454
0.187246
0.193935
0.200192
0.205796
0.211341
0.218261
0.227848
0.235672
0.245399
0.256521
0.270905
0.28505
0.297233
0.309373
0.322276
0.335505
0.349098
0.363001
0.377229
0.391769
0.406623
0.421788
0.437266
0.453058
0.469166
0.485591
0.502336
0.519403
0.536792
0.554505
0.572542
0.590905
0.609592
0.628602
0.647933
0.667584
0.68755
0.70783
0.728416
0.749305
0.770488
0.791961
0.813712
0.835737
0.858023
0.880562
0.903339
0.926345
0.949565
0.972987
0.996593
1.02037
1.0443
1.06837
1.09256
1.11685
1.14123
1.16566
1.19013
1.21463
1.23911
1.26356
1.28795
1.31225
1.33643
1.36045
1.38427
1.40783
1.43107
1.45394
1.47633
1.49842
1.52022
1.54169
1.56281
1.58356
1.60391
1.62384
1.6433
1.66228
1.68075
1.69867
1.71602
1.73277
1.74889
1.76436
1.77913
1.79318
1.80648
1.81901
1.83072
1.8416
1.85162
1.86074
1.86894
1.8762
1.8825
1.88782
1.89214
1.89533
1.89719
1.89812
1.89853
1.8975
1.89537
1.89212
1.88778
1.88235
1.87585
1.86829
1.85971
1.85011
1.83953
1.82802
1.8156
1.80232
1.78823
1.7734
1.75787
1.74171
1.72498
1.70775
1.69008
1.67203
1.65367
1.63508
1.6163
1.59743
1.5785
1.55961
1.54084
1.52235
1.50449
1.48715
1.4702
1.45362
1.43751
1.42192
1.4069
1.3925
1.37877
1.36575
1.35349
1.34203
1.3314
1.32163
1.31274
1.30477
1.29769
1.29137
1.28571
1.28041
1.27314
1.24939
0.0119639
0.0335211
0.0456171
0.0547483
0.0629031
0.0708107
0.0788045
0.0870168
0.0954583
0.10407
0.112759
0.121425
0.129972
0.138317
0.146389
0.154141
0.161556
0.168662
0.175552
0.182403
0.189484
0.197101
0.205483
0.214666
0.224417
0.234471
0.244659
0.254955
0.265356
0.276163
0.287727
0.300113
0.313386
0.326968
0.341364
0.356501
0.372431
0.388495
0.404644
0.421046
0.43787
0.455097
0.472724
0.490738
0.50914
0.527927
0.547098
0.566655
0.586597
0.606927
0.627645
0.648754
0.670254
0.692146
0.714431
0.73711
0.76018
0.783643
0.807495
0.831736
0.85636
0.881364
0.906744
0.932493
0.958605
0.985073
1.01189
1.03904
1.06651
1.09431
1.1224
1.15078
1.17944
1.20835
1.23751
1.26689
1.29648
1.32625
1.35619
1.38627
1.41647
1.44678
1.47716
1.50758
1.53803
1.56848
1.59889
1.62924
1.6595
1.68964
1.71963
1.74942
1.779
1.80831
1.83734
1.86607
1.89446
1.9225
1.95017
1.97744
2.00426
2.03061
2.05645
2.08174
2.10645
2.13054
2.15398
2.17673
2.19875
2.22001
2.24048
2.2601
2.27885
2.29668
2.31357
2.32947
2.34434
2.35815
2.37086
2.38244
2.39286
2.40207
2.41006
2.4168
2.42226
2.42637
2.42894
2.43014
2.43047
2.42923
2.42656
2.42249
2.41704
2.41021
2.40204
2.39253
2.38172
2.36964
2.35633
2.34183
2.32619
2.30947
2.29174
2.27306
2.25351
2.23315
2.21208
2.19036
2.16808
2.14533
2.12219
2.09873
2.07506
2.05124
2.02737
2.00353
1.97983
1.95638
1.93338
1.91093
1.88896
1.86749
1.8466
1.82635
1.80681
1.78804
1.7701
1.75304
1.73694
1.72183
1.70775
1.69475
1.68287
1.67213
1.66258
1.65415
1.64677
1.64031
1.63293
1.61612
0.0183139
0.0454662
0.0600566
0.0708047
0.0801659
0.0890232
0.0977866
0.106649
0.115678
0.124868
0.134171
0.143522
0.152857
0.162119
0.171269
0.180285
0.189176
0.197986
0.206805
0.215775
0.225073
0.234884
0.245338
0.256462
0.268168
0.280339
0.292898
0.305835
0.319189
0.333069
0.34758
0.362758
0.378626
0.395084
0.412137
0.429771
0.447932
0.466489
0.485391
0.504652
0.524318
0.544407
0.564924
0.585873
0.607254
0.629069
0.651321
0.674012
0.697143
0.720717
0.744736
0.769202
0.794117
0.819482
0.845298
0.871566
0.898284
0.925452
0.953069
0.981131
1.00963
1.03858
1.06795
1.09775
1.12797
1.1586
1.18962
1.22104
1.25283
1.28499
1.3175
1.35034
1.38349
1.41695
1.45069
1.48468
1.51891
1.55336
1.58799
1.62279
1.65773
1.69279
1.72792
1.76312
1.79834
1.83355
1.86872
1.90383
1.93883
1.9737
2.00841
2.04291
2.07718
2.11118
2.14488
2.17824
2.21124
2.24383
2.27597
2.30764
2.33879
2.36937
2.39935
2.42869
2.45734
2.48527
2.51243
2.53878
2.56428
2.58889
2.61257
2.63526
2.65694
2.67756
2.69707
2.71544
2.73262
2.74856
2.76324
2.7766
2.78862
2.79925
2.80846
2.81623
2.82251
2.82728
2.83036
2.83178
2.83204
2.83059
2.82751
2.82282
2.81652
2.80865
2.79921
2.78823
2.77575
2.7618
2.74643
2.72968
2.71161
2.6923
2.67181
2.65021
2.6276
2.60405
2.57967
2.55453
2.52873
2.50237
2.47555
2.44835
2.42089
2.39325
2.36554
2.33785
2.31028
2.28297
2.25605
2.22965
2.20377
2.17846
2.15379
2.12984
2.10667
2.08436
2.06299
2.04261
2.02329
2.00509
1.98806
1.97226
1.95772
1.94451
1.93268
1.92227
1.91329
1.9057
1.89814
1.88499
0.0244533
0.0564008
0.073268
0.0855186
0.0959877
0.105695
0.115128
0.124541
0.134053
0.14371
0.153506
0.163416
0.173403
0.183436
0.193495
0.203576
0.213697
0.223902
0.234263
0.24488
0.255874
0.267358
0.279416
0.292084
0.305349
0.319169
0.333508
0.348358
0.363733
0.379672
0.396213
0.413384
0.431184
0.449584
0.468563
0.488098
0.508151
0.528675
0.549639
0.571041
0.592892
0.615205
0.637987
0.661245
0.684981
0.709201
0.733908
0.759106
0.784799
0.81099
0.837683
0.864881
0.892587
0.920802
0.949528
0.978767
1.00852
1.03878
1.06956
1.10084
1.13263
1.16492
1.19771
1.23099
1.26475
1.29898
1.33367
1.36882
1.4044
1.4404
1.47681
1.51361
1.55078
1.58829
1.62614
1.66429
1.70271
1.7414
1.7803
1.81941
1.85868
1.89808
1.9376
1.97718
2.0168
2.05642
2.096
2.13552
2.17493
2.2142
2.25329
2.29216
2.33077
2.36908
2.40706
2.44465
2.48183
2.51853
2.55473
2.59037
2.62542
2.65982
2.69354
2.72652
2.75871
2.79008
2.82058
2.85016
2.87877
2.90638
2.93293
2.95838
2.98268
3.00579
3.02765
3.04823
3.06748
3.08535
3.10181
3.1168
3.13028
3.14222
3.15258
3.16132
3.16843
3.17385
3.17747
3.17919
3.1795
3.17798
3.17464
3.16951
3.16259
3.15391
3.14347
3.13132
3.11749
3.10201
3.08493
3.06631
3.04621
3.02471
3.00187
2.97779
2.95256
2.92627
2.89901
2.8709
2.84203
2.8125
2.78244
2.75193
2.7211
2.69005
2.65888
2.62771
2.59664
2.56579
2.5353
2.50529
2.4758
2.44691
2.41869
2.39123
2.3646
2.33889
2.31417
2.29052
2.268
2.24669
2.22664
2.20792
2.1906
2.17475
2.16045
2.14781
2.13691
2.12781
2.11942
2.10774
0.030189
0.0661973
0.0851018
0.0987325
0.11023
0.120725
0.130776
0.140684
0.150616
0.160658
0.170847
0.181191
0.191683
0.202314
0.213079
0.223986
0.235056
0.246329
0.25786
0.269722
0.281995
0.294758
0.308074
0.321982
0.336494
0.351601
0.367296
0.383573
0.400434
0.417888
0.435947
0.454618
0.473899
0.493775
0.514235
0.53526
0.556829
0.578922
0.601523
0.624627
0.648235
0.672355
0.696992
0.722154
0.747845
0.774071
0.800839
0.828154
0.856021
0.884446
0.913433
0.942987
0.973112
1.00381
1.03509
1.06695
1.09938
1.1324
1.16601
1.20019
1.23495
1.27028
1.30619
1.34265
1.37967
1.41724
1.45534
1.49396
1.53309
1.57271
1.61281
1.65335
1.69433
1.73572
1.7775
1.81963
1.8621
1.90486
1.94789
1.99117
2.03464
2.07828
2.12205
2.16591
2.20983
2.25376
2.29766
2.34149
2.38521
2.42878
2.47215
2.51528
2.55813
2.60063
2.64275
2.68444
2.72565
2.76633
2.80643
2.8459
2.8847
2.92277
2.96007
2.99654
3.03213
3.06679
3.10048
3.13314
3.16473
3.19519
3.22448
3.25255
3.27935
3.30483
3.32894
3.35164
3.37287
3.39259
3.41076
3.42732
3.44224
3.45547
3.46697
3.47672
3.48467
3.49079
3.495
3.49714
3.4976
3.49612
3.49267
3.48725
3.47988
3.47056
3.45933
3.44621
3.43124
3.41445
3.39591
3.37566
3.35378
3.33033
3.30541
3.27911
3.25151
3.22272
3.19285
3.162
3.13029
3.09783
3.06474
3.03113
2.99712
2.96282
2.92836
2.89383
2.85937
2.82509
2.79112
2.75756
2.72452
2.69208
2.66031
2.6293
2.59915
2.56994
2.54175
2.51467
2.48878
2.46414
2.44084
2.41895
2.39855
2.37974
2.36263
2.34738
2.33413
2.32298
2.31305
2.30124
0.0353794
0.0747696
0.0954451
0.110303
0.122729
0.133948
0.144568
0.154929
0.165234
0.175605
0.186112
0.196792
0.207666
0.218743
0.230036
0.24156
0.253341
0.265411
0.277817
0.290613
0.303855
0.317601
0.331899
0.346784
0.362277
0.378387
0.395115
0.41246
0.430419
0.448993
0.468184
0.48799
0.508408
0.529433
0.551057
0.57327
0.596063
0.619426
0.643352
0.667838
0.692885
0.718497
0.74468
0.771441
0.798787
0.826726
0.855265
0.884412
0.914173
0.944556
0.975568
1.00721
1.0395
1.07244
1.10602
1.14026
1.17516
1.21072
1.24694
1.28382
1.32136
1.35955
1.3984
1.43789
1.47802
1.51878
1.56016
1.60213
1.6447
1.68783
1.73152
1.77573
1.82044
1.86564
1.91129
1.95735
2.00381
2.05062
2.09775
2.14516
2.19282
2.24068
2.28869
2.33683
2.38503
2.43326
2.48147
2.52961
2.57763
2.62549
2.67312
2.72049
2.76753
2.8142
2.86042
2.90616
2.95136
2.99596
3.03991
3.08316
3.12565
3.16733
3.20813
3.24802
3.28693
3.3248
3.3616
3.39726
3.43174
3.46497
3.49692
3.52752
3.55674
3.58451
3.61079
3.63554
3.65869
3.68021
3.70004
3.71814
3.73446
3.74897
3.76161
3.77236
3.78118
3.78804
3.79288
3.79552
3.79624
3.7949
3.79144
3.78585
3.77815
3.76835
3.75647
3.74254
3.7266
3.70869
3.68886
3.66717
3.64369
3.6185
3.59168
3.56333
3.53355
3.50244
3.47013
3.43671
3.40232
3.36707
3.33109
3.29449
3.25741
3.21995
3.18225
3.14443
3.1066
3.06889
3.03143
2.99433
2.95769
2.92162
2.88621
2.85155
2.81773
2.78485
2.75301
2.72228
2.69276
2.66454
2.63769
2.61231
2.58849
2.56636
2.54607
2.52778
2.51169
2.49794
2.48576
2.47268
0.0399218
0.0820664
0.104234
0.120141
0.133376
0.145238
0.15637
0.167142
0.177782
0.188438
0.199208
0.210153
0.221315
0.232725
0.244405
0.256381
0.26868
0.281334
0.294382
0.307865
0.321826
0.336308
0.351349
0.366978
0.383216
0.400079
0.417571
0.435697
0.454455
0.473847
0.49387
0.514524
0.535807
0.557717
0.58025
0.603403
0.627175
0.651561
0.67656
0.702173
0.728402
0.755254
0.782734
0.810851
0.839614
0.869032
0.899114
0.92987
0.96131
0.993442
1.02627
1.05982
1.09408
1.12907
1.16479
1.20125
1.23845
1.2764
1.3151
1.35454
1.39474
1.43569
1.47738
1.5198
1.56296
1.60684
1.65142
1.69669
1.74264
1.78925
1.83649
1.88434
1.93278
1.98176
2.03128
2.08128
2.13173
2.1826
2.23384
2.28541
2.33726
2.38936
2.44164
2.49407
2.54658
2.59914
2.65167
2.70413
2.75646
2.80861
2.86051
2.9121
2.96334
3.01414
3.06446
3.11422
3.16338
3.21187
3.25963
3.3066
3.35272
3.39794
3.44219
3.48542
3.52757
3.56858
3.60839
3.64696
3.68423
3.72014
3.75464
3.78769
3.81922
3.84919
3.87755
3.90424
3.92923
3.95245
3.97388
3.99344
4.01112
4.02685
4.04061
4.05234
4.06202
4.06961
4.07507
4.07825
4.07931
4.07818
4.07479
4.06912
4.06119
4.05101
4.03861
4.024
4.00723
3.98834
3.96739
3.94441
3.9195
3.89273
3.86418
3.83395
3.80216
3.76889
3.73429
3.69845
3.66152
3.6236
3.58483
3.54534
3.50526
3.46471
3.42382
3.38272
3.34153
3.30039
3.25941
3.21872
3.17843
3.13865
3.09948
3.06103
3.02339
2.98667
2.95096
2.91636
2.88296
2.85087
2.82018
2.79099
2.76343
2.73762
2.71375
2.69202
2.67262
2.65574
2.64069
2.62546
0.0437566
0.0880806
0.111459
0.128228
0.14214
0.15455
0.166127
0.17726
0.188195
0.199099
0.210089
0.221245
0.232628
0.24428
0.256239
0.268536
0.281201
0.294267
0.307767
0.321734
0.336205
0.351211
0.366782
0.382944
0.399716
0.417114
0.435147
0.453822
0.473142
0.49311
0.513728
0.534996
0.556915
0.579487
0.602713
0.626595
0.651134
0.676333
0.702195
0.728724
0.755927
0.783811
0.812385
0.841659
0.871644
0.902353
0.933796
0.965985
0.998934
1.03265
1.06715
1.10245
1.13854
1.17545
1.21318
1.25174
1.29114
1.33138
1.37247
1.41441
1.45719
1.50082
1.5453
1.59061
1.63675
1.68371
1.73148
1.78003
1.82936
1.87943
1.93023
1.98173
2.03389
2.08669
2.14008
2.19403
2.24851
2.30345
2.35883
2.41458
2.47066
2.52701
2.58359
2.64032
2.69716
2.75404
2.8109
2.86768
2.92432
2.98074
3.03689
3.09269
3.14808
3.20299
3.25734
3.31108
3.36414
3.41644
3.46793
3.51855
3.56821
3.61688
3.66447
3.71093
3.75619
3.80021
3.84292
3.88426
3.92418
3.96262
3.99953
4.03486
4.06856
4.10058
4.13087
4.15937
4.18605
4.21085
4.23374
4.25466
4.27357
4.29043
4.30521
4.31785
4.32833
4.33662
4.34266
4.34638
4.34781
4.34692
4.34365
4.33796
4.32987
4.31939
4.30656
4.29139
4.27392
4.25418
4.23223
4.20813
4.18195
4.15375
4.12364
4.09171
4.05806
4.0228
3.98606
3.94795
3.90861
3.86816
3.82673
3.78445
3.74146
3.69789
3.65388
3.60954
3.56502
3.52045
3.47594
3.43164
3.38765
3.3441
3.30109
3.25873
3.21714
3.17641
3.13666
3.09799
3.0605
3.0243
2.9895
2.95622
2.9246
2.8948
2.867
2.84143
2.81831
2.79784
2.77938
2.76133
0.0468552
0.0928406
0.11716
0.134608
0.14906
0.161916
0.173862
0.185299
0.196484
0.207598
0.218769
0.230091
0.241638
0.253463
0.265613
0.278125
0.291032
0.304368
0.318162
0.332445
0.347247
0.362594
0.378511
0.39502
0.412141
0.429887
0.448272
0.467304
0.486992
0.507342
0.528358
0.550047
0.572412
0.59546
0.619195
0.643624
0.668753
0.694589
0.721139
0.748411
0.776417
0.805165
0.834669
0.864942
0.895998
0.92785
0.960514
0.994005
1.02834
1.06352
1.09958
1.13652
1.17436
1.2131
1.25277
1.29336
1.3349
1.37738
1.42081
1.4652
1.51054
1.55683
1.60408
1.65227
1.70139
1.75144
1.8024
1.85424
1.90696
1.96052
2.0149
2.07006
2.12597
2.1826
2.2399
2.29783
2.35634
2.41538
2.4749
2.53485
2.59515
2.65577
2.71662
2.77765
2.8388
2.89998
2.96113
3.02219
3.08307
3.14371
3.20403
3.26396
3.32342
3.38233
3.44062
3.49822
3.55505
3.61104
3.66613
3.72023
3.77328
3.82522
3.87597
3.92548
3.97368
4.02051
4.0659
4.10981
4.15217
4.19293
4.23204
4.26944
4.30509
4.33894
4.37094
4.40104
4.4292
4.45538
4.47954
4.50162
4.5216
4.53944
4.55508
4.56851
4.57969
4.58857
4.59513
4.59931
4.60109
4.60045
4.59732
4.59162
4.58341
4.57271
4.55952
4.54388
4.52582
4.50537
4.48257
4.45749
4.43019
4.40075
4.36925
4.33578
4.30046
4.26339
4.22469
4.18448
4.1429
4.10007
4.05613
4.0112
3.96543
3.91896
3.87191
3.82442
3.77664
3.72868
3.68068
3.63278
3.58509
3.53774
3.49085
3.44453
3.39889
3.35406
3.31013
3.26724
3.22548
3.18498
3.14587
3.10827
3.07234
3.03826
3.00623
2.9765
2.9493
2.92484
2.90255
2.88115
0.0492194
0.0964091
0.121421
0.139376
0.154236
0.167434
0.179667
0.191344
0.202729
0.214008
0.225318
0.236763
0.248422
0.260359
0.272625
0.285263
0.298311
0.3118
0.32576
0.34022
0.355206
0.370741
0.386848
0.403546
0.420856
0.438791
0.457368
0.476598
0.496494
0.517065
0.538321
0.560272
0.582927
0.606296
0.63039
0.655218
0.680794
0.707126
0.734229
0.762113
0.790791
0.82028
0.850596
0.881755
0.913775
0.946673
0.980468
1.01518
1.05082
1.08741
1.12496
1.1635
1.20304
1.24359
1.28516
1.32777
1.37143
1.41615
1.46193
1.50878
1.55669
1.60567
1.65572
1.70681
1.75895
1.81213
1.86631
1.92149
1.97763
2.03471
2.0927
2.15155
2.21124
2.27172
2.33294
2.39485
2.4574
2.52053
2.58417
2.64828
2.71278
2.77761
2.84268
2.90794
2.9733
3.0387
3.10404
3.16925
3.23426
3.29897
3.36332
3.42721
3.49056
3.5533
3.61533
3.67658
3.73697
3.79642
3.85486
3.9122
3.96839
4.02334
4.07699
4.12928
4.18012
4.22947
4.27726
4.32343
4.36794
4.41071
4.45171
4.49089
4.52819
4.56357
4.59698
4.6284
4.65776
4.68505
4.71021
4.73321
4.75401
4.77259
4.7889
4.80293
4.81462
4.82396
4.83091
4.83544
4.83752
4.83708
4.83409
4.82838
4.82007
4.80918
4.79571
4.77969
4.76114
4.7401
4.7166
4.69071
4.66246
4.63195
4.59925
4.56446
4.52766
4.48898
4.44853
4.40643
4.36281
4.3178
4.27153
4.22415
4.17577
4.12655
4.07662
4.02612
3.97518
3.92394
3.87254
3.82111
3.76978
3.71868
3.66792
3.61763
3.56793
3.51895
3.47079
3.42359
3.37746
3.33254
3.28896
3.24688
3.20647
3.16791
3.13142
3.09728
3.06571
3.03696
3.0105
2.98537
0.050885
0.0988876
0.124363
0.142664
0.157807
0.171246
0.183682
0.19553
0.207056
0.218451
0.229854
0.241375
0.2531
0.265095
0.277417
0.290109
0.30321
0.316754
0.330772
0.34529
0.360334
0.375928
0.392094
0.408851
0.426218
0.444213
0.462852
0.482152
0.502129
0.522798
0.544173
0.566268
0.589097
0.612676
0.637019
0.662145
0.688067
0.714802
0.742367
0.770777
0.800053
0.830213
0.861277
0.893268
0.926207
0.960114
0.995012
1.03092
1.06786
1.10585
1.14492
1.18507
1.22634
1.26873
1.31225
1.35693
1.40278
1.44979
1.49799
1.54737
1.59793
1.64967
1.70258
1.75666
1.81189
1.86826
1.92573
1.9843
2.04392
2.10456
2.16619
2.22877
2.29225
2.35657
2.4217
2.48756
2.5541
2.62126
2.68896
2.75714
2.82573
2.89464
2.9638
3.03312
3.10253
3.17194
3.24126
3.31041
3.3793
3.44784
3.51594
3.58352
3.65047
3.71672
3.78217
3.84675
3.91036
3.97292
4.03435
4.09458
4.15353
4.21111
4.26727
4.32193
4.37503
4.4265
4.47628
4.52432
4.57057
4.61496
4.65745
4.69799
4.73655
4.77308
4.80753
4.83988
4.87009
4.89813
4.92395
4.94754
4.96887
4.9879
5.00461
5.01898
5.03097
5.04057
5.04775
5.05248
5.05475
5.05446
5.05157
5.04581
5.03742
5.02637
5.01268
4.99637
4.97745
4.95595
4.9319
4.90535
4.87636
4.84498
4.8113
4.77539
4.73737
4.69732
4.65536
4.61162
4.56621
4.51927
4.47092
4.4213
4.37055
4.3188
4.2662
4.21288
4.15898
4.10463
4.04999
3.99517
3.94032
3.88556
3.83103
3.77684
3.72314
3.67003
3.61766
3.56614
3.51562
3.46624
3.41814
3.37149
3.32648
3.28331
3.24222
3.20349
3.16736
3.13409
3.10322
3.07409
0.0519147
0.10039
0.126124
0.144628
0.159938
0.173519
0.186077
0.198023
0.20963
0.221087
0.232538
0.244091
0.255832
0.26783
0.280143
0.292818
0.305896
0.319412
0.333396
0.347877
0.362882
0.378435
0.394562
0.411286
0.428615
0.446572
0.465181
0.484462
0.504437
0.525125
0.546546
0.568717
0.591658
0.615383
0.639924
0.665301
0.691531
0.718634
0.746634
0.775554
0.805418
0.836253
0.868082
0.900933
0.934829
0.969795
1.00586
1.04304
1.08137
1.12086
1.16153
1.20342
1.24653
1.29089
1.3365
1.38339
1.43156
1.48102
1.53178
1.58384
1.63719
1.69183
1.74775
1.80493
1.86337
1.92302
1.98388
2.0459
2.10906
2.1733
2.2386
2.30489
2.37213
2.44026
2.50922
2.57894
2.64936
2.7204
2.79199
2.86405
2.9365
3.00926
3.08223
3.15534
3.22849
3.30158
3.37454
3.44725
3.51963
3.59159
3.66302
3.73384
3.80395
3.87325
3.94165
4.00906
4.07539
4.14056
4.20448
4.26707
4.32825
4.38794
4.44608
4.50259
4.55741
4.61047
4.66172
4.71111
4.75857
4.80406
4.84753
4.88895
4.92828
4.96547
5.0005
5.03333
5.06394
5.09229
5.11838
5.14217
5.16365
5.18279
5.19958
5.21399
5.22602
5.23564
5.24283
5.2476
5.24992
5.24969
5.24685
5.24102
5.23252
5.22136
5.20751
5.19099
5.17182
5.15
5.12557
5.09856
5.06902
5.03701
5.00259
4.96585
4.92686
4.88574
4.84257
4.79748
4.75059
4.70202
4.65189
4.60034
4.5475
4.49351
4.43851
4.38264
4.32603
4.26882
4.21116
4.15317
4.095
4.03678
3.97864
3.92071
3.86312
3.80602
3.74952
3.69377
3.63892
3.58511
3.53251
3.48129
3.43166
3.38384
3.33809
3.29468
3.25387
3.21596
3.18055
3.14728
0.0522971
0.100952
0.126823
0.145421
0.1608
0.174436
0.187037
0.199017
0.210644
0.222107
0.233547
0.245074
0.256776
0.268722
0.28097
0.29357
0.306561
0.319982
0.333863
0.348237
0.363131
0.378575
0.394596
0.411226
0.428465
0.446343
0.464886
0.484119
0.504068
0.524757
0.546212
0.568456
0.591512
0.615402
0.640184
0.665858
0.692437
0.71996
0.748463
0.777975
0.808528
0.840152
0.872877
0.906735
0.941753
0.977958
1.01538
1.05404
1.09397
1.13519
1.17772
1.22159
1.26681
1.31339
1.36136
1.41071
1.46147
1.51364
1.5672
1.62217
1.67854
1.73629
1.7954
1.85586
1.91764
1.98072
2.04505
2.11059
2.17731
2.24516
2.31409
2.38403
2.45493
2.52672
2.59933
2.6727
2.74675
2.82139
2.89655
2.97214
3.04807
3.12426
3.2006
3.27702
3.3534
3.42966
3.50569
3.58139
3.65667
3.73143
3.80557
3.87899
3.95159
4.02327
4.09394
4.16351
4.23187
4.29895
4.36466
4.42891
4.49163
4.55274
4.61217
4.66984
4.7257
4.77968
4.83173
4.8818
4.92983
4.97579
5.01963
5.06132
5.10083
5.13811
5.17316
5.20593
5.23643
5.26462
5.2905
5.31405
5.33526
5.35412
5.37062
5.38476
5.39651
5.40588
5.41286
5.41746
5.4197
5.41944
5.41658
5.41062
5.40204
5.39079
5.37686
5.36025
5.34096
5.31899
5.29437
5.26712
5.23729
5.20491
5.17004
5.13276
5.09314
5.05127
5.00725
4.96117
4.91316
4.86332
4.81178
4.75866
4.7041
4.64823
4.59118
4.53309
4.47411
4.41435
4.35398
4.29312
4.23191
4.17049
4.10899
4.04755
3.98631
3.9254
3.86496
3.80515
3.7461
3.68799
3.63099
3.5753
3.52112
3.4687
3.41829
3.3702
3.32471
3.28212
3.24211
3.20465
0.0522105
0.100821
0.126662
0.145244
0.160606
0.174222
0.186797
0.198744
0.21033
0.221746
0.233132
0.244597
0.256228
0.268094
0.280253
0.292754
0.305639
0.318946
0.332709
0.346961
0.361732
0.377051
0.392946
0.409441
0.426563
0.444348
0.462826
0.48203
0.501991
0.522742
0.544313
0.566734
0.590034
0.614243
0.639396
0.665511
0.692606
0.720749
0.749977
0.780328
0.811837
0.84454
0.878475
0.913681
0.950182
0.988006
1.02718
1.06774
1.1097
1.15309
1.19792
1.24421
1.29198
1.34123
1.39198
1.44424
1.49799
1.55324
1.60998
1.6682
1.72789
1.78901
1.85155
1.91547
1.98074
2.04732
2.11517
2.18424
2.25447
2.32581
2.3982
2.47157
2.54586
2.62099
2.6969
2.77349
2.8507
2.92842
3.00659
3.0851
3.16388
3.24281
3.32181
3.40078
3.47963
3.55824
3.63652
3.71437
3.79169
3.86838
3.94433
4.01944
4.09363
4.16677
4.23879
4.30959
4.37907
4.44714
4.51372
4.57873
4.6421
4.70373
4.76358
4.82155
4.8776
4.93167
4.98371
5.03368
5.08151
5.12719
5.17067
5.21193
5.25093
5.28766
5.3221
5.35422
5.38403
5.41152
5.43667
5.4595
5.48
5.49816
5.514
5.5275
5.53868
5.54752
5.55404
5.55827
5.56028
5.55989
5.55694
5.55086
5.54221
5.53095
5.51704
5.50048
5.48124
5.45933
5.43475
5.40753
5.37768
5.34525
5.31028
5.27283
5.23296
5.19075
5.14628
5.09964
5.05093
5.00026
4.94774
4.8935
4.83765
4.78032
4.72165
4.66177
4.60082
4.53892
4.47622
4.41287
4.34898
4.28471
4.22019
4.15556
4.09096
4.02653
3.96242
3.89879
3.83579
3.7736
3.7124
3.65239
3.59381
3.53692
3.48198
3.4293
3.37919
3.33197
3.2874
3.24582
0.0518387
0.1003
0.125938
0.144384
0.159625
0.173122
0.18558
0.197409
0.208876
0.22017
0.231429
0.242763
0.254256
0.265977
0.277985
0.290329
0.303054
0.316202
0.329809
0.343913
0.358547
0.373747
0.38955
0.405995
0.423116
0.440948
0.459528
0.478893
0.499088
0.52016
0.542137
0.565049
0.588934
0.613826
0.639747
0.66671
0.694802
0.724095
0.75463
0.786447
0.819584
0.854077
0.889955
0.927245
0.96598
1.00619
1.04791
1.09116
1.13597
1.18236
1.23031
1.27984
1.33095
1.38365
1.43792
1.49375
1.55115
1.61009
1.67054
1.73248
1.79589
1.86072
1.92694
1.99451
2.06337
2.13349
2.20479
2.27723
2.35075
2.42528
2.50075
2.5771
2.65424
2.73212
2.81063
2.88972
2.96928
3.04924
3.1295
3.20999
3.2906
3.37124
3.45182
3.53224
3.6124
3.69221
3.77156
3.85036
3.9285
4.00589
4.08242
4.158
4.23253
4.30591
4.37806
4.44887
4.51825
4.58613
4.65241
4.71702
4.77988
4.84093
4.90009
4.9573
5.01249
5.06563
5.11667
5.16556
5.21228
5.25677
5.29903
5.33902
5.37673
5.41214
5.44523
5.47601
5.50448
5.53065
5.55451
5.57608
5.59537
5.61239
5.62714
5.63964
5.6499
5.65792
5.66374
5.66739
5.669
5.66842
5.66532
5.6591
5.65044
5.63926
5.62551
5.60916
5.59018
5.56857
5.54431
5.51741
5.48788
5.45575
5.42105
5.38383
5.34413
5.30202
5.25755
5.21081
5.16188
5.11085
5.05784
5.00294
4.94628
4.88798
4.82815
4.76693
4.70445
4.64085
4.57626
4.51082
4.44466
4.37793
4.31076
4.24329
4.17567
4.10805
4.04058
3.97342
3.90675
3.84073
3.77557
3.71149
3.64872
3.58753
3.52822
3.47109
3.4164
3.36458
3.31543
3.26977
0.0511028
0.0990834
0.1244
0.142613
0.15764
0.170934
0.183201
0.194852
0.206153
0.217292
0.228406
0.239602
0.250966
0.262566
0.274463
0.28671
0.299356
0.312446
0.326025
0.340139
0.354828
0.370136
0.386108
0.402794
0.420255
0.438519
0.457626
0.477624
0.498558
0.520455
0.543315
0.567235
0.59228
0.618512
0.645996
0.674788
0.704936
0.73649
0.769497
0.803996
0.840021
0.877601
0.916761
0.95752
0.999897
1.04391
1.08956
1.13687
1.18581
1.23639
1.2886
1.34241
1.39783
1.45482
1.51337
1.57344
1.63501
1.69803
1.76247
1.82828
1.89542
1.96384
2.03349
2.10432
2.17628
2.24929
2.32332
2.39828
2.47413
2.55079
2.6282
2.70628
2.78497
2.8642
2.94388
3.02395
3.10431
3.1849
3.26563
3.34641
3.42716
3.5078
3.58823
3.66836
3.7481
3.82736
3.90604
3.98405