/*--------------------------------*- C++ -*----------------------------------*\
  =========                 |
  \\      /  F ield         | OpenFOAM: The Open Source CFD Toolbox
   \\    /   O peration     | Website:  https://openfoam.org
    \\  /    A nd           | Version:  9
     \\/     M anipulation  |
\*---------------------------------------------------------------------------*/
FoamFile
{
    format      ascii;
    class       volScalarField;
    location    "210";
    object      nut;
}
// * * * * * * * * * * * * * * * * * * * * * * * * * * * * * * * * * * * * * //

dimensions      [0 2 -1 0 0 0 0];

internalField   nonuniform List<scalar> 
12225
(
4.14925e-05
3.93408e-05
3.74831e-05
3.54329e-05
3.3784e-05
3.2421e-05
3.15094e-05
3.09116e-05
3.09176e-05
3.10984e-05
3.15663e-05
3.21226e-05
3.31488e-05
3.37982e-05
3.51265e-05
3.57215e-05
3.74825e-05
3.9801e-05
0.000332214
0.000215176
0.000179271
0.000157675
0.000146211
0.000138206
0.000132734
0.000131663
0.000129497
0.000130076
0.000129036
0.00012945
0.000128655
0.000128556
0.000128092
0.000127399
0.000127454
0.000126335
0.00066868
0.000450658
0.000355756
0.00030983
0.000275284
0.000251096
0.000231709
0.000217275
0.000202665
0.000192133
0.000182607
0.000175212
0.000169364
0.000163678
0.000160291
0.000155549
0.000153815
0.000149779
0.000801681
0.000691661
0.000572551
0.000500053
0.000449382
0.000411984
0.000380773
0.000356006
0.000333997
0.000314782
0.000298362
0.000281627
0.000270328
0.00025606
0.000248203
0.000236109
0.000230526
0.000220356
0.000839623
0.000810187
0.000740704
0.000676412
0.00062393
0.000581385
0.000545864
0.00051456
0.00048951
0.00046443
0.000445859
0.000424058
0.000409929
0.000390793
0.000379889
0.000363007
0.000354783
0.000339337
0.000850344
0.000843277
0.000819554
0.000786525
0.000750772
0.000715885
0.000685753
0.000656131
0.000632543
0.000607516
0.000588992
0.000567241
0.000552275
0.000533086
0.000520786
0.000503639
0.000493672
0.000477294
0.000851579
0.000851019
0.0008433
0.000833476
0.000817111
0.000796951
0.000777869
0.000756735
0.000738897
0.000719144
0.00070353
0.000685616
0.000672117
0.000655913
0.000644312
0.000629451
0.000619853
0.000604977
0.000851581
0.000851815
0.000850038
0.000847462
0.000841401
0.00083375
0.000824823
0.000813433
0.00080281
0.00079047
0.000779713
0.000767536
0.000757423
0.000745775
0.000736549
0.000725455
0.000717485
0.000705869
0.000851673
0.000851531
0.000851015
0.000850343
0.000848875
0.00084617
0.000843027
0.000838305
0.000833402
0.00082736
0.000821217
0.000814767
0.00080843
0.000801501
0.000795293
0.000788319
0.00078252
0.00077494
0.000851754
0.000851386
0.000851043
0.000850633
0.000850247
0.000849368
0.000848404
0.00084678
0.000844956
0.00084253
0.000839923
0.000836798
0.000833795
0.000830149
0.000826974
0.000822915
0.000819923
0.000815284
0.000851784
0.000851358
0.000851012
0.000850613
0.000850329
0.000849905
0.000849526
0.000848929
0.000848303
0.000847393
0.000846465
0.000845176
0.00084399
0.000842351
0.000840996
0.00083903
0.00083764
0.00083536
0.000851788
0.000851359
0.000850996
0.000850605
0.000850292
0.000849938
0.000849646
0.00084928
0.000848955
0.000848504
0.000848098
0.000847507
0.000846997
0.000846244
0.000845641
0.00084472
0.000844057
0.000842975
0.000851786
0.000851363
0.000850985
0.000850604
0.000850269
0.000849926
0.00084963
0.000849313
0.000849042
0.000848729
0.000848462
0.000848126
0.000847843
0.000847465
0.000847156
0.000846725
0.000846386
0.000845902
0.000851783
0.000851364
0.000850978
0.000850602
0.000850256
0.000849916
0.000849607
0.0008493
0.000849022
0.00084874
0.000848488
0.000848224
0.000847988
0.000847735
0.000847508
0.000847257
0.000847033
0.000846783
0.000851781
0.000851364
0.000850973
0.000850598
0.000850246
0.000849908
0.000849592
0.000849286
0.000849
0.000848723
0.000848463
0.000848211
0.000847975
0.000847744
0.000847527
0.000847316
0.000847114
0.000846919
0.00085178
0.000851363
0.000850969
0.000850594
0.000850239
0.000849901
0.00084958
0.000849275
0.000848984
0.000848707
0.000848443
0.000848191
0.000847951
0.000847721
0.000847502
0.000847293
0.000847092
0.000846901
0.000851779
0.000851362
0.000850967
0.000850591
0.000850234
0.000849895
0.000849572
0.000849265
0.000848973
0.000848694
0.000848428
0.000848175
0.000847933
0.000847701
0.00084748
0.000847269
0.000847067
0.000846874
0.000851779
0.000851362
0.000850965
0.000850588
0.000850231
0.00084989
0.000849567
0.000849259
0.000848965
0.000848685
0.000848418
0.000848163
0.00084792
0.000847687
0.000847465
0.000847252
0.000847048
0.000846854
0.000851779
0.000851362
0.000850965
0.000850588
0.00085023
0.000849889
0.000849565
0.000849256
0.000848962
0.000848681
0.000848414
0.000848158
0.000847914
0.00084768
0.000847457
0.000847243
0.000847039
0.000846843
0.000851779
0.000851362
0.000850966
0.000850589
0.000850231
0.000849891
0.000849567
0.000849259
0.000848965
0.000848685
0.000848417
0.000848162
0.000847917
0.000847684
0.00084746
0.000847246
0.000847041
0.000846844
0.000851779
0.000851363
0.000850967
0.000850592
0.000850235
0.000849897
0.000849573
0.000849267
0.000848972
0.000848694
0.000848424
0.000848168
0.000847919
0.000847683
0.000847451
0.000847231
0.000847012
0.000846806
0.000851778
0.000851366
0.000850968
0.000850599
0.00085024
0.000849907
0.00084958
0.000849274
0.000848964
0.000848671
0.000848365
0.000848072
0.000847756
0.000847455
0.000847123
0.000846811
0.000846457
0.000846136
0.000851773
0.000851376
0.000850971
0.000850615
0.000850241
0.000849889
0.000849478
0.000849054
0.000848529
0.000847978
0.000847301
0.000846604
0.000845767
0.000844939
0.000843954
0.000843029
0.000841917
0.000840939
0.000851768
0.000851415
0.000850964
0.000850548
0.000849861
0.000848966
0.00084761
0.000845976
0.000843904
0.000841636
0.000838955
0.000836214
0.000833116
0.000830113
0.000826762
0.000823679
0.000820183
0.000817177
0.000851859
0.00085138
0.000850196
0.000848243
0.00084447
0.000839354
0.000832765
0.000825658
0.000817961
0.000810011
0.000801617
0.000793627
0.000785331
0.000777706
0.000769742
0.000762699
0.000755122
0.000748794
0.000852108
0.000847667
0.000839902
0.000827146
0.000808707
0.000789645
0.000769975
0.000751412
0.000733304
0.000716895
0.000700933
0.000686779
0.000672829
0.000660669
0.000648377
0.00063794
0.000626952
0.000618019
0.000843241
0.000822506
0.000775184
0.000726459
0.000684894
0.000649851
0.000618461
0.000592019
0.000568381
0.000548311
0.000529688
0.00051399
0.000498751
0.000486016
0.000473201
0.000462707
0.000451622
0.000442804
0.000795685
0.000668241
0.000570627
0.000509904
0.000465605
0.000431183
0.000404146
0.00038248
0.000364199
0.000349069
0.000335941
0.000325061
0.000314506
0.000306236
0.000297959
0.000291367
0.000284281
0.000278932
0.000501314
0.000348356
0.000292674
0.00025918
0.000236322
0.000221177
0.00021162
0.000203854
0.000198564
0.000195075
0.000192221
0.000190368
0.000188583
0.000187438
0.000186166
0.000185472
0.000184555
0.000184142
7.27384e-05
7.02255e-05
6.79541e-05
6.56137e-05
6.33828e-05
6.12762e-05
5.94944e-05
5.79551e-05
5.67109e-05
5.57031e-05
5.49777e-05
5.44179e-05
5.41097e-05
5.3881e-05
5.38977e-05
5.39327e-05
5.40914e-05
5.4324e-05
4.12829e-07
9.43331e-06
1.69657e-05
2.40513e-05
3.1576e-05
3.97453e-05
4.86438e-05
5.82468e-05
6.83573e-05
7.87375e-05
8.9092e-05
9.91749e-05
0.000108727
0.00011756
0.000125491
0.000132447
0.000138423
0.000143619
0.000148414
0.00015225
0.000156574
0.00016488
0.000176598
0.000191342
0.000205052
0.000216316
0.000221559
0.000224537
0.000225874
0.000222544
0.000213696
0.000206405
0.00020368
0.000194121
0.000188011
3.94029e-05
4.26005e-05
4.85597e-05
4.82402e-05
4.96256e-05
5.07346e-05
5.18462e-05
5.29826e-05
5.40975e-05
5.52205e-05
5.63355e-05
5.74502e-05
5.85606e-05
5.96687e-05
6.07736e-05
6.18756e-05
6.2975e-05
6.40714e-05
6.51652e-05
6.6256e-05
6.73442e-05
6.84292e-05
6.95114e-05
7.05901e-05
7.16656e-05
7.27373e-05
7.38052e-05
7.48687e-05
7.59279e-05
7.6982e-05
7.80311e-05
7.90742e-05
8.01115e-05
8.11421e-05
8.21659e-05
8.3182e-05
8.41905e-05
8.51902e-05
8.61813e-05
8.71626e-05
8.81342e-05
8.9095e-05
9.0045e-05
9.09831e-05
9.19094e-05
9.28226e-05
9.37229e-05
9.4609e-05
9.54809e-05
9.63373e-05
9.71782e-05
9.80021e-05
9.88091e-05
9.95977e-05
0.000100368
0.000101117
0.000101845
0.000102551
0.000103232
0.000103889
0.000104522
0.000105136
0.000105733
0.000106306
0.000106858
0.000107389
0.000107896
0.00010838
0.000108841
0.000109277
0.000109689
0.000110076
0.000110438
0.000110774
0.000111083
0.000111366
0.000111622
0.00011185
0.00011205
0.000112222
0.000112365
0.000112478
0.000112562
0.000112615
0.000112638
0.000112629
0.000112589
0.000112524
0.000112424
0.000112293
0.000112131
0.000111915
0.000111671
0.000111424
0.000111122
0.000110793
0.000110428
0.00011003
0.0001096
0.000109136
0.000108641
0.000108113
0.000107547
0.000106951
0.000106324
0.000105668
0.000104982
0.000104268
0.000103529
0.000102765
0.000101978
0.00010117
0.000100343
9.94989e-05
9.86389e-05
9.77652e-05
9.68799e-05
9.59849e-05
9.50824e-05
9.41748e-05
9.32675e-05
9.23725e-05
9.15679e-05
9.10583e-05
9.04353e-05
8.9867e-05
8.92523e-05
8.86481e-05
8.8074e-05
8.75025e-05
8.69334e-05
8.63748e-05
8.58295e-05
8.53023e-05
8.47957e-05
8.42974e-05
8.38149e-05
8.33649e-05
8.29733e-05
8.25767e-05
8.21056e-05
8.17631e-05
8.12956e-05
8.08087e-05
7.92221e-05
1.84667e-06
3.64864e-05
7.75475e-05
0.000105757
0.000124485
0.00013873
0.000151224
0.000163313
0.00017549
0.000187795
0.000200045
0.000211977
0.000223313
0.000233796
0.0002432
0.000251376
0.000258281
0.000264043
0.000269002
0.00027375
0.000278755
0.000284257
0.000290851
0.000298155
0.000305042
0.000309016
0.000310593
0.000313329
0.000309978
0.000302206
0.000289917
0.000276278
0.000276461
0.000256064
0.000258085
0.0002399
0.000258982
0.000271249
0.000276778
0.000283916
0.000291061
0.000298723
0.000306398
0.000314265
0.000322213
0.000330271
0.000338408
0.000346626
0.000354916
0.000363278
0.000371712
0.000380216
0.000388793
0.000397442
0.000406167
0.000414969
0.000423849
0.000432808
0.000441848
0.00045097
0.000460174
0.00046946
0.000478829
0.000488279
0.000497811
0.000507423
0.000517114
0.00052688
0.000536721
0.000546633
0.000556615
0.000566661
0.000576771
0.000586938
0.00059716
0.000607432
0.00061775
0.000628108
0.000638504
0.000648931
0.000659389
0.000669869
0.000680372
0.000690891
0.000701424
0.000711965
0.000722513
0.000733061
0.000743608
0.000754146
0.00076467
0.000775158
0.000785572
0.000795847
0.000805876
0.000815487
0.000824377
0.000833114
0.000841743
0.000850267
0.000858677
0.000866971
0.00087514
0.000883178
0.000891077
0.000898829
0.000906428
0.000913865
0.000921134
0.000928226
0.000935132
0.000941846
0.000948357
0.000954656
0.000960735
0.000966584
0.000972192
0.000977552
0.000982653
0.000987486
0.000992041
0.000996316
0.0010003
0.00100401
0.00100749
0.00101059
0.00101293
0.00101499
0.00101725
0.00101894
0.00102024
0.00102116
0.00102171
0.00102189
0.00102169
0.00102112
0.0010202
0.00101893
0.00101729
0.0010153
0.00101296
0.00101027
0.00100726
0.00100393
0.0010003
0.000996379
0.000992188
0.000987743
0.000983065
0.00097817
0.000973081
0.000967814
0.000962392
0.000956831
0.00095115
0.000945356
0.000939421
0.000933151
0.000925655
0.000917106
0.000908403
0.00089959
0.000890997
0.000882611
0.000874355
0.000866287
0.000858444
0.00085084
0.000843495
0.000836453
0.000829685
0.000823158
0.000816899
0.000811087
0.000805679
0.000800038
0.000794639
0.000788448
0.000780175
0.000752351
3.72034e-06
5.77245e-05
0.000120245
0.000167836
0.000202513
0.000228075
0.000247988
0.000264717
0.000279782
0.000293978
0.000307612
0.000320693
0.000333092
0.000344625
0.000355063
0.000364209
0.000371993
0.000378468
0.000383842
0.00038845
0.000393239
0.000399381
0.000407044
0.000415983
0.000425556
0.000435004
0.000443842
0.000451648
0.000457336
0.000461677
0.000465864
0.000472291
0.000479235
0.000484925
0.00049554
0.000506045
0.000524179
0.000540396
0.000555619
0.000571153
0.000586761
0.000602617
0.000618614
0.00063478
0.000651086
0.000667535
0.000684116
0.000700829
0.000717671
0.000734644
0.000751748
0.000768986
0.000786362
0.000803876
0.000821531
0.00083933
0.000857274
0.000875364
0.0008936
0.000911983
0.000930512
0.000949186
0.000968002
0.000986959
0.00100605
0.00102528
0.00104464
0.00106411
0.00108371
0.00110342
0.00112323
0.00114313
0.00116313
0.00118321
0.00120335
0.00122356
0.00124383
0.00126413
0.00128447
0.00130484
0.00132521
0.00134559
0.00136597
0.00138633
0.00140666
0.00142695
0.00144719
0.00146736
0.00148746
0.00150745
0.00152731
0.001547
0.00156647
0.00158564
0.00160444
0.00162278
0.00164068
0.00165834
0.00167578
0.00169298
0.00170995
0.00172665
0.00174308
0.00175923
0.00177507
0.0017906
0.0018058
0.00182065
0.00183515
0.00184926
0.00186299
0.0018763
0.00188919
0.00190164
0.00191362
0.00192513
0.00193613
0.00194663
0.00195659
0.001966
0.00197484
0.00198309
0.00199075
0.00199781
0.00200443
0.00201036
0.00201483
0.00201867
0.00202261
0.00202561
0.00202781
0.00202926
0.00202994
0.00202988
0.00202905
0.00202749
0.00202519
0.00202215
0.00201839
0.00201392
0.00200874
0.00200288
0.00199636
0.00198921
0.00198145
0.00197312
0.00196424
0.00195487
0.00194503
0.00193476
0.00192411
0.00191312
0.00190182
0.00189026
0.00187847
0.00186648
0.00185425
0.00184154
0.00182768
0.00181291
0.00179779
0.00178258
0.00176758
0.00175282
0.00173832
0.00172414
0.00171034
0.00169697
0.00168406
0.00167167
0.0016598
0.00164842
0.00163756
0.00162736
0.00161781
0.00160831
0.00159868
0.00158724
0.00157248
0.00153373
5.70033e-06
7.37412e-05
0.000152493
0.00021442
0.000260788
0.000295639
0.000322657
0.000344631
0.000363497
0.000380472
0.000396228
0.000411058
0.000425009
0.000437985
0.000449885
0.000460638
0.000470233
0.000478808
0.000486677
0.000494365
0.000502592
0.000512064
0.000523184
0.000536013
0.0005502
0.000565241
0.000580601
0.000595798
0.000610603
0.000625343
0.000640558
0.000656085
0.000673304
0.000691613
0.000711501
0.000732436
0.00075492
0.000777116
0.000799152
0.000821441
0.000843886
0.000866509
0.0008893
0.000912264
0.000935397
0.000958698
0.000982169
0.00100581
0.00102962
0.0010536
0.00107776
0.0011021
0.00112663
0.00115134
0.00117625
0.00120135
0.00122664
0.00125213
0.00127781
0.00130369
0.00132975
0.00135601
0.00138244
0.00140906
0.00143584
0.00146279
0.0014899
0.00151716
0.00154456
0.0015721
0.00159975
0.00162751
0.00165537
0.00168331
0.00171133
0.0017394
0.00176752
0.00179566
0.00182382
0.00185199
0.00188014
0.00190825
0.00193632
0.00196433
0.00199226
0.00202009
0.0020478
0.00207537
0.00210277
0.00212998
0.00215697
0.00218369
0.0022101
0.00223614
0.00226175
0.00228693
0.00231173
0.00233621
0.00236037
0.00238419
0.00240766
0.00243076
0.00245347
0.00247578
0.00249766
0.00251909
0.00254006
0.00256055
0.00258053
0.00259999
0.0026189
0.00263725
0.00265502
0.00267217
0.00268869
0.00270456
0.00271975
0.00273423
0.00274799
0.00276101
0.00277325
0.0027847
0.00279534
0.00280515
0.00281437
0.00282259
0.00282912
0.00283467
0.0028401
0.00284437
0.00284758
0.00284974
0.00285086
0.00285094
0.00284998
0.00284798
0.00284495
0.00284091
0.00283585
0.0028298
0.00282277
0.00281479
0.00280588
0.00279608
0.00278543
0.00277398
0.00276176
0.00274882
0.00273522
0.00272101
0.00270624
0.00269097
0.00267526
0.00265916
0.00264273
0.00262601
0.00260898
0.0025915
0.00257321
0.00255423
0.0025349
0.00251546
0.00249617
0.00247714
0.00245842
0.00244009
0.00242225
0.00240494
0.00238823
0.00237219
0.00235684
0.00234221
0.00232831
0.00231524
0.00230297
0.0022911
0.00227915
0.00226536
0.00224696
0.00220809
7.61396e-06
8.70541e-05
0.000179208
0.000252964
0.000309564
0.000352701
0.000386266
0.000413305
0.000436043
0.000456009
0.000474171
0.000491087
0.000507029
0.000522101
0.000536334
0.000549752
0.000562432
0.000574553
0.000586425
0.000598495
0.000611292
0.000625313
0.000640867
0.000658025
0.00067667
0.000696517
0.000717176
0.000738314
0.000759805
0.000781794
0.000804591
0.000828099
0.000852179
0.000877031
0.000902705
0.000929045
0.000955914
0.000983065
0.00101045
0.00103794
0.00106559
0.00109341
0.00112143
0.00114964
0.00117805
0.00120665
0.00123546
0.00126446
0.00129367
0.00132308
0.0013527
0.00138252
0.00141256
0.00144283
0.00147332
0.00150404
0.00153498
0.00156615
0.00159754
0.00162915
0.00166097
0.001693
0.00172523
0.00175766
0.00179027
0.00182306
0.00185602
0.00188913
0.00192239
0.00195577
0.00198927
0.00202288
0.00205656
0.00209032
0.00212414
0.00215799
0.00219186
0.00222573
0.00225958
0.0022934
0.00232717
0.00236086
0.00239446
0.00242794
0.00246128
0.00249447
0.00252748
0.00256027
0.00259284
0.00262514
0.00265716
0.00268885
0.00272018
0.00275114
0.0027817
0.00281186
0.00284162
0.002871
0.00289999
0.00292858
0.00295673
0.00298443
0.00301167
0.00303842
0.00306466
0.00309037
0.00311553
0.00314012
0.00316412
0.0031875
0.00321024
0.00323232
0.00325372
0.0032744
0.00329435
0.00331355
0.00333195
0.00334954
0.00336629
0.00338218
0.00339717
0.00341125
0.00342438
0.00343654
0.00344801
0.00345828
0.00346688
0.00347419
0.00348114
0.00348684
0.0034913
0.00349451
0.00349649
0.00349723
0.00349673
0.00349498
0.003492
0.00348779
0.00348235
0.00347572
0.00346789
0.00345891
0.0034488
0.0034376
0.00342536
0.00341211
0.00339792
0.00338283
0.0033669
0.00335021
0.0033328
0.00331475
0.00329612
0.00327698
0.00325741
0.00323745
0.00321713
0.00319639
0.00317509
0.00315327
0.00313115
0.00310894
0.00308681
0.00306493
0.00304337
0.00302224
0.00300164
0.00298165
0.00296234
0.0029438
0.00292609
0.00290925
0.00289333
0.00287838
0.00286441
0.00285115
0.0028381
0.00282363
0.00280462
0.00277044
9.40063e-06
9.81472e-05
0.000201485
0.000285418
0.000351132
0.000401881
0.000441666
0.0004737
0.000500425
0.00052361
0.000544473
0.000563807
0.000582101
0.00059964
0.000616597
0.000633095
0.000649268
0.000665299
0.000681439
0.000698009
0.000715364
0.00073383
0.000753637
0.000774873
0.000797476
0.000821246
0.000845954
0.000871402
0.000897485
0.000924182
0.000951546
0.000979571
0.00100822
0.00103748
0.00106732
0.00109765
0.0011284
0.00115945
0.00119075
0.00122225
0.00125396
0.00128587
0.00131798
0.00135029
0.00138281
0.00141555
0.00144849
0.00148166
0.00151505
0.00154867
0.00158252
0.00161661
0.00165093
0.00168548
0.00172026
0.00175527
0.0017905
0.00182595
0.00186163
0.00189752
0.00193361
0.00196991
0.0020064
0.00204308
0.00207994
0.00211695
0.00215412
0.00219144
0.00222887
0.00226642
0.00230407
0.00234179
0.00237958
0.00241742
0.00245529
0.00249317
0.00253104
0.00256888
0.00260668
0.0026444
0.00268204
0.00271958
0.00275698
0.00279423
0.0028313
0.00286818
0.00290484
0.00294125
0.00297738
0.00301323
0.00304875
0.00308393
0.00311875
0.00315317
0.00318721
0.00322083
0.00325403
0.00328681
0.00331915
0.00335104
0.00338245
0.00341337
0.00344377
0.00347363
0.00350295
0.00353168
0.00355982
0.00358734
0.00361421
0.00364043
0.00366596
0.00369079
0.00371488
0.00373821
0.00376077
0.00378251
0.00380342
0.00382346
0.00384261
0.00386083
0.00387811
0.00389441
0.0039097
0.00392395
0.00393744
0.00394964
0.0039603
0.00396948
0.00397803
0.00398532
0.00399127
0.00399586
0.00399909
0.00400094
0.00400141
0.0040005
0.00399822
0.00399455
0.00398951
0.00398311
0.00397538
0.00396632
0.00395599
0.0039444
0.00393161
0.00391766
0.00390261
0.00388651
0.00386942
0.00385141
0.00383255
0.00381291
0.00379256
0.00377159
0.00375006
0.00372805
0.0037056
0.00368274
0.00365942
0.00363569
0.00361169
0.00358759
0.00356354
0.0035397
0.00351617
0.00349308
0.00347052
0.00344861
0.00342743
0.00340709
0.00338766
0.00336923
0.00335186
0.00333563
0.00332054
0.00330647
0.00329299
0.00327885
0.00326117
0.00323305
1.10164e-05
0.00010728
0.000219919
0.000312684
0.000386563
0.000444376
0.000490128
0.000527125
0.000557952
0.000584555
0.000608346
0.000630314
0.000651131
0.000671238
0.000690933
0.000710426
0.000729894
0.000749514
0.000769481
0.000790013
0.000811336
0.000833652
0.000857106
0.000881765
0.000907602
0.000934521
0.000962387
0.000991069
0.00102047
0.00105051
0.00108119
0.00111247
0.00114433
0.00117672
0.00120961
0.00124293
0.00127662
0.00131063
0.00134491
0.00137943
0.00141417
0.00144912
0.00148428
0.00151965
0.00155523
0.00159102
0.00162702
0.00166324
0.00169968
0.00173635
0.00177324
0.00181036
0.0018477
0.00188526
0.00192305
0.00196106
0.00199928
0.00203772
0.00207637
0.00211522
0.00215427
0.00219351
0.00223293
0.00227252
0.00231227
0.00235218
0.00239222
0.00243239
0.00247267
0.00251304
0.0025535
0.00259402
0.00263459
0.00267518
0.00271579
0.00275639
0.00279697
0.00283749
0.00287795
0.00291832
0.00295859
0.00299872
0.0030387
0.00307851
0.00311812
0.00315751
0.00319666
0.00323554
0.00327414
0.00331242
0.00335037
0.00338797
0.0034252
0.00346203
0.00349846
0.00353447
0.00357004
0.00360517
0.00363984
0.00367403
0.00370772
0.00374089
0.00377353
0.00380561
0.00383712
0.00386803
0.00389832
0.00392799
0.00395699
0.00398533
0.00401296
0.00403988
0.00406605
0.00409146
0.00411607
0.00413987
0.00416282
0.0041849
0.00420608
0.00422633
0.00424562
0.00426392
0.00428119
0.0042974
0.00431284
0.00432692
0.00433964
0.00435084
0.00436116
0.00437024
0.00437793
0.00438418
0.004389
0.00439236
0.00439425
0.00439467
0.0043936
0.00439106
0.00438703
0.00438152
0.00437456
0.00436615
0.00435634
0.00434514
0.0043326
0.00431877
0.0043037
0.00428744
0.00427005
0.0042516
0.00423215
0.00421179
0.0041906
0.00416864
0.00414601
0.00412279
0.00409905
0.00407483
0.00405017
0.00402514
0.00399983
0.00397439
0.00394897
0.00392369
0.0038987
0.00387411
0.00385005
0.00382664
0.00380398
0.00378219
0.00376138
0.00374165
0.00372311
0.00370584
0.00368991
0.00367526
0.00366162
0.00364801
0.00363216
0.0036093
1.24295e-05
0.000114626
0.000234863
0.000335434
0.000416416
0.000480809
0.000532283
0.000574184
0.000609182
0.000639341
0.000666215
0.000690942
0.000714338
0.000736973
0.000759248
0.000781445
0.00080378
0.00082643
0.000849559
0.000873321
0.000897861
0.000923297
0.000949717
0.000977157
0.00100561
0.00103503
0.00106532
0.00109642
0.00112823
0.00116069
0.00119376
0.00122739
0.00126154
0.00129617
0.00133125
0.00136673
0.00140255
0.00143869
0.0014751
0.00151176
0.00154863
0.00158571
0.001623
0.00166048
0.00169816
0.00173604
0.00177412
0.0018124
0.00185089
0.00188959
0.0019285
0.00196761
0.00200693
0.00204646
0.0020862
0.00212614
0.00216628
0.00220662
0.00224715
0.00228787
0.00232878
0.00236985
0.0024111
0.00245251
0.00249406
0.00253575
0.00257757
0.0026195
0.00266154
0.00270366
0.00274585
0.0027881
0.00283038
0.00287269
0.00291501
0.00295731
0.00299958
0.0030418
0.00308394
0.003126
0.00316794
0.00320975
0.0032514
0.00329287
0.00333414
0.00337519
0.003416
0.00345654
0.00349679
0.00353673
0.00357635
0.00361561
0.0036545
0.00369301
0.00373111
0.00376879
0.00380604
0.00384283
0.00387915
0.00391499
0.00395033
0.00398514
0.00401942
0.00405313
0.00408627
0.00411882
0.00415076
0.00418207
0.00421273
0.00424272
0.00427203
0.00430063
0.0043285
0.00435562
0.00438197
0.00440753
0.00443226
0.00445614
0.00447914
0.00450124
0.0045224
0.00454259
0.00456178
0.00457993
0.00459729
0.00461331
0.0046281
0.00464148
0.00465378
0.00466485
0.00467452
0.00468272
0.00468943
0.00469464
0.00469833
0.00470048
0.00470109
0.00470013
0.00469761
0.00469352
0.00468788
0.00468069
0.00467197
0.00466177
0.0046501
0.00463702
0.00462256
0.00460677
0.00458972
0.00457148
0.0045521
0.00453166
0.00451024
0.00448793
0.00446481
0.00444097
0.0044165
0.00439146
0.00436593
0.00433998
0.00431372
0.00428727
0.00426077
0.00423435
0.00420816
0.00418232
0.00415696
0.00413223
0.00410825
0.00408515
0.00406306
0.00404211
0.00402244
0.00400417
0.00398741
0.00397219
0.00395835
0.0039452
0.00393096
0.00391246
1.36219e-05
0.000120355
0.000246685
0.000353953
0.000441211
0.00051162
0.000568506
0.000615182
0.000654341
0.000688115
0.000718149
0.000745689
0.000771656
0.000796722
0.00082137
0.000845945
0.000870696
0.00089581
0.000921438
0.000947713
0.000974743
0.0010026
0.00103131
0.00106091
0.00109137
0.00112268
0.00115477
0.0011876
0.00122109
0.00125519
0.00128986
0.00132504
0.00136069
0.00139678
0.00143326
0.00147011
0.00150729
0.00154479
0.00158254
0.00162052
0.00165871
0.00169707
0.00173562
0.00177434
0.00181323
0.0018523
0.00189154
0.00193097
0.00197058
0.00201037
0.00205034
0.00209051
0.00213086
0.00217139
0.00221212
0.00225303
0.00229412
0.0023354
0.00237685
0.00241849
0.00246029
0.00250226
0.0025444
0.00258668
0.00262911
0.00267168
0.00271437
0.00275718
0.0028001
0.0028431
0.00288619
0.00292934
0.00297254
0.00301577
0.00305902
0.00310227
0.0031455
0.00318869
0.00323183
0.00327489
0.00331785
0.0033607
0.0034034
0.00344594
0.0034883
0.00353045
0.00357237
0.00361404
0.00365543
0.00369654
0.00373733
0.00377778
0.00381788
0.0038576
0.00389693
0.00393584
0.00397433
0.00401237
0.00404995
0.00408705
0.00412365
0.00415974
0.00419529
0.0042303
0.00426474
0.00429861
0.00433188
0.00436453
0.00439656
0.00442795
0.00445867
0.00448871
0.00451806
0.0045467
0.00457459
0.00460173
0.00462808
0.00465363
0.00467835
0.00470221
0.00472518
0.00474723
0.00476832
0.00478845
0.00480775
0.00482579
0.00484272
0.00485839
0.00487289
0.00488617
0.00489806
0.00490844
0.00491733
0.00492469
0.00493051
0.00493476
0.00493741
0.00493844
0.00493784
0.00493561
0.00493173
0.00492622
0.00491909
0.00491036
0.00490006
0.00488822
0.00487487
0.00486007
0.00484386
0.00482631
0.00480749
0.00478745
0.00476629
0.00474409
0.00472092
0.0046969
0.00467209
0.00464661
0.00462052
0.00459393
0.00456695
0.00453969
0.00451228
0.00448487
0.0044576
0.0044306
0.00440402
0.00437801
0.00435272
0.00432829
0.00430488
0.00428265
0.00426176
0.00424237
0.00422465
0.00420868
0.00419444
0.00418144
0.00416837
0.00415323
1.45849e-05
0.000124616
0.000255661
0.000368519
0.000461271
0.000537119
0.000599048
0.000650285
0.000693503
0.000730855
0.00076404
0.000794374
0.000822849
0.000850211
0.000877022
0.000903684
0.000930459
0.000957528
0.000985015
0.00101298
0.00104166
0.0010711
0.00110131
0.00113232
0.00116409
0.00119661
0.00122984
0.00126373
0.00129824
0.00133331
0.0013689
0.00140496
0.00144146
0.00147836
0.00151562
0.00155321
0.00159111
0.00162927
0.00166756
0.0017061
0.00174481
0.00178365
0.00182262
0.00186172
0.00190096
0.00194033
0.00197986
0.00201953
0.00205936
0.00209934
0.00213949
0.00217979
0.00222027
0.00226092
0.00230174
0.00234273
0.0023839
0.00242524
0.00246677
0.00250846
0.00255034
0.00259238
0.0026346
0.00267698
0.00271952
0.00276222
0.00280506
0.00284805
0.00289116
0.00293439
0.00297774
0.00302117
0.0030647
0.00310829
0.00315193
0.0031956
0.0032393
0.00328299
0.00332667
0.0033703
0.00341387
0.00345736
0.00350074
0.003544
0.0035871
0.00363002
0.00367275
0.00371526
0.00375752
0.00379951
0.00384121
0.0038826
0.00392366
0.00396435
0.00400467
0.0040446
0.00408411
0.00412318
0.00416181
0.00419996
0.00423763
0.0042748
0.00431145
0.00434757
0.00438314
0.00441815
0.00445258
0.00448643
0.00451967
0.0045523
0.0045843
0.00461566
0.00464636
0.00467639
0.00470572
0.00473435
0.00476225
0.0047894
0.00481578
0.00484136
0.00486611
0.00489002
0.00491303
0.00493518
0.00495644
0.00497662
0.00499578
0.00501381
0.00503072
0.0050464
0.00506074
0.00507352
0.00508481
0.0050946
0.00510283
0.00510948
0.0051145
0.00511787
0.00511956
0.00511955
0.00511783
0.0051144
0.00510926
0.00510242
0.00509389
0.00508371
0.00507189
0.00505849
0.00504354
0.0050271
0.00500922
0.00498999
0.00496946
0.00494772
0.00492487
0.00490098
0.00487617
0.00485051
0.00482413
0.0047971
0.00476956
0.00474162
0.00471342
0.00468509
0.00465679
0.00462865
0.00460085
0.00457354
0.00454688
0.00452104
0.00449619
0.00447253
0.00445025
0.00442955
0.00441063
0.00439366
0.0043787
0.00436545
0.00435296
0.00434016
1.53195e-05
0.00012756
0.000262061
0.00037944
0.000476902
0.000557572
0.000624106
0.0006796
0.000726669
0.000767449
0.000803658
0.000836706
0.000867562
0.000896952
0.000925373
0.000953468
0.00098157
0.00100992
0.00103869
0.00106806
0.00109808
0.00112874
0.00116006
0.00119203
0.00122463
0.00125786
0.00129166
0.00132602
0.00136088
0.00139622
0.00143197
0.00146812
0.00150461
0.00154143
0.00157853
0.00161588
0.00165348
0.00169133
0.00172945
0.00176784
0.0018063
0.0018448
0.00188335
0.00192197
0.00196066
0.00199946
0.00203837
0.00207739
0.00211654
0.00215583
0.00219526
0.00223484
0.00227457
0.00231448
0.00235455
0.00239481
0.00243525
0.00247588
0.00251671
0.00255773
0.00259896
0.0026404
0.00268204
0.00272388
0.00276593
0.00280818
0.00285063
0.00289327
0.00293609
0.0029791
0.00302226
0.00306559
0.00310905
0.00315265
0.00319635
0.00324016
0.00328404
0.00332797
0.00337195
0.00341594
0.00345992
0.00350388
0.00354777
0.00359159
0.0036353
0.00367888
0.0037223
0.00376553
0.00380856
0.00385135
0.00389387
0.00393612
0.00397805
0.00401964
0.00406088
0.00410175
0.00414221
0.00418225
0.00422185
0.004261
0.00429967
0.00433785
0.00437553
0.00441269
0.00444932
0.0044854
0.00452093
0.0045559
0.00459029
0.00462409
0.0046573
0.0046899
0.00472189
0.00475324
0.00478396
0.00481402
0.00484342
0.00487213
0.00490013
0.00492741
0.00495395
0.00497971
0.00500467
0.00502883
0.00505214
0.00507452
0.00509601
0.00511649
0.00513593
0.0051542
0.00517119
0.00518654
0.00520045
0.00521288
0.00522378
0.0052331
0.00524079
0.0052468
0.00525109
0.00525364
0.00525441
0.00525341
0.00525061
0.00524601
0.00523963
0.00523148
0.00522156
0.00520992
0.00519659
0.00518162
0.00516504
0.00514694
0.00512738
0.00510643
0.00508419
0.00506074
0.00503617
0.0050106
0.00498412
0.00495685
0.0049289
0.0049004
0.00487149
0.00484231
0.00481301
0.00478375
0.0047547
0.00472604
0.00469793
0.00467057
0.00464416
0.00461891
0.00459505
0.0045728
0.00455242
0.00453414
0.0045181
0.00450415
0.00449166
0.00448024
1.58367e-05
0.00012936
0.000266157
0.000387024
0.000488399
0.000573226
0.000643849
0.000703201
0.000753815
0.000797751
0.000836621
0.00087179
0.000904448
0.000935494
0.000965672
0.000995385
0.00102492
0.00105451
0.00108434
0.00111454
0.00114515
0.00117625
0.00120785
0.00123997
0.00127259
0.00130569
0.00133925
0.00137323
0.00140762
0.00144237
0.00147744
0.0015128
0.00154842
0.00158429
0.00162037
0.00165663
0.00169309
0.00172978
0.00176675
0.00180398
0.00184124
0.00187851
0.00191577
0.00195299
0.00199022
0.00202751
0.00206487
0.00210234
0.00213991
0.00217761
0.00221546
0.00225346
0.00229164
0.00233
0.00236857
0.00240735
0.00244636
0.00248561
0.00252511
0.00256487
0.0026049
0.0026452
0.00268578
0.00272664
0.00276778