/*--------------------------------*- C++ -*----------------------------------*\
  =========                 |
  \\      /  F ield         | OpenFOAM: The Open Source CFD Toolbox
   \\    /   O peration     | Website:  https://openfoam.org
    \\  /    A nd           | Version:  9
     \\/     M anipulation  |
\*---------------------------------------------------------------------------*/
FoamFile
{
    format      ascii;
    class       volVectorField;
    location    "210";
    object      U;
}
// * * * * * * * * * * * * * * * * * * * * * * * * * * * * * * * * * * * * * //

dimensions      [0 1 -1 0 0 0 0];

internalField   nonuniform List<vector> 
12225
(
(9.85697 -0.886445 0)
(9.66664 -0.740746 0)
(9.45571 -0.429481 0)
(9.22452 -0.222212 0)
(9.00647 -0.106456 0)
(8.81435 -0.0458666 0)
(8.64744 -0.0151731 0)
(8.50524 0.000453349 0)
(8.38354 0.00838841 0)
(8.28076 0.0122857 0)
(8.1923 0.0139867 0)
(8.11607 0.0150187 0)
(8.04923 0.0154097 0)
(7.9901 0.0156058 0)
(7.93665 0.0155492 0)
(7.88976 0.0161193 0)
(7.83549 0.0153332 0)
(7.8251 0.0102161 0)
(10.0545 0.227567 0)
(10.121 0.326911 0)
(10.1196 0.261572 0)
(10.0856 0.186542 0)
(10.0434 0.13467 0)
(9.99671 0.101118 0)
(9.94399 0.0792911 0)
(9.88523 0.0645719 0)
(9.82386 0.0542689 0)
(9.76132 0.0466849 0)
(9.69984 0.040928 0)
(9.64 0.0363813 0)
(9.58266 0.0327373 0)
(9.52823 0.0299142 0)
(9.4763 0.0274833 0)
(9.42881 0.0266827 0)
(9.38074 0.0243538 0)
(9.34756 0.033657 0)
(10.0035 0.0579188 0)
(10.0303 0.0560078 0)
(10.0561 0.0337817 0)
(10.0703 0.0328995 0)
(10.077 0.0406504 0)
(10.0778 0.0465495 0)
(10.0725 0.0493659 0)
(10.0614 0.050314 0)
(10.0461 0.0502165 0)
(10.0277 0.0495095 0)
(10.0071 0.0484751 0)
(9.9849 0.0473266 0)
(9.96173 0.0461639 0)
(9.93805 0.045131 0)
(9.91407 0.0441307 0)
(9.89068 0.0438891 0)
(9.86725 0.0430795 0)
(9.84543 0.0456036 0)
(9.99779 0.0110542 0)
(10.011 0.0266094 0)
(10.035 0.0371534 0)
(10.0525 0.04809 0)
(10.0644 0.0554586 0)
(10.0734 0.0581931 0)
(10.0795 0.0583661 0)
(10.0824 0.0576286 0)
(10.0828 0.0565862 0)
(10.0812 0.0553997 0)
(10.0781 0.0541411 0)
(10.0737 0.0529326 0)
(10.0683 0.0517725 0)
(10.0621 0.0507735 0)
(10.0553 0.049847 0)
(10.0484 0.049431 0)
(10.0413 0.0487808 0)
(10.0343 0.0493743 0)
(9.99935 0.0071989 0)
(10.009 0.0316562 0)
(10.0275 0.043926 0)
(10.0418 0.0499287 0)
(10.0528 0.0536202 0)
(10.0629 0.0552477 0)
(10.0716 0.0555319 0)
(10.0783 0.0552478 0)
(10.0834 0.0547126 0)
(10.0872 0.0540203 0)
(10.09 0.0532276 0)
(10.0919 0.0524333 0)
(10.093 0.0516569 0)
(10.0937 0.0509806 0)
(10.0938 0.0503707 0)
(10.0937 0.0500376 0)
(10.0936 0.0496392 0)
(10.0935 0.0496222 0)
(10.0003 0.00917946 0)
(10.0083 0.0311722 0)
(10.0227 0.0409483 0)
(10.035 0.0454001 0)
(10.045 0.0490478 0)
(10.0548 0.0513864 0)
(10.0637 0.0523722 0)
(10.0714 0.0526119 0)
(10.0778 0.052487 0)
(10.0834 0.0521366 0)
(10.0882 0.0516389 0)
(10.0924 0.0510849 0)
(10.096 0.0505141 0)
(10.0992 0.049986 0)
(10.102 0.0494946 0)
(10.1047 0.0491267 0)
(10.1074 0.0487259 0)
(10.1101 0.048338 0)
(10.0005 0.00894618 0)
(10.0071 0.0270881 0)
(10.0191 0.0364184 0)
(10.0302 0.0413986 0)
(10.0396 0.0454252 0)
(10.0487 0.0480943 0)
(10.0572 0.0493683 0)
(10.0649 0.0498445 0)
(10.0717 0.0499267 0)
(10.0778 0.0497622 0)
(10.0833 0.0494309 0)
(10.0883 0.0490128 0)
(10.0929 0.0485546 0)
(10.0972 0.0480987 0)
(10.1012 0.0476477 0)
(10.105 0.0472276 0)
(10.1088 0.0467518 0)
(10.1127 0.0461485 0)
(10.0004 0.00791767 0)
(10.006 0.0233825 0)
(10.0161 0.0327415 0)
(10.0263 0.0381105 0)
(10.0351 0.0421088 0)
(10.0436 0.0447957 0)
(10.0517 0.0462115 0)
(10.0592 0.0468515 0)
(10.0659 0.0470821 0)
(10.0721 0.0470494 0)
(10.0778 0.046834 0)
(10.0831 0.0465081 0)
(10.0881 0.04612 0)
(10.0928 0.0457008 0)
(10.0973 0.0452549 0)
(10.1017 0.0447799 0)
(10.106 0.0442171 0)
(10.1103 0.0434816 0)
(10.0004 0.0069623 0)
(10.0051 0.0204308 0)
(10.0137 0.0294606 0)
(10.0229 0.0348716 0)
(10.0312 0.038726 0)
(10.0391 0.0413915 0)
(10.0468 0.0429282 0)
(10.054 0.043708 0)
(10.0606 0.0440556 0)
(10.0667 0.0441222 0)
(10.0725 0.0439903 0)
(10.0779 0.0437272 0)
(10.083 0.0433797 0)
(10.0878 0.0429734 0)
(10.0925 0.0425113 0)
(10.0971 0.0419818 0)
(10.1015 0.0413395 0)
(10.106 0.0405206 0)
(10.0004 0.00613174 0)
(10.0043 0.0178659 0)
(10.0116 0.0262838 0)
(10.0199 0.0315931 0)
(10.0276 0.0353215 0)
(10.0351 0.0379515 0)
(10.0424 0.0395679 0)
(10.0493 0.0404508 0)
(10.0557 0.0408851 0)
(10.0617 0.0410247 0)
(10.0674 0.0409528 0)
(10.0727 0.0407323 0)
(10.0778 0.0404068 0)
(10.0827 0.0399995 0)
(10.0875 0.0395132 0)
(10.092 0.0389354 0)
(10.0965 0.0382316 0)
(10.1009 0.0373639 0)
(10.0003 0.00537205 0)
(10.0037 0.015557 0)
(10.0099 0.0232464 0)
(10.0173 0.0283584 0)
(10.0245 0.0319449 0)
(10.0315 0.0344984 0)
(10.0384 0.0361399 0)
(10.0449 0.0370866 0)
(10.0512 0.0375813 0)
(10.057 0.0377728 0)
(10.0626 0.0377433 0)
(10.0679 0.0375511 0)
(10.0729 0.037237 0)
(10.0778 0.0368229 0)
(10.0824 0.036313 0)
(10.087 0.0356978 0)
(10.0913 0.0349534 0)
(10.0956 0.0340634 0)
(10.0003 0.00470704 0)
(10.0032 0.0136162 0)
(10.0086 0.0206006 0)
(10.0152 0.0254476 0)
(10.0219 0.0288681 0)
(10.0285 0.0313161 0)
(10.035 0.0329384 0)
(10.0413 0.0339114 0)
(10.0473 0.0344391 0)
(10.053 0.0346608 0)
(10.0585 0.0346564 0)
(10.0637 0.0344803 0)
(10.0686 0.0341708 0)
(10.0734 0.0337492 0)
(10.078 0.0332218 0)
(10.0824 0.032584 0)
(10.0867 0.0318197 0)
(10.0908 0.0309298 0)
(10.0003 0.00409241 0)
(10.0028 0.0118471 0)
(10.0075 0.0181016 0)
(10.0134 0.0226071 0)
(10.0197 0.0258273 0)
(10.0259 0.0281441 0)
(10.032 0.0297145 0)
(10.0381 0.0306863 0)
(10.0439 0.0312284 0)
(10.0494 0.0314665 0)
(10.0547 0.0314771 0)
(10.0598 0.0313109 0)
(10.0646 0.0310036 0)
(10.0693 0.0305767 0)
(10.0738 0.0300386 0)
(10.0781 0.0293893 0)
(10.0823 0.02862 0)
(10.0863 0.0277438 0)
(10.0002 0.00345753 0)
(10.0024 0.0100084 0)
(10.0064 0.0154211 0)
(10.0117 0.0194603 0)
(10.0174 0.0223964 0)
(10.0232 0.0245222 0)
(10.029 0.0259897 0)
(10.0347 0.0269223 0)
(10.0403 0.0274537 0)
(10.0456 0.0276912 0)
(10.0507 0.0277053 0)
(10.0557 0.0275424 0)
(10.0604 0.0272355 0)
(10.0649 0.0268054 0)
(10.0693 0.0262633 0)
(10.0735 0.0256137 0)
(10.0775 0.0248542 0)
(10.0814 0.024007 0)
(10.0002 0.00279834 0)
(10.002 0.00809868 0)
(10.0055 0.0125692 0)
(10.0101 0.0160121 0)
(10.0153 0.018562 0)
(10.0206 0.0204212 0)
(10.026 0.0217215 0)
(10.0314 0.022563 0)
(10.0367 0.0230465 0)
(10.0418 0.0232581 0)
(10.0467 0.0232587 0)
(10.0515 0.0230896 0)
(10.0561 0.02278 0)
(10.0605 0.0223502 0)
(10.0647 0.0218128 0)
(10.0687 0.0211767 0)
(10.0726 0.0204442 0)
(10.0763 0.0196428 0)
(10.0002 0.00211412 0)
(10.0017 0.00611992 0)
(10.0047 0.00955427 0)
(10.0087 0.0122673 0)
(10.0134 0.0143115 0)
(10.0183 0.0158112 0)
(10.0233 0.0168651 0)
(10.0283 0.017549 0)
(10.0333 0.0179344 0)
(10.0382 0.0180848 0)
(10.0429 0.0180483 0)
(10.0475 0.017859 0)
(10.0519 0.0175419 0)
(10.0561 0.0171152 0)
(10.0602 0.0165922 0)
(10.064 0.0159836 0)
(10.0677 0.0152949 0)
(10.0712 0.0145551 0)
(10.0002 0.00140185 0)
(10.0015 0.00405795 0)
(10.0041 0.00635991 0)
(10.0076 0.00820835 0)
(10.0118 0.0096161 0)
(10.0163 0.0106476 0)
(10.0209 0.0113634 0)
(10.0256 0.0118124 0)
(10.0304 0.0120394 0)
(10.035 0.012085 0)
(10.0395 0.0119822 0)
(10.0439 0.0117555 0)
(10.0481 0.0114237 0)
(10.0521 0.0110016 0)
(10.056 0.010501 0)
(10.0597 0.00993203 0)
(10.0632 0.00930096 0)
(10.0666 0.00863523 0)
(10.0001 0.000645021 0)
(10.0013 0.00186078 0)
(10.0036 0.00291369 0)
(10.0069 0.00375498 0)
(10.0107 0.00438456 0)
(10.0148 0.00482493 0)
(10.0192 0.00509893 0)
(10.0237 0.00522641 0)
(10.0281 0.00522659 0)
(10.0325 0.00511757 0)
(10.0368 0.00491467 0)
(10.041 0.00463029 0)
(10.0451 0.00427469 0)
(10.0489 0.00385676 0)
(10.0527 0.00338431 0)
(10.0562 0.00286506 0)
(10.0596 0.00230346 0)
(10.0628 0.00172291 0)
(10.0001 -0.000199568 0)
(10.0012 -0.000593821 0)
(10.0034 -0.000957927 0)
(10.0066 -0.0012856 0)
(10.0102 -0.00157671 0)
(10.0143 -0.00184528 0)
(10.0185 -0.00210912 0)
(10.0228 -0.00238042 0)
(10.0271 -0.00266653 0)
(10.0314 -0.00297319 0)
(10.0356 -0.00330477 0)
(10.0396 -0.00366378 0)
(10.0435 -0.0040509 0)
(10.0473 -0.00446559 0)
(10.0508 -0.00490631 0)
(10.0543 -0.00537034 0)
(10.0575 -0.0058566 0)
(10.0606 -0.0063483 0)
(10.0001 -0.00100774 0)
(10.0013 -0.00294931 0)
(10.0037 -0.00467982 0)
(10.007 -0.00612195 0)
(10.0108 -0.00727292 0)
(10.015 -0.0081925 0)
(10.0193 -0.00894211 0)
(10.0237 -0.00956371 0)
(10.0281 -0.0100917 0)
(10.0323 -0.0105574 0)
(10.0365 -0.0109859 0)
(10.0405 -0.0113936 0)
(10.0444 -0.0117918 0)
(10.0481 -0.0121879 0)
(10.0516 -0.0125868 0)
(10.0549 -0.0129907 0)
(10.0581 -0.013402 0)
(10.0612 -0.0138099 0)
(10.0002 -0.00170479 0)
(10.0015 -0.00500677 0)
(10.0041 -0.00793265 0)
(10.0078 -0.0102833 0)
(10.012 -0.0120802 0)
(10.0165 -0.0134734 0)
(10.021 -0.0145689 0)
(10.0255 -0.0154238 0)
(10.03 -0.0160949 0)
(10.0344 -0.0166407 0)
(10.0386 -0.0171057 0)
(10.0426 -0.0175184 0)
(10.0465 -0.0178981 0)
(10.0502 -0.0182583 0)
(10.0537 -0.0186085 0)
(10.057 -0.018954 0)
(10.0602 -0.019299 0)
(10.0632 -0.0196366 0)
(10.0002 -0.00236679 0)
(10.0017 -0.00703992 0)
(10.0047 -0.0111829 0)
(10.009 -0.0143524 0)
(10.0137 -0.0166489 0)
(10.0185 -0.0183826 0)
(10.0234 -0.0197136 0)
(10.0282 -0.0207126 0)
(10.0329 -0.0214611 0)
(10.0374 -0.0220401 0)
(10.0417 -0.0225062 0)
(10.0457 -0.022896 0)
(10.0496 -0.0232359 0)
(10.0533 -0.0235454 0)
(10.0569 -0.0238375 0)
(10.0602 -0.0241199 0)
(10.0633 -0.024398 0)
(10.0663 -0.0246675 0)
(10.0002 -0.00298641 0)
(10.0018 -0.00909883 0)
(10.0054 -0.0144552 0)
(10.0105 -0.018345 0)
(10.0159 -0.0210897 0)
(10.0211 -0.0231124 0)
(10.0263 -0.0245685 0)
(10.0314 -0.025583 0)
(10.0363 -0.0263102 0)
(10.0409 -0.02686 0)
(10.0453 -0.0272888 0)
(10.0495 -0.0276322 0)
(10.0534 -0.0279196 0)
(10.0572 -0.0281733 0)
(10.0607 -0.0284075 0)
(10.064 -0.0286306 0)
(10.0672 -0.0288481 0)
(10.0701 -0.0290576 0)
(10.0001 -0.00353261 0)
(10.0018 -0.0115529 0)
(10.0063 -0.0178906 0)
(10.0123 -0.0219894 0)
(10.0183 -0.0250574 0)
(10.024 -0.0274678 0)
(10.0297 -0.0291067 0)
(10.0351 -0.0301175 0)
(10.0401 -0.0307706 0)
(10.0449 -0.0312308 0)
(10.0494 -0.0315658 0)
(10.0537 -0.031816 0)
(10.0576 -0.0320153 0)
(10.0614 -0.0321876 0)
(10.0649 -0.0323463 0)
(10.0682 -0.0324988 0)
(10.0714 -0.0326487 0)
(10.0743 -0.0327925 0)
(9.99991 -0.0033814 0)
(10.0016 -0.0149696 0)
(10.0073 -0.0227289 0)
(10.0142 -0.0262418 0)
(10.0206 -0.0288299 0)
(10.0268 -0.0311962 0)
(10.0331 -0.0329184 0)
(10.039 -0.0340072 0)
(10.0444 -0.0347076 0)
(10.0494 -0.035172 0)
(10.0541 -0.0354707 0)
(10.0584 -0.035658 0)
(10.0624 -0.0357799 0)
(10.0661 -0.0358673 0)
(10.0695 -0.0359383 0)
(10.0726 -0.0360029 0)
(10.0756 -0.0360657 0)
(10.0783 -0.0361255 0)
(9.9986 -0.000398573 0)
(9.99909 -0.0157576 0)
(10.0075 -0.0274319 0)
(10.0166 -0.0324937 0)
(10.0238 -0.034871 0)
(10.0306 -0.0362275 0)
(10.0376 -0.03698 0)
(10.0441 -0.0374473 0)
(10.0499 -0.0377963 0)
(10.055 -0.038044 0)
(10.0596 -0.0381894 0)
(10.0636 -0.0382578 0)
(10.0672 -0.0382791 0)
(10.0704 -0.0382744 0)
(10.0731 -0.0382592 0)
(10.0756 -0.0382416 0)
(10.0777 -0.0382255 0)
(10.0796 -0.0382092 0)
(9.99488 0.00133524 0)
(9.99288 -0.00809344 0)
(10.006 -0.020353 0)
(10.0202 -0.0322784 0)
(10.0307 -0.0404809 0)
(10.0392 -0.0441527 0)
(10.0467 -0.0450653 0)
(10.0529 -0.0449209 0)
(10.0578 -0.0444541 0)
(10.0617 -0.0438587 0)
(10.0646 -0.0432142 0)
(10.0668 -0.0425778 0)
(10.0683 -0.0419836 0)
(10.0691 -0.0414397 0)
(10.0694 -0.040956 0)
(10.0693 -0.0405287 0)
(10.0688 -0.0401553 0)
(10.0681 -0.0398102 0)
(9.99473 -0.0305616 0)
(9.99925 -0.0228725 0)
(10.0147 -0.00263641 0)
(10.0304 -0.00191071 0)
(10.0434 -0.0116604 0)
(10.0533 -0.0209242 0)
(10.0594 -0.0272813 0)
(10.0619 -0.0315092 0)
(10.0615 -0.034284 0)
(10.0591 -0.0359804 0)
(10.0551 -0.0369123 0)
(10.0498 -0.0373459 0)
(10.0435 -0.0374717 0)
(10.0365 -0.0374092 0)
(10.0289 -0.0372491 0)
(10.021 -0.0370464 0)
(10.0129 -0.0368661 0)
(10.0046 -0.036677 0)
(10.0273 -0.182758 0)
(10.0763 -0.288313 0)
(10.0871 -0.247756 0)
(10.0777 -0.18652 0)
(10.0664 -0.140298 0)
(10.0537 -0.108223 0)
(10.0365 -0.085883 0)
(10.0145 -0.0704229 0)
(9.98938 -0.0596539 0)
(9.96234 -0.0518799 0)
(9.93437 -0.0460577 0)
(9.90605 -0.0415602 0)
(9.87788 -0.0380043 0)
(9.85017 -0.0351293 0)
(9.82319 -0.0327631 0)
(9.79702 -0.0308424 0)
(9.77193 -0.029326 0)
(9.74793 -0.028507 0)
(9.93574 0.689319 0)
(9.86861 0.609604 0)
(9.76453 0.380623 0)
(9.62664 0.217441 0)
(9.48589 0.119267 0)
(9.35721 0.063186 0)
(9.24268 0.0315746 0)
(9.14113 0.0136149 0)
(9.05145 0.00326193 0)
(8.97247 -0.0027993 0)
(8.90257 -0.00635488 0)
(8.8404 -0.00847412 0)
(8.7847 -0.00972497 0)
(8.73459 -0.010471 0)
(8.68917 -0.0109743 0)
(8.64783 -0.0112439 0)
(8.60963 -0.0114509 0)
(8.57429 -0.0121117 0)
(0.00673268 -0.0156399 -8.82488e-19)
(0.0200051 -0.019828 6.81857e-19)
(0.0292618 -0.0134167 0)
(0.0329972 -0.00408703 0)
(0.0306094 0.00448813 0)
(0.0233113 0.0109083 -3.10811e-19)
(0.012371 0.0151235 0)
(-0.0011595 0.0176256 0)
(-0.0164928 0.0190185 0)
(-0.0331311 0.0198071 0)
(-0.0507541 0.0203279 1.65944e-19)
(-0.0691666 0.0207733 0)
(-0.0882616 0.0212512 0)
(-0.107985 0.0218144 0)
(-0.128312 0.0224865 0)
(-0.149242 0.0232632 1.07841e-19)
(-0.170776 0.0241129 0)
(-0.192914 0.0249613 0)
(-0.215657 0.0256892 0)
(-0.23901 0.0261537 0)
(-0.262982 0.0261557 0)
(-0.287543 0.0256152 0)
(-0.312648 0.0242905 0)
(-0.338357 0.0184713 8.91795e-20)
(-0.364315 0.00809843 -8.52896e-20)
(-0.388447 0.00563549 8.1374e-20)
(-0.412657 0.0118743 7.78315e-20)
(-0.440138 0.0176421 0)
(-0.469143 0.0239809 0)
(-0.499558 0.0327455 -6.79116e-20)
(-0.531415 0.0464218 -6.57696e-20)
(-0.565313 0.0650186 0)
(-0.603522 0.0511037 0)
(-0.643047 0.0276075 -9.63153e-20)
(-0.678278 0.0346117 0)
(-0.719587 0.0403169 0)
(-0.758872 0.0400901 8.19759e-20)
(-0.798534 0.0265529 0)
(-0.834701 0.0255793 7.61875e-20)
(-0.870379 0.0341165 1.47878e-19)
(-0.90995 0.0348631 0)
(-0.949147 0.0349831 0)
(-0.988544 0.0349126 0)
(-1.02806 0.0348213 0)
(-1.06766 0.0346674 0)
(-1.10731 0.034466 1.23471e-19)
(-1.14695 0.0342246 1.20177e-19)
(-1.18656 0.0339575 1.17079e-19)
(-1.2261 0.0336718 0)
(-1.26556 0.0333741 -1.11409e-19)
(-1.30493 0.0330673 0)
(-1.34418 0.0327537 1.06347e-19)
(-1.38332 0.0324341 1.04014e-19)
(-1.42232 0.0321088 0)
(-1.46117 0.0317768 0)
(-1.49986 0.0314374 0)
(-1.53837 0.0310895 9.57707e-20)
(-1.57669 0.0307321 0)
(-1.6148 0.0303635 0)
(-1.65267 0.0299824 0)
(-1.69029 0.0295877 0)
(-1.72762 0.0291784 0)
(-1.76464 0.0287529 0)
(-1.80133 0.0283102 0)
(-1.83766 0.0278492 0)
(-1.87358 0.027369 -8.17274e-20)
(-1.90908 0.0268692 0)
(-1.94411 0.0263489 0)
(-1.97865 0.025808 7.7973e-20)
(-2.01265 0.0252458 7.67943e-20)
(-2.04607 0.0246624 0)
(-2.07889 0.0240569 -7.453e-20)
(-2.11105 0.0234298 7.34395e-20)
(-2.14252 0.0227804 0)
(-2.17326 0.0221095 -7.13292e-20)
(-2.20322 0.0214167 0)
(-2.23237 0.0207035 0)
(-2.26067 0.0199697 6.83091e-20)
(-2.28805 0.0192161 0)
(-2.3145 0.0184417 -6.63696e-20)
(-2.33995 0.017648 0)
(-2.36437 0.0168335 6.44714e-20)
(-2.3877 0.0159984 6.35337e-20)
(-2.40992 0.0151396 6.26011e-20)
(-2.43096 0.0142559 1.23345e-19)
(-2.45078 0.0133414 -1.21492e-19)
(-2.46932 0.0123907 0)
(-2.48653 0.011392 0)
(-2.50235 0.0103339 0)
(-2.5167 0.00920337 -1.14066e-19)
(-2.52955 0.00799302 -1.12189e-19)
(-2.54082 0.00671771 1.10301e-19)
(-2.55042 0.00540917 0)
(-2.55825 0.00410134 -1.065e-19)
(-2.56417 0.00281519 -1.04587e-19)
(-2.56808 0.00158097 -1.02661e-19)
(-2.56985 0.000473977 0)
(-2.57002 -0.000526744 0)
(-2.56849 -0.00150716 0)
(-2.56531 -0.00248308 -9.4399e-20)
(-2.56044 -0.00346389 0)
(-2.55388 -0.0044511 0)
(-2.54558 -0.00544481 8.768e-20)
(-2.53554 -0.00644512 0)
(-2.52372 -0.00744987 0)
(-2.51009 -0.00845976 8.03944e-20)
(-2.49465 -0.00947217 0)
(-2.47736 -0.0104885 0)
(-2.45823 -0.0115062 -7.24256e-20)
(-2.43723 -0.0125267 -6.95954e-20)
(-2.41436 -0.0135469 0)
(-2.38962 -0.0145679 6.3644e-20)
(-2.36301 -0.0155866 0)
(-2.33453 -0.0166033 -5.72681e-20)
(-2.30418 -0.0176152 0)
(-2.27198 -0.0186221 -5.0421e-20)
(-2.23795 -0.0196214 -4.68053e-20)
(-2.20211 -0.0206118 0)
(-2.16448 -0.0215904 0)
(-2.12509 -0.0225539 0)
(-2.08398 -0.0235002 0)
(-2.04117 -0.0244327 0)
(-1.99672 -0.0253488 0)
(-1.95068 -0.0262329 0)
(-1.90309 -0.0270963 -1.23794e-20)
(-1.85402 -0.0279379 7.27764e-21)
(-1.80354 -0.028754 0)
(-1.75171 -0.0295422 0)
(-1.69859 -0.030302 0)
(-1.64427 -0.0310229 0)
(-1.58882 -0.0317126 -4.28979e-20)
(-1.53233 -0.0323572 0)
(-1.47488 -0.0329631 6.9232e-20)
(-1.41656 -0.0335201 -8.31968e-20)
(-1.35749 -0.0340336 0)
(-1.29775 -0.0344944 0)
(-1.23745 -0.0349075 0)
(-1.1767 -0.0352648 1.44885e-19)
(-1.11559 -0.0355703 1.61885e-19)
(-1.05425 -0.0358162 0)
(-0.99274 -0.0360038 1.9798e-19)
(-0.931175 -0.036129 2.17142e-19)
(-0.869648 -0.0361918 -2.37095e-19)
(-0.808267 -0.0361932 0)
(-0.747135 -0.0361358 0)
(-0.686351 -0.0360223 -3.0207e-19)
(-0.626006 -0.0358545 0)
(-0.566188 -0.0356353 0)
(-0.506976 -0.0353664 0)
(-0.448447 -0.0350503 0)
(-0.39067 -0.0346894 4.30151e-19)
(-0.333711 -0.0342856 4.59227e-19)
(-0.277629 -0.0338404 0)
(-0.222479 -0.0333566 5.21372e-19)
(-0.168316 -0.0328293 0)
(-0.11519 -0.0322656 0)
(-0.0631429 -0.031666 6.25749e-19)
(-0.0122399 -0.0309827 0)
(0.0374474 -0.0299709 6.78249e-19)
(0.0857948 -0.0286163 0)
(0.1329 -0.0272077 0)
(0.178638 -0.0258359 6.43691e-19)
(0.223029 -0.0245241 0)
(0.266148 -0.0232823 6.23744e-19)
(0.30806 -0.0221087 0)
(0.348832 -0.0209976 0)
(0.388537 -0.0199376 0)
(0.42725 -0.0189263 -5.8928e-19)
(0.465046 -0.0179613 0)
(0.501997 -0.0170387 5.73649e-19)
(0.538168 -0.0161423 0)
(0.573626 -0.0152697 0)
(0.608423 -0.0144231 0)
(0.642558 -0.0135872 0)
(0.67596 -0.0126732 0)
(0.708222 -0.0116248 0)
(0.739381 -0.0102331 0)
(0.764743 -0.00785276 -1.0403e-18)
(0.79168 -0.00364915 0)
(0.769921 0.0118181 0)
(0.00457907 -0.0401955 1.98031e-18)
(0.00829264 -0.0315767 -1.02476e-18)
(0.00611768 -0.0140471 0)
(0.000702377 0.00276617 3.12141e-19)
(-0.00725429 0.0173525 0)
(-0.0177088 0.0290942 1.16043e-19)
(-0.0305098 0.0379925 -2.10383e-19)
(-0.0454742 0.0444546 -1.92965e-19)
(-0.0623403 0.0490559 0)
(-0.0808225 0.0523564 -1.65262e-19)
(-0.100672 0.0548063 -7.70948e-20)
(-0.121697 0.0567238 0)
(-0.143762 0.0583189 0)
(-0.166784 0.0597225 0)
(-0.190719 0.0610136 0)
(-0.215563 0.0622377 -5.923e-20)
(-0.241333 0.0634219 0)
(-0.268069 0.0645816 1.11614e-19)
(-0.295829 0.0657324 0)
(-0.324659 0.0669033 0)
(-0.354597 0.0681407 -1.07996e-19)
(-0.385651 0.0694838 0)
(-0.41763 0.0709569 1.08296e-19)
(-0.450965 0.0723504 -5.37411e-20)
(-0.486142 0.0736205 5.27183e-20)
(-0.522945 0.0754397 -5.19062e-20)
(-0.561011 0.0779211 -5.10451e-20)
(-0.59947 0.0801057 0)
(-0.638114 0.0820641 0)
(-0.677128 0.0837671 4.64705e-20)
(-0.716945 0.0846147 -4.62839e-20)
(-0.755444 0.0854667 0)
(-0.795719 0.0864128 0)
(-0.835435 0.0876902 4.82275e-20)
(-0.875643 0.0900466 0)
(-0.913076 0.090873 0)
(-0.950228 0.0910088 -4.16914e-20)
(-0.988806 0.090607 0)
(-1.02842 0.0904442 3.87013e-20)
(-1.06772 0.0906602 -7.5524e-20)
(-1.10568 0.0905824 0)
(-1.14321 0.0901955 0)
(-1.18038 0.0896238 -1.40615e-19)
(-1.21723 0.08892 -1.37591e-19)
(-1.25378 0.0881241 -1.34721e-19)
(-1.29007 0.0872607 6.58411e-20)
(-1.32612 0.0863494 -6.4854e-20)
(-1.36193 0.0854049 -1.90539e-19)
(-1.39752 0.0844367 1.2456e-19)
(-1.43287 0.0834513 6.1306e-20)
(-1.468 0.0824518 0)
(-1.50289 0.0814398 -5.91884e-20)
(-1.53754 0.0804151 5.78864e-20)
(-1.57194 0.0793767 0)
(-1.60607 0.0783224 0)
(-1.63992 0.0772497 0)
(-1.67348 0.0761559 -5.45686e-20)
(-1.70673 0.0750386 0)
(-1.73966 0.0738946 1.05578e-19)
(-1.77223 0.0727213 0)
(-1.80444 0.0715164 1.02514e-19)
(-1.83625 0.0702775 0)
(-1.86764 0.0690026 -9.9619e-20)
(-1.89859 0.0676894 0)
(-1.92907 0.0663362 9.68683e-20)
(-1.95905 0.0649416 -4.76376e-20)
(-1.98851 0.0635045 0)
(-2.0174 0.062024 -9.2965e-20)
(-2.04572 0.0604997 -4.59807e-20)
(-2.07341 0.0589309 -4.53623e-20)
(-2.10045 0.0573177 0)
(-2.12681 0.0556594 -4.39236e-20)
(-2.15245 0.0539564 -4.35581e-20)
(-2.17734 0.0522082 0)
(-2.20145 0.0504159 4.23879e-20)
(-2.22475 0.0485792 -8.34214e-20)
(-2.24719 0.0467003 0)
(-2.26874 0.0447793 -4.06626e-20)
(-2.28936 0.0428176 0)
(-2.30903 0.0408146 1.18404e-19)
(-2.3277 0.0387723 0)
(-2.34533 0.03669 -1.15001e-19)
(-2.36189 0.0345695 -3.78089e-20)
(-2.37735 0.0324097 3.71115e-20)
(-2.39167 0.0302134 7.30883e-20)
(-2.4048 0.0279804 -7.19464e-20)
(-2.41673 0.0257141 0)
(-2.42741 0.0234126 0)
(-2.4368 0.0210749 0)
(-2.44487 0.0186913 2.0205e-19)
(-2.45161 0.0162478 6.61577e-20)
(-2.45699 0.013734 -6.49145e-20)
(-2.46104 0.011151 0)
(-2.46376 0.0085157 -6.24025e-20)
(-2.46524 0.00586065 6.1101e-20)
(-2.46555 0.00324487 5.97766e-20)
(-2.4648 0.000748677 0)
(-2.46255 -0.00164473 0)
(-2.45875 -0.00400938 0)
(-2.45333 -0.00636129 5.41853e-20)
(-2.44627 -0.00871029 0)
(-2.43752 -0.0110573 -1.02687e-19)
(-2.42707 -0.0134011 -1.49388e-19)
(-2.41489 -0.015739 9.66083e-20)
(-2.40095 -0.0180665 0)
(-2.38524 -0.0203809 4.53173e-20)
(-2.36773 -0.0226773 0)
(-2.3484 -0.0249539 8.3663e-20)
(-2.32726 -0.027206 -4.03581e-20)
(-2.30427 -0.029432 -3.86304e-20)
(-2.27945 -0.0316266 0)
(-2.25279 -0.0337878 -1.04004e-19)
(-2.22428 -0.0359099 6.57927e-20)
(-2.19394 -0.03799 3.06548e-20)
(-2.16177 -0.0400223 0)
(-2.12778 -0.0420037 2.66589e-20)
(-2.09199 -0.0439293 7.45569e-20)
(-2.05442 -0.0457962 0)
(-2.01511 -0.0475984 4.14972e-20)
(-1.97409 -0.0493301 3.71203e-20)
(-1.93138 -0.0509846 3.26464e-20)
(-1.88702 -0.0525578 0)
(-1.84108 -0.0540505 0)
(-1.79359 -0.0554633 0)
(-1.74461 -0.0568001 -7.42977e-21)
(-1.69422 -0.0580443 -3.83161e-21)
(-1.64247 -0.059183 0)
(-1.58944 -0.0602197 1.41963e-21)
(-1.5352 -0.0611746 6.6688e-21)
(-1.47983 -0.0620328 0)
(-1.4234 -0.0627876 1.87373e-20)
(-1.366 -0.0634314 4.59052e-20)
(-1.30774 -0.0639689 -2.99035e-20)
(-1.24869 -0.0643922 -3.28461e-20)
(-1.18897 -0.0647068 0)
(-1.12867 -0.0649066 0)
(-1.0679 -0.0649978 0)
(-1.00677 -0.0649768 -5.90646e-20)
(-0.945385 -0.064848 6.21435e-20)
(-0.883844 -0.0646098 1.39291e-19)
(-0.822247 -0.0642633 -7.72038e-20)
(-0.760691 -0.0638099 8.03639e-20)
(-0.699279 -0.0632503 8.94685e-20)
(-0.638114 -0.062592 0)
(-0.5773 -0.0618401 0)
(-0.516933 -0.0610044 -1.05059e-19)
(-0.457103 -0.0600895 0)
(-0.397896 -0.059105 0)
(-0.339392 -0.0580556 2.50057e-19)
(-0.281667 -0.0569491 0)
(-0.224788 -0.055792 1.35873e-19)
(-0.16882 -0.0545898 -1.44636e-19)
(-0.113821 -0.0533425 0)
(-0.0598434 -0.0520545 1.53922e-19)
(-0.00693236 -0.0507297 0)
(0.0448852 -0.0493956 0)
(0.0955467 -0.0480492 -1.67998e-19)
(0.145065 -0.0466486 3.37581e-19)
(0.193415 -0.0450982 -1.71687e-19)
(0.240558 -0.0433885 0)
(0.286552 -0.0416608 0)
(0.331433 -0.0399845 1.75005e-19)
(0.375237 -0.0383826 0)
(0.418009 -0.03687 1.77854e-19)
(0.459799 -0.0354534 0)
(0.500673 -0.0341286 0)
(0.54071 -0.032895 0)
(0.579997 -0.0317507 1.82689e-19)
(0.618621 -0.0306973 0)
(0.656676 -0.0297284 -1.8327e-19)
(0.694258 -0.0288376 0)
(0.731456 -0.0280093 0)
(0.768342 -0.0272257 3.6488e-19)
(0.804941 -0.0264442 -3.64037e-19)
(0.841229 -0.0255692 0)
(0.876902 -0.0244197 0)
(0.91188 -0.0225321 0)
(0.943386 -0.0190558 1.08162e-18)
(0.975739 -0.0114258 0)
(0.9871 0.00883676 -7.35078e-19)
(-0.00217742 -0.042752 -1.00366e-21)
(-0.00707971 -0.0202849 9.7541e-19)
(-0.0155488 0.00293328 0)
(-0.0262038 0.0232625 -3.89965e-19)
(-0.0383088 0.0408128 0)
(-0.0516207 0.0556382 0)
(-0.0662387 0.0678141 3.611e-23)
(-0.0822913 0.0775613 1.21139e-19)
(-0.0998221 0.0852457 1.14012e-19)
(-0.118793 0.0913013 1.0803e-19)
(-0.139118 0.0961517 0)
(-0.160696 0.100161 0)
(-0.183433 0.103616 -9.39799e-20)
(-0.207256 0.106736 -1.80759e-19)
(-0.232115 0.109682 1.74541e-19)
(-0.257989 0.112577 0)
(-0.284878 0.115515 1.65021e-19)
(-0.3128 0.118567 -8.08696e-20)
(-0.341783 0.121782 0)
(-0.371862 0.125177 1.57468e-19)
(-0.403043 0.128726 7.80971e-20)
(-0.435292 0.132313 -1.54702e-19)
(-0.468528 0.135708 -7.64895e-20)
(-0.502791 0.138556 0)
(-0.538117 0.14081 1.46891e-19)
(-0.574257 0.143215 1.43338e-19)
(-0.610702 0.145859 0)
(-0.647047 0.14826 1.3545e-19)
(-0.683187 0.150441 0)
(-0.719037 0.152817 1.28544e-19)
(-0.754464 0.155291 6.34271e-20)
(-0.789196 0.157117 0)
(-0.823823 0.157385 0)
(-0.858493 0.156684 0)
(-0.892791 0.156042 0)
(-0.926215 0.154712 0)
(-0.959451 0.152644 0)
(-0.993095 0.149929 1.05607e-19)
(-1.02719 0.147859 -1.54656e-19)
(-1.06107 0.146349 0)
(-1.09439 0.144763 0)
(-1.12738 0.143153 0)
(-1.16012 0.141536 1.30692e-22)
(-1.19266 0.13991 9.28389e-20)
(-1.225 0.13827 1.82002e-19)
(-1.25716 0.136616 -1.78625e-19)
(-1.28916 0.134948 -8.76172e-20)
(-1.321 0.133269 8.62291e-20)
(-1.35268 0.13158 -1.65009e-22)
(-1.3842 0.12988 8.31491e-20)
(-1.41557 0.128169 0)
(-1.44676 0.126445 8.04464e-20)
(-1.47778 0.124704 -1.71304e-22)
(-1.50862 0.122943 0)
(-1.53925 0.121158 0)
(-1.56967 0.119344 -7.55713e-20)
(-1.59986 0.117496 0)
(-1.62981 0.115611 0)
(-1.65949 0.113684 7.21171e-20)
(-1.68888 0.11171 1.42502e-19)
(-1.71797 0.109688 -7.04079e-20)
(-1.74673 0.107612 0)
(-1.77513 0.105481 6.84514e-20)
(-1.80315 0.103291 0)
(-1.83077 0.101041 6.62553e-20)
(-1.85796 0.0987273 6.56616e-20)
(-1.88469 0.0963499 -1.2922e-19)
(-1.91092 0.0939072 -6.35787e-20)
(-1.93664 0.0913988 0)
(-1.96181 0.0888237 1.24008e-19)
(-1.98639 0.0861822 0)
(-2.01037 0.0834739 1.81092e-19)
(-2.03369 0.0806994 1.18976e-19)
(-2.05634 0.0778587 1.17326e-19)
(-2.07828 0.074953 -1.15687e-19)
(-2.09947 0.071983 1.71201e-19)
(-2.11988 0.0689505 0)
(-2.13948 0.0658566 0)
(-2.15822 0.0627029 -1.09189e-19)
(-2.17608 0.0594899 -1.61447e-19)
(-2.19302 0.0562196 0)
(-2.209 0.0528926 5.22406e-20)
(-2.22399 0.0495108 0)
(-2.23795 0.0460747 -1.51631e-19)
(-2.25085 0.0425869 -1.22719e-22)
(-2.26267 0.0390488 1.08774e-22)
(-2.27335 0.0354636 9.60494e-20)
(-2.28288 0.0318334 0)
(-2.29121 0.0281609 -9.26491e-20)
(-2.29832 0.0244475 -4.96501e-23)
(-2.30421 0.0206959 0)
(-2.30885 0.0169145 0)
(-2.31224 0.0131194 0)
(-2.31436 0.00933083 8.38107e-20)
(-2.31518 0.00556725 0)
(-2.31467 0.00183435 0)
(-2.31275 -0.00189511 0)
(-2.30936 -0.00563929 0)
(-2.30443 -0.00938818 0)
(-2.29794 -0.0131378 7.21619e-20)
(-2.28986 -0.0168861 0)
(-2.28014 -0.0206295 6.78524e-20)
(-2.26877 -0.0243644 6.57137e-20)
(-2.25572 -0.0280846 -6.35401e-20)
(-2.24097 -0.0317848 0)
(-2.22449 -0.0354581 -5.90836e-20)
(-2.20627 -0.0390993 0)
(-2.18629 -0.0427023 -5.44739e-20)
(-2.16454 -0.046262 5.21093e-20)
(-2.14101 -0.0497723 1.49805e-19)
(-2.1157 -0.0532274 0)
(-2.08859 -0.0566207 1.35087e-19)
(-2.0597 -0.0599455 4.30674e-20)
(-2.02903 -0.0631947 0)
(-1.99659 -0.0663608 7.50064e-20)
(-1.96238 -0.0694368 6.97274e-20)
(-1.92644 -0.0724155 -9.60301e-20)
(-1.88878 -0.0752902 0)
(-1.84943 -0.0780523 -2.61243e-20)
(-1.80842 -0.0806932 -2.32868e-20)
(-1.76579 -0.0832033 -6.24275e-20)
(-1.72158 -0.0855765 0)
(-1.67583 -0.0878086 0)
(-1.62861 -0.0898995 0)
(-1.57997 -0.091852 -9.85746e-21)
(-1.52997 -0.0936549 0)
(-1.47869 -0.0952862 0)
(-1.42619 -0.0967464 -8.63495e-22)
(-1.37255 -0.0980523 -4.03948e-21)
(-1.31785 -0.0991986 0)
(-1.26216 -0.100171 0)
(-1.20559 -0.100965 -2.74478e-20)
(-1.1482 -0.101579 0)
(-1.09011 -0.102009 4.05619e-20)
(-1.03141 -0.102256 4.54511e-20)
(-0.972206 -0.10232 0)
(-0.912593 -0.102204 0)
(-0.852679 -0.10191 -6.5266e-20)
(-0.792568 -0.10144 -1.76756e-21)
(-0.73236 -0.100797 -1.77441e-21)
(-0.672152 -0.0999821 0)
(-0.61204 -0.099 -1.84993e-19)
(-0.552123 -0.0978559 0)
(-0.492503 -0.0965603 0)
(-0.433274 -0.0951238 0)
(-0.374529 -0.0935595 1.19142e-19)
(-0.316354 -0.0918777 0)
(-0.258829 -0.0900918 -2.59821e-19)
(-0.20203 -0.0882123 -1.37738e-19)
(-0.146025 -0.0862495 0)
(-0.090878 -0.0842125 -1.49669e-19)
(-0.0366474 -0.082112 0)
(0.0166272 -0.0799651 0)
(0.0688947 -0.0777856 -4.90936e-19)
(0.120115 -0.0755716 3.33322e-19)
(0.170262 -0.0733145 0)
(0.219312 -0.0710256 3.46267e-19)
(0.267281 -0.0687228 -1.77419e-19)
(0.314182 -0.0664311 0)
(0.360049 -0.0641497 0)
(0.40491 -0.0618883 0)
(0.4488 -0.0596904 -5.61508e-19)
(0.491758 -0.0575837 0)
(0.533828 -0.0555836 -1.92127e-19)
(0.575065 -0.0537025 0)
(0.615537 -0.0519421 0)
(0.655329 -0.0503079 0)
(0.694533 -0.0488003 0)
(0.733247 -0.0474249 0)
(0.771574 -0.0461747 0)
(0.809623 -0.0450439 -4.00172e-19)
(0.847494 -0.0440109 0)
(0.885272 -0.0430475 -2.01274e-19)
(0.922999 -0.0420833 6.02981e-19)
(0.96068 -0.0409861 0)
(0.998098 -0.0394972 0)
(1.03525 -0.0370646 -4.01034e-19)
(1.07029 -0.0326237 -4.01744e-19)
(1.10712 -0.0238636 4.03085e-19)
(1.13246 -0.00348801 4.09503e-19)
(-0.00808572 -0.027392 -2.99851e-18)
(-0.0184816 0.00305356 -1.16549e-18)
(-0.0308661 0.029039 -4.20473e-19)
(-0.0451438 0.0510285 -1.50781e-19)
(-0.0603007 0.0700815 0)
(-0.0760247 0.0865799 2.18418e-19)
(-0.0924636 0.100696 -9.97743e-20)
(-0.109812 0.112602 0)
(-0.128208 0.122544 -8.80829e-20)
(-0.147722 0.130835 0)
(-0.168375 0.137813 1.60642e-19)
(-0.190148 0.143803 0)
(-0.213 0.149091 7.44017e-20)
(-0.236888 0.153915 1.43867e-19)
(-0.261767 0.158467 -1.39522e-19)
(-0.287599 0.162895 0)
(-0.314348 0.167308 -1.32502e-19)
(-0.341977 0.171779 0)
(-0.370442 0.176331 0)
(-0.399688 0.180931 -1.25474e-19)
(-0.429645 0.185475 0)
(-0.460228 0.189783 8.93851e-23)
(-0.491359 0.193636 0)
(-0.522982 0.196856 0)
(-0.555031 0.199436 -2.11863e-22)
(-0.587365 0.201618 -1.11208e-19)
(-0.619722 0.203534 -1.0778e-19)
(-0.651904 0.20515 -1.04816e-19)
(-0.683807 0.206523 0)
(-0.715326 0.207715 -1.98089e-19)
(-0.746371 0.20857 0)
(-0.776985 0.208817 -9.45661e-20)
(-0.807365 0.208335 0)
(-0.837636 0.207315 0)
(-0.86773 0.205933 8.81561e-20)
(-0.897611 0.204092 0)
(-0.927407 0.201863 -8.38497e-20)
(-0.957237 0.199364 -4.60666e-23)
(-0.987096 0.196939 1.60281e-19)
(-1.01682 0.194647 -1.56844e-19)
(-1.04637 0.192356 0)
(-1.07578 0.190068 0)
(-1.10508 0.187792 -7.37637e-20)
(-1.13428 0.185532 0)
(-1.16338 0.183286 -7.11286e-20)
(-1.19238 0.181049 6.9861e-20)
(-1.2213 0.178817 6.8645e-20)
(-1.25012 0.176584 0)
(-1.27884 0.174347 -6.63525e-20)
(-1.30746 0.172101 -6.52692e-20)
(-1.33597 0.169842 1.28303e-19)
(-1.36437 0.167563 -6.32139e-20)
(-1.39264 0.16526 -6.22364e-20)
(-1.42078 0.162926 0)
(-1.44876 0.160556 0)
(-1.47657 0.158142 5.94778e-20)
(-1.5042 0.15568 0)