/*--------------------------------*- C++ -*----------------------------------*\
  =========                 |
  \\      /  F ield         | OpenFOAM: The Open Source CFD Toolbox
   \\    /   O peration     | Website:  https://openfoam.org
    \\  /    A nd           | Version:  9
     \\/     M anipulation  |
\*---------------------------------------------------------------------------*/
FoamFile
{
    format      ascii;
    class       volScalarField;
    location    "7.42";
    object      p_rgh;
}
// * * * * * * * * * * * * * * * * * * * * * * * * * * * * * * * * * * * * * //

dimensions      [1 -1 -2 0 0 0 0];

internalField   nonuniform List<scalar> 
2268
(
753.608
753.816
754.166
754.658
755.282
756.024
756.87
757.804
758.809
759.868
760.961
762.068
763.164
764.222
765.213
766.116
766.939
767.708
768.388
768.94
769.505
770.012
770.269
753.561
753.763
754.109
754.6
755.225
755.969
756.817
757.755
758.766
759.832
760.931
762.043
763.141
764.198
765.191
766.113
766.988
767.836
768.569
769.094
769.702
770.034
770.298
753.48
753.679
754.024
754.514
755.141
755.889
756.743
757.689
758.71
759.787
760.899
762.022
763.131
764.2
765.209
766.156
767.077
767.967
768.805
769.266
769.844
770.089
770.368
753.361
753.563
753.909
754.402
755.033
755.788
756.652
757.61
758.645
759.739
760.868
762.01
763.14
764.232
765.271
766.242
767.109
768.057
768.973
769.676
769.945
770.145
770.502
753.205
753.412
753.764
754.262
754.901
755.666
756.544
757.519
758.573
759.687
760.839
762.006
763.165
764.293
765.373
766.401
766.913
768.13
769.048
769.759
770.023
769.91
770.7
753.013
753.227
753.586
754.094
754.744
755.523
756.419
757.415
758.492
759.63
760.809
762.006
763.203
764.376
765.508
766.599
766.88
765.358
768.524
769.853
768.089
769.416
770.969
752.785
753.005
753.375
753.894
754.559
755.357
756.275
757.296
758.4
759.567
760.777
762.009
763.249
764.474
765.671
766.844
767.462
762.118
762.676
764.277
764.612
769.912
771.292
752.521
752.748
753.128
753.661
754.344
755.164
756.108
757.161
758.297
759.497
760.741
762.014
763.303
764.589
765.857
767.119
768.469
764.796
762.672
763.259
764.902
771.366
771.689
768.246
768.391
767.922
767.098
766.008
764.629
763.18
761.658
760.074
758.444
757.016
755.817
754.701
753.98
753.182
752.64
752.099
751.687
751.454
768.17
768.353
767.955
767.14
766.067
764.852
763.466
761.923
760.337
758.839
757.324
756.001
754.781
753.948
753.114
752.522
751.989
751.589
751.408
768.188
768.352
768.067
767.191
766.102
764.859
763.46
761.914
760.326
758.875
757.744
756.688
755.407
753.98
753.045
752.438
751.891
751.277
750.92
768.283
768.916
768.289
767.316
766.189
764.901
763.441
761.902
760.249
758.644
757.729
756.707
755.646
754.202
752.606
752.372
751.616
750.898
750.82
769.424
769.481
768.558
767.492
766.312
764.957
763.468
761.931
760.356
758.427
757.658
756.639
755.537
754.077
751.779
751.894
750.743
751.097
751.244
770.712
769.867
768.82
767.684
766.452
765.08
763.638
762.143
760.306
757.746
757.526
756.545
755.395
753.988
751.492
750.815
748.12
751.451
751.394
771.033
770.164
769.066
767.885
766.623
765.23
763.775
762.295
760.259
754.449
753.325
756.439
754.747
744.319
751.439
752.152
747.541
751.136
751.176
771.48
770.395
769.306
768.121
766.808
765.358
763.863
762.368
760.212
749.054
746.827
748.807
746.733
742.321
751.399
752.084
747.134
749.892
750.953
752.05
752.28
752.674
753.231
753.946
754.807
755.802
756.914
758.112
759.372
760.676
762.019
763.399
764.795
766.191
767.589
769.035
770.599
768.922
769.258
772.53
772.661
772.7
728.391
728.492
729.8
731.911
734.157
736.636
739.729
743.011
745.656
747.817
749.656
751.55
754.451
757.702
761.267
765.497
769.795
771.295
772.537
773.371
773.815
773.981
772.756
233.744
235.572
237.653
240.09
243.545
247.724
252.216
257.707
264.724
273.004
282.113
291.254
299.68
307.684
315.389
322.828
331.794
344.913
355.188
361.009
363.009
362.242
364.984
0.817822
0.822942
0.834416
0.874546
0.886324
0.906718
0.979679
1.03259
1.05235
1.06422
1.07623
1.22358
1.35102
1.47975
1.70621
2.02396
2.20207
1.71322
1.15904
1.14415
1.32
1.39045
1.29381
0.819178
0.818837
1.01359
1.70048
1.70274
1.72781
2.58601
3.0721
3.16752
3.27904
3.41419
3.43985
3.43885
3.23925
2.82355
2.56115
2.20448
1.67975
1.01248
0.982278
1.08282
1.02688
0.738419
0.532417
0.566017
0.42806
0.0278066
0.075229
0.167748
0.00849078
0.0043258
0.00306814
0.00237522
0.00181586
0.0127882
0.00567994
0.088512
0.166386
0.19382
0.280806
0.480067
0.56683
0.588498
0.673874
0.54578
0.507059
0.0106818
0.00938075
0.0691949
0.0170923
0.0232487
0.00994787
0.00762933
0.00551778
0.0042876
0.00340199
0.00276113
0.00258432
0.00327912
0.034861
0.102054
0.100804
0.0536115
0.0466907
0.0661392
0.0605728
0.0508116
0.221208
0.318071
0.0076443
0.00715031
0.00711806
0.00870361
0.0104929
0.0106179
0.00853478
0.00529299
0.00405427
0.00441962
0.00327361
0.00176795
0.0170681
0.0968131
0.105165
0.0976327
0.043345
0.028618
0.0315074
0.00157489
-0.00348008
-0.00398693
0.00100976
0.00785022
0.00748419
0.00703248
0.00730019
0.00705284
0.00874452
0.00855165
0.00654225
0.00366759
0.00668275
0.0056725
0.00142836
0.00596514
0.0197235
0.0211657
0.0164403
0.0266237
0.0266297
-0.000894312
-0.00325028
-0.00356499
-0.00418204
-0.00438722
0.0067783
0.00658244
0.0064165
0.00628631
0.00589054
0.00622831
0.00712189
0.00404599
0.00433834
0.00677854
0.00591742
0.00257452
-0.00100755
-0.00256649
-0.00358344
-0.0038327
-0.00256758
-0.000208177
-0.00264412
-0.00318851
-0.00332264
-0.00357669
-0.00364383
0.00614898
0.00610883
0.00592989
0.00553132
0.00511147
0.00457569
0.00400239
0.00333066
0.00378781
0.00677049
0.00499074
3.95553e-05
-0.000901288
-0.00194131
-0.00260651
-0.00249883
-0.00235357
-0.00285681
-0.00296546
-0.00297067
-0.00303867
-0.00319584
-0.00325194
0.00548783
0.00553758
0.00532182
0.00489677
0.00447671
0.00400234
0.0034608
0.00314016
0.00468714
0.00586705
0.00123077
-2.11351e-06
-0.000756356
-0.00152691
-0.00211892
0.00229474
0.00897057
0.00804189
-0.00119187
-0.0027522
-0.00287845
-0.00298351
-0.00310168
0.00488516
0.00486778
0.00476149
0.00430636
0.00393405
0.00351692
0.00375536
0.00593449
0.0052982
0.0028751
0.000600483
2.0738e-06
-0.000627105
-0.00125019
-0.00176241
0.00482955
0.00980127
0.00972623
0.00927899
-0.00176919
-0.00272926
-0.00283909
-0.00296509
0.00437177
0.00420409
0.00406495
0.00378005
0.00346226
0.00308453
0.0044945
0.00581374
0.00508292
0.0010581
0.000546061
2.09999e-05
-0.000517494
-0.00104794
-0.00154384
-0.0015838
0.0045291
0.0104618
0.00575582
-0.00254927
-0.00257063
-0.00264056
-0.00276059
0.00388194
0.00373204
0.00356548
0.00333714
0.00305261
0.00271793
0.00363083
0.00501083
0.00268039
0.000948788
0.000503756
4.50692e-05
-0.000420281
-0.000877557
-0.00131216
-0.00172836
-0.00199272
-0.00144361
-0.00206523
-0.00236034
-0.00235813
-0.00242011
-0.00253167
0.00342597
0.00341242
0.00317234
0.00295769
0.00270136
0.00242618
0.00216147
0.00175492
0.00123652
0.000861404
0.00047109
6.99264e-05
-0.000333895
-0.000727821
-0.00110207
-0.00145238
-0.00175966
-0.00198099
-0.00208452
-0.00211834
-0.00214166
-0.00220167
-0.002315
0.00348752
0.00343749
0.00281729
0.00262219
0.0023977
0.00214179
0.00180309
0.0014677
0.00113055
0.000791419
0.000444713
9.25002e-05
-0.000258503
-0.000599258
-0.000921936
-0.00121954
-0.00147848
-0.00167671
-0.00180373
-0.00188375
-0.00195287
-0.00202196
-0.00208925
0.00345517
0.0031488
0.00249197
0.00232251
0.00212434
0.00188736
0.00161363
0.00132612
0.00103007
0.000728622
0.000421559
0.000112231
-0.000193933
-0.00049049
-0.000770638
-0.00102761
-0.00125234
-0.00143351
-0.00156667
-0.00166436
-0.00174478
-0.00181354
-0.00187082
0.00320271
0.0026476
0.00220092
0.00205616
0.00188139
0.0016739
0.00144392
0.00119586
0.000936966
0.000671088
0.000400499
0.000128848
-0.000139288
-0.000398637
-0.000643526
-0.000868249
-0.00106655
-0.00123221
-0.00136321
-0.00146562
-0.00154829
-0.00161489
-0.00166597
0.00295973
0.00215103
0.00194967
0.0018229
0.00166917
0.00149122
0.0012929
0.00107811
0.000852073
0.000618596
0.000380761
0.000142148
-9.31765e-05
-0.000320749
-0.00053591
-0.000734034
-0.000910592
-0.00106178
-0.00118638
-0.00128712
-0.00136823
-0.00143172
-0.0014779
0.0027241
0.00195238
0.00173584
0.00161929
0.00148442
0.00133053
0.00115893
0.000972656
0.000775533
0.000571005
0.000362259
0.000152675
-5.41191e-05
-0.000254301
-0.000444001
-0.000619486
-0.000777336
-0.000914896
-0.00103113
-0.00112704
-0.00120452
-0.00126446
-0.00130689
0.00256599
0.00231379
0.00153713
0.00143723
0.00132121
0.00118856
0.00104031
0.000878799
0.000707066
0.000528171
0.00034513
0.000161058
-2.0814e-05
-0.000197192
-0.000364825
-0.000520652
-0.00066197
-0.000786717
-0.000893863
-0.00098353
-0.00105637
-0.00111264
-0.00115217
0.0024222
0.00232016
0.00135556
0.00127459
0.00117673
0.0010633
0.000935615
0.000795732
0.000646257
0.000489929
0.000329525
0.000167872
7.83953e-06
-0.000147717
-0.000296036
-0.000434563
-0.000561079
-0.000673867
-0.000771891
-0.000854818
-0.000922678
-0.000975355
-0.0010126
0.00225678
0.00215936
0.00120187
0.0011331
0.0010504
0.000953637
0.000843833
0.000722743
0.00059268
0.000456117
0.000315579
0.000173614
3.27601e-05
-0.000104498
-0.000235797
-0.000358975
-0.00047216
-0.000573873
-0.000663103
-0.000739302
-0.000802193
-0.000851482
-0.000886891
0.00210938
0.00137186
0.00107018
0.00101129
0.000941271
0.000858616
0.000764104
0.000659177
0.000545915
0.000426558
0.00030339
0.000178688
5.4694e-05
-6.64343e-05
-0.000182666
-0.000292159
-0.000393316
-0.000484846
-0.000565797
-0.000635545
-0.000693678
-0.000739834
-0.000773736
0.00120804
0.000984548
0.000954423
0.000907173
0.000848091
0.000777223
0.000695563
0.00060436
0.000505503
0.000401025
0.000292979
0.000183389
7.42177e-05
-3.26661e-05
-0.000135523
-0.000232784
-0.000323084
-0.000405304
-0.000478578
-0.000542282
-0.00059597
-0.000639271
-0.000671924
0.000916827
0.000885932
0.000859703
0.000819938
0.0007695
0.00070825
0.000637206
0.00055751
0.000470894
0.000379201
0.000284269
0.000187881
9.17428e-05
-2.54573e-06
-9.35078e-05
-0.000179817
-0.000260322
-0.000334066
-0.000400289
-0.000458415
-0.000508014
-0.000548739
-0.000580358
0.000812482
0.000810622
0.000781681
0.00074683
0.000703481
0.000650205
0.00058788
0.000517732
0.000441426
0.000360662
0.000277068
0.000192202
0.000107527
2.43917e-05
-5.59721e-05
-0.000132464
-0.000204132
-0.000270179
-0.000329964
-0.000382988
-0.000428864
-0.000467286
-0.000498046
0.000764058
0.000706664
0.000706911
0.000683961
0.000648197
0.000601693
0.000546414
0.000484062
0.000416356
0.000344884
0.000271078
0.000196272
0.000121696
4.8461e-05
-2.24363e-05
-9.01087e-05
-0.000153793
-0.000212855
-0.00026678
-0.000315159
-0.00035767
-0.000394049
-0.000424109
0.00067103
0.000651238
0.000651225
0.000634008
0.000603641
0.00056184
0.000511693
0.000455464
0.000394847
0.000331254
0.000265909
0.000199914
0.000134272
6.98594e-05
7.45192e-06
-5.22666e-05
-0.000108717
-0.000161427
-0.000210014
-0.000254174
-0.000293653
-0.000328235
-0.000357742
0.000586725
0.00060404
0.000605417
0.000596292
0.000569381
0.000529423
0.000482371
0.000430734
0.000375926
0.000319055
0.000261084
0.000202872
0.00014519
8.86925e-05
3.39476e-05
-1.85533e-05
-6.84104e-05
-0.000115312
-0.000159017
-0.000199333
-0.000236086
-0.000269102
-0.000298198
0.000562477
0.000525405
0.000564615
0.000573504
0.000544244
0.000502191
0.000456442
0.000408349
0.000358465
0.000307485
0.00025607
0.000204831
0.000154323
0.000104997
5.7232e-05
1.13409e-05
-3.24485e-05
-7.39875e-05
-0.000113186
-0.000149975
-0.000184274
-0.000215948
-0.000244784
0.000509373
0.000625044
0.00204694
0.00325606
0.000819886
0.000475483
0.000430734
0.000386296
0.000341178
0.000295696
0.000250309
0.000205451
0.000161508
0.00011876
7.74271e-05
3.76638e-05
-4.66369e-07
-3.6981e-05
-7.19524e-05
-0.000105462
-0.000137538
-0.000168095
-0.000196848
0.000435519
0.001238
0.00435381
0.00435732
0.00292146
0.000474122
0.00040241
0.000362983
0.000323034
0.000282992
0.000243326
0.000204424
0.000166573
0.000129932
9.46035e-05
6.06035e-05
2.78432e-05
-3.86488e-06
-3.47773e-05
-6.51603e-05
-9.52011e-05
-0.000124879
-0.000153786
0.000388255
0.00122807
0.00441962
0.00441277
0.0031027
0.000432938
0.000372446
0.000338655
0.000303898
0.000269105
0.000234844
0.000201522
0.000169359
0.000138441
0.000108782
8.02838e-05
5.27211e-05
2.57345e-05
-1.14499e-06
-2.84293e-05
-5.6553e-05
-8.56377e-05
-0.000115046
0.000370015
0.00069264
0.00353139
0.00412034
0.00144431
0.00037575
0.000344647
0.000314734
0.000284213
0.000254043
0.000224724
0.000196577
0.000169727
0.000144201
0.00011994
9.67638e-05
7.43353e-05
5.21317e-05
2.94429e-05
5.42284e-06
-2.07861e-05
-4.96553e-05
-8.014e-05
0.000396433
0.000492716
0.0006484
0.000761659
0.000392653
0.000349614
0.000320256
0.000291465
0.000263845
0.000237563
0.00021272
0.000189373
0.000167506
0.000147076
0.000127976
0.000109987
9.2712e-05
7.55021e-05
5.73988e-05
3.71161e-05
1.30608e-05
-1.61251e-05
-4.86729e-05
0.000467994
0.000547285
0.000496181
0.000425317
0.000369616
0.0003285
0.000294948
0.000266362
0.000241229
0.000218627
0.000198079
0.000179311
0.000162168
0.000146557
0.000132368
0.000119412
0.000107321
9.54125e-05
8.25452e-05
6.69447e-05
4.58293e-05
1.56419e-05
-2.05496e-05
0.000603365
0.000626714
0.000510294
0.000411871
0.000343521
0.000296183
0.000261759
0.000235349
0.000213867
0.000195573
0.000179555
0.00016535
0.000152749
0.000141667
0.000132065
0.000123869
0.000116866
0.00011051
0.000103717
9.45242e-05
7.84568e-05
4.60962e-05
3.43601e-06
0.000718544
0.000661774
0.000480545
0.000365146
0.00029291
0.000248115
0.000219632
0.000199702
0.000184308
0.000171567
0.000160609
0.00015107
0.000142843
0.000135954
0.00013051
0.000126647
0.000124444
0.000123729
0.000124122
0.000125014
0.000119875
8.05932e-05
2.1985e-05
0.000863141
0.000598741
0.000395032
0.000291052
0.000229668
0.000200257
0.00018677
0.000178336
0.000171382
0.000165101
0.000159372
0.000154275
0.000149983
0.000146738
0.000144861
0.000144778
0.000146973
0.000151919
0.000161136
0.000179548
0.000201531
0.000143946
3.78677e-05
0.000676596
7.56e-05
0.000165398
0.000157688
0.000147896
0.000148007
0.00015117
0.000152485
0.000151833
0.000150149
0.000148094
0.000146088
0.000144471
0.000143577
0.000143805
0.000145702
0.000149985
0.000157685
0.000172289
0.000206485
0.000271721
0.000234963
5.95984e-05
773.184
773.09
772.816
772.38
773.901
773.684
773.664
773.741
365.842
365.172
363.462
361.688
1.14684
1.07558
1.0674
1.01242
0.642275
0.620667
0.620075
0.670623
0.649271
0.620968
0.50863
0.614844
0.241456
0.201917
0.234583
0.267835
-0.00464677
-0.00403547
-0.00385521
-0.00380164
-0.00387839
-0.00351756
-0.00319744
-0.00288953
-0.00334598
-0.00307962
-0.00261085
0.00245364
-0.00313038
-0.00299204
0.00106603
0.0301369
-0.00314856
-0.00318173
-0.000728748
0.0275054
-0.00310625
-0.00322037
-0.00334862
-0.00302896
-0.00291392
-0.0030046
-0.00312251
-0.0032815
-0.00265899
-0.0026766
-0.00271136
-0.002794
-0.00239623
-0.00243851
-0.00245218
-0.00245869
-0.00214257
-0.00217233
-0.00219829
-0.00221669
-0.00191082
-0.00192959
-0.00194146
-0.00194714
-0.0016967
-0.00170881
-0.00171395
-0.00171264
-0.00150243
-0.00151094
-0.00151262
-0.00150811
-0.00132757
-0.00133422
-0.00133452
-0.00132912
-0.00117057
-0.00117647
-0.00117666
-0.00117177
-0.00102974
-0.00103556
-0.00103641
-0.00103283
-0.00090342
-0.000909578
-0.000911473
-0.000909609
-0.000790075
-0.000796793
-0.000799936
-0.000799948
-0.000688335
-0.000695729
-0.000700182
-0.000702076
-0.000597005
-0.000605121
-0.000610863
-0.000614553
-0.000515041
-0.000523881
-0.000530841
-0.000536187
-0.000441523
-0.000451064
-0.000459144
-0.000465978
-0.000375622
-0.000385827
-0.000394916
-0.000403067
-0.00031658
-0.000327407
-0.000337399
-0.000346702
-0.0002637
-0.000275116
-0.000285914
-0.000296222
-0.000216346
-0.000228329
-0.000239857
-0.000251044
-0.000173944
-0.000186498
-0.000198705
-0.000210668
-0.000136
-0.000149163
-0.000162026
-0.000174679
-0.000102125
-0.000115979
-0.0001295
-0.000142763
-7.20833e-05
-8.67665e-05
-0.000100962
-0.000114719
-4.59051e-05
-6.15797e-05
-7.64278e-05
-9.04639e-05
-2.42532e-05
-4.08702e-05
-5.61206e-05
-6.9969e-05
-8.95145e-06
-2.57051e-05
-4.03466e-05
-5.30278e-05
-2.98302e-06
-1.90862e-05
-3.07396e-05
-3.96926e-05
1.59625e-05
7.05881e-07
-1.00765e-05
-1.75457e-05
771.898
770.761
769.718
768.537
766.585
763.193
761.304
761.204
760.714
757.594
745.014
743.6
742.283
750.059
753.184
751.944
747.12
747.337
750.618
773.198
770.402
766.243
762.143
757.675
752.824
747.011
742.595
746.902
752.456
751.301
748.772
745.777
741.211
734.329
729.11
728.647
724.098
719.978
358.514
350.689
344.46
338.413
333.505
329.166
323.707
314.916
302.214
294.426
293.107
286.997
277.853
264.892
252.27
246.36
244.398
242.014
242.271
0.912483
0.828126
1.13295
1.44061
1.2726
0.922932
0.717372
0.62738
0.554463
0.535313
0.489272
0.437809
0.407197
0.458925
0.505483
0.517856
0.515129
0.523473
0.515154
0.685714
0.623597
0.981623
1.42556
1.38764
1.33689
1.37013
1.37354
1.36969
1.36254
1.30582
0.926922
0.448179
0.859812
1.05194
1.05734
1.05996
1.06129
0.961733
0.647946
0.583652
0.679246
0.582301
0.66331
0.592199
0.508433
0.451527
0.410688
0.300694
0.104455
0.0324222
0.237763
0.284126
0.318385
0.39831
0.388962
0.449726
0.52403
0.24346
0.248141
0.177786
0.0970257
0.00422753
0.00677491
0.00988149
0.0121469
0.0136337
0.0159122
0.0195913
0.0307824
0.0469604
0.0166207
0.0144988
0.0135157
0.0136098
0.0133583
0.0455803
-0.00345863
-0.00246279
-0.0016704
0.000103206
0.00258651
0.00668757
0.0432081
0.0613617
0.0550909
0.059468
0.0781026
0.0925752
0.0592305
0.0140368
0.0127547
0.0119923
0.0117746
0.0116078
0.0113178
-0.00232056
-0.00141959
-0.000821259
0.000254009
0.00169634
0.0417194
0.0886818
0.0888592
0.0889867
0.0902957
0.0919406
0.0933853
0.0586754
0.0149594
0.0113483
0.0107931
0.0105745
0.0105943
0.0107776
0.0115368
0.0155844
0.00211666
1.86262e-05
0.00208221
0.063622
0.0840029
0.0291904
0.00317327
0.00907351
0.0438345
0.069197
0.0466194
0.0460577
0.017018
0.00972894
0.00965501
0.00975893
0.0100132
0.0353638
0.0359622
0.0299967
0.00306501
0.0051643
0.0143358
-0.0016401
-0.000265617
0.00277968
0.00251937
0.00304791
0.00508432
0.0482232
0.0496995
0.0264292
0.00887715
0.0089557
0.0090448
0.00923091
0.0367775
0.0373427
0.0380143
0.0365333
-0.00124242
-0.00150434
-0.00110063
0.000760106
0.00417973
0.00432935
0.00281907
0.00989728
0.0346567
0.0434868
0.00971517
0.00910095
0.0084568
0.00848409
0.00848006
0.00444073
0.029545
0.0327237
0.00509987
-0.00172569
-0.00134931
-0.000845387
0.000252326
0.00117094
0.00126789
0.00193351
0.00250416
0.00305686
0.0153222
0.0307379
0.0290953
0.00841203
0.00809096
0.00784691
-0.00356023
-0.00373775
-0.00339201
-0.00252923
-0.00174947
-0.00123937
-0.000730293
-0.000157686
0.000473086
0.001101
0.00169254
0.00225045
0.00354344
0.0207005
0.0310163
0.0319122
0.0326315
0.0164049
0.00848721
-0.00293973
-0.0030086
-0.00272404
-0.00219118
-0.00161419
-0.0011383
-0.000658193
-0.000140121
0.000400725
0.000941205
0.00146347
0.00196245
0.00242957
0.00286277
0.0106067
0.0148877
0.0107106
0.0107684
0.0103024
-0.00239758
-0.00207595
-0.00179028
-0.00162446
-0.00140609
-0.00103173
-0.000603139
-0.000148441
0.000319025
0.000784491
0.00123659
0.00167266
0.00209093
0.00251748
0.00301428
0.00363261
0.00433771
0.0108898
0.0248051
-0.00216205
-0.00155517
-0.0013295
-0.0010194
-0.000770126
-0.000913322
-0.000562269
-0.000150724
0.00028961
0.000655962
0.00100583
0.0013723
0.00172402
0.0020729
0.00245184
0.00286294
0.00783045
0.0362655
0.0368415
-0.00194314
-0.00178128
-0.00114515
-0.000797851
-0.000506381
-0.000617766
-0.000537772
-0.00011271
0.000316401
0.000633392
0.000799368
0.00107068
0.00133637
0.00156886
0.00175998
0.00186709
0.0114735
0.0366847
0.0367782
-0.00169823
-0.00162687
-0.00149481
-0.00110933
-0.000779564
-0.000761817
-0.000514835
-0.000106592
0.000227466
0.000498339
0.000679699
0.000782692
0.000965397
0.00108939
0.00112343
0.00100856
0.00280042
0.0160215
0.0237102
-0.00148979
-0.00142346
-0.00131096
-0.00115418
-0.000961584
-0.000743859
-0.000513795
-0.000235497
7.88001e-05
0.000302974
0.000390788
0.000528027
0.000644699
0.000695231
0.00064697
0.000454299
9.43861e-05
-0.000451472
-0.000309422
-0.00131077
-0.0012524
-0.001158
-0.00102913
-0.000872046
-0.0006951
-0.000508175
-0.000319361
-0.000135038
3.80834e-05
0.000190878
0.000310881
0.000385042
0.000396374
0.000327242
0.000153011
-0.000102887
-0.000353849
-0.00015488
-0.00115567
-0.00110656
-0.00102876
-0.000923875
-0.00079666
-0.000653559
-0.000502176
-0.000349518
-0.000201986
-6.6395e-05
4.91292e-05
0.000134936
0.000181161
0.000177519
0.000115164
-7.68484e-06
-0.000153062
-0.000230787
-1.52211e-05
-0.00102018
-0.000980688
-0.000918021
-0.000833828
-0.000731919
-0.000617424
-0.000496378
-0.000374808
-0.000258595
-0.000153868
-6.72907e-05
-6.03363e-06
2.3493e-05
1.65126e-05
-2.75716e-05
-9.77151e-05
-0.000151102
-0.000122917
0.000107537
-0.000900962
-0.000870851
-0.000821862
-0.000755627
-0.000675328
-0.000585147
-0.000489944
-0.000394862
-0.000304996
-0.000225523
-0.00016165
-0.000118258
-9.88495e-05
-0.000104144
-0.000129293
-0.000156841
-0.000144484
-5.18409e-05
0.00130007
-0.000795421
-0.000774133
-0.000737394
-0.000686789
-0.000625022
-0.000555554
-0.000482388
-0.000409785
-0.000342029
-0.000283308
-0.000237493
-0.00020766
-0.000195163
-0.000198305
-0.000209854
-0.000211499
-0.000166707
-4.9812e-05
0.00815621
-0.000701538
-0.000688342
-0.000662499
-0.000625493
-0.00057966
-0.000527887
-0.000473482
-0.000419951
-0.000370792
-0.000329271
-0.000298135
-0.00027913
-0.000272238
-0.000274658
-0.000279139
-0.000270528
-0.000221129
-0.000109028
0.00864467
-0.000617728
-0.00061183
-0.0005956
-0.000570408
-0.000538278
-0.000501635
-0.000463212
-0.000425876
-0.000392413
-0.000365284
-0.000346319
-0.000336285
-0.000334303
-0.000337177
-0.000338636
-0.000327923
-0.000285792
-0.000185291
0.00883904
-0.000542729
-0.000543322
-0.000535513
-0.000520549
-0.000500187
-0.000476471
-0.000451664
-0.000428093
-0.000407933
-0.000392963
-0.000384252
-0.000381788
-0.000384023
-0.000387477
-0.000386645
-0.00037393
-0.000335963
-0.000245501
0.00880242
-0.000475515
-0.000481815
-0.000481328
-0.000475171
-0.000464873
-0.000452171
-0.000438947
-0.000427086
-0.000418261
-0.000413682
-0.000413779
-0.000417836
-0.000423579
-0.000426855
-0.000421611
-0.000399767
-0.000347962
-0.000245178
0.00125515
-0.000415232
-0.000426495
-0.000432313
-0.000433677
-0.000431924
-0.000428548
-0.000425141
-0.000423244
-0.000424146
-0.000428611
-0.000436548
-0.000446607
-0.000455702
-0.000458554
-0.000447164
-0.000409314
-0.000325849
-0.000184243
3.03721e-05
-0.000361155
-0.000376683
-0.00038786
-0.000395562
-0.000400972
-0.00040541
-0.000410257
-0.000416825
-0.000426142
-0.00043868
-0.000453998
-0.000470281
-0.000483769
-0.000488112
-0.00047327
-0.000422709
-0.000311636
-0.000136573
0.00310692
-0.000312658
-0.000331795
-0.000347439
-0.000360368
-0.000371658
-0.000382516
-0.000394203
-0.000407908
-0.00042454
-0.00044446
-0.000467106
-0.00049049
-0.000510561
-0.000520456
-0.00050924
-0.000458879
-0.00034327
-0.000161963
0.011008
-0.000269193
-0.000291316
-0.000310565
-0.000327653
-0.000343598
-0.000359555
-0.000376751
-0.000396356
-0.000419304
-0.000446035
-0.000476117
-0.000507727
-0.000536985
-0.00055715
-0.00055743
-0.000520385
-0.00042024
-0.000249384
0.0112108
-0.000230288
-0.000254781
-0.000276776
-0.000296966
-0.000316361
-0.000336128
-0.000357527
-0.000381805
-0.000410047
-0.000442947
-0.000480452
-0.000521242
-0.000562066
-0.000596761
-0.000614912
-0.000599592
-0.000522546
-0.000356951
0.011382
-0.000195532
-0.000221754
-0.000245603
-0.000267816
-0.00028945
-0.000311734
-0.000336012
-0.000363673
-0.000396049
-0.000434239
-0.000478808
-0.000529304
-0.000583591
-0.000636524
-0.000678222
-0.000691749
-0.000643466
-0.000481093
0.0115905
-0.000164567
-0.000191801
-0.000216537
-0.000239644
-0.000262283
-0.000285772
-0.000311558
-0.000341196
-0.000376314
-0.000418523
-0.000469219
-0.000529187
-0.000597922
-0.000671983
-0.000742633
-0.000791311
-0.000778719
-0.000621907
0.0117479
-0.000137068
-0.000164443
-0.000188982
-0.000211795
-0.000234187
-0.000257559
-0.000283436
-0.000313508
-0.000349682
-0.000394106
-0.000449137
-0.000517138
-0.000599813
-0.000696638
-0.000800965
-0.000882658
-0.000913182
-0.000762458
0.0050677
-0.000112678
-0.000139079
-0.000162195
-0.000183486
-0.000204402
-0.000226371
-0.000250914
-0.000279762
-0.000314996
-0.000359218
-0.000415744
-0.000488737
-0.000582692
-0.000701612
-0.000844313
-0.000963281
-0.00105343
-0.000916466
0.00333223
-9.08932e-05
-0.000114838
-0.000135167
-0.000153726
-0.00017203
-0.000191413
-0.000213254
-0.00023916
-0.000271179
-0.00031211
-0.000365942
-0.000438418
-0.000537397
-0.000672971
-0.000856215
-0.00105195
-0.0012573
-0.00114585
0.00477455
-7.08155e-05
-9.03273e-05
-0.00010642
-0.000121144
-0.00013587
-0.000151649
-0.000169527
-0.000190762
-0.000217054
-0.00025092
-0.000296314
-0.000359642
-0.000451078
-0.00058699
-0.000798467
-0.00112319
-0.00154042
-0.00149621
0.0044717
-5.06267e-05
-6.34949e-05
-7.4264e-05
-8.44971e-05
-9.5098e-05
-0.000106626
-0.00011962
-0.000134756
-0.000153025
-0.000176033
-0.000206583
-0.000249822
-0.000315104
-0.000420506
-0.000614466
-0.00103286
-0.00179994
-0.00204527
0.00371864
-2.50645e-05
-3.26989e-05
-3.93647e-05
-4.62987e-05
-5.38239e-05
-6.20001e-05
-7.08429e-05
-8.03944e-05
-9.07899e-05
-0.00010239
-0.000116102
-0.000134186
-0.00016211
-0.00021287
-0.000324369
-0.000633765
-0.00150077
-0.00248356
0.00189412
)
;

boundaryField
{
    leftWall
    {
        type            fixedFluxPressure;
        gradient        uniform 0;
        value           nonuniform List<scalar> 
50
(
753.608
753.561
753.48
753.361
753.205
753.013
752.785
752.521
752.05
728.391
233.744
0.817822
0.819178
0.532417
0.0106818
0.0076443
0.00785022
0.0067783
0.00614898
0.00548783
0.00488516
0.00437177
0.00388194
0.00342597
0.00348752
0.00345517
0.00320271
0.00295973
0.0027241
0.00256599
0.0024222
0.00225678
0.00210938
0.00120804
0.000916827
0.000812482
0.000764058
0.00067103
0.000586725
0.000562477
0.000509373
0.000435519
0.000388255
0.000370015
0.000396433
0.000467994
0.000603365
0.000718544
0.000863141
0.000676596
)
;
    }
    rightWall
    {
        type            fixedFluxPressure;
        gradient        uniform 0;
        value           nonuniform List<scalar> 
50
(
751.454
751.408
750.92
750.82
751.244
751.394
751.176
750.953
750.618
719.978
242.271
0.515154
0.961733
0.52403
0.0455803
0.0113178
0.0107776
0.0100132
0.00923091
0.00848006
0.00784691
0.00848721
0.0103024
0.0248051
0.0368415
0.0367782
0.0237102
-0.000309422
-0.00015488
-1.52211e-05
0.000107537
0.00130007
0.00815621
0.00864467
0.00883904
0.00880242
0.00125515
3.03721e-05
0.00310692
0.011008
0.0112108
0.011382
0.0115905
0.0117479
0.0050677
0.00333223
0.00477455
0.0044717
0.00371864
0.00189412
)
;
    }
    lowerWall
    {
        type            fixedFluxPressure;
        gradient        uniform 0;
        value           nonuniform List<scalar> 
62
(
753.608
753.816
754.166
754.658
755.282
756.024
756.87
757.804
758.809
759.868
760.961
762.068
763.164
764.222
765.213
766.116
766.939
767.708
768.388
768.94
769.505
770.012
770.269
770.269
770.298
770.368
770.502
770.7
770.969
771.292
771.689
773.184
773.09
772.816
772.38
768.246
768.17
768.188
768.283
769.424
770.712
771.033
771.48
768.246
768.391
767.922
767.098
766.008
764.629
763.18
761.658
760.074
758.444
757.016
755.817
754.701
753.98
753.182
752.64
752.099
751.687
751.454
)
;
    }
    atmosphere
    {
        type            totalPressure;
        rho             rho;
        psi             none;
        gamma           1;
        p0              uniform 0;
        value           nonuniform List<scalar> 
46
(
-8.00297e-05
0
0
0
0
0
0
0
0
0
0
0
0
0
0
0
0
0
0
0
0
-8.32008e-08
-1.02087e-06
-2.37832e-06
-3.54065e-06
-4.91947e-06
-6.50469e-06
-9.61053e-06
-1.47974e-05
-2.08638e-05
-2.76849e-05
-3.51223e-05
-4.30189e-05
-5.1195e-05
-5.9445e-05
-6.75327e-05
-7.51879e-05
-8.2099e-05
-8.79005e-05
-9.21409e-05
-9.41974e-05
-9.30507e-05
-8.66288e-05
-7.01194e-05
-2.95881e-05
0
)
;
    }
    defaultFaces
    {
        type            empty;
    }
}


// ************************************************************************* //
