/*--------------------------------*- C++ -*----------------------------------*\
  =========                 |
  \\      /  F ield         | OpenFOAM: The Open Source CFD Toolbox
   \\    /   O peration     | Website:  https://openfoam.org
    \\  /    A nd           | Version:  9
     \\/     M anipulation  |
\*---------------------------------------------------------------------------*/
FoamFile
{
    format      ascii;
    class       volScalarField;
    location    "3.21";
    object      alpha.water;
}
// * * * * * * * * * * * * * * * * * * * * * * * * * * * * * * * * * * * * * //

dimensions      [0 0 0 0 0 0 0];

internalField   nonuniform List<scalar> 
2268
(
1
1
0.999999
0.999999
0.999999
1
1
0.999999
0.999999
0.999999
1
1
1
1
1
1
1
0.998371
0.980244
0.993323
0.997386
0.994391
0.993029
0.999999
0.999999
0.999999
0.999999
0.999999
0.999999
0.999998
0.999998
0.999999
1
1
1
1
1
1
1
0.999864
0.988202
0.979496
0.981448
0.997591
0.999776
0.995509
0.999999
0.999999
0.999998
0.999999
0.999999
1
0.999999
0.999999
1
1
1
1
1
1
1
1
0.999488
0.981734
0.979496
0.979496
0.989484
0.999985
0.999985
1
0.999999
0.999999
1
1
1
1
1
1
1
1
1
1
1
1
0.999999
0.999975
0.992721
0.979496
0.979509
0.995256
0.999985
0.999983
1
0.999999
0.999999
1
1
1
1
1
1
1
1
1
1
1
0.999999
0.999993
0.999993
0.999812
0.994283
0.996626
0.999848
0.999985
0.999943
1
1
1
1
1
1
1
1
1
1
1
1
1
1
1
0.999999
0.999999
1
1
1
1
0.999991
0.999937
1
1
1
1
1
1
1
1
1
1
1
1
1
1
1
1
1
1
1
1
1
1
0.999937
1
1
1
1
1
1
1
1
1
1
1
1
1
1
1
1
1
1
1
1
1
1
0.999959
0.989699
0.989699
0.989702
0.989832
0.99075
0.990754
0.992382
0.999358
0.995078
0.993696
0.993723
0.979644
0.960109
0.960109
0.960109
0.960117
0.962478
0.960168
0.960164
0.991588
0.992196
0.992802
0.997322
0.999833
0.999839
0.999849
0.999848
0.995424
0.994119
0.994135
0.965736
0.960109
0.960109
0.979661
0.961985
0.975023
0.980175
0.975545
0.999948
0.999948
0.999948
0.999603
0.999731
0.999913
0.999913
0.996093
0.992423
0.996973
0.993649
0.96011
0.96011
0.968651
0.998085
0.995958
0.947752
0.98025
0.98025
0.999712
0.999889
0.999949
0.999852
0.999769
0.999913
0.999913
0.996422
0.992424
0.997005
0.997355
0.962695
0.96011
0.985826
0.998258
0.990557
0.938724
0.951318
0.980258
0.999449
0.99977
0.999949
0.999949
0.999932
0.999914
0.999913
0.999697
0.996919
0.999195
0.998793
0.987425
0.976438
0.992962
0.998269
0.998269
0.953909
0.926435
0.980191
0.999588
0.999903
0.999949
0.999949
0.999949
0.999446
0.999913
0.999912
0.999911
0.999894
0.999892
0.99883
0.998289
0.998269
0.998218
0.998269
0.998252
0.926463
0.977335
0.999949
0.999949
0.999949
0.999949
0.999949
0.997718
0.995123
0.995211
0.999902
0.999892
0.996838
0.994678
0.998014
0.998269
0.998269
0.998269
0.998269
0.960322
0.894056
0.999948
0.999949
0.999949
0.999948
0.999766
0.999615
0.95717
0.942973
0.961483
0.966573
0.972277
0.99727
0.998269
0.998269
0.998269
0.998269
0.998269
0.981601
0.893685
1
1
1
1
1
1
1
1
1
1
0.999999
0.999999
0.999999
1
1
1
1
1
1
1
1
1
0.999959
1
1
1
0.995893
0.993649
0.993382
0.990776
0.986579
0.982839
0.979851
0.978726
0.978263
0.976807
0.976424
0.977057
0.978205
0.979704
0.981476
0.982813
0.983255
0.982458
0.980166
0.975337
0.455873
0.439406
0.426372
0.417677
0.405289
0.389996
0.382547
0.375852
0.368297
0.361483
0.356483
0.352298
0.350514
0.350445
0.351946
0.355686
0.361717
0.368986
0.374216
0.374661
0.368727
0.355655
0.333552
0.00352576
0.00416627
0.00222861
0.00125208
0.00213122
0.00374552
0.00271717
0.00196744
0.00152218
0.00141163
0.00103884
0.00103032
0.00101735
0.00100307
0.000987527
0.000965172
0.000934425
0.000914054
0.000904372
0.000885081
0.000870429
0.000868536
0.000868128
0.00148798
0.00402606
0.00175638
0.00109281
0.00209102
0.00582191
0.00262599
0.00218822
0.00616331
0.00849355
0.00767261
0.00662877
0.00722022
0.00640358
0.0056296
0.00585756
0.00700527
0.00576377
0.00259431
0.00375117
0.00373654
0.00104386
0.000868536
0.00148798
0.00368189
0.00368186
0.00109151
0.00201215
0.00582585
0.00583695
0.00584621
0.0058524
0.00848563
0.0084713
0.00845496
0.00843776
0.00841085
0.00838225
0.00828853
0.00697512
0.00472827
0.000860832
0.000684122
0.00114829
0.000858928
0.0011401
0.00303121
0.00324044
0.00336672
0.00109236
0.00116697
0.00122774
0.00259452
0.00431837
0.00337834
0.00113831
0.000915299
0.00103873
0.000764887
0.000413023
0.000174106
2.3828e-05
2.47882e-05
0.000748037
0.00089021
0.000305207
0.000287216
0.000286524
0.0011435
0.00141273
0.000916979
0.00177771
0.00189768
0.00190173
0.0019002
0.0013922
2.05928e-06
1.68305e-09
1.76679e-09
2.20079e-09
2.59036e-09
2.64372e-09
2.76829e-08
6.49968e-08
2.37055e-05
0.000232123
0.000197769
0.000927087
0.000933244
0.00042407
0.000285573
0.000363945
1.5495e-07
1.02793e-06
1.29022e-05
0.000740112
0.00123844
0.000845909
0.000161407
3.98564e-09
4.83761e-10
1.72001e-09
1.32094e-07
5.74447e-09
8.37794e-06
1.78329e-05
1.05688e-06
5.41224e-10
5.41168e-10
9.0257e-11
0.00049441
0.000764041
0.000760637
0.000285971
3.26728e-07
1.75394e-08
7.93017e-07
3.69281e-07
7.44662e-09
2.8109e-10
2.30197e-10
2.2967e-10
4.34256e-09
4.81054e-10
4.83761e-10
2.94572e-06
3.49313e-06
1.49527e-06
1.37338e-07
4.91256e-09
1.47821e-09
4.61589e-11
4.61589e-11
9.02499e-11
0.000104952
7.8943e-05
3.26081e-07
3.24961e-07
1.0418e-08
7.92563e-07
3.69008e-07
1.88226e-08
6.93444e-09
1.28066e-09
2.28882e-10
2.54792e-10
2.48251e-10
2.73522e-06
3.36557e-06
2.90378e-06
3.3474e-08
3.33727e-08
3.33349e-08
7.95529e-09
4.61589e-11
6.87149e-11
7.10005e-11
4.22085e-10
3.36126e-09
2.05842e-06
3.4168e-06
3.7031e-09
1.00056e-07
4.96538e-08
2.16091e-08
1.38218e-08
9.28503e-10
2.28072e-10
2.28112e-10
2.85038e-07
1.57254e-06
1.43062e-06
8.05552e-08
6.355e-08
5.32553e-08
3.80542e-08
1.20513e-09
4.60581e-11
4.65173e-11
6.76686e-08
5.41865e-07
3.70484e-06
7.18108e-06
7.18091e-06
2.6077e-09
2.6077e-09
2.76051e-09
4.25968e-09
1.25983e-09
5.78405e-10
9.1142e-10
1.21842e-08
4.96557e-08
8.7374e-09
3.17359e-11
3.14476e-11
3.14744e-11
3.14476e-11
3.15346e-11
4.44801e-11
4.60132e-11
8.27224e-11
9.42467e-11
4.21251e-07
5.53392e-06
7.18151e-06
7.18121e-06
7.55972e-09
8.07546e-08
8.91609e-08
3.71765e-09
1.4508e-10
4.47288e-10
1.40767e-09
4.17273e-09
5.10271e-09
5.81381e-09
3.28387e-09
4.01076e-10
3.16392e-11
8.42408e-11
8.50917e-11
5.74077e-11
4.29105e-11
3.28428e-10
8.33333e-10
2.73654e-11
3.89597e-11
1.59581e-06
7.1809e-06
1.14989e-08
2.42442e-07
3.33721e-07
1.4508e-10
1.44459e-10
5.0568e-10
1.08208e-09
1.57243e-09
1.98836e-09
2.10795e-09
9.10348e-10
1.6314e-10
2.92056e-11
1.23302e-11
9.9337e-12
6.5507e-12
1.56062e-11
2.36867e-11
2.63647e-11
2.70023e-11
2.73682e-11
3.89051e-11
2.18898e-07
2.76752e-08
3.60307e-07
3.61057e-07
4.53828e-08
1.31999e-10
3.49533e-10
5.7016e-10
5.28682e-10
3.88101e-10
2.25865e-10
7.45453e-11
1.34606e-11
6.32169e-13
-6.83949e-13
-8.64987e-13
-6.11618e-13
0
2.64109e-12
3.29177e-11
9.19771e-11
1.19178e-10
1.18143e-10
1.18215e-10
4.56111e-08
3.61275e-07
3.6138e-07
1.78021e-07
1.31604e-10
1.54211e-10
2.0538e-10
1.30671e-10
4.22958e-11
1.58461e-11
4.28173e-12
-2.2142e-13
-1.49849e-12
-2.18994e-12
-2.32522e-12
-2.05573e-12
-1.47479e-12
-5.55633e-13
9.34869e-13
2.64155e-11
1.0928e-10
1.79995e-10
1.91249e-10
2.52878e-08
3.51224e-07
3.61057e-07
1.5546e-07
1.31193e-10
1.30861e-10
1.30814e-10
2.47766e-11
5.39874e-12
5.95938e-14
-7.30876e-13
-1.63552e-12
-2.45532e-12
-2.9019e-12
-2.91462e-12
-2.63847e-12
-2.17671e-12
-1.56255e-12
-7.82382e-13
6.32271e-14
7.81732e-12
3.70569e-11
6.68076e-11
4.16331e-09
1.39323e-07
2.81482e-07
3.51024e-08
1.31604e-10
5.27389e-10
1.77414e-10
1.28293e-11
5.78745e-12
-1.70741e-13
-1.05674e-12
-1.7494e-12
-2.32592e-12
-2.65194e-12
-2.68602e-12
-2.49298e-12
-2.1576e-12
-1.75276e-12
-1.33158e-12
-9.1032e-13
-4.64697e-13
0
8.92359e-13
5.90193e-10
1.17274e-09
1.77928e-08
3.2019e-10
6.89119e-10
8.28939e-10
3.78566e-10
1.54061e-11
9.09372e-12
8.23588e-13
-3.72153e-13
-9.53674e-13
-1.46765e-12
-1.83264e-12
-1.986e-12
-1.93312e-12
-1.73273e-12
-1.45296e-12
-1.15349e-12
-8.7567e-13
-6.40219e-13
-4.48386e-13
-2.85273e-13
3.82556e-10
6.83693e-11
6.86754e-11
1.68073e-10
7.21769e-10
7.86758e-10
2.70506e-10
2.93595e-11
1.71303e-11
6.55804e-12
2.05495e-12
1.55065e-13
-3.82697e-13
-8.69253e-13
-1.15431e-12
-1.23979e-12
-1.17534e-12
-1.02092e-12
-8.30517e-13
-6.42541e-13
-4.78894e-13
-3.47678e-13
-2.43921e-13
1.51216e-09
6.81679e-11
6.79661e-11
8.12152e-11
3.38253e-10
3.56978e-10
1.30181e-10
4.63381e-11
2.94159e-11
1.93067e-11
1.04676e-11
3.90572e-12
6.13792e-13
-1.43203e-13
-4.8236e-13
-6.43488e-13
-6.73834e-13
-6.15518e-13
-5.14706e-13
-4.04565e-13
-3.0434e-13
-2.2313e-13
-1.61887e-13
6.74289e-09
1.01165e-08
6.80061e-11
6.79661e-11
7.50452e-11
7.60441e-11
6.0863e-11
5.31684e-11
4.01049e-11
3.20877e-11
2.17091e-11
1.09094e-11
3.39243e-12
3.84894e-13
-1.09389e-13
-2.61238e-13
-3.28066e-13
-3.22165e-13
-2.78055e-13
-2.21343e-13
-1.66896e-13
-1.21881e-13
-8.9032e-14
7.57649e-09
1.94198e-07
6.26085e-07
1.98372e-07
5.24605e-11
5.23927e-11
5.24869e-11
5.4693e-11
4.79733e-11
4.05932e-11
2.9762e-11
1.7218e-11
6.57129e-12
1.20353e-12
1.33174e-14
-8.13607e-14
-1.39585e-13
-1.50053e-13
-1.33672e-13
-1.07083e-13
-8.01995e-14
-5.76256e-14
-4.13465e-14
4.6865e-09
2.46653e-07
8.61354e-07
8.55368e-07
7.91708e-08
5.23936e-11
5.23927e-11
5.70396e-11
5.34996e-11
4.55288e-11
3.43588e-11
2.08793e-11
8.44534e-12
1.60243e-12
6.62884e-14
-1.90161e-14
-5.55558e-14
-6.46176e-14
-5.86404e-14
-4.67189e-14
-3.434e-14
-2.39783e-14
-1.65083e-14
3.52574e-09
1.49771e-07
8.61543e-07
8.61543e-07
2.21971e-07
5.55196e-11
5.23936e-11
5.80191e-11
5.54185e-11
4.73896e-11
3.55129e-11
2.07933e-11
7.42649e-12
1.07158e-12
3.09295e-14
-6.28285e-15
-2.23593e-14
-2.64939e-14
-2.38897e-14
-1.86432e-14
-1.32777e-14
-8.90267e-15
-5.77872e-15
3.52565e-09
1.27598e-08
8.61354e-07
8.58648e-07
1.59457e-07
1.6096e-10
5.24263e-11
5.78445e-11
5.465e-11
4.59526e-11
3.2463e-11
1.62834e-11
4.3241e-12
3.96703e-13
6.46786e-15
-3.76852e-15
-9.03737e-15
-1.03007e-14
-9.06023e-15
-6.85761e-15
-4.69079e-15
-2.98973e-15
-1.81709e-15
3.52574e-09
3.52574e-09
2.64003e-07
1.42695e-07
2.35503e-08
2.01205e-10
5.8647e-11
5.62208e-11
5.00983e-11
3.96889e-11
2.4561e-11
9.40875e-12
1.56018e-12
7.13724e-14
3.38591e-16
-2.15454e-15
-3.68535e-15
-3.85814e-15
-3.21614e-15
-2.31978e-15
-1.50713e-15
-9.05321e-16
-5.13512e-16
3.56914e-09
3.68305e-09
1.18306e-09
2.15768e-10
6.25335e-11
9.17231e-11
5.88798e-11
5.03962e-11
4.19329e-11
2.94122e-11
1.42456e-11
3.46892e-12
2.82502e-13
4.42647e-15
1.58017e-33
-1.07122e-15
-1.45826e-15
-1.37221e-15
-1.06332e-15
-7.19365e-16
-4.38248e-16
-2.45561e-16
-1.28775e-16
3.08412e-09
3.68567e-09
1.12452e-09
1.69039e-10
5.22059e-11
5.03728e-11
4.76075e-11
4.12833e-11
3.10264e-11
1.72149e-11
5.37158e-12
6.34199e-13
1.86087e-14
6.29555e-17
-2.60069e-16
-4.94946e-16
-5.38971e-16
-4.53925e-16
-3.23079e-16
-2.02449e-16
-1.14409e-16
-5.9303e-17
-2.85852e-17
1.58306e-09
2.90893e-09
1.2405e-09
2.45344e-10
5.98093e-11
4.37966e-11
3.80102e-11
2.98488e-11
1.79101e-11
6.44378e-12
9.72709e-13
4.04808e-14
2.65042e-16
-8.04559e-18
-1.5021e-16
-1.97123e-16
-1.82206e-16
-1.37158e-16
-8.88368e-17
-5.10181e-17
-2.64837e-17
-1.26e-17
-5.55521e-18
3.13143e-10
9.67448e-10
6.54904e-10
1.90701e-10
5.48203e-11
3.57209e-11
2.6546e-11
1.62006e-11
6.22289e-12
1.07497e-12
5.64357e-14
6.28311e-16
6.68566e-19
-3.9794e-17
-6.67846e-17
-6.90513e-17
-5.53919e-17
-3.72044e-17
-2.17502e-17
-1.13348e-17
-5.35147e-18
-2.3163e-18
-9.27816e-19
2.41556e-11
8.67829e-11
1.04272e-10
6.24394e-11
3.26203e-11
2.12517e-11
1.24263e-11
4.76834e-12
8.64422e-13
5.15135e-14
7.57276e-16
1.7225e-18
-9.30341e-18
-2.08379e-17
-2.45757e-17
-2.12854e-17
-1.49317e-17
-8.91176e-18
-4.66365e-18
-2.18339e-18
-9.27561e-19
-3.61369e-19
-1.30202e-19
3.83161e-12
7.04036e-12
9.74573e-12
1.10234e-11
1.01096e-11
6.67556e-12
2.63487e-12
4.85705e-13
3.08939e-14
5.42131e-16
1.81614e-18
-1.13258e-18
-5.76564e-18
-8.10736e-18
-7.73515e-18
-5.73919e-18
-3.52267e-18
-1.85688e-18
-8.6197e-19
-3.58633e-19
-1.35461e-19
-4.69038e-20
-1.50052e-20
8.33529e-13
1.7652e-12
1.86819e-12
1.77981e-12
1.43861e-12
7.00918e-13
1.50863e-13
1.10588e-14
2.39544e-16
1.5136e-18
1.19134e-21
-1.35751e-18
-2.4485e-18
-2.63751e-18
-2.10513e-18
-1.34487e-18
-7.1942e-19
-3.32276e-19
-1.35405e-19
-4.94542e-20
-1.63794e-20
-4.96483e-21
-1.38783e-21
7.21787e-14
2.60165e-13
2.28619e-13
1.46808e-13
6.50445e-14
1.60632e-14
1.60506e-15
5.49632e-17
7.36741e-19
1.85495e-21
-2.50723e-19
-6.61904e-19
-8.46969e-19
-7.36652e-19
-4.96783e-19
-2.72761e-19
-1.26279e-19
-5.0596e-20
-1.78771e-20
-5.6481e-21
-1.61299e-21
-4.2011e-22
-1.00574e-22
1.04349e-15
8.42178e-15
6.71181e-15
2.96528e-15
6.672e-16
7.97476e-17
5.08164e-18
1.68072e-19
1.09252e-21
-3.49341e-20
-1.44813e-19
-2.46263e-19
-2.506e-19
-1.7908e-19
-1.02141e-19
-4.7921e-20
-1.90171e-20
-6.52815e-21
-1.96942e-21
-5.2843e-22
-1.27381e-22
-2.78367e-23
-5.56166e-24
1.60263e-18
3.07758e-17
2.69672e-17
1.15935e-17
2.29379e-18
2.61358e-19
1.78811e-20
2.42171e-22
-3.56225e-21
-2.46926e-20
-5.84788e-20
-7.71699e-20
-6.51731e-20
-3.83821e-20
-1.84966e-20
-7.35466e-21
-2.4704e-21
-7.14947e-22
-1.80466e-22
-4.01256e-23
-7.93494e-24
-1.4093e-24
-2.27012e-25
6.60611e-22
1.68752e-20
2.79404e-20
2.32046e-20
7.98556e-21
9.50822e-22
2.02069e-23
-4.30014e-22
-3.40125e-21
-1.0992e-20
-1.94622e-20
-2.12179e-20
-1.52601e-20
-7.52972e-21
-3.03516e-21
-1.00644e-21
-2.80665e-22
-6.69188e-23
-1.37262e-23
-2.4405e-24
-3.80007e-25
-5.2423e-26
-6.48464e-27
-5.92388e-43
8.37652e-26
9.54942e-24
1.99197e-23
1.2081e-23
7.49455e-25
-1.98808e-22
-5.87665e-22
-1.74041e-21
-3.91751e-21
-5.64075e-21
-5.26637e-21
-3.29984e-21
-1.41955e-21
-4.66299e-22
-1.25962e-22
-2.83908e-23
-5.38825e-24
-8.56736e-25
-1.14923e-25
-1.31879e-26
-1.31491e-27
-1.157e-28
-8.63685e-24
-2.71239e-23
-1.93228e-23
-2.96526e-23
-7.07027e-23
-1.2972e-22
-2.13393e-22
-3.45835e-22
-6.81876e-22
-1.19786e-21
-1.46792e-21
-1.20858e-21
-6.7676e-22
-2.60292e-22
-6.90762e-23
-1.51461e-23
-2.64882e-24
-3.73621e-25
-4.1582e-26
-3.72272e-27
-2.74737e-28
-1.71054e-29
-9.18528e-31
-5.99934e-25
-7.90007e-24
-2.75637e-23
-4.50301e-23
-6.6706e-23
-9.18785e-23
-1.14323e-22
-1.45123e-22
-2.22106e-22
-3.2407e-22
-3.50045e-22
-2.61813e-22
-1.35214e-22
-4.82202e-23
-1.17071e-23
-1.95492e-24
-2.4039e-25
-1.96242e-26
-1.09346e-27
-4.38186e-29
-1.33333e-30
-3.23239e-32
-6.4795e-34
0.99989
0.999783
0.999642
0.999469
0.968035
0.9613
0.954634
0.949068
0.307862
0.289894
0.275691
0.263106
0.000866659
0.000851478
0.000823457
0.000806673
0.00086802
0.00459883
0.00594835
0.00594531
0.00251528
0.00461745
0.00314859
0.00196814
0.000747632
4.45164e-06
9.42962e-07
0.00119418
0.000229242
3.165e-05
8.29588e-07
0.000263605
3.25572e-07
2.47759e-06
8.28985e-07
1.20797e-08
3.24311e-07
3.22725e-07
3.73613e-07
2.69906e-07
1.51185e-06
2.57515e-08
2.54332e-08
1.25054e-08
7.18113e-06
7.18149e-06
5.2605e-06
2.38127e-07
7.1809e-06
7.18088e-06
7.17729e-06
6.95865e-06
7.02937e-06
2.0026e-06
2.9599e-10
1.99303e-07
3.20858e-07
1.18571e-08
1.24656e-10
4.02123e-09
1.18241e-10
1.18249e-10
1.20493e-10
4.9903e-10
1.87893e-10
1.4342e-10
1.0071e-10
6.40463e-11
6.99208e-11
5.84897e-11
4.2101e-11
2.97372e-11
2.3652e-12
2.74198e-12
2.91072e-12
2.95433e-12
-1.3433e-13
-7.54727e-14
-3.29615e-14
-9.22151e-15
-1.52449e-13
-1.13648e-13
-8.19595e-14
-5.86512e-14
-1.10739e-13
-8.60209e-14
-6.46206e-14
-4.7608e-14
-6.48018e-14
-5.14195e-14
-3.94311e-14
-2.88292e-14
-3.14329e-14
-2.51684e-14
-1.9672e-14
-1.44852e-14
-1.2861e-14
-1.02254e-14
-8.03071e-15
-6.02583e-15
-4.5139e-15
-3.50818e-15
-2.70727e-15
-2.05339e-15
-1.38085e-15
-1.03452e-15
-7.68996e-16
-5.69423e-16
-3.71759e-16
-2.65049e-16
-1.8692e-16
-1.3103e-16
-8.81716e-17
-5.92144e-17
-3.91345e-17
-2.55741e-17
-1.84264e-17
-1.15928e-17
-7.1327e-18
-4.30705e-18
-3.35926e-18
-1.97443e-18
-1.12888e-18
-6.29023e-19
-5.23577e-19
-2.8639e-19
-1.51866e-19
-7.81249e-20
-6.79779e-20
-3.43341e-20
-1.67758e-20
-7.93152e-21
-7.1612e-21
-3.30017e-21
-1.46863e-21
-6.31254e-22
-5.96083e-22
-2.467e-22
-9.84039e-23
-3.78411e-23
-3.81027e-23
-1.38741e-23
-4.85772e-24
-1.63623e-24
-1.80995e-24
-5.64263e-25
-1.68672e-25
-4.83838e-26
-6.12105e-26
-1.57403e-26
-3.86637e-27
-9.08401e-28
-1.37619e-27
-2.76765e-28
-5.28768e-29
-9.61271e-30
-1.78262e-29
-2.5782e-30
-3.51093e-31
-4.41142e-32
-8.76323e-32
-7.73729e-33
-6.35756e-34
-4.85163e-35
-2.30178e-35
-7.33686e-37
-2.11717e-38
-5.57854e-40
0.999884
0.999936
0.999327
0.979416
0.945364
0.951591
0.943985
0.920396
0.932361
0.955591
0.990621
0.998269
0.998269
0.998269
0.994002
0.998269
0.998268
0.997535
0.94932
0.923489
0.871931
0.826382
0.833785
0.857597
0.883173
0.894625
0.892055
0.882663
0.881009
0.88454
0.891409
0.900292
0.903447
0.909128
0.933847
0.961229
0.988871
0.981919
0.24537
0.288193
0.347321
0.38261
0.401223
0.415703
0.446355
0.479579
0.496036
0.495385
0.484886
0.477437
0.477824
0.480966
0.483995
0.484896
0.493323
0.511051
0.53733
0.000805281
0.000805269
0.000805269
0.000805269
0.000805269
0.000805494
0.000805896
0.00205805
0.005361
0.00852113
0.0107166
0.012081
0.0124737
0.0122627
0.0110511
0.00878955
0.00825694
0.00819991
0.0111791
0.00289198
0.000805281
0.000805269
0.000805269
0.00126539
0.00166746
0.00101107
0.00097639
0.00144947
0.00124095
0.00124079
0.00124872
0.00133204
0.00142459
0.00130411
0.00124339
0.00117098
0.00128124
0.00150758
0.000991736
0.00080527
0.000805269
0.00080527
0.00227573
0.00231871
0.00231887
0.00231887
0.00231887
0.00231887
0.00207536
0.00196385
0.00195437
0.00196746
0.00196771
0.00196441
0.00105869
0.00103233
0.00131642
0.00181589
0.00172141
0.00197584
0.00197589
0.00194339
0.00192712
0.00161129
0.00145046
0.00140226
0.0015763
0.00123438
0.00129839
0.00133086
0.00116509
0.00126966
0.00133237
0.00103738
0.000879168
0.000850718
0.00116173
0.000893346
0.00104621
0.000921455
0.000230336
6.02294e-05
0.000176052
9.1532e-05
2.31843e-05
4.46707e-05
3.15765e-05
5.1175e-05
5.35221e-05
5.12619e-05
5.39065e-05
0.000166854
0.000330169
0.000269096
0.000191226
1.20738e-08
1.20738e-08
1.20738e-08
1.20738e-08
1.20743e-08
7.29929e-07
1.97562e-06
2.57654e-06
2.8425e-06
2.67173e-06
2.75898e-06
2.88508e-06
1.38096e-05
4.84215e-05
1.84403e-05
3.37491e-06
1.43279e-06
1.4267e-06
1.41368e-06
1.20738e-08
1.20738e-08
1.20738e-08
1.20738e-08
1.20739e-08
1.20773e-08
1.27002e-08
3.74281e-06
2.88597e-06
2.67173e-06
2.67173e-06
1.46139e-05
7.7591e-05
7.75125e-05
7.73997e-05
2.44333e-05
1.42681e-06
1.41427e-06
1.40551e-06
1.20786e-08
1.20738e-08
1.20738e-08
1.20739e-08
1.20773e-08
4.33793e-06
2.05859e-05
2.33493e-05
1.74152e-05
6.84065e-06
4.23657e-05
7.78513e-05
7.78513e-05
7.74729e-05
1.82346e-05
6.99194e-06
2.20386e-06
2.16162e-06
1.40708e-06
3.15047e-07
1.20738e-08
1.2074e-08
1.21138e-08
1.16415e-06
1.98612e-05
2.33615e-05
2.33615e-05
1.97531e-05
4.6821e-06
4.55736e-05
7.7683e-05
4.2009e-05
7.53683e-06
7.00853e-06
1.309e-05
4.43744e-05
3.86525e-05
1.82017e-05
5.49942e-07
1.2074e-08
1.20742e-08
1.20883e-08
2.8169e-07
1.13498e-05
2.17264e-05
1.65034e-05
3.33e-06
1.50751e-06
8.01732e-06
6.66853e-06
1.12357e-06
1.03994e-06
1.96842e-05
4.76359e-05
4.76457e-05
4.76555e-05
4.76555e-05
4.62403e-07
1.20742e-08
2.04946e-08
2.02278e-07
3.35703e-07
4.47483e-07
1.0955e-06
7.70089e-07
2.57971e-10
4.08012e-09
6.15641e-10
8.98178e-10
5.75612e-09
9.16817e-07
3.42714e-05
4.76266e-05
4.09052e-05
2.36351e-05
4.72745e-05
2.06029e-08
3.73371e-08
7.57103e-08
1.09255e-07
1.08501e-07
3.35576e-08
1.61905e-08
2.22241e-09
1.92332e-10
1.91846e-10
3.26209e-10
4.6584e-10
6.91908e-10
9.16515e-07
1.80109e-05
2.20648e-05
1.49577e-09
2.62938e-07
1.26924e-05
3.33177e-09
7.15635e-09
7.47596e-09
1.58775e-09
2.78752e-08
2.46885e-07
3.04336e-07
8.88369e-08
1.91846e-10
1.91571e-10
1.97798e-10
1.95822e-10
2.03111e-10
2.95078e-07
8.4463e-07
1.6575e-10
1.62084e-10
1.44602e-06
2.02725e-05
2.72143e-11
9.7081e-12
2.93038e-12
1.27338e-11
4.67324e-08
3.182e-07
3.182e-07
3.182e-07
1.42884e-07
1.91569e-10
1.91569e-10
1.9158e-10
1.58178e-09
1.21443e-08
1.53218e-10
1.64979e-10
1.51097e-10
1.58843e-06
2.96469e-05
1.68463e-11
5.90118e-12
2.76994e-12
1.73751e-12
2.51596e-09
8.21376e-08
2.71075e-07
3.17724e-07
2.40865e-07
1.91569e-10
1.91569e-10
1.91569e-10
1.90416e-10
1.80624e-10
1.53218e-10
1.85641e-10
1.51069e-10
4.07095e-11
2.28552e-05
2.67031e-12
2.12848e-12
1.7654e-12
1.55161e-12
2.21426e-12
4.70203e-10
1.93576e-08
6.21227e-08
5.57031e-08
4.71735e-08
8.53773e-08
7.10989e-08
1.05507e-08
1.81005e-10
2.57273e-10
2.92618e-10
1.6619e-10
4.06898e-11
4.07095e-11
1.18605e-16
5.11141e-14
1.40104e-13
2.0147e-13
8.36029e-14
6.05986e-13
5.25729e-12
3.80396e-13
4.74307e-11
3.70562e-08
1.01544e-07
1.01546e-07
5.43541e-08
1.16493e-09
2.75653e-10
3.06835e-10
1.73535e-10
4.07095e-11
3.27043e-07
-4.33314e-14
-1.79251e-14
-4.67469e-15
8.01595e-16
7.21295e-16
1.43126e-34
4.62968e-16
7.22139e-14
3.86933e-13
2.2185e-09
3.56318e-08
6.57272e-08
2.9571e-08
1.82643e-09
3.23705e-10
2.97559e-10
9.57214e-11
4.09237e-11
1.32963e-05
-3.64989e-14
-2.07057e-14
-1.10258e-14
-5.40278e-15
-2.25497e-15
-6.19207e-16
6.76194e-16
7.36999e-14
8.74402e-13
1.31886e-12
5.91553e-12
7.9517e-10
8.79797e-11
2.93251e-10
3.10862e-10
1.74471e-10
4.76277e-12
6.17479e-09
1.84485e-05
-2.11732e-14
-1.25688e-14
-7.2389e-15
-4.03983e-15
-2.16981e-15
-1.08287e-15
-2.91222e-16
2.65568e-15
1.91007e-13
1.86835e-12
4.97247e-12
7.31453e-12
8.57415e-12
2.81956e-11
3.74417e-11
3.85657e-11
4.74508e-12
1.45599e-08
1.84505e-05
-9.95358e-15
-5.95984e-15
-3.50211e-15
-2.03053e-15
-1.16374e-15
-6.54327e-16
-3.47961e-16
-5.22737e-17
8.25462e-15
1.8847e-13
1.23544e-12
3.88168e-12
7.96819e-12
7.64103e-12
8.24944e-12
1.52627e-11
4.74312e-12
3.90343e-12
1.82373e-05
-3.83007e-15
-2.27202e-15
-1.32484e-15
-7.6375e-16
-4.39196e-16
-2.52988e-16
-1.43268e-16
-7.11733e-17
1.3627e-16
5.89419e-15
6.04086e-14
3.20905e-13
1.17781e-12
2.17419e-12
3.42435e-12
7.73154e-12
4.21602e-12
3.90002e-12
1.82352e-05
-1.20267e-15
-6.95227e-16
-3.96339e-16
-2.22781e-16
-1.24469e-16
-7.00283e-17
-3.91297e-17
-1.87659e-17
2.98169e-18
2.75592e-16
2.51836e-15
1.42203e-14
6.7559e-14
2.6854e-13
1.13386e-12
4.31328e-12
3.89697e-12
3.89835e-12
1.81595e-05
-3.0932e-16
-1.70309e-16
-9.34536e-17
-5.07659e-17
-2.72825e-17
-1.4541e-17
-7.50452e-18
-2.77712e-18
5.02584e-18
6.14059e-17
4.59928e-16
3.10015e-15
1.98889e-14
1.06059e-13
7.19627e-13
3.87284e-12
3.88424e-12
3.89161e-12
5.21701e-06
-6.51669e-17
-3.30288e-17
-1.69167e-17
-8.66957e-18
-4.40091e-18
-2.15561e-18
-9.29482e-19
-2.83595e-20
5.37308e-18
4.49774e-17
3.21638e-16
2.14546e-15
1.40717e-14
7.80313e-14
6.13193e-13
5.10055e-12
7.03054e-12
4.32677e-12
4.3268e-12
-1.128e-17
-5.06448e-18
-2.32389e-18
-1.07012e-18
-4.65365e-19
-3.90994e-20
7.89496e-20
8.05799e-19
5.33904e-18
3.97777e-17
2.83614e-16
1.89185e-15
1.25469e-14
7.03372e-14
5.91193e-13
8.28912e-12
1.56514e-11
4.32681e-12
4.33231e-12
-1.65254e-18
-6.35396e-19
-2.46318e-19
-6.45214e-20
3.57244e-20
4.70552e-19
2.7034e-18
8.40679e-18
2.00373e-17
5.93952e-17
2.93739e-16
1.84994e-15
1.22612e-14
6.86557e-14
8.30548e-13
1.25968e-11
2.30651e-11
4.33228e-12
6.92416e-06
-2.10194e-19
-6.84542e-20
-1.64356e-20
4.9495e-20
9.00008e-19
6.30315e-18
2.96134e-17
1.01987e-16
2.57405e-16
5.23681e-16
1.13055e-15
3.69634e-15
1.79873e-14
9.36641e-14
1.44103e-12
1.68099e-11
2.66284e-11
4.37725e-12
1.57278e-05
-2.30176e-20
-6.33353e-21
5.73276e-21
3.13588e-19
4.4366e-18
3.54284e-17
1.86377e-16
7.24164e-16
2.11532e-15
4.8127e-15
9.51671e-15
2.05497e-14
5.95958e-14
2.13288e-13
2.20773e-12
1.99488e-11
2.69218e-11
4.39878e-12
1.57286e-05
-2.07041e-21
-3.80793e-22
1.80888e-20
7.99158e-19
1.50762e-17
1.49371e-16
9.10002e-16
3.94195e-15
1.29234e-14
3.31578e-14
7.38012e-14
1.52251e-13
3.14725e-13
6.67677e-13
2.8128e-12
1.89143e-11
2.69108e-11
4.41099e-12
1.57069e-05
-1.44867e-22
9.32888e-23
2.45851e-20
1.51924e-18
3.77943e-17
4.81291e-16
3.57866e-15
1.76989e-14
6.68717e-14
1.95526e-13
4.79444e-13
9.58538e-13
1.64433e-12
2.5278e-12
4.04816e-12
1.541e-11
2.01214e-11
4.43092e-12
1.56668e-05
-7.50346e-24
1.19194e-22
2.69678e-20
2.18961e-18
7.13711e-17
1.17985e-15
1.10767e-14
6.45929e-14
2.91655e-13
1.02499e-12
2.58556e-12
4.43216e-12
6.19407e-12
8.11667e-12
9.84143e-12
1.47517e-11
1.43976e-11
4.44492e-12
1.32527e-05
-2.70879e-25
4.7264e-23
2.10615e-20
2.49703e-18
1.04492e-16
2.21295e-15
2.66901e-14
1.91652e-13
1.03935e-12
4.47848e-12
1.10979e-11
1.47201e-11
1.633e-11
2.10069e-11
2.67718e-11
2.79066e-11
4.54251e-11
4.4543e-12
9.02774e-06
-5.449e-27
2.13858e-23
8.90659e-21
2.09369e-18
1.21171e-16
3.19017e-15
5.05314e-14
4.78066e-13
3.07712e-12
1.51409e-11
3.64787e-11
3.67883e-11
3.55631e-11
5.06909e-11
1.00069e-10
3.96249e-10
3.9312e-10
4.48858e-12
8.08052e-06
2.68931e-28
8.1059e-24
3.82637e-21
8.56105e-19
1.01623e-16
3.60167e-15
7.51342e-14
1.00854e-12
7.56265e-12
3.73866e-11
8.507e-11
8.18709e-11
7.68577e-11
1.52605e-10
4.79686e-10
3.01436e-09
2.6668e-09
2.69632e-10
8.13436e-06
6.67222e-29
1.93236e-24
1.00965e-21
3.30496e-19
4.4317e-17
2.41555e-15
8.70598e-14
1.67037e-12
1.39058e-11
6.43116e-11
1.38591e-10
1.47128e-10
1.57541e-10
2.93945e-10
2.53107e-09
3.86769e-09
3.56413e-09
1.14353e-10
8.13396e-06
6.60268e-30
2.57322e-25
1.27426e-22
6.98545e-20
1.56612e-17
8.97844e-16
5.90312e-14
2.02899e-12
1.76721e-11
7.8241e-11
1.5567e-10
1.81211e-10
2.28853e-10
4.41687e-10
2.15391e-09
1.75827e-09
1.18467e-09
1.14591e-10
7.54082e-06
-3.52048e-37
1.20607e-29
2.00934e-24
5.82915e-21
2.01937e-18
1.66894e-16
1.26837e-14
1.28623e-12
1.26535e-11
5.34355e-11
1.03824e-10
1.41409e-10
1.815e-10
2.39537e-15
4.39982e-09
4.08702e-08
1.90662e-08
1.14355e-10
5.13159e-06
-5.82586e-42
7.81585e-40
4.67873e-31
2.17395e-25
1.22139e-21
8.40086e-19
3.6749e-16
6.48326e-14
6.83257e-13
3.81102e-12
1.03159e-11
1.68531e-11
1.27123e-11
0
2.08537e-08
4.45544e-08
4.11205e-08
1.30345e-10
1.11502e-06
)
;

boundaryField
{
    leftWall
    {
        type            zeroGradient;
    }
    rightWall
    {
        type            zeroGradient;
    }
    lowerWall
    {
        type            zeroGradient;
    }
    atmosphere
    {
        type            inletOutlet;
        inletValue      uniform 0;
        value           nonuniform List<scalar> 
46
(
0
0
-2.75637e-23
-4.50301e-23
-6.6706e-23
-9.18785e-23
-1.14323e-22
-1.45123e-22
-2.22106e-22
-3.2407e-22
-3.50045e-22
-2.61813e-22
-1.35214e-22
-4.82202e-23
-1.17071e-23
-1.95492e-24
0
0
0
0
0
0
0
0
0
0
0
0
0
0
0
0
0
0
0
0
0
0
0
0
0
0
4.45544e-08
4.11205e-08
1.30345e-10
1.11502e-06
)
;
    }
    defaultFaces
    {
        type            empty;
    }
}


// ************************************************************************* //
