/*--------------------------------*- C++ -*----------------------------------*\
  =========                 |
  \\      /  F ield         | OpenFOAM: The Open Source CFD Toolbox
   \\    /   O peration     | Website:  https://openfoam.org
    \\  /    A nd           | Version:  9
     \\/     M anipulation  |
\*---------------------------------------------------------------------------*/
FoamFile
{
    format      ascii;
    class       volVectorField;
    location    "7.58";
    object      U;
}
// * * * * * * * * * * * * * * * * * * * * * * * * * * * * * * * * * * * * * //

dimensions      [0 1 -1 0 0 0 0];

internalField   nonuniform List<vector> 
2268
(
(-0.000912714 0.000395801 0)
(-0.0022824 0.000295264 0)
(-0.00336828 0.000254741 0)
(-0.00438738 0.000231 0)
(-0.00526613 0.000195989 0)
(-0.00598313 0.000147863 0)
(-0.00649987 9.17453e-05 0)
(-0.00679815 3.2584e-05 0)
(-0.00688491 -2.22723e-05 0)
(-0.00677775 -8.28665e-05 0)
(-0.00645869 -0.000156076 0)
(-0.00583945 -0.000276039 0)
(-0.00474334 -0.000455697 0)
(-0.00298084 -0.000685831 0)
(-0.0005261 -0.000871771 0)
(0.00220413 -0.000799345 0)
(0.00411502 -0.000105911 0)
(0.00275583 0.00101884 0)
(-0.00178878 0.00211263 0)
(-0.00975699 0.00274601 0)
(-0.0161004 0.000663589 0)
(-0.0143303 -0.00201842 0)
(-0.00590254 -0.00281579 0)
(-0.000789652 0.00112054 0)
(-0.00211879 0.000898027 0)
(-0.00323641 0.00078289 0)
(-0.00426722 0.000688246 0)
(-0.00514262 0.000578162 0)
(-0.00585223 0.000447092 0)
(-0.00637702 0.00029894 0)
(-0.00671085 0.000148427 0)
(-0.00686511 7.49383e-06 0)
(-0.00685019 -0.000136897 0)
(-0.00665023 -0.000318306 0)
(-0.0062012 -0.000590532 0)
(-0.00538666 -0.00098233 0)
(-0.004097 -0.00144259 0)
(-0.002348 -0.00177691 0)
(-0.000457739 -0.00156224 0)
(0.000842544 -0.000176814 0)
(-0.000141195 0.00210291 0)
(-0.00318364 0.00394034 0)
(-0.00709352 0.00470623 0)
(-0.0102342 0.00161141 0)
(-0.0107586 -0.00312099 0)
(-0.00611157 -0.00710648 0)
(-0.000694614 0.0017562 0)
(-0.00200832 0.00145619 0)
(-0.00313878 0.00128624 0)
(-0.00418406 0.00112552 0)
(-0.0050746 0.000943631 0)
(-0.00580703 0.00073457 0)
(-0.00637046 0.000504287 0)
(-0.00676141 0.000272218 0)
(-0.00698994 5.43575e-05 0)
(-0.00706865 -0.000162705 0)
(-0.00698963 -0.000433693 0)
(-0.00670737 -0.000829104 0)
(-0.00613926 -0.00138699 0)
(-0.00521103 -0.00202789 0)
(-0.00393373 -0.0024874 0)
(-0.00249891 -0.0021869 0)
(-0.00138521 -0.000261081 0)
(-0.00201987 0.00288058 0)
(-0.00392586 0.00497655 0)
(-0.0053112 0.00557101 0)
(-0.00669647 0.00234652 0)
(-0.00794264 -0.00350946 0)
(-0.00478844 -0.0106899 0)
(-0.000641363 0.00237522 0)
(-0.00193464 0.00203289 0)
(-0.00308039 0.0018106 0)
(-0.00414674 0.00158518 0)
(-0.00506537 0.00133289 0)
(-0.00583763 0.00104971 0)
(-0.00645626 0.000743104 0)
(-0.00691716 0.000436229 0)
(-0.00722961 0.000149851 0)
(-0.00740905 -0.000135099 0)
(-0.0074564 -0.000482607 0)
(-0.00734341 -0.000979323 0)
(-0.00700925 -0.00167028 0)
(-0.00639608 -0.00246053 0)
(-0.00549296 -0.00304237 0)
(-0.00436122 -0.00274014 0)
(-0.00322344 -0.000437589 0)
(-0.00336967 0.00336401 0)
(-0.00438676 0.00543743 0)
(-0.00441453 0.00577952 0)
(-0.00467039 0.00283697 0)
(-0.00561432 -0.00373698 0)
(-0.00298651 -0.0133061 0)
(-0.000611984 0.00296926 0)
(-0.0018882 0.00261177 0)
(-0.00305486 0.00234618 0)
(-0.00415081 0.0020608 0)
(-0.0051101 0.00174296 0)
(-0.00593805 0.0013921 0)
(-0.00662817 0.00101541 0)
(-0.00717284 0.000639039 0)
(-0.00757972 0.000289645 0)
(-0.00786752 -5.34996e-05 0)
(-0.00804655 -0.000462618 0)
(-0.00810394 -0.00103827 0)
(-0.0079944 -0.00183341 0)
(-0.00766918 -0.00274637 0)
(-0.00709706 -0.00345433 0)
(-0.00623804 -0.00324787 0)
(-0.00499618 -0.000806772 0)
(-0.0045562 0.00356929 0)
(-0.00479815 0.00548118 0)
(-0.00404944 0.00556183 0)
(-0.00356147 0.00300094 0)
(-0.00364206 -0.00411947 0)
(-0.00089496 -0.0148607 0)
(-0.000591113 0.00355017 0)
(-0.00186426 0.00319399 0)
(-0.00306188 0.00289138 0)
(-0.00419727 0.00255199 0)
(-0.00520954 0.00217601 0)
(-0.0061082 0.00176579 0)
(-0.00688546 0.00132578 0)
(-0.00752741 0.000884904 0)
(-0.00803865 0.000477774 0)
(-0.00844048 8.48076e-05 0)
(-0.00875213 -0.00037187 0)
(-0.00897439 -0.00100612 0)
(-0.00907422 -0.00187991 0)
(-0.00901185 -0.00289085 0)
(-0.00874943 -0.00372192 0)
(-0.00820032 -0.00368179 0)
(-0.00697867 -0.00138658 0)
(-0.00584843 0.003433 0)
(-0.00524355 0.00522491 0)
(-0.00407556 0.00507277 0)
(-0.00293617 0.00275848 0)
(-0.00172901 -0.00498444 0)
(0.0014513 -0.0154731 0)
(-0.000568752 0.00416205 0)
(-0.00185705 0.00377605 0)
(-0.00310171 0.00344771 0)
(-0.0042855 0.00306394 0)
(-0.005362 0.0026396 0)
(-0.00634485 0.00217939 0)
(-0.00722336 0.00168244 0)
(-0.00797521 0.00118025 0)
(-0.00859966 0.000718254 0)
(-0.00911843 0.000280493 0)
(-0.009558 -0.000213586 0)
(-0.00993082 -0.000889462 0)
(-0.0102151 -0.00182082 0)
(-0.0103826 -0.00290622 0)
(-0.0104026 -0.00384424 0)
(-0.0101959 -0.0039878 0)
(-0.00929439 -0.00203941 0)
(-0.00759071 0.00281668 0)
(-0.00591263 0.00468061 0)
(-0.00430564 0.00436068 0)
(-0.00226997 0.00191602 0)
(0.000370371 -0.00632591 0)
(0.00322146 -0.0152871 0)
(-0.00058083 0.00452658 0)
(-0.00189447 0.00437489 0)
(-0.00317129 0.00404789 0)
(-0.0044075 0.00362606 0)
(-0.00555813 0.00316064 0)
(-0.00663635 0.00265794 0)
(-0.00762759 0.00210751 0)
(-0.00850047 0.0015428 0)
(-0.00924607 0.00102391 0)
(-0.00988206 0.00053982 0)
(-0.0104382 1.04659e-05 0)
(-0.0109368 -0.000693703 0)
(-0.0113687 -0.00166742 0)
(-0.0117194 -0.0028063 0)
(-0.0119683 -0.00383 0)
(-0.0120466 -0.00414464 0)
(-0.0115724 -0.00258678 0)
(-0.00967484 0.00172204 0)
(-0.00703369 0.00371867 0)
(-0.00463716 0.00330944 0)
(-0.00156619 0.000469434 0)
(0.00172517 -0.00743825 0)
(0.00243263 -0.0140325 0)
(-0.0140706 0.00300885 0)
(-0.00740782 -0.00272785 0)
(0.00346032 -0.0029261 0)
(0.0110405 -0.00191025 0)
(0.0163912 -0.00144404 0)
(0.0202151 -0.000826974 0)
(0.0227585 -0.000694091 0)
(0.0254994 -0.000913505 0)
(0.0287219 -0.000850554 0)
(0.0296308 0.000390527 0)
(0.0245452 0.0020404 0)
(0.0151752 0.00308934 0)
(0.00301921 0.0036712 0)
(-0.00856145 0.00169135 0)
(-0.0111556 -0.000335451 0)
(-0.00768805 -0.00154414 0)
(-0.00430241 -0.00110764 0)
(-0.00164694 -0.00156727 0)
(0.00534126 0.000836302 0)
(-0.00980178 0.0063706 0)
(-0.00060317 -0.00569371 0)
(0.00523526 -0.00557292 0)
(0.0103789 -0.00385607 0)
(0.0138017 -0.00279063 0)
(0.0164224 -0.00191282 0)
(0.018661 -0.00170583 0)
(0.020901 -0.00186766 0)
(0.0228021 -0.00114996 0)
(0.0223246 0.00158426 0)
(0.0181085 0.00451934 0)
(0.0117798 0.00631843 0)
(0.00497912 0.0070876 0)
(-0.00259616 0.00428669 0)
(-0.00653115 0.000431059 0)
(-0.00609894 -0.00199802 0)
(-0.00587304 -0.00151015 0)
(-0.00583647 -0.00275255 0)
(0.00024183 0.000681261 0)
(-0.00182653 0.00719201 0)
(0.00409153 -0.0080276 0)
(0.00684885 -0.00732114 0)
(0.00994885 -0.00519697 0)
(0.0122169 -0.0037646 0)
(0.0140761 -0.00276927 0)
(0.0157322 -0.00252049 0)
(0.0173343 -0.00257268 0)
(0.0185487 -0.00125537 0)
(0.0174831 0.00271597 0)
(0.013526 0.00635983 0)
(0.00910073 0.00832495 0)
(0.0056671 0.00910005 0)
(0.000784964 0.00639257 0)
(-0.00341898 0.00153591 0)
(-0.00408536 -0.00179472 0)
(-0.00601906 -0.000942528 0)
(-0.00857517 -0.00343446 0)
(-0.00487648 -0.00155006 0)
(0.00509654 0.00541195 0)
(0.00743442 -0.00893848 0)
(0.00790343 -0.00818365 0)
(0.00946554 -0.00602837 0)
(0.0108698 -0.00445679 0)
(0.0121035 -0.00337708 0)
(0.0131805 -0.00308831 0)
(0.0142083 -0.00305767 0)
(0.0150399 -0.00124709 0)
(0.0140641 0.00381567 0)
(0.0107529 0.00787383 0)
(0.00757747 0.00965245 0)
(0.00577092 0.0103379 0)
(0.00238216 0.00810542 0)
(-0.00110416 0.00263867 0)
(-0.00179729 -0.00116561 0)
(-0.00494432 0.000581329 0)
(-0.00936963 -0.00337713 0)
(-0.00736774 -0.00511742 0)
(0.00870156 0.00169653 0)
(0.00903367 -0.00897938 0)
(0.008198 -0.00836231 0)
(0.00878981 -0.00645676 0)
(0.00957259 -0.00488866 0)
(0.0102838 -0.00375053 0)
(0.0108189 -0.00342861 0)
(0.0113209 -0.00336971 0)
(0.0119022 -0.00125035 0)
(0.0113462 0.00468841 0)
(0.00886105 0.00904286 0)
(0.00666018 0.0105082 0)
(0.00581792 0.0111229 0)
(0.00324435 0.00946739 0)
(0.000824351 0.00337214 0)
(0.000804561 -0.000454295 0)
(-0.00245374 0.00255517 0)
(-0.00744216 -0.00286633 0)
(-0.00653896 -0.00868505 0)
(0.00854022 -0.00233829 0)
(0.00882191 -0.0086998 0)
(0.00776715 -0.00820437 0)
(0.00789772 -0.00662799 0)
(0.00828044 -0.0051157 0)
(0.00858018 -0.00391017 0)
(0.00862743 -0.00354472 0)
(0.00861216 -0.00351975 0)
(0.00895435 -0.00133716 0)
(0.00900475 0.0052349 0)
(0.0075025 0.00988011 0)
(0.00612843 0.0109949 0)
(0.00594474 0.011583 0)
(0.00413256 0.0105124 0)
(0.00285662 0.00360619 0)
(0.00347359 2.00012e-05 0)
(0.00113896 0.00435027 0)
(-0.003237 -0.00192814 0)
(-0.00382104 -0.0110863 0)
(0.00619199 -0.00604179 0)
(0.00752296 -0.00863929 0)
(0.00685953 -0.00802111 0)
(0.00684628 -0.00667808 0)
(0.00699326 -0.00520594 0)
(0.00699586 -0.00389424 0)
(0.00663719 -0.0034461 0)
(0.00609048 -0.00348196 0)
(0.00603491 -0.00149895 0)
(0.00678972 0.00532679 0)
(0.00656742 0.0103776 0)
(0.00596296 0.0111991 0)
(0.00604812 0.0118155 0)
(0.00543884 0.0110591 0)
(0.00562272 0.0034466 0)
(0.00600727 0.000250468 0)
(0.00459885 0.00553978 0)
(0.00163068 -0.000744493 0)
(-0.000336783 -0.0118988 0)
(0.0034742 -0.00856426 0)
(0.00604741 -0.00884315 0)
(0.0057863 -0.0079295 0)
(0.00571499 -0.00667522 0)
(0.00570711 -0.00520809 0)
(0.00552619 -0.00375438 0)
(0.00490048 -0.00315605 0)
(0.00386636 -0.00319799 0)
(0.00316923 -0.00159189 0)
(0.00440392 0.0048422 0)
(0.00576728 0.0103652 0)
(0.006141 0.0110992 0)
(0.00655445 0.0117871 0)
(0.00754996 0.0107387 0)
(0.009047 0.003215 0)
(0.00838503 0.000637311 0)
(0.00751909 0.00595628 0)
(0.00631333 0.00043376 0)
(0.00343319 -0.0106905 0)
(-0.000543175 0.00637866 0)
(-0.00188924 0.00580038 0)
(-0.00325866 0.00525824 0)
(-0.00460802 0.00470178 0)
(-0.00589644 0.00415125 0)
(-0.00713746 0.0035787 0)
(-0.00831669 0.00293843 0)
(-0.00939353 0.00226252 0)
(-0.0103411 0.00164222 0)
(-0.0111591 0.00107218 0)
(-0.0118679 0.000481623 0)
(-0.0125043 -0.000260018 0)
(-0.0130886 -0.00129085 0)
(-0.0136304 -0.00248495 0)
(-0.0141212 -0.00361658 0)
(-0.0144512 -0.00420234 0)
(-0.0142216 -0.00326481 0)
(-0.0123682 -0.000444286 0)
(-0.00900302 0.00134 0)
(-0.00528245 0.000832178 0)
(-0.00151053 -0.00221029 0)
(0.000927928 -0.00786657 0)
(-0.00261849 -0.0105921 0)
(-0.000612208 0.00525109 0)
(-0.0020114 0.00574497 0)
(-0.00341937 0.00564224 0)
(-0.0048929 0.00528726 0)
(-0.00634596 0.00484918 0)
(-0.0077713 0.00434637 0)
(-0.00917755 0.00375412 0)
(-0.0105467 0.00306849 0)
(-0.0118055 0.00240025 0)
(-0.0128577 0.00176134 0)
(-0.0136563 0.00110826 0)
(-0.0142332 0.000335805 0)
(-0.0146935 -0.000681887 0)
(-0.0151518 -0.00182072 0)
(-0.0156572 -0.00295929 0)
(-0.0160966 -0.00381363 0)
(-0.0159348 -0.0037855 0)
(-0.0142037 -0.003 0)
(-0.0107159 -0.00244584 0)
(-0.00646148 -0.00301885 0)
(-0.00274605 -0.0048457 0)
(-0.000895003 -0.00713749 0)
(-0.00194248 -0.00818265 0)
(-0.00165716 0.0082861 0)
(-0.0040373 0.00784875 0)
(-0.00546714 0.00745055 0)
(-0.00682914 0.00697487 0)
(-0.00833382 0.00632612 0)
(-0.0100644 0.00570722 0)
(-0.0115997 0.00514937 0)
(-0.0128744 0.00441376 0)
(-0.01415 0.00350342 0)
(-0.0152519 0.00256599 0)
(-0.0159238 0.00163324 0)
(-0.0161448 0.000659832 0)
(-0.0161461 -0.000414507 0)
(-0.016213 -0.00152648 0)
(-0.016544 -0.00265092 0)
(-0.017094 -0.003687 0)
(-0.0170671 -0.00439362 0)
(-0.0152713 -0.004923 0)
(-0.0115873 -0.00543613 0)
(-0.00706498 -0.00598137 0)
(-0.0031776 -0.00668672 0)
(-0.00126044 -0.00761732 0)
(-0.00144501 -0.00837912 0)
(-0.00618775 0.012563 0)
(-0.00832396 0.00923045 0)
(-0.0104248 0.00822475 0)
(-0.00912833 0.00741269 0)
(-0.0093959 0.00725214 0)
(-0.0130846 0.00702242 0)
(-0.0147217 0.00581852 0)
(-0.0133569 0.00524073 0)
(-0.0132819 0.00441317 0)
(-0.0141726 0.00322356 0)
(-0.0146857 0.00196162 0)
(-0.0146974 0.000691267 0)
(-0.0143022 -0.000513432 0)
(-0.0137972 -0.00161626 0)
(-0.0138363 -0.00263018 0)
(-0.0143337 -0.00360363 0)
(-0.0143101 -0.00486832 0)
(-0.0124814 -0.00619524 0)
(-0.00978212 -0.00720324 0)
(-0.00655599 -0.00787506 0)
(-0.00275992 -0.00809555 0)
(-0.00015322 -0.00845752 0)
(-0.000253167 -0.00907225 0)
(-0.00726014 0.0212414 0)
(-0.0116433 0.0224742 0)
(-0.0121642 0.00957942 0)
(-0.014208 0.00727002 0)
(-0.0216808 0.014235 0)
(-0.029501 0.0180194 0)
(-0.0299217 0.00501306 0)
(-0.0249176 0.00305261 0)
(-0.0195062 0.00592454 0)
(-0.0159783 0.00470658 0)
(-0.0131114 0.00211126 0)
(-0.0103542 3.36076e-05 0)
(-0.00730534 -0.0019692 0)
(-0.00351151 -0.00261882 0)
(0.000811258 -0.00199306 0)
(0.00464465 -0.00381071 0)
(0.00734603 -0.00883049 0)
(0.00862179 -0.015884 0)
(0.00654567 -0.016599 0)
(0.000379711 -0.0203725 0)
(-0.00104582 -0.0199514 0)
(0.000386064 -0.0134508 0)
(-0.00151815 -0.00968483 0)
(0.0025718 0.0250466 0)
(0.0128705 0.0156907 0)
(0.0195288 0.00690288 0)
(0.00814755 0.0180591 0)
(-0.0057891 0.0214517 0)
(-0.0048418 0.0180896 0)
(-0.00542977 0.00148651 0)
(-0.0113212 -0.00506589 0)
(-0.0115847 -0.00120283 0)
(-0.0100561 -0.00133917 0)
(-0.00944224 -0.00257936 0)
(-0.00987116 -0.00315391 0)
(-0.0109913 -0.00514156 0)
(-0.0110013 -0.00761339 0)
(-0.0067146 -0.0091527 0)
(-0.00156333 -0.00813701 0)
(-0.00124492 -0.00748421 0)
(-0.00399637 -0.00780837 0)
(-0.00610377 -0.000930933 0)
(-0.00925516 -0.00390669 0)
(-0.0135798 -0.0102087 0)
(-0.0161958 -0.00889186 0)
(-0.0152946 -0.00534555 0)
(0.00198179 0.0116308 0)
(0.00305316 0.00765161 0)
(0.000136391 0.00832018 0)
(-0.000733983 0.0289484 0)
(0.000750889 0.025406 0)
(0.00172991 0.0165474 0)
(0.000922831 0.00980159 0)
(-0.00258631 0.0034634 0)
(-0.00542283 0.00154173 0)
(-0.00651744 0.000508578 0)
(-0.00796077 -8.15939e-05 0)
(-0.00991403 -0.000691228 0)
(-0.0114735 -0.00315627 0)
(-0.0104809 -0.00969805 0)
(-0.00717194 -0.0146996 0)
(-0.00393798 -0.0113022 0)
(-0.00273126 -0.00623489 0)
(-0.00498355 -0.00602574 0)
(-0.00765512 -0.00431038 0)
(-0.010472 -0.00344778 0)
(-0.0162612 -0.00602859 0)
(-0.0203928 -0.0085089 0)
(-0.0202729 -0.00887561 0)
(-0.000118522 0.0171715 0)
(-0.00158436 0.0130123 0)
(-0.00594119 0.0122146 0)
(-0.00525975 0.0239335 0)
(-0.000685744 0.0218109 0)
(0.00120701 0.0155979 0)
(0.00122471 0.00989096 0)
(-0.00075903 0.00499246 0)
(-0.00315728 0.00299813 0)
(-0.00477488 0.00192659 0)
(-0.00612418 0.00163971 0)
(-0.0072041 0.00101051 0)
(-0.00746267 -0.00280818 0)
(-0.00719913 -0.0109186 0)
(-0.0077717 -0.0151267 0)
(-0.00860564 -0.0120522 0)
(-0.00836932 -0.00633981 0)
(-0.00856807 -0.00345451 0)
(-0.00986705 -0.000750647 0)
(-0.01162 0.0010939 0)
(-0.0141746 -0.000751354 0)
(-0.0174536 -0.00577491 0)
(-0.0207664 -0.00767774 0)
(-0.000122357 0.0157151 0)
(-0.00218191 0.014206 0)
(-0.00537987 0.0147171 0)
(-0.00489065 0.019945 0)
(-0.00169279 0.0187708 0)
(-0.000130546 0.0146949 0)
(-2.628e-05 0.0104364 0)
(-0.00120671 0.00692204 0)
(-0.00282188 0.00475372 0)
(-0.00404586 0.00318181 0)
(-0.00478753 0.00239225 0)
(-0.0049245 0.00113168 0)
(-0.00478156 -0.0030021 0)
(-0.00605388 -0.00963506 0)
(-0.00922374 -0.0125518 0)
(-0.012103 -0.0106762 0)
(-0.0130893 -0.00669124 0)
(-0.0131932 -0.00321543 0)
(-0.0136233 7.71112e-05 0)
(-0.0141712 0.00174793 0)
(-0.0150569 0.000524889 0)
(-0.0171138 -0.00252807 0)
(-0.0200033 -0.00459677 0)
(-0.000263206 0.0179372 0)
(-0.00184161 0.0165841 0)
(-0.00372255 0.0164957 0)
(-0.00351888 0.0182203 0)
(-0.00184508 0.0170768 0)
(-0.000969028 0.0141274 0)
(-0.00105867 0.0108923 0)
(-0.00187022 0.00814226 0)
(-0.00291066 0.00589216 0)
(-0.00378113 0.00399622 0)
(-0.00436771 0.00275766 0)
(-0.00461111 0.00112981 0)
(-0.0050836 -0.00235653 0)
(-0.00700389 -0.00679244 0)
(-0.0102765 -0.00896912 0)
(-0.0132316 -0.00831153 0)
(-0.0148872 -0.00599382 0)
(-0.0155551 -0.00290851 0)
(-0.0156815 0.000343681 0)
(-0.0155509 0.0019432 0)
(-0.0157472 0.00149286 0)
(-0.0168782 -0.000420345 0)
(-0.0187345 -0.00236393 0)
(-0.000189103 0.0184949 0)
(-0.00109988 0.0178227 0)
(-0.00220685 0.0174132 0)
(-0.00225208 0.0175375 0)
(-0.0015879 0.0162829 0)
(-0.0012806 0.013965 0)
(-0.00153141 0.011344 0)
(-0.00214153 0.00893022 0)
(-0.0028744 0.00667915 0)
(-0.00364413 0.00472107 0)
(-0.00438969 0.0033379 0)
(-0.00504526 0.00165974 0)
(-0.00600741 -0.00104255 0)
(-0.00798848 -0.00405929 0)
(-0.0108356 -0.00584302 0)
(-0.013442 -0.00603291 0)
(-0.0150586 -0.00479184 0)
(-0.0157553 -0.00247709 0)
(-0.0158228 0.000218411 0)
(-0.0155832 0.00179798 0)
(-0.0154877 0.0018256 0)
(-0.0159157 0.000648155 0)
(-0.0167918 -0.00106049 0)
(-8.72239e-05 0.0188447 0)
(-0.000547798 0.0185219 0)
(-0.00119291 0.0179534 0)
(-0.00134885 0.0173865 0)
(-0.0012098 0.0160615 0)
(-0.00124389 0.0140796 0)
(-0.00156141 0.0117857 0)
(-0.00204545 0.0095015 0)
(-0.00266478 0.00737368 0)
(-0.00349425 0.00556854 0)
(-0.00442042 0.00420661 0)
(-0.00532264 0.00258472 0)
(-0.00647574 0.00045015 0)
(-0.00827508 -0.00174484 0)
(-0.0105913 -0.00327697 0)
(-0.0127671 -0.00405578 0)
(-0.0142732 -0.00365463 0)
(-0.0149976 -0.00208971 0)
(-0.0150544 7.38453e-05 0)
(-0.0147802 0.0015629 0)
(-0.0145047 0.0017666 0)
(-0.0144043 0.00092982 0)
(-0.0144831 -0.000631595 0)
(-3.55382e-05 0.0190793 0)
(-0.000205057 0.0189403 0)
(-0.000576071 0.0182987 0)
(-0.000736813 0.0174625 0)
(-0.00080689 0.0161284 0)
(-0.000987818 0.0143296 0)
(-0.00132355 0.0121945 0)
(-0.00177695 0.010008 0)
(-0.00241165 0.00809883 0)
(-0.00329814 0.00654031 0)
(-0.00426995 0.00518368 0)
(-0.00522694 0.00363639 0)
(-0.0063667 0.00186786 0)
(-0.00787238 0.000130766 0)
(-0.00965682 -0.00124778 0)
(-0.0114475 -0.00231039 0)
(-0.0129079 -0.00251271 0)
(-0.0137523 -0.00165075 0)
(-0.0139324 -6.36236e-05 0)
(-0.0136753 0.00125244 0)
(-0.0132517 0.0014165 0)
(-0.0128197 0.000664663 0)
(-0.012439 -0.000845536 0)
(1.77732e-05 0.0191194 0)
(1.45156e-05 0.0191337 0)
(-0.000190196 0.0185022 0)
(-0.000309412 0.0175885 0)
(-0.000428335 0.0162877 0)
(-0.000637878 0.014616 0)
(-0.000980651 0.0126 0)
(-0.00148368 0.010563 0)
(-0.00218711 0.0088817 0)
(-0.00305094 0.00749965 0)
(-0.00394853 0.00612706 0)
(-0.00485491 0.00465377 0)
(-0.00588093 0.00309781 0)
(-0.00710067 0.00159872 0)
(-0.00846468 0.000312137 0)
(-0.00989708 -0.000768057 0)
(-0.0112344 -0.00132611 0)
(-0.0121934 -0.00104341 0)
(-0.0125873 -4.06626e-05 0)
(-0.012426 0.000891427 0)
(-0.0119452 0.000907145 0)
(-0.0113939 0.000149534 0)
(-0.0108858 -0.00129663 0)
(3.67174e-05 0.0190499 0)
(0.000154249 0.019181 0)
(5.54478e-05 0.01861 0)
(-1.90248e-05 0.0176975 0)
(-0.000131374 0.0164505 0)
(-0.000326961 0.0148921 0)
(-0.000680822 0.0130392 0)
(-0.00124054 0.0111967 0)
(-0.00196553 0.00967821 0)
(-0.00274885 0.00834656 0)
(-0.00353163 0.00697948 0)
(-0.00434268 0.00556667 0)
(-0.00523508 0.00413245 0)
(-0.00623681 0.0027575 0)
(-0.00732077 0.00153051 0)
(-0.00845649 0.000498886 0)
(-0.00958847 -0.000194208 0)
(-0.0105342 -0.000294804 0)
(-0.011035 0.000160388 0)
(-0.0109897 0.000577985 0)
(-0.0105948 0.000403131 0)
(-0.0101054 -0.00037258 0)
(-0.00966779 -0.00170751 0)
(8.25098e-05 0.0189064 0)
(0.000241243 0.019151 0)
(0.00019443 0.0186633 0)
(0.000141015 0.0177846 0)
(3.67871e-05 0.0166002 0)
(-0.000150958 0.0151544 0)
(-0.000498421 0.0134983 0)
(-0.00104658 0.0118495 0)
(-0.00171225 0.0104115 0)
(-0.00239185 0.00907453 0)
(-0.00307179 0.00772712 0)
(-0.00378238 0.00636354 0)
(-0.00455136 0.00500611 0)
(-0.00539035 0.00370636 0)
(-0.00628573 0.00252394 0)
(-0.0072186 0.00151415 0)
(-0.00814672 0.000777415 0)
(-0.00894348 0.000429143 0)
(-0.00941506 0.000421109 0)
(-0.00947191 0.000399644 0)
(-0.00923668 3.01646e-05 0)
(-0.00890042 -0.000767246 0)
(-0.0086099 -0.00197791 0)
(0.000108992 0.0187143 0)
(0.000266068 0.0190967 0)
(0.000229552 0.0186953 0)
(0.000185534 0.017863 0)
(8.40454e-05 0.0167447 0)
(-9.98417e-05 0.0154083 0)
(-0.000418081 0.0139256 0)
(-0.000886953 0.0124323 0)
(-0.00144427 0.0110383 0)
(-0.00202219 0.00970309 0)
(-0.00261043 0.00837684 0)
(-0.003226 0.00705279 0)
(-0.00388459 0.00574882 0)
(-0.00459163 0.00450092 0)
(-0.00533827 0.00335305 0)
(-0.00610659 0.00235216 0)
(-0.00685709 0.00156091 0)
(-0.00749941 0.0010263 0)
(-0.00791043 0.000693447 0)
(-0.00803326 0.000359319 0)
(-0.00793933 -0.000178155 0)
(-0.00775989 -0.000998919 0)
(-0.00761742 -0.00210078 0)
(8.75858e-05 0.0185247 0)
(0.000220061 0.019056 0)
(0.000177562 0.0187208 0)
(0.000148697 0.0179347 0)
(5.64195e-05 0.0168808 0)
(-0.000108461 0.0156418 0)
(-0.000377142 0.0142874 0)
(-0.000754155 0.0129037 0)
(-0.00120208 0.0115552 0)
(-0.00168002 0.0102381 0)
(-0.00217748 0.00893422 0)
(-0.00270115 0.00764258 0)
(-0.00325848 0.00637784 0)
(-0.00385078 0.00516649 0)
(-0.00446996 0.00404111 0)
(-0.00509816 0.00303632 0)
(-0.0057007 0.00218785 0)
(-0.00621528 0.0015109 0)
(-0.0065678 0.000958964 0)
(-0.0067262 0.000412529 0)
(-0.00673372 -0.000250481 0)
(-0.00667804 -0.0010899 0)
(-0.00665162 -0.00210583 0)
(6.36488e-05 0.018385 0)
(0.000133273 0.0190445 0)
(8.67236e-05 0.0187417 0)
(7.39532e-05 0.0179933 0)
(-2.31475e-06 0.016997 0)
(-0.000136353 0.0158373 0)
(-0.000348469 0.0145755 0)
(-0.000639742 0.0132718 0)
(-0.000989188 0.01197 0)
(-0.0013731 0.0106802 0)
(-0.00178235 0.00940143 0)
(-0.00221764 0.00813821 0)
(-0.00268093 0.00690373 0)
(-0.00317046 0.0057182 0)
(-0.00367783 0.00460551 0)
(-0.00418648 0.0035895 0)
(-0.00466829 0.00268955 0)
(-0.0050814 0.00190739 0)
(-0.00538224 0.0012083 0)
(-0.0055542 0.000520497 0)
(-0.00562506 -0.000229306 0)
(-0.00565294 -0.00108049 0)
(-0.0057036 -0.00203184 0)
(-1.09609e-05 0.0183213 0)
(4.91265e-05 0.0190479 0)
(-2.56735e-06 0.0187609 0)
(-5.63507e-06 0.0180368 0)
(-6.22171e-05 0.0170867 0)
(-0.000161213 0.0159877 0)
(-0.000317802 0.014794 0)
(-0.000533412 0.0135514 0)
(-0.00079728 0.0122932 0)
(-0.00109609 0.0110345 0)
(-0.00142271 0.00978239 0)
(-0.00177503 0.00854527 0)
(-0.00215173 0.00733534 0)
(-0.00254902 0.00616855 0)
(-0.00295844 0.00506245 0)
(-0.00336558 0.00403311 0)
(-0.00374888 0.00309095 0)
(-0.0040806 0.00223314 0)
(-0.0043353 0.00143549 0)
(-0.00450508 0.000654733 0)
(-0.00460858 -0.000152481 0)
(-0.0046843 -0.00100983 0)
(-0.00477729 -0.00191428 0)
(-0.000123641 0.0183412 0)
(-2.61236e-05 0.0190491 0)
(-7.20693e-05 0.0187744 0)
(-7.62854e-05 0.0180671 0)
(-0.000108497 0.0171485 0)
(-0.000171684 0.0160933 0)
(-0.000276596 0.01495 0)
(-0.000426425 0.0137553 0)
(-0.000616714 0.0125362 0)
(-0.000840308 0.0113087 0)
(-0.00109198 0.0100836 0)
(-0.00136856 0.00887084 0)
(-0.00166699 0.00768177 0)
(-0.00198244 0.00652938 0)
(-0.00230684 0.00542686 0)
(-0.00262815 0.00438529 0)
(-0.00293033 0.00341064 0)
(-0.00319507 0.00249955 0)
(-0.0034074 0.00163616 0)
(-0.00356394 0.000794793 0)
(-0.00367746 -4.95026e-05 0)
(-0.00377335 -0.000909632 0)
(-0.00388162 -0.00178126 0)
(-0.000192213 0.0184343 0)
(-9.29525e-05 0.0190495 0)
(-0.000135167 0.0187801 0)
(-0.000130829 0.0180813 0)
(-0.000136569 0.0171806 0)
(-0.000162712 0.0161557 0)
(-0.000219671 0.01505 0)
(-0.00031219 0.0138939 0)
(-0.000439413 0.0127096 0)
(-0.000597682 0.0115122 0)
(-0.000783188 0.0103133 0)
(-0.000992489 0.0091233 0)
(-0.00122176 0.00795263 0)
(-0.0014658 0.00681217 0)
(-0.00171724 0.00571223 0)
(-0.00196625 0.00466099 0)
(-0.00220098 0.0036625 0)
(-0.00240923 0.0027145 0)
(-0.00258201 0.00180739 0)
(-0.00271803 0.000926515 0)
(-0.00282599 5.83104e-05 0)
(-0.00292246 -0.000803181 0)
(-0.00302687 -0.001653 0)
(-0.000180111 0.0185736 0)
(-0.000150335 0.0190685 0)
(-0.000195621 0.0187789 0)
(-0.000168033 0.018072 0)
(-0.000142359 0.0171792 0)
(-0.000130442 0.0161758 0)
(-0.000143044 0.0150999 0)
(-0.000185703 0.0139763 0)
(-0.000259278 0.0128233 0)
(-0.000361863 0.0116543 0)
(-0.000490481 0.0104806 0)
(-0.000641673 0.00931187 0)
(-0.000811341 0.00815788 0)
(-0.000994309 0.00702798 0)
(-0.001184 0.00593068 0)
(-0.00137243 0.00487262 0)
(-0.00155077 0.00385728 0)
(-0.00171069 0.00288398 0)
(-0.00184655 0.00194768 0)
(-0.00195787 0.00104077 0)
(-0.00205039 0.00015672 0)
(-0.0021347 -0.000706154 0)
(-0.00222297 -0.00154279 0)
(-0.000184044 0.018736 0)
(-0.000195254 0.0191216 0)
(-0.000242454 0.0187615 0)
(-0.000180137 0.0180319 0)
(-0.000119336 0.0171414 0)
(-7.00675e-05 0.0161553 0)
(-4.2781e-05 0.0151052 0)
(-4.29545e-05 0.0140108 0)
(-7.18728e-05 0.0128867 0)
(-0.000128269 0.0117447 0)
(-0.000209501 0.0105948 0)
(-0.000312072 0.00944611 0)
(-0.000431835 0.00830753 0)
(-0.000563808 0.00718738 0)
(-0.000702157 0.00609314 0)
(-0.000840345 0.00503073 0)
(-0.000971651 0.00400376 0)
(-0.00109014 0.00301311 0)
(-0.00119203 0.00205702 0)
(-0.001277 0.00113242 0)
(-0.00134865 0.000237098 0)
(-0.00141347 -0.000628073 0)
(-0.00147875 -0.0014583 0)
(-0.000218644 0.0189256 0)
(-0.000229557 0.0191884 0)
(-0.00025117 0.018716 0)
(-0.00015338 0.0179568 0)
(-5.88283e-05 0.0170675 0)
(2.3842e-05 0.0160981 0)
(8.48145e-05 0.0150724 0)
(0.000119123 0.0140055 0)
(0.000125799 0.012909 0)
(0.000106093 0.0117928 0)
(6.26616e-05 0.0106655 0)
(-8.65148e-07 0.0095357 0)
(-8.03598e-05 0.00841143 0)
(-0.000171061 0.00730039 0)
(-0.000267773 0.00620953 0)
(-0.00036503 0.00514456 0)
(-0.000457551 0.00410957 0)
(-0.000540895 0.00310675 0)
(-0.000612287 0.00213672 0)
(-0.000671306 0.00119936 0)
(-0.000719993 0.000295109 0)
(-0.000762106 -0.00057374 0)
(-0.000801641 -0.00140284 0)
(-0.000248122 0.0191397 0)
(-0.000220339 0.0192303 0)
(-0.000200346 0.018638 0)
(-7.58488e-05 0.0178495 0)
(4.59781e-05 0.0169626 0)
(0.000155206 0.0160105 0)
(0.000242075 0.0150093 0)
(0.000302276 0.0139695 0)
(0.000335283 0.0128998 0)
(0.000342739 0.0118082 0)
(0.0003276 0.0107025 0)
(0.000293622 0.00959024 0)
(0.000244986 0.00847914 0)
(0.000186235 0.00737648 0)
(0.000122082 0.00628899 0)
(5.721e-05 0.00522251 0)
(-4.09034e-06 0.00418166 0)
(-5.83142e-05 0.00316982 0)
(-0.000103233 0.00218929 0)
(-0.000138265 0.00124186 0)
(-0.000164377 0.000329595 0)
(-0.00018351 -0.000544466 0)
(-0.000197549 -0.0013765 0)
(-0.000215976 0.0193349 0)
(-0.000146386 0.0192275 0)
(-9.42991e-05 0.0185324 0)
(5.23058e-05 0.0177174 0)
(0.000195244 0.0168341 0)
(0.0003242 0.0159004 0)
(0.000429164 0.0149244 0)
(0.00050656 0.0139118 0)
(0.00055669 0.0128684 0)
(0.000581913 0.0118006 0)
(0.000585682 0.0107151 0)
(0.000572007 0.00961911 0)
(0.000545155 0.00851988 0)
(0.000509511 0.00742459 0)
(0.00046941 0.00634003 0)
(0.000428962 0.00527231 0)
(0.000391801 0.00422667 0)
(0.000360812 0.00320744 0)
(0.00033787 0.00221816 0)
(0.000323701 0.00126189 0)
(0.000318033 0.000341698 0)
(0.000320063 -0.000539068 0)
(0.000329205 -0.0013771 0)
(-0.000147866 0.01946 0)
(-4.04288e-05 0.0191753 0)
(4.62168e-05 0.0184048 0)
(0.000220366 0.0175645 0)
(0.000383762 0.0166871 0)
(0.000527975 0.0157746 0)
(0.000644143 0.0148257 0)
(0.000730431 0.0138413 0)
(0.000788746 0.0128241 0)
(0.000822624 0.0117792 0)
(0.000836252 0.0107127 0)
(0.000834026 0.00963131 0)
(0.000820337 0.0085424 0)
(0.000799468 0.00745317 0)
(0.000775468 0.00637062 0)
(0.000752027 0.00530127 0)
(0.000732299 0.00425097 0)
(0.000718738 0.00322488 0)
(0.000712965 0.00222746 0)
(0.000715755 0.00126267 0)
(0.000727226 0.000334151 0)
(0.00074722 -0.000554649 0)
(0.000775876 -0.0014009 0)
(-9.59558e-05 0.0195027 0)
(7.54626e-05 0.0190699 0)
(0.000209119 0.0182428 0)
(0.00041656 0.0173857 0)
(0.000605614 0.0165221 0)
(0.00076303 0.0156377 0)
(0.000884155 0.0147207 0)
(0.000971259 0.0137664 0)
(0.00102907 0.0127758 0)
(0.00106286 0.011753 0)
(0.00107778 0.0107039 0)
(0.00107868 0.00963537 0)
(0.0010701 0.00855495 0)
(0.00105627 0.00747011 0)
(0.00104099 0.00638821 0)
(0.00102765 0.00531626 0)
(0.00101902 0.00426073 0)
(0.00101723 0.0032275 0)
(0.00102367 0.00222178 0)
(0.00103906 0.00124818 0)
(0.00106365 0.000310711 0)
(0.00109757 -0.000587231 0)
(0.00114128 -0.00144326 0)
(-4.36637e-05 0.019463 0)
(0.000186397 0.0189095 0)
(0.000387324 0.0180293 0)
(0.000640572 0.0171705 0)
(0.000859664 0.0163375 0)
(0.00102725 0.0154943 0)
(0.00114616 0.0146165 0)
(0.00122561 0.0136957 0)
(0.00127435 0.0127322 0)
(0.00129975 0.0117304 0)
(0.001308 0.0106969 0)
(0.00130439 0.0096392 0)
(0.00129359 0.00856515 0)
(0.00127973 0.0074827 0)
(0.00126643 0.00639971 0)
(0.00125681 0.00532371 0)
(0.00125336 0.00426182 0)
(0.00125791 0.00322059 0)
(0.00127162 0.0022059 0)
(0.00129506 0.00122286 0)
(0.00132841 0.000275715 0)
(0.00137181 -0.000632238 0)
(0.00142574 -0.00149904 0)
(2.24731e-06 0.0193408 0)
(0.000296707 0.0186821 0)
(0.000581188 0.0177511 0)
(0.000895354 0.0169072 0)
(0.0011477 0.0161332 0)
(0.00131914 0.0153508 0)
(0.00142636 0.0145219 0)
(0.00148891 0.0136379 0)
(0.00152022 0.0127014 0)
(0.00152963 0.0117192 0)
(0.00152411 0.0106993 0)
(0.00150926 0.00964994 0)
(0.00148973 0.00857986 0)
(0.00146956 0.00749755 0)
(0.00145218 0.00641141 0)
(0.0014405 0.00532957 0)
(0.00143675 0.0042598 0)
(0.00144254 0.00320931 0)
(0.00145875 0.0021846 0)
(0.00148574 0.00119125 0)
(0.00152344 0.000233713 0)
(0.00157179 -0.000684877 0)
(0.00163107 -0.00156299 0)
(5.23164e-05 0.0191417 0)
(0.000425873 0.0183735 0)
(0.000806981 0.017391 0)
(0.00119136 0.0165851 0)
(0.00147237 0.0159139 0)
(0.00163513 0.0152179 0)
(0.00171848 0.0144471 0)
(0.00175479 0.0136017 0)
(0.00176123 0.0126913 0)
(0.00174821 0.0117265 0)
(0.00172302 0.0107174 0)
(0.00169125 0.00967378 0)
(0.0016575 0.00860508 0)
(0.00162561 0.00752048 0)
(0.00159886 0.00642896 0)
(0.00157994 0.00533926 0)
(0.00157094 0.0042598 0)
(0.00157323 0.00319849 0)
(0.00158749 0.00216247 0)
(0.00161372 0.00115781 0)
(0.00165154 0.000189194 0)
(0.00170046 -0.000740429 0)
(0.00176042 -0.00163001 0)
(0.000162438 0.01884 0)
(0.000645586 0.0179689 0)
(0.00112038 0.0169444 0)
(0.00154299 0.0162218 0)
(0.00182334 0.0156909 0)
(0.00196349 0.0151096 0)
(0.00201192 0.0144023 0)
(0.00201489 0.0135948 0)
(0.00199115 0.012708 0)
(0.00195103 0.0117576 0)
(0.0019017 0.0107564 0)
(0.00184864 0.00971575 0)
(0.00179623 0.00864581 0)
(0.00174815 0.00755646 0)
(0.00170752 0.00645727 0)
(0.00167688 0.00535758 0)
(0.00165819 0.00426648 0)
(0.0016527 0.00319258 0)
(0.00166087 0.00214378 0)
(0.0016824 0.00112672 0)
(0.00171643 0.000146373 0)
(0.00176189 -0.000794459 0)
(0.00181821 -0.00169535 0)
(0.000436155 0.0183128 0)
(0.00106044 0.0174521 0)
(0.00158186 0.016455 0)