/*--------------------------------*- C++ -*----------------------------------*\
  =========                 |
  \\      /  F ield         | OpenFOAM: The Open Source CFD Toolbox
   \\    /   O peration     | Website:  https://openfoam.org
    \\  /    A nd           | Version:  9
     \\/     M anipulation  |
\*---------------------------------------------------------------------------*/
FoamFile
{
    format      ascii;
    class       volScalarField;
    location    "2.24";
    object      k;
}
// * * * * * * * * * * * * * * * * * * * * * * * * * * * * * * * * * * * * * //

dimensions      [0 2 -2 0 0 0 0];

internalField   nonuniform List<scalar> 
2268
(
0.00143866
0.0040415
0.00636874
0.00826694
0.00986636
0.011251
0.0124704
0.0135662
0.0145554
0.0154487
0.0162528
0.0169707
0.0176008
0.0181322
0.0185347
0.0187511
0.0186858
0.0181594
0.0170517
0.0155751
0.0133827
0.00975535
0.00401738
0.00314691
0.00962994
0.0144291
0.0184472
0.0218958
0.0249047
0.0275707
0.0299614
0.0321203
0.0340736
0.035835
0.0374103
0.0387952
0.0399643
0.0408519
0.0413385
0.0412334
0.0402162
0.0380368
0.0350019
0.0304561
0.0227686
0.00958886
0.00460208
0.0130731
0.0190054
0.0239698
0.0282571
0.0320193
0.0353676
0.0383803
0.0411111
0.0435916
0.045839
0.0478601
0.0496479
0.0511671
0.0523325
0.052996
0.052939
0.0518645
0.049529
0.0459265
0.0403694
0.0310761
0.0135638
0.00598234
0.0160042
0.0227288
0.0283132
0.033147
0.0374028
0.0412041
0.0446359
0.0477577
0.0506038
0.0531934
0.0555353
0.0576222
0.0594121
0.060806
0.0616373
0.0616775
0.0606541
0.0583348
0.0545535
0.0485717
0.038385
0.0172807
0.00731665
0.0187663
0.0261777
0.0322557
0.0375061
0.0421356
0.0462831
0.0500402
0.0534689
0.0566056
0.0594709
0.062077
0.0644188
0.0664508
0.0680612
0.0690668
0.0692344
0.0683138
0.0660915
0.0623322
0.0562183
0.0454368
0.02109
0.00861405
0.021488
0.0295502
0.0360591
0.0416535
0.0465868
0.0510183
0.0550469
0.0587342
0.0621177
0.0652196
0.0680578
0.0706328
0.0728975
0.0747261
0.0759163
0.0762303
0.075441
0.0733621
0.0697384
0.0636922
0.0525764
0.0256749
0.00990905
0.0242398
0.0329421
0.0398448
0.0457344
0.0509246
0.0556007
0.0598676
0.0637831
0.0673843
0.0706963
0.0737458
0.076543
0.0790414
0.0810975
0.0824822
0.0829512
0.0823029
0.0803879
0.0769596
0.0711551
0.0601236
0.0325746
0.0112456
0.0270748
0.0364136
0.0436807
0.0498267
0.0552393
0.0601351
0.0646201
0.0687442
0.0725418
0.0760432
0.0792882
0.0823029
0.0850437
0.0873417
0.0889283
0.0895477
0.0890294
0.0872718
0.08406
0.0786285
0.0683736
0.0444229
0.00353503
0.00870139
0.0121663
0.0136674
0.0140491
0.0137581
0.0125334
0.010541
0.00871446
0.00839607
0.00859061
0.00848621
0.00812493
0.00801863
0.00822145
0.0077917
0.00630004
0.00421243
0.0022642
0.007749
0.0197019
0.0260291
0.0289491
0.0297065
0.0290347
0.0269185
0.0228935
0.0198375
0.019082
0.0190949
0.0186966
0.0178596
0.017502
0.017296
0.0162399
0.0135835
0.00966497
0.00418017
0.0101812
0.0259324
0.0333429
0.0367127
0.0375087
0.0365835
0.0340781
0.0299137
0.0266163
0.0254337
0.0249528
0.024191
0.0231437
0.0224685
0.0218406
0.0203114
0.0171797
0.0125748
0.00550945
0.0123823
0.0311441
0.0391135
0.0425006
0.0431273
0.0419422
0.0391969
0.0351409
0.0318664
0.0303617
0.0294735
0.0284092
0.0271444
0.0261564
0.0251101
0.0231488
0.0196873
0.0146393
0.00646481
0.0147478
0.0363188
0.0443995
0.0474832
0.0477817
0.0463166
0.0434141
0.0395968
0.0364559
0.0346524
0.0334294
0.0321106
0.030625
0.0293192
0.0278506
0.0254497
0.0216458
0.0162111
0.00717558
0.0178284
0.0418853
0.0495319
0.0520288
0.0518784
0.0501311
0.0471647
0.04366
0.0406987
0.0386312
0.037102
0.0355608
0.0338687
0.0322561
0.0303811
0.0275316
0.0232874
0.0174053
0.00777654
0.0231559
0.0480405
0.054588
0.0562787
0.0556144
0.0535991
0.0506429
0.0474786
0.0447152
0.0424566
0.04064
0.0388956
0.0370227
0.0351374
0.0329025
0.0296347
0.0248565
0.0183445
0.00825168
0.0344916
0.0548563
0.0595704
0.0603088
0.0591097
0.0568488
0.053966
0.0511167
0.0485409
0.0461883
0.0441396
0.0422124
0.0401805
0.0380627
0.0355272
0.0319005
0.0265771
0.0192833
0.00861166
0.0133961
0.0316827
0.0420168
0.0498137
0.0563103
0.0620322
0.0672499
0.0720609
0.0764909
0.0805684
0.0843367
0.087865
0.0912177
0.0943622
0.0970697
0.0989755
0.0997971
0.099426
0.0978539
0.0949382
0.0898889
0.0807541
0.0631752
0.0166843
0.0388362
0.0504525
0.058766
0.0655437
0.071582
0.0772368
0.0824991
0.0872982
0.0916664
0.0956866
0.0995057
0.103311
0.107124
0.110518
0.112813
0.113675
0.113175
0.11154
0.108851
0.104696
0.0980909
0.0892116
0.0211462
0.0476195
0.0600635
0.0684473
0.0751997
0.0815049
0.0878058
0.0936512
0.0987745
0.103327
0.107439
0.111386
0.115649
0.12046
0.124857
0.127394
0.127792
0.126577
0.124376
0.12158
0.118002
0.112867
0.106429
0.0299585
0.059262
0.0710645
0.0786876
0.0849507
0.0915969
0.0992563
0.10592
0.11114
0.11567
0.11958
0.123328
0.12797
0.134632
0.140727
0.142975
0.142021
0.13941
0.136116
0.13309
0.130558
0.126547
0.121014
0.0420063
0.0696955
0.0797099
0.0867285
0.0926002
0.0994611
0.107841
0.113484
0.117961
0.122759
0.12723
0.130999
0.135919
0.143938
0.150625
0.153658
0.153396
0.150535
0.146595
0.14267
0.140121
0.139736
0.135978
0.0414556
0.07185
0.0849143
0.0917213
0.0966675
0.101808
0.10762
0.113059
0.118149
0.123199
0.12811
0.132801
0.138224
0.144537
0.150211
0.154039
0.155564
0.154631
0.152228
0.149448
0.146957
0.146949
0.144944
0.0380657
0.0727487
0.0912671
0.0970457
0.0999773
0.103294
0.10757
0.112342
0.117935
0.123403
0.128341
0.133302
0.138765
0.144017
0.149247
0.153387
0.155463
0.155264
0.153929
0.152003
0.150807
0.148995
0.145338
0.0340348
0.0671179
0.0939192
0.101002
0.102156
0.103686
0.106836
0.111035
0.116281
0.121774
0.127342
0.132896
0.138231
0.142723
0.147284
0.152363
0.155828
0.15463
0.152046
0.151272
0.152324
0.152244
0.147186
0.0305514
0.0637414
0.0893569
0.0979413
0.100751
0.102493
0.105217
0.108978
0.113522
0.118588
0.124151
0.129968
0.135124
0.139175
0.142973
0.147499
0.150659
0.149782
0.147945
0.147786
0.148603
0.148309
0.145095
0.0293777
0.0642195
0.0832041
0.0921064
0.0965734
0.0995589
0.102593
0.106151
0.110241
0.114816
0.119866
0.125193
0.130129
0.134093
0.137488
0.140777
0.142951
0.143004
0.142452
0.142361
0.142292
0.141259
0.138336
0.0326684
0.0629761
0.0777216
0.0862931
0.0914904
0.0953239
0.0988451
0.102479
0.106365
0.110562
0.115094
0.11983
0.124345
0.128169
0.131295
0.133851
0.13539
0.135574
0.13537
0.134967
0.133978
0.132047
0.128485
0.0324586
0.0598233
0.0726182
0.0806814
0.0862233
0.0905603
0.0944217
0.0981588
0.101935
0.105844
0.109927
0.114111
0.118138
0.121665
0.124521
0.126642
0.127782
0.127816
0.127262
0.126463
0.125035
0.122703
0.119274
0.030336
0.0557276
0.067633
0.0753754
0.0810477
0.0856246
0.0896486
0.0934132
0.0970776
0.100737
0.104438
0.10814
0.111684
0.114831
0.117384
0.119205
0.120122
0.120072
0.119328
0.118205
0.11664
0.114466
0.111642
0.0275372
0.0513249
0.0627564
0.0703085
0.0759945
0.0806409
0.0846941
0.0884094
0.091935
0.0953602
0.0987272
0.102015
0.105121
0.107882
0.110128
0.111715
0.112517
0.112489
0.111782
0.110636
0.109153
0.1073
0.105081
0.0245293
0.0468655
0.0579835
0.0653998
0.0710416
0.0756644
0.0796673
0.0832828
0.0866497
0.0898506
0.0929236
0.0958585
0.0985892
0.101003
0.102972
0.104377
0.105123
0.105179
0.104637
0.103671
0.102426
0.100936
0.0992238
0.0217229
0.0424411
0.0533493
0.060647
0.0662108
0.0707609
0.0746707
0.0781599
0.0813608
0.0843511
0.0871674
0.0898073
0.0922286
0.0943561
0.0960969
0.0973645
0.0980906
0.0982582
0.0979306
0.0972331
0.0962946
0.0951696
0.0938921
0.0194559
0.0383136
0.0489444
0.0561056
0.0615664
0.0660161
0.0698094
0.0731604
0.0761974
0.0789954
0.081591
0.0839885
0.0861635
0.088068
0.0896335
0.090803
0.091536
0.0918264
0.0917159
0.0913075
0.0906862
0.0899064
0.0890023
0.0175685
0.03482
0.0449777
0.0519121
0.0572099
0.06152
0.065179
0.0683876
0.0712684
0.0738945
0.0763033
0.0785047
0.080486
0.0822172
0.0836578
0.0847714
0.0855352
0.0859498
0.0860463
0.0859053
0.0855787
0.0851098
0.084527
0.0160091
0.0319324
0.041506
0.0481348
0.0532225
0.0573625
0.0608686
0.0639283
0.0666579
0.0691281
0.0713775
0.0734206
0.0752542
0.0768618
0.0782211
0.0793113
0.0801214
0.0806565
0.0809414
0.0810328
0.0809639
0.0807645
0.0804551
0.014722
0.0295289
0.0384919
0.0447739
0.0496223
0.053574
0.056918
0.0598286
0.0624155
0.064747
0.0668624
0.0687802
0.0705039
0.0720272
0.0733391
0.0744296
0.0752952
0.0759427
0.0763926
0.0766816
0.0768305
0.0768584
0.0767783
0.0136373
0.0274699
0.0358508
0.041782
0.0463849
0.050146
0.0533303
0.0560997
0.0585577
0.0607701
0.0627766
0.0645983
0.0662439
0.0677137
0.0690039
0.0701113
0.0710363
0.0717856
0.0723775
0.0728318
0.0731613
0.073377
0.0734861
0.0126869
0.0256397
0.0334903
0.0390909
0.0434611
0.0470438
0.0500824
0.0527276
0.0550768
0.0571933
0.0591167
0.0608701
0.0624651
0.0639064
0.0651948
0.0663305
0.0673157
0.0681562
0.068868
0.0694587
0.0699354
0.0703038
0.0705664
0.0118167
0.0239566
0.0313325
0.036635
0.0407974
0.0442248
0.0471413
0.0496869
0.0519532
0.0540008
0.0558686
0.0575804
0.0591499
0.060584
0.061886
0.0630579
0.0641025
0.0650249
0.0658356
0.0665372
0.0671322
0.0676224
0.0680072
0.0109915
0.0223714
0.029325
0.0343664
0.0383525
0.0416545
0.0444788
0.0469548
0.0491684
0.0511766
0.0530171
0.0547136
0.0562803
0.0577254
0.0590532
0.0602666
0.0613682
0.0623622
0.0632546
0.064045
0.0647333
0.0653185
0.0657985
0.0101953
0.0208667
0.0274465
0.032265
0.0361091
0.0393189
0.0420837
0.0445226
0.0467147
0.0487133
0.0505537
0.0522587
0.0538426
0.0553135
0.0566764
0.0579342
0.0590892
0.0601447
0.0611035
0.0619638
0.0627238
0.0633811
0.0639329
0.0094314
0.0194561
0.0257087
0.0303422
0.0340788
0.0372296
0.0399671
0.0423999
0.0445998
0.0466155
0.0484793
0.0502128
0.0518292
0.0533369
0.0547405
0.0560431
0.0572467
0.0583537
0.0593654
0.0602791
0.0610923
0.0618022
0.0624055
0.00872111
0.0181814
0.0241539
0.0286392
0.0323009
0.0354228
0.0381613
0.0406138
0.0428449
0.044898
0.0468026
0.0485781
0.0502371
0.0517873
0.0532336
0.0545788
0.0558249
0.056974
0.0580264
0.0589793
0.0598301
0.060576
0.0612141
0.00809951
0.017103
0.0228455
0.0272175
0.0308328
0.0339501
0.0367103
0.0392002
0.0414772
0.0435797
0.0455342
0.0473582
0.0490634
0.0506572
0.0521445
0.0535281
0.0548101
0.0559923
0.0570748
0.058055
0.0589307
0.0596992
0.060358
0.00760674
0.0162834
0.0218508
0.0261425
0.029734
0.032863
0.0356564
0.0381916
0.0405195
0.0426743
0.0446797
0.0465518
0.0483015
0.0499361
0.0514602
0.0528769
0.0541882
0.055396
0.0565002
0.0574986
0.0583891
0.0591699
0.0598387
0.00727588
0.0157707
0.0212226
0.0254643
0.0290487
0.0321973
0.0350263
0.0376056
0.0399809
0.0421833
0.0442343
0.0461491
0.0479381
0.0496083
0.0511644
0.0526093
0.053945
0.0551732
0.0562934
0.0573039
0.0582028
0.0589885
0.0596597
0.00712331
0.0155876
0.0209855
0.0252048
0.0287929
0.0319625
0.0348226
0.0374381
0.0398515
0.0420918
0.0441797
0.0461295
0.0479515
0.0496525
0.0512369
0.0527075
0.0540658
0.0553127
0.0564473
0.0574676
0.0583719
0.0591588
0.0598277
0.00714672
0.0157297
0.0211328
0.0253539
0.0289527
0.0321402
0.0350227
0.0376632
0.0401027
0.0423698
0.0444848
0.0464623
0.0483124
0.0500418
0.0516547
0.0531528
0.0545367
0.0558059
0.0569582
0.0579907
0.0589015
0.0596894
0.0603544
0.00733011
0.0161717
0.0216328
0.0258761
0.0294891
0.032689
0.0355837
0.038237
0.0406905
0.0429738
0.0451078
0.047108
0.0489848
0.0507451
0.052392
0.0539262
0.0553458
0.0566481
0.0578279
0.0588807
0.0598036
0.0605958
0.0612581
0.00765018
0.0168741
0.0224367
0.0267178
0.0303462
0.0335518
0.0364481
0.0391024
0.0415591
0.0438498
0.0459976
0.0480193
0.0499267
0.0517266
0.0534216
0.0550096
0.0564853
0.0578411
0.0590667
0.0601546
0.0611003
0.0619033
0.0625664
0.00807963
0.0177865
0.0234837
0.0278134
0.031456
0.0346596
0.0375473
0.0401921
0.042643
0.0449352
0.0470949
0.0491418
0.0510897
0.0529466
0.0547141
0.0563869
0.057953
0.0593963
0.0606975
0.0618433
0.0628273
0.0636503
0.0643187
0.00858717
0.0188486
0.0247027
0.0290869
0.0327403
0.0359343
0.0388039
0.0414305
0.0438689
0.0461593
0.0483327
0.0504131
0.0524183
0.0543592
0.0562376
0.0580439
0.0597559
0.0613403
0.0627621
0.0639978
0.0650392
0.0658917
0.0665688
0.00913638
0.0199894
0.0260123
0.0304524
0.0341123
0.0372894
0.0401333
0.042735
0.0451565
0.0474445
0.0496362
0.0517624
0.053848
0.0559105
0.0579551
0.0599685
0.0619122
0.0637228
0.0653312
0.0666977
0.0678161
0.0687036
0.0693878
0.00968535
0.0211275
0.0273209
0.0318156
0.0354778
0.0386326
0.0414457
0.0440183
0.0464208
0.0487074
0.0509236
0.0531097
0.0553029
0.0575337
0.0598191
0.0621475
0.0644587
0.0666323
0.0685219
0.0700644
0.0712706
0.0721864
0.0728656
0.0101881
0.0221735
0.0285311
0.0330775
0.0367394
0.0398696
0.0426497
0.045192
0.0475754
0.0498624
0.0521081
0.0543664
0.0566924
0.0591414
0.061759
0.0645547
0.067452
0.0702266
0.0725271
0.0742781
0.0755545
0.0764663
0.07711
0.0105978
0.023036
0.0295455
0.0341409
0.0378023
0.0409088
0.0436577
0.0461715
0.0485371
0.0508253
0.053102
0.0554366
0.0579091
0.060614
0.0636553
0.0671151
0.0709565
0.0748052
0.0776694
0.0795954
0.0808581
0.0816894
0.0822425
0.0108763
0.0236327
0.0302776
0.0349174
0.0385794
0.0416667
0.04439
0.0468801
0.0492309
0.0515199
0.0538225
0.0562233
0.0588296
0.0617868
0.0652942
0.069607
0.0749493
0.0810232
0.0844863
0.0863483
0.0873889
0.0880053
0.0883892
0.0109863
0.0239434
0.0306675
0.035333
0.0389948
0.0420705
0.0447786
0.0472547
0.0495965
0.0518854
0.0542024
0.0566419
0.0593307
0.0624562
0.066318
0.0714363
0.0788134
0.0906305
0.0937904
0.0948543
0.0953055
0.095537
0.0956713
0.0432488
0.040031
0.0417203
0.0472195
0.0827092
0.0799073
0.0783746
0.0777593
0.101333
0.0983397
0.0956877
0.0933762
0.115636
0.112094
0.108619
0.105361
0.129371
0.124648
0.119863
0.115601
0.137346
0.132496
0.127985
0.123418
0.140467
0.1363
0.131474
0.126676
0.140825
0.135905
0.130851
0.126129
0.138744
0.133776
0.12865
0.123981
0.133383
0.129028
0.124257
0.119978
0.124038
0.120794
0.117522
0.114451
0.115886
0.113617
0.111337
0.109102
0.109147
0.107493
0.105814
0.104134
0.10322
0.101986
0.100725
0.0994462
0.0978279
0.0969006
0.0959475
0.0949738
0.0928573
0.0921644
0.0914486
0.090712
0.0882588
0.0877536
0.0872264
0.0866776
0.0840242
0.083674
0.0833012
0.0829052
0.0801532
0.0799324
0.0796878
0.0794185
0.0766434
0.0765307
0.076393
0.0762292
0.0734888
0.0734657
0.0734165
0.0733404
0.0706808
0.070731
0.0707545
0.0707503
0.0682109
0.0683198
0.0684017
0.0684556
0.0660717
0.0662265
0.0663543
0.066454
0.0642583
0.0644478
0.0646103
0.0647447
0.0627684
0.0629828
0.0631702
0.0633297
0.0616018
0.0618327
0.0620366
0.0622128
0.0607603
0.0610006
0.061214
0.0613999
0.0602474
0.0604915
0.0607087
0.0608984
0.0600686
0.0603124
0.0605291
0.0607182
0.060233
0.0604736
0.0606867
0.0608722
0.060754
0.0609898
0.0611978
0.0613777
0.0616518
0.0618824
0.0620843
0.0622578
0.0629551
0.0631806
0.0633766
0.0635434
0.0647036
0.0649245
0.0651146
0.0652748
0.0669502
0.0671663
0.0673504
0.0675037
0.0697631
0.0699725
0.0701488
0.0702939
0.0732262
0.0734242
0.0735886
0.0737223
0.0774393
0.0776168
0.0777622
0.0778791
0.0825142
0.0826579
0.0827742
0.0828667
0.0885706
0.088665
0.0887405
0.0888001
0.0957327
0.0957642
0.0957892
0.0958087
0.0592201
0.065388
0.0669115
0.0662133
0.064295
0.0617567
0.0590448
0.0565781
0.0542535
0.0519064
0.0496474
0.0474844
0.045206
0.0426965
0.0396624
0.0355401
0.0295143
0.0210209
0.00908234
0.077475
0.0770498
0.0757134
0.073569
0.071013
0.0682971
0.0657077
0.0634192
0.0613174
0.0592395
0.0571246
0.0549146
0.0523894
0.0493179
0.0456636
0.0410846
0.0346418
0.0253266
0.0108098
0.0903629
0.086942
0.0837415
0.0806392
0.0776846
0.074841
0.0721725
0.0698161
0.0678646
0.066144
0.0643503
0.0622164
0.0594748
0.0559322
0.0516725
0.046636
0.0401859
0.0309927
0.0153307
0.10092
0.0957773
0.0913352
0.0874742
0.0841343
0.0811084
0.07822
0.0756182
0.0736803
0.0723426
0.070958
0.0689244
0.0659182
0.0619376
0.0572798
0.0520754
0.0461418
0.0369659
0.0168578
0.110165
0.10398
0.098398
0.0938207
0.0902114
0.0869824
0.0836704
0.0806643
0.0787756
0.0780084
0.0769929
0.0747302
0.0710666
0.0664156
0.0614707
0.0563732
0.0504565
0.041679
0.0202589
0.117166
0.110347
0.104193
0.0992184
0.0953066
0.0914553
0.0873449
0.0838206
0.0817401
0.0808147
0.0792174
0.0762182
0.0720173
0.0670881
0.0620848
0.0568566
0.0503936
0.041692
0.0229725
0.119921
0.112829
0.107254
0.102529
0.0981763
0.0938081
0.0895038
0.0857222
0.0829829
0.0808707
0.0781935
0.0746786
0.0705285
0.0660037
0.0612382
0.0556358
0.0488393
0.0401238
0.0226365
0.119491
0.112519
0.107354
0.103106
0.0987001
0.094259
0.0900705
0.0865969
0.0837728
0.0808436
0.077292
0.0732242
0.0687686
0.0639493
0.0585537
0.0525743
0.0461399
0.037428
0.0204706
0.117496
0.110833
0.105844
0.101576
0.0972542
0.0931846
0.0897389
0.0869067
0.0841184
0.0805184
0.0759718
0.0709986
0.0657255
0.0601782
0.0545605
0.0491963
0.0433396
0.0348021
0.018485
0.114172
0.108138
0.103332
0.0990209
0.0948627
0.0910528
0.0878962
0.0851763
0.0821074
0.0780471
0.0729849
0.0674894
0.0617894
0.0560909
0.0507359
0.0458275
0.040541
0.0325185
0.0166905
0.109969
0.104765
0.100272
0.0961797
0.0923141
0.0886698
0.0852995
0.0820543
0.0785198
0.0743038
0.0693547
0.0639548
0.0583027
0.052631
0.0472183
0.0421273
0.0369672
0.0296871
0.014977
0.105646
0.101259
0.0972642
0.0935528
0.0899847
0.0864518
0.0829024
0.0792861
0.0754531
0.0712083
0.0664589
0.0612534
0.0556807
0.0499024
0.0440904
0.0383436
0.0325823
0.0257398
0.0130349
0.101434
0.0978119
0.0943741
0.0910725
0.0877921
0.0844118
0.0808647
0.0771456
0.0732315
0.0690391
0.0644552
0.0593992
0.0538646
0.0479252
0.0416685
0.0351709
0.0285048
0.021441
0.0108095
0.0973341
0.0943922
0.0914913
0.0885971
0.085618
0.0824544
0.0790562
0.0754357
0.0716094
0.0675369
0.0631071
0.0581931
0.0527297
0.0467265
0.0402134
0.0332189
0.0258729
0.0182675
0.00863912
0.0933307
0.0909716
0.088558
0.0860545
0.0833905
0.0804954
0.0773386
0.0739335
0.0702977
0.0664016
0.0621495
0.0574174
0.0521197
0.0462257
0.0397227
0.0326113
0.0250407
0.0172344
0.00761422
0.089446
0.0875754
0.085591
0.0834543
0.0811098
0.0785104
0.0756379
0.0725009
0.069107
0.0654288
0.0613899
0.0568895
0.0518478
0.0462189
0.0399684
0.0330749
0.0256482
0.0178378
0.00829821
0.0857216
0.0842635
0.0826492
0.0808485
0.0788147
0.0765152
0.0739367
0.0710815
0.067948
0.0645107
0.0607114
0.0564759
0.051743
0.0464727
0.0406324
0.0341886
0.0271502
0.0193451
0.00945656
0.0822017
0.0810848
0.0797958
0.0782985
0.0765544
0.0745422
0.0722479
0.0696681
0.0667953
0.0636062
0.0600576
0.0560987
0.051689
0.046805
0.0414309
0.0355377
0.0290306
0.0213675
0.0106866
0.0789241
0.0780901
0.0770753
0.075847
0.0743725
0.0726259
0.0705958
0.068276
0.0656543
0.0627105
0.0594126
0.0557276
0.0516323
0.0471194
0.0421904
0.0368259
0.0308762
0.0235854
0.0118123
0.0759092
0.0753108
0.0745277
0.073531
0.0722925
0.0707891
0.0690048
0.0669253
0.0645407
0.0618342
0.0587809
0.0553604
0.0515619
0.0473879
0.0428474
0.0379197
0.0324248
0.0255107
0.0127216
0.0731655
0.0727634
0.0721756
0.071377
0.0703426
0.069051
0.0674849
0.0656297
0.0634709
0.0609914
0.0581718
0.0550041
0.0514824
0.0476121
0.0433979
0.038801
0.033598
0.0268369
0.0133761
0.070695
0.0704552
0.0700309
0.0694002
0.0685407
0.0674325
0.066058
0.0644018
0.0624487
0.0601835
0.0575914
0.0546638
0.0513983
0.0477973
0.043854
0.0395037
0.0344796
0.027754
0.0138127
0.0684974
0.0683898
0.0681005
0.0676101
0.0668988
0.0659479
0.0647403
0.0632601
0.0614925
0.0594233
0.0570402
0.0543351
0.0513042
0.0479436
0.0442307
0.040073
0.035163
0.0284237
0.0141911
0.0665724
0.0665702
0.0663899
0.0660146
0.0654267
0.0646088
0.0635445
0.0622183
0.0606156
0.058723
0.0565289
0.0540247
0.051203
0.0480512
0.0445308
0.0405248
0.0356957
0.02894
0.0145127
0.0649218
0.0650008
0.0649059
0.0646223
0.0641345
0.0634266
0.0624831
0.0612888
0.0598297
0.0580925
0.0560654
0.0537378
0.0510978
0.0481235
0.0447617
0.0408762
0.0361081
0.0293342
0.0147405
0.0635492
0.0636879
0.063657
0.0634437
0.0630343
0.0624145
0.0615697
0.0604854
0.0591477
0.0575432
0.0556592
0.0534823
0.0509954
0.048168
0.0449344
0.0411434
0.0364201
0.0296217
0.0148856
0.0624607
0.0626402
0.062654
0.0624915
0.0621406
0.0615883
0.0608209
0.0598248
0.058586
0.0570906
0.0553244
0.0532712
0.0509086
0.0481982
0.0450643
0.0413438
0.0366497
0.0298202
0.0149668
0.0616642
0.0618681
0.0619101
0.0617811
0.0614705
0.0609667
0.0602569
0.0593279
0.0581656
0.0567554
0.0550815
0.0531244
0.0508571
0.0482345
0.0451724
0.0414987
0.0368172
0.0299512
0.0150105
0.0611695
0.0613843
0.0614404
0.0613301
0.0610442
0.0605721
0.0599019
0.0590204
0.0579134
0.0565655
0.0549587
0.0530709
0.0508704
0.0483064
0.045288
0.0416365
0.0369493
0.0300409
0.0150325
0.0609885
0.0612037
0.0612627
0.0611591
0.060885
0.0604306
0.0597845
0.0589335
0.0578631
0.0565565
0.0549939
0.0531499
0.050989
0.0484554
0.0454527
0.041797
0.0370815
0.0301151
0.0150383
0.0611363
0.0613441
0.0613977
0.061292
0.06102
0.0605726
0.0599386
0.0591048
0.0580558
0.0567733
0.0552352
0.0534131
0.0512673
0.0487376
0.0457231
0.0420352
0.0372623
0.0302052
0.0150292
0.0616321
0.0618275
0.0618703
0.0617567
0.0614806
0.0610334
0.0604039
0.0595786
0.0585409
0.0572707
0.0557431
0.0539262
0.0517758
0.0492269
0.0461738
0.0424233
0.0375575
0.0303594
0.0149754
0.0625009
0.0626812
0.0627106
0.0625865
0.0623037
0.0618541
0.0612266
0.0604068
0.0593768
0.0581142
0.0565911
0.0547707
0.0526036
0.0500183
0.0469025
0.0430563
0.0380533
0.0306487
0.0149002
0.0637746
0.0639393
0.063955
0.0638208
0.0635326
0.0630827
0.0624599
0.0616491
0.0606309
0.0593805
0.057866
0.0560451
0.0538609
0.0512326
0.0480372
0.0440632
0.0388711
0.0311907
0.0150211
0.0654944
0.065644
0.0656478
0.0655067
0.0652178
0.064774
0.0641642
0.0633729
0.0623793
0.0611561
0.0596672
0.0578639
0.0556795
0.0530198
0.0497445
0.0456222
0.0401917
0.0321544
0.0154715
0.0677113
0.067847
0.067842
0.0676994
0.0674176
0.0669905
0.0664073
0.0656526
0.0647049
0.063535
0.062103
0.0603535
0.0582085
0.0555559
0.0522294
0.0479643
0.0422604
0.0337534
0.0162578
0.0704879
0.0706106
0.0706006
0.0704633
0.0701988
0.069802
0.0692632
0.0685677
0.0676944
0.0666138
0.0652837
0.0636435
0.0616039
0.0590318
0.0557253
0.0513654
0.0453867
0.0362798
0.0174865
0.0738991
0.074008
0.0739966
0.0738724
0.0736365
0.0732855
0.0728112
0.0722006
0.0714348
0.0704857
0.0693125
0.0678527
0.0660099
0.0636314
0.0604715
0.056127
0.0498856
0.0400036
0.0193776
0.0780319
0.0781246
0.0781148
0.0780107
0.0778148
0.0775249
0.0771351
0.0766351
0.0760094
0.0752347
0.0742751
0.0730732
0.0715346
0.0694976
0.066678
0.0625604
0.0561791
0.0453202
0.0222636
0.0829865
0.0830587
0.083052
0.0829742
0.082828
0.0826125
0.0823241
0.081956
0.0814976
0.0809323
0.0802338
0.0793576
0.0782254
0.076691
0.0744645
0.0709373
0.0647501
0.0526028
0.0262159
0.0888769
0.0889231
0.0889196
0.0888719
0.0887822
0.0886506
0.0884753
0.088253
0.0879783
0.0876425
0.0872313
0.0867194
0.0860593
0.0851529
0.083775
0.081341
0.0761145
0.061844
0.0313199
0.0958337
0.0958482
0.0958462
0.0958297
0.0957996
0.095756
0.0956987
0.0956269
0.0955395
0.0954345
0.0953085
0.0951559
0.094965
0.0947094
0.0943122
0.0934769
0.0906825
0.0714309
0.0367385
)
;

boundaryField
{
    leftWall
    {
        type            kqRWallFunction;
        value           nonuniform List<scalar> 
50
(
0.00143866
0.00314691
0.00460208
0.00598234
0.00731665
0.00861405
0.00990905
0.0112456
0.0133961
0.0166843
0.0211462
0.0299585
0.0420063
0.0414556
0.0380657
0.0340348
0.0305514
0.0293777
0.0326684
0.0324586
0.030336
0.0275372
0.0245293
0.0217229
0.0194559
0.0175685
0.0160091
0.014722
0.0136373
0.0126869
0.0118167
0.0109915
0.0101953
0.0094314
0.00872111
0.00809951
0.00760674
0.00727588
0.00712331
0.00714672
0.00733011
0.00765018
0.00807963
0.00858717
0.00913638
0.00968535
0.0101881
0.0105978
0.0108763
0.0109863
)
;
    }
    rightWall
    {
        type            kqRWallFunction;
        value           nonuniform List<scalar> 
50
(
0.0022642
0.00418017
0.00550945
0.00646481
0.00717558
0.00777654
0.00825168
0.00861166
0.00908234
0.0108098
0.0153307
0.0168578
0.0202589
0.0229725
0.0226365
0.0204706
0.018485
0.0166905
0.014977
0.0130349
0.0108095
0.00863912
0.00761422
0.00829821
0.00945656
0.0106866
0.0118123
0.0127216
0.0133761
0.0138127
0.0141911
0.0145127
0.0147405
0.0148856
0.0149668
0.0150105
0.0150325
0.0150383
0.0150292
0.0149754
0.0149002
0.0150211
0.0154715
0.0162578
0.0174865
0.0193776
0.0222636
0.0262159
0.0313199
0.0367385
)
;
    }
    lowerWall
    {
        type            kqRWallFunction;
        value           nonuniform List<scalar> 
62
(
0.00143866
0.0040415
0.00636874
0.00826694
0.00986636
0.011251
0.0124704
0.0135662
0.0145554
0.0154487
0.0162528
0.0169707
0.0176008
0.0181322
0.0185347
0.0187511
0.0186858
0.0181594
0.0170517
0.0155751
0.0133827
0.00975535
0.00401738
0.00401738
0.00958886
0.0135638
0.0172807
0.02109
0.0256749
0.0325746
0.0444229
0.0432488
0.040031
0.0417203
0.0472195
0.00353503
0.007749
0.0101812
0.0123823
0.0147478
0.0178284
0.0231559
0.0344916
0.00353503
0.00870139
0.0121663
0.0136674
0.0140491
0.0137581
0.0125334
0.010541
0.00871446
0.00839607
0.00859061
0.00848621
0.00812493
0.00801863
0.00822145
0.0077917
0.00630004
0.00421243
0.0022642
)
;
    }
    atmosphere
    {
        type            inletOutlet;
        inletValue      uniform 0.1;
        value           nonuniform List<scalar> 
46
(
0.0109863
0.0239434
0.0306675
0.035333
0.0389948
0.0420705
0.0447786
0.0472547
0.0495965
0.0518854
0.0542024
0.0566419
0.0593307
0.0624562
0.066318
0.0714363
0.0788134
0.1
0.1
0.1
0.1
0.1
0.1
0.1
0.1
0.1
0.1
0.1
0.1
0.1
0.1
0.1
0.1
0.1
0.1
0.1
0.1
0.1
0.1
0.1
0.1
0.1
0.1
0.1
0.0714309
0.0367385
)
;
    }
    defaultFaces
    {
        type            empty;
    }
}


// ************************************************************************* //
