/*--------------------------------*- C++ -*----------------------------------*\
  =========                 |
  \\      /  F ield         | OpenFOAM: The Open Source CFD Toolbox
   \\    /   O peration     | Website:  https://openfoam.org
    \\  /    A nd           | Version:  9
     \\/     M anipulation  |
\*---------------------------------------------------------------------------*/
FoamFile
{
    format      ascii;
    class       volScalarField;
    location    "185";
    object      k;
}
// * * * * * * * * * * * * * * * * * * * * * * * * * * * * * * * * * * * * * //

dimensions      [0 2 -2 0 0 0 0];

internalField   nonuniform List<scalar> 
12225
(
0.362825
0.343999
0.327742
0.309825
0.295392
0.283493
0.275499
0.270288
0.27034
0.271895
0.276053
0.280731
0.289876
0.295686
0.306841
0.312797
0.325893
0.323783
0.440272
0.468738
0.461615
0.448373
0.450348
0.458321
0.474511
0.4986
0.524376
0.552189
0.580768
0.606251
0.633942
0.653992
0.679993
0.693329
0.718971
0.724918
0.390407
0.417859
0.420243
0.41683
0.411634
0.407804
0.408015
0.41004
0.414546
0.421417
0.430738
0.439735
0.45123
0.461188
0.472956
0.483654
0.493811
0.50628
0.377043
0.387169
0.391466
0.391343
0.39026
0.387885
0.385658
0.384082
0.38288
0.382898
0.383359
0.384387
0.386292
0.388475
0.390944
0.39429
0.396629
0.40111
0.374434
0.376094
0.378427
0.378666
0.378275
0.377202
0.375487
0.373738
0.372009
0.370455
0.369256
0.36811
0.367383
0.36681
0.36645
0.366356
0.366383
0.366748
0.373779
0.372704
0.372659
0.372365
0.371772
0.370819
0.369553
0.368083
0.366571
0.364976
0.363527
0.362062
0.360755
0.35953
0.358397
0.357431
0.356447
0.355797
0.373775
0.37174
0.370388
0.369284
0.368235
0.367114
0.365915
0.364587
0.363238
0.361807
0.360421
0.359023
0.357677
0.356381
0.35512
0.353966
0.352794
0.351805
0.373818
0.371559
0.369635
0.367976
0.366501
0.365108
0.363775
0.362429
0.361107
0.359766
0.35845
0.357143
0.355862
0.354621
0.353399
0.352248
0.351096
0.350051
0.373832
0.371553
0.369449
0.367525
0.365777
0.364153
0.362645
0.361199
0.359817
0.358473
0.357169
0.355902
0.354666
0.353473
0.352306
0.351194
0.350095
0.349071
0.373831
0.37156
0.369418
0.367405
0.365529
0.363773
0.362133
0.360585
0.359122
0.357727
0.356394
0.355117
0.353887
0.352709
0.351568
0.35048
0.349418
0.348419
0.373829
0.37156
0.369413
0.367378
0.365458
0.363645
0.361937
0.360324
0.358798
0.357352
0.355978
0.354672
0.353423
0.352234
0.351093
0.350007
0.348958
0.347968
0.373828
0.371558
0.369409
0.367371
0.365439
0.363609
0.361876
0.360234
0.358677
0.357201
0.355799
0.354468
0.3532
0.351994
0.350841
0.349746
0.348694
0.3477
0.373827
0.371556
0.369405
0.367365
0.36543
0.363594
0.361851
0.360197
0.358626
0.357134
0.355715
0.354367
0.353084
0.351864
0.3507
0.349594
0.348535
0.347531
0.373826
0.371555
0.369401
0.36736
0.365422
0.363583
0.361837
0.360178
0.3586
0.357101
0.355674
0.354317
0.353024
0.351794
0.350622
0.349506
0.34844
0.347427
0.373826
0.371553
0.369398
0.367355
0.365416
0.363575
0.361826
0.360164
0.358584
0.357081
0.355651
0.35429
0.352993
0.351758
0.35058
0.349459
0.348388
0.347369
0.373826
0.371552
0.369396
0.367351
0.36541
0.363568
0.361817
0.360154
0.358572
0.357067
0.355634
0.354271
0.352972
0.351734
0.350554
0.34943
0.348357
0.347334
0.373825
0.371551
0.369394
0.367348
0.365406
0.363562
0.36181
0.360145
0.358562
0.357055
0.355621
0.354256
0.352956
0.351716
0.350535
0.349409
0.348334
0.347309
0.373825
0.371551
0.369393
0.367346
0.365403
0.363558
0.361805
0.360139
0.358555
0.357047
0.355612
0.354246
0.352944
0.351704
0.350521
0.349393
0.348318
0.347291
0.373825
0.37155
0.369393
0.367346
0.365402
0.363557
0.361804
0.360137
0.358552
0.357044
0.355608
0.354241
0.352939
0.351697
0.350514
0.349385
0.348309
0.347282
0.373825
0.371551
0.369393
0.367347
0.365404
0.363559
0.361806
0.36014
0.358555
0.357047
0.355612
0.354245
0.352942
0.351701
0.350518
0.349389
0.348313
0.347286
0.373825
0.371551
0.369395
0.367349
0.365407
0.363563
0.361811
0.360146
0.358562
0.357056
0.355622
0.354256
0.352955
0.351716
0.350535
0.349408
0.348334
0.347308
0.373826
0.371553
0.369397
0.367352
0.365412
0.363571
0.361822
0.360162
0.358584
0.357083
0.355657
0.354299
0.353007
0.351776
0.350603
0.349484
0.348418
0.347399
0.373826
0.371554
0.369399
0.36736
0.365429
0.363603
0.361875
0.36024
0.358691
0.357221
0.355823
0.354494
0.353228
0.352019
0.350866
0.349763
0.348711
0.347701
0.373828
0.371551
0.369412
0.367417
0.365556
0.36382
0.36219
0.360651
0.359189
0.357794
0.356457
0.355172
0.353936
0.352746
0.351601
0.350496
0.349437
0.348411
0.373823
0.371554
0.369605
0.367893
0.366339
0.364892
0.363495
0.362122
0.360761
0.359414
0.358081
0.35677
0.355489
0.354238
0.35303
0.351856
0.350735
0.349646
0.373781
0.37199
0.371113
0.370266
0.36936
0.368312
0.367048
0.36563
0.364121
0.362575
0.361031
0.359523
0.358074
0.356682
0.355382
0.354142
0.35301
0.351924
0.374297
0.375564
0.377778
0.377858
0.377291
0.375886
0.373835
0.371641
0.369505
0.367482
0.365664
0.364084
0.36271
0.361535
0.36061
0.359818
0.359289
0.3588
0.378732
0.394394
0.398293
0.396566
0.392559
0.387608
0.383642
0.380455
0.378266
0.376851
0.376496
0.376749
0.377398
0.378696
0.380441
0.38242
0.384824
0.387134
0.408344
0.427539
0.422424
0.41105
0.402226
0.397923
0.398556
0.401115
0.405983
0.413035
0.420992
0.429823
0.438828
0.448184
0.457297
0.466543
0.47531
0.484169
0.366033
0.353412
0.341988
0.33021
0.318982
0.308382
0.299409
0.291674
0.285403
0.280333
0.276681
0.273866
0.272309
0.271182
0.271174
0.271518
0.272152
0.273382
0.0021698
0.00986195
0.017197
0.0242153
0.0315478
0.0392168
0.04724
0.0555324
0.0639584
0.0723418
0.0805285
0.088367
0.0957418
0.102535
0.108649
0.113968
0.118382
0.121758
0.123979
0.124861
0.124434
0.122451
0.119739
0.117254
0.120656
0.12543
0.129807
0.134573
0.140346
0.14574
0.14716
0.157983
0.152823
0.14605
0.145665
0.156294
0.162304
0.170701
0.178339
0.186538
0.194753
0.203192
0.21177
0.22052
0.229424
0.238497
0.247726
0.257126
0.266684
0.276415
0.286303
0.296366
0.306587
0.316981
0.32753
0.338252
0.349126
0.360167
0.371355
0.382705
0.394194
0.405836
0.417608
0.429524
0.441556
0.45372
0.465986
0.478368
0.490836
0.503402
0.516036
0.528749
0.541508
0.554324
0.567163
0.580033
0.5929
0.60577
0.618611
0.631427
0.644182
0.656879
0.669483
0.681994
0.694373
0.706617
0.718687
0.730571
0.742231
0.753651
0.764798
0.775666
0.786288
0.796696
0.806771
0.816581
0.82608
0.835276
0.844145
0.852682
0.860869
0.8687
0.876163
0.883251
0.889957
0.896273
0.902195
0.907716
0.912836
0.917551
0.921861
0.925765
0.929268
0.932372
0.935082
0.937403
0.939344
0.940911
0.942119
0.94298
0.943495
0.943654
0.943401
0.942617
0.941526
0.940825
0.939828
0.93866
0.938086
0.935955
0.934573
0.932539
0.930468
0.928343
0.926112
0.923833
0.921458
0.919032
0.916481
0.914638
0.912957
0.911471
0.909655
0.908086
0.907079
0.905078
0.904052
0.902183
0.90068
0.899215
0.897652
0.895535
0.893136
0.890563
0.887704
0.884365
0.88053
0.876144
0.871111
0.865188
0.85875
0.851383
0.84355
0.841258
0.839792
0.837617
0.83452
0.830514
0.825564
0.819749
0.813054
0.805427
0.796921
0.787665
0.77768
0.766823
0.755069
0.741333
0.728518
0.68481
0.00852156
0.0266816
0.0383102
0.0474125
0.0557612
0.0640755
0.0725966
0.0813448
0.0902339
0.0991288
0.107893
0.1164
0.124547
0.132244
0.139413
0.145978
0.151871
0.157029
0.161417
0.165058
0.168197
0.17146
0.176275
0.18488
0.193848
0.202081
0.210854
0.220064
0.229727
0.238385
0.24506
0.25685
0.269548
0.279942
0.290611
0.303216
0.315919
0.329306
0.342937
0.356906
0.371176
0.385759
0.400646
0.415842
0.431343
0.447157
0.463282
0.479726
0.496488
0.513577
0.53099
0.548734
0.566809
0.585219
0.603963
0.623047
0.642464
0.66222
0.682309
0.702734
0.723487
0.74457
0.765972
0.787694
0.809725
0.832061
0.854689
0.877605
0.900792
0.924245
0.947944
0.971881
0.996036
1.0204
1.04494
1.06965
1.09451
1.11949
1.14457
1.16973
1.19493
1.22016
1.24539
1.27058
1.29569
1.3207
1.34557
1.37025
1.39469
1.41886
1.44269
1.46608
1.48896
1.51129
1.53323
1.55473
1.57578
1.59635
1.61641
1.63592
1.65486
1.6732
1.69092
1.70798
1.72438
1.74008
1.75507
1.76934
1.78287
1.79564
1.80766
1.81891
1.8294
1.83911
1.84807
1.85627
1.86373
1.87045
1.87646
1.88178
1.88642
1.89042
1.89379
1.89654
1.89876
1.90051
1.90189
1.90291
1.90349
1.90376
1.90385
1.9035
1.90278
1.902
1.90112
1.90007
1.89894
1.89804
1.89746
1.8972
1.89714
1.89712
1.89745
1.89805
1.89893
1.89988
1.90134
1.90274
1.90405
1.90545
1.90683
1.90771
1.90802
1.90789
1.90748
1.9063
1.90415
1.90086
1.8963
1.89026
1.8826
1.8735
1.86251
1.85025
1.83608
1.81972
1.80116
1.78049
1.75784
1.73335
1.70715
1.67914
1.64958
1.61876
1.58686
1.55388
1.51976
1.48485
1.45362
1.38782
0.0165037
0.0425763
0.0572469
0.0683873
0.0783172
0.087855
0.0973513
0.10693
0.116592
0.126275
0.135893
0.145361
0.154613
0.163596
0.172281
0.180654
0.188728
0.196551
0.204227
0.211948
0.220023
0.228865
0.238882
0.250095
0.26164
0.273338
0.285398
0.297829
0.310575
0.323504
0.33688
0.351944
0.367475
0.382856
0.398591
0.414962
0.431726
0.448932
0.466531
0.484517
0.502883
0.521628
0.54075
0.560253
0.580137
0.600404
0.621058
0.642103
0.66354
0.685374
0.707605
0.730238
0.753273
0.776713
0.800556
0.824804
0.849455
0.874508
0.89996
0.92581
0.95205
0.978678
1.00569
1.03307
1.06082
1.08892
1.11737
1.14616
1.17526
1.20467
1.23438
1.26436
1.29459
1.32506
1.35575
1.38664
1.41769
1.44889
1.4802
1.51161
1.54307
1.57457
1.60605
1.6375
1.66886
1.70011
1.7312
1.76208
1.79272
1.82306
1.85307
1.8827
1.91191
1.94067
1.96896
1.99674
2.02398
2.05062
2.07664
2.10198
2.12661
2.15049
2.17359
2.19587
2.21731
2.23786
2.25752
2.27625
2.29403
2.31085
2.32669
2.34156
2.35543
2.36831
2.38021
2.39112
2.40105
2.41003
2.41807
2.4252
2.43143
2.43681
2.44135
2.4451
2.4481
2.45041
2.45212
2.45326
2.45382
2.45393
2.45356
2.45257
2.451
2.44952
2.44789
2.44615
2.44434
2.44258
2.44097
2.43962
2.43846
2.43696
2.43599
2.43527
2.43475
2.4344
2.43444
2.4345
2.43421
2.43367
2.43315
2.43229
2.43091
2.42894
2.42622
2.4225
2.41754
2.41114
2.40308
2.39316
2.38117
2.36719
2.35111
2.3329
2.31229
2.28916
2.26354
2.23553
2.20529
2.17296
2.13873
2.10272
2.06516
2.02632
1.98644
1.94556
1.90387
1.86223
1.82339
1.76465
0.0247682
0.0571164
0.0746567
0.087645
0.0989264
0.109511
0.119858
0.130178
0.140546
0.150963
0.161392
0.17179
0.182117
0.192351
0.20249
0.212554
0.222587
0.232664
0.242893
0.25342
0.264422
0.276075
0.288493
0.301633
0.315278
0.329348
0.343876
0.358893
0.374422
0.390482
0.407166
0.424602
0.442569
0.460922
0.479688
0.49889
0.518502
0.538535
0.558989
0.579864
0.601161
0.622884
0.645032
0.667612
0.690624
0.714073
0.737963
0.762297
0.787079
0.812313
0.838001
0.864147
0.890752
0.917819
0.945346
0.973337
1.00179
1.0307
1.06007
1.08989
1.12016
1.15088
1.18204
1.21362
1.24563
1.27805
1.31087
1.34408
1.37766
1.41161
1.44589
1.4805
1.51541
1.55061
1.58607
1.62176
1.65766
1.69375
1.72998
1.76634
1.80278
1.83928
1.87579
1.91228
1.94871
1.98503
2.02121
2.05719
2.09293
2.12839
2.16352
2.19828
2.23261
2.26648
2.29983
2.33261
2.36478
2.39629
2.42708
2.4571
2.48632
2.51467
2.54213
2.56864
2.59416
2.61866
2.64211
2.66448
2.68574
2.70586
2.72483
2.74264
2.75927
2.77472
2.78899
2.80208
2.814
2.82477
2.83439
2.84289
2.8503
2.85665
2.86197
2.8663
2.86969
2.8722
2.8739
2.87483
2.87498
2.87438
2.87295
2.87108
2.8687
2.86604
2.8631
2.85993
2.85658
2.85314
2.8497
2.84633
2.84298
2.83965
2.83651
2.83352
2.83067
2.82795
2.82539
2.82279
2.82
2.81703
2.81384
2.81027
2.80613
2.80128
2.79552
2.78864
2.78038
2.77051
2.75881
2.74508
2.72914
2.71098
2.69052
2.66763
2.64217
2.61405
2.58333
2.55011
2.51456
2.47686
2.4372
2.39578
2.35285
2.3087
2.26362
2.21791
2.17192
2.12662
2.08355
2.02912
0.0327406
0.0704755
0.0906712
0.105423
0.118
0.129579
0.140724
0.151721
0.162714
0.173763
0.184882
0.196063
0.207297
0.218582
0.229931
0.241374
0.252959
0.264751
0.276834
0.289303
0.30226
0.315793
0.329955
0.344743
0.360111
0.376032
0.392506
0.409543
0.427153
0.445347
0.464135
0.48351
0.503424
0.523828
0.544703
0.566033
0.587809
0.610033
0.632712
0.65585
0.679452
0.703523
0.728066
0.753088
0.778593
0.804585
0.831071
0.858054
0.88554
0.913534
0.942038
0.971057
1.00059
1.03065
1.06123
1.09233
1.12396
1.15611
1.18878
1.22196
1.25566
1.28987
1.32459
1.35979
1.39549
1.43166
1.4683
1.50539
1.54291
1.58086
1.61921
1.65794
1.69704
1.73648
1.77623
1.81627
1.85658
1.89711
1.93784
1.97873
2.01975
2.06086
2.10202
2.14319
2.18433
2.22538
2.26631
2.30706
2.34759
2.38785
2.42777
2.46732
2.50643
2.54504
2.5831
2.62055
2.65733
2.69339
2.72866
2.76309
2.79662
2.8292
2.86077
2.89128
2.92069
2.94894
2.976
3.00182
3.02638
3.04965
3.07159
3.0922
3.11145
3.12934
3.14585
3.16099
3.17476
3.18717
3.19823
3.20796
3.21638
3.22354
3.22945
3.23416
3.23773
3.2402
3.24165
3.24205
3.2414
3.2397
3.23726
3.23412
3.23034
3.22605
3.22127
3.21609
3.21058
3.20483
3.19891
3.19289
3.1868
3.18066
3.17457
3.16853
3.16255
3.15662
3.15072
3.14477
3.13868
3.13238
3.1258
3.11881
3.11124
3.10291
3.09365
3.08321
3.07137
3.05791
3.04259
3.02524
3.00568
2.98384
2.9596
2.93285
2.90347
2.8714
2.8367
2.79947
2.75988
2.71812
2.67439
2.62895
2.58205
2.53402
2.48519
2.43597
2.38685
2.33879
2.29261
2.23984
0.0401976
0.082496
0.105086
0.121479
0.135284
0.147817
0.159724
0.171357
0.182914
0.194507
0.206193
0.218003
0.229954
0.242062
0.254351
0.266855
0.279618
0.292695
0.306146
0.320037
0.334432
0.349384
0.364929
0.381083
0.397841
0.415199
0.433153
0.451702
0.470846
0.490582
0.510904
0.531797
0.553243
0.57522
0.597711
0.620704
0.64419
0.668172
0.692652
0.717636
0.74313
0.769139
0.79567
0.822729
0.850322
0.878457
0.90714
0.936377
0.966175
0.996539
1.02747
1.05899
1.09108
1.12376
1.15703
1.19089
1.22534
1.26038
1.29601
1.33224
1.36905
1.40644
1.44441
1.48294
1.52204
1.56169
1.60188
1.64259
1.68382
1.72553
1.76772
1.81037
1.85344
1.89692
1.94078
1.98499
2.02952
2.07434
2.11941
2.1647
2.21016
2.25575
2.30144
2.34718
2.39291
2.43859
2.48417
2.5296
2.57481
2.61976
2.66439
2.70863
2.75241
2.79567
2.83835
2.88038
2.9217
2.96224
3.00193
3.04071
3.0785
3.11526
3.15091
3.18539
3.21865
3.25062
3.28127
3.31054
3.33839
3.36478
3.38968
3.41307
3.43491
3.4552
3.47392
3.49107
3.50664
3.52063
3.53306
3.54394
3.55328
3.56112
3.56749
3.57244
3.57601
3.57826
3.57914
3.5787
3.57695
3.57413
3.57029
3.56552
3.55989
3.5535
3.54641
3.53872
3.53051
3.52186
3.51287
3.5036
3.49412
3.48447
3.47473
3.46492
3.45508
3.44521
3.43531
3.42532
3.41519
3.40486
3.39425
3.38325
3.3717
3.35944
3.34628
3.33201
3.31643
3.29932
3.28046
3.25967
3.23678
3.21166
3.18419
3.15422
3.12166
3.08646
3.04865
3.00833
2.96567
2.92085
2.87409
2.82566
2.77583
2.72494
2.67338
2.62161
2.57018
2.52
2.47146
2.41883
0.0469526
0.0930424
0.117724
0.135584
0.150512
0.163934
0.176559
0.188787
0.20086
0.212929
0.225091
0.237406
0.249917
0.262658
0.275663
0.288968
0.302615
0.31665
0.331118
0.346068
0.361543
0.37758
0.394205
0.411436
0.42928
0.447737
0.466809
0.486492
0.506784
0.52768
0.549172
0.571251
0.593906
0.617125
0.640899
0.66522
0.690086
0.715495
0.741452
0.767962
0.795032
0.822667
0.850877
0.879669
0.909051
0.939032
0.96962
1.00082
1.03265
1.06511
1.0982
1.13194
1.16634
1.20139
1.2371
1.27348
1.31052
1.34824
1.38663
1.42568
1.46541
1.5058
1.54685
1.58855
1.6309
1.67387
1.71747
1.76168
1.80648
1.85185
1.89777
1.94423
1.99119
2.03863
2.08651
2.13482
2.18352
2.23256
2.28192
2.33154
2.3814
2.43144
2.48161
2.53187
2.58217
2.63245
2.68265
2.73271
2.78258
2.83219
2.88148
2.93037
2.9788
3.02668
3.07396
3.12055
3.16638
3.21139
3.25549
3.2986
3.34066
3.38159
3.42132
3.45978
3.49689
3.5326
3.56684
3.59956
3.63071
3.66024
3.6881
3.71426
3.7387
3.76139
3.78231
3.80144
3.81877
3.83431
3.84805
3.86001
3.87019
3.87863
3.88535
3.8904
3.89382
3.89557
3.89569
3.89422
3.89132
3.88706
3.88151
3.87477
3.86692
3.85805
3.84824
3.8376
3.82622
3.81418
3.80159
3.78854
3.77509
3.76133
3.74732
3.73313
3.71879
3.70435
3.68981
3.67517
3.66039
3.64543
3.63024
3.61471
3.59871
3.58212
3.56476
3.54646
3.52702
3.50624
3.48392
3.45987
3.43392
3.40589
3.37565
3.34303
3.30793
3.27029
3.23013
3.18753
3.14264
3.09563
3.04673
2.99619
2.94432
2.89145
2.83799
2.78443
2.73135
2.67956
2.62921
2.5761
0.0528708
0.10203
0.128475
0.147595
0.163508
0.177728
0.19101
0.203787
0.216332
0.228827
0.241397
0.254128
0.267083
0.280313
0.293861
0.307766
0.322069
0.336809
0.352024
0.367752
0.384023
0.400867
0.418303
0.436347
0.455007
0.47429
0.494196
0.514725
0.535876
0.557646
0.58003
0.603024
0.626622
0.650818
0.675609
0.700993
0.726968
0.753538
0.780707
0.808482
0.836869
0.865879
0.895519
0.9258
0.956731
0.988325
1.02059
1.05354
1.08718
1.12152
1.15657
1.19234
1.22885
1.26608
1.30407
1.3428
1.38228
1.42253
1.46353
1.50529
1.5478
1.59107
1.6351
1.67986
1.72536
1.77158
1.81852
1.86615
1.91445
1.96342
2.01303
2.06325
2.11405
2.16541
2.2173
2.26967
2.3225
2.37575
2.42937
2.48331
2.53754
2.592
2.64664
2.7014
2.75623
2.81108
2.86587
2.92054
2.97503
3.02926
3.08317
3.13668
3.18971
3.24217
3.294
3.34512
3.39543
3.44486
3.49333
3.54075
3.58704
3.63212
3.6759
3.7183
3.75925
3.79867
3.8365
3.87265
3.90708
3.93972
3.97052
3.99945
4.02646
4.05151
4.07459
4.09567
4.11474
4.13177
4.14678
4.15975
4.1707
4.17965
4.18662
4.19166
4.19475
4.19586
4.19509
4.19252
4.18822
4.18228
4.17477
4.16578
4.15541
4.14375
4.13089
4.11693
4.10198
4.08614
4.06952
4.05222
4.03433
4.01595
3.99716
3.97805
3.95868
3.93912
3.91941
3.89957
3.8796
3.85951
3.83924
3.81874
3.79792
3.77668
3.75488
3.73237
3.70898
3.68454
3.65885
3.63172
3.60295
3.57236
3.53978
3.50503
3.46798
3.42854
3.38673
3.34259
3.29624
3.24784
3.1976
3.14577
3.09264
3.03857
2.98395
2.92929
2.87514
2.82223
2.77053
2.71679
0.0578648
0.109431
0.137305
0.157467
0.174211
0.189123
0.202985
0.216255
0.229228
0.242105
0.25503
0.26811
0.281422
0.295031
0.308987
0.323334
0.338113
0.353359
0.369106
0.385385
0.402221
0.419636
0.43765
0.456274
0.47552
0.495393
0.515898
0.537038
0.558813
0.581224
0.604271
0.627954
0.65227
0.67722
0.702805
0.729026
0.755887
0.783394
0.811553
0.840374
0.869864
0.900037
0.930902
0.962471
0.994758
1.02777
1.06153
1.09605
1.13133
1.16739
1.20425
1.24191
1.28038
1.31968
1.3598
1.40077
1.44259
1.48526
1.52878
1.57315
1.61838
1.66447
1.7114
1.75917
1.80777
1.8572
1.90743
1.95845
2.01024
2.06278
2.11604
2.17001
2.22464
2.2799
2.33577
2.3922
2.44914
2.50657
2.56443
2.62267
2.68124
2.74008
2.79915
2.85837
2.9177
2.97705
3.03637
3.09558
3.15462
3.2134
3.27185
3.32989
3.38743
3.44439
3.50068
3.55621
3.61091
3.66467
3.71741
3.76904
3.81946
3.86858
3.91632
3.96258
4.00728
4.05033
4.09165
4.13116
4.16879
4.20447
4.23815
4.26977
4.29928
4.32665
4.35182
4.37479
4.39552
4.41399
4.43018
4.4441
4.45574
4.46511
4.47223
4.47715
4.47978
4.4802
4.47844
4.47461
4.46874
4.46094
4.45127
4.43984
4.42672
4.41202
4.39584
4.37828
4.35946
4.3395
4.31851
4.2966
4.27389
4.25048
4.22649
4.20203
4.17718
4.15205
4.12671
4.10121
4.07561
4.04993
4.02419
3.99835
3.97239
3.94623
3.91978
3.89292
3.86552
3.83742
3.80844
3.77838
3.74703
3.7142
3.67968
3.64327
3.6048
3.56418
3.52136
3.47636
3.42928
3.38024
3.32943
3.27707
3.22345
3.1689
3.11382
3.05869
3.00403
2.95047
2.89789
2.84366
0.0618933
0.115271
0.144259
0.165246
0.182665
0.198151
0.212507
0.226206
0.239554
0.252766
0.265998
0.279368
0.292966
0.306865
0.321122
0.335783
0.350891
0.366482
0.382586
0.399229
0.416437
0.434228
0.452619
0.471624
0.491255
0.511518
0.532423
0.553973
0.576175
0.599031
0.622546
0.646724
0.671568
0.697081
0.72327
0.75014
0.777699
0.805956
0.834922
0.864608
0.895026
0.92619
0.958113
0.990812
1.0243
1.05859
1.09371
1.12966
1.16646
1.20412
1.24267
1.28211
1.32246
1.36373
1.40593
1.44906
1.49314
1.53818
1.58417
1.63112
1.67903
1.7279
1.77772
1.82848
1.88017
1.93279
1.98631
2.04071
2.09598
2.15209
2.20901
2.26671
2.32516
2.38432
2.44415
2.50461
2.56565
2.62723
2.68928
2.75177
2.81463
2.8778
2.94122
3.00482
3.06854
3.1323
3.19604
3.25967
3.32311
3.3863
3.44914
3.51155
3.57344
3.63471
3.69528
3.75505
3.81394
3.87184
3.92866
3.9843
4.03866
4.09164
4.14315
4.19309
4.24136
4.28786
4.33251
4.37522
4.41591
4.45449
4.49091
4.52509
4.55698
4.58652
4.61369
4.63843
4.66071
4.68051
4.69781
4.71257
4.72481
4.73451
4.74169
4.74635
4.74847
4.74811
4.74528
4.74006
4.7325
4.72271
4.71074
4.6967
4.68067
4.66276
4.64308
4.62173
4.59883
4.57451
4.5489
4.52212
4.4943
4.46557
4.43606
4.40591
4.37525
4.34419
4.31285
4.28134
4.24974
4.21814
4.18659
4.15512
4.12374
4.09244
4.06117
4.02985
3.99837
3.96661
3.9344
3.90155
3.86784
3.83306
3.79696
3.75933
3.71995
3.6787
3.63548
3.59029
3.54316
3.4942
3.44355
3.3914
3.33802
3.28371
3.22884
3.17386
3.11924
3.06555
3.01258
2.95817
0.0649598
0.119628
0.14944
0.171052
0.188992
0.204932
0.219688
0.23374
0.247402
0.260893
0.274378
0.287981
0.3018
0.31591
0.330375
0.345244
0.360561
0.376361
0.392676
0.409532
0.426951
0.444952
0.463555
0.482772
0.502617
0.523102
0.544237
0.566031
0.588493
0.61163
0.63545
0.659963
0.685175
0.711095
0.737731
0.765097
0.793203
0.822063
0.851692
0.882104
0.913315
0.945343
0.978204
1.01192
1.0465
1.08197
1.11835
1.15565
1.19389
1.2331
1.27328
1.31445
1.35664
1.39984
1.44408
1.48937
1.53571
1.58311
1.63158
1.68111
1.73171
1.78337
1.83609
1.88986
1.94467
2.00049
2.05732
2.11513
2.17389
2.23358
2.29416
2.3556
2.41786
2.48089
2.54466
2.60912
2.67421
2.73987
2.80606
2.87271
2.93975
3.00713
3.07477
3.14261
3.21056
3.27856
3.34652
3.41436
3.482
3.54936
3.61634
3.68286
3.74882
3.81413
3.87869
3.94241
4.00519
4.06692
4.12751
4.18685
4.24485
4.30139
4.35637
4.40969
4.46124
4.51092
4.55864
4.60429
4.64778
4.68903
4.72796
4.76449
4.79855
4.8301
4.85907
4.88542
4.90911
4.93009
4.94835
4.96384
4.97655
4.98647
4.99359
4.99793
4.99947
4.99825
4.99424
4.98752
4.97819
4.9663
4.95195
4.9352
4.91617
4.89494
4.87164
4.84637
4.81926
4.79044
4.76005
4.72822
4.69511
4.66086
4.62562
4.58956
4.55284
4.51561
4.47802
4.44024
4.40239
4.36461
4.32701
4.28967
4.25268
4.21605
4.17981
4.14392
4.10831
4.07289
4.03751
4.00199
3.96612
3.92964
3.89231
3.85386
3.81404
3.77268
3.72965
3.68489
3.63838
3.59019
3.54041
3.4892
3.43676
3.38339
3.3294
3.2752
3.22122
3.16793
3.11509
3.06092
0.0671007
0.122619
0.152994
0.175046
0.193362
0.209637
0.224694
0.239016
0.25292
0.266628
0.280305
0.294079
0.308051
0.3223
0.336891
0.351877
0.367302
0.383202
0.399609
0.416549
0.434047
0.452124
0.4708
0.49009
0.510012
0.530581
0.551809
0.573711
0.5963
0.619587
0.643586
0.668308
0.693768
0.719976
0.746948
0.774699
0.803247
0.832609
0.862806
0.893857
0.925781
0.958601
0.992336
1.02701
1.06264
1.09925
1.13686
1.1755
1.21518
1.25592
1.29775
1.34068
1.38472
1.4299
1.47622
1.5237
1.57235
1.62218
1.67318
1.72536
1.77871
1.83324
1.88893
1.94577
2.00374
2.06283
2.12302
2.18426
2.24655
2.30983
2.37408
2.43925
2.5053
2.57218
2.63984
2.70822
2.77726
2.84691
2.9171
2.98776
3.05882
3.13022
3.20187
3.2737
3.34564
3.41759
3.48948
3.56122
3.63272
3.70389
3.77465
3.8449
3.91454
3.98347
4.05161
4.11884
4.18507
4.25019
4.31411
4.37671
4.4379
4.49755
4.55557
4.61185
4.66627
4.71872
4.76911
4.81733
4.86327
4.90685
4.94796
4.98654
5.0225
5.05577
5.0863
5.11403
5.1389
5.16088
5.17991
5.19595
5.20899
5.21899
5.22594
5.22985
5.2307
5.22855
5.22325
5.21497
5.20379
5.18975
5.17294
5.15343
5.13133
5.10674
5.07976
5.05051
5.01913
4.98574
4.9505
4.91355
4.87506
4.83519
4.79412
4.75204
4.70914
4.6656
4.62163
4.57742
4.53317
4.48905
4.44524
4.40189
4.35914
4.31707
4.27576
4.23522
4.19545
4.15638
4.1179
4.07983
4.04197
4.00406
3.9658
3.92692
3.88711
3.84615
3.80386
3.76013
3.71489
3.66814
3.61993
3.57036
3.51958
3.46784
3.41541
3.36264
3.30988
3.25756
3.20542
3.152
0.0684218
0.12441
0.155097
0.177418
0.195974
0.212467
0.227724
0.242229
0.256297
0.270149
0.283952
0.297833
0.311893
0.326211
0.340853
0.355872
0.371314
0.387218
0.403616
0.420538
0.43801
0.456055
0.474697
0.493956
0.513852
0.534403
0.555629
0.577547
0.600176
0.623532
0.647632
0.672493
0.698132
0.724564
0.751809
0.77989
0.808833
0.838662
0.8694
0.901073
0.933704
0.96732
1.00194
1.0376
1.07432
1.11212
1.15103
1.19108
1.23228
1.27465
1.31823
1.36302
1.40904
1.45632
1.50486
1.55467
1.60577
1.65815
1.71182
1.76679
1.82303
1.88054
1.93932
1.99934
2.06058
2.12301
2.18662
2.25136
2.31719
2.38409
2.45199
2.52086
2.59065
2.66129
2.73272
2.80489
2.87773
2.95117
3.02514
3.09956
3.17437
3.24948
3.32481
3.40028
3.47581
3.55131
3.62669
3.70187
3.77675
3.85124
3.92525
3.99868
4.07144
4.14343
4.21455
4.2847
4.35378
4.4217
4.48833
4.55359
4.61736
4.67954
4.74001
4.79867
4.8554
4.91009
4.96263
5.01291
5.06083
5.10627
5.14915
5.18937
5.22684
5.26149
5.29324
5.32204
5.34782
5.37052
5.39009
5.40648
5.41965
5.42956
5.4362
5.43955
5.43961
5.43639
5.42972
5.41981
5.40671
5.39048
5.37117
5.34888
5.3237
5.29572
5.26506
5.23184
5.19619
5.15825
5.11817
5.07611
5.03225
4.98677
4.93986
4.89175
4.84265
4.79279
4.7424
4.69174
4.64103
4.59052
4.54045
4.49102
4.44244
4.39488
4.34845
4.30325
4.25932
4.21664
4.17514
4.13467
4.09501
4.05591
4.01705
3.97811
3.93875
3.89868
3.85768
3.81557
3.77222
3.72759
3.68163
3.6344
3.586
3.5366
3.48641
3.43571
3.38481
3.33407
3.28322
3.23112
0.0688623
0.124995
0.155873
0.178344
0.197026
0.213633
0.228996
0.243596
0.257748
0.271671
0.285527
0.299442
0.313517
0.327831
0.34245
0.35743
0.372816
0.388648
0.404963
0.421792
0.439164
0.457109
0.475651
0.494817
0.51463
0.535116
0.556297
0.578199
0.600842
0.62425
0.648443
0.673443
0.699269
0.725941
0.75347
0.781907
0.811287
0.841639
0.872991
0.905375
0.938818
0.97335
1.009
1.04579
1.08376
1.12293
1.16333
1.20499
1.24792
1.29216
1.33771
1.38461
1.43286
1.48249
1.53349
1.58589
1.63968
1.69486
1.75144
1.80939
1.86873
1.92942
1.99145
2.05479
2.11941
2.18529
2.25238
2.32065
2.39005
2.46052
2.53202
2.60449
2.67787
2.75209
2.82709
2.9028
2.97914
3.05604
3.13343
3.21122
3.28933
3.36768
3.44618
3.52476
3.60331
3.68176
3.76001
3.83796
3.91554
3.99265
4.06919
4.14507
4.2202
4.29448
4.36781
4.4401
4.51125
4.58116
4.64973
4.71686
4.78244
4.84637
4.90855
4.96885
5.02717
5.0834
5.13743
5.18915
5.23843
5.28517
5.32927
5.37061
5.40912
5.4447
5.47727
5.50675
5.53309
5.5562
5.57602
5.59249
5.60555
5.61516
5.62129
5.6239
5.62308
5.61864
5.61052
5.59891
5.58384
5.56537
5.54356
5.51849
5.49024
5.45891
5.42462
5.38748
5.34763
5.3052
5.26037
5.21329
5.16414
5.11314
5.0605
5.00645
4.95125
4.89515
4.83842
4.78138
4.72428
4.66744
4.61115
4.55567
4.50117
4.44792
4.39619
4.34617
4.29797
4.25165
4.20717
4.16441
4.1232
4.08325
4.04423
4.00576
3.96744
3.92893
3.88995
3.85027
3.80965
3.76782
3.72481
3.68063
3.6353
3.58895
3.54171
3.49377
3.44538
3.39685
3.34792
3.29775
0.0687146
0.124752
0.155602
0.17807
0.196754
0.213365
0.22873
0.24333
0.257474
0.271382
0.285216
0.2991
0.313132
0.327391
0.341943
0.356844
0.372141
0.387875
0.404084
0.420804
0.438068
0.455908
0.474354
0.493436
0.513184
0.533625
0.55479
0.576706
0.599406
0.622919
0.647269
0.672485
0.698594
0.725631
0.753592
0.782554
0.812556
0.843637
0.875833
0.909184
0.943718
0.979466
1.01646
1.05473
1.0943
1.13521
1.17749
1.22116
1.26625
1.31276
1.36073
1.41016
1.46106
1.51345
1.56733
1.6227
1.67956
1.73789
1.7977
1.85895
1.92164
1.98574
2.05121
2.11802
2.18614
2.25551
2.3261
2.39786
2.47072
2.54462
2.61952
2.69534
2.77201
2.84946
2.92762
3.00641
3.08575
3.16556
3.24577
3.32628
3.40701
3.48787
3.56879
3.64967
3.73042
3.81095
3.89118
3.97102
4.05036
4.12914
4.20724
4.2846
4.3611
4.43668
4.51122
4.58464
4.65686
4.72777
4.79729
4.86532
4.93176
4.9965
5.05945
5.12049
5.17954
5.23647
5.29118
5.34355
5.39347
5.44081
5.48547
5.52734
5.56631
5.60229
5.63518
5.66491
5.69139
5.71453
5.73426
5.7505
5.76318
5.77225
5.77764
5.77931
5.77749
5.77166
5.762
5.74862
5.73154
5.71082
5.6865
5.65866
5.62739
5.59278
5.55494
5.51398
5.47005
5.42328
5.37383
5.32189
5.26763
5.21128
5.15308
5.09328
5.03218
4.97003
4.90706
4.84359
4.78003
4.71674
4.6541
4.59248
4.53228
4.4739
4.41746
4.36316
4.31121
4.2617
4.21466
4.16999
4.12753
4.08703
4.04812
4.01039
3.97338
3.9367
3.90003
3.86305
3.8255
3.78727
3.74811
3.7079
3.66659
3.62407
3.58049
3.53601
3.4908
3.44514
3.39878
3.35117
0.0681875
0.123957
0.154549
0.176872
0.195438
0.211942
0.227208
0.241712
0.255763
0.269576
0.283311
0.29709
0.31101
0.32515
0.339576
0.354345
0.369506
0.385103
0.401179
0.417774
0.434926
0.452674
0.471057
0.490112
0.50988
0.530394
0.551693
0.57382
0.596816
0.620731
0.645568
0.671362
0.698148
0.725954
0.754782
0.784735
0.81587
0.848232
0.881858
0.916781
0.953035
0.990653
1.02967
1.07011
1.11201
1.15541
1.20035
1.24682
1.29484
1.34443
1.39558
1.4483
1.50259
1.55845
1.61588
1.67485
1.73536
1.79738
1.86089
1.92585
1.99224
2.06001
2.12912
2.19953
2.27119
2.34403
2.41801
2.49306
2.56911
2.64611
2.72398
2.80265
2.88205
2.96209
3.0427
3.12381
3.20532
3.28717
3.36925
3.4515
3.53382
3.61613
3.69835
3.78038
3.86216
3.94358
4.02457
4.10504
4.1849
4.26408
4.34248
4.42002
4.49663
4.57222
4.64671
4.72
4.79203
4.86271
4.93196
4.99969
5.0658
5.13021
5.19281
5.25351
5.31223
5.36885
5.42327
5.47538
5.52505
5.57217
5.61662
5.65828
5.69704
5.73279
5.76543
5.79487
5.821
5.84372
5.86295
5.87857
5.89053
5.89873
5.90312
5.90364
5.90054
5.89315
5.88181
5.86653
5.84735
5.82429
5.79743
5.76681
5.73252
5.69466
5.65331
5.60861
5.56068
5.50966
5.45562
5.39879
5.3394
5.27768
5.21389
5.14832
5.08127
5.01306
4.9442
4.87499
4.8057
4.73677
4.6686
4.60164
4.53643
4.47298
4.41182
4.35327
4.29761
4.24502
4.19556
4.14921
4.10582
4.06516
4.02685
3.99042
3.95537
3.92123
3.88761
3.85415
3.82045
3.78638
3.75139
3.71546
3.67854
3.6406
3.60159
3.56146
3.52026
3.47816
3.43502
3.39062
0.0670164
0.122171
0.152391
0.174452
0.192794
0.209095
0.224172
0.238502
0.252393
0.266061
0.279663
0.293319
0.307126
0.321164
0.335502
0.3502
0.365313
0.380892
0.396985
0.413642
0.430906
0.448824
0.467446
0.486825
0.507027
0.528067
0.549988
0.572841
0.596663
0.621471
0.647293
0.674213
0.702295
0.731605
0.762199
0.794128
0.827437
0.862173
0.898372
0.936066
0.975286
1.01606
1.0584
1.10235
1.14791
1.19509
1.24392
1.29439
1.34648
1.4002
1.45554
1.51247
1.57099
1.63106
1.69267
1.75577
1.82034
1.88634
1.95372
2.02244
2.09245
2.1637
2.23613
2.30969
2.38432
2.45996
2.53654
2.614
2.69227
2.77128
2.85096
2.93124
3.01204
3.09329
3.17491
3.25683
3.33896
3.42124
3.50358
3.5859
3.66813
3.75018
3.83198
3.91346
3.99452
4.07511
4.15514
4.23453
4.31321
4.3911
4.46813
4.54423
4.61933
4.69334
4.7662
4.83784
4.90818
4.97717
5.04473
5.11077
5.17522
5.23799
5.29898
5.35813