/*--------------------------------*- C++ -*----------------------------------*\
  =========                 |
  \\      /  F ield         | OpenFOAM: The Open Source CFD Toolbox
   \\    /   O peration     | Website:  https://openfoam.org
    \\  /    A nd           | Version:  9
     \\/     M anipulation  |
\*---------------------------------------------------------------------------*/
FoamFile
{
    format      ascii;
    class       volScalarField;
    location    "185";
    object      nut;
}
// * * * * * * * * * * * * * * * * * * * * * * * * * * * * * * * * * * * * * //

dimensions      [0 2 -1 0 0 0 0];

internalField   nonuniform List<scalar> 
12225
(
4.14965e-05
3.93425e-05
3.74829e-05
3.54337e-05
3.37831e-05
3.24222e-05
3.1508e-05
3.09119e-05
3.09177e-05
3.10976e-05
3.1569e-05
3.21129e-05
3.31508e-05
3.38077e-05
3.51087e-05
3.5681e-05
3.76085e-05
3.56793e-05
0.000332342
0.000215212
0.000179285
0.000157674
0.000146212
0.000138207
0.000132715
0.000131683
0.000129477
0.000130096
0.000129019
0.000129468
0.000128639
0.000128582
0.000128055
0.000127455
0.000127433
0.000126491
0.000674987
0.000450824
0.000355785
0.00030983
0.000275287
0.000251096
0.000231698
0.000217281
0.000202638
0.000192145
0.000182581
0.000175214
0.000169346
0.000163661
0.000160275
0.000155517
0.000153774
0.000149796
0.000833628
0.000684899
0.00057199
0.000499968
0.000449451
0.000411963
0.00038075
0.000356015
0.000333973
0.000314787
0.000298287
0.00028171
0.000270267
0.000256032
0.000248151
0.000236095
0.00023031
0.000220356
0.000861259
0.000802525
0.000742126
0.000676586
0.000623987
0.000581385
0.000545845
0.000514564
0.000489492
0.000464427
0.000445829
0.000424051
0.000409899
0.00039076
0.000379822
0.000363021
0.000354371
0.000339392
0.00085498
0.000840348
0.000822203
0.000786499
0.000750852
0.000715907
0.000685746
0.000656131
0.000632532
0.000607507
0.000588976
0.000567222
0.00055225
0.000533053
0.000520722
0.000503656
0.000493205
0.000477373
0.000852908
0.000850686
0.000844239
0.000832829
0.000817407
0.000797003
0.00077788
0.000756734
0.000738891
0.000719135
0.000703519
0.000685599
0.000672096
0.000655886
0.000644258
0.00062947
0.000619429
0.000605061
0.000851922
0.000851814
0.000850172
0.000847396
0.000841451
0.000833727
0.000824894
0.000813413
0.000802803
0.000790463
0.000779706
0.000767525
0.000757406
0.000745757
0.000736505
0.000725486
0.000717096
0.000705975
0.00085175
0.000851542
0.000851034
0.000850339
0.00084888
0.000846167
0.000843034
0.000838303
0.0008334
0.000827357
0.000821211
0.000814764
0.000808398
0.000801511
0.00079522
0.000788391
0.000782136
0.000775215
0.000851769
0.00085139
0.000851046
0.000850633
0.000850248
0.000849368
0.000848405
0.00084678
0.000844955
0.000842528
0.000839921
0.000836795
0.000833788
0.000830144
0.000826959
0.000822912
0.000819882
0.000815276
0.000851787
0.000851359
0.000851012
0.000850613
0.000850329
0.000849905
0.000849526
0.000848928
0.000848303
0.000847392
0.000846464
0.000845175
0.000843987
0.000842348
0.000840991
0.000839025
0.000837631
0.000835351
0.000851789
0.000851359
0.000850996
0.000850605
0.000850292
0.000849938
0.000849646
0.00084928
0.000848955
0.000848504
0.000848098
0.000847507
0.000846996
0.000846242
0.000845639
0.000844717
0.000844054
0.000842971
0.000851786
0.000851363
0.000850986
0.000850604
0.000850269
0.000849926
0.00084963
0.000849313
0.000849042
0.000848728
0.000848462
0.000848125
0.000847843
0.000847465
0.000847155
0.000846724
0.000846385
0.0008459
0.000851783
0.000851364
0.000850978
0.000850602
0.000850256
0.000849916
0.000849607
0.0008493
0.000849022
0.00084874
0.000848488
0.000848224
0.000847988
0.000847734
0.000847508
0.000847257
0.000847033
0.000846783
0.000851781
0.000851364
0.000850973
0.000850598
0.000850246
0.000849909
0.000849592
0.000849286
0.000849
0.000848723
0.000848463
0.000848211
0.000847975
0.000847745
0.000847528
0.000847316
0.000847115
0.000846919
0.00085178
0.000851363
0.000850969
0.000850594
0.000850239
0.000849901
0.00084958
0.000849275
0.000848984
0.000848707
0.000848443
0.000848191
0.000847951
0.000847721
0.000847503
0.000847293
0.000847093
0.000846902
0.000851779
0.000851362
0.000850967
0.000850591
0.000850234
0.000849895
0.000849572
0.000849265
0.000848973
0.000848694
0.000848429
0.000848175
0.000847933
0.000847702
0.000847481
0.00084727
0.000847068
0.000846875
0.000851779
0.000851362
0.000850965
0.000850588
0.000850231
0.00084989
0.000849567
0.000849259
0.000848965
0.000848685
0.000848418
0.000848164
0.00084792
0.000847688
0.000847465
0.000847253
0.000847049
0.000846855
0.000851779
0.000851362
0.000850965
0.000850588
0.00085023
0.000849889
0.000849565
0.000849256
0.000848962
0.000848682
0.000848414
0.000848158
0.000847914
0.000847681
0.000847457
0.000847244
0.00084704
0.000846844
0.000851779
0.000851362
0.000850966
0.000850589
0.000850231
0.000849891
0.000849568
0.000849259
0.000848965
0.000848685
0.000848417
0.000848162
0.000847917
0.000847684
0.00084746
0.000847247
0.000847041
0.000846845
0.000851779
0.000851363
0.000850967
0.000850592
0.000850235
0.000849897
0.000849573
0.000849267
0.000848973
0.000848694
0.000848424
0.000848169
0.00084792
0.000847684
0.000847451
0.000847232
0.000847013
0.000846807
0.000851778
0.000851366
0.000850968
0.000850599
0.00085024
0.000849907
0.00084958
0.000849274
0.000848965
0.000848671
0.000848365
0.000848072
0.000847757
0.000847456
0.000847123
0.000846812
0.000846458
0.000846136
0.000851777
0.000851374
0.000850972
0.000850615
0.000850241
0.00084989
0.000849478
0.000849054
0.00084853
0.000847978
0.000847301
0.000846605
0.000845767
0.00084494
0.000843955
0.00084303
0.000841918
0.00084094
0.000851802
0.00085141
0.00085097
0.000850549
0.000849861
0.000848967
0.000847607
0.00084598
0.000843904
0.000841636
0.000838955
0.000836215
0.000833117
0.000830114
0.000826764
0.000823681
0.000820185
0.000817179
0.000852138
0.000851403
0.000850234
0.000848253
0.000844472
0.000839356
0.000832712
0.000825764
0.000817914
0.000810002
0.000801617
0.000793628
0.000785333
0.000777708
0.000769745
0.000762702
0.000755126
0.000748797
0.000854142
0.000847718
0.000840126
0.000827123
0.000808708
0.000789647
0.000769973
0.000751418
0.000733305
0.000716896
0.000700935
0.000686782
0.000672832
0.000660673
0.000648381
0.000637944
0.000626957
0.000618024
0.00085497
0.000818336
0.00077623
0.000726635
0.000684939
0.000649858
0.000618461
0.000592023
0.000568383
0.000548313
0.00052969
0.000513995
0.000498752
0.00048602
0.000473206
0.000462712
0.000451627
0.00044281
0.000807487
0.00066688
0.000570552
0.000509855
0.000465649
0.000431195
0.000404134
0.000382502
0.000364195
0.000349068
0.000335942
0.00032508
0.000314482
0.00030625
0.000297965
0.000291371
0.000284285
0.000278936
0.000501854
0.000348405
0.00029269
0.000259174
0.000236323
0.000221177
0.000211544
0.000204016
0.00019848
0.00019506
0.000192218
0.000190368
0.000188582
0.00018744
0.000186165
0.000185474
0.000184554
0.000184143
7.27285e-05
7.02231e-05
6.79539e-05
6.56136e-05
6.33827e-05
6.12765e-05
5.94929e-05
5.79572e-05
5.67102e-05
5.57028e-05
5.49773e-05
5.44181e-05
5.41082e-05
5.38866e-05
5.38762e-05
5.39612e-05
5.40707e-05
5.43211e-05
6.66409e-07
1.38515e-05
2.41415e-05
3.39702e-05
4.42694e-05
5.50505e-05
6.63455e-05
7.80157e-05
8.98777e-05
0.000101659
0.000113148
0.0001241
0.000134345
0.000143667
0.000151889
0.000158767
0.000164078
0.000167571
0.000169112
0.00016849
0.000166101
0.000162199
0.000160201
0.000165323
0.000172084
0.000179884
0.00018769
0.00019774
0.000208228
0.000214199
4.78139e-05
0.000246477
0.000243399
0.00021178
4.72749e-05
4.84999e-05
4.95436e-05
5.08103e-05
5.18999e-05
5.30775e-05
5.42069e-05
5.5352e-05
5.64841e-05
5.76168e-05
5.87429e-05
5.98679e-05
6.09873e-05
6.21059e-05
6.32191e-05
6.43321e-05
6.54397e-05
6.65473e-05
6.76496e-05
6.87517e-05
6.98485e-05
7.09451e-05
7.2036e-05
7.31262e-05
7.42105e-05
7.52937e-05
7.63703e-05
7.7445e-05
7.85125e-05
7.95775e-05
8.06345e-05
8.1688e-05
8.27326e-05
8.37726e-05
8.48026e-05
8.5827e-05
8.68403e-05
8.78467e-05
8.8841e-05
8.9827e-05
9.07997e-05
9.17626e-05
9.27108e-05
9.36476e-05
9.45684e-05
9.54764e-05
9.6367e-05
9.72428e-05
9.80998e-05
9.89402e-05
9.97598e-05
0.00010056
0.000101338
0.000102093
0.000102823
0.000103528
0.000104206
0.000104858
0.000105489
0.000106096
0.000106677
0.000107233
0.000107764
0.000108269
0.000108746
0.000109197
0.00010962
0.000110016
0.000110382
0.000110721
0.00011103
0.00011131
0.000111562
0.000111784
0.000111976
0.00011214
0.000112274
0.000112379
0.000112455
0.000112503
0.000112523
0.000112515
0.000112479
0.000112416
0.000112327
0.000112212
0.000112071
0.000111902
0.000111701
0.000111461
0.000111245
0.000110927
0.000110819
0.000110523
0.000110385
0.000110109
0.000109914
0.000109549
0.000109186
0.000108816
0.000108419
0.000108009
0.00010757
0.000107119
0.000106645
0.000106293
0.000105976
0.000105693
0.000105291
0.000104961
0.000104842
0.000104359
0.000104262
0.000103856
0.000103578
0.000103338
0.00010316
0.000102915
0.000102638
0.000102377
0.000102139
0.000101881
0.000101612
0.00010133
0.000101055
0.000100699
0.000100329
0.000100022
9.88181e-05
9.845e-05
9.83649e-05
9.82694e-05
9.81206e-05
9.79231e-05
9.76602e-05
9.73364e-05
9.69695e-05
9.65311e-05
9.60148e-05
9.5428e-05
9.47978e-05
9.40874e-05
9.32925e-05
9.23913e-05
9.1494e-05
8.85819e-05
2.63401e-06
4.37996e-05
9.06981e-05
0.00012316
0.000145466
0.000162854
0.000178046
0.000192352
0.000206267
0.00021985
0.000232958
0.000245351
0.000256759
0.000266885
0.000275419
0.000282043
0.00028649
0.000288619
0.000288584
0.000285576
0.000280437
0.00027452
0.000269677
0.000276878
0.000280902
0.000283106
0.000294334
0.000290971
0.000293767
0.000286364
0.000278847
0.000331816
0.000319124
0.000295321
0.000274632
0.000282517
0.000289912
0.000297387
0.000305183
0.000313023
0.000320997
0.00032906
0.000337205
0.000345425
0.000353714
0.000362072
0.000370498
0.000378993
0.000387559
0.000396199
0.000404915
0.000413712
0.00042259
0.000431555
0.000440606
0.00044975
0.000458985
0.000468316
0.000477743
0.000487268
0.000496891
0.000506613
0.000516432
0.000526351
0.000536366
0.000546478
0.000556682
0.000566978
0.00057736
0.000587828
0.000598375
0.000608999
0.000619693
0.000630455
0.000641274
0.000652148
0.000663067
0.000674025
0.000685014
0.000696027
0.000707054
0.000718087
0.000729117
0.000740135
0.00075113
0.000762091
0.000773003
0.000783851
0.000794608
0.000805238
0.000815666
0.000825763
0.000835296
0.000844168
0.000852941
0.000861519
0.000869917
0.000878119
0.000886117
0.000893899
0.000901453
0.00090877
0.00091584
0.000922653
0.000929202
0.000935478
0.000941475
0.000947187
0.000952608
0.000957735
0.000962563
0.000967091
0.000971317
0.000975241
0.000978863
0.000982185
0.00098521
0.000987942
0.000990391
0.000992572
0.000994504
0.000996214
0.000997734
0.000999089
0.00100018
0.0010006
0.00100154
0.0010019
0.00100208
0.00100272
0.00100295
0.00100276
0.00100222
0.00100158
0.00100081
0.000999859
0.000998788
0.000997921
0.000997303
0.000996791
0.000996381
0.000995848
0.000995487
0.000995487
0.000995899
0.000995822
0.000996885
0.000997512
0.000998267
0.000999001
0.00100034
0.00100193
0.00100293
0.00100383
0.00100506
0.00100621
0.00100718
0.0010079
0.00100845
0.00100862
0.0010081
0.00100796
0.00100397
0.000997156
0.000989113
0.000980144
0.000970337
0.000959763
0.000948486
0.000936466
0.0009239
0.000910533
0.00089668
0.000882331
0.000867686
0.000852528
0.000836497
0.000820366
0.000803417
0.000756343
5.10485e-06
6.7244e-05
0.000137499
0.000191291
0.0002308
0.0002602
0.000283195
0.000302365
0.000319298
0.000334836
0.000349331
0.00036283
0.000375205
0.00038623
0.00039563
0.000403127
0.000408503
0.00041167
0.000412738
0.00041322
0.000414262
0.000417464
0.000425366
0.000436452
0.000448957
0.000462428
0.000476487
0.000487479
0.000498087
0.00050833
0.000520507
0.000537656
0.000543262
0.000546986
0.000554869
0.000569806
0.000585409
0.0006012
0.000617175
0.000633284
0.00064954
0.000665926
0.000682437
0.000699071
0.000715828
0.000732708
0.000749716
0.000766854
0.000784129
0.000801546
0.00081911
0.000836826
0.000854699
0.000872732
0.000890929
0.000909294
0.000927828
0.000946533
0.000965409
0.000984458
0.00100368
0.00102307
0.00104263
0.00106235
0.00108224
0.00110228
0.00112247
0.00114281
0.00116329
0.0011839
0.00120463
0.00122547
0.00124641
0.00126745
0.00128856
0.00130974
0.00133098
0.00135225
0.00137355
0.00139485
0.00141614
0.00143741
0.00145863
0.00147979
0.00150085
0.0015218
0.0015426
0.00156321
0.00158358
0.00160366
0.00162335
0.00164256
0.00166121
0.00167939
0.00169726
0.00171477
0.00173192
0.00174866
0.00176499
0.00178088
0.00179631
0.00181125
0.00182568
0.0018396
0.00185297
0.00186578
0.00187802
0.00188967
0.00190073
0.00191118
0.00192101
0.00193022
0.00193881
0.00194677
0.0019541
0.00196081
0.0019669
0.00197238
0.00197726
0.00198157
0.00198533
0.00198859
0.00199135
0.00199361
0.00199529
0.00199631
0.00199725
0.00199762
0.00199763
0.00199766
0.0019971
0.00199591
0.00199382
0.00199197
0.00199
0.00198795
0.00198579
0.0019837
0.00198176
0.00198005
0.00197853
0.00197625
0.0019747
0.00197355
0.00197269
0.00197161
0.0019715
0.00197186
0.00197217
0.00197191
0.00197248
0.00197329
0.0019738
0.00197423
0.00197466
0.00197487
0.00197472
0.00197409
0.00197291
0.00197099
0.00196796
0.00196434
0.00195739
0.00194696
0.00193428
0.00191988
0.00190397
0.00188666
0.00186806
0.00184814
0.00182709
0.00180486
0.00178167
0.00175759
0.00173316
0.00170771
0.00168088
0.00165334
0.0016229
0.00155489
7.66608e-06
8.5081e-05
0.000172927
0.000242313
0.000294698
0.000334302
0.000365047
0.000389897
0.000410915
0.000429425
0.000446198
0.000461619
0.000475822
0.000488795
0.000500456
0.000510723
0.000519586
0.000527209
0.00053403
0.000540901
0.000548823
0.000558824
0.00057147
0.000587657
0.000606147
0.000626033
0.000646316
0.000666419
0.000686926
0.000705718
0.000724323
0.000743778
0.00076184
0.000779616
0.000799135
0.000820642
0.000842805
0.000865286
0.000888026
0.000910936
0.000934002
0.00095722
0.000980591
0.00100412
0.0010278
0.00105165
0.00107567
0.00109986
0.00112423
0.0011488
0.00117356
0.00119853
0.00122371
0.00124911
0.00127472
0.00130055
0.00132661
0.00135289
0.00137939
0.00140611
0.00143305
0.0014602
0.00148756
0.00151513
0.0015429
0.00157086
0.001599
0.00162731
0.00165579
0.00168442
0.00171318
0.00174207
0.00177107
0.00180016
0.00182933
0.00185856
0.00188783
0.00191712
0.00194641
0.00197568
0.00200491
0.00203406
0.00206312
0.00209206
0.00212083
0.00214941
0.00217776
0.00220583
0.00223357
0.00226092
0.00228781
0.00231417
0.00234
0.00236536
0.00239027
0.0024147
0.00243863
0.00246202
0.00248483
0.00250705
0.00252864
0.00254957
0.00256981
0.00258934
0.00260812
0.00262614
0.00264337
0.00265979
0.00267539
0.00269015
0.00270406
0.0027171
0.00272927
0.00274056
0.00275098
0.00276051
0.00276918
0.00277698
0.00278393
0.00279005
0.00279538
0.00279993
0.00280373
0.00280678
0.00280907
0.00281062
0.00281165
0.00281208
0.00281188
0.00281104
0.00280928
0.00280778
0.00280524
0.00280248
0.00279954
0.00279649
0.00279326
0.00279
0.00278679
0.00278371
0.00278065
0.0027776
0.00277491
0.00277256
0.00277048
0.00276853
0.0027673
0.00276643
0.00276562
0.00276487
0.00276454
0.00276439
0.00276409
0.00276397
0.00276381
0.00276339
0.00276254
0.0027611
0.00275893
0.0027558
0.00275141
0.00274572
0.00273729
0.00272572
0.0027116
0.00269533
0.00267713
0.00265711
0.00263541
0.00261203
0.00258706
0.00256058
0.00253273
0.00250361
0.00247355
0.00244235
0.00241001
0.00237675
0.00233985
0.00226785
1.01361e-05
9.99956e-05
0.000202379
0.000284682
0.000348339
0.000397122
0.000435163
0.0004657
0.000491127
0.000513124
0.000532808
0.000550879
0.000567751
0.000583652
0.000598714
0.000613033
0.000626734
0.000640031
0.000653289
0.00066706
0.00068204
0.000698972
0.000718104
0.000739054
0.000761733
0.000785613
0.000810005
0.000834391
0.000858448
0.000882984
0.000907952
0.000933334
0.000958854
0.000984668
0.0010112
0.00103845
0.00106606
0.00109387
0.00112182
0.00114992
0.0011782
0.00120666
0.00123529
0.00126411
0.00129313
0.00132233
0.00135174
0.00138136
0.00141117
0.00144121
0.00147149
0.00150201
0.00153277
0.00156378
0.00159505
0.00162657
0.00165834
0.00169037
0.00172264
0.00175516
0.00178793
0.00182092
0.00185415
0.0018876
0.00192126
0.00195512
0.00198918
0.00202341
0.0020578
0.00209234
0.00212701
0.00216181
0.0021967
0.00223167
0.0022667
0.00230177
0.00233686
0.00237194
0.00240699
0.00244199
0.00247691
0.00251171
0.00254637
0.00258086
0.00261514
0.00264918
0.00268293
0.00271635
0.00274939
0.00278202
0.00281418
0.00284587
0.00287705
0.00290772
0.00293786
0.00296745
0.00299645
0.00302483
0.00305254
0.00307956
0.00310585
0.00313136
0.00315607
0.00317995
0.00320296
0.00322506
0.00324625
0.00326647
0.00328572
0.00330397
0.00332121
0.00333741
0.00335257
0.00336667
0.00337971
0.0033917
0.00340262
0.00341249
0.00342132
0.00342912
0.00343593
0.00344176
0.00344664
0.00345058
0.00345361
0.00345579
0.00345716
0.00345769
0.00345746
0.00345657
0.00345495
0.00345274
0.00344988
0.00344661
0.00344305
0.00343923
0.00343521
0.00343107
0.00342691
0.00342279
0.00341876
0.00341485
0.00341121
0.00340788
0.00340485
0.00340213
0.00339993
0.00339812
0.00339656
0.00339525
0.00339428
0.00339351
0.00339272
0.00339205
0.00339133
0.00339039
0.00338905
0.00338714
0.00338446
0.00338077
0.0033758
0.00336928
0.0033604
0.00334879
0.00333468
0.00331829
0.00329978
0.00327927
0.00325689
0.0032329
0.00320706
0.00317947
0.00315025
0.00311954
0.00308754
0.00305422
0.00301959
0.00298361
0.00294383
0.00287567
1.24456e-05
0.000112503
0.000227071
0.000320551
0.000394307
0.000451624
0.000496731
0.000533044
0.000563191
0.000589114
0.000612205
0.000633422
0.000653417
0.000672625
0.000691345
0.000709804
0.000728199
0.000746736
0.000765662
0.000785275
0.000805909
0.000827869
0.000851297
0.000876125
0.000902216
0.000929303
0.000957068
0.000985267
0.00101379
0.00104277
0.00107221
0.00110208
0.0011323
0.00116289
0.00119388
0.00122523
0.00125685
0.00128868
0.00132067
0.00135284
0.0013852
0.00141773
0.00145046
0.00148338
0.00151651
0.00154985
0.00158341
0.0016172
0.00165124
0.00168553
0.00172006
0.00175483
0.00178986
0.00182513
0.00186066
0.00189645
0.00193248
0.00196876
0.00200529
0.00204206
0.00207906
0.0021163
0.00215375
0.00219141
0.00222927
0.00226732
0.00230555
0.00234394
0.00238247
0.00242114
0.00245993
0.00249882
0.00253779
0.00257682
0.00261589
0.00265499
0.00269408
0.00273315
0.00277218
0.00281113
0.00284998
0.0028887
0.00292726
0.00296564
0.00300379
0.00304169
0.00307929
0.00311656
0.00315346
0.00318995
0.00322601
0.0032616
0.00329669
0.00333126
0.00336528
0.00339871
0.00343153
0.00346368
0.00349513
0.00352584
0.00355577
0.00358488
0.00361313
0.00364048
0.00366689
0.00369233
0.00371676
0.00374014
0.00376246
0.00378367
0.00380377
0.00382271
0.00384049
0.00385709
0.0038725
0.00388671
0.00389972
0.00391153
0.00392215
0.00393159
0.00393987
0.00394701
0.00395302
0.00395795
0.00396181
0.00396474
0.00396668
0.00396784
0.00396771
0.00396682
0.00396512
0.0039627
0.00395959
0.00395593
0.00395185
0.0039474
0.00394265
0.00393768
0.00393261
0.00392752
0.00392248
0.00391758
0.00391289
0.00390848
0.00390437
0.00390063
0.00389734
0.00389448
0.00389199
0.00388985
0.0038881
0.00388665
0.0038854
0.0038843
0.00388326
0.00388212
0.0038807
0.00387883
0.0038763
0.00387286
0.00386823
0.00386211
0.00385398
0.00384354
0.00383079
0.00381583
0.00379874
0.00377958
0.00375848
0.0037356
0.00371067
0.00368387
0.00365534
0.00362519
0.0035936
0.00356062
0.00352628
0.00349042
0.0034506
0.00338845
1.45371e-05
0.00012284
0.000247572
0.000350883
0.000433664
0.000499038
0.000551039
0.000593205
0.000628315
0.000658495
0.000685333
0.000709988
0.000733289
0.000755826
0.000778021
0.000800186
0.000822559
0.000845338
0.000868702
0.000892815
0.000917829
0.000943863
0.000970972
0.000999133
0.00102826
0.00105823
0.0010889
0.00112014
0.00115187
0.00118407
0.00121674
0.00124983
0.00128328
0.00131708
0.00135118
0.00138556
0.00142017
0.00145498
0.00148998
0.00152515
0.0015605
0.00159604
0.00163176
0.00166769
0.00170381
0.00174015
0.00177671
0.00181349
0.0018505
0.00188775
0.00192524
0.00196297
0.00200095
0.00203916
0.00207762
0.00211633
0.00215527
0.00219446
0.00223388
0.00227353
0.0023134
0.00235349
0.00239379
0.00243428
0.00247497
0.00251583
0.00255685
0.00259803
0.00263934
0.00268077
0.00272232
0.00276395
0.00280565
0.00284741
0.00288921
0.00293102
0.00297283
0.00301461
0.00305634
0.003098
0.00313956
0.00318099
0.00322228
0.00326338
0.00330427
0.00334492
0.00338529
0.00342535
0.00346507
0.00350441
0.00354334
0.00358184
0.00361986
0.00365738
0.00369436
0.00373076
0.00376655
0.00380169
0.00383613
0.00386982
0.00390273
0.00393481
0.00396601
0.00399629
0.00402561
0.00405392
0.00408119
0.00410736
0.00413241
0.0041563
0.004179
0.00420047
0.00422069
0.00423964
0.00425729
0.00427365
0.00428868
0.0043024
0.0043148
0.00432588
0.00433567
0.00434416
0.00435138
0.00435735
0.00436226
0.00436601
0.00436875
0.00437007
0.00437033
0.00436959
0.00436791
0.00436535
0.00436199
0.00435795
0.00435332
0.00434819
0.00434263
0.00433676
0.00433067
0.00432446
0.00431824
0.00431209
0.0043061
0.00430034
0.00429488
0.00428979
0.00428513
0.00428093
0.00427719
0.0042739
0.00427108
0.00426869
0.00426667
0.00426497
0.00426349
0.00426211
0.00426066
0.00425899
0.00425687
0.00425407
0.00425032
0.00424531
0.00423866
0.00423011
0.00421956
0.00420698
0.0041924
0.00417582
0.00415732
0.00413692
0.00411457
0.00409034
0.00406433
0.00403664
0.00400741
0.00397676
0.00394472
0.00391109
0.00387368
0.0038191
1.63695e-05
0.000131185
0.000264282
0.000376328
0.000467081
0.000539942
0.00059859
0.000646579
0.000686764
0.000721385
0.000752161
0.00078039
0.00080703
0.000832785
0.000858166
0.000883545
0.000909194
0.000935313
0.000962054
0.000989525
0.00101781
0.00104694
0.00107694
0.00110779
0.00113942
0.00117178
0.00120476
0.00123832
0.00127238
0.0013069
0.00134185
0.00137718
0.00141286
0.00144885
0.0014851
0.00152159
0.00155828
0.00159516
0.00163222
0.00166945
0.00170685
0.00174442
0.00178217
0.00182011
0.00185823
0.00189655
0.00193507
0.00197381
0.00201276
0.00205192
0.00209131
0.00213092
0.00217076
0.00221083
0.00225112
0.00229164
0.00233239
0.00237336
0.00241455
0.00245595
0.00249757
0.00253938
0.00258139
0.00262359
0.00266597
0.00270852
0.00275122
0.00279406
0.00283705
0.00288015
0.00292335
0.00296665
0.00301003
0.00305347
0.00309695
0.00314045
0.00318397
0.00322747
0.00327095
0.00331436
0.00335771
0.00340095
0.00344408
0.00348705
0.00352985
0.00357244
0.0036148
0.0036569
0.0036987
0.00374018
0.00378129
0.00382202
0.00386233
0.00390217
0.00394152
0.00398034
0.00401858
0.0040562
0.00409316
0.0041294
0.00416489
0.00419956
0.00423338
0.00426629
0.00429825
0.00432919
0.00435908
0.00438787
0.0044155
0.00444194
0.00446714
0.00449106
0.00451367
0.00453494
0.00455483
0.00457332
0.0045904
0.00460606
0.00462028
0.00463306
0.00464441
0.00465432
0.00466282
0.00467008
0.00467605
0.00468071
0.00468389
0.00468577
0.00468639
0.00468584
0.00468417
0.00468147
0.00467781
0.0046733
0.00466804
0.00466211
0.00465561
0.00464865
0.00464134
0.00463379
0.00462612
0.00461843
0.00461082
0.00460338
0.00459621
0.00458938
0.00458299
0.00457708
0.0045717
0.00456687
0.00456263
0.00455897
0.00455587
0.0045533
0.00455119
0.00454944
0.00454792
0.00454648
0.00454493
0.00454303
0.00454052
0.00453711
0.00453248
0.00452638
0.00451865
0.00450918
0.00449794
0.00448488
0.00447001
0.00445331
0.00443474
0.00441434
0.00439217
0.00436831
0.00434288
0.00431599
0.00428772
0.00425784
0.00422441
0.00417791
1.79164e-05
0.000137697
0.000277514
0.000397033
0.000494885
0.000574623
0.000639563
0.000693209
0.000738428
0.000777514
0.000812266
0.000844069
0.000873974
0.000902766
0.000931021
0.000959162
0.000987493
0.00101623
0.00104553
0.00107549
0.00110615
0.00113753
0.00116965
0.00120246
0.00123594
0.00127003
0.00130468
0.00133984
0.00137546
0.00141151
0.00144793
0.0014847
0.00152178
0.00155913
0.00159671
0.00163448
0.00167244
0.00171055
0.00174881
0.00178722
0.00182578
0.00186449
0.00190336
0.00194238
0.00198158
0.00202095
0.0020605
0.00210023
0.00214016
0.00218028
0.0022206
0.00226113
0.00230186
0.0023428
0.00238395
0.00242531
0.00246688
0.00250866
0.00255065
0.00259284
0.00263523
0.00267782
0.0027206
0.00276356
0.0028067
0.00285001
0.00289349
0.00293711
0.00298089
0.00302479
0.00306881
0.00311295
0.00315719
0.00320151
0.0032459
0.00329034
0.00333483
0.00337934
0.00342386
0.00346837
0.00351285
0.00355727
0.00360163
0.00364588
0.00369002
0.00373402
0.00377784
0.00382147
0.00386487
0.00390801
0.00395086
0.00399339
0.00403557
0.00407736
0.00411871
0.0041596
0.00419997
0.00423978
0.00427898
0.00431753
0.00435537
0.00439244
0.00442871
0.0044641
0.00449856
0.00453203
0.00456447
0.0045958
0.00462598
0.00465495
0.00468266
0.00470905
0.00473408
0.00475771
0.0047799
0.00480061
0.00481982
0.00483749
0.00485363
0.0048682
0.00488122
0.00489265
0.00490261
0.00491123
0.00491828
0.00492377
0.00492768
0.00493011
0.00493113
0.00493078
0.00492914
0.00492627
0.00492227
0.00491721
0.00491121
0.00490437
0.00489678
0.00488855
0.00487982
0.00487069
0.0048613
0.00485177
0.00484222
0.00483275
0.0048235
0.00481456
0.00480604
0.00479804
0.00479062
0.00478386
0.00477782
0.00477254
0.00476803
0.00476429
0.00476131
0.00475902
0.00475732
0.00475609
0.00475516
0.00475432
0.00475331
0.00475185
0.00474965
0.00474644
0.00474202
0.00473625
0.00472901
0.00472021
0.0047098
0.00469771
0.00468389
0.00466832
0.00465103
0.00463207
0.00461154
0.00458953
0.00456611
0.00454106
0.00451271
0.00447437
1.91651e-05
0.000142528
0.000287536
0.000413279
0.00051734
0.000603274
0.000674041
0.000733037
0.000783095
0.000826515
0.00086513
0.000900379
0.000933373
0.000964956
0.000995752
0.00102621
0.00105667
0.00108743
0.00111864
0.00115038
0.00118269
0.00121561
0.00124911
0.00128319
0.00131782
0.00135296
0.00138858
0.00142462
0.00146106
0.00149786
0.00153499
0.00157243
0.00161014
0.00164813
0.00168629
0.00172459
0.001763
0.00180153
0.00184017
0.00187892
0.00191778
0.00195676
0.00199587
0.00203511
0.00207448
0.002114
0.00215367
0.00219351
0.00223351
0.00227368
0.00231403
0.00235457
0.0023953
0.00243622
0.00247734
0.00251866
0.00256018
0.00260191
0.00264384
0.00268598
0.00272833
0.00277088
0.00281363
0.00285659
0.00289973
0.00294307
0.0029866
0.00303031
0.00307419
0.00311824
0.00316245
0.0032068
0.0032513
0.00329593
0.00334068
0.00338554
0.00343049
0.00347552
0.00352061
0.00356576
0.00361094
0.00365613
0.00370133
0.00374649
0.00379161
0.00383667
0.00388162
0.00392647
0.00397116
0.00401568
0.00405999
0.00410407
0.00414788
0.00419137
0.00423452
0.00427727
0.00431959
0.00436143
0.00440274
0.00444346
0.00448354
0.00452293
0.00456156
0.00459937
0.0046363
0.00467229
0.00470726
0.00474116
0.00477392
0.00480547
0.00483575
0.00486469
0.00489224
0.00491834
0.00494294
0.00496599
0.00498745
0.00500728
0.00502546
0.00504197
0.00505679
0.00506991
0.00508148
0.00509144
0.00509966
0.00510619
0.00511097
0.00511406
0.00511554
0.00511546
0.00511387
0.00511086
0.0051065
0.00510088
0.00509409
0.00508625
0.00507745
0.00506783
0.00505751
0.00504661
0.00503528
0.00502366
0.00501189
0.00500011
0.00498845
0.00497706
0.00496607
0.00495561
0.00494579
0.00493673
0.00492852
0.00492127
0.00491502
0.00490983
0.00490572
0.00490268
0.00490066
0.00489957
0.00489927
0.00489956
0.0049002
0.00490093
0.00490146
0.00490149
0.0049008
0.00489918
0.00489648
0.00489255
0.00488727
0.00488052
0.00487222
0.0048623
0.00485074
0.00483755
0.00482279
0.00480652
0.00478879
0.00476939
0.00474689
0.00471664
2.01164e-05
0.000145842
0.000294628
0.000425365
0.00053471
0.000626079
0.000702095
0.000766002
0.000820554
0.000868023
0.000910245
0.000948675
0.000984456
0.00101854
0.00105154
0.00108392
0.00111596
0.00114808
0.00118046
0.00121321
0.00124641
0.00128007
0.00131422
0.00134884
0.00138392
0.00141941
0.00145531
0.00149157
0.00152816
0.00156506
0.00160223
0.00163966
0.00167733
0.00171524
0.00175324
0.00179129
0.00182938
0.00186752
0.0019057
0.00194394
0.00198224
0.00202061
0.00205907
0.00209762
0.00213629
0.00217507
0.00221398
0.00225302
0.00229222
0.00233157
0.00237109
0.00241079
0.00245067
0.00249075
0.00253103
0.00257151
0.00261222
0.00265314
0.00269429
0.00273567
0.00277729
0.00281914
0.00286123
0.00290356
0.00294613
0.00298893
0.00303198
0.00307526
0.00311876
0.0031625
0.00320645
0.00325062
0.003295
0.00333957
0.00338433
0.00342927
0.00347438
0.00351964
0.00356504
0.00361057
0.00365622
0.00370195
0.00374777
0.00379364
0.00383955
0.00388548
0.0039314
0.00397729
0.00402312
0.00406887
0.0041145
0.00415999
0.00420529
0.00425038
0.00429521
0.00433973
0.00438391
0.0044277
0.00447104
0.00451387
0.00455616
0.00459782
0.0046388
0.00467903
0.00471844
0.00475696
0.00479452
0.00483104
0.00486645
0.00490066
0.00493361
0.00496522
0.00499541
0.00502412
0.00505128
0.00507682
0.0051007
0.00512285
0.00514325
0.00516187
0.00517867
0.00519367
0.00520691
0.00521838
0.00522803
0.00523582
0.00524159
0.00524547
0.00524753
0.00524783
0.00524641
0.00524333
0.00523867
0.00523252
0.00522497
0.00521613
0.00520611
0.00519503
0.00518303
0.00517026
0.00515686
0.00514299
0.00512881
0.00511448
0.00510018
0.00508608
0.00507233
0.00505911
0.00504659
0.00503491
0.00502423
0.00501468
0.0050064
0.00499947
0.00499398
0.00498998
0.00498746
0.00498639
0.00498666
0.00498809
0.00499048
0.00499355
0.004997
0.00500053
0.00500387
0.00500677
0.00500904
0.00501047
0.00501086
0.00501006
0.00500792
0.00500431
0.00499917
0.00499246
0.00498418
0.00497435
0.00496298
0.00494986
0.00493377
0.00491154
2.07818e-05
0.000147823
0.000299076
0.000433588
0.000547232
0.000643177
0.000723793
0.000792046
0.000850602
0.000901682
0.000947133
0.000988356
0.0010264
0.00106236
0.00109691
0.00113062
0.00116392
0.00119716
0.00123043
0.00126385
0.0012975
0.00133142
0.00136564
0.00140018
0.00143501
0.00147014
0.00150552
0.00154115
0.001577
0.00161306
0.00164927
0.0016856
0.0017221
0.00175876
0.00179577
0.00183276
0.00186972
0.00190664
0.0019435
0.00198032
0.00201715
0.00205399
0.00209089
0.00212785
0.00216489
0.00220203
0.00223928
0.00227667
0.0023142
0.00235189
0.00238976
0.00242782
0.00246609
0.00250458
0.00254331
0.00258228
0.00262151
0.00266101
0.00270079
0.00274085
0.00278122
0.00282188
0.00286286
0.00290414
0.00294574
0.00298766
0.0030299