/*--------------------------------*- C++ -*----------------------------------*\
  =========                 |
  \\      /  F ield         | OpenFOAM: The Open Source CFD Toolbox
   \\    /   O peration     | Website:  https://openfoam.org
    \\  /    A nd           | Version:  9
     \\/     M anipulation  |
\*---------------------------------------------------------------------------*/
FoamFile
{
    format      ascii;
    class       surfaceScalarField;
    location    "20.5";
    object      phi;
}
// * * * * * * * * * * * * * * * * * * * * * * * * * * * * * * * * * * * * * //

dimensions      [0 3 -1 0 0 0 0];

internalField   nonuniform List<scalar> 
1300
(
11.2529
1.87548
-4.20492
11.2529
-4.9715
1.87548
-4.22974
4.22974
-1.18821
1.18821
5.71231
5.54055
-2.37001
2.37001
-2.81757
2.81757
-2.86046
2.86046
-1.06194
1.06194
-1.02826
1.02826
0.693344
-0.693344
-3.40618
3.40618
-1.45675
1.45675
-2.89779
2.89779
6.1281
-6.1281
-3.26048
3.26048
-0.744224
0.744224
-4.26321
15.5161
6.98965
6.98965
-2.37159
2.37159
-1.25399
1.25399
1.41034
-1.41034
9.11354
-9.11354
-4.90862
-5.92464
1.89936
-13.9803
-3.07214
-3.07214
-2.7054
2.7054
-0.829928
1.04555
3.47674
-3.47674
-0.758436
0.758436
-4.3164
0.0866592
-4.3164
4.01259
0.217144
4.01259
-1.32952
0.141308
-1.32952
4.67213
-4.67213
1.0765
0.111711
1.0765
3.92808
-3.92808
-5.71006
11.4224
5.5428
-5.32064
20.8367
-5.93222
11.4728
-3.91686
3.91686
-2.28634
-0.0836661
-2.28634
2.37139
-0.00138223
2.37139
-4.00869
4.00869
-2.60574
-0.211824
-2.60574
2.91997
-0.102405
2.91997
3.6661
-3.6661
-2.91645
0.0559826
-2.91645
2.70881
0.151656
2.70881
0.771042
1.10443
-2.64652
3.69207
-1.10443
0.0424987
1.02614
0.0357986
1.02614
-1.01454
-0.0137263
-1.01454
1.04984
-0.0215827
1.04984
0.730613
-0.0372688
0.730613
-0.754941
0.0615971
-0.754941
-8.57912
-8.98393
-3.53419
0.128019
-3.53419
-1.47471
0.017956
-1.47471
1.49298
-0.0362303
1.49298
-2.53701
2.53701
-3.23805
0.340266
-3.23805
4.80636
1.32174
4.80636
5.04612
6.20674
16.299
-16.299
10.1709
-2.97621
-0.284264
-2.97621
-3.43066
-5.68287
3.43066
-0.170184
-0.806058
0.0618346
-0.806058
5.62658
1.36307
5.62658
2.58667
0.122142
-2.58667
0.215073
4.62493
-4.62493
1.42358
0.948008
1.42358
-1.19153
1.19153
1.12338
-0.0735351
-1.12338
-0.13061
1.38601
0.024332
1.38601
-1.40975
-0.000595739
-1.40975
7.32402
-13.2487
-7.80722
3.21441
0.191763
-3.21441
0.142275
3.56345
-0.086711
3.56345
-3.30976
3.30976
-3.61094
0.1342
-3.61094
-0.683257
-0.0751788
-0.683257
0.843604
-0.0851679
0.843604
-4.56616
0.249767
-4.56616
-3.67723
0.439178
3.67723
0.335364
1.25371
-1.25371
-1.43728
0.107766
-1.43728
-4.65146
0.0852999
4.65146
0.0206628
-4.76741
0.0952797
-4.76741
-3.71249
0.101553
3.71249
0.21559
4.58934
1.03725
-4.58934
0.661257
-5.36948
11.5762
-5.88338
11.4262
-3.53283
-0.38403
-3.53283
4.10823
-0.191367
4.10823
2.56082
0.336969
-2.56082
0.274476
2.49862
-0.127229
2.49862
-3.95561
-0.0530778
-3.95561
3.80934
0.199348
3.80934
2.53966
-0.0410446
-2.53966
-0.0660797
2.89777
0.0221982
2.89777
3.67198
-0.00587615
3.67198
-3.53921
-0.126891
-3.53921
3.1791
-3.1791
3.08077
0.0983261
-3.08077
0.164329
-5.07402
5.07343
-0.00799943
-5.06602
1.01814
1.01814
0.769844
-0.0392317
0.769844
-0.861784
0.106843
-0.861784
8.33484
-16.1421
8.80571
-17.3848
7.52447
-21.5048
8.07486
-17.0588
3.82359
-3.82359
3.75451
0.0690748
-3.75451
0.220317
-1.45648
-0.0182329
-1.45648
-2.29822
-0.238792
-2.29822
2.87161
-0.3346
2.87161
-3.74213
3.74213
-4.1248
0.38267
4.1248
0.68156
2.96191
-0.0641364
-2.96191
-0.0143039
0.924728
0.151769
-0.924728
0.11867
4.86168
-0.236754
4.86168
-4.08435
-0.540583
-4.08435
-1.4753
0.0188219
1.4753
-0.0517137
-1.25894
0.0674143
-1.25894
-5.0745
0.00847757
-5.0387
-1.40127
-1.40127
1.30414
4.9962
-3.5855
0.0462867
3.5855
-0.0220529
3.5271
0.215026
-3.5271
0.21734
-3.26338
0.0842777
3.26338
0.0463861
-0.660677
-0.02258
-0.660677
-1.03709
1.03709
-0.919484
-0.117606
0.919484
-0.0758798
1.40992
-0.156212
1.40992
1.47118
0.0218017
-1.47118
0.0338996
-5.0076
0.240195
-5.0076
4.11746
-0.00923154
4.11746
-3.94847
-0.135878
3.94847
-0.276488
-0.00372289
5.07715
-1.01441
-0.00012036
1.01441
-5.10148
5.10136
-0.665998
0.00532075
0.665998
0.103846
1.02965
0.161882
-1.02965
0.167862
3.84812
-0.0387801
-3.84812
0.0245359
-2.01527
-0.282947
-2.01527
-3.20061
-0.332219
3.20061
-0.329002
-5.11518
-0.0779407
5.19312
-5.13676
1.33688
0.0491265
-1.33688
5.15049
-1.14658
-0.107124
1.14658
-0.109494
1.60947
-0.199548
1.60947
5.11815
-0.256471
-5.11815
0.110551
-4.1323
0.176683
4.1323
-0.0148386
-1.78177
-0.233496
1.78177
-0.172305
-13.1281
14.4911
7.70866
-6.29107
-6.95759
-11.9739
4.44711
7.12912
14.618
-11.7685
-9.73628
-11.6262
2.86007
-2.6922
-3.72921
3.69194
23.5784
-23.4832
-18.3992
19.0808
20.777
-20.5614
5.70884
5.71352
15.7931
-15.8768
-20.9769
20.5929
15.366
-15.5779
22.0966
-22.1497
-25.8316
25.7928
-16.094
16.15
-20.2935
20.1666
-21.056
20.7796
-8.31653
-9.06831
16.4827
-16.3547
20.0412
-20.3255
-19.3138
19.6541
10.0475
4.4436
11.0848
-6.24674
11.9556
-5.22604
12.9347
8.32748
-16.644
7.81459
-14.7722
9.08228
10.9589
-8.9121
-3.06185
-17.9697
17.883
-17.2573
17.3036
24.0852
-23.9986
-6.17283
11.8863
-5.25335
12.3825
-11.409
-6.99023
10.0873
4.53072
8.95919
7.52349
-9.15096
-2.47526
-24.793
24.5366
-25.6567
25.1161
0.100033
2.42604
-2.52607
1.35402
-0.862497
3.28853
1.99757
2.10441
2.4527
-2.29082
0.239505
-2.76557
-2.89618
-5.34438
5.45214
5.16172
-5.05001
16.5314
7.047
16.5521
-16.7418
-6.7413
-16.5017
11.3638
7.71704
11.7464
12.0616
8.71537
12.1632
10.359
-10.3317
-0.0273536
-11.4776
21.8367
1.55467
-18.4679
-13.9371
8.81336
6.97975
8.81198
-9.85126
-6.02552
-9.57678
-11.0612
-9.91571
-11.3934
12.3696
8.22331
12.1782
-15.3625
15.3476
9.27053
6.09552
9.16813
-8.94527
-6.6326
-9.01135
27.4827
-6.65524
-20.8275
-13.2054
-12.6262
13.0061
9.09056
14.3426
11.4501
14.3672
8.90489
18.5779
-17.9955
5.36929
-9.94756
-6.14643
-9.78323
9.25905
6.89092
9.4107
-11.7664
-8.5271
-11.7201
-11.9862
-9.06981
11.9921
8.17452
-12.5331
-13.1236
12.669
8.1106
7.85038
-17.5867
9.2084
-18.2767
-10.9507
-5.40399
-10.7304
10.8105
6.64373
-17.4542
-5.83355
23.6676
-12.7086
20.6057
-10.9176
-9.40792
-10.9319
-14.7528
-4.56099
-14.3136
-8.02206
7.73911
-8.86053
8.52593
26.913
-16.24
-10.6729
-12.3783
-8.18304
11.7171
-0.632317
-12.8358
12.8084
-0.880207
12.0545
16.4981
15.8658
-10.8803
-6.37691
-10.663
10.2705
7.03318
10.3547
16.0657
8.01953
16.2828
-16.7934
-7.20514
-16.5437
4.85017
-4.92535
5.71531
-5.69649
15.5764
9.53973
-15.3396
-9.45343
22.9336
-10.7758
-12.1578
-5.12031
5.21688
-0.0965752
-1.83178
-0.477753
0.266471
-1.9314
-1.79781
1.8698
0.234611
5.45149
3.65368
-2.41436
2.48177
2.77876
2.70523
-0.190956
2.50245
-2.49713
18.9218
-11.4478
-7.47407
13.9539
-13.8686
-2.58978
-19.3179
16.7281
2.6835
3.00676
-2.94492
-3.95084
-1.39353
-3.91694
2.95489
2.20684
3.10666
2.10837
3.34377
-8.11012
1.56493
6.54519
-6.00175
-3.48508
-13.3479
-6.27535
19.6232
16.6727
7.86392
-16.7832
0.281548
5.29556
-5.3318
-1.59446
-11.7534
8.35722
-9.95168
-15.2218
-6.45916
21.681
-9.58084
-1.08216
9.36581
2.38061
-10.8772
-7.09249
10.743
1.42018
-12.0644
23.9708
-11.9064
-18.4414
8.51582
13.3208
16.2329
-17.8628
9.31881
8.54396
-4.54193
7.40758
1.4044
7.28036
-19.875
13.8494
11.2768
8.37729
-11.6138
2.03699
-17.838
25.1569
-22.2719
-2.88499
12.8131
12.3438
13.5838
13.3292
-7.81249
21.3963
-3.61359
-18.6583
21.4516
-13.0743
15.7757
-28.8499
-29.1048
10.4465
-17.9972
22.1033
-4.10608
-5.21218
-10.1503
23.2094
-2.01866
-21.1908
10.1595
-13.9298
-11.8233
25.7531
-20.5851
18.4559
-6.26975
-12.1861
-12.7005
-9.44921
12.5238
2.82383
-25.8447
31.214
-7.26682
7.80889
1.35923
7.83109
10.6169
-15.9665
5.34958
9.96814
-16.2379
6.77117
-22.7377
-12.1651
24.1714
-12.0063
-17.5691
-15.8025
-1.76656
4.85693
26.357
-16.3071
12.0966
4.21043
8.4621
1.89263
-8.56043
-1.22281
0.968622
16.0879
-17.0565
10.3793
10.5015
11.7067
4.38121
10.77
7.11298
-10.7479
-0.972209
-14.7922
5.72238
-6.61768
-14.573
20.2954
-16.2677
1.69468
-10.3031
-13.9912
24.2944
-16.4496
11.4257
12.5451
18.4589
-19.615
5.6238
-9.74669
-9.86834
10.6439
-17.2616
7.49743
12.7979
15.608
2.48444
12.7571
11.4144
-19.4008
1.12407
18.9378
-16.4626
3.90195
10.4652
-15.9986
0.196055
-10.5343
2.64107
-15.3497
-14.8131
16.5128
-21.0738
-12.3372
13.5262
2.7566
-13.8616
-0.452041
-4.97303
-3.04903
-5.20652
-3.29202
-5.5685
-11.1045
-1.93182
-9.1727
5.8073
-6.71649
-4.67691
7.04549
1.48044
-4.94999
4.84287
-5.59945
5.3999
-0.210197
13.0186
15.6556
7.47253
-8.47669
15.9492
-15.5901
23.6096
-29.719
14.1289
15.952
-23.1571
-13.767
2.70662
2.14355
2.62146
13.4832
-14.439
0.955743
-13.3057
17.643
-4.33728
-19.6275
6.32176
-6.14425
5.18855
0.526758
5.17032
1.41704
6.84723
-8.26427
-4.27945
-4.33117
-9.16185
-13.859
23.0209
4.7385
-13.1063
8.36775
-12.0659
16.8044
0.0805386
-13.1868
16.9887
-10.1415
17.5155
-11.9854
5.53009
12.7921
22.3486
-9.55653
16.2468
-6.70706
7.06565
-16.6222
-6.79336
-11.2891
18.18
-13.0052
14.6999
-1.12354
15.8235
-13.7791
3.00332
-2.07244
8.42903
8.6441
16.809
-12.4278
11.971
-18.6781
-4.65115
-16.1937
-3.39571
1.03043
-13.8414
12.811
12.07
-11.0396
-3.24626
9.00119
-5.75492
5.69175
-2.85168
-2.84007
-1.84949
-3.07587
1.87207
0.630379
6.32213
0.490415
-3.3421
-2.00671
-1.90286
10.3806
8.54125
-3.83645
3.73987
3.56998
-0.56322
0.959514
2.14714
4.59252
-3.63301
0.679108
3.91341
-2.26581
3.82981
1.46575
-3.85161
-0.0653289
-3.4092
11.7664
3.13599
-5.34282
1.70981
2.37747
-13.8252
19.7441
-11.4211
-8.32308
22.1216
3.05701
-14.4781
16.2609
-13.5774
8.09876
-14.3741
-6.37932
-19.9567
-12.9097
-10.7119
19.0796
-12.309
20.1729
3.8578
-20.4544
24.3122
-12.743
6.28386
-9.44797
10.9137
-4.0614
-5.38657
11.2701
10.4109
-11.0554
-0.698008
0.21471
8.42503
-8.21032
-1.52665
-7.5284
-16.4088
17.829
-8.25581
17.5746
7.69342
-7.63391
25.2085
6.56507
-14.199
-11.8763
-12.9585
-5.65502
10.5778
-1.79866
-7.21269
-13.9848
7.25374
0.0266191
-19.0251
22.0205
-2.99542
-12.0453
-1.80411
14.6172
-18.08
1.84207
-11.3088
10.7117
12.1161
12.1427
-20.886
-0.30472
-12.6627
3.18288
-15.8456
15.5267
-6.81513
17.2617
-16.0616
11.3847
-14.5811
14.3767
-1.46895
14.7498
-9.40019
6.07774
-15.527
-12.7031
14.4581
-8.36262
15.8174
-10.1237
25.941
-17.3905
14.4157
11.5254
-2.7252
-8.20667
-13.9759
11.2507
0.439719
8.27081
17.837
-10.724
16.8648
8.92388
-18.6706
-8.33768
-25.8597
7.18915
-13.3146
-7.35644
14.5456
11.1025
12.9951
4.67725
-11.7723
17.7948
-19.5613
-5.78849
-9.02463
14.5905
-3.33981
10.1671
-19.1917
-5.18261
13.1166
-0.178422
-12.9382
3.12347
-15.4606
5.1174
-20.578
15.9564
-16.4084
1.77573
-7.91998
-3.17427
-3.28376
-2.18041
-3.41903
-7.58939
5.40897
-1.26763
3.57524
-12.5476
12.3691
-5.09547
10.5044
-4.07223
-1.1343
4.24453
1.15536
11.6598
3.03589
-16.8029
-9.27028
14.641
-5.37068
1.11029
-10.8056
3.8354
8.09279
14.0288
-24.8209
1.66379
-15.1391
-4.07972
6.22327
4.92147
16.9915
2.5525
6.56587
-0.342602
9.11837
2.27885
2.20297
-11.2377
12.1934
1.57335
15.7023
-1.88333
7.41342
3.28699
3.30494
2.02685
5.72356
2.92054
8.72689
0.462617
-3.86855
2.06947
-3.97233
-1.27263
-4.01157
-0.319626
3.72826
-4.04788
10.5087
-1.96746
5.13803
-1.88796
-4.93935
6.82731
-9.36203
-5.50256
-1.58915
-5.61305
7.32286
6.15337
-5.73371
-3.62832
2.3957
-15.3054
11.9784
-12.6764
-2.26555
22.0467
-9.4667
1.25638
-3.18283
-6.27202
-7.66556
7.73089
24.19
1.01857
12.2836
18.8475
11.755
1.03104
12.001
-16.1071
-10.7366
-16.4118
-0.885144
13.7321
5.63621
20.7208
17.1616
13.8218
-5.36991
-24.9313
20.7482
-8.55481
16.4109
-3.47277
-17.1053
14.6253
8.98428
-17.3819
0.97351
-16.1317
-24.6866
-0.338983
12.7081
-11.3208
10.1865
7.13749
2.03521
-2.43125
-0.852505
2.54886
-0.345886
8.77249
-0.187189
-8.20552
8.39271
-3.54107
2.26844
-0.433799
4.17367
6.39351
4.42605
-3.77947
-7.82735
-8.82558
-4.99964
-17.1487
2.47459
-8.62796
5.68952
-3.42108
2.84945
4.97163
10.1097
-1.60058
-9.43901
7.35551
-4.50605
5.60361
)
;

boundaryField
{
    wall-4
    {
        type            calculated;
        value           uniform 0;
    }
    velocity-inlet-5
    {
        type            calculated;
        value           uniform -11.2529;
    }
    velocity-inlet-6
    {
        type            calculated;
        value           uniform -1.87548;
    }
    pressure-outlet-7
    {
        type            calculated;
        value           nonuniform List<scalar> 8(4.20492 4.9715 10.8333 12.0809 17.563 15.1312 17.1406 15.5993);
    }
    wall-8
    {
        type            calculated;
        value           uniform 0;
    }
    frontAndBackPlanes
    {
        type            empty;
        value           nonuniform List<scalar> 0();
    }
}


// ************************************************************************* //
