/*--------------------------------*- C++ -*----------------------------------*\
  =========                 |
  \\      /  F ield         | OpenFOAM: The Open Source CFD Toolbox
   \\    /   O peration     | Website:  https://openfoam.org
    \\  /    A nd           | Version:  9
     \\/     M anipulation  |
\*---------------------------------------------------------------------------*/
FoamFile
{
    format      ascii;
    class       surfaceScalarField;
    location    "7.65";
    object      phi;
}
// * * * * * * * * * * * * * * * * * * * * * * * * * * * * * * * * * * * * * //

dimensions      [0 3 -1 0 0 0 0];

internalField   nonuniform List<scalar> 
1300
(
11.2529
1.87548
-4.66091
11.2529
-5.0211
1.87548
-4.27479
4.27479
-1.32428
1.32428
5.71253
5.54033
-2.5876
2.5876
-3.18184
3.18184
-2.94098
2.94098
-1.06194
1.06194
-1.02839
1.02839
0.718371
-0.718371
-3.34625
3.34625
-1.62266
1.62266
-3.06539
3.06539
6.12918
-6.12918
-3.62835
3.62835
-0.815068
0.815068
-4.2636
15.5165
6.98926
6.98926
-2.50436
2.50436
-1.25771
1.25771
1.41034
-1.41034
9.9715
-9.9715
-5.31059
-6.15583
1.93893
-13.8351
-3.08217
-3.08217
-2.7054
2.7054
-0.829928
1.04555
3.46794
-3.46794
-0.807543
0.807543
-4.32592
0.0511327
-4.32592
4.10794
0.166851
4.10794
-1.47992
0.155633
-1.47992
4.57974
-4.57974
1.20176
0.12252
1.20176
3.92479
-3.92479
-5.70981
11.4223
5.54305
-5.32035
20.8368
-5.93251
11.4728
-3.87804
3.87804
-2.49133
-0.0962657
-2.49133
2.65488
-0.0672854
2.65488
-3.86302
3.86302
-2.95683
-0.225013
-2.95683
3.32598
-0.144137
3.32598
3.64594
-3.64594
-2.97415
0.0331635
-2.97415
2.81133
0.129652
2.81133
0.771042
1.10443
-2.64652
3.69207
-1.10443
0.0424987
1.02614
0.0357984
1.02614
-1.01456
-0.0138274
-1.01456
1.05027
-0.021882
1.05027
0.76928
-0.0509095
0.76928
-0.767365
0.0489939
-0.767365
-8.49667
-8.49786
-3.43962
0.0933696
-3.43962
-1.62803
0.00537361
-1.62803
1.66781
-0.0451498
1.66781
-2.58681
2.58681
-3.39373
0.328342
-3.39373
4.80856
1.32061
4.80856
5.04631
6.20655
16.2992
-16.2992
10.17
-3.38755
-0.240801
-3.38755
-3.80402
-6.16748
3.80402
-0.175671
-0.893807
0.0787381
-0.893807
5.62544
1.36383
5.62544
2.70928
0.102056
-2.70928
0.204912
4.57964
-4.57964
1.516
0.988363
1.516
-1.19036
1.19036
1.12479
-0.0745163
-1.12479
-0.132918
1.38599
0.0243485
1.38599
-1.40974
-0.000593303
-1.40974
7.71207
-13.8679
-7.76839
3.19286
0.153398
-3.19286
0.110684
3.55116
-0.0832149
3.55116
-3.32228
3.32228
-3.60375
0.135812
-3.60375
-0.727282
-0.080261
-0.727282
0.897787
-0.0902441
0.897787
-4.52835
0.202433
-4.52835
-3.81013
0.416397
3.81013
0.297805
1.31889
-1.31889
-1.59313
0.113212
-1.59313
-4.57411
0.0457551
4.57411
0.00562828
-4.67091
0.0911739
-4.67091
-3.70743
0.103677
3.70743
0.217365
4.58721
1.03823
-4.58721
0.662417
-5.36977
11.5763
-5.88309
11.4261
-3.54569
-0.332347
-3.54569
4.03428
-0.156245
4.03428
2.76119
0.304206
-2.76119
0.269852
2.81734
-0.16246
2.81734
-3.83299
-0.0300385
-3.83299
3.6746
0.188423
3.6746
2.88787
-0.0705246
-2.88787
-0.0689579
3.33588
-0.00990564
3.33588
3.65375
-0.00781123
3.65375
-3.5235
-0.122435
-3.5235
3.20649
-3.20649
3.12206
0.0844238
-3.12206
0.147915
-5.07402
5.07343
-0.0079985
-5.06602
1.01814
1.01814
0.823503
-0.0542231
0.823503
-0.864256
0.0968911
-0.864256
8.4585
-16.2269
8.43665
-16.9333
7.17833
-21.0135
7.93168
-16.4295
3.69017
-3.69017
3.63339
0.0567862
-3.63339
0.193765
-1.59281
-0.0352196
-1.59281
-2.34993
-0.236875
-2.34993
2.92353
-0.336727
2.92353
-3.74844
3.74844
-4.12855
0.380108
4.12855
0.680013
3.39142
-0.0555392
-3.39142
0.00387676
1.03423
0.167532
-1.03423
0.140425
4.80421
-0.224569
4.80421
-4.05915
-0.520491
-4.05915
-1.5843
-0.00850556
1.5843
-0.0683035
-1.25853
0.0681678
-1.25853
-5.0745
0.00847712
-5.0387
-1.40127
-1.40127
1.30414
4.9962
-3.57006
0.0465569
3.57006
-0.0189045
3.5362
0.212246
-3.5362
0.21392
-3.28209
0.075601
3.28209
0.0401906
-0.704814
-0.0224676
-0.704814
-1.09294
1.09294
-0.975205
-0.117737
0.975205
-0.0774177
1.47464
-0.15575
1.47464
1.63967
0.0281386
-1.63967
0.0465381
-4.90504
0.234136
-4.90504
4.02257
0.0117144
4.02257
-3.92088
-0.138268
3.92088
-0.267132
-0.00371798
5.07715
-1.01442
-0.000143331
1.01442
-5.1015
5.10135
-0.71173
0.00691538
0.71173
0.111774
1.02859
0.161776
-1.02859
0.164333
3.70864
-0.0340371
-3.70864
0.0184653
-2.069
-0.280934
-2.069
-3.23895
-0.306741
3.23895
-0.315418
-5.11485
-0.0782502
5.1931
-5.13673
1.33678
0.0492067
-1.33678
5.15056
-1.20699
-0.111907
1.20699
-0.114046
1.67575
-0.201105
1.67575
5.02913
-0.224919
-5.02913
0.124083
-4.00885
0.175869
4.00885
0.0137133
-1.84448
-0.224519
1.84448
-0.168728
-13.127
14.4909
7.70975
-6.78761
-7.08029
-12.9551
4.44839
7.12793
14.6184
-11.486
-9.52747
-11.3753
2.8628
-2.69846
-3.8895
3.83859
22.9857
-22.8946
-18.4055
19.0855
20.7681
-20.5507
5.70677
5.71557
16.597
-16.6933
-20.6913
20.359
16.7055
-16.9306
21.2676
-21.2976
-24.7287
24.6947
-16.3289
16.362
-20.1897
20.0672
-20.8856
20.6185
-8.39439
-8.53892
15.865
-15.7716
21.6007
-21.8415
-19.7154
20.0437
10.0454
4.44552
11.0836
-6.24773
11.9545
-5.22511
12.9349
8.15198
-16.5464
8.07492
-15.1552
9.9734
11.6273
-9.79773
-3.15737
-17.935
17.8517
-17.3063
17.3465
23.6563
-23.6051
-6.17183
11.8874
-5.25432
12.3822
-11.41
-6.99546
10.0894
4.52901
8.73758
7.12742
-8.89098
-2.48434
-24.3671
24.1422
-25.3453
24.8248
0.0808865
2.43626
-2.51714
1.33859
-0.839356
3.27561
2.02344
2.12033
2.4512
-2.28942
0.247268
-2.76441
-2.89733
-5.86343
5.97664
5.69379
-5.57127
16.136
6.84974
16.1416
-16.3762
-6.51837
-16.1421
11.372
7.71347
11.7521
12.0495
8.71854
12.1532
10.3632
-10.3288
-0.0343872
-11.4744
21.8376
1.55863
-18.4699
-13.9409
9.53057
7.06644
9.46328
-10.3514
-6.34184
-10.0816
-11.0393
-9.65204
-11.346
12.1765
8.18248
12.0202
-14.9328
14.9465
10.2987
6.40685
10.1546
-9.79135
-7.1392
-9.86031
26.5483
-6.3159
-20.2324
-12.6634
-12.0653
12.475
8.79258
13.6953
10.9994
13.7138
8.50206
18.0462
-17.2946
5.22935
-10.0485
-6.28037
-9.90057
9.49481
6.86722
9.62446
-11.7229
-8.46679
-11.6763
-11.9157
-8.96993
11.9235
8.14375
-12.425
-12.9203
12.5633
8.05516
7.37398
-16.9015
9.05555
-17.5945
-10.5019
-5.26975
-10.3081
10.4819
6.63858
-17.1205
-6.06449
24.3771
-12.7497
21.2197
-11.9882
-9.85338
-11.9843
-14.9512
-4.76419
-14.5348
-8.17649
7.89556
-8.97108
8.63435
26.5588
-15.7832
-10.7757
-12.3746
-8.17606
11.7122
-0.628646
-12.8384
12.804
-0.883857
12.051
16.4965
15.8679
-10.8999
-6.40641
-10.6859
10.3247
7.0218
10.4003
15.978
7.67824
16.1449
-16.4496
-7.15549
-16.2472
5.15775
-5.23801
6.09699
-6.1055
15.3804
9.44436
-15.1559
-9.21122
23.0392
-10.801
-12.2381
-5.1956
5.46227
-0.266676
-1.91998
-0.581388
0.233681
-1.9779
-1.9116
1.9289
0.191429
5.6537
3.7421
-2.41339
2.48155
2.77971
2.7052
-0.192132
2.6696
-2.66269
19.2562
-11.4751
-7.78111
13.6242
-13.5784
-2.62303
-18.7556
16.1325
2.56321
3.36086
-3.28212
-4.32478
-1.53865
-4.27824
3.29064
2.40315
3.45818
2.28145
3.69519
-8.7131
1.72044
6.99266
-6.43165
-3.85083
-13.2618
-6.20348
19.4653
16.3619
7.78024
-16.486
0.343959
5.75367
-5.79882
-1.54609
-11.7157
8.68692
-10.233
-15.0809
-6.34873
21.4296
-9.59076
-1.09518
9.37852
2.37358
-10.8621
-7.07283
10.7263
1.42688
-12.0513
23.9781
-11.9269
-18.4577
8.52396
13.3136
16.2374
-17.8634
9.30784
8.55557
-4.5498
8.07108
1.3922
7.90862
-20.041
13.6992
11.7423
8.30146
-12.0465
1.96488
-18.0761
24.8282
-21.8083
-3.01994
12.8562
11.9721
13.2996
13.2592
-7.88833
21.1879
-3.32196
-18.4863
21.3981
-13.0966
15.314
-28.4106
-28.5733
10.0869
-17.7035
21.4423
-3.73873
-4.97668
-9.9561
22.6802
-2.07584
-20.6044
9.94438
-13.9402
-12.0184
25.9585
-20.2561
19.1576
-6.57136
-12.5862
-12.2872
-9.01039
12.1113
2.83515
-25.0368
30.2661
-6.99057
8.71281
1.44175
8.7029
10.5432
-15.5085
4.96535
9.71291
-16.2843
6.98831
-22.4968
-11.5732
23.2143
-11.6411
-16.8429
-15.0931
-1.74987
4.67546
25.5907
-15.6748
11.6306
4.0442
8.53565
1.86462
-8.62007
-1.2805
1.08643
16.2241
-17.3105
10.7109
10.8129
12.0088
4.21527
10.7418
7.10997
-10.7229
-0.953426
-14.6836
5.71372
-6.5399
-14.381
20.0947
-16.1788
1.79778
-10.2429
-14.0451
24.2881
-16.5233
11.4689
12.5093
18.4907
-19.5765
5.53133
-9.78202
-9.79443
10.6474
-17.1873
7.3843
12.7104
15.4395
2.51919
12.1925
11.0218
-18.831
1.23655
18.1492
-15.6649
3.70031
10.0135
-15.3309
0.237865
-10.0702
2.70761
-15.4573
-14.4129
16.1047
-20.8689
-12.306
13.6056
2.53931
-13.9034
-0.631419
-5.10246
-3.07403
-5.32698
-3.30311
-5.66797
-11.1914
-1.99072
-9.20073
5.90484
-6.77474
-4.57126
7.09016
1.54419
-5.18069
5.06879
-5.80013
5.59903
-0.214859
13.0188
15.653
7.47696
-8.46904
15.946
-15.3794
23.0576
-29
13.6206
15.3938
-22.5493
-13.6062
2.87506
2.28269
2.78482
13.7057
-14.8537
1.14793
-13.6439
17.7446
-4.10069
-20.1354
6.49143
-6.42961
5.58807
0.508923
5.55285
1.56986
7.0402
-8.61006
-4.53564
-4.60395
-8.93227
-13.5931
22.5254
4.85713
-12.989
8.1319
-12.2978
17.1549
0.219162
-13.2082
17.4282
-10.388
17.9371
-12.0786
5.85846
12.6512
22.1405
-9.48924
15.9713
-6.52699
6.83302
-16.3223
-6.76012
-11.3926
18.2598
-12.8955
14.6932
-0.949298
15.6425
-13.9967
3.19565
-1.98786
8.82508
9.03
16.6594
-12.4441
11.901
-18.428
-4.42127
-15.9088
-3.19839
0.895418
-13.8182
12.9228
12.2671
-11.3717
-3.44961
9.43857
-5.98897
6.04048
-3.03292
-3.00756
-1.97226
-3.26575
1.99473
0.674874
6.71535
0.521994
-3.55492
-2.1407
-2.02892
10.5042
8.75197
-4.23962
3.97294
4.00594
-0.645083
1.06664
2.39153
5.03827
-3.97163
0.750159
4.28812
-2.53196
4.18475
1.56891
-4.21289
-0.065349
-3.59157
12.2785
3.40109
-5.80423
1.8326
2.39086
-13.866
19.2502
-11.0744
-8.17587
21.6411
2.99927
-14.0736
15.7563
-13.1931
7.88102
-14.0845
-6.19261
-19.3857
-12.536
-10.6052
18.7371
-11.9203
19.7005
3.6562
-20.0444
23.7006
-12.874
6.5253
-9.89876
11.4677
-4.28089
-5.61787
11.2368
10.1928
-10.9611
-0.754644
0.275693
8.68148
-8.40578
-1.55153
-7.98319
-16.3928
17.8197
-8.27175
17.5796
7.67425
-7.61374
25.1933
6.58417
-14.1979
-11.8735
-12.9687
-5.64234
10.5951
-1.96855
-7.89176
-14.5548
7.96228
-0.0536609
-19.3354
22.5122
-3.1768
-12.2689
-1.43021
14.2864
-18.2974
2.01309
-11.3091
11.2031
12.5953
12.5417
-20.4902
-0.114171
-12.3077
3.26809
-15.5758
15.2402
-6.83703
16.924
-15.8951
11.3238
-14.3509
13.904
-1.67178
14.2214
-9.25602
6.01101
-15.0214
-12.1863
15.0464
-8.63952
16.4881
-10.3284
26.8166
-17.319
15.1869
11.6297
-2.90637
-9.07791
-14.7563
11.85
0.430548
9.13345
17.7804
-10.6704
16.8269
8.82719
-18.6092
-8.36013
-25.8522
7.24295
-13.3429
-7.32438
14.5673
11.1663
13.0309
4.7729
-11.7504
17.1248
-18.8747
-5.48374
-8.92912
15.2199
-3.36996
10.0908
-19.0199
-5.36655
13.041
-0.401846
-12.6391
2.7422
-15.0482
5.23143
-20.2796
15.6374
-16.2688
1.84776
-8.27737
-3.33293
-3.44698
-2.22934
-3.57079
-7.83368
5.60434
-1.34224
3.72654
-12.6531
12.2513
-5.09146
10.6958
-4.20874
-1.11824
4.37746
1.22156
11.9174
2.87614
-16.4823
-9.24626
14.7838
-5.53755
1.25798
-10.9421
3.84175
7.93399
13.7071
-24.0665
1.51727
-14.9651
-4.27055
6.55324
5.16802
17.4351
2.58145
6.92525
-0.372013
9.5067
2.4128
2.33539
-11.0936
12.2415
1.82918
15.4498
-1.96705
7.82551
3.5858
3.59118
2.20764
5.9395
3.09049
9.13515
0.525092
-4.07885
2.18852
-4.21744
-1.3664
-4.27166
-0.433075
3.92791
-4.36098
10.8293
-2.07731
5.29172
-2.03336
-5.36311
7.39647
-9.81447
-6.0082
-1.72008
-5.94087
7.77347
6.33762
-6.05339
-3.76107
2.36045
-14.8964
11.724
-12.4787
-2.28586
21.4148
-9.76938
1.36359
-3.24408
-6.61959
-8.15825
8.2236
24.1903
1.00303
12.2634
18.8227
11.7499
1.07948
12.0645
-15.8032
-10.4323
-15.9174
-0.677247
13.6091
5.54603
20.0447
17.1757
13.8058
-5.21416
-24.0888
20.3457
-8.10411
16.245
-3.60585
-16.6738
14.4667
8.5909
-17.006
0.737167
-15.9366
-24.0407
-0.43856
12.6899
-11.4788
10.3606
7.28653
1.9142
-2.56196
-0.885018
2.6797
-0.34431
9.16239
-0.169324
-8.67322
8.84254
-3.75858
2.39219
-0.601656
4.5746
6.79481
4.7175
-3.95572
-8.3167
-8.78278
-5.08317
-16.9587
2.50663
-8.84425
6.01696
-3.62477
3.0094
5.21777
10.5095
-1.70093
-9.67075
7.6899
-4.68049
5.829
)
;

boundaryField
{
    wall-4
    {
        type            calculated;
        value           uniform 0;
    }
    velocity-inlet-5
    {
        type            calculated;
        value           uniform -11.2529;
    }
    velocity-inlet-6
    {
        type            calculated;
        value           uniform -1.87548;
    }
    pressure-outlet-7
    {
        type            calculated;
        value           nonuniform List<scalar> 8(4.66091 5.0211 11.4664 11.8962 16.9945 15.4805 16.8952 15.11);
    }
    wall-8
    {
        type            calculated;
        value           uniform 0;
    }
    frontAndBackPlanes
    {
        type            empty;
        value           nonuniform List<scalar> 0();
    }
}


// ************************************************************************* //
