/*--------------------------------*- C++ -*----------------------------------*\
  =========                 |
  \\      /  F ield         | OpenFOAM: The Open Source CFD Toolbox
   \\    /   O peration     | Website:  https://openfoam.org
    \\  /    A nd           | Version:  9
     \\/     M anipulation  |
\*---------------------------------------------------------------------------*/
FoamFile
{
    format      ascii;
    class       surfaceScalarField;
    location    "0.88";
    object      alphaPhi0.water;
}
// * * * * * * * * * * * * * * * * * * * * * * * * * * * * * * * * * * * * * //

dimensions      [0 3 -1 0 0 0 0];

internalField   nonuniform List<scalar> 
4432
(
-2.41673e-06
2.41673e-06
-5.93166e-06
3.51494e-06
-9.07101e-06
3.13935e-06
-1.19304e-05
2.85935e-06
-1.46548e-05
2.72445e-06
-1.72476e-05
2.59283e-06
-1.96645e-05
2.4169e-06
-2.18622e-05
2.19771e-06
-2.38121e-05
1.94988e-06
-2.54865e-05
1.67437e-06
-2.68388e-05
1.3523e-06
-2.77897e-05
9.5091e-07
-2.82233e-05
4.33581e-07
-2.79847e-05
-2.38555e-07
-2.69925e-05
-9.92028e-07
-2.46881e-05
-1.84124e-06
-2.16178e-05
-2.77486e-06
-1.766e-05
-4.0437e-06
-1.23203e-05
-5.42554e-06
-5.90568e-06
-6.50109e-06
1.04651e-07
-6.09795e-06
3.24421e-06
-3.11272e-06
3.25706e-06
-3.77592e-06
6.19264e-06
-7.32555e-06
7.06457e-06
-1.05788e-05
6.39255e-06
-1.36458e-05
5.9264e-06
-1.65487e-05
5.6273e-06
-1.9225e-05
5.26922e-06
-2.16219e-05
4.81378e-06
-2.37121e-05
4.28784e-06
-2.54822e-05
3.72001e-06
-2.69103e-05
3.10246e-06
-2.79537e-05
2.39569e-06
-2.85606e-05
1.55784e-06
-2.86914e-05
5.64333e-07
-2.83276e-05
-6.02312e-07
-2.73668e-05
-1.95286e-06
-2.56656e-05
-3.54043e-06
-2.28996e-05
-5.45627e-06
-1.90431e-05
-7.82461e-06
-1.41194e-05
-1.04747e-05
-8.30578e-06
-1.25721e-05
-2.36026e-06
-1.22306e-05
1.34563e-06
-6.86312e-06
4.60455e-06
-4.1079e-06
1.03005e-05
-7.46354e-06
1.04202e-05
-1.0707e-05
9.63598e-06
-1.38249e-05
9.04427e-06
-1.67397e-05
8.54215e-06
-1.93874e-05
7.91689e-06
-2.17284e-05
7.1548e-06
-2.3749e-05
6.30851e-06
-2.54464e-05
5.41736e-06
-2.68084e-05
4.46443e-06
-2.78052e-05
3.39256e-06
-2.83993e-05
2.15187e-06
-2.85558e-05
7.20931e-07
-2.82367e-05
-9.21448e-07
-2.73661e-05
-2.82349e-06
-2.58385e-05
-5.06796e-06
-2.35e-05
-7.79485e-06
-2.01801e-05
-1.11444e-05
-1.57762e-05
-1.48787e-05
-1.04001e-05
-1.79482e-05
-4.63123e-06
-1.79995e-05
-2.14773e-07
-1.12796e-05
4.38901e-06
-4.15553e-06
1.44561e-05
-7.50092e-06
1.37656e-05
-1.07848e-05
1.29199e-05
-1.39353e-05
1.21948e-05
-1.6845e-05
1.14518e-05
-1.94558e-05
1.05277e-05
-2.1741e-05
9.44006e-06
-2.36989e-05
8.2664e-06
-2.53369e-05
7.05532e-06
-2.66524e-05
5.77995e-06
-2.76244e-05
4.36456e-06
-2.82217e-05
2.74913e-06
-2.84129e-05
9.12149e-07
-2.816e-05
-1.17433e-06
-2.74033e-05
-3.58019e-06
-2.60615e-05
-6.40982e-06
-2.40042e-05
-9.85206e-06
-2.10728e-05
-1.40759e-05
-1.71582e-05
-1.87933e-05
-1.22941e-05
-2.28123e-05
-6.77364e-06
-2.35191e-05
-1.61687e-06
-1.6435e-05
2.77192e-06
-4.1219e-06
1.8578e-05
-7.53905e-06
1.71827e-05
-1.08765e-05
1.62573e-05
-1.40461e-05
1.53644e-05
-1.69398e-05
1.43456e-05
-1.95075e-05
1.30954e-05
-2.17342e-05
1.16667e-05
-2.36301e-05
1.01623e-05
-2.52144e-05
8.63971e-06
-2.64948e-05
7.06028e-06
-2.74568e-05
5.32658e-06
-2.80734e-05
3.36577e-06
-2.83165e-05
1.15525e-06
-2.81513e-05
-1.33959e-06
-2.75256e-05
-4.20587e-06
-2.63733e-05
-7.56211e-06
-2.45714e-05
-1.16539e-05
-2.19492e-05
-1.66981e-05
-1.83933e-05
-2.23491e-05
-1.39376e-05
-2.7268e-05
-8.79632e-06
-2.86601e-05
-3.42018e-06
-2.18113e-05
-6.4785e-07
-4.07479e-06
2.26528e-05
-7.5819e-06
2.06898e-05
-1.09677e-05
1.96431e-05
-1.41463e-05
1.85429e-05
-1.70176e-05
1.72169e-05
-1.95395e-05
1.56172e-05
-2.17077e-05
1.3835e-05
-2.35451e-05
1.19997e-05
-2.50837e-05
1.01783e-05
-2.63415e-05
8.31811e-06
-2.73102e-05
6.2952e-06
-2.79653e-05
4.02089e-06
-2.82814e-05
1.47141e-06
-2.82255e-05
-1.39555e-06
-2.77454e-05
-4.68591e-06
-2.67798e-05
-8.52768e-06
-2.51883e-05
-1.32455e-05
-2.27567e-05
-1.91297e-05
-1.93696e-05
-2.57361e-05
-1.51245e-05
-3.1513e-05
-1.03645e-05
-3.34196e-05
-5.3606e-06
-2.68155e-05
-6.00858e-06
-4.03716e-06
2.66899e-05
-7.62157e-06
2.42743e-05
-1.1041e-05
2.30626e-05
-1.42188e-05
2.17207e-05
-1.70634e-05
2.00614e-05
-1.95396e-05
1.80934e-05
-2.16529e-05
1.59483e-05
-2.34382e-05
1.3785e-05
-2.49412e-05
1.16813e-05
-2.61912e-05
9.56804e-06
-2.71849e-05
7.28897e-06
-2.79003e-05
4.73631e-06
-2.83147e-05
1.88573e-06
-2.83947e-05
-1.31546e-06
-2.808e-05
-5.0007e-06
-2.7302e-05
-9.30563e-06
-2.58737e-05
-1.46736e-05
-2.35036e-05
-2.14979e-05
-2.00778e-05
-2.91594e-05
-1.57825e-05
-3.58094e-05
-1.11056e-05
-3.8097e-05
-6.36246e-06
-3.1559e-05
-1.23722e-05
-4.00332e-06
3.06932e-05
-7.6399e-06
2.79108e-05
-1.10744e-05
2.64971e-05
-1.42414e-05
2.48878e-05
-1.70568e-05
2.28768e-05
-1.94906e-05
2.05272e-05
-2.1556e-05
1.80137e-05
-2.32988e-05
1.55277e-05
-2.47787e-05
1.31612e-05
-2.60372e-05
1.08265e-05
-2.70769e-05
8.32854e-06
-2.7878e-05
5.53748e-06
-2.84216e-05
2.42931e-06
-2.86777e-05
-1.05938e-06
-2.85611e-05
-5.11724e-06
-2.7988e-05
-9.87874e-06
-2.66949e-05
-1.59649e-05
-2.42612e-05
-2.39024e-05
-2.05855e-05
-3.27967e-05
-1.60412e-05
-4.03469e-05
-1.11563e-05
-4.29867e-05
-6.1104e-06
-3.66067e-05
-1.84837e-05
2.98786e-06
-2.97977e-06
-1.77622e-05
2.07448e-05
-4.34448e-05
2.55398e-05
-6.69331e-05
2.32365e-05
-8.20132e-05
1.51068e-05
-8.61409e-05
4.15562e-06
-8.05982e-05
-5.29017e-06
-6.91752e-05
-1.07025e-05
-5.50339e-05
-1.33118e-05
-4.11215e-05
-1.35265e-05
-3.13647e-05
-9.57457e-06
-2.82459e-05
-2.93659e-06
-2.86901e-05
7.27402e-07
-2.8166e-05
1.61237e-07
-2.51689e-05
-3.47133e-06
-1.70589e-05
-8.09301e-06
-5.69491e-06
-1.13471e-05
3.5778e-06
-9.25582e-06
3.41168e-06
-1.44875e-05
1.15389e-05
-3.92724e-05
4.54283e-05
-6.32858e-05
4.94023e-05
-7.88655e-05
3.88653e-05
-8.54609e-05
2.17287e-05
-8.19458e-05
3.87602e-06
-6.67999e-05
-8.99148e-06
-5.39235e-05
-1.34209e-05
-4.3227e-05
-1.7884e-05
-3.71495e-05
-1.8109e-05
-3.27684e-05
-1.50521e-05
-2.97117e-05
-6.26234e-06
-2.91722e-05
5.95534e-07
-2.83266e-05
-2.52868e-07
-2.50446e-05
-6.51415e-06
-1.97775e-05
-1.48639e-05
-1.10904e-05
-2.0017e-05
-2.46235e-06
-1.78669e-05
1.08212e-06
-2.36531e-05
3.55366e-05
-4.65755e-05
6.82493e-05
-6.40851e-05
6.69051e-05
-7.48334e-05
4.968e-05
-8.02029e-05
2.7175e-05
-7.2789e-05
4.39372e-06
-4.95995e-05
-1.28085e-05
-4.4032e-05
-1.94756e-05
-3.6043e-05
-2.64958e-05
-2.76977e-05
-2.70138e-05
-2.23919e-05
-2.09606e-05
-2.59164e-05
-6.53615e-06
-2.72332e-05
2.42476e-07
-2.69486e-05
-9.14804e-07
-2.42278e-05
-8.96934e-06
-1.92429e-05
-1.8552e-05
-1.32116e-05
-2.62724e-05
-6.59841e-06
-2.50079e-05
-5.87526e-06
-2.73782e-05
6.31791e-05
-4.70908e-05
8.82988e-05
-6.02645e-05
8.01418e-05
-6.90383e-05
5.85506e-05
-7.26694e-05
3.09271e-05
-6.79456e-05
4.50999e-06
-5.60309e-05
-1.68972e-05
-4.55747e-05
-2.98621e-05
-3.80684e-05
-3.88337e-05
-2.77466e-05
-4.17524e-05
-2.07152e-05
-2.87209e-05
-1.83366e-05
-9.64376e-06
-2.02119e-05
-1.75676e-07
-2.11594e-05
-1.18439e-06
-1.94061e-05
-7.9933e-06
-1.58175e-05
-1.82707e-05
-1.22819e-05
-2.99978e-05
-7.59912e-06
-3.00052e-05
-1.44295e-05
-2.81161e-05
9.13122e-05
-4.46008e-05
0.00010487
-5.44939e-05
9.01249e-05
-5.84616e-05
6.26162e-05
-4.33508e-05
1.91834e-05
-4.31191e-05
1.50393e-06
-5.30772e-05
-1.85619e-05
-4.82232e-05
-3.46391e-05
-4.15574e-05
-4.54029e-05
-3.30508e-05
-5.01355e-05
-2.29157e-05
-3.85818e-05
-1.73214e-05
-1.3625e-05
-1.65404e-05
-1.01315e-06
-1.54404e-05
-2.34319e-06
-1.46338e-05
-8.86874e-06
-1.7163e-05
-2.48017e-05
-1.44023e-05
-3.26799e-05
-9.88659e-06
-3.44396e-05
-2.42297e-05
-2.72332e-05
0.000118558
-4.03787e-05
0.000118028
-4.66252e-05
9.64059e-05
-2.54564e-05
4.59821e-05
-1.03995e-05
6.31435e-06
-1.88098e-05
1.10744e-06
-4.23067e-05
-6.09664e-06
-4.35539e-05
-3.36737e-05
-3.86927e-05
-5.01406e-05
-3.16589e-05
-5.69609e-05
-2.5203e-05
-4.49141e-05
-1.86907e-05
-2.00219e-05
-1.62011e-05
-2.18603e-06
-1.47675e-05
-3.84558e-06
-1.72693e-05
-1.51179e-05
-1.39146e-05
-2.80845e-05
-1.24973e-05
-3.3994e-05
-1.00874e-05
-3.67582e-05
-3.42358e-05
-2.58936e-05
0.000144464
-3.55617e-05
0.000127709
-3.73551e-05
9.84213e-05
-6.18154e-06
2.13468e-05
-3.40747e-06
3.3969e-06
-3.25101e-06
8.09633e-07
-7.39836e-06
-2.06405e-06
-2.91691e-05
-9.22424e-06
-3.43051e-05
-4.44407e-05
-2.88764e-05
-6.21387e-05
-2.39048e-05
-4.96857e-05
-2.21662e-05
-2.06359e-05
-1.70101e-05
-6.07825e-06
-1.75235e-05
-8.68613e-06
-1.39076e-05
-2.04466e-05
-1.07117e-05
-3.36156e-05
-8.11386e-06
-2.77159e-05
-8.11629e-06
-2.25876e-05
-3.47187e-05
-2.48056e-05
0.000169283
-3.08514e-05
0.000133768
-2.17482e-05
9.14358e-05
-2.16963e-06
1.29981e-05
-1.99655e-06
3.05081e-06
-2.17948e-06
8.35392e-07
-2.04336e-06
-2.34153e-06
-6.07133e-06
-5.43578e-06
-2.56955e-05
-2.66154e-05
-2.5028e-05
-6.22103e-05
-1.42674e-05
-5.03972e-05
-1.55265e-05
-3.9617e-06
-1.74059e-05
-4.61438e-06
-1.43965e-05
-8.09944e-06
-1.03898e-05
-2.05162e-05
-3.93312e-06
-2.02686e-05
-1.09416e-06
-1.14474e-05
-1.4753e-06
-3.05579e-06
-8.76665e-06
-8.19487e-06
3.88881e-05
-1.60923e-05
3.58082e-05
-2.34201e-05
3.38249e-05
-3.00917e-05
3.15594e-05
-3.59859e-05
2.8771e-05
-4.10491e-05
2.55904e-05
-4.53214e-05
2.2286e-05
-4.89286e-05
1.9135e-05
-5.20458e-05
1.62784e-05
-5.48107e-05
1.35913e-05
-5.72532e-05
1.07713e-05
-5.93449e-05
7.62938e-06
-6.10637e-05
4.14814e-06
-6.24275e-05
3.04188e-07
-6.30522e-05
-4.49263e-06
-6.27173e-05
-1.02129e-05
-6.05118e-05
-1.81369e-05
-5.42128e-05
-2.92464e-05
-4.27342e-05
-3.58768e-05
-3.30779e-05
-4.1424e-05
-2.44467e-05
-5.33421e-05
-1.44519e-05
-4.70773e-05
-3.10294e-05
-1.96861e-06
-7.18306e-06
4.60712e-05
-1.48304e-05
4.34556e-05
-2.19784e-05
4.09728e-05
-2.85713e-05
3.81523e-05
-3.44469e-05
3.46466e-05
-3.95124e-05
3.06559e-05
-4.3787e-05
2.65607e-05
-4.74027e-05
2.27507e-05
-5.06105e-05
1.94862e-05
-5.36625e-05
1.66434e-05
-5.66555e-05
1.37643e-05
-5.96151e-05
1.0589e-05
-6.27294e-05
7.26255e-06
-6.5865e-05
3.43995e-06
-6.87724e-05
-1.58642e-06
-7.0896e-05
-8.04304e-06
-6.81811e-05
-1.6017e-05
-4.27889e-05
-2.00491e-05
-2.92336e-05
-2.83388e-05
-2.72792e-05
-4.25734e-05
-2.51727e-05
-4.29735e-05
-2.06028e-05
-1.51517e-05
-7.46928e-06
-2.96939e-05
-5.38416e-06
4.24424e-05
-1.12529e-05
3.40172e-05
-1.63851e-05
2.64981e-05
-2.06672e-05
2.00611e-05
-2.40345e-05
1.48484e-05
-2.67543e-05
1.10585e-05
-2.91878e-05
8.49982e-06
-3.12748e-05
6.80166e-06
-3.29996e-05
5.59029e-06
-3.50747e-05
4.73855e-06
-3.91265e-05
4.44461e-06
-4.53736e-05
4.65735e-06
-5.16797e-05
4.77876e-06
-5.8063e-05
4.28373e-06
-6.64456e-05
2.61696e-06
-6.29938e-05
1.18656e-07
-3.33668e-05
-1.45568e-06
-2.48749e-05
-1.35785e-05
-2.3614e-05
-2.99249e-05
-2.81246e-05
-3.50597e-05
-5.56214e-06
-8.74777e-06
-1.14059e-06
-1.43135e-07
-4.45326e-07
-2.25726e-05
-1.3781e-06
1.27224e-06
-2.18168e-06
1.24048e-07
-2.57571e-06
5.29045e-08
-2.49539e-06
3.92271e-08
-2.25957e-06
2.91065e-08
-2.07676e-06
2.01468e-08
-2.00979e-06
1.35141e-08
-1.98306e-06
9.32113e-09
-2.00793e-06
6.58888e-09
-2.21217e-06
3.23357e-09
-2.64557e-06
4.98071e-10
-3.13396e-06
0
-3.99806e-06
0
-7.0466e-06
0
-1.05719e-05
1.01159e-07
-1.25977e-05
7.63435e-08
-2.23564e-05
-2.7357e-06
-3.92461e-05
-1.76407e-05
-3.51098e-05
-2.69178e-05
-1.25354e-05
-2.70566e-05
-1.25084e-07
-1.70398e-07
-2.37904e-07
-4.98116e-08
-5.73456e-08
-7.02103e-07
-1.17683e-07
5.84315e-09
-4.45241e-08
7.35856e-10
-4.42983e-08
2.67913e-09
-4.23555e-08
2.33963e-09
-3.70978e-08
1.6654e-09
-3.17601e-08
1.0688e-09
-2.7519e-08
6.57089e-10
-2.42082e-08
4.06532e-10
-2.17619e-08
2.56696e-10
-2.16734e-08
1.17014e-10
-2.40456e-08
0
-3.13229e-08
0
-5.63955e-08
0
-1.12787e-07
3.24376e-09
-1.22571e-07
9.65661e-09
-1.93185e-06
3.86493e-08
-5.16216e-05
-1.32378e-06
-5.00467e-05
-1.20722e-05
-3.94976e-05
-3.07279e-05
-2.13281e-06
-2.84204e-05
-7.79486e-08
-2.24476e-06
-4.98651e-08
-1.06782e-07
-3.51112e-08
-1.10324e-07
-1.16591e-09
4.97025e-10
-2.50264e-09
0
-2.47929e-09
1.27146e-10
-2.05351e-09
1.26093e-10
-1.54038e-09
8.29248e-11
-1.12845e-09
4.8433e-11
-8.45707e-10
2.74803e-11
-6.60816e-10
1.58863e-11
-5.46423e-10
9.91987e-12
-5.34739e-10
2.3185e-12
-6.5393e-10
2.12809e-12
-1.03099e-09
1.38908e-11
-2.03663e-09
7.57323e-11
-3.57664e-09
3.81862e-10
-1.92412e-08
2.37726e-09
-9.30697e-08
9.18875e-09
-5.26184e-06
-1.45927e-07
-4.90141e-05
-5.93777e-06
-5.16418e-05
-2.09569e-05
-2.28727e-05
-3.19317e-05
-5.42498e-07
-7.77247e-06
-6.65272e-08
-6.21029e-07
-7.0958e-08
-7.1968e-08
6.54362e-11
3.10798e-11
-8.2814e-11
0
-1.01029e-10
7.55334e-12
-7.80386e-11
6.35949e-12
-5.391e-11
3.80269e-12
-3.67705e-11
2.07517e-12
-2.5935e-11
1.12946e-12
-1.93697e-11
6.40359e-13
-1.53113e-11
3.90587e-13
-1.75058e-11
1.26255e-13
-2.15046e-11
4.7017e-13
-2.71796e-11
1.91979e-12
-7.33081e-11
1.05849e-11
-5.07384e-10
7.46447e-11
-2.93789e-09
3.39636e-10
-1.75477e-08
8.61892e-10
-2.41989e-07
1.54544e-10
-9.93386e-06
-9.48759e-07
-4.54696e-05
-1.6829e-05
-2.97886e-05
-2.71668e-05
-1.15177e-05
-2.19566e-05
-3.11331e-07
-8.88257e-06
-3.66883e-07
-5.93153e-08
5.74428e-12
1.68596e-12
-1.97689e-12
1.27649e-13
-2.82249e-12
4.7129e-13
-2.24667e-12
3.23831e-13
-1.59739e-12
1.75076e-13
-1.11946e-12
9.09343e-14
-8.04159e-13
4.96002e-14
-6.08743e-13
2.83263e-14
-5.02616e-13
1.75645e-14
-6.2076e-13
1.31371e-14
-6.02719e-13
5.59625e-14
-1.16889e-12
3.25081e-13
-1.11492e-11
2.75721e-12
-7.67223e-11
1.63784e-11
-3.70185e-10
5.01064e-11
-2.19289e-09
1.42807e-10
-2.69008e-08
2.62275e-09
-9.54577e-07
-1.30961e-07
-2.47859e-05
-3.12106e-06
-3.42595e-05
-3.01813e-05
-3.56177e-05
-2.83112e-05
-7.42263e-06
-2.04258e-05
-7.54283e-06
-2.92909e-07
2.47636e-13
8.95086e-14
8.99163e-15
1.79303e-14
-2.20111e-14
3.17908e-14
-3.26808e-14
1.75047e-14
-3.35513e-14
8.29907e-15
-2.90709e-14
4.11221e-15
-2.35038e-14
3.01375e-15
-1.90782e-14
1.75635e-15
-1.79692e-14
1.4045e-15
-2.294e-14
4.40743e-15
-2.06289e-14
1.08021e-14
-1.78056e-13
5.70999e-14
-1.81052e-12
5.10304e-13
-8.81435e-12
2.68584e-12
-2.49555e-11
6.86705e-12
-6.98185e-11
5.94292e-12
0
0
-1.26816e-07
-6.77554e-09
-3.16097e-06
-2.36135e-07
-2.69087e-05
-5.26213e-06
-3.4045e-05
-2.38514e-05
-2.60579e-05
-2.53929e-05
-2.03539e-05
-5.3606e-06
1.03304e-14
4.47792e-15
4.30824e-15
2.33298e-15
4.87758e-15
2.92941e-15
1.81885e-15
1.78897e-15
3.02814e-16
5.23328e-16
-3.26531e-16
2.18416e-16
-4.9634e-16
5.58393e-16
-5.16551e-16
3.4182e-16
-5.46445e-16
4.32805e-16
-1.50069e-15
5.12481e-15
-4.28308e-15
9.70424e-15
-1.89239e-14
9.35212e-15
-1.63056e-13
6.24993e-14
-6.30789e-13
3.26083e-13
-1.46673e-12
1.11973e-12
-2.62744e-11
1.33146e-12
-4.15975e-11
0
-3.334e-09
0
-2.31743e-07
-8.6673e-09
-5.37783e-06
-1.65765e-07
-2.47966e-05
-3.8504e-06
-3.37654e-05
-1.43834e-05
-2.21017e-05
-3.00314e-05
5.41948e-16
1.12384e-16
3.91873e-16
7.361e-16
5.20668e-16
7.14141e-16
2.61253e-16
5.79449e-16
1.16922e-16
3.68979e-16
4.58137e-17
2.29711e-16
7.77764e-18
1.26302e-16
-7.76645e-18
3.77714e-17
8.39494e-17
3.27625e-16
2.07688e-16
-1.19204e-15
-6.10249e-16
-1.94467e-15
-1.36858e-15
4.85281e-15
-5.7646e-15
7.57524e-15
-1.89071e-14
3.27762e-14
-4.24716e-15
1.96326e-13
-5.26452e-14
5.70799e-13
-4.41442e-12
1.71129e-13
-3.23673e-12
0
-8.60945e-09
0
-1.72344e-07
-2.17397e-09
-3.94504e-06
-7.93738e-08
-1.87886e-05
-9.49949e-07
-6.74116e-06
-3.21956e-05
3.122e-17
1.34479e-16
3.98935e-17
1.46101e-16
5.4468e-17
1.35768e-16
3.75981e-17
1.09564e-16
2.27605e-17
7.6641e-17
1.19908e-17
3.99049e-17
3.86601e-18
1.0887e-17
2.30814e-18
3.09681e-17
-3.40053e-17
-6.52389e-16
-1.13321e-16
-3.27551e-15
-1.8442e-16
-6.00824e-15
-1.61241e-16
-3.37002e-15
7.54878e-16
4.81947e-15
1.38203e-14
3.4755e-15
1.35503e-13
2.21239e-14
5.7956e-13
7.03899e-14
1.20606e-12
5.52819e-14
4.75022e-13
0
-6.73162e-13
4.79553e-14
-2.16562e-09
-6.08912e-12
-8.16229e-08
-6.96507e-12
-1.03129e-06
-2.58215e-10
-4.36434e-09
-7.76756e-06
2.78636e-18
1.80735e-17
4.4254e-18
1.26003e-17
6.20409e-18
1.18594e-17
5.08327e-18
9.05915e-18
3.2629e-18
5.57249e-18
1.56895e-18
2.85864e-18
1.01315e-18
6.34755e-18
-1.33617e-17
-8.35308e-17
-1.34159e-16
-8.44389e-16
-4.82708e-16
-2.98321e-15
-9.58349e-16
-5.47297e-15
-1.04495e-15
-5.10793e-15
-1.99888e-16
-7.88937e-16
1.83299e-15
1.44779e-15
1.71438e-14
2.48729e-15
7.66519e-14
7.02165e-15
1.69051e-13
6.49683e-15
1.77486e-13
0
1.16704e-13
0
-2.56834e-14
4.80655e-15
-6.90887e-12
-5.52111e-14
-2.65818e-10
-4.33718e-14
-5.50028e-14
-4.63028e-09
2.10257e-19
7.65338e-19
3.42386e-19
6.51603e-19
5.0159e-19
6.35049e-19
4.27802e-19
4.84036e-19
2.86639e-19
3.05288e-19
3.28824e-19
1.53702e-19
-1.02244e-19
-4.75839e-19
-2.16012e-17
-9.29455e-17
-1.54823e-16
-6.20626e-16
-5.19659e-16
-1.92489e-15
-1.05112e-15
-3.51977e-15
-1.30626e-15
-3.84101e-15
-8.37495e-16
-2.10614e-15
3.3492e-16
2.75372e-16
1.60687e-15
7.06507e-16
7.28179e-15
9.35513e-16
1.54755e-14
1.42715e-15
1.71178e-14
9.57354e-16
1.86934e-14
6.30373e-16
3.90891e-14
8.28556e-15
2.95948e-14
1.34633e-14
-3.56797e-15
-4.96677e-15
-3.57984e-14
-1.59216e-14
1.10205e-20
2.77384e-20
2.04048e-20
2.65112e-20
3.18683e-20
2.71701e-20
2.81584e-20
2.17923e-20
1.96557e-20
1.42335e-20
2.4056e-20
6.87705e-21
-5.33702e-19
-2.03145e-18
-1.78132e-17
-6.04128e-17
-1.11443e-16
-3.40368e-16
-3.5897e-16
-9.88256e-16
-7.33885e-16
-1.80826e-15
-9.82215e-16
-2.1398e-15
-8.39068e-16
-1.59501e-15
-3.16575e-16
-5.19658e-16
2.14251e-16
1.7568e-16
6.94173e-16
1.95215e-16
1.38349e-15
2.03272e-16
1.57729e-15
2.92345e-16
1.63031e-15
3.85226e-16
2.49598e-15
3.57796e-16
1.76685e-14
9.87609e-16
1.63028e-14
1.80934e-15
-2.27657e-15
1.42029e-14
4.29109e-22
2.16435e-20
8.46078e-22
2.00492e-20
1.35168e-21
2.0023e-20
1.30962e-21
2.45596e-21
9.25613e-22
5.27172e-21
1.35825e-21
5.21279e-21
-4.52366e-19
-1.48235e-18
-1.02141e-17
-2.92018e-17
-5.92905e-17
-1.49826e-16
-1.86848e-16
-4.19808e-16
-3.86544e-16
-7.72244e-16
-5.44709e-16
-9.63639e-16
-5.35899e-16
-8.34189e-16
-3.32953e-16
-4.53003e-16
-7.68958e-17
-9.09211e-17
6.94366e-17
4.88823e-17
1.82276e-16
3.57453e-17
3.68021e-16
6.45382e-17
6.29981e-16
1.53079e-16
8.10054e-16
1.56503e-16
1.45872e-15
8.32823e-17
3.6625e-15
9.50418e-17
-2.30379e-17
6.4648e-15
-2.53176e-22
-6.49906e-21
-3.7275e-22
-4.49775e-21
-3.62168e-23
-2.73653e-22
1.10098e-22
5.99105e-22
5.29386e-23
2.24019e-22
-5.43267e-22
-1.87576e-21
-2.43207e-19
-7.075e-19
-4.49384e-18
-1.12579e-17
-2.49227e-17
-5.45511e-17
-7.77868e-17
-1.50052e-16
-1.63185e-16
-2.78512e-16
-2.39439e-16
-3.6163e-16
-2.57013e-16
-3.4266e-16
-1.96861e-16
-2.30747e-16
-9.25379e-17
-9.488e-17
-1.32854e-17
-1.1844e-17
1.53351e-17
7.12491e-18
6.00288e-17
5.76438e-18
1.42733e-16
1.51413e-17
1.91811e-16
2.1153e-17
2.43155e-16
1.91002e-17
3.84032e-16
1.63113e-17
6.52655e-18
5.70102e-16
-3.16762e-22
-7.58774e-21
-5.41232e-22
-6.11592e-21
-4.08242e-22
-2.878e-21
-3.17281e-22
-1.60135e-21
-3.13159e-22
-1.22023e-21
-6.90172e-22
-2.17637e-21
-9.75775e-20
-2.57016e-19
-1.58795e-18
-3.57133e-18
-8.55459e-18
-1.66798e-17
-2.66428e-17
-4.54953e-17
-5.67558e-17
-8.53891e-17
-8.61288e-17
-1.14466e-16
-9.82595e-17
-1.15338e-16
-8.48328e-17
-8.77426e-17
-5.17894e-17
-4.70003e-17
-1.92167e-17
-1.52076e-17
-1.9032e-18
-1.30175e-18
2.7934e-18
1.06777e-18
1.13605e-17
7.8928e-19
2.28667e-17
9.23123e-19
4.27451e-17
1.92413e-18
7.68681e-17
3.05896e-18
1.85333e-18
9.67062e-17
-1.64304e-22
-3.66376e-21
-2.86978e-22
-3.03509e-21
-2.43094e-22
-1.60208e-21
-2.04895e-22
-9.63677e-22
-1.9949e-22
-7.21161e-22
-3.61431e-22
-1.05182e-21
-3.10599e-20
-7.50676e-20
-4.62223e-19
-9.48271e-19
-2.44252e-18
-4.3201e-18
-7.62262e-18
-1.175e-17
-1.64916e-17
-2.2313e-17
-2.57529e-17
-3.07035e-17
-3.07561e-17
-3.23503e-17
-2.87148e-17
-2.66129e-17
-2.02186e-17
-1.64522e-17
-1.00191e-17
-7.11465e-18
-2.98977e-18
-1.83578e-18
-2.78776e-19
-1.46004e-19
3.78649e-19
1.31855e-19
1.1536e-18
7.37262e-20
3.14834e-18
5.32184e-20
6.89531e-18
1.09578e-19
1.05509e-19
9.63788e-18
-6.09889e-23
-1.26435e-21
-1.0597e-22
-1.04876e-21
-9.29508e-23
-5.73654e-22
-8.0201e-23
-3.52809e-22
-7.78086e-23
-2.62438e-22
-1.29597e-22
-3.50697e-22
-8.09433e-21
-1.8119e-20
-1.1256e-19
-2.12965e-19
-5.86663e-19
-9.52811e-19
-1.83775e-18
-2.5906e-18
-4.03371e-18
-4.97273e-18
-6.45181e-18
-6.98772e-18
-7.98278e-18
-7.61024e-18
-7.87165e-18
-6.60127e-18
-6.06028e-18
-4.45655e-18
-3.48752e-18
-2.23558e-18
-1.41416e-18
-7.82879e-19
-3.83875e-19
-1.81009e-19
-3.56286e-20
-1.40197e-20
3.09099e-20
7.18766e-21
8.29906e-20
6.40886e-21
1.97597e-19
1.07541e-21
1.52242e-21
3.58559e-19
-1.82564e-23
-3.51868e-22
-3.09769e-23
-2.87027e-22
-2.72448e-23
-1.57749e-22
-2.35517e-23
-9.72145e-23
-2.26695e-23
-7.16617e-23
-3.57005e-23
-9.03497e-23
-1.75965e-21
-3.67326e-21
-2.31641e-20
-4.0734e-20
-1.19386e-19
-1.79558e-19
-3.75318e-19
-4.88102e-19
-8.33866e-19
-9.44862e-19
-1.35957e-18
-1.34866e-18
-1.72825e-18
-1.5041e-18
-1.77182e-18
-1.35236e-18
-1.44692e-18
-9.65625e-19
-9.10641e-19
-5.28221e-19
-4.29955e-19
-2.14722e-19
-1.52362e-19
-6.45938e-20
-3.82228e-20
-1.34763e-20
-4.77111e-21
-1.35726e-21
1.41028e-21
2.27463e-22
3.00058e-21
4.45419e-22
1.75414e-23
6.20179e-21
-4.62423e-24
-8.30046e-23
-7.5482e-24
-6.55796e-23
-6.52137e-24
-3.55037e-23
-5.56569e-24
-2.16228e-23
-5.27967e-24
-1.5703e-23
-7.93374e-24
-1.88648e-23
-3.23007e-22
-6.3211e-22
-4.05619e-21
-6.66759e-21
-2.06806e-20
-2.89776e-20
-6.51329e-20
-7.86214e-20
-1.45986e-19
-1.52926e-19
-2.41348e-19
-2.20417e-19
-3.1278e-19
-2.49552e-19
-3.29366e-19
-2.29462e-19
-2.79545e-19
-1.69518e-19
-1.85938e-19
-9.75337e-20
-9.57295e-20
-4.3008e-20
-3.85026e-20
-1.45994e-20
-1.21221e-20
-3.79798e-21
-2.88752e-21
-7.24931e-22
-4.26247e-22
-8.19527e-23
1.83155e-23
8.56192e-25
3.52731e-24
1.4804e-22
-1.01467e-24
-1.70223e-23
-1.57395e-24
-1.28554e-23
-1.31535e-24
-6.75229e-24
-1.09515e-24
-4.01746e-24
-1.01639e-24
-2.85459e-24
-1.46028e-24
-3.27546e-24
-5.0483e-23
-9.30137e-23
-6.07225e-22
-9.37236e-22
-3.05873e-21
-4.0108e-21
-9.62153e-21
-1.0826e-20
-2.16595e-20
-2.10557e-20
-3.60923e-20
-3.04393e-20
-4.73182e-20
-3.46773e-20
-5.06354e-20
-3.22152e-20
-4.39641e-20
-2.41927e-20
-3.01877e-20
-1.42691e-20
-1.63209e-20
-6.55536e-21
-7.02659e-21
-2.36043e-21
-2.4439e-21
-6.71173e-22
-6.91412e-22
-1.50237e-22
-1.55652e-22
-2.55105e-23
-2.60289e-23
-2.99538e-24
2.69131e-24
8.18941e-23
-1.95279e-25
-3.07729e-24
-2.85043e-25
-2.19674e-24
-2.27626e-25
-1.10569e-24
-1.82991e-25
-6.36119e-25
-1.64925e-25
-4.39006e-25
-2.26227e-25
-4.80479e-25
-6.75713e-24
-1.17662e-23
-7.79727e-23
-1.13426e-22
-3.87015e-22
-4.7658e-22
-1.21079e-21
-1.27385e-21
-2.72271e-21
-2.46227e-21
-4.542e-21
-3.54263e-21
-5.97415e-21
-4.0221e-21
-6.4292e-21
-3.72944e-21
-5.63114e-21
-2.80116e-21
-3.91743e-21
-1.65749e-21
-2.16588e-21
-7.69803e-22
-9.63569e-22
-2.82525e-22
-3.50973e-22
-8.27173e-23
-1.06381e-22
-1.9411e-23
-2.70275e-23
-3.61223e-24
-5.58172e-24
-5.01904e-25
2.0852e-24
7.36762e-23
-3.31834e-26
-4.94229e-25
-4.52285e-26
-3.30428e-25
-3.41773e-26
-1.57753e-25
-2.62895e-26
-8.69479e-26
-2.28408e-26
-5.78473e-26
-2.98138e-26
-6.01849e-26
-7.77824e-25
-1.28471e-24
-8.60767e-24
-1.18413e-23
-4.19381e-23
-4.86448e-23
-1.29806e-22
-1.28002e-22
-2.89699e-22
-2.44092e-22
-4.80049e-22
-3.46382e-22
-6.27681e-22
-3.87691e-22
-6.71887e-22
-3.54086e-22
-5.8553e-22
-2.61591e-22
-4.05684e-22
-1.52062e-22
-2.24358e-22
-6.94772e-23
-1.0039e-22
-2.51174e-23
-3.70001e-23
-7.24168e-24
-1.14431e-23
-1.67007e-24
-3.01495e-24
-3.04577e-25
-5.71254e-25
-3.52237e-26
8.61345e-25
5.79891e-23
-4.99619e-27
-7.08126e-26
-6.32124e-27
-4.4017e-26
-4.48465e-27
-1.97663e-26
-3.27432e-27
-1.03499e-26
-2.72266e-27
-6.58893e-27
-3.36701e-27
-6.48649e-27
-7.72343e-26
-1.21457e-25
-8.18161e-25
-1.06799e-24
-3.89402e-24
-4.26659e-24
-1.18494e-23
-1.09745e-23
-2.60482e-23
-2.04679e-23
-4.24936e-23
-2.83485e-23
-5.46594e-23
-3.08889e-23
-5.74875e-23
-2.73696e-23
-4.91158e-23
-1.95184e-23
-3.3301e-23
-1.08913e-23
-1.80311e-23
-4.75389e-24
-7.91219e-24
-1.63143e-24
-2.86426e-24
-4.41332e-25
-8.71647e-25
-9.3359e-26
-2.26555e-25
-1.48328e-26
2.68764e-25
2.71863e-27
2.37876e-26
3.44139e-23
-6.67667e-28
-9.07041e-27
-7.8066e-28
-5.21269e-27
-5.16724e-28
-2.18685e-27
-3.55553e-28
-1.07968e-27
-2.80997e-28
-6.52933e-28
-3.27566e-28
-6.0495e-28
-6.62974e-27
-9.96772e-27
-6.70227e-26
-8.33214e-26
-3.09819e-25
-3.21622e-25
-9.20103e-25
-8.02001e-25
-1.97488e-24
-1.44816e-24
-3.13907e-24
-1.93371e-24
-3.92436e-24
-2.02092e-24
-3.99803e-24
-1.70594e-24
-3.29242e-24
-1.14803e-24
-2.14134e-24
-5.97708e-25
-1.10845e-24
-2.40204e-25
-4.63818e-25
-7.44579e-26
-1.59613e-25
-1.75758e-26
-4.5988e-26
-3.00385e-27
-1.08367e-26
-2.86175e-28
1.97787e-25
-6.10285e-28
-2.28455e-25
1.85581e-23
-7.92504e-29
-1.03968e-27
-8.53467e-29
-5.50122e-28
-5.24433e-29
-2.14455e-28
-3.3795e-29
-9.91698e-29
-2.52161e-29
-5.6572e-29
-2.75581e-29
-4.90434e-29
-4.92759e-28
-7.11696e-28
-4.73461e-27
-5.62932e-27
-2.11155e-26
-2.08393e-26
-6.06893e-26
-4.98996e-26
-1.25908e-25
-8.62155e-26
-1.92663e-25
-1.09394e-25
-2.30769e-25
-1.07709e-25
-2.2387e-25
-8.46878e-26
-1.74073e-25
-5.22382e-26
-1.05961e-25
-2.44199e-26
-5.08943e-26
-8.5609e-27
-1.95818e-26
-2.20428e-27
-6.12686e-27
-3.86849e-28
-1.57859e-27
-3.1394e-29
3.80967e-28
-9.08752e-30
1.89365e-25
-4.42902e-27
-4.35282e-25
1.16485e-23
-8.35633e-30
-1.06698e-28
-8.26788e-30
-5.18252e-29
-4.69795e-30
-1.86953e-29
-2.81963e-30
-8.05043e-30
-1.97373e-30
-4.30314e-30
-2.01072e-30
-3.4694e-30
-3.17506e-29
-4.43031e-29
-2.88513e-28
-3.29738e-28
-1.23208e-27
-1.16084e-27
-3.39468e-27
-2.64038e-27
-6.72871e-27
-4.30615e-27
-9.77307e-27
-5.10354e-27
-1.10243e-26
-4.63097e-27
-9.97055e-27
-3.29466e-27
-7.12993e-27
-1.7903e-27
-3.931e-27
-7.09462e-28
-1.68e-27
-1.97441e-28
-5.62406e-28
-3.46378e-29
-1.48293e-28
-1.83773e-30
-2.85875e-29
-4.72142e-32
1.03975e-27
-3.82779e-29
1.74561e-25
-9.66976e-27
-7.25278e-25
1.02569e-23
-7.82482e-31
-9.80867e-30
-7.10006e-31
-4.36443e-30
-3.71943e-31
-1.45236e-30
-2.06921e-31
-5.79458e-31
-1.35074e-31
-2.88403e-31
-1.27526e-31
-2.14918e-31
-1.77534e-30
-2.4098e-30
-1.5169e-29
-1.67687e-29
-6.15088e-29
-5.56163e-29
-1.60727e-28
-1.18701e-28
-3.00337e-28
-1.79873e-28
-4.0722e-28
-1.95075e-28
-4.23616e-28
-1.58704e-28
-3.47684e-28
-9.82946e-29
-2.20732e-28
-4.44021e-29
-1.0515e-28
-1.35154e-29
-3.74128e-29
-2.39086e-30
-9.84523e-30
-6.65166e-32
-1.80839e-30
3.66287e-34
4.61021e-30
-1.11657e-31
1.22903e-27
-9.67823e-29
2.01121e-25
-1.62902e-26
-8.71929e-25
1.0374e-23
-6.50327e-32
-8.08467e-31
-5.40513e-32
-3.29074e-31
-2.60461e-32
-1.00786e-31
-1.33767e-32
-3.70982e-32
-8.09765e-33
-1.7092e-32
-7.04408e-33
-1.16998e-32
-8.62248e-32
-1.14828e-31
-6.88282e-31
-7.41707e-31
-2.62561e-30
-2.2937e-30
-6.42918e-30
-4.53081e-30
-1.11529e-29
-6.264e-30
-1.38398e-29
-6.06435e-30
-1.29357e-29
-4.27054e-30
-9.30022e-30
-2.18204e-30
-4.98714e-30
-7.46262e-31
-1.90552e-30
-1.40707e-31
-4.9834e-31
-3.19946e-33
-7.90944e-32
1.87448e-35
-7.61237e-33
3.16489e-36
2.03206e-30
-7.17171e-32
1.44323e-27
-1.17051e-28
1.98309e-25
-1.5835e-26
-5.35811e-25
7.03156e-24
-4.79324e-33
-5.98437e-32
-3.6469e-33
-2.22601e-32
-1.61401e-33
-6.26439e-33
-7.62657e-34
-2.11966e-33
-4.25952e-34
-8.99105e-34
-3.39452e-34
-5.61898e-34
-3.64127e-33
-4.8084e-33
-2.69628e-32
-2.86051e-32
-9.57903e-32
-8.15522e-32
-2.1687e-31
-1.46817e-31
-3.43138e-31
-1.81316e-31
-3.80591e-31
-1.52051e-31
-3.09297e-31
-8.85118e-32
-1.85674e-31
-3.44513e-32
-7.80011e-32
-7.46464e-33
-2.08965e-32
-3.21032e-34
-2.89877e-33
5.9071e-37
-3.14054e-34
1.05043e-37
-2.68971e-35
-4.73612e-38
5.38355e-31
-1.96231e-32
9.03651e-28
-5.69581e-29
9.72732e-26
-6.37825e-27
-1.8813e-25
2.55293e-24
-3.12941e-34
-3.98893e-33
-2.17973e-34
-1.35476e-33
-8.85248e-35
-3.49897e-34
-3.83839e-35
-1.08503e-34
-1.96888e-35
-4.21627e-35
-1.42956e-35
-2.3914e-35
-1.3387e-34
-1.77649e-34
-9.12562e-34
-9.65147e-34
-2.98644e-33
-2.50583e-33
-6.15921e-33
-4.04165e-33
-8.70986e-33
-4.35083e-33
-8.39224e-33
-3.04567e-33
-5.68537e-33
-1.37717e-33
-2.66285e-33
-3.58529e-34
-7.73105e-34
-2.9533e-35
-1.05607e-34
1.54318e-38
-9.26146e-36
2.69819e-39
-7.75465e-37
2.74917e-40
1.27584e-36
-6.78838e-39
8.88988e-32
-1.37779e-33
2.4107e-28
-9.38417e-30
2.46156e-26
-1.405e-27
-6.8581e-26
6.58034e-25
-1.80695e-35
-2.40427e-34
-1.15326e-35
-7.44737e-35
-4.29765e-36
-1.76353e-35
-1.7067e-36
-4.99887e-36
-8.00875e-37
-1.77147e-36
-5.27077e-37
-9.06666e-37
-4.29154e-36
-5.81968e-36
-2.67147e-35
-2.86181e-35
-7.95928e-35
-6.6782e-35
-1.47097e-34
-9.46922e-35
-1.81628e-34
-8.63754e-35
-1.46875e-34
-4.82099e-35
-7.84864e-35
-1.5508e-35
-2.59083e-35
-2.09091e-36
-4.05637e-36
2.52894e-40
-2.78563e-37
7.29388e-41
-1.87096e-38
7.34071e-42
-1.23435e-39
2.9171e-43
2.61376e-38
-4.72235e-40
4.09278e-33
-1.00446e-36
2.62915e-29
-5.93091e-31
3.98284e-27
-3.04754e-28
-3.66489e-26
2.04452e-25
-9.20786e-37
-1.31824e-35
-5.39636e-37
-3.71728e-36
-1.84662e-37
-8.06225e-37
-6.70968e-38
-2.08419e-37
-2.87122e-38
-6.70793e-38
-1.70481e-38
-3.08139e-38
-1.20208e-37
-1.701e-37
-6.77607e-37
-7.50132e-37
-1.8151e-36
-1.55166e-36
-2.9523e-36
-1.89463e-36
-3.09906e-36
-1.41746e-36
-2.0167e-36
-5.95497e-37
-7.89113e-37
-1.19306e-37
-1.55494e-37
-3.42011e-39
-8.91319e-39
2.51718e-42
-5.26468e-40
2.39017e-43
-3.08721e-41
1.53308e-44
-8.95168e-43
-4.97685e-44
1.29997e-39
-7.9048e-41
2.21738e-36
-5.27447e-38
1.19884e-30
-9.21717e-33
6.76838e-28
-7.26877e-29
-1.47465e-26
8.69299e-26
-4.13179e-38
-6.62793e-37
-2.23096e-38
-1.69604e-37
-7.02296e-39
-3.36425e-38
-2.33469e-39
-7.91457e-39
-9.08952e-40
-2.30492e-39
-4.84929e-40
-9.45582e-40
-2.94998e-39
-4.46943e-39
-1.49285e-38
-1.75124e-38
-3.54825e-38
-3.16553e-38
-4.9805e-38
-3.25558e-38
-4.31114e-38
-1.92484e-38
-2.1442e-38
-5.65699e-39
-5.53945e-39
-5.62121e-40
-4.76399e-40
4.71273e-44
-2.25625e-41
6.72781e-45
-1.00982e-42
4.10286e-46
-4.37719e-44
1.89448e-47
2.64035e-43
-3.54917e-45
1.59809e-40
-3.10867e-42
9.06754e-38
-3.4349e-39
1.43295e-32
-3.08565e-34
1.21219e-28
-1.04671e-29
-2.53667e-27
2.42443e-26
-1.62789e-39
-3.08657e-38
-8.14105e-40
-7.13099e-39
-2.36545e-40
-1.29078e-39
-7.20293e-41
-2.75741e-40
-2.54769e-41
-7.24236e-41
-1.21706e-41
-2.64184e-41
-6.36602e-41
-1.0652e-40
-2.86686e-40
-3.67562e-40
-5.96353e-40
-5.72474e-40
-7.07217e-40
-4.84655e-40
-4.87636e-40
-2.17253e-40