/*--------------------------------*- C++ -*----------------------------------*\
  =========                 |
  \\      /  F ield         | OpenFOAM: The Open Source CFD Toolbox
   \\    /   O peration     | Website:  https://openfoam.org
    \\  /    A nd           | Version:  9
     \\/     M anipulation  |
\*---------------------------------------------------------------------------*/
FoamFile
{
    format      ascii;
    class       volScalarField;
    location    "0.88";
    object      p;
}
// * * * * * * * * * * * * * * * * * * * * * * * * * * * * * * * * * * * * * //

dimensions      [1 -1 -2 0 0 0 0];

internalField   nonuniform List<scalar> 
2268
(
884.53
877.514
869.676
861.287
853.359
846.222
840.186
835.508
832.379
830.882
830.97
832.413
834.745
837.452
840.005
841.592
841.527
838.878
832.184
819.021
798.871
775.312
761.732
827.337
820.199
812.35
804.14
796.361
789.231
783.088
778.238
774.899
773.15
772.91
773.927
775.789
777.905
779.637
780.217
778.968
774.61
766.063
751.844
732.121
711.629
700.021
769.705
762.351
754.711
746.801
739.17
732.049
725.821
720.832
717.327
715.381
714.892
715.582
717
718.509
719.365
718.719
715.859
709.817
699.682
684.845
665.911
647.32
636.31
711.875
704.041
696.468
688.757
681.186
674.036
667.726
662.634
659.022
656.967
656.359
656.906
658.12
659.313
659.646
658.162
654.126
646.697
635.247
619.789
601.103
582.431
571.027
653.762
645.343
637.582
629.899
622.289
615.071
608.687
603.538
599.897
597.845
597.281
597.911
599.21
600.416
600.616
598.669
593.79
585.125
572.081
555.324
536.307
517.513
504.08
595.208
586.23
578.091
570.291
562.563
555.245
548.797
543.634
540.032
538.085
537.72
538.656
540.32
541.857
542.261
540.095
534.455
524.256
508.774
489.793
470.168
452.193
436.186
536.106
526.657
518.03
510.014
502.114
494.673
488.171
483.028
479.521
477.765
477.738
479.19
481.494
483.65
484.581
482.351
475.788
463.355
444.413
422.437
401.197
382.446
364.368
476.414
466.645
457.501
449.207
441.119
433.555
427.01
421.911
418.54
417.045
417.479
419.639
422.819
425.763
427.621
425.272
417.021
401.437
379.228
354.287
328.788
303.44
281.6
1054.36
1003.28
917.471
784.168
656.973
577.125
554.112
578.6
620.245
643.448
631.53
598.633
572.544
557.225
553.908
559.544
557.423
535.877
521.97
1007.93
960.558
871.716
722.605
583.525
496.56
471.949
494.915
534.894
560.865
557.237
533.005
513.088
498.993
490.661
489.734
485.932
469.437
463.812
969.57
903.031
798.644
642.963
505.738
422.189
403.812
430.028
469.132
498.333
499.258
474.074
452.245
438.909
428.293
424.664
421.188
410.308
406.2
919.86
826.685
705.263
549.944
418.604
343.904
336.597
367.465
406.258
440.726
450.971
425.905
399.135
382.947
371.492
368.486
363.45
354.693
349.374
850.596
737.508
605.154
449.772
325.722
272.693
274.336
300.492
339.242
380.705
394.917
374.514
352.22
335.815
325.751
315.717
302.974
294.601
290.248
758.756
640.956
504.898
351.14
259.296
236.057
234.22
241.681
275.925
326.089
343.727
315.36
299.618
290.082
277.271
258.564
237.501
226.572
226.232
645.252
542.407
410.085
274.116
233.079
225.061
221.847
218.228
230.7
282.649
302.896
251.724
238.978
237.591
223.121
197.198
171.092
155.347
159.144
512.809
446.011
328.406
234.54
221.611
219.206
220.429
216.531
216.046
252.838
262.501
204.586
181.637
186.3
170.581
147.917
127.553
114.611
114.032
382.26
372.197
362.264
353.421
345.01
337.244
330.642
325.634
322.5
321.469
322.796
326.396
331.384
335.91
340.119
337.004
325.079
306.411
284.428
256.486
218.79
176.983
133.619
252.458
241.156
229.741
219.275
209.563
201.036
194.256
189.452
186.611
186.131
189.226
196.459
206.973
219.779
226.42
222.662
216.493
218.96
205.52
163.135
106.545
69.8802
32.962
121.672
108.951
97.374
86.4775
77.0955
69.7799
64.6914
61.4627
59.5172
59.0459
61.5701
67.89
77.7531
92.3954
108.367
128.15
160.615
181.861
163.585
101.08
43.2615
37.3121
29.0692
27.7905
19.9019
14.6122
10.1397
7.07902
5.16374
4.04131
3.40427
3.01693
2.87167
3.18225
3.952
5.45434
9.09475
18.3171
54.0527
107.914
133.679
116.671
58.806
36.0099
36.1629
35.3154
-0.794333
-1.01169
-0.757147
-0.738728
-0.733781
-0.737955
-0.750899
-0.768509
-0.786583
-0.801677
-0.809099
-0.78372
-0.653125
-0.206759
1.32961
7.25016
31.3593
70.787
82.7342
52.7968
37.9889
36.3589
36.2648
-1.10939
-1.15819
-1.11736
-1.11729
-1.11125
-1.10132
-1.09124
-1.0824
-1.07463
-1.06797
-1.06395
-1.06201
-1.05186
-1.01047
-0.900166
-0.502247
1.52743
25.7168
57.4277
52.3212
38.8166
36.3148
35.9954
-1.23132
-1.24304
-1.21973
-1.21484
-1.20743
-1.20056
-1.19479
-1.1894
-1.18283
-1.17372
-1.16172
-1.14536
-1.11885
-1.08719
-1.14266
-1.42441
-1.2092
2.25211
20.3386
35.89
35.9695
36.1902
36.0935
-1.35267
-1.35548
-1.34096
-1.33589
-1.33071
-1.32717
-1.32484
-1.32264
-1.31907
-1.31305
-1.30515
-1.29785
-1.29592
-1.3122
-1.40042
-1.64566
-1.87051
-1.66644
1.04898
11.6327
19.8583
29.147
36.3246
-1.48813
-1.48838
-1.48109
-1.47819
-1.47508
-1.47319
-1.4725
-1.47253
-1.47253
-1.47241
-1.47447
-1.48516
-1.51707
-1.58994
-1.72781
-1.94268
-2.17945
-2.34493
-2.25062
-0.044131
3.28208
9.44358
24.4004
-1.62516
-1.62361
-1.62013
-1.61809
-1.61679
-1.61685
-1.61847
-1.62168
-1.62642
-1.63336
-1.64564
-1.67055
-1.72116
-1.81536
-1.96695
-2.16537
-2.36246
-2.50585
-2.53616
-2.57825
-1.18444
-4.25563
0.154316
-1.76084
-1.75901
-1.75686
-1.75598
-1.75647
-1.75862
-1.76274
-1.76924
-1.7786
-1.79192
-1.81229
-1.84609
-1.90364
-1.99735
-2.13433
-2.30921
-2.4801
-2.60845
-2.6635
-2.63857
-2.83463
-2.91035
-5.45062
-1.89722
-1.8955
-1.89421
-1.89437
-1.89625
-1.90007
-1.90622
-1.91535
-1.92827
-1.94629
-1.97205
-2.01045
-2.06888
-2.1554
-2.2741
-2.41862
-2.5644
-2.68255
-2.75294
-2.75706
-2.72549
-2.97562
-3.79529
-2.03395
-2.03237
-2.03165
-2.03256
-2.03545
-2.04052
-2.04817
-2.05912
-2.07433
-2.09514
-2.12368
-2.16344
-2.2193
-2.29626
-2.39649
-2.51538
-2.63839
-2.74644
-2.82581
-2.87252
-2.89233
-2.87969
-2.72564
-2.17007
-2.16866
-2.1683
-2.16975
-2.17334
-2.17927
-2.1879
-2.19993
-2.2163
-2.23826
-2.26746
-2.30627
-2.35772
-2.42476
-2.50851
-2.60604
-2.70883
-2.80492
-2.88465
-2.94615
-2.99377
-3.01779
-2.97626
-2.3053
-2.30403
-2.30387
-2.30562
-2.30964
-2.31605
-2.3252
-2.33767
-2.35429
-2.37616
-2.40453
-2.44097
-2.48727
-2.54505
-2.61474
-2.69446
-2.77921
-2.86176
-2.93539
-2.99705
-3.04817
-3.08869
-3.11395
-2.4395
-2.4383
-2.43819
-2.44005
-2.44421
-2.45078
-2.46004
-2.47245
-2.48868
-2.50962
-2.53621
-2.5695
-2.61051
-2.65999
-2.71796
-2.78305
-2.85218
-2.92091
-2.98467
-3.0402
-3.08617
-3.12142
-3.14255
-2.57252
-2.57133
-2.57117
-2.57296
-2.57704
-2.58351
-2.59255
-2.60451
-2.61992
-2.63942
-2.66373
-2.69354
-2.72939
-2.77156
-2.8198
-2.87303
-2.92915
-2.98524
-3.03817
-3.0852
-3.12421
-3.15327
-3.16969
-2.70432
-2.70308
-2.70279
-2.7044
-2.70823
-2.71436
-2.72294
-2.73419
-2.7485
-2.76632
-2.78814
-2.81442
-2.84543
-2.88119
-2.92133
-2.96493
-3.01044
-3.0558
-3.09874
-3.13706
-3.16876
-3.19191
-3.20434
-2.83489
-2.83357
-2.83312
-2.83447
-2.83794
-2.84359
-2.85152
-2.86188
-2.87492
-2.89095
-2.91028
-2.93318
-2.95977
-2.98995
-3.0233
-3.05903
-3.09595
-3.1325
-3.16695
-3.19753
-3.22251
-3.24025
-3.24894
-2.96429
-2.96289
-2.96225
-2.96332
-2.96638
-2.97145
-2.97862
-2.98798
-2.99968
-3.01391
-3.03085
-3.05063
-3.07327
-3.09861
-3.12625
-3.15552
-3.18545
-3.21484
-3.24233
-3.26648
-3.28586
-3.29907
-3.30465
-3.09259
-3.0911
-3.0903
-3.09109
-3.09371
-3.09818
-3.10453
-3.11285
-3.1232
-3.13569
-3.1504
-3.16736
-3.18652
-3.2077
-3.23055
-3.25448
-3.27872
-3.30231
-3.32416
-3.34311
-3.35798
-3.36764
-3.37089
-3.21987
-3.21829
-3.21735
-3.21788
-3.22009
-3.22396
-3.22951
-3.23679
-3.24584
-3.25669
-3.26935
-3.2838
-3.29994
-3.31758
-3.33639
-3.3559
-3.37548
-3.39436
-3.41167
-3.42645
-3.43776
-3.44467
-3.44624
-3.3462
-3.34454
-3.34349
-3.3438
-3.34563
-3.34895
-3.35374
-3.36004
-3.36786
-3.3772
-3.38802
-3.40026
-3.4138
-3.42843
-3.44387
-3.45973
-3.47548
-3.49053
-3.50415
-3.5156
-3.52409
-3.5289
-3.52927
-3.47168
-3.46996
-3.46882
-3.46894
-3.47043
-3.47323
-3.47733
-3.48273
-3.48943
-3.4974
-3.50659
-3.51691
-3.52822
-3.54033
-3.55296
-3.56581
-3.57843
-3.59035
-3.601
-3.60978
-3.61606
-3.61926
-3.6188
-3.5964
-3.59463
-3.59342
-3.59337
-3.59457
-3.59691
-3.60038
-3.60497
-3.61066
-3.61742
-3.62518
-3.63383
-3.64325
-3.65323
-3.66355
-3.67393
-3.68401
-3.69341
-3.70167
-3.70832
-3.71287
-3.71487
-3.71385
-3.72045
-3.71866
-3.7174
-3.7172
-3.71812
-3.72006
-3.72298
-3.72685
-3.73165
-3.73733
-3.74384
-3.75106
-3.75886
-3.76707
-3.77548
-3.78385
-3.79188
-3.79925
-3.80562
-3.81061
-3.81383
-3.81494
-3.81358
-3.84394
-3.84214
-3.84085
-3.84053
-3.8412
-3.84278
-3.8452
-3.84843
-3.85245
-3.8572
-3.86262
-3.86861
-3.87505
-3.88177
-3.8886
-3.89533
-3.90171
-3.90748
-3.91236
-3.91606
-3.91828
-3.91875
-3.9172
-3.96695
-3.96517
-3.96386
-3.96344
-3.9639
-3.96515
-3.96713
-3.9698
-3.97314
-3.97708
-3.98156
-3.9865
-3.99177
-3.99725
-4.00277
-4.00816
-4.01322
-4.01772
-4.02144
-4.02416
-4.02564
-4.02567
-4.02405
-4.08957
-4.08782
-4.08652
-4.08601
-4.08629
-4.08725
-4.08885
-4.09104
-4.09378
-4.09701
-4.10069
-4.10472
-4.10902
-4.11345
-4.1179
-4.12219
-4.12618
-4.12968
-4.1325
-4.13448
-4.13542
-4.13517
-4.13356
-4.21187
-4.21017
-4.20889
-4.20832
-4.20844
-4.20916
-4.21042
-4.21219
-4.21441
-4.21705
-4.22004
-4.2233
-4.22677
-4.23034
-4.23388
-4.23729
-4.24042
-4.24312
-4.24526
-4.24668
-4.24725
-4.24683
-4.24531
-4.33392
-4.33228
-4.33104
-4.33043
-4.33042
-4.33093
-4.33191
-4.33331
-4.3351
-4.33722
-4.33962
-4.34224
-4.34501
-4.34785
-4.35066
-4.35334
-4.35578
-4.35787
-4.35948
-4.3605
-4.36082
-4.36033
-4.35892
-4.45577
-4.45421
-4.45302
-4.45238
-4.45228
-4.45262
-4.45336
-4.45446
-4.45587
-4.45755
-4.45946
-4.46153
-4.46372
-4.46595
-4.46816
-4.47025
-4.47215
-4.47375
-4.47497
-4.47571
-4.47587
-4.47537
-4.47411
-4.57747
-4.576
-4.57487
-4.57424
-4.57406
-4.57427
-4.57482
-4.57565
-4.57674
-4.57805
-4.57953
-4.58115
-4.58285
-4.58459
-4.5863
-4.58793
-4.5894
-4.59063
-4.59156
-4.5921
-4.59217
-4.59172
-4.59064
-4.69905
-4.69768
-4.69664
-4.69603
-4.69581
-4.69591
-4.69629
-4.69691
-4.69772
-4.69871
-4.69984
-4.70107
-4.70237
-4.70371
-4.70503
-4.70628
-4.70742
-4.70837
-4.70909
-4.7095
-4.70955
-4.70917
-4.70829
-4.82055
-4.8193
-4.81836
-4.81777
-4.81753
-4.81755
-4.81779
-4.81822
-4.81881
-4.81952
-4.82034
-4.82125
-4.82223
-4.82324
-4.82426
-4.82523
-4.82611
-4.82685
-4.82742
-4.82777
-4.82783
-4.82755
-4.82687
-4.94197
-4.94087
-4.94003
-4.9395
-4.93924
-4.9392
-4.93933
-4.9396
-4.93999
-4.94047
-4.94103
-4.94167
-4.94239
-4.94315
-4.94393
-4.94468
-4.94537
-4.94597
-4.94644
-4.94675
-4.94686
-4.94671
-4.94623
-5.06334
-5.0624
-5.06168
-5.06121
-5.06095
-5.06086
-5.0609
-5.06104
-5.06126
-5.06153
-5.06186
-5.06227
-5.06278
-5.06338
-5.06399
-5.06458
-5.06513
-5.06563
-5.06604
-5.06635
-5.06652
-5.0665
-5.06622
-5.18466
-5.18389
-5.18331
-5.18289
-5.18265
-5.18253
-5.1825
-5.18253
-5.18259
-5.18268
-5.18281
-5.18301
-5.18337
-5.18386
-5.18438
-5.18487
-5.18533
-5.18577
-5.18615
-5.18648
-5.18672
-5.18682
-5.18674
-5.30591
-5.30534
-5.30488
-5.30454
-5.30432
-5.30419
-5.30411
-5.30404
-5.30397
-5.3039
-5.30382
-5.30381
-5.30408
-5.30458
-5.30507
-5.30552
-5.30593
-5.30633
-5.30671
-5.30707
-5.30738
-5.3076
-5.30769
-5.42707
-5.4267
-5.42638
-5.42613
-5.42597
-5.42585
-5.42574
-5.4256
-5.42541
-5.42516
-5.42482
-5.42449
-5.42476
-5.4255
-5.42608
-5.42652
-5.42692
-5.42731
-5.4277
-5.4281
-5.42848
-5.42881
-5.42904
-5.54811
-5.54797
-5.54785
-5.54776
-5.54771
-5.54765
-5.54753
-5.54732
-5.54699
-5.54646
-5.54559
-5.54443
-5.54481
-5.54647
-5.54736
-5.54785
-5.54826
-5.54866
-5.5491
-5.54955
-5.55001
-5.55043
-5.55077
-5.66897
-5.66906
-5.66917
-5.66927
-5.66934
-5.66935
-5.66925
-5.66903
-5.66862
-5.66793
-5.66658
-5.6641
-5.66403
-5.6672
-5.66846
-5.66905
-5.66951
-5.67
-5.67053
-5.6711
-5.67169
-5.67225
-5.67274
109.165
101.779
111.758
81.7282
20.7231
41.2302
96.343
152.264
10.5939
25.0741
85.5659
148.329
32.2511
21.3564
32.7921
69.4741
35.9763
35.2895
34.5877
35.7368
36.1168
36.1743
35.7784
34.0993
36.1853
36.234
36.2309
36.1928
36.6692
36.8635
37.2034
37.5585
33.7533
35.0125
36.2125
37.0194
11.7623
23.5991
27.3677
31.7871
-9.55102
-5.59639
0.378587
5.03718
-1.7798
0.996825
-1.17961
-5.88041
-2.81104
-3.85515
-4.76048
-4.74125
-2.9537
-2.95306
-2.91847
-2.87349
-3.14692
-3.15867
-3.14084
-3.08013
-3.14836
-3.14803
-3.14208
-3.12605
-3.17109
-3.16732
-3.15974
-3.14864
-3.20319
-3.19808
-3.19
-3.17953
-3.24626
-3.24083
-3.23302
-3.22335
-3.30111
-3.29571
-3.28832
-3.27951
-3.36695
-3.36179
-3.35494
-3.34697
-3.44219
-3.43742
-3.43122
-3.42409
-3.5253
-3.52099
-3.51547
-3.50919
-3.61501
-3.61116
-3.60632
-3.60083
-3.71031
-3.70689
-3.70265
-3.69785
-3.81031
-3.80729
-3.80355
-3.79936
-3.91423
-3.91154
-3.90826
-3.90459
-4.02136
-4.01899
-4.01611
-4.01291
-4.13116
-4.12908
-4.12657
-4.12379
-4.24318
-4.24137
-4.23921
-4.23681
-4.35706
-4.35551
-4.35365
-4.35162
-4.47251
-4.47119
-4.46963
-4.46791
-4.58929
-4.58819
-4.58689
-4.58546
-4.70718
-4.70627
-4.70521
-4.70405
-4.82599
-4.82527
-4.82442
-4.82349
-4.94556
-4.94501
-4.94436
-4.94364
-5.06576
-5.06536
-5.06489
-5.06436
-5.18646
-5.1862
-5.18589
-5.18553
-5.30757
-5.30744
-5.30726
-5.30705
-5.42906
-5.42902
-5.42896
-5.42886
-5.55091
-5.55096
-5.55096
-5.55094
-5.67299
-5.67311
-5.6732
-5.67325
273.191
303.29
244.976
216.522
211.405
210.963
211.776
217.601
216.575
225.72
211.41
177.983
154.102
144.995
134.906
119.886
108.198
99.9519
98.4529
216.876
210.358
203.38
201.831
200.587
195.546
186.212
193.029
190.251
185.059
169.906
157.008
141.717
129.267
118.545
108.954
97.7133
87.6861
88.398
193.152
163.967
170.338
181.798
178.941
165.157
159.638
160.348
160.329
154.201
149.206
140.771
128.801
122.939
110.275
99.9948
85.0804
72.2332
74.5875
117.261
104.701
110.641
126.863
134.896
139.332
135.485
124.973
130.142
128.928
120.75
118.028
110.151
102.483
89.5329
81.3046
62.7939
60.4416
64.1151
45.7236
51.1801
62.7132
73.841
88.5195
105.776
104.684
92.0892
108.97
108.826
92.165
87.0114
84.5733
74.6587
60.084
49.8578
32.0052
42.1591
51.2307
32.6626
36.4651
39.7088
43.0819
51.6788
65.7905
67.5769
79.3409
99.4236
88.7505
64.5814
55.936
58.6192
48.99
29.5858
21.6117
18.2323
22.5347
31.4708
36.3925
37.5143
39.2381
40.0153
40.1869
41.5464
45.9492
62.9095
81.3134
65.0661
38.1587
34.1531
37.7897
29.058
12.2124
8.99525
9.58822
11.848
15.4453
37.8795
38.2376
38.5037
37.9986
37.2861
37.4888
40.3688
50.5782
56.72
37.7005
22.0788
21.194
20.9411
12.5516
3.58248
2.42381
3.8419
4.92063
5.96332
37.6236
38.0861
38.2552
37.8799
38.0808
38.0357
38.5132
39.5074
35.3967
16.543
8.01537
9.16863
7.61651
2.44343
-0.278963
-0.1851
0.574406
0.0519844
0.633847
35.6204
36.9171
37.698
37.7045
37.4913
36.7629
35.4091
28.2013
8.31915
0.0252776
0.652859
0.251433
0.718116
-0.916401
-1.27668
-1.05153
-0.699039
-1.22246
-1.47741
15.2045
26.5208
31.7288
34.9818
32.9548
29.5686
20.5139
4.48503
-1.64051
-0.892621
-1.03822
-1.47591
-1.54314
-1.42491
-1.39097
-1.04727
-0.896029
-1.27768
-1.54366
-6.41661
-0.34746
4.02491
12.4224
8.81517
5.65793
-0.270645
-1.81832
-1.38191
-1.19173
-1.45235
-1.56945
-1.57705
-1.457
-1.32528
-1.07227
-1.02192
-1.23528
-1.28019
-3.97218
-4.00029
-5.29583
-4.90521
-4.0412
-2.9654
-2.5112
-1.91761
-1.36542
-1.56275
-1.67948
-1.65707
-1.61467
-1.5144
-1.38483
-1.22657
-1.18506
-1.23754
-1.20561
-3.0132
-3.67921
-3.76284
-3.69106
-3.53743
-3.1916
-2.37342
-1.87476
-1.83153
-1.91854
-1.8884
-1.7998
-1.73269
-1.64055
-1.53202
-1.42342
-1.37156
-1.34856
-1.28256
-2.96346
-2.92842
-2.83175
-2.84645
-2.69472
-2.51854
-2.33372
-2.20936
-2.18876
-2.14397
-2.04595
-1.95392
-1.87789
-1.79576
-1.70947
-1.62874
-1.57305
-1.52913
-1.47095
-3.08283
-3.03213
-2.92747
-2.79942
-2.76636
-2.64392
-2.50443
-2.41205
-2.34989
-2.27053
-2.1792
-2.10074
-2.03306
-1.96607
-1.90039
-1.83853
-1.7845
-1.73516
-1.70626
-3.12642
-3.08404
-3.0052
-2.90607
-2.84047
-2.73494
-2.61997
-2.5303
-2.45904
-2.38461
-2.31178
-2.24993
-2.19616
-2.14528
-2.09658
-2.05047
-2.00685
-1.958
-1.93029
-3.15957
-3.11819
-3.05396
-2.97677
-2.90168
-2.8113
-2.71863
-2.64073
-2.57523
-2.51232
-2.45473
-2.40629
-2.3646
-2.32615
-2.28996
-2.25653
-2.227
-2.18593
-2.14453
-3.20484
-3.16641
-3.11138
-3.04582
-2.97628
-2.89994
-2.82398
-2.75746
-2.70126
-2.65039
-2.60408
-2.56513
-2.53211
-2.50203
-2.47393
-2.44895
-2.42961
-2.39737
-2.3531
-3.26296
-3.22925
-3.18227
-3.12607
-3.06526
-3.00082
-2.93748
-2.88068
-2.83215
-2.7898
-2.75244
-2.72088
-2.69376
-2.66872
-2.64499
-2.62385
-2.60769
-2.58064
-2.53643
-3.33225
-3.30321
-3.26345
-3.21582
-3.16374
-3.10927
-3.0559
-3.00734
-2.96522
-2.92888
-2.89767
-2.87107
-2.84744
-2.82493
-2.80273
-2.78135
-2.76072
-2.73052
-2.68572
-3.41106
-3.38614
-3.35259
-3.31246
-3.26832
-3.22226
-3.17699
-3.13519
-3.09836
-3.06649
-3.03906
-3.01517
-2.99324
-2.97166
-2.94948
-2.92638
-2.90066
-2.86585
-2.82199
-3.49774
-3.4764
-3.44809
-3.41431
-3.37702
-3.33799
-3.29931
-3.26299
-3.23032
-3.20159
-3.17637
-3.15379
-3.13247
-3.11103
-3.0885
-3.06417
-3.03594
-2.99906
-2.95573
-3.59084
-3.57257
-3.54864
-3.52016
-3.4886
-3.45536
-3.42201
-3.39008
-3.36064
-3.33408
-3.31014
-3.28811
-3.26688
-3.2453
-3.22246
-3.19751
-3.16831
-3.13071
-3.08798
-3.68916
-3.67351
-3.65324
-3.62915
-3.60231
-3.57378
-3.54473
-3.51632
-3.48943
-3.46445
-3.44132
-3.41951
-3.39819
-3.37642
-3.3534
-3.32826
-3.29888
-3.26146
-3.21969
-3.79179
-3.77836
-3.76114
-3.74065
-3.71768
-3.69299
-3.66744
-3.64189
-3.61708
-3.5934
-3.5709
-3.54925
-3.52786
-3.50599
-3.48292
-3.45782
-3.42864
-3.39199
-3.35167
-3.89799
-3.88646
-3.87176
-3.85425
-3.83445
-3.81291
-3.79024
-3.76711
-3.74409
-3.72158
-3.69971
-3.67832
-3.65699
-3.63516
-3.61219
-3.58734
-3.55861
-3.52297
-3.48441
-4.00717
-3.99725
-3.98467
-3.96962
-3.95246
-3.93354
-3.91331
-3.89226
-3.87088
-3.84953
-3.8284
-3.80743
-3.78636
-3.76474
-3.74204
-3.71755
-3.68939
-3.65486
-3.61807
-4.11882
-4.1103
-4.0995
-4.08653
-4.07159
-4.0549
-4.03678
-4.01761
-3.99779
-3.97764
-3.95738
-3.93703
-3.91644
-3.89524
-3.87298
-3.84892
-3.82124
-3.78773
-3.75219
-4.23254
-4.22523
-4.21596
-4.20476
-4.19172
-4.17699
-4.16076
-4.14334
-4.12504
-4.10616
-4.08692
-4.06741
-4.04751
-4.02697
-4.00534
-3.98186
-3.9548
-3.92194
-3.8868
-4.34797
-4.34173
-4.3338
-4.32413
-4.31277
-4.29977
-4.28529
-4.26952
-4.25275
-4.23522
-4.21716
-4.19866
-4.1797
-4.16006
-4.13933
-4.11681
-4.09109
-4.05958
-4.0268
-4.46484
-4.45954
-4.45278
-4.44447
-4.43461
-4.42321
-4.41035
-4.3962
-4.38096
-4.36487
-4.34811
-4.33081
-4.31298
-4.29448
-4.27498
-4.25393
-4.23061
-4.20219
-4.1725
-4.58289
-4.57844
-4.57272
-4.56563
-4.55714
-4.54722
-4.53592
-4.52335
-4.50968
-4.49509
-4.47975
-4.46378
-4.44725
-4.43005
-4.41194
-4.39254
-4.37153
-4.347
-4.31914
-4.70193
-4.69824
-4.69345
-4.68747
-4.68024
-4.67171
-4.66192
-4.65092
-4.63885
-4.62584
-4.612
-4.59746
-4.58233
-4.56654
-4.54986
-4.53205
-4.51261
-4.49067
-4.46418
-4.82179
-4.81877
-4.81483
-4.80985
-4.80378
-4.79658
-4.78824
-4.77882
-4.7684
-4.75704
-4.74478
-4.73174
-4.71808
-4.70379
-4.68861
-4.67257
-4.65481
-4.63358
-4.60687
-4.94232
-4.9399
-4.93671
-4.93264
-4.92764
-4.92169
-4.91478
-4.90695
-4.89823
-4.88863
-4.87802
-4.86652
-4.85438
-4.84165
-4.82806
-4.81355
-4.79814
-4.77734
-4.75052
-5.06337
-5.0615
-5.05898
-5.05572
-5.0517
-5.04691
-5.04138
-5.03516
-5.02825
-5.02058
-5.01173
-5.00175
-4.99113
-4.98005
-4.96838
-4.95576
-4.9422
-4.922
-4.89468
-5.18485
-5.18346
-5.18152
-5.17898
-5.17583
-5.17212
-5.1679
-5.16328
-5.15832
-5.15286
-5.14588
-5.13727
-5.1281
-5.11874
-5.10939
-5.09983
-5.08781
-5.06711
-5.03895
-5.30664
-5.30567
-5.30424
-5.30232
-5.29993
-5.29715
-5.29413
-5.29104
-5.28813
-5.28531
-5.28035
-5.27278
-5.26486
-5.25715
-5.2499
-5.24309
-5.23215
-5.21112
-5.18413
-5.42866
-5.42802
-5.42699
-5.42556
-5.42379
-5.42179
-5.41975
-5.41801
-5.4173
-5.4184
-5.41628
-5.40878
-5.40152
-5.39508
-5.38922
-5.38365
-5.37439
-5.35529
-5.33125
-5.55085
-5.55042
-5.54964
-5.54853
-5.54716
-5.54571
-5.54442
-5.54389
-5.54618
-5.55571
-5.55861
-5.54829
-5.53998
-5.53371
-5.52839
-5.52406
-5.51911
-5.50525
-5.48945
-5.67329
-5.67301
-5.67239
-5.67148
-5.67038
-5.66934
-5.66875
-5.6697
-5.67677
-5.70166
-5.70335
-5.68753
-5.67731
-5.67093
-5.66612
-5.66296
-5.66135
-5.65588
-5.65093
)
;

boundaryField
{
    leftWall
    {
        type            calculated;
        value           nonuniform List<scalar> 
50
(
884.53
827.337
769.705
711.875
653.762
595.208
536.106
476.414
382.26
252.458
121.672
27.7905
-0.794333
-1.10939
-1.23132
-1.35267
-1.48813
-1.62516
-1.76084
-1.89722
-2.03395
-2.17007
-2.3053
-2.4395
-2.57252
-2.70432
-2.83489
-2.96429
-3.09259
-3.21987
-3.3462
-3.47168
-3.5964
-3.72045
-3.84394
-3.96695
-4.08957
-4.21187
-4.33392
-4.45577
-4.57747
-4.69905
-4.82055
-4.94197
-5.06334
-5.18466
-5.30591
-5.42707
-5.54811
-5.66897
)
;
    }
    rightWall
    {
        type            calculated;
        value           nonuniform List<scalar> 
50
(
521.97
463.812
406.2
349.374
290.248
226.232
159.144
114.032
98.4529
88.398
74.5875
64.1151
51.2307
31.4708
15.4453
5.96332
0.633847
-1.47741
-1.54366
-1.28019
-1.20561
-1.28256
-1.47095
-1.70626
-1.93029
-2.14453
-2.3531
-2.53643
-2.68572
-2.82199
-2.95573
-3.08798
-3.21969
-3.35167
-3.48441
-3.61807
-3.75219
-3.8868
-4.0268
-4.1725
-4.31914
-4.46418
-4.60687
-4.75052
-4.89468
-5.03895
-5.18413
-5.33125
-5.48945
-5.65093
)
;
    }
    lowerWall
    {
        type            calculated;
        value           nonuniform List<scalar> 
62
(
913.959
906.944
899.105
890.716
882.788
875.652
869.615
864.937
861.808
860.312
860.399
861.842
864.174
866.881
869.435
870.814
870.062
867.385
860.692
847.528
827.379
804.162
791.145
761.732
700.021
636.31
571.027
504.08
436.186
364.368
281.6
171.745
164.359
174.339
144.309
1054.36
1007.93
969.57
919.86
850.596
758.756
645.252
512.809
1083.77
1032.48
946.611
813.469
686.367
606.519
583.456
607.849
649.363
672.512
660.602
627.705
601.528
584.826
581.62
588.051
585.93
564.384
549.967
)
;
    }
    atmosphere
    {
        type            calculated;
        value           nonuniform List<scalar> 
46
(
-5.72904
-5.72904
-5.72904
-5.72904
-5.72904
-5.72904
-5.72904
-5.72904
-5.72904
-5.72904
-5.72904
-5.72904
-5.72905
-5.72913
-5.72932
-5.72961
-5.73002
-5.73054
-5.73115
-5.73184
-5.73256
-5.73327
-5.7339
-5.73426
-5.73446
-5.73462
-5.73473
-5.73484
-5.73463
-5.73407
-5.73321
-5.73217
-5.73112
-5.73022
-5.72957
-5.72918
-5.72905
-5.72904
-5.72904
-5.7291
-5.72913
-5.72907
-5.72906
-5.72905
-5.72905
-5.78268
)
;
    }
    defaultFaces
    {
        type            empty;
    }
}


// ************************************************************************* //
