/*--------------------------------*- C++ -*----------------------------------*\
  =========                 |
  \\      /  F ield         | OpenFOAM: The Open Source CFD Toolbox
   \\    /   O peration     | Website:  https://openfoam.org
    \\  /    A nd           | Version:  9
     \\/     M anipulation  |
\*---------------------------------------------------------------------------*/
FoamFile
{
    format      ascii;
    class       volScalarField;
    location    "4.29";
    object      p_rgh;
}
// * * * * * * * * * * * * * * * * * * * * * * * * * * * * * * * * * * * * * //

dimensions      [1 -1 -2 0 0 0 0];

internalField   nonuniform List<scalar> 
2268
(
772.389
772.6
772.739
772.782
772.723
772.554
772.276
771.889
771.396
770.803
770.113
769.334
768.472
767.53
766.501
765.366
764.135
762.799
761.834
761.454
761.492
761.705
761.775
772.323
772.502
772.634
772.673
772.619
772.462
772.2
771.831
771.359
770.785
770.112
769.345
768.487
767.542
766.505
765.373
764.191
762.754
761.242
761.761
761.788
761.94
761.955
772.251
772.414
772.538
772.57
772.52
772.374
772.127
771.778
771.326
770.773
770.121
769.37
768.527
767.595
766.582
765.52
764.009
761.145
760.623
760.019
761.427
761.969
762.099
772.175
772.345
772.472
772.503
772.455
772.318
772.085
771.752
771.319
770.784
770.15
769.418
768.594
767.69
766.732
765.771
764.691
760.909
760.342
759.319
760.708
761.984
762.061
772.098
772.289
772.43
772.468
772.427
772.299
772.077
771.758
771.34
770.822
770.204
769.487
768.681
767.806
766.895
766.019
765.436
763.314
759.892
759.219
762.368
761.966
761.985
772.023
772.243
772.407
772.46
772.429
772.312
772.102
771.796
771.391
770.888
770.283
769.577
768.785
767.931
767.056
766.235
765.657
765.688
763.637
763.684
762.68
761.925
761.852
771.953
772.205
772.397
772.471
772.454
772.349
772.152
771.858
771.467
770.977
770.385
769.685
768.9
768.06
767.206
766.408
765.797
765.618
765.244
764.122
762.645
761.891
761.646
771.89
772.167
772.388
772.487
772.486
772.395
772.212
771.933
771.557
771.085
770.508
769.812
769.033
768.2
767.351
766.556
765.904
765.52
764.97
763.908
762.62
761.868
761.4
757.757
757.661
757.363
756.945
756.577
756.279
756.056
755.906
755.87
755.383
754.155
753.502
751.679
752.709
755.229
755.508
753.339
749.822
748.74
757.801
758.162
757.852
757.47
757.156
756.858
756.572
756.343
755.904
755.292
754.111
752.811
751.369
752.204
755.174
754.589
752.442
750.056
748.267
758.625
758.468
757.976
757.597
757.264
757.039
756.87
756.524
755.861
755.372
752.286
750.245
750.948
753.78
754.838
754.062
752.202
749.523
747.145
759.292
758.661
758.077
757.669
757.34
757.125
756.918
756.142
755.819
755.627
750.392
749.781
750.165
755.374
754.952
754.071
752.254
750.168
745.984
759.342
758.739
758.107
757.695
757.368
757.149
756.897
756.075
755.989
756.437
753.333
749.09
749.933
756.781
755.342
754.423
753.085
751.868
745.165
759.415
758.804
758.072
757.666
757.323
757.103
756.961
756.787
756.787
757.042
757.799
756.19
758.426
757.253
755.838
755.02
753.052
748.687
744.678
759.517
758.668
757.93
757.586
757.183
756.97
756.927
757.028
757.16
757.222
758.067
759.458
759.262
757.481
756.395
755.834
748.977
738.268
752.372
759.624
758.306
757.726
757.508
757.168
756.924
756.795
756.868
756.801
754.896
756.077
758.464
759.005
757.734
756.992
756.817
748.502
738.314
752.445
771.786
772.094
772.364
772.511
772.54
772.476
772.321
772.067
771.721
771.287
770.741
770.048
769.268
768.434
767.573
766.752
766.035
765.429
764.702
763.699
762.611
761.803
761.226
764.892
765.516
766.353
766.931
767.296
767.568
767.843
768.241
768.923
769.856
770.737
769.075
766.881
765.078
762.414
759.14
756.674
755.197
753.156
749.405
744.613
740.649
738.608
351.157
355.488
359.767
362.983
364.285
364.22
362.643
358.934
353.468
346.733
338.288
330.589
323.553
315.765
308.829
304.549
301.181
297.138
292.783
288.191
285
285.778
287.317
2.39846
2.41302
2.38003
2.37742
2.48121
2.56083
2.63573
2.80774
2.94867
3.03654
4.09851
5.18669
5.47004
5.83791
5.98592
4.98911
3.70919
2.80026
2.77687
3.67885
4.61682
3.65569
1.86205
2.53517
2.50084
2.40868
2.415
3.54453
3.96942
4.00976
6.30452
7.56168
7.60391
7.6316
7.63942
7.33298
7.61809
7.58205
5.92687
2.93431
2.73675
2.70277
3.44539
4.59762
4.097
1.54792
2.52865
2.53524
2.51832
2.37982
2.85802
3.40094
3.79914
3.46285
3.71563
4.17616
4.62102
4.82868
4.76451
4.62999
4.24814
4.59244
4.33889
4.22223
4.12082
2.56048
1.89478
1.96785
0.577091
1.45781
1.73207
1.88499
1.47494
1.30724
0.848388
0.685905
0.48838
0.153064
-0.00254174
-0.00847222
-0.010002
0.00452654
0.0177035
0.0817944
0.463818
0.507032
0.494338
0.513861
0.533302
0.43627
0.483165
0.520501
0.0452742
-0.00465369
0.148851
0.396148
0.190023
0.104524
0.0826686
0.00988189
-0.00368068
-0.00466529
-0.00628165
-0.00650104
-0.00437132
0.000493951
0.00158932
0.00257607
0.0390055
0.362607
0.508173
0.519717
0.423718
0.425055
0.783711
-0.00424186
-0.00573656
-0.00852162
-0.0102718
-0.00893865
-0.00728936
-0.00672283
-0.00582157
-0.00509529
-0.00518703
-0.00554275
-0.0038877
0.00324892
0.00496158
0.00185024
0.00152443
0.00994148
0.0694832
0.278022
0.494456
0.429061
0.370652
0.564469
-0.00478206
-0.00524314
-0.00668776
-0.00780455
-0.00778941
-0.00714638
-0.00663069
-0.00600094
-0.00540654
-0.00488907
-0.00292652
-0.00146556
0.000788639
0.00159117
-0.000266037
0.000308467
0.00192704
0.000455072
-2.40234e-05
0.0257754
0.0849976
0.0235468
0.0110434
-0.00479472
-0.00488297
-0.00574886
-0.00661631
-0.00681678
-0.00655704
-0.00622296
-0.00575674
-0.00357616
-0.0007947
-0.00052942
-0.00116011
-0.00346789
-0.00246022
-0.00135775
-0.000454867
0.000129529
-6.80026e-05
-0.000471798
-0.000268902
0.000641908
0.00220927
0.00284374
-0.00451483
-0.00480472
-0.0053725
-0.00586212
-0.00604193
-0.00595705
-0.00574787
-0.00502818
-0.00100021
-0.000346767
-0.00102895
-0.0035567
-0.00314717
-0.00234425
-0.00152755
-0.000823696
-0.00034263
-0.000254509
0.00162762
0.00938554
0.0117275
0.0132926
0.00760432
-0.00409115
-0.00447431
-0.00493583
-0.00528861
-0.00545129
-0.00543049
-0.00528496
-0.0046193
-0.00354211
-0.0035048
-0.00390095
-0.00352376
-0.00290148
-0.00224706
-0.00160006
-0.00102896
-0.000607659
-0.00039872
0.00475943
0.0137024
0.0143562
0.0151778
0.0147218
-0.00349944
-0.00381502
-0.00447666
-0.00483233
-0.00498394
-0.00498568
-0.00486684
-0.00466524
-0.00445106
-0.0041269
-0.00372162
-0.00324585
-0.00271586
-0.0021625
-0.00161976
-0.00113735
-0.000754974
-0.000502203
-0.000116937
0.00418561
0.0145368
0.0155673
0.0046919
-0.00281144
-0.00303634
-0.0040403
-0.0044491
-0.00459329
-0.00460886
-0.00452339
-0.00435745
-0.00411842
-0.00381166
-0.00344124
-0.00301704
-0.00255556
-0.00207789
-0.00161163
-0.00118762
-0.000828557
-0.000545202
-0.0003164
-8.10075e-05
0.000479214
0.00127186
0.00163112
-0.00221602
-0.00260474
-0.00364001
-0.00410532
-0.00425183
-0.00427687
-0.00420432
-0.0040501
-0.00382717
-0.00354335
-0.00320649
-0.00282724
-0.00241985
-0.00200128
-0.00159103
-0.00120835
-0.000865924
-0.000565947
-0.00029169
-2.70516e-06
0.000363608
0.000854149
0.00144874
-0.00173569
-0.00219563
-0.0032828
-0.00378698
-0.00394177
-0.00397513
-0.00391361
-0.00377382
-0.00356927
-0.00330988
-0.00300511
-0.00266547
-0.00230315
-0.00193159
-0.00156477
-0.00121498
-0.000889257
-0.000586647
-0.000294811
1.11553e-05
0.000364573
0.000785857
0.00125865
-0.00118294
-0.00182566
-0.00286885
-0.00349066
-0.0036543
-0.00369643
-0.00364619
-0.00352138
-0.00333591
-0.00310079
-0.00282592
-0.00252126
-0.00219726
-0.0018646
-0.0015335
-0.00121216
-0.000904693
-0.000609568
-0.000318354
-1.64706e-05
0.000312925
0.000677945
0.00106621
-0.000743275
-0.00150575
-0.00255153
-0.00321671
-0.00338582
-0.0034357
-0.00339647
-0.00328641
-0.00311971
-0.00290767
-0.00266017
-0.00238643
-0.00209548
-0.00179591
-0.00149542
-0.00119977
-0.000911668
-0.000630006
-0.000349595
-6.22597e-05
0.000240067
0.00055919
0.000885664
-0.000661784
-0.0012381
-0.00240373
-0.00296417
-0.00313395
-0.00318942
-0.00315998
-0.00306377
-0.00291479
-0.00272422
-0.00250152
-0.0022552
-0.00199308
-0.00172224
-0.00144868
-0.00117676
-0.000908564
-0.000643668
-0.00037927
-0.000111215
0.00016383
0.000444815
0.000724481
-0.000920874
-0.00114055
-0.00239156
-0.00273001
-0.00289563
-0.00295442
-0.00293311
-0.00284939
-0.00271675
-0.00254584
-0.00234558
-0.0021237
-0.00188706
-0.00164163
-0.00139231
-0.00114262
-0.000894451
-0.000648023
-0.000402199
-0.000155284
9.35121e-05
0.000342003
0.000584582
-0.00105302
-0.00161644
-0.00220365
-0.00251058
-0.00266871
-0.00272781
-0.00271279
-0.00264002
-0.0025222
-0.00236923
-0.00218932
-0.00198947
-0.00177572
-0.00155324
-0.00132618
-0.00109759
-0.000869333
-0.000642153
-0.000416022
-0.000190713
3.3236e-05
0.000253292
0.000465075
-0.00100032
-0.00158044
-0.00202663
-0.00230484
-0.00245072
-0.00250722
-0.00249637
-0.00243301
-0.00232856
-0.002192
-0.00203072
-0.00185101
-0.00165823
-0.0014569
-0.00125069
-0.00104235
-0.000833781
-0.000626112
-0.000420019
-0.000216122
-1.56111e-05
0.000178983
0.000364177
-0.000980072
-0.00148264
-0.00186735
-0.00210952
-0.00223878
-0.00229002
-0.00228156
-0.00222625
-0.00213391
-0.00201246
-0.00186846
-0.00170747
-0.00153424
-0.00135279
-0.00116642
-0.000977695
-0.000788535
-0.000600337
-0.000414199
-0.000231199
-5.28108e-05
0.000118585
0.000280158
-0.000984847
-0.00140373
-0.00171931
-0.00191997
-0.00202953
-0.0020737
-0.00206651
-0.00201821
-0.00193699
-0.00182964
-0.00170185
-0.0015585
-0.00140379
-0.00124129
-0.00107401
-0.000904373
-0.000734302
-0.000565344
-0.000398829
-0.000236058
-7.85821e-05
7.1415e-05
0.000211588
-0.00100266
-0.00133428
-0.00157372
-0.00172949
-0.00181926
-0.00185655
-0.00185022
-0.00180821
-0.00173732
-0.00164323
-0.00153081
-0.00140426
-0.00126726
-0.00112299
-0.000974192
-0.000823154
-0.000671783
-0.000521692
-0.000374313
-0.000231025
-9.33546e-05
3.67267e-05
0.000157243
-0.00101972
-0.00123135
-0.0013077
-0.00153027
-0.001607
-0.00163913
-0.00163324
-0.00159674
-0.00153537
-0.00145377
-0.00135596
-0.00124548
-0.00112549
-0.000998793
-0.00086789
-0.000734935
-0.000601786
-0.000470064
-0.000341226
-0.000216643
-9.77513e-05
1.36767e-05
0.000115961
-0.0010355
-0.000505487
0.00184005
0.00112218
-0.00126605
-0.00142525
-0.00141793
-0.00138547
-0.00133253
-0.00126254
-0.00117857
-0.00108344
-0.000979758
-0.000869965
-0.000756315
-0.00064083
-0.000525301
-0.000411325
-0.000300337
-0.00019365
-9.2577e-05
1.30149e-06
8.65573e-05
-0.00104199
-2.58936e-05
0.00224015
0.00221058
-0.000219556
-0.00121866
-0.00120634
-0.00117617
-0.00113051
-0.00107127
-0.00100039
-0.000919871
-0.000831744
-0.000738088
-0.000640925
-0.000542147
-0.000443482
-0.000346492
-0.000252568
-0.00016294
-7.87751e-05
-1.45961e-06
6.78123e-05
-0.00102756
-0.000290797
0.00248053
0.00247383
8.82635e-05
-0.00101684
-0.000998275
-0.00096982
-0.000930953
-0.000881902
-0.000823458
-0.000756786
-0.000683368
-0.000604938
-0.000523312
-0.000440283
-0.000357541
-0.000276627
-0.000198889
-0.000125462
-5.73458e-05
4.28914e-06
5.8494e-05
-0.000992855
-0.000813033
0.00209334
0.00167009
-0.000385883
-0.000814316
-0.000792702
-0.000767255
-0.00073557
-0.000696554
-0.00065001
-0.000596378
-0.000536676
-0.000472351
-0.000405074
-0.000336597
-0.000268624
-0.000202716
-0.000140203
-8.21236e-05
-2.92762e-05
1.74387e-05
5.73618e-05
-0.00093951
-0.00079157
-0.000502154
-0.000588347
-0.000630701
-0.000610575
-0.000590682
-0.000570449
-0.000546758
-0.000517752
-0.000482517
-0.000440955
-0.00039374
-0.000342118
-0.000287703
-0.000232294
-0.000177695
-0.000125556
-7.72453e-05
-3.37158e-05
4.49876e-06
3.68781e-05
6.31437e-05
-0.000865994
-0.000656727
-0.000525523
-0.000465612
-0.000433582
-0.00041231
-0.000396931
-0.000383236
-0.000367883
-0.000348511
-0.000323677
-0.000292899
-0.000256596
-0.000215909
-0.000172508
-0.000128351
-8.5454e-05
-4.56718e-05
-1.05042e-05
1.91415e-05
4.31086e-05
6.147e-05
7.44859e-05
-0.000774021
-0.00051725
-0.00035275
-0.000278852
-0.000245988
-0.00022811
-0.000217618
-0.000210396
-0.000202854
-0.00019213
-0.000176316
-0.000154594
-0.000127188
-9.52407e-05
-6.05876e-05
-2.54793e-05
7.71054e-06
3.67592e-05
5.98642e-05
7.605e-05
8.57376e-05
9.0002e-05
8.98907e-05
-0.000664948
-0.000374511
-0.000189921
-0.000110678
-7.90021e-05
-6.41833e-05
-5.80226e-05
-5.64529e-05
-5.55435e-05
-5.19187e-05
-4.32232e-05
-2.8319e-05
-7.31322e-06
1.85603e-05
4.7189e-05
7.5897e-05
0.000101778
0.000122019
0.000134199
0.000136948
0.000131622
0.000121117
0.000107645
-0.000524897
-0.000220956
-3.67405e-05
3.65164e-05
6.35228e-05
7.48765e-05
7.7315e-05
7.44199e-05
7.03734e-05
6.90016e-05
7.30605e-05
8.3927e-05
0.000101526
0.000124458
0.000150262
0.00017573
0.00019725
0.000211147
0.000213778
0.000202451
0.000180106
0.000153233
0.000125733
-0.000340008
-4.60672e-05
0.000108313
0.000159588
0.000177363
0.000184624
0.000184029
0.000178224
0.000171469
0.000167864
0.000170392
0.000180519
0.000198121
0.000221617
0.000248223
0.000274207
0.000295146
0.000306275
0.000301519
0.000274391
0.000230678
0.000184398
0.000141718
-0.000100751
0.000149901
0.000238793
0.000252815
0.000257465
0.000260135
0.000257406
0.000250722
0.000244136
0.00024167
0.000246212
0.000259124
0.000280179
0.00030772
0.000338868
0.000369682
0.000395267
0.000409171
0.000401339
0.0003551
0.000281915
0.000211571
0.000152453
0.000204275
0.000358814
0.000337598
0.00030557
0.0002972
0.000295832
0.000292391
0.000287502
0.000284614
0.000287089
0.000297278
0.000316207
0.000343564
0.000377876
0.000416656
0.00045633
0.000492141
0.00051756
0.00051655
0.000445411
0.000327762
0.000227687
0.000152743
0.000493157
0.00048847
0.000361648
0.000300845
0.000288604
0.000288382
0.000289725
0.00029325
0.000301155
0.000315336
0.00033706
0.000366804
0.000404271
0.000448543
0.000498086
0.000550061
0.000600137
0.00064628
0.000678776
0.000570041
0.00036057
0.000218144
0.000132811
0.000908293
0.000566695
0.000333176
0.000240475
0.000229988
0.000246067
0.000271241
0.000302957
0.000340452
0.000383251
0.000431201
0.000484303
0.000542642
0.000606454
0.000675763
0.000748963
0.000824544
0.00091707
0.00105911
0.000884936
0.000402996
0.000174674
8.48723e-05
0.000841552
-0.000431985
-6.66615e-05
7.17339e-06
7.56339e-05
0.000144578
0.000212465
0.000280726
0.000349615
0.0004189
0.000488681
0.000559664
0.000633393
0.000712605
0.000801435
0.00090732
0.0010586
0.00134577
0.00179838
0.00152803
0.000492146
0.000152247
5.15084e-05
759.695
759.028
758.32
757.702
739.438
738.189
736.672
736.194
279.785
275.69
273.892
274.259
2.98666
3.37113
2.74727
1.8985
2.68633
3.35407
2.65755
1.72838
1.23672
3.54068
1.85257
1.62664
0.503065
1.34313
1.12192
0.422264
1.0708
1.05936
0.709954
0.102815
0.551355
0.160841
0.0797377
0.0238455
0.00547317
0.00501317
0.00904818
0.0134317
0.00366352
0.00458995
0.00611406
0.00745876
0.00354374
0.00420477
0.00492805
0.00567542
0.00313938
0.00367006
0.00417973
0.00473204
0.0026885
0.00317968
0.00350691
0.00387681
0.00242769
0.00286717
0.00308351
0.00320734
0.00191925
0.0022191
0.00246776
0.00268214
0.00161193
0.00182689
0.00202751
0.00221895
0.00135006
0.00152478
0.00169097
0.00184983
0.00112049
0.0012661
0.00140674
0.00154243
0.000923218
0.00104674
0.00116702
0.00128355
0.000755309
0.000861252
0.000964629
0.00106475
0.000612876
0.000704276
0.000793275
0.00087919
0.000492395
0.000571404
0.000648019
0.000721585
0.000391155
0.000459379
0.000525217
0.000588005
0.000307153
0.00036582
0.00042217
0.000475479
0.000238788
0.000288856
0.000336742
0.000381628
0.000184631
0.000226855
0.000267097
0.000304425
0.000143303
0.0001783
0.00021157
0.000242056
0.00011345
0.000141739
0.000168599
0.000192846
9.37417e-05
0.000115768
0.000136691
0.000155207
8.28624e-05
9.90114e-05
0.00011439
0.000127593
7.94553e-05
9.00505e-05
0.000100203
0.000108434
8.20585e-05
8.73575e-05
9.25373e-05
9.60845e-05
8.90438e-05
8.92415e-05
8.9656e-05
8.87835e-05
9.85592e-05
9.38038e-05
8.96453e-05
8.46401e-05
0.000108464
9.88993e-05
9.04011e-05
8.16359e-05
0.00011624
0.000102088
8.96243e-05
7.76509e-05
0.000118877
0.000100605
8.48515e-05
7.05352e-05
0.000112561
9.13754e-05
7.36012e-05
5.83021e-05
9.17287e-05
7.09383e-05
5.37416e-05
3.95762e-05
4.77756e-05
3.22054e-05
2.08409e-05
1.2371e-05
1.96547e-05
6.43073e-06
-3.00886e-06
-9.37877e-06
758.213
757.586
757.416
756.912
751.32
746.999
744.255
744.46
748.374
753.48
758.028
758.9
758.848
758.146
757.875
758.333
754.155
739.866
752.77
735.973
728.536
723.749
721.4
722.571
722.173
717.973
711.056
706.671
710.891
719.244
725.908
725.928
718.48
713.823
725.385
738.461
744.673
744.577
276.206
278.053
282.684
289.422
297.664
308.082
320.963
331.837
335.785
330.142
321.518
315.037
311.859
312.697
313.551
310.004
311.858
317.556
308.984
1.31626
0.993109
0.973055
0.951336
1.13373
1.09197
0.88369
0.846746
0.829475
0.83754
0.84985
0.857529
0.868906
0.880916
0.867678
0.784071
0.747516
0.731131
0.72446
1.06699
0.967242
0.960448
0.951419
1.11888
2.21061
1.95732
1.80071
1.69608
1.67964
1.64611
1.60616
1.60362
1.69248
1.69525
1.33271
1.20561
1.25033
1.18314
1.63341
1.63179
1.6263
1.1361
2.0117
2.43237
2.42095
2.41658
2.41551
2.41523
2.41547
2.41294
2.40881
2.40315
2.39266
1.3904
1.44898
1.47818
1.4751
1.4815
1.63477
1.63084
1.63128
1.41146
0.8667
0.586955
0.588743
0.605191
0.615992
0.663385
0.670431
0.668463
0.719902
0.818342
0.728124
1.13758
1.0475
0.888872
0.275094
0.493744
0.351694
0.401501
0.156608
0.0218968
0.0191768
0.0185293
0.0187441
0.0196146
0.020022
0.0199112
0.0191078
0.0172618
0.0150795
0.274695
0.177361
0.0542657
0.0202721
0.0153969
0.0100281
0.00969986
0.00966779
0.0120425
0.0146485
0.0165281
0.0175014
0.0200341
0.0256946
0.0615628
0.0803358
0.0818608
0.0407193
0.0153997
0.0142309
0.0133685
0.0155263
0.0178636
0.0108003
0.00944418
0.00940418
0.0100867
0.0116617
0.0134105
0.014516
0.0156303
0.0202279
0.109899
0.132434
0.130864
0.107045
0.0255595
0.0154926
0.0149368
0.0144016
0.0153197
0.0167147
0.00839654
0.00824838
0.0086376
0.00988527
0.0245194
0.0394231
0.0222747
0.0151075
0.0982304
0.137431
0.134437
0.055439
0.02646
0.0352168
0.0380235
0.0337716
0.0262154
0.0201719
0.0170387
0.00677508
0.00706431
0.00752123
0.0237392
0.0503906
0.0507158
0.031757
0.0363191
0.137071
0.136749
0.0280508
0.0294042
0.0518315
0.0949711
0.0951704
0.09514
0.0953313
0.0830581
0.0473591
0.00553106
0.00589493
0.00621127
0.0308385
0.0505624
0.0505746
0.0435454
0.02601
0.0383781
0.0156083
0.00351904
0.0528177
0.0964654
0.0965347
0.0908744
0.0546129
0.0333727
0.0342186
0.0468847
0.00449937
0.00485125
0.00497686
0.012923
0.035884
0.0357627
0.00824683
0.00380733
0.00251296
0.00225145
0.00258648
0.0184215
0.0821952
0.0687132
0.00297713
0.00408655
0.00502364
0.00707955
0.0226393
0.00367635
0.00419858
0.00427462
0.00395634
0.0038576
0.0036925
0.00330222
0.00307915
0.00246291
0.00216049
0.00266494
0.0054396
0.0008805
0.00130195
0.00257562
0.00348243
0.00448762
0.0122725
0.0298276
0.00305632
0.00342272
0.00355584
0.00345408
0.00323441
0.00297684
0.00288883
0.00268484
0.00229352
0.00202079
0.0018997
0.00146237
0.0012183
0.0014714
0.00210168
0.00260544
0.00282063
0.0204185
0.0436411
0.00252062
0.00277678
0.00293223
0.00345727
0.0035031
0.00327319
0.00257533
0.00236336
0.00208162
0.00183623
0.0016273
0.00138379
0.00121013
0.00128848
0.00153652
0.00167187
0.00156641
0.0106151
0.0441716
0.00210303
0.00233328
0.00245185
0.00286438
0.00320167
0.00312907
0.00302419
0.00230805
0.00185202
0.00163657
0.00143265
0.0012176
0.00104831
0.000995037
0.000986916
0.000859624
0.000553494
0.000998534
0.0450678
0.00175811
0.0019629
0.00207834
0.00211503
0.00231492
0.00266321
0.00271857
0.00211183
0.00166343
0.00149143
0.00139902
0.00113429
0.000870431
0.000698675
0.000536562
0.000250219
-0.000224408
-0.000902307
0.0462604
0.00146803
0.00164962
0.00176056
0.00180215
0.00178861
0.00175698
0.00169347
0.0015663
0.00146364
0.00147112
0.0012961
0.00110255
0.000774116
0.000454609
0.000225415
-0.000115272
-0.000606675
-0.00107489
0.0166361
0.00122263
0.00138255
0.00148558
0.00153222
0.00153017
0.00148975
0.00141678
0.00131195
0.00117838
0.00107752
0.00100155
0.00082823
0.000520705
0.000285041
5.61094e-05
-0.000241361
-0.000611219
-0.000828309
-0.000734911
0.00101409
0.00115358
0.00124641
0.00129236
0.00129562
0.00126233
0.00119693
0.00110175
0.000979506
0.000836145
0.000678949
0.000514283
0.000347132
0.000177382
-1.97493e-06
-0.000200173
-0.000389564
-0.000387147
-8.10217e-05
0.000836517
0.000956792
0.00103814
0.00107985
0.00108412
0.00105474
0.000995215
0.000908525
0.000798211
0.000669893
0.000530503
0.000387279
0.000247734
0.000118734
7.16652e-06
-7.39538e-05
-8.3183e-05
7.27532e-05
0.000436576
0.00068547
0.00078776
0.000857085
0.000892476
0.000894982
0.000867074
0.000811633
0.000731782
0.000631532
0.000516584
0.000394276
0.00027344
0.000164907
8.20068e-05
4.32371e-05
7.99901e-05
0.000241553
0.000523462
0.000911869
0.000557531
0.000643056
0.000700309
0.000728206
0.00072715
0.000698833
0.000645675
0.000570776
0.000478349
0.00037429
0.0002665
0.000165334
8.45545e-05
4.27774e-05
6.79649e-05
0.000208159
0.00052331
0.000956741
0.00142696
0.000449954
0.000519898
0.000565341
0.000585164
0.000579375
0.000549172
0.000496608
0.000424624
0.000337412
0.00024091
0.000143306
5.57881e-05
-6.27519e-06
-2.15162e-05
4.28399e-05
0.000243265
0.000644468
0.00145059
0.0230242
0.000360418
0.000415921
0.000450008
0.000461556
0.000450304
0.000417083
0.000363594
0.000292494
0.000207725
0.000114967
2.21758e-05
-5.96373e-05
-0.000115347
-0.000124234
-5.55555e-05
0.0001407
0.000512637
0.00162441
0.0528973
0.000286887
0.000329037
0.000352343
0.000355683
0.000338571
0.000301514
0.000245837
0.00017379
8.88503e-05
-3.87182e-06
-9.71517e-05
-0.000181006
-0.000241943
-0.000262141
-0.000217124
-7.17682e-05
0.000200525
0.0006694
0.0540216
0.000227505
0.000257339
0.000270527
0.000265929
0.000242845
0.000201458
0.000142673
6.8226e-05
-1.90368e-05
-0.000114809
-0.000212918
-0.000304831
-0.000379155
-0.000421251
-0.000412556
-0.00032965
-0.000152116
9.22682e-05
0.055257
0.000180533
0.000199042
0.000202847
0.000190761
0.000161861
0.000115988
5.35847e-05
-2.42076e-05
-0.00011529
-0.000216301
-0.000322262
-0.000426176
-0.000518614
-0.000587452
-0.000617935
-0.000592283
-0.00048407
-0.000254928
0.0518172
0.000144295
0.000152438
0.000147667
0.000128716
9.44198e-05
4.42589e-05
-2.18242e-05
-0.000103336
-0.000198998
-0.000306462
-0.000421979
-0.000540005
-0.000652731
-0.000749698
-0.000818129
-0.000842438
-0.000786952
-0.000551177
0.0472321
0.000117127
0.000115853
0.000103402
7.83875e-05
3.93856e-05
-1.4508e-05
-8.38732e-05
-0.000168897
-0.000269159
-0.000383357
-0.000508961
-0.000641747
-0.000775167
-0.000899737
-0.00100365
-0.00107303
-0.00106688
-0.000833565
0.048418
9.7338e-05
8.76262e-05
6.85057e-05
3.84225e-05
-4.3289e-06
-6.10503e-05
-0.000132855
-0.000220623
-0.000324812
-0.000445186
-0.00058041
-0.000727439
-0.000880566
-0.00103039
-0.00116427
-0.00126652
-0.00128959
-0.00106407
0.0447431
8.31923e-05
6.61032e-05
4.14722e-05
7.51835e-06
-3.77665e-05
-9.60846e-05
-0.000169076
-0.000258309
-0.00036513
-0.000490403
-0.000634025
-0.000794066
-0.000965271
-0.00113698
-0.00129169
-0.0014011
-0.00139293
-0.00108819
0.00468559
7.29147e-05
4.96568e-05
2.08583e-05
-1.55593e-05
-6.19226e-05
-0.000120318
-0.000192879
-0.000281839
-0.000389444
-0.00051774
-0.000668059
-0.000839928
-0.00102891
-0.00122302
-0.00139786
-0.00150507
-0.00143221
-0.000978991
0.00551113
6.47192e-05
3.67289e-05
5.32216e-06
-3.19509e-05
-7.77347e-05
-0.000134449
-0.000204653
-0.00029118
-0.000397167
-0.000525963
-0.000680723
-0.00086339
-0.00107211
-0.00129633
-0.0015091
-0.00164811
-0.00156767
-0.0010475
0.0231552
5.68617e-05
2.58944e-05
-6.32663e-06
-4.26769e-05
-8.608e-05
-0.000139189
-0.000204857
-0.000286388
-0.000387716
-0.000513544
-0.000669247
-0.000860488
-0.00109062
-0.00135547
-0.00163395
-0.00186111
-0.0018685
-0.00136355
0.0241785
4.77235e-05
1.59514e-05
-1.50658e-05
-4.86131e-05
-8.77849e-05
-0.000135297
-0.00019409
-0.000267697
-0.000360607
-0.000478687
-0.000629705
-0.000823939
-0.00107261
-0.00138413
-0.0017544
-0.00213552
-0.00234013
-0.00190633
0.0240177
3.59733e-05
6.12285e-06
-2.14636e-05
-5.03147e-05
-8.34688e-05
-0.000123452
-0.000172994
-0.000235491
-0.000315509
-0.000419515
-0.000557124
-0.000742968
-0.000997318
-0.00134693
-0.00182202
-0.0024378
-0.00300295
-0.00269635
0.0220354
2.0907e-05
-3.51472e-06
-2.52261e-05
-4.75466e-05
-7.30589e-05
-0.000103759
-0.000141792
-0.000189911
-0.000252014
-0.000334028
-0.000445684
-0.00060338
-0.00083361
-0.00118109
-0.00172788
-0.00259191
-0.00382561
-0.00382558
0.0211311
2.73327e-06
-1.23694e-05
-2.60844e-05
-4.05055e-05
-5.72392e-05
-7.7402e-05
-0.000102186
-0.000133183
-0.000172764
-0.000224804
-0.000296231
-0.000399999
-0.000560134
-0.000824819
-0.00128823
-0.00228905
-0.00441614
-0.00532256
0.0190495
-1.5467e-05
-2.35982e-05
-3.09549e-05
-3.88684e-05
-4.78705e-05
-5.82163e-05
-7.01666e-05
-8.40884e-05
-0.000100587
-0.000120813
-0.000147253
-0.000185849
-0.000251054
-0.000377794
-0.000626202
-0.00137492
-0.00388237
-0.00767115
0.00509993
)
;

boundaryField
{
    leftWall
    {
        type            fixedFluxPressure;
        gradient        uniform 0;
        value           nonuniform List<scalar> 
50
(
772.389
772.323
772.251
772.175
772.098
772.023
771.953
771.89
771.786
764.892
351.157
2.39846
2.53517
2.52865
1.45781
0.0452742
-0.00424186
-0.00478206
-0.00479472
-0.00451483
-0.00409115
-0.00349944
-0.00281144
-0.00221602
-0.00173569
-0.00118294
-0.000743275
-0.000661784
-0.000920874
-0.00105302
-0.00100032
-0.000980072
-0.000984847
-0.00100266
-0.00101972
-0.0010355
-0.00104199
-0.00102756
-0.000992855
-0.00093951
-0.000865994
-0.000774021
-0.000664948
-0.000524897
-0.000340008
-0.000100751
0.000204275
0.000493157
0.000908293
0.000841552
)
;
    }
    rightWall
    {
        type            fixedFluxPressure;
        gradient        uniform 0;
        value           nonuniform List<scalar> 
50
(
748.74
748.267
747.145
745.984
745.165
744.678
752.372
752.445
752.77
744.577
308.984
0.72446
1.18314
1.4751
0.888872
0.0202721
0.0178636
0.0167147
0.0170387
0.0473591
0.0468847
0.0226393
0.0298276
0.0436411
0.0441716
0.0450678
0.0462604
0.0166361
-0.000734911
-8.10217e-05
0.000436576
0.000911869
0.00142696
0.0230242
0.0528973
0.0540216
0.055257
0.0518172
0.0472321
0.048418
0.0447431
0.00468559
0.00551113
0.0231552
0.0241785
0.0240177
0.0220354
0.0211311
0.0190495
0.00509993
)
;
    }
    lowerWall
    {
        type            fixedFluxPressure;
        gradient        uniform 0;
        value           nonuniform List<scalar> 
62
(
772.389
772.6
772.739
772.782
772.723
772.554
772.276
771.889
771.396
770.803
770.113
769.334
768.472
767.53
766.501
765.366
764.135
762.799
761.834
761.454
761.492
761.705
761.775
761.775
761.955
762.099
762.061
761.985
761.852
761.646
761.4
759.695
759.028
758.32
757.702
757.757
757.801
758.625
759.292
759.342
759.415
759.517
759.624
757.757
757.661
757.363
756.945
756.577
756.279
756.056
755.906
755.87
755.383
754.155
753.502
751.679
752.709
755.229
755.508
753.339
749.822
748.74
)
;
    }
    atmosphere
    {
        type            totalPressure;
        rho             rho;
        psi             none;
        gamma           1;
        p0              uniform 0;
        value           nonuniform List<scalar> 
46
(
-0.00016206
0
0
0
0
0
0
0
0
0
0
0
0
0
0
0
0
0
0
-4.5385e-07
-2.08181e-06
-5.21282e-06
-9.51633e-06
-1.31602e-05
-1.56793e-05
-1.82814e-05
-2.09452e-05
-2.55842e-05
-3.22193e-05
-3.90193e-05
-4.59405e-05
-5.29678e-05
-6.0102e-05
-6.73496e-05
-7.47091e-05
-8.21549e-05
-8.96129e-05
-9.69271e-05
-0.0001038
-0.000109678
-0.000113477
-0.000112887
-0.000102384
-6.94425e-05
-2.78808e-06
0
)
;
    }
    defaultFaces
    {
        type            empty;
    }
}


// ************************************************************************* //
