/*--------------------------------*- C++ -*----------------------------------*\
  =========                 |
  \\      /  F ield         | OpenFOAM: The Open Source CFD Toolbox
   \\    /   O peration     | Website:  https://openfoam.org
    \\  /    A nd           | Version:  9
     \\/     M anipulation  |
\*---------------------------------------------------------------------------*/
FoamFile
{
    format      ascii;
    class       surfaceScalarField;
    location    "2.82";
    object      alphaPhi0.water;
}
// * * * * * * * * * * * * * * * * * * * * * * * * * * * * * * * * * * * * * //

dimensions      [0 3 -1 0 0 0 0];

internalField   nonuniform List<scalar> 
4432
(
7.29976e-07
-7.29976e-07
1.48866e-06
-7.5868e-07
2.15668e-06
-6.6802e-07
2.73318e-06
-5.76497e-07
3.23337e-06
-5.00201e-07
3.66055e-06
-4.27171e-07
4.01187e-06
-3.51328e-07
4.28443e-06
-2.7256e-07
4.47725e-06
-1.92822e-07
4.59213e-06
-1.14879e-07
4.63366e-06
-4.15391e-08
4.61085e-06
2.28081e-08
4.54107e-06
6.97786e-08
4.45247e-06
8.86008e-08
4.38116e-06
7.13081e-08
4.35557e-06
2.55941e-08
4.20296e-06
1.52611e-07
3.39804e-06
7.2336e-07
2.4638e-06
9.33849e-07
1.8342e-06
6.49086e-07
1.61539e-06
2.29797e-07
1.11941e-06
4.90056e-07
1.11784e-06
7.47295e-07
-1.47727e-06
1.43211e-06
-1.44348e-06
2.08694e-06
-1.32286e-06
2.70278e-06
-1.19233e-06
3.25845e-06
-1.05588e-06
3.74012e-06
-9.08839e-07
4.13935e-06
-7.50557e-07
4.45148e-06
-5.84699e-07
4.67429e-06
-4.15631e-07
4.80813e-06
-2.48728e-07
4.85708e-06
-9.04855e-08
4.829e-06
5.08946e-08
4.73495e-06
1.63817e-07
4.58887e-06
2.34686e-07
4.40348e-06
2.56694e-07
4.16801e-06
2.61064e-07
3.76402e-06
4.91108e-07
3.2432e-06
1.23515e-06
2.64894e-06
1.52774e-06
2.05685e-06
1.27528e-06
1.5371e-06
7.60647e-07
1.01871e-06
1.00899e-06
2.14483e-06
7.46861e-07
-2.22414e-06
1.42505e-06
-2.12166e-06
2.08395e-06
-1.98177e-06
2.71843e-06
-1.82681e-06
3.2996e-06
-1.63705e-06
3.80704e-06
-1.41628e-06
4.22898e-06
-1.1725e-06
4.55897e-06
-9.14687e-07
4.79337e-06
-6.50031e-07
4.93132e-06
-3.86671e-07
4.9756e-06
-1.34767e-07
4.93266e-06
9.38335e-08
4.81088e-06
2.85594e-07
4.6182e-06
4.27365e-07
4.35533e-06
5.19568e-07
4.00429e-06
6.12095e-07
3.51801e-06
9.1828e-07
3.09137e-06
1.66143e-06
2.61546e-06
2.00328e-06
2.09663e-06
1.79375e-06
1.51666e-06
1.37873e-06
8.91314e-07
1.63433e-06
3.0369e-06
7.28843e-07
-2.95299e-06
1.43151e-06
-2.82433e-06
2.11292e-06
-2.66319e-06
2.76703e-06
-2.48091e-06
3.36728e-06
-2.23732e-06
3.89222e-06
-1.94121e-06
4.32869e-06
-1.60897e-06
4.66905e-06
-1.25504e-06
4.90834e-06
-8.89323e-07
5.0445e-06
-5.22824e-07
5.07946e-06
-1.69725e-07
5.01882e-06
1.54479e-07
4.86931e-06
4.35095e-07
4.63613e-06
6.60551e-07
4.31735e-06
8.38338e-07
3.90323e-06
1.02621e-06
3.41825e-06
1.3927e-06
2.98451e-06
2.07039e-06
2.58598e-06
2.44174e-06
2.12985e-06
2.3219e-06
1.47881e-06
2.03836e-06
7.95817e-07
2.3173e-06
3.8327e-06
7.13385e-07
-3.66638e-06
1.45124e-06
-3.56217e-06
2.16357e-06
-3.37552e-06
2.8394e-06
-3.15673e-06
3.45645e-06
-2.85437e-06
3.99471e-06
-2.47946e-06
4.44111e-06
-2.05536e-06
4.78749e-06
-1.60141e-06
5.02767e-06
-1.1295e-06
5.15838e-06
-6.53531e-07
5.18098e-06
-1.92326e-07
5.10084e-06
2.34623e-07
4.92414e-06
6.11795e-07
4.65598e-06
9.28707e-07
4.29707e-06
1.19724e-06
3.84899e-06
1.47421e-06
3.35942e-06
1.88231e-06
2.94891e-06
2.48088e-06
2.55781e-06
2.84648e-06
2.06812e-06
2.81372e-06
1.41726e-06
2.68924e-06
7.11202e-07
3.02333e-06
4.54373e-06
7.11862e-07
-4.37825e-06
1.48717e-06
-4.33747e-06
2.23094e-06
-4.1193e-06
2.92794e-06
-3.85372e-06
3.55959e-06
-3.48602e-06
4.10794e-06
-3.02781e-06
4.56082e-06
-2.50825e-06
4.91007e-06
-1.95066e-06
5.14834e-06
-1.36778e-06
5.27118e-06
-7.7637e-07
5.27963e-06
-2.00779e-07
5.1794e-06
3.34855e-07
4.97692e-06
8.1427e-07
4.67888e-06
1.22674e-06
4.29065e-06
1.58548e-06
3.82259e-06
1.94228e-06
3.32492e-06
2.37997e-06
2.88985e-06
2.91595e-06
2.47773e-06
3.2586e-06
1.98393e-06
3.30752e-06
1.35394e-06
3.31923e-06
6.4199e-07
3.73529e-06
5.18565e-06
7.29319e-07
-5.10757e-06
1.53853e-06
-5.14668e-06
2.30877e-06
-4.88955e-06
3.02363e-06
-4.56858e-06
3.66689e-06
-4.12929e-06
4.22216e-06
-3.58308e-06
4.67854e-06
-2.96463e-06
5.0282e-06
-2.30033e-06
5.26268e-06
-1.60226e-06
5.37631e-06
-8.90001e-07
5.37009e-06
-1.94565e-07
5.25046e-06
4.54484e-07
5.02457e-06
1.04016e-06
4.70138e-06
1.54993e-06
4.29098e-06
1.99587e-06
3.80925e-06
2.42401e-06
3.3025e-06
2.88672e-06
2.84076e-06
3.3777e-06
2.40089e-06
3.69848e-06
1.90771e-06
3.80071e-06
1.31554e-06
3.91141e-06
6.12431e-07
4.4384e-06
5.79843e-06
7.63242e-07
-5.87082e-06
1.59832e-06
-5.98175e-06
2.38682e-06
-5.67804e-06
3.11461e-06
-5.29637e-06
3.76595e-06
-4.78062e-06
4.32492e-06
-4.14205e-06
4.78207e-06
-3.42178e-06
5.13033e-06
-2.64859e-06
5.36002e-06
-1.83194e-06
5.46421e-06
-9.94194e-07
5.44423e-06
-1.74585e-07
5.30736e-06
5.91356e-07
5.06151e-06
1.28601e-06
4.71801e-06
1.89343e-06
4.291e-06
2.42288e-06
3.7989e-06
2.9161e-06
3.28228e-06
3.40334e-06
2.7968e-06
3.86318e-06
2.33399e-06
4.16129e-06
1.84948e-06
4.28522e-06
1.32098e-06
4.43991e-06
7.50784e-07
5.0086e-06
6.5493e-06
9.9702e-07
-9.97029e-07
2.35295e-06
-1.35594e-06
3.06169e-06
-7.03303e-07
3.1451e-06
-7.83682e-08
2.91597e-06
2.3252e-07
2.53882e-06
3.8021e-07
1.64882e-06
8.95218e-07
-1.88276e-07
1.83216e-06
-2.23674e-06
2.04133e-06
-3.19337e-06
9.38251e-07
-3.17415e-06
4.0275e-08
-3.77967e-06
6.69676e-07
-4.29354e-06
5.1394e-07
-3.49005e-06
-8.03403e-07
-1.33291e-06
-2.15703e-06
7.95776e-07
-2.1286e-06
1.51135e-06
-7.25035e-07
7.80779e-07
7.30558e-07
7.80769e-07
1.52614e-06
-2.52318e-06
2.00469e-06
-1.8345e-06
2.02258e-06
-7.08951e-07
1.75741e-06
1.87618e-07
1.41762e-06
5.73039e-07
9.82141e-07
8.17061e-07
8.53347e-08
1.79319e-06
-1.31202e-06
3.23218e-06
-2.62432e-06
3.3465e-06
-3.38729e-06
1.68827e-06
-3.64083e-06
3.53935e-07
-3.7784e-06
8.98982e-07
-3.73374e-06
4.69302e-07
-3.07412e-06
-1.46298e-06
-1.5749e-06
-3.68365e-06
-1.74455e-08
-3.67126e-06
7.43802e-07
-1.44718e-06
6.41498e-07
8.28856e-07
1.44194e-06
1.39026e-06
-3.94566e-06
1.41131e-06
-1.8679e-06
1.08857e-06
-3.83682e-07
6.61161e-07
6.15029e-07
2.56386e-07
9.77817e-07
-1.97194e-07
1.27065e-06
-1.00616e-06
2.60472e-06
-1.98147e-06
4.23425e-06
-2.82875e-06
4.18671e-06
-3.45637e-06
2.3091e-06
-3.71767e-06
6.74135e-07
-3.55588e-06
8.40194e-07
-3.34126e-06
2.54616e-07
-2.8893e-06
-1.99856e-06
-1.94976e-06
-4.73047e-06
-6.11128e-07
-4.95243e-06
2.58686e-07
-2.2025e-06
4.42518e-07
6.47987e-07
1.88742e-06
8.75306e-07
-4.82094e-06
6.21645e-07
-1.61422e-06
1.56772e-07
7.98135e-08
-3.42831e-07
1.11464e-06
-7.64445e-07
1.39943e-06
-1.16039e-06
1.66659e-06
-1.8103e-06
3.2572e-06
-2.47211e-06
4.90264e-06
-2.99969e-06
4.73212e-06
-3.46214e-06
2.76874e-06
-3.64202e-06
8.96501e-07
-3.31172e-06
5.96357e-07
-3.01469e-06
-7.70124e-08
-2.74234e-06
-2.40514e-06
-2.32488e-06
-5.14819e-06
-1.23052e-06
-6.02304e-06
-9.19523e-08
-3.39292e-06
4.44696e-07
1.00884e-07
2.33508e-06
1.38381e-07
-4.95737e-06
-2.60223e-07
-1.21559e-06
-7.71834e-07
5.91549e-07
-1.30412e-06
1.64711e-06
-1.71945e-06
1.81472e-06
-2.01442e-06
1.96156e-06
-2.46064e-06
3.70343e-06
-2.84582e-06
5.28784e-06
-3.11069e-06
4.99702e-06
-3.38185e-06
3.03929e-06
-3.43047e-06
9.66255e-07
-3.0821e-06
2.62e-07
-2.73277e-06
-4.56789e-07
-2.61489e-06
-2.52302e-06
-2.59124e-06
-5.17185e-06
-2.04633e-06
-6.65094e-06
-5.81821e-07
-4.98287e-06
5.59511e-07
-1.06292e-06
2.71608e-06
-6.11553e-07
-4.34684e-06
-1.144e-06
-6.83118e-07
-1.67386e-06
1.12135e-06
-2.22095e-06
2.19414e-06
-2.62981e-06
2.22349e-06
-2.78927e-06
2.13041e-06
-2.99034e-06
3.70805e-06
-3.10935e-06
4.95507e-06
-3.13043e-06
5.01798e-06
-3.19146e-06
3.10015e-06
-3.09485e-06
8.69432e-07
-2.71603e-06
-1.18165e-07
-2.3903e-06
-7.82528e-07
-2.41011e-06
-2.50321e-06
-2.6306e-06
-4.95137e-06
-2.57077e-06
-6.71078e-06
-1.49694e-06
-6.05671e-06
1.01921e-07
-2.75551e-06
2.80476e-06
-1.33272e-06
-3.01616e-06
-1.98007e-06
-3.58054e-08
-2.51318e-06
1.65441e-06
-3.07064e-06
2.75155e-06
-3.49039e-06
2.64319e-06
-3.50655e-06
2.23347e-06
-3.2332e-06
3.33525e-06
-2.90397e-06
4.52699e-06
-2.76963e-06
4.24279e-06
-2.72081e-06
2.52275e-06
-2.63068e-06
5.9268e-07
-2.27268e-06
-4.76186e-07
-2.00126e-06
-1.05395e-06
-2.08264e-06
-2.42184e-06
-2.42762e-06
-4.60639e-06
-2.6433e-06
-6.49511e-06
-2.35803e-06
-6.34199e-06
-9.48588e-07
-4.16947e-06
1.84315e-06
-1.96123e-06
-1.05679e-06
-2.71963e-06
7.22552e-07
-3.25743e-06
2.19216e-06
-3.82001e-06
3.31408e-06
-4.23379e-06
3.05693e-06
-4.2308e-06
2.32736e-06
-3.57627e-06
3.28331e-06
-3.07416e-06
4.01505e-06
-2.54145e-06
3.70031e-06
-2.24683e-06
2.17229e-06
-2.14093e-06
2.70395e-07
-1.81748e-06
-7.99628e-07
-1.55485e-06
-1.31659e-06
-1.62201e-06
-2.3547e-06
-1.98966e-06
-4.2386e-06
-2.35478e-06
-6.13001e-06
-2.54106e-06
-6.15575e-06
-2.10382e-06
-4.57935e-06
-1.17429e-07
1.71863e-06
-7.58943e-06
3.55161e-06
-7.81466e-06
5.27348e-06
-7.39982e-06
6.8541e-06
-6.87688e-06
8.25695e-06
-6.18337e-06
9.44854e-06
-5.33353e-06
1.04159e-05
-4.38905e-06
1.11498e-05
-3.38237e-06
1.16239e-05
-2.30603e-06
1.18181e-05
-1.18838e-06
1.17378e-05
-9.42491e-08
1.14032e-05
9.25894e-07
1.08294e-05
1.85984e-06
1.00487e-05
2.67416e-06
9.10368e-06
3.36787e-06
8.03303e-06
3.98675e-06
6.90402e-06
4.53236e-06
5.80779e-06
4.9594e-06
4.76548e-06
5.2036e-06
3.77619e-06
5.27452e-06
2.94196e-06
5.27415e-06
2.62461e-06
5.32595e-06
5.3409e-06
3.833e-06
1.66108e-06
-8.83205e-06
3.40801e-06
-9.26313e-06
5.14148e-06
-8.99382e-06
6.73475e-06
-8.4151e-06
8.13085e-06
-7.55939e-06
9.3072e-06
-6.48951e-06
1.02586e-05
-5.30463e-06
1.09769e-05
-4.04731e-06
1.14324e-05
-2.70162e-06
1.16145e-05
-1.32975e-06
1.1544e-05
-2.51333e-08
1.12381e-05
1.23179e-06
1.06654e-05
2.43255e-06
9.87669e-06
3.46284e-06
8.9318e-06
4.31275e-06
7.86383e-06
5.05472e-06
6.73383e-06
5.66235e-06
5.60277e-06
6.09046e-06
4.49031e-06
5.02571e-06
3.39177e-06
4.99025e-06
2.42273e-06
4.86986e-06
1.52303e-06
4.93473e-06
6.31642e-06
5.47517e-07
8.02139e-07
-1.4046e-08
1.70939e-06
-2.07416e-08
2.74483e-06
-1.03507e-08
3.62538e-06
-8.19779e-09
4.34935e-06
-7.8529e-09
4.99843e-06
-3.57564e-08
5.44759e-06
-4.05868e-08
5.65668e-06
-1.94619e-07
5.66672e-06
-4.40663e-07
5.59381e-06
-3.31659e-07
5.43233e-06
-2.12792e-08
5.14253e-06
9.0937e-08
4.80743e-06
1.43544e-07
4.3996e-06
1.6934e-07
3.91418e-06
1.83617e-07
3.36699e-06
1.78275e-07
2.87647e-06
1.58692e-07
2.47021e-06
3.20139e-07
2.07576e-06
2.78679e-07
1.60954e-06
2.67247e-07
9.60576e-07
2.42447e-07
2.55215e-07
2.366e-07
2.18609e-07
-3.49388e-07
1.85075e-09
-1.53249e-08
3.33515e-09
-2.18414e-08
3.68463e-09
-1.07072e-08
4.03594e-09
-8.55202e-09
4.25428e-09
-8.07343e-09
5.45389e-09
-1.5393e-08
6.73078e-09
-1.65599e-08
8.01573e-09
-1.21221e-08
1.01203e-08
-1.68507e-08
2.13355e-08
-3.3072e-08
3.93925e-08
-8.38787e-09
5.08305e-08
0
6.36218e-08
0
6.88437e-08
0
5.25834e-08
4.33819e-08
6.19521e-08
5.15117e-08
7.18256e-08
0
7.51385e-08
0
5.34984e-08
9.1725e-11
3.56867e-08
0
9.94332e-09
0
-9.26178e-09
3.74932e-08
0
-1.36152e-08
-2.96067e-09
-1.239e-08
8.63815e-09
-4.15362e-08
6.56228e-09
-8.63668e-09
-1.44666e-09
-5.50158e-10
-9.86409e-09
3.42874e-10
-9.53163e-09
-2.60828e-08
-3.07571e-10
-7.69591e-08
1.12167e-08
-4.23212e-08
3.66833e-08
-7.64355e-09
6.59486e-08
-3.48452e-08
6.26761e-08
-3.24214e-08
7.60339e-08
-6.73213e-09
7.7738e-08
4.08968e-09
9.21304e-08
1.65911e-08
8.04162e-08
2.20762e-08
9.99904e-08
7.87731e-11
2.39493e-07
1.61169e-08
1.70112e-07
1.45214e-08
8.38166e-08
3.02131e-08
5.25505e-08
3.47083e-08
8.5978e-09
1.89539e-08
-8.53041e-10
2.17113e-08
1.48406e-08
4.25372e-08
-5.96046e-09
-1.06883e-08
7.8299e-09
-1.30778e-07
7.97622e-09
-3.18595e-08
4.41116e-09
3.00981e-09
8.75484e-10
4.98573e-09
2.10671e-08
-6.85811e-08
4.14125e-08
-9.56987e-08
7.31996e-08
-7.25738e-08
1.26443e-07
-4.02128e-08
1.30676e-07
-8.40484e-08
1.30255e-07
-2.8214e-08
1.37001e-07
-9.80817e-09
1.45876e-07
-1.1146e-09
1.46261e-07
1.98764e-08
1.4286e-07
2.89517e-08
4.26866e-08
2.56096e-08
7.35403e-08
1.81341e-10
9.80605e-08
0
7.41494e-08
0
4.08513e-08
2.73023e-09
2.10719e-08
1.45196e-08
3.06044e-08
3.15464e-08
1.35249e-08
4.70072e-08
-6.03591e-10
-3.78657e-08
-5.81766e-10
-1.25309e-07
8.26541e-09
-8.00221e-08
1.45788e-08
-1.55963e-08
1.79806e-08
2.59654e-09
9.04877e-08
-1.37281e-07
8.40512e-08
-8.77148e-08
7.395e-08
-6.08947e-08
6.67356e-08
-2.99951e-08
5.53014e-08
-2.38069e-08
4.25619e-08
-7.41506e-09
3.82434e-08
-5.52785e-10
3.00734e-08
0
1.66892e-08
0
1.71322e-08
0
1.68224e-08
0
8.78481e-09
1.27308e-10
6.30229e-09
0
2.5214e-09
0
1.96815e-09
1.97225e-09
8.88131e-09
4.59237e-09
3.17338e-08
8.46416e-09
0
1.61385e-08
3.00584e-08
-6.89377e-08
1.35161e-08
-7.55645e-08
1.51745e-08
-5.14616e-08
4.78303e-08
-2.10588e-08
7.03475e-08
-1.68892e-08
7.00942e-08
-2.51095e-08
3.3919e-08
-3.17608e-10
1.02009e-08
-1.73908e-12
1.04823e-08
-1.32941e-14
6.81761e-09
-7.22728e-14
2.36319e-09
0
9.15723e-11
0
-2.15013e-10
0
-2.55312e-09
0
-2.83165e-09
6.33221e-10
-1.57583e-09
5.84864e-10
7.31753e-10
3.79671e-10
4.11936e-09
5.56515e-10
3.55454e-09
4.88038e-09
1.48369e-09
2.98924e-09
2.13579e-09
2.88642e-09
3.2983e-09
1.09687e-10
5.90648e-11
4.8482e-10
1.59356e-08
-4.81916e-12
2.69219e-09
-1.57507e-10
9.99529e-09
-4.71948e-12
1.42986e-08
-4.91699e-14
2.54289e-08
-7.5205e-14
3.19346e-10
-2.26291e-15
1.74019e-12
-2.82827e-15
6.37529e-15
-5.02157e-15
3.88839e-16
-7.17703e-15
-7.21418e-14
0
-5.42902e-13
0
0
0
-2.12265e-10
4.38392e-11
-9.56528e-10
0
-1.50981e-09
0
-4.50836e-09
3.1363e-12
-9.18641e-09
-1.64398e-10
-7.52062e-09
-4.43574e-11
-4.67693e-09
3.10318e-09
2.90016e-10
5.99853e-09
7.48903e-11
8.34041e-09
2.55453e-12
1.64539e-10
4.10341e-11
5.22485e-12
3.26826e-14
-5.09592e-12
3.67652e-13
-1.57802e-10
5.34145e-15
-4.35189e-12
4.41944e-16
-4.47836e-14
2.36813e-16
-7.50401e-14
-2.64978e-16
-1.79165e-15
-1.30365e-15
-1.8193e-15
-5.52229e-15
-8.28817e-16
-1.27264e-14
7.6814e-16
-1.09926e-11
1.40858e-12
-3.40227e-11
1.46407e-11
-5.16623e-11
1.49826e-11
-1.08913e-11
0
-4.37958e-12
2.62958e-12
-4.94796e-12
2.51408e-13
-1.73069e-12
0
-1.66037e-10
-9.31675e-15
-1.68795e-09
-2.84235e-12
-4.50176e-09
0
-5.24205e-09
0
-1.28231e-10
1.91917e-09
-2.4842e-12
2.25149e-11
2.58769e-11
-3.53957e-12
-1.31301e-11
-1.37005e-13
-5.93965e-13
-8.86564e-14
-4.95496e-13
-5.07593e-13
-8.39709e-14
-6.53031e-13
-2.24101e-15
-2.97489e-13
-2.73204e-15
-1.32994e-15
-3.8322e-15
-7.4741e-16
-4.48971e-15
-2.08266e-16
-1.51194e-14
8.08497e-15
-4.71923e-11
1.85259e-12
-5.98428e-11
1.16524e-11
-6.072e-11
1.30177e-11
-3.26619e-12
1.22318e-12
-5.44944e-13
1.62703e-15
-2.94354e-13
5.3273e-14
-2.50968e-13
0
-1.44778e-13
-2.90718e-14
-2.87379e-12
1.09312e-15
-3.16537e-11
9.51079e-14
-3.84726e-10
0
-3.25393e-11
0
-5.78303e-11
5.45482e-11
8.37213e-11
-4.05451e-11
-2.24564e-14
-1.81429e-13
-1.36447e-13
-4.75686e-14
-5.87372e-13
-1.12051e-13
-5.74383e-13
0
-9.76955e-15
-6.2257e-14
-5.26624e-15
-5.86153e-15
-5.57883e-15
-4.71782e-16
0
2.35184e-16
0
4.08686e-15
-1.27618e-11
0
-2.35605e-11
0
-1.57718e-11
0
-6.55492e-12
0
-5.01503e-12
3.11735e-13
-4.11708e-12
1.07328e-13
-2.11366e-12
3.83897e-14
-6.20736e-14
-8.94052e-18
-6.17484e-14
1.25702e-17
-5.65631e-14
1.32965e-16
-3.45272e-12
1.40242e-15
-9.01285e-11
0
-8.78617e-11
4.90837e-11
7.52075e-11
-7.91416e-11
-1.80735e-14
-1.7758e-14
-3.63479e-14
-1.0022e-13
-7.69614e-14
-1.42364e-13
-6.09378e-14
0
-4.29309e-14
-4.97591e-14
-9.06338e-15
-3.29369e-16
-9.99882e-15
-2.43739e-17
-1.8869e-14
1.28067e-15
-1.36189e-13
4.72807e-15
-2.82326e-13
0
-2.6994e-13
0
-1.4817e-13
0
-2.13035e-13
0
-1.44375e-13
0
-5.172e-14
0
-8.71084e-16
0
-9.30826e-16
-2.03723e-17
-1.02242e-15
1.54139e-17
-3.27762e-15
6.62273e-17
-3.3373e-14
1.15888e-15
-2.29477e-11
0
-4.53079e-11
0
5.29078e-14
-1.76593e-11
-4.52419e-14
-1.11175e-14
-5.09013e-13
-6.63578e-14
-1.43103e-12
-6.09309e-13
-7.87011e-13
-6.77938e-13
-1.29072e-14
-1.27916e-14
-1.35999e-14
-1.98167e-17
-1.71205e-14
7.73425e-16
-1.87729e-14
1.89892e-15
-2.86093e-14
2.32942e-15
-1.10289e-13
3.74569e-15
-1.7287e-13
9.48207e-15
-1.50148e-13
1.43132e-14
-2.70449e-14
5.06686e-15
-7.69028e-15
1.26809e-16
-8.16938e-15
2.63265e-17
-6.09657e-15
1.11765e-17
-1.54373e-15
-4.39903e-18
-9.05194e-16
1.36252e-17
-1.51969e-15
3.60272e-17
-4.23739e-14
6.04303e-16
-1.75423e-13
0
-1.85725e-13
0
2.44286e-15
-1.53239e-13
-4.43461e-14
-3.25075e-15
-1.47264e-12
-1.41417e-13
-5.82777e-12
-5.7776e-13
-3.65394e-12
-1.68082e-13
-1.0513e-14
5.61878e-14
-1.11251e-14
2.5767e-16
-1.6794e-14
1.05333e-15
-1.76377e-14
2.15229e-15
-2.00801e-14
2.26771e-15
-3.9842e-14
1.92293e-15
-4.95799e-14
1.81904e-15
-3.78455e-14
1.40279e-15
-5.41694e-15
5.90738e-16
-8.52721e-16
3.85629e-17
-9.5114e-16
1.13895e-17
-5.21512e-16
3.02492e-20
-3.17286e-16
8.42181e-20
-4.12503e-16
-1.87318e-20
-6.66058e-16
9.93394e-18
-6.19277e-16
1.06936e-17
-1.11883e-15
3.24208e-17
-2.00951e-15
1.698e-16
6.31619e-16
-4.9986e-15
-2.64014e-14
2.71327e-15
-4.13395e-12
1.42167e-13
-5.12509e-12
9.27702e-13
-5.79048e-12
9.99991e-13
-6.44037e-15
9.28298e-13
-6.98709e-15
4.9477e-16
-1.03356e-14
7.76787e-16
-1.06367e-14
1.25581e-15
-7.6701e-15
1.12719e-15
-6.88167e-15
3.99566e-16
-6.07664e-15
1.76203e-16
-3.18259e-15
8.53303e-17
-3.9959e-16
1.99955e-17
-3.20818e-18
8.75639e-18
8.18358e-18
1.53695e-21
6.59455e-18
6.4036e-19
-1.31706e-18
1.11743e-18
-8.32185e-18
7.59851e-19
-4.33242e-17
1.68833e-19
-1.05395e-16
3.87008e-18
-5.57905e-16
8.86739e-18
-2.79806e-15
1.41406e-16
6.21377e-16
-4.59083e-15
-1.88013e-14
6.17303e-15
-1.71838e-12
1.04079e-13
-4.9995e-12
1.06994e-12
-5.40172e-12
1.9403e-12
-2.88136e-15
9.68649e-13
-3.41147e-15
7.10954e-16
-3.6815e-15
7.37348e-16
-3.76912e-15
4.76885e-16
-1.58933e-15
3.8986e-16
-7.63541e-16
6.38941e-17
-5.17212e-16
1.20895e-17
-2.07973e-16
4.24437e-18
5.04422e-18
8.6164e-18
3.49642e-17
-1.61603e-19
4.25575e-17
9.93282e-20
4.3249e-17
1.74847e-18
4.10901e-17
2.48151e-18
3.36202e-17
2.1124e-18
1.91487e-17
1.03991e-18
-2.97031e-18
-5.43839e-20
-9.83813e-18
1.05072e-19
-3.48845e-16
7.20348e-18
3.54221e-17
-2.30007e-15
-1.71378e-14
7.91034e-15
-1.62635e-13
1.5818e-15
-2.7339e-12
0
-3.3138e-12
6.12697e-13
-2.24419e-14
0
-2.30217e-14
9.81231e-16
-1.82863e-15
5.55286e-15
-1.44475e-15
4.03783e-16
-3.7186e-16
2.44781e-16
-4.10294e-17
4.23687e-17
-1.37745e-17
1.97645e-18
4.43094e-18
8.11251e-19
3.3979e-17
-2.96378e-19
5.22805e-17
-7.96113e-19
5.72102e-17
7.55026e-19
5.4972e-17
2.43615e-18
4.84432e-17
3.29404e-18
3.92712e-17
3.13224e-18
2.89574e-17
2.26235e-18
1.81889e-17
1.20398e-18
3.8946e-18
3.65086e-19
-2.99878e-17
-3.07865e-20
9.8548e-19
-1.50624e-16
-6.84987e-16
2.34442e-14
-2.12714e-15
2.92801e-15
-9.03025e-14
0
-1.01005e-14
0
-2.53495e-14
0
-3.15602e-14
1.4941e-14
-1.37631e-15
1.43715e-14
-1.18332e-15
5.21846e-16
-3.20205e-16
2.4054e-16
-2.39447e-17
4.60314e-17
4.41365e-18
1.87859e-18
1.65849e-17
-5.48766e-19
3.25697e-17
-1.12264e-18
4.34547e-17
-4.94937e-19
4.69043e-17
9.53706e-19
4.53572e-17
2.3808e-18
4.00837e-17
3.2482e-18
3.26257e-17
3.3129e-18
2.45731e-17
2.74885e-18
1.72153e-17
1.92182e-18
1.12918e-17
1.15156e-18
6.75674e-18
5.9788e-19
2.7315e-19
2.01306e-18
-3.55484e-16
1.41044e-13
-6.70134e-16
9.21397e-15
-8.47699e-16
2.40018e-15
-1.13556e-15
2.13793e-15
-8.01927e-15
9.39817e-16
-1.57988e-14
4.64897e-15
-2.01954e-15
6.37104e-15
-8.75113e-16
5.3978e-16
-3.18209e-16
2.42189e-16
-6.56825e-17
7.29027e-17
-9.13507e-18
1.32603e-17
7.75652e-18
9.19782e-19
1.75719e-17
-5.68304e-19
2.51894e-17
-1.1539e-19
2.88556e-17
6.70925e-19
2.88529e-17
1.73295e-18
2.60101e-17
2.50365e-18
2.14672e-17
2.71692e-18
1.63744e-17
2.43711e-18
1.16247e-17
1.89522e-18
7.75975e-18
1.3165e-18
5.0159e-18
8.36613e-19
5.06399e-19
3.19215e-18
-1.06192e-13
1.93681e-13
-3.08092e-16
2.58177e-12
-4.26379e-16
2.21418e-15
-5.25687e-16
1.93272e-15
-7.33837e-16
8.59887e-16
-2.00908e-15
6.38718e-16
-1.13919e-15
5.64679e-16
-5.57137e-16
5.85437e-16
-3.12931e-16
2.27494e-16
-1.47389e-16
1.14423e-16
-5.18895e-17
4.30117e-17
-7.43471e-18
9.85091e-18
3.62701e-18
7.55346e-19
9.89468e-18
-4.86946e-21
1.33791e-17
2.45362e-19
1.43328e-17
9.33655e-19
1.3374e-17
1.53887e-18
1.12533e-17
1.79771e-18
8.69496e-18
1.70983e-18
6.2348e-18
1.41087e-18
4.1842e-18
1.0472e-18
2.70298e-18
7.15542e-19
4.63193e-19
1.82815e-18
0
1.30519e-13
-1.12279e-12
3.77696e-12
-2.17919e-12
1.32832e-11
-5.82238e-16
1.09771e-11
-4.34138e-16
6.92268e-16
-2.92102e-16
4.9482e-16
-3.92817e-16
4.27426e-16
-3.23492e-16
3.71312e-16
-2.49196e-16
2.31461e-16
-1.78031e-16
1.45794e-16
-1.01268e-16
7.42726e-17
-3.40892e-17
2.52962e-17
-3.57525e-18
3.58333e-18
2.07319e-18
-7.89863e-20
4.40918e-18
3.53795e-22
5.41438e-18
3.58984e-19
5.34228e-18
7.71495e-19
4.60574e-18
9.90698e-19
3.59492e-18
9.91954e-19
2.58606e-18
8.49848e-19
1.73069e-18
6.52669e-19
1.09765e-18
4.61465e-19
3.06289e-19
7.62542e-19
0
9.06851e-14
-7.81427e-13
2.77927e-12
-1.40795e-12
1.42092e-11
-1.33566e-12
1.2003e-11
-1.69334e-16
1.78417e-12
-1.83827e-16
5.07849e-16
-1.77975e-16
4.20145e-16
-1.79039e-16
3.52678e-16
-1.61133e-16
2.57383e-16
-1.31807e-16
1.68106e-16
-8.94448e-17
9.05518e-17
-4.15404e-17
3.44765e-17
-8.16442e-18
6.17211e-18
1.54676e-21
-3.2391e-19
9.06639e-19
-9.40655e-20
1.45089e-18
1.03691e-19
1.54976e-18
3.34279e-19
1.36931e-18
4.73674e-19
1.06852e-18
4.94256e-19
7.57328e-19
4.32266e-19
4.93521e-19
3.36111e-19
2.97733e-19
2.40093e-19
1.60516e-19
1.99815e-19
1.42986e-14
7.62594e-14
2.70578e-14
5.32318e-13
-1.32177e-14
1.45489e-11
-6.34078e-14
1.23525e-11
-3.46553e-17
1.94132e-12
-4.76614e-17
5.19428e-16
-5.71915e-17
4.28283e-16
-6.19796e-17
3.79422e-16
-5.90623e-17
2.81416e-16
-4.94272e-17
1.7962e-16
-3.48684e-17
9.50892e-17
-1.79574e-17
3.60248e-17
-4.6432e-18
6.65987e-18
-3.33287e-19
-3.52284e-19
8.5112e-20
-9.59946e-20
2.02189e-19
2.35712e-20
2.31665e-19
1.38302e-19
2.02802e-19
2.07167e-19
1.48834e-19
2.19298e-19
9.36646e-20
1.91792e-19
4.94195e-20
1.4801e-19
1.93663e-20
1.04588e-19
6.9209e-20
2.3884e-21
4.7738e-15
7.13659e-14
7.22213e-14
9.98006e-14
1.19518e-12
1.37253e-11
3.77187e-13
4.4928e-12
0
6.00907e-13
0
2.31299e-15
5.26573e-17
4.69499e-16
5.4816e-17
3.97287e-16
4.66682e-17
2.86315e-16
3.68029e-17
1.81256e-16
2.55279e-17
9.56374e-17
1.34908e-17
3.60011e-17
4.14731e-18
6.32888e-18
4.23982e-19
-2.03541e-19
8.75465e-20
-4.00494e-20
-1.33717e-20
1.70687e-20
-6.04395e-20
6.09666e-20
-7.96857e-20
8.65223e-20
-8.13401e-20
8.89064e-20
-7.34215e-20
7.56326e-20
-6.14789e-20
5.66183e-20
-4.88109e-20
3.86922e-20
2.47438e-20
-3.71363e-20
6.53642e-15
6.47061e-14
4.00995e-14
6.61142e-14
5.33557e-13
0
4.85888e-14
0
0
1.80106e-16
1.03394e-16
1.68475e-15
1.5799e-16
5.37902e-16
1.51219e-16
3.9636e-16
1.34595e-16
2.75619e-16
1.06077e-16
1.69771e-16
6.81802e-17
8.15874e-17
3.00844e-17
2.49209e-17
6.58498e-18
3.03867e-18
3.87738e-19
-3.12644e-20
7.11641e-20
-3.18216e-21
-2.94119e-20
1.15599e-20
-7.82623e-20
2.65754e-20
-9.28392e-20
3.39861e-20
-8.56903e-20
3.2846e-20
-6.89577e-20
2.65427e-20
-5.08234e-20
1.8875e-20
-3.53025e-20
1.2216e-20
7.3807e-21
-2.35489e-20
6.00235e-15
5.64594e-14
1.10667e-14
7.52502e-14
7.24732e-15
5.93933e-16
7.63062e-16
1.33082e-18
2.56149e-16
5.98313e-16
2.88062e-16
5.71642e-16
2.27512e-16
4.75353e-16
2.13955e-16
3.46502e-16
1.84435e-16
2.34186e-16
1.33041e-16
1.31187e-16
6.97602e-17
5.16201e-17
2.07111e-17
1.0754e-17
2.24728e-18
6.69267e-19
4.5234e-20
-9.53864e-22
7.13262e-21
7.2625e-22
-3.16131e-20
6.16292e-21
-5.33465e-20
1.07028e-20
-5.60967e-20
1.22046e-20
-4.77249e-20
1.0916e-20
-3.5597e-20
8.23915e-21
-2.42184e-20
5.47166e-21
-1.54321e-20
3.29369e-21
1.84167e-21
-9.4013e-21
4.70659e-15
3.48803e-14
1.21442e-14
7.13851e-14
7.78962e-16
1.22032e-14
2.33956e-16
1.0845e-15
2.3319e-16
5.69101e-16
2.50601e-16
4.51098e-16
2.54546e-16
3.6829e-16
2.30058e-16
2.72151e-16
1.78787e-16
1.6837e-16
1.04946e-16
7.68778e-17
3.7182e-17
2.05819e-17
5.48853e-18
2.17551e-18
1.99905e-19
4.79781e-20
3.86486e-20
-7.78418e-24
-4.75614e-21
8.65935e-22
-2.24417e-20
2.64992e-21
-2.81978e-20
3.84053e-21
-2.61204e-20
3.93253e-21
-2.03081e-20
3.22407e-21
-1.39506e-20
2.24386e-21
-8.72529e-21
1.37308e-21
-5.08209e-21
7.57943e-22
3.85785e-22
-2.81218e-21
2.17708e-15
9.33611e-15
7.80152e-15
2.69851e-14
9.42518e-16
9.52001e-15
2.35377e-16
1.17893e-15
2.39468e-16
5.36215e-16
2.46688e-16
4.00355e-16
2.36559e-16
2.95939e-16
1.93583e-16
1.90755e-16
1.20872e-16
9.33333e-17
4.72308e-17
2.80552e-17
8.2714e-18
3.69038e-18
4.18225e-19
1.35205e-19
3.86971e-21
7.68024e-22
8.75857e-22
5.97669e-24
-7.20781e-21
4.25894e-22
-1.18287e-20
9.73467e-22
-1.22121e-20
1.22131e-21
-1.00466e-20
1.12254e-21
-7.08848e-21
8.36423e-22
-4.44454e-21
5.31204e-22
-2.53374e-21
2.96456e-22
-1.33758e-21
1.48604e-22
6.81472e-23
-6.65367e-22
3.80412e-16
8.25854e-16
1.7973e-15
2.08215e-15
6.28606e-16
1.67584e-15
2.33745e-16
7.05729e-16
2.24926e-16
4.39115e-16
2.19388e-16
3.13642e-16
1.82997e-16
2.00537e-16
1.1605e-16
9.83064e-17
4.66204e-17
3.01622e-17
8.74745e-18
4.24693e-18
5.20801e-19
1.87454e-19
7.06387e-21
1.84039e-21
1.73769e-21
2.22772e-22
-1.82967e-21
-2.67633e-23
-4.31859e-21
1.58099e-22
-5.06941e-21
3.08455e-22
-4.45569e-21
3.40933e-22
-3.25562e-21
2.80394e-22
-2.0696e-21
1.88318e-22
-1.17444e-21
1.08138e-22
-6.05516e-22
5.45798e-23
-2.87732e-22
2.46809e-23
1.01505e-23
-1.27751e-22
4.00957e-17
1.29112e-16
1.43383e-16
2.02895e-16
2.04136e-16
2.66211e-16
1.81503e-16
3.0697e-16
1.78162e-16
2.67656e-16
1.50123e-16
1.75766e-16
9.34416e-17
8.42718e-17
3.64806e-17
2.48079e-17
6.80401e-18
3.41886e-18
4.31574e-19
1.59841e-19
7.1881e-21
2.05937e-21
2.00157e-21
6.006e-24
-1.36671e-22
-1.71203e-23
-1.34782e-21
-2.8386e-23
-1.89735e-21
4.88247e-23
-1.8096e-21
8.4645e-23
-1.3771e-21
8.27278e-23
-8.91189e-22
6.05291e-23
-5.06692e-22
3.63265e-23
-2.58179e-22
1.86901e-23
-1.19561e-22
8.46177e-24
-5.08882e-23
3.43062e-24
1.26165e-24
-2.01106e-23
1.2621e-17
5.37923e-17
4.43835e-17
9.35474e-17
7.7885e-17
1.13219e-16
1.01286e-16
1.24339e-16
9.61583e-17
9.82866e-17
5.841e-17
4.87804e-17
2.13145e-17
1.35786e-17
3.74898e-18
1.75087e-18
2.40081e-19
8.21667e-20
4.79087e-21
1.27185e-21
3.15025e-23
6.93008e-24
1.48203e-23
3.43189e-24
-3.37693e-22
-4.22083e-23
-6.35209e-22
-1.6959e-23
-6.77729e-22
1.27938e-23
-5.44042e-22
2.0027e-23
-3.59712e-22
1.72669e-23
-2.05097e-22
1.11529e-23
-1.03479e-22
5.92391e-24
-4.69607e-23
2.70358e-24
-1.93943e-23
1.08746e-24
-7.35624e-24
3.91966e-25
1.28107e-25
-2.58282e-24
5.04117e-18
1.72049e-17
2.03994e-17
4.02874e-17
3.06976e-17
3.9266e-17
3.4102e-17
2.85932e-17
2.24583e-17
1.41153e-17
8.04705e-18
3.84433e-18
1.3367e-18
4.80501e-19
8.5627e-20
2.33134e-20
2.04155e-21
4.47644e-22
2.11875e-23
4.11964e-24
1.03947e-23
3.51528e-24
-6.70105e-23
-1.53246e-23
-1.79998e-22
-2.28435e-23
-2.32229e-22
-7.45502e-24
-2.01396e-22
2.84978e-24
-1.37673e-22
4.05744e-24
-7.89102e-23
3.06888e-24
-3.93613e-23
1.73348e-24
-1.74686e-23
8.05942e-25
-6.99588e-24
3.22527e-25
-2.55388e-24
1.13935e-25
-8.56567e-25
3.61036e-26
1.03773e-26
-2.65702e-25
1.0265e-18
1.4752e-18
5.12142e-18
5.58133e-18
6.2801e-18
4.04655e-18
4.1031e-18
1.78628e-18
1.49264e-18
4.45164e-19
2.56018e-19
5.63039e-20
1.819e-20
3.22603e-21
5.69469e-22
9.12201e-23
9.1949e-24
1.46126e-24
4.79442e-24
2.14461e-24
-1.01673e-23
-3.40551e-24
-4.19204e-23
-9.6443e-24
-6.85448e-23
-8.99503e-24
-6.94128e-23
-2.63766e-24
-5.00896e-23
5.35725e-25
-2.92064e-23
6.99057e-25
-1.44303e-23
4.60533e-25
-6.24184e-24
2.24976e-25
-2.41179e-24
9.03765e-26
-8.43141e-25
3.12845e-26
-2.69069e-25
9.57249e-27
-7.89279e-26
2.62964e-27
6.55371e-28
-2.14064e-26
5.46166e-20
1.68249e-20
4.18751e-19
1.16091e-19
3.35865e-19
6.74743e-20
1.22989e-19
1.89747e-20
2.25766e-20
2.70925e-21
2.09326e-21
2.17736e-22
1.03677e-22
1.10792e-23
2.75391e-24
3.38007e-25
1.48471e-24
8.29821e-25
-9.79823e-25
-4.35435e-25
-7.7939e-24
-2.63074e-24
-1.68521e-23
-3.97761e-24
-2.08386e-23
-2.89088e-24
-1.72786e-23
-7.85365e-25
-1.04446e-23
8.3585e-26
-5.17519e-24
1.01879e-25
-2.18591e-24
5.80432e-26
-8.11096e-25
2.42085e-26
-2.69511e-25
8.27328e-27
-8.11634e-26
2.43664e-27
-2.23311e-26
6.34931e-28
-5.64748e-27
1.48595e-28
3.15353e-29
-1.31966e-27
5.66492e-22
3.1554e-23
6.81196e-21
3.48697e-22
4.23477e-21
2.11519e-22
1.05101e-21
5.86501e-23
1.42336e-22
8.89392e-24
1.18855e-23
8.56163e-25
5.48836e-25
4.77195e-26
3.13277e-25
1.10054e-27
-1.83981e-27
-1.02139e-27
-1.10447e-24
-4.95177e-25
-3.35039e-24
-1.16079e-24
-5.25639e-24
-1.30158e-24
-5.24278e-24
-7.90765e-25
-3.61878e-24
-2.02975e-25
-1.83125e-24
1.0427e-26
-7.65498e-25
1.25284e-26
-2.7344e-25
6.14334e-27
-8.58869e-26
2.15564e-27
-2.41708e-26
6.14934e-28
-6.16686e-27
1.50974e-28
-1.43713e-27
3.27947e-29
-3.07552e-28
6.39347e-30
1.12835e-30
-6.07261e-29
2.36548e-24
4.84619e-26
3.55237e-23
6.48635e-25
2.50928e-23
5.37273e-25
6.42342e-24
2.07801e-25
8.71831e-25
3.9006e-26
6.49583e-26
3.70751e-27
1.93626e-27
1.53788e-28
1.28702e-27
8.52034e-28
-1.14745e-25
-6.40832e-26
-5.18513e-25
-2.38262e-25
-1.08132e-24
-3.92228e-25
-1.34724e-24
-3.59007e-25
-1.11394e-24
-1.891e-25
-6.44761e-25
-4.67227e-26
-2.72113e-25
9.25378e-28
-9.50186e-26
1.30017e-27
-2.83166e-26
5.5005e-28
-7.40583e-27
1.5974e-28
-1.73154e-27
3.71432e-29
-3.66278e-28
7.40806e-30
-7.06168e-29
1.30484e-30
-1.24716e-29
2.05574e-31
2.91862e-32
-2.0269e-30
8.00448e-27
5.73902e-29
1.52884e-25
1.35892e-27
1.37815e-25
1.57232e-27
3.80226e-26
7.71232e-28
4.14711e-27
1.42214e-28
2.0004e-28
2.36836e-27
1.5416e-28
1.16469e-28
-1.1834e-26
-7.81699e-27
-6.22217e-26
-3.53911e-26
-1.75383e-25
-8.38958e-26
-2.84436e-25
-1.1023e-25
-2.92728e-25
-8.62864e-26
-2.03686e-25
-4.04749e-26
-9.93259e-26
-9.79792e-27
-3.48388e-26
2.11984e-29
-1.00363e-26
1.13307e-28
-2.45317e-27
4.23237e-29
-5.23256e-28
1.00055e-29
-9.91257e-29
1.83963e-30
-1.68884e-29
2.88316e-31
-2.60793e-30
3.96705e-32
-3.66947e-31
4.8361e-33
5.25609e-34
-4.72846e-32
1.61863e-29
7.95517e-30
4.58562e-28
6.4111e-28
5.55683e-28
9.80877e-28
1.58036e-28
5.04441e-28
1.0843e-28
9.68061e-29
-1.3663e-27
-1.12272e-27
-3.29293e-27
-2.45001e-27
-7.87847e-27
-5.23964e-27
-2.2763e-26
-1.33283e-26
-4.78294e-26
-2.41443e-26
-6.35855e-26
-2.68168e-26
-5.53343e-26
-1.85241e-26
-3.27859e-26
-7.93018e-27
-1.35492e-26
-1.90951e-27
-3.95707e-27
-1.20774e-28
-9.24501e-28
7.8761e-30
-1.8141e-28
2.86374e-30
-3.07304e-29
5.45385e-31
-4.55955e-30