/*--------------------------------*- C++ -*----------------------------------*\
  =========                 |
  \\      /  F ield         | OpenFOAM: The Open Source CFD Toolbox
   \\    /   O peration     | Website:  https://openfoam.org
    \\  /    A nd           | Version:  9
     \\/     M anipulation  |
\*---------------------------------------------------------------------------*/
FoamFile
{
    format      ascii;
    class       surfaceScalarField;
    location    "8.1";
    object      phi;
}
// * * * * * * * * * * * * * * * * * * * * * * * * * * * * * * * * * * * * * //

dimensions      [0 3 -1 0 0 0 0];

internalField   nonuniform List<scalar> 
4432
(
1.3262e-07
-1.3262e-07
2.82735e-07
-1.50113e-07
4.34117e-07
-1.51381e-07
5.82371e-07
-1.48253e-07
7.26853e-07
-1.44481e-07
8.66607e-07
-1.39754e-07
1.00028e-06
-1.33675e-07
1.12586e-06
-1.2558e-07
1.23907e-06
-1.13209e-07
1.33673e-06
-9.76527e-08
1.42214e-06
-8.54097e-08
1.50619e-06
-8.40473e-08
1.60443e-06
-9.82443e-08
1.72488e-06
-1.20445e-07
1.84969e-06
-1.24808e-07
1.90597e-06
-5.62736e-08
1.75641e-06
1.4956e-07
1.35772e-06
3.9869e-07
6.85619e-07
6.72096e-07
-1.31284e-07
8.16899e-07
-5.75449e-07
4.4416e-07
-5.10634e-07
-6.48193e-08
-5.10636e-07
1.40229e-07
-2.72848e-07
2.89884e-07
-2.99767e-07
4.42031e-07
-3.03526e-07
5.92418e-07
-2.98641e-07
7.38302e-07
-2.90363e-07
8.77779e-07
-2.79233e-07
1.00931e-06
-2.65205e-07
1.13075e-06
-2.47015e-07
1.23858e-06
-2.21043e-07
1.32982e-06
-1.8889e-07
1.40587e-06
-1.61456e-07
1.47361e-06
-1.51778e-07
1.54186e-06
-1.66497e-07
1.61357e-06
-1.92149e-07
1.67428e-06
-1.85518e-07
1.67664e-06
-5.86354e-08
1.53576e-06
2.9044e-07
1.20198e-06
7.32471e-07
7.39254e-07
1.13481e-06
2.17812e-07
1.33833e-06
-1.87764e-07
8.49732e-07
-3.64032e-07
1.11448e-07
-8.74667e-07
1.48191e-07
-4.21038e-07
2.99235e-07
-4.50811e-07
4.50534e-07
-4.54823e-07
6.00262e-07
-4.4837e-07
7.45176e-07
-4.35276e-07
8.82872e-07
-4.1693e-07
1.01167e-06
-3.93998e-07
1.12942e-06
-3.64768e-07
1.23257e-06
-3.24188e-07
1.31747e-06
-2.73793e-07
1.38394e-06
-2.27924e-07
1.436e-06
-2.0384e-07
1.47941e-06
-2.09901e-07
1.51605e-06
-2.28783e-07
1.53704e-06
-2.06508e-07
1.51006e-06
-3.16561e-08
1.36881e-06
4.31688e-07
1.08285e-06
1.01843e-06
7.50392e-07
1.46726e-06
4.28361e-07
1.66036e-06
6.3711e-08
1.21438e-06
-1.92736e-07
3.67898e-07
-1.0674e-06
1.5396e-07
-5.74997e-07
3.08245e-07
-6.05098e-07
4.6034e-07
-6.06917e-07
6.10029e-07
-5.98061e-07
7.54327e-07
-5.79574e-07
8.90608e-07
-5.53212e-07
1.01717e-06
-5.20561e-07
1.13198e-06
-4.79579e-07
1.23113e-06
-4.23335e-07
1.30999e-06
-3.52652e-07
1.36679e-06
-2.84723e-07
1.4035e-06
-2.40552e-07
1.42423e-06
-2.30633e-07
1.43136e-06
-2.35905e-07
1.42278e-06
-1.9793e-07
1.38357e-06
7.5552e-09
1.25761e-06
5.5765e-07
1.021e-06
1.25504e-06
7.69989e-07
1.71827e-06
5.52836e-07
1.87751e-06
2.47157e-07
1.52006e-06
-2.10448e-08
6.36105e-07
-1.08844e-06
1.58511e-07
-7.33507e-07
3.1685e-07
-7.63441e-07
4.71168e-07
-7.61234e-07
6.21852e-07
-7.48746e-07
7.66206e-07
-7.23927e-07
9.01522e-07
-6.88528e-07
1.02622e-06
-6.45261e-07
1.13848e-06
-5.91833e-07
1.23397e-06
-5.18827e-07
1.3069e-06
-4.25588e-07
1.35404e-06
-3.31854e-07
1.37573e-06
-2.62244e-07
1.37511e-06
-2.30018e-07
1.35532e-06
-2.16107e-07
1.32007e-06
-1.62682e-07
1.27333e-06
5.42919e-08
1.17516e-06
6.55816e-07
9.8412e-07
1.44608e-06
7.92594e-07
1.90979e-06
6.35961e-07
2.03415e-06
3.80295e-07
1.77573e-06
1.39769e-07
8.76635e-07
-9.48673e-07
1.63055e-07
-8.96562e-07
3.25867e-07
-9.26255e-07
4.83304e-07
-9.18671e-07
6.35833e-07
-9.01277e-07
7.80812e-07
-8.68906e-07
9.15421e-07
-8.23136e-07
1.0383e-06
-7.68135e-07
1.14798e-06
-7.01516e-07
1.23984e-06
-6.10685e-07
1.30693e-06
-4.9267e-07
1.34469e-06
-3.69616e-07
1.35216e-06
-2.69719e-07
1.33173e-06
-2.09585e-07
1.28666e-06
-1.71033e-07
1.22411e-06
-1.00134e-07
1.16139e-06
1.1701e-07
1.10326e-06
7.13944e-07
9.5678e-07
1.59256e-06
8.16649e-07
2.04992e-06
7.06591e-07
2.14421e-06
4.94904e-07
1.98742e-06
3.23879e-07
1.04766e-06
-6.24796e-07
1.68302e-07
-1.06486e-06
3.36041e-07
-1.094e-06
4.96949e-07
-1.07958e-06
6.51834e-07
-1.05616e-06
7.97745e-07
-1.01481e-06
9.31596e-07
-9.56984e-07
1.05227e-06
-8.88807e-07
1.15888e-06
-8.0812e-07
1.24672e-06
-6.98515e-07
1.30793e-06
-5.53872e-07
1.33694e-06
-3.98629e-07
1.3317e-06
-2.64467e-07
1.29386e-06
-1.71745e-07
1.22579e-06
-1.02965e-07
1.13563e-06
-9.96812e-09
1.04413e-06
2.08508e-07
1.0029e-06
7.5517e-07
9.35196e-07
1.66026e-06
8.54031e-07
2.13109e-06
7.6114e-07
2.2371e-06
6.53447e-07
2.09511e-06
5.47257e-07
1.15385e-06
-7.75455e-08
1.74661e-07
-1.23953e-06
3.47228e-07
-1.26657e-06
5.11748e-07
-1.2441e-06
6.69197e-07
-1.21361e-06
8.16084e-07
-1.1617e-06
9.48811e-07
-1.08971e-06
1.06645e-06
-1.00644e-06
1.1689e-06
-9.10567e-07
1.2518e-06
-7.81413e-07
1.30693e-06
-6.0899e-07
1.32814e-06
-4.19842e-07
1.31243e-06
-2.48754e-07
1.26103e-06
-1.20338e-07
1.17436e-06
-1.62965e-08
1.06081e-06
1.03586e-07
9.40218e-07
3.29098e-07
8.734e-07
8.21987e-07
8.94166e-07
1.6395e-06
8.8485e-07
2.1404e-06
8.16353e-07
2.30559e-06
8.53762e-07
2.0577e-06
7.29448e-07
1.27816e-06
6.51897e-07
-1.39322e-06
1.39322e-06
-1.02836e-06
-3.64868e-07
-4.41717e-07
-5.86635e-07
-6.68534e-08
-3.74867e-07
1.80073e-07
-2.46929e-07
3.30655e-07
-1.50585e-07
4.11709e-07
-8.10584e-08
5.37905e-07
-1.262e-07
6.30938e-07
-9.30316e-08
5.15904e-07
1.15035e-07
1.45243e-07
3.70662e-07
-5.97268e-07
7.42511e-07
-1.38648e-06
7.89216e-07
-1.62702e-06
2.40539e-07
-1.52606e-06
-1.00965e-07
-1.17657e-06
-3.49481e-07
-8.26303e-07
-3.50269e-07
-2.64739e-07
-5.61563e-07
-2.64739e-07
-9.41654e-07
2.33487e-06
-6.3787e-07
-6.68664e-07
-3.53265e-07
-8.71241e-07
-1.71512e-07
-5.56626e-07
-7.52194e-08
-3.43227e-07
-1.6343e-08
-2.09468e-07
5.37255e-08
-1.51127e-07
1.21376e-07
-1.93852e-07
1.04122e-07
-7.57764e-08
-6.36235e-08
2.82783e-07
-3.19621e-07
6.26662e-07
-6.5704e-07
1.07993e-06
-9.89652e-07
1.12183e-06
-1.22819e-06
4.79078e-07
-1.26015e-06
-6.89981e-08
-1.13478e-06
-4.74852e-07
-1.00934e-06
-4.75709e-07
-6.5381e-07
-9.17092e-07
-9.18548e-07
-4.0076e-07
2.73564e-06
-3.23718e-07
-7.45714e-07
-2.78602e-07
-9.16357e-07
-2.48346e-07
-5.86884e-07
-2.41285e-07
-3.50289e-07
-2.40661e-07
-2.10096e-07
-2.14039e-07
-1.7775e-07
-1.89721e-07
-2.1817e-07
-2.43614e-07
-2.18826e-08
-4.2888e-07
4.68052e-07
-6.17323e-07
8.15107e-07
-7.21457e-07
1.18407e-06
-8.04612e-07
1.20499e-06
-9.79277e-07
6.53744e-07
-1.06125e-06
1.29769e-08
-1.04042e-06
-4.95681e-07
-1.09151e-06
-4.24613e-07
-8.88601e-07
-1.12e-06
-1.80715e-06
5.65916e-08
2.67905e-06
-9.23055e-08
-5.96822e-07
-2.4203e-07
-7.66632e-07
-3.30148e-07
-4.98768e-07
-3.93477e-07
-2.8696e-07
-4.41222e-07
-1.62355e-07
-4.56934e-07
-1.62039e-07
-4.61068e-07
-2.14036e-07
-5.18421e-07
3.54714e-08
-6.7589e-07
6.25522e-07
-8.02393e-07
9.41613e-07
-7.99154e-07
1.18083e-06
-7.603e-07
1.16613e-06
-8.47844e-07
7.41289e-07
-8.99372e-07
6.45075e-08
-8.97037e-07
-4.98015e-07
-1.02733e-06
-2.94322e-07
-8.72719e-07
-1.27461e-06
-2.67987e-06
3.7467e-07
2.30438e-06
2.7833e-08
-2.49987e-07
-2.58145e-07
-4.80655e-07
-4.3038e-07
-3.26533e-07
-5.48414e-07
-1.68925e-07
-6.38092e-07
-7.26796e-08
-6.90836e-07
-1.09295e-07
-7.14439e-07
-1.90434e-07
-7.57279e-07
7.83126e-08
-8.69525e-07
7.37769e-07
-9.31387e-07
1.00348e-06
-8.68377e-07
1.11782e-06
-7.77852e-07
1.07561e-06
-8.02585e-07
7.66025e-07
-7.56939e-07
1.88643e-08
-6.97351e-07
-5.57601e-07
-7.96739e-07
-1.94931e-07
-6.76572e-07
-1.39478e-06
-3.35644e-06
4.26872e-07
1.87751e-06
1.24024e-08
1.6448e-07
-3.31173e-07
-1.37083e-07
-5.52382e-07
-1.05325e-07
-7.08783e-07
-1.25241e-08
-8.3327e-07
5.18041e-08
-9.19824e-07
-2.27423e-08
-9.58784e-07
-1.51476e-07
-9.73219e-07
9.27482e-08
-1.03356e-06
7.98109e-07
-1.03551e-06
1.00543e-06
-9.31997e-07
1.01431e-06
-8.03483e-07
9.471e-07
-7.79878e-07
7.42423e-07
-6.45368e-07
-1.15642e-07
-4.65341e-07
-7.37624e-07
-4.4438e-07
-2.1589e-07
-3.88277e-07
-1.45088e-06
-3.74471e-06
2.84496e-07
1.59301e-06
-1.06877e-07
5.5585e-07
-4.50259e-07
2.06292e-07
-6.91928e-07
1.3634e-07
-8.72229e-07
1.67774e-07
-1.02373e-06
2.03297e-07
-1.14152e-06
9.50513e-08
-1.20137e-06
-9.16367e-08
-1.18565e-06
7.70357e-08
-1.16529e-06
7.7775e-07
-1.12217e-06
9.62308e-07
-9.8596e-07
8.781e-07
-8.3043e-07
7.91573e-07
-7.3578e-07
6.47777e-07
-5.14442e-07
-3.36976e-07
-2.76706e-07
-9.75355e-07
-1.17086e-07
-3.75508e-07
-5.18308e-08
-1.51613e-06
-3.79654e-06
4.0388e-08
1.55262e-06
-2.81331e-07
8.7756e-07
-5.95639e-07
5.20595e-07
-8.41519e-07
3.82216e-07
-1.03347e-06
3.59726e-07
-1.20322e-06
3.73042e-07
-1.34538e-06
2.37204e-07
-1.44152e-06
4.49995e-09
-1.40652e-06
4.2033e-08
-1.28114e-06
6.52374e-07
-1.18402e-06
8.65185e-07
-1.01822e-06
7.12304e-07
-8.47583e-07
6.2094e-07
-6.42871e-07
4.43066e-07
-3.46375e-07
-6.33469e-07
-1.37915e-07
-1.18381e-06
1.55525e-07
-6.68945e-07
2.40142e-07
-1.60074e-06
-3.5564e-06
3.91956e-07
-1.63148e-06
7.74015e-07
-1.64862e-06
1.13745e-06
-1.60753e-06
1.48148e-06
-1.55765e-06
1.79693e-06
-1.47716e-06
2.07354e-06
-1.36633e-06
2.30869e-06
-1.2416e-06
2.50684e-06
-1.10873e-06
2.66233e-06
-9.36914e-07
2.75739e-06
-7.04056e-07
2.78139e-06
-4.43848e-07
2.72282e-06
-1.9019e-07
2.58415e-06
1.83281e-08
2.36487e-06
2.02982e-07
2.0753e-06
3.9316e-07
1.7629e-06
6.41497e-07
1.57319e-06
1.0117e-06
1.68508e-06
1.52762e-06
1.84967e-06
1.97582e-06
2.00847e-06
2.1468e-06
2.16051e-06
1.90567e-06
1.8942e-06
1.54447e-06
1.35709e-06
1.18902e-06
4.13298e-07
-2.04478e-06
8.16121e-07
-2.05145e-06
1.18658e-06
-1.97799e-06
1.53918e-06
-1.91025e-06
1.86121e-06
-1.7992e-06
2.12904e-06
-1.63416e-06
2.33398e-06
-1.44655e-06
2.47563e-06
-1.25038e-06
2.56315e-06
-1.02443e-06
2.61139e-06
-7.52298e-07
2.62419e-06
-4.56646e-07
2.58741e-06
-1.53411e-07
2.47908e-06
1.26655e-07
2.2872e-06
3.9487e-07
2.0217e-06
6.58662e-07
1.73332e-06
9.29875e-07
1.52561e-06
1.21942e-06
1.53899e-06
1.51425e-06
1.75566e-06
1.75915e-06
1.97861e-06
1.92386e-06
1.91998e-06
1.96431e-06
1.51265e-06
1.95179e-06
1.97028e-06
8.99449e-07
3.80972e-07
-2.42576e-06
7.01488e-07
-2.37196e-06
1.09173e-06
-2.36822e-06
1.42616e-06
-2.24467e-06
1.70467e-06
-2.0777e-06
1.9694e-06
-1.89889e-06
2.18442e-06
-1.66157e-06
2.29339e-06
-1.35934e-06
2.30995e-06
-1.041e-06
2.3168e-06
-7.59142e-07
2.33836e-06
-4.78208e-07
2.36632e-06
-1.81369e-07
2.32343e-06
1.69549e-07
2.1757e-06
5.42609e-07
1.94201e-06
8.92357e-07
1.68668e-06
1.18521e-06
1.50937e-06
1.39674e-06
1.4657e-06
1.55793e-06
1.66105e-06
1.5638e-06
1.85522e-06
1.72969e-06
1.66847e-06
2.15105e-06
1.2412e-06
2.37902e-06
2.51554e-06
6.95898e-07
8.7749e-08
-2.51352e-06
1.87851e-07
-2.47218e-06
8.79605e-07
-3.06003e-06
1.06606e-06
-2.43101e-06
8.19479e-07
-1.83101e-06
1.16688e-06
-2.2462e-06
1.60084e-06
-2.09545e-06
1.87403e-06
-1.63246e-06
1.92028e-06
-1.0872e-06
1.95559e-06
-7.94401e-07
2.00114e-06
-5.23733e-07
2.05604e-06
-2.36259e-07
2.12645e-06
9.91291e-08
1.94062e-06
7.2842e-07
1.68965e-06
1.14329e-06
1.57432e-06
1.30049e-06
1.67321e-06
1.29779e-06
1.82132e-06
1.40975e-06
1.55566e-06
1.8294e-06
1.5555e-06
1.7298e-06
1.55572e-06
2.15077e-06
1.39034e-06
2.54434e-06
2.95274e-06
9.53126e-07
-2.59443e-06
8.11402e-08
-3.0663e-06
-2.00011e-06
-3.51426e-06
-2.61221e-06
-4.56744e-06
-1.37795e-06
-5.30359e-06
-1.09495e-06
-4.95254e-06
-2.59736e-06
-3.70869e-06
-3.33944e-06
-2.47476e-06
-2.86652e-06
-1.74691e-06
-1.81514e-06
-1.08506e-06
-1.45631e-06
-4.5056e-07
-1.15826e-06
3.20077e-07
-1.00689e-06
1.29224e-06
-8.72985e-07
1.88728e-06
1.33459e-07
2.35764e-06
6.73038e-07
2.7834e-06
8.74875e-07
2.8301e-06
1.25126e-06
2.47601e-06
1.76401e-06
1.12558e-06
3.18001e-06
1.90689e-07
2.66486e-06
-4.75815e-09
2.34641e-06
6.36066e-08
2.47603e-06
3.01548e-06
5.84831e-10
1.43546e-06
-1.35435e-06
1.43933e-06
-2.00403e-06
-7.45203e-07
-4.2754e-07
-1.71342e-06
-4.09595e-07
-1.1662e-06
-1.642e-06
-2.07352e-06
-1.68987e-06
-2.86607e-06
-2.54673e-06
-3.15628e-06
-2.57618e-06
-2.90111e-06
-2.07019e-06
-2.71058e-06
-1.64674e-06
-2.60288e-06
-1.26589e-06
-2.58119e-06
-1.02853e-06
-2.31932e-06
-1.13483e-06
-1.27789e-06
-9.07989e-07
-4.31816e-07
-1.73103e-07
-4.41294e-07
8.84262e-07
-1.27359e-06
2.08345e-06
-1.87384e-06
2.36417e-06
-1.87608e-06
3.18219e-06
-2.48559e-06
3.27439e-06
-3.01966e-06
2.88066e-06
-3.24492e-06
2.70185e-06
2.60675e-06
-2.83535e-06
5.69419e-08
-1.41094e-06
-8.04627e-07
-1.14235e-06
-1.18018e-06
-5.16335e-08
-1.41396e-06
-1.75535e-07
-1.97667e-06
-1.07909e-06
-2.31245e-06
-1.35392e-06
-3.06392e-06
-1.79515e-06
-3.72213e-06
-1.9179e-06
-4.09824e-06
-1.69407e-06
-4.363e-06
-1.38198e-06
-4.61586e-06
-1.01308e-06
-4.8159e-06
-8.28572e-07
-4.55021e-06
-1.40063e-06
-3.76015e-06
-1.69819e-06
-3.07548e-06
-8.57963e-07
-2.78347e-06
5.92017e-07
-2.73428e-06
2.03397e-06
-3.08737e-06
2.71696e-06
-3.30613e-06
3.40062e-06
-3.66387e-06
3.63164e-06
-4.01879e-06
3.23479e-06
-3.88552e-06
2.56775e-06
2.46478e-06
-3.74439e-06
-9.62601e-07
-4.48454e-07
-1.6226e-06
-4.82309e-07
-1.68257e-06
8.39579e-09
-1.80255e-06
-5.55218e-08
-2.2869e-06
-5.94728e-07
-2.72832e-06
-9.12511e-07
-3.32394e-06
-1.19953e-06
-3.93578e-06
-1.30605e-06
-4.38454e-06
-1.24528e-06
-4.68058e-06
-1.08589e-06
-4.85531e-06
-8.38268e-07
-4.88682e-06
-7.96976e-07
-4.88447e-06
-1.40289e-06
-4.94655e-06
-1.63602e-06
-4.88665e-06
-9.17765e-07
-4.68856e-06
3.94016e-07
-4.27357e-06
1.61907e-06
-4.14017e-06
2.58371e-06
-4.00278e-06
3.26344e-06
-3.85124e-06
3.48034e-06
-3.80036e-06
3.184e-06
-3.91028e-06
2.67771e-06
2.34451e-06
-3.78998e-06
-4.57588e-07
8.98347e-09
-1.11128e-06
1.71531e-07
-1.4587e-06
3.55873e-07
-1.77033e-06
2.56134e-07
-2.25975e-06
-1.053e-07
-2.73247e-06
-4.398e-07
-3.24842e-06
-6.83569e-07
-3.7566e-06
-7.97844e-07
-4.14038e-06
-8.61455e-07
-4.38892e-06
-8.37273e-07
-4.50002e-06
-7.27065e-07
-4.53563e-06
-7.61244e-07
-4.84841e-06
-1.08997e-06
-5.32541e-06
-1.1589e-06
-5.6094e-06
-6.33647e-07
-5.48245e-06
2.6718e-07
-5.11929e-06
1.256e-06
-4.75917e-06
2.22372e-06
-4.39077e-06
2.89527e-06
-4.06134e-06
3.15124e-06
-3.88405e-06
3.00707e-06
-3.84366e-06
2.63766e-06
2.23709e-06
-3.73596e-06
-6.06387e-07
6.15465e-07
-1.07124e-06
6.36668e-07
-1.3768e-06
6.61597e-07
-1.67774e-06
5.57184e-07
-2.07724e-06
2.94278e-07
-2.51341e-06
-3.55569e-09
-2.95833e-06
-2.38595e-07
-3.37056e-06
-3.85559e-07
-3.69849e-06
-5.33483e-07
-3.94841e-06
-5.87308e-07
-4.13115e-06
-5.44289e-07
-4.33321e-06
-5.5915e-07
-4.71228e-06
-7.10891e-07
-5.17342e-06
-6.97764e-07
-5.45821e-06
-3.48903e-07
-5.45673e-06
2.65583e-07
-5.23978e-06
1.03886e-06
-4.86657e-06
1.85027e-06
-4.44887e-06
2.47731e-06
-4.07292e-06
2.77507e-06
-3.81282e-06
2.74678e-06
-3.66583e-06
2.49046e-06
2.09489e-06
-3.5239e-06
-4.39292e-07
1.05499e-06
-8.45723e-07
1.0434e-06
-1.17287e-06
9.88953e-07
-1.47782e-06
8.62309e-07
-1.82144e-06
6.38047e-07
-2.20246e-06
3.77607e-07
-2.58157e-06
1.40634e-07
-2.91771e-06
-4.93223e-08
-3.22366e-06
-2.27469e-07
-3.49824e-06
-3.12685e-07
-3.763e-06
-2.79524e-07
-4.03425e-06
-2.87919e-07
-4.40247e-06
-3.42704e-07
-4.80324e-06
-2.97062e-07
-5.07367e-06
-7.85638e-08
-5.10083e-06
2.92581e-07
-4.92411e-06
8.61891e-07
-4.61692e-06
1.54274e-06
-4.24458e-06
2.10455e-06
-3.8771e-06
2.40712e-06
-3.5692e-06
2.43839e-06
-3.3288e-06
2.24957e-06
1.87613e-06
-3.11058e-06
-3.71096e-07
1.42631e-06
-7.01909e-07
1.37442e-06
-9.92174e-07
1.27939e-06
-1.27008e-06
1.14037e-06
-1.56846e-06
9.36576e-07
-1.88774e-06
6.97036e-07
-2.2018e-06
4.54833e-07
-2.48579e-06
2.34785e-07
-2.77824e-06
6.50549e-08
-3.08329e-06
-7.59635e-09
-3.36938e-06
6.58205e-09
-3.65535e-06
-1.96097e-09
-3.98197e-06
-1.60996e-08
-4.3106e-06
3.15439e-08
-4.54518e-06
1.55985e-07
-4.60633e-06
3.53691e-07
-4.49394e-06
7.49429e-07
-4.23159e-06
1.28024e-06
-3.91245e-06
1.78519e-06
-3.56987e-06
2.06429e-06
-3.23699e-06
2.10523e-06
-2.92985e-06
1.94214e-06
1.588e-06
-2.64202e-06
-2.90447e-07
1.71689e-06
-5.67772e-07
1.65183e-06
-8.23091e-07
1.53478e-06
-1.07052e-06
1.38789e-06
-1.32873e-06
1.19489e-06
-1.59994e-06
9.68353e-07
-1.86274e-06
7.17735e-07
-2.1191e-06
4.91227e-07
-2.40106e-06
3.47066e-07
-2.70395e-06
2.95331e-07
-2.97636e-06
2.78998e-07
-3.24127e-06
2.62952e-07
-3.51284e-06
2.55458e-07
-3.76703e-06
2.85727e-07
-3.96407e-06
3.53049e-07
-4.07354e-06
4.63203e-07
-4.02894e-06
7.04885e-07
-3.83159e-06
1.08294e-06
-3.56187e-06
1.5155e-06
-3.24402e-06
1.74645e-06
-2.91195e-06
1.77317e-06
-2.58867e-06
1.61888e-06
1.29308e-06
-2.2937e-06
-2.19762e-07
1.9367e-06
-4.48515e-07
1.88056e-06
-6.69703e-07
1.75597e-06
-8.86266e-07
1.60448e-06
-1.10936e-06
1.41803e-06
-1.34281e-06
1.20185e-06
-1.57572e-06
9.50694e-07
-1.82391e-06
7.39467e-07
-2.09412e-06
6.17303e-07
-2.36383e-06
5.65061e-07
-2.60955e-06
5.24734e-07
-2.83996e-06
4.93379e-07
-3.05938e-06
4.74879e-07
-3.25452e-06
4.80884e-07
-3.41544e-06
5.14012e-07
-3.53315e-06
5.80986e-07
-3.5479e-06
7.1974e-07
-3.4432e-06
9.78361e-07
-3.21895e-06
1.29138e-06
-2.93246e-06
1.46011e-06
-2.62674e-06
1.46761e-06
-2.33057e-06
1.32288e-06
1.03766e-06
-2.07495e-06
-1.64342e-07
2.10101e-06
-3.48195e-07
2.06436e-06
-5.36868e-07
1.94462e-06
-7.25052e-07
1.79267e-06
-9.1873e-07
1.61172e-06
-1.12216e-06
1.4053e-06
-1.34491e-06
1.17346e-06
-1.58507e-06
9.79649e-07
-1.8355e-06
8.67752e-07
-2.06703e-06
7.96612e-07
-2.28044e-06
7.38167e-07
-2.47693e-06
6.89891e-07
-2.65686e-06
6.54841e-07
-2.81454e-06
6.38602e-07
-2.94435e-06
6.43882e-07
-3.04153e-06
6.78235e-07
-3.0888e-06
7.67113e-07
-3.03942e-06
9.29109e-07
-2.86535e-06
1.11746e-06
-2.62745e-06
1.22237e-06
-2.36753e-06
1.20785e-06
-2.11814e-06
1.07367e-06
8.30923e-07
-1.91122e-06
-1.22523e-07
2.22348e-06
-2.69244e-07
2.21104e-06
-4.29399e-07
2.10476e-06
-5.94422e-07
1.95768e-06
-7.65785e-07
1.78308e-06
-9.48451e-07
1.58796e-06
-1.15752e-06
1.38253e-06
-1.38439e-06
1.20652e-06
-1.60393e-06
1.08731e-06
-1.80451e-06
9.97203e-07
-1.98828e-06
9.21957e-07
-2.15605e-06
8.57688e-07
-2.30718e-06
8.06003e-07
-2.43862e-06
7.70082e-07
-2.54769e-06
7.52995e-07
-2.6304e-06
7.60998e-07
-2.67024e-06
8.07022e-07
-2.63617e-06
8.95123e-07
-2.51153e-06
9.92905e-07
-2.32742e-06
1.03836e-06
-2.12033e-06
1.00086e-06
-1.92124e-06
8.74682e-07
6.68287e-07
-1.75851e-06
-9.01139e-08
2.31356e-06
-2.09602e-07
2.33054e-06
-3.49365e-07
2.24454e-06
-4.96115e-07
2.10444e-06
-6.50474e-07
1.93744e-06
-8.17463e-07
1.75495e-06
-1.00507e-06
1.57013e-06
-1.20471e-06
1.40616e-06
-1.3943e-06
1.2769e-06
-1.56885e-06
1.17175e-06
-1.72786e-06
1.08098e-06
-1.87193e-06
1.00176e-06
-2.0004e-06
9.34492e-07
-2.11138e-06
8.81072e-07
-2.2024e-06
8.44029e-07
-2.26874e-06
8.27352e-07
-2.29784e-06
8.3614e-07
-2.27082e-06
8.68122e-07
-2.17931e-06
9.01414e-07
-2.04089e-06
8.99961e-07
-1.8817e-06
8.41689e-07
-1.72726e-06
7.20257e-07
5.41583e-07
-1.60055e-06
-7.0105e-08
2.38366e-06
-1.73118e-07
2.4336e-06
-2.95128e-07
2.36658e-06
-4.25001e-07
2.23434e-06
-5.6318e-07
2.07563e-06
-7.12747e-07
1.90453e-06
-8.75603e-07
1.73299e-06
-1.04468e-06
1.57524e-06
-1.2074e-06
1.43961e-06
-1.35788e-06
1.32222e-06
-1.49507e-06
1.21816e-06
-1.61867e-06
1.12535e-06
-1.72791e-06
1.04373e-06
-1.8212e-06
9.74347e-07
-1.896e-06
9.18818e-07
-1.94774e-06
8.79067e-07
-1.96776e-06
8.56143e-07
-1.94533e-06
8.4566e-07
-1.87676e-06
8.32813e-07
-1.77299e-06
7.96167e-07
-1.65212e-06
7.20777e-07
-1.53342e-06
6.01528e-07
4.42574e-07
-1.43445e-06
-6.16788e-08
2.44537e-06
-1.56406e-07
2.5284e-06
-2.60366e-07
2.47059e-06
-3.72906e-07
2.34691e-06
-4.93728e-07
2.19648e-06
-6.23675e-07
2.03449e-06
-7.62151e-07
1.87147e-06
-9.03987e-07
1.71708e-06
-1.0413e-06
1.57693e-06
-1.16944e-06
1.45036e-06
-1.28656e-06
1.33528e-06
-1.39172e-06
1.2305e-06
-1.48387e-06
1.13586e-06
-1.56143e-06
1.05189e-06
-1.62199e-06
9.79356e-07
-1.66174e-06
9.1878e-07
-1.67498e-06
8.69343e-07
-1.6559e-06
8.26532e-07
-1.60344e-06
7.80307e-07
-1.5249e-06
7.17574e-07
-1.43276e-06
6.28582e-07
-1.34104e-06
5.09758e-07
3.64098e-07
-1.26261e-06
-6.15208e-08
2.50694e-06
-1.46732e-07
2.61369e-06
-2.3547e-07
2.55938e-06
-3.31662e-07
2.44314e-06
-4.35038e-07
2.29988e-06
-5.45329e-07
2.14481e-06
-6.6119e-07
1.98735e-06
-7.78861e-07
1.83477e-06
-8.93264e-07
1.69135e-06
-1.00079e-06
1.55789e-06
-1.09936e-06
1.43386e-06
-1.18766e-06
1.31878e-06
-1.26439e-06
1.21258e-06
-1.32798e-06
1.11547e-06
-1.37628e-06
1.02763e-06
-1.40636e-06
9.48821e-07
-1.41458e-06
8.77532e-07
-1.39798e-06
8.09887e-07
-1.35678e-06
7.39062e-07
-1.29614e-06
6.56883e-07
-1.22474e-06
5.57132e-07
-1.15256e-06
4.37536e-07
3.0034e-07
-1.08886e-06
-6.51089e-08
2.5721e-06
-1.37442e-07
2.6861e-06
-2.13989e-07
2.63599e-06
-2.95819e-07
2.52502e-06
-3.82811e-07
2.38692e-06
-4.7463e-07
2.23666e-06
-5.70049e-07
2.0828e-06
-6.66445e-07
1.93119e-06
-7.60446e-07
1.78537e-06
-8.49257e-07
1.64672e-06
-9.30893e-07
1.51551e-06
-1.00385e-06
1.39175e-06
-1.06674e-06
1.27547e-06
-1.11802e-06
1.16674e-06
-1.15586e-06
1.06545e-06
-1.17808e-06
9.71017e-07
-1.18243e-06
8.8186e-07
-1.1675e-06
7.94919e-07
-1.13405e-06
7.0557e-07
-1.08585e-06
6.08643e-07
-1.02901e-06
5.00242e-07
-9.70561e-07
3.7904e-07
2.4678e-07
-9.17053e-07
-6.94533e-08
2.6416e-06
-1.2788e-07
2.7446e-06
-1.94335e-07
2.7025e-06
-2.63134e-07
2.59387e-06
-3.34859e-07
2.45869e-06
-4.09645e-07
2.31149e-06
-4.86757e-07
2.15995e-06
-5.64458e-07
2.00893e-06
-6.40444e-07
1.86139e-06
-7.12544e-07
1.71884e-06
-7.78959e-07
1.58194e-06
-8.38173e-07
1.45097e-06
-8.88776e-07
1.32607e-06
-9.29327e-07
1.20728e-06
-9.58281e-07
1.09439e-06
-9.74045e-07
9.8676e-07
-9.75234e-07
8.83021e-07
-9.61243e-07
7.80894e-07
-9.32983e-07
6.7727e-07
-8.93263e-07
5.68878e-07
-8.46394e-07
4.53324e-07
-7.97328e-07
3.29922e-07
2.00056e-07
-7.50663e-07
-6.9801e-08
2.71144e-06
-1.21603e-07
2.79647e-06
-1.77259e-07
2.75821e-06
-2.32958e-07
2.64963e-06
-2.89986e-07
2.51577e-06
-3.49e-07
2.37055e-06
-4.09723e-07
2.22072e-06
-4.71024e-07
2.07026e-06
-5.31252e-07
1.92164e-06
-5.88672e-07
1.77628e-06
-6.41676e-07
1.63495e-06
-6.88806e-07
1.4981e-06
-7.28697e-07
1.36596e-06
-7.60021e-07
1.23859e-06
-7.81482e-07
1.11584e-06
-7.91892e-07
9.97143e-07
-7.90379e-07
8.81474e-07
-7.76742e-07
7.67216e-07
-7.51845e-07
6.52325e-07
-7.17778e-07
5.34758e-07
-6.77607e-07
4.13096e-07
-6.34809e-07
2.87062e-07
1.5778e-07
-5.92602e-07
-6.51165e-08
2.7766e-06
-1.17429e-07
2.84886e-06
-1.61766e-07
2.80262e-06
-2.04005e-07
2.69193e-06
-2.46807e-07
2.55863e-06
-2.91287e-07
2.41509e-06
-3.37452e-07
2.26693e-06
-3.84501e-07
2.11735e-06
-4.31148e-07
1.96832e-06
-4.75931e-07
1.82108e-06
-5.17393e-07
1.67642e-06
-5.54151e-07
1.53486e-06
-5.84909e-07
1.39671e-06
-6.08452e-07
1.26212e-06
-6.23673e-07
1.13103e-06
-6.29654e-07
1.00309e-06
-6.25816e-07
8.77594e-07
-6.12133e-07
7.53484e-07
-5.89339e-07
6.29476e-07
-5.58982e-07
5.04342e-07
-5.23249e-07
3.77298e-07
-4.84582e-07
2.48327e-07
1.18352e-07
-4.4523e-07
-6.25409e-08
2.83918e-06
-1.12448e-07
2.89885e-06
-1.44887e-07
2.83513e-06
-1.73892e-07
2.721e-06
-2.03431e-07
2.58823e-06
-2.34913e-07
2.44662e-06
-2.68455e-07
2.30051e-06
-3.03395e-07
2.15232e-06
-3.38625e-07
2.00357e-06
-3.7283e-07
1.8553e-06
-4.04652e-07
1.70825e-06
-4.32779e-07
1.56298e-06
-4.55981e-07
1.4199e-06
-4.7314e-07
1.27926e-06
-4.8329e-07
1.14115e-06
-4.85686e-07
1.00545e-06
-4.79904e-07
8.71767e-07
-4.65977e-07
7.39505e-07
-4.44485e-07
6.07928e-07
-4.1657e-07
4.76367e-07
-3.83793e-07
3.44456e-07
-3.47874e-07
2.12341e-07
8.07912e-08
-3.10385e-07
-6.32874e-08
2.90252e-06
-1.02639e-07
2.93828e-06
-1.22948e-07
2.85551e-06
-1.39932e-07
2.73805e-06
-1.57894e-07
2.60625e-06
-1.78322e-07
2.4671e-06
-2.01363e-07
2.32359e-06
-2.264e-07
2.17739e-06
-2.52392e-07
2.02958e-06
-2.78088e-07
1.88101e-06
-3.02187e-07
1.73236e-06
-3.23426e-07
1.58422e-06
-3.40633e-07
1.43709e-06
-3.52769e-07
1.29137e-06
-3.58968e-07
1.14732e-06
-3.58593e-07
1.00504e-06
-3.51302e-07
8.64434e-07
-3.37125e-07
7.25281e-07
-3.16505e-07
5.87256e-07
-2.90276e-07
4.50084e-07
-2.59559e-07
3.13683e-07
-2.25573e-07
1.78298e-07
4.458e-08
-1.89423e-07
-5.6919e-08
2.95949e-06
-8.26738e-08
2.96411e-06
-9.30937e-08
2.86599e-06
-1.00272e-07
2.74528e-06
-1.08809e-07
2.61483e-06
-1.20355e-07
2.47868e-06
-1.35118e-07
2.33839e-06
-1.52487e-07
2.19479e-06
-1.71414e-07
2.04853e-06
-1.90657e-07
1.90026e-06
-2.08931e-07
1.75063e-06
-2.25002e-07
1.60028e-06
-2.37744e-07
1.44982e-06
-2.4618e-07
1.29979e-06
-2.49515e-07
1.15063e-06
-2.47182e-07
1.00267e-06
-2.38881e-07
8.56101e-07
-2.2462e-07
7.10983e-07
-2.04727e-07
5.67323e-07
-1.79816e-07
4.25131e-07
-1.50699e-07
2.84523e-07
-1.18252e-07
1.45808e-07
9.54297e-09
-8.32585e-08
-4.07781e-08
3.00031e-06
-5.45866e-08
2.97798e-06
-5.60809e-08
2.86753e-06
-5.49839e-08
2.74423e-06
-5.58307e-08
2.61572e-06
-6.04689e-08
2.48336e-06
-6.90882e-08
2.34704e-06
-8.09626e-08
2.20668e-06
-9.49469e-08
2.06253e-06
-1.09738e-07
1.91506e-06
-1.24029e-07
1.76493e-06
-1.36598e-07
1.61285e-06
-1.46352e-07
1.45957e-06
-1.52362e-07
1.30579e-06
-1.53889e-07
1.15215e-06
-1.50414e-07
9.99182e-07
-1.41662e-07
8.47327e-07
-1.27619e-07
6.96916e-07
-1.08526e-07
5.48205e-07
-8.48447e-08
4.01423e-07
-5.71805e-08
2.56833e-07
-2.6178e-08
1.1478e-07
-2.42545e-08
7.59419e-09
-2.19458e-08
3.02229e-06
-2.27189e-08
2.97879e-06
-1.45664e-08
2.85941e-06
-5.17953e-09
2.73487e-06
7.30211e-10
2.60983e-06
1.40128e-09
2.48271e-06
-3.01233e-09
2.35147e-06
-1.14605e-08
2.21515e-06
-2.25341e-08
2.07362e-06
-3.47837e-08
1.92732e-06
-4.68441e-08
1.777e-06
-5.74876e-08
1.6235e-06
-6.56489e-08
1.46773e-06
-7.04417e-08
1.31058e-06
-7.11738e-08
1.15288e-06
-6.73651e-08
9.95367e-07
-5.87599e-08
8.38713e-07
-4.53305e-08
6.83476e-07
-2.72641e-08
5.30127e-07
-4.9236e-09
3.79072e-07
2.12178e-08
2.30681e-07
5.06635e-08
8.53251e-08
-5.65855e-08
8.29856e-08
-2.66781e-09
3.02498e-06
1.05709e-08
2.96558e-06
2.9891e-08
2.84011e-06
4.84728e-08
2.7163e-06
6.07626e-08
2.59756e-06
6.53086e-08
2.47817e-06
6.31559e-08
2.35363e-06
5.6112e-08
2.2222e-06
4.60104e-08
2.08373e-06
3.45117e-08
1.93883e-06
2.30606e-08
1.78845e-06
1.28911e-08
1.63367e-06
5.03854e-09
1.47559e-06
3.45582e-10
1.31528e-06
-5.43394e-10
1.15377e-06
2.8172e-09
9.92007e-07
1.0663e-08
8.30868e-07
2.3023e-08
6.71117e-07
3.9738e-08
5.13413e-07
6.04987e-08
3.58312e-07
8.49066e-08
2.06274e-07
1.12552e-07
5.76825e-08
-8.71234e-08
1.43093e-07
1.48965e-08
3.0101e-06
4.29091e-08
2.93757e-06
7.68514e-08
2.80617e-06
1.06187e-07
2.68697e-06
1.24404e-07
2.57934e-06
1.31133e-07
2.47145e-06
1.29203e-07
2.35557e-06
1.2156e-07
2.22985e-06
1.10605e-07
2.09468e-06
9.82311e-08
1.95121e-06
8.59444e-08
1.80075e-06
7.4964e-08
1.64466e-06
6.62799e-08
1.48428e-06
6.06817e-08
1.32088e-06
5.87692e-08
1.15569e-06
6.09493e-08
9.89835e-07
6.74344e-08
8.24391e-07
7.8246e-08
6.60313e-07
9.3231e-08
4.98436e-07
1.12099e-07
3.39453e-07
1.34482e-07
1.83901e-07
1.60009e-07
3.21665e-08
-1.15489e-07
1.88386e-07
3.20201e-08
2.97808e-06
7.7753e-08
2.89183e-06
1.28124e-07
2.75579e-06
1.69298e-07
2.64579e-06
1.92136e-07
2.5565e-06
1.98625e-07
2.46495e-06
1.94559e-07
2.35963e-06
1.84341e-07
2.24006e-06
1.70897e-07
2.10813e-06
1.56261e-07
1.96584e-06
1.41931e-07
1.81508e-06
1.29068e-07
1.65753e-06
1.18591e-07
1.49476e-06
1.11227e-07
1.32825e-06
1.07524e-07
1.1594e-06
1.07855e-07
9.89514e-07
1.12409e-07
8.19848e-07
1.21196e-07
6.51538e-07
1.34054e-07
4.85591e-07
1.50686e-07
3.22835e-07
1.70716e-07
1.63885e-07
1.93775e-07
9.12212e-09
-1.41285e-07
2.19588e-07
5.56053e-08
2.92247e-06
1.20129e-07
2.82728e-06
1.87333e-07
2.68857e-06
2.40084e-07
2.59303e-06
2.63643e-07
2.53293e-06
2.66559e-07
2.46203e-06
2.57958e-07
2.36822e-06
2.43483e-07
2.25453e-06
2.26285e-07
2.12532e-06
2.08352e-07
1.98378e-06
1.91077e-07
1.83235e-06
1.75513e-07
1.67309e-06
1.62487e-07
1.50779e-06
1.52653e-07
1.33809e-06
1.46511e-07
1.16555e-06
1.44402e-07
9.91634e-07
1.465e-07
8.17761e-07
1.52806e-07
6.45246e-07
1.63144e-07
4.75267e-07
1.77194e-07
3.088e-07
1.94544e-07
1.46551e-07
2.14788e-07
-1.11062e-08
-1.64124e-07
2.37644e-07
1.00459e-07
2.822e-06
1.88132e-07
2.73959e-06
2.65896e-07
2.61079e-06
3.14406e-07
2.5445e-06
3.36051e-07
2.51127e-06
3.31989e-07
2.46608e-06
3.17335e-07
2.38287e-06
2.97712e-07
2.27415e-06
2.7608e-07
2.14695e-06
2.54255e-07
2.0056e-06
2.33475e-07
1.85313e-06
2.14663e-07
1.69191e-06
1.98546e-07
1.52391e-06
1.85706e-07
1.35094e-06
1.76596e-07
1.17467e-06
1.71538e-07
9.96702e-07
1.70705e-07
8.18607e-07
1.74098e-07
6.41865e-07
1.81541e-07
4.67837e-07
1.92681e-07
2.97675e-07
2.07043e-07
1.32204e-07
2.24149e-07
-2.81969e-08
-1.83644e-07
2.43685e-07
1.82611e-07
2.63938e-06
2.9609e-07
2.62609e-06
3.67017e-07
2.53984e-06
3.96885e-07
2.51462e-06
4.04962e-07
2.50318e-06
3.92301e-07
2.47872e-06
3.7118e-07
2.40398e-06
3.46179e-07
2.29914e-06
3.19893e-07
2.17323e-06
2.93931e-07
2.03156e-06
2.69372e-07
1.87769e-06
2.47009e-07
1.71427e-06
2.27463e-07
1.54346e-06
2.11241e-07
1.36717e-06
1.98757e-07
1.18716e-06
1.90321e-07
1.00515e-06
1.86124e-07
8.22814e-07
1.86198e-07
6.41802e-07
1.90384e-07
4.63663e-07
1.98308e-07
2.89764e-07
2.09414e-07
1.21112e-07
2.23097e-07
-4.18672e-08
-1.99518e-07
2.38986e-07
2.97078e-07
2.34229e-06
4.38851e-07
2.48429e-06
4.85423e-07
2.49325e-06
4.91418e-07
2.50861e-06
4.7262e-07
2.52196e-06
4.48959e-07
2.50237e-06
4.20153e-07
2.43277e-06
3.89157e-07
2.33013e-06
3.57921e-07
2.20446e-06
3.2767e-07
2.0618e-06
2.99229e-07
1.90613e-06
2.732e-07
1.7403e-06
2.50067e-07
1.5666e-06
2.30245e-07
1.38699e-06
2.14098e-07
1.20331e-06
2.01935e-07
1.01732e-06
1.93982e-07
8.30775e-07
1.90338e-07
6.45455e-07
1.90906e-07
4.63106e-07
1.95327e-07
2.85354e-07
2.02951e-07
1.13499e-07
2.12978e-07
-5.18831e-08
-2.11464e-07
2.24935e-07
4.29803e-07
1.91247e-06
5.96651e-07
2.31742e-06
6.17223e-07
2.47267e-06
5.87733e-07
2.53808e-06
5.44399e-07
2.56528e-06
5.0472e-07
2.54204e-06
4.65478e-07
2.47201e-06
4.27202e-07
2.36839e-06
3.9052e-07
2.24113e-06
3.55876e-07
2.09644e-06
3.23602e-07
1.9384e-06
2.93982e-07
1.76992e-06
2.67291e-07
1.59329e-06
2.43815e-07
1.41047e-06
2.23852e-07
1.22328e-06
2.07702e-07
1.03347e-06
1.95643e-07
8.4284e-07
1.87874e-07
6.53231e-07
1.84432e-07
4.66555e-07
1.8505e-07
2.84744e-07
1.8901e-07
1.09549e-07
1.95198e-07
-5.8063e-08
-2.19243e-07
2.02986e-07
5.71755e-07
1.3407e-06
7.5355e-07
2.13561e-06
7.4733e-07
2.47887e-06
6.82546e-07
2.60285e-06
6.15568e-07
2.63225e-06
5.57082e-07
2.60052e-06
5.05727e-07
2.52335e-06
4.59584e-07
2.41453e-06
4.1748e-07
2.28323e-06
3.78731e-07
2.13519e-06
3.42982e-07
1.97414e-06