/*--------------------------------*- C++ -*----------------------------------*\
  =========                 |
  \\      /  F ield         | OpenFOAM: The Open Source CFD Toolbox
   \\    /   O peration     | Website:  https://openfoam.org
    \\  /    A nd           | Version:  9
     \\/     M anipulation  |
\*---------------------------------------------------------------------------*/
FoamFile
{
    format      ascii;
    class       volScalarField;
    location    "29";
    object      p;
}
// * * * * * * * * * * * * * * * * * * * * * * * * * * * * * * * * * * * * * //

dimensions      [0 2 -2 0 0 0 0];

internalField   nonuniform List<scalar> 
918
(
23.4694
23.5763
0.95333
22.8868
1.01689
23.0928
3.27308
13.7853
19.2426
2.93441
2.62479
14.4087
20.6357
16.8772
12.9933
0.925048
14.0523
2.24715
18.4603
1.39804
12.9925
20.4481
21.5368
19.2844
14.1215
14.3723
18.5981
1.14499
0.107926
0.255055
0.979203
0.410709
0.147572
21.6297
22.3063
22.2447
15.4952
10.4029
3.59821
3.80273
2.98355
2.8066
13.8279
13.9279
5.86756
13.7642
13.7599
16.6441
19.1107
19.2543
19.5475
19.3365
19.7229
5.97453
2.78566
2.60581
2.87626
2.95056
2.98315
2.69718
2.67884
2.48237
2.33639
13.8881
14.4818
14.5369
14.2681
14.2158
22.4524
21.6954
22.0302
21.1365
21.2819
20.2119
19.8263
17.2528
17.6053
16.4791
16.0982
12.7837
12.7449
13.2132
13.4631
0.145387
1.07611
1.22336
14.0592
14.0957
14.0958
14.1102
8.28355
2.18897
2.19178
17.9006
17.4771
20.482
20.7492
20.1962
20.0107
1.52987
1.52571
1.15067
1.18122
0.950406
13.3338
13.488
19.2358
18.4027
14.155
14.055
14.13
11.5002
13.9104
13.9837
15.3219
15.7774
14.9667
15.4031
18.1681
17.75
19.0346
19.4719
0.393063
0.154617
0.687623
0.318282
0.516738
15.3635
15.1581
15.6111
15.6619
15.8931
10.4078
10.3384
10.3818
10.3017
4.15
4.46459
2.25597
2.57057
2.42147
9.86646
13.9442
13.9909
4.81152
5.51584
5.17918
6.35026
6.72464
16.0098
16.4464
16.1852
17.7315
16.9364
17.2846
19.8137
19.3029
19.6033
6.36919
6.60357
5.60872
5.24995
2.23909
2.48846
2.43061
2.98184
2.95978
3.21799
3.3464
2.69866
2.55534
2.89311
2.77639
2.82855
2.16569
2.03588
13.6121
13.3982
14.1511
14.3296
15.0969
14.9485
14.6551
14.8239
19.0214
19.4248
19.4583
19.0741
11.5455
10.1559
13.7176
13.9931
0.302095
0.264571
0.138287
0.380979
0.400647
0.142541
2.0158
1.82732
1.40573
1.68112
14.0568
14.0166
8.52415
8.74376
8.12006
7.86386
16.3148
16.465
17.0992
16.6989
1.9623
1.67607
1.80593
13.651
13.5235
13.6303
10.9353
10.3687
11.9779
12.2477
13.9918
14.0356
14.0316
15.6815
16
19.8227
20.0934
19.9202
20.306
21.3688
21.0201
20.6353
14.5394
14.9478
14.7862
16.1284
15.7621
15.9816
15.1894
15.4941
15.3521
10.37
10.4163
10.12
10.1979
10.2464
10.1934
9.8037
9.67674
14.0776
14.0326
14.0567
7.2527
7.75075
4.86966
4.54083
12.544
13.2172
12.8927
18.6511
17.9734
18.7064
18.3355
17.8856
18.2091
10.4271
10.3887
10.4221
14.9174
14.2553
14.6072
2.44129
2.07703
2.24003
8.93973
9.03309
6.97169
7.58835
7.25143
16.3016
16.642
17.3221
16.4339
16.9015
17.4088
17.1869
9.9397
10.0725
9.98937
9.6602
9.55376
9.73545
8.33599
8.9493
3.61298
4.26963
3.96548
9.20107
9.43098
9.27824
18.6304
19.1652
0.765673
1.1529
19.5952
19.3189
0.139419
0.242299
14.2538
12.5514
7.26296
17.1976
16.6302
18.97
3.19286
6.10291
2.80956
3.38088
2.6866
14.6158
14.2498
13.3409
0.452855
1.25679
1.70901
2.89695
18.4108
17.7356
18.8517
19.1719
19.2262
0.687495
0.912582
0.584047
1.24202
1.03079
1.27573
15.5512
15.6494
4.32415
18.8587
19.163
19.1808
17.6575
18.6102
17.6677
0.935765
0.642802
0.707629
10.0809
12.1218
14.214
13.7666
13.9636
13.9857
13.7366
14.8699
14.5394
14.5044
14.9892
13.9666
13.8213
7.73473
6.38367
8.0692
7.70955
17.0989
16.6868
16.4937
16.2394
18.0852
17.6113
18.4616
17.85
18.3119
18.5987
2.94355
3.13327
3.01246
2.52116
6.14361
6.60663
5.48844
5.63416
4.25974
2.42832
2.52698
2.75337
2.58414
2.93151
2.67906
2.94314
2.5795
2.3239
2.32189
2.93116
2.73887
2.6046
14.5942
14.5326
14.3335
14.3716
14.354
14.4697
13.5354
13.9401
13.5678
12.3989
12.9801
12.5074
0.825886
0.66346
0.524966
1.32422
1.35136
1.1108
0.834422
1.17348
1.20175
0.813865
1.54526
1.44494
3.15621
2.64478
8.84091
7.96873
6.90137
16.8008
17.6026
16.7723
18.013
18.43
18.5354
18.1558
17.6476
15.7301
15.7252
15.3853
15.3387
4.77139
3.73223
4.96749
4.53657
10.4782
14.0656
11.8429
10.8041
11.1004
13.4245
13.9292
13.5816
13.7185
13.2936
12.8218
13.5137
13.0474
13.1487
12.9278
15.7182
16.1933
15.7998
15.2204
15.2403
10.5992
12.0158
5.46598
5.63995
7.24441
6.53829
13.5102
13.9331
13.9178
13.5563
13.744
13.7452
13.606
13.7801
13.86
13.7546
11.8248
10.1442
9.04551
9.0391
14.077
12.3464
12.9307
12.414
16.1207
16.6372
16.2519
15.6463
16.1314
15.6032
15.6305
15.8436
17.2018
16.9514
16.7211
17.108
3.05484
3.00354
3.64735
3.13389
3.03694
2.8202
3.48412
4.75856
4.41626
6.71871
7.26925
4.58028
3.37301
3.79316
4.80812
5.54167
5.51159
3.96953
4.50149
4.93027
4.44084
5.22483
4.72928
2.718
3.02512
2.86335
2.837
3.38205
3.88055
3.37603
2.48054
2.59233
2.25637
2.11865
3.5362
2.9958
3.03252
3.67884
1.10705
1.32919
1.44136
2.41396
1.91335
1.97933
15.1828
14.8269
14.9605
14.2397
14.3072
14.2483
13.8728
15.2402
14.9623
15.0617
13.7102
13.7969
13.6102
13.9055
14.3215
14.6207
15.4526
15.1737
14.4128
14.5638
14.2147
14.143
13.4649
12.902
12.8414
1.11281
0.824859
0.98419
0.910895
0.606282
0.79853
2.18359
1.57312
1.97065
1.727
1.96022
1.40323
1.30242
4.25349
5.06403
3.96436
3.36581
3.06299
8.89928
9.01082
8.1595
7.85731
8.19887
8.42772
8.37747
7.13519
7.56239
7.3754
9.91608
9.58045
17.587
17.5311
17.2023
17.0434
17.2698
5.76268
7.66555
6.79949
7.91566
10.2071
10.5027
9.31125
8.70545
9.45685
9.53474
14.0473
14.1234
13.5643
14.0502
14.0787
11.8354
12.8826
13.4975
13.3119
13.8318
13.9127
12.9737
13.5624
13.4777
12.7604
12.8133
12.1281
12.4667
11.9948
11.7938
14.0564
13.9511
14.2208
13.7717
14.151
13.7152
14.0305
14.0285
14.3091
13.4111
12.8324
12.8508
13.2771
12.9772
13.3231
13.4872
9.3088
9.94895
10.3877
10.9235
10.6308
10.4128
10.28
10.5817
10.5586
10.8299
10.7492
10.6001
11.5609
13.4163
13.7014
13.8028
13.5998
13.646
13.3386
13.6114
13.5407
13.9199
14.0078
14.0575
13.1382
13.2942
13.489
13.3728
11.6755
10.0973
9.9495
9.50951
7.57718
8.04688
11.0257
9.90259
8.91784
8.98977
12.1689
10.8063
11.6196
12.0428
10.6944
10.3063
12.9715
13.7596
13.9795
13.7037
12.0605
12.1863
12.636
13.0792
13.2685
13.7242
15.8605
16.4362
16.5141
16.2382
16.1002
16.2
15.9501
16.0532
16.5273
16.6538
16.4851
2.88001
2.99369
2.92379
2.84911
3.08592
2.8614
3.95641
3.94721
3.15662
3.33697
3.35701
3.46247
2.93123
2.97435
4.82654
5.06223
5.33391
4.83245
6.17557
6.81695
7.39836
7.08362
5.78994
5.86942
6.18487
3.50736
3.53365
3.25192
3.70935
3.76201
2.61129
2.23877
2.04399
2.56461
2.66619
2.05088
1.76798
1.81711
2.3316
2.05035
1.80446
14.9753
14.7336
14.755
14.5348
14.5894
14.9842
15.2051
15.0152
15.1536
15.2046
14.8037
14.6926
14.8637
1.81853
1.49379
1.62258
1.58056
1.64361
1.54964
1.73765
7.60619
6.41603
6.80349
5.97898
4.1211
4.64197
9.5394
9.96086
9.99933
9.71056
9.50045
9.86621
9.71701
9.70977
8.26372
9.33262
8.8684
9.26152
9.28286
9.35062
9.06514
9.08107
10.5848
10.6183
9.48329
10.1229
9.33168
7.93248
8.09949
9.11313
10.0867
10.4051
10.2501
9.98016
9.75156
10.1148
10.1694
10.2295
10.2188
8.75207
8.71194
8.31142
13.969
13.8755
14.0221
14.0272
14.1541
13.9791
13.8161
14.0933
14.1476
13.9318
11.078
11.1369
11.3827
12.1294
12.1814
12.0922
11.3369
13.1011
12.7567
13.3946
13.3414
13.4138
13.004
12.8272
13.0976
10.0811
11.454
10.9869
11.2501
10.0636
9.30716
13.2237
13.2779
13.3433
13.6162
13.5742
14.1576
15.8305
15.7004
15.7477
15.7907
15.4024
15.4397
4.17563
3.82946
4.55089
4.50655
4.06483
3.76489
2.28666
1.96871
1.78072
1.65585
1.8894
1.95056
8.16277
8.18994
6.33425
7.35585
5.8767
4.93501
4.79047
5.95589
7.13715
7.1961
8.5138
9.19008
8.74917
8.57447
7.91867
8.24832
10.1166
10.2109
10.1115
10.4304
9.96314
11.7127
11.2949
11.6438
13.2578
12.9674
12.3693
12.2559
12.2207
12.8138
11.9479
11.1796
11.892
12.5475
12.5057
11.1184
10.8734
11.3001
11.2841
10.1982
10.7184
10.4803
10.8328
10.5482
)
;

boundaryField
{
    wall-4
    {
        type            zeroGradient;
    }
    velocity-inlet-5
    {
        type            zeroGradient;
    }
    velocity-inlet-6
    {
        type            zeroGradient;
    }
    pressure-outlet-7
    {
        type            fixedValue;
        value           uniform 0;
    }
    wall-8
    {
        type            zeroGradient;
    }
    frontAndBackPlanes
    {
        type            empty;
    }
}


// ************************************************************************* //
