/*--------------------------------*- C++ -*----------------------------------*\
  =========                 |
  \\      /  F ield         | OpenFOAM: The Open Source CFD Toolbox
   \\    /   O peration     | Website:  https://openfoam.org
    \\  /    A nd           | Version:  9
     \\/     M anipulation  |
\*---------------------------------------------------------------------------*/
FoamFile
{
    format      ascii;
    class       volScalarField;
    location    "5";
    object      epsilon;
}
// * * * * * * * * * * * * * * * * * * * * * * * * * * * * * * * * * * * * * //

dimensions      [0 2 -3 0 0 0 0];

internalField   nonuniform List<scalar> 
2268
(
0.000553756
0.00280593
0.00486099
0.00668415
0.00829986
0.00973483
0.0110223
0.0121951
0.0132749
0.0142702
0.0151867
0.0160219
0.0167695
0.0174092
0.01787
0.0179194
0.0168958
0.0147724
0.0123204
0.0105469
0.00886058
0.00584636
0.00128471
0.00110866
0.00189814
0.00275878
0.00355246
0.00426447
0.0048994
0.00546693
0.00597756
0.00644024
0.00686158
0.00724626
0.0075934
0.0078973
0.00814551
0.00830843
0.008314
0.00802461
0.00756644
0.00686436
0.00604678
0.00503241
0.00376723
0.00242399
0.00185303
0.0020202
0.00258519
0.00315005
0.00366918
0.00413583
0.00455283
0.0049257
0.00526041
0.00556245
0.00583597
0.00608112
0.00629376
0.00646461
0.00657443
0.00658481
0.00644416
0.00620369
0.00581763
0.00532398
0.00472867
0.00408107
0.00413539
0.00257106
0.00226346
0.00265937
0.00310899
0.00353673
0.0039262
0.00427565
0.00458796
0.00486747
0.00511881
0.00534567
0.00554882
0.00572541
0.00586853
0.00596479
0.0059907
0.00592062
0.00577228
0.00552981
0.00523126
0.00493148
0.0047606
0.00611848
0.00324777
0.00253834
0.00280865
0.00317991
0.00354861
0.00388983
0.00419805
0.00447424
0.00472169
0.00494434
0.0051456
0.0053267
0.00548593
0.00561835
0.00571465
0.00575989
0.0057389
0.00565545
0.00551372
0.00536391
0.00531302
0.00562036
0.00855102
0.00389032
0.00282354
0.00299085
0.00330161
0.00362636
0.00393242
0.00421108
0.00446183
0.00468724
0.00489084
0.00507595
0.00524422
0.00539488
0.00552464
0.00562723
0.00569306
0.00571212
0.00568438
0.00562655
0.00560338
0.00577934
0.00662406
0.0116106
0.0045112
0.00311354
0.00319131
0.00345224
0.00374177
0.00401988
0.004275
0.00450554
0.00471378
0.00490312
0.00507693
0.00523726
0.00538413
0.00551559
0.0056275
0.00571342
0.00576693
0.00578911
0.00580413
0.00589013
0.00627031
0.00774501
0.0163418
0.00514032
0.00340899
0.00340428
0.00362256
0.00388272
0.00413734
0.00437217
0.00458497
0.00477824
0.00495564
0.00512071
0.00527584
0.00542166
0.00555724
0.00567968
0.00578447
0.00586792
0.00593391
0.00601069
0.00618414
0.00671649
0.00879583
0.0271493
0.00119267
0.00593023
0.00945407
0.011345
0.0121294
0.0123107
0.0122563
0.0121943
0.0125289
0.0125515
0.0105716
0.00839062
0.00661676
0.00852272
0.0117129
0.0109165
0.00826449
0.00497592
0.00209918
0.00165876
0.00357088
0.00485912
0.00556379
0.00588842
0.00598856
0.00598441
0.005932
0.00593145
0.00581298
0.00529935
0.00483627
0.00434948
0.00460897
0.00503282
0.00471515
0.00390427
0.00301309
0.00242496
0.0028567
0.00368429
0.00434206
0.0046808
0.0048306
0.00486857
0.00484941
0.0048035
0.00475456
0.00461827
0.00433054
0.00407551
0.00381419
0.00385081
0.00391642
0.0036659
0.00315571
0.00266395
0.00315728
0.00429491
0.00424178
0.00444322
0.00452532
0.00454283
0.00452023
0.00447509
0.00441873
0.00434689
0.00420257
0.00398385
0.00379751
0.00365743
0.00365358
0.00359115
0.00333102
0.00290959
0.0025745
0.00362279
0.00600566
0.00501655
0.00475878
0.00460853
0.00450726
0.00442403
0.0043474
0.00427202
0.00418047
0.00402957
0.00384335
0.00370838
0.00364695
0.00363284
0.00351357
0.00322424
0.00282041
0.0025445
0.00384939
0.00829745
0.00594558
0.00516628
0.00479472
0.00458391
0.00444186
0.00433097
0.00423207
0.0041209
0.00396489
0.00380173
0.00371075
0.00369334
0.00367216
0.00353449
0.0032162
0.00279718
0.00251454
0.00383146
0.0119711
0.00695848
0.00559405
0.00502322
0.00471616
0.00451944
0.00437382
0.00424948
0.00411935
0.00396018
0.00381463
0.00375204
0.00375069
0.0037251
0.00358765
0.00325084
0.00280793
0.00248164
0.00357048
0.0199994
0.00784965
0.00597694
0.00525982
0.00487555
0.00463057
0.00445175
0.00430216
0.00415458
0.00399338
0.00385886
0.00380495
0.00379975
0.00376941
0.00364022
0.00329935
0.00283741
0.00248207
0.00329124
0.00601061
0.00384191
0.00373495
0.00390204
0.00412683
0.00435174
0.00455887
0.00474609
0.00491762
0.00507828
0.00523207
0.00538168
0.00552842
0.00567251
0.00581191
0.00594414
0.00606847
0.00619272
0.00634737
0.00661477
0.0072167
0.00881707
0.0140866
0.00714189
0.00443052
0.00421543
0.00433858
0.00453369
0.00472796
0.00489717
0.00504406
0.00518097
0.00531664
0.00545522
0.00559881
0.00574873
0.00590492
0.00606596
0.00622938
0.00639382
0.00656573
0.00676927
0.00706201
0.00756801
0.00853687
0.0104507
0.00823084
0.00505419
0.00474299
0.00484916
0.00503406
0.005206
0.00532365
0.00540871
0.00549572
0.00559814
0.00571705
0.00585187
0.00600314
0.00617094
0.00635378
0.00654672
0.00674287
0.00694334
0.00716423
0.00743937
0.00783216
0.00842673
0.009273
0.00972866
0.0057602
0.00532419
0.00545397
0.00563693
0.00579774
0.00583896
0.00582745
0.00584851
0.00591214
0.00600764
0.00612965
0.00627849
0.00645762
0.00666677
0.00689568
0.00711725
0.00733518
0.00757104
0.00781258
0.00811975
0.00853857
0.00911919
0.0120183
0.00622609
0.00578505
0.00585754
0.00587247
0.00602774
0.00608564
0.00607903
0.00610621
0.00618307
0.00629161
0.00642163
0.00657226
0.00676096
0.00700701
0.00729784
0.00752563
0.00770881
0.00799173
0.0082372
0.0084653
0.00874206
0.00913539
0.0123252
0.006391
0.00590861
0.00594113
0.00597852
0.00614184
0.00625161
0.00619778
0.00622782
0.00633307
0.00647933
0.00664612
0.00682847
0.0070542
0.00737061
0.00778103
0.00795836
0.00805416
0.00828352
0.00852856
0.00872466
0.00881466
0.009027
0.0106906
0.00621083
0.00588734
0.00598215
0.0059713
0.00610431
0.00622406
0.00625561
0.00631256
0.00642411
0.00657494
0.00674904
0.0069433
0.00717366
0.00745519
0.00778545
0.00797866
0.00802436
0.00818589
0.00836275
0.00851782
0.00867585
0.00887334
0.0097832
0.00611867
0.00574043
0.00579182
0.00591303
0.00602197
0.00614221
0.0062517
0.00635814
0.00648146
0.00662312
0.00677823
0.00694449
0.00712852
0.00733462
0.00755533
0.00773087
0.00783961
0.00799471
0.00816541
0.00832987
0.00846294
0.00847922
0.00997547
0.00614899
0.00570425
0.00571836
0.00583802
0.0059468
0.00606797
0.00620189
0.00633864
0.00647791
0.00662001
0.00676454
0.00691206
0.00706556
0.00722559
0.00738525
0.00752772
0.00765921
0.00781269
0.00797105
0.00808499
0.00810572
0.00804736
0.0104947
0.00623442
0.00571531
0.00568778
0.00578473
0.00589736
0.00602086
0.00615839
0.00630215
0.0064466
0.00658932
0.00672941
0.00686656
0.00700178
0.00713426
0.00725967
0.00737396
0.00748578
0.00760589
0.00771615
0.00777549
0.0077623
0.00770665
0.0111264
0.00637524
0.00576444
0.00568826
0.00575634
0.00586313
0.00598559
0.00612007
0.00626063
0.00640188
0.00654019
0.00667352
0.00680098
0.00692244
0.0070368
0.00714145
0.00723546
0.00732335
0.00740754
0.00747537
0.00750412
0.00748671
0.00743953
0.0118317
0.00655953
0.00584095
0.0057117
0.00574736
0.00583942
0.00595452
0.00608189
0.00621488
0.00634823
0.00647809
0.00660237
0.0067201
0.00683069
0.00693287
0.00702474
0.00710545
0.00717612
0.00723608
0.00727813
0.00729186
0.00727435
0.00723135
0.0125303
0.00676221
0.00593181
0.0057484
0.00575061
0.00582297
0.0059257
0.0060429
0.00616618
0.00628988
0.0064103
0.00652549
0.00663454
0.00673663
0.00683042
0.00691417
0.00698648
0.00704657
0.00709292
0.00712186
0.00712859
0.00711122
0.00707077
0.0131601
0.00696028
0.00602416
0.00578882
0.00575858
0.00580972
0.00589776
0.00600337
0.00611637
0.00623059
0.00634242
0.00644994
0.00655207
0.00664779
0.00673574
0.00681416
0.00688134
0.00693569
0.00697555
0.00699884
0.0070031
0.00698677
0.0069493
0.0136823
0.00713481
0.00610684
0.0058248
0.00576482
0.00579557
0.00586888
0.00596295
0.00606632
0.00617239
0.00627738
0.00637915
0.00647635
0.00656776
0.00665194
0.00672718
0.00679166
0.00684363
0.00688148
0.00690365
0.00690859
0.00689498
0.00686192
0.0140949
0.00727681
0.00617273
0.0058507
0.00576478
0.00577737
0.00583731
0.0059211
0.0060164
0.00611616
0.00621631
0.00631438
0.00640872
0.00649791
0.00658043
0.0066546
0.00671868
0.00677096
0.00680991
0.00683417
0.00684248
0.00683367
0.00680689
0.0144184
0.00738528
0.00621836
0.00586336
0.00575599
0.00575335
0.0058021
0.0058776
0.00596684
0.00606238
0.0061598
0.00625631
0.00634998
0.00643919
0.00652235
0.00659783
0.00666397
0.00671917
0.00676197
0.00679107
0.00680527
0.0068035
0.00678496
0.014689
0.00746127
0.00624296
0.00586183
0.00573749
0.00572291
0.00576314
0.00583272
0.00591817
0.00601174
0.00610868
0.00620594
0.00630132
0.00639303
0.00647943
0.0065589
0.00662984
0.00669072
0.00674011
0.00677671
0.00679932
0.00680686
0.00679853
0.0148997
0.00750555
0.00624711
0.0058462
0.00570933
0.00568625
0.00572085
0.00578714
0.00587131
0.00596535
0.00606428
0.0061648
0.00626451
0.0063615
0.00645403
0.00654046
0.00661922
0.00668877
0.00674766
0.00679453
0.00682811
0.00684729
0.00685117
0.0150326
0.00751893
0.0062318
0.00581721
0.00567214
0.00564407
0.00567611
0.00574193
0.00582752
0.0059247
0.00602831
0.00613489
0.00624188
0.0063472
0.00644906
0.00654574
0.00663561
0.00671707
0.00678858
0.00684867
0.00689596
0.00692924
0.0069475
0.0150882
0.00750304
0.0061984
0.00577598
0.00562695
0.00559741
0.00563006
0.00569839
0.00578831
0.00589154
0.00600282
0.00611856
0.00623605
0.00635312
0.00646783
0.00657836
0.00668296
0.0067799
0.00686747
0.00694404
0.00700808
0.0070582
0.00709325
0.0150659
0.00745961
0.00614848
0.0057239
0.00557502
0.00554752
0.00558402
0.005658
0.00575536
0.00586781
0.00599004
0.00611835
0.00624995
0.00638253
0.00651401
0.00664241
0.00676579
0.00688221
0.00698974
0.00708651
0.00717077
0.00724091
0.00729559
0.0149708
0.00739106
0.00608387
0.00566251
0.00551778
0.00549583
0.00553949
0.00562238
0.00573049
0.00585559
0.00599235
0.00613704
0.00628676
0.00643909
0.00659176
0.00674259
0.00688937
0.00702988
0.00716189
0.00728321
0.00739178
0.00748572
0.00756344
0.0148139
0.00730051
0.00600656
0.00559347
0.0054568
0.0054439
0.0054981
0.0055933
0.00571569
0.00585713
0.00601237
0.00617765
0.00635002
0.00652691
0.00670586
0.0068844
0.00706
0.00723005
0.00739191
0.00754298
0.00768079
0.00780311
0.00790801
0.0146047
0.00719111
0.00591864
0.00551858
0.00539378
0.00539343
0.00546162
0.00557268
0.00571308
0.00587488
0.00605294
0.00624356
0.00644375
0.00665077
0.00686194
0.00707446
0.00728535
0.00749151
0.00768974
0.0078769
0.00804998
0.00820625
0.00834341
0.0143518
0.00706594
0.0058223
0.00543977
0.00533056
0.00534627
0.00543197
0.00556259
0.00572499
0.00591152
0.00611726
0.0063386
0.00657256
0.00681628
0.00706678
0.00732084
0.00757492
0.00782524
0.00806788
0.00829893
0.00851468
0.00871178
0.00888742
0.0140627
0.00692781
0.00571976
0.00535907
0.00526913
0.00530442
0.00541124
0.00556527
0.00575392
0.00596997
0.00620882
0.0064671
0.00674185
0.00703011
0.00732857
0.00763346
0.0079405
0.008245
0.00854205
0.00882671
0.00909432
0.00934071
0.00956221
0.0137413
0.00677887
0.00561322
0.00527872
0.00521168
0.00527004
0.00540163
0.00558308
0.00580254
0.0060534
0.00633155
0.00663397
0.00695787
0.00730018
0.00765722
0.00802451
0.00839677
0.00876808
0.00913213
0.00948259
0.00981348
0.0101192
0.0103954
0.0133786
0.00662032
0.00550512
0.0052012
0.00516059
0.00524543
0.00540546
0.00561849
0.00587364
0.00616517
0.00648969
0.00684473
0.00722782
0.00763585
0.00806468
0.00850893
0.00896195
0.0094161
0.00986314
0.0102948
0.0107029
0.0110804
0.0114221
0.0129615
0.00645545
0.00539897
0.0051295
0.00511845
0.005233
0.00542507
0.00567397
0.00597007
0.00630878
0.00668777
0.00710544
0.00755985
0.00804797
0.00856514
0.0091048
0.00965844
0.010216
0.0107664
0.0112986
0.0118014
0.0122661
0.0126862
0.0125323
0.0062982
0.00530033
0.00506702
0.00508798
0.00523517
0.0054628
0.00575192
0.00609452
0.0064876
0.00693034
0.00742243
0.00796283
0.00854878
0.00917509
0.00983363
0.0105134
0.0112008
0.011881
0.0125383
0.0131582
0.0137289
0.0142423
0.0121302
0.00615503
0.00521287
0.00501672
0.00507179
0.00525427
0.00552079
0.00585446
0.00624936
0.00670464
0.00722162
0.0078019
0.00844588
0.00915145
0.00991289
0.0107202
0.0115589
0.0124107
0.0132547
0.014069
0.0148338
0.0155335
0.0161581
0.0117206
0.00601579
0.00513508
0.00497957
0.00507163
0.00529224
0.0056009
0.00598334
0.00643641
0.0069622
0.007565
0.00824921
0.00901747
0.00986892
0.0107977
0.0117915
0.0128315
0.0138926
0.0149454
0.0159587
0.0169045
0.0177616
0.0185179
0.0112954
0.00587811
0.00506741
0.00495741
0.00508972
0.00535102
0.00570449
0.00613933
0.00665605
0.00726068
0.00796159
0.00876713
0.00968338
0.0107119
0.0118472
0.0130752
0.0143714
0.0157014
0.0170233
0.0182914
0.0194649
0.0205147
0.0214263
0.010836
0.00574178
0.0050125
0.00495406
0.00512973
0.00543329
0.00583285
0.00632229
0.00690695
0.00759797
0.0084091
0.00935415
0.0104444
0.0116855
0.0130743
0.0145955
0.016219
0.017898
0.0195716
0.0211714
0.022635
0.0239211
0.025014
0.0103101
0.00560658
0.00497724
0.00497785
0.00519856
0.00554327
0.00598731
0.00653085
0.00718535
0.00796825
0.0089001
0.010002
0.0112926
0.0127847
0.0144807
0.0163674
0.0184102
0.0205476
0.0226903
0.0247308
0.026569
0.0281451
0.0294458
0.00966768
0.00548085
0.0049825
0.00504828
0.00530973
0.00568797
0.00616923
0.00676177
0.00748407
0.00836069
0.00942014
0.0106926
0.0122073
0.0139883
0.0160494
0.0183868
0.0209674
0.0237152
0.0264997
0.029144
0.0314741
0.033403
0.0349322
0.00885298
0.00542817
0.00509458
0.00521143
0.00548902
0.00587817
0.00637939
0.00700895
0.0077915
0.00875829
0.00994616
0.0113961
0.0131508
0.0152519
0.017734
0.020616
0.0238831
0.027455
0.031147
0.0346545
0.0376402
0.0399855
0.0417441
0.00833002
0.00582597
0.00552532
0.00557152
0.00578038
0.00612689
0.00661538
0.00726149
0.00809049
0.00913729
0.0104459
0.0120689
0.0140655
0.0165014
0.0194454
0.0229622
0.0270893
0.0317816
0.0368074
0.0416313
0.0454947
0.0482903
0.0502274
0.0186606
0.00900012
0.00695067
0.0063397
0.00624068
0.00643917
0.00686513
0.00750079
0.00835768
0.00946783
0.0108796
0.012656
0.0148746
0.0176305
0.0210404
0.0252459
0.0303984
0.0365901
0.043651
0.0507029
0.0556965
0.0588543
0.0608088
0.161779
0.0283561
0.0113332
0.00782461
0.00688541
0.00678366
0.00709591
0.00769755
0.00856408
0.00971659
0.0112039
0.0130968
0.0154894
0.0185062
0.0223185
0.0271701
0.0334032
0.0414504
0.0516352
0.0631454
0.06928
0.0723572
0.073973
1.53888
0.129583
0.0224353
0.00995091
0.00751788
0.00704836
0.00724632
0.00781314
0.0086789
0.00985187
0.0113791
0.0133355
0.015825
0.0189919
0.0230478
0.0283239
0.0353685
0.0451452
0.0594811
0.0821973
0.0877445
0.089488
0.0901808
0.0369838
0.0282447
0.0257773
0.0286819
0.0129071
0.0129907
0.0126886
0.0121883
0.00983017
0.0099488
0.00985916
0.0095938
0.00922612
0.00917719
0.00906485
0.00891409
0.00923745
0.00912611
0.00889803
0.00869331
0.00902337
0.00885968
0.00870363
0.00855694
0.00871616
0.00864668
0.00856169
0.00839692
0.0083614
0.00829398
0.00820762
0.00809397
0.00798187
0.00793926
0.00788591
0.00781274
0.00765572
0.00761936
0.00757434
0.00751535
0.00739027
0.00735316
0.00730867
0.00725516
0.00718242
0.00714532
0.0071019
0.00705179
0.00702356
0.0069879
0.00694671
0.00689998
0.0069053
0.00687217
0.00683411
0.00679119
0.00682247
0.00679267
0.0067584
0.00671975
0.00677324
0.00674751
0.00671764
0.0066837
0.00675834
0.00673738
0.00671251
0.0066838
0.00678016
0.00676465
0.0067454
0.00672244
0.00684227
0.00683294
0.00681993
0.00680327
0.00694939
0.006947
0.00694093
0.00693118
0.00710746
0.00711289
0.00711456
0.00711245
0.0073239
0.00733823
0.00734862
0.00735504
0.00760805
0.00763259
0.00765292
0.00766898
0.00797161
0.00800797
0.00803975
0.00806686
0.00842929
0.00847946
0.00852452
0.0085644
0.00899958
0.00906595
0.00912652
0.00918117
0.00970523
0.00979052
0.00986911
0.00994089
0.0105749
0.0106824
0.0107821
0.0108739
0.0116447
0.0117784
0.0119027
0.0120175
0.0129595
0.0131237
0.0132764
0.0134177
0.0145747
0.0147742
0.0149596
0.0151309
0.0165592
0.0167991
0.0170213
0.0172261
0.0189977
0.0192831
0.0195461
0.0197874
0.0219949
0.0223306
0.0226375
0.0229172
0.0256802
0.0260696
0.026422
0.02674
0.0302151
0.0306585
0.0310547
0.0314079
0.0358018
0.0362941
0.0367267
0.0371064
0.0426941
0.0432198
0.0436722
0.0440619
0.0512067
0.0517334
0.0521754
0.0525476
0.0617169
0.0621884
0.0625726
0.0628881
0.0746481
0.0749845
0.0752499
0.0754624
0.0904313
0.0905501
0.0906406
0.0907115
0.012448
0.00809429
0.00642177
0.00561145
0.00514232
0.00483453
0.004609
0.00442275
0.00425075
0.00408594
0.00395731
0.00389213
0.00386077
0.00381583
0.00369784
0.00337145
0.00289295
0.00250433
0.00286697
0.00989523
0.00790927
0.00673071
0.00600036
0.00550299
0.00514935
0.00488154
0.004659
0.00446105
0.00428423
0.00414024
0.00403719
0.00396066
0.0038862
0.0037677
0.00350457
0.00311335
0.00280822
0.002999
0.00886988
0.0077969
0.00697352
0.00636667
0.00586449
0.00548932
0.00519886
0.00495031
0.00472892
0.00453332
0.00436841
0.00423609
0.00412495
0.00402091
0.00390722
0.00375133
0.00358415
0.00359077
0.00441273
0.00862712
0.00788603
0.00728394
0.00681773
0.00625316
0.00587239
0.00557732
0.00529759
0.00504602
0.00482787
0.0046488
0.0045064
0.004374
0.00424456
0.00416266
0.0041597
0.00426254
0.00467413
0.00695095
0.00840155
0.0078912
0.00747366
0.00713486
0.0065823
0.00629346
0.00597861
0.0056097
0.00530188
0.00505298
0.00485749
0.00472011
0.004606
0.0044475
0.00436208
0.00439842
0.00452
0.00506529
0.0107377
0.00835862
0.00800606
0.0076697
0.0073536
0.00685609
0.00652719
0.00617541
0.00575958
0.00541169
0.00513341
0.00491143
0.00473973
0.00459292
0.00444726
0.0043647
0.00438679
0.00454899
0.00527009
0.010202
0.00818546
0.00785653
0.00760602
0.00742749
0.00694573
0.00662788
0.00627394
0.00586088
0.00550261
0.00520787
0.00496575
0.00477584
0.00461717
0.00446668
0.00438908
0.00443557
0.00467719
0.00513773
0.00823626
0.00789831
0.0076109
0.00737965
0.0071945
0.00686583
0.00656537
0.00624382
0.00590464
0.00556794
0.00526632
0.00500858
0.00479874
0.0046246
0.00447166
0.00437164
0.00435625
0.00450479
0.00489266
0.0081007
0.0076512
0.0073929
0.00715592
0.0069291
0.00666431
0.00640351
0.00614559
0.00587572
0.00557488
0.00527742
0.00501752
0.00479833
0.00461768
0.00446375
0.00432765
0.0042283
0.0042567
0.00469078
0.0088671
0.00739079
0.00717428
0.0069489
0.00671517
0.00647404
0.0062412
0.0060192
0.00579026
0.00551597
0.00523558
0.00498871
0.00476948
0.00458867
0.00443242
0.00427361
0.00412259
0.00406505
0.00441075
0.00816031
0.00715125
0.00696791
0.00676278
0.00654334
0.00632326
0.00610887
0.00590245
0.00568888
0.00543516
0.00517951
0.00494117
0.00471544
0.00452297
0.00435238
0.00418297
0.00401712
0.00390432
0.00409868
0.00674028
0.00695829
0.00679614
0.00661129
0.00641154
0.00620982
0.0060095
0.00581037
0.00560123
0.0053674
0.00512757
0.00489165
0.00466517
0.00445957
0.00426965
0.00408828
0.00391593
0.00378162
0.00389617
0.00549961
0.00681407
0.00666717
0.0064993
0.00631688
0.0061293
0.00593931
0.00574599
0.00554247
0.00532233
0.00509413
0.00487066
0.00465409
0.00444675
0.00424757
0.00405448
0.00387353
0.00373171
0.00380151
0.00476829
0.00671268
0.00657901
0.00642571
0.00625791
0.00608194
0.0059006
0.00571346
0.00551695
0.00530959
0.00509842
0.00489295
0.00469281
0.00449652
0.00430449
0.00412019
0.00396028
0.00387759
0.00409015
0.00547932
0.00664895
0.00652806
0.00638858
0.00623449
0.00607015
0.00589813
0.00571876
0.0055315
0.00533793
0.00514345
0.00495431
0.00477147
0.00459442
0.004427
0.00427905
0.00417548
0.00419232
0.00461368
0.00699171
0.00662112
0.00651314
0.00638741
0.006247
0.00609505
0.00593365
0.00576396
0.00558738
0.00540664
0.00522607
0.00505044
0.00488287
0.00472646
0.00458884
0.00448514
0.00444686
0.004559
0.00516204
0.00872337
0.00663012
0.0065355
0.0064236
0.00629686
0.00615764
0.00600776
0.00584886
0.00568319
0.00551394
0.00534495
0.0051807
0.00502589
0.00488664
0.00477373
0.00470648
0.00472293
0.00491902
0.00568729
0.0104271
0.00667841
0.00659774
0.00649985
0.0063867
0.00626022
0.00612209
0.00597418
0.00581905
0.00565997
0.00550068
0.00534577
0.00520093
0.00507412
0.00497828
0.00493594
0.0049914
0.00525784
0.00618565
0.0117893
0.00676969
0.00670366
0.00662006
0.0065205
0.00640663
0.00628008
0.00614282
0.00599748
0.00584719
0.00569575
0.00554797
0.00541012
0.00529121
0.0052056
0.00517804
0.00525713
0.005566
0.00657822
0.0125766
0.00690895
0.0068584
0.00678956
0.00670373
0.00660239
0.00648713
0.00635994
0.0062234
0.00608043
0.00593494
0.00579192
0.00565802
0.00554294
0.00546202
0.00544165
0.00553337
0.00586519
0.00692428
0.01314
0.00710266
0.00706872
0.00701534
0.00694362
0.00685488
0.00675068
0.00663298
0.00650411
0.00636697
0.00622552
0.00608484
0.0059519
0.00583691
0.00575612
0.00573755
0.00583602
0.00618603
0.00729343
0.0136751
0.00735908
0.00734321
0.00730635
0.00724942
0.0071736
0.00708038
0.00697163
0.00684936
0.00671663
0.00657733
0.00643662
0.00630171
0.00618333
0.00609866
0.00607775
0.0061805
0.00655594
0.00775995
0.0144151
0.0076886
0.00769273
0.00767386
0.00763273
0.00757045
0.00748837
0.00738797
0.0072715
0.00714191
0.00700301
0.00686001
0.00672035
0.00659524
0.00650289
0.00647569
0.00657993
0.00698436
0.00831664
0.0153859
0.00810423
0.00813084
0.00813188
0.00810801
0.00806006
0.0079892
0.00789711
0.00778589
0.00765842
0.00751841
0.00737106
0.00722397
0.00708888
0.00698512
0.00694763
0.00704902
0.00747877
0.00894517
0.0167358
0.00862224
0.00867441
0.00869769
0.00869256
0.00865997
0.00860112
0.00851763
0.00841152
0.00828546
0.00814304
0.00798943
0.00783239
0.00768419
0.00756547
0.00751407
0.00760931
0.00805904
0.00965739
0.0185304
0.00926251
0.00934362
0.00939182
0.00940768
0.00939215
0.0093465
0.00927228
0.00917141
0.00904637
0.00890057
0.00873909
0.00856981
0.0084056
0.00826864
0.00820037
0.00828876
0.00876526
0.0105165
0.0207739
0.0100495
0.0101638
0.0102403
0.0102797
0.0102833
0.0102523
0.0101884
0.0100933
0.00996936
0.00981967
0.00964915
0.00946573
0.00928284
0.00912444
0.00903632
0.00911736
0.00963035
0.0115941
0.0234762
0.011014
0.0111662
0.0112747
0.0113406
0.0113656
0.0113511
0.0112989
0.0112106
0.0110883
0.0109348
0.0107548
0.0105558
0.010352
0.0101689
0.010057
0.0101269
0.010674
0.0128475
0.0263564
0.0121939
0.012389
0.0125333
0.0126288
0.0126776
0.0126817
0.0126429
0.012563
0.0124437
0.0122874
0.0120982
0.0118834
0.011657
0.0114462
0.0113057
0.0113576
0.011929
0.0142927
0.029364
0.0136353
0.0138785
0.0140624
0.0141903
0.0142653
0.0142901
0.014267
0.0141976
0.0140835
0.0139265
0.01373
0.0135004
0.0132515
0.0130111
0.0128375
0.0128637
0.0134478
0.0159871
0.032622
0.0153948
0.0156907
0.0159175
0.0160802
0.0161835
0.0162312
0.016226
0.0161699
0.0160642
0.0159102
0.0157101
0.0154695
0.0152009
0.0149319
0.0147234
0.0147184
0.0153087
0.0180356
0.0365035
0.017541
0.0178933
0.018165
0.018364
0.018497
0.0185692
0.0185843
0.0185449
0.018452
0.0183064
0.0181094
0.017865
0.017584
0.0172928
0.0170536
0.0170185
0.0176164
0.02056
0.0412033
0.0201568
0.0205674
0.0208844
0.0211195
0.0212822
0.02138
0.0214178
0.0213987
0.0213241
0.0211945
0.0210102
0.0207741
0.0204949
0.020197
0.0199423
0.0198905
0.0205093
0.0237033
0.0467562
0.0233426
0.0238103
0.0241702
0.0244389
0.02463
0.0247532
0.0248152
0.0248202
0.0247703
0.0246661
0.0245079
0.024298
0.0240439
0.0237683
0.023532
0.0235013
0.0241852
0.0277178
0.0537546
0.0272196
0.0277388
0.0281353
0.0284324
0.028648
0.0287949
0.0288817
0.0289141
0.0288952
0.028827
0.0287112
0.0285511
0.028356
0.0281499
0.0279953
0.028067
0.028924
0.0330086
0.0633724
0.0319344
0.0324933
0.0329154
0.0332319
0.0334655
0.0336321
0.0337425
0.0338039
0.0338215
0.0337995
0.033743
0.0336604
0.0335676
0.0334982
0.0335272
0.0338503
0.0350951
0.0401121
0.0766971
0.0376646
0.038243
0.0386739
0.0389967
0.0392388
0.0394185
0.0395485
0.0396381
0.0396946
0.0397258
0.0397427
0.0397631
0.0398187
0.0399676
0.0403229
0.0411392
0.0431655
0.0497948
0.0952374
0.0446252
0.0451928
0.0456094
0.0459213
0.0461588
0.046342
0.0464847
0.0465973
0.0466899
0.0467744
0.0468694
0.047007
0.0472443
0.0476861
0.0485293
0.0501779
0.0536638
0.0632437
0.121969
0.0530752
0.0535915
0.053965
0.054245
0.0544622
0.0546361
0.0547802
0.0549057
0.055024
0.0551509
0.0553127
0.0555563
0.0559706
0.0567267
0.0581641
0.0609958
0.0669467
0.0821917
0.164051
0.0633261
0.0637427
0.0640412
0.0642665
0.0644451
0.0645937
0.0647239
0.0648456
0.0649704
0.0651152
0.0653099
0.0656107
0.0661298
0.0670995
0.0690261
0.0730901
0.0824015
0.10782
0.232964
0.0757514
0.0760208
0.0762136
0.0763615
0.0764822
0.0765867
0.0766829
0.0767779
0.0768807
0.0770052
0.0771767
0.0774449
0.0779141
0.0788167
0.0807147
0.0851194
0.0967968
0.135858
0.35662
0.0908065
0.0908944
0.0909581
0.0910085
0.0910513
0.0910903
0.0911282
0.0911677
0.0912124
0.0912684
0.0913466
0.0914688
0.091682
0.0920969
0.0930088
0.095357
0.102964
0.139441
0.581543
)
;

boundaryField
{
    leftWall
    {
        type            epsilonWallFunction;
        value           nonuniform List<scalar> 
50
(
0.000553756
0.00110866
0.00185303
0.00257106
0.00324777
0.00389032
0.0045112
0.00514032
0.00601061
0.00714189
0.00823084
0.00972866
0.0120183
0.0123252
0.0106906
0.0097832
0.00997547
0.0104947
0.0111264
0.0118317
0.0125303
0.0131601
0.0136823
0.0140949
0.0144184
0.014689
0.0148997
0.0150326
0.0150882
0.0150659
0.0149708
0.0148139
0.0146047
0.0143518
0.0140627
0.0137413
0.0133786
0.0129615
0.0125323
0.0121302
0.0117206
0.0112954
0.010836
0.0103101
0.00966768
0.00885298
0.00833002
0.0186606
0.161779
1.53888
)
;
    }
    rightWall
    {
        type            epsilonWallFunction;
        value           nonuniform List<scalar> 
50
(
0.00209918
0.00242496
0.00315728
0.00362279
0.00384939
0.00383146
0.00357048
0.00329124
0.00286697
0.002999
0.00441273
0.00695095
0.0107377
0.010202
0.00823626
0.0081007
0.0088671
0.00816031
0.00674028
0.00549961
0.00476829
0.00547932
0.00699171
0.00872337
0.0104271
0.0117893
0.0125766
0.01314
0.0136751
0.0144151
0.0153859
0.0167358
0.0185304
0.0207739
0.0234762
0.0263564
0.029364
0.032622
0.0365035
0.0412033
0.0467562
0.0537546
0.0633724
0.0766971
0.0952374
0.121969
0.164051
0.232964
0.35662
0.581543
)
;
    }
    lowerWall
    {
        type            epsilonWallFunction;
        value           nonuniform List<scalar> 
62
(
0.000553756
0.00280593
0.00486099
0.00668415
0.00829986
0.00973483
0.0110223
0.0121951
0.0132749
0.0142702
0.0151867
0.0160219
0.0167695
0.0174092
0.01787
0.0179194
0.0168958
0.0147724
0.0123204
0.0105469
0.00886058
0.00584636
0.00128471
0.00128471
0.00242399
0.00413539
0.00611848
0.00855102
0.0116106
0.0163418
0.0271493
0.0369838
0.0282447
0.0257773
0.0286819
0.00119267
0.00165876
0.0028567
0.00429491
0.00600566
0.00829745
0.0119711
0.0199994
0.00119267
0.00593023
0.00945407
0.011345
0.0121294
0.0123107
0.0122563
0.0121943
0.0125289
0.0125515
0.0105716
0.00839062
0.00661676
0.00852272
0.0117129
0.0109165
0.00826449
0.00497592
0.00209918
)
;
    }
    atmosphere
    {
        type            inletOutlet;
        inletValue      uniform 0.1;
        value           nonuniform List<scalar> 
46
(
0.1
0.129583
0.0224353
0.00995091
0.00751788
0.00704836
0.00724632
0.00781314
0.0086789
0.00985187
0.0113791
0.0133355
0.015825
0.0189919
0.0230478
0.0283239
0.0353685
0.0451452
0.0594811
0.1
0.1
0.1
0.1
0.1
0.1
0.1
0.1
0.1
0.1
0.1
0.1
0.1
0.1
0.1
0.1
0.1
0.1
0.1
0.1
0.1
0.1
0.1
0.1
0.1
0.1
0.581543
)
;
    }
    defaultFaces
    {
        type            empty;
    }
}


// ************************************************************************* //
