/*--------------------------------*- C++ -*----------------------------------*\
  =========                 |
  \\      /  F ield         | OpenFOAM: The Open Source CFD Toolbox
   \\    /   O peration     | Website:  https://openfoam.org
    \\  /    A nd           | Version:  9
     \\/     M anipulation  |
\*---------------------------------------------------------------------------*/
FoamFile
{
    format      ascii;
    class       volScalarField;
    location    "5";
    object      p_rgh;
}
// * * * * * * * * * * * * * * * * * * * * * * * * * * * * * * * * * * * * * //

dimensions      [1 -1 -2 0 0 0 0];

internalField   nonuniform List<scalar> 
2268
(
768.184
768.207
768.087
767.808
767.372
766.788
766.07
765.231
764.287
763.255
762.154
761.004
759.825
758.63
757.423
756.202
755.014
753.918
753.228
752.811
752.78
753.15
753.332
768.167
768.17
768.042
767.758
767.322
766.742
766.029
765.193
764.251
763.219
762.116
760.963
759.778
758.573
757.357
756.136
754.99
754.069
753.54
753.248
753.1
753.322
753.489
768.168
768.159
768.024
767.731
767.292
766.712
765.999
765.164
764.222
763.189
762.084
760.929
759.742
758.539
757.338
756.163
755.021
753.125
751.723
752.599
752.97
753.341
753.581
768.191
768.185
768.047
767.746
767.301
766.716
766
765.162
764.216
763.179
762.07
760.911
759.725
758.533
757.364
756.266
754.911
751.01
750.636
749.885
751.267
753.369
753.62
768.238
768.242
768.108
767.803
767.351
766.758
766.035
765.19
764.237
763.191
762.074
760.909
759.723
758.543
757.409
756.391
755.629
751.626
750.153
749.421
751.471
753.406
753.664
768.311
768.33
768.204
767.897
767.438
766.835
766.101
765.246
764.283
763.226
762.096
760.92
759.728
758.553
757.445
756.482
755.858
755.217
749.793
749.162
753.18
753.396
753.701
768.413
768.447
768.331
768.025
767.558
766.943
766.196
765.328
764.353
763.28
762.132
760.94
759.735
758.555
757.457
756.519
755.889
755.932
755.105
754.569
753.855
753.299
753.667
768.545
768.59
768.482
768.178
767.7
767.069
766.306
765.427
764.44
763.35
762.18
760.967
759.744
758.548
757.441
756.496
755.828
755.654
755.52
754.793
753.612
753.068
753.622
755.855
756.415
757.077
757.776
758.515
759.403
760.394
761.455
762.443
763.39
763.521
764.445
764.425
764.848
768.298
769.854
769.577
769.386
770.075
755.794
756.751
757.284
758.03
758.912
759.882
760.822
761.843
762.744
763.295
763.505
764.658
764.048
764.514
768.129
769.208
769.121
769.317
770.147
756.469
756.792
757.239
757.97
758.875
759.91
761.017
762.064
762.875
763.383
763.576
764.012
761.319
764.923
768.081
768.912
768.862
769.193
770.036
756.819
756.848
757.181
757.915
758.845
759.904
761.033
761.864
762.729
763.668
759.136
758.358
760.728
764.467
768.402
768.967
768.742
769.083
770.866
756.588
756.705
757.1
757.84
758.788
759.872
760.866
761.756
762.923
764.142
757.994
758.033
759.994
764.428
768.946
769.291
767.679
768.977
770.801
756.326
756.505
756.955
757.735
758.696
759.812
760.97
762.04
763.52
764.985
764.103
757.525
759.24
769.729
769.679
769.828
762.42
768.476
770.904
755.958
756.282
756.76
757.596
758.556
759.675
760.988
762.463
763.93
765.413
767.282
765.753
769.511
771.275
770.458
770.438
762.24
767.784
770.869
755.533
755.992
756.548
757.465
758.512
759.607
760.916
762.436
763.697
764.469
767.473
770.879
772.14
771.584
771.251
771.589
762.392
757.563
763.674
768.799
768.854
768.761
768.464
767.965
767.299
766.507
765.61
764.61
763.491
762.278
761.022
759.757
758.516
757.357
756.352
755.594
755.144
754.726
754.016
753.103
752.5
752.467
762.381
762.643
762.822
762.683
762.359
761.927
761.389
760.643
759.907
757.724
754.353
750.791
747.07
742.865
739.091
736.294
734.992
735.204
735.387
733.994
731.052
728.543
727.931
341.441
343.602
344.339
342.971
339.237
333.375
326.486
318.268
309.001
300.033
291.52
283.087
274.818
267.514
260.856
254.795
249.805
246.011
242.601
237.703
233.544
232.154
235.164
1.03301
1.03723
1.00279
0.977949
1.07135
1.24902
1.32518
1.34955
1.37056
1.39135
1.40969
1.42559
1.43201
1.48808
1.64964
1.89352
2.1422
2.33481
1.8376
2.38536
2.62524
2.53932
1.68167
2.24431
2.24317
2.11758
1.6701
2.48749
5.4624
6.20394
6.23055
6.24386
6.29629
6.31044
6.31614
6.31202
6.30027
6.28451
6.25816
5.24317
2.4555
1.74034
2.39618
2.62311
2.53038
1.4092
1.97825
2.03056
1.9115
1.84932
2.30286
1.16842
1.07732
1.27736
1.45291
1.61904
1.75899
1.8632
1.81179
1.61194
1.28915
0.881388
1.7203
1.92023
1.71248
1.36122
1.14498
0.969667
0.727238
0.774139
0.654703
0.836152
0.874592
0.540844
0.191541
0.00613486
0.00123442
-0.00150504
-0.00281439
-0.00307745
-0.00233854
0.000128096
0.00443512
0.0106231
0.0182708
0.0237934
0.0749852
0.164295
0.174446
0.194606
0.263796
0.708693
-0.0110137
-0.00934407
-0.0115414
-0.0110326
-0.00881027
-0.0034956
0.0165311
0.00691518
-0.00140874
-0.00157001
-0.00119791
0.000801533
0.00464062
0.00687359
0.0087547
0.0130356
0.0653427
0.236376
0.243055
0.185719
0.191559
0.459268
0.681829
-0.00908547
-0.00820396
-0.00905905
-0.00853145
-0.00717511
-0.00447076
-0.0026692
-0.00194175
-0.00151465
-0.00116701
-0.000315084
0.00561757
0.00849989
0.00899584
0.00738932
0.0100933
0.0164796
0.0529235
0.114734
0.143402
0.188162
0.19564
0.150596
-0.00746218
-0.0069203
-0.00701132
-0.00675718
-0.00586375
-0.00423198
-0.00288642
-0.00204869
-0.00141165
-0.000744688
0.000853399
0.00624609
0.00908862
0.0051871
0.00623936
0.00813964
0.00893193
0.00912107
0.00982678
0.0129197
0.0168806
0.00907152
0.0081988
-0.00605445
-0.00573492
-0.00562083
-0.0054236
-0.00481439
-0.00374855
-0.00274365
-0.00192023
-7.71487e-05
0.00325458
0.00397965
0.00268486
0.00226212
0.00376779
0.00534184
0.00665659
0.0074511
0.00802619
0.00984415
0.0121415
0.0107766
0.00865868
0.00806681
-0.00486829
-0.00487087
-0.00472748
-0.00450036
-0.00398622
-0.00323708
-0.00246256
-0.000586238
0.00309803
0.00374581
0.00328565
0.0011866
0.00223967
0.00341773
0.00459996
0.00562181
0.00635035
0.00765388
0.017631
0.0202748
0.0203216
0.0135616
0.00741693
-0.00385201
-0.0039606
-0.00394499
-0.00372828
-0.00331572
-0.0027569
-0.00214723
-0.000338464
0.00207683
0.00171436
0.000597849
0.00121588
0.00211891
0.00306374
0.00398357
0.00478889
0.00539728
0.00702319
0.0178194
0.0196862
0.0198131
0.0169974
0.0065768
-0.00286455
-0.0029176
-0.00320445
-0.00307234
-0.00276144
-0.00232012
-0.00177855
-0.00108996
-0.000774931
-0.000204273
0.000465834
0.00119291
0.00195652
0.00272743
0.0034662
0.00411203
0.00461189
0.00497864
0.00601841
0.013821
0.0152665
0.00610632
0.00575343
-0.00194045
-0.00199515
-0.00256513
-0.00252605
-0.00229656
-0.00194808
-0.00153443
-0.00110106
-0.000614428
-7.72906e-05
0.000511067
0.00113772
0.00178379
0.00242725
0.00303434
0.00356609
0.00398939
0.00428347
0.00444762
0.00455326
0.004701
0.00487541
0.00512277
-0.00121066
-0.00141432
-0.00205154
-0.00208776
-0.00191028
-0.00163561
-0.00129355
-0.00090179
-0.000467485
8.75535e-06
0.00052279
0.00106327
0.00161443
0.00215655
0.00266454
0.00311233
0.00347874
0.00375177
0.0039343
0.00406247
0.0041834
0.00430747
0.0044219
-0.000649062
-0.000926268
-0.0016696
-0.00169973
-0.0015791
-0.00136208
-0.00107467
-0.000734823
-0.000353305
6.43893e-05
0.000511402
0.000977244
0.00144835
0.00190823
0.00233806
0.00271958
0.00303856
0.00328756
0.00346908
0.00360139
0.00370642
0.00378663
0.00381701
-2.56468e-05
-0.000507768
-0.0013082
-0.0013729
-0.00129551
-0.00112485
-0.000885409
-0.000594047
-0.000262536
0.000100734
0.000487543
0.000888099
0.00129071
0.00168191
0.00204732
0.00237357
0.00265052
0.00287296
0.00304185
0.00316549
0.00325384
0.00330671
0.00331025
0.000334946
-7.01734e-05
-0.000984816
-0.00109714
-0.00105285
-0.000920275
-0.000722046
-0.000473957
-0.000188092
0.000125972
0.000459449
0.000803162
0.00114703
0.0014801
0.00179122
0.0020703
0.00230968
0.00250516
0.0026564
0.00276665
0.00283962
0.00287402
0.00286202
0.000625251
0.000276725
-0.000714105
-0.000865661
-0.000845992
-0.000744121
-0.000580736
-0.000370504
-0.000125257
0.000145175
0.000431988
0.000726638
0.00102039
0.00130427
0.00156947
0.00180817
0.00201433
0.00218429
0.00231679
0.00241247
0.00247211
0.00249403
0.00247364
0.000850741
0.00050894
-0.000567224
-0.000672065
-0.000669872
-0.000592402
-0.000458098
-0.000280538
-7.09033e-05
0.000161294
0.00040761
0.000660183
0.000911399
0.00115379
0.00138026
0.00158454
0.00176171
0.00190847
0.00202304
0.00210474
0.002153
0.00216616
0.00214134
0.000516942
0.000297514
-0.000401244
-0.000508976
-0.000519148
-0.000461082
-0.000350969
-0.000201409
-2.27393e-05
0.000176169
0.000387467
0.000604014
0.000819135
0.00102651
0.00122027
0.00139525
0.00154728
0.00167335
0.00177147
0.0018403
0.0018787
0.00188514
0.00185772
0.000259742
-4.05877e-05
-0.000262561
-0.000370155
-0.000389327
-0.000346511
-0.000256519
-0.000130891
2.09562e-05
0.000190945
0.00037195
0.000557553
0.000741881
0.000919499
0.00108543
0.00123528
0.00136544
0.00147313
0.00155632
0.00161338
0.001643
0.00164377
0.0016144
0.000330344
5.21304e-05
-0.000149037
-0.000252598
-0.000276891
-0.000245734
-0.000172389
-6.72076e-05
6.14109e-05
0.000206251
0.000360947
0.000519791
0.000677602
0.000829642
0.000971601
0.00109966
0.00121061
0.00130192
0.00137156
0.00141788
0.00143951
0.00143524
0.00140412
0.000366131
0.000120029
-5.8608e-05
-0.000152814
-0.000178693
-0.000156108
-9.65339e-05
-8.8842e-06
9.95515e-05
0.000222439
0.00035416
0.000489672
0.000624404
0.000754189
0.000875237
0.000984171
0.00107811
0.00115473
0.00121212
0.00124867
0.00126307
0.00125427
0.00122154
0.000374808
0.000164692
1.36329e-05
-6.69034e-05
-9.13995e-05
-7.50909e-05
-2.70979e-05
4.53955e-05
0.000136199
0.000239836
0.000351382
0.000466403
0.000580869
0.000691096
0.00079372
0.000885726
0.000964522
0.00102797
0.00107431
0.00110205
0.00110998
0.00109716
0.00106305
0.000362825
0.000191799
7.3525e-05
1.01758e-05
-1.15413e-05
-5.49421e-07
3.74036e-05
9.66997e-05
0.000172064
0.000258782
0.000352561
0.00044951
0.000546084
0.000639019
0.000725315
0.000802272
0.00086755
0.000919207
0.000955632
0.00097546
0.000977619
0.00096129
0.000926008
0.000336046
0.000205961
0.00012885
8.47338e-05
6.30452e-05
6.84393e-05
9.76479e-05
0.000145574
0.000207544
0.00027946
0.000357618
0.000438628
0.000519386
0.000597002
0.000668801
0.000732361
0.000785568
0.000826666
0.000854193
0.000866925
0.000863916
0.000844439
0.000808099
0.00030038
0.000381226
0.00161035
0.00117428
0.000155096
0.00013046
0.000153011
0.000191844
0.000242558
0.000301721
0.000366238
0.000433234
0.000500034
0.000564095
0.000623037
0.000674683
0.000717122
0.000748759
0.000768276
0.000774582
0.000766848
0.000744442
0.000707016
0.000254971
0.00120192
0.00367466
0.00366976
0.000867679
0.000182254
0.000202419
0.000235036
0.000276752
0.000325115
0.000377795
0.00043251
0.000487027
0.000539134
0.000586714
0.000627803
0.000660659
0.000683819
0.000696088
0.0006965
0.000684344
0.000659083
0.000620431
0.000205203
0.00127947
0.0037845
0.00378878
0.00150817
0.000224856
0.000246931
0.000275569
0.000310006
0.000349115
0.000391455
0.000435392
0.000479124
0.000520741
0.000558353
0.000590158
0.000614534
0.000630116
0.000635802
0.000630736
0.000614341
0.000586202
0.000546128
0.000161916
0.000737966
0.00389853
0.00391013
0.00110183
0.000267052
0.000290178
0.000314886
0.000342525
0.000373195
0.000406269
0.000440673
0.00047496
0.000507463
0.000536447
0.000560202
0.000577167
0.000586022
0.000585719
0.000575501
0.000554953
0.000523844
0.000482136
0.000132009
0.000251773
0.00172205
0.00107913
0.000385407
0.000315832
0.000335243
0.000353964
0.000374154
0.000396573
0.000421116
0.000447058
0.000473164
0.000497904
0.000519605
0.000536567
0.000547211
0.000550187
0.000544443
0.000529303
0.000504574
0.000470326
0.000426772
0.000122587
0.000237027
0.000305878
0.00033539
0.000355569
0.000370485
0.000381422
0.000391796
0.000403646
0.000417888
0.000434601
0.00045316
0.000472398
0.000490801
0.00050665
0.000518165
0.000523651
0.000521636
0.000510974
0.000491011
0.000461894
0.000424212
0.000378567
0.00013685
0.000290977
0.000382437
0.000413519
0.000421896
0.00042409
0.000424378
0.000425301
0.000428624
0.000435197
0.000445055
0.000457519
0.000471374
0.000485018
0.0004966
0.000504165
0.000505809
0.000499814
0.000484764
0.000459873
0.000425837
0.000384195
0.000336142
0.000179442
0.000364185
0.000465686
0.000487073
0.000480805
0.000469714
0.000459003
0.000450688
0.00044623
0.000446288
0.000450715
0.000458698
0.000468893
0.00047955
0.000488638
0.000493977
0.000493362
0.000484659
0.000465858
0.00043559
0.000395486
0.00034895
0.000298049
0.000260045
0.000459967
0.00054892
0.000548586
0.000524866
0.000500819
0.000480085
0.000463956
0.000453454
0.000448885
0.000449832
0.000455289
0.000463757
0.000473353
0.000481907
0.000487032
0.00048618
0.000476613
0.000455114
0.000418463
0.000369982
0.000316955
0.000262629
0.000401199
0.000585326
0.000618023
0.000583601
0.00054362
0.00050941
0.00048144
0.000460359
0.00044664
0.000440093
0.000439962
0.000445039
0.000453739
0.000464172
0.000474191
0.000481363
0.000482909
0.000475463
0.000453678
0.000408894
0.000347884
0.000286052
0.000227816
0.000610098
0.000725241
0.000643021
0.000571752
0.000523742
0.000485735
0.000455693
0.00043432
0.000421444
0.00041627
0.000417718
0.00042449
0.0004351
0.000447901
0.000461084
0.000472522
0.000479629
0.000479065
0.000462603
0.000406319
0.000325246
0.000252011
0.000190559
0.000769008
0.000752858
0.000571926
0.000493588
0.000455942
0.000425815
0.000403515
0.000390174
0.000384743
0.000385913
0.00039254
0.000403545
0.000417868
0.000434485
0.00045235
0.000470123
0.000486411
0.000500229
0.000499297
0.000421732
0.00029717
0.000207127
0.000146
0.000989696
0.000680788
0.00044337
0.00037365
0.000359212
0.000353916
0.000356983
0.000366524
0.000379988
0.000396054
0.000414166
0.000434043
0.000455572
0.000478867
0.000504173
0.000531605
0.000563561
0.000610449
0.000660299
0.000531168
0.000273669
0.000147135
9.09583e-05
0.000748065
-8.8139e-05
7.72693e-05
0.00014569
0.000202426
0.000247285
0.000286349
0.000321278
0.000352514
0.000380814
0.000407073
0.000432197
0.000457224
0.000483575
0.000513169
0.00054894
0.000602174
0.000715409
0.000926864
0.000801889
0.000269293
9.53179e-05
4.18743e-05
751.857
752.177
752.603
753.09
724.862
723.661
724.112
724.408
236.395
237.649
240.452
244.663
1.64267
2.21313
2.21629
2.04035
1.43692
2.1618
2.16592
1.99697
1.47671
2.25344
1.76003
1.10734
0.688348
0.466066
0.389096
0.715086
0.564603
0.34754
0.203802
0.0895025
0.0787892
0.0341731
0.0227817
0.0151691
0.00958628
0.0105473
0.0115252
0.0116396
0.00871992
0.00913813
0.00932332
0.00921437
0.00764876
0.0078104
0.00790905
0.00791812
0.00670902
0.00676661
0.00679482
0.00679406
0.00583727
0.00586088
0.00583812
0.00578185
0.00515668
0.00508306
0.00497418
0.00489116
0.00443303
0.00434758
0.00428168
0.00420093
0.00378673
0.00374587
0.0036824
0.00359612
0.00326587
0.00321996
0.0031566
0.00307864
0.00281243
0.00276752
0.00270972
0.0026411
0.00242367
0.00238107
0.00232865
0.00226777
0.00209305
0.00205284
0.00200465
0.00194952
0.00181149
0.00177335
0.00172833
0.00167737
0.00156991
0.00153353
0.00149105
0.00144333
0.00136096
0.00132619
0.00128594
0.00124101
0.00117949
0.00114625
0.0011081
0.00106573
0.00102203
0.000990243
0.000954062
0.00091403
0.000885973
0.000855509
0.000821092
0.000783136
0.000768941
0.000739602
0.000706703
0.000670539
0.000668521
0.00064008
0.000608437
0.000573773
0.000582337
0.000554589
0.000523993
0.000490633
0.000508183
0.000480966
0.000451268
0.000419085
0.000444141
0.000417348
0.000388458
0.000357382
0.000388593
0.00036216
0.000334026
0.000304032
0.000340124
0.000314014
0.000286618
0.000257714
0.000297383
0.000271583
0.000244934
0.000217174
0.000258944
0.000233478
0.000207641
0.000181151
0.000223193
0.000198175
0.00017333
0.000148365
0.000188257
0.000163993
0.000140531
0.00011756
0.000151905
0.000129155
0.000107836
8.76367e-05
0.000111378
9.19534e-05
7.42592e-05
5.81111e-05
6.40903e-05
5.08613e-05
3.95565e-05
2.9565e-05
2.31864e-05
1.46238e-05
7.75715e-06
2.2068e-06
754.797
755.404
756.217
757.295
756.604
754.046
754.079
756.791
760.895
765.199
768.283
770.578
771.914
772.141
772.488
772.869
763.578
759.041
760.552
723.013
722.908
722.978
724.52
728.675
732.266
732.515
730.609
731.737
739.829
752.716
761.501
763.066
757.182
753.805
759.476
763.143
763.687
763.406
254.597
260.32
265.765
273.755
283.594
297.101
314.495
331.32
343.65
351.301
356.966
364.644
373.376
381.645
388.864
398.102
416.04
427.849
430.71
0.972342
0.906898
0.96573
0.861367
1.48297
2.09568
1.65795
1.37356
1.28496
1.23453
1.23218
1.22314
1.20847
1.21888
1.25553
1.22776
1.16671
1.12161
1.13613
0.842715
0.848402
0.844914
0.832428
1.2954
2.26647
1.94488
1.63124
1.59234
1.49221
1.48173
1.4901
1.54295
1.54165
1.73982
1.4625
1.43551
1.20363
1.19137
0.91823
1.4236
1.42333
0.812235
1.55787
2.28106
2.26936
2.24708
2.23684
2.23828
2.2377
2.2327
1.83043
1.82805
1.81681
1.81434
1.80662
1.28476
1.1823
1.43669
1.42901
1.42633
1.43387
1.12568
0.532599
0.324427
0.396496
0.386115
0.404443
0.45399
0.515908
0.697705
0.715442
0.57609
0.498837
0.444817
0.882656
1.01814
0.27769
0.184437
0.129244
0.320465
0.0701333
0.0152523
0.0163811
0.0156401
0.0156566
0.0149515
0.012934
0.010046
0.00653847
0.00442354
0.00466762
0.0252614
0.00443564
0.0753381
0.114788
0.0111796
0.0100275
0.00988029
0.00855914
0.0111294
0.0126674
0.0138758
0.0144567
0.0262356
0.0701553
0.0859161
0.0754294
0.037953
0.00867002
0.00492348
0.00394095
0.00258198
-0.000477474
-0.00154385
0.0101949
0.00950071
0.0093468
0.00934534
0.0103412
0.0110436
0.0115737
0.0234721
0.11624
0.120903
0.118397
0.107554
0.0176424
0.00691248
0.00539338
0.00422199
0.00280489
0.000810936
0.000351103
0.0089677
0.00867955
0.00982353
0.0174914
0.0191335
0.011409
0.0105974
0.0820063
0.126793
0.116355
0.033653
0.0341842
0.0473117
0.0611076
0.0419971
0.0272461
0.00811026
0.00181873
0.0014778
0.00781636
0.00763466
0.0199499
0.0490734
0.0486383
0.0198813
0.017739
0.112926
0.11682
0.0112713
0.0222365
0.071301
0.0847898
0.0842916
0.0840593
0.0842019
0.0812434
0.00973636
0.00234008
0.00670994
0.00680539
0.0357804
0.0495092
0.0491278
0.0485104
0.0378188
0.0150143
0.000100765
-0.000812786
0.0529178
0.0870772
0.0867583
0.0539612
0.0153265
0.0205616
0.0214838
0.0268289
0.0347305
0.00564052
0.0051585
0.0123031
0.0453676
0.0495109
0.0137441
0.00199379
4.70715e-05
-0.000885508
-0.00132335
0.0105128
0.0281012
0.0114826
-0.00309788
-0.00229135
-0.00174795
-0.000463856
0.0273417
0.035448
0.00476938
0.00444421
0.00384277
0.00387157
0.0041992
0.00200431
0.000913943
2.68765e-05
-0.000711821
-0.000972819
-0.00236404
-0.00317593
-0.00318062
-0.00276572
-0.00237315
-0.00219796
0.00992182
0.0359539
0.0358433
0.00411134
0.00375032
0.00305054
0.00223278
0.00162562
0.00119149
0.000677296
-1.69467e-05
-0.000686174
-0.00129219
-0.00199732
-0.00254936
-0.00269833
-0.00261468
-0.00256545
-0.00276023
-0.000739467
0.0158983
0.0359788
0.00342512
0.00304498
0.00294108
0.00271383
0.00206705
0.00104352
0.000524305
-6.117e-05
-0.000646582
-0.00119804
-0.00174392
-0.00218359
-0.00241465
-0.00252678
-0.00269143
-0.00306247
-0.00371772
-0.00480557
0.000518289
0.00292802
0.00260438
0.00248876
0.00251507
0.00207323
0.00165527
0.000737438
-0.00010668
-0.000614739
-0.00109936
-0.00155826
-0.001952
-0.00222321
-0.00243275
-0.00268793
-0.00308403
-0.00364152
-0.0043232
-0.00440028
0.0025091
0.00223294
0.00188414
0.00164205
0.00175862
0.00152991
0.000956643
-0.000122326
-0.000589882
-0.000904355
-0.00123644
-0.00169598
-0.00205359
-0.00231357
-0.00258006
-0.0029192
-0.00332811
-0.00371486
-0.00373001
0.00215096
0.00191324
0.00161547
0.00127647
0.000942088
0.000632249
0.0002552
-0.000170298
-0.000435047
-0.000736514
-0.00109677
-0.00141627
-0.001881
-0.00217438
-0.00241014
-0.00266165
-0.00291569
-0.00310968
-0.00310419
0.00184429
0.00163657
0.00137924
0.00108483
0.000768239
0.000438309
9.67333e-05
-0.000254238
-0.000600222
-0.000875824
-0.00113855
-0.00147582
-0.00180483
-0.00202863
-0.00221393
-0.00236714
-0.00246703
-0.00250725
-0.00249244
0.00158087
0.00139633
0.00116995
0.000910426
0.000627779
0.000329196
1.84824e-05
-0.000300262
-0.000620765
-0.000933382
-0.00122696
-0.00149002
-0.00171434
-0.00189563
-0.0020253
-0.00208082
-0.0020251
-0.0019202
-0.00183441
0.00135374
0.00118735
0.00098513
0.000753238
0.000498771
0.000227613
-5.57918e-05
-0.000346702
-0.00063895
-0.000924297
-0.00119296
-0.00143459
-0.00163884
-0.00179446
-0.00188265
-0.00186932
-0.00169434
-0.000885781
0.00489814
0.00115729
0.00100547
0.000822528
0.000612921
0.000381883
0.000134226
-0.000125701
-0.000393217
-0.000662547
-0.000926518
-0.00117668
-0.00140356
-0.00159652
-0.00174262
-0.00182182
-0.00179827
-0.00161095
0.00183174
0.0441935
0.00098718
0.000847355
0.000680111
0.000488734
0.000277201
4.94275e-05
-0.000190663
-0.000438765
-0.000689784
-0.000937599
-0.00117509
-0.00139417
-0.00158567
-0.00173879
-0.00183828
-0.00185759
-0.00176248
0.00269316
0.0461771
0.000840055
0.000710249
0.00055599
0.000379728
0.000184516
-2.6473e-05
-0.000249892
-0.000482002
-0.00071848
-0.000954281
-0.00118366
-0.00140022
-0.00159703
-0.00176659
-0.00189986
-0.00198431
-0.00201403
-0.000590752
0.0475097
0.00071314
0.000591766
0.000448405
0.000284847
0.000103441
-9.33026e-05
-0.000302632
-0.000521454
-0.000746239
-0.000972964
-0.00119716
-0.00141406
-0.00161879
-0.00180673
-0.00197411
-0.00211956
-0.00224273
-0.00233332
0.0489385
0.000603986
0.00048969
0.000355656
0.000202969
3.34297e-05
-0.00015103
-0.000348242
-0.000555758
-0.0007708
-0.000990238
-0.00121065
-0.00142848
-0.00164029
-0.00184316
-0.0020362
-0.00222333
-0.00240035
-0.00248498
0.0499998
0.000510102
0.000402163
0.000276149
0.000132956
-2.61455e-05
-0.000199752
-0.00038625
-0.000583794
-0.000790271
-0.00100327
-0.00122011
-0.00143789
-0.00165364
-0.00186439
-0.00206858
-0.00226741
-0.00244336
-0.00247346
0.0231737
0.000429538
0.000327156
0.00020835
7.37109e-05
-7.5931e-05
-0.000239648
-0.000416339
-0.000604706
-0.000803212
-0.00101
-0.00122282
-0.00143896
-0.00165501
-0.00186654
-0.00206854
-0.0022546
-0.0023894
-0.00231456
0.0174564
0.000360367
0.000263063
0.000150931
2.42569e-05
-0.000116523
-0.000270915
-0.000438291
-0.000617856
-0.000808577
-0.00100904
-0.00121725
-0.00143035
-0.00164412
-0.00185216
-0.0020459
-0.0022131
-0.00230961
-0.0021711
0.0238527
0.000300942
0.000208483
0.000102756
-1.6238e-05
-0.000148423
-0.000293711
-0.000451916
-0.000622723
-0.00080557
-0.000999439
-0.00120252
-0.00141171
-0.00162169
-0.00182385
-0.00200585
-0.0021499
-0.00220717
-0.0020314
0.0184663
0.000249858
0.000162211
6.28622e-05
-4.84617e-05
-0.000172028
-0.000308128
-0.000457008
-0.000618824
-0.000793503
-0.000980463
-0.00117814
-0.00138316
-0.00158904
-0.00178431
-0.00195082
-0.00205937
-0.00204586
-0.00178332
-0.00128531
0.000205877
0.0001232
3.04311e-05
-7.29821e-05
-0.000187638
-0.000314192
-0.000453313
-0.000605648
-0.000771671
-0.000951379
-0.00114369
-0.00134536
-0.00154912
-0.00174086
-0.00189585
-0.00197001
-0.00187621
-0.00149769
0.000467274
0.000167862
9.05113e-05
4.74779e-06
-9.02754e-05
-0.000195481
-0.00031187
-0.000440522
-0.000582594
-0.000739203
-0.00091115
-0.00109829
-0.00129833
-0.00150458
-0.0017022
-0.00186281
-0.00193237
-0.00180677
-0.00137296
0.015645
0.000134732
6.32901e-05
-1.48125e-05
-0.000100743
-0.000195734
-0.000301091
-0.000418272
-0.000548937
-0.000694924
-0.000858076
-0.00103973
-0.00123967
-0.0014538
-0.00166956
-0.00185956
-0.00196647
-0.00187324
-0.00143669
0.0177041
0.000105466
4.07844e-05
-2.87776e-05
-0.00010472
-0.000188545
-0.000281788
-0.0003862
-0.000503878
-0.000637377
-0.000789715
-0.000964181
-0.00116382
-0.00138929
-0.00163413
-0.00187729
-0.00206327
-0.00205882
-0.00164015
0.0180064
7.91494e-05
2.23847e-05
-3.75612e-05
-0.000102488
-0.000174077
-0.000253967
-0.000344052
-0.000446707
-0.000565042
-0.000703181
-0.000866577
-0.0010623
-0.00129781
-0.00157744
-0.00189469
-0.00220726
-0.00236292
-0.00198536
0.0164134
5.51299e-05
7.79737e-06
-4.13119e-05
-9.4152e-05
-0.000152411
-0.000217647
-0.000291671
-0.000376851
-0.0004765
-0.00059541
-0.000740779
-0.000923538
-0.00115895
-0.00146667
-0.00186769
-0.00235375
-0.00279824
-0.00250478
0.0141951
3.3483e-05
-2.49584e-06
-3.94735e-05
-7.92076e-05
-0.000123121
-0.000172444
-0.000228616
-0.000293599
-0.000370299
-0.000463273
-0.000580081
-0.00073345
-0.000943978
-0.00124682
-0.00169924
-0.00236548
-0.00332232
-0.00327831
0.0135635
1.47826e-05
-8.09251e-06
-3.19234e-05
-5.78433e-05
-8.6693e-05
-0.000119131
-0.000155938
-0.000198235
-0.000247797
-0.000307633
-0.000383221
-0.000484912
-0.000631958
-0.000862647
-0.00125512
-0.00208346
-0.00374411
-0.00433472
0.012058
-5.23801e-06
-1.62344e-05
-2.78145e-05
-4.06328e-05
-5.49059e-05
-7.0726e-05
-8.81975e-05
-0.0001075
-0.000128995
-0.000153475
-0.000182826
-0.000221759
-0.000281883
-0.000391294
-0.000622649
-0.00125394
-0.00321277
-0.00589297
0.00392073
)
;

boundaryField
{
    leftWall
    {
        type            fixedFluxPressure;
        gradient        uniform 0;
        value           nonuniform List<scalar> 
50
(
768.184
768.167
768.168
768.191
768.238
768.311
768.413
768.545
768.799
762.381
341.441
1.03301
2.24431
1.97825
0.774139
-0.0110137
-0.00908547
-0.00746218
-0.00605445
-0.00486829
-0.00385201
-0.00286455
-0.00194045
-0.00121066
-0.000649062
-2.56468e-05
0.000334946
0.000625251
0.000850741
0.000516942
0.000259742
0.000330344
0.000366131
0.000374808
0.000362825
0.000336046
0.00030038
0.000254971
0.000205203
0.000161916
0.000132009
0.000122587
0.00013685
0.000179442
0.000260045
0.000401199
0.000610098
0.000769008
0.000989696
0.000748065
)
;
    }
    rightWall
    {
        type            fixedFluxPressure;
        gradient        uniform 0;
        value           nonuniform List<scalar> 
50
(
770.075
770.147
770.036
770.866
770.801
770.904
770.869
763.674
760.552
763.406
430.71
1.13613
1.19137
1.1823
1.01814
0.114788
-0.00154385
0.000351103
0.0014778
0.00234008
0.0347305
0.035448
0.0358433
0.0359788
0.000518289
-0.00440028
-0.00373001
-0.00310419
-0.00249244
-0.00183441
0.00489814
0.0441935
0.0461771
0.0475097
0.0489385
0.0499998
0.0231737
0.0174564
0.0238527
0.0184663
-0.00128531
0.000467274
0.015645
0.0177041
0.0180064
0.0164134
0.0141951
0.0135635
0.012058
0.00392073
)
;
    }
    lowerWall
    {
        type            fixedFluxPressure;
        gradient        uniform 0;
        value           nonuniform List<scalar> 
62
(
768.184
768.207
768.087
767.808
767.372
766.788
766.07
765.231
764.287
763.255
762.154
761.004
759.825
758.63
757.423
756.202
755.014
753.918
753.228
752.811
752.78
753.15
753.332
753.332
753.489
753.581
753.62
753.664
753.701
753.667
753.622
751.857
752.177
752.603
753.09
755.855
755.794
756.469
756.819
756.588
756.326
755.958
755.533
755.855
756.415
757.077
757.776
758.515
759.403
760.394
761.455
762.443
763.39
763.521
764.445
764.425
764.848
768.298
769.854
769.577
769.386
770.075
)
;
    }
    atmosphere
    {
        type            totalPressure;
        rho             rho;
        psi             none;
        gamma           1;
        p0              uniform 0;
        value           nonuniform List<scalar> 
46
(
-0.000129616
0
0
0
0
0
0
0
0
0
0
0
0
0
0
0
0
0
0
-2.14498e-08
-7.88549e-07
-2.73387e-06
-5.73106e-06
-8.48668e-06
-1.04795e-05
-1.26168e-05
-1.4886e-05
-1.89999e-05
-2.53272e-05
-3.22947e-05
-3.98603e-05
-4.79793e-05
-5.65912e-05
-6.56041e-05
-7.48768e-05
-8.41972e-05
-9.32576e-05
-0.000101623
-0.000108691
-0.000113609
-0.000115096
-0.000110967
-9.68015e-05
-6.35892e-05
-3.9995e-06
0
)
;
    }
    defaultFaces
    {
        type            empty;
    }
}


// ************************************************************************* //
