/*--------------------------------*- C++ -*----------------------------------*\
  =========                 |
  \\      /  F ield         | OpenFOAM: The Open Source CFD Toolbox
   \\    /   O peration     | Website:  https://openfoam.org
    \\  /    A nd           | Version:  9
     \\/     M anipulation  |
\*---------------------------------------------------------------------------*/
FoamFile
{
    format      ascii;
    class       surfaceScalarField;
    location    "5";
    object      phi;
}
// * * * * * * * * * * * * * * * * * * * * * * * * * * * * * * * * * * * * * //

dimensions      [0 3 -1 0 0 0 0];

internalField   nonuniform List<scalar> 
4432
(
2.71358e-07
-2.71358e-07
5.5614e-07
-2.84773e-07
8.23223e-07
-2.6709e-07
1.06349e-06
-2.40265e-07
1.27363e-06
-2.10141e-07
1.4519e-06
-1.78267e-07
1.60136e-06
-1.49457e-07
1.72889e-06
-1.27538e-07
1.84119e-06
-1.12303e-07
1.94237e-06
-1.01175e-07
2.03745e-06
-9.50928e-08
2.13348e-06
-9.60278e-08
2.24203e-06
-1.08559e-07
2.38049e-06
-1.38456e-07
2.5648e-06
-1.8432e-07
2.77171e-06
-2.06904e-07
2.77134e-06
3.63375e-10
2.00382e-06
7.67519e-07
6.77828e-07
1.32599e-06
-4.41634e-07
1.11946e-06
-8.23158e-07
3.81523e-07
-4.87278e-07
-3.35878e-07
-4.87273e-07
2.78246e-07
-5.49611e-07
5.50623e-07
-5.57137e-07
8.09281e-07
-5.25755e-07
1.04729e-06
-4.78272e-07
1.25927e-06
-4.22127e-07
1.44342e-06
-3.62411e-07
1.60198e-06
-3.0802e-07
1.73954e-06
-2.65109e-07
1.86004e-06
-2.328e-07
1.96535e-06
-2.06496e-07
2.05699e-06
-1.86734e-07
2.13849e-06
-1.77536e-07
2.21481e-06
-1.84884e-07
2.29095e-06
-2.14598e-07
2.36692e-06
-2.6029e-07
2.41614e-06
-2.56128e-07
2.32187e-06
9.46264e-08
1.81013e-06
1.27926e-06
9.3922e-07
2.19689e-06
1.32734e-07
1.92595e-06
-3.2367e-07
8.37929e-07
-3.9079e-07
-2.68752e-07
-8.78063e-07
2.83688e-07
-8.33306e-07
5.50539e-07
-8.23976e-07
8.04076e-07
-7.79296e-07
1.04132e-06
-7.15513e-07
1.25594e-06
-6.36745e-07
1.44508e-06
-5.51557e-07
1.61007e-06
-4.73002e-07
1.75412e-06
-4.09163e-07
1.87932e-06
-3.58004e-07
1.98528e-06
-3.12449e-07
2.07123e-06
-2.72691e-07
2.1377e-06
-2.44003e-07
2.18499e-06
-2.32182e-07
2.21087e-06
-2.40471e-07
2.20721e-06
-2.56632e-07
2.15217e-06
-2.0109e-07
2.00499e-06
2.41798e-07
1.64142e-06
1.64283e-06
1.15149e-06
2.68682e-06
5.76203e-07
2.50123e-06
1.17842e-07
1.29629e-06
-1.29335e-07
-2.15742e-08
-1.0074e-06
2.8479e-07
-1.1181e-06
5.51739e-07
-1.09092e-06
8.05708e-07
-1.03327e-06
1.04573e-06
-9.55532e-07
1.26512e-06
-8.56136e-07
1.46011e-06
-7.46548e-07
1.6313e-06
-6.44188e-07
1.78101e-06
-5.58871e-07
1.90989e-06
-4.86873e-07
2.0155e-06
-4.18065e-07
2.09506e-06
-3.52243e-07
2.14675e-06
-2.95694e-07
2.16761e-06
-2.53042e-07
2.15078e-06
-2.23642e-07
2.08405e-06
-1.89907e-07
1.94946e-06
-6.64961e-08
1.76193e-06
4.29319e-07
1.55539e-06
1.84937e-06
1.31591e-06
2.92629e-06
9.44326e-07
2.87282e-06
5.5797e-07
1.68265e-06
2.01735e-07
3.34656e-07
-8.05671e-07
2.84372e-07
-1.40248e-06
5.54531e-07
-1.36107e-06
8.1318e-07
-1.29192e-06
1.05922e-06
-1.20157e-06
1.28539e-06
-1.0823e-06
1.4871e-06
-9.48261e-07
1.66456e-06
-8.21642e-07
1.81954e-06
-7.13858e-07
1.95158e-06
-6.18909e-07
2.05636e-06
-5.22842e-07
2.12929e-06
-4.25178e-07
2.16704e-06
-3.33443e-07
2.1647e-06
-2.50705e-07
2.11318e-06
-1.72115e-07
1.9996e-06
-7.6335e-08
1.81268e-06
1.20429e-07
1.58778e-06
6.54212e-07
1.51263e-06
1.92452e-06
1.43247e-06
3.00645e-06
1.26171e-06
3.04358e-06
9.75028e-07
1.96932e-06
5.16011e-07
7.93668e-07
-2.89663e-07
2.84739e-07
-1.68722e-06
5.60438e-07
-1.63676e-06
8.26702e-07
-1.55818e-06
1.08117e-06
-1.45604e-06
1.3156e-06
-1.31672e-06
1.52462e-06
-1.15728e-06
1.7083e-06
-1.00533e-06
1.86821e-06
-8.7377e-07
2.00301e-06
-7.53705e-07
2.10662e-06
-6.26461e-07
2.17306e-06
-4.91622e-07
2.19828e-06
-3.58666e-07
2.17681e-06
-2.29234e-07
2.09948e-06
-9.47948e-08
1.95626e-06
6.68894e-08
1.74579e-06
3.30897e-07
1.51854e-06
8.81466e-07
1.47893e-06
1.96413e-06
1.53252e-06
2.95286e-06
1.52706e-06
3.04904e-06
1.28743e-06
2.20896e-06
7.72319e-07
1.30877e-06
4.82657e-07
2.87053e-07
-1.97428e-06
5.70593e-07
-1.9203e-06
8.46252e-07
-1.83384e-06
1.11057e-06
-1.72036e-06
1.35401e-06
-1.56017e-06
1.5705e-06
-1.37377e-06
1.76016e-06
-1.195e-06
1.92451e-06
-1.03812e-06
2.06152e-06
-8.90728e-07
2.16362e-06
-7.28559e-07
2.22382e-06
-5.51832e-07
2.23822e-06
-3.73072e-07
2.20195e-06
-1.92969e-07
2.10745e-06
-2.93123e-10
1.94972e-06
2.24616e-07
1.7375e-06
5.43123e-07
1.53353e-06
1.08543e-06
1.49832e-06
1.99934e-06
1.61878e-06
2.83241e-06
1.69585e-06
2.97197e-06
1.50504e-06
2.39977e-06
9.91009e-07
1.82281e-06
1.47367e-06
2.92424e-07
-2.2667e-06
5.84728e-07
-2.21261e-06
8.70604e-07
-2.11972e-06
1.14513e-06
-1.99489e-06
1.39761e-06
-1.81265e-06
1.62128e-06
-1.59745e-06
1.81646e-06
-1.39018e-06
1.98457e-06
-1.20623e-06
2.12306e-06
-1.02922e-06
2.22308e-06
-8.28577e-07
2.27723e-06
-6.05986e-07
2.28252e-06
-3.78369e-07
2.23565e-06
-1.46093e-07
2.13141e-06
1.0394e-07
1.97049e-06
3.85545e-07
1.76973e-06
7.43885e-07
1.5923e-06
1.26286e-06
1.56728e-06
2.02436e-06
1.69403e-06
2.70567e-06
1.78992e-06
2.87608e-06
1.65741e-06
2.53227e-06
1.21804e-06
2.26217e-06
2.69171e-06
-1.1001e-06
1.1001e-06
-6.40159e-07
-4.59942e-07
-1.60621e-07
-4.7953e-07
1.22589e-07
-2.8321e-07
2.10087e-07
-8.74915e-08
1.70202e-07
3.98883e-08
8.52163e-08
8.49851e-08
1.05648e-07
-2.043e-08
4.83608e-07
-3.7796e-07
1.16392e-06
-6.80317e-07
1.16685e-06
-2.92555e-09
9.66587e-08
1.07019e-06
-2.25355e-06
2.35021e-06
-3.14233e-06
8.88776e-07
-9.13775e-07
-2.22855e-06
1.51513e-06
-2.42891e-06
2.88471e-06
-1.36958e-06
2.38117e-06
5.03544e-07
2.38116e-06
-3.82874e-07
1.48298e-06
-3.05255e-07
-5.37563e-07
-1.88887e-07
-5.95884e-07
-1.24204e-07
-3.47892e-07
-1.28395e-07
-8.32972e-08
-1.9122e-07
1.02717e-07
-2.52909e-07
1.46672e-07
-2.15072e-07
-5.82717e-08
3.34645e-08
-6.26489e-07
3.50381e-07
-9.9724e-07
2.05924e-07
1.41541e-07
-5.90319e-07
1.86642e-06
-1.73865e-06
3.49855e-06
-1.49723e-06
6.47345e-07
-1.34828e-07
-3.59095e-06
1.36931e-06
-3.93305e-06
2.27003e-06
-2.27031e-06
2.19876e-06
5.74829e-07
4.57991e-06
-1.05765e-08
1.49357e-06
-1.68054e-07
-3.80091e-07
-2.48736e-07
-5.15196e-07
-3.09634e-07
-2.86994e-07
-3.86603e-07
-6.33095e-09
-4.87672e-07
2.03786e-07
-5.70086e-07
2.29084e-07
-5.79585e-07
-4.8779e-08
-4.82034e-07
-7.24036e-07
-3.54712e-07
-1.12457e-06
-5.86956e-07
3.73791e-07
-1.10634e-06
2.3858e-06
-1.22608e-06
3.61828e-06
-6.13184e-07
3.4446e-08
2.027e-07
-4.40684e-06
1.19068e-06
-4.92103e-06
1.74663e-06
-2.82627e-06
1.75381e-06
5.67659e-07
6.33372e-06
5.3221e-08
1.44035e-06
-1.64228e-07
-1.6265e-07
-3.50586e-07
-3.28839e-07
-4.95202e-07
-1.42381e-07
-6.27595e-07
1.26057e-07
-7.64236e-07
3.40423e-07
-8.84694e-07
3.4954e-07
-9.63505e-07
3.00258e-08
-1.00372e-06
-6.83819e-07
-1.03301e-06
-1.09529e-06
-1.19517e-06
5.3595e-07
-1.35667e-06
2.5473e-06
-8.8826e-07
3.14988e-06
-1.97324e-07
-6.56493e-07
3.1661e-07
-4.92078e-06
9.71778e-07
-5.57619e-06
1.28332e-06
-3.13782e-06
1.33019e-06
5.20797e-07
7.66391e-06
-8.84276e-09
1.4492e-06
-2.37087e-07
6.55857e-08
-4.88971e-07
-7.696e-08
-6.93923e-07
6.25678e-08
-8.70224e-07
3.02353e-07
-1.04144e-06
5.11637e-07
-1.2011e-06
5.09198e-07
-1.34388e-06
1.72801e-07
-1.49763e-06
-5.30066e-07
-1.68128e-06
-9.11636e-07
-1.65888e-06
5.13551e-07
-1.45385e-06
2.34225e-06
-7.07611e-07
2.40365e-06
-4.14162e-08
-1.32269e-06
2.42773e-07
-5.20497e-06
6.56818e-07
-5.99023e-06
8.02225e-07
-3.28323e-06
9.15918e-07
4.07113e-07
8.57982e-06
-5.50455e-08
1.50424e-06
-3.45882e-07
3.56418e-07
-6.55203e-07
2.32356e-07
-9.07441e-07
3.14806e-07
-1.11818e-06
5.13097e-07
-1.31772e-06
7.11177e-07
-1.50834e-06
6.99823e-07
-1.69572e-06
3.60174e-07
-1.92291e-06
-3.02868e-07
-2.17409e-06
-6.60461e-07
-2.05563e-06
3.95095e-07
-1.54965e-06
1.83626e-06
-6.49556e-07
1.50356e-06
-9.7887e-08
-1.87436e-06
-8.43621e-09
-5.29442e-06
1.81389e-07
-6.18005e-06
2.72964e-07
-3.37482e-06
4.74777e-07
2.05305e-07
9.0546e-06
-5.26702e-08
1.55691e-06
-4.69502e-07
7.73251e-07
-8.40311e-07
6.03166e-07
-1.13264e-06
6.07136e-07
-1.36977e-06
7.50234e-07
-1.5872e-06
9.28612e-07
-1.79363e-06
9.06261e-07
-2.00279e-06
5.69329e-07
-2.2542e-06
-5.14467e-08
-2.48353e-06
-4.31137e-07
-2.3257e-06
2.37267e-07
-1.65903e-06
1.1696e-06
-7.59137e-07
6.03663e-07
-3.66044e-07
-2.26745e-06
-4.69213e-07
-5.19126e-06
-4.55284e-07
-6.19398e-06
-3.77754e-07
-3.45235e-06
-1.11754e-07
-6.06922e-08
8.94284e-06
-9.33651e-08
1.65027e-06
-6.17785e-07
1.29768e-06
-1.03677e-06
1.02216e-06
-1.36417e-06
9.34532e-07
-1.62164e-06
1.0077e-06
-1.84632e-06
1.15329e-06
-2.04939e-06
1.10933e-06
-2.25557e-06
7.75512e-07
-2.49149e-06
1.84472e-07
-2.6652e-06
-2.57424e-07
-2.46964e-06
4.17014e-08
-1.79558e-06
4.95538e-07
-1.01281e-06
-1.79104e-07
-7.63565e-07
-2.5167e-06
-1.01086e-06
-4.94397e-06
-1.22984e-06
-5.975e-06
-1.16559e-06
-3.51661e-06
-1.02733e-06
-1.98952e-07
7.91551e-06
6.37557e-07
-2.90426e-06
1.29229e-06
-2.86734e-06
1.93569e-06
-2.76312e-06
2.55283e-06
-2.61202e-06
3.11824e-06
-2.37806e-06
3.61586e-06
-2.09507e-06
4.0475e-06
-1.82182e-06
4.4144e-06
-1.57313e-06
4.71161e-06
-1.32643e-06
4.91466e-06
-1.03163e-06
5.00888e-06
-7.00213e-07
4.99434e-06
-3.6383e-07
4.87171e-06
-2.3453e-08
4.63847e-06
3.37172e-07
4.31087e-06
7.1315e-07
3.94005e-06
1.11471e-06
3.64305e-06
1.55986e-06
3.6079e-06
2.05951e-06
3.82075e-06
2.49282e-06
3.99957e-06
2.69725e-06
3.86466e-06
2.66718e-06
3.52671e-06
2.60012e-06
2.64634e-06
3.57207e-06
6.2025e-07
-3.52452e-06
1.32556e-06
-3.57264e-06
1.99716e-06
-3.43472e-06
2.6325e-06
-3.24737e-06
3.21949e-06
-2.96505e-06
3.74756e-06
-2.62314e-06
4.21141e-06
-2.28567e-06
4.59175e-06
-1.95348e-06
4.86568e-06
-1.60035e-06
5.03256e-06
-1.19851e-06
5.09602e-06
-7.63674e-07
5.05475e-06
-3.22562e-07
4.92022e-06
1.11085e-07
4.70403e-06
5.53361e-07
4.43451e-06
9.82664e-07
4.15449e-06
1.39473e-06
3.94626e-06
1.7681e-06
3.8981e-06
2.10767e-06
3.98246e-06
2.40846e-06
4.00946e-06
2.67024e-06
3.80001e-06
2.87663e-06
3.35418e-06
3.04595e-06
3.20112e-06
2.79941e-06
8.69736e-07
-4.39425e-06
1.46122e-06
-4.16415e-06
2.00431e-06
-3.97784e-06
2.45872e-06
-3.70181e-06
2.97929e-06
-3.48566e-06
3.60936e-06
-3.25323e-06
4.20295e-06
-2.87929e-06
4.65149e-06
-2.40204e-06
4.91795e-06
-1.86684e-06
5.06224e-06
-1.34282e-06
5.11928e-06
-8.20726e-07
5.08565e-06
-2.88946e-07
4.94417e-06
2.52568e-07
4.75442e-06
7.4311e-07
4.55562e-06
1.18147e-06
4.38667e-06
1.5637e-06
4.27565e-06
1.87914e-06
4.17914e-06
2.20419e-06
4.10781e-06
2.47981e-06
4.02812e-06
2.74996e-06
3.74764e-06
3.15713e-06
3.13661e-06
3.65702e-06
4.17231e-06
2.16548e-06
1.92234e-06
-6.31659e-06
1.8414e-06
-4.08315e-06
1.97148e-06
-4.10786e-06
1.35722e-06
-3.08743e-06
1.2894e-06
-3.41773e-06
2.56131e-06
-4.52508e-06
3.52851e-06
-3.84641e-06
4.01202e-06
-2.88545e-06
4.27932e-06
-2.13407e-06
4.44373e-06
-1.50717e-06
4.53408e-06
-9.11037e-07
4.56908e-06
-3.23922e-07
4.51699e-06
3.04663e-07
4.39952e-06
8.60565e-07
4.29828e-06
1.28269e-06
4.57047e-06
1.29147e-06
5.10336e-06
1.34619e-06
4.55826e-06
2.74922e-06
3.59215e-06
3.44584e-06
3.51596e-06
2.82607e-06
3.61691e-06
3.0561e-06
3.46661e-06
3.80721e-06
6.48512e-06
1.1537e-06
-1.33725e-06
-4.97939e-06
-1.42292e-06
-3.99755e-06
-3.04684e-06
-2.48397e-06
-5.7147e-06
-4.19656e-07
-5.47058e-06
-3.66189e-06
-3.39052e-06
-6.60521e-06
-1.77816e-06
-5.45887e-06
-5.88006e-07
-4.07571e-06
2.76768e-07
-2.99892e-06
1.22438e-06
-2.45483e-06
2.23304e-06
-1.91972e-06
3.28819e-06
-1.37907e-06
4.16715e-06
-5.74275e-07
4.71798e-06
3.09785e-07
5.21389e-06
7.86843e-07
5.48469e-06
1.02075e-06
6.74654e-06
8.44119e-08
5.98566e-06
3.51021e-06
3.95872e-06
5.4729e-06
2.61744e-06
4.16747e-06
1.80736e-06
3.86629e-06
6.28371e-07
4.98625e-06
9.07655e-06
-1.9632e-06
-1.24885e-06
-3.73046e-06
-1.18277e-06
-4.06359e-06
-3.98433e-07
-3.26822e-06
1.56622e-06
-2.3843e-06
3.6798e-06
-5.7754e-06
1.24942e-06
-4.17476e-06
-8.85472e-07
-3.32393e-06
-1.41239e-06
-3.54875e-06
-1.05159e-06
-3.35969e-06
-3.64791e-07
-3.1416e-06
5.06407e-07
-2.7909e-06
1.47281e-06
-2.34546e-06
2.31202e-06
-1.41348e-06
2.72806e-06
-1.06265e-07
2.07172e-06
1.44316e-06
5.59048e-08
3.03652e-06
-9.92235e-07
1.13251e-06
-4.94407e-07
3.01235e-06
-6.76731e-09
4.9852e-06
-1.18963e-06
5.35028e-06
-3.267e-06
5.94374e-06
-5.23531e-06
6.95485e-06
7.48703e-06
-3.64538e-06
-4.4644e-07
-3.28407e-06
-7.04977e-07
-3.80488e-06
6.64874e-07
-4.63805e-06
3.13244e-06
-4.85191e-06
2.69701e-06
-5.33996e-06
1.59049e-06
-3.06821e-06
1.44451e-07
-1.87788e-06
-9.78125e-07
-2.42617e-06
-1.52517e-06
-2.81264e-06
-1.72157e-06
-2.94517e-06
-1.76788e-06
-2.74457e-06
-1.91792e-06
-2.19538e-06
-2.21344e-06
-1.11791e-06
-2.7843e-06
4.64657e-07
-3.67538e-06
2.33427e-06
-4.23951e-06
3.60067e-06
-5.98619e-06
2.87922e-06
-6.07489e-06
3.10109e-06
-5.49179e-06
4.40212e-06
-5.90452e-06
5.7629e-06
-6.57487e-06
6.61387e-06
-5.41763e-06
5.79753e-06
3.93097e-06
-1.8615e-06
1.85468e-07
-3.46966e-06
2.3713e-07
-3.85646e-06
1.99613e-08
-4.42089e-06
-3.49107e-07
-4.4828e-06
-1.35745e-06
-4.33158e-06
-1.74542e-06
-2.68023e-06
-1.85184e-06
-1.77145e-06
-2.38269e-06
-1.89531e-06
-3.02525e-06
-2.17005e-06
-3.66798e-06
-2.3024e-06
-4.31058e-06
-2.10191e-06
-4.97661e-06
-1.52927e-06
-5.64849e-06
-4.45943e-07
-6.28196e-06
1.09822e-06
-6.72419e-06
2.77659e-06
-7.0242e-06
3.90077e-06
-7.80721e-06
3.66236e-06
-7.87471e-06
3.16881e-06
-7.29766e-06
3.82536e-06
-6.52298e-06
4.98851e-06
-5.17308e-06
5.26404e-06
-3.07902e-06
3.70343e-06
2.21716e-06
-1.36524e-06
2.68286e-07
-3.73778e-06
9.7257e-09
-3.59787e-06
-6.6026e-07
-3.75083e-06
-1.49059e-06
-3.65237e-06
-2.52149e-06
-3.30064e-06
-2.92681e-06
-2.27492e-06
-3.10643e-06
-1.59185e-06
-3.50473e-06
-1.49704e-06
-4.09211e-06
-1.58269e-06
-4.80833e-06
-1.58618e-06
-5.57403e-06
-1.33619e-06
-6.32224e-06
-7.81045e-07
-6.95819e-06
1.90021e-07
-7.36179e-06
1.5018e-06
-7.40426e-06
2.81901e-06
-7.15235e-06
3.64878e-06
-7.08974e-06
3.59968e-06
-7.16713e-06
3.24616e-06
-6.65306e-06
3.31132e-06
-5.38699e-06
3.72255e-06
-3.62346e-06
3.50056e-06
-2.4489e-06
2.52887e-06
1.89214e-06
-2.12386e-06
3.56124e-08
-3.7733e-06
-2.85913e-07
-3.27635e-06
-9.76879e-07
-3.05979e-06
-1.8207e-06
-2.80851e-06
-2.7043e-06
-2.41704e-06
-3.227e-06
-1.75224e-06
-3.56527e-06
-1.2536e-06
-3.99439e-06
-1.06793e-06
-4.55446e-06
-1.02261e-06
-5.21145e-06
-9.29155e-07
-5.90505e-06
-6.42537e-07
-6.56832e-06
-1.17696e-07
-7.06516e-06
6.86933e-07
-7.25841e-06
1.69509e-06
-7.07517e-06
2.63577e-06
-6.63343e-06
3.20703e-06
-6.25529e-06
3.2215e-06
-5.95113e-06
2.9419e-06
-5.41027e-06
2.77031e-06
-4.40641e-06
2.71864e-06
-3.35288e-06
2.44704e-06
-2.78622e-06
1.96223e-06
1.78043e-06
-2.67441e-06
-1.80436e-07
-3.59291e-06
-5.76996e-07
-2.87975e-06
-1.19155e-06
-2.4452e-06
-1.91743e-06
-2.08262e-06
-2.64781e-06
-1.68667e-06
-3.19371e-06
-1.20633e-06
-3.62417e-06
-8.23132e-07
-4.07422e-06
-6.17839e-07
-4.58542e-06
-5.11347e-07
-5.15488e-06
-3.59624e-07
-5.73329e-06
-6.40187e-08
-6.258e-06
4.07148e-07
-6.60564e-06
1.03471e-06
-6.66207e-06
1.75164e-06
-6.41723e-06
2.39105e-06
-5.97495e-06
2.7649e-06
-5.53157e-06
2.7783e-06
-5.13486e-06
2.54537e-06
-4.61705e-06
2.25262e-06
-3.93578e-06
2.03748e-06
-3.30292e-06
1.81429e-06
-2.96945e-06
1.62887e-06
1.67967e-06
-2.8686e-06
-3.43207e-07
-3.24971e-06
-8.01761e-07
-2.4211e-06
-1.35687e-06
-1.89005e-06
-1.96824e-06
-1.47124e-06
-2.57202e-06
-1.08286e-06
-3.08151e-06
-6.96817e-07
-3.52047e-06
-3.84128e-07
-3.95127e-06
-1.86991e-07
-4.40808e-06
-5.44874e-08
-4.89253e-06
1.24879e-07
-5.35884e-06
4.02361e-07
-5.73763e-06
7.8601e-07
-5.95025e-06
1.2474e-06
-5.93705e-06
1.73846e-06
-5.69909e-06
2.1531e-06
-5.31523e-06
2.38106e-06
-4.90679e-06
2.36997e-06
-4.52772e-06
2.16642e-06
-4.11977e-06
1.84478e-06
-3.68309e-06
1.6009e-06
-3.30826e-06
1.43954e-06
-3.0963e-06
1.41694e-06
1.57967e-06
-2.9963e-06
-4.77156e-07
-2.77249e-06
-9.70882e-07
-1.92729e-06
-1.49095e-06
-1.36995e-06
-2.02109e-06
-9.41072e-07
-2.53081e-06
-5.73097e-07
-2.98259e-06
-2.44985e-07
-3.38539e-06
1.87185e-08
-3.77499e-06
2.0264e-07
-4.17706e-06
3.476e-07
-4.57451e-06
5.22323e-07
-4.9281e-06
7.55949e-07
-5.18584e-06
1.04375e-06
-5.30633e-06
1.36788e-06
-5.25691e-06
1.68899e-06
-5.04629e-06
1.94237e-06
-4.72943e-06
2.06407e-06
-4.38395e-06
2.02438e-06
-4.061e-06
1.8434e-06
-3.78501e-06
1.56872e-06
-3.5234e-06
1.33924e-06
-3.31492e-06
1.23103e-06
-3.18676e-06
1.28876e-06
1.46726e-06
-3.07436e-06
-5.74234e-07
-2.19818e-06
-1.09865e-06
-1.40285e-06
-1.6015e-06
-8.67094e-07
-2.08042e-06
-4.62122e-07
-2.52491e-06
-1.28546e-07
-2.92225e-06
1.52426e-07
-3.27953e-06
3.76051e-07
-3.6204e-06
5.43545e-07
-3.95629e-06
6.83493e-07
-4.26704e-06
8.33057e-07
-4.52214e-06
1.01102e-06
-4.69302e-06
1.21463e-06
-4.75343e-06
1.42831e-06
-4.68904e-06
1.6246e-06
-4.51084e-06
1.76412e-06
-4.25733e-06
1.81048e-06
-3.98099e-06
1.74795e-06
-3.72788e-06
1.59023e-06
-3.54048e-06
1.38127e-06
-3.39713e-06
1.19587e-06
-3.29136e-06
1.12528e-06
-3.20369e-06
1.20115e-06
1.34713e-06
-3.08344e-06
-6.41132e-07
-1.55702e-06
-1.19348e-06
-8.50544e-07
-1.6896e-06
-3.70975e-07
-2.13716e-06
-1.45195e-08
-2.53822e-06
2.72588e-07
-2.8919e-06
5.06184e-07
-3.20673e-06
6.90954e-07
-3.49646e-06
8.33325e-07
-3.7644e-06
9.51455e-07
-3.99856e-06
1.06723e-06
-4.1793e-06
1.19177e-06
-4.28805e-06
1.32342e-06
-4.31096e-06
1.45129e-06
-4.2434e-06
1.55714e-06
-4.0968e-06
1.61763e-06
-3.89926e-06
1.61303e-06
-3.6883e-06
1.53709e-06
-3.50069e-06
1.40273e-06
-3.36187e-06
1.24257e-06
-3.27818e-06
1.11231e-06
-3.21954e-06
1.06678e-06
-3.13846e-06
1.12024e-06
1.2319e-06
-3.02303e-06
-6.85071e-07
-8.71986e-07
-1.25819e-06
-2.77466e-07
-1.75181e-06
1.22664e-07
-2.18057e-06
4.14293e-07
-2.55146e-06
6.4356e-07
-2.87113e-06
8.25939e-07
-3.14805e-06
9.67942e-07
-3.39111e-06
1.07645e-06
-3.60286e-06
1.16324e-06
-3.77661e-06
1.241e-06
-3.90131e-06
1.31649e-06
-3.96661e-06
1.38877e-06
-3.96616e-06
1.45093e-06
-3.90058e-06
1.49168e-06
-3.78075e-06
1.49796e-06
-3.62766e-06
1.4601e-06
-3.46797e-06
1.37757e-06
-3.32742e-06
1.26235e-06
-3.22399e-06
1.13932e-06
-3.15621e-06
1.0447e-06
-3.10028e-06
1.01101e-06
-3.0248e-06
1.04491e-06
1.12102e-06
-2.91379e-06
-7.10538e-07
-1.61496e-07
-1.29548e-06
3.07489e-07
-1.78637e-06
6.13599e-07
-2.20067e-06
8.28671e-07
-2.54966e-06
9.92631e-07
-2.84237e-06
1.11873e-06
-3.0875e-06
1.21314e-06
-3.29248e-06
1.28147e-06
-3.46035e-06
1.33115e-06
-3.58886e-06
1.36952e-06
-3.673e-06
1.40063e-06
-3.7083e-06
1.42409e-06
-3.69317e-06
1.43583e-06
-3.6309e-06
1.42948e-06
-3.53123e-06
1.39838e-06
-3.4098e-06
1.33876e-06
-3.2852e-06
1.25306e-06
-3.17443e-06
1.15166e-06
-3.08772e-06
1.05268e-06
-3.02196e-06
9.78992e-07
-2.96015e-06
9.49219e-07
-2.88103e-06
9.65784e-07
1.01218e-06
-2.77223e-06
-7.23092e-07
5.61581e-07
-1.30857e-06
8.9305e-07
-1.79247e-06
1.09759e-06
-2.19332e-06
1.22962e-06
-2.52382e-06
1.32321e-06
-2.79418e-06
1.38917e-06
-3.01329e-06
1.4323e-06
-3.18824e-06
1.45647e-06
-3.32311e-06
1.46605e-06
-3.41875e-06
1.46517e-06
-3.4743e-06
1.45617e-06
-3.48917e-06
1.43894e-06
-3.46468e-06
1.41132e-06
-3.40535e-06
1.37013e-06
-3.31953e-06
1.31253e-06
-3.21878e-06
1.238e-06
-3.11585e-06
1.15009e-06
-3.02152e-06
1.05728e-06
-2.94116e-06
9.72254e-07
-2.87151e-06
9.09244e-07
-2.80093e-06
8.78525e-07
-2.71547e-06
8.80177e-07
9.0297e-07
-2.60645e-06
-7.22886e-07
1.28451e-06
-1.29989e-06
1.4702e-06
-1.77138e-06
1.5692e-06
-2.15674e-06
1.61509e-06
-2.46937e-06
1.63592e-06
-2.71996e-06
1.63982e-06
-2.91739e-06
1.6298e-06
-3.06879e-06
1.60792e-06
-3.17911e-06
1.57641e-06
-3.25125e-06
1.53734e-06
-3.28697e-06
1.49189e-06
-3.28808e-06
1.44004e-06
-3.25759e-06
1.3808e-06
-3.20035e-06
1.31285e-06
-3.12337e-06
1.23549e-06
-3.0352e-06
1.14974e-06
-2.94449e-06
1.05928e-06
-2.85797e-06
9.70642e-07
-2.77832e-06
8.9246e-07
-2.70264e-06
8.33414e-07
-2.62319e-06
7.989e-07
-2.53099e-06
7.87784e-07
7.92036e-07
-2.42027e-06
-7.09967e-07
1.99457e-06
-1.27113e-06
2.03153e-06
-1.72438e-06
2.02257e-06
-2.09077e-06
1.98158e-06
-2.38459e-06
1.92982e-06
-2.61649e-06
1.87179e-06
-2.79517e-06
1.80854e-06
-2.92772e-06
1.74054e-06
-3.01964e-06
1.66839e-06
-3.07501e-06
1.59276e-06
-3.0971e-06
1.51402e-06
-3.0891e-06
1.43206e-06
-3.0548e-06
1.34649e-06
-2.99896e-06
1.25699e-06
-2.92739e-06
1.16387e-06
-2.84644e-06
1.06873e-06
-2.76203e-06
9.74789e-07
-2.67838e-06
8.86884e-07
-2.59675e-06
8.10715e-07
-2.51487e-06
7.51407e-07
-2.42762e-06
7.11514e-07
-2.32929e-06
6.89326e-07
6.7885e-07
-2.21624e-06
-6.86435e-07
2.68111e-06
-1.22377e-06
2.56901e-06
-1.6521e-06
2.45101e-06
-1.99588e-06
2.32545e-06
-2.26939e-06
2.2034e-06
-2.48288e-06
2.08535e-06
-2.64467e-06
1.97039e-06
-2.76164e-06
1.85758e-06
-2.83945e-06
1.74627e-06
-2.88275e-06
1.63613e-06
-2.89554e-06
1.52687e-06
-2.88165e-06
1.41822e-06
-2.8451e-06
1.30998e-06
-2.79034e-06
1.20224e-06
-2.72214e-06
1.09568e-06
-2.6453e-06
9.91876e-07
-2.56395e-06
8.93407e-07
-2.48077e-06
8.03671e-07
-2.39638e-06
7.26283e-07
-2.3091e-06
6.64089e-07
-2.2156e-06
6.17978e-07
-2.11231e-06
5.85998e-07
5.63513e-07
-1.99699e-06
-6.49011e-07
3.33022e-06
-1.15557e-06
3.07567e-06
-1.55425e-06
2.84975e-06
-1.8728e-06
2.64405e-06
-2.12475e-06
2.4554e-06
-2.31987e-06
2.28052e-06
-2.46597e-06
2.11654e-06
-2.56959e-06
1.96126e-06
-2.63627e-06
1.81302e-06
-2.67076e-06
1.67069e-06
-2.67728e-06
1.53347e-06
-2.65981e-06
1.40082e-06
-2.62227e-06
1.27251e-06
-2.56865e-06
1.14867e-06
-2.50289e-06
1.02997e-06
-2.42867e-06
9.17698e-07
-2.34895e-06
8.13721e-07
-2.26552e-06
7.20285e-07
-2.17873e-06
6.39528e-07
-2.08742e-06
5.72819e-07
-1.98945e-06
5.20055e-07
-1.88261e-06
4.79218e-07
4.46595e-07
-1.76562e-06
-5.98178e-07
3.92846e-06
-1.06528e-06
3.54281e-06
-1.43209e-06
3.21658e-06
-1.7235e-06
2.93549e-06
-1.95286e-06
2.68479e-06
-2.1295e-06
2.45718e-06
-2.2607e-06
2.24778e-06
-2.35253e-06
2.05313e-06
-2.41017e-06
1.87072e-06
-2.43817e-06
1.69876e-06
-2.44062e-06
1.53599e-06
-2.42132e-06
1.38159e-06
-2.38389e-06
1.23515e-06
-2.33181e-06
1.09667e-06
-2.26835e-06
9.66591e-07
-2.19636e-06
8.45791e-07
-2.11805e-06
7.35488e-07
-2.03469e-06
6.37012e-07
-1.94652e-06
5.5145e-07
-1.85281e-06
4.79199e-07
-1.75221e-06
4.19561e-07
-1.64341e-06
3.70525e-07
3.29011e-07
-1.52571e-06
-5.39508e-07
4.46799e-06
-9.59369e-07
3.96266e-06
-1.29001e-06
3.54722e-06
-1.55168e-06
3.19715e-06
-1.75709e-06
2.89021e-06
-1.91492e-06
2.61502e-06
-2.03173e-06
2.36461e-06
-2.11289e-06
2.13433e-06
-2.16303e-06
1.92091e-06
-2.18626e-06
1.72204e-06
-2.1863e-06
1.53608e-06
-2.16657e-06
1.36193e-06
-2.13028e-06
1.19894e-06
-2.08041e-06
1.04688e-06
-2.01964e-06
9.05901e-07
-1.95022e-06
7.76457e-07
-1.87383e-06
6.5919e-07
-1.79144e-06
5.54724e-07
-1.70327e-06
4.63391e-07
-1.60891e-06
3.84942e-07
-1.50754e-06
3.18308e-07
-1.39842e-06
2.61516e-07
2.11925e-07
-1.28121e-06
-4.75867e-07
4.94385e-06
-8.4389e-07
4.33066e-06
-1.13297e-06
3.83628e-06
-1.36153e-06
3.42571e-06
-1.54133e-06
3.07001e-06
-1.67991e-06
2.75361e-06
-1.7827e-06
2.46741e-06
-1.85409e-06
2.20574e-06
-1.89796e-06
1.96481e-06
-1.91779e-06
1.7419e-06
-1.91676e-06
1.5351e-06
-1.89783e-06
1.34306e-06
-1.86372e-06
1.16489e-06
-1.8169e-06
1.00013e-06
-1.75955e-06
8.48616e-07
-1.69344e-06
7.1043e-07
-1.6199e-06
5.85735e-07
-1.5397e-06
4.74613e-07
-1.45308e-06
3.76858e-07
-1.35982e-06
2.9178e-07
-1.25949e-06
2.18075e-07
-1.15169e-06
1.53813e-07
9.66544e-08
-1.03632e-06
-4.09394e-07
5.35322e-06
-7.21625e-07
4.64286e-06
-9.64518e-07
4.07915e-06
-1.15669e-06
3.61786e-06
-1.30943e-06
3.22274e-06
-1.42855e-06
2.87272e-06
-1.51778e-06
2.55664e-06
-1.58027e-06
2.26824e-06
-1.61894e-06
2.00349e-06
-1.63653e-06
1.75952e-06
-1.63563e-06
1.53423e-06
-1.61863e-06
1.32609e-06
-1.58772e-06
1.13402e-06
-1.5449e-06
9.57351e-07
-1.49189e-06
7.95654e-07
-1.43009e-06
6.48688e-07
-1.36055e-06
5.1625e-07
-1.28389e-06
3.98017e-07
-1.20036e-06
2.934e-07
-1.10992e-06
2.01405e-07
-1.01236e-06
1.20576e-07
-9.07497e-07
4.90175e-08
-1.54038e-08
-7.95374e-07
-3.41771e-07
5.69497e-06
-5.94951e-07
4.89602e-06
-7.87219e-07
4.27141e-06
-9.40146e-07
3.77078e-06
-1.0651e-06
3.34769e-06
-1.16509e-06
2.97271e-06
-1.24149e-06
2.63304e-06
-1.29599e-06
2.32274e-06
-1.33049e-06
2.03799e-06
-1.34695e-06
1.77599e-06
-1.34727e-06
1.53456e-06
-1.33327e-06
1.3121e-06
-1.3066e-06
1.10738e-06
-1.26879e-06
9.19563e-07
-1.22115e-06
7.48036e-07
-1.16475e-06
5.92322e-07
-1.10041e-06
4.51946e-07
-1.02866e-06
3.26302e-07
-9.49752e-07
2.1453e-07
-8.63739e-07
1.1543e-07
-7.70563e-07
2.74379e-08
-6.7019e-07
-5.13192e-08
-1.22834e-07
-5.62724e-07
-2.73411e-07
5.96837e-06
-4.65252e-07
5.08786e-06
-6.02377e-07
4.40853e-06
-7.14329e-07
3.88273e-06
-8.12309e-07
3.44567e-06
-8.94145e-07
3.05455e-06
-9.58687e-07
2.69758e-06
-1.00615e-06
2.3702e-06
-1.03748e-06
2.06932e-06
-1.05383e-06
1.79235e-06
-1.05644e-06
1.53718e-06
-1.0465e-06
1.30215e-06
-1.02512e-06
1.08601e-06
-9.93352e-07
8.87806e-07
-9.52132e-07
7.06827e-07
-9.02248e-07
5.42451e-07
-8.44322e-07
3.94035e-07
-7.78793e-07
2.60788e-07
-7.05921e-07
1.41674e-07
-6.25825e-07
3.53496e-08
-5.38543e-07
-5.98285e-08
-4.44122e-07
-1.45725e-07
-2.24253e-07
-3.42688e-07
-1.95546e-07
6.16391e-06
-3.23545e-07
5.21588e-06
-4.10034e-07
4.49504e-06
-4.83501e-07
3.95621e-06
-5.5595e-07
3.51813e-06
-6.20853e-07
3.11946e-06
-6.74391e-07
2.75112e-06
-7.15696e-07
2.41151e-06
-7.44815e-07
2.09844e-06
-7.62114e-07
1.80965e-06
-7.68082e-07
1.54315e-06
-7.6326e-07
1.29733e-06
-7.48221e-07
1.07097e-06
-7.23545e-07
8.6313e-07
-6.89799e-07
6.73081e-07
-6.4751e-07
5.00163e-07
-5.97135e-07
3.43662e-07
-5.39042e-07
2.02697e-07
-4.73495e-07
7.61283e-08
-4.00661e-07
-3.74819e-08
-3.20645e-07
-1.39842e-07
-2.33531e-07
-2.32837e-07
-3.18346e-07
-1.39436e-07
-9.25154e-08
6.25644e-06
-1.59328e-07
5.28273e-06
-2.0738e-07
4.54311e-06
-2.52449e-07
4.0013e-06
-3.01307e-07
3.567e-06
-3.50015e-07
3.16818e-06
-3.93184e-07
2.7943e-06
-4.29199e-07
2.44753e-06
-4.57169e-07
2.12641e-06
-4.76556e-07
1.82904e-06
-4.8704e-07
1.55363e-06
-4.88475e-07
1.29877e-06
-4.80859e-07
1.06335e-06
-4.64314e-07
8.46583e-07
-4.39059e-07
6.47823e-07
-4.05379e-07
4.6648e-07
-3.63594e-07
3.01873e-07
-3.14017e-07
1.53115e-07
-2.56927e-07
1.90327e-08
-1.92541e-07
-1.01874e-07
-1.2101e-07
-2.1138e-07
-4.24313e-08
-3.11423e-07
-4.03897e-07
4.31126e-08
3.59341e-08
6.22052e-06
2.34192e-08
5.29528e-06
5.50234e-09
4.56106e-06
-1.98238e-08
4.02666e-06
-5.02557e-08
3.59746e-06
-8.39771e-08
3.20192e-06
-1.18111e-07
2.82845e-06
-1.50311e-07
2.47974e-06
-1.78646e-07
2.15476e-06
-2.01581e-07
1.85198e-06
-2.1794e-07
1.57e-06
-2.26869e-07
1.3077e-06
-2.27803e-07
1.06429e-06
-2.20424e-07
8.39201e-07
-2.04626e-07
6.32022e-07
-1.80482e-07
4.42331e-07
-1.48197e-07
2.69581e-07
-1.08058e-07
1.12968e-07
-6.03804e-08
-2.86554e-08
-5.44526e-09
-1.5682e-07
5.65519e-08
-2.73389e-07
1.25516e-07
-3.804e-07
-4.79818e-07
2.01423e-07
1.6588e-07
6.05467e-06
2.14471e-07
5.24674e-06
2.25279e-07
4.55029e-06
2.15981e-07
4.03599e-06
1.99801e-07
3.61367e-06
1.77507e-07
3.22424e-06
1.4926e-07
2.85672e-06
1.18161e-07
2.51086e-06
8.71645e-08
2.18577e-06
5.87579e-08
1.8804e-06
3.49146e-08
1.59385e-06
1.71318e-08
1.32549e-06
6.48676e-09
1.07493e-06
3.69e-09
8.41997e-07
9.13157e-09
6.26576e-07
2.29236e-08
4.28532e-07
4.49457e-08
2.47549e-07
7.49046e-08
8.29972e-08
1.12414e-07
-6.61789e-08
1.57098e-07
-2.01521e-07
2.08703e-07
-3.25012e-07
2.67147e-07
-4.38864e-07
-5.45184e-07
3.3249e-07
2.8361e-07
5.77109e-06
4.02275e-07
5.12813e-06
4.45531e-07
4.50708e-06
4.5516e-07
4.0264e-06
4.51187e-07
3.61767e-06
4.34563e-07
3.24089e-06
4.07317e-07
2.884e-06
3.7345e-07
2.54475e-06
3.36809e-07
2.22243e-06
3.00641e-07
1.91658e-06
2.67538e-07
1.62696e-06
2.39498e-07
1.35353e-06
2.18003e-07
1.09643e-06
2.04083e-07
8.55915e-07
1.98365e-07
6.32288e-07
2.01116e-07
4.25773e-07
2.12273e-07
2.36379e-07
2.31508e-07
6.37465e-08
2.58315e-07
-9.30046e-08
2.9217e-07
-2.35398e-07
3.32732e-07
-3.65598e-07
3.79946e-07
-4.86104e-07
-5.99255e-07
4.33988e-07
3.90678e-07
5.38044e-06
5.80217e-07
4.93864e-06
6.66227e-07
4.42111e-06
6.98696e-07
3.99397e-06
7.01758e-07
3.61465e-06
6.84565e-07
3.25812e-06
6.52882e-07
2.91571e-06
6.12024e-07
2.58564e-06
5.66599e-07
2.26788e-06
5.20368e-07
1.96283e-06
4.76306e-07
1.67104e-06
4.36723e-07
1.39312e-06
4.03367e-07
1.12979e-06
3.77499e-07
8.8178e-07
3.59939e-07
6.49839e-07
3.51089e-07
4.3461e-07
3.50943e-07
2.36508e-07
3.59114e-07
5.55553e-08
3.74922e-07
-1.08836e-07
3.9761e-07
-2.58113e-07
4.26701e-07
-3.94718e-07
4.62188e-07
-5.21624e-07
-6.41513e-07
5.04412e-07
5.06854e-07
4.87361e-06
7.67586e-07
4.67797e-06
8.9335e-07
4.2954e-06
9.41591e-07
3.94578e-06
9.45513e-07
3.61077e-06
9.22056e-07
3.28162e-06
8.81068e-07
2.95673e-06
8.29507e-07
2.63723e-06
7.72624e-07
2.32478e-06
7.14454e-07
2.02102e-06
6.58115e-07
1.72739e-06
6.06025e-07
1.44522e-06
5.60051e-07
1.17576e-06
5.21599e-07
9.20226e-07
4.9165e-07
6.79777e-07
4.70757e-07
4.55487e-07
4.59002e-07
2.48242e-07
4.55957e-07
5.85761e-08
4.60712e-07
-1.1362e-07
4.72142e-07
-2.69573e-07
4.89552e-07
-4.12162e-07
5.13036e-07
-5.45143e-07
-6.71691e-07
5.43175e-07
6.50498e-07
4.22315e-06
9.80648e-07
4.34789e-06
1.13058e-06
4.14552e-06
1.18109e-06
3.89532e-06
1.17679e-06
3.61512e-06
1.14091e-06
3.31753e-06
1.08638e-06
3.0113e-06
1.02128e-06
2.70235e-06
9.51144e-07
2.39494e-06
8.79946e-07
2.09223e-06
8.10671e-07
1.79667e-06
7.45631e-07
1.51026e-06
6.86661e-07
1.23473e-06
6.35232e-07
9.71647e-07
5.92477e-07
7.22517e-07
5.59157e-07
4.88789e-07
5.35542e-07
2.71834e-07
5.21254e-07
7.28376e-08
5.15125e-07
-1.07521e-07
5.15436e-07
-2.69917e-07
5.21146e-07
-4.17906e-07
5.32563e-07
-5.56597e-07
-6.89801e-07
5.50636e-07
8.3664e-07
3.38655e-06
1.22827e-06
3.95632e-06
1.37844e-06
3.99541e-06
1.41255e-06
3.86125e-06
1.3889e-06
3.63881e-06
1.33446e-06
3.37201e-06
1.26313e-06
3.08267e-06
1.18295e-06
2.78256e-06
1.09902e-06
2.47889e-06
1.0148e-06
2.17646e-06
9.3283e-07
1.87865e-06
8.55084e-07
1.58801e-06
7.83226e-07
1.30658e-06
7.18716e-07
1.03615e-06
6.62841e-07
7.78377e-07
6.16662e-07
5.34949e-07
5.80828e-07
3.07644e-07
5.55241e-07
9.83979e-08
5.38548e-07
-9.08575e-08
5.28063e-07
-2.59464e-07
5.2218e-07
-4.12057e-07
5.21679e-07
-5.5613e-07
-6.9621e-07
5.28052e-07
1.07653e-06
2.31005e-06
1.51047e-06
3.52244e-06
1.62766e-06
3.87827e-06
1.62506e-06
3.86391e-06
1.57205e-06
3.69186e-06
1.49485e-06
3.44926e-06
1.40557e-06
3.17198e-06
1.31073e-06
2.87743e-06