/*--------------------------------*- C++ -*----------------------------------*\
  =========                 |
  \\      /  F ield         | OpenFOAM: The Open Source CFD Toolbox
   \\    /   O peration     | Website:  https://openfoam.org
    \\  /    A nd           | Version:  9
     \\/     M anipulation  |
\*---------------------------------------------------------------------------*/
FoamFile
{
    format      ascii;
    class       volScalarField;
    location    "1";
    object      p;
}
// * * * * * * * * * * * * * * * * * * * * * * * * * * * * * * * * * * * * * //

dimensions      [0 2 -2 0 0 0 0];

internalField   nonuniform List<scalar> 
918
(
36.445
31.3274
1.58474
35.7459
0.952142
30.8478
10.1509
21.9652
32.1155
7.48683
5.19362
25.4435
28.373
24.5431
20.8337
1.93607
23.4531
7.3815
31.3434
1.98437
20.6602
33.4033
34.4439
32.1367
24.3631
21.7458
26.3065
1.19096
0.204338
0.683184
0.839624
0.505089
0.734388
29.3915
30.056
29.9913
28.172
16.9442
11.0641
11.5331
9.91014
9.25356
22.0566
22.2451
14.682
21.795
21.6635
29.9488
31.9679
32.1096
32.5205
32.2019
32.6244
9.79938
7.67123
7.8131
7.46844
7.36652
5.90129
5.55868
5.89925
4.98969
4.70854
25.4665
25.7365
26.0413
25.2758
25.0983
30.2005
29.4465
29.7799
28.8718
29.0268
27.9441
27.5533
24.9292
25.2899
24.136
23.743
20.5315
20.3574
21.1596
21.3255
0.212059
2.32838
2.71167
23.5324
23.6798
23.2727
23.1471
13.2943
7.75546
7.90646
30.9507
30.6507
33.311
33.606
33.0495
32.8729
2.43316
2.84718
1.09903
1.80022
1.45888
20.9616
21.1729
32.0209
31.3933
24.8192
24.4463
24.6086
21.9416
24.2127
24.1325
22.9716
23.4051
22.5149
23.0083
25.8639
25.4346
26.752
27.2006
0.560394
0.232326
1.68957
1.06201
1.4197
27.8125
27.4269
28.2517
28.4222
28.7435
16.9847
16.8916
16.9821
16.9034
12.3411
12.6403
8.34717
9.01906
8.48441
15.8755
22.3841
22.5649
13.3505
14.4045
13.6731
15.5441
16.065
29.0118
29.5967
29.2125
30.8057
30.2059
30.4564
32.6483
32.1393
32.4454
10.3302
10.8461
9.48263
9.06988
7.63871
7.77788
7.66155
7.14889
6.94839
6.33312
6.75933
5.66066
5.39932
6.70675
6.16749
6.45992
4.3998
4.10579
25.2323
24.9474
25.8798
26.2851
27.0956
26.7996
26.2722
26.5425
26.7412
27.151
27.1775
26.7878
18.4821
16.2237
21.6022
21.794
0.411756
0.383943
0.208205
0.678403
0.445706
0.243373
3.95487
3.62817
3.00871
3.33853
23.764
23.8646
13.5275
13.7799
12.9756
12.6303
29.3889
29.6317
30.2418
29.8448
3.77986
3.15393
3.47496
21.5025
21.2388
21.4226
21.3617
20.5979
22.6273
23.2808
23.9375
24.0832
24.0135
23.3261
23.6466
27.5601
27.8347
27.6543
28.0553
29.1219
28.7732
28.3832
26.5644
27.1955
26.9196
29.0809
28.5095
28.815
27.3598
27.9091
27.5654
16.8671
16.8693
16.4649
16.6076
16.8176
16.7063
15.7201
15.5605
22.9887
22.682
22.8781
16.8387
17.3321
8.63201
8.24946
23.6756
24.4589
23.9742
26.3596
25.6665
26.4122
26.0351
25.5753
25.9073
16.8531
16.6367
16.7844
22.5834
21.9991
22.3063
4.90539
4.24482
4.45252
14.0502
14.3014
11.3009
12.2304
11.834
23.9504
24.2985
24.9943
24.0878
24.5617
25.0838
24.8568
16.0654
16.3496
16.1954
15.3892
15.176
19.7427
18.1676
18.6317
7.06853
7.81344
7.4083
14.5289
14.9808
14.7734
31.5513
32.0604
0.971485
1.43068
32.3896
32.1959
0.563064
0.911858
21.9069
19.9601
16.6904
30.2584
29.6123
31.8361
7.97845
10.0229
5.5352
6.27012
4.88794
25.6986
25.8522
24.4565
0.833907
2.33509
2.45412
8.75305
31.3956
30.7919
31.7463
32.101
32.091
1.0584
1.10798
0.811405
2.17245
1.4692
1.84852
27.8248
27.8695
12.082
31.715
31.9948
32.0126
30.6328
31.5006
30.778
2.04401
1.37118
1.71378
20.2724
22.7571
21.8181
21.2564
21.6462
21.6553
21.4587
22.5162
22.2245
22.1391
22.5959
22.2689
21.7307
17.0436
15.332
17.7429
17.6518
30.0067
29.7322
29.3611
29.1265
30.8601
30.479
31.2877
30.7496
31.2121
31.4615
7.9958
7.7101
8.25267
8.0999
10.2837
11.0277
9.54799
9.43416
7.71274
5.26923
5.06692
5.77285
6.08736
6.16259
5.1803
5.91935
5.61069
4.62312
4.35636
5.81237
5.38187
5.72605
25.8913
26.1667
25.4051
25.3078
26.1288
26.4975
24.8198
25.6216
25.2451
23.2028
24.2032
23.704
1.0104
1.10132
0.839427
2.62462
2.95929
1.88184
1.52538
2.05363
1.7063
1.49659
2.66344
3.01128
9.55388
9.15399
13.8915
12.7223
12.2015
29.8225
30.5547
30.0556
30.8248
31.3311
31.4622
31.1412
30.6492
28.119
28.45
27.6027
27.4094
12.5389
10.9768
12.9817
12.9515
17.059
23.8674
22.5151
21.0776
21.6036
23.4405
21.3401
21.184
21.4519
20.7523
20.3001
21.3432
20.7547
20.8109
20.3327
23.3528
23.8262
23.4341
22.8443
22.8682
17.151
19.0719
14.134
14.1538
15.8177
15.422
21.0626
22.3085
22.5255
21.4362
21.5061
21.9661
21.4568
21.6825
21.7735
21.905
19.748
20.2372
18.9413
18.95
23.1663
20.3581
20.8288
21.1932
28.8426
29.4998
29.1514
28.0874
28.8193
28.3817
28.1071
28.2915
30.0356
29.8606
29.4851
29.862
7.57437
7.30715
8.81963
9.29518
8.74833
8.46982
8.96378
9.83141
9.26814
11.7707
12.147
9.95503
9.7095
9.52105
10.5874
10.7887
11.114
7.92017
8.03904
8.7287
8.23224
8.97927
8.56801
5.87113
6.16923
6.47874
6.04122
6.52924
7.32305
6.95578
4.98025
5.31545
4.76108
4.44201
7.04025
6.77618
6.61886
7.46553
2.51261
2.759
3.08551
4.47479
4.08996
4.45528
27.1239
26.5047
26.8212
24.7914
25.0647
24.8949
24.278
27.5756
26.9571
27.2791
25.0869
25.4866
24.8675
25.1459
25.7357
25.9911
27.7395
27.4817
25.8969
26.3065
25.7665
25.624
24.4444
24.1771
23.7053
2.13623
1.52848
1.85443
1.91932
1.42618
1.61654
4.07864
3.36621
3.84519
3.37941
3.6951
2.35359
2.32551
10.6618
11.1303
11.1914
10.1822
9.94007
13.9914
14.3472
12.9101
12.7108
13.1102
13.4541
13.3523
11.4415
12.1984
12.017
15.9671
15.2724
30.3327
30.3928
30.0766
29.8426
29.9949
13.3902
14.7116
14.6658
15.4934
16.7859
17.0873
15.4635
14.6424
15.2349
15.4889
23.6342
23.7035
23.6744
23.8626
24.0508
21.8798
22.1084
22.4665
22.6833
23.3771
23.2909
22.6827
22.973
23.1961
22.7857
22.5391
22.8
22.618
22.2885
22.2309
25.2105
25.1168
25.39
24.6861
24.9529
23.759
24.2261
24.5853
24.4608
23.8711
23.3006
23.1511
23.4855
23.7042
24.1132
24.1637
15.9318
16.334
16.8779
17.4202
17.0724
16.9579
16.7624
17.0599
17.1913
17.4532
17.2713
16.9486
18.4997
20.9415
21.0673
21.3296
21.3342
21.1298
20.9007
21.1656
21.1966
22.8716
22.6752
22.8906
20.8307
21.125
21.0379
21.1312
18.9658
18.2324
17.7509
17.9347
16.5849
16.7677
19.346
18.4876
17.8445
18.1522
21.7429
20.6497
21.4003
21.219
20.2694
20.1825
21.6641
22.5151
22.6869
22.3407
20.7051
20.5374
20.969
21.2569
21.2594
21.6675
28.6776
29.1122
29.2871
29.0937
28.7064
28.8232
28.5725
28.8528
29.2663
29.4868
29.289
6.44469
6.64371
7.06326
6.72805
7.93897
8.08982
8.81797
8.69561
7.16661
7.49955
7.68118
7.49709
7.17321
7.02828
8.92225
9.3466
9.58487
9.30435
11.082
11.2442
11.8224
11.7162
10.5282
10.3107
10.5598
7.02902
6.75242
6.61979
7.17114
7.36858
5.15783
4.76118
4.5831
5.18375
5.49186
4.17411
3.41638
3.63994
4.01741
4.11777
3.7683
27.3271
26.8954
26.5204
26.2729
26.4304
26.9631
27.3849
26.9965
27.2034
27.0065
26.6041
26.4099
26.6352
3.25937
2.83342
2.89477
3.38025
3.04639
2.67508
2.87921
13.2857
12.1203
12.3824
12.1264
11.1034
11.2854
15.8683
15.9959
16.2122
15.363
15.1745
15.4163
15.6303
15.601
13.8144
14.8162
14.509
14.5682
14.8869
14.8725
14.5829
16.1933
17.5195
17.7491
16.2954
16.9022
17.08
15.9448
16.3714
16.5579
17.3465
16.7148
16.7199
16.3065
16.0346
16.5401
16.3325
16.8155
16.8078
15.0281
15.3129
14.9045
23.1234
23.4019
23.4392
23.0022
23.2312
24.2235
23.8999
23.9588
24.1185
24.0836
17.7952
17.8751
18.1979
19.2154
19.4944
18.7982
18.1627
20.1328
19.7996
20.6452
20.6783
20.7193
20.479
20.0877
20.438
18.9905
20.1153
19.601
20.1582
19.2779
18.5694
21.6128
21.8068
21.7519
22.0498
22.2021
22.4263
28.3356
28.1573
28.3328
28.1339
27.6346
27.6418
8.16925
7.90736
8.73233
8.87416
8.54075
8.15495
4.13273
4.03266
3.69454
3.50935
3.62493
3.9899
14.4402
14.1491
12.642
13.3296
13.1214
11.9579
12.0282
12.6282
13.6677
14.0145
13.8302
14.2856
14.1946
13.8199
13.1793
13.3959
16.3637
16.6432
16.5131
16.5393
16.2175
18.5808
18.1069
18.5911
20.3303
19.9227
19.2361
19.0732
19.4537
20.0372
19.3871
18.936
19.544
19.9255
20.028
17.8456
17.499
18.1301
18.021
16.799
17.3243
16.9984
17.4508
17.1385
)
;

boundaryField
{
    wall-4
    {
        type            zeroGradient;
    }
    velocity-inlet-5
    {
        type            zeroGradient;
    }
    velocity-inlet-6
    {
        type            zeroGradient;
    }
    pressure-outlet-7
    {
        type            fixedValue;
        value           uniform 0;
    }
    wall-8
    {
        type            zeroGradient;
    }
    frontAndBackPlanes
    {
        type            empty;
    }
}


// ************************************************************************* //
