/*--------------------------------*- C++ -*----------------------------------*\
  =========                 |
  \\      /  F ield         | OpenFOAM: The Open Source CFD Toolbox
   \\    /   O peration     | Website:  https://openfoam.org
    \\  /    A nd           | Version:  9
     \\/     M anipulation  |
\*---------------------------------------------------------------------------*/
FoamFile
{
    format      ascii;
    class       volScalarField;
    location    "10.55";
    object      p;
}
// * * * * * * * * * * * * * * * * * * * * * * * * * * * * * * * * * * * * * //

dimensions      [0 2 -2 0 0 0 0];

internalField   nonuniform List<scalar> 
918
(
23.4589
23.7027
1.00797
22.8754
0.998811
23.2191
3.41317
13.8825
19.2317
2.99437
2.68932
14.3981
20.7621
17.0035
13.1251
0.93027
14.1095
2.32475
18.4486
1.41718
13.1203
20.4376
21.5263
19.274
14.1286
14.4894
18.7244
1.22264
0.11626
0.296152
0.963828
0.416939
0.164368
21.756
22.4327
22.371
15.4861
10.4755
3.73974
3.94519
3.12245
2.93367
13.9211
14.0188
5.98793
13.8659
13.8643
16.6341
19.0997
19.2432
19.5369
19.3257
19.7121
5.95839
2.85572
2.67519
2.95094
3.01874
2.99062
2.7674
2.74684
2.55515
2.41062
13.8827
14.4711
14.5251
14.2597
14.2091
22.5787
21.8218
22.1565
21.2629
21.4083
20.3382
19.9526
17.3791
17.7316
16.6053
16.2243
12.9126
12.8696
13.3489
13.5952
0.150055
1.07712
1.22455
14.1124
14.1425
14.1588
14.1768
8.31111
2.28379
2.2893
17.889
17.4654
20.4707
20.7378
20.1848
19.9993
1.56556
1.57446
1.18923
1.2132
0.981349
13.4498
13.6016
19.2254
18.3924
14.1518
14.0585
14.1283
11.51
13.9204
13.9985
15.449
15.9034
15.0904
15.5288
18.2944
17.8764
19.161
19.5982
0.41973
0.16459
0.698038
0.331483
0.527001
15.3545
15.1497
15.5986
15.6526
15.8838
10.4778
10.4012
10.4565
10.3759
4.29136
4.6036
2.36517
2.69461
2.53306
9.93737
14.0323
14.0734
4.94768
5.64166
5.31161
6.45472
6.8238
16.0002
16.4365
16.1754
17.7212
16.9263
17.2744
19.8023
19.2917
19.5921
6.35232
6.59895
5.59493
5.24233
2.32159
2.55943
2.50086
3.04981
3.02843
3.22072
3.35695
2.70823
2.56313
2.96264
2.84422
2.89684
2.24013
2.10568
13.6075
13.3942
14.1444
14.3228
15.0838
14.9359
14.6429
14.8112
19.1477
19.5512
19.5847
19.2005
11.6416
10.2027
13.8511
14.1244
0.309384
0.266722
0.136551
0.378316
0.397816
0.148966
2.01701
1.82574
1.40607
1.67905
14.1005
14.0544
8.55451
8.78023
8.14275
7.8829
16.3025
16.453
17.0873
16.687
2.02393
1.73112
1.86396
13.7573
13.6328
13.7397
10.9501
10.3939
11.9821
12.2497
14.0259
14.0573
14.0584
15.8082
16.1265
19.9491
20.2197
20.0466
20.4324
21.4952
21.1465
20.7617
14.532
14.9395
14.7786
16.1161
15.7497
15.9691
15.1766
15.4816
15.339
10.4304
10.4752
10.1941
10.2718
10.32
10.2672
9.87059
9.7418
14.1475
14.1112
14.1304
7.33855
7.82726
4.86583
4.54068
12.5436
13.2137
12.8915
18.7775
18.0998
18.8328
18.4619
18.0119
18.3354
10.4845
10.4405
10.4764
15.0451
14.3853
14.7358
2.44342
2.07974
2.24755
8.97924
9.07457
6.97009
7.59749
7.25907
16.428
16.7684
17.4485
16.5603
17.0279
17.5352
17.3133
10.0132
10.1482
10.0637
9.72393
9.61414
9.76916
8.39664
8.99939
3.6205
4.26755
3.96871
9.24509
9.48523
9.32912
18.6199
19.1547
0.796584
1.21719
19.5839
19.3075
0.146389
0.246119
14.3808
12.6608
7.35495
17.1856
16.6205
18.959
3.2351
6.10578
2.85745
3.39765
2.70092
14.6016
14.2457
13.3413
0.469403
1.25305
1.73424
2.96272
18.4004
17.7253
18.8409
19.1612
19.2154
0.696851
0.941852
0.589126
1.29351
1.06592
1.30483
15.543
15.6362
4.44608
18.8477
19.1518
19.1696
17.6458
18.5987
17.6561
0.932627
0.638892
0.715027
10.1122
12.1361
14.3419
13.8933
14.0916
14.1139
13.8652
14.9972
14.6698
14.6318
15.115
14.0478
13.9174
7.79985
6.48257
8.14159
7.78567
17.0871
16.6748
16.4839
16.2299
18.0742
17.6001
18.4506
17.8387
18.3005
18.5874
3.01252
3.18898
3.06715
2.58836
6.14951
6.61561
5.49479
5.62956
4.26718
2.50785
2.59019
2.79752
2.6473
2.96471
2.70497
2.96382
2.60017
2.33655
2.3327
2.95527
2.76847
2.63503
14.5789
14.5189
14.32
14.3591
14.3492
14.4632
13.5341
13.9351
13.5628
12.4079
12.9789
12.5067
0.818189
0.657552
0.53321
1.32952
1.36005
1.1323
0.861765
1.2123
1.20894
0.86181
1.56076
1.5017
3.23014
2.73689
8.88241
7.99727
6.91397
16.791
17.5924
16.7622
18.0021
18.4191
18.5247
18.1452
17.637
15.7166
15.7121
15.3722
15.3249
4.86037
3.84456
5.06289
4.65279
10.5529
14.0948
11.8543
10.8253
11.1138
13.4181
14.0583
13.7041
13.8633
13.4206
12.9377
13.6464
13.1706
13.2733
13.0381
15.8447
16.3197
15.9262
15.3466
15.3668
10.6613
12.0465
5.5798
5.7335
7.29994
6.61226
13.6245
14.0063
13.9884
13.6515
13.8488
13.8278
13.6807
13.8462
13.9483
13.8418
11.8333
10.1696
9.08879
9.08632
14.1337
12.3716
12.9681
12.4199
16.1079
16.6251
16.2394
15.6377
16.122
15.5941
15.6188
15.8299
17.1906
16.9398
16.7101
17.097
3.12223
3.06638
3.70153
3.20308
3.10269
2.88366
3.54083
4.79145
4.45434
6.73812
7.27416
4.61961
3.46519
3.84918
4.84909
5.56095
5.55064
3.99811
4.51003
4.93691
4.45697
5.22448
4.73421
2.76282
3.06454
2.9102
2.88605
3.40602
3.89259
3.39729
2.51883
2.64128
2.32747
2.19103
3.56798
3.05967
3.09738
3.7143
1.12708
1.34028
1.4574
2.44261
1.93041
1.99116
15.1698
14.8131
14.947
14.227
14.2976
14.2409
13.8627
15.2318
14.955
15.0537
13.7049
13.7911
13.6052
13.899
14.3072
14.6068
15.441
15.1609
14.4015
14.5544
14.2065
14.1338
13.4607
12.8968
12.8385
1.11231
0.821361
0.991439
0.928013
0.614968
0.808928
2.18825
1.5815
1.98794
1.72616
1.96004
1.45136
1.32687
4.30992
5.10068
4.04525
3.45001
3.1654
8.93972
9.0548
8.18546
7.88081
8.22387
8.45958
8.40791
7.14148
7.57843
7.38783
9.9909
9.6468
17.5763
17.5205
17.192
17.0329
17.2591
5.83544
7.68485
6.86632
7.97605
10.2725
10.5815
9.33908
8.74042
9.50686
9.56743
14.0789
14.1606
13.5875
14.0696
14.0951
11.8434
12.8911
13.5052
13.3047
13.839
13.9276
13.0093
13.585
13.4721
12.7482
12.8132
12.1327
12.4646
11.9906
11.7981
14.0426
13.9402
14.2088
13.7606
14.1367
13.7154
14.0212
14.0273
14.3086
13.4036
12.8278
12.8548
13.2741
12.9674
13.3147
13.4741
9.31959
9.97577
10.4446
10.9894
10.7015
10.472
10.3347
10.6446
10.6279
10.893
10.8127
10.6536
11.5842
13.5397
13.8189
13.9406
13.7034
13.7426
13.4384
13.724
13.6464
13.978
14.077
14.1226
13.1872
13.3695
13.5766
13.4552
11.6962
10.0972
9.96408
9.53496
7.63042
8.10054
11.0301
9.9351
8.96496
9.03063
12.1907
10.8231
11.6327
12.0493
10.7076
10.3279
12.9928
13.8003
14.0127
13.7186
12.074
12.201
12.6535
13.1086
13.3061
13.7801
15.8511
16.4254
16.5036
16.2282
16.0896
16.1884
15.9378
16.0416
16.5158
16.642
16.4731
2.93907
3.04908
2.98812
2.91198
3.1476
2.94114
4.01011
4.00306
3.20936
3.38698
3.40707
3.50901
2.99425
3.02898
4.841
5.07145
5.34706
4.85841
6.19232
6.82876
7.40282
7.09699
5.80539
5.87576
6.18918
3.54605
3.5543
3.28256
3.73152
3.79168
2.65771
2.29428
2.09097
2.62191
2.71655
2.10352
1.82267
1.87872
2.3686
2.12023
1.8668
14.9661
14.7254
14.7461
14.5265
14.5813
14.9739
15.1942
15.0028
15.1403
15.1908
14.7923
14.6788
14.8505
1.82997
1.49743
1.65198
1.62642
1.64717
1.57603
1.75752
7.62335
6.43223
6.80902
6.01614
4.19651
4.69791
9.60789
10.0314
10.0717
9.77382
9.56118
9.92359
9.78445
9.77572
8.29115
9.37056
8.90034
9.30871
9.33916
9.40566
9.11099
9.09636
10.6057
10.6328
9.49853
10.151
9.36358
7.98602
8.1465
9.1382
10.0955
10.4705
10.3106
10.0159
9.79241
10.1848
10.229
10.3034
10.2928
8.77782
8.71769
8.30606
14.0024
13.9205
14.0693
14.0657
14.203
13.982
13.8196
14.1024
14.1598
13.9382
11.1445
11.2111
11.4602
12.2316
12.2891
12.1289
11.3806
13.1827
12.8177
13.4949
13.4314
13.4784
13.0566
12.8798
13.1733
10.1016
11.4694
10.9984
11.2679
10.0896
9.3477
13.2637
13.3086
13.3967
13.6788
13.6151
14.2088
15.8203
15.6896
15.7381
15.7814
15.3928
15.4291
4.20254
3.86705
4.57724
4.53929
4.10603
3.81048
2.30982
2.00252
1.82288
1.69487
1.90734
1.96916
8.18579
8.21147
6.35728
7.37829
5.93762
5.00332
4.86278
5.99568
7.1678
7.23761
8.53512
9.23031
8.78927
8.61484
7.9441
8.2754
10.1901
10.2819
10.1827
10.5045
10.0392
11.7925
11.3723
11.7274
13.3642
13.0573
12.447
12.3346
12.3163
12.9232
11.9673
11.1859
11.9025
12.5858
12.5421
11.1877
10.9389
11.3683
11.3342
10.2407
10.7766
10.5354
10.8828
10.5792
)
;

boundaryField
{
    wall-4
    {
        type            zeroGradient;
    }
    velocity-inlet-5
    {
        type            zeroGradient;
    }
    velocity-inlet-6
    {
        type            zeroGradient;
    }
    pressure-outlet-7
    {
        type            fixedValue;
        value           uniform 0;
    }
    wall-8
    {
        type            zeroGradient;
    }
    frontAndBackPlanes
    {
        type            empty;
    }
}


// ************************************************************************* //
