/*--------------------------------*- C++ -*----------------------------------*\
  =========                 |
  \\      /  F ield         | OpenFOAM: The Open Source CFD Toolbox
   \\    /   O peration     | Website:  https://openfoam.org
    \\  /    A nd           | Version:  9
     \\/     M anipulation  |
\*---------------------------------------------------------------------------*/
FoamFile
{
    format      ascii;
    class       surfaceScalarField;
    location    "4.98";
    object      phi;
}
// * * * * * * * * * * * * * * * * * * * * * * * * * * * * * * * * * * * * * //

dimensions      [0 3 -1 0 0 0 0];

internalField   nonuniform List<scalar> 
4432
(
2.68887e-07
-2.68887e-07
5.37251e-07
-2.68367e-07
7.82819e-07
-2.45565e-07
1.00099e-06
-2.18167e-07
1.18976e-06
-1.88775e-07
1.34796e-06
-1.58199e-07
1.47911e-06
-1.31152e-07
1.59062e-06
-1.11505e-07
1.68968e-06
-9.90684e-08
1.78097e-06
-9.1288e-08
1.87028e-06
-8.93049e-08
1.96498e-06
-9.4707e-08
2.07695e-06
-1.11972e-07
2.22375e-06
-1.46799e-07
2.42128e-06
-1.97527e-07
2.64532e-06
-2.24041e-07
2.65817e-06
-1.28549e-08
1.89994e-06
7.58227e-07
5.92081e-07
1.30786e-06
-4.92073e-07
1.08415e-06
-8.30939e-07
3.38861e-07
-4.74688e-07
-3.56255e-07
-4.7469e-07
2.6862e-07
-5.37502e-07
5.24003e-07
-5.23755e-07
7.62124e-07
-4.83682e-07
9.78043e-07
-4.34086e-07
1.16802e-06
-3.7875e-07
1.3312e-06
-3.21378e-07
1.47053e-06
-2.70484e-07
1.59122e-06
-2.32203e-07
1.69779e-06
-2.05639e-07
1.79276e-06
-1.86254e-07
1.87816e-06
-1.74706e-07
1.95797e-06
-1.74524e-07
2.03727e-06
-1.91271e-07
2.1209e-06
-2.30434e-07
2.20846e-06
-2.85091e-07
2.27173e-06
-2.87315e-07
2.1898e-06
6.90704e-08
1.69111e-06
1.25692e-06
8.46836e-07
2.15213e-06
7.52531e-08
1.85573e-06
-3.44194e-07
7.58303e-07
-3.8889e-07
-3.1156e-07
-8.63579e-07
2.69306e-07
-8.06804e-07
5.18353e-07
-7.72806e-07
7.51874e-07
-7.17202e-07
9.67437e-07
-6.49649e-07
1.16017e-06
-5.71486e-07
1.32829e-06
-4.89496e-07
1.4739e-06
-4.16092e-07
1.60096e-06
-3.59269e-07
1.71218e-06
-3.16853e-07
1.80768e-06
-2.81757e-07
1.88727e-06
-2.54303e-07
1.95184e-06
-2.391e-07
2.00175e-06
-2.41179e-07
2.03439e-06
-2.63081e-07
2.04109e-06
-2.91799e-07
1.99895e-06
-2.45177e-07
1.86502e-06
2.03001e-07
1.5227e-06
1.59924e-06
1.05955e-06
2.61527e-06
5.17006e-07
2.39827e-06
9.00978e-08
1.18521e-06
-1.37833e-07
-8.36274e-08
-1.00141e-06
2.67436e-07
-1.07424e-06
5.15343e-07
-1.02072e-06
7.49116e-07
-9.50975e-07
9.67646e-07
-8.68178e-07
1.16535e-06
-7.69195e-07
1.33946e-06
-6.636e-07
1.49137e-06
-5.68006e-07
1.62421e-06
-4.92104e-07
1.73921e-06
-4.3186e-07
1.83445e-06
-3.76997e-07
1.90763e-06
-3.27487e-07
1.9573e-06
-2.88775e-07
1.98048e-06
-2.64362e-07
1.96987e-06
-2.52474e-07
1.91271e-06
-2.34641e-07
1.79027e-06
-1.22739e-07
1.61857e-06
3.74702e-07
1.43501e-06
1.7828e-06
1.22287e-06
2.8274e-06
8.80266e-07
2.74087e-06
5.21021e-07
1.54445e-06
1.86166e-07
2.5123e-07
-8.15245e-07
2.65138e-07
-1.33937e-06
5.14863e-07
-1.27044e-06
7.52741e-07
-1.18885e-06
9.77294e-07
-1.09273e-06
1.182e-06
-9.73904e-07
1.36309e-06
-8.44688e-07
1.52154e-06
-7.2645e-07
1.65994e-06
-6.30507e-07
1.7784e-06
-5.50313e-07
1.87298e-06
-4.71579e-07
1.9396e-06
-3.94112e-07
1.97527e-06
-3.24446e-07
1.97506e-06
-2.64148e-07
1.92939e-06
-2.06804e-07
1.8251e-06
-1.30354e-07
1.65036e-06
5.19931e-08
1.44426e-06
5.80807e-07
1.39096e-06
1.83609e-06
1.33689e-06
2.88148e-06
1.19278e-06
2.88498e-06
9.27067e-07
1.81016e-06
4.91727e-07
6.8657e-07
-3.23522e-07
2.64197e-07
-1.60357e-06
5.18124e-07
-1.52437e-06
7.6301e-07
-1.43374e-06
9.96013e-07
-1.32573e-06
1.2093e-06
-1.18719e-06
1.39811e-06
-1.03349e-06
1.56321e-06
-8.9155e-07
1.70699e-06
-7.74282e-07
1.82863e-06
-6.71947e-07
1.92232e-06
-5.65276e-07
1.98257e-06
-4.54357e-07
2.00569e-06
-3.47568e-07
1.98621e-06
-2.44666e-07
1.91452e-06
-1.35116e-07
1.78052e-06
3.64886e-09
1.58324e-06
2.49273e-07
1.37562e-06
7.88424e-07
1.35865e-06
1.85306e-06
1.43554e-06
2.80459e-06
1.45136e-06
2.86915e-06
1.22842e-06
2.03311e-06
7.39005e-07
1.17598e-06
4.15478e-07
2.65344e-07
-1.86891e-06
5.26184e-07
-1.78521e-06
7.80115e-07
-1.68767e-06
1.02317e-06
-1.56878e-06
1.24599e-06
-1.41002e-06
1.44286e-06
-1.23036e-06
1.61453e-06
-1.06322e-06
1.76334e-06
-9.23094e-07
1.88775e-06
-7.96353e-07
1.98027e-06
-6.57804e-07
2.03442e-06
-5.08512e-07
2.04672e-06
-3.59863e-07
2.01234e-06
-2.10289e-07
1.92323e-06
-4.60135e-08
1.77485e-06
1.52035e-07
1.57649e-06
4.47625e-07
1.39231e-06
9.72612e-07
1.38001e-06
1.86536e-06
1.52118e-06
2.66341e-06
1.61482e-06
2.77552e-06
1.43987e-06
2.20806e-06
9.52131e-07
1.66372e-06
1.36761e-06
2.69635e-07
-2.13855e-06
5.38988e-07
-2.05457e-06
8.03246e-07
-1.95193e-06
1.05698e-06
-1.82252e-06
1.2896e-06
-1.64264e-06
1.49443e-06
-1.4352e-06
1.67233e-06
-1.24112e-06
1.82562e-06
-1.07639e-06
1.95213e-06
-9.22863e-07
2.04297e-06
-7.48648e-07
2.0912e-06
-5.56749e-07
2.09431e-06
-3.62981e-07
2.04922e-06
-1.65203e-07
1.95003e-06
5.3183e-08
1.79844e-06
3.0362e-07
1.61174e-06
6.34324e-07
1.45396e-06
1.1304e-06
1.45142e-06
1.8679e-06
1.59722e-06
2.51762e-06
1.70851e-06
2.66424e-06
1.59304e-06
2.32353e-06
1.17495e-06
2.08181e-06
2.54257e-06
-1.07819e-06
1.07819e-06
-5.80467e-07
-4.97735e-07
-6.02684e-08
-5.20194e-07
2.591e-07
-3.19372e-07
3.71476e-07
-1.12374e-07
3.47009e-07
2.44594e-08
2.64893e-07
8.21216e-08
2.78861e-07
-1.39803e-08
6.42207e-07
-3.63341e-07
1.32045e-06
-6.78247e-07
1.32875e-06
-8.29585e-09
2.71465e-07
1.05728e-06
-2.10128e-06
2.37274e-06
-3.02907e-06
9.27786e-07
-8.37995e-07
-2.19107e-06
1.58638e-06
-2.42438e-06
2.9719e-06
-1.38552e-06
2.44592e-06
5.25983e-07
2.44592e-06
-3.43763e-07
1.42196e-06
-2.31725e-07
-6.09784e-07
-7.74016e-08
-6.74512e-07
1.95142e-08
-4.16297e-07
4.11734e-08
-1.34027e-07
-4.4787e-09
7.00938e-08
-5.59573e-08
1.33609e-07
-2.18358e-08
-4.81132e-08
2.13931e-07
-5.99099e-07
5.30639e-07
-9.94961e-07
3.87541e-07
1.34805e-07
-4.11614e-07
1.85643e-06
-1.57127e-06
3.5324e-06
-1.37028e-06
7.26794e-07
-2.56382e-08
-3.53571e-06
1.45655e-06
-3.90658e-06
2.36741e-06
-2.29637e-06
2.28185e-06
6.1154e-07
4.72777e-06
3.56059e-08
1.38636e-06
-8.79799e-08
-4.86207e-07
-1.30348e-07
-6.32138e-07
-1.59468e-07
-3.87185e-07
-2.10986e-07
-8.2501e-08
-2.94943e-07
1.54039e-07
-3.69682e-07
2.08358e-07
-3.81212e-07
-3.65929e-08
-2.90313e-07
-6.89991e-07
-1.75419e-07
-1.10986e-06
-3.96875e-07
3.56262e-07
-9.2736e-07
2.38692e-06
-1.06557e-06
3.67061e-06
-4.83639e-07
1.4486e-07
3.05583e-07
-4.32493e-06
1.28293e-06
-4.88393e-06
1.84541e-06
-2.85885e-06
1.84298e-06
6.13966e-07
6.57075e-06
8.89e-08
1.29747e-06
-7.91215e-08
-3.18192e-07
-2.2611e-07
-4.85143e-07
-3.3973e-07
-2.73572e-07
-4.48356e-07
2.61327e-08
-5.68169e-07
2.73843e-07
-6.79999e-07
3.20195e-07
-7.58101e-07
4.15013e-08
-8.03446e-07
-6.44643e-07
-8.40617e-07
-1.07269e-06
-1.0056e-06
5.21245e-07
-1.18052e-06
2.56183e-06
-7.34534e-07
3.22463e-06
-7.29057e-08
-5.16771e-07
4.26683e-07
-4.82452e-06
1.06728e-06
-5.52452e-06
1.38274e-06
-3.17431e-06
1.42289e-06
5.73813e-07
7.99364e-06
3.0602e-08
1.26687e-06
-1.43359e-07
-1.4424e-07
-3.57181e-07
-2.71316e-07
-5.33377e-07
-9.7384e-08
-6.87397e-07
1.80158e-07
-8.42307e-07
4.28745e-07
-9.92377e-07
4.70269e-07
-1.13209e-06
1.81201e-07
-1.28805e-06
-4.8868e-07
-1.4814e-06
-8.7934e-07
-1.46891e-06
5.08745e-07
-1.28084e-06
2.37376e-06
-5.53229e-07
2.49702e-06
1.08379e-07
-1.17838e-06
3.57756e-07
-5.07389e-06
7.55302e-07
-5.92206e-06
8.97236e-07
-3.31624e-06
1.00505e-06
4.65999e-07
8.99869e-06
-2.47525e-09
1.26935e-06
-2.39855e-07
9.31276e-08
-5.1544e-07
4.27283e-09
-7.4232e-07
1.29489e-07
-9.32898e-07
3.7074e-07
-1.11661e-06
6.12448e-07
-1.297e-06
6.50663e-07
-1.47941e-06
3.63601e-07
-1.70602e-06
-2.62064e-07
-1.9654e-06
-6.19972e-07
-1.86701e-06
4.10359e-07
-1.37814e-06
1.88489e-06
-4.9691e-07
1.61579e-06
4.18386e-08
-1.71713e-06
9.93635e-08
-5.13142e-06
2.78208e-07
-6.10091e-06
3.59134e-07
-3.39716e-06
5.49296e-07
2.75838e-07
9.54799e-06
2.3863e-08
1.24549e-06
-3.47808e-07
4.64784e-07
-6.92595e-07
3.49064e-07
-9.64507e-07
4.01398e-07
-1.18387e-06
5.90107e-07
-1.38619e-06
8.14771e-07
-1.58188e-06
8.46359e-07
-1.78477e-06
5.66481e-07
-2.0341e-06
-1.27276e-08
-2.2701e-06
-3.83975e-07
-2.13514e-06
2.75391e-07
-1.48775e-06
1.2375e-06
-6.04844e-07
7.3289e-07
-2.23183e-07
-2.09879e-06
-3.39118e-07
-5.01548e-06
-3.52466e-07
-6.08756e-06
-3.20651e-07
-3.42897e-06
-6.76883e-08
2.28753e-08
9.4803e-06
2.28222e-08
1.22267e-06
-4.79824e-07
9.67429e-07
-8.8288e-07
7.52128e-07
-1.19492e-06
7.13445e-07
-1.43757e-06
8.32767e-07
-1.64811e-06
1.02531e-06
-1.84011e-06
1.03836e-06
-2.03937e-06
7.65752e-07
-2.27275e-06
2.2065e-07
-2.45226e-06
-2.04464e-07
-2.27813e-06
1.01262e-07
-1.6243e-06
5.8367e-07
-8.55156e-07
-3.62584e-08
-6.14499e-07
-2.33945e-06
-8.76233e-07
-4.75375e-06
-1.12604e-06
-5.83776e-06
-1.12357e-06
-3.43144e-06
-1.06282e-06
-3.78839e-08
8.41748e-06
5.89921e-07
-2.72847e-06
1.19611e-06
-2.66076e-06
1.7946e-06
-2.55043e-06
2.3697e-06
-2.39762e-06
2.89608e-06
-2.16902e-06
3.35666e-06
-1.89578e-06
3.75409e-06
-1.63856e-06
4.09193e-06
-1.41423e-06
4.36593e-06
-1.19687e-06
4.55063e-06
-9.33353e-07
4.63254e-06
-6.38658e-07
4.61285e-06
-3.43289e-07
4.49265e-06
-4.50068e-08
4.26975e-06
2.76076e-07
3.96046e-06
6.12909e-07
3.61854e-06
9.76249e-07
3.36159e-06
1.38735e-06
3.37133e-06
1.85815e-06
3.62477e-06
2.26419e-06
3.84254e-06
2.44646e-06
3.75533e-06
2.41074e-06
3.47779e-06
2.35934e-06
2.41101e-06
3.60934e-06
5.74938e-07
-3.30341e-06
1.24362e-06
-3.32943e-06
1.87726e-06
-3.18407e-06
2.47549e-06
-2.99586e-06
3.02864e-06
-2.72217e-06
3.52366e-06
-2.3908e-06
3.95655e-06
-2.07145e-06
4.31098e-06
-1.76866e-06
4.56369e-06
-1.44958e-06
4.71436e-06
-1.08402e-06
4.76619e-06
-6.90489e-07
4.71764e-06
-2.94733e-07
4.58392e-06
8.87132e-08
4.37446e-06
4.85541e-07
4.11932e-06
8.68047e-07
3.86364e-06
1.23194e-06
3.69079e-06
1.56021e-06
3.68608e-06
1.86286e-06
3.81679e-06
2.13349e-06
3.90017e-06
2.36309e-06
3.7608e-06
2.5501e-06
3.40694e-06
2.7132e-06
2.86694e-06
2.951e-06
8.21775e-07
-4.12519e-06
1.41173e-06
-3.91939e-06
1.92277e-06
-3.6951e-06
2.34637e-06
-3.41946e-06
2.83318e-06
-3.20897e-06
3.43737e-06
-2.99498e-06
4.01116e-06
-2.64523e-06
4.44452e-06
-2.20202e-06
4.69841e-06
-1.70347e-06
4.83549e-06
-1.22109e-06
4.88713e-06
-7.42128e-07
4.84967e-06
-2.5727e-07
4.70599e-06
2.32391e-07
4.52287e-06
6.68656e-07
4.33694e-06
1.05396e-06
4.18366e-06
1.38521e-06
4.08978e-06
1.65407e-06
4.0283e-06
1.92432e-06
4.01707e-06
2.14471e-06
4.00406e-06
2.37607e-06
3.80405e-06
2.75009e-06
3.28133e-06
3.23591e-06
3.75895e-06
2.38932e-06
1.83812e-06
-5.96329e-06
1.74253e-06
-3.82384e-06
1.86349e-06
-3.81603e-06
1.30795e-06
-2.86401e-06
1.14255e-06
-3.04363e-06
2.41666e-06
-4.26911e-06
3.38041e-06
-3.60903e-06
3.85938e-06
-2.68106e-06
4.12371e-06
-1.96786e-06
4.28291e-06
-1.38032e-06
4.36922e-06
-8.2845e-07
4.40028e-06
-2.88335e-07
4.34899e-06
2.83679e-07
4.24614e-06
7.71517e-07
4.17677e-06
1.12335e-06
4.49262e-06
1.0694e-06
4.92327e-06
1.22349e-06
4.37583e-06
2.47185e-06
3.55351e-06
2.96712e-06
3.51675e-06
2.41289e-06
3.69488e-06
2.57201e-06
3.57136e-06
3.35951e-06
6.02972e-06
1.3006e-06
-1.37712e-06
-4.58614e-06
-1.59788e-06
-3.60311e-06
-3.39874e-06
-2.01508e-06
-6.27734e-06
1.46603e-08
-6.31929e-06
-3.00166e-06
-3.93205e-06
-6.65627e-06
-2.00351e-06
-5.53748e-06
-6.94901e-07
-3.98957e-06
2.83434e-07
-2.94612e-06
1.28875e-06
-2.38558e-06
2.31511e-06
-1.85478e-06
3.35794e-06
-1.33116e-06
4.20836e-06
-5.66771e-07
4.72281e-06
2.57019e-07
5.16804e-06
6.7806e-07
5.35919e-06
8.78169e-07
6.42332e-06
1.59253e-07
5.72191e-06
3.17311e-06
3.91582e-06
4.77306e-06
2.65141e-06
3.67718e-06
1.76346e-06
3.45979e-06
6.19657e-07
4.50323e-06
8.57995e-06
-1.9304e-06
-1.4618e-06
-3.12436e-06
-1.25767e-06
-3.80715e-06
-7.43266e-07
-2.52953e-06
7.99786e-07
-1.52833e-06
2.89251e-06
-5.0944e-06
8.28414e-07
-4.59221e-06
-1.03772e-06
-3.67138e-06
-1.39317e-06
-3.63413e-06
-9.66219e-07
-3.37309e-06
-2.21988e-07
-3.12983e-06
6.66671e-07
-2.74345e-06
1.62768e-06
-2.29219e-06
2.43827e-06
-1.37736e-06
2.81011e-06
-1.14799e-07
2.03966e-06
1.44857e-06
-1.29749e-07
3.04762e-06
-1.09957e-06
1.12908e-06
-5.81038e-07
2.65461e-06
-8.86346e-08
4.28071e-06
-1.21185e-06
4.80045e-06
-3.23948e-06
5.48737e-06
-5.19904e-06
6.46253e-06
6.98129e-06
-3.60065e-06
-5.89414e-07
-2.53507e-06
-8.24618e-07
-3.57202e-06
5.37327e-07
-3.89162e-06
2.97875e-06
-3.96975e-06
2.93436e-06
-5.05001e-06
1.67232e-06
-3.33019e-06
7.36842e-08
-2.07275e-06
-1.06551e-06
-2.49494e-06
-1.60474e-06
-2.83384e-06
-1.79624e-06
-2.93832e-06
-1.8273e-06
-2.7124e-06
-1.96678e-06
-2.1527e-06
-2.25876e-06
-1.08538e-06
-2.84602e-06
4.72481e-07
-3.72752e-06
2.33011e-06
-4.24516e-06
3.56531e-06
-5.91175e-06
2.79571e-06
-5.99358e-06
2.73648e-06
-5.60222e-06
3.88948e-06
-5.91872e-06
5.11721e-06
-6.49585e-06
6.06483e-06
-5.33319e-06
5.29993e-06
3.45828e-06
-1.81028e-06
3.07094e-07
-2.84194e-06
2.03532e-07
-3.46851e-06
8.18746e-08
-3.76988e-06
-6.10634e-08
-3.82675e-06
-1.02904e-06
-4.08202e-06
-1.60583e-06
-2.75342e-06
-1.84059e-06
-1.838e-06
-2.42424e-06
-1.91133e-06
-3.09679e-06
-2.16135e-06
-3.75474e-06
-2.28043e-06
-4.395e-06
-2.07221e-06
-5.04587e-06
-1.50189e-06
-5.69229e-06
-4.39012e-07
-6.29199e-06
1.0721e-06
-6.68232e-06
2.72034e-06
-6.91385e-06
3.79669e-06
-7.64415e-06
3.52584e-06
-7.73778e-06
2.82992e-06
-7.17954e-06
3.33106e-06
-6.44178e-06
4.37933e-06
-5.09491e-06
4.71804e-06
-3.02198e-06
3.22706e-06
1.75741e-06
-1.32106e-06
3.97177e-07
-3.23911e-06
1.34553e-07
-3.20598e-06
-4.33448e-07
-3.20186e-06
-1.10524e-06
-3.15498e-06
-2.14846e-06
-3.03884e-06
-2.69525e-06
-2.20667e-06
-2.97528e-06
-1.55799e-06
-3.42925e-06
-1.45737e-06
-4.05113e-06
-1.53948e-06
-4.78567e-06
-1.54589e-06
-5.5531e-06
-1.30478e-06
-6.28853e-06
-7.66435e-07
-6.89999e-06
1.7249e-07
-7.27121e-06
1.44339e-06
-7.26947e-06
2.71864e-06
-6.97228e-06
3.49951e-06
-6.83887e-06
3.39241e-06
-6.93768e-06
2.92869e-06
-6.47335e-06
2.86661e-06
-5.28415e-06
3.18992e-06
-3.5642e-06
2.99794e-06
-2.40993e-06
2.07276e-06
1.44435e-06
-2.09683e-06
1.2938e-07
-3.36864e-06
-1.61535e-07
-2.91509e-06
-7.30852e-07
-2.63257e-06
-1.46452e-06
-2.42137e-06
-2.34446e-06
-2.15893e-06
-2.94178e-06
-1.60937e-06
-3.34441e-06
-1.15535e-06
-3.81602e-06
-9.85737e-07
-4.40311e-06
-9.52374e-07
-5.07404e-06
-8.74941e-07
-5.76935e-06
-6.0944e-07
-6.42265e-06
-1.13077e-07
-6.9039e-06
6.53822e-07
-7.07743e-06
1.61703e-06
-6.87014e-06
2.51147e-06
-6.40271e-06
3.03219e-06
-6.00147e-06
2.99132e-06
-5.7039e-06
2.63137e-06
-5.21161e-06
2.37461e-06
-4.28793e-06
2.26644e-06
-3.2909e-06
2.00107e-06
-2.75325e-06
1.53525e-06
1.36919e-06
-2.67798e-06
-9.66046e-08
-3.27208e-06
-4.47641e-07
-2.564e-06
-9.71324e-07
-2.10891e-06
-1.61907e-06
-1.77364e-06
-2.33008e-06
-1.44791e-06
-2.90255e-06
-1.03688e-06
-3.36416e-06
-6.93716e-07
-3.83796e-06
-5.11918e-07
-4.36374e-06
-4.26585e-07
-4.9401e-06
-2.98608e-07
-5.51818e-06
-3.13963e-08
-6.03697e-06
4.0568e-07
-6.37686e-06
9.93708e-07
-6.42558e-06
1.66574e-06
-6.1727e-06
2.25854e-06
-5.72464e-06
2.58403e-06
-5.28045e-06
2.54703e-06
-4.90465e-06
2.25555e-06
-4.43554e-06
1.90556e-06
-3.81966e-06
1.6506e-06
-3.24017e-06
1.42161e-06
-2.94963e-06
1.24472e-06
1.31182e-06
-2.89231e-06
-2.80353e-07
-2.99166e-06
-6.87258e-07
-2.15706e-06
-1.17529e-06
-1.62087e-06
-1.72891e-06
-1.22e-06
-2.3055e-06
-8.71283e-07
-2.81438e-06
-5.2795e-07
-3.26086e-06
-2.47204e-07
-3.69875e-06
-7.40281e-08
-4.15869e-06
3.33307e-08
-4.6435e-06
1.86138e-07
-5.10753e-06
4.32536e-07
-5.48361e-06
7.81672e-07
-5.69384e-06
1.20386e-06
-5.68055e-06
1.65239e-06
-5.44533e-06
2.02321e-06
-5.06847e-06
2.20698e-06
-4.6736e-06
2.1519e-06
-4.32263e-06
1.90433e-06
-3.96013e-06
1.54285e-06
-3.57886e-06
1.26912e-06
-3.25613e-06
1.0987e-06
-3.08987e-06
1.07832e-06
1.25609e-06
-3.03425e-06
-4.28926e-07
-2.56269e-06
-8.77557e-07
-1.70847e-06
-1.34759e-06
-1.15086e-06
-1.83341e-06
-7.34158e-07
-2.31457e-06
-3.90074e-07
-2.75286e-06
-8.96098e-08
-3.14934e-06
1.49312e-07
-3.534e-06
3.10641e-07
-3.93219e-06
4.31508e-07
-4.3253e-06
5.79198e-07
-4.67563e-06
7.82789e-07
-4.93143e-06
1.0374e-06
-5.05266e-06
1.32504e-06
-5.00766e-06
1.60739e-06
-4.80574e-06
1.8213e-06
-4.50279e-06
1.904e-06
-4.17786e-06
1.82687e-06
-3.88495e-06
1.6113e-06
-3.64966e-06
1.30745e-06
-3.4362e-06
1.05555e-06
-3.27485e-06
9.37271e-07
-3.19233e-06
9.95771e-07
1.18613e-06
-3.12233e-06
-5.38059e-07
-2.02466e-06
-1.02608e-06
-1.22053e-06
-1.49097e-06
-6.85992e-07
-1.93533e-06
-2.89769e-07
-2.35342e-06
2.80534e-08
-2.73264e-06
2.89669e-07
-3.07695e-06
4.93667e-07
-3.40728e-06
6.41001e-07
-3.73454e-06
7.58782e-07
-4.0387e-06
8.8335e-07
-4.28948e-06
1.03354e-06
-4.45882e-06
1.20672e-06
-4.52136e-06
1.38759e-06
-4.46346e-06
1.54957e-06
-4.29655e-06
1.65452e-06
-4.05965e-06
1.66723e-06
-3.80588e-06
1.57323e-06
-3.58198e-06
1.38751e-06
-3.43017e-06
1.15575e-06
-3.32793e-06
9.53404e-07
-3.26438e-06
8.73821e-07
-3.21868e-06
9.50167e-07
1.10512e-06
-3.13756e-06
-6.1452e-07
-1.4102e-06
-1.13852e-06
-6.96574e-07
-1.60552e-06
-2.18989e-07
-2.02637e-06
1.31105e-07
-2.4042e-06
4.05933e-07
-2.73949e-06
6.24992e-07
-3.03938e-06
7.93599e-07
-3.31662e-06
9.18262e-07
-3.57431e-06
1.0165e-06
-3.8008e-06
1.10984e-06
-3.97676e-06
1.20949e-06
-4.0841e-06
1.31405e-06
-4.10955e-06
1.41305e-06
-4.04897e-06
1.48904e-06
-3.9141e-06
1.51974e-06
-3.73323e-06
1.48649e-06
-3.54402e-06
1.38414e-06
-3.3832e-06
1.22681e-06
-3.27552e-06
1.04817e-06
-3.2266e-06
9.04578e-07
-3.20488e-06
8.52163e-07
-3.16058e-06
9.05895e-07
1.02462e-06
-3.08007e-06
-6.65753e-07
-7.44501e-07
-1.21732e-06
-1.44987e-07
-1.689e-06
2.52724e-07
-2.09601e-06
5.38152e-07
-2.44775e-06
7.57702e-07
-2.75075e-06
9.28021e-07
-3.01329e-06
1.05615e-06
-3.24401e-06
1.149e-06
-3.44558e-06
1.21808e-06
-3.61168e-06
1.27594e-06
-3.73166e-06
1.32944e-06
-3.79561e-06
1.37796e-06
-3.79763e-06
1.41502e-06
-3.73869e-06
1.43006e-06
-3.62985e-06
1.41088e-06
-3.49211e-06
1.34874e-06
-3.35206e-06
1.24408e-06
-3.2351e-06
1.10982e-06
-3.15865e-06
9.71672e-07
-3.1206e-06
8.66456e-07
-3.096e-06
8.27458e-07
-3.05201e-06
8.61765e-07
9.43696e-07
-2.97127e-06
-6.96535e-07
-4.79665e-08
-1.26546e-06
4.24016e-07
-1.73933e-06
7.26654e-07
-2.13674e-06
9.35602e-07
-2.46996e-06
1.09095e-06
-2.74836e-06
1.20644e-06
-2.98072e-06
1.28852e-06
-3.17454e-06
1.34284e-06
-3.33317e-06
1.37671e-06
-3.45469e-06
1.39746e-06
-3.53452e-06
1.40925e-06
-3.56859e-06
1.41199e-06
-3.55568e-06
1.40204e-06
-3.49935e-06
1.37364e-06
-3.40944e-06
1.32086e-06
-3.30153e-06
1.24072e-06
-3.19404e-06
1.13646e-06
-3.1036e-06
1.01924e-06
-3.03994e-06
9.0784e-07
-2.99934e-06
8.25659e-07
-2.96392e-06
7.91815e-07
-2.91135e-06
8.0895e-07
8.60299e-07
-2.82823e-06
-7.13337e-07
6.65419e-07
-1.28661e-06
9.97393e-07
-1.75741e-06
1.19753e-06
-2.14503e-06
1.32326e-06
-2.46275e-06
1.4087e-06
-2.72118e-06
1.46489e-06
-2.92942e-06
1.49677e-06
-3.09479e-06
1.50822e-06
-3.22166e-06
1.5036e-06
-3.31125e-06
1.48706e-06
-3.36308e-06
1.46108e-06
-3.37691e-06
1.4258e-06
-3.35438e-06
1.37946e-06
-3.30021e-06
1.31939e-06
-3.2228e-06
1.24335e-06
-3.13367e-06
1.15148e-06
-3.04536e-06
1.048e-06
-2.9683e-06
9.42028e-07
-2.90742e-06
8.4678e-07
-2.85889e-06
7.76932e-07
-2.81038e-06
7.43095e-07
-2.74711e-06
7.45455e-07
7.72529e-07
-2.65957e-06
-7.16003e-07
1.3815e-06
-1.28393e-06
1.56542e-06
-1.74531e-06
1.65896e-06
-2.12023e-06
1.69822e-06
-2.42255e-06
1.71105e-06
-2.66333e-06
1.70568e-06
-2.85171e-06
1.68517e-06
-2.99508e-06
1.65161e-06
-3.09869e-06
1.60724e-06
-3.16576e-06
1.55417e-06
-3.19838e-06
1.49373e-06
-3.19869e-06
1.42612e-06
-3.16993e-06
1.35069e-06
-3.11712e-06
1.26655e-06
-3.04731e-06
1.17349e-06
-2.969e-06
1.07309e-06
-2.89063e-06
9.69561e-07
-2.81866e-06
8.69961e-07
-2.75534e-06
7.83361e-07
-2.69731e-06
7.18794e-07
-2.63623e-06
6.81892e-07
-2.56245e-06
6.71561e-07
6.79519e-07
-2.46955e-06
-7.05266e-07
2.08683e-06
-1.25958e-06
2.11978e-06
-1.70496e-06
2.10437e-06
-2.06305e-06
2.05631e-06
-2.34853e-06
1.99654e-06
-2.57239e-06
1.92955e-06
-2.7436e-06
1.85639e-06
-2.8695e-06
1.77753e-06
-2.95587e-06
1.69363e-06
-3.00707e-06
1.6054e-06
-3.02665e-06
1.51335e-06
-3.01807e-06
1.41757e-06
-2.9853e-06
1.31795e-06
-2.93326e-06
1.21452e-06
-2.86778e-06
1.10801e-06
-2.79515e-06
1.00046e-06
-2.72113e-06
8.95533e-07
-2.64966e-06
7.98488e-07
-2.58169e-06
7.15378e-07
-2.51451e-06
6.51603e-07
-2.4425e-06
6.09882e-07
-2.35944e-06
5.88501e-07
5.81226e-07
-2.26114e-06
-6.83284e-07
2.77015e-06
-1.21536e-06
2.65185e-06
-1.63749e-06
2.52649e-06
-1.97459e-06
2.3934e-06
-2.24131e-06
2.26325e-06
-2.4482e-06
2.13643e-06
-2.60381e-06
2.012e-06
-2.71529e-06
1.88902e-06
-2.78853e-06
1.76689e-06
-2.82843e-06
1.64532e-06
-2.83922e-06
1.52417e-06
-2.82493e-06
1.40332e-06
-2.78978e-06
1.28282e-06
-2.73827e-06
1.16305e-06
-2.67525e-06
1.04502e-06
-2.60543e-06
9.30673e-07
-2.53279e-06
8.22944e-07
-2.45983e-06
7.25568e-07
-2.38684e-06
6.42446e-07
-2.31181e-06
5.76631e-07
-2.23098e-06
5.29122e-07
-2.14034e-06
4.97938e-07
4.78219e-07
-2.03725e-06
-6.46728e-07
3.41688e-06
-1.14926e-06
3.15433e-06
-1.54298e-06
2.92018e-06
-1.8561e-06
2.70648e-06
-2.10246e-06
2.50958e-06
-2.2921e-06
2.32605e-06
-2.43307e-06
2.15296e-06
-2.53214e-06
1.98808e-06
-2.59505e-06
1.82981e-06
-2.62677e-06
1.67705e-06
-2.63171e-06
1.52913e-06
-2.614e-06
1.38565e-06
-2.57772e-06
1.24657e-06
-2.52692e-06
1.11228e-06
-2.46556e-06
9.83712e-07
-2.39727e-06
8.62436e-07
-2.32489e-06
7.50623e-07
-2.25004e-06
6.50783e-07
-2.17279e-06
5.65276e-07
-2.0917e-06
4.95628e-07
-2.00429e-06
4.41803e-07
-1.908e-06
4.01736e-07
3.71513e-07
-1.80119e-06
-5.96423e-07
4.01327e-06
-1.06029e-06
3.61813e-06
-1.42305e-06
3.28288e-06
-1.70994e-06
2.99332e-06
-1.93463e-06
2.73423e-06
-2.10667e-06
2.49806e-06
-2.23357e-06
2.27984e-06
-2.32159e-06
2.07609e-06
-2.37611e-06
1.88432e-06
-2.40184e-06
1.70278e-06
-2.40303e-06
1.53032e-06
-2.38362e-06
1.36625e-06
-2.34732e-06
1.2103e-06
-2.2977e-06
1.06268e-06
-2.23801e-06
9.24053e-07
-2.17106e-06
7.95533e-07
-2.09895e-06
6.78569e-07
-2.02281e-06
5.74704e-07
-1.94266e-06
4.85196e-07
-1.85752e-06
4.1056e-07
-1.76577e-06
3.5013e-07
-1.6658e-06
3.01838e-07
2.62431e-07
-1.55663e-06
-5.38132e-07
4.55136e-06
-9.55206e-07
4.03513e-06
-1.28234e-06
3.60996e-06
-1.54012e-06
3.25105e-06
-1.74152e-06
2.93559e-06
-1.89543e-06
2.65193e-06
-2.00859e-06
2.39297e-06
-2.08654e-06
2.15402e-06
-2.13407e-06
1.93183e-06
-2.15544e-06
1.72413e-06
-2.15447e-06
1.52935e-06
-2.13473e-06
1.3465e-06
-2.09948e-06
1.17506e-06
-2.05176e-06
1.01496e-06
-1.99423e-06
8.6654e-07
-1.92912e-06
7.30437e-07
-1.858e-06
6.07481e-07
-1.78172e-06
4.98462e-07
-1.70033e-06
4.03847e-07
-1.6132e-06
3.23466e-07
-1.51928e-06
2.56261e-07
-1.4176e-06
2.00196e-07
1.52482e-07
-1.3076e-06
-4.74595e-07
5.0259e-06
-8.40051e-07
4.40052e-06
-1.12594e-06
3.8958e-06
-1.35103e-06
3.4761e-06
-1.5273e-06
3.11182e-06
-1.66248e-06
2.78707e-06
-1.76213e-06
2.49258e-06
-1.8308e-06
2.22266e-06
-1.87247e-06
1.97348e-06
-1.89075e-06
1.74238e-06
-1.88894e-06
1.52752e-06
-1.87007e-06
1.32761e-06
-1.83691e-06
1.14189e-06
-1.79199e-06
9.70022e-07
-1.73745e-06
8.11995e-07
-1.67506e-06
6.68036e-07
-1.60603e-06
5.38459e-07
-1.53104e-06
4.23478e-07
-1.45018e-06
3.22987e-07
-1.36306e-06
2.36353e-07
-1.26905e-06
1.62264e-07
-1.16756e-06
9.87204e-08
4.32652e-08
-1.05834e-06
-4.07979e-07
5.43384e-06
-7.17668e-07
4.71017e-06
-9.57499e-07
4.1356e-06
-1.14644e-06
3.66501e-06
-1.29602e-06
3.26136e-06
-1.41214e-06
2.90316e-06
-1.49865e-06
2.57906e-06
-1.5588e-06
2.28277e-06
-1.59561e-06
2.01026e-06
-1.61194e-06
1.75868e-06
-1.61043e-06
1.52597e-06
-1.59354e-06
1.31069e-06
-1.56353e-06
1.11185e-06
-1.5224e-06
9.28861e-07
-1.47186e-06
7.61429e-07
-1.41328e-06
6.09434e-07
-1.34763e-06
4.72788e-07
-1.27545e-06
3.51275e-07
-1.19686e-06
2.44378e-07
-1.11167e-06
1.5114e-07
-1.01951e-06
7.00865e-08
-9.20054e-07
-7.50297e-10
-6.36118e-08
-8.13192e-07
-3.40002e-07
5.77382e-06
-5.90502e-07
4.96065e-06
-7.79674e-07
4.32475e-06
-9.29501e-07
3.81482e-06
-1.05155e-06
3.3834e-06
-1.14888e-06
3.00046e-06
-1.22291e-06
2.65305e-06
-1.27539e-06
2.33522e-06
-1.30832e-06
2.04315e-06
-1.32373e-06
1.77406e-06
-1.3236e-06
1.52581e-06
-1.30977e-06
1.29683e-06
-1.28396e-06
1.086e-06
-1.24767e-06
8.92541e-07
-1.20222e-06
7.15942e-07
-1.14865e-06
5.55825e-07
-1.08771e-06
4.11809e-07
-1.01984e-06
2.83369e-07
-9.45201e-07
1.69699e-07
-8.63714e-07
6.9619e-08
-7.75199e-07
-1.84631e-08
-6.7949e-07
-9.64912e-08
-1.66555e-07
-5.76577e-07
-2.71024e-07
6.04483e-06
-4.59942e-07
5.14957e-06
-5.93833e-07
4.45864e-06
-7.02752e-07
3.92373e-06
-7.98098e-07
3.47873e-06
-8.7754e-07
3.07989e-06
-9.39977e-07
2.71547e-06
-9.85691e-07
2.38091e-06
-1.01569e-06
2.07312e-06
-1.0312e-06
1.78954e-06
-1.03349e-06
1.52806e-06
-1.02378e-06
1.28709e-06
-1.00322e-06
1.06541e-06
-9.7286e-07
8.62144e-07
-9.33615e-07
6.76657e-07
-8.86242e-07
5.08409e-07
-8.31308e-07
3.56832e-07
-7.6918e-07
2.21197e-07
-7.00032e-07
1.00506e-07
-6.23879e-07
-6.57772e-09
-5.40655e-07
-1.0173e-07
-4.50296e-07
-1.8689e-07
-2.64054e-07
-3.52836e-07
-1.91724e-07
6.23656e-06
-3.16445e-07
5.2743e-06
-4.00031e-07
4.54223e-06
-4.70828e-07
3.99452e-06
-5.40751e-07
3.54865e-06
-6.03446e-07
3.14257e-06
-6.55085e-07
2.76709e-06
-6.94854e-07
2.42066e-06
-7.22849e-07
2.10109e-06
-7.39474e-07
1.80613e-06
-7.45247e-07
1.53381e-06
-7.4073e-07
1.28254e-06
-7.26502e-07
1.05115e-06
-7.03143e-07
8.3875e-07
-6.71201e-07
6.44677e-07
-6.31171e-07
4.68339e-07
-5.83463e-07
3.09081e-07
-5.28383e-07
1.66071e-07
-4.66119e-07
3.81954e-08
-3.96756e-07
-7.59877e-08
-3.20308e-07
-1.78225e-07
-2.36768e-07
-2.70475e-07
-3.54692e-07
-1.46174e-07
-8.66369e-08
6.3232e-06
-1.50058e-07
5.33773e-06
-1.95626e-07
4.5878e-06
-2.38354e-07
4.03726e-06
-2.84877e-07
3.59517e-06
-3.3151e-07
3.1892e-06
-3.72947e-07
2.80852e-06
-4.07613e-07
2.45531e-06
-4.34644e-07
2.12811e-06
-4.53519e-07
1.82499e-06
-4.63933e-07
1.5442e-06
-4.65743e-07
1.28433e-06
-4.58948e-07
1.04433e-06
-4.43661e-07
8.23431e-07
-4.20081e-07
6.21062e-07
-3.88463e-07
4.36683e-07
-3.49084e-07
2.69661e-07
-3.02206e-07
1.19149e-07
-2.48043e-07
-1.60139e-08
-1.86743e-07
-1.37336e-07
-1.1838e-07
-2.46638e-07
-4.29761e-08
-3.45929e-07
-4.37174e-07
3.94564e-08
4.34545e-08
6.27975e-06
3.42116e-08
5.34699e-06
1.91359e-08
4.60289e-06
-3.96201e-09
4.06036e-06
-3.23339e-08
3.62355e-06
-6.41372e-08
3.22101e-06
-9.67205e-08
2.8411e-06
-1.27763e-07
2.48635e-06
-1.55343e-07
2.15568e-06
-1.77928e-07
1.84756e-06
-1.94343e-07
1.5606e-06
-2.0373e-07
1.2937e-06
-2.05512e-07
1.04608e-06
-1.99357e-07
8.17247e-07
-1.85139e-07
6.06812e-07
-1.62903e-07
4.14409e-07
-1.32816e-07
2.39533e-07
-9.51204e-08
8.141e-08
-5.00797e-08
-6.11016e-08
2.08564e-09
-1.89551e-07
6.12442e-08
-3.05848e-07
1.27366e-07
-4.12102e-07
-5.10348e-07
2.00486e-07
1.73638e-07
6.10613e-06
2.26746e-07
5.29391e-06
2.40326e-07
4.58933e-06
2.33398e-07
4.06731e-06
2.19333e-07
3.63762e-06
1.98779e-07
3.24157e-06
1.71882e-07
2.868e-06
1.41738e-07
2.51649e-06
1.11308e-07
2.1861e-06
8.30845e-08
1.87577e-06
5.90524e-08
1.58461e-06
4.07218e-08
1.31201e-06
2.91864e-08
1.05759e-06
2.51763e-08
8.21228e-07
2.91044e-08
6.0285e-07
4.11092e-08
4.02367e-07
6.11022e-08
2.19499e-07
8.88269e-08
5.36409e-08
1.23941e-07
-9.62632e-08
1.66119e-07
-2.31779e-07
2.15161e-07
-3.54943e-07
2.71042e-07
-4.68038e-07
-5.73237e-07
3.33874e-07
2.91299e-07
5.81484e-06
4.1505e-07
5.17019e-06
4.61772e-07
4.54263e-06
4.74109e-07
4.05499e-06
4.72229e-07
3.63952e-06
4.57172e-07
3.25663e-06
4.31076e-07
2.8941e-06
3.97964e-07
2.5496e-06
3.61701e-07
2.22236e-06
3.2555e-07
1.91191e-06
2.92122e-07
1.61802e-06
2.63436e-07
1.34067e-06
2.40997e-07
1.08001e-06
2.25857e-07
8.36337e-07
2.18671e-07
6.10002e-07
2.19728e-07
4.01271e-07
2.28995e-07
2.1019e-07
2.46172e-07
3.64185e-08
2.70789e-07
-1.20929e-07
3.02363e-07
-2.63406e-07
3.406e-07
-3.93234e-07
3.85493e-07
-5.12986e-07
-6.25065e-07
4.37263e-07
3.98362e-07
5.4165e-06
5.93242e-07
4.97534e-06
6.83397e-07
4.4525e-06
7.18835e-07
4.01957e-06
7.23944e-07
3.63443e-06
7.08205e-07
3.27239e-06
6.77512e-07
2.92481e-06
6.37234e-07
2.58988e-06
5.92015e-07
2.26757e-06
5.45642e-07
1.95828e-06
5.0112e-07
1.66253e-06
4.6079e-07
1.38098e-06
4.26426e-07
1.11435e-06
3.99321e-07
8.63412e-07
3.80321e-07
6.28967e-07
3.69852e-07
4.117e-07
3.67932e-07
2.12067e-07
3.74197e-07
3.0107e-08
3.87995e-07
-1.34776e-07
4.08602e-07
-2.84064e-07
4.35578e-07
-4.20263e-07
4.68959e-07
-5.46421e-07
-6.65288e-07
5.09126e-07
5.14725e-07
4.90179e-06
7.81161e-07
4.70894e-06
9.11104e-07
4.32259e-06
9.62359e-07
3.96835e-06
9.68367e-07
3.62845e-06
9.46315e-07
3.29446e-06
9.06206e-07
2.96493e-06
8.55082e-07
2.64101e-06
7.9825e-07
2.32441e-06
7.39791e-07
2.01673e-06
6.82862e-07
1.71945e-06
6.29921e-07
1.4339e-06
5.82873e-07
1.16137e-06
5.43156e-07
9.03099e-07
5.11783e-07
6.60305e-07
4.89329e-07
4.34114e-07
4.759e-07
2.25454e-07
4.71085e-07
3.4877e-08
4.73994e-07
-1.37733e-07
4.83524e-07
-2.93643e-07
4.9901e-07
-4.35799e-07
5.20583e-07
-5.68045e-07
-6.93619e-07
5.48862e-07
6.58394e-07
4.24342e-06
9.94454e-07
4.37292e-06
1.14861e-06
4.16847e-06
1.20214e-06
3.91485e-06
1.19992e-06
3.63069e-06
1.1654e-06
3.329e-06
1.11165e-06
3.01869e-06
1.04686e-06
2.70581e-06
9.76635e-07
2.39464e-06
9.05009e-07
2.08835e-06
8.35021e-07
1.78942e-06
7.6903e-07
1.49988e-06
7.08916e-07
1.22146e-06
6.56187e-07
9.558e-07
6.12012e-07
7.04449e-07
5.77174e-07
4.68915e-07
5.51969e-07
2.5062e-07
5.36031e-07
5.07724e-08
5.28207e-07
-1.29953e-07
5.26789e-07
-2.9227e-07
5.30752e-07
-4.39808e-07
5.4044e-07
-5.77778e-07
-7.10062e-07
5.56836e-07
8.44312e-07
3.39913e-06
1.24205e-06
3.97523e-06
1.39651e-06
4.01403e-06
1.43364e-06
3.87776e-06
1.41203e-06
3.65232e-06
1.35888e-06
3.38217e-06
1.28821e-06
3.08937e-06
1.20821e-06
2.78583e-06
1.12405e-06
2.4788e-06
1.03928e-06
2.17312e-06
9.56477e-07
1.87222e-06
8.77687e-07
1.57865e-06
8.04614e-07
1.29451e-06
7.38761e-07
1.02163e-06
6.81453e-07
7.61728e-07
6.3378e-07
5.16556e-07
5.96419e-07
2.87946e-07
5.69286e-07
7.78686e-08
5.51035e-07
-1.1174e-07
5.38983e-07
-2.80258e-07
5.31518e-07
-4.32382e-07
5.29455e-07
-5.75753e-07
-7.14971e-07
5.34326e-07
1.08385e-06
2.31531e-06
1.52416e-06
3.53495e-06
1.64573e-06
3.8925e-06
1.64609e-06
3.87742e-06
1.59504e-06
3.70339e-06
1.51899e-06
3.45824e-06
1.43024e-06
3.17814e-06
1.33543e-06
2.88065e-06