/*--------------------------------*- C++ -*----------------------------------*\
  =========                 |
  \\      /  F ield         | OpenFOAM: The Open Source CFD Toolbox
   \\    /   O peration     | Website:  https://openfoam.org
    \\  /    A nd           | Version:  9
     \\/     M anipulation  |
\*---------------------------------------------------------------------------*/
FoamFile
{
    format      ascii;
    class       volScalarField;
    location    "6.7";
    object      p_rgh;
}
// * * * * * * * * * * * * * * * * * * * * * * * * * * * * * * * * * * * * * //

dimensions      [1 -1 -2 0 0 0 0];

internalField   nonuniform List<scalar> 
2268
(
747.814
748.092
748.565
749.25
750.131
751.191
752.412
753.774
755.253
756.822
758.452
760.112
761.768
763.379
764.901
766.3
767.579
768.764
769.873
770.781
771.635
772.427
772.854
747.753
748.023
748.492
749.176
750.059
751.122
752.347
753.713
755.197
756.772
758.408
760.073
761.73
763.34
764.866
766.283
767.621
768.911
770.125
770.986
771.896
772.496
772.929
747.646
747.913
748.38
749.063
749.949
751.017
752.25
753.625
755.119
756.706
758.357
760.035
761.706
763.332
764.879
766.329
767.718
769.056
770.384
771.427
772.085
772.591
773.049
747.487
747.756
748.225
748.911
749.801
750.879
752.123
753.513
755.024
756.632
758.304
760.006
761.704
763.362
764.949
766.449
767.712
769.161
770.508
771.621
772.217
772.704
773.271
747.277
747.55
748.025
748.716
749.616
750.707
751.968
753.379
754.915
756.549
758.25
759.986
761.723
763.427
765.071
766.639
767.741
767.827
770.394
771.696
771.812
772.771
773.601
747.015
747.293
747.777
748.479
749.392
750.5
751.783
753.22
754.788
756.456
758.194
759.97
761.755
763.519
765.235
766.892
768.35
764.158
765.154
767.722
767.945
772.446
774.026
746.703
746.987
747.482
748.196
749.126
750.256
751.567
753.037
754.644
756.353
758.133
759.956
761.798
763.631
765.429
767.186
768.984
765.851
764.909
765.85
766.835
773.444
774.546
746.343
746.633
747.14
747.869
748.817
749.973
751.316
752.826
754.48
756.237
758.066
759.942
761.849
763.759
765.645
767.505
769.409
771.128
764.835
765.837
771.684
774.652
775.203
771.291
771.453
771.031
770.104
768.829
767.207
765.522
763.699
761.737
759.683
757.921
756.667
755.37
754.148
753.423
752.935
752.267
751.84
751.504
771.306
771.575
771.109
770.185
768.962
767.536
765.853
763.994
762.003
760.033
758.278
757.039
755.583
754.164
753.27
752.734
752.138
751.73
751.491
771.368
771.665
771.219
770.235
768.995
767.542
765.864
763.99
761.964
760.014
758.538
757.275
756.102
754.446
753.053
752.621
752.018
751.677
750.955
772.021
772.244
771.437
770.364
769.09
767.598
765.864
763.965
761.859
759.583
758.494
757.287
756.108
754.432
752.643
752.584
751.889
751.324
750.833
773.419
772.662
771.717
770.565
769.233
767.674
765.851
763.996
762.132
759.158
758.368
757.221
755.949
752.161
751.725
752.443
750.712
750.742
750.696
773.715
772.998
772.003
770.793
769.404
767.816
766.09
764.29
762.41
757.762
754.022
757.115
754.222
743.537
752.494
751.807
747.602
751.489
751.436
774.09
773.344
772.31
771.048
769.615
768.001
766.286
764.514
762.744
755.794
744.738
744.424
741.864
741.756
753.747
752.452
746.358
751.53
751.485
774.584
773.717
772.654
771.366
769.885
768.187
766.428
764.55
762.765
755.796
744.227
742.412
741.202
750.214
753.96
752.65
745.674
750.802
751.217
745.719
746.003
746.52
747.269
748.25
749.45
750.853
752.438
754.182
756.031
757.946
759.915
761.936
763.983
766.013
768.044
770.059
772.15
773.335
773.614
775.543
775.754
776.239
710.376
710.177
711.64
714.278
717.786
721.641
725.816
730.466
735.736
740.344
744.021
747.362
751.499
756.524
761.452
766.576
771.072
773.07
774.86
776.163
776.965
777.544
778.178
202.322
204.784
207.676
210.883
215.138
220.605
227.279
234.871
243.432
253.757
265.858
278.868
291.538
303.706
315.907
328.58
343.189
359.898
375.014
384.064
388.016
390.279
394.155
0.716532
0.715936
0.680352
0.733579
0.790511
0.83684
0.87665
0.922636
0.959153
0.983587
1.00045
1.0095
1.05876
1.16985
1.37026
1.66772
2.04342
2.09475
1.70712
1.9517
2.23637
2.50156
2.6903
1.19256
1.19044
0.676346
1.44668
2.22213
2.61623
2.93412
3.37275
3.67987
3.88442
4.06751
4.07564
4.07923
4.08083
4.07516
3.25906
2.75248
2.26102
1.1609
1.33012
1.33825
1.2921
1.10283
0.539178
0.559808
0.655379
0.473417
0.0263879
0.0193349
0.0144449
0.0104035
0.00783983
0.00652535
0.0203231
0.152745
0.228352
0.212551
0.239892
0.363114
0.39292
0.672759
0.75908
0.656582
0.847198
0.925884
0.678339
0.0157839
0.015448
0.0967048
0.0343364
0.0451572
0.0203384
0.0125674
0.0103276
0.00832392
0.00677483
0.00521671
0.00317814
0.00220767
0.00304599
0.0302315
0.109869
0.120125
0.0690623
0.126201
0.169166
0.179726
0.135201
0.461762
0.0137273
0.0131519
0.0122789
0.0121088
0.0132249
0.0153983
0.0145438
0.0108844
0.00738231
0.0067723
0.00662169
0.00360706
0.00163057
0.0120782
0.116533
0.121274
0.10537
0.0427728
0.0692244
0.0726539
-0.00359926
-0.00456236
0.0575337
0.0123954
0.0121618
0.0114234
0.0110143
0.0109287
0.0119028
0.0132242
0.0103548
0.00647067
0.00798142
0.00840038
0.00562631
0.000781887
0.00792871
0.0491499
0.0552879
0.0348342
0.0432744
0.04547
0.00110243
-0.00613042
-0.00677274
-0.00866836
0.0110606
0.0108895
0.0104716
0.00989642
0.00948392
0.00908252
0.00889445
0.00697497
0.0056961
0.00783741
0.00814063
0.00629007
0.000413858
-0.00094504
-0.00312701
-0.00535564
-0.00419386
0.00175831
0.00202502
-0.0056712
-0.00596543
-0.00632253
-0.0070644
0.00991544
0.00988855
0.00949297
0.00889742
0.00835121
0.00768693
0.00686823
0.00595446
0.00501567
0.00743345
0.00798524
0.00175718
7.14712e-06
-0.0014443
-0.0030145
-0.00409098
-0.00438954
-0.00467625
-0.00530821
-0.00539272
-0.0054728
-0.0056565
-0.00603046
0.00887724
0.00879297
0.00852882
0.0079328
0.0073948
0.0067855
0.00606791
0.00649394
0.00763404
0.00654536
0.00298806
0.00106607
-2.0436e-05
-0.00119879
-0.00239852
-0.00331557
0.00203212
0.00748421
0.00599229
-0.00340569
-0.00497482
-0.00517693
-0.00537787
0.00793484
0.00773398
0.0074967
0.00703801
0.00656106
0.00599982
0.00634197
0.00814287
0.00727593
0.00524593
0.00187471
0.000954779
3.08783e-06
-0.000985732
-0.00196024
-0.00248721
0.00602243
0.0085847
0.00830234
0.00694449
-0.00456569
-0.00472615
-0.00488221
0.00711269
0.00689506
0.00661711
0.00625755
0.00582649
0.00530832
0.00564656
0.00775277
0.00664665
0.00264547
0.00168197
0.000875097
4.34427e-05
-0.000803433
-0.00163226
-0.00239774
-0.00187599
0.00552861
0.00929253
-0.000277483
-0.00419807
-0.00429204
-0.00440471
0.00642731
0.00630893
0.0059001
0.00557285
0.00517967
0.00474184
0.00453451
0.00421287
0.00332569
0.00220726
0.00152562
0.000816942
9.00739e-05
-0.000641622
-0.00135498
-0.00203081
-0.00266584
-0.00304881
-0.00296329
-0.00371993
-0.00377464
-0.00384261
-0.00395898
0.00596253
0.00588373
0.00526275
0.00496464
0.00461522
0.00421384
0.00370853
0.00314909
0.00258121
0.00199964
0.00139535
0.000771125
0.000135458
-0.000498092
-0.00111393
-0.00169682
-0.00223638
-0.00270122
-0.00304004
-0.00323594
-0.00334833
-0.00343889
-0.003563
0.00578253
0.00531528
0.00469213
0.00442365
0.00411001
0.00374106
0.00330378
0.00283294
0.00233461
0.00181724
0.00128143
0.000731607
0.00017599
-0.000374896
-0.000908768
-0.00141266
-0.00187459
-0.00227402
-0.00258547
-0.0028043
-0.00296344
-0.00309205
-0.00319605
0.00526991
0.00474434
0.00418285
0.00394225
0.00366033
0.00332954
0.00295616
0.00254642
0.00210956
0.00165276
0.00117975
0.000696216
0.000209564
-0.000271423
-0.000736524
-0.00117494
-0.00157604
-0.00192655
-0.00221285
-0.00243274
-0.00260214
-0.00273519
-0.00283694
0.00481468
0.00412943
0.00373171
0.00351508
0.00326274
0.00297251
0.00264666
0.00228892
0.00190603
0.001504
0.00108762
0.000662626
0.000235731
-0.000185416
-0.000592309
-0.000976051
-0.00132788
-0.00163864
-0.00190044
-0.00211174
-0.00227955
-0.00241075
-0.00250888
0.00440554
0.00370546
0.00333421
0.00313617
0.00291143
0.00265644
0.00237109
0.00205827
0.00172275
0.00136956
0.00100353
0.00063009
0.000255275
-0.000114253
-0.000471354
-0.000808727
-0.00111928
-0.00139634
-0.00163468
-0.00183279
-0.00199335
-0.00211939
-0.0022129
0.00407354
0.00374238
0.00297492
0.00279703
0.00259883
0.00237527
0.00212568
0.00185212
0.00155822
0.00124826
0.000926752
0.000598632
0.0002693
-5.54638e-05
-0.000369624
-0.000667141
-0.000942274
-0.00118988
-0.00140607
-0.00158919
-0.00173982
-0.00185895
-0.00194746
0.0038048
0.00363553
0.00264138
0.00249101
0.00231959
0.00212502
0.00190728
0.00166823
0.00141092
0.00113907
0.000856757
0.000568441
0.000278891
-6.87909e-06
-0.000283745
-0.000546666
-0.000790926
-0.00101239
-0.00120791
-0.00137573
-0.00151541
-0.0016269
-0.00171037
0.00352129
0.00332242
0.00234595
0.00221917
0.00207192
0.00190316
0.00171351
0.0015047
0.00127945
0.00104104
0.000793161
0.000539761
0.000285044
3.33515e-05
-0.000210945
-0.000443605
-0.000660696
-0.000858792
-0.00103521
-0.00118819
-0.00131685
-0.00142057
-0.00149915
0.0032044
0.00246404
0.00209253
0.00198196
0.00185446
0.00170775
0.0015424
0.00135986
0.00116254
0.000953381
0.000735642
0.000512833
0.000288632
6.67944e-05
-0.000148944
-0.000354991
-0.000548033
-0.000725176
-0.000884087
-0.00102309
-0.0011411
-0.00123729
-0.00131125
0.00219515
0.0019587
0.00187276
0.00177619
0.00166485
0.00153667
0.00139205
0.00123212
0.00105901
0.000875295
0.000683878
0.000487842
0.000290389
9.47557e-05
-9.58631e-05
-0.000278417
-0.000450098
-0.000608438
-0.000751403
-0.000877441
-0.00098543
-0.00107449
-0.00114413
0.00184494
0.00175806
0.00168259
0.00159771
0.00150001
0.00138745
0.00126043
0.00111986
0.000967614
0.000805979
0.000637503
0.000464882
0.000290886
0.000118294
-5.01739e-05
-0.000211928
-0.000364589
-0.000506051
-0.000634549
-0.000748685
-0.000847389
-0.000929804
-0.00099544
0.00165407
0.0015796
0.00151569
0.00144221
0.0013566
0.0012575
0.00114545
0.0010214
0.000887091
0.000744571
0.00059607
0.000443928
0.000290527
0.000138232
-1.06531e-05
-0.000153946
-0.000289638
-0.000415946
-0.000531354
-0.000634632
-0.00072481
-0.000801096
-0.000863025
0.00147921
0.00142036
0.00136834
0.00130651
0.00123198
0.00114448
0.00104507
0.000935062
0.000816132
0.000690146
0.000559042
0.000424835
0.000289551
0.000155183
2.36581e-05
-0.000103203
-0.000223724
-0.000336413
-0.000439992
-0.000533403
-0.000615798
-0.000686466
-0.000744984
0.0013191
0.00127713
0.00123825
0.00118868
0.00112429
0.00104635
0.000957356
0.00085916
0.000753396
0.000641722
0.000525806
0.000407351
0.000288059
0.000169579
5.34986e-05
-5.86878e-05
-0.000165607
-0.000266037
-0.000358924
-0.000443385
-0.000518697
-0.000584243
-0.000639635
0.00117226
0.0011466
0.00112544
0.00108905
0.00103239
0.000961134
0.0008803
0.000791943
0.000697476
0.000598259
0.00049568
0.000391139
0.000286039
0.000181706
7.94304e-05
-1.95923e-05
-0.000114269
-0.00020363
-0.000286836
-0.000363179
-0.00043206
-0.000492951
-0.000545495
0.00103911
0.00102639
0.00103399
0.00101091
0.000954448
0.000886049
0.000811432
0.000731465
0.00064688
0.000558676
0.000467941
0.000375801
0.000283381
0.00019174
0.000101879
1.47319e-05
-6.88674e-05
-0.000148187
-0.000222597
-0.000291561
-0.000354607
-0.000411286
-0.000461257
0.000916079
0.00108366
0.00264812
0.00328626
0.00110973
0.00081588
0.000747287
0.00067545
0.000600067
0.000521902
0.000441872
0.000360911
0.000279933
0.000199759
0.000121151
4.47993e-05
-2.87009e-05
-9.88469e-05
-0.000165217
-0.000227447
-0.000285192
-0.00033808
-0.000385756
0.000801469
0.0017423
0.00460675
0.00459724
0.00253782
0.000745843
0.000685191
0.000622193
0.00055582
0.000487049
0.000416837
0.000346066
0.000275502
0.000205779
0.000137459
7.10117e-05
6.8073e-06
-5.4874e-05
-0.000113821
-0.000169855
-0.000222772
-0.000272271
-0.000317949
0.000700086
0.00171341
0.00461904
0.00460777
0.0027363
0.00067539
0.000625909
0.000571685
0.00051375
0.000453613
0.000392373
0.00033091
0.000269876
0.000209753
0.000150924
9.36598e-05
3.81176e-05
-1.56423e-05
-6.76306e-05
-0.00011788
-0.000166366
-0.000212876
-0.0002569
0.000621395
0.00106533
0.00427817
0.00432053
0.00156382
0.000614052
0.000572638
0.000524954
0.000473942
0.00042129
0.000368078
0.000315082
0.000262797
0.000211555
0.000161567
0.000112919
6.55713e-05
1.93686e-05
-2.59412e-05
-7.06555e-05
-0.000115011
-0.000158948
-0.000201761
0.000581233
0.00068348
0.0010964
0.00103174
0.000628034
0.00056795
0.00052672
0.000482056
0.00043596
0.000389513
0.000343418
0.000298141
0.000253946
0.000210989
0.000169316
0.000128854
8.93964e-05
5.05854e-05
1.19068e-05
-2.72844e-05
-6.76583e-05
-0.000109504
-0.000151773
0.000582651
0.00068535
0.000679041
0.000628008
0.000576536
0.000529795
0.0004845
0.00044061
0.000398157
0.000357134
0.000317577
0.000279502
0.000242904
0.000207758
0.000173976
0.000141377
0.000109648
7.82755e-05
4.64841e-05
1.318e-05
-2.30696e-05
-6.34419e-05
-0.000106276
0.000633619
0.000735497
0.000690152
0.000612748
0.000543913
0.000487166
0.00043874
0.00039615
0.000357684
0.000322248
0.00028919
0.000258119
0.000228807
0.000201095
0.000174833
0.000149823
0.000125746
0.000102041
7.77601e-05
5.13448e-05
2.00742e-05
-1.9677e-05
-6.49176e-05
0.000748833
0.000798212
0.000675662
0.000569057
0.000489568
0.000429217
0.000382129
0.000343848
0.000311276
0.000282506
0.000256441
0.000232475
0.00021028
0.000189673
0.000170544
0.000152793
0.000136243
0.000120482
0.000104649
8.69673e-05
6.2821e-05
2.25216e-05
-2.83274e-05
0.00084491
0.000798995
0.000603004
0.000483112
0.000405143
0.000351683
0.000314036
0.000285504
0.000262088
0.000241767
0.000223532
0.000206895
0.000191647
0.000177739
0.000165224
0.00015423
0.000144891
0.000137207
0.000130931
0.000124476
0.000109661
6.8024e-05
2.06868e-06
0.000978236
0.000691898
0.00046947
0.000367025
0.000306072
0.000273841
0.00025669
0.000244472
0.000233573
0.000223165
0.000213118
0.00020351
0.000194528
0.000186437
0.000179598
0.000174515
0.000171794
0.000172095
0.000176867
0.000187178
0.000184588
0.000144228
2.91688e-05
0.000725433
8.99059e-05
0.000184407
0.00018801
0.000185132
0.000189145
0.00019466
0.00019707
0.000196442
0.000193894
0.000190263
0.000186141
0.000182015
0.00017836
0.000175736
0.000174903
0.000176849
0.000182892
0.000197687
0.000241068
0.000338862
0.000267595
6.53282e-05
776.984
777.115
777.011
776.71
778.549
778.559
778.4
778.096
396.644
396.59
395.24
392.797
2.54165
2.44978
2.39962
2.273
0.639882
0.661479
0.723633
0.742033
0.627643
0.628733
0.823538
0.824683
0.632713
0.537846
0.394013
0.519134
0.129687
0.0249663
-0.00765023
-0.0010399
-0.00894102
-0.00832604
-0.00759045
-0.00706473
-0.00707787
-0.00686704
-0.00646722
-0.00602289
-0.00603108
-0.00588296
-0.00564169
-0.00531748
-0.00539116
-0.00533919
-0.00525133
-0.00302182
-0.00493974
-0.00497025
-0.00500191
-0.00500727
-0.00450977
-0.00457157
-0.00463675
-0.00472699
-0.00408759
-0.00413764
-0.00415221
-0.0041449
-0.0036625
-0.00370432
-0.00372025
-0.00369532
-0.0032612
-0.0032953
-0.00332482
-0.00334914
-0.00289761
-0.00292631
-0.00294689
-0.0029583
-0.00256407
-0.00258868
-0.00260394
-0.00261003
-0.00226319
-0.00228521
-0.00229794
-0.00230174
-0.00199391
-0.00201438
-0.00202613
-0.00202958
-0.00175385
-0.00177346
-0.0017852
-0.00178947
-0.00154032
-0.00155952
-0.00157179
-0.0015775
-0.00135058
-0.00136962
-0.00138267
-0.00139007
-0.00118194
-0.00120095
-0.00121488
-0.00122401
-0.00103194
-0.00105097
-0.00106576
-0.00107654
-0.000898381
-0.000917437
-0.000933012
-0.000945276
-0.000779312
-0.00079838
-0.000814627
-0.000828175
-0.000673032
-0.000692082
-0.000708878
-0.000723503
-0.00057805
-0.000597049
-0.000614269
-0.000629768
-0.00049305
-0.000511969
-0.000529501
-0.000545686
-0.000416871
-0.00043569
-0.000453439
-0.000470146
-0.000348483
-0.000367201
-0.000385093
-0.000402186
-0.000286978
-0.000305615
-0.000323606
-0.000340974
-0.000231565
-0.000250177
-0.000268249
-0.000285803
-0.000181581
-0.000200272
-0.000218441
-0.000236099
-0.000136546
-0.000155483
-0.000173782
-0.000191438
-9.62771e-05
-0.000115675
-0.000134118
-0.000151571
-6.13238e-05
-8.12093e-05
-9.95922e-05
-0.000116394
-3.37303e-05
-5.3331e-05
-7.06233e-05
-8.57886e-05
-1.76153e-05
-3.6286e-05
-4.98672e-05
-6.04775e-05
1.50985e-05
-2.86043e-06
-1.58156e-05
-2.49348e-05
775.629
774.473
773.285
771.936
769.711
765.767
763.431
763.054
762.498
761.785
756.661
749.217
749.994
756.856
754.141
752.466
744.517
747.25
750.777
777.292
775.295
771.407
767.649
763.446
758.065
750.791
744.763
744.802
754.158
756.763
755.531
751.938
744.595
733.337
728.373
730.17
724.72
719.194
386.947
377.037
369.088
360.543
353.11
347.019
340.555
330.978
317.089
303.062
298.099
292.979
281.447
264.981
252.944
246.779
245.483
241.007
240.862
2.02487
1.67586
1.64314
1.88272
1.85921
1.53109
1.15474
0.949372
0.88562
0.754488
0.707971
0.644105
0.602139
0.660586
0.707174
0.714449
0.704948
0.720388
0.720512
0.746619
0.750243
0.764814
1.42997
1.62745
1.54464
1.5568
1.60449
1.59914
1.59186
1.57871
1.30829
0.645659
1.10615
1.27462
1.27971
1.27701
1.28759
1.28989
0.788416
0.747084
0.772158
0.799491
0.946442
1.05773
0.963159
0.830749
0.745736
0.660797
0.448533
0.260564
0.499053
0.484059
0.537907
0.597124
0.538902
0.632842
0.623405
0.51658
0.495185
0.482824
0.398409
0.179002
0.0228546
0.00888468
0.0123857
0.0151356
0.0173214
0.0205325
0.0239843
0.023694
0.0205436
0.0180385
0.0170972
0.020027
0.0543172
0.0828473
0.00132883
0.00326759
0.00113534
-0.0025784
0.000415143
0.00437076
0.00845565
0.0388797
0.0636377
0.0700581
0.083886
0.0821956
0.0334492
0.0168307
0.0158644
0.0151659
0.0149162
0.0143026
0.0144012
-0.00627776
-0.004745
-0.00346566
-0.00232662
0.000212898
0.0033102
0.0516774
0.0999946
0.100402
0.101638
0.103741
0.105656
0.0480746
0.0161689
0.0143092
0.0136248
0.0133957
0.0132763
0.0134771
-0.00442998
-0.000920268
0.000258555
-0.001695
-0.000280297
0.0191117
0.101792
0.101491
0.0458248
0.0377402
0.0840059
0.10476
0.0470576
0.0504222
0.0184599
0.0122671
0.0121819
0.0122248
0.0123749
0.00791235
0.0344976
0.0314918
0.00106304
-0.000991345
0.0271632
0.0681368
0.0169609
0.00394887
0.00593983
0.00674126
0.0167196
0.0602687
0.0622171
0.0475201
0.0110938
0.0112104
0.01122
0.0112861
0.0214256
0.0362832
0.0371796
0.0382536
0.0150612
0.00239323
-0.00253136
-0.00140069
0.00377925
0.0124005
0.010831
0.00598158
0.0378051
0.0630956
0.0443154
0.010476
0.0104884
0.0103946
0.0103416
0.00235599
0.0321912
0.0386423
0.0393827
0.0145653
-0.00241838
-0.00202473
-0.00107278
0.00206332
0.00378591
0.00169946
0.00268478
0.00347975
0.00455869
0.0275438
0.0360664
0.0273365
0.00975334
0.00948291
-0.00490429
-0.00224184
0.00707283
0.00125543
-0.00328874
-0.00240948
-0.00176543
-0.000974354
-0.000200843
0.000636137
0.00151279
0.00237838
0.00320395
0.00582922
0.028394
0.0361078
0.0368987
0.03729
0.0244548
-0.00424959
-0.00448724
-0.00433906
-0.00376273
-0.00296303
-0.00223993
-0.00160172
-0.000904149
-0.000185017
0.000557269
0.00132033
0.0020774
0.00280014
0.00348194
0.00614798
0.0200602
0.0231453
0.0143388
0.0135078
-0.00368901
-0.00359353
-0.00332474
-0.0030137
-0.00259392
-0.00203138
-0.00145835
-0.000845655
-0.000202411
0.000453089
0.00111646
0.0017723
0.00240456
0.00299602
0.00351825
0.00402597
0.00459246
0.00517858
0.00500384
-0.00335952
-0.00290002
-0.00245681
-0.00210851
-0.0017897
-0.00176645
-0.00132782
-0.000793038
-0.000226831
0.000348524
0.000901871
0.00146096
0.00200109
0.00251916
0.00301627
0.00353748
0.00409417
0.00499163
0.01013
-0.0029578
-0.0028112
-0.0021532
-0.00173797
-0.00136486
-0.00108792
-0.00122515
-0.00075088
-0.000159526
0.000364943
0.000736091
0.00114552
0.00159341
0.0020186
0.00242559
0.00284012
0.00326993
0.0141015
0.0395711
-0.00260202
-0.00253761
-0.00239674
-0.00192443
-0.00131363
-0.00126219
-0.00111941
-0.000702558
-0.000147275
0.000256903
0.000652626
0.000838773
0.00117768
0.00148855
0.00175358
0.00196869
0.00244226
0.0278654
0.0396248
-0.00229178
-0.00223044
-0.00210792
-0.00192172
-0.00167924
-0.0013923
-0.00107798
-0.000696671
-0.000266862
0.000116938
0.000361074
0.000543088
0.00077671
0.000971415
0.00108502
0.00108988
0.001235
0.0256164
0.0398808
-0.002021
-0.00196756
-0.0018643
-0.00171062
-0.00151228
-0.00127888
-0.00102276
-0.000755291
-0.000485083
-0.000220176
2.88808e-05
0.000247437
0.00041727
0.000514483
0.000510845
0.000358004
4.72983e-05
0.00358636
0.0403998
-0.00178417
-0.00174082
-0.00165638
-0.00153152
-0.00137103
-0.00118237
-0.000975036
-0.000758556
-0.000541611
-0.000333166
-0.000144169
1.13813e-05
0.000115865
0.000145335
8.37175e-05
-0.00013222
-0.000502497
-0.000994363
0.0137968
-0.00157638
-0.0015438
-0.00147709
-0.00137762
-0.00124952
-0.00109886
-0.000933271
-0.000760921
-0.000589988
-0.00042919
-0.000288789
-0.000181234
-0.000119096
-0.000122521
-0.000207544
-0.000403131
-0.000696573
-0.000940816
-0.000854552
-0.0013934
-0.0013714
-0.00132094
-0.00124373
-0.00114343
-0.00102513
-0.000895155
-0.000760489
-0.00062848
-0.000506888
-0.000404587
-0.000331272
-0.000297032
-0.000312904
-0.000387425
-0.000525017
-0.000691663
-0.000744159
-0.000507628
-0.00123167
-0.00121955
-0.00118367
-0.00112589
-0.00104947
-0.000958706
-0.000858979
-0.000756186
-0.000656667
-0.000567075
-0.000494438
-0.000445872
-0.000427867
-0.000445064
-0.00049735
-0.000573562
-0.000627358
-0.0005567
-0.000255415
-0.0010882
-0.00108501
-0.00106203
-0.00102109
-0.000965101
-0.000897794
-0.000823659
-0.000747689
-0.000675187
-0.000611576
-0.000562165
-0.00053172
-0.000523515
-0.000537765
-0.000568571
-0.000596914
-0.000574433
-0.000435105
0.00332184
-0.000960493
-0.000965208
-0.000953477
-0.000927048
-0.000888511
-0.000841092
-0.000788571
-0.000735121
-0.000685079
-0.000642691
-0.000611784
-0.000595204
-0.000593883
-0.000605385
-0.000621374
-0.000621966
-0.000565158
-0.000405809
0.00967282
-0.000846469
-0.000858049
-0.000856021
-0.000842014
-0.000818321
-0.000787724
-0.00075342
-0.000718863
-0.000687536
-0.000662664
-0.000646841
-0.000641455
-0.000645875
-0.00065634
-0.000664411
-0.000653695
-0.000592541
-0.000442803
0.00991093
-0.000744391
-0.00076184
-0.000768091
-0.000764631
-0.000753489
-0.000737068
-0.000718076
-0.000699363
-0.000683693
-0.00067344
-0.000670198
-0.000674235
-0.000683808
-0.000694386
-0.000698004
-0.000682045
-0.000623644
-0.000486888
0.010145
-0.000652797
-0.000675184
-0.000688409
-0.000693813
-0.000693192
-0.000688637
-0.00068246
-0.000677023
-0.000674512
-0.000676621
-0.000684141
-0.000696424
-0.000710742
-0.00072166
-0.000720717
-0.000695761
-0.000626374
-0.000483879
0.00392652
-0.000570447
-0.000596912
-0.000615913
-0.000628654
-0.000636734
-0.000642003
-0.000646466
-0.000652123
-0.000660731
-0.00067348
-0.000690553
-0.000710546
-0.000729763
-0.000741472
-0.000735171
-0.000694755
-0.000594463
-0.000413878
-0.000147256
-0.000496278
-0.000526025
-0.000549691
-0.000568361
-0.000583482
-0.000596731
-0.000609905
-0.000624768
-0.000642813
-0.000664928
-0.000690931
-0.000718923
-0.000744452
-0.000759536
-0.000751255
-0.000698391
-0.000567875
-0.000346346
0.00281964
-0.000429373
-0.000461654
-0.000488933
-0.000512202
-0.000532812
-0.000552335
-0.000572458
-0.000594837
-0.000620871
-0.000651385
-0.00068614
-0.000723145
-0.000757713
-0.000781289
-0.000779714
-0.000729328
-0.000593765
-0.00036121
0.0120911
-0.000368936
-0.000403029
-0.000432891
-0.00045947
-0.000484076
-0.000508246
-0.000533646
-0.000561938
-0.000594602
-0.000632633
-0.000676081
-0.000723341
-0.000770178
-0.000808342
-0.000823709
-0.000792525
-0.000676733
-0.000453596
0.0123177
-0.000314275
-0.000349443
-0.000380843
-0.000409442
-0.000436573
-0.000463795
-0.000492817
-0.000525406
-0.000563257
-0.000607757
-0.000659574
-0.000718012
-0.000780019
-0.000838452
-0.000879842
-0.000880478
-0.000796994
-0.000579368
0.012546
-0.000264782
-0.000300226
-0.000332055
-0.000361354
-0.00038953
-0.000418206
-0.000449168
-0.000484333
-0.0005257
-0.000575211
-0.00063447
-0.000704222
-0.000783423
-0.000866982
-0.000942964
-0.000987339
-0.000947248
-0.000734279
0.0127524
-0.000219916
-0.000254694
-0.000285741
-0.000314364
-0.000342099
-0.000370627
-0.000401796
-0.000437659
-0.000480525
-0.000532967
-0.000597751
-0.000677538
-0.000774206
-0.000886223
-0.00100505
-0.00110338
-0.00112326
-0.000917075
0.0100073
-0.000179158
-0.000212087
-0.000240996
-0.000267533
-0.000293363
-0.000320175
-0.000349796
-0.00038432
-0.000426265
-0.000478763
-0.000545776
-0.000632278
-0.000743656
-0.000884692
-0.00105319
-0.00120613
-0.00131608
-0.00113435
0.00565585
-0.000141924
-0.000171439
-0.0001967
-0.000219749
-0.000242303
-0.00026593
-0.000292286
-0.000323319
-0.000361528
-0.000410317
-0.00047455
-0.000561252
-0.000680034
-0.000843571
-0.00106365
-0.00130678
-0.00156244
-0.00143463
0.00602967
-0.00010738
-0.000131354
-0.000151334
-0.000169584
-0.000187655
-0.000206786
-0.000228248
-0.000253583
-0.000284887
-0.000325255
-0.000379563
-0.000455724
-0.000566344
-0.000731871
-0.000989123
-0.00137022
-0.00190303
-0.0018463
0.00575747
-7.37911e-05
-8.97023e-05
-0.000103101
-0.000115692
-0.000128512
-0.000142241
-0.000157555
-0.000175308
-0.000196744
-0.000223861
-0.000260145
-0.000311989
-0.000391037
-0.00051985
-0.000758423
-0.00126909
-0.0022263
-0.00254731
0.00484506
-3.4343e-05
-4.37268e-05
-5.17263e-05
-5.98133e-05
-6.83991e-05
-7.75924e-05
-8.74509e-05
-9.80637e-05
-0.000109634
-0.000122641
-0.000138241
-0.000159277
-0.000192615
-0.000254572
-0.000392622
-0.00077875
-0.0018704
-0.00315182
0.00234603
)
;

boundaryField
{
    leftWall
    {
        type            fixedFluxPressure;
        gradient        uniform 0;
        value           nonuniform List<scalar> 
50
(
747.814
747.753
747.646
747.487
747.277
747.015
746.703
746.343
745.719
710.376
202.322
0.716532
1.19256
0.539178
0.0157839
0.0137273
0.0123954
0.0110606
0.00991544
0.00887724
0.00793484
0.00711269
0.00642731
0.00596253
0.00578253
0.00526991
0.00481468
0.00440554
0.00407354
0.0038048
0.00352129
0.0032044
0.00219515
0.00184494
0.00165407
0.00147921
0.0013191
0.00117226
0.00103911
0.000916079
0.000801469
0.000700086
0.000621395
0.000581233
0.000582651
0.000633619
0.000748833
0.00084491
0.000978236
0.000725433
)
;
    }
    rightWall
    {
        type            fixedFluxPressure;
        gradient        uniform 0;
        value           nonuniform List<scalar> 
50
(
751.504
751.491
750.955
750.833
750.696
751.436
751.485
751.217
750.777
719.194
240.862
0.720512
1.28989
0.623405
0.0828473
0.0144012
0.0134771
0.0123749
0.0112861
0.0103416
0.00948291
0.0244548
0.0135078
0.00500384
0.01013
0.0395711
0.0396248
0.0398808
0.0403998
0.0137968
-0.000854552
-0.000507628
-0.000255415
0.00332184
0.00967282
0.00991093
0.010145
0.00392652
-0.000147256
0.00281964
0.0120911
0.0123177
0.012546
0.0127524
0.0100073
0.00565585
0.00602967
0.00575747
0.00484506
0.00234603
)
;
    }
    lowerWall
    {
        type            fixedFluxPressure;
        gradient        uniform 0;
        value           nonuniform List<scalar> 
62
(
747.814
748.092
748.565
749.25
750.131
751.191
752.412
753.774
755.253
756.822
758.452
760.112
761.768
763.379
764.901
766.3
767.579
768.764
769.873
770.781
771.635
772.427
772.854
772.854
772.929
773.049
773.271
773.601
774.026
774.546
775.203
776.984
777.115
777.011
776.71
771.291
771.306
771.368
772.021
773.419
773.715
774.09
774.584
771.291
771.453
771.031
770.104
768.829
767.207
765.522
763.699
761.737
759.683
757.921
756.667
755.37
754.148
753.423
752.935
752.267
751.84
751.504
)
;
    }
    atmosphere
    {
        type            totalPressure;
        rho             rho;
        psi             none;
        gamma           1;
        p0              uniform 0;
        value           nonuniform List<scalar> 
46
(
-9.15325e-05
0
0
0
0
0
0
0
0
0
0
0
0
0
0
0
0
0
0
0
0
-4.19083e-07
-1.88777e-06
-3.6494e-06
-5.07502e-06
-6.7186e-06
-8.56919e-06
-1.21206e-05
-1.79183e-05
-2.45807e-05
-3.19827e-05
-3.99856e-05
-4.84299e-05
-5.71298e-05
-6.58674e-05
-7.43867e-05
-8.23875e-05
-8.95173e-05
-9.53551e-05
-9.93735e-05
-0.000100834
-9.85081e-05
-8.98646e-05
-6.91249e-05
-2.18935e-05
0
)
;
    }
    defaultFaces
    {
        type            empty;
    }
}


// ************************************************************************* //
