/*--------------------------------*- C++ -*----------------------------------*\
  =========                 |
  \\      /  F ield         | OpenFOAM: The Open Source CFD Toolbox
   \\    /   O peration     | Website:  https://openfoam.org
    \\  /    A nd           | Version:  9
     \\/     M anipulation  |
\*---------------------------------------------------------------------------*/
FoamFile
{
    format      ascii;
    class       surfaceScalarField;
    location    "21.95";
    object      phi;
}
// * * * * * * * * * * * * * * * * * * * * * * * * * * * * * * * * * * * * * //

dimensions      [0 3 -1 0 0 0 0];

internalField   nonuniform List<scalar> 
1300
(
11.2529
1.87548
-4.19173
11.2529
-4.98304
1.87548
-4.23471
4.23471
-1.18791
1.18791
5.7123
5.54056
-2.37105
2.37105
-2.81559
2.81559
-2.86033
2.86033
-1.06194
1.06194
-1.02826
1.02826
0.693249
-0.693249
-3.41215
3.41215
-1.45652
1.45652
-2.90077
2.90077
6.1281
-6.1281
-3.25406
3.25406
-0.744032
0.744032
-4.26321
15.5161
6.98965
6.98965
-2.37138
2.37138
-1.25397
1.25397
1.41034
-1.41034
9.09051
-9.09051
-4.89878
-5.91184
1.90438
-14.0081
-3.07866
-3.07866
-2.7054
2.7054
-0.829928
1.04555
3.47677
-3.47677
-0.757866
0.757866
-4.32106
0.0863457
-4.32106
4.01791
0.216801
4.01791
-1.32921
0.141296
-1.32921
4.67468
-4.67468
1.07618
0.111733
1.07618
3.92809
-3.92809
-5.71006
11.4224
5.5428
-5.32064
20.8367
-5.93222
11.4728
-3.91298
3.91298
-2.28792
-0.0831322
-2.28792
2.37214
-0.00108326
2.37214
-4.00959
4.00959
-2.6046
-0.210987
-2.6046
2.91708
-0.101498
2.91708
3.66624
-3.66624
-2.91635
0.0560156
-2.91635
2.70866
0.151677
2.70866
0.771042
1.10443
-2.64652
3.69207
-1.10443
0.0424987
1.02614
0.0357986
1.02614
-1.01454
-0.0137258
-1.01454
1.04984
-0.0215811
1.04984
0.730406
-0.037157
0.730406
-0.754911
0.0616616
-0.754911
-8.58561
-8.9848
-3.53922
0.127069
-3.53922
-1.4745
0.0179825
-1.4745
1.49272
-0.0361995
1.49272
-2.53314
2.53314
-3.24203
0.341263
-3.24203
4.80635
1.32175
4.80635
5.04612
6.20674
16.299
-16.299
10.1709
-2.97096
-0.283098
-2.97096
-3.42281
-5.6677
3.42281
-0.16875
-0.805827
0.0617948
-0.805827
5.62659
1.36306
5.62659
2.58648
0.122178
-2.58648
0.215094
4.62545
-4.62545
1.42346
0.947928
1.42346
-1.19154
1.19154
1.12337
-0.0735298
-1.12337
-0.130597
1.38601
0.0243319
1.38601
-1.40975
-0.00059575
-1.40975
7.31594
-13.2278
-7.79637
3.22062
0.19153
-3.22062
0.141964
3.5635
-0.086728
3.5635
-3.30973
3.30973
-3.61096
0.134191
-3.61096
-0.682802
-0.075064
-0.682802
0.842907
-0.0850407
0.842907
-4.57021
0.24915
-4.57021
-3.6819
0.439871
3.6819
0.336013
1.25217
-1.25217
-1.43699
0.107782
-1.43699
-4.65465
0.0844457
4.65465
0.0200276
-4.76942
0.0947421
-4.76942
-3.71251
0.101544
3.71251
0.215584
4.58934
1.03725
-4.58934
0.661253
-5.36948
11.5762
-5.88338
11.4262
-3.52839
-0.384588
-3.52839
4.10491
-0.191924
4.10491
2.56299
0.337777
-2.56299
0.275068
2.49873
-0.126591
2.49873
-3.95513
-0.0544528
-3.95513
3.81088
0.198703
3.81088
2.53908
-0.0403501
-2.53908
-0.0655218
2.89395
0.023138
2.89395
3.67216
-0.00592129
3.67216
-3.53931
-0.126931
-3.53931
3.17904
-3.17904
3.08069
0.0983453
-3.08069
0.164346
-5.07402
5.07343
-0.00799944
-5.06602
1.01814
1.01814
0.769452
-0.039046
0.769452
-0.86179
0.106879
-0.86179
8.33412
-16.1305
8.80085
-17.3865
7.53131
-21.5394
8.08668
-17.0715
3.82741
-3.82741
3.75911
0.0682931
-3.75911
0.219892
-1.45629
-0.0182044
-1.45629
-2.29471
-0.238426
-2.29471
2.86721
-0.334079
2.86721
-3.74211
3.74211
-4.12479
0.382677
4.12479
0.681565
2.95734
-0.0633921
-2.95734
-0.0136238
0.924447
0.151735
-0.924447
0.11862
4.86245
-0.236999
4.86245
-4.08471
-0.54074
-4.08471
-1.47515
0.0188516
1.47515
-0.0516913
-1.25894
0.0674089
-1.25894
-5.0745
0.00847757
-5.0387
-1.40127
-1.40127
1.30414
4.9962
-3.58557
0.046264
3.58557
-0.0220756
3.52708
0.215033
-3.52708
0.217349
-3.26333
0.0842923
3.26333
0.0463998
-0.660268
-0.0225346
-0.660268
-1.03607
1.03607
-0.91867
-0.117403
0.91867
-0.0757629
1.40809
-0.155917
1.40809
1.47091
0.0218042
-1.47091
0.03392
-5.00917
0.239744
-5.00917
4.11489
-0.00997991
4.11489
-3.94873
-0.135989
3.94873
-0.276564
-0.0037229
5.07715
-1.01441
-0.000120265
1.01441
-5.10148
5.10136
-0.66562
0.0053518
0.66562
0.103833
1.02966
0.161877
-1.02966
0.167868
3.85092
-0.0400399
-3.85092
0.0235141
-2.0123
-0.282408
-2.0123
-3.19614
-0.332251
3.19614
-0.328929
-5.11518
-0.0779387
5.19312
-5.13676
1.33688
0.0491261
-1.33688
5.15049
-1.14531
-0.106856
1.14531
-0.109241
1.60716
-0.199073
1.60716
5.1193
-0.256847
-5.1193
0.110133
-4.13091
0.175776
4.13091
-0.016022
-1.77914
-0.233163
1.77914
-0.171979
-13.1281
14.4911
7.70865
-6.2834
-6.94437
-11.9511
4.4471
7.12912
14.618
-11.7878
-9.75165
-11.6458
2.86006
-2.6922
-3.72838
3.69122
23.5841
-23.4893
-18.3992
19.0808
20.777
-20.5614
5.70885
5.71352
15.8056
-15.8887
-20.9577
20.5731
15.3617
-15.5727
22.0945
-22.149
-25.8402
25.8002
-16.0935
16.1495
-20.2939
20.167
-21.0568
20.7802
-8.3236
-9.06286
16.5021
-16.3751
20.0162
-20.2993
-19.3355
19.6767
10.0475
4.44359
11.0848
-6.24673
11.9556
-5.22604
12.9347
8.31875
-16.6424
7.81174
-14.7561
9.06502
10.9512
-8.89627
-3.05484
-17.9698
17.8831
-17.2571
17.3035
24.1011
-24.0147
-6.17283
11.8863
-5.25335
12.3825
-11.409
-6.99021
10.0873
4.53073
8.97379
7.52836
-9.16532
-2.48048
-24.7955
24.5386
-25.6581
25.1173
0.100093
2.42599
-2.52608
1.35406
-0.862578
3.28857
1.99749
2.10437
2.45271
-2.29083
0.239491
-2.76557
-2.89617
-5.34269
5.45047
5.15975
-5.04802
16.5379
7.04619
16.5579
-16.7451
-6.7442
-16.5054
11.3637
7.71705
11.7464
12.0616
8.71536
12.1632
10.359
-10.3317
-0.0273337
-11.4776
21.8367
1.55466
-18.4679
-13.9371
8.81889
6.98673
8.81781
-9.86126
-6.02748
-9.5862
-11.0482
-9.90952
-11.3804
12.3584
8.21468
12.1665
-15.3555
15.3395
9.26414
6.09755
9.16264
-8.94424
-6.62844
-9.00976
27.4882
-6.66409
-20.8241
-13.2063
-12.6339
13.0076
9.0869
14.3507
11.4495
14.3742
8.91093
18.5773
-17.9978
5.36396
-9.94734
-6.14616
-9.78299
9.25862
6.89089
9.41029
-11.7666
-8.52732
-11.7203
-11.9865
-9.07022
11.9925
8.1745
-12.5337
-13.1244
12.6696
8.11056
7.85202
-17.6037
9.21946
-18.2823
-10.9619
-5.41322
-10.742
10.8045
6.65399
-17.4585
-5.83789
23.6488
-12.6977
20.594
-10.9042
-9.3951
-10.9178
-14.7707
-4.56479
-14.3308
-8.01054
7.72813
-8.84809
8.51401
26.9018
-16.2372
-10.6647
-12.3783
-8.18307
11.7171
-0.632329
-12.8358
12.8084
-0.880196
12.0545
16.4981
15.8658
-10.8803
-6.37684
-10.6629
10.2703
7.0332
10.3546
16.0812
8.01989
16.298
-16.8035
-7.2112
-16.5544
4.8462
-4.92127
5.71458
-5.69573
15.5777
9.53963
-15.3407
-9.45481
22.9323
-10.7755
-12.1568
-5.12002
5.21569
-0.0956624
-1.83146
-0.477395
0.266637
-1.93121
-1.79717
1.86955
0.234816
5.4505
3.65333
-2.41436
2.48177
2.77876
2.70523
-0.190944
2.50083
-2.49548
18.9135
-11.4412
-7.47229
13.9608
-13.8763
-2.59361
-19.3219
16.7283
2.68158
3.00528
-2.94349
-3.9498
-1.39289
-3.91588
2.95364
2.20611
3.10537
2.10785
3.34263
-8.10722
1.56409
6.54313
-5.99937
-3.48392
-13.3472
-6.27152
19.6187
16.6753
7.86335
-16.7854
0.280038
5.29449
-5.33068
-1.59611
-11.7511
8.35326
-9.94937
-15.2198
-6.4599
21.6797
-9.58081
-1.08213
9.36578
2.38063
-10.8772
-7.09256
10.743
1.42015
-12.0645
23.9708
-11.9063
-18.4413
8.5158
13.3209
16.2328
-17.8628
9.31884
8.54393
-4.54191
7.40993
1.40788
7.28334
-19.8896
13.8621
11.29
8.38676
-11.6278
2.04156
-17.848
25.1606
-22.2791
-2.88154
12.8122
12.3485
13.5749
13.327
-7.80248
21.3774
-3.61884
-18.6602
21.4669
-13.0801
15.7816
-28.8617
-29.1086
10.4484
-17.986
22.0997
-4.11373
-5.21317
-10.1424
23.1992
-2.01416
-21.185
10.1523
-13.9263
-11.8289
25.7552
-20.5904
18.4573
-6.26533
-12.192
-12.6966
-9.45236
12.5208
2.81867
-25.8565
31.2204
-7.27921
7.80148
1.36116
7.82462
10.6131
-15.9712
5.35804
9.97731
-16.2426
6.76466
-22.7358
-12.168
24.1841
-12.0162
-17.5812
-15.8077
-1.77349
4.8635
26.3569
-16.313
12.1072
4.20581
8.46194
1.89268
-8.56029
-1.2227
0.968379
16.0873
-17.0556
10.3787
10.5008
11.7057
4.38157
10.7701
7.11297
-10.748
-0.972298
-14.7924
5.72222
-6.61794
-14.5735
20.2957
-16.2678
1.69425
-10.3032
-13.991
24.2941
-16.4493
11.4256
12.5452
18.4588
-19.615
5.62405
-9.74654
-9.86847
10.6437
-17.2616
7.49781
12.7979
15.6084
2.48397
12.7576
11.4266
-19.4115
1.12923
18.9549
-16.4744
3.90031
10.4739
-16.0075
0.199781
-10.5422
2.64643
-15.3441
-14.812
16.5215
-21.0863
-12.3403
13.5415
2.75653
-13.8775
-0.453337
-4.96596
-3.04457
-5.19913
-3.28778
-5.56031
-11.0903
-1.92939
-9.16086
5.79874
-6.70741
-4.67302
7.03634
1.47767
-4.94395
4.83709
-5.59178
5.39271
-0.210183
13.0186
15.6556
7.47252
-8.47672
15.9492
-15.5971
23.617
-29.7222
14.1251
15.9514
-23.1626
-13.7708
2.70423
2.14197
2.61919
13.4693
-14.4289
0.959577
-13.2949
17.6267
-4.33179
-19.6087
6.3138
-6.13938
5.18775
0.52683
5.16955
1.41676
6.84669
-8.26344
-4.27897
-4.33066
-9.16245
-13.8592
23.0216
4.73718
-13.1058
8.36857
-12.0644
16.8016
0.0796786
-13.1854
16.987
-10.1403
17.5138
-11.9848
5.52906
12.792
22.3479
-9.55591
16.2474
-6.70775
7.06661
-16.6225
-6.79257
-11.2888
18.1797
-13.0054
14.6996
-1.12402
15.8236
-13.7783
3.00285
-2.07261
8.42824
8.64333
16.8089
-12.4273
11.9705
-18.6782
-4.65206
-16.1942
-3.39633
1.02591
-13.8352
12.8093
12.0595
-11.0336
-3.24451
8.99398
-5.74948
5.68748
-2.85021
-2.83727
-1.84815
-3.07312
1.87068
0.630146
6.31763
0.489877
-3.34009
-2.0056
-1.90177
10.378
8.53543
-3.83445
3.73879
3.56782
-0.562534
0.959181
2.14619
4.59022
-3.63104
0.678678
3.91154
-2.26481
3.82892
1.46556
-3.85073
-0.0651551
-3.40875
11.762
3.13437
-5.34049
1.70945
2.3794
-13.8206
19.7432
-11.4189
-8.32431
22.1226
3.05964
-14.4786
16.2623
-13.5807
8.10082
-14.3723
-6.37774
-19.9585
-12.9123
-10.7109
19.0794
-12.3108
20.1741
3.85964
-20.4541
24.3138
-12.7416
6.28174
-9.44589
10.9115
-4.05998
-5.38591
11.2682
10.4115
-11.0546
-0.696475
0.213593
8.42256
-8.20897
-1.52681
-7.52618
-16.4088
17.829
-8.25576
17.5746
7.69348
-7.63396
25.2086
6.56502
-14.199
-11.8763
-12.9584
-5.65505
10.5778
-1.79608
-7.21367
-13.9881
7.25402
0.0293123
-19.0371
22.0289
-2.9918
-12.0503
-1.81178
14.6239
-18.0807
1.83808
-11.3161
10.7128
12.1207
12.15
-20.8754
-0.309568
-12.6608
3.17855
-15.8393
15.527
-6.80934
17.2577
-16.0457
11.3727
-14.568
14.3762
-1.46315
14.7531
-9.39503
6.07102
-15.5234
-12.7047
14.4555
-8.35799
15.8167
-10.118
25.9347
-17.3972
14.4043
11.5304
-2.71977
-8.19803
-13.9675
11.2477
0.436802
8.26142
17.8371
-10.7242
16.8648
8.92413
-18.6707
-8.33751
-25.8597
7.18901
-13.3145
-7.3565
14.5455
11.1023
12.995
4.67704
-11.7723
17.7959
-19.5694
-5.77973
-9.03229
14.5798
-3.33207
10.1594
-19.1917
-5.18468
13.1133
-0.181368
-12.9319
3.12385
-15.4641
5.1203
-20.5844
15.9659
-16.4193
1.77317
-7.91256
-3.17078
-3.28002
-2.17713
-3.41466
-7.58032
5.40319
-1.26652
3.57058
-12.5377
12.3563
-5.08901
10.4922
-4.06654
-1.13259
4.23852
1.1542
11.6464
3.03174
-16.8025
-9.26389
14.6341
-5.37019
1.11416
-10.8034
3.83064
8.09564
14.027
-24.824
1.66141
-15.1411
-4.07548
6.21745
4.91851
16.978
2.5491
6.55997
-0.34252
9.10907
2.27667
2.20091
-11.2302
12.1898
1.57909
15.7041
-1.88317
7.41223
3.28638
3.30436
2.02632
5.7231
2.92023
8.72595
0.462501
-3.86816
2.06876
-3.97052
-1.27133
-4.00957
-0.318348
3.72692
-4.04526
10.5034
-1.96792
5.13316
-1.88523
-4.93677
6.822
-9.35752
-5.49931
-1.58777
-5.61012
7.31957
6.15189
-5.73181
-3.62572
2.39371
-15.306
11.9786
-12.6751
-2.26361
22.0502
-9.46444
1.25547
-3.18269
-6.27071
-7.6636
7.72876
24.1899
1.01862
12.2836
18.8476
11.755
1.03088
11.9934
-16.1071
-10.7425
-16.4167
-0.88966
13.7343
5.6298
20.7271
17.1602
13.8282
-5.36355
-24.9329
20.7388
-8.54906
16.407
-3.47509
-17.1093
14.634
8.98306
-17.3905
0.971194
-16.1381
-24.6872
-0.339976
12.6963
-11.3064
10.1738
7.12926
2.0316
-2.42882
-0.851201
2.54622
-0.345313
8.76376
-0.187892
-8.20094
8.38883
-3.53903
2.26769
-0.431819
4.17061
6.39018
4.42226
-3.77868
-7.82395
-8.82176
-4.99882
-17.1461
2.47265
-8.62453
5.68582
-3.41812
2.84855
4.97071
10.1039
-1.601
-9.43258
7.35047
-4.50192
5.60195
)
;

boundaryField
{
    wall-4
    {
        type            calculated;
        value           uniform 0;
    }
    velocity-inlet-5
    {
        type            calculated;
        value           uniform -11.2529;
    }
    velocity-inlet-6
    {
        type            calculated;
        value           uniform -1.87548;
    }
    pressure-outlet-7
    {
        type            calculated;
        value           nonuniform List<scalar> 8(4.19173 4.98304 10.8106 12.1037 17.5704 15.1123 17.135 15.618);
    }
    wall-8
    {
        type            calculated;
        value           uniform 0;
    }
    frontAndBackPlanes
    {
        type            empty;
        value           nonuniform List<scalar> 0();
    }
}


// ************************************************************************* //
