/*--------------------------------*- C++ -*----------------------------------*\
  =========                 |
  \\      /  F ield         | OpenFOAM: The Open Source CFD Toolbox
   \\    /   O peration     | Website:  https://openfoam.org
    \\  /    A nd           | Version:  9
     \\/     M anipulation  |
\*---------------------------------------------------------------------------*/
FoamFile
{
    format      ascii;
    class       volScalarField;
    location    "6.37";
    object      alpha.water;
}
// * * * * * * * * * * * * * * * * * * * * * * * * * * * * * * * * * * * * * //

dimensions      [0 0 0 0 0 0 0];

internalField   nonuniform List<scalar> 
2268
(
1
1
0.999999
0.999999
1
0.999999
0.999999
0.999999
0.999998
0.999999
1
1
1
1
1
1
1
1
0.998424
0.99671
0.996936
0.99883
0.998833
0.999999
0.999999
0.999998
0.999999
1
0.999999
0.999998
0.999998
0.999998
0.999999
1
1
1
1
1
0.999995
0.999987
1
0.999207
0.997695
0.999781
0.999993
0.999993
0.999998
0.999998
0.999998
0.999999
1
1
0.999999
0.999999
0.999999
1
1
1
1
1
1
0.99997
0.999899
1
0.999994
0.999931
0.999993
0.999993
0.999985
0.999999
0.999998
0.999999
0.999999
1
1
1
1
1
1
1
1
1
1
1
0.999918
0.9985
0.999658
0.999994
0.999994
0.999994
0.999715
0.999986
1
1
1
1
1
1
1
1
1
1
1
1
1
1
1
1
0.996125
0.982825
0.988923
0.993654
0.989791
0.999507
0.999999
1
1
1
1
1
1
1
1
1
1
1
1
1
1
1
1
0.996896
0.980286
0.980279
0.980278
0.982033
0.999491
0.999999
1
1
1
1
1
1
1
1
1
1
1
1
1
1
1
1
0.999789
0.989174
0.980278
0.980278
0.993301
0.999994
0.999999
1
1
1
0.999999
0.999999
0.999999
0.999999
0.999999
0.999999
0.999999
0.999999
1
1
1
1
1
1
0.997686
0.986159
0.986586
0.999346
0.999999
0.999999
0.991366
0.995577
0.997403
0.997511
0.996524
0.992584
0.99216
0.99216
0.992169
0.991898
0.991899
0.995833
0.995169
0.995171
0.998608
0.998608
0.998608
0.998462
0.998054
0.991364
0.99973
0.999979
0.999979
0.999979
0.999979
0.999708
0.999483
0.999812
0.999771
0.998734
0.999192
0.996824
0.995177
0.998608
0.998608
0.998608
0.998608
0.99844
0.991366
0.998355
0.999959
0.999974
0.999979
0.999951
0.999951
0.999951
0.999813
0.99959
0.999589
0.999586
0.999553
0.999371
0.997234
0.998608
0.998608
0.998608
0.994681
0.99833
0.999849
0.999936
0.999936
0.999985
0.99997
0.999839
0.999672
0.998956
0.997444
0.999567
0.999586
0.999585
0.997709
0.995843
0.998608
0.998608
0.998391
0.994505
0.999996
0.999996
0.999996
0.999991
0.999991
0.999933
0.999304
0.999304
0.999953
0.995532
0.997204
0.999585
0.999585
0.963455
0.99188
0.99772
0.995001
0.995891
0.994505
0.999993
0.999996
0.999996
0.999992
0.999963
0.999915
0.999802
0.99976
0.999976
0.995738
0.966201
0.976365
0.973718
0.961396
0.991788
0.997158
0.986625
0.995616
0.995242
0.999996
0.999996
0.999996
0.999977
0.999948
0.999957
0.999977
0.999977
0.999977
0.99686
0.960149
0.960129
0.960129
0.964614
0.997259
0.998123
0.982251
0.998346
0.99845
0.999996
0.999996
0.999996
0.999996
0.999995
0.99999
0.999979
0.999554
0.998948
0.998324
0.97027
0.960129
0.960129
0.986711
0.998467
0.998118
0.98225
0.997247
0.99845
1
1
1
1
1
1
1
1
1
1
1
0.999999
0.999999
0.999999
0.999999
1
0.999994
0.999984
0.999981
0.999954
0.999946
0.999996
0.999999
0.999983
0.999984
0.99997
0.999984
1
1
1
0.999995
0.999975
0.995647
0.989269
0.983322
0.978879
0.974531
0.969533
0.964822
0.962596
0.961978
0.960919
0.957168
0.950626
0.944031
0.940915
0.49495
0.491681
0.486028
0.476614
0.462704
0.447418
0.431051
0.412808
0.39351
0.375873
0.359626
0.343961
0.326923
0.310987
0.297461
0.286585
0.277762
0.270673
0.264332
0.256679
0.249094
0.243384
0.240359
0.00428028
0.00394288
0.00388905
0.00349277
0.00356033
0.00376751
0.00315853
0.00244948
0.00206303
0.00180878
0.00150485
0.000486978
0.000486807
0.000486655
0.000486491
0.000486274
0.000485546
0.000484894
0.000484714
0.000484415
0.000484265
0.00048429
0.000484265
0.00125614
0.00140428
0.00103008
0.00124801
0.00314957
0.00370487
0.00367383
0.00403773
0.00403777
0.00403773
0.00403777
0.00403756
0.00403724
0.00390958
0.00356264
0.00311842
0.0026088
0.00205833
0.000907151
0.00106929
0.00111357
0.0011136
0.0010134
0.00078917
0.0008345
0.000571686
0.000658851
0.000429204
0.000199266
0.000366332
0.000333127
0.000378337
0.000382945
0.000363002
0.000345556
0.000227993
0.000116371
7.23709e-05
3.16024e-05
3.15977e-05
0.000259954
0.000672008
0.000398006
0.000525959
0.000620651
0.000545791
6.12269e-05
3.74241e-05
0.000121508
0.000174385
4.53135e-05
1.43548e-05
1.98689e-07
1.74092e-08
1.74095e-08
1.74092e-08
1.74263e-08
1.79698e-08
1.85705e-08
1.86449e-08
3.25223e-08
5.15252e-05
0.000100424
5.81558e-05
4.21278e-05
9.79669e-05
0.000173103
7.29618e-05
0.000107059
4.25181e-09
3.63159e-09
1.48311e-08
2.70649e-08
1.88977e-08
2.23095e-06
3.19292e-06
2.11426e-06
1.74092e-08
4.95223e-08
1.08343e-06
1.60101e-06
1.48016e-07
3.01976e-08
1.13377e-05
9.45005e-05
0.000100427
4.20801e-05
4.2052e-05
8.27846e-05
2.25195e-05
4.78369e-09
5.58228e-06
2.8003e-09
2.93261e-09
1.38693e-08
1.10509e-08
6.30477e-10
1.76503e-07
3.19292e-06
2.48518e-06
1.74612e-08
2.16537e-07
3.05246e-06
3.14088e-06
1.42102e-06
8.05478e-08
1.19369e-05
3.91205e-05
2.54817e-05
2.33293e-05
4.21866e-05
2.6771e-05
4.78369e-09
4.72451e-09
4.58872e-09
2.76481e-09
4.54707e-08
9.68615e-08
2.22648e-08
5.62994e-10
3.87196e-09
6.38582e-07
3.68275e-07
2.74483e-08
3.08061e-07
3.14238e-06
3.14307e-06
1.45293e-06
7.95379e-08
1.02418e-06
1.12373e-09
1.12362e-09
1.52244e-07
5.02662e-06
1.86239e-06
4.8079e-09
1.66282e-08
5.77966e-08
2.75844e-09
1.19369e-07
1.19384e-07
4.69426e-08
5.58083e-10
5.58087e-10
5.63886e-10
1.33044e-09
9.86464e-09
1.18382e-06
3.14295e-06
1.0425e-06
1.52695e-07
6.13555e-09
2.19235e-08
1.11912e-09
5.76258e-08
4.44944e-07
5.06535e-07
2.25705e-08
1.70843e-08
3.75341e-08
5.78379e-08
1.78118e-09
6.75572e-08
1.19379e-07
3.24213e-08
5.58087e-10
5.58083e-10
5.58142e-10
3.51559e-07
1.65533e-06
1.71466e-06
1.06143e-06
1.09024e-09
1.12217e-09
2.42863e-09
9.15607e-10
9.67374e-10
5.86444e-07
5.74405e-06
6.18004e-06
4.63948e-06
2.53513e-07
1.5387e-08
1.89293e-08
9.48469e-10
2.24668e-09
2.72853e-08
5.71033e-09
5.9698e-10
5.58142e-10
1.00151e-07
1.82107e-06
1.82107e-06
1.66214e-06
2.21411e-09
1.08905e-09
1.08853e-09
1.08594e-09
6.56567e-11
7.10619e-11
1.47984e-06
6.18004e-06
6.18004e-06
6.18004e-06
2.52646e-06
1.53678e-08
1.53555e-08
5.01304e-09
9.8064e-11
9.32974e-11
1.52841e-10
6.87598e-10
6.03143e-10
1.60579e-07
1.45907e-06
1.56993e-06
2.85592e-07
6.9376e-10
1.3694e-09
1.38211e-09
5.54867e-10
6.55894e-11
9.49748e-11
3.41568e-08
1.93955e-06
5.16794e-06
3.68795e-06
4.15094e-09
1.63102e-08
1.94498e-08
4.30559e-08
1.18003e-07
2.77914e-11
1.94141e-10
1.08935e-09
1.0706e-08
1.01811e-07
1.03208e-07
1.19407e-07
3.86324e-10
6.93757e-10
1.36832e-09
1.04634e-09
1.85132e-10
6.55874e-11
7.22338e-11
5.37768e-11
5.37768e-11
5.37768e-11
5.37843e-11
4.21463e-09
2.72118e-08
2.68888e-08
1.45399e-07
1.65356e-07
2.77416e-11
2.33892e-10
2.46639e-09
1.01253e-08
4.36309e-09
3.17435e-11
2.19879e-11
4.90218e-11
4.32492e-10
6.64219e-10
3.12181e-10
5.83549e-11
6.13921e-11
6.60079e-11
6.3688e-11
5.37768e-11
5.37768e-11
5.67284e-11
3.27117e-09
1.56065e-08
1.52761e-08
2.76448e-07
1.65391e-07
2.76719e-11
3.34314e-10
2.06033e-09
3.15352e-09
2.95591e-11
2.84231e-11
1.33249e-11
1.55658e-11
8.47166e-11
7.78914e-11
2.20593e-11
1.59092e-11
4.24242e-11
6.02712e-11
7.42197e-11
7.67334e-11
6.8014e-11
5.50501e-11
7.67215e-11
3.79128e-11
3.18609e-10
2.76464e-07
1.3491e-07
2.76199e-11
2.76988e-10
8.596e-10
2.16132e-10
2.05653e-11
2.39773e-11
5.99579e-12
1.3567e-12
2.51418e-12
1.04174e-12
1.87878e-13
1.6024e-12
1.39767e-11
3.49955e-11
5.26056e-11
5.64402e-11
5.09294e-11
3.81346e-11
2.18136e-11
9.18135e-12
2.94664e-11
2.76482e-07
9.19431e-08
2.76024e-11
1.21923e-10
1.64305e-10
2.14292e-11
8.01341e-12
8.25728e-12
5.86254e-13
-2.66585e-13
-4.119e-13
-6.72902e-13
-6.6912e-13
-9.13903e-14
9.20818e-13
5.95296e-12
1.18516e-11
1.29966e-11
1.2184e-11
1.04548e-11
7.51079e-12
3.84613e-12
2.14026e-12
2.76501e-07
1.06845e-07
2.76011e-11
3.5071e-11
3.18461e-11
6.99322e-12
8.66177e-13
4.4453e-13
-4.81661e-13
-1.1192e-12
-1.36961e-12
-1.40148e-12
-1.24631e-12
-8.85535e-13
-4.00448e-13
9.01991e-14
3.38034e-13
3.95473e-13
3.75623e-13
3.72255e-13
3.72731e-13
3.46351e-13
3.17195e-13
2.76503e-07
2.58698e-07
2.76015e-11
2.76012e-11
2.79644e-11
5.70233e-12
2.01948e-31
-3.1539e-13
-9.45774e-13
-1.37097e-12
-1.53084e-12
-1.49091e-12
-1.32287e-12
-1.06859e-12
-7.82074e-13
-5.01429e-13
-3.24025e-13
-2.25465e-13
-1.626e-13
-1.06535e-13
-5.61331e-14
-1.46513e-14
-1.63224e-15
2.76503e-07
2.76498e-07
2.76011e-11
3.03907e-11
3.52207e-11
5.94514e-12
-1.76242e-14
-3.89683e-13
-8.33002e-13
-1.11368e-12
-1.20922e-12
-1.16816e-12
-1.04256e-12
-8.71207e-13
-6.87908e-13
-5.16757e-13
-3.80052e-13
-2.79175e-13
-2.03718e-13
-1.45515e-13
-9.96957e-14
-6.40166e-14
-3.81291e-14
2.76503e-07
2.26651e-07
2.76015e-11
5.23515e-11
6.3573e-11
7.89078e-12
6.30421e-13
4.31208e-14
-2.87214e-13
-5.40448e-13
-6.67989e-13
-6.89928e-13
-6.41631e-13
-5.54022e-13
-4.51236e-13
-3.50842e-13
-2.63323e-13
-1.92359e-13
-1.3769e-13
-9.73844e-14
-6.79781e-14
-4.62675e-14
-2.993e-14
1.7314e-07
2.89468e-08
2.76056e-11
1.34061e-10
1.07182e-10
1.3966e-11
3.74704e-12
2.53536e-12
1.29742e-12
3.76686e-13
-8.09985e-14
-2.34332e-13
-2.88839e-13
-2.79791e-13
-2.41213e-13
-1.93518e-13
-1.47518e-13
-1.07265e-13
-7.53232e-14
-5.19211e-14
-3.5657e-14
-2.43269e-14
-1.61318e-14
3.08896e-09
8.14186e-11
1.24207e-10
2.35212e-10
1.45755e-10
2.49024e-11
1.14874e-11
9.39551e-12
6.47993e-12
3.51278e-12
1.39322e-12
3.09376e-13
-3.88655e-14
-1.03109e-13
-1.07127e-13
-9.13283e-14
-7.1963e-14
-5.24703e-14
-3.61671e-14
-2.40668e-14
-1.5896e-14
-1.05236e-14
-6.96859e-15
7.45933e-11
8.12123e-11
2.19365e-10
2.49205e-10
1.53376e-10
3.81134e-11
2.41578e-11
2.10091e-11
1.58505e-11
9.83613e-12
4.73598e-12
1.61993e-12
3.01551e-13
-1.06423e-14
-3.9892e-14
-3.79437e-14
-3.16435e-14
-2.33023e-14
-1.5781e-14
-1.01133e-14
-6.3433e-15
-3.96235e-15
-2.52625e-15
7.45933e-11
8.1328e-11
2.17594e-10
2.39747e-10
1.37761e-10
4.91175e-11
3.92499e-11
3.51972e-11
2.73998e-11
1.85832e-11
9.61575e-12
3.45414e-12
7.23205e-13
4.66829e-14
-1.26151e-14
-1.43476e-14
-1.28596e-14
-9.60354e-15
-6.41342e-15
-3.96876e-15
-2.35864e-15
-1.36992e-15
-8.0413e-16
7.46888e-11
7.02139e-11
1.53594e-10
1.60921e-10
9.09618e-11
5.35113e-11
5.07857e-11
4.81932e-11
3.85469e-11
2.74007e-11
1.47519e-11
5.16044e-12
8.95769e-13
5.30723e-14
-3.26264e-15
-5.15202e-15
-4.95193e-15
-3.73891e-15
-2.45105e-15
-1.46029e-15
-8.23374e-16
-4.48799e-16
-2.4422e-16
8.99399e-11
5.14952e-11
5.42251e-11
5.31612e-11
5.2674e-11
5.34258e-11
5.37368e-11
5.47813e-11
4.72586e-11
3.40351e-11
1.85596e-11
5.97083e-12
8.73839e-13
3.76535e-14
-4.27583e-16
-1.80569e-15
-1.83352e-15
-1.3841e-15
-8.83471e-16
-5.06422e-16
-2.74781e-16
-1.44796e-16
-7.47031e-17
2.14175e-10
5.09428e-11
5.09398e-11
5.0942e-11
5.09443e-11
5.17926e-11
5.34285e-11
5.53379e-11
5.05695e-11
3.69449e-11
1.97975e-11
5.94225e-12
6.945e-13
1.55973e-14
9.86054e-35
-6.31228e-16
-6.62534e-16
-4.91487e-16
-3.02896e-16
-1.67032e-16
-8.73743e-17
-4.41528e-17
-2.1704e-17
1.02859e-09
2.82803e-09
3.68252e-08
8.52532e-08
5.09443e-11
5.17706e-11
5.18155e-11
5.52937e-11
5.05309e-11
3.70298e-11
1.94307e-11
5.20166e-12
4.02586e-13
4.13486e-15
7.05326e-19
-2.26626e-16
-2.35797e-16
-1.68775e-16
-9.94068e-17
-5.23948e-17
-2.62934e-17
-1.27712e-17
-5.99951e-18
1.05947e-09
1.18482e-07
7.58875e-07
8.10457e-07
1.62372e-07
4.87707e-11
4.8766e-11
5.44149e-11
4.92081e-11
3.55053e-11
1.71906e-11
3.62602e-12
1.71418e-13
8.37928e-16
1.45126e-19
-8.36352e-17
-8.28642e-17
-5.61779e-17
-3.12124e-17
-1.55775e-17
-7.41137e-18
-3.42279e-18
-1.50947e-18
1.06013e-09
2.45996e-07
8.30324e-07
8.30351e-07
4.1755e-07
1.3189e-10
4.87397e-11
5.21407e-11
4.57869e-11
3.10904e-11
1.28768e-11
1.94468e-12
5.3226e-14
1.25212e-16
-1.89349e-18
-3.16838e-17
-2.86579e-17
-1.80531e-17
-9.30954e-18
-4.31452e-18
-1.91377e-18
-8.2707e-19
-3.37996e-19
1.06119e-09
1.77626e-07
8.30344e-07
8.30342e-07
3.2471e-07
1.25177e-10
4.87043e-11
4.87053e-11
4.01926e-11
2.42573e-11
7.87948e-12
7.59497e-13
1.07168e-14
1.16186e-17
-5.05389e-18
-1.20954e-17
-9.65807e-18
-5.53964e-18
-2.59994e-18
-1.09397e-18
-4.46937e-19
-1.77151e-19
-6.60354e-20
1.35444e-09
3.49246e-08
4.94718e-07
4.56928e-07
6.47655e-08
1.49105e-10
5.08286e-11
4.45322e-11
3.22588e-11
1.61772e-11
3.6588e-12
1.90342e-13
1.14947e-15
4.96629e-19
-3.26074e-18
-4.52028e-18
-3.13892e-18
-1.60458e-18
-6.70394e-19
-2.49737e-19
-9.22164e-20
-3.29065e-20
-1.09935e-20
2.71675e-09
1.92768e-09
5.30064e-09
2.02505e-09
1.17991e-10
1.13871e-10
6.11492e-11
3.87043e-11
2.25731e-11
8.4139e-12
1.11412e-12
2.52435e-14
5.32232e-17
5.8389e-21
-1.58894e-18
-1.6463e-18
-9.80742e-19
-4.36305e-19
-1.57834e-19
-5.05297e-20
-1.64447e-20
-5.1744e-21
-1.51708e-21
2.96501e-09
1.88465e-09
6.11747e-10
2.53162e-10
1.51435e-10
1.12629e-10
5.87562e-11
2.90879e-11
1.2468e-11
2.89792e-12
1.78231e-13
1.40364e-15
8.86223e-19
-1.68652e-19
-7.26115e-19
-5.88437e-19
-2.96155e-19
-1.11781e-19
-3.38837e-20
-8.97581e-21
-2.48784e-21
-6.71358e-22
-1.68039e-22
2.36936e-09
1.96523e-09
1.10402e-09
5.64401e-10
2.92369e-10
1.27045e-10
4.85452e-11
1.69786e-11
4.54104e-12
5.12411e-13
1.12783e-14
2.63278e-17
3.96596e-21
-2.02425e-19
-3.18816e-19
-2.0746e-19
-8.73414e-20
-2.73199e-20
-6.69805e-21
-1.40002e-21
-3.14524e-22
-6.98901e-23
-1.43513e-23
5.89292e-10
1.12692e-09
1.00585e-09
6.573e-10
3.32206e-10
1.25364e-10
3.41049e-11
6.84624e-12
8.42381e-13
3.34979e-14
2.11599e-16
1.46419e-19
-1.73257e-20
-1.29803e-19
-1.34782e-19
-7.25016e-20
-2.5587e-20
-6.55228e-21
-1.26373e-21
-1.97741e-22
-3.32874e-23
-5.67807e-24
-8.94707e-25
1.14979e-11
1.77048e-10
4.66531e-10
4.39292e-10
2.62812e-10
9.51113e-11
1.79292e-11
1.62943e-12
6.06281e-14
6.00708e-16
1.06307e-18
1.9844e-22
-3.33758e-20
-6.96091e-20
-5.53199e-20
-2.52298e-20
-7.55799e-21
-1.5876e-21
-2.38075e-22
-2.66835e-23
-3.00102e-24
-3.46564e-25
-3.69747e-26
-2.70538e-26
4.36318e-12
6.78108e-11
1.27346e-10
9.93873e-11
3.86796e-11
5.41949e-12
1.99101e-13
1.55256e-15
3.06038e-18
1.78899e-21
-4.58838e-21
-2.55088e-20
-3.39717e-20
-2.21971e-20
-8.77945e-21
-2.27358e-21
-3.97478e-22
-4.64811e-23
-3.60617e-24
-2.35372e-25
-1.46718e-26
-8.11471e-28
-1.67513e-26
1.04059e-14
1.86157e-12
8.48618e-12
9.24009e-12
4.25182e-12
4.89163e-13
8.01802e-15
1.39556e-17
6.41696e-21
2.03182e-24
-6.1391e-21
-1.53729e-20
-1.56169e-20
-8.75971e-21
-3.07187e-21
-7.04493e-22
-1.05985e-22
-1.00442e-23
-5.453e-25
-1.65043e-26
-3.07942e-28
-4.02765e-30
0.999943
0.999886
0.999834
0.999878
0.941055
0.941448
0.941882
0.941896
0.2389
0.239106
0.24052
0.243192
0.00048461
0.000484031
0.000484026
0.000484199
0.000685623
0.000484031
0.000484029
0.000484037
0.000498557
0.000582637
0.000724944
0.000725041
0.000500747
0.000537616
0.000354242
0.000351021
5.77087e-05
4.94379e-05
4.40954e-09
4.40936e-09
4.43094e-09
4.41063e-09
4.40923e-09
4.86839e-09
6.32351e-08
3.57502e-08
4.41063e-09
4.4137e-09
4.01057e-08
4.41836e-09
4.41369e-09
4.47421e-09
1.7485e-08
4.41944e-09
4.41836e-09
4.69611e-09
1.46896e-08
5.69449e-09
4.64678e-09
6.61467e-09
1.69311e-08
8.48738e-09
4.69492e-09
7.50059e-09
5.39015e-09
1.45204e-09
7.87779e-09
4.87018e-08
1.44315e-09
1.44282e-09
6.46488e-09
3.53807e-08
1.70028e-09
2.42692e-09
2.12892e-09
2.66143e-10
1.70061e-10
2.01965e-10
5.35071e-11
7.18279e-13
1.37281e-12
4.39465e-13
4.84476e-13
7.60396e-13
3.07894e-13
3.12418e-13
3.27755e-13
3.32682e-13
2.49746e-16
6.40591e-15
1.11499e-14
1.2394e-14
-2.12501e-14
-1.65554e-14
-1.28657e-14
-1.00597e-14
-1.80868e-14
-1.45646e-14
-1.1918e-14
-9.88831e-15
-9.96149e-15
-7.84144e-15
-6.24854e-15
-5.09612e-15
-4.40391e-15
-3.37586e-15
-2.56319e-15
-1.97269e-15
-1.64465e-15
-1.24175e-15
-9.21953e-16
-6.64548e-16
-5.42822e-16
-4.01727e-16
-2.95816e-16
-2.08526e-16
-1.69883e-16
-1.20802e-16
-8.55453e-17
-5.92445e-17
-5.12718e-17
-3.50912e-17
-2.37481e-17
-1.58663e-17
-1.45468e-17
-9.6326e-18
-6.26782e-18
-4.01286e-18
-3.87187e-18
-2.4614e-18
-1.53395e-18
-9.37637e-19
-9.29295e-19
-5.62684e-19
-3.33646e-19
-1.93736e-19
-1.96658e-19
-1.123e-19
-6.27135e-20
-3.42468e-20
-3.58742e-20
-1.90787e-20
-9.9034e-21
-5.01793e-21
-5.49266e-21
-2.67821e-21
-1.2713e-21
-5.87681e-22
-6.83699e-22
-2.99563e-22
-1.2735e-22
-5.25654e-23
-6.6526e-23
-2.54904e-23
-9.43756e-24
-3.38028e-24
-4.8014e-24
-1.54693e-24
-4.79363e-25
-1.43125e-25
-2.3728e-25
-6.03725e-26
-1.47194e-26
-3.44681e-27
-6.896e-27
-1.23695e-27
-2.12938e-28
-3.52555e-29
-8.15192e-29
-8.01949e-30
-7.71269e-31
-7.26056e-32
-9.07682e-32
-2.02847e-33
-4.6569e-35
-1.13168e-36
0.999975
0.999994
0.999995
0.999996
0.998386
0.993476
0.991292
0.993539
0.996952
0.998308
0.997975
0.985764
0.986179
0.998162
0.998467
0.997627
0.98225
0.991205
0.99845
0.938419
0.940499
0.943977
0.946681
0.950611
0.953655
0.952799
0.950131
0.95578
0.977487
0.998368
0.99837
0.99837
0.99837
0.997874
0.99746
0.997448
0.996846
0.995661
0.249208
0.256726
0.264344
0.275109
0.289401
0.307669
0.32857
0.348954
0.36418
0.374588
0.394189
0.422891
0.440353
0.445089
0.446384
0.455101
0.469076
0.469166
0.473007
0.000561605
0.000549645
0.000547882
0.000569693
0.000514554
0.000484197
0.000484152
0.000484147
0.000484941
0.000636096
0.000813257
0.00081474
0.000816551
0.00141997
0.0021454
0.00266497
0.00286373
0.00325214
0.00440021
0.000569471
0.000549118
0.000548047
0.00119947
0.00145155
0.00145166
0.00145166
0.00145166
0.00145165
0.00145157
0.00145137
0.00119409
0.000987489
0.00110263
0.00120264
0.00120592
0.00119215
0.00120042
0.00133373
0.000725063
0.000725068
0.000724956
0.000615303
0.000762784
0.000849015
0.000758958
0.000706893
0.000711201
0.000702928
0.000654732
0.000624666
0.000648562
0.000662962
0.000698756
0.00072782
0.000703531
0.000618171
0.000721413
0.000386309
0.000408125
0.000382918
0.000306893
0.000100303
7.30566e-09
7.30566e-09
7.30566e-09
1.41929e-08
4.76292e-08
1.02959e-07
1.62697e-07
9.63173e-06
2.31761e-05
4.13435e-05
4.06578e-05
5.65011e-05
0.000113249
4.11619e-05
4.40954e-09
4.40992e-09
4.41191e-09
4.41511e-09
4.43244e-09
7.47194e-09
1.06913e-07
1.27054e-05
3.33682e-05
3.85015e-05
4.07069e-05
2.42748e-05
2.37487e-06
5.25032e-07
5.20388e-07
5.20344e-07
5.20387e-07
5.20404e-07
5.20795e-07
4.62552e-09
4.71957e-09
4.82872e-09
5.11543e-09
6.34827e-09
5.94288e-08
1.98723e-05
6.06515e-05
6.06886e-05
6.07247e-05
6.07247e-05
6.07247e-05
6.55569e-06
5.20457e-07
5.20406e-07
5.20351e-07
5.20326e-07
5.20326e-07
5.20328e-07
9.65512e-08
9.68351e-07
1.71258e-06
5.12761e-09
6.61656e-09
5.9927e-06
5.46588e-05
6.06526e-05
4.61181e-05
3.32929e-05
6.07133e-05
6.07247e-05
1.79663e-05
1.62729e-05
6.08702e-07
5.20325e-07
5.20326e-07
5.20326e-07
5.20326e-07
2.25109e-06
1.6924e-05
2.05935e-05
4.67941e-06
2.23598e-08
1.20025e-05
5.01067e-05
3.24711e-05
1.04533e-06
5.1177e-06
1.13825e-05
2.68797e-05
3.21206e-05
3.21206e-05
2.26076e-05
5.20325e-07
5.20325e-07
5.20326e-07
5.20326e-07
6.71661e-06
2.12751e-05
2.12751e-05
2.12751e-05
1.07804e-05
5.33043e-06
4.13653e-06
6.18402e-09
1.03975e-06
1.05729e-05
1.13965e-05
8.3527e-06
2.10785e-05
3.01234e-05
2.74154e-05
6.28537e-06
5.20326e-07
5.20326e-07
5.20326e-07
1.49174e-06
1.56088e-05
2.12751e-05
2.12629e-05
1.60735e-05
6.81977e-07
2.94066e-09
4.56193e-09
1.19693e-06
2.9362e-06
2.14813e-06
1.86459e-10
1.8683e-10
2.68213e-10
8.86012e-06
1.50357e-05
1.24032e-05
2.30434e-06
5.20326e-07
1.09465e-08
8.04501e-07
7.358e-06
6.80373e-06
1.1081e-09
1.10748e-09
8.92506e-09
4.33281e-08
1.38326e-08
1.86137e-10
1.86074e-10
1.86182e-10
1.86459e-10
2.45789e-10
6.69528e-06
1.5038e-05
1.5038e-05
1.5038e-05
1.28764e-05
5.85674e-08
1.74693e-09
1.63779e-09
1.57237e-09
1.56354e-09
1.5321e-09
6.5551e-09
1.51662e-08
5.16159e-09
1.86074e-10
3.37105e-10
2.18268e-10
2.64569e-10
1.22322e-09
5.08345e-07
6.48779e-06
1.02841e-05
6.79831e-06
4.24446e-06
5.88425e-08
8.23047e-08
1.13833e-07
8.25533e-08
1.12514e-08
2.20717e-10
2.20038e-10
2.01938e-10
2.01907e-10
6.23687e-10
8.51673e-10
4.86465e-10
2.67838e-09
6.99756e-09
1.29893e-09
6.09265e-12
6.09206e-12
6.09551e-12
6.83305e-12
1.66884e-11
1.17443e-07
2.7473e-07
2.74734e-07
2.09026e-07
2.99948e-08
2.04806e-10
2.08264e-10
1.13691e-09
3.37077e-09
1.12525e-09
3.93801e-10
1.20885e-10
4.17792e-11
2.69221e-11
2.69144e-11
2.16832e-11
2.0247e-10
1.75589e-11
5.19396e-13
2.22809e-08
2.06535e-07
2.74714e-07
2.74686e-07
2.57651e-07
2.04726e-10
1.23904e-09
2.93614e-08
5.30592e-08
2.55499e-08
1.35285e-09
6.00768e-11
1.49954e-10
1.4069e-10
8.44552e-11
5.29476e-10
1.78017e-07
2.22068e-06
5.19303e-13
1.97192e-14
9.74128e-19
8.44323e-08
2.18416e-07
1.52291e-07
1.96285e-08
7.41844e-09
6.98689e-08
7.3445e-08
7.3445e-08
1.37691e-08
5.99463e-11
1.02679e-10
1.18641e-10
4.85815e-11
1.2624e-09
3.25348e-06
1.34857e-05
1.99026e-13
3.93677e-14
6.60997e-19
4.93211e-35
3.31013e-19
9.32336e-18
4.50386e-10
1.87299e-08
5.73137e-08
7.3445e-08
6.37909e-08
1.56778e-08
5.98251e-11
5.98213e-11
3.8947e-11
1.21496e-11
5.45313e-10
6.75072e-06
1.34857e-05
9.955e-15
3.8037e-15
7.40103e-16
-1.13229e-16
8.10417e-19
1.08163e-18
9.54793e-18
4.55828e-17
2.60693e-15
4.42836e-09
3.86532e-09
2.79938e-13
2.51958e-10
3.7278e-11
1.04714e-11
3.00228e-12
1.10274e-12
6.04609e-06
1.34857e-05
-7.96063e-15
-3.9581e-15
-1.96088e-15
-5.42275e-16
4.17132e-16
1.79641e-14
6.08629e-14
7.72401e-14
7.72346e-14
7.73404e-14
7.75738e-14
2.79711e-13
1.00494e-12
3.27376e-12
2.67494e-12
1.72443e-12
1.10194e-12
1.41394e-06
1.34855e-05
-8.20065e-15
-4.98174e-15
-2.94172e-15
-1.63568e-15
-7.62865e-16
-8.00922e-17
8.61421e-16
4.11313e-14
2.64906e-13
4.15082e-13
4.14111e-13
1.17069e-12
1.82348e-12
9.49238e-13
5.82681e-13
1.30739e-12
1.10193e-12
1.10194e-12
1.08007e-05
-4.22333e-15
-2.67606e-15
-1.66757e-15
-1.01966e-15
-6.04886e-16
-3.37301e-16
-1.52868e-16
0
2.81361e-15
3.98601e-14
8.57301e-14
2.24513e-13
6.0696e-13
2.08034e-13
1.83582e-13
1.09667e-12
1.10191e-12
1.10206e-12
1.10228e-12
-1.56717e-15
-9.77532e-16
-6.05015e-16
-3.70807e-16
-2.23716e-16
-1.35548e-16
-8.01508e-17
-4.16095e-17
-2.37359e-18
1.28293e-16
8.55062e-16
2.87794e-15
7.51836e-15
1.60684e-14
5.81442e-14
1.04217e-12
1.69907e-12
1.18466e-12
1.14353e-12
-4.72958e-16
-2.8412e-16
-1.68536e-16
-9.98031e-17
-5.96839e-17
-3.59616e-17
-2.14235e-17
-1.19082e-17
-4.64884e-18
4.13116e-18
4.11391e-17
2.10377e-16
1.06378e-15
5.22198e-15
3.55658e-14
1.07494e-12
3.45191e-12
1.18562e-12
1.43868e-09
-1.23015e-16
-6.9557e-17
-4.0089e-17
-2.33783e-17
-1.36506e-17
-7.87508e-18
-4.42368e-18
-2.18126e-18
-5.09156e-19
2.85042e-18
2.0859e-17
1.15858e-16
6.76349e-16
3.6894e-15
3.00143e-14
1.12193e-12
4.26834e-12
1.18595e-12
1.43233e-06
-3.01279e-17
-1.55801e-17
-8.30275e-18
-4.50781e-18
-2.44863e-18
-1.21959e-18
-4.16745e-19
1.3421e-20
6.21865e-19
3.80994e-18
1.95083e-17
1.03083e-16
5.95136e-16
3.26027e-15
2.92205e-14
1.20754e-12
4.36118e-12
1.19059e-12
2.74666e-06
-7.11133e-18
-3.25427e-18
-1.53433e-18
-7.31398e-19
-3.04327e-19
1.66124e-20
7.12951e-19
4.01278e-18
1.50617e-17
4.05437e-17
9.17083e-17
2.09564e-16
7.23805e-16
3.47666e-15
3.9258e-14
1.06772e-12
4.36007e-12
1.19223e-12
2.74676e-06
-1.64073e-18
-6.69624e-19
-2.752e-19
-9.89142e-20
8.21863e-20
1.60055e-18
9.87311e-18
4.44115e-17
1.57645e-16
4.43457e-16
9.95278e-16
2.02042e-15
5.09989e-15
1.74843e-14
9.50258e-14
1.03095e-12
4.20212e-12
1.193e-12
2.52308e-06
-3.54434e-19
-1.3132e-19
-4.68445e-20
4.8039e-21
7.77161e-19
8.17552e-18
5.40414e-17
2.66113e-16
1.02414e-15
3.09205e-15
7.3859e-15
1.72332e-14
4.99024e-14
1.57925e-13
4.42417e-13
1.56964e-12
4.42597e-12
1.19406e-12
1.22381e-07
-6.76431e-20
-2.29267e-20
-6.33993e-21
7.14934e-20
1.88204e-18
2.68388e-17
2.26841e-16
1.23802e-15
5.23334e-15
1.8445e-14
5.77711e-14
1.81527e-13
5.00661e-13
1.16648e-12
2.10125e-12
3.51348e-12
6.01856e-12
1.19488e-12
4.43317e-08
-1.09205e-20
-3.35387e-21
-9.32654e-23
9.81204e-20
3.59628e-18
6.97676e-17
7.84067e-16
5.0515e-15
2.61714e-14
1.2274e-13
5.77807e-13
2.15061e-12
4.5292e-12
7.01529e-12
8.21567e-12
9.57047e-12
8.94915e-12
1.19611e-12
2.1086e-06
-1.43717e-21
-3.89788e-22
8.97235e-22
1.09658e-19
5.34231e-18
1.35626e-16
2.13415e-15
1.94695e-14
1.39347e-13
8.33848e-13
4.402e-12
1.46204e-11
2.51052e-11
2.98244e-11
2.70658e-11
2.97942e-11
2.75358e-11
1.21662e-12
2.79339e-06
-1.48134e-22
-3.31893e-23
6.60091e-22
1.08117e-19
6.2839e-18
1.94136e-16
4.25428e-15
6.27621e-14
5.76734e-13
3.64294e-12
1.6891e-11
4.66769e-11
7.16111e-11
7.59264e-11
6.92818e-11
8.86325e-11
1.19443e-10
1.22997e-12
2.79341e-06
-1.13764e-23
-1.48539e-24
2.89329e-22
6.93897e-20
6.36044e-18
2.16703e-16
6.05484e-15
1.37738e-13
1.4027e-12
8.52288e-12
3.34895e-11
8.12892e-11
1.12936e-10
1.14535e-10
1.24743e-10
2.21527e-10
3.4171e-10
1.26442e-12
2.79316e-06
-6.08729e-25
2.66579e-25
1.2065e-22
2.9433e-20
4.20238e-18
1.99407e-16
6.66157e-15
1.9835e-13
2.06597e-12
1.19446e-11
4.15276e-11
9.62045e-11
1.22637e-10
1.21433e-10
1.79885e-10
7.51647e-10
8.38874e-10
1.39426e-12
2.45682e-06
-2.05554e-26
8.67228e-26
3.69004e-23
1.08167e-20
1.64722e-18
9.30706e-17
5.40622e-15
2.1435e-13
2.2314e-12
1.25047e-11
4.05301e-11
8.01951e-11
1.1572e-10
6.8631e-11
2.958e-10
4.46635e-09
3.54504e-09
1.75632e-12
1.5101e-06
-3.70193e-28
1.70204e-26
6.56275e-24
2.81495e-21
5.05781e-19
2.61906e-17
1.8409e-15
1.45573e-13
1.4941e-12
7.48188e-12
1.93313e-11
3.08238e-11
5.46762e-11
5.85819e-12
6.90373e-10
1.03174e-08
9.48257e-09
3.37099e-12
1.52226e-06
-2.47403e-30
1.58139e-27
6.02652e-25
3.95422e-22
9.31996e-20
5.2282e-18
3.16855e-16
3.54373e-14
3.54068e-13
1.61775e-12
3.69506e-12
5.78595e-12
9.58503e-12
1.14373e-16
1.11615e-09
1.0577e-08
1.05738e-08
3.71938e-09
1.52543e-06
-2.95275e-33
9.46577e-32
1.10596e-26
2.55765e-23
6.74232e-21
4.56022e-19
2.88147e-17
3.31284e-15
3.18852e-14
1.37285e-13
3.03566e-13
4.88339e-13
6.87668e-13
2.83706e-20
3.66849e-10
4.70919e-09
5.25287e-09
1.49771e-22
1.5252e-06
-1.25308e-38
-1.3719e-40
4.24182e-34
1.13918e-28
3.88172e-25
1.71953e-22
5.48266e-20
7.1461e-18
5.64743e-17
2.51742e-16
6.0813e-16
9.95686e-16
4.97563e-16
-6.16298e-36
8.44926e-12
1.00974e-31
1.47989e-59
-3.25431e-47
1.31368e-06
)
;

boundaryField
{
    leftWall
    {
        type            zeroGradient;
    }
    rightWall
    {
        type            zeroGradient;
    }
    lowerWall
    {
        type            zeroGradient;
    }
    atmosphere
    {
        type            inletOutlet;
        inletValue      uniform 0;
        value           nonuniform List<scalar> 
46
(
0
1.04059e-14
1.86157e-12
8.48618e-12
9.24009e-12
4.25182e-12
4.89163e-13
8.01802e-15
1.39556e-17
6.41696e-21
2.03182e-24
-6.1391e-21
-1.53729e-20
-1.56169e-20
-8.75971e-21
-3.07187e-21
-7.04493e-22
-1.05985e-22
-1.00442e-23
-5.453e-25
0
0
0
0
0
0
0
0
0
0
0
0
0
0
0
0
0
0
0
0
0
0
0
0
0
1.31368e-06
)
;
    }
    defaultFaces
    {
        type            empty;
    }
}


// ************************************************************************* //
