/*--------------------------------*- C++ -*----------------------------------*\
  =========                 |
  \\      /  F ield         | OpenFOAM: The Open Source CFD Toolbox
   \\    /   O peration     | Website:  https://openfoam.org
    \\  /    A nd           | Version:  9
     \\/     M anipulation  |
\*---------------------------------------------------------------------------*/
FoamFile
{
    format      ascii;
    class       volScalarField;
    location    "0.7";
    object      p;
}
// * * * * * * * * * * * * * * * * * * * * * * * * * * * * * * * * * * * * * //

dimensions      [0 2 -2 0 0 0 0];

internalField   nonuniform List<scalar> 
6400
(
1.47662e-06
-0.000369149
-0.00121148
-0.00231962
-0.00349119
-0.00458257
-0.00549283
-0.00615372
-0.00652212
-0.00657367
-0.00629801
-0.0056954
-0.00477431
-0.00354991
-0.00204308
-0.000279966
0.00170832
0.00388577
0.00621156
0.00864026
0.0111222
0.0136041
0.01603
0.0183423
0.020484
0.0223999
0.0240391
0.0253574
0.0263198
0.0269029
0.0270972
0.0269098
0.0263662
0.0255126
0.0244185
0.0231793
0.0219182
0.0207916
0.019997
0.0197064
0.000373103
-1.02236e-07
-0.000671751
-0.00151863
-0.0024104
-0.0032419
-0.0039335
-0.00442734
-0.00468396
-0.00467886
-0.00439953
-0.00384301
-0.00301408
-0.00192399
-0.000589592
0.000967164
0.00271953
0.00463616
0.00668132
0.00881517
0.0109942
0.0131718
0.0152992
0.0173268
0.0192054
0.0208879
0.0223316
0.0234997
0.024364
0.0249065
0.0251219
0.0250189
0.0246223
0.0239739
0.0231336
0.0221804
0.0212111
0.0203403
0.0197025
0.0194157
0.00122273
0.000666141
-1.64661e-05
-0.000781852
-0.00155792
-0.00226541
-0.00284297
-0.0032448
-0.00343819
-0.00340191
-0.00312439
-0.00260214
-0.00183837
-0.000842114
0.000372465
0.00178644
0.0033764
0.00511461
0.00696923
0.00890453
0.0108814
0.0128578
0.01479
0.0166329
0.0183424
0.0198763
0.0211961
0.0222692
0.0230707
0.0235852
0.0238084
0.0237489
0.023429
0.0228854
0.0221698
0.0213472
0.0204959
0.0197057
0.0190626
0.0186249
0.00236452
0.00151861
0.000721309
-6.40919e-05
-0.000817986
-0.0014802
-0.00200563
-0.00236101
-0.00252179
-0.00247174
-0.00220201
-0.00171004
-0.000998747
-7.59199e-05
0.00104618
0.00235104
0.00381804
0.00542249
0.00713579
0.00892561
0.0107562
0.0125892
0.0143839
0.0160988
0.0176927
0.0191262
0.0203631
0.0213729
0.0221319
0.0226251
0.0228481
0.0228075
0.0225226
0.0220248
0.0213576
0.0205747
0.0197399
0.0189268
0.0181781
0.0174867
0.00361382
0.0024361
0.0014751
0.000618306
-0.000162699
-0.00082292
-0.00133176
-0.00166801
-0.00181555
-0.00176378
-0.00150723
-0.00104505
-0.000380476
0.000479427
0.00152388
0.00273845
0.00410498
0.00560153
0.00720239
0.00887814
0.010596
0.0123202
0.0140127
0.0156344
0.0171458
0.018509
0.0196892
0.0206563
0.0213865
0.0218644
0.0220838
0.0220491
0.0217757
0.0212898
0.0206277
0.019833
0.018958
0.018065
0.0171571
0.0161631
0.0048369
0.00331593
0.00216424
0.00120157
0.00035766
-0.000333928
-0.000854883
-0.0011949
-0.00134588
-0.00130285
-0.00106406
-0.000630681
-6.67339e-06
0.000801229
0.00178339
0.00292712
0.0042164
0.00563171
0.0071498
0.00874374
0.010383
0.012034
0.0136604
0.0152242
0.0166872
0.0180116
0.0191626
0.0201093
0.0208269
0.0212981
0.0215143
0.0214768
0.0211971
0.0206964
0.0200046
0.0191573
0.0181986
0.0171838
0.0160829
0.0147677
0.00593289
0.00407296
0.00271834
0.00162898
0.000698545
-4.77826e-05
-0.000601855
-0.000962927
-0.00113018
-0.00110396
-0.000886126
-0.000479999
0.000109576
0.000875978
0.00181048
0.00290188
0.00413604
0.0054955
0.00695916
0.00850211
0.0100957
0.0117076
0.0133026
0.0148434
0.0162914
0.0176084
0.0187584
0.0197086
0.0204319
0.0209083
0.021126
0.0210827
0.0207856
0.0202515
0.0195047
0.0185751
0.0175009
0.0163349
0.0150198
0.0133779
0.00682303
0.00463531
0.00307487
0.0018482
0.000817441
1.64305e-06
-0.000599452
-0.000993379
-0.00118575
-0.00118172
-0.000986493
-0.000605403
-4.41834e-05
0.000690598
0.00159101
0.00264717
0.00384663
0.00517377
0.00660934
0.0081301
0.00970876
0.011314
0.0129111
0.0144623
0.0159283
0.0172695
0.0184474
0.0194267
0.0201769
0.0206743
0.0209031
0.0208568
0.0205383
0.01996
0.019142
0.0181096
0.016898
0.0155605
0.0140174
0.0120476
0.00744338
0.00494105
0.00317697
0.00180886
0.00067071
-0.00022301
-0.000879592
-0.00131374
-0.00153669
-0.00155783
-0.00138531
-0.00102626
-0.000487167
0.000225519
0.00110464
0.00214159
0.00332548
0.0046424
0.00607475
0.00760072
0.00919407
0.0108241
0.0124558
0.0140509
0.0155684
0.0169663
0.0182031
0.0192398
0.0200416
0.0205801
0.0208348
0.0207942
0.0204568
0.0198307
0.0189325
0.0177842
0.0164199
0.0148962
0.0131145
0.0108138
0.00773942
0.00493539
0.00297242
0.0014628
0.000214747
-0.000760816
-0.00147722
-0.00195544
-0.00221162
-0.00225883
-0.00210777
-0.00176703
-0.00124364
-0.000543812
0.000326158
0.00135896
0.00254527
0.00387282
0.00532556
0.00688299
0.0085197
0.0102052
0.0119043
0.0135771
0.0151806
0.0166698
0.0179993
0.0191252
0.0200077
0.0206125
0.0209134
0.0208934
0.0205459
0.0198749
0.0188937
0.017622
0.0160947
0.0143732
0.0123423
0.00970332
0.00766229
0.00456832
0.00241239
0.000763692
-0.000593691
-0.00165178
-0.00242924
-0.00295264
-0.00324245
-0.00331493
-0.00318291
-0.00285616
-0.00234196
-0.00164611
-0.000773859
0.000268878
0.00147443
0.00283224
0.00432781
0.00594192
0.00764993
0.00942151
0.0112206
0.013006
0.0147318
0.0163494
0.0178085
0.0190597
0.0200568
0.0207588
0.0211325
0.0211546
0.0208126
0.0201058
0.0190446
0.0176471
0.0159497
0.0140204
0.0117286
0.0087376
0.00716638
0.0037929
0.00145034
-0.000333512
-0.00179764
-0.00293666
-0.00377413
-0.00434171
-0.00466376
-0.00475934
-0.00464308
-0.00432556
-0.00381409
-0.00311375
-0.00222859
-0.00116288
7.75185e-05
0.00148391
0.00304352
0.00473849
0.00654506
0.00843298
0.0103654
0.0122993
0.0141857
0.0159716
0.0176014
0.0190189
0.0201704
0.0210069
0.0214871
0.0215798
0.0212658
0.0205392
0.0194068
0.0178854
0.0160136
0.0138674
0.0113007
0.00793725
0.00620773
0.00256393
4.11084e-05
-0.00187312
-0.00344005
-0.00465679
-0.00555149
-0.00616062
-0.00651215
-0.00662762
-0.00652315
-0.00620987
-0.00569481
-0.0049821
-0.00407427
-0.00297374
-0.00168425
-0.000212374
0.00143112
0.00323001
0.00516159
0.00719591
0.00929541
0.011415
0.0135025
0.0155002
0.017346
0.0189764
0.0203286
0.0213443
0.0219725
0.0221725
0.021917
0.0211936
0.020005
0.0183662
0.0163185
0.0139469
0.0110886
0.00732525
0.00474317
0.000837117
-0.00185976
-0.00389908
-0.00556397
-0.00685399
-0.0078018
-0.00844856
-0.00882563
-0.00895687
-0.00885968
-0.00854547
-0.00802076
-0.00728843
-0.00634923
-0.00520333
-0.00385204
-0.00229938
-0.000553734
0.00137074
0.00345279
0.0056631
0.00796363
0.0103074
0.012639
0.0148953
0.0170075
0.0189032
0.0205098
0.0217577
0.0225841
0.0229374
0.0227797
0.0220908
0.0208679
0.0191236
0.0169015
0.0142964
0.0111275
0.00692998
0.00272967
-0.0014315
-0.00429652
-0.00645537
-0.00821264
-0.00957047
-0.0105661
-0.0112453
-0.0116429
-0.0117849
-0.0116899
-0.0113694
-0.0108293
-0.0100707
-0.00909251
-0.00789215
-0.00646803
-0.00482115
-0.00295694
-0.000886935
0.00136969
0.00378478
0.0063203
0.00892776
0.0115484
0.0141137
0.0165475
0.0187678
0.0206903
0.0222324
0.0233176
0.0238804
0.0238704
0.023257
0.02203
0.020198
0.0178069
0.0149615
0.0114607
0.006788
0.000124162
-0.00428598
-0.0073136
-0.00958622
-0.0114297
-0.0128488
-0.0138857
-0.0145909
-0.0150026
-0.0151493
-0.0150505
-0.0147181
-0.0141567
-0.013366
-0.0123422
-0.0110797
-0.00957356
-0.0078211
-0.00582409
-0.00359069
-0.00113722
0.00151012
0.004314
0.00722502
0.0101814
0.0131095
0.0159251
0.0185357
0.0208441
0.0227525
0.0241683
0.025009
0.0252087
0.024723
0.023532
0.0216382
0.0190883
0.0159979
0.012142
0.00694685
-0.00311622
-0.00777083
-0.0109561
-0.0133366
-0.0152592
-0.0167319
-0.0178018
-0.0185245
-0.0189423
-0.0190859
-0.0189763
-0.0186253
-0.0180368
-0.0172082
-0.016133
-0.0148022
-0.0132067
-0.0113395
-0.00919795
-0.00678581
-0.00411561
-0.00121052
0.00189382
0.00514799
0.00848795
0.0118351
0.0150972
0.0181706
0.0209436
0.0233014
0.0251319
0.0263326
0.0268178
0.0265258
0.0254229
0.0235028
0.0208112
0.017474
0.0132392
0.00746812
-0.00703531
-0.0119315
-0.0152703
-0.0177525
-0.0197462
-0.0212628
-0.0223551
-0.0230845
-0.0234974
-0.0236278
-0.0234982
-0.0231207
-0.022498
-0.0216256
-0.0204938
-0.0190895
-0.0173991
-0.0154104
-0.0131152
-0.0105119
-0.00760804
-0.00442242
-0.000987675
0.00264798
0.00641932
0.0102435
0.0140207
0.0176355
0.0209607
0.0238621
0.0262051
0.027863
0.0287258
0.0287094
0.0277615
0.0258627
0.0230552
0.0194746
0.0148368
0.00843075
-0.0116771
-0.0168152
-0.0203043
-0.0228817
-0.0249368
-0.0264851
-0.0275857
-0.0283069
-0.0287003
-0.0288035
-0.0286414
-0.0282266
-0.027561
-0.0266379
-0.025444
-0.0239619
-0.0221725
-0.0200575
-0.0176024
-0.0147989
-0.0116478
-0.00816239
-0.00437044
-0.000317365
0.00393194
0.00829171
0.0126551
0.0168952
0.0208683
0.0244188
0.0273864
0.0296157
0.0309667
0.0313265
0.0306183
0.0288039
0.0259177
0.0221038
0.0170404
0.00993493
-0.0170868
-0.0224713
-0.0261095
-0.0287748
-0.030879
-0.0324425
-0.0335324
-0.0342248
-0.0345781
-0.0346349
-0.034423
-0.0339562
-0.0332357
-0.0322527
-0.0309901
-0.0294256
-0.027534
-0.02529
-0.0226714
-0.0196618
-0.0162541
-0.0124537
-0.00828191
-0.00377918
0.000991938
0.00594456
0.0109663
0.0159194
0.0206433
0.0249594
0.0286784
0.0316112
0.0335815
0.0344403
0.034078
0.0324298
0.0295172
0.0254897
0.019981
0.0121067
-0.0233118
-0.0289539
-0.0327419
-0.0354865
-0.0376237
-0.0391801
-0.0402325
-0.0408675
-0.041152
-0.0411351
-0.0408489
-0.0403092
-0.039517
-0.0384613
-0.0371212
-0.0354687
-0.0334718
-0.0310973
-0.0283139
-0.0250958
-0.021426
-0.0173003
-0.0127311
-0.00775145
-0.00241906
0.00318057
0.00893166
0.0146872
0.0202703
0.0254782
0.0300899
0.0338776
0.0366213
0.0381269
0.0382421
0.0368658
0.0339981
0.0297895
0.0238205
0.0151035
-0.0304035
-0.0363236
-0.0402651
-0.0430783
-0.0452262
-0.0467441
-0.0477217
-0.048259
-0.0484343
-0.0483057
-0.047911
-0.0472691
-0.0463814
-0.0452349
-0.0438044
-0.0420559
-0.0399497
-0.0374435
-0.0344959
-0.0310698
-0.0271366
-0.0226803
-0.0177019
-0.0122243
-0.00629725
-1.644e-06
0.00654638
0.0131931
0.0197468
0.0259807
0.03164
0.0364532
0.0401491
0.0424782
0.0432328
0.042263
0.0395358
0.035196
0.028759
0.019121
-0.0384205
-0.0446522
-0.0487543
-0.0516213
-0.0537484
-0.0551835
-0.0560335
-0.0564167
-0.0564268
-0.0561336
-0.0555832
-0.0547987
-0.0537826
-0.0525198
-0.0509805
-0.0491242
-0.0469024
-0.0442628
-0.0411522
-0.037521
-0.0333269
-0.0285397
-0.0231465
-0.017157
-0.0106093
-0.00357608
0.00383034
0.0114532
0.019089
0.0264885
0.033362
0.0393905
0.0442439
0.0476052
0.0491971
0.0488036
0.0463438
0.0419454
0.0350431
0.0244015
-0.0474331
-0.0540283
-0.0583018
-0.0612009
-0.0632619
-0.0645507
-0.0651989
-0.0653497
-0.0651176
-0.0645881
-0.063818
-0.0628363
-0.061647
-0.060233
-0.0585595
-0.0565782
-0.0542311
-0.0514544
-0.048182
-0.0443498
-0.0399001
-0.0347864
-0.0289791
-0.0224712
-0.0152856
-0.00748205
0.000835697
0.00951294
0.0183391
0.0270458
0.0353094
0.0427611
0.0490043
0.0536426
0.0563114
0.0567077
0.0546819
0.0503274
0.0429777
0.0312453
-0.0575315
-0.0645665
-0.0690261
-0.0719237
-0.0738517
-0.0749035
-0.0752459
-0.0750565
-0.0744776
-0.0736158
-0.0725413
-0.0712906
-0.0698696
-0.0682584
-0.0664164
-0.0642865
-0.0617998
-0.0588795
-0.055445
-0.0514163
-0.0467184
-0.0412863
-0.035071
-0.0280458
-0.0202141
-0.0116178
-0.00234652
0.00745368
0.0175716
0.0277252
0.037561
0.0466598
0.0545534
0.0607533
0.0647877
0.0662409
0.0648664
0.0606991
0.0529401
0.0400244
-0.0688369
-0.0764214
-0.0810834
-0.0839259
-0.0856214
-0.0863062
-0.0861978
-0.0855211
-0.0844562
-0.0831361
-0.0816481
-0.0800367
-0.0783095
-0.076443
-0.0743889
-0.0720798
-0.0694338
-0.0663597
-0.0627607
-0.0585393
-0.0536014
-0.0478616
-0.0412491
-0.0337143
-0.0252373
-0.0158368
-0.00558172
0.00539792
0.0168987
0.0286337
0.0402261
0.05121
0.0610427
0.0691325
0.0748793
0.0777233
0.0772838
0.0735015
0.0654008
0.0512019
-0.0815199
-0.0898078
-0.0946859
-0.0973858
-0.0986995
-0.0988306
-0.0980702
-0.0967086
-0.0949748
-0.0930351
-0.0909961
-0.0889109
-0.0867869
-0.0845948
-0.0822761
-0.0797502
-0.0769203
-0.0736784
-0.06991
-0.0654983
-0.0603286
-0.0542935
-0.047298
-0.0392671
-0.0301533
-0.0199477
-0.00869118
0.00351081
0.016473
0.0299149
0.0434473
0.0565657
0.0686548
0.0790119
0.0868869
0.0915393
0.0924065
0.0892833
0.0809509
0.065359
-0.0958292
-0.105032
-0.110127
-0.112539
-0.113246
-0.112556
-0.110866
-0.108557
-0.105919
-0.103157
-0.1004
-0.0977066
-0.0950804
-0.0924821
-0.0898391
-0.0870542
-0.0840122
-0.0805862
-0.0766415
-0.0720407
-0.0666471
-0.0603295
-0.0529677
-0.0444582
-0.0347234
-0.023721
-0.0114576
0.00199557
0.0164835
0.0317462
0.047398
0.0629098
0.0776025
0.0906598
0.101163
0.108149
0.110814
0.108732
0.100342
0.0832343
-0.112137
-0.12254
-0.127816
-0.1297
-0.129457
-0.127563
-0.124567
-0.120965
-0.117126
-0.113297
-0.109626
-0.10617
-0.102925
-0.0998347
-0.0968051
-0.0937179
-0.0904356
-0.0868091
-0.0826817
-0.0778932
-0.0722837
-0.0656977
-0.0579877
-0.049021
-0.0386862
-0.0269039
-0.0136393
0.00108017
0.0171431
0.0343277
0.0522721
0.0704443
0.0881193
0.104375
0.118109
0.128096
0.133214
0.132718
0.124547
0.105784
-0.131017
-0.142992
-0.148334
-0.149282
-0.147569
-0.143926
-0.139112
-0.133775
-0.12837
-0.123186
-0.118379
-0.113998
-0.110015
-0.106348
-0.102874
-0.0994469
-0.0959016
-0.0920632
-0.0877502
-0.0827785
-0.0769641
-0.0701258
-0.062089
-0.0526899
-0.0417818
-0.0292441
-0.0149947
0.000992638
0.0186647
0.0378579
0.0582604
0.0793674
0.100438
0.120466
0.138167
0.152012
0.160474
0.162352
0.154848
0.134279
-0.153377
-0.167383
-0.172499
-0.171828
-0.167852
-0.161685
-0.154373
-0.146744
-0.13934
-0.132478
-0.126303
-0.120833
-0.116004
-0.11169
-0.10773
-0.10394
-0.100122
-0.0960719
-0.0915804
-0.0864382
-0.0804364
-0.0733682
-0.0650316
-0.0552311
-0.0437836
-0.0305245
-0.0153186
0.00192343
0.0212217
0.0424936
0.0655087
0.0898304
0.114749
0.139215
0.161785
0.180603
0.193642
0.199064
0.192976
0.170476
-0.1807
-0.197231
-0.201466
-0.198022
-0.190576
-0.180802
-0.170104
-0.159504
-0.149611
-0.140731
-0.132964
-0.126269
-0.120514
-0.115515
-0.111056
-0.106908
-0.102832
-0.0985898
-0.0939443
-0.0886592
-0.0825006
-0.0752367
-0.0666382
-0.0564789
-0.0445383
-0.0306056
-0.0144883
0.00397523
0.0248938
0.0482906
0.0740541
0.101868
0.13112
0.160794
0.189345
0.214601
0.233954
0.244706
0.241332
0.216924
-0.215511
-0.23488
-0.236838
-0.228675
-0.21594
-0.201065
-0.185859
-0.171502
-0.158601
-0.147386
-0.137853
-0.12985
-0.123149
-0.117479
-0.112557
-0.108095
-0.103811
-0.0994284
-0.0946798
-0.0893027
-0.0830391
-0.0756334
-0.0668305
-0.0563744
-0.0440077
-0.0294728
-0.0125161
0.00710405
0.0296003
0.055128
0.0837372
0.115297
0.149386
0.185136
0.221029
0.254659
0.282805
0.301659
0.303323
0.277541
-0.262295
-0.283975
-0.280761
-0.264632
-0.243912
-0.221941
-0.200874
-0.181915
-0.16553
-0.151752
-0.140379
-0.131088
-0.123511
-0.117266
-0.111984
-0.107311
-0.102916
-0.0984852
-0.0937204
-0.0883345
-0.0820477
-0.074583
-0.0656621
-0.0550014
-0.0423088
-0.0272805
-0.00959981
0.0110605
0.0350303
0.0626231
0.0940972
0.129586
0.168979
0.211734
0.25658
0.301107
0.341591
0.372914
0.383872
0.358768
-0.329476
-0.350172
-0.335857
-0.306447
-0.273875
-0.242281
-0.213864
-0.189538
-0.169362
-0.152983
-0.139881
-0.129483
-0.121234
-0.114617
-0.109165
-0.104455
-0.100107
-0.09577
-0.0911202
-0.0858494
-0.0796599
-0.0722572
-0.0633443
-0.052614
-0.0397432
-0.024385
-0.00616192
0.0153411
0.0405797
0.0700473
0.104256
0.143688
0.188696
0.239307
0.294866
0.353432
0.41123
0.461913
0.490173
0.471941
-0.433333
-0.441968
-0.404661
-0.353543
-0.303893
-0.2598
-0.222708
-0.192606
-0.168724
-0.150066
-0.135639
-0.124546
-0.116007
-0.109357
-0.104031
-0.0995414
-0.0954641
-0.0914212
-0.0870684
-0.0820836
-0.0761574
-0.0689845
-0.0602545
-0.0496435
-0.0368042
-0.0213538
-0.00286092
0.0191712
0.0453228
0.0762765
0.112831
0.155896
0.206448
0.26539
0.333216
0.409328
0.491057
0.571734
0.63226
0.637289
-0.604334
-0.570649
-0.488449
-0.403341
-0.330153
-0.270841
-0.224458
-0.188957
-0.162131
-0.142037
-0.127075
-0.115971
-0.107717
-0.101511
-0.0967062
-0.0927683
-0.0892457
-0.0857456
-0.0819152
-0.0774282
-0.0719721
-0.0652383
-0.0569121
-0.0466614
-0.0341248
-0.0188963
-0.000505206
0.0216099
0.0481358
0.0799308
0.118082
0.163972
0.219341
0.286295
0.367169
0.46409
0.577698
0.703355
0.821934
0.888673
-0.905532
-0.747624
-0.583083
-0.44927
-0.346281
-0.270426
-0.215773
-0.176581
-0.148509
-0.128436
-0.114113
-0.103919
-0.0966677
-0.0914687
-0.0876339
-0.0846139
-0.0819543
-0.0792653
-0.0762005
-0.0724403
-0.0676794
-0.0616156
-0.053939
-0.0443208
-0.0323993
-0.0177627
7.52755e-05
0.0217089
0.04789
0.0796005
0.11816
0.165386
0.223822
0.297028
0.389938
0.509258
0.662213
0.850718
1.07106
1.29318
-1.51433
-0.976317
-0.650294
-0.457784
-0.32849
-0.24277
-0.186555
-0.149078
-0.123746
-0.106553
-0.0949189
-0.0871244
-0.0819817
-0.0786345
-0.0764375
-0.0748819
-0.0735491
-0.0720804
-0.0701557
-0.0674782
-0.0637633
-0.0587277
-0.0520797
-0.0435098
-0.032676
-0.019188
-0.00258345
0.0177075
0.0424152
0.0725157
0.109368
0.154947
0.212242
0.285925
0.383591
0.517932
0.70722
0.97363
1.38716
2.03612
-2.65469
-1.20473
-0.592958
-0.358116
-0.233536
-0.162088
-0.120988
-0.0962887
-0.0809463
-0.0714388
-0.0657689
-0.0626888
-0.0613591
-0.0611723
-0.061659
-0.0624367
-0.0631795
-0.0635984
-0.0634279
-0.0624165
-0.0603183
-0.0568862
-0.0518659
-0.044986
-0.0359512
-0.0244288
-0.0100317
0.00770686
0.0293728
0.0557349
0.0878537
0.127282
0.176457
0.239527
0.324318
0.44696
0.639155
0.970238
1.69809
3.271
2.87302e-06
-0.000366097
-0.00121491
-0.00232837
-0.00350436
-0.0045996
-0.00551297
-0.00617619
-0.00654611
-0.00659842
-0.00632283
-0.00571964
-0.00479738
-0.00357127
-0.00206226
-0.000296513
0.00169479
0.00387559
0.006205
0.00863753
0.0111234
0.0136093
0.0160391
0.0183553
0.0205005
0.0224196
0.0240614
0.0253818
0.0263456
0.0269292
0.0271232
0.0269346
0.0263888
0.0255322
0.0244344
0.0231908
0.0219251
0.020793
0.0199923
0.0197063
0.000370772
1.14755e-07
-0.000669347
-0.00151278
-0.00240071
-0.0032287
-0.00391742
-0.00440911
-0.0046643
-0.00465844
-0.00437899
-0.00382292
-0.00299496
-0.0019063
-0.000573755
0.000980779
0.00273059
0.00464439
0.0066865
0.00881712
0.0109928
0.013167
0.0152912
0.0173156
0.0191912
0.0208711
0.0223126
0.0234791
0.0243423
0.0248845
0.0251002
0.0249984
0.0246037
0.0239579
0.0231211
0.0221717
0.0212065
0.0203388
0.0197021
0.0194202
0.00122633
0.000663854
-1.6512e-05
-0.000781718
-0.00155794
-0.00226522
-0.00284254
-0.00324419
-0.00343743
-0.00340103
-0.00312346
-0.00260119
-0.00183746
-0.000841266
0.000373213
0.00178707
0.00337688
0.00511494
0.00696937
0.0089045
0.0108812
0.0128575
0.0147894
0.0166322
0.0183416
0.0198754
0.0211951
0.0222682
0.0230697
0.0235842
0.0238075
0.0237481
0.0234283
0.0228849
0.0221695
0.0213471
0.0204957
0.0197055
0.0190633
0.0186235
0.00237349
0.00151256
0.000720952
-6.42241e-05
-0.000819116
-0.00148161
-0.00200718
-0.00236268
-0.00252352
-0.00247348
-0.00220371
-0.00171168
-0.0010003
-7.73615e-05
0.00104487
0.00234989
0.00381707
0.00542173
0.00713525
0.0089253
0.0107562
0.0125894
0.0143844
0.0160996
0.0176938
0.0191274
0.0203646
0.0213746
0.0221337
0.022627
0.0228499
0.0228093
0.0225243
0.0220263
0.0213588
0.0205756
0.0197399
0.0189268
0.0181818
0.0174804
0.00362765
0.00242568
0.00147479
0.00061915
-0.000162874
-0.000823102
-0.00133185
-0.00166808
-0.00181559
-0.00176378
-0.00150721
-0.00104502
-0.000380445
0.000479445
0.00152388
0.00273842
0.00410493
0.00560145
0.00720228
0.00887801
0.0105958
0.01232
0.0140126
0.0156342
0.0171456
0.0185089
0.0196892
0.0206563
0.0213865
0.0218644
0.0220838
0.0220492
0.0217758
0.0212899
0.0206278
0.019833
0.0189572
0.018065
0.0171647
0.0161525
0.00485551
0.00330113
0.00216363
0.00120273
0.000357482
-0.000334103
-0.000854941
-0.00119495
-0.00134592
-0.00130287
-0.00106407
-0.000630687
-6.68385e-06
0.000801203
0.00178335
0.00292705
0.00421632
0.0056316
0.00714968
0.0087436
0.0103829
0.0120338
0.0136602
0.0152241
0.0166871
0.0180116
0.0191626
0.0201094
0.020827
0.0212982
0.0215144
0.0214769
0.0211972
0.0206965
0.0200047
0.0191574
0.0181975
0.0171841
0.0160944
0.0147528
0.00595608
0.00405401
0.0027174
0.00163036
0.000698274
-4.80445e-05
-0.000601981
-0.000963063
-0.00113032
-0.0011041
-0.000886265
-0.00048014
0.00010943
0.000875822
0.00181032
0.00290171
0.00413586
0.00549532
0.00695898
0.00850194
0.0100955
0.0117075
0.0133025
0.0148434
0.0162914
0.0176085
0.0187585
0.0197087
0.0204321
0.0209085
0.0211263
0.021083
0.0207859
0.0202517
0.019505
0.0185753
0.0174996
0.0163354
0.015035
0.0133587
0.00685055
0.00461247
0.00307361
0.00184981
0.000817137
1.38223e-06
-0.000599536
-0.000993469
-0.00118585
-0.00118183
-0.000986605
-0.000605523
-4.43147e-05
0.000690452
0.00159085
0.002647
0.00384645
0.00517358
0.00660915
0.00812992
0.0097086
0.0113139
0.012911
0.0144622
0.0159283
0.0172695
0.0184475
0.0194268
0.0201771
0.0206745
0.0209034
0.020857
0.0205385
0.0199602
0.0191423
0.0181099
0.0168965
0.0155613
0.0140362
0.0120243
0.00747501
0.00491456
0.00317542
0.00181069
0.000670366
-0.000223275
-0.000879639
-0.00131379
-0.00153675
-0.00155789
-0.00138539
-0.00102635
-0.000487272
0.000225393
0.0011045
0.00214143
0.0033253
0.00464221
0.00607455
0.00760052
0.00919388
0.0108239
0.0124557
0.0140508
0.0155683
0.0169663
0.0182032
0.0192399
0.0200418
0.0205804
0.0208351
0.0207945
0.0204571
0.0198309
0.0189329
0.0177845
0.0164184
0.0148973
0.0131368
0.0107865
0.00777496
0.00490545
0.00297059
0.00146482
0.000214359
-0.000761095
-0.00147724
-0.00195546
-0.00221165
-0.00225886
-0.00210781
-0.00176709
-0.00124372
-0.000543918
0.000326026
0.0013588
0.00254509
0.00387263
0.00532536
0.00688279
0.0085195
0.0102051
0.0119041
0.0135769
0.0151805
0.0166698
0.0179993
0.0191253
0.0200078
0.0206127
0.0209136
0.0208937
0.0205462
0.0198752
0.0188941
0.0176225
0.016093
0.0143745
0.0123681
0.00967191
0.00770159
0.00453511
0.0024103
0.000765901
-0.000594126
-0.00165208
-0.00242925
-0.00295263
-0.00324245
-0.00331492
-0.00318292
-0.00285618
-0.00234201
-0.00164618
-0.000773969
0.000268741
0.00147427
0.00283206
0.00432761
0.00594171
0.00764972
0.00942131
0.0112204
0.0130058
0.0147317
0.0163493
0.0178085
0.0190598
0.0200569
0.020759
0.0211328
0.0211549
0.0208129
0.0201062
0.0190452
0.0176478
0.0159477
0.014022
0.011758
0.00870193
0.0072093
0.00375655
0.00144801
-0.000331122
-0.00179812
-0.00293698
-0.00377412
-0.00434167
-0.00466372
-0.0047593
-0.00464305
-0.00432555
-0.00381411
-0.0031138
-0.00222867
-0.00116299
7.73798e-05
0.00148374
0.00304333
0.00473829
0.00654484
0.00843277
0.0103652
0.0122991
0.0141856
0.0159715
0.0176013
0.019019
0.0201705
0.0210071
0.0214874
0.0215802
0.0212662
0.0205396
0.0194075
0.0178862
0.0160115
0.0138694
0.0113339
0.00789705
0.00625417
0.00252454
3.85419e-05
-0.00187055
-0.00344058
-0.00465713
-0.00555145
-0.00616055
-0.00651207
-0.00662753
-0.00652307
-0.00620981
-0.00569478
-0.0049821
-0.00407431
-0.00297381
-0.00168436
-0.000212512
0.00143095
0.00322982
0.00516138
0.00719569
0.0092952
0.0114148
0.0135024
0.0155001
0.017346
0.0189764
0.0203288
0.0213446
0.0219728
0.0221729
0.0219175
0.0211941
0.0200058
0.0183671
0.0163162
0.0139492
0.0111259
0.00728015
0.00479302
0.000794773
-0.00186256
-0.00389635
-0.00556454
-0.00685433
-0.00780174
-0.00844845
-0.00882551
-0.00895674
-0.00885955
-0.00854536
-0.00802068
-0.00728838
-0.00634921
-0.00520336
-0.0038521
-0.00229948
-0.00055387
0.00137057
0.00345259
0.00566289
0.00796342
0.0103072
0.0126388
0.0148952
0.0170074
0.0189033
0.02051
0.0217579
0.0225845
0.0229378
0.0227803
0.0220914
0.0208689
0.0191247
0.016899
0.0142991
0.0111693
0.00687947
0.00278291
-0.00147672
-0.00429953
-0.00645246
-0.00821324
-0.00957083
-0.010566
-0.0112452
-0.0116427
-0.0117847
-0.0116897
-0.0113693
-0.0108291
-0.0100706
-0.00909244
-0.00789211
-0.00646803
-0.0048212
-0.00295703
-0.000887062
0.00136953
0.0037846
0.0063201
0.00892757
0.0115482
0.0141136
0.0165475
0.0187678
0.0206904
0.0222326
0.023318
0.0238809
0.0238711
0.0232577
0.0220311
0.0201993
0.0178042
0.0149646
0.0115075
0.00673147
0.000180927
-0.00433401
-0.00731683
-0.00958315
-0.0114303
-0.0128492
-0.0138856
-0.0145907
-0.0150024
-0.015149
-0.0150503
-0.0147178
-0.0141565
-0.0133658
-0.012342
-0.0110796
-0.00957349
-0.00782108
-0.00582412
-0.00359076
-0.00113733
0.00150997
0.00431383
0.00722484
0.0101812
0.0131094
0.015925
0.0185357
0.0208442
0.0227528
0.0241687
0.0250096
0.0252094
0.0247239
0.0235334
0.0216398
0.0190854
0.0160014
0.0121944
0.00688359
-0.00305646
-0.0078217
-0.0109596
-0.0133333
-0.0152599
-0.0167323
-0.0178016
-0.0185243
-0.018942
-0.0190855
-0.018976
-0.018625
-0.0180365
-0.0172079
-0.0161328
-0.014802
-0.0132065
-0.0113394
-0.00919789
-0.00678581
-0.00411566
-0.00121062
0.00189369
0.00514784
0.00848779
0.0118349
0.0150971
0.0181706
0.0209438
0.0233017
0.0251324
0.0263333
0.0268187
0.0265269
0.0254245
0.0235046
0.020808
0.0174781
0.0132979
0.0073973
-0.00697236
-0.0119852
-0.015274
-0.0177491
-0.0197469
-0.0212633
-0.022355
-0.0230842
-0.0234971
-0.0236274
-0.0234978
-0.0231202
-0.0224976
-0.0216252
-0.0204934
-0.0190892
-0.0173989
-0.0154102
-0.013115
-0.0105118
-0.00760801
-0.00442245
-0.000987748
0.00264787
0.00641919
0.0102434
0.0140206
0.0176355
0.0209609
0.0238624
0.0262056
0.0278638
0.0287269
0.0287106
0.0277634
0.0258649
0.0230518
0.0194792
0.0149027
0.00835141
-0.0116109
-0.0168717
-0.0203084
-0.0228782
-0.0249376
-0.0264855
-0.0275855
-0.0283065
-0.0286998
-0.028803
-0.0286409
-0.0282261
-0.0275605
-0.0266374
-0.0254435
-0.0239615
-0.0221721
-0.0200572
-0.0176022
-0.0147987
-0.0116477
-0.00816232
-0.00437044
-0.000317419
0.00393185
0.00829161
0.012655
0.0168952
0.0208685
0.0244192
0.027387
0.0296166
0.0309678
0.0313279
0.0306206
0.0288064
0.025914
0.0221091
0.0171143
0.00984601
-0.0170173
-0.0225309
-0.0261139
-0.0287712
-0.0308799
-0.032443
-0.0335322
-0.0342244
-0.0345776
-0.0346344
-0.0344224
-0.0339555
-0.0332351
-0.032252
-0.0309895
-0.0294251
-0.0275335
-0.0252896
-0.022671
-0.0196615
-0.0162539
-0.0124535
-0.00828182
-0.00377916
0.000991889
0.00594448
0.0109662
0.0159194
0.0206434
0.0249597
0.028679
0.0316122
0.0335828
0.034442
0.0340806
0.0324329
0.0295133
0.0254959
0.0200639
0.012007
-0.0232387
-0.0290167
-0.0327467
-0.0354829
-0.0376247
-0.0391806
-0.0402323
-0.040867
-0.0411514
-0.0411344
-0.0408482
-0.0403084
-0.0395162
-0.0384605
-0.0371204
-0.035468
-0.0334711
-0.0310967
-0.0283134
-0.0250954
-0.0214257
-0.0173
-0.0127309
-0.00775138
-0.00241907
0.0031805
0.00893157
0.0146872
0.0202704
0.0254785
0.0300905
0.0338786
0.0366227
0.0381289
0.0382452
0.0368694
0.0339939
0.0297969
0.0239137
0.0149917
-0.0303266
-0.03639
-0.0402704
-0.0430747
-0.0452274
-0.0467447
-0.0477214
-0.0482584
-0.0484336
-0.0483048
-0.04791
-0.0472681
-0.0463805
-0.045234
-0.0438035
-0.0420551
-0.0399489
-0.0374428
-0.0344953
-0.0310693
-0.0271362
-0.02268
-0.0177017
-0.0122242
-0.00629723
-1.71756e-06
0.00654625
0.013193
0.0197467
0.0259809
0.0316405
0.0364542
0.0401507
0.0424803
0.0432364
0.0422672
0.0395315
0.0352047
0.0288638
0.0189955
-0.038339
-0.0447228
-0.0487602
-0.0516177
-0.0537499
-0.0551841
-0.0560331
-0.056416
-0.0564259
-0.0561326
-0.0555821
-0.0547976
-0.0537815
-0.0525187
-0.0509795
-0.0491233
-0.0469016
-0.044262
-0.0411515
-0.0375204
-0.0333264
-0.0285393
-0.0231463
-0.0171569
-0.0106094
-0.0035762
0.00383014
0.011453
0.0190888
0.0264885
0.0333624
0.0393915
0.0442455
0.0476076
0.0492012
0.0488086
0.0463394
0.0419556
0.0351613
0.0242608
-0.0473463
-0.0541041
-0.0583087
-0.0611974
-0.0632636
-0.0645514
-0.0651985
-0.0653488
-0.0651164
-0.0645868
-0.0638167
-0.062835
-0.0616458
-0.0602318
-0.0585584
-0.0565772
-0.0542302
-0.0514536
-0.0481813
-0.0443492
-0.0398996
-0.034786
-0.0289788
-0.0224711
-0.0152857
-0.00748229
0.000835333
0.0095125
0.0183387
0.0270455
0.0353095
0.0427618
0.0490058
0.0536452
0.0563161
0.0567136
0.0546773
0.0503397
0.043111
0.0310874
-0.0574381
-0.064649
-0.0690343
-0.0719204
-0.0738537
-0.0749043
-0.0752453
-0.0750553
-0.0744762
-0.0736142
-0.0725397
-0.0712891
-0.0698681
-0.0682571
-0.0664152
-0.0642855
-0.0617989
-0.0588787
-0.0554443
-0.0514157
-0.0467179
-0.041286
-0.0350708
-0.0280458
-0.0202143
-0.0116183
-0.00234714
0.00745292
0.0175707
0.0277245
0.0375606
0.0466601
0.0545546
0.0607557
0.0647928
0.0662478
0.0648618
0.0607138
0.0530909
0.039847
-0.068735
-0.0765127
-0.0810934
-0.0839228
-0.0856237
-0.0863069
-0.0861968
-0.0855195
-0.0844543
-0.0831341
-0.0816461
-0.0800349
-0.0783079
-0.0764416
-0.0743877
-0.0720787
-0.0694329
-0.066359
-0.0627601
-0.0585388
-0.0536011
-0.0478615
-0.0412492
-0.0337146
-0.0252378
-0.0158376
-0.00558273
0.00539669
0.0168973
0.0286324
0.040225
0.0512096
0.0610432
0.0691346
0.0748846
0.077731
0.0772792
0.0735194
0.0655721
0.0510024
-0.0814068
-0.0899112
-0.0946984
-0.0973829
-0.0987021
-0.0988311
-0.0980687
-0.0967064
-0.0949723
-0.0930326
-0.0909938
-0.0889089
-0.0867852
-0.0845934
-0.0822749
-0.0797493
-0.0769196
-0.0736779
-0.0699097
-0.0654981
-0.0603286
-0.0542936
-0.0472984
-0.0392677
-0.0301542
-0.0199489
-0.00869273
0.00350892
0.0164709
0.0299126
0.0434451
0.0565641
0.0686543
0.0790132
0.0868921
0.0915478
0.0924019
0.0893052
0.0811465
0.0651344
-0.0957012
-0.105152
-0.110143
-0.112536
-0.113248
-0.112555
-0.110864
-0.108554
-0.105915
-0.103154
-0.100398
-0.0977044
-0.0950786
-0.0924808
-0.0898381
-0.0870535
-0.0840118
-0.0805859
-0.0766415
-0.0720409
-0.0666475
-0.0603301
-0.0529685
-0.0444593
-0.0347248
-0.0237228
-0.0114598
0.00199284
0.0164803
0.0317426
0.0473943
0.0629064
0.0776001
0.0906594
0.101167
0.108158
0.110808
0.108759
0.100568
0.0829807
-0.111989
-0.122685
-0.127837
-0.129696
-0.129459
-0.127561
-0.124562
-0.12096
-0.117121
-0.113294
-0.109622
-0.106168
-0.102924
-0.0998334
-0.0968044
-0.0937175
-0.0904356
-0.0868093
-0.0826821
-0.0778938
-0.0722846
-0.0656988
-0.0579891
-0.0490227
-0.0386883
-0.0269064
-0.0136424
0.00107643
0.0171386
0.0343225
0.0522664
0.0704385
0.0881142
0.104371
0.118111
0.128104
0.133208
0.132751
0.12481
0.105496
-0.130842
-0.143172
-0.14836
-0.149276
-0.147569
-0.143922
-0.139105
-0.133768
-0.128364
-0.123182