/*--------------------------------*- C++ -*----------------------------------*\
  =========                 |
  \\      /  F ield         | OpenFOAM: The Open Source CFD Toolbox
   \\    /   O peration     | Website:  https://openfoam.org
    \\  /    A nd           | Version:  9
     \\/     M anipulation  |
\*---------------------------------------------------------------------------*/
FoamFile
{
    format      ascii;
    class       volVectorField;
    location    "0.7";
    object      U;
}
// * * * * * * * * * * * * * * * * * * * * * * * * * * * * * * * * * * * * * //

dimensions      [0 1 -1 0 0 0 0];

internalField   nonuniform List<vector> 
6400
(
(6.06182e-05 -6.05633e-05 -2.44362e-07)
(0.000153333 -5.42472e-05 4.77433e-05)
(0.000144729 -4.49202e-06 0.000157558)
(-1.96822e-05 5.24707e-05 0.000301817)
(-0.000342908 0.000104298 0.000454256)
(-0.000805442 0.000146874 0.000596245)
(-0.00138123 0.000179455 0.000714663)
(-0.00204285 0.000202599 0.000800643)
(-0.00276366 0.000217241 0.000848586)
(-0.00351878 0.000224347 0.00085533)
(-0.00428535 0.000224797 0.000819535)
(-0.00504256 0.000219349 0.000741236)
(-0.00577153 0.000208636 0.000621539)
(-0.00645513 0.000193191 0.000462414)
(-0.00707783 0.000173468 0.000266581)
(-0.0076256 0.000149879 3.74337e-05)
(-0.00808593 0.000122822 -0.000220982)
(-0.00844783 9.27209e-05 -0.000503984)
(-0.00870201 6.00472e-05 -0.00080627)
(-0.00884104 2.5351e-05 -0.00112193)
(-0.00885967 -1.07219e-05 -0.00144452)
(-0.00875508 -4.7418e-05 -0.00176711)
(-0.00852722 -8.38736e-05 -0.00208241)
(-0.00817909 -0.000119122 -0.00238297)
(-0.00771703 -0.000152109 -0.00266134)
(-0.00715086 -0.000181722 -0.00291035)
(-0.00649397 -0.000206824 -0.00312341)
(-0.0057633 -0.000226297 -0.00329475)
(-0.00497914 -0.000239085 -0.00341983)
(-0.00416481 -0.000244243 -0.00349559)
(-0.0033461 -0.000240978 -0.00352081)
(-0.00255071 -0.000228687 -0.00349639)
(-0.00180739 -0.000206994 -0.00342565)
(-0.00114498 -0.00017579 -0.0033146)
(-0.000591173 -0.000135347 -0.00317227)
(-0.000170731 -8.6607e-05 -0.00301105)
(9.70523e-05 -3.20056e-05 -0.00284697)
(0.000203595 2.2746e-05 -0.0027003)
(0.000167069 6.41014e-05 -0.00259671)
(5.88765e-05 5.86615e-05 -0.0022142)
(5.59881e-05 -0.000154506 -4.83036e-05)
(5.55479e-05 -5.25997e-05 -9.63045e-10)
(-0.000223519 0.000204794 0.000103161)
(-0.000850856 0.000497768 0.000233185)
(-0.00183298 0.000774805 0.000370085)
(-0.00313768 0.00101234 0.000497739)
(-0.004713 0.00120129 0.000603917)
(-0.00649857 0.00133989 0.000679727)
(-0.00843187 0.00142977 0.000719097)
(-0.0104516 0.001474 0.000718254)
(-0.0124993 0.00147616 0.000675271)
(-0.0145208 0.00143988 0.000589687)
(-0.0164657 0.0013686 0.000462234)
(-0.0182878 0.00126552 0.000294638)
(-0.0199454 0.00113368 8.94882e-05)
(-0.0214006 0.000976023 -0.000149842)
(-0.0226199 0.000795558 -0.00041924)
(-0.0235743 0.000595481 -0.000713888)
(-0.0242396 0.000379314 -0.00102829)
(-0.0245969 0.000151029 -0.00135633)
(-0.0246335 -8.48751e-05 -0.00169131)
(-0.0243433 -0.000323326 -0.00202606)
(-0.0237274 -0.00055868 -0.00235311)
(-0.0227952 -0.000784786 -0.0026648)
(-0.0215645 -0.000995092 -0.00295358)
(-0.020062 -0.00118281 -0.00321223)
(-0.0183234 -0.00134115 -0.00343417)
(-0.0163932 -0.00146355 -0.00361375)
(-0.0143238 -0.00154398 -0.00374664)
(-0.012175 -0.00157723 -0.00383008)
(-0.0100122 -0.00155923 -0.00386324)
(-0.00790483 -0.00148737 -0.00384749)
(-0.00592365 -0.00136081 -0.00378662)
(-0.00413816 -0.00118099 -0.00368706)
(-0.00261275 -0.000952334 -0.00355805)
(-0.00140183 -0.000683784 -0.0034117)
(-0.000543144 -0.000391909 -0.00326289)
(-4.73978e-05 -0.000106732 -0.00312916)
(0.000120597 0.000116718 -0.00303113)
(6.53505e-05 0.000167021 -0.00252181)
(8.37418e-06 -0.000150393 -0.00015903)
(-0.000198697 0.000224498 -0.000102307)
(-0.000875777 0.00087689 2.53678e-06)
(-0.002051 0.00160119 0.000120275)
(-0.00371742 0.00229276 0.000239682)
(-0.00583213 0.00289531 0.00034851)
(-0.00832558 0.00338201 0.000437347)
(-0.011115 0.00374328 0.000499153)
(-0.0141126 0.00397897 0.000528894)
(-0.0172301 0.0040939 0.000523303)
(-0.0203822 0.00409534 0.000480604)
(-0.0234879 0.00399154 0.000400256)
(-0.0264715 0.00379098 0.000282756)
(-0.0292632 0.0035021 0.000129491)
(-0.0317992 0.00313322 -5.73599e-05)
(-0.0340222 0.00269274 -0.000274885)
(-0.0358812 0.00218935 -0.000519483)
(-0.0373325 0.00163235 -0.000786888)
(-0.0383398 0.00103197 -0.0010722)
(-0.0388755 0.000399568 -0.00136993)
(-0.0389212 -0.000252146 -0.00167404)
(-0.0384687 -0.000909046 -0.0019781)
(-0.0375208 -0.00155563 -0.00227534)
(-0.0360928 -0.00217519 -0.00255886)
(-0.0342123 -0.00275013 -0.00282185)
(-0.03192 -0.0032624 -0.00305782)
(-0.0292698 -0.0036941 -0.00326086)
(-0.0263281 -0.00402811 -0.00342596)
(-0.0231731 -0.00424893 -0.00354926)
(-0.019893 -0.00434343 -0.00362841)
(-0.0165836 -0.00430176 -0.00366276)
(-0.0133461 -0.00411828 -0.00365361)
(-0.0102828 -0.00379255 -0.0036044)
(-0.00749297 -0.0033307 -0.0035208)
(-0.0050673 -0.00274732 -0.00341071)
(-0.00308129 -0.00206866 -0.00328418)
(-0.00158653 -0.00133844 -0.00315321)
(-0.000598809 -0.000627113 -0.00303163)
(-8.73804e-05 -4.64128e-05 -0.00293276)
(2.81168e-05 0.000209033 -0.00241872)
(-4.79435e-05 8.47351e-06 -0.000307663)
(-0.000499662 0.000856297 -0.000233167)
(-0.00163272 0.00205747 -0.000110943)
(-0.00340126 0.00334398 9.87046e-06)
(-0.00576953 0.00456475 0.000125931)
(-0.0086789 0.00563097 0.000227831)
(-0.0120427 0.00649585 0.000308678)
(-0.0157598 0.00713943 0.00036336)
(-0.0197227 0.00755787 0.0003881)
(-0.0238228 0.00775676 0.000380402)
(-0.0279534 0.00774687 0.000338901)
(-0.0320129 0.00754165 0.000263209)
(-0.0359052 0.00715571 0.000153773)
(-0.0395415 0.00660419 1.17909e-05)
(-0.0428402 0.00590249 -0.00016085)
(-0.0457278 0.00506648 -0.00036161)
(-0.0481394 0.00411284 -0.000587316)
(-0.050019 0.00305947 -0.00083417)
(-0.051321 0.001926 -0.00109777)
(-0.0520103 0.000734128 -0.00137315)
(-0.0520642 -0.000492063 -0.0016548)
(-0.051473 -0.00172604 -0.00193682)
(-0.0502411 -0.0029389 -0.00221295)
(-0.0483885 -0.00409972 -0.0024768)
(-0.0459508 -0.00517616 -0.00272204)
(-0.04298 -0.00613524 -0.00294258)
(-0.0395445 -0.00694441 -0.0031329)
(-0.0357282 -0.0075728 -0.00328827)
(-0.0316293 -0.00799263 -0.00340504)
(-0.0273585 -0.00818072 -0.00348093)
(-0.0230357 -0.00812011 -0.00351523)
(-0.0187867 -0.00780181 -0.00350899)
(-0.0147387 -0.0072267 -0.00346514)
(-0.0110145 -0.00640783 -0.00338855)
(-0.00772631 -0.0053735 -0.00328588)
(-0.00496818 -0.00417182 -0.00316541)
(-0.00280719 -0.0028781 -0.00303691)
(-0.00127112 -0.00160545 -0.00291182)
(-0.000349962 -0.00051912 -0.00279692)
(-2.00256e-05 0.000120126 -0.00227059)
(-0.000102355 0.000333375 -0.000470226)
(-0.000804896 0.00187161 -0.000373983)
(-0.00241233 0.00377488 -0.000226915)
(-0.00479082 0.00573854 -9.51889e-05)
(-0.00786573 0.00757785 2.50441e-05)
(-0.011557 0.00917769 0.000126617)
(-0.0157585 0.0104734 0.000204894)
(-0.0203516 0.0114349 0.000256622)
(-0.0252117 0.0120542 0.000279319)
(-0.0302133 0.0123371 0.00027135)
(-0.0352329 0.0122979 0.00023188)
(-0.040152 0.0119554 0.000160775)
(-0.0448587 0.011331 5.85324e-05)
(-0.0492485 0.0104477 -7.37594e-05)
(-0.0532258 0.00932907 -0.000234443)
(-0.0567039 0.00800018 -0.000421298)
(-0.0596065 0.00648738 -0.000631531)
(-0.0618678 0.00481917 -0.000861768)
(-0.0634342 0.00302674 -0.00110805)
(-0.0642648 0.00114446 -0.00136586)
(-0.064333 -0.000789767 -0.00163014)
(-0.0636276 -0.00273437 -0.0018954)
(-0.0621542 -0.00464434 -0.00215579)
(-0.0599359 -0.00647175 -0.00240528)
(-0.0570145 -0.00816666 -0.0026378)
(-0.0534507 -0.00967838 -0.00284753)
(-0.0493241 -0.010957 -0.00302911)
(-0.0447323 -0.0119556 -0.00317789)
(-0.0397896 -0.0126317 -0.00329024)
(-0.0346244 -0.0129506 -0.00336375)
(-0.0293761 -0.012887 -0.00339751)
(-0.0241912 -0.0124282 -0.00339217)
(-0.0192176 -0.0115766 -0.00335011)
(-0.0145989 -0.0103534 -0.00327536)
(-0.0104671 -0.00880201 -0.00317349)
(-0.00693586 -0.0069938 -0.00305123)
(-0.00409122 -0.00503573 -0.00291655)
(-0.00197966 -0.00308043 -0.00277923)
(-0.000622414 -0.00133814 -0.00264014)
(-6.7405e-05 -0.000115716 -0.00209841)
(-0.000151952 0.000817481 -0.000629377)
(-0.00109758 0.00327054 -0.000509005)
(-0.00317547 0.00603544 -0.000332913)
(-0.00616143 0.00879092 -0.000184946)
(-0.00993683 0.0113316 -5.50109e-05)
(-0.0143956 0.013524 5.1387e-05)
(-0.0194097 0.0152903 0.000131525)
(-0.0248418 0.0165924 0.000183834)
(-0.0305513 0.0174192 0.000207061)
(-0.0363975 0.0177775 0.00020044)
(-0.0422428 0.0176851 0.000163702)
(-0.047955 0.0171669 9.70283e-05)
(-0.053409 0.0162517 1.02748e-06)
(-0.0584882 0.0149708 -0.000123264)
(-0.0630853 0.0133575 -0.000274365)
(-0.0671034 0.011447 -0.000450321)
(-0.0704565 0.00927669 -0.000648671)
(-0.073071 0.00688729 -0.000866409)
(-0.0748864 0.00432321 -0.00109996)
(-0.0758567 0.0016333 -0.00134518)
(-0.0759516 -0.00112875 -0.00159738)
(-0.0751583 -0.00390429 -0.00185137)
(-0.0734821 -0.00663002 -0.00210159)
(-0.0709483 -0.00923876 -0.00234218)
(-0.0676027 -0.0116607 -0.00256725)
(-0.0635122 -0.013825 -0.00277102)
(-0.0587648 -0.0156623 -0.00294809)
(-0.0534686 -0.0171069 -0.00309375)
(-0.0477508 -0.0181003 -0.00320415)
(-0.0417545 -0.018594 -0.00327663)
(-0.0356359 -0.0185531 -0.0033099)
(-0.0295594 -0.0179602 -0.00330414)
(-0.023692 -0.016819 -0.0032611)
(-0.0181974 -0.0151582 -0.00318407)
(-0.0132284 -0.0130365 -0.00307764)
(-0.00892034 -0.0105478 -0.00294729)
(-0.00538244 -0.00782882 -0.0027997)
(-0.00268527 -0.00506706 -0.00264369)
(-0.000887041 -0.00250946 -0.00247518)
(-0.000110644 -0.000494148 -0.00191692)
(-0.000196674 0.00145026 -0.000772011)
(-0.0013729 0.00504045 -0.000625151)
(-0.0039067 0.00882874 -0.000418133)
(-0.00748681 0.0124912 -0.000250719)
(-0.0119491 0.015813 -0.000107448)
(-0.0171586 0.0186511 7.37131e-06)
(-0.0229631 0.0209198 9.26028e-05)
(-0.0292058 0.0225768 0.000148153)
(-0.0357296 0.0236101 0.000173885)
(-0.0423798 0.0240288 0.00016985)
(-0.0490061 0.0238555 0.000136338)
(-0.0554647 0.0231218 7.38569e-05)
(-0.0616197 0.0218645 -1.68466e-05)
(-0.0673445 0.0201242 -0.000134754)
(-0.0725226 0.0179445 -0.000278523)
(-0.0770484 0.0153717 -0.000446429)
(-0.0808284 0.0124554 -0.0006363)
(-0.083782 0.00924946 -0.000845448)
(-0.0858431 0.00581284 -0.00107063)
(-0.0869606 0.00221015 -0.001308)
(-0.0871006 -0.00148772 -0.00155317)
(-0.0862478 -0.0052035 -0.00180116)
(-0.0844063 -0.00885397 -0.00204655)
(-0.0816018 -0.0123509 -0.0022836)
(-0.077882 -0.0156026 -0.00250637)
(-0.0733179 -0.0185163 -0.002709)
(-0.0680032 -0.0210008 -0.00288591)
(-0.0620541 -0.0229698 -0.0030321)
(-0.0556081 -0.0243463 -0.00314339)
(-0.0488209 -0.025066 -0.00321668)
(-0.0418636 -0.0250828 -0.00325018)
(-0.0349175 -0.0243728 -0.00324351)
(-0.0281687 -0.0229392 -0.00319781)
(-0.0218018 -0.0208173 -0.00311562)
(-0.0159923 -0.0180795 -0.00300075)
(-0.0109002 -0.0148404 -0.00285772)
(-0.00666168 -0.0112634 -0.00269234)
(-0.00337555 -0.00756682 -0.0025131)
(-0.00113953 -0.00402762 -0.0023119)
(-0.000149503 -0.00100676 -0.00173615)
(-0.000237354 0.00222139 -0.000887895)
(-0.00163128 0.0071646 -0.000711367)
(-0.00460269 0.0121375 -0.00047296)
(-0.00875856 0.0168225 -0.000284463)
(-0.0138898 0.0210048 -0.000125737)
(-0.0198314 0.0245389 -2.32714e-07)
(-0.0264057 0.0273379 9.22299e-05)
(-0.033435 0.0293594 0.000152834)
(-0.0407458 0.0305939 0.000182431)
(-0.0481698 0.0310546 0.000181811)
(-0.0555448 0.0307707 0.000151777)
(-0.0627169 0.0297812 9.31482e-05)
(-0.0695412 0.0281322 6.80755e-06)
(-0.0758827 0.0258744 -0.000106235)
(-0.0816173 0.0230621 -0.000244758)
(-0.0866326 0.0197535 -0.000407244)
(-0.0908286 0.0160111 -0.000591775)
(-0.094119 0.0119027 -0.00079595)
(-0.0964321 0.00750237 -0.00101681)
(-0.0977122 0.00289144 -0.00125077)
(-0.0979213 -0.00184109 -0.00149364)
(-0.0970404 -0.00659831 -0.00174061)
(-0.0950715 -0.0112758 -0.00198631)
(-0.0920386 -0.015763 -0.00222496)
(-0.0879897 -0.0199447 -0.00245051)
(-0.082997 -0.0237043 -0.00265685)
(-0.0771581 -0.0269267 -0.00283807)
(-0.0705949 -0.0295028 -0.00298873)
(-0.0634531 -0.0313345 -0.00310415)
(-0.0558996 -0.0323396 -0.00318068)
(-0.0481193 -0.0324578 -0.00321588)
(-0.0403104 -0.0316563 -0.00320875)
(-0.0326789 -0.0299356 -0.00315976)
(-0.0254318 -0.0273353 -0.00307078)
(-0.0187698 -0.023939 -0.00294495)
(-0.012881 -0.0198796 -0.00278611)
(-0.0079321 -0.0153443 -0.00259958)
(-0.00405312 -0.0105785 -0.00239398)
(-0.00138226 -0.00588557 -0.00215797)
(-0.000185049 -0.00164616 -0.00156311)
(-0.000274925 0.00312195 -0.000968726)
(-0.00187492 0.00962611 -0.000758124)
(-0.00526545 0.0159423 -0.000488645)
(-0.00997719 0.0217655 -0.000278427)
(-0.0157576 0.0268874 -0.00010316)
(-0.0224116 0.0311677 3.43297e-05)
(-0.0297353 0.0345234 0.000135325)
(-0.0375297 0.0369172 0.000202117)
(-0.0456048 0.0383453 0.000236418)
(-0.0537784 0.0388282 0.000239671)
(-0.0618777 0.0384031 0.000213131)
(-0.0697394 0.0371186 0.000157894)
(-0.0772108 0.0350307 7.49569e-05)
(-0.0841501 0.0322009 -3.46855e-05)
(-0.0904271 0.028695 -0.000169934)
(-0.0959236 0.0245836 -0.000329463)
(-0.100534 0.0199424 -0.000511599)
(-0.104168 0.0148536 -0.000714201)
(-0.106747 0.00940665 -0.000934561)
(-0.108212 0.00369993 -0.00116933)
(-0.108519 -0.00215898 -0.00141446)
(-0.107645 -0.00805287 -0.00166523)
(-0.105588 -0.0138554 -0.00191627)
(-0.10237 -0.0194325 -0.00216166)
(-0.098035 -0.0246442 -0.00239513)
(-0.0926557 -0.0293481 -0.0026102)
(-0.0863304 -0.0334033 -0.00280049)
(-0.079185 -0.0366754 -0.00295998)
(-0.0713717 -0.0390423 -0.00308334)
(-0.063067 -0.0404007 -0.00316619)
(-0.0544695 -0.040673 -0.00320538)
(-0.0457943 -0.0398141 -0.00319913)
(-0.0372686 -0.0378186 -0.00314722)
(-0.0291239 -0.034727 -0.00305089)
(-0.0215893 -0.0306311 -0.00291272)
(-0.0148842 -0.0256795 -0.00273606)
(-0.00920928 -0.0200804 -0.00252602)
(-0.0047282 -0.0141043 -0.00229181)
(-0.00162048 -0.00807959 -0.00201933)
(-0.0002187 -0.00240758 -0.00140262)
(-0.000310179 0.00414465 -0.00100743)
(-0.00210636 0.0124096 -0.000756988)
(-0.00589891 0.0202243 -0.000457154)
(-0.0111469 0.0273 -0.000225201)
(-0.0175565 0.0334409 -3.30082e-05)
(-0.0249027 0.0385172 0.00011707)
(-0.0329553 0.0424558 0.000227266)
(-0.0414942 0.045229 0.000300838)
(-0.0503125 0.0468427 0.000340251)
(-0.0592149 0.0473277 0.000347515)
(-0.068018 0.0467319 0.000324275)
(-0.0765503 0.0451146 0.000271855)
(-0.0846523 0.0425434 0.000191335)
(-0.0921767 0.0390912 8.36715e-05)
(-0.0989882 0.0348361 -5.0168e-05)
(-0.104964 0.0298613 -0.000209058)
(-0.109994 0.0242557 -0.000391566)
(-0.113983 0.0181159 -0.000595804)
(-0.116848 0.0115468 -0.000819302)
(-0.118524 0.00466379 -0.00105891)
(-0.118963 -0.00240704 -0.00131071)
(-0.118136 -0.00952803 -0.00157002)
(-0.116035 -0.0165505 -0.00183141)
(-0.112676 -0.023316 -0.00208877)
(-0.1081 -0.0296588 -0.00233547)
(-0.102376 -0.035409 -0.00256459)
(-0.0956021 -0.0403976 -0.00276913)
(-0.0879046 -0.044462 -0.00294235)
(-0.0794409 -0.0474531 -0.00307811)
(-0.0703961 -0.0492426 -0.00317117)
(-0.0609816 -0.0497314 -0.00321746)
(-0.0514304 -0.048858 -0.00321439)
(-0.0419919 -0.0466068 -0.00316094)
(-0.0329249 -0.0430151 -0.0030577)
(-0.0244895 -0.0381798 -0.00290676)
(-0.0169404 -0.0322614 -0.00271112)
(-0.0105153 -0.0254879 -0.00247597)
(-0.00541473 -0.0181533 -0.00221136)
(-0.00186056 -0.010612 -0.0019008)
(-0.000251892 -0.00328973 -0.00125813)
(-0.000343726 0.00528371 -0.000997655)
(-0.00232791 0.0155016 -0.000700265)
(-0.00650726 0.0249659 -0.000370976)
(-0.0122732 0.0334066 -0.000117661)
(-0.019292 0.040645 9.13706e-05)
(-0.0273098 0.0465671 0.000254144)
(-0.0360706 0.0511147 0.00037373)
(-0.0453331 0.0542743 0.000454252)
(-0.0548738 0.0560659 0.000498839)
(-0.0644844 0.0565337 0.000509988)
(-0.0739719 0.0557386 0.000489679)
(-0.0831573 0.0537532 0.00043941)
(-0.0918756 0.0506575 0.000360306)
(-0.0999746 0.0465371 0.000253253)
(-0.107315 0.0414828 0.000119064)
(-0.113772 0.0355903 -4.13553e-05)
(-0.11923 0.0289619 -0.000226823)
(-0.123589 0.021708 -0.000435715)
(-0.126764 0.0139487 -0.000665802)
(-0.128683 0.00581573 -0.000914125)
(-0.129291 -0.00254663 -0.0011769)
(-0.128554 -0.0109805 -0.00144945)
(-0.126456 -0.019315 -0.00172624)
(-0.123006 -0.0273669 -0.00200091)
(-0.118238 -0.0349435 -0.00226642)
(-0.112216 -0.041846 -0.00251528)
(-0.105034 -0.0478751 -0.00273977)
(-0.0968171 -0.052837 -0.00293227)
(-0.0877257 -0.0565514 -0.00308567)
(-0.0779522 -0.0588607 -0.00319367)
(-0.06772 -0.0596396 -0.00325118)
(-0.0572801 -0.0588047 -0.00325458)
(-0.0469059 -0.0563251 -0.00320196)
(-0.0368856 -0.05223 -0.00309323)
(-0.0275139 -0.0466169 -0.00292999)
(-0.0190842 -0.0396559 -0.00271499)
(-0.0118755 -0.031592 -0.00245365)
(-0.00612817 -0.0227434 -0.00215711)
(-0.00210916 -0.0134926 -0.00180666)
(-0.000285984 -0.00429497 -0.00113244)
(-0.000376009 0.0065345 -0.000933486)
(-0.00254142 0.0188906 -0.000580727)
(-0.00709418 0.030151 -0.00022295)
(-0.0133609 0.0400667 5.11257e-05)
(-0.0209696 0.0484796 0.000276597)
(-0.0296383 0.0552964 0.000451819)
(-0.0390854 0.0604787 0.000580634)
(-0.0490491 0.0640319 0.000667952)
(-0.0592895 0.0659939 0.000717498)
(-0.0695862 0.0664258 0.000732203)
(-0.0797371 0.0654048 0.000714318)
(-0.0895567 0.0630184 0.00066547)
(-0.0988754 0.0593609 0.000586785)
(-0.107538 0.0545314 0.000479042)
(-0.115402 0.0486335 0.000342866)
(-0.12234 0.0417759 0.000178913)
(-0.128234 0.0340738 -1.19153e-05)
(-0.132981 0.0256507 -0.000228281)
(-0.13649 0.016641 -0.000468219)
(-0.138684 0.00719186 -0.000728983)
(-0.139504 -0.00253509 -0.00100692)
(-0.138904 -0.0123627 -0.00129737)
(-0.136861 -0.0220979 -0.00159467)
(-0.133375 -0.0315331 -0.00189218)
(-0.128472 -0.0404479 -0.0021824)
(-0.122205 -0.0486132 -0.00245716)
(-0.114662 -0.0557967 -0.0027079)
(-0.105966 -0.0617703 -0.00292599)
(-0.0962753 -0.0663185 -0.00310315)
(-0.0857889 -0.069249 -0.00323185)
(-0.0747411 -0.0704043 -0.00330573)
(-0.0634009 -0.0696731 -0.00332)
(-0.0520663 -0.0670024 -0.0032717)
(-0.0410575 -0.062408 -0.00315991)
(-0.0307072 -0.0559828 -0.00298572)
(-0.0213518 -0.0479026 -0.00275167)
(-0.0133161 -0.0384281 -0.00246347)
(-0.00688445 -0.0279022 -0.0021336)
(-0.00237294 -0.0167386 -0.00174112)
(-0.000322243 -0.00542925 -0.0010282)
(-0.000407334 0.00789332 -0.000809215)
(-0.0027483 0.0225668 -0.00039142)
(-0.00766261 0.0357652 -6.12695e-06)
(-0.0144141 0.0472624 0.000287975)
(-0.0225937 0.0569247 0.000529279)
(-0.0318917 0.0646835 0.000716456)
(-0.0420017 0.070525 0.000854072)
(-0.0526417 0.0744781 0.000947782)
(-0.063556 0.0766028 0.00100186)
(-0.0745129 0.0769811 0.00101963)
(-0.0853019 0.075709 0.00100356)
(-0.0957325 0.0728914 0.00095536)
(-0.105631 0.0686386 0.000876122)
(-0.114841 0.063064 0.000766476)
(-0.123219 0.0562848 0.000626814)
(-0.130635 0.0484221 0.000457504)
(-0.136971 0.0396034 0.000259124)
(-0.14212 0.0299647 3.26835e-05)
(-0.145988 0.0196532 -0.00022016)
(-0.148492 0.00883035 -0.00049691)
(-0.149565 -0.00232655 -0.000794075)
(-0.149154 -0.0136222 -0.00110705)
(-0.147224 -0.0248425 -0.00143005)
(-0.143765 -0.0357557 -0.00175613)
(-0.138789 -0.0461136 -0.0020773)
(-0.13234 -0.0556556 -0.00238464)
(-0.124495 -0.0641144 -0.00266862)
(-0.115369 -0.0712238 -0.00291945)
(-0.105118 -0.0767284 -0.00312749)
(-0.093944 -0.0803956 -0.00328376)
(-0.0820898 -0.0820285 -0.00338041)
(-0.0698418 -0.0814807 -0.00341119)
(-0.0575236 -0.0786696 -0.00337188)
(-0.0454894 -0.07359 -0.00326059)
(-0.0341133 -0.0663246 -0.00307775)
(-0.0237793 -0.0570503 -0.00282564)
(-0.0148633 -0.0460419 -0.00251036)
(-0.00769933 -0.0336673 -0.00214585)
(-0.00265835 -0.0203754 -0.00170881)
(-0.000361861 -0.00670204 -0.000948403)
(-0.000437906 0.0093571 -0.000619233)
(-0.00294959 0.0265216 -0.00012553)
(-0.00821482 0.0417952 0.000286332)
(-0.015436 0.0549765 0.000599649)
(-0.0241674 0.0659596 0.000856039)
(-0.034072 0.0747051 0.00105449)
(-0.0448191 0.0812281 0.00120027)
(-0.0561067 0.0855857 0.00129977)
(-0.0676644 0.0878647 0.00135778)
(-0.0792496 0.0881714 0.00137797)
(-0.0906451 0.0866241 0.00136302)
(-0.101656 0.0833477 0.00131468)
(-0.112108 0.0784697 0.00123396)
(-0.121842 0.0721195 0.00112129)
(-0.130717 0.0644277 0.000976803)
(-0.138602 0.0555279 0.000800515)
(-0.145378 0.045559 0.000592626)
(-0.150939 0.034668 0.000353759)
(-0.155186 0.0230137 8.52004e-05)
(-0.158032 0.0107696 -0.000210869)
(-0.159401 -0.00187302 -0.000531183)
(-0.159232 -0.0147026 -0.00087123)
(-0.157478 -0.0274859 -0.00122516)
(-0.154115 -0.0399677 -0.00158574)
(-0.14914 -0.0518724 -0.00194445)
(-0.142583 -0.0629072 -0.00229157)
(-0.134507 -0.0727679 -0.00261653)
(-0.125015 -0.0811467 -0.00290819)
(-0.114258 -0.0877434 -0.00315537)
(-0.102434 -0.0922782 -0.00334735)
(-0.0897944 -0.0945075 -0.00347451)
(-0.07664 -0.0942405 -0.00352886)
(-0.0633202 -0.0913561 -0.00350462)
(-0.0502247 -0.0858195 -0.00339863)
(-0.0377726 -0.0776953 -0.00321053)
(-0.0264007 -0.0671565 -0.00294218)
(-0.0165425 -0.0544887 -0.00260004)
(-0.00858822 -0.0400859 -0.00219965)
(-0.00297173 -0.0244358 -0.00171514)
(-0.000405986 -0.00812618 -0.000896718)
(-0.000467874 0.0109232 -0.00035796)
(-0.0031461 0.0307474 0.000223709)
(-0.00875264 0.0482285 0.000661234)
(-0.016429 0.0631921 0.00099291)
(-0.0256928 0.0755633 0.00126353)
(-0.0361797 0.0853359 0.00147241)
(-0.0475348 0.092559 0.00162555)
(-0.0594367 0.0973228 0.00173004)
(-0.0716006 0.0997452 0.0017912)
(-0.0837745 0.0999612 0.00181305)
(-0.0957354 0.0981149 0.00179843)
(-0.107286 0.0943536 0.00174913)
(-0.118252 0.0888244 0.00166603)
(-0.128477 0.0816731 0.00154934)
(-0.13782 0.0730444 0.00139884)
(-0.146154 0.0630841 0.00121417)
(-0.153362 0.0519413 0.000995081)
(-0.159336 0.0397728 0.000741719)
(-0.163975 0.0267466 0.000454921)
(-0.16719 0.0130461 0.000136461)
(-0.168897 -0.00112607 -0.000210709)
(-0.169023 -0.0155446 -0.00058226)
(-0.167512 -0.0299591 -0.000972338)
(-0.16432 -0.0440931 -0.00137349)
(-0.159431 -0.0576446 -0.00177666)
(-0.152854 -0.0702884 -0.00217133)
(-0.144634 -0.0816818 -0.00254577)
(-0.13486 -0.0914723 -0.00288735)
(-0.123667 -0.0993096 -0.00318313)
(-0.111251 -0.10486 -0.00342038)
(-0.0978624 -0.107824 -0.00358735)
(-0.0838166 -0.107956 -0.00367394)
(-0.0694868 -0.105086 -0.00367243)
(-0.0552992 -0.0991391 -0.00357805)
(-0.0417212 -0.0901514 -0.00338932)
(-0.029248 -0.0782851 -0.00310749)
(-0.0183778 -0.0638329 -0.00273931)
(-0.00956602 -0.0472145 -0.00230201)
(-0.00331923 -0.0289604 -0.00176678)
(-0.000455747 -0.0097178 -0.000877888)
(-0.000497363 0.0125895 -1.9811e-05)
(-0.0033386 0.0352372 0.000663077)
(-0.00927785 0.0550534 0.00112542)
(-0.0173954 0.0718923 0.00147457)
(-0.0271719 0.0857132 0.00175846)
(-0.0382148 0.0965477 0.00197677)
(-0.0501447 0.104484 0.00213625)
(-0.0626213 0.109651 0.00224473)
(-0.0753462 0.112202 0.00230807)
(-0.088059 0.112306 0.00233064)
(-0.100533 0.110135 0.00231545)
(-0.11257 0.105864 0.0022643)
(-0.123998 0.0996599 0.00217794)
(-0.134664 0.0916872 0.0020563)
(-0.144433 0.0821047 0.00189878)
(-0.153182 0.0710696 0.00170456)
(-0.160797 0.0587406 0.00147285)
(-0.167173 0.045282 0.00120324)
(-0.172209 0.0308688 0.000896016)
(-0.175812 0.0156914 0.000552419)
(-0.177892 -3.91129e-05 0.000174966)
(-0.178367 -0.0160871 -0.000232315)
(-0.177166 -0.0321882 -0.00066368)
(-0.17423 -0.0480474 -0.00111153)
(-0.16952 -0.0633381 -0.00156636)
(-0.163026 -0.0777037 -0.00201684)
(-0.154768 -0.090762 -0.00245001)
(-0.144814 -0.102113 -0.00285164)
(-0.133281 -0.111353 -0.00320679)
(-0.120352 -0.118084 -0.00350041)
(-0.106275 -0.121943 -0.00371823)
(-0.091372 -0.122618 -0.00384758)
(-0.076039 -0.119875 -0.00387832)
(-0.0607384 -0.113587 -0.00380361)
(-0.0459887 -0.10375 -0.00362041)
(-0.0323492 -0.0905053 -0.00332907)
(-0.0203918 -0.0741468 -0.00293644)
(-0.0106471 -0.0551184 -0.00246148)
(-0.00370694 -0.0339966 -0.00187204)
(-0.000512285 -0.0114962 -0.000898081)
(-0.000526506 0.0143541 0.000400823)
(-0.00352803 0.0399854 0.00119943)
(-0.00979275 0.0622594 0.00168582)
(-0.0183386 0.0810604 0.00205153)
(-0.0286074 0.0963856 0.00234762)
(-0.0401775 0.108309 0.00257417)
(-0.0526445 0.116964 0.00273873)
(-0.0656487 0.122523 0.00284991)
(-0.0788794 0.125182 0.00291417)
(-0.092069 0.125147 0.00293626)
(-0.104988 0.122625 0.00291941)
(-0.117442 0.117818 0.00286541)
(-0.129262 0.110918 0.00277486)
(-0.140303 0.102108 0.0026474)
(-0.150437 0.0915617 0.00248198)
(-0.159547 0.0794475 0.00227724)
(-0.167528 0.065932 0.00203179)
(-0.174279 0.0511851 0.00174453)
(-0.179701 0.035386 0.00141506)
(-0.183699 0.0187291 0.00104397)
(-0.18618 0.00142963 0.000633174)
(-0.187052 -0.01627 0.000186241)
(-0.186229 -0.0340958 -0.000291348)
(-0.183636 -0.0517378 -0.000791987)
(-0.179211 -0.0688479 -0.00130583)
(-0.172917 -0.0850401 -0.00182077)
(-0.164747 -0.0998933 -0.00232264)
(-0.154741 -0.112959 -0.00279547)
(-0.142991 -0.123772 -0.00322211)
(-0.129658 -0.131868 -0.00358486)
(-0.11498 -0.136805 -0.00386649)
(-0.099281 -0.138194 -0.00405122)
(-0.0829734 -0.135722 -0.00412588)
(-0.0665547 -0.129192 -0.00408097)
(-0.0505965 -0.118545 -0.00391134)
(-0.0357284 -0.103888 -0.00361595)
(-0.0226054 -0.0855086 -0.00320147)
(-0.0118454 -0.0638707 -0.00268862)
(-0.00414093 -0.0395991 -0.00204132)
(-0.000576783 -0.013484 -0.000965287)
(-0.000555545 0.0162157 0.000909589)
(-0.00371584 0.0449873 0.00183975)
(-0.0103008 0.0698368 0.00234956)
(-0.0192635 0.0906798 0.00273089)
(-0.0300043 0.107555 0.00303793)
(-0.0420704 0.120585 0.00327124)
(-0.055031 0.129954 0.00343924)
(-0.0685073 0.135885 0.00355144)
(-0.0821765 0.138621 0.00361496)
(-0.0957657 0.138413 0.00363501)
(-0.109046 0.135507 0.00361508)
(-0.121827 0.130136 0.00355699)
(-0.133948 0.12252 0.00346119)
(-0.145274 0.112861 0.00332699)
(-0.155688 0.101348 0.00315286)
(-0.165086 0.0881608 0.00293683)
(-0.173369 0.0734718 0.00267677)
(-0.180447 0.0574545 0.00237081)
(-0.186225 0.0402892 0.00201771)
(-0.190611 0.0221704 0.00161721)
(-0.193507 0.00331353 0.00117047)
(-0.194814 -0.0160374 0.000680375)
(-0.194435 -0.0356035 0.000151956)
(-0.192275 -0.0550649 -0.000407373)
(-0.188247 -0.0740567 -0.000987578)
(-0.182286 -0.0921668 -0.00157592)
(-0.174352 -0.108937 -0.00215702)
(-0.164449 -0.12387 -0.00271316)
(-0.152635 -0.136436 -0.00322474)
(-0.139042 -0.146096 -0.00367112)
(-0.123887 -0.152321 -0.0040316)
(-0.107487 -0.154626 -0.00428668)
(-0.0902629 -0.152604 -0.00441944)
(-0.0727442 -0.145967 -0.00441693)
(-0.0555561 -0.134581 -0.00427115)
(-0.0394042 -0.118504 -0.00397905)
(-0.0250371 -0.0980006 -0.00354669)
(-0.0131742 -0.0735512 -0.00299645)
(-0.00462735 -0.045829 -0.00228765)
(-0.000650498 -0.0157071 -0.00108975)
(-0.000584853 0.018174 0.00151221)
(-0.00390431 0.0502408 0.0025913)
(-0.0108075 0.0777785 0.00312405)
(-0.0201783 0.100735 0.00351999)
(-0.0313714 0.119196 0.00383649)
(-0.0438998 0.133337 0.00407466)
(-0.0573044 0.1434 0.00424394)
(-0.0711868 0.149668 0.00435488)
(-0.0852132 0.152439 0.00441539)
(-0.0991072 0.152015 0.00443127)
(-0.112643 0.148685 0.00440634)
(-0.125638 0.142718 0.00434252)
(-0.137944 0.134364 0.00424012)
(-0.14944 0.123847 0.0040981)
(-0.160024 0.111372 0.00391443)
(-0.169605 0.0971279 0.00368641)
(-0.178102 0.0812926 0.00341112)
(-0.185433 0.0640403 0.00308575)
(-0.191515 0.0455494 0.00270805)
(-0.196258 0.0260101 0.00227673)
(-0.199567 0.00563328 0.00179197)
(-0.201337 -0.0153411 0.00125575)
(-0.201459 -0.0366351 0.000672375)
(-0.199819 -0.0579254 4.88295e-05)
(-0.196308 -0.0788363 -0.000604906)
(-0.190826 -0.0989349 -0.00127564)
(-0.183296 -0.11773 -0.00194693)
(-0.173679 -0.134676 -0.00259926)
(-0.161992 -0.149178 -0.00321052)
(-0.148324 -0.160616 -0.00375677)
(-0.132859 -0.168362 -0.00421334)
(-0.115894 -0.171821 -0.00455633)
(-0.0978512 -0.170468 -0.00476419)
(-0.0792828 -0.163902 -0.00481957)
(-0.0608667 -0.151891 -0.00471069)
(-0.0433888 -0.134416 -0.00443156)
(-0.0277029 -0.111706 -0.00398705)
(-0.0146464 -0.0842455 -0.00340099)
(-0.00517252 -0.052754 -0.00262728)
(-0.000734797 -0.0181944 -0.00128448)
(-0.000615033 0.02023 0.00221455)
(-0.004097 0.0557467 0.00346171)
(-0.0113214 0.0860811 0.00401718)
(-0.0210958 0.111214 0.00442661)
(-0.0327235 0.13128 0.00475068)
(-0.0456782 0.146519 0.0049912)
(-0.0594702 0.15724 0.00515881)
(-0.0736808 0.163792 0.00526533)
(-0.0879662 0.16654 0.00531968)
(-0.102049 0.165842 0.00532841)
(-0.115711 0.162037 0.0052958)
(-0.12878 0.155436 0.00522398)
(-0.141126 0.14632 0.00511314)
(-0.152645 0.134939 0.0049619)
(-0.163255 0.121512 0.00476766)
(-0.172888 0.106238 0.00452697)
(-0.181477 0.0892987 0.00423596)
(-0.188958 0.0708662 0.00389074)
(-0.195262 0.0511132 0.00348788)
(-0.200308 0.0302216 0.00302487)
(-0.204005 0.00839202 0.00250062)
(-0.206246 -0.0141454 0.00191594)
(-0.206913 -0.0371211 0.00127413)
(-0.205878 -0.0602155 0.000581411)
(-0.203003 -0.08305 -0.000152602)
(-0.198156 -0.105179 -0.000914541)
(-0.191219 -0.126083 -0.00168711)
(-0.182104 -0.145173 -0.00244913)
(-0.170771 -0.161791 -0.0031759)
(-0.157259 -0.17523 -0.00383993)
(-0.141702 -0.184753 -0.00441211)
(-0.124362 -0.189637 -0.00486334)
(-0.105646 -0.189219 -0.00516649)
(-0.0861214 -0.182955 -0.00529864)
(-0.0665115 -0.170482 -0.00524297)
(-0.0476865 -0.151678 -0.00498944)
(-0.030616 -0.126707 -0.00454081)
(-0.0162745 -0.0960432 -0.00392197)
(-0.00578307 -0.0604476 -0.00308037)
(-0.000831211 -0.0209787 -0.00156582)
(-0.000647036 0.0223871 0.00302276)
(-0.00429935 0.0615113 0.00445927)
(-0.0118554 0.0947466 0.00503758)
(-0.0220358 0.122106 0.00545919)
(-0.0340832 0.143782 0.00578834)
(-0.0474264 0.160084 0.00602775)
(-0.0615412 0.171401 0.0061896)
(-0.0759878 0.178162 0.00628727)
(-0.0904142 0.180806 0.00633103)
(-0.104545 0.179758 0.00632843)
(-0.118174 0.175414 0.00628439)
(-0.131146 0.168131 0.00620135)
(-0.143352 0.158227 0.00607948)
(-0.154713 0.145975 0.00591706)
(-0.165173 0.131613 0.00571089)
(-0.174687 0.115348 0.00545666)
(-0.183212 0.0973619 0.00514945)
(-0.190708 0.0778242 0.00478415)
(-0.19712 0.0568979 0.00435595)
(-0.202383 0.0347515 0.00386086)
(-0.206415 0.0115702 0.00329629)
(-0.209112 -0.0124327 0.00266157)
(-0.210352 -0.0370036 0.00195861)
(-0.209991 -0.0618359 0.00119252)
(-0.207871 -0.0865571 0.000372164)
(-0.203824 -0.110718 -0.000489313)
(-0.197686 -0.133783 -0.00137409)
(-0.189313 -0.155124 -0.00225957)