/*--------------------------------*- C++ -*----------------------------------*\
  =========                 |
  \\      /  F ield         | OpenFOAM: The Open Source CFD Toolbox
   \\    /   O peration     | Website:  https://openfoam.org
    \\  /    A nd           | Version:  9
     \\/     M anipulation  |
\*---------------------------------------------------------------------------*/
FoamFile
{
    format      ascii;
    class       volVectorField;
    location    "0.28";
    object      U;
}
// * * * * * * * * * * * * * * * * * * * * * * * * * * * * * * * * * * * * * //

dimensions      [0 1 -1 0 0 0 0];

internalField   nonuniform List<vector> 
2268
(
(-0.0467573 0.0159956 0)
(-0.0650724 -0.000715841 0)
(-0.0343643 -0.0140223 0)
(0.0128913 -0.0174494 0)
(0.0695937 -0.0190869 0)
(0.128777 -0.0193954 0)
(0.188898 -0.0193293 0)
(0.249325 -0.0192353 0)
(0.30978 -0.019138 0)
(0.370003 -0.0189701 0)
(0.429497 -0.0186305 0)
(0.487401 -0.0179843 0)
(0.542342 -0.0168376 0)
(0.592179 -0.0148754 0)
(0.633373 -0.0115694 0)
(0.661023 -0.00541841 0)
(0.664001 0.00582598 0)
(0.623041 0.0233819 0)
(0.525174 0.0460536 0)
(0.356222 0.066464 0)
(0.14776 0.0764176 0)
(-0.154451 0.0262759 0)
(-0.118068 -0.083726 0)
(-0.0325575 0.0352389 0)
(-0.0224798 -0.00438185 0)
(0.0121533 -0.0284458 0)
(0.0606125 -0.0382686 0)
(0.116496 -0.0423997 0)
(0.175167 -0.0438163 0)
(0.234913 -0.0442657 0)
(0.294982 -0.0444033 0)
(0.354945 -0.0443365 0)
(0.414392 -0.0439603 0)
(0.472745 -0.0430688 0)
(0.529124 -0.0413609 0)
(0.582206 -0.0383885 0)
(0.630001 -0.0334354 0)
(0.669572 -0.0253345 0)
(0.696399 -0.0118662 0)
(0.707005 0.01025 0)
(0.695974 0.0436843 0)
(0.649258 0.088308 0)
(0.541122 0.135885 0)
(0.368463 0.169883 0)
(0.0740532 0.126166 0)
(0.0303245 -0.0824707 0)
(-0.010508 0.0414687 0)
(0.00666499 -0.0167975 0)
(0.0445587 -0.0480131 0)
(0.0934603 -0.0620772 0)
(0.148311 -0.0680388 0)
(0.205668 -0.0702725 0)
(0.264051 -0.0710316 0)
(0.322718 -0.0712065 0)
(0.381177 -0.0709727 0)
(0.438956 -0.0701926 0)
(0.495446 -0.0685653 0)
(0.549782 -0.0656369 0)
(0.600711 -0.0607283 0)
(0.646409 -0.0527907 0)
(0.68427 -0.0401971 0)
(0.710529 -0.0205295 0)
(0.721035 0.00975829 0)
(0.711476 0.0547424 0)
(0.675995 0.116662 0)
(0.601815 0.189292 0)
(0.481438 0.250385 0)
(0.254176 0.216222 0)
(0.133402 -0.0174706 0)
(0.00419462 0.0372487 0)
(0.0282082 -0.0307901 0)
(0.0698986 -0.0690143 0)
(0.119817 -0.0865915 0)
(0.174057 -0.0941078 0)
(0.230229 -0.0970196 0)
(0.287208 -0.0980108 0)
(0.344362 -0.0981507 0)
(0.401207 -0.0976642 0)
(0.457259 -0.0963827 0)
(0.511911 -0.0939192 0)
(0.564337 -0.0896794 0)
(0.613371 -0.0827768 0)
(0.657369 -0.0718694 0)
(0.694041 -0.054946 0)
(0.720224 -0.029183 0)
(0.732178 0.00920047 0)
(0.72607 0.064483 0)
(0.698095 0.139689 0)
(0.641312 0.23064 0)
(0.549013 0.316384 0)
(0.371763 0.307386 0)
(0.207665 0.093466 0)
(0.0115431 0.026779 0)
(0.0433506 -0.0483525 0)
(0.0896623 -0.0914818 0)
(0.14127 -0.11154 0)
(0.195432 -0.120167 0)
(0.250739 -0.123567 0)
(0.306486 -0.124709 0)
(0.362214 -0.124764 0)
(0.417504 -0.123978 0)
(0.471899 -0.122148 0)
(0.524827 -0.118808 0)
(0.575518 -0.113242 0)
(0.622919 -0.104386 0)
(0.665583 -0.0906519 0)
(0.701553 -0.0697179 0)
(0.728203 -0.0384288 0)
(0.742375 0.0071759 0)
(0.740865 0.0714233 0)
(0.720685 0.157567 0)
(0.677154 0.262916 0)
(0.601882 0.370354 0)
(0.458623 0.397548 0)
(0.266628 0.242464 0)
(0.0149126 0.012582 0)
(0.0536816 -0.0691613 0)
(0.104782 -0.115481 0)
(0.158466 -0.13691 0)
(0.212947 -0.146067 0)
(0.267688 -0.149672 0)
(0.322412 -0.150827 0)
(0.376858 -0.150722 0)
(0.430703 -0.149586 0)
(0.48355 -0.147176 0)
(0.534879 -0.142955 0)
(0.583999 -0.136099 0)
(0.629983 -0.1254 0)
(0.671609 -0.10908 0)
(0.707267 -0.0845725 0)
(0.734842 -0.0484636 0)
(0.75178 0.00334353 0)
(0.755543 0.075165 0)
(0.74375 0.170408 0)
(0.713022 0.287928 0)
(0.652757 0.415357 0)
(0.538932 0.485952 0)
(0.323481 0.424252 0)
(0.016742 -0.00391411 0)
(0.0608949 -0.0926749 0)
(0.116282 -0.141009 0)
(0.172042 -0.162821 0)
(0.227015 -0.171922 0)
(0.281387 -0.175414 0)
(0.335255 -0.176409 0)
(0.388551 -0.176042 0)
(0.441062 -0.174495 0)
(0.492461 -0.171474 0)
(0.542302 -0.166373 0)
(0.589978 -0.15828 0)
(0.634704 -0.145878 0)
(0.675494 -0.127252 0)
(0.711109 -0.0996552 0)
(0.739943 -0.0594759 0)
(0.760042 -0.00252293 0)
(0.76956 0.0754794 0)
(0.766861 0.178061 0)
(0.749946 0.305657 0)
(0.707422 0.451007 0)
(0.630341 0.571743 0)
(0.391598 0.635479 0)
(0.0181998 -0.0219374 0)
(0.0662961 -0.118318 0)
(0.125124 -0.16783 0)
(0.182666 -0.189228 0)
(0.238106 -0.197764 0)
(0.292186 -0.20084 0)
(0.345303 -0.201491 0)
(0.397547 -0.200747 0)
(0.448811 -0.198716 0)
(0.498848 -0.195045 0)
(0.547287 -0.189065 0)
(0.593612 -0.179791 0)
(0.637178 -0.165832 0)
(0.677248 -0.145195 0)
(0.71297 -0.115023 0)
(0.743248 -0.071567 0)
(0.766724 -0.010596 0)
(0.782265 0.0720626 0)
(0.789224 0.179869 0)
(0.787475 0.314359 0)
(0.768437 0.472585 0)
(0.737299 0.640656 0)
(0.484637 0.918694 0)
(0.0115768 0.00133131 0)
(-0.0562887 0.0241634 0)
(-0.154356 0.0211431 0)
(-0.194221 0.00734071 0)
(-0.194449 -0.00290282 0)
(-0.169063 -0.008645 0)
(-0.132722 -0.0106785 0)
(-0.0925706 -0.0108614 0)
(-0.0538469 -0.00985732 0)
(-0.020072 -0.00805444 0)
(0.00675531 -0.00593284 0)
(0.0255259 -0.0038666 0)
(0.0362831 -0.00191369 0)
(0.0400127 -0.000178918 0)
(0.0378179 0.00113597 0)
(0.0311417 0.00200529 0)
(0.021691 0.00231875 0)
(0.0125226 0.00207042 0)
(0.00360623 0.00131764 0)
(-0.0303262 0.0186563 0)
(-0.115942 0.0551882 0)
(-0.191173 0.0428471 0)
(-0.213895 0.0117874 0)
(-0.204369 -0.00892364 0)
(-0.177737 -0.0208381 0)
(-0.140832 -0.025823 0)
(-0.100575 -0.026483 0)
(-0.0615812 -0.0243251 0)
(-0.0271849 -0.0202265 0)
(0.000726088 -0.0151522 0)
(0.0209009 -0.00995121 0)
(0.0331701 -0.00497728 0)
(0.0383006 -0.000625679 0)
(0.0374225 0.00279265 0)
(0.0318949 0.00516411 0)
(0.0232374 0.00623029 0)
(0.0135617 0.00601237 0)
(0.00378767 0.00545842 0)
(-0.0680254 0.061023 0)
(-0.151521 0.0855499 0)
(-0.204662 0.0594315 0)
(-0.220934 0.0128204 0)
(-0.207474 -0.0168989 0)
(-0.179174 -0.0340609 0)
(-0.141771 -0.0415597 0)
(-0.101715 -0.0425636 0)
(-0.0631031 -0.0392582 0)
(-0.0290337 -0.0329833 0)
(-0.00120215 -0.0250956 0)
(0.0192392 -0.0167969 0)
(0.0320507 -0.00878757 0)
(0.0378432 -0.0017414 0)
(0.0376125 0.0039141 0)
(0.0326648 0.00790137 0)
(0.0244294 0.00998725 0)
(0.0146151 0.0101762 0)
(0.0043093 0.00883512 0)
(-0.0958537 0.113726 0)
(-0.179411 0.113588 0)
(-0.217582 0.072252 0)
(-0.228331 0.0118901 0)
(-0.209858 -0.0261829 0)
(-0.17912 -0.0482165 0)
(-0.140476 -0.0579041 0)
(-0.100051 -0.0590339 0)
(-0.0615442 -0.0544338 0)
(-0.0277963 -0.0459202 0)
(-0.000315345 -0.0352062 0)
(0.0199443 -0.0238138 0)
(0.032796 -0.0127688 0)
(0.0387748 -0.0029801 0)
(0.0387828 0.00494442 0)
(0.0340388 0.0106278 0)
(0.0258872 0.0138277 0)
(0.0158667 0.0145315 0)
(0.00509788 0.0132104 0)
(-0.1205 0.176957 0)
(-0.205804 0.139798 0)
(-0.231035 0.0811588 0)
(-0.236125 0.00826321 0)
(-0.211965 -0.0372603 0)
(-0.178177 -0.0635475 0)
(-0.137608 -0.0749935 0)
(-0.0962198 -0.0759486 0)
(-0.0574406 -0.0698101 0)
(-0.0238754 -0.058902 0)
(0.00315125 -0.0452941 0)
(0.0229321 -0.0308042 0)
(0.0354231 -0.0167471 0)
(0.0411616 -0.00423219 0)
(0.0410049 0.00596508 0)
(0.0360945 0.0133803 0)
(0.0276992 0.0177618 0)
(0.017264 0.0191049 0)
(0.005886 0.0178776 0)
(-0.14669 0.250482 0)
(-0.231479 0.162884 0)
(-0.242636 0.0860111 0)
(-0.242186 0.00205789 0)
(-0.212686 -0.0498597 0)
(-0.175882 -0.0798952 0)
(-0.133064 -0.0927511 0)
(-0.0902802 -0.0932162 0)
(-0.050899 -0.0852629 0)
(-0.0173714 -0.0717622 0)
(0.00914774 -0.0551598 0)
(0.0282169 -0.0375595 0)
(0.0399962 -0.0205284 0)
(0.0450933 -0.00533014 0)
(0.0443717 0.0071208 0)
(0.0389229 0.0162799 0)
(0.0299504 0.0218846 0)
(0.0188418 0.0239489 0)
(0.00663045 0.0230139 0)
(-0.174688 0.333752 0)
(-0.249194 0.175743 0)
(-0.244907 0.0867297 0)
(-0.241566 -0.00532623 0)
(-0.209556 -0.0631818 0)
(-0.171065 -0.097023 0)
(-0.126305 -0.111165 0)
(-0.081991 -0.110883 0)
(-0.0418236 -0.100812 0)
(-0.00825343 -0.0844669 0)
(0.0176994 -0.0647192 0)
(0.0358531 -0.0439499 0)
(0.0466011 -0.0239502 0)
(0.050675 -0.00610066 0)
(0.0489903 0.00858125 0)
(0.0426252 0.0194826 0)
(0.0327363 0.0263307 0)
(0.0206689 0.0291692 0)
(0.00737902 0.0286255 0)
(-0.222244 0.475898 0)
(-0.226177 0.172261 0)
(-0.217683 0.0820239 0)
(-0.224408 -0.0096718 0)
(-0.198238 -0.0785084 0)
(-0.161584 -0.115757 0)
(-0.116308 -0.130624 0)
(-0.0708247 -0.129268 0)
(-0.029902 -0.116718 0)
(0.00366726 -0.0971519 0)
(0.0289257 -0.0739792 0)
(0.0459374 -0.0498837 0)
(0.0553348 -0.0268505 0)
(0.0580189 -0.00634676 0)
(0.0549856 0.010556 0)
(0.0473252 0.0232034 0)
(0.0361671 0.0313133 0)
(0.0228458 0.0349676 0)
(0.00822831 0.0348102 0)
(0.0205305 -0.052715 0)
(0.073087 -0.162024 0)
(0.135701 -0.211893 0)
(0.195294 -0.231424 0)
(0.251246 -0.238319 0)
(0.304885 -0.240253 0)
(0.356941 -0.24004 0)
(0.407691 -0.238483 0)
(0.457168 -0.235551 0)
(0.505251 -0.230787 0)
(0.551681 -0.223423 0)
(0.596073 -0.212385 0)
(0.637985 -0.196231 0)
(0.677062 -0.172948 0)
(0.713078 -0.139612 0)
(0.74573 -0.0923221 0)
(0.774552 -0.0268522 0)
(0.799446 0.0605146 0)
(0.821543 0.172459 0)
(0.844402 0.31031 0)
(0.872669 0.473612 0)
(0.934729 0.666927 0)
(1.01399 1.03234 0)
(0.0242942 -0.0989549 0)
(0.0813424 -0.22638 0)
(0.146879 -0.274677 0)
(0.20742 -0.289921 0)
(0.26291 -0.293427 0)
(0.315306 -0.292991 0)
(0.365639 -0.291006 0)
(0.414341 -0.287927 0)
(0.461569 -0.283507 0)
(0.507317 -0.277143 0)
(0.551429 -0.267933 0)
(0.593597 -0.254725 0)
(0.633518 -0.236172 0)
(0.671264 -0.210538 0)
(0.707434 -0.175081 0)
(0.742707 -0.125774 0)
(0.777461 -0.0584512 0)
(0.812318 0.0297247 0)
(0.84934 0.139384 0)
(0.893484 0.268489 0)
(0.952837 0.412324 0)
(1.03676 0.566853 0)
(1.17753 0.7543 0)
(0.0287067 -0.151131 0)
(0.0894861 -0.293674 0)
(0.157946 -0.338097 0)
(0.218322 -0.347477 0)
(0.271996 -0.346683 0)
(0.322036 -0.343433 0)
(0.369863 -0.339476 0)
(0.416021 -0.334797 0)
(0.460714 -0.328901 0)
(0.503979 -0.321028 0)
(0.545677 -0.310113 0)
(0.585428 -0.294901 0)
(0.622845 -0.274286 0)
(0.658225 -0.247219 0)
(0.692953 -0.211505 0)
(0.728633 -0.162832 0)
(0.766141 -0.0967256 0)
(0.806079 -0.0109622 0)
(0.849877 0.0932541 0)
(0.900887 0.210688 0)
(0.9642 0.332879 0)
(1.04237 0.449745 0)
(1.1557 0.557364 0)
(0.0290486 -0.209299 0)
(0.0995326 -0.365829 0)
(0.17239 -0.402517 0)
(0.230448 -0.403399 0)
(0.280021 -0.397428 0)
(0.326097 -0.391394 0)
(0.370368 -0.385753 0)
(0.413277 -0.379782 0)
(0.45489 -0.372721 0)
(0.495174 -0.363654 0)
(0.533947 -0.351275 0)
(0.570693 -0.334061 0)
(0.604762 -0.311163 0)
(0.636375 -0.282708 0)
(0.667428 -0.247672 0)
(0.700285 -0.201288 0)
(0.736321 -0.138365 0)
(0.776306 -0.056775 0)
(0.821221 0.0414425 0)
(0.87306 0.148942 0)
(0.934483 0.257312 0)
(1.00772 0.357684 0)
(1.10118 0.446587 0)
(0.0247868 -0.278286 0)
(0.124741 -0.450412 0)
(0.194836 -0.468637 0)
(0.242395 -0.456802 0)
(0.284358 -0.445586 0)
(0.32516 -0.437361 0)
(0.365307 -0.430338 0)
(0.404581 -0.423029 0)
(0.44267 -0.414533 0)
(0.479369 -0.403829 0)
(0.514501 -0.389388 0)
(0.547599 -0.369468 0)
(0.577974 -0.34358 0)
(0.605612 -0.313195 0)
(0.631737 -0.27866 0)
(0.658469 -0.23453 0)
(0.688201 -0.175061 0)
(0.723359 -0.0982887 0)
(0.766032 -0.00581559 0)
(0.81772 0.0945421 0)
(0.879199 0.192831 0)
(0.951266 0.27993 0)
(1.03546 0.352883 0)
(0.053147 -0.358957 0)
(0.190253 -0.547245 0)
(0.222766 -0.524909 0)
(0.246488 -0.498928 0)
(0.280078 -0.484694 0)
(0.316741 -0.475024 0)
(0.35354 -0.466264 0)
(0.389423 -0.456657 0)
(0.423728 -0.445231 0)
(0.456814 -0.431175 0)
(0.488402 -0.413509 0)
(0.517895 -0.389921 0)
(0.545169 -0.359211 0)
(0.56985 -0.323988 0)
(0.590245 -0.288195 0)
(0.606783 -0.244963 0)
(0.624537 -0.188006 0)
(0.64898 -0.116342 0)
(0.686663 -0.0303186 0)
(0.743744 0.0624481 0)
(0.819505 0.150859 0)
(0.906906 0.225173 0)
(0.995914 0.284871 0)
(0.199146 -0.483289 0)
(0.29863 -0.634266 0)
(0.236749 -0.525043 0)
(0.235839 -0.507477 0)
(0.268256 -0.501533 0)
(0.305258 -0.493617 0)
(0.341476 -0.483861 0)
(0.375729 -0.471477 0)
(0.408197 -0.454985 0)
(0.440819 -0.434136 0)
(0.468404 -0.417281 0)
(0.492652 -0.395867 0)
(0.515977 -0.368451 0)
(0.540229 -0.336116 0)
(0.557627 -0.300113 0)
(0.564568 -0.256081 0)
(0.569427 -0.201574 0)
(0.579591 -0.136471 0)
(0.607783 -0.0624773 0)
(0.662168 0.014684 0)
(0.743688 0.105307 0)
(0.857485 0.189456 0)
(0.962547 0.239848 0)
(0.482019 -0.749225 0)
(0.227824 -0.573055 0)
(0.183901 -0.469468 0)
(0.230209 -0.518152 0)
(0.263643 -0.527588 0)
(0.299673 -0.523453 0)
(0.335999 -0.518036 0)
(0.371155 -0.516362 0)
(0.417154 -0.532247 0)
(0.471281 -0.536824 0)
(0.527453 -0.518696 0)
(0.583021 -0.490926 0)
(0.635716 -0.456133 0)
(0.685152 -0.409313 0)
(0.73091 -0.353724 0)
(0.772837 -0.298046 0)
(0.81235 -0.251166 0)
(0.850837 -0.218881 0)
(0.890952 -0.199784 0)
(0.935446 -0.185451 0)
(0.988574 -0.160876 0)
(1.0641 -0.108108 0)
(1.00732 0.0959197 0)
(-0.0805687 -1.22307 0)
(-0.00629458 -0.518023 0)
(0.104607 -0.465257 0)
(0.191523 -0.586779 0)
(0.254572 -0.635338 0)
(0.315242 -0.636285 0)
(0.375828 -0.623925 0)
(0.434659 -0.608212 0)
(0.488713 -0.589308 0)
(0.537998 -0.568772 0)
(0.58669 -0.544621 0)
(0.637067 -0.515981 0)
(0.689182 -0.481211 0)
(0.743008 -0.438433 0)
(0.799102 -0.388847 0)
(0.857875 -0.335795 0)
(0.919204 -0.28272 0)
(0.982237 -0.23169 0)
(1.04531 -0.181514 0)
(1.10519 -0.127183 0)
(1.15618 -0.0608753 0)
(1.19822 0.02164 0)
(1.23307 0.0982403 0)
(-0.13789 -0.862964 0)
(-0.0358469 -0.692862 0)
(0.0894988 -0.647456 0)
(0.185192 -0.658151 0)
(0.253728 -0.662669 0)
(0.31332 -0.655149 0)
(0.372055 -0.643445 0)
(0.429999 -0.631854 0)
(0.484963 -0.621277 0)
(0.536081 -0.608114 0)
(0.585155 -0.589935 0)
(0.63421 -0.56539 0)
(0.6846 -0.533669 0)
(0.737674 -0.494684 0)
(0.794814 -0.449881 0)
(0.856873 -0.401607 0)
(0.923868 -0.352101 0)
(0.994765 -0.302891 0)
(1.06771 -0.253539 0)
(1.14079 -0.200457 0)
(1.21299 -0.136029 0)
(1.29016 -0.0493494 0)
(1.3839 0.0580878 0)
(-0.0165975 -0.817514 0)
(0.0134789 -0.789877 0)
(0.0982501 -0.746604 0)
(0.171317 -0.733274 0)
(0.232245 -0.725283 0)
(0.286981 -0.714247 0)
(0.340241 -0.701366 0)
(0.39279 -0.688239 0)
(0.443759 -0.674933 0)
(0.492559 -0.659583 0)
(0.539645 -0.640292 0)
(0.586124 -0.615847 0)
(0.633391 -0.585638 0)
(0.683088 -0.549842 0)
(0.736783 -0.509661 0)
(0.795583 -0.466806 0)
(0.86003 -0.422842 0)
(0.930069 -0.378615 0)
(1.0053 -0.33348 0)
(1.08579 -0.284525 0)
(1.17314 -0.226335 0)
(1.27231 -0.152545 0)
(1.38982 -0.0641603 0)
(0.00986984 -0.848662 0)
(0.0391356 -0.843049 0)
(0.0927623 -0.810349 0)
(0.146361 -0.792365 0)
(0.196228 -0.779303 0)
(0.243453 -0.766247 0)
(0.289789 -0.752569 0)
(0.335599 -0.738372 0)
(0.38045 -0.723226 0)
(0.42396 -0.706034 0)
(0.466253 -0.685616 0)
(0.508011 -0.661132 0)
(0.550373 -0.632277 0)
(0.594791 -0.599415 0)
(0.642752 -0.563586 0)
(0.695521 -0.526144 0)
(0.754063 -0.488277 0)
(0.819154 -0.450548 0)
(0.891718 -0.412436 0)
(0.973408 -0.372022 0)
(1.06715 -0.325834 0)
(1.17781 -0.269213 0)
(1.30992 -0.198589 0)
(0.0105539 -0.865096 0)
(0.0382468 -0.881037 0)
(0.0749004 -0.855444 0)
(0.114367 -0.837581 0)
(0.153551 -0.823064 0)
(0.192129 -0.809235 0)
(0.230477 -0.795168 0)
(0.268576 -0.780379 0)
(0.306091 -0.764243 0)
(0.342751 -0.745976 0)
(0.37862 -0.72485 0)
(0.414195 -0.700453 0)
(0.450394 -0.672836 0)
(0.48844 -0.642589 0)
(0.529673 -0.610756 0)
(0.575394 -0.57855 0)
(0.626852 -0.547032 0)
(0.68537 -0.516871 0)
(0.752674 -0.48813 0)
(0.831385 -0.460002 0)
(0.925337 -0.430355 0)
(1.03991 -0.394902 0)
(1.18016 -0.346446 0)
(0.00957972 -0.888007 0)
(0.0293399 -0.907356 0)
(0.0526162 -0.887441 0)
(0.080511 -0.871305 0)
(0.109647 -0.857098 0)
(0.139277 -0.843399 0)
(0.169188 -0.829353 0)
(0.199136 -0.814307 0)
(0.228816 -0.79763 0)
(0.25803 -0.778745 0)
(0.28685 -0.757269 0)
(0.315695 -0.733153 0)
(0.345334 -0.70678 0)
(0.376811 -0.678968 0)
(0.411329 -0.650858 0)
(0.450164 -0.623704 0)
(0.494684 -0.59868 0)
(0.546489 -0.576793 0)
(0.607718 -0.558834 0)
(0.681486 -0.545178 0)
(0.772156 -0.535018 0)
(0.885626 -0.524445 0)
(1.02814 -0.503286 0)
(0.00512735 -0.904182 0)
(0.01659 -0.922355 0)
(0.0298956 -0.908484 0)
(0.0479607 -0.894871 0)
(0.067839 -0.881869 0)
(0.0887852 -0.868869 0)
(0.110374 -0.855183 0)
(0.132272 -0.840177 0)
(0.154206 -0.823303 0)
(0.176049 -0.804186 0)
(0.197907 -0.78272 0)
(0.220172 -0.759169 0)
(0.243521 -0.734199 0)
(0.268869 -0.70885 0)
(0.2973 -0.684411 0)
(0.330026 -0.662267 0)
(0.368415 -0.643805 0)
(0.414123 -0.630459 0)
(0.469357 -0.623804 0)
(0.537248 -0.625427 0)
(0.622084 -0.63592 0)
(0.72963 -0.65207 0)
(0.866393 -0.661482 0)
(-0.000419785 -0.911099 0)
(0.00352103 -0.928861 0)
(0.00904797 -0.920364 0)
(0.0185584 -0.909397 0)
(0.0300726 -0.898 0)
(0.0429563 -0.886032 0)
(0.0567394 -0.872976 0)
(0.0710838 -0.858295 0)
(0.0857717 -0.841572 0)
(0.100747 -0.822621 0)
(0.116164 -0.801577 0)
(0.132409 -0.778962 0)
(0.150101 -0.755682 0)
(0.170051 -0.732976 0)
(0.193229 -0.712292 0)
(0.220736 -0.695171 0)
(0.25383 -0.683231 0)
(0.294021 -0.678303 0)
(0.343244 -0.682636 0)
(0.404121 -0.698823 0)
(0.480097 -0.728677 0)
(0.575812 -0.769783 0)
(0.696603 -0.808459 0)
(-0.00516911 -0.908146 0)
(-0.00789847 -0.929326 0)
(-0.00892436 -0.924422 0)
(-0.00681752 -0.915965 0)
(-0.00266791 -0.906334 0)
(0.00300137 -0.8956 0)
(0.00974939 -0.883395 0)
(0.0172841 -0.869313 0)
(0.0254596 -0.853088 0)
(0.0342931 -0.83471 0)
(0.0439848 -0.81452 0)
(0.0549237 -0.793246 0)
(0.0676746 -0.77199 0)
(0.0829492 -0.752153 0)
(0.101578 -0.73532 0)
(0.124495 -0.723165 0)
(0.152735 -0.717474 0)
(0.187471 -0.720329 0)
(0.230072 -0.734374 0)
(0.282204 -0.762789 0)
(0.345872 -0.80819 0)
(0.423924 -0.86902 0)
(0.51979 -0.931797 0)
(-0.00849812 -0.89903 0)
(-0.0170387 -0.923268 0)
(-0.0237646 -0.921667 0)
(-0.0278561 -0.915671 0)
(-0.0300083 -0.907856 0)
(-0.0305952 -0.898468 0)
(-0.0299864 -0.887289 0)
(-0.0284022 -0.874057 0)
(-0.0259114 -0.858654 0)
(-0.0224302 -0.841233 0)
(-0.0177221 -0.822298 0)
(-0.0114071 -0.802737 0)
(-0.00298461 -0.783796 0)
(0.00813761 -0.766989 0)
(0.0226175 -0.75399 0)
(0.0411567 -0.746539 0)
(0.0644749 -0.746475 0)
(0.0932672 -0.755916 0)
(0.128163 -0.777543 0)
(0.169679 -0.814633 0)
(0.218202 -0.870188 0)
(0.274669 -0.943665 0)
(0.340562 -1.02351 0)
(-0.0108155 -0.884645 0)
(-0.0239842 -0.911954 0)
(-0.035388 -0.913322 0)
(-0.0445564 -0.909638 0)
(-0.0519578 -0.903598 0)
(-0.0578181 -0.895601 0)
(-0.0624199 -0.885574 0)
(-0.0659055 -0.873398 0)
(-0.0682729 -0.859093 0)
(-0.0693872 -0.842946 0)
(-0.0689947 -0.825588 0)
(-0.0667452 -0.808016 0)
(-0.0622228 -0.79156 0)
(-0.0549801 -0.777791 0)
(-0.0445652 -0.768406 0)
(-0.0305511 -0.765129 0)
(-0.0125879 -0.769719 0)
(0.00949615 -0.784116 0)
(0.0355932 -0.810703 0)
(0.0651495 -0.852473 0)
(0.0971516 -0.912478 0)
(0.130903 -0.991317 0)
(0.166288 -1.08058 0)
(-0.0122596 -0.866569 0)
(-0.0288849 -0.896513 0)
(-0.0439545 -0.900513 0)
(-0.0571556 -0.898933 0)
(-0.0688028 -0.894566 0)
(-0.0789843 -0.887949 0)
(-0.0878952 -0.879151 0)
(-0.0956057 -0.868178 0)
(-0.102058 -0.855172 0)
(-0.107086 -0.840523 0)
(-0.110443 -0.824947 0)
(-0.111831 -0.8095 0)
(-0.110938 -0.795539 0)
(-0.107483 -0.784629 0)
(-0.101239 -0.77842 0)
(-0.0920729 -0.778537 0)
(-0.0800049 -0.786541 0)
(-0.0653256 -0.804041 0)
(-0.0487623 -0.832921 0)
(-0.0316622 -0.875634 0)
(-0.0160367 -0.935022 0)
(-0.00384534 -1.01272 0)
(0.00340845 -1.10386 0)
(-0.0129815 -0.846063 0)
(-0.0319849 -0.878029 0)
(-0.0497612 -0.884276 0)
(-0.0660377 -0.884548 0)
(-0.0810015 -0.881706 0)
(-0.094617 -0.876415 0)
(-0.106999 -0.868865 0)
(-0.118158 -0.859173 0)
(-0.127999 -0.847575 0)
(-0.136349 -0.834536 0)
(-0.142988 -0.820812 0)
(-0.147686 -0.807472 0)
(-0.150253 -0.795844 0)
(-0.150576 -0.78743 0)
(-0.148654 -0.783776 0)
(-0.144629 -0.78634 0)
(-0.138842 -0.796422 0)
(-0.131946 -0.815216 0)
(-0.125086 -0.844027 0)
(-0.120094 -0.884608 0)
(-0.119571 -0.939369 0)
(-0.126274 -1.01058 0)
(-0.143065 -1.09672 0)
(-0.0131223 -0.824244 0)
(-0.033552 -0.8575 0)
(-0.0531755 -0.865555 0)
(-0.071668 -0.867388 0)
(-0.089108 -0.86589 0)
(-0.105352 -0.861825 0)
(-0.120446 -0.855486 0)
(-0.134356 -0.84708 0)
(-0.14697 -0.836908 0)
(-0.158126 -0.825474 0)
(-0.167646 -0.813542 0)
(-0.175383 -0.802145 0)
(-0.181267 -0.792543 0)
(-0.185346 -0.786126 0)
(-0.187823 -0.784288 0)
(-0.189072 -0.788287 0)
(-0.189683 -0.799136 0)
(-0.190553 -0.817615 0)
(-0.193049 -0.844441 0)
(-0.199218 -0.880638 0)
(-0.211875 -0.927968 0)
(-0.234165 -0.988803 0)
(-0.270105 -1.06415 0)
(-0.0128223 -0.802021 0)
(-0.0338656 -0.835796 0)
(-0.0545906 -0.845184 0)
(-0.0745447 -0.848262 0)
(-0.0937164 -0.847896 0)
(-0.111874 -0.844921 0)
(-0.129005 -0.839706 0)
(-0.145046 -0.83252 0)
(-0.159885 -0.823703 0)
(-0.173383 -0.813769 0)
(-0.185419 -0.803455 0)
(-0.195928 -0.793727 0)
(-0.20495 -0.785737 0)
(-0.212679 -0.780734 0)
(-0.219483 -0.779935 0)
(-0.225915 -0.784381 0)
(-0.23274 -0.794814 0)
(-0.24099 -0.811635 0)
(-0.252107 -0.835036 0)
(-0.26814 -0.865345 0)
(-0.291846 -0.903545 0)
(-0.326435 -0.95159 0)
(-0.376702 -1.01185 0)
(-0.0122128 -0.780105 0)
(-0.0331997 -0.813654 0)
(-0.0543962 -0.823883 0)
(-0.0751653 -0.827876 0)
(-0.0954226 -0.82841 0)
(-0.114867 -0.826358 0)
(-0.13344 -0.822136 0)
(-0.151063 -0.816046 0)
(-0.167632 -0.808444 0)
(-0.183044 -0.799825 0)
(-0.197235 -0.790873 0)
(-0.210218 -0.782463 0)
(-0.222132 -0.775616 0)
(-0.233281 -0.771419 0)
(-0.244159 -0.770902 0)
(-0.255448 -0.774897 0)
(-0.268017 -0.783901 0)
(-0.282955 -0.798006 0)
(-0.301675 -0.816969 0)
(-0.326095 -0.8405 0)
(-0.358736 -0.868771 0)
(-0.402638 -0.902928 0)
(-0.46285 -0.945505 0)
(-0.0114126 -0.759019 0)
(-0.031814 -0.791669 0)
(-0.0529628 -0.802258 0)
(-0.0740045 -0.806831 0)
(-0.0947964 -0.808024 0)
(-0.114987 -0.806708 0)
(-0.134483 -0.803314 0)
(-0.153199 -0.798155 0)
(-0.171047 -0.791576 0)
(-0.187964 -0.784034 0)
(-0.20394 -0.776141 0)
(-0.219055 -0.768662 0)
(-0.233526 -0.762477 0)
(-0.247739 -0.758503 0)
(-0.262271 -0.757583 0)
(-0.277877 -0.760355 0)
(-0.29548 -0.767113 0)
(-0.316169 -0.77771 0)
(-0.34127 -0.791576 0)
(-0.372491 -0.807917 0)
(-0.412017 -0.826141 0)
(-0.462533 -0.846396 0)
(-0.5288 -0.87049 0)
(-0.0105223 -0.739115 0)
(-0.0299465 -0.770303 0)
(-0.0506294 -0.7808 0)
(-0.071499 -0.785631 0)
(-0.0923644 -0.787242 0)
(-0.112841 -0.786463 0)
(-0.132809 -0.783715 0)
(-0.152182 -0.779295 0)
(-0.170894 -0.773518 0)
(-0.188919 -0.766787 0)
(-0.206295 -0.759631 0)
(-0.223158 -0.752698 0)
(-0.239777 -0.746722 0)
(-0.256589 -0.742451 0)
(-0.274213 -0.740551 0)
(-0.293436 -0.741484 0)
(-0.315186 -0.74538 0)
(-0.340516 -0.751921 0)
(-0.370635 -0.760315 0)
(-0.407007 -0.769405 0)
(-0.451433 -0.777967 0)
(-0.506114 -0.785159 0)
(-0.575062 -0.791633 0)
(-0.00961791 -0.720597 0)
(-0.027804 -0.749898 0)
(-0.0476956 -0.759901 0)
(-0.0680366 -0.764689 0)
(-0.0885961 -0.766485 0)
(-0.10897 -0.766047 0)
(-0.129021 -0.763754 0)
(-0.148664 -0.75987 0)
(-0.167857 -0.754665 0)
(-0.186607 -0.748476 0)
(-0.20499 -0.741743 0)
(-0.223182 -0.734998 0)
(-0.241484 -0.728833 0)
(-0.260355 -0.723836 0)
(-0.28042 -0.720508 0)
(-0.302456 -0.719158 0)
(-0.327362 -0.719782 0)
(-0.356126 -0.721948 0)
(-0.389827 -0.724738 0)
(-0.429686 -0.726771 0)
(-0.477114 -0.726382 0)
(-0.533774 -0.721925 0)
(-0.602665 -0.712893 0)
(-0.00874469 -0.703547 0)
(-0.0255502 -0.730686 0)
(-0.0444124 -0.73986 0)
(-0.0639481 -0.744336 0)
(-0.0838957 -0.746103 0)
(-0.103844 -0.745818 0)
(-0.123642 -0.743796 0)
(-0.143214 -0.740249 0)
(-0.162535 -0.73539 0)
(-0.181641 -0.729488 0)
(-0.200638 -0.722891 0)
(-0.219727 -0.716021 0)
(-0.239221 -0.709337 0)
(-0.259574 -0.703284 0)
(-0.281388 -0.698217 0)
(-0.3054 -0.69431 0)
(-0.332444 -0.691454 0)
(-0.363421 -0.689147 0)
(-0.399276 -0.686414 0)
(-0.441 -0.68178 0)
(-0.489655 -0.673336 0)
(-0.546389 -0.658913 0)
(-0.613157 -0.637117 0)
(-0.00791381 -0.687971 0)
(-0.0232955 -0.712802 0)
(-0.0409749 -0.720891 0)
(-0.0595013 -0.724831 0)
(-0.0785963 -0.726382 0)
(-0.0978513 -0.726079 0)
(-0.117112 -0.724158 0)
(-0.136309 -0.720764 0)
(-0.155437 -0.716044 0)
(-0.174552 -0.710197 0)
(-0.193783 -0.703487 0)
(-0.213339 -0.696233 0)
(-0.233531 -0.688778 0)
(-0.254788 -0.68144 0)
(-0.277667 -0.674449 0)
(-0.302838 -0.667867 0)
(-0.331047 -0.661504 0)
(-0.363089 -0.654818 0)
(-0.399765 -0.64683 0)
(-0.441861 -0.636067 0)
(-0.490141 -0.620552 0)
(-0.545329 -0.597871 0)
(-0.608484 -0.566095 0)
(-0.00710455 -0.673841 0)
(-0.0210966 -0.696297 0)
(-0.0375209 -0.703131 0)
(-0.0549004 -0.706366 0)
(-0.0729593 -0.707549 0)
(-0.0913032 -0.707086 0)
(-0.109782 -0.705117 0)
(-0.128338 -0.701711 0)
(-0.146983 -0.696949 0)
(-0.165788 -0.69096 0)
(-0.184893 -0.68393 0)
(-0.204507 -0.676091 0)
(-0.224925 -0.667686 0)
(-0.246537 -0.658926 0)
(-0.269839 -0.649938 0)
(-0.295417 -0.640695 0)
(-0.323917 -0.630948 0)
(-0.356008 -0.620138 0)
(-0.392348 -0.607317 0)
(-0.433535 -0.591078 0)
(-0.480084 -0.569502 0)
(-0.532404 -0.540152 0)
(-0.590888 -0.500873 0)
(-0.00627725 -0.661132 0)
(-0.01897 -0.681153 0)
(-0.0341411 -0.686645 0)
(-0.050292 -0.689071 0)
(-0.0671786 -0.689782 0)
(-0.0844331 -0.68905 0)
(-0.101922 -0.68691 0)
(-0.119605 -0.683354 0)
(-0.137508 -0.678396 0)
(-0.155716 -0.672101 0)
(-0.174368 -0.664591 0)
(-0.193664 -0.656021 0)
(-0.213873 -0.646553 0)
(-0.235339 -0.636314 0)
(-0.25849 -0.625347 0)
(-0.283818 -0.613561 0)
(-0.31186 -0.600665 0)
(-0.34316 -0.586105 0)
(-0.37823 -0.568985 0)
(-0.417495 -0.548001 0)
(-0.461267 -0.521367 0)
(-0.509723 -0.486768 0)
(-0.562817 -0.442031 0)
(-0.00540593 -0.649825 0)
(-0.0169218 -0.667293 0)
(-0.0309 -0.671439 0)
(-0.0457781 -0.67303 0)
(-0.0613885 -0.673223 0)
(-0.0774048 -0.672149 0)
(-0.0937255 -0.669745 0)
(-0.110334 -0.665926 0)
(-0.12727 -0.660645 0)
(-0.144625 -0.653916 0)
(-0.162533 -0.645804 0)
(-0.181178 -0.636405 0)
(-0.200795 -0.625819 0)
(-0.221678 -0.614105 0)
(-0.244182 -0.601246 0)
(-0.26871 -0.587104 0)
(-0.295689 -0.571368 0)
(-0.325539 -0.553503 0)
(-0.358638 -0.532679 0)
(-0.395256 -0.507713 0)
(-0.43554 -0.47699 0)
(-0.479496 -0.438391 0)
(-0.526807 -0.389835 0)
(-0.00452896 -0.639891 0)
(-0.0149854 -0.654595 0)
(-0.0278626 -0.657488 0)
(-0.0414311 -0.658302 0)
(-0.0556732 -0.657986 0)
(-0.0703198 -0.656537 0)
(-0.0853167 -0.6538 0)
(-0.100676 -0.649626 0)
(-0.116453 -0.643921 0)
(-0.132737 -0.636658 0)
(-0.149653 -0.627861 0)
(-0.167359 -0.61758 0)
(-0.186056 -0.605865 0)
(-0.205986 -0.592727 0)
(-0.227434 -0.578108 0)
(-0.250718 -0.56184 0)
(-0.276165 -0.543608 0)
(-0.304082 -0.522905 0)
(-0.334725 -0.498981 0)
(-0.368238 -0.470779 0)
(-0.404631 -0.436867 0)
(-0.44379 -0.395347 0)
(-0.485239 -0.34428 0)
(-0.00376189 -0.631301 0)
(-0.0132317 -0.642937 0)
(-0.0251057 -0.644774 0)
(-0.0372979 -0.644948 0)
(-0.0500722 -0.644181 0)
(-0.0632252 -0.642349 0)
(-0.076762 -0.639227 0)
(-0.0907262 -0.634623 0)
(-0.105182 -0.628415 0)
(-0.120214 -0.620546 0)
(-0.135928 -0.611011 0)
(-0.152456 -0.599829 0)
(-0.169959 -0.587011 0)
(-0.188633 -0.572535 0)
(-0.208698 -0.556314 0)
(-0.230396 -0.538166 0)
(-0.253965 -0.517785 0)
(-0.279618 -0.494704 0)
(-0.307507 -0.468251 0)
(-0.337672 -0.437499 0)
(-0.370024 -0.401194 0)
(-0.404363 -0.357661 0)
(-0.440134 -0.305115 0)
(-0.00318195 -0.624053 0)
(-0.0116837 -0.632214 0)
(-0.0226898 -0.633316 0)
(-0.0333891 -0.633057 0)
(-0.0445811 -0.631925 0)
(-0.0561224 -0.629712 0)
(-0.0680827 -0.626159 0)
(-0.0805328 -0.621059 0)
(-0.0935389 -0.614281 0)
(-0.107171 -0.605757 0)
(-0.121511 -0.59546 0)
(-0.136661 -0.583386 0)
(-0.152747 -0.569518 0)
(-0.169919 -0.553809 0)
(-0.188345 -0.536156 0)
(-0.208203 -0.516375 0)
(-0.229657 -0.494175 0)
(-0.25284 -0.469137 0)
(-0.277824 -0.440671 0)
(-0.304569 -0.40797 0)
(-0.332913 -0.36995 0)
(-0.362599 -0.325138 0)
(-0.393055 -0.271902 0)
(-0.00273929 -0.617915 0)
(-0.0102013 -0.622234 0)
(-0.0206317 -0.623164 0)
(-0.0296716 -0.622751 0)
(-0.0391571 -0.621347 0)
(-0.048981 -0.618745 0)
(-0.0592726 -0.614707 0)
(-0.0701182 -0.609049 0)
(-0.0815734 -0.60165 0)
(-0.0936854 -0.59244 0)
(-0.106509 -0.581382 0)
(-0.120115 -0.568447 0)
(-0.134598 -0.5536 0)
(-0.150069 -0.536776 0)
(-0.166656 -0.517861 0)
(-0.184485 -0.496674 0)
(-0.203667 -0.472952 0)
(-0.224276 -0.446325 0)
(-0.24632 -0.416283 0)
(-0.269702 -0.382139 0)
(-0.294206 -0.342958 0)
(-0.319536 -0.297448 0)
(-0.345133 -0.244106 0)
(-0.00284058 -0.612183 0)
(-0.0087229 -0.612549 0)
(-0.0189797 -0.61437 0)
(-0.0260949 -0.614168 0)
(-0.0337401 -0.61256 0)
(-0.0417612 -0.609532 0)
(-0.0503215 -0.604944 0)
(-0.0594997 -0.598671 0)
(-0.0693257 -0.590617 0)
(-0.0798166 -0.580715 0)
(-0.0909978 -0.568916 0)
(-0.102913 -0.555175 0)
(-0.115629 -0.539435 0)
(-0.129228 -0.521616 0)
(-0.143808 -0.501596 0)
(-0.159462 -0.479207 0)
(-0.176265 -0.454213 0)
(-0.194256 -0.426295 0)
(-0.213405 -0.395028 0)
(-0.233577 -0.359836 0)
(-0.254519 -0.319926 0)
(-0.275899 -0.274168 0)
(-0.297167 -0.221158 0)
(-0.00575113 -0.606731 0)
(-0.00787083 -0.602682 0)
(-0.0179279 -0.607027 0)
(-0.0226211 -0.607419 0)
(-0.0282773 -0.605598 0)
(-0.0344419 -0.602061 0)
(-0.0412404 -0.596852 0)
(-0.048711 -0.589922 0)
(-0.0568428 -0.581203 0)
(-0.0656188 -0.57063 0)
(-0.0750372 -0.55814 0)
(-0.0851192 -0.543665 0)
(-0.0959094 -0.527129 0)
(-0.107472 -0.508436 0)
(-0.119884 -0.487461 0)
(-0.133222 -0.464041 0)
(-0.147548 -0.437971 0)
(-0.162889 -0.408984 0)
(-0.179209 -0.376738 0)
(-0.19637 -0.340769 0)
(-0.214109 -0.30043 0)
(-0.232065 -0.25475 0)
(-0.249657 -0.202425 0)
(-0.0160561 -0.602746 0)
(-0.00837838 -0.59352 0)
(-0.0177059 -0.601709 0)
(-0.0192306 -0.602804 0)
(-0.0227401 -0.600571 0)
(-0.0270375 -0.596365 0)
(-0.0320771 -0.59045 0)
(-0.037816 -0.582838 0)
(-0.0441927 -0.573473 0)
(-0.0511573 -0.562277 0)
(-0.0586868 -0.549164 0)
(-0.066786 -0.534044 0)
(-0.0754853 -0.516817 0)
(-0.0848356 -0.49737 0)
(-0.094902 -0.475571 0)
(-0.105756 -0.451263 0)
(-0.117461 -0.424258 0)
(-0.13006 -0.394338 0)
(-0.143551 -0.361233 0)
(-0.157844 -0.324598 0)
(-0.172732 -0.283941 0)
(-0.187882 -0.23849 0)
(-0.202678 -0.187099 0)
(-0.0396765 -0.596063 0)
(-0.00878324 -0.590844 0)
(-0.0181981 -0.600731 0)
(-0.0159015 -0.601443 0)