/*--------------------------------*- C++ -*----------------------------------*\
  =========                 |
  \\      /  F ield         | OpenFOAM: The Open Source CFD Toolbox
   \\    /   O peration     | Website:  https://openfoam.org
    \\  /    A nd           | Version:  9
     \\/     M anipulation  |
\*---------------------------------------------------------------------------*/
FoamFile
{
    format      ascii;
    class       volScalarField;
    location    "7.52";
    object      nut;
}
// * * * * * * * * * * * * * * * * * * * * * * * * * * * * * * * * * * * * * //

dimensions      [0 2 -1 0 0 0 0];

internalField   nonuniform List<scalar> 
2268
(
1.03034e-05
1.21069e-05
1.46998e-05
1.64353e-05
1.77302e-05
1.87494e-05
1.95746e-05
2.02505e-05
2.08057e-05
2.12658e-05
2.16566e-05
2.20043e-05
2.23192e-05
2.2577e-05
2.26972e-05
2.25215e-05
2.18863e-05
2.09074e-05
1.96134e-05
1.81668e-05
1.68225e-05
1.45692e-05
1.01912e-05
2.37394e-05
9.88447e-05
0.000134411
0.000156611
0.00017249
0.0001846
0.000194119
0.000201683
0.000207707
0.000212522
0.000216419
0.000219601
0.000222088
0.000223594
0.000223433
0.000220343
0.000211566
0.00019501
0.000178212
0.000163557
0.000151277
0.000113599
3.21469e-05
2.84039e-05
0.000167093
0.000248818
0.00030144
0.000339155
0.000367819
0.000390253
0.000407991
0.000422018
0.000433108
0.000441935
0.000449002
0.00045442
0.00045762
0.000457115
0.000450115
0.000431896
0.000401058
0.000368028
0.000334046
0.000290123
0.0001942
3.80857e-05
3.18632e-05
0.000214859
0.000338572
0.000421488
0.000481796
0.000527895
0.000564068
0.000592718
0.000615394
0.000633305
0.000647472
0.000658652
0.000667039
0.00067184
0.000670971
0.000660643
0.000635279
0.000594101
0.000547154
0.000491798
0.000410082
0.00025924
4.32435e-05
3.4613e-05
0.000250867
0.000410658
0.000521516
0.000603445
0.000666577
0.00071634
0.000755884
0.000787274
0.000812104
0.000831688
0.000846976
0.000858212
0.000864451
0.00086325
0.000850372
0.000820032
0.000771252
0.000712173
0.000635674
0.000517352
0.000316882
4.82458e-05
3.69333e-05
0.000279666
0.000470323
0.000606408
0.000708499
0.000787835
0.000850688
0.000900818
0.000940738
0.000972382
0.000997304
0.0010166
0.00103054
0.00103809
0.00103665
0.00102192
0.000988359
0.000934088
0.000864695
0.000769055
0.000618062
0.000370301
5.3726e-05
3.89926e-05
0.00030368
0.000520979
0.000679714
0.000800421
0.000895009
0.00097033
0.00103063
0.00107879
0.00111705
0.00114716
0.00117034
0.00118687
0.00119569
0.00119419
0.00117823
0.00114275
0.00108494
0.00100743
0.000896348
0.000718827
0.000426875
6.05421e-05
4.0902e-05
0.00032438
0.000564943
0.000744
0.000881832
0.000990703
0.00107783
0.00114783
0.0012039
0.00124856
0.00128372
0.00131066
0.00132975
0.0013399
0.00133862
0.00132204
0.00128552
0.00122602
0.00114311
0.00102185
0.000828283
0.000503055
7.13911e-05
1.1439e-05
1.70942e-05
1.97219e-05
2.08755e-05
2.15245e-05
2.18296e-05
2.20452e-05
2.2134e-05
2.17561e-05
2.06335e-05
1.91043e-05
1.74456e-05
1.63514e-05
1.6522e-05
1.67933e-05
1.63977e-05
1.45079e-05
1.2222e-05
1.12706e-05
3.61425e-05
0.000137225
0.000181493
0.000202324
0.000212589
0.00021771
0.000219548
0.000217585
0.000209528
0.00019306
0.000170481
0.000154604
0.000143906
0.000148255
0.000155084
0.000147859
0.000124498
8.86126e-05
2.55036e-05
3.98331e-05
0.000238876
0.000346396
0.000400792
0.000428126
0.000441251
0.00044591
0.000442055
0.000425374
0.000392537
0.000352696
0.000323929
0.000305038
0.00030503
0.000309002
0.00028748
0.000229922
0.0001431
3.02256e-05
4.36472e-05
0.000309255
0.000481967
0.000573409
0.000620229
0.000642711
0.000650791
0.000645965
0.000623479
0.00057995
0.000529763
0.000491541
0.000464236
0.000453424
0.000445496
0.000405681
0.000315399
0.00018221
3.43939e-05
4.83796e-05
0.000366378
0.000598115
0.000724658
0.000790504
0.000822426
0.000834168
0.000829232
0.000803586
0.000754304
0.000698341
0.000652948
0.000616637
0.000592148
0.000568115
0.000508663
0.000390984
0.000220022
3.8172e-05
5.40184e-05
0.000423378
0.000705134
0.000861445
0.000943857
0.000984302
0.000999551
0.000995101
0.000968262
0.000916762
0.000857871
0.000806793
0.000761276
0.00072219
0.000680577
0.000601504
0.00046146
0.00026082
4.16228e-05
6.16628e-05
0.000488115
0.000811213
0.00098967
0.0010848
0.00113212
0.00115034
0.00114662
0.00111981
0.00106839
0.00100828
0.00095243
0.000897896
0.000844408
0.000784763
0.000686343
0.000527145
0.000303277
4.48128e-05
7.51414e-05
0.000572643
0.000923358
0.00111385
0.00121695
0.00126901
0.0012894
0.00128634
0.00126005
0.00120998
0.00114966
0.00108957
0.00102642
0.000959274
0.000881652
0.000764289
0.000586056
0.000340619
4.80177e-05
4.34655e-05
0.000353496
0.00062593
0.000833527
0.000996079
0.00112601
0.00123077
0.00131538
0.00138351
0.00143804
0.00148106
0.0015139
0.00153692
0.00154918
0.00154856
0.00153195
0.00149563
0.00143586
0.00134895
0.00122117
0.00102796
0.000744094
0.000370581
4.67959e-05
0.000387547
0.000694907
0.000934166
0.00112496
0.00127938
0.00140473
0.00150646
0.00158882
0.00165518
0.00170791
0.0017484
0.00177703
0.00179315
0.0017953
0.00178129
0.00174853
0.00169362
0.0016123
0.00149544
0.00133012
0.00110714
0.000837818
5.0329e-05
0.000419804
0.000758028
0.00102412
0.001239
0.00141419
0.00155649
0.00167241
0.00176683
0.00184357
0.0019052
0.00195322
0.00198815
0.00200955
0.00201633
0.00200725
0.00198121
0.00193586
0.00186724
0.0017706
0.0016407
0.00147939
0.00130954
5.45135e-05
0.000447466
0.000816634
0.00110761
0.00134417
0.00153711
0.00169247
0.00181975
0.00192389
0.00200946
0.00207923
0.00213469
0.00217654
0.00220446
0.00221741
0.00221489
0.0021975
0.00216293
0.00210822
0.00203394
0.00193871
0.00182751
0.00172332
6.04162e-05
0.000475929
0.000870478
0.00118729
0.00144196
0.00164613
0.0018144
0.00195419
0.00206662
0.00215932
0.00223615
0.00229825
0.00234704
0.00238192
0.00240079
0.00240421
0.00239396
0.00236929
0.00232983
0.00227706
0.0022116
0.0021377
0.00207395
5.94349e-05
0.000471831
0.000873574
0.00121341
0.00149385
0.00171662
0.00190572
0.00206246
0.00218884
0.00229157
0.00237644
0.0024459
0.00250192
0.0025447
0.00257177
0.00258055
0.00257612
0.00256025
0.00253297
0.00250009
0.00245826
0.00241062
0.00237092
0.000294259
0.000558215
0.000936704
0.00126244
0.00154335
0.0017819
0.00198482
0.00215437
0.00229342
0.002408
0.00250279
0.00258075
0.00264443
0.00269474
0.0027288
0.00274529
0.00274815
0.00274113
0.00272451
0.00270418
0.0026813
0.00265512
0.00263435
6.95701e-05
0.000550886
0.000969414
0.00130741
0.00159571
0.00184373
0.00205618
0.00223603
0.00238635
0.00251181
0.00261654
0.00270378
0.0027762
0.00283444
0.002876
0.00290102
0.00291256
0.00291426
0.00290825
0.00289885
0.00288906
0.00287962
0.00287197
0.000295591
0.00056421
0.000991041
0.00134286
0.00164185
0.00189952
0.00212105
0.00231014
0.00247028
0.00260559
0.00271991
0.00281655
0.00289814
0.00296486
0.00301497
0.00304888
0.00306967
0.00308057
0.00308441
0.00308485
0.00308498
0.00308568
0.00308673
0.000294793
0.00056636
0.00100604
0.00137192
0.00168246
0.00194974
0.00218007
0.00237789
0.00254715
0.00269179
0.0028154
0.00292119
0.00301141
0.00308636
0.00314514
0.00318845
0.00321894
0.00323938
0.00325243
0.00326143
0.00326897
0.00327598
0.00328217
0.000295858
0.000573383
0.00101836
0.00139698
0.00171883
0.0019956
0.00223458
0.0024409
0.00261889
0.00277238
0.00290478
0.00301907
0.00311728
0.00319998
0.00326718
0.00331974
0.00335973
0.00338937
0.00341097
0.00342734
0.00344071
0.00345199
0.00346109
0.000295863
0.000574997
0.00102901
0.00141939
0.00175204
0.00203818
0.00228574
0.0025004
0.00268675
0.0028486
0.00298916
0.00311128
0.00321694
0.00330699
0.00338205
0.00344314
0.0034918
0.00352977
0.00355899
0.00358175
0.00359992
0.00361438
0.00362517
6.95492e-05
0.000569325
0.00103888
0.00144023
0.0017831
0.00207842
0.00233445
0.00255726
0.00275159
0.00292122
0.00306932
0.00319864
0.00331116
0.00340811
0.00349035
0.00355894
0.00361515
0.00366036
0.00369618
0.00372442
0.00374665
0.00376365
0.00377554
0.000295571
0.00057513
0.00104882
0.00146033
0.00181295
0.00211718
0.00238149
0.00261216
0.00281399
0.00299083
0.00314587
0.00328176
0.00340053
0.00350363
0.00359218
0.00366725
0.00372989
0.00378125
0.00382267
0.00385557
0.00388125
0.00390037
0.00391307
0.000295598
0.000575981
0.00105892
0.0014803
0.0018423
0.00215516
0.00242744
0.00266556
0.0028744
0.00305788
0.00321923
0.00336106
0.00348545
0.00359398
0.00368791
0.00376835
0.00383631
0.00389278
0.00393884
0.00397567
0.00400426
0.00402519
0.00403858
0.000295188
0.000575983
0.00106936
0.00150051
0.00187162
0.0021928
0.00247267
0.00271777
0.00293309
0.00312263
0.00328965
0.00343678
0.00356611
0.00367932
0.00377777
0.00386262
0.00393486
0.00399542
0.00404525
0.00408529
0.00411633
0.00413884
0.00415294
0.000295731
0.000578291
0.00108034
0.00152111
0.0019011
0.00223028
0.00251733
0.00276892
0.00299017
0.00318518
0.00335722
0.00350895
0.00364252
0.00375967
0.00386184
0.00395022
0.00402586
0.00408965
0.00414247
0.00418511
0.0042182
0.00424215
0.00425707
0.000295309
0.000578648
0.00109173
0.0015421
0.00193074
0.00226759
0.00256141
0.002819
0.00304564
0.00324548
0.00342187
0.00357751
0.00371461
0.00383497
0.00394011
0.00403128
0.00410956
0.00417588
0.00423105
0.0042758
0.00431067
0.00433601
0.00435191
6.96473e-05
0.00057745
0.0011035
0.00156346
0.0019605
0.00230466
0.00260481
0.00286791
0.00309935
0.00330339
0.00348345
0.00364231
0.00378224
0.00390513
0.00401257
0.00410588
0.0041862
0.00425449
0.00431156
0.00435809
0.00439459
0.00442138
0.00443855
0.000295961
0.000583078
0.00111591
0.00158518
0.00199029
0.00234138
0.00264741
0.00291548
0.00315113
0.00335872
0.00354178
0.00370318
0.00384528
0.00397008
0.00407923
0.00417416
0.00425605
0.00432593
0.00438461
0.00443278
0.00447093
0.00449936
0.00451816
6.96683e-05
0.000581689
0.00112896
0.00160723
0.00202005
0.00237761
0.00268903
0.00296152
0.00320076
0.00341127
0.00359668
0.00375998
0.00390366
0.00402981
0.0041402
0.00423634
0.0043195
0.00439075
0.00445096
0.0045008
0.00454078
0.00457118
0.0045921
0.000295818
0.000589645
0.00114265
0.00162951
0.00204964
0.00241324
0.0027295
0.00300583
0.00324805
0.00346084
0.00364799
0.00381262
0.00395736
0.00408443
0.00419571
0.00429281
0.0043771
0.0044497
0.00451152
0.00456326
0.00460543
0.00463829
0.00466191
0.000295931
0.000594876
0.0011567
0.00165187
0.00207893
0.00244807
0.00276865
0.00304823
0.00329284
0.00350733
0.00369566
0.00386113
0.00400651
0.00413418
0.00424615
0.00434413
0.00442957
0.00450368
0.00456741
0.00462147
0.00466634
0.0047023
0.00472935
0.000295591
0.000599099
0.00117096
0.00167413
0.00210773
0.00248195
0.00280629
0.00308856
0.00333499
0.00355064
0.00373969
0.00390562
0.00405137
0.00417947
0.00429208
0.00439103
0.00447786
0.00455384
0.00461994
0.00467691
0.0047252
0.00476501
0.00479632
6.97886e-05
0.000599755
0.00118462
0.00169603
0.00213587
0.00251467
0.00284225
0.00312666
0.00337441
0.0035908
0.00378021
0.00394633
0.00409232
0.00422085
0.00433424
0.00443443
0.00452307
0.00460146
0.00467062
0.00473126
0.0047838
0.00482839
0.00486489
6.96306e-05
0.000603624
0.00119849
0.00171761
0.00216319
0.00254606
0.00287635
0.00316244
0.00341109
0.00362787
0.00381741
0.00398364
0.00412989
0.00425903
0.00437352
0.00447543
0.00456647
0.004648
0.00472105
0.00478628
0.00484407
0.00489444
0.00493716
0.00029604
0.000611398
0.00121229
0.00173875
0.00218952
0.00257591
0.00290844
0.00319578
0.00344501
0.00366199
0.0038516
0.00401798
0.00416471
0.00429481
0.00441091
0.00451518
0.00460941
0.00469498
0.00477291
0.00484381
0.00490794
0.00496522
0.00501526
6.9705e-05
0.000614023
0.00122642
0.0017593
0.00221461
0.00260397
0.00293829
0.00322658
0.00347622
0.00369335
0.00388311
0.0040499
0.00419748
0.00432908
0.00444746
0.00455491
0.00465327
0.00474394
0.00482789
0.00490565
0.00497735
0.00504273
0.00510123
0.000296242
0.000623726
0.00124035
0.00177879
0.00223796
0.00262985
0.00296566
0.00325474
0.00350477
0.00372217
0.00391236
0.00407995
0.00422894
0.00436274
0.00448424
0.00459583
0.00469942
0.00479638
0.00488762
0.00497354
0.0050541
0.00512884
0.005197
0.000296293
0.000629857
0.00125323
0.00179658
0.0022591
0.00265314
0.00299028
0.00328015
0.00353073
0.00374871
0.00393975
0.00410872
0.00425981
0.00439663
0.00452222
0.00463906
0.00474908
0.00485365
0.00495356
0.00504906
0.00513989
0.00522533
0.00530436
0.000296318
0.000635102
0.00126451
0.00181205
0.00227741
0.00267337
0.00301181
0.00330266
0.00355414
0.00377317
0.00396566
0.0041367
0.00429072
0.0044315
0.00456225
0.00468553
0.00480332
0.00491693
0.00502702
0.00513365
0.00523627
0.00533383
0.00542499
6.979e-05
0.000636215
0.00127344
0.00182435
0.00229207
0.00268983
0.00302978
0.00332202
0.00357496
0.00379571
0.00399038
0.00416431
0.00432215
0.0044679
0.00460493
0.00473593
0.00486292
0.00498713
0.00510909
0.00522856
0.00534464
0.00545587
0.0055605
6.98662e-05
0.000639309
0.00127901
0.00183222
0.00230191
0.00270157
0.00304349
0.00333783
0.00359305
0.00381636
0.00401408
0.00419178
0.00435437
0.00450611
0.00465059
0.00479065
0.00492836
0.00506491
0.0052006
0.00533487
0.00546635
0.00559301
0.00571256
6.98185e-05
0.000638426
0.00127946
0.00183383
0.00230517
0.00270717
0.00305199
0.00334954
0.00360814
0.00383505
0.00403676
0.00421913
0.00438739
0.00454612
0.00469919
0.00484968
0.00499975
0.00515054
0.00530215
0.00545354
0.00560272
0.0057469
0.00588301
6.9801e-05
0.000634425
0.00127289
0.00182642
0.00229918
0.00270458
0.00305391
0.00335636
0.00361984
0.00385158
0.00405828
0.00424617
0.00442092
0.00458753
0.00475028
0.00491255
0.0050767
0.00524391
0.00541401
0.0055854
0.0057552
0.00591951
0.00607414
6.98141e-05
0.000626311
0.00125559
0.00180516
0.00227973
0.00269084
0.00304752
0.00335739
0.00362769
0.00386564
0.00407832
0.00427247
0.00445436
0.00462956
0.00480289
0.00497821
0.00515824
0.00534431
0.00553604
0.00573115
0.00592548
0.00611342
0.00628901
6.97966e-05
0.000610034
0.00121907
0.00176122
0.00224027
0.00266203
0.00303081
0.00335172
0.00363126
0.00387691
0.00409644
0.00429738
0.00448678
0.00467098
0.00485551
0.00504494
0.00524259
0.00545021
0.00566744
0.00589124
0.00611566
0.00633225
0.00653204
0.000296133
0.000575912
0.00114414
0.00167901
0.00217139
0.0026136
0.00300202
0.00333882
0.00363039
0.00388516
0.00411214
0.00432007
0.00451698
0.00471017
0.00490607
0.00511019
0.00532688
0.00555882
0.00580621
0.00606557
0.00632849
0.00658161
0.00680997
6.97209e-05
0.000477001
0.000992456
0.00153528
0.00206243
0.00254206
0.00296074
0.00331916
0.00362543
0.00389035
0.00412497
0.00433961
0.00454355
0.00474515
0.0049519
0.00517054
0.00540688
0.00566541
0.00594812
0.00625237
0.00656737
0.00687089
0.00713362
8.76961e-05
0.000276614
0.000725168
0.00131078
0.00190881
0.00244921
0.00291002
0.00329506
0.00361765
0.00389283
0.00413457
0.00435509
0.00456502
0.0047738
0.00499001
0.00522175
0.00547677
0.00576242
0.00608471
0.00644556
0.00683543
0.00721846
0.00752123
0.000189619
0.000128079
0.000399746
0.0010257
0.00172811
0.00234923
0.00285901
0.00327154
0.00360938
0.00389337
0.00414078
0.00436574
0.00458007
0.00479411
0.00501739
0.00525924
0.00552945
0.00583895
0.00620044
0.00662784
0.00712892
0.00766794
0.00800356
0.000413184
0.000138877
0.000192969
0.000780273
0.00158094
0.00227558
0.0028242
0.00325611
0.00360379
0.00389308
0.00414371
0.00437108
0.00458775
0.00480459
0.00503165
0.00527905
0.00555791
0.00588201
0.00627086
0.00675671
0.00740226
0.00834841
0.00862572
7.4003e-05
6.87211e-05
6.93977e-05
7.47874e-05
0.000647285
0.0006132
0.000612644
0.000648123
0.00121957
0.00119384
0.00119755
0.00123109
0.00167887
0.00166655
0.00167134
0.00169272
0.00205131
0.0020464
0.00205136
0.00206511
0.00235895
0.00235722
0.00236176
0.00237211
0.00262895
0.00262897
0.00263288
0.00264049
0.00287082
0.00287209
0.00287559
0.00288078
0.00308884
0.003091
0.00309393
0.00309721
0.00328632
0.0032889
0.00329123
0.00329303
0.00346606
0.00346858
0.00347019
0.00347065
0.00363019
0.00363232
0.00363309
0.00363227
0.00378028
0.00378188
0.00378175
0.00377976
0.00391743
0.0039185
0.00391759
0.0039146
0.00404265
0.0040433
0.00404179
0.00403805
0.00415689
0.00415732
0.00415546
0.00415125
0.00426115
0.00426158
0.00425964
0.00425527
0.00435646
0.00435713
0.00435539
0.00435118
0.0044439
0.00444509
0.00444384
0.00444012
0.00452471
0.00452669
0.00452624
0.00452335
0.00460029
0.00460337
0.00460407
0.00460234
0.00467225
0.00467678
0.00467897
0.00467879
0.0047424
0.00474876
0.00475284
0.00475458
0.00481273
0.00482133
0.0048277
0.00483179
0.00488534
0.00489662
0.00490573
0.0049126
0.0049624
0.00497683
0.00498912
0.0049992
0.00504605
0.0050641
0.00508003
0.00509377
0.00513835
0.0051605
0.00518054
0.00519837
0.00524125
0.00526797
0.00529256
0.00531488
0.00535651
0.00538828
0.00541783
0.00544503
0.00548583
0.00552308
0.00555799
0.00559041
0.00563079
0.00567395
0.00571458
0.00575249
0.00579308
0.00584254
0.00588917
0.00593279
0.00597453
0.00603066
0.00608353
0.00613293
0.00617746
0.00624054
0.00629974
0.00635485
0.00640488
0.00647509
0.0065405
0.00660095
0.00666107
0.0067383
0.00680938
0.00687431
0.0069522
0.0070357
0.00711113
0.0071788
0.00728743
0.00737499
0.00745185
0.00751899
0.00768007
0.00776614
0.00783846
0.00789924
0.00814755
0.00821948
0.00827607
0.00832116
0.00870354
0.00873683
0.00876035
0.00877773
0.000394096
0.000809888
0.001117
0.00130585
0.00141412
0.00147059
0.00149292
0.00149005
0.00146479
0.00141801
0.001358
0.00129149
0.00121542
0.00112819
0.00102276
0.000875836
0.000668816
0.000386954
5.14076e-05
0.000869829
0.00117179
0.00140745
0.00156625
0.00166348
0.00171603
0.0017363
0.00173162
0.00170572
0.00166049
0.00159962
0.00152524
0.00143393
0.00132366
0.00118625
0.00100361
0.000757976
0.000429842
5.39244e-05
0.00134304
0.00153643
0.0017024
0.00182289
0.00190008
0.00194213
0.0019563
0.00194713
0.00191778
0.00187105
0.00180844
0.00172593
0.00162064
0.00148935
0.00132495
0.00111227
0.000832175
0.000464994
5.47549e-05
0.00175356
0.00187388
0.00198514
0.00207009
0.0021244
0.00215223
0.00215744
0.00214165
0.00210688
0.00205546
0.00198741
0.00189476
0.00177492
0.00162508
0.00143768
0.00119952
0.000888612
0.000484518
5.72405e-05
0.00210041
0.0021736
0.00224731
0.00230435
0.00233772
0.00235085
0.0023462
0.00232297
0.00228092
0.00221997
0.00213913
0.00203644
0.00190367
0.00173183
0.00152179
0.00125877
0.000916405
0.000481682
5.91523e-05
0.00239468
0.00243741
0.0024854
0.00251887
0.00253564
0.00253669
0.00252194
0.00248879
0.00243606
0.00236213
0.00226866
0.00215228
0.002006
0.00182846
0.00160722
0.00132856
0.000959524
0.000481523
6.03159e-05
0.00265585
0.00268127
0.00270646
0.00272041
0.00272077
0.00270796
0.00268046
0.00263374
0.00256704
0.00248055
0.00237526
0.00224967
0.00209651
0.0019092
0.00168298
0.00140076
0.00103607
0.000572535
0.000292218
0.00289023
0.00290277
0.00291023
0.00290734
0.0028926
0.00286604
0.00282427
0.00276283
0.00268147
0.00258121
0.00246336
0.00232485
0.00215863
0.00195912
0.00172207
0.0014323
0.00106164
0.000575301
6.98832e-05
0.00310213
0.00310456
0.00309887
0.00308239
0.00305424
0.00301437
0.00295828
0.00288225
0.00278573
0.00266941
0.00253406
0.00237771
0.00219514
0.0019817
0.00173161
0.00143224
0.00105697
0.000569428
6.98883e-05
0.00329438
0.003289
0.00327345
0.00324596
0.0032062
0.00315363
0.00308405
0.00299407
0.00288264
0.0027497
0.00259496
0.00241685
0.00221391
0.00198333
0.00171658
0.00140646
0.00102976
0.00055587
0.000295923
0.00346897
0.00345728
0.00343402
0.00339771
0.00334805
0.00328425
0.00320259
0.00309994
0.00297486
0.00282638
0.00265321
0.00245357
0.0022266
0.00197187
0.00168658
0.00136501
0.000989777
0.000536651
6.97507e-05
0.00362791
0.003611
0.00358144
0.00353801
0.0034802
0.00340688
0.00331495
0.00320152
0.00306465
0.00290261
0.0027134
0.00249473
0.00224465
0.00196349
0.00165357
0.00131425
0.000938644
0.000515686
6.96786e-05
0.00377308
0.00375186
0.00371724
0.0036681
0.00360373
0.00352272
0.00342249
0.00330033
0.00315391
0.00298091
0.00277876
0.00254453
0.00227555
0.00197124
0.00163533
0.00127275
0.000890257
0.000494303
6.96163e-05
0.00390599
0.00388138
0.00384286
0.00378936
0.00371993
0.00363308
0.00352653
0.00339774
0.00324417
0.00306313
0.0028516
0.00260621
0.00232371
0.00200222
0.00164372
0.0012559
0.000857101
0.000478366
0.00029494
0.00402799
0.00400087
0.00395957
0.00390298
0.00382998
0.00373906
0.00362815
0.00349484
0.00333655
0.0031504
0.00293315
0.00268111
0.00239053
0.00205831
0.00168411
0.00127419
0.000850709
0.000462737
0.000294355
0.00414028
0.00411157
0.00406852
0.00401003
0.00393489
0.00384157
0.00372814
0.00359234
0.00343161
0.00324307
0.00302338
0.00276876
0.00247509
0.00213842
0.00175621
0.00133065
0.000878729
0.000451135
0.000292863
0.00424397
0.00421459
0.00417083
0.00411158
0.0040356
0.00394138
0.0038271
0.00369059
0.00352941
0.00334073
0.00312127
0.00286728
0.00257456
0.00223871
0.00185578
0.0014239
0.000949679
0.000464905
6.90424e-05
0.00434012
0.004311
0.00426752
0.0042086
0.00413299
0.00403919
0.00392546
0.00378974
0.00362966
0.00344251
0.00322511
0.00297378
0.00268438
0.00235233
0.00197291
0.00154176
0.0010565
0.000525209
7.10095e-05
0.00442988
0.00440193
0.00435971
0.00430213
0.00422796
0.00413572
0.00402368
0.00388988
0.00373201
0.00354743
0.00333301
0.00308511
0.00279949
0.0024712
0.00209449
0.00166254
0.00116688
0.000600801
7.61501e-05
0.00451453
0.00448865
0.00444861
0.00439334
0.00432157
0.00423181
0.00412238
0.0039913
0.00383632
0.00365478
0.00344354
0.00319884
0.00291608
0.00258949
0.00221156
0.00177166
0.00125556
0.000653335
8.07137e-05
0.00459555
0.00457263
0.00453569
0.00448361
0.00441508
0.0043286
0.00422244
0.00409463
0.00394286
0.00376444
0.00355608
0.00331378
0.00303238
0.00270505
0.0023223
0.0018712
0.00133485
0.000696874
8.39458e-05
0.00467466
0.0046556
0.00462263
0.00457457
0.00451004
0.00442749
0.00432512
0.0042009
0.00405245
0.00387694
0.00367091
0.00342998
0.00314844
0.00281832
0.00242923
0.00196625
0.00140867
0.000736728
8.66259e-05
0.00475377
0.00473949
0.00471136
0.0046681
0.00460825
0.00453017
0.00443198
0.00431154
0.00416635
0.00399341
0.00378906
0.0035485
0.0032655
0.00293166
0.0025351
0.00205894
0.00147975
0.000775007
8.92772e-05
0.004835
0.00482641
0.00480395
0.00476624
0.0047117
0.00463856
0.00454484
0.00442828
0.00428622
0.00411547
0.00391213
0.00367116
0.00338586
0.00304705
0.00264176
0.00215143
0.00155024
0.000813047
9.22055e-05
0.00492052
0.00491854
0.00490258
0.00487112
0.00482244
0.00475467
0.00466567
0.00455304
0.00441399
0.00424512
0.00404228
0.00380009
0.00351143
0.00316646
0.00275126
0.00224578
0.00162196
0.000851867
9.56284e-05
0.00501255
0.00501809
0.00500941
0.00498484
0.00494255
0.00488051
0.00479648
0.00468789
0.00455173
0.00438443
0.00418153
0.00393734
0.0036443
0.00329201
0.00286568
0.00234394
0.00169654
0.000892487
9.95401e-05
0.00511326
0.00512717
0.0051265
0.00510942
0.00507398
0.00501804
0.00493919
0.0048347
0.00470138
0.00453537
0.00433194
0.00408503
0.00378665
0.00342586
0.00298711
0.00244778
0.00177548
0.000935938
0.000103818
0.00522466
0.00524775
0.00525573
0.00524666
0.00521848
0.00516893
0.00509548
0.00499522
0.00486473
0.00469987
0.00449555
0.00424532
0.00394072
0.00357025
0.00311764
0.00255911
0.00186016
0.000982998
0.00010842
0.00534861
0.00538158
0.00539875
0.00539811
0.00537751
0.00533461
0.00526678
0.00517093
0.00504339
0.0048797
0.00467433
0.00442036
0.00410878
0.00372748
0.00325943
0.00267974
0.00195189
0.00103438
0.000113301
0.00548676
0.00553018
0.00555695
0.00556501
0.00555222
0.00551619
0.00545421
0.00536304
0.00523873
0.00507644
0.00487015
0.00461231
0.00429321
0.0039
0.00341482
0.00281167
0.00205204
0.00109066
0.000118598
0.00564061
0.00569488
0.00573146
0.00574834
0.00574343
0.00571442
0.00565854
0.00557242
0.00545185
0.00529151
0.00508479
0.00482332
0.00449652
0.00409053
0.00358649
0.00295719
0.00216217
0.00115229
0.000124656
0.00581151
0.00587683
0.00592319
0.00594876
0.00595166
0.00592969
0.00588017
0.0057996
0.0056835
0.00552606
0.00531989
0.00505564
0.00472148
0.00430223
0.00377766
0.00311918
0.00228435
0.00122026
0.000131703
0.00600082
0.00607704
0.00613283
0.00616668
0.00617706
0.00616205
0.00611911
0.00604472
0.00593411
0.00578096
0.00557697
0.00531153
0.00497118
0.00453885
0.00399237
0.00330137
0.00242144
0.00129626
0.000139765
0.00620992
0.0062965
0.00636091
0.00640224
0.00641947
0.00641114
0.00637495
0.00630744
0.00620366
0.00605671
0.00585732
0.00559332
0.00524912
0.00480498
0.00423585
0.00350878
0.00257731
0.00138245
0.000148863
0.00644039
0.00653618
0.00660784
0.00665533
0.00667841
0.00667622
0.00664683
0.00658699
0.00649161
0.00635332
0.00616182
0.00590321
0.00555916
0.00510625
0.00451506
0.00374848
0.00275737
0.00148136
0.000159216
0.00669408
0.00679708
0.00687383
0.00692558
0.00695307
0.00695615
0.00693346
0.00688201
0.00679679
0.00667011
0.00649078
0.00624305
0.00590543
0.00544956
0.00483943
0.00403087
0.00297003
0.00159687
0.000171135
0.00697317
0.00708016
0.00715893
0.00721233
0.00724226
0.00724943
0.00723305
0.00719061
0.00711733
0.00700554
0.00684348
0.00661386
0.00629185
0.00584301
0.00522175
0.00437177
0.00322929
0.00173565
0.000185059
0.00728005
0.0073862
0.00746278
0.00751451
0.00754448
0.00755419
0.00754347
0.00751034
0.00745059
0.00735694
0.00721778
0.00701504
0.0067212
0.00629528
0.00567895
0.00479572
0.00355993
0.00191022
0.00020181
0.00761697
0.00771538
0.00778443
0.00783059
0.00785787
0.00786832
0.00786228
0.00783838
0.00779318
0.00772042
0.00760956
0.00744329
0.00719331
0.0068137
0.00623184
0.00534082
0.00400861
0.00214817
0.00022287
0.00798499
0.00806659
0.00812198
0.00815847
0.00818029
0.00818958
0.00818698
0.00817168
0.00814124
0.00809094
0.00801247
0.00789138
0.0077023
0.00739972
0.00690149
0.006064
0.00466786
0.00252059
0.000250877
0.008382
0.0084365
0.00847225
0.00849546
0.00850944
0.00851587
0.00851532
0.00850744
0.00849085
0.00846276
0.00841806
0.00834742
0.00823326
0.00804067
0.00769617
0.00703894
0.00572847
0.00324482
0.000290355
0.00879993
0.00881872
0.00883074
0.00883848
0.00884319
0.00884549
0.00884561
0.00884348
0.00883871
0.00883044
0.00881711
0.00879575
0.00876051
0.00869871
0.00857902
0.00830968
0.00757136
0.00520345
0.000343572
)
;

boundaryField
{
    leftWall
    {
        type            nutkWallFunction;
        Cmu             0.09;
        kappa           0.41;
        E               9.8;
        value           nonuniform List<scalar> 
50
(
1.69991e-06
2.7464e-06
3.35935e-06
3.80569e-06
4.15619e-06
4.4493e-06
4.70761e-06
4.94599e-06
5.26302e-06
5.67226e-06
6.1e-06
1.74401e-06
2.69824e-06
1.50473e-06
0
0
9.58804e-10
0
6.79069e-09
6.88191e-09
0
5.64288e-10
5.88541e-10
0
2.96938e-09
0
0
6.202e-09
0
6.99624e-09
8.38602e-09
7.95388e-10
0
0
5.87855e-09
0
8.08963e-09
8.09683e-09
7.66232e-09
0
8.29337e-09
0
0
0
6.35531e-10
5.52108e-09
0
2.90434e-06
1.83284e-05
4.87352e-05
)
;
    }
    rightWall
    {
        type            nutkWallFunction;
        Cmu             0.09;
        kappa           0.41;
        E               9.8;
        value           nonuniform List<scalar> 
50
(
2.09267e-06
2.9804e-06
3.59389e-06
4.12636e-06
4.60261e-06
5.03297e-06
5.42697e-06
5.81785e-06
6.22842e-06
6.53169e-06
6.63254e-06
2.31241e-06
2.95548e-06
1.53431e-06
4.45469e-09
6.95711e-09
7.30493e-09
6.94922e-09
0
0
0
0
0
4.09926e-09
0
3.18085e-07
1.0718e-06
1.77934e-06
2.3065e-06
2.73996e-06
3.16624e-06
3.64264e-06
4.20298e-06
4.82235e-06
5.49598e-06
6.21399e-06
6.95376e-06
7.77152e-06
8.71108e-06
9.79731e-06
1.10148e-05
1.23768e-05
1.39128e-05
1.56637e-05
1.76759e-05
2.0082e-05
2.30739e-05
2.69912e-05
3.24161e-05
3.9579e-05
)
;
    }
    lowerWall
    {
        type            nutkWallFunction;
        Cmu             0.09;
        kappa           0.41;
        E               9.8;
        value           nonuniform List<scalar> 
62
(
4.59828e-07
1.13747e-06
1.50935e-06
1.75326e-06
1.93303e-06
2.07335e-06
2.18621e-06
2.27825e-06
2.35358e-06
2.41585e-06
2.46864e-06
2.5154e-06
2.55758e-06
2.59203e-06
2.60803e-06
2.58448e-06
2.49973e-06
2.36777e-06
2.19215e-06
1.99316e-06
1.80713e-06
1.49058e-06
8.55249e-07
8.55249e-07
3.84097e-06
4.59256e-06
5.23387e-06
5.84735e-06
6.51083e-06
7.32132e-06
8.59207e-06
8.90102e-06
8.28756e-06
8.37088e-06
9.0022e-06
1.04046e-06
4.34915e-06
4.81216e-06
5.2817e-06
5.86119e-06
6.54282e-06
7.44988e-06
9.02086e-06
1.04046e-06
1.84403e-06
2.20471e-06
2.3609e-06
2.44828e-06
2.48918e-06
2.51818e-06
2.53035e-06
2.47992e-06
2.32818e-06
2.11989e-06
1.89161e-06
1.7409e-06
1.76497e-06
1.80379e-06
1.74898e-06
1.4831e-06
1.15507e-06
5.29338e-07
)
;
    }
    atmosphere
    {
        type            calculated;
        value           nonuniform List<scalar> 
46
(
0.009
0.000138877
0.000192969
0.000780273
0.00158094
0.00227558
0.0028242
0.00325611
0.00360379
0.00389308
0.00414371
0.00437108
0.00458775
0.00480459
0.00503165
0.00527905
0.00555791
0.00588201
0.00627086
0.00675671
0.00740226
0.009
0.009
0.009
0.009
0.009
0.009
0.009
0.009
0.009
0.009
0.009
0.009
0.009
0.009
0.009
0.009
0.009
0.009
0.009
0.009
0.009
0.009
0.009
0.009
0.000343572
)
;
    }
    defaultFaces
    {
        type            empty;
    }
}


// ************************************************************************* //
