/*--------------------------------*- C++ -*----------------------------------*\
  =========                 |
  \\      /  F ield         | OpenFOAM: The Open Source CFD Toolbox
   \\    /   O peration     | Website:  https://openfoam.org
    \\  /    A nd           | Version:  9
     \\/     M anipulation  |
\*---------------------------------------------------------------------------*/
FoamFile
{
    format      ascii;
    class       surfaceScalarField;
    location    "7.52";
    object      phi;
}
// * * * * * * * * * * * * * * * * * * * * * * * * * * * * * * * * * * * * * //

dimensions      [0 3 -1 0 0 0 0];

internalField   nonuniform List<scalar> 
4432
(
-7.60375e-08
7.60375e-08
-1.13072e-07
3.70394e-08
-1.35073e-07
2.19916e-08
-1.50397e-07
1.53264e-08
-1.57978e-07
7.5769e-09
-1.55888e-07
-2.09081e-09
-1.42768e-07
-1.31227e-08
-1.18693e-07
-2.40773e-08
-8.57314e-08
-3.2963e-08
-4.42428e-08
-4.14932e-08
8.75821e-09
-5.29998e-08
8.46424e-08
-7.58903e-08
1.99645e-07
-1.15001e-07
3.64865e-07
-1.65223e-07
5.67227e-07
-2.02361e-07
7.35504e-07
-1.68277e-07
7.11599e-07
2.39031e-08
3.79424e-07
3.32177e-07
-2.23165e-07
6.02587e-07
-9.4975e-07
7.26587e-07
-1.23228e-06
2.82531e-07
-8.4159e-07
-3.90691e-07
-8.41588e-07
-5.80284e-08
1.34057e-07
-9.46121e-08
7.36307e-08
-1.19032e-07
4.64001e-08
-1.33911e-07
3.02064e-08
-1.40108e-07
1.37688e-08
-1.37122e-07
-5.07973e-09
-1.24392e-07
-2.58555e-08
-1.03014e-07
-4.54612e-08
-7.47405e-08
-6.1236e-08
-4.17551e-08
-7.44876e-08
-8.30326e-10
-9.39206e-08
5.61526e-08
-1.32881e-07
1.38691e-07
-1.97535e-07
2.5125e-07
-2.77785e-07
3.81502e-07
-3.32614e-07
4.81453e-07
-2.68226e-07
4.53696e-07
5.16563e-08
2.08941e-07
5.76935e-07
-1.61369e-07
9.72892e-07
-5.43923e-07
1.10914e-06
-7.85493e-07
5.24101e-07
-6.98665e-07
-4.7752e-07
-1.54025e-06
-4.55506e-08
1.79598e-07
-8.09712e-08
1.09058e-07
-1.07303e-07
7.27238e-08
-1.23685e-07
4.6589e-08
-1.31063e-07
2.11445e-08
-1.29583e-07
-6.56115e-09
-1.19789e-07
-3.56494e-08
-1.03247e-07
-6.20073e-08
-8.19677e-08
-8.25122e-08
-5.72288e-08
-9.92327e-08
-2.75211e-08
-1.23623e-07
1.16615e-08
-1.72069e-07
6.74263e-08
-2.53297e-07
1.42341e-07
-3.52702e-07
2.29009e-07
-4.19283e-07
2.96996e-07
-3.36212e-07
2.74747e-07
7.38999e-08
9.50846e-08
7.56599e-07
-1.17964e-07
1.18594e-06
-2.98804e-07
1.28998e-06
-4.97405e-07
7.227e-07
-5.11223e-07
-4.63705e-07
-2.05148e-06
-3.72799e-08
2.16871e-07
-7.09051e-08
1.4269e-07
-9.78662e-08
9.96792e-08
-1.16108e-07
6.48322e-08
-1.25764e-07
3.08003e-08
-1.27399e-07
-4.92605e-09
-1.21908e-07
-4.11382e-08
-1.10568e-07
-7.3349e-08
-9.65564e-08
-9.65187e-08
-8.08206e-08
-1.14973e-07
-6.31771e-08
-1.41262e-07
-4.11801e-08
-1.9407e-07
-1.03667e-08
-2.84109e-07
3.31876e-08
-3.96259e-07
8.74512e-08
-4.7355e-07
1.40979e-07
-3.8974e-07
1.41488e-07
7.33842e-08
2.14873e-08
8.76598e-07
-9.1651e-08
1.29907e-06
-1.62351e-07
1.36068e-06
-2.97056e-07
8.57403e-07
-3.20942e-07
-4.39822e-07
-2.37242e-06
-3.17888e-08
2.48654e-07
-6.35118e-08
1.74419e-07
-9.12031e-08
1.27367e-07
-1.11533e-07
8.51639e-08
-1.24127e-07
4.33954e-08
-1.30045e-07
9.92641e-10
-1.30126e-07
-4.10539e-08
-1.25575e-07
-7.79019e-08
-1.19019e-07
-1.03069e-07
-1.13087e-07
-1.20909e-07
-1.0824e-07
-1.46104e-07
-1.03754e-07
-1.98559e-07
-9.50111e-08
-2.92852e-07
-7.9267e-08
-4.12005e-07
-5.31474e-08
-4.99674e-07
-1.01116e-08
-4.32777e-07
2.27829e-08
4.04835e-08
-3.89891e-08
9.38367e-07
-8.17277e-08
1.3418e-06
-8.77308e-08
1.36667e-06
-1.56948e-07
9.26619e-07
-1.29075e-07
-4.67697e-07
-2.50149e-06
-2.7822e-08
2.76472e-07
-5.85695e-08
2.05172e-07
-8.72993e-08
1.56095e-07
-1.10008e-07
1.07873e-07
-1.26574e-07
5.99612e-08
-1.37983e-07
1.24007e-08
-1.44848e-07
-3.41877e-08
-1.47816e-07
-7.49378e-08
-1.49776e-07
-1.01106e-07
-1.53696e-07
-1.16993e-07
-1.61776e-07
-1.38022e-07
-1.7331e-07
-1.87028e-07
-1.85372e-07
-2.8079e-07
-1.95083e-07
-4.02295e-07
-1.96592e-07
-4.98168e-07
-1.74797e-07
-4.54572e-07
-1.1127e-07
-2.30466e-08
-1.04703e-07
9.318e-07
-9.14007e-08
1.3285e-06
-5.21168e-08
1.32739e-06
-3.41477e-08
9.08653e-07
7.07955e-08
-5.72638e-07
-2.43069e-06
-2.40672e-08
3.00536e-07
-5.50239e-08
2.36133e-07
-8.58163e-08
1.86885e-07
-1.11969e-07
1.34024e-07
-1.33481e-07
8.14706e-08
-1.5166e-07
3.05758e-08
-1.66722e-07
-1.91283e-08
-1.78193e-07
-6.34731e-08
-1.89345e-07
-8.99555e-08
-2.03407e-07
-1.02937e-07
-2.23157e-07
-1.18273e-07
-2.4933e-07
-1.60859e-07
-2.79489e-07
-2.50633e-07
-3.11526e-07
-3.70258e-07
-3.39638e-07
-4.70057e-07
-3.47691e-07
-4.46515e-07
-2.88529e-07
-8.22077e-08
-1.88486e-07
8.31761e-07
-1.16462e-07
1.25648e-06
-2.87085e-08
1.23964e-06
1.04604e-07
7.75347e-07
2.58319e-07
-7.26347e-07
-2.17237e-06
-2.29264e-08
3.2346e-07
-5.44168e-08
2.67624e-07
-8.7102e-08
2.19568e-07
-1.16933e-07
1.63852e-07
-1.44398e-07
1.08932e-07
-1.71304e-07
5.74756e-08
-1.95594e-07
5.1576e-09
-2.16648e-07
-4.2425e-08
-2.3768e-07
-6.89265e-08
-2.61683e-07
-7.89389e-08
-2.91825e-07
-8.81333e-08
-3.30047e-07
-1.2264e-07
-3.7446e-07
-2.06222e-07
-4.24064e-07
-3.20653e-07
-4.73286e-07
-4.20835e-07
-5.0562e-07
-4.14178e-07
-4.8098e-07
-1.06846e-07
-3.13976e-07
6.6476e-07
-1.66155e-07
1.10866e-06
-5.26779e-09
1.07876e-06
2.1943e-07
5.50655e-07
2.9487e-07
-8.01782e-07
-1.8775e-06
-1.07405e-06
1.07405e-06
-3.79915e-07
-6.9413e-07
3.40498e-07
-7.20415e-07
8.18602e-07
-4.78104e-07
1.17279e-06
-3.54198e-07
1.39637e-06
-2.23574e-07
1.60915e-06
-2.12786e-07
1.8789e-06
-2.69748e-07
2.08695e-06
-2.08043e-07
1.89551e-06
1.91432e-07
1.2526e-06
6.42923e-07
3.48112e-07
9.04483e-07
-6.91962e-07
1.04007e-06
-1.23616e-06
5.44198e-07
-1.16977e-06
-6.63898e-08
-7.30523e-07
-4.39249e-07
-3.83456e-07
-3.47074e-07
1.16544e-07
-4.99998e-07
1.16536e-07
-5.44763e-07
1.61881e-06
-2.09171e-08
-1.21797e-06
3.766e-07
-1.11794e-06
6.64599e-07
-7.66098e-07
8.62359e-07
-5.51969e-07
1.03829e-06
-3.99501e-07
1.21954e-06
-3.94043e-07
1.40437e-06
-4.54572e-07
1.47432e-06
-2.77989e-07
1.2522e-06
4.13553e-07
8.00086e-07
1.09503e-06
2.41005e-07
1.46357e-06
-3.3491e-07
1.61598e-06
-7.92149e-07
1.00144e-06
-8.98264e-07
3.97152e-08
-7.52552e-07
-5.84959e-07
-6.4468e-07
-4.54957e-07
-3.05452e-07
-8.39222e-07
-1.88921e-07
-1.97605e-08
1.63857e-06
2.30426e-07
-1.46815e-06
4.08432e-07
-1.29595e-06
5.59284e-07
-9.16945e-07
6.78588e-07
-6.71284e-07
7.95049e-07
-5.15961e-07
9.20957e-07
-5.19953e-07
1.04402e-06
-5.7764e-07
1.06195e-06
-2.95914e-07
8.32853e-07
6.42648e-07
4.8655e-07
1.44133e-06
1.57725e-07
1.79239e-06
-1.53403e-07
1.9271e-06
-5.08701e-07
1.35674e-06
-6.70978e-07
2.01985e-07
-6.75008e-07
-5.80926e-07
-8.0243e-07
-3.27544e-07
-6.64017e-07
-9.7763e-07
-8.52941e-07
4.34074e-07
1.20449e-06
4.03477e-07
-1.43755e-06
4.09562e-07
-1.30205e-06
4.60038e-07
-9.67416e-07
5.17924e-07
-7.29181e-07
5.81317e-07
-5.79355e-07
6.55063e-07
-5.93702e-07
7.33374e-07
-6.55956e-07
7.42113e-07
-3.0465e-07
5.5314e-07
8.31619e-07
2.91766e-07
1.70271e-06
9.26846e-08
1.99148e-06
-8.43171e-08
2.1041e-06
-3.4252e-07
1.61495e-06
-4.66826e-07
3.26286e-07
-5.29059e-07
-5.18687e-07
-8.1895e-07
-3.76578e-08
-8.14539e-07
-9.82036e-07
-1.66748e-06
6.47647e-07
5.56839e-07
4.66366e-07
-1.25626e-06
3.67356e-07
-1.20304e-06
3.52027e-07
-9.52083e-07
3.62858e-07
-7.40019e-07
3.79358e-07
-5.95859e-07
4.05118e-07
-6.19464e-07
4.47751e-07
-6.98594e-07
4.6596e-07
-3.22858e-07
3.40564e-07
9.57015e-07
1.53973e-07
1.8893e-06
4.56158e-08
2.09984e-06
-5.06795e-08
2.20039e-06
-2.40469e-07
1.80475e-06
-2.58636e-07
3.44449e-07
-3.113e-07
-4.66017e-07
-6.39489e-07
2.90528e-07
-7.0017e-07
-9.21351e-07
-2.36765e-06
6.09389e-07
-5.25514e-08
4.14076e-07
-1.06094e-06
2.82604e-07
-1.07157e-06
2.32954e-07
-9.02424e-07
2.1107e-07
-7.18139e-07
1.88303e-07
-5.73092e-07
1.68537e-07
-5.99699e-07
1.76289e-07
-7.06349e-07
2.12053e-07
-3.58622e-07
1.66069e-07
1.003e-06
5.57902e-08
1.99957e-06
1.85035e-08
2.13713e-06
-1.50286e-08
2.23391e-06
-1.22367e-07
1.91209e-06
-4.93862e-08
2.71464e-07
-4.62697e-08
-4.69132e-07
-2.87209e-07
5.31463e-07
-4.25815e-07
-7.82743e-07
-2.79347e-06
4.20472e-07
-4.73022e-07
2.83706e-07
-9.24167e-07
1.67796e-07
-9.55659e-07
1.06399e-07
-8.41016e-07
6.42371e-08
-6.75973e-07
1.17145e-08
-5.20567e-07
-4.98021e-08
-5.38179e-07
-8.62422e-08
-6.69909e-07
-3.90981e-08
-4.05765e-07
9.81208e-09
9.54087e-07
-1.07569e-08
2.02014e-06
8.48008e-09
2.11789e-06
3.17357e-08
2.21065e-06
6.94889e-08
1.87433e-06
1.85992e-07
1.54954e-07
2.06299e-07
-4.8944e-07
9.53782e-08
6.42377e-07
-5.83776e-08
-6.28988e-07
-2.85185e-06
1.62149e-07
-6.35165e-07
1.29521e-07
-8.91536e-07
4.02505e-08
-8.66385e-07
-2.27965e-08
-7.77961e-07
-7.40171e-08
-6.24747e-07
-1.46131e-07
-4.48449e-07
-2.40827e-07
-4.43479e-07
-3.24634e-07
-5.86102e-07
-3.11847e-07
-4.18553e-07
-1.33803e-07
7.76042e-07
-5.04684e-08
1.9368e-06
3.05253e-08
2.0369e-06
1.26021e-07
2.11515e-06
3.43081e-07
1.65727e-06
4.45545e-07
5.24845e-08
4.03493e-07
-4.47391e-07
4.60334e-07
5.85531e-07
2.98853e-07
-4.67509e-07
-2.553e-06
-3.65775e-08
3.60035e-07
-1.05014e-07
3.36061e-07
-1.88558e-07
3.03113e-07
-2.71079e-07
2.46373e-07
-3.54129e-07
1.91983e-07
-4.39908e-07
1.43256e-07
-5.27074e-07
9.23272e-08
-6.10878e-07
4.13813e-08
-6.9185e-07
1.20493e-08
-7.74607e-07
3.81962e-09
-8.66178e-07
3.43992e-09
-9.76696e-07
-1.21198e-08
-1.10179e-06
-8.11256e-08
-1.24486e-06
-1.77582e-07
-1.39354e-06
-2.72162e-07
-1.50002e-06
-3.07696e-07
-1.47952e-06
-1.27347e-07
-1.09614e-06
2.81374e-07
-5.84178e-07
5.96691e-07
-6.33553e-08
5.57928e-07
3.72181e-07
1.15113e-07
1.51241e-07
-5.80847e-07
-9.47852e-07
-7.78406e-07
-5.11071e-08
4.11139e-07
-1.19044e-07
4.03992e-07
-2.13141e-07
3.97202e-07
-3.24831e-07
3.58055e-07
-4.41644e-07
3.08787e-07
-5.65615e-07
2.67218e-07
-7.07575e-07
2.34281e-07
-8.57373e-07
1.91173e-07
-9.94978e-07
1.49651e-07
-1.11173e-06
1.2057e-07
-1.2108e-06
1.0251e-07
-1.30239e-06
7.94661e-08
-1.40869e-06
2.51804e-08
-1.54092e-06
-4.53379e-08
-1.69077e-06
-1.22306e-07
-1.81466e-06
-1.83804e-07
-1.77832e-06
-1.63684e-07
-1.45691e-06
-4.00294e-08
-8.95025e-07
3.48152e-08
-3.51445e-07
1.43545e-08
-5.47524e-08
-1.81579e-07
-1.81849e-07
-4.53757e-07
-5.76658e-07
-5.5306e-07
-3.10055e-07
7.21198e-07
-4.69358e-07
5.63286e-07
-5.74411e-07
5.02235e-07
-6.99234e-07
4.82851e-07
-8.713e-07
4.80822e-07
-1.06417e-06
4.60051e-07
-1.23507e-06
4.05151e-07
-1.40039e-06
3.56465e-07
-1.56025e-06
3.09476e-07
-1.6813e-06
2.41601e-07
-1.74012e-06
1.61312e-07
-1.74992e-06
8.92675e-08
-1.78118e-06
5.64329e-08
-1.86024e-06
3.3741e-08
-1.98494e-06
2.40985e-09
-2.1296e-06
-3.9121e-08
-2.05751e-06
-2.3574e-07
-1.68206e-06
-4.15446e-07
-1.12078e-06
-5.26418e-07
-5.72304e-07
-5.34072e-07
-2.68111e-07
-4.85722e-07
-3.22685e-07
-3.99144e-07
-4.43659e-07
-4.5566e-07
-3.9711e-07
1.11832e-06
-1.16024e-06
1.3264e-06
-1.21242e-06
5.54442e-07
-9.02768e-07
1.73218e-07
-1.16922e-06
7.47307e-07
-1.88704e-06
1.17792e-06
-1.79169e-06
3.09864e-07
-1.52793e-06
9.27499e-08
-1.58179e-06
3.63381e-07
-1.67413e-06
3.33976e-07
-1.67772e-06
1.64928e-07
-1.69253e-06
1.04091e-07
-1.66671e-06
3.06147e-08
-1.65806e-06
2.50813e-08
-1.80891e-06
1.53236e-07
-1.80005e-06
-4.80103e-08
-1.47137e-06
-5.64462e-07
-1.11048e-06
-7.7639e-07
-1.06015e-06
-5.76792e-07
-7.58925e-07
-8.35352e-07
-3.50291e-07
-8.94383e-07
-1.23818e-07
-6.25606e-07
-4.51764e-07
-1.15718e-07
-1.55506e-06
2.67341e-06
-2.12279e-06
1.89413e-06
-2.25756e-06
6.89278e-07
-3.25388e-06
1.16961e-06
-4.58154e-06
2.07506e-06
-5.74592e-06
2.3424e-06
-5.16544e-06
-2.70523e-07
-3.73952e-06
-1.33308e-06
-2.89627e-06
-4.79818e-07
-2.30757e-06
-2.54702e-07
-1.65e-06
-4.92643e-07
-1.09788e-06
-4.48052e-07
-4.51587e-07
-6.15722e-07
3.71696e-07
-7.98271e-07
9.64069e-07
-4.39233e-07
1.38364e-06
-4.67709e-07
1.7064e-06
-8.87366e-07
1.78095e-06
-8.51117e-07
7.29511e-07
4.74507e-07
4.84658e-08
-1.54404e-07
3.98943e-08
-8.85859e-07
-1.10207e-07
-4.75471e-07
3.53008e-07
-9.14827e-07
9.79187e-07
1.69422e-06
2.54696e-06
3.26369e-07
2.85245e-06
3.83777e-07
-1.56978e-08
4.03777e-06
-1.43472e-06
3.49409e-06
-9.89941e-07
1.89761e-06
-1.65586e-06
3.95383e-07
-2.22643e-06
-7.62552e-07
-2.08839e-06
-6.17879e-07
-1.85318e-06
-4.89931e-07
-1.86594e-06
-4.799e-07
-1.94909e-06
-3.64898e-07
-2.11254e-06
-4.52259e-07
-1.80977e-06
-1.101e-06
-7.11633e-07
-1.53735e-06
-2.26151e-07
-9.53192e-07
-6.66351e-07
-4.47166e-07
-1.13708e-06
-3.80398e-07
-1.35175e-06
6.89211e-07
-2.12138e-06
6.15317e-07
-2.89198e-06
-1.15095e-07
-3.17032e-06
-1.97007e-07
1.07339e-07
-2.92474e-06
1.63255e-08
1.67785e-06
-3.17599e-07
6.60315e-07
-7.96886e-07
8.63056e-07
-4.32015e-07
3.67287e-06
-1.80986e-07
3.24304e-06
-2.6784e-07
1.98445e-06
-6.44754e-07
7.72273e-07
-1.30795e-06
-9.93832e-08
-1.65334e-06
-2.72509e-07
-1.90188e-06
-2.41399e-07
-2.25437e-06
-1.27392e-07
-2.60612e-06
-1.31076e-08
-2.74307e-06
-3.1525e-07
-2.27181e-06
-1.57221e-06
-1.61351e-06
-2.19558e-06
-1.0714e-06
-1.49526e-06
-1.19006e-06
-3.28446e-07
-1.75975e-06
1.89359e-07
-2.00675e-06
9.36305e-07
-2.69169e-06
1.3004e-06
-3.75541e-06
9.48921e-07
-3.99629e-06
4.43223e-08
-1.66913e-07
-3.72166e-06
-3.95981e-07
2.07384e-06
-1.11354e-06
1.3779e-06
-1.77798e-06
1.52752e-06
-1.04401e-06
2.9389e-06
-5.3629e-07
2.73529e-06
-4.23874e-07
1.87199e-06
-6.84736e-07
1.03308e-06
-1.19535e-06
4.11186e-07
-1.62876e-06
1.60862e-07
-1.94939e-06
7.91976e-08
-2.22394e-06
1.47143e-07
-2.41152e-06
1.74474e-07
-2.3626e-06
-3.64147e-07
-2.31697e-06
-1.61783e-06
-2.44866e-06
-2.06388e-06
-2.46038e-06
-1.48353e-06
-2.34509e-06
-4.43745e-07
-2.46217e-06
3.06415e-07
-2.60119e-06
1.07531e-06
-2.81406e-06
1.51326e-06
-3.10162e-06
1.23649e-06
-3.62548e-06
5.68216e-07
1.58882e-07
-3.95118e-06
-2.79116e-07
2.35299e-06
-8.81669e-07
1.98052e-06
-1.40068e-06
2.04655e-06
-1.06231e-06
2.60054e-06
-7.55796e-07
2.42877e-06
-7.23117e-07
1.83929e-06
-9.25103e-07
1.23505e-06
-1.29885e-06
7.84918e-07
-1.64328e-06
5.05288e-07
-1.88861e-06
3.24526e-07
-2.0284e-06
2.8694e-07
-2.04025e-06
1.86325e-07
-2.0525e-06
-3.5188e-07
-2.47472e-06
-1.1956e-06
-3.01549e-06
-1.52312e-06
-3.33721e-06
-1.16184e-06
-3.29936e-06
-4.81624e-07
-3.24799e-06
2.55005e-07
-3.2139e-06
1.04117e-06
-3.12299e-06
1.42229e-06
-3.19949e-06
1.31286e-06
-3.49699e-06
8.65497e-07
4.63782e-07
-3.80215e-06
-2.51834e-07
2.60484e-06
-6.6914e-07
2.39791e-06
-9.93758e-07
2.37121e-06
-9.0533e-07
2.51214e-06
-7.99817e-07
2.32327e-06
-8.57619e-07
1.89711e-06
-1.05655e-06
1.43401e-06
-1.33516e-06
1.06355e-06
-1.5881e-06
7.58272e-07
-1.78789e-06
5.24354e-07
-1.91157e-06
4.10656e-07
-1.97257e-06
2.47355e-07
-2.15051e-06
-1.73922e-07
-2.62575e-06
-7.20348e-07
-3.18043e-06
-9.68457e-07
-3.53635e-06
-8.0596e-07
-3.65671e-06
-3.61331e-07
-3.63546e-06
2.33646e-07
-3.46812e-06
8.73709e-07
-3.29752e-06
1.25156e-06
-3.24086e-06
1.25606e-06
-3.3598e-06
9.84278e-07
6.32165e-07
-3.52836e-06
-1.67671e-07
2.77257e-06
-4.43877e-07
2.6742e-06
-6.71247e-07
2.59864e-06
-7.16616e-07
2.55757e-06
-7.44087e-07
2.35079e-06
-8.54782e-07
2.00786e-06
-1.04584e-06
1.62513e-06
-1.25863e-06
1.27641e-06
-1.4671e-06
9.66797e-07
-1.66319e-06
7.2049e-07
-1.83521e-06
5.82711e-07
-1.98584e-06
3.97995e-07
-2.2326e-06
7.28369e-08
-2.66106e-06
-2.91907e-07
-3.13941e-06
-4.90156e-07
-3.46979e-06
-4.7564e-07
-3.595e-06
-2.36225e-07
-3.56265e-06
2.01153e-07
-3.41715e-06
7.2801e-07
-3.23682e-06
1.07099e-06
-3.1153e-06
1.13423e-06
-3.09638e-06
9.6502e-07
6.60237e-07
-3.12481e-06
-1.17687e-07
2.89033e-06
-2.99081e-07
2.85566e-06
-4.6379e-07
2.76341e-06
-5.5745e-07
2.65128e-06
-6.4624e-07
2.43965e-06
-7.77432e-07
2.13912e-06
-9.44803e-07
1.79258e-06
-1.11843e-06
1.45011e-06
-1.31016e-06
1.15859e-06
-1.5269e-06
9.37277e-07
-1.72894e-06
7.84778e-07
-1.92045e-06
5.89513e-07
-2.17926e-06
3.3164e-07
-2.539e-06
6.78075e-08
-2.92392e-06
-1.05285e-07
-3.20865e-06
-1.9097e-07
-3.34302e-06
-1.01946e-07
-3.32711e-06
1.85121e-07
-3.18967e-06
5.90408e-07
-3.02575e-06
9.06865e-07
-2.8672e-06
9.75423e-07
-2.74786e-06
8.45388e-07
5.6292e-07
-2.65086e-06
-8.5202e-08
2.97559e-06
-2.08191e-07
2.97868e-06
-3.30814e-07
2.88606e-06
-4.30134e-07
2.75064e-06
-5.33401e-07
2.54297e-06
-6.626e-07
2.26839e-06
-8.08917e-07
1.93897e-06
-9.6768e-07
1.60895e-06
-1.15707e-06
1.34805e-06
-1.37749e-06
1.15776e-06
-1.57616e-06
9.83506e-07
-1.77509e-06
7.88474e-07
-2.01061e-06
5.6719e-07
-2.29506e-06
3.52263e-07
-2.58744e-06
1.87089e-07
-2.84307e-06
6.46485e-08
-2.99808e-06
5.30374e-08
-3.01958e-06
2.06591e-07
-2.91688e-06
4.87655e-07
-2.76158e-06
7.51508e-07
-2.58241e-06
7.96172e-07
-2.40937e-06
6.72242e-07
4.01326e-07
-2.24788e-06
-6.00671e-08
3.03567e-06
-1.45502e-07
3.06411e-06
-2.38782e-07
2.97934e-06
-3.27143e-07
2.83901e-06
-4.23279e-07
2.63913e-06
-5.38792e-07
2.38394e-06
-6.73664e-07
2.07389e-06
-8.34742e-07
1.77008e-06
-1.02324e-06
1.5366e-06
-1.21896e-06
1.35352e-06
-1.40251e-06
1.16712e-06
-1.586e-06
9.72014e-07
-1.78676e-06
7.68006e-07
-2.00761e-06
5.73167e-07
-2.22824e-06
4.07769e-07
-2.44399e-06
2.80435e-07
-2.60661e-06
2.15712e-07
-2.67108e-06
2.71109e-07
-2.62839e-06
4.4503e-07
-2.48334e-06
6.06531e-07
-2.30606e-06
6.1896e-07
-2.12576e-06
4.9202e-07
2.3798e-07
-1.96233e-06
-4.02588e-08
3.07592e-06
-1.006e-07
3.1244e-06
-1.72779e-07
3.05149e-06
-2.47851e-07
2.91407e-06
-3.31563e-07
2.72284e-06
-4.31741e-07
2.48412e-06
-5.62678e-07
2.20484e-06
-7.2359e-07
1.931e-06
-8.98875e-07
1.71191e-06
-1.06536e-06
1.52004e-06
-1.22671e-06
1.32852e-06
-1.3877e-06
1.13306e-06
-1.55617e-06
9.36534e-07
-1.73235e-06
7.4943e-07
-1.90844e-06
5.83934e-07
-2.07644e-06
4.4852e-07
-2.22523e-06
3.64588e-07
-2.31467e-06
3.60664e-07
-2.30155e-06
4.32033e-07
-2.19067e-06
4.95795e-07
-2.0406e-06
4.69051e-07
-1.88511e-06
3.36692e-07
1.04099e-07
-1.75104e-06
-2.37634e-08
3.09965e-06
-6.92875e-08
3.16987e-06
-1.2935e-07
3.11152e-06
-1.9441e-07
2.97911e-06
-2.68253e-07
2.79666e-06
-3.58444e-07
2.5743e-06
-4.78687e-07
2.32507e-06
-6.27021e-07
2.07934e-06
-7.77323e-07
1.86222e-06
-9.20554e-07
1.6633e-06
-1.05965e-06
1.46765e-06
-1.19837e-06
1.27183e-06
-1.34025e-06
1.07849e-06
-1.48516e-06
8.9442e-07
-1.62912e-06
7.27985e-07
-1.76788e-06
5.87383e-07
-1.8893e-06
4.86133e-07
-1.96653e-06
4.38016e-07
-1.9677e-06
4.33352e-07
-1.89572e-06
4.23987e-07
-1.78503e-06
3.58534e-07
-1.66763e-06
2.1948e-07
7.35176e-09
-1.57069e-06
-1.44863e-08
3.1141e-06
-5.4247e-08
3.20959e-06
-1.0671e-07
3.16396e-06
-1.64342e-07
3.03672e-06
-2.30639e-07
2.86294e-06
-3.12449e-07
2.65609e-06
-4.16807e-07
2.42942e-06
-5.39388e-07
2.20192e-06
-6.6536e-07
1.9882e-06
-7.87485e-07
1.78544e-06
-9.06505e-07
1.58671e-06
-1.02487e-06
1.39025e-06
-1.14436e-06
1.19805e-06
-1.26467e-06
1.01481e-06
-1.38318e-06
8.46591e-07
-1.49556e-06
6.99862e-07
-1.59177e-06
5.82455e-07
-1.65315e-06
4.99514e-07
-1.66152e-06
4.41856e-07
-1.61787e-06
3.80489e-07
-1.54354e-06
2.84358e-07
-1.46307e-06
1.39165e-07
-5.59446e-08
-1.39961e-06
-1.45527e-08
3.12862e-06
-5.44683e-08
3.24948e-06
-9.98946e-08
3.20936e-06
-1.50242e-07
3.08705e-06
-2.08557e-07
2.92123e-06
-2.79388e-07
2.72691e-06
-3.65798e-07
2.51582e-06
-4.64632e-07
2.30075e-06
-5.67416e-07
2.09099e-06
-6.69082e-07
1.88712e-06
-7.69218e-07
1.68687e-06
-8.68784e-07
1.48986e-06
-9.68493e-07
1.2978e-06
-1.06778e-06
1.11416e-06
-1.16437e-06
9.43258e-07
-1.25408e-06
7.89648e-07
-1.32909e-06
6.57546e-07
-1.37749e-06
5.48007e-07
-1.38904e-06
4.53513e-07
-1.36486e-06
3.56421e-07
-1.31839e-06
2.38009e-07
-1.26734e-06
8.82344e-08
-9.36086e-08
-1.22955e-06
-2.21386e-08
3.15074e-06
-6.17937e-08
3.28913e-06
-1.0101e-07
3.24857e-06
-1.44064e-07
3.13009e-06
-1.93565e-07
2.97072e-06
-2.52327e-07
2.78565e-06
-3.21797e-07
2.58528e-06
-3.99932e-07
2.37888e-06
-4.81974e-07
2.17303e-06
-5.64636e-07
1.96979e-06
-6.46999e-07
1.76925e-06
-7.29116e-07
1.57199e-06
-8.10962e-07
1.37968e-06
-8.91689e-07
1.19492e-06
-9.692e-07
1.02081e-06
-1.03985e-06
8.60348e-07
-1.09788e-06
7.15629e-07
-1.1359e-06
5.86096e-07
-1.14841e-06
4.66096e-07
-1.1367e-06
3.44803e-07
-1.10956e-06
2.10962e-07
-1.07939e-06
5.81606e-08
-1.13759e-07
-1.05914e-06
-3.24264e-08
3.18317e-06
-6.89858e-08
3.32568e-06
-1.03487e-07
3.28305e-06
-1.39946e-07
3.16653e-06
-1.80619e-07
3.01138e-06
-2.27589e-07
2.83261e-06
-2.81821e-07
2.6395e-06
-3.42224e-07
2.43928e-06
-4.06221e-07
2.23703e-06
-4.71723e-07
2.0353e-06
-5.37744e-07
1.83528e-06
-6.0386e-07
1.63812e-06
-6.69596e-07
1.44543e-06
-7.33923e-07
1.25927e-06
-7.94942e-07
1.08186e-06
-8.49695e-07
9.15138e-07
-8.94109e-07
7.60086e-07
-9.23679e-07
6.15719e-07
-9.35563e-07
4.78043e-07
-9.311e-07
3.40414e-07
-9.16203e-07
1.96146e-07
-8.9942e-07
4.14627e-08
-1.23288e-07
-8.89799e-07
-4.38051e-08
3.22697e-06
-7.39973e-08
3.35585e-06
-1.0486e-07
3.3139e-06
-1.35128e-07
3.19678e-06
-1.67185e-07
3.04342e-06
-2.03058e-07
2.86847e-06
-2.43782e-07
2.68022e-06
-2.89016e-07
2.48451e-06
-3.37452e-07
2.28547e-06
-3.87784e-07
2.08564e-06
-4.3913e-07
1.88664e-06
-4.90858e-07
1.68987e-06
-5.42259e-07
1.49685e-06
-5.92243e-07
1.30928e-06
-6.39148e-07
1.1288e-06
-6.80671e-07
9.56698e-07
-7.13996e-07
7.93456e-07
-7.36398e-07
6.38173e-07
-7.46479e-07
4.88185e-07
-7.45475e-07
3.39479e-07
-7.37443e-07
1.8819e-07
-7.28208e-07
3.23044e-08
-1.27486e-07
-7.23929e-07
-5.1897e-08
3.27886e-06
-7.9089e-08
3.38302e-06
-1.05449e-07
3.34024e-06
-1.28865e-07
3.22018e-06
-1.52146e-07
3.06669e-06
-1.77523e-07
2.89384e-06
-2.06229e-07
2.70893e-06
-2.38425e-07
2.51671e-06
-2.73508e-07
2.32056e-06
-3.10658e-07
2.1228e-06
-3.49122e-07
1.92512e-06
-3.88196e-07
1.72896e-06
-4.27076e-07
1.53576e-06
-4.647e-07
1.34693e-06
-4.9965e-07
1.16378e-06
-5.30161e-07
9.87252e-07
-5.54301e-07
8.17643e-07
-5.70416e-07
6.5434e-07
-5.77864e-07
4.9569e-07
-5.77688e-07
3.39366e-07
-5.72691e-07
1.83257e-07
-5.66795e-07
2.64714e-08
-1.30119e-07
-5.64098e-07
-5.41285e-08
3.33298e-06
-8.45138e-08
3.41338e-06
-1.05001e-07
3.36071e-06
-1.20422e-07
3.23559e-06
-1.34602e-07
3.08086e-06
-1.50027e-07
2.90926e-06
-1.6804e-07
2.72694e-06
-1.8904e-07
2.53771e-06
-2.12775e-07
2.34431e-06
-2.38682e-07
2.14872e-06
-2.66102e-07
1.95255e-06
-2.94316e-07
1.7572e-06
-3.22503e-07
1.56397e-06
-3.49667e-07
1.37413e-06
-3.74611e-07
1.18876e-06
-3.95983e-07
1.00866e-06
-4.12441e-07
8.34143e-07
-4.22963e-07
6.64907e-07
-4.27277e-07
5.00051e-07
-4.26208e-07
3.38345e-07
-4.21676e-07
1.78772e-07
-4.16291e-07
2.11279e-08
-1.33659e-07
-4.12708e-07
-5.35969e-08
3.38656e-06
-8.80065e-08
3.44777e-06
-1.01408e-07
3.3741e-06
-1.08119e-07
3.24229e-06
-1.13278e-07
3.08601e-06
-1.1954e-07
2.91552e-06
-1.28226e-07
2.73562e-06
-1.39779e-07
2.54927e-06
-1.54067e-07
2.3586e-06
-1.70633e-07
2.16529e-06
-1.88857e-07
1.97079e-06
-2.08023e-07
1.77638e-06
-2.2732e-07
1.58329e-06
-2.45832e-07
1.39267e-06
-2.62542e-07
1.2055e-06
-2.76398e-07
1.02255e-06
-2.86442e-07
8.44219e-07
-2.92014e-07
6.70512e-07
-2.93006e-07
5.01077e-07
-2.90031e-07
3.35401e-07
-2.84384e-07
1.73154e-07
-2.77767e-07
1.45351e-08
-1.3955e-07
-2.71854e-07
-5.72546e-08
3.4438e-06
-8.66878e-08
3.4772e-06
-9.15856e-08
3.37899e-06
-8.97523e-08
3.24045e-06
-8.67038e-08
3.08296e-06
-8.5031e-08
2.91384e-06
-8.5942e-08
2.73653e-06
-8.98244e-08
2.55315e-06
-9.65417e-08
2.36531e-06
-1.05646e-07
2.1744e-06
-1.16516e-07
1.98166e-06
-1.28431e-07
1.7883e-06
-1.40599e-07
1.59547e-06
-1.52174e-07
1.40426e-06
-1.62281e-07
1.21563e-06
-1.70078e-07
1.03037e-06
-1.74847e-07
8.49011e-07
-1.76136e-07
6.71825e-07
-1.73893e-07
4.98858e-07
-1.68547e-07
3.30076e-07
-1.6095e-07
1.65577e-07
-1.52186e-07
5.78611e-09
-1.48454e-07
-1.43267e-07
-5.80731e-08
3.50187e-06
-7.52866e-08
3.49441e-06
-7.2525e-08
3.37623e-06
-6.35603e-08
3.23148e-06
-5.37958e-08
3.07319e-06
-4.57683e-08
2.90581e-06
-4.06159e-08
2.73137e-06
-3.86501e-08
2.55118e-06
-3.96647e-08
2.36633e-06
-4.31646e-08
2.1779e-06
-4.8495e-08
1.987e-06
-5.49173e-08
1.79473e-06
-6.16581e-08
1.60222e-06
-6.79249e-08
1.41053e-06
-7.29473e-08
1.22066e-06
-7.60259e-08
1.03346e-06
-7.65979e-08
8.49601e-07
-7.43254e-08
6.69572e-07
-6.91651e-08
4.93718e-07
-6.13979e-08
3.2233e-07
-5.15714e-08
1.5577e-07
-4.03496e-08
-5.41792e-09
-1.6047e-07
-2.83139e-08
-4.40613e-08
3.54593e-06
-5.29921e-08
3.50333e-06
-4.42059e-08
3.36744e-06
-2.95323e-08
3.2168e-06
-1.44377e-08
3.05809e-06
-1.59385e-09
2.89296e-06
7.91948e-09
2.72185e-06
1.39444e-08
2.54515e-06
1.68035e-08
2.36346e-06
1.70952e-08
2.17761e-06
1.55405e-08
1.98855e-06
1.29033e-08
1.79737e-06
9.96583e-09
1.60517e-06
7.47017e-09
1.41304e-06
6.10908e-09
1.22204e-06
6.48838e-09
1.0331e-06
9.0686e-09
8.47042e-07
1.41261e-08
6.64538e-07
2.17076e-08
4.86162e-07
3.16396e-08
3.12425e-07
4.35813e-08
1.43856e-07
5.71355e-08
-1.89446e-08
-1.75307e-07
7.20025e-08
-2.69457e-08
3.57288e-06
-2.57115e-08
3.50209e-06
-9.71341e-09
3.35143e-06
1.08753e-08
3.1962e-06
3.07104e-08
3.03824e-06
4.72055e-08
2.87646e-06
5.95583e-08
2.70949e-06
6.7919e-08
2.53678e-06
7.28839e-08
2.3585e-06
7.52208e-08
2.17527e-06
7.57495e-08
1.98803e-06
7.52856e-08
1.79784e-06
7.46023e-08
1.60586e-06
7.44219e-08
1.41324e-06
7.53849e-08
1.2211e-06
7.80235e-08
1.03049e-06
8.27349e-08
8.42357e-07
8.97496e-08
6.57554e-07
9.9123e-08
4.76822e-07
1.10749e-07
3.00836e-07
1.24414e-07
1.30229e-07
1.39888e-07
-3.43792e-08
-1.9241e-07
1.57033e-07
-1.0988e-08
3.58386e-06
4.29127e-09
3.48679e-06
2.87394e-08
3.32696e-06
5.64452e-08
3.16848e-06
8.10245e-08
3.01365e-06
1.00189e-07
2.85728e-06
1.13902e-07
2.69577e-06
1.22946e-07
2.52774e-06
1.28325e-07
2.35312e-06
1.3105e-07
2.17255e-06
1.32071e-07
1.98702e-06
1.32258e-07
1.79767e-06
1.32396e-07
1.60574e-06
1.33185e-07
1.41247e-06
1.35223e-07
1.21908e-06
1.38994e-07
1.02674e-06
1.44845e-07
8.36538e-07
1.52973e-07
6.49461e-07
1.63431e-07
4.66405e-07
1.76143e-07
2.88166e-07
1.90966e-07
1.15451e-07
2.07758e-07
-5.11248e-08
-2.11071e-07
2.26468e-07
4.85558e-09
3.57899e-06
3.2646e-08
3.45897e-06
7.01418e-08
3.28944e-06
1.06866e-07
3.13174e-06
1.36246e-07
2.98425e-06
1.56985e-07
2.83653e-06
1.70497e-07
2.68225e-06
1.78556e-07
2.51967e-06
1.82722e-07
2.34895e-06
1.84288e-07
2.17099e-06
1.84337e-07
1.98698e-06
1.83787e-07
1.79823e-06
1.83434e-07
1.60611e-06
1.83956e-07
1.41197e-06
1.85918e-07
1.21714e-06
1.89765e-07
1.02292e-06
1.95805e-07
8.30532e-07
2.04205e-07
6.41098e-07
2.15e-07
4.55651e-07
2.28118e-07
2.75093e-07
2.43434e-07
1.00181e-07
2.6084e-07
-6.84844e-08
-2.30501e-07
2.80319e-07
2.11597e-08
3.55781e-06
6.31943e-08
3.4169e-06
1.15409e-07
3.2372e-06
1.62878e-07
3.08424e-06
1.96578e-07
2.95053e-06
2.17208e-07
2.81588e-06
2.28677e-07
2.67077e-06
2.34056e-07
2.51429e-06
2.35481e-07
2.34753e-06
2.34492e-07
2.17198e-06
2.32268e-07
1.98921e-06
2.29756e-07
1.80075e-06
2.27745e-07
1.60813e-06
2.26893e-07
1.41284e-06
2.27737e-07
1.21632e-06
2.30688e-07
1.02e-06
2.36023e-07
8.25226e-07
2.43879e-07
6.33275e-07
2.54264e-07
4.45303e-07
2.67082e-07
2.62314e-07
2.82191e-07
8.51136e-08
2.99471e-07
-8.57234e-08
-2.49889e-07
3.189e-07
3.92263e-08
3.51857e-06
9.81956e-08
3.35789e-06
1.66916e-07
3.16845e-06
2.26477e-07
3.02466e-06
2.61875e-07
2.91511e-06
2.79945e-07
2.7978e-06
2.87348e-07
2.66335e-06
2.88463e-07
2.51316e-06
2.8583e-07
2.35016e-06
2.81118e-07
2.17669e-06
2.75536e-07
1.99479e-06
2.70028e-07
1.80627e-06
2.65362e-07
1.61281e-06
2.62173e-07
1.41604e-06
2.60973e-07
1.21754e-06
2.62149e-07
1.01884e-06
2.65954e-07
8.21444e-07
2.72498e-07
6.26755e-07
2.81755e-07
4.36074e-07
2.93587e-07
2.50513e-07
3.07799e-07
7.09337e-08
3.24222e-07
-1.02117e-07
-2.68441e-07
3.42805e-07
6.94653e-08
3.44908e-06
1.50153e-07
3.27717e-06
2.33854e-07
3.08472e-06
2.95564e-07
2.96293e-06
3.3057e-07
2.88009e-06
3.43096e-07
2.78525e-06
3.44833e-07
2.6616e-06
3.40558e-07
2.51743e-06
3.3292e-07
2.35779e-06
3.23611e-07
2.186e-06
3.13833e-07
2.00457e-06
3.04506e-07
1.8156e-06
2.96371e-07
1.62095e-06
2.90036e-07
1.42238e-06
2.85994e-07
1.22159e-06
2.84616e-07
1.02023e-06
2.86143e-07
8.19931e-07
2.90667e-07
6.22247e-07
2.98127e-07
4.28631e-07
3.0833e-07
2.40331e-07
3.20999e-07
5.82847e-08
3.35883e-07
-1.16982e-07
-2.85415e-07
3.52877e-07
1.32269e-07
3.31679e-06
2.36705e-07
3.17271e-06
3.2097e-07
3.00044e-06
3.71693e-07
2.91219e-06
3.99101e-07
2.85267e-06
4.0435e-07
2.77999e-06
3.99631e-07
2.66631e-06
3.89336e-07
2.52772e-06
3.76077e-07
2.37104e-06
3.61559e-07
2.20051e-06
3.4697e-07
2.01916e-06
3.33205e-07
1.82937e-06
3.20968e-07
1.63319e-06
3.10838e-07
1.43252e-06
3.03287e-07
1.22915e-06
2.9868e-07
1.02485e-06
2.97259e-07
8.21357e-07
2.99115e-07
6.20397e-07
3.04168e-07
4.23587e-07
3.1216e-07
2.32348e-07
3.22712e-07
4.77423e-08
3.35445e-07
-1.29708e-07
-3.00139e-07
3.50177e-07
2.30075e-07
3.0867e-06
3.59072e-07
3.0437e-06
4.27969e-07
2.93153e-06
4.60348e-07
2.8798e-06
4.683e-07
2.84471e-06
4.64302e-07
2.78398e-06
4.51853e-07
2.67876e-06
4.34628e-07
2.54494e-06
4.15067e-07
2.3906e-06
3.94793e-07
2.22078e-06
3.74927e-07
2.03902e-06
3.56282e-07
1.84801e-06
3.39494e-07
1.64997e-06
3.25085e-07
1.44692e-06
3.13495e-07
1.24073e-06
3.05088e-07
1.03325e-06
3.00124e-07
8.2632e-07
2.98721e-07
6.21799e-07
3.00806e-07
4.21502e-07
3.06075e-07
2.2708e-07
3.14019e-07
3.97994e-08
3.24076e-07
-1.39766e-07
-3.12018e-07
3.35955e-07
3.46904e-07
2.73979e-06
5.05507e-07
2.88509e-06
5.54347e-07
2.88268e-06
5.58201e-07
2.87594e-06
5.43797e-07
2.85911e-06
5.25752e-07
2.80202e-06
5.02598e-07
2.70191e-06
4.76693e-07
2.57084e-06
4.49841e-07
2.41744e-06
4.23263e-07
2.24736e-06
3.97791e-07
2.06449e-06
3.74024e-07
1.87177e-06
3.5244e-07
1.67155e-06
3.33453e-07
1.4659e-06
3.1745e-07
1.25673e-06
3.04784e-07
1.04591e-06
2.95752e-07
8.35346e-07
2.90537e-07
6.27008e-07
2.89125e-07
4.2291e-07
2.91208e-07
2.24992e-07
2.96142e-07
3.48611e-08
3.03092e-07
-1.46722e-07
-3.20542e-07
3.11609e-07
4.77254e-07
2.26253e-06
6.62025e-07
2.70032e-06
6.90816e-07
2.85389e-06
6.63604e-07
2.90315e-06
6.25957e-07
2.89675e-06
5.88459e-07
2.83952e-06
5.51195e-07
2.73917e-06
5.14816e-07
2.60721e-06
4.79874e-07
2.45238e-06
4.4673e-07
2.2805e-06
4.15632e-07
2.09558e-06
3.86794e-07
1.9006e-06
3.60435e-07
1.69791e-06
3.36805e-07
1.48953e-06
3.162e-07
1.27733e-06
2.98951e-07
1.06315e-06
2.85398e-07
8.48891e-07
2.75831e-07
6.36567e-07
2.70377e-07
4.28356e-07
2.68823e-07
2.26538e-07
2.70418e-07
3.32586e-08
2.73915e-07
-1.50228e-07
-3.25272e-07
2.78636e-07
6.26658e-07
1.63587e-06
8.25615e-07
2.50136e-06
8.27998e-07
2.85151e-06
7.7028e-07
2.96087e-06
7.05212e-07
2.96182e-06
6.46098e-07
2.89863e-06
5.93647e-07
2.79162e-06
5.46615e-07
2.65424e-06