# vtk DataFile Version 2.0
track0
ASCII
DATASET POLYDATA
POINTS 12045 float
-0.0205 0.001 1e-05
-0.02052 0.000999985 1e-05
-0.02054 0.000999974 1e-05
-0.02056 0.000999965 1e-05
-0.02058 0.000999959 1e-05
-0.0206 0.000999956 1e-05
-0.0205 0.00367778 1e-05
-0.02052 0.00367778 1e-05
-0.02054 0.00367777 1e-05
-0.02056 0.00367777 1e-05
-0.02058 0.00367777 1e-05
-0.0206 0.00367777 1e-05
-0.0205 0.00635556 1e-05
-0.02052 0.00635555 1e-05
-0.02054 0.00635555 1e-05
-0.02056 0.00635555 1e-05
-0.02058 0.00635555 1e-05
-0.0206 0.00635555 1e-05
-0.0205 0.00903333 1e-05
-0.02052 0.00903333 1e-05
-0.02054 0.00903333 1e-05
-0.02056 0.00903333 1e-05
-0.02058 0.00903333 1e-05
-0.0206 0.00903333 1e-05
-0.0205 0.0117111 1e-05
-0.02052 0.0117111 1e-05
-0.02054 0.0117111 1e-05
-0.02056 0.0117111 1e-05
-0.02058 0.0117111 1e-05
-0.0206 0.0117111 1e-05
-0.0205 0.0143889 1e-05
-0.02052 0.0143889 1e-05
-0.02054 0.0143889 1e-05
-0.02056 0.0143889 1e-05
-0.02058 0.0143889 1e-05
-0.0206 0.0143889 1e-05
-0.0205 0.0170667 1e-05
-0.02052 0.0170667 1e-05
-0.02054 0.0170667 1e-05
-0.02056 0.0170667 1e-05
-0.02058 0.0170667 1e-05
-0.0206 0.0170667 1e-05
-0.0205 0.0197444 1e-05
-0.02052 0.0197444 1e-05
-0.02054 0.0197444 1e-05
-0.02056 0.0197444 1e-05
-0.02058 0.0197444 1e-05
-0.0206 0.0197444 1e-05
-0.0205 0.0224222 1e-05
-0.02052 0.0224222 1e-05
-0.02054 0.0224222 1e-05
-0.02056 0.0224222 1e-05
-0.02058 0.0224222 1e-05
-0.0206 0.0224222 1e-05
-0.0205 0.0251 1e-05
-0.02052 0.0250998 1e-05
-0.02054 0.0250997 1e-05
-0.02056 0.0250995 1e-05
-0.02058 0.0250995 1e-05
-0.0206 0.0250994 1e-05
-0.0205 0.001 1e-05
-0.0202034 0.00100022 1e-05
-0.0199069 0.00100067 1e-05
-0.0196103 0.00100132 1e-05
-0.0193137 0.00100219 1e-05
-0.0190172 0.00100326 1e-05
-0.0187132 0.00100466 1e-05
-0.0184093 0.00100588 1e-05
-0.0181054 0.0010071 1e-05
-0.0178015 0.00100832 1e-05
-0.0174976 0.00100953 1e-05
-0.0172058 0.00101083 1e-05
-0.016914 0.00101193 1e-05
-0.0166222 0.00101303 1e-05
-0.0163305 0.00101413 1e-05
-0.0160387 0.00101523 1e-05
-0.0157586 0.00101637 1e-05
-0.0154784 0.00101745 1e-05
-0.0151983 0.00101857 1e-05
-0.0149182 0.00101972 1e-05
-0.0146381 0.00102091 1e-05
-0.014375 0.00102209 1e-05
-0.014112 0.00102328 1e-05
-0.013849 0.00102449 1e-05
-0.0135859 0.00102574 1e-05
-0.0133638 0.00102682 1e-05
-0.0133497 0.00102689 1e-05
-0.0133356 0.00102696 1e-05
-0.0133216 0.00102703 1e-05
-0.0133075 0.0010271 1e-05
-0.0132934 0.00102717 1e-05
-0.0130353 0.00102846 1e-05
-0.0127771 0.00102976 1e-05
-0.0125189 0.00103108 1e-05
-0.0122607 0.00103242 1e-05
-0.0120025 0.00103377 1e-05
-0.0117547 0.00103508 1e-05
-0.0115068 0.0010364 1e-05
-0.0112589 0.00103772 1e-05
-0.0110111 0.00103905 1e-05
-0.0107632 0.00104038 1e-05
-0.0105252 0.00104165 1e-05
-0.0102873 0.00104294 1e-05
-0.0100493 0.00104422 1e-05
-0.00981133 0.0010455 1e-05
-0.00957337 0.00104678 1e-05
-0.00934491 0.001048 1e-05
-0.00911645 0.00104923 1e-05
-0.00888799 0.00105045 1e-05
-0.00865954 0.00105167 1e-05
-0.00843108 0.00105288 1e-05
-0.00821175 0.00105404 1e-05
-0.00799242 0.00105521 1e-05
-0.00777309 0.00105636 1e-05
-0.00755376 0.00105752 1e-05
-0.00733443 0.00105867 1e-05
-0.00712387 0.00105976 1e-05
-0.0069133 0.00106086 1e-05
-0.00670273 0.00106195 1e-05
-0.00649216 0.00106304 1e-05
-0.0062816 0.00106412 1e-05
-0.00607944 0.00106515 1e-05
-0.00587729 0.00106618 1e-05
-0.00567514 0.00106721 1e-05
-0.00547298 0.00106824 1e-05
-0.00527083 0.00106926 1e-05
-0.00507675 0.00107023 1e-05
-0.00488267 0.0010712 1e-05
-0.0046886 0.00107217 1e-05
-0.00449452 0.00107314 1e-05
-0.00430044 0.0010741 1e-05
-0.00411412 0.00107502 1e-05
-0.0039278 0.00107594 1e-05
-0.00374147 0.00107686 1e-05
-0.00355515 0.00107778 1e-05
-0.00336883 0.00107869 1e-05
-0.00318995 0.00107956 1e-05
-0.00301107 0.00108043 1e-05
-0.00283219 0.00108131 1e-05
-0.00265331 0.00108218 1e-05
-0.00247443 0.00108305 1e-05
-0.0023027 0.00108388 1e-05
-0.00213097 0.00108472 1e-05
-0.00195924 0.00108556 1e-05
-0.0017875 0.0010864 1e-05
-0.00161577 0.00108725 1e-05
-0.0014509 0.00108805 1e-05
-0.00128603 0.00108886 1e-05
-0.00112116 0.00108968 1e-05
-0.000956289 0.0010905 1e-05
-0.000791418 0.00109133 1e-05
-0.000633135 0.00109213 1e-05
-0.000474851 0.00109294 1e-05
-0.000316568 0.00109376 1e-05
-0.000158284 0.00109458 1e-05
0 0.00109541 1e-05
0.000105677 0.00109597 1e-05
0.000211355 0.00109653 1e-05
0.000317032 0.00109709 1e-05
0.00042271 0.00109764 1e-05
0.000528387 0.0010982 1e-05
0.000634886 0.00109876 1e-05
0.000741385 0.00109931 1e-05
0.000847885 0.00109986 1e-05
0.000954384 0.00110041 1e-05
0.00106088 0.00110095 1e-05
0.00116821 0.00110148 1e-05
0.00127554 0.00110202 1e-05
0.00138286 0.00110254 1e-05
0.00149019 0.00110306 1e-05
0.00159752 0.00110356 1e-05
0.00170568 0.00110406 1e-05
0.00181384 0.00110456 1e-05
0.001922 0.00110504 1e-05
0.00203016 0.00110552 1e-05
0.00213833 0.00110598 1e-05
0.00224733 0.00110644 1e-05
0.00235633 0.00110689 1e-05
0.00246533 0.00110733 1e-05
0.00257434 0.00110776 1e-05
0.00268334 0.00110818 1e-05
0.00279319 0.00110859 1e-05
0.00290304 0.001109 1e-05
0.00301289 0.0011094 1e-05
0.00312274 0.00110979 1e-05
0.00323259 0.00111017 1e-05
0.00334329 0.00111054 1e-05
0.003454 0.00111091 1e-05
0.0035647 0.00111127 1e-05
0.0036754 0.00111162 1e-05
0.00378611 0.00111196 1e-05
0.00389767 0.00111229 1e-05
0.00400924 0.00111262 1e-05
0.0041208 0.00111294 1e-05
0.00423237 0.00111325 1e-05
0.00434393 0.00111355 1e-05
0.00445636 0.00111384 1e-05
0.00456879 0.00111413 1e-05
0.00468123 0.00111441 1e-05
0.00479366 0.00111468 1e-05
0.00490609 0.00111494 1e-05
0.0050194 0.00111519 1e-05
0.0051327 0.00111544 1e-05
0.00524601 0.00111568 1e-05
0.00535932 0.00111591 1e-05
0.00547262 0.00111613 1e-05
0.00558681 0.00111634 1e-05
0.005701 0.00111655 1e-05
0.00581518 0.00111675 1e-05
0.00592937 0.00111694 1e-05
0.00604356 0.00111712 1e-05
0.00615863 0.00111729 1e-05
0.00627371 0.00111746 1e-05
0.00638878 0.00111762 1e-05
0.00650386 0.00111777 1e-05
0.00661893 0.00111792 1e-05
0.0067349 0.00111805 1e-05
0.00685087 0.00111818 1e-05
0.00696684 0.0011183 1e-05
0.00708281 0.00111841 1e-05
0.00719878 0.00111851 1e-05
0.00731565 0.0011186 1e-05
0.00743252 0.00111869 1e-05
0.00754939 0.00111877 1e-05
0.00766626 0.00111884 1e-05
0.00778313 0.0011189 1e-05
0.00783632 0.00111893 1e-05
0.00788952 0.00111895 1e-05
0.00794271 0.00111897 1e-05
0.0079959 0.00111899 1e-05
0.00804766 0.00111901 1e-05
0.00811254 0.00111903 1e-05
0.00817741 0.00111904 1e-05
0.00824229 0.00111906 1e-05
0.00830716 0.00111907 1e-05
0.00837203 0.00111908 1e-05
0.00849073 0.00111909 1e-05
0.00860942 0.00111909 1e-05
0.00872812 0.00111909 1e-05
0.00884682 0.00111907 1e-05
0.00896551 0.00111905 1e-05
0.00908513 0.00111901 1e-05
0.00920475 0.00111897 1e-05
0.00932437 0.00111892 1e-05
0.00944398 0.00111886 1e-05
0.0095636 0.00111879 1e-05
0.00968415 0.00111871 1e-05
0.0098047 0.00111862 1e-05
0.00992525 0.00111852 1e-05
0.0100458 0.00111842 1e-05
0.0101663 0.0011183 1e-05
0.0102878 0.00111817 1e-05
0.0104093 0.00111804 1e-05
0.0105308 0.00111789 1e-05
0.0106523 0.00111774 1e-05
0.0107738 0.00111758 1e-05
0.0108962 0.00111739 1e-05
0.0110186 0.00111721 1e-05
0.0111411 0.00111702 1e-05
0.0112635 0.00111682 1e-05
0.0113859 0.0011166 1e-05
0.0115093 0.00111637 1e-05
0.0116327 0.00111614 1e-05
0.0117561 0.00111589 1e-05
0.0118795 0.00111564 1e-05
0.0120028 0.00111538 1e-05
0.0121272 0.00111509 1e-05
0.0122515 0.0011148 1e-05
0.0123759 0.00111451 1e-05
0.0125002 0.0011142 1e-05
0.0126245 0.00111389 1e-05
0.0127498 0.00111355 1e-05
0.0128752 0.00111321 1e-05
0.0130005 0.00111286 1e-05
0.0131258 0.0011125 1e-05
0.0132511 0.00111213 1e-05
0.0133774 0.00111173 1e-05
0.0135036 0.00111134 1e-05
0.0136299 0.00111093 1e-05
0.0137562 0.00111052 1e-05
0.0138825 0.00111009 1e-05
0.0140098 0.00110964 1e-05
0.014137 0.00110919 1e-05
0.0142643 0.00110873 1e-05
0.0143915 0.00110825 1e-05
0.0145188 0.00110777 1e-05
0.0146471 0.00110726 1e-05
0.0147753 0.00110675 1e-05
0.0149036 0.00110623 1e-05
0.0150318 0.0011057 1e-05
0.0151601 0.00110515 1e-05
0.0152893 0.00110459 1e-05
0.0154186 0.00110402 1e-05
0.0155478 0.00110344 1e-05
0.0156771 0.00110285 1e-05
0.0158063 0.00110225 1e-05
0.0159366 0.00110163 1e-05
0.0160668 0.001101 1e-05
0.0161971 0.00110036 1e-05
0.0163274 0.0010997 1e-05
0.0164576 0.00109904 1e-05
0.0165889 0.00109837 1e-05
0.0167201 0.00109768 1e-05
0.0168514 0.00109697 1e-05
0.0169827 0.00109625 1e-05
0.0171139 0.00109553 1e-05
0.0172462 0.0010948 1e-05
0.0173785 0.00109405 1e-05
0.0175108 0.00109328 1e-05
0.0176431 0.0010925 1e-05
0.0177754 0.00109171 1e-05
0.0179087 0.00109092 1e-05
0.018042 0.00109011 1e-05
0.0181753 0.00108928 1e-05
0.0183087 0.00108843 1e-05
0.018442 0.00108758 1e-05
0.0185763 0.00108673 1e-05
0.0187107 0.00108586 1e-05
0.018845 0.00108496 1e-05
0.0189794 0.00108405 1e-05
0.0191137 0.00108314 1e-05
0.0192491 0.00108223 1e-05
0.0193845 0.00108129 1e-05
0.0195199 0.00108032 1e-05
0.0196553 0.00107935 1e-05
0.0197907 0.00107837 1e-05
0.0199272 0.0010774 1e-05
0.0200636 0.0010764 1e-05
0.0202001 0.00107537 1e-05
0.0203365 0.00107432 1e-05
0.020473 0.00107329 1e-05
0.0206105 0.00107225 1e-05
0.020748 0.00107118 1e-05
0.0208855 0.00107008 1e-05
0.021023 0.00106898 1e-05
0.0211606 0.00106788 1e-05
0.0212991 0.00106677 1e-05
0.0214377 0.00106564 1e-05
0.0215763 0.00106448 1e-05
0.0217149 0.0010633 1e-05
0.0218535 0.00106214 1e-05
0.0219931 0.00106097 1e-05
0.0221328 0.00105977 1e-05
0.0222724 0.00105854 1e-05
0.0224121 0.0010573 1e-05
0.0225517 0.00105606 1e-05
0.0226925 0.00105483 1e-05
0.0228332 0.00105356 1e-05
0.022974 0.00105226 1e-05
0.0231147 0.00105096 1e-05
0.0232555 0.00104965 1e-05
0.0233973 0.00104835 1e-05
0.0235391 0.00104702 1e-05
0.023681 0.00104565 1e-05
0.0238228 0.00104427 1e-05
0.0239647 0.0010429 1e-05
0.0241076 0.00104153 1e-05
0.0242505 0.00104012 1e-05
0.0243935 0.00103869 1e-05
0.0245364 0.00103724 1e-05
0.0246794 0.0010358 1e-05
0.0248234 0.00103435 1e-05
0.0249675 0.00103288 1e-05
0.0251115 0.00103137 1e-05
0.0252556 0.00102985 1e-05
[...]
POINT_DATA 12045
 FIELD attributes 1
U 3 12045 float
10.0004 	0.00731839 	0 10.0004 	0.00585471 	0 10.0003 	0.00439103 	0 10.0002 	0.00292736 	0 10.0001 	0.00146368 	0 10 	0 	0
10.0001 	0.00088095 	0 10 	0.00070476 	0 10 	0.00052857 	0 10 	0.00035238 	0 10 	0.00017619 	0 10 	0 	0
10.0001 	0.000468878 	0 10.0001 	0.000374912 	0 10.0001 	0.000280947 	0 10 	0.000186981 	0 10 	9.30152e-05 	0 10 	0 	0
10 	0.000269333 	0 10 	0.000215466 	0 10 	0.0001616 	0 10 	0.000107733 	0 10 	5.38666e-05 	0 10 	0 	0
10 	8.37044e-05 	0 10 	6.69635e-05 	0 10 	5.02226e-05 	0 10 	3.34818e-05 	0 10 	1.67409e-05 	0 10 	0 	0
10 	-2.32028e-05 	0 10 	-1.85623e-05 	0 10 	-1.39217e-05 	0 10 	-9.28114e-06 	0 10 	-4.64057e-06 	0 10 	0 	0
10 	-0.000213929 	0 10 	-0.000171143 	0 10 	-0.000128357 	0 10 	-8.55716e-05 	0 10 	-4.27858e-05 	0 10 	0 	0
10 	-0.000376339 	0 10 	-0.000301072 	0 10 	-0.000225804 	0 10 	-0.000150536 	0 10 	-7.52679e-05 	0 10 	0 	0
9.99999 	-0.000426624 	0 9.99999 	-0.000341299 	0 9.99999 	-0.000255975 	0 10 	-0.00017065 	0 10 	-8.53249e-05 	0 10 	0 	0
9.17387 	0.0870993 	0 9.1308 	0.0696794 	0 9.08741 	0.0522593 	0 9.04368 	0.0348389 	0 8.99962 	0.0174184 	0 8.95524 	0 	0
10.0004 	0.00731839 	0 10.0024 	0.0151694 	0 10.0045 	0.022189 	0 10.0065 	0.0291644 	0 10.0085 	0.0360958 	0 10.0135 	0.0463119 	0 10.0163 	0.0402121 	0 10.0207 	0.0401721 	0 10.0252 	0.0401323 	0 10.0296 	0.0400926 	0 10.0355 	0.0445549 	0 10.0384 	0.0379166 	0 10.0424 	0.0378744 	0 10.0464 	0.0378321 	0 10.0504 	0.0377897 	0 10.0545 	0.0408916 	0 10.0566 	0.0388165 	0 10.0591 	0.0401277 	0 10.0615 	0.0414406 	0 10.0639 	0.0427551 	0 10.0661 	0.0452141 	0 10.0676 	0.045327 	0 10.0689 	0.0465299 	0 10.0703 	0.0477339 	0 10.0716 	0.048939 	0 10.0727 	0.0499576 	0 10.0728 	0.0500226 	0 10.0728 	0.0500875 	0 10.0729 	0.0501525 	0 10.073 	0.0502175 	0 10.0731 	0.0502727 	0 10.0736 	0.0509031 	0 10.0741 	0.0515273 	0 10.0746 	0.052152 	0 10.0751 	0.0527772 	0 10.0756 	0.053238 	0 10.0754 	0.0535387 	0 10.0751 	0.0537336 	0 10.0747 	0.0539287 	0 10.0744 	0.0541239 	0 10.0738 	0.0540803 	0 10.0733 	0.0542321 	0 10.0722 	0.0542151 	0 10.0711 	0.0541981 	0 10.07 	0.0541811 	0 10.0685 	0.0538948 	0 10.0681 	0.0539842 	0 10.0664 	0.0538595 	0 10.0648 	0.0537348 	0 10.0631 	0.05361 	0 10.0605 	0.053199 	0 10.0605 	0.0532657 	0 10.0585 	0.0530833 	0 10.0564 	0.0529009 	0 10.0544 	0.0527184 	0 10.0508 	0.0522377 	0 10.0514 	0.0523084 	0 10.049 	0.052105 	0 10.0467 	0.0519015 	0 10.0443 	0.051698 	0 10.0396 	0.0511891 	0 10.0411 	0.0512877 	0 10.0385 	0.0510877 	0 10.0359 	0.0508877 	0 10.0334 	0.0506876 	0 10.0275 	0.0501701 	0 10.03 	0.0503083 	0 10.0273 	0.050135 	0 10.0245 	0.0499616 	0 10.0218 	0.0497881 	0 10.0149 	0.0492929 	0 10.0184 	0.0494897 	0 10.0156 	0.0493522 	0 10.0128 	0.0492147 	0 10.01 	0.0490771 	0 10.0018 	0.0486021 	0 10.0066 	0.048872 	0 10.0038 	0.0488371 	0 10.0009 	0.0488022 	0 9.9981 	0.0487672 	0 9.98872 	0.0484162 	0 9.99487 	0.0488265 	0 9.99206 	0.0488675 	0 9.98925 	0.0489085 	0 9.98644 	0.0489495 	0 9.97583 	0.0486069 	0 9.98341 	0.0491198 	0 9.98075 	0.0494809 	0 9.97809 	0.049842 	0 9.97543 	0.0502032 	0 9.96371 	0.0502709 	0 9.97298 	0.0510681 	6.58322e-22 9.97121 	0.0515007 	4.53448e-21 9.96943 	0.0519335 	8.41029e-21 9.96766 	0.0523664 	1.22857e-20 9.95572 	0.0522457 	1.03236e-20 9.96653 	0.0527204 	7.30898e-20 9.96517 	0.0526691 	6.79557e-20 9.96382 	0.0526178 	6.28212e-20 9.96247 	0.0525665 	5.76864e-20 9.95037 	0.0519819 	-1.18032e-20 9.96123 	0.051879 	-3.20009e-20 9.95991 	0.0514271 	-3.5534e-20 9.95858 	0.0509752 	-3.90653e-20 9.95725 	0.0505232 	-4.25947e-20 9.94516 	0.0497954 	-1.62596e-20 9.95557 	0.049405 	-1.437e-20 9.95386 	0.048591 	-9.95914e-21 9.95215 	0.0477769 	-5.54879e-21 9.95043 	0.0469627 	-1.13893e-21 9.93821 	0.0459668 	5.6679e-21 9.94818 	0.0455825 	-3.94904e-21 9.94608 	0.0446096 	-1.83556e-20 9.94397 	0.0436365 	-3.27641e-20 9.94185 	0.0426633 	-4.71744e-20 9.92943 	0.0413825 	-6.78204e-20 9.9389 	0.0411513 	-9.79844e-20 9.93636 	0.0402416 	-8.84362e-20 9.93382 	0.0393317 	-7.88815e-20 9.93127 	0.0384215 	-6.93202e-20 9.91863 	0.0370259 	-2.29124e-20 9.92748 	0.036919 	2.96128e-20 9.92449 	0.0361001 	4.0106e-20 9.92149 	0.035281 	5.05913e-20 9.91848 	0.0344616 	6.10686e-20 9.90569 	0.0330549 	2.83846e-20 9.91383 	0.0329587 	-4.11939e-20 9.91038 	0.0321709 	-4.59662e-20 9.90691 	0.0313829 	-5.0726e-20 9.90344 	0.0305945 	-5.54734e-20 9.89058 	0.0292223 	-2.11646e-22 9.8979 	0.0290832 	5.23553e-20 9.89395 	0.0283102 	4.51034e-20 9.88999 	0.0275368 	3.78392e-20 9.88603 	0.0267632 	3.05626e-20 9.87317 	0.0254629 	-2.1403e-20 9.87949 	0.0252688 	-6.70572e-20 9.87501 	0.024509 	-8.43577e-20 9.87053 	0.0237489 	-1.01654e-19 9.86604 	0.0229885 	-1.18945e-19 9.85328 	0.0217761 	-1.04514e-19 9.85839 	0.0215293 	-1.23244e-19 9.85338 	0.0207851 	-1.13589e-19 9.84836 	0.0200405 	-1.0393e-19 9.84334 	0.0192956 	-9.42671e-20 9.83086 	0.0181749 	-6.35088e-20 9.83447 	0.017883 	-5.38761e-20 9.82894 	0.017156 	-3.9475e-20 9.82339 	0.0164287 	-2.50754e-20 9.81784 	0.0157011 	-1.06772e-20 9.80589 	0.014667 	2.04456e-21 9.80769 	0.0143191 	0 9.80164 	0.0136016 	0 9.79558 	0.0128838 	0 9.78951 	0.0121656 	0 9.77841 	0.0112119 	0 9.77801 	0.0107914 	-1.21174e-20 9.77145 	0.0100802 	-2.69068e-20 9.76489 	0.00936856 	-4.16977e-20 9.75833 	0.00865658 	-5.649e-20 9.74846 	0.00779082 	-7.23245e-20 9.74542 	0.00727742 	-7.83556e-20 9.73838 	0.0065725 	-7.89117e-20 9.73133 	0.00586717 	-7.94633e-20 9.72427 	0.00516143 	-8.00105e-20 9.71608 	0.00440214 	-7.87286e-20 9.71404 	0.00415149 	-6.58585e-20 9.71066 	0.00383481 	-5.55886e-20 9.70727 	0.00351803 	-4.53204e-20 9.70387 	0.00320116 	-3.50538e-20 9.70057 	0.00289268 	-2.50637e-20 9.69638 	0.00250374 	-1.25309e-20 9.69219 	0.00211465 	-5.39386e-25 9.688 	0.00172542 	1.25273e-20 9.6838 	0.00133604 	2.50526e-20 9.6761 	0.000788155 	4.03514e-20 9.67127 	0.000226224 	4.11282e-20 9.66322 	-0.000477167 	4.19858e-20 9.65517 	-0.00118108 	4.28414e-20 9.64711 	-0.00188552 	4.36952e-20 9.62935 	-0.00300592 	4.56339e-20 9.6297 	-0.0033411 	3.60987e-20 9.62123 	-0.00404245 	2.65618e-20 9.61275 	-0.00474438 	1.70239e-20 9.60425 	-0.00544688 	7.48497e-21 9.58025 	-0.0067711 	-6.3363e-22 9.58547 	-0.00693196 	-7.09628e-21 9.5766 	-0.0076345 	-1.62233e-20 9.56771 	-0.00833767 	-2.53494e-20 9.55882 	-0.00904146 	-3.44743e-20 9.52913 	-0.0105131 	-4.36089e-20 9.53875 	-0.0105551 	-4.45638e-20 9.52951 	-0.011261 	-5.02872e-20 9.52026 	-0.0119676 	-5.60079e-20 9.51099 	-0.0126748 	-6.17258e-20 9.47629 	-0.0142333 	-7.51032e-20 9.48977 	-0.0142093 	-1.10638e-19 9.4802 	-0.0149187 	-1.03178e-19 9.47061 	-0.0156287 	-9.573e-20 9.461 	-0.0163394 	-8.82934e-20 9.42202 	-0.0179237 	-3.21122e-20 9.43877 	-0.0178883 	-2.1089e-20 9.42889 	-0.018602 	-1.49146e-20 9.41899 	-0.0193164 	-8.73935e-21 9.40907 	-0.0200317 	-2.56343e-21 9.36657 	-0.0215822 	0 9.38599 	-0.0215913 	0 9.37583 	-0.0223105 	0 9.36565 	-0.0230306 	0 9.35546 	-0.0237514 	0 9.3102 	-0.0252101 	0 9.3317 	-0.0253174 	1.66269e-21 9.3213 	-0.0260418 	7.41018e-21 9.31087 	-0.0267671 	1.3157e-20 9.30043 	-0.0274932 	1.8903e-20 9.25316 	-0.0288022 	3.23135e-20 9.27617 	-0.0290551 	1.18422e-19 9.26555 	-0.0297832 	1.20749e-19 9.25491 	-0.0305122 	1.23089e-19 9.24425 	-0.0312422 	1.25442e-19 9.19564 	-0.0323497 	3.24655e-20 9.21966 	-0.0327878 	1.78719e-20 9.20885 	-0.0335184 	1.26805e-20 9.19801 	-0.03425 	7.4883e-21 9.18715 	-0.0349826 	2.29524e-21 9.13784 	-0.0358465 	1.30005e-20 9.16109 	-0.0365057 	8.16625e-20 9.15143 	-0.0372356 	8.53325e-20 9.14043 	-0.0379691 	8.6392e-20 9.12578 	-0.0386897 	7.93825e-20 9.07994 	-0.0392907 	2.96594e-21 9.09989 	-0.0401685 	-7.82544e-20 9.09355 	-0.0409247 	-9.75226e-20 9.0824 	-0.0416595 	-1.05505e-19 9.06449 	-0.042315 	-1.00333e-19 9.02209 	-0.0426798 	-4.738e-20 9.039 	-0.0437495 	-1.39526e-19 9.03542 	-0.0445761 	-1.66045e-19 9.02416 	-0.0453121 	-1.67967e-19 9.00366 	-0.0458576 	-1.36323e-19 8.96446 	-0.0460152 	-3.66029e-20 8.97857 	-0.0472531 	-1.91412e-20 8.97726 	-0.0481883 	-8.81746e-21 8.96589 	-0.048927 	-3.13913e-21 8.9434 	-0.0493266 	0 8.90716 	-0.0493066 	0 8.91874 	-0.050692 	0 8.91925 	-0.0517677 	0 8.90781 	-0.0525091 	0 8.88385 	-0.0527317 	1.47697e-21 8.85033 	-0.0525572 	4.0832e-21 8.85963 	-0.054065 	1.6033e-21 8.86156 	-0.0553035 	0 8.85006 	-0.0560478 	0 8.8251 	-0.0560726 	1.79759e-21 8.79406 	-0.0557721 	4.40744e-21 8.8013 	-0.0573854 	1.92749e-21 8.80433 	-0.0588068 	1.14469e-21 8.7928 	-0.0595535 	6.28697e-21 8.76723 	-0.0593611 	1.90765e-20 8.73846 	-0.0589531 	3.36206e-20 8.74386 	-0.0606445 	1.32663e-19 8.74771 	-0.0622537 	2.23172e-19 8.73616 	-0.0630007 	2.26047e-19 8.71032 	-0.0625849 	1.33083e-19 8.68359 	-0.0620952 	3.40564e-20 8.68735 	-0.063846 	1.97371e-20 8.69105 	-0.0655987 	5.41915e-21 8.6793 	-0.0663035 	1.76298e-22 8.6544 	-0.0657533 	2.68938e-21 8.62952 	-0.0652027 	5.20233e-21 8.63183 	-0.0669999 	2.82429e-21 8.63409 	-0.068799 	4.47026e-22 8.62278 	-0.0694726 	1.88369e-21 8.59954 	-0.0688747 	-1.13131e-21 8.57631 	-0.0682764 	-4.14553e-21 8.57736 	-0.0701096 	-3.84129e-20 8.57834 	-0.0719448 	-7.2684e-20 8.56751 	-0.0725886 	-7.37509e-20 8.54576 	-0.0719561 	-4.24099e-20 8.52402 	-0.0713232 	-1.10674e-20 8.52397 	-0.0731852 	6.7142e-20 8.52385 	-0.0750492 	1.45346e-19 8.51353 	-0.0756655 	1.52043e-19 8.4931 	-0.0750105 	8.68034e-20 8.47269 	-0.074355 	2.15633e-20 8.47167 	-0.076229 	1.24973e-20 8.47058 	-0.0781049 	3.42803e-21 8.46079 	-0.0786965 	2.25608e-22 8.44155 	-0.0780397 	3.89691e-21 8.42233 	-0.0773825 	7.56945e-21 8.42046 	-0.0792582 	3.11312e-21 8.41852 	-0.0811356 	-1.34796e-21 8.40927 	-0.0817045 	-1.61505e-20 8.39109 	-0.0810587 	-5.56859e-20 8.37293 	-0.0804124 	-9.52231e-20 8.37031 	-0.0822758 	-1.98542e-19 8.36762 	-0.0841409 	-3.01857e-19 8.35892 	-0.0846896 	-2.8941e-19 8.3417 	-0.0840716 	-1.70959e-19 8.3245 	-0.0834531 	-5.25079e-20 8.32121 	-0.0853036 	4.55031e-20 8.3176 	-0.0870889 	1.38563e-19 8.30905 	-0.0875944 	1.36543e-19 8.29337 	-0.0871031 	7.13859e-20 8.27703 	-0.0865178 	3.01254e-22 8.27315 	-0.0883535 	-7.02259e-20 8.26832 	-0.0899274 	-1.28097e-19 8.25988 	-0.0904469 	-1.35235e-19 8.24607 	-0.0901609 	-9.07643e-20 8.23051 	-0.0896125 	-2.95039e-20 8.22611 	-0.0914329 	-2.07388e-20 8.2203 	-0.092801 	-1.20485e-20 8.21196 	-0.0933356 	-3.49218e-21 8.19977 	-0.0932529 	9.61644e-21 8.18493 	-0.092744 	2.58658e-20 8.18005 	-0.0945492 	8.53986e-21 8.17346 	-0.0957185 	-2.31512e-21 8.16522 	-0.0962694 	-6.88001e-21 8.15444 	-0.0963868 	-4.47843e-21 8.14025 	-0.0959194 	7.31075e-21 8.13495 	-0.0977102 	-5.89835e-21 8.12776 	-0.0986884 	-1.36495e-20 8.11961 	-0.0992568 	-1.86475e-20 8.11004 	-0.0995703 	-2.6734e-20 8.09643 	-0.0991458 	-4.37475e-20 8.09076 	-0.100923 	4.17099e-20 8.08312 	-0.101719 	5.80526e-20 8.07505 	-0.102306 	5.97084e-20 8.06654 	-0.102811 	5.50253e-20 8.05345 	-0.10243 	-1.81121e-20 8.04744 	-0.104196 	5.39219e-20 8.03949 	-0.104817 	5.69707e-20 8.03148 	-0.105423 	5.91423e-20 8.02346 	-0.10603 	6.13036e-20 8.01127 	-0.10578 	6.97877e-21 8.00471 	-0.107363 	-3.81097e-22 7.9968 	-0.10799 	-2.64544e-22 7.98886 	-0.108617 	-1.48009e-22 7.98089 	-0.109245 	-3.1492e-23 7.96985 	-0.109202 	1.14017e-20 7.96286 	-0.110596 	0 7.955 	-0.111244 	0 7.94711 	-0.111893 	0 7.9392 	-0.112542 	0 7.92915 	-0.112702 	8.61239e-21 7.92185 	-0.113916 	0 7.91403 	-0.114586 	0 7.90618 	-0.115257 	0 7.8983 	-0.115928 	0 7.88913 	-0.116285 	0 7.88161 	-0.117326 	0 7.87382 	-0.118019 	0 7.866 	-0.118713 	0 7.85816 	-0.119407 	0 7.84974 	-0.119957 	-2.58946e-21 7.84297 	-0.12075 	0 7.83611 	-0.121383 	0 7.82922 	-0.122017 	0 7.82231 	-0.122652 	0 7.81569 	-0.123259 	0 7.81469 	-0.123348 	0 7.81369 	-0.123437 	0 7.81268 	-0.123526 	0 7.81168 	-0.123615 	0 7.81079 	-0.123682 	0 7.8028 	-0.124446 	0 7.79481 	-0.12519 	0 7.78679 	-0.125934 	0 7.77875 	-0.126679 	0 7.77171 	-0.127221 	0 7.76337 	-0.128176 	-5.72699e-21 7.75538 	-0.128945 	-1.318e-20 7.74737 	-0.129715 	-2.06315e-20 7.73932 	-0.130485 	-2.80815e-20 7.73319 	-0.130878 	-3.55442e-20 7.7245 	-0.132017 	-3.16491e-20 7.71651 	-0.132812 	-3.10561e-20 7.70849 	-0.133607 	-3.046e-20 7.70044 	-0.134403 	-2.98607e-20 7.69519 	-0.134653 	-3.41945e-20 7.68614 	-0.135973 	-2.60566e-20 7.67814 	-0.136794 	-1.7895e-20 7.6701 	-0.137616 	-9.73185e-21 7.66204 	-0.138439 	-1.56703e-21 7.65766 	-0.138554 	0 7.64823 	-0.14005 	-4.46329e-22 7.64021 	-0.140899 	-4.0976e-21 7.63215 	-0.141749 	-7.74803e-21 7.62412 	-0.142588 	-1.13976e-20 7.62054 	-0.142587 	-1.50467e-20 7.6109 	-0.144183 	-4.1545e-20 7.60268 	-0.145136 	-5.79166e-20 7.59459 	-0.146015 	-7.31321e-20 7.58745 	-0.146711 	-8.21928e-20 7.58378 	-0.14676 	-6.957e-20 7.57411 	-0.14837 	-5.01237e-20 7.56548 	-0.149511 	-3.7772e-20 7.55735 	-0.15042 	-2.895e-20 7.55109 	-0.150978 	-3.19275e-20 7.54731 	-0.151076 	-5.03496e-20 7.53761 	-0.152697 	-6.0852e-20 7.52857 	-0.154022 	-6.07678e-20 7.52039 	-0.15496 	-4.67906e-20 7.51498 	-0.155385 	-2.5529e-20 7.51108 	-0.155531 	-3.28457e-22 7.50136 	-0.157164 	2.75239e-21 7.49188 	-0.15867 	4.48025e-21 7.48364 	-0.159637 	5.18699e-22 7.47908 	-0.159933 	0 7.47505 	-0.160128 	0 7.46529 	-0.161774 	0 7.45546 	-0.163421 	0 7.44746 	-0.164383 	0 7.44332 	-0.164626 	0 7.43918 	-0.164869 	0 7.42936 	-0.166528 	0 7.41948 	-0.168189 	0 7.41196 	-0.169173 	-9.16171e-21 7.40769 	-0.169463 	-2.24187e-20 7.4034 	-0.169753 	-3.56751e-20 7.39353 	-0.171427 	-2.1091e-20 7.38359 	-0.173102 	-6.50083e-21 7.37653 	-0.17411 	1.31666e-21 7.37211 	-0.174446 	4.33809e-21 7.36769 	-0.174783 	7.35935e-21 7.35775 	-0.176473 	3.15879e-20 7.34775 	-0.178163 	5.58149e-20 7.34112 	-0.179195 	5.80839e-20 7.33656 	-0.179576 	4.69288e-20 7.33198 	-0.179958 	3.57712e-20 7.32197 	-0.181664 	1.75685e-20 7.31205 	-0.183346 	3.00983e-22 7.30584 	-0.184369 	7.1741e-21 7.30097 	-0.184853 	1.40438e-20 7.29624 	-0.185279 	2.09143e-20 7.28615 	-0.187002 	6.7676e-20 7.27711 	-0.188534 	1.00488e-19 7.27077 	-0.189587 	9.85073e-20 7.26533 	-0.190275 	6.88971e-20 7.26043 	-0.190744 	2.27513e-20 7.25026 	-0.192484 	1.66233e-20 7.24207 	-0.193869 	1.40248e-20 7.2356 	-0.194953 	1.44353e-20 7.22958 	-0.19584 	1.6975e-20 7.22451 	-0.196352 	2.36104e-20 7.21425 	-0.198108 	6.87954e-20 7.20691 	-0.19935 	7.62804e-20 7.20029 	-0.200463 	7.42494e-20 7.1937 	-0.201547 	7.00643e-20 7.18844 	-0.202099 	2.55173e-20 7.17831 	-0.203833 	1.96318e-20 7.17158 	-0.204973 	1.35867e-20 7.1648 	-0.206114 	7.54375e-21 7.15798 	-0.207255 	1.50282e-21 7.15219 	-0.207983 	0 7.14293 	-0.209566 	0 7.13604 	-0.210735 	0 7.1291 	-0.211903 	0 7.12213 	-0.213071 	0 7.11573 	-0.214 	0 7.10732 	-0.215436 	0 7.10026 	-0.216632 	0 7.09317 	-0.217827 	0 7.08603 	-0.219023 	0 7.07902 	-0.220151 	1.43822e-21 7.07577 	-0.220706 	1.75931e-21 7.0729 	-0.221192 	4.21692e-21 7.07003 	-0.221679 	6.67485e-21 7.06715 	-0.222166 	9.1331e-21 7.06434 	-0.222641 	1.1532e-20 7.05982 	-0.223379 	1.48286e-20 7.05529 	-0.224117 	1.81244e-20 7.05074 	-0.224855 	2.14194e-20 7.04617 	-0.225594 	2.47136e-20 7.04239 	-0.226238 	2.74589e-20 7.03438 	-0.22758 	2.46919e-20 7.02677 	-0.228829 	2.78612e-20 7.01911 	-0.230077 	3.10152e-20 7.01141 	-0.231325 	3.41541e-20 7.00582 	-0.232325 	5.0549e-20 6.99687 	-0.233846 	2.93052e-20 6.98908 	-0.235118 	2.08593e-20 6.98124 	-0.236391 	1.23981e-20 6.97335 	-0.237663 	3.92157e-21 6.96896 	-0.238534 	2.15892e-20 6.95903 	-0.240231 	1.8301e-20 6.95106 	-0.241526 	1.71681e-20 6.94304 	-0.242822 	1.60308e-20 6.93543 	-0.244065 	1.58223e-20 6.93177 	-0.244858 	2.36651e-20 6.92144 	-0.246614 	1.54778e-20 6.9127 	-0.248049 	1.27331e-20 6.90448 	-0.249368 	1.19328e-20 6.89811 	-0.250476 	1.59431e-20 6.89426 	-0.251298 	2.6491e-20 6.88374 	-0.25307 	3.6499e-20 6.87398 	-0.254686 	4.13083e-20 6.86557 	-0.256029 	3.70001e-20 6.86045 	-0.257003 	2.24723e-20 6.85641 	-0.257856 	4.54673e-21 6.84571 	-0.259644 	2.2543e-21 6.83494 	-0.261432 	-3.65928e-23 6.82667 	-0.262769 	0 6.82245 	-0.263652 	0 6.81821 	-0.264535 	0 6.80732 	-0.266341 	0 6.79637 	-0.268146 	0 6.78852 	-0.269508 	-4.18466e-21 6.78411 	-0.27042 	-1.06594e-20 6.77967 	-0.271333 	-1.71315e-20 6.7686 	-0.273155 	-8.86996e-21 6.75746 	-0.274978 	-6.01312e-22 6.75004 	-0.276361 	3.80855e-21 6.74544 	-0.2773 	8.5306e-21 6.7408 	-0.278239 	1.32547e-20 6.72954 	-0.280076 	9.31145e-21 6.71877 	-0.281853 	5.94022e-21 6.71175 	-0.283221 	6.49316e-21 6.70642 	-0.284278 	1.71172e-20 6.70158 	-0.285242 	3.07992e-20 6.69014 	-0.287093 	1.63575e-20 6.68076 	-0.288716 	5.83983e-21 6.67356 	-0.290102 	-5.78119e-22 6.66707 	-0.291353 	-5.51697e-21 6.66204 	-0.292343 	-7.60491e-21 6.65041 	-0.29421 	-4.05574e-20 6.64245 	-0.295681 	-4.91062e-20 6.63506 	-0.297087 	-5.36266e-20 6.62762 	-0.298493 	-5.81357e-20 6.62217 	-0.29955 	-3.52187e-20 6.61138 	-0.301327 	-5.43767e-20 6.60386 	-0.302754 	-5.05453e-20 6.59628 	-0.304181 	-4.67049e-20 6.58866 	-0.305608 	-4.28554e-20 6.58201 	-0.306864 	-2.84028e-20 6.57279 	-0.308471 	-3.50286e-20 6.56518 	-0.309906 	-2.88614e-20 6.55752 	-0.31134 	-2.26825e-20 6.5498 	-0.312774 	-1.64919e-20 6.5425 	-0.314121 	-1.06629e-20 6.54231 	-0.314154 	-1.05148e-20 6.54212 	-0.314188 	-1.03667e-20 6.54193 	-0.314221 	-1.02186e-20 6.54173 	-0.314255 	-1.00704e-20 6.54157 	-0.314284 	-1.01969e-20 6.53329 	-0.315761 	-7.93654e-21 6.52498 	-0.317234 	-5.71464e-21 6.51661 	-0.318707 	-3.49165e-21 6.50818 	-0.32018 	-1.26759e-21 6.50086 	-0.321485 	0 6.49187 	-0.323142 	0 6.48336 	-0.324638 	0 6.4748 	-0.326134 	0 6.46617 	-0.32763 	0 6.45984 	-0.328789 	0 6.45014 	-0.330601 	0 6.4414 	-0.332124 	-1.53581e-21 6.43264 	-0.333635 	-3.13546e-21 6.42465 	-0.33503 	-4.70276e-21 6.41852 	-0.336155 	-6.196e-21 6.40862 	-0.337974 	9.77254e-21 6.39911 	-0.339676 	1.98004e-20 6.39017 	-0.341217 	2.15814e-20 6.38323 	-0.342489 	7.66633e-21 6.37693 	-0.34367 	-1.15554e-20 6.36683 	-0.34553 	-6.75909e-21 6.35665 	-0.34739 	-1.96384e-21 6.34794 	-0.348963 	2.50851e-21 6.34153 	-0.350232 	5.32153e-21 6.33507 	-0.3515 	8.13337e-21 6.32477 	-0.353436 	4.61782e-21 6.31439 	-0.355372 	1.09972e-21 6.30614 	-0.357015 	3.65504e-21 6.29956 	-0.358373 	1.16412e-20 6.29292 	-0.359731 	1.96281e-20 6.28242 	-0.361749 	2.39723e-20 6.27227 	-0.363716 	2.65211e-20 6.2644 	-0.365399 	1.92541e-20 6.25726 	-0.36691 	8.09691e-21 6.25042 	-0.368343 	-4.84093e-21 6.2397 	-0.370435 	6.30967e-21 6.23071 	-0.37231 	8.93086e-21 6.22263 	-0.374066 	6.8693e-21 6.21457 	-0.375802 	3.79389e-21 6.2075 	-0.377303 	-1.28382e-20 6.19697 	-0.379413 	-8.55049e-21 6.18873 	-0.381239 	-3.03748e-21 6.18042 	-0.383063 	2.4753e-21 6.17205 	-0.384886 	7.98784e-21 6.16408 	-0.386602 	1.1313e-20 6.15766 	-0.387945 	1.1831e-20 6.15216 	-0.389178 	1.22511e-20 6.14663 	-0.390411 	1.2673e-20 6.14106 	-0.391643 	1.30965e-20 6.13571 	-0.392821 	1.35033e-20 6.13279 	-0.393493 	1.41633e-20 6.12986 	-0.394166 	1.48248e-20 6.12692 	-0.394838 	1.54878e-20 6.12397 	-0.39551 	1.61523e-20 6.12109 	-0.39612 	1.30107e-20 6.113 	-0.398151 	9.97367e-21 6.10468 	-0.400122 	6.95433e-21 6.09629 	-0.402091 	3.93301e-21 6.08783 	-0.404059 	9.09693e-22 6.07959 	-0.405789 	-3.7823e-21 6.07169 	-0.408064 	0 6.06311 	-0.410119 	0 6.05446 	-0.412172 	0 6.04583 	-0.41415 	-1.25757e-21 6.03743 	-0.415876 	-6.72955e-21 6.02935 	-0.418261 	-2.44079e-21 6.02089 	-0.420545 	8.6308e-22 6.01198 	-0.422696 	2.86685e-21 6.00328 	-0.424605 	8.85036e-21 5.99459 	-0.426443 	1.60023e-20 5.98624 	-0.428926 	2.78554e-20 5.97779 	-0.431407 	3.97103e-20 5.96891 	-0.433631 	4.04232e-20 5.96 	-0.43559 	3.03428e-20 5.95101 	-0.437547 	2.02619e-20 5.94237 	-0.440138 	2.15373e-20 5.93363 	-0.442726 	2.28161e-20 5.92511 	-0.445052 	1.84553e-20 5.9159 	-0.447148 	9.06891e-21 5.9066 	-0.449238 	-4.48649e-22 5.89765 	-0.451946 	-1.58263e-20 5.88876 	-0.454515 	-2.51241e-20 5.87994 	-0.456942 	-2.81646e-20 5.8709 	-0.459329 	-2.81927e-20 5.86124 	-0.461558 	-1.57441e-20 5.852 	-0.464366 	1.78899e-21 5.84291 	-0.466933 	-1.74431e-21 5.83373 	-0.469497 	-5.30327e-21 5.82445 	-0.472058 	-8.88803e-21 5.81483 	-0.474549 	-1.96744e