/*--------------------------------*- C++ -*----------------------------------*\
  =========                 |
  \\      /  F ield         | OpenFOAM: The Open Source CFD Toolbox
   \\    /   O peration     | Website:  https://openfoam.org
    \\  /    A nd           | Version:  9
     \\/     M anipulation  |
\*---------------------------------------------------------------------------*/
FoamFile
{
    format      ascii;
    class       volScalarField;
    location    "7.26";
    object      alpha.water;
}
// * * * * * * * * * * * * * * * * * * * * * * * * * * * * * * * * * * * * * //

dimensions      [0 0 0 0 0 0 0];

internalField   nonuniform List<scalar> 
2268
(
1
1
0.999999
0.999999
0.999999
0.999999
0.999999
0.999999
0.999998
0.999998
1
1
1
1
1
1
1
1
0.998459
0.997197
0.997699
0.999741
0.999575
0.999998
0.999999
0.999997
0.999998
1
0.999999
0.999997
0.999997
0.999998
0.999999
1
1
1
1
1
0.999998
0.999996
1
0.998725
0.997197
0.999722
0.999996
0.99999
0.999997
0.999997
0.999997
0.999999
1
0.999999
0.999999
0.999999
0.999999
1
1
1
1
1
0.999999
0.999977
0.999992
0.999999
0.999653
0.998421
0.999992
0.999996
0.999996
0.999998
0.999999
0.999999
0.999999
1
1
1
1
1
1
1
1
1
1
1
0.999905
0.999392
0.999992
0.999993
0.999991
0.999973
0.99979
0.999996
1
1
1
1
1
1
1
1
1
1
1
1
1
1
1
0.999973
0.997829
0.999603
0.999994
0.999994
0.999994
0.998146
0.999993
1
1
1
1
1
1
1
1
1
1
1
1
1
1
1
1
0.996657
0.985732
0.993724
0.997668
0.990115
0.996462
0.999993
1
1
1
1
1
1
1
1
1
1
1
1
1
1
1
1
0.997699
0.980907
0.980879
0.980935
0.980964
0.99826
0.999994
1
1
1
1
1
1
1
1
0.999999
0.999999
0.999999
1
1
1
1
1
0.999961
0.990099
0.980874
0.980874
0.988805
0.999866
0.999995
0.992898
0.999525
0.998763
0.998658
0.998538
0.995149
0.993641
0.993641
0.993967
0.992787
0.992184
0.992184
0.992184
0.998288
0.99866
0.99866
0.99865
0.998487
0.998475
0.992134
0.999712
0.999988
0.999988
0.999988
0.999988
0.999961
0.999828
0.999834
0.999832
0.997186
0.99513
0.992946
0.996071
0.99866
0.99866
0.99866
0.99866
0.9986
0.99212
0.998076
0.999988
0.999979
0.999988
0.999972
0.999972
0.999972
0.999834
0.999835
0.999604
0.999615
0.998533
0.997876
0.99814
0.99866
0.99866
0.997684
0.994696
0.992121
0.99932
0.999969
0.999969
0.999994
0.999961
0.999754
0.999772
0.999332
0.998323
0.999461
0.999633
0.999633
0.999465
0.996443
0.99866
0.998254
0.994698
0.994695
0.998852
0.999988
0.999998
0.999997
0.999996
0.99988
0.999575
0.999575
0.999725
0.997581
0.999426
0.999633
0.999633
0.999487
0.993706
0.997317
0.995485
0.995555
0.996257
0.999998
0.999998
0.999998
0.999993
0.999974
0.999909
0.999881
0.999941
0.999648
0.99476
0.999633
0.999633
0.999633
0.999316
0.99263
0.994842
0.987269
0.998436
0.998436
0.999998
0.999998
0.999997
0.999976
0.999974
0.99999
0.99999
0.99999
0.999796
0.987917
0.980081
0.999633
0.998761
0.968201
0.992302
0.997989
0.98655
0.998171
0.998436
0.999998
0.999997
0.999997
0.999997
0.999997
0.999997
0.999938
0.999721
0.999659
0.978613
0.969238
0.976616
0.977374
0.966611
0.99251
0.997989
0.986551
0.995804
0.998436
1
1
1
1
1
1
0.999999
0.999999
0.999999
0.999999
1
1
1
1
1
1
1
1
0.996152
0.995828
0.999998
0.999998
0.999998
0.991274
0.991319
0.991548
0.992363
0.99305
0.993463
0.994059
0.994113
0.992288
0.989241
0.985486
0.981943
0.979549
0.977806
0.976713
0.976864
0.97841
0.980788
0.981553
0.979026
0.973632
0.965771
0.961679
0.38736
0.387997
0.387704
0.3851
0.381912
0.377162
0.370876
0.3644
0.358615
0.353251
0.348046
0.342225
0.33562
0.328628
0.321805
0.315661
0.311501
0.309776
0.308762
0.306183
0.30305
0.303178
0.305806
0.00076399
0.000763983
0.00076399
0.000763986
0.000765372
0.000767033
0.000767756
0.000769369
0.00077149
0.000772863
0.000773477
0.000939984
0.000998538
0.00114363
0.00138536
0.00170895
0.0017664
0.00133226
0.00085663
0.00079632
0.000927576
0.000919977
0.000673028
0.000861631
0.000860688
0.000877062
0.00185184
0.00185135
0.00183438
0.00270311
0.00322581
0.00325507
0.00325666
0.00326299
0.00326293
0.00325453
0.00300982
0.00268494
0.00242617
0.00199389
0.00148316
0.000846196
0.000795712
0.000926632
0.000905041
0.000595361
0.000492136
0.000538026
0.000354288
0.000207495
0.000135958
0.000225317
9.8807e-05
2.50525e-08
2.47656e-08
2.89111e-05
5.51088e-05
3.65751e-05
7.97428e-08
2.44478e-05
4.77481e-05
5.36612e-05
0.000120321
0.000297789
0.000435874
0.000422598
0.000515024
0.000431529
0.000417166
3.15924e-07
1.86537e-05
6.48697e-05
8.02144e-06
1.44106e-05
2.64561e-08
2.50525e-08
2.47576e-08
2.4776e-08
2.47582e-08
2.51446e-08
2.5637e-08
2.58591e-08
1.40867e-05
6.73677e-05
6.91682e-05
4.92083e-05
3.12106e-05
5.02327e-05
5.0374e-05
1.63746e-05
0.000131956
0.00024841
2.70994e-09
2.70041e-09
2.70683e-09
4.00317e-09
1.51496e-06
2.66904e-06
1.64151e-06
4.71298e-07
5.42275e-08
8.86818e-07
1.12943e-06
1.27568e-07
2.55035e-06
5.58526e-05
6.92185e-05
6.92185e-05
4.50091e-05
2.68412e-05
3.19588e-05
8.12756e-06
7.90259e-09
6.23444e-08
1.17779e-06
2.70041e-09
2.70041e-09
2.70041e-09
5.25669e-09
2.38799e-08
1.39529e-06
2.29878e-06
1.68648e-06
5.60963e-08
2.34101e-06
2.87688e-06
9.94472e-07
1.22535e-06
1.33266e-05
1.89086e-05
1.23416e-05
1.55144e-05
2.42065e-05
5.80054e-06
7.68972e-09
7.79554e-09
7.75561e-09
5.56754e-09
2.70044e-09
3.98795e-09
3.85492e-08
7.22607e-09
5.47097e-10
3.95757e-07
1.72039e-06
3.65348e-07
2.50634e-07
2.85639e-06
2.87688e-06
2.09087e-06
8.86227e-10
9.24539e-10
9.50383e-10
2.10944e-09
1.74414e-07
1.18531e-06
8.52229e-07
7.69159e-09
1.31573e-08
3.26805e-08
2.67482e-08
2.97318e-09
9.24307e-08
1.1182e-07
2.31672e-08
5.42565e-10
3.95167e-09
4.98306e-08
4.99533e-08
1.55182e-07
2.82003e-06
2.86218e-06
9.88883e-08
8.85388e-10
8.86227e-10
1.02949e-08
2.04671e-07
4.85663e-07
4.8225e-07
1.7083e-08
1.70409e-08
3.55439e-08
4.0567e-08
2.75107e-08
3.27758e-09
1.11831e-07
1.11832e-07
3.02837e-08
5.42487e-10
5.42566e-10
5.44198e-10
1.53316e-07
1.27063e-06
2.1176e-06
5.95567e-07
8.61612e-10
8.84043e-10
1.02073e-09
1.27748e-09
1.07286e-06
6.02108e-06
6.03647e-06
2.76363e-06
1.00841e-08
1.0065e-08
2.03666e-08
1.10708e-08
1.78048e-09
4.76213e-08
1.05255e-07
1.83191e-08
5.42272e-10
5.42487e-10
2.9193e-07
1.64178e-06
1.69969e-06
1.03008e-06
8.55242e-10
8.60714e-10
8.85028e-10
4.96022e-10
2.43499e-10
1.90716e-06
6.03649e-06
6.03649e-06
6.03647e-06
1.74833e-06
7.57619e-09
7.55735e-09
7.55266e-09
1.04129e-09
1.18394e-09
1.5147e-08
2.90575e-09
5.41574e-10
5.42272e-10
6.87107e-07
1.70585e-06
1.7007e-06
8.04106e-08
8.54816e-10
8.76655e-10
8.84979e-10
3.09555e-10
1.24356e-10
4.43449e-08
1.76843e-06
5.81121e-06
4.62863e-06
2.88413e-09
7.69432e-09
1.34872e-08
1.45242e-08
1.37593e-09
2.63259e-10
2.61084e-10
2.58607e-10
5.38042e-10
6.86353e-09
4.6169e-07
1.21778e-06
6.28415e-07
1.94596e-10
8.5453e-10
1.09403e-09
7.82061e-10
1.31033e-10
6.36336e-11
6.55259e-11
3.34324e-09
8.54207e-08
9.05619e-08
2.88254e-09
1.66382e-08
2.14889e-08
1.47633e-08
1.37699e-09
5.60409e-08
2.93669e-10
2.58607e-10
2.04302e-09
1.43811e-08
4.01282e-08
2.53924e-08
1.1366e-11
1.94523e-10
7.75076e-10
9.03381e-10
3.67663e-10
7.17163e-11
6.3633e-11
6.36336e-11
6.3937e-11
6.5922e-11
6.75927e-11
1.7835e-09
1.31015e-08
1.8611e-08
4.78085e-09
2.15924e-07
1.97285e-07
2.70306e-11
3.3333e-10
3.25372e-09
9.35466e-09
2.85321e-11
1.17721e-11
1.04918e-11
1.20857e-10
3.60982e-10
3.19325e-10
7.60466e-11
3.63708e-11
5.84956e-11
6.78267e-11
7.0936e-11
6.54234e-11
6.35075e-11
2.41331e-10
7.02463e-10
7.87925e-10
1.08725e-09
2.75883e-07
1.87423e-07
2.69433e-11
4.47903e-10
2.39649e-09
2.0722e-09
1.55159e-11
1.74954e-11
8.7308e-12
2.91585e-11
5.30248e-11
2.70903e-11
4.51173e-12
1.23906e-11
3.65007e-11
5.42435e-11
6.0986e-11
5.88972e-11
4.70075e-11
2.93716e-11
1.11015e-11
9.30295e-12
1.11014e-10
2.75892e-07
1.10965e-07
2.6884e-11
3.63221e-10
9.37497e-10
9.14182e-11
1.55154e-11
1.60142e-11
3.22134e-12
1.35791e-12
1.21402e-12
2.69313e-13
3.26298e-14
1.18127e-12
9.1781e-12
1.99618e-11
2.39179e-11
2.22824e-11
1.68918e-11
1.05668e-11
5.77131e-12
2.91335e-12
1.56555e-12
2.75901e-07
4.00323e-08
2.68624e-11
1.74105e-10
1.64356e-10
9.0357e-12
8.20897e-12
7.20644e-12
2.01308e-13
-3.28806e-13
-5.11385e-13
-7.23357e-13
-6.9185e-13
-2.26282e-13
3.75672e-13
1.50193e-12
1.95984e-12
1.60193e-12
1.11449e-12
7.95059e-13
5.75464e-13
3.69358e-13
2.74632e-13
2.76429e-07
5.80182e-08
2.68597e-11
4.74556e-11
2.98651e-11
4.48577e-12
1.40872e-12
6.62837e-13
-4.87768e-13
-1.0289e-12
-1.20288e-12
-1.23415e-12
-1.09767e-12
-7.82589e-13
-4.18478e-13
-8.55171e-14
4.94003e-15
2.69176e-15
3.10726e-16
-2.05621e-15
3.68025e-16
3.55641e-16
2.2508e-17
2.76488e-07
2.51418e-07
2.68599e-11
2.69795e-11
2.68097e-11
4.32236e-12
2.80419e-14
-1.17777e-13
-7.95596e-13
-1.17882e-12
-1.29029e-12
-1.2457e-12
-1.08792e-12
-8.57387e-13
-6.19339e-13
-4.22211e-13
-2.96885e-13
-2.2386e-13
-1.69648e-13
-1.2357e-13
-8.45054e-14
-5.42032e-14
-3.26997e-14
2.76488e-07
2.76486e-07
2.68597e-11
2.94062e-11
3.20236e-11
4.61768e-12
5.00191e-14
-2.03195e-13
-6.46694e-13
-9.13604e-13
-9.93389e-13
-9.48638e-13
-8.2784e-13
-6.70658e-13
-5.12789e-13
-3.76998e-13
-2.73594e-13
-1.97139e-13
-1.39611e-13
-9.69495e-14
-6.59013e-14
-4.34145e-14
-2.72264e-14
2.76488e-07
2.4388e-07
2.68599e-11
4.76745e-11
5.15854e-11
6.29571e-12
7.27012e-13
2.57229e-13
-1.3883e-13
-3.78897e-13
-5.11376e-13
-5.40824e-13
-4.98526e-13
-4.17963e-13
-3.27799e-13
-2.44955e-13
-1.76925e-13
-1.23571e-13
-8.37139e-14
-5.55343e-14
-3.65948e-14
-2.38555e-14
-1.50997e-14
2.4066e-07
4.27759e-08
2.6862e-11
1.13617e-10
8.695e-11
1.13024e-11
3.63909e-12
2.75522e-12
1.62955e-12
6.57555e-13
5.88808e-14
-1.39972e-13
-2.11351e-13
-2.08826e-13
-1.73702e-13
-1.32413e-13
-9.58786e-14
-6.56335e-14
-4.28542e-14
-2.70522e-14
-1.69251e-14
-1.06048e-14
-6.64228e-15
2.43175e-08
8.39102e-11
9.12772e-11
2.11405e-10
1.2682e-10
2.10312e-11
1.07851e-11
9.34414e-12
6.89365e-12
4.05931e-12
1.84611e-12
5.1094e-13
6.99128e-15
-7.34876e-14
-7.79715e-14
-6.21725e-14
-4.59353e-14
-3.11412e-14
-1.9698e-14
-1.18211e-14
-6.93302e-15
-4.06155e-15
-2.43223e-15
7.59944e-11
8.36736e-11
1.92313e-10
2.31064e-10
1.39445e-10
3.44259e-11
2.29149e-11
2.06372e-11
1.61426e-11
1.06025e-11
5.42184e-12
1.96498e-12
4.1408e-13
-1.1958e-15
-2.96447e-14
-2.60345e-14
-2.00001e-14
-1.35397e-14
-8.34352e-15
-4.78176e-15
-2.62791e-15
-1.42185e-15
-7.8136e-16
7.58879e-11
8.37883e-11
2.06304e-10
2.28069e-10
1.31866e-10
4.73285e-11
3.81415e-11
3.49078e-11
2.77542e-11
1.9439e-11
1.045e-11
3.86202e-12
7.87935e-13
4.71854e-14
-8.78101e-15
-9.97654e-15
-8.08993e-15
-5.49364e-15
-3.30258e-15
-1.80928e-15
-9.34176e-16
-4.70879e-16
-2.40755e-16
7.58879e-11
7.60041e-11
1.69035e-10
1.72216e-10
9.7733e-11
5.30343e-11
5.01481e-11
4.82729e-11
3.94158e-11
2.83934e-11
1.5699e-11
5.52858e-12
9.08865e-13
4.70006e-14
-1.15087e-15
-3.57264e-15
-3.09471e-15
-2.10423e-15
-1.22909e-15
-6.43079e-16
-3.16281e-16
-1.53817e-16
-7.53955e-17
8.24122e-11
5.58196e-11
7.2724e-11
6.21257e-11
5.70338e-11
5.29902e-11
5.33659e-11
5.45796e-11
4.80286e-11
3.51231e-11
1.94274e-11
6.24512e-12
8.76853e-13
3.26361e-14
0
-1.23253e-15
-1.13764e-15
-7.6761e-16
-4.33202e-16
-2.17014e-16
-1.0212e-16
-4.75645e-17
-2.24036e-17
2.10192e-10
5.08475e-11
5.08237e-11
5.08104e-11
5.0798e-11
5.21449e-11
5.31676e-11
5.50412e-11
5.08142e-11
3.78229e-11
2.04961e-11
6.1979e-12
6.97917e-13
1.38846e-14
7.65855e-18
-4.2555e-16
-4.07514e-16
-2.69502e-16
-1.45901e-16
-6.96127e-17
-3.11629e-17
-1.39246e-17
-6.30987e-18
6.78468e-10
5.08507e-11
5.08478e-11
5.08113e-11
5.07856e-11
5.07856e-11
5.084e-11
5.48374e-11
5.07769e-11
3.78623e-11
2.01478e-11
5.48894e-12
4.20613e-13
4.07792e-15
2.36515e-18
-1.49515e-16
-1.43749e-16
-9.17014e-17
-4.70843e-17
-2.11831e-17
-8.91145e-18
-3.79745e-18
-1.62111e-18
6.78137e-10
5.6439e-08
5.19775e-07
7.56287e-07
1.23807e-07
9.7392e-11
5.05022e-11
5.38323e-11
4.96781e-11
3.65203e-11
1.80708e-11
3.93708e-12
1.89798e-13
9.44763e-16
2.9844e-19
-5.3994e-17
-5.01906e-17
-3.02932e-17
-1.4523e-17
-6.0471e-18
-2.34328e-18
-9.36374e-19
-3.71168e-19
6.78689e-10
1.92171e-07
8.27526e-07
8.27609e-07
5.52953e-07
5.74335e-09
4.96152e-11
5.14755e-11
4.66662e-11
3.24832e-11
1.38567e-11
2.181e-12
6.19291e-14
1.55092e-16
1.05397e-20
-2.01504e-17
-1.73268e-17
-9.6735e-18
-4.24492e-18
-1.59673e-18
-5.59083e-19
-2.0532e-19
-7.43221e-20
6.79518e-10
1.59095e-07
8.27608e-07
8.27595e-07
4.92098e-07
3.12923e-09
4.84498e-11
4.84693e-11
4.15908e-11
2.58815e-11
8.72887e-12
8.84629e-13
1.30417e-14
1.45508e-17
-1.89692e-18
-7.7618e-18
-5.87773e-18
-2.96344e-18
-1.16346e-18
-3.84701e-19
-1.18616e-19
-3.91801e-20
-1.27155e-20
6.8021e-10
3.70274e-08
5.21115e-07
6.25543e-07
1.35052e-07
3.48547e-10
4.83263e-11
4.52152e-11
3.42113e-11
1.77566e-11
4.234e-12
2.35001e-13
1.48441e-15
6.59787e-19
-1.82755e-18
-2.98706e-18
-1.94662e-18
-8.66197e-19
-2.9661e-19
-8.3608e-20
-2.1968e-20
-6.35757e-21
-1.80927e-21
2.16785e-09
2.00004e-09
1.05622e-08
2.34689e-08
6.6828e-10
1.21255e-10
6.38982e-11
4.15744e-11
2.4843e-11
9.68569e-12
1.38522e-12
3.40329e-14
7.48223e-17
8.65286e-21
-1.02288e-18
-1.13202e-18
-6.29162e-19
-2.41788e-19
-7.02816e-20
-1.63194e-20
-3.5085e-21
-8.57588e-22
-2.0765e-22
2.57766e-09
1.72449e-09
5.77086e-10
2.22655e-10
1.29131e-10
1.2476e-10
7.04365e-11
3.45274e-11
1.48054e-11
3.63624e-12
2.4637e-13
2.11081e-15
1.37064e-18
-4.102e-20
-5.0187e-19
-4.24342e-19
-1.99596e-19
-6.49763e-20
-1.56109e-20
-2.87859e-21
-4.79638e-22
-9.39773e-23
-1.85286e-23
1.67239e-09
1.68289e-09
1.03275e-09
5.0054e-10
2.79938e-10
1.53691e-10
6.57555e-11
2.32763e-11
6.20711e-12
7.41011e-13
1.78339e-14
4.38125e-17
6.83453e-21
-1.15727e-19
-2.35479e-19
-1.58111e-19
-6.27794e-20
-1.70981e-20
-3.32796e-21
-4.72178e-22
-5.70588e-23
-8.24837e-24
-1.22913e-24
1.50661e-10
8.34317e-10
9.78159e-10
7.01257e-10
3.95803e-10
1.68032e-10
5.37048e-11
1.16853e-11
1.45833e-12
5.94534e-14
3.84776e-16
2.61846e-19
2.04358e-24
-8.81516e-20
-1.06515e-19
-5.87319e-20
-1.98024e-20
-4.5032e-21
-7.0415e-22
-7.53841e-23
-6.16547e-24
-5.76582e-25
-5.65798e-26
-1.91755e-26
1.12195e-10
5.34709e-10
5.6087e-10
3.63559e-10
1.52181e-10
3.6549e-11
4.02605e-12
1.5293e-13
1.38032e-15
2.11334e-18
3.42087e-22
-1.90457e-20
-5.29142e-20
-4.67897e-20
-2.18093e-20
-6.3285e-21
-1.21323e-21
-1.53245e-22
-1.22998e-23
-6.41199e-25
-3.19551e-26
-1.57637e-27
-6.61608e-27
2.28718e-12
9.38216e-11
1.95266e-10
1.60394e-10
7.22764e-11
1.26953e-11
5.89886e-13
4.77613e-15
6.74163e-18
2.89738e-21
-1.91484e-21
-1.76772e-20
-2.8299e-20
-2.00885e-20
-8.12223e-21
-2.06872e-21
-3.42315e-22
-3.59992e-23
-2.23795e-24
-7.3285e-26
-1.4125e-27
-1.6862e-29
0.999998
0.999998
0.999998
0.999998
0.964371
0.964831
0.965781
0.967298
0.305626
0.305577
0.30617
0.307868
0.000527383
0.000522136
0.000524272
0.000566
0.000517776
0.000513964
0.00051216
0.000528844
0.000544277
0.000544033
0.000506194
0.000536141
0.000162789
0.000119944
0.000147559
0.000179642
4.63974e-09
4.36813e-09
4.86686e-09
4.97897e-09
3.95728e-09
3.84316e-09
4.37984e-09
4.64542e-09
3.44366e-09
3.55993e-09
5.13734e-09
2.13769e-06
3.29705e-09
3.30604e-09
4.29916e-07
1.33461e-05
3.29234e-09
3.29705e-09
2.15185e-07
1.06468e-05
3.29074e-09
3.29306e-09
4.49699e-09
2.68259e-08
2.8345e-09
5.63432e-09
1.07691e-08
7.33013e-09
1.58307e-09
1.56545e-08
4.26883e-08
4.26902e-08
1.58307e-09
1.68522e-09
1.31905e-08
2.93559e-08
1.73284e-09
1.31774e-09
6.79545e-11
5.10457e-13
2.12027e-10
6.21834e-11
4.89574e-13
4.65962e-13
4.74132e-13
3.1437e-13
5.35218e-13
4.6632e-13
2.66021e-13
2.74557e-13
2.62554e-13
2.04739e-13
1.01592e-15
5.8557e-15
6.63029e-15
5.69991e-15
-1.84172e-14
-1.44219e-14
-1.13424e-14
-8.9849e-15
-1.61354e-14
-1.28918e-14
-1.04425e-14
-8.53983e-15
-8.99876e-15
-6.97791e-15
-5.48294e-15
-4.40301e-15
-4.02378e-15
-3.02367e-15
-2.26251e-15
-1.71412e-15
-1.52104e-15
-1.12816e-15
-8.24297e-16
-5.84904e-16
-5.13344e-16
-3.71447e-16
-2.69136e-16
-1.87574e-16
-1.64326e-16
-1.14621e-16
-7.99134e-17
-5.47191e-17
-5.06916e-17
-3.41688e-17
-2.28352e-17
-1.50824e-17
-1.46914e-17
-9.60175e-18
-6.18752e-18
-3.9261e-18
-3.99541e-18
-2.51047e-18
-1.55198e-18
-9.42287e-19
-9.80906e-19
-5.87538e-19
-3.45886e-19
-1.99743e-19
-2.12564e-19
-1.20188e-19
-6.6693e-20
-3.62563e-20
-3.97846e-20
-2.09705e-20
-1.08266e-20
-5.46668e-21
-6.26556e-21
-3.03113e-21
-1.43261e-21
-6.60726e-22
-8.0473e-22
-3.50212e-22
-1.48418e-22
-6.11996e-23
-8.1146e-23
-3.09104e-23
-1.14216e-23
-4.09177e-24
-6.11108e-24
-1.95758e-24
-6.05718e-25
-1.81006e-25
-3.19599e-25
-8.06232e-26
-1.95915e-26
-4.58513e-27
-1.01724e-26
-1.78769e-27
-3.03917e-28
-4.99138e-29
-1.45912e-28
-1.3513e-29
-1.24145e-30
-1.12807e-31
-3.16491e-31
-5.90141e-33
-1.14515e-34
-2.38052e-36
0.999998
0.999998
0.999998
0.999998
0.998682
0.994503
0.993278
0.995855
0.99778
0.995914
0.977508
0.970313
0.970309
0.987652
0.997985
0.997989
0.988633
0.991934
0.998436
0.970405
0.968771
0.966773
0.965787
0.965347
0.964785
0.962285
0.960405
0.970383
0.989283
0.991769
0.991771
0.991749
0.991666
0.990668
0.988636
0.987896
0.986557
0.98278
0.31251
0.316067
0.320072
0.324777
0.332512
0.342664
0.353366
0.361598
0.365156
0.370516
0.389797
0.403426
0.409338
0.406008
0.396685
0.395703
0.402171
0.399101
0.400583
0.000579041
0.000531244
0.000788212
0.00125195
0.00104352
0.000739325
0.000544603
0.000453746
0.000453186
0.000448772
0.000446713
0.000445187
0.000444007
0.000445187
0.000446422
0.000448201
0.000449639
0.00045126
0.000452779
0.000572002
0.000513551
0.000740782
0.00125142
0.00124774
0.00123015
0.00124133
0.00124355
0.00124364
0.00124355
0.00124295
0.00106649
0.000442909
0.000846127
0.00102127
0.00102123
0.00102128
0.00102119
0.000906415
0.000543455
0.000505544
0.000567087
0.000447331
0.000529903
0.00047245
0.000415645
0.000385235
0.000373514
0.000324032
0.000199658
5.49386e-05
0.000249701
0.000371043
0.000389499
0.000446597
0.000466551
0.000472474
0.000443546
0.000165186
0.000179792
0.000132338
7.29652e-05
4.51388e-07
6.89241e-07
7.07428e-07
7.20872e-07
7.4769e-07
7.96228e-07
8.51317e-07
2.79528e-06
2.42353e-05
5.20022e-07
5.19808e-07
5.19808e-07
5.19808e-07
8.04488e-06
4.79564e-05
5.09853e-09
7.37709e-09
5.16515e-09
5.18334e-09
1.85458e-08
6.87932e-07
2.18721e-05
3.70581e-05
3.51526e-05
3.59942e-05
4.58534e-05
5.53486e-05
1.98516e-05
5.19975e-07
5.19808e-07
5.19808e-07
5.19808e-07
5.19808e-07
5.19808e-07
4.97897e-09
5.09853e-09
5.14932e-09
5.16515e-09
9.27356e-09
2.34494e-05
5.58835e-05
5.58877e-05
5.58573e-05
5.57857e-05
5.57048e-05
5.56526e-05
2.54112e-05
8.88913e-07
5.19812e-07
5.19808e-07
5.19808e-07
5.19808e-07
5.19808e-07
7.55073e-06
1.0528e-05
2.05024e-06
5.18334e-09
1.03799e-06
3.83229e-05
5.47383e-05
2.19205e-05
2.1033e-06
8.56303e-06
3.33841e-05
4.51632e-05
1.86899e-05
1.91377e-05
2.86715e-06
5.19809e-07
5.19808e-07
5.19808e-07
5.19808e-07
2.11326e-05
2.11327e-05
1.80301e-05
2.24229e-06
3.29569e-06
1.15372e-05
3.0632e-06
4.56869e-07
1.03495e-06
5.29723e-07
4.82482e-07
4.3391e-06
2.57549e-05
2.57557e-05
1.23301e-05
5.19808e-07
5.19808e-07
5.19949e-07
5.19949e-07
2.11326e-05
2.11317e-05
2.113e-05
2.06955e-05
7.04889e-07
1.96161e-09
1.96237e-09
4.74951e-07
2.08081e-06
2.01e-06
4.78644e-07
3.79908e-06
2.16649e-05
2.25906e-05
1.6015e-06
6.41086e-07
5.19808e-07
5.19808e-07
5.19808e-07
3.24966e-06
1.63949e-05
1.91744e-05
5.73586e-06
1.76541e-09
1.95896e-09
1.24853e-08
2.5518e-07
3.7957e-07
1.13786e-07
2.31011e-10
2.31026e-10
2.5036e-10
5.09789e-06
1.26746e-05
1.14835e-05
9.30833e-07
5.19808e-07
5.19808e-07
1.76135e-09
1.75962e-09
1.7583e-09
1.759e-09
1.76476e-09
7.20521e-09
1.23086e-08
2.30727e-10
2.30685e-10
2.30727e-10
2.30676e-10
2.31487e-10
1.55491e-07
7.85181e-06
1.26746e-05
1.26667e-05
1.26575e-05
6.73541e-06
1.58251e-06
3.69377e-08
6.2242e-09
5.75172e-09
1.7584e-09
1.76751e-09
2.30776e-09
3.94904e-09
1.46977e-09
3.33091e-10
2.3529e-10
6.19823e-10
7.30462e-10
9.08679e-10
3.63832e-08
3.53747e-06
5.85741e-06
3.77334e-06
2.74074e-06
2.61401e-06
7.11338e-08
1.74271e-07
1.9658e-07
1.12552e-07
1.81692e-08
2.06327e-10
2.06327e-10
2.06326e-10
3.46636e-10
6.8422e-10
1.00777e-09
1.63264e-09
1.32658e-09
2.06468e-11
2.06461e-11
2.06572e-11
2.62763e-11
4.15776e-07
4.30962e-06
2.04089e-08
2.3062e-07
2.52529e-07
2.52529e-07
2.10434e-07
1.17035e-08
2.06323e-10
5.2989e-09
1.78931e-08
1.13893e-08
7.1739e-11
7.17213e-11
4.64012e-11
4.463e-11
3.13872e-11
1.58298e-10
4.66056e-07
9.23253e-06
1.34406e-05
4.45845e-14
3.12435e-08
2.11148e-07
2.52519e-07
2.52466e-07
1.10213e-07
2.09465e-10
2.80082e-08
6.95824e-08
6.3968e-08
8.37148e-09
4.82906e-11
7.9887e-11
1.06182e-10
6.27942e-11
7.07249e-11
2.65463e-06
1.34404e-05
1.34407e-05
4.44051e-14
3.48764e-15
6.61744e-27
7.24119e-08
1.1907e-07
1.94891e-08
3.06187e-09
4.61086e-08
6.95836e-08
6.95777e-08
4.86926e-08
4.82124e-11
4.81946e-11
7.997e-11
4.49084e-11
4.62824e-12
1.08819e-06
9.6586e-06
1.34178e-05
9.79485e-14
6.96568e-15
-7.11201e-18
-6.16298e-36
2.3019e-20
1.17528e-16
5.05777e-10
1.82708e-08
4.94809e-08
5.45505e-08
1.45639e-08
8.15492e-10
3.96167e-11
3.78194e-11
1.45756e-11
4.59421e-12
1.3895e-08
1.11133e-12
2.46917e-06
2.79383e-15
3.13448e-16
-1.60982e-16
-1.66054e-16
2.42394e-16
2.42519e-16
2.49803e-16
2.73063e-16
3.14142e-16
3.84433e-16
4.84124e-16
1.30766e-11
1.22213e-10
1.70458e-11
4.49928e-12
1.89196e-12
1.11133e-12
1.11133e-12
1.11133e-12
-7.12669e-15
-3.69016e-15
-1.84828e-15
-4.74897e-16
1.52541e-15
1.94132e-14
4.61093e-14
7.14599e-14
1.15844e-13
1.42508e-13
1.68904e-13
5.93826e-13
1.35523e-12
1.62164e-12
1.12746e-12
1.24768e-12
1.11153e-12
1.11224e-12
1.11179e-12
-6.95341e-15
-4.12003e-15
-2.38161e-15
-1.30179e-15
-5.92736e-16
-4.12833e-19
1.15501e-15
3.95385e-14
1.88883e-13
2.76114e-13
3.11564e-13
8.10758e-13
1.19739e-12
4.56054e-13
2.44859e-13
8.61316e-13
1.27619e-12
1.118e-12
1.11525e-12
-3.56679e-15
-2.18259e-15
-1.3184e-15
-7.84892e-16
-4.55752e-16
-2.51046e-16
-1.14166e-16
-1.22673e-18
1.48898e-15
1.56695e-14
3.24341e-14
7.51454e-14
2.66438e-13
8.53465e-14
7.0051e-14
6.92337e-13
2.00147e-12
1.1181e-12
3.86904e-08
-1.32685e-15
-7.97145e-16
-4.76415e-16
-2.82933e-16
-1.66685e-16
-9.90179e-17
-5.76708e-17
-2.98252e-17
-3.50663e-18
4.10975e-17
2.64165e-16
8.42959e-16
2.18756e-15
5.51264e-15
2.44552e-14
6.57428e-13
2.71041e-12
1.1185e-12
1.63614e-06
-4.01803e-16
-2.32258e-16
-1.33345e-16
-7.67842e-17
-4.47651e-17
-2.63301e-17
-1.53349e-17
-8.36993e-18
-3.26587e-18
1.94284e-18
2.04723e-17
1.02933e-16
5.26007e-16
2.59442e-15
1.86517e-14
6.7948e-13
3.0443e-12
1.12076e-12
2.38223e-06
-1.06097e-16
-5.78833e-17
-3.21555e-17
-1.81326e-17
-1.02762e-17
-5.74947e-18
-3.03549e-18
-1.42389e-18
0
1.98404e-18
1.48935e-17
7.71385e-17
4.12363e-16
2.15611e-15
1.76501e-14
7.03272e-13
3.10498e-12
1.1218e-12
2.38224e-06
-2.68417e-17
-1.33394e-17
-6.82388e-18
-3.56594e-18
-1.85548e-18
-8.52316e-19
1.92593e-37
3.21031e-19
1.93379e-18
8.40877e-18
2.44997e-17
8.327e-17
4.01959e-16
2.09564e-15
1.88466e-14
6.81728e-13
3.10422e-12
1.12233e-12
2.38203e-06
-6.60223e-18
-2.91099e-18
-1.31775e-18
-6.01543e-19
-2.01803e-19
1.36867e-19
1.67072e-18
1.05058e-17
4.0435e-17
1.16093e-16
2.55434e-16
4.81266e-16
1.1983e-15
4.95472e-15
4.42518e-14
6.49999e-13
3.12299e-12
1.12314e-12
9.70948e-07
-1.5813e-18
-6.27359e-19
-2.49653e-19
-8.4886e-20
1.46378e-19
2.70169e-18
1.72953e-17
8.31502e-17
3.13337e-16
9.21984e-16
2.08124e-15
4.50265e-15
1.30853e-14
5.2075e-14
2.17997e-13
9.69991e-13
3.6029e-12
1.27493e-12
1.27504e-12
-3.5248e-19
-1.27969e-19
-4.48465e-20
5.98184e-21
8.78621e-19
1.10097e-17
8.38505e-17
4.31417e-16
1.72674e-15
5.72854e-15
1.70782e-14
5.73457e-14
1.87131e-13
5.59391e-13
1.28633e-12
2.61968e-12
4.92669e-12
1.27504e-12
2.53271e-07
-6.91755e-20
-2.30825e-20
-6.5767e-21
5.75842e-20
1.8528e-18
3.2319e-17
3.3118e-16
1.94908e-15
9.44346e-15
4.29426e-14
2.15294e-13
9.58447e-13
2.6053e-12
4.98903e-12
6.45307e-12
7.99292e-12
7.90665e-12
1.27539e-12
2.36712e-06
-1.1484e-20
-3.48515e-21
-2.85392e-22
7.12885e-20
3.08959e-18
7.15944e-17
1.02835e-15
8.4448e-15
5.89323e-14
3.66796e-13
2.13952e-12
8.35548e-12
1.84212e-11
2.59911e-11
2.43692e-11
2.39323e-11
2.1347e-11
1.4341e-12
2.50818e-06
-1.55718e-21
-4.20364e-22
4.86441e-22
7.51686e-20
4.00831e-18
1.1526e-16
2.31233e-15
3.09819e-14
2.88931e-13
1.93515e-12
9.77384e-12
3.13187e-11
5.83813e-11
6.89034e-11
6.25481e-11
5.98084e-11
6.96203e-11
1.43052e-12
2.50816e-06
-1.65861e-22
-3.80073e-23
3.50934e-22
6.55431e-20
4.30998e-18
1.4073e-16
3.66297e-15
7.70231e-14
8.03679e-13
5.13352e-12
2.16788e-11
6.03975e-11
9.78006e-11
1.04617e-10
1.07338e-10
1.26167e-10
1.80771e-10
1.44004e-12
2.50809e-06
-1.32089e-23
-2.12644e-24
1.47645e-22
3.44792e-20
3.86894e-18
1.44827e-16
4.30022e-15
1.2276e-13
1.30324e-12
7.82712e-12
2.91546e-11
7.44271e-11
1.11196e-10
1.13308e-10
1.38878e-10
3.77194e-10
4.71734e-10
1.48422e-12
2.50755e-06
-7.35782e-25
4.2678e-26
5.80098e-23
1.37769e-20
1.95811e-18
9.98427e-17
4.22223e-15
1.40432e-13
1.48253e-12
8.61589e-12
3.02788e-11
7.18732e-11
1.05987e-10
8.35751e-11
1.57341e-10
2.38713e-09
2.18778e-09
1.62886e-12
1.3198e-06
-2.59782e-26
4.08888e-26
1.58447e-23
4.66331e-21
6.87564e-19
3.53091e-17
2.216e-15
1.25488e-13
1.29004e-12
6.81684e-12
1.98188e-11
3.40398e-11
6.31309e-11
2.24183e-11
1.80449e-10
6.72888e-09
6.62292e-09
2.35257e-12
8.30953e-07
-4.92305e-28
7.49429e-27
2.55999e-24
1.06893e-21
1.85777e-19
8.83897e-18
5.48065e-16
4.91448e-14
4.80123e-13
2.24194e-12
5.46074e-12
8.45468e-12
1.50908e-11
4.09784e-16
2.65491e-10
8.33915e-09
8.33769e-09
4.86238e-12
1.08348e-06
-3.55049e-30
6.36199e-28
2.16214e-25
1.35595e-22
2.9222e-20
1.51157e-18
8.1401e-17
8.51764e-15
7.93365e-14
3.4267e-13
7.61561e-13
1.17397e-12
1.88028e-12
1.40349e-17
2.15739e-10
4.71032e-09
6.0476e-09
5.67122e-09
1.08778e-06
-4.44226e-33
3.81598e-32
3.90662e-27
8.04615e-24
1.86558e-21
1.12263e-19
6.31992e-18
6.51891e-16
5.76065e-15
2.32163e-14
4.9104e-14
7.61682e-14
1.04907e-13
1.95903e-19
4.49691e-11
3.85386e-10
8.60711e-10
1.87501e-24
1.08748e-06
-2.28385e-38
-2.28574e-40
9.50371e-35
2.0758e-29
5.80322e-26
2.13071e-23
5.70651e-21
6.32413e-19
4.32371e-18
1.69e-17
3.65539e-17
5.50631e-17
2.48909e-17
1.9483e-19
2.40241e-13
0
-1.54074e-36
0
9.78826e-07
)
;

boundaryField
{
    leftWall
    {
        type            zeroGradient;
    }
    rightWall
    {
        type            zeroGradient;
    }
    lowerWall
    {
        type            zeroGradient;
    }
    atmosphere
    {
        type            inletOutlet;
        inletValue      uniform 0;
        value           nonuniform List<scalar> 
46
(
0
2.28718e-12
9.38216e-11
1.95266e-10
1.60394e-10
7.22764e-11
1.26953e-11
5.89886e-13
4.77613e-15
6.74163e-18
2.89738e-21
-1.91484e-21
-1.76772e-20
-2.8299e-20
-2.00885e-20
-8.12223e-21
-2.06872e-21
-3.42315e-22
-3.59992e-23
-2.23795e-24
-7.3285e-26
0
0
0
0
0
0
0
0
0
0
0
0
0
0
0
0
0
0
0
0
0
0
0
0
9.78826e-07
)
;
    }
    defaultFaces
    {
        type            empty;
    }
}


// ************************************************************************* //
