/*--------------------------------*- C++ -*----------------------------------*\
  =========                 |
  \\      /  F ield         | OpenFOAM: The Open Source CFD Toolbox
   \\    /   O peration     | Website:  https://openfoam.org
    \\  /    A nd           | Version:  9
     \\/     M anipulation  |
\*---------------------------------------------------------------------------*/
FoamFile
{
    format      ascii;
    class       volScalarField;
    location    "255";
    object      nut;
}
// * * * * * * * * * * * * * * * * * * * * * * * * * * * * * * * * * * * * * //

dimensions      [0 2 -1 0 0 0 0];

internalField   nonuniform List<scalar> 
12225
(
4.14967e-05
3.93417e-05
3.7484e-05
3.54322e-05
3.37851e-05
3.24195e-05
3.15112e-05
3.0911e-05
3.09172e-05
3.10978e-05
3.15678e-05
3.21103e-05
3.31408e-05
3.38114e-05
3.51064e-05
3.56989e-05
3.73272e-05
3.67466e-05
0.000332325
0.000215226
0.000179278
0.000157685
0.000146205
0.000138218
0.000132753
0.000131636
0.000129524
0.000130048
0.000129062
0.000129425
0.000128671
0.000128546
0.000128084
0.000127414
0.000127382
0.000126514
0.000674951
0.000450852
0.000355774
0.000309845
0.000275284
0.000251105
0.000231709
0.00021728
0.000202691
0.000192115
0.000182634
0.000175208
0.000169388
0.00016369
0.000160308
0.000155591
0.000153816
0.000149911
0.000833603
0.000684918
0.00057198
0.000499974
0.000449458
0.000411958
0.000380778
0.000356003
0.000334016
0.000314786
0.000298339
0.000281726
0.00027032
0.000256094
0.000248222
0.000236204
0.000230439
0.000220523
0.00086125
0.000802529
0.000742126
0.000676584
0.000624
0.000581376
0.000545874
0.000514558
0.000489527
0.000464437
0.000445872
0.000424089
0.000409955
0.000390834
0.000379919
0.000363149
0.000354536
0.000339617
0.000854978
0.000840347
0.000822204
0.000786495
0.000750864
0.000715899
0.000685765
0.000656134
0.000632555
0.000607525
0.000589007
0.000567264
0.000552301
0.000533128
0.000520815
0.000503791
0.000493372
0.000477599
0.000852907
0.000850685
0.000844239
0.000832828
0.000817412
0.000797
0.000777889
0.000756739
0.000738904
0.000719153
0.000703541
0.000685635
0.000672138
0.000655949
0.000644335
0.000629582
0.000619568
0.000605249
0.000851922
0.000851813
0.000850172
0.000847395
0.000841453
0.000833728
0.000824897
0.000813418
0.00080281
0.000790475
0.00077972
0.00076755
0.000757436
0.000745802
0.000736561
0.000725565
0.000717196
0.000706109
0.000851751
0.000851542
0.000851034
0.000850339
0.000848881
0.000846168
0.000843034
0.000838306
0.000833403
0.000827363
0.00082122
0.000814778
0.000808416
0.000801537
0.000795255
0.000788439
0.000782199
0.000775303
0.000851769
0.000851389
0.000851046
0.000850633
0.000850248
0.000849368
0.000848405
0.000846781
0.000844956
0.000842531
0.000839925
0.000836802
0.000833798
0.000830159
0.000826978
0.000822938
0.000819914
0.00081532
0.000851787
0.000851359
0.000851012
0.000850613
0.000850329
0.000849905
0.000849526
0.000848929
0.000848303
0.000847394
0.000846466
0.000845178
0.000843992
0.000842354
0.000840999
0.000839037
0.000837646
0.000835371
0.000851789
0.000851359
0.000850995
0.000850605
0.000850292
0.000849938
0.000849646
0.00084928
0.000848955
0.000848505
0.000848099
0.000847508
0.000846998
0.000846245
0.000845643
0.000844723
0.00084406
0.00084298
0.000851786
0.000851363
0.000850985
0.000850604
0.000850269
0.000849926
0.00084963
0.000849313
0.000849042
0.000848729
0.000848462
0.000848126
0.000847844
0.000847466
0.000847157
0.000846727
0.000846387
0.000845903
0.000851783
0.000851364
0.000850978
0.000850602
0.000850256
0.000849916
0.000849607
0.0008493
0.000849022
0.00084874
0.000848488
0.000848224
0.000847989
0.000847735
0.000847508
0.000847258
0.000847033
0.000846783
0.000851781
0.000851364
0.000850972
0.000850598
0.000850246
0.000849908
0.000849591
0.000849286
0.000849
0.000848723
0.000848463
0.000848211
0.000847975
0.000847744
0.000847527
0.000847315
0.000847114
0.000846918
0.00085178
0.000851363
0.000850969
0.000850594
0.000850239
0.000849901
0.00084958
0.000849274
0.000848984
0.000848707
0.000848443
0.000848191
0.000847951
0.000847721
0.000847502
0.000847292
0.000847092
0.0008469
0.000851779
0.000851362
0.000850967
0.000850591
0.000850234
0.000849894
0.000849572
0.000849265
0.000848973
0.000848694
0.000848428
0.000848174
0.000847932
0.000847701
0.00084748
0.000847268
0.000847066
0.000846873
0.000851779
0.000851362
0.000850965
0.000850588
0.000850231
0.00084989
0.000849567
0.000849258
0.000848965
0.000848685
0.000848418
0.000848163
0.000847919
0.000847686
0.000847464
0.000847251
0.000847047
0.000846853
0.000851779
0.000851362
0.000850965
0.000850588
0.000850229
0.000849889
0.000849565
0.000849256
0.000848962
0.000848681
0.000848413
0.000848157
0.000847913
0.000847679
0.000847456
0.000847242
0.000847038
0.000846842
0.000851779
0.000851362
0.000850965
0.000850589
0.000850231
0.000849891
0.000849567
0.000849259
0.000848965
0.000848685
0.000848417
0.000848161
0.000847916
0.000847683
0.000847459
0.000847245
0.00084704
0.000846843
0.000851779
0.000851363
0.000850967
0.000850592
0.000850235
0.000849896
0.000849573
0.000849266
0.000848972
0.000848693
0.000848423
0.000848168
0.000847919
0.000847682
0.00084745
0.00084723
0.000847011
0.000846805
0.000851778
0.000851366
0.000850968
0.000850599
0.00085024
0.000849907
0.00084958
0.000849274
0.000848964
0.000848671
0.000848364
0.000848071
0.000847755
0.000847455
0.000847122
0.00084681
0.000846456
0.000846135
0.000851777
0.000851374
0.000850971
0.000850615
0.00085024
0.000849889
0.000849478
0.000849054
0.000848529
0.000847978
0.0008473
0.000846604
0.000845766
0.000844938
0.000843953
0.000843028
0.000841916
0.000840937
0.000851802
0.00085141
0.00085097
0.000850549
0.000849861
0.000848967
0.000847607
0.000845979
0.000843903
0.000841634
0.000838953
0.000836213
0.000833114
0.000830111
0.00082676
0.000823677
0.00082018
0.000817174
0.000852138
0.000851403
0.000850234
0.000848252
0.000844472
0.000839355
0.000832711
0.000825762
0.000817912
0.000809998
0.000801613
0.000793624
0.000785327
0.000777702
0.000769738
0.000762694
0.000755117
0.000748787
0.000854142
0.000847718
0.000840125
0.000827122
0.000808707
0.000789646
0.000769971
0.000751415
0.000733301
0.000716891
0.000700929
0.000686775
0.000672823
0.000660664
0.00064837
0.000637932
0.000626944
0.000618011
0.00085497
0.000818336
0.000776229
0.000726634
0.000684937
0.000649856
0.000618458
0.000592019
0.000568377
0.000548307
0.000529683
0.000513987
0.000498742
0.000486009
0.000473194
0.0004627
0.000451613
0.000442796
0.000807487
0.000666879
0.000570551
0.000509854
0.000465647
0.000431192
0.000404131
0.000382498
0.000364191
0.000349063
0.000335936
0.000325073
0.000314474
0.000306242
0.000297957
0.000291362
0.000284275
0.000278925
0.000501854
0.000348404
0.00029269
0.000259174
0.000236321
0.000221177
0.000211543
0.000204014
0.000198479
0.000195058
0.000192217
0.000190367
0.000188581
0.000187438
0.000186163
0.000185473
0.000184553
0.000184142
7.27285e-05
7.02231e-05
6.79539e-05
6.56136e-05
6.33827e-05
6.12765e-05
5.94929e-05
5.79573e-05
5.67103e-05
5.5703e-05
5.49775e-05
5.44184e-05
5.41085e-05
5.38872e-05
5.38765e-05
5.3962e-05
5.40716e-05
5.43222e-05
2.11039e-07
5.44835e-06
1.00825e-05
1.42422e-05
1.8425e-05
2.31254e-05
2.855e-05
3.48782e-05
4.21422e-05
5.02257e-05
5.89389e-05
6.80754e-05
7.7455e-05
8.69291e-05
9.6384e-05
0.000105729
0.000114892
0.000123801
0.000132377
0.000140511
0.000148048
0.000154766
0.000160365
0.000164452
0.000166543
0.000166059
0.000162287
0.000154199
0.000140649
2.8525e-05
2.96188e-05
3.15109e-05
3.33176e-05
3.74821e-05
4.41725e-05
0.000231679
0.000230759
0.000220074
0.000219785
0.000203473
4.58736e-05
4.85451e-05
4.90822e-05
5.0374e-05
5.14903e-05
5.25998e-05
5.37311e-05
5.48399e-05
5.5958e-05
5.70657e-05
5.81744e-05
5.92775e-05
6.03788e-05
6.14762e-05
6.25709e-05
6.36621e-05
6.47503e-05
6.5835e-05
6.69165e-05
6.79943e-05
6.90684e-05
7.01386e-05
7.12046e-05
7.2266e-05
7.33227e-05
7.43741e-05
7.54201e-05
7.64601e-05
7.74937e-05
7.85205e-05
7.95401e-05
8.05518e-05
8.15553e-05
8.255e-05
8.35352e-05
8.45106e-05
8.54755e-05
8.64295e-05
8.73718e-05
8.8302e-05
8.92195e-05
9.01237e-05
9.10139e-05
9.18897e-05
9.27502e-05
9.3595e-05
9.44231e-05
9.52342e-05
9.60274e-05
9.68018e-05
9.7556e-05
9.82892e-05
9.9e-05
9.96873e-05
0.00010035
0.000100989
0.000101604
0.000102203
0.000102779
0.000103333
0.000103865
0.000104374
0.00010486
0.000105323
0.000105762
0.000106177
0.000106568
0.000106935
0.000107276
0.000107592
0.000107883
0.000108147
0.000108386
0.000108599
0.000108785
0.000108945
0.000109078
0.000109184
0.000109263
0.000109316
0.000109341
0.00010934
0.000109311
0.000109256
0.000109175
0.000109068
0.000108934
0.000108778
0.000108592
0.000108379
0.000108136
0.000107875
0.000107594
0.000107284
0.000106952
0.000106596
0.000106219
0.000105819
0.000105399
0.000104959
0.000104499
0.00010402
0.000103522
0.000103008
0.000102477
0.000101931
0.00010137
0.000100794
0.000100206
9.96062e-05
9.89949e-05
9.83732e-05
9.77422e-05
9.71024e-05
9.64551e-05
9.58008e-05
9.51405e-05
9.44747e-05
9.38046e-05
9.31307e-05
9.24545e-05
9.17778e-05
9.11128e-05
9.05702e-05
9.01806e-05
8.98087e-05
8.94399e-05
8.90723e-05
8.87058e-05
8.834e-05
8.79749e-05
8.76099e-05
8.72443e-05
8.68764e-05
8.65035e-05
8.612e-05
8.57147e-05
8.526e-05
8.46804e-05
8.28603e-05
1.06188e-06
2.71887e-05
6.05931e-05
8.35964e-05
9.82737e-05
0.000108491
0.00011707
0.000125554
0.000134637
0.000144494
0.000155034
0.000166059
0.000177349
0.00018871
0.000199974
0.000210998
0.000221643
0.000231752
0.000241121
0.000249464
0.00025637
0.000261256
0.000263343
0.000261647
0.00025505
0.000242473
0.00022321
0.000197468
0.000167081
0.000135927
0.000142491
0.000155414
0.000173874
0.000200999
0.000242277
0.000307852
0.000293062
0.000282901
0.000287909
0.000267269
0.000255896
0.000266501
0.00027217
0.000279813
0.000287361
0.000295191
0.00030305
0.000311077
0.000319187
0.000327401
0.000335697
0.000344077
0.000352536
0.000361074
0.00036969
0.000378385
0.000387161
0.000396018
0.000404958
0.000413981
0.000423089
0.000432282
0.000441561
0.000450925
0.000460374
0.000469908
0.000479525
0.000489224
0.000499003
0.000508859
0.00051879
0.000528791
0.000538861
0.000548994
0.000559186
0.000569433
0.000579729
0.000590068
0.000600447
0.000610858
0.000621297
0.000631757
0.000642233
0.000652718
0.000663209
0.000673697
0.000684179
0.000694649
0.000705102
0.000715532
0.000725932
0.000736289
0.000746584
0.000756783
0.000766828
0.000776614
0.000785968
0.000794588
0.000803089
0.000811453
0.000819689
0.000827788
0.000835747
0.000843557
0.000851213
0.000858708
0.000866035
0.000873188
0.00088016
0.000886945
0.000893538
0.000899931
0.00090612
0.000912099
0.000917861
0.000923403
0.000928719
0.000933805
0.000938655
0.000943265
0.000947633
0.000951754
0.000955627
0.000959249
0.000962621
0.000965745
0.00096862
0.000971232
0.000973674
0.00097585
0.000977576
0.000979023
0.000980437
0.000981534
0.000982369
0.00098296
0.00098331
0.000983424
0.000983307
0.000982961
0.000982391
0.000981601
0.000980604
0.000979406
0.000978014
0.000976436
0.000974679
0.000972751
0.000970662
0.000968419
0.000966032
0.000963508
0.000960857
0.000958086
0.000955205
0.00095222
0.00094914
0.000945971
0.000942718
0.000939382
0.00093596
0.000932422
0.000928618
0.000923802
0.0009173
0.000910226
0.000902965
0.000895613
0.000888197
0.000880727
0.000873202
0.00086562
0.000857969
0.000850228
0.000842371
0.000834342
0.000825985
0.000817053
0.000805992
0.000776709
2.24851e-06
4.50544e-05
9.66394e-05
0.000135655
0.000163815
0.000184267
0.000199929
0.000213039
0.000225082
0.000236899
0.000248865
0.000261067
0.000273444
0.000285869
0.000298203
0.000310304
0.000322031
0.000333227
0.000343696
0.000353174
0.000361295
0.00036757
0.000371387
0.000372079
0.000369077
0.000362192
0.000351987
0.000340213
0.000330227
0.000327201
0.00034281
0.000365871
0.000393643
0.000424443
0.00045459
0.000476829
0.000483153
0.000490549
0.000499077
0.000504807
0.00051574
0.000531539
0.000546772
0.000562563
0.000578492
0.000594642
0.000610936
0.000627398
0.000644004
0.000660758
0.000677652
0.000694686
0.00071186
0.000729175
0.000746633
0.000764234
0.000781982
0.000799877
0.000817921
0.000836114
0.000854456
0.000872946
0.000891585
0.000910368
0.000929295
0.000948361
0.000967562
0.000986896
0.00100636
0.00102594
0.00104564
0.00106545
0.00108535
0.00110535
0.00112543
0.00114558
0.00116579
0.00118605
0.00120635
0.00122668
0.00124702
0.00126737
0.00128771
0.00130803
0.00132832
0.00134856
0.00136874
0.00138884
0.00140885
0.00142875
0.00144852
0.00146812
0.00148752
0.00150667
0.00152549
0.00154391
0.00156184
0.00157931
0.00159654
0.00161349
0.00163018
0.00164658
0.00166268
0.00167847
0.00169393
0.00170905
0.00172381
0.00173821
0.00175223
0.00176585
0.00177908
0.00179188
0.00180426
0.0018162
0.00182769
0.00183872
0.00184929
0.00185937
0.00186896
0.00187806
0.00188666
0.00189475
0.00190232
0.00190937
0.00191591
0.00192193
0.00192743
0.00193241
0.00193697
0.00194114
0.00194435
0.00194695
0.00194939
0.00195123
0.00195254
0.00195335
0.00195365
0.00195347
0.00195282
0.00195169
0.0019501
0.00194806
0.0019456
0.00194272
0.00193943
0.00193577
0.00193173
0.00192734
0.00192261
0.00191756
0.00191222
0.00190658
0.00190068
0.00189453
0.00188814
0.00188154
0.00187473
0.00186774
0.00186056
0.00185321
0.00184567
0.00183791
0.00182973
0.00182048
0.00180964
0.00179795
0.00178586
0.00177352
0.00176101
0.00174835
0.00173556
0.00172262
0.00170953
0.00169622
0.00168268
0.00166878
0.00165424
0.00163832
0.00161822
0.00157415
3.58534e-06
5.86126e-05
0.000124129
0.000175143
0.000212743
0.000240666
0.000262157
0.000279712
0.000295093
0.000309428
0.000323355
0.00033717
0.000350958
0.000364692
0.000378298
0.000391688
0.000404774
0.000417473
0.000429697
0.000441339
0.000452259
0.000462269
0.000471142
0.000478646
0.000484637
0.000489219
0.000492962
0.000497123
0.00050373
0.000515253
0.000533504
0.000555547
0.000579558
0.000604001
0.000627119
0.000647407
0.000665003
0.000683042
0.000701011
0.000719799
0.000740417
0.000762458
0.000784741
0.000807277
0.000830005
0.000852933
0.000876047
0.000899349
0.000922834
0.000946502
0.000970353
0.000994387
0.00101861
0.00104301
0.00106761
0.0010924
0.00111739
0.00114258
0.00116796
0.00119354
0.00121931
0.00124528
0.00127144
0.00129779
0.00132431
0.00135102
0.00137789
0.00140493
0.00143212
0.00145946
0.00148693
0.00151452
0.00154223
0.00157004
0.00159793
0.00162589
0.00165391
0.00168197
0.00171006
0.00173815
0.00176624
0.0017943
0.00182232
0.00185028
0.00187816
0.00190594
0.0019336
0.00196112
0.00198847
0.00201563
0.00204256
0.00206924
0.00209562
0.00212165
0.00214729
0.00217247
0.00219719
0.00222149
0.00224544
0.00226903
0.00229223
0.00231503
0.0023374
0.00235935
0.00238083
0.00240184
0.00242236
0.00244237
0.00246186
0.0024808
0.00249918
0.00251699
0.0025342
0.00255081
0.00256681
0.00258216
0.00259687
0.00261093
0.00262431
0.002637
0.00264901
0.00266032
0.00267091
0.0026808
0.00268996
0.00269842
0.00270615
0.00271317
0.00271969
0.00272547
0.0027301
0.00273394
0.00273739
0.00274007
0.00274202
0.00274326
0.00274381
0.00274367
0.00274287
0.00274142
0.00273932
0.0027366
0.00273328
0.00272937
0.0027249
0.00271989
0.00271435
0.00270832
0.0027018
0.00269484
0.00268745
0.00267964
0.00267146
0.00266292
0.00265404
0.00264485
0.00263536
0.0026256
0.00261557
0.00260529
0.00259476
0.00258392
0.00257263
0.00256045
0.00254706
0.00253283
0.00251807
0.00250296
0.00248758
0.00247197
0.00245617
0.00244016
0.00242393
0.00240753
0.00239086
0.00237375
0.00235588
0.00233627
0.00231161
0.00226513
4.9159e-06
7.00268e-05
0.000147136
0.000208043
0.000253906
0.000288407
0.000315079
0.000336655
0.000355124
0.000371841
0.000387653
0.000403036
0.000418221
0.000433288
0.000448246
0.000463069
0.000477736
0.000492232
0.000506562
0.000520738
0.000534779
0.000548697
0.00056249
0.000576151
0.000589687
0.000603176
0.000616856
0.00063122
0.000647042
0.000665117
0.000685728
0.000708252
0.000732112
0.000756754
0.000781581
0.00080626
0.000830918
0.000856082
0.000881626
0.000907476
0.000934162
0.000961424
0.000988936
0.00101668
0.00104463
0.00107279
0.00110117
0.00112977
0.00115858
0.00118761
0.00121685
0.00124631
0.00127598
0.00130587
0.00133597
0.00136631
0.00139688
0.00142767
0.00145869
0.00148994
0.0015214
0.00155308
0.00158498
0.00161708
0.00164938
0.00168187
0.00171454
0.00174738
0.00178038
0.00181353
0.00184681
0.00188021
0.00191371
0.00194731
0.00198097
0.00201468
0.00204844
0.00208221
0.00211597
0.00214972
0.00218342
0.00221706
0.00225062
0.00228407
0.00231739
0.00235056
0.00238356
0.00241635
0.00244892
0.00248123
0.00251325
0.00254496
0.00257631
0.00260728
0.00263784
0.00266798
0.00269769
0.00272697
0.00275582
0.00278423
0.00281219
0.00283967
0.00286665
0.0028931
0.00291902
0.00294438
0.00296915
0.00299333
0.00301688
0.00303979
0.00306205
0.00308362
0.00310451
0.00312468
0.00314412
0.00316282
0.00318076
0.00319793
0.00321431
0.00322988
0.00324464
0.00325858
0.00327169
0.00328395
0.00329537
0.00330594
0.00331566
0.00332459
0.00333293
0.0033402
0.00334629
0.00335152
0.00335613
0.00335985
0.00336271
0.00336472
0.0033659
0.00336627
0.00336583
0.00336461
0.00336261
0.00335987
0.00335639
0.00335221
0.00334735
0.00334182
0.00333566
0.00332889
0.00332153
0.00331362
0.00330518
0.00329624
0.00328683
0.00327697
0.00326669
0.00325602
0.00324498
0.00323359
0.00322188
0.00320986
0.00319752
0.00318483
0.0031717
0.00315786
0.00314313
0.00312766
0.00311163
0.00309519
0.00307843
0.00306139
0.00304409
0.00302656
0.00300877
0.00299071
0.00297234
0.00295354
0.00293398
0.00291267
0.00288633
0.00284248
6.17888e-06
7.95997e-05
0.000166431
0.000235861
0.000289095
0.000329602
0.000361095
0.000386487
0.000407952
0.000427027
0.000444742
0.000461739
0.000478385
0.000494875
0.000511301
0.000527707
0.000544122
0.000560581
0.000577136
0.000593854
0.000610815
0.000628105
0.000645804
0.000663981
0.000682691
0.00070199
0.000721958
0.000742735
0.00076454
0.000787585
0.000811933
0.000837466
0.000864034
0.000891466
0.000919557
0.00094818
0.000977309
0.00100694
0.00103701
0.00106748
0.0010984
0.00112969
0.00116126
0.00119307
0.00122511
0.00125738
0.00128988
0.00132261
0.00135556
0.00138875
0.00142217
0.00145582
0.00148971
0.00152386
0.00155824
0.00159285
0.00162769
0.00166276
0.00169805
0.00173357
0.0017693
0.00180524
0.00184139
0.00187773
0.00191426
0.00195097
0.00198784
0.00202488
0.00206205
0.00209936
0.00213678
0.0021743
0.00221191
0.00224958
0.0022873
0.00232506
0.00236282
0.00240059
0.00243832
0.00247601
0.00251362
0.00255115
0.00258857
0.00262585
0.00266298
0.00269992
0.00273666
0.00277316
0.00280941
0.00284537
0.00288102
0.00291634
0.00295128
0.00298584
0.00301998
0.0030537
0.00308698
0.0031198
0.00315215
0.00318403
0.00321541
0.00324626
0.00327657
0.00330631
0.00333546
0.003364
0.00339191
0.00341917
0.00344575
0.00347164
0.00349681
0.00352125
0.00354493
0.00356785
0.00358997
0.00361129
0.00363178
0.00365143
0.00367022
0.00368814
0.00370517
0.00372131
0.00373654
0.00375084
0.00376423
0.00377668
0.00378819
0.00379895
0.00380888
0.00381768
0.00382521
0.00383189
0.00383776
0.00384266
0.0038466
0.00384961
0.0038517
0.00385287
0.00385315
0.00385255
0.00385109
0.00384878
0.00384565
0.00384173
0.00383703
0.00383158
0.00382541
0.00381855
0.00381102
0.00380286
0.00379409
0.00378474
0.00377485
0.00376445
0.00375356
0.00374221
0.00373044
0.00371827
0.00370571
0.0036928
0.00367952
0.00366588
0.0036518
0.00363715
0.00362181
0.00360582
0.00358932
0.00357238
0.00355508
0.00353748
0.00351959
0.00350145
0.00348305
0.00346439
0.00344545
0.00342613
0.00340615
0.00338458
0.00335855
0.00331904
7.33221e-06
8.75039e-05
0.000182432
0.000259251
0.000319102
0.000365165
0.000401236
0.000430347
0.000454807
0.000476301
0.000496011
0.000514723
0.000532939
0.000550959
0.000568961
0.000587053
0.000605311
0.000623803
0.000642602
0.000661792
0.000681466
0.000701718
0.00072264
0.000744308
0.000766782
0.000790101
0.000814289
0.000839369
0.000865371
0.000892324
0.000920221
0.000949019
0.00097866
0.00100908
0.00104018
0.00107191
0.0011042
0.00113699
0.00117023
0.00120387
0.00123787
0.0012722
0.00130682
0.00134169
0.00137681
0.00141216
0.00144774
0.00148355
0.00151959
0.00155585
0.00159235
0.00162908
0.00166604
0.00170324
0.00174066
0.0017783
0.00181616
0.00185425
0.00189254
0.00193105
0.00196976
0.00200866
0.00204776
0.00208704
0.00212649
0.00216611
0.00220588
0.00224579
0.00228583
0.00232599
0.00236624
0.00240658
0.00244699
0.00248744
0.00252794
0.00256845
0.00260896
0.00264945
0.0026899
0.00273028
0.00277059
0.00281079
0.00285086
0.00289079
0.00293054
0.0029701
0.00300945
0.00304855
0.00308738
0.00312592
0.00316414
0.00320203
0.00323954
0.00327667
0.00331339
0.00334968
0.00338553
0.00342091
0.00345582
0.00349023
0.00352412
0.00355747
0.00359025
0.00362245
0.00365403
0.00368499
0.00371529
0.00374491
0.00377383
0.00380204
0.00382951
0.00385621
0.00388213
0.00390725
0.00393155
0.00395501
0.00397762
0.00399934
0.00402017
0.00404009
0.00405909
0.00407715
0.00409425
0.00411039
0.00412555
0.00413974
0.00415295
0.00416543
0.00417683
0.00418716
0.00419617
0.00420434
0.00421154
0.00421772
0.00422288
0.00422705
0.00423022
0.00423241
0.00423364
0.00423392
0.00423327
0.00423171
0.00422926
0.00422594
0.00422178
0.0042168
0.00421103
0.00420451
0.00419725
0.00418929
0.00418067
0.00417141
0.00416155
0.00415112
0.00414015
0.00412867
0.00411672
0.00410431
0.00409149
0.00407826
0.00406465
0.00405064
0.00403621
0.00402128
0.0040058
0.00398976
0.00397324
0.00395629
0.00393897
0.00392134
0.00390342
0.00388524
0.00386681
0.00384816
0.00382928
0.00381012
0.00379045
0.00376949
0.00374479
0.00370968
8.3465e-06
9.38757e-05
0.000195442
0.000278623
0.000344388
0.00039559
0.000436023
0.000468779
0.000496254
0.000520246
0.000542056
0.000562595
0.000582477
0.000602104
0.000621733
0.000641532
0.000661618
0.000682086
0.000703017
0.000724494
0.000746598
0.000769411
0.000793007
0.000817449
0.000842779
0.000869019
0.000896209
0.000924313
0.000953302
0.000983144
0.0010138
0.00104523
0.00107738
0.00111021
0.00114367
0.0011777
0.00121226
0.0012473
0.00128277
0.00131862
0.00135481
0.00139132
0.00142811
0.00146516
0.00150246
0.00153998
0.00157773
0.00161569
0.00165387
0.00169226
0.00173086
0.00176968
0.00180871
0.00184795
0.00188739
0.00192704
0.00196689
0.00200694
0.00204719
0.00208762
0.00212824
0.00216904
0.00221002
0.00225116
0.00229245
0.0023339
0.00237548
0.0024172
0.00245903
0.00250096
0.00254299
0.00258509
0.00262725
0.00266947
0.00271171
0.00275397
0.00279622
0.00283846
0.00288065
0.00292278
0.00296484
0.0030068
0.00304863
0.00309033
0.00313185
0.0031732
0.00321433
0.00325523
0.00329587
0.00333623
0.00337629
0.00341602
0.0034554
0.00349441
0.00353303
0.00357123
0.00360899
0.0036463
0.00368314
0.00371948
0.0037553
0.00379058
0.00382529
0.00385942
0.00389293
0.00392581
0.00395804
0.00398958
0.00402042
0.00405054
0.00407991
0.00410851
0.00413633
0.00416333
0.0041895
0.00421482
0.00423927
0.00426282
0.00428547
0.00430719
0.00432797
0.00434778
0.00436662
0.00438447
0.00440132
0.00441715
0.00443205
0.00444611
0.00445901
0.00447085
0.00448139
0.00449107
0.00449968
0.00450721
0.00451369
0.00451911
0.0045235
0.00452686
0.0045292
0.00453054
0.0045309
0.00453029
0.00452873
0.00452626
0.00452288
0.00451863
0.00451354
0.00450763
0.00450094
0.00449349
0.00448533
0.00447648
0.00446697
0.00445685
0.00444615
0.00443489
0.00442311
0.00441085
0.00439813
0.00438498
0.00437141
0.00435743
0.00434303
0.00432819
0.00431286
0.00429705
0.0042808
0.00426413
0.00424711
0.00422978
0.00421216
0.0041943
0.00417622
0.00415796
0.00413954
0.00412095
0.00410203
0.00408213
0.00405928
0.00402894
9.2038e-06
9.88383e-05
0.000205697
0.000294327
0.000365271
0.000421208
0.000465777
0.000502084
0.000532572
0.000559115
0.000583104
0.000605549
0.000627159
0.000648423
0.000669666
0.000691108
0.000712907
0.00073519
0.000758049
0.000781543
0.000805733
0.000830682
0.00085644
0.000883047
0.00091052
0.000938854
0.000968095
0.000998225
0.00102921
0.001061
0.00109355
0.00112681
0.00116075
0.0011953
0.00123043
0.00126609
0.00130224
0.00133883
0.0013758
0.00141306
0.00145063
0.0014885
0.00152666
0.00156509
0.00160376
0.00164262
0.00168168
0.00172093
0.00176037
0.00179999
0.0018398
0.00187979
0.00191997
0.00196033
0.00200087
0.00204159
0.00208249
0.00212356
0.00216482
0.00220624
0.00224783
0.00228958
0.0023315
0.00237357
0.00241579
0.00245815
0.00250065
0.00254328
0.00258602
0.00262887
0.00267182
0.00271485
0.00275796
0.00280113
0.00284434
0.00288758
0.00293084
0.0029741
0.00301733
0.00306054
0.00310368
0.00314675
0.00318972
0.00323258
0.0032753
0.00331786
0.00336024
0.00340242
0.00344436
0.00348605
0.00352747
0.00356859
0.00360939
0.00364984
0.00368993
0.00372962
0.00376891
0.00380775
0.00384614
0.00388405
0.00392145
0.00395833
0.00399465
0.0040304
0.00406554
0.00410007
0.00413394
0.00416715
0.00419966
0.00423146
0.00426251
0.0042928
0.00432231
0.00435101
0.00437888
0.00440589
0.00443204
0.0044573
0.00448164
0.00450505
0.00452752
0.00454901
0.00456952
0.00458903
0.00460752
0.00462497
0.00464154
0.00465709
0.00467155
0.00468492
0.00469708
0.00470828
0.00471836
0.00472733
0.00473519
0.00474197
0.00474768
0.00475231
0.00475589
0.00475842
0.00475993
0.00476042
0.00475992
0.00475845
0.00475603
0.00475269
0.00474846
0.00474336
0.00473744
0.00473071
0.00472321
0.00471499
0.00470606
0.00469648
0.00468627
0.00467547
0.00466412
0.00465224
0.00463988
0.00462705
0.00461378
0.0046001
0.00458599
0.00457147
0.0045565
0.00454111
0.0045253
0.00450911
0.00449258
0.00447575
0.00445866
0.00444135
0.00442385
0.00440623
0.00438852
0.00437075
0.00435281
0.00433419
0.00431335
0.00428754
9.89543e-06
0.000102518
0.000213447
0.000306724
0.000382089
0.000442313
0.000490752
0.000530471
0.000563923
0.000593022
0.000619223
0.000643604
0.000666955
0.000689855
0.000712666
0.000735616
0.00075885
0.000782432
0.000806597
0.000831448
0.000857049
0.000883447
0.000910679
0.000938768
0.000967732
0.000997584
0.00102831
0.00105989
0.00109226
0.00112537
0.00115918
0.00119362
0.00122867
0.00126425
0.00130035
0.00133691
0.00137389
0.00141127
0.00144902
0.00148713
0.00152554
0.00156422
0.00160311
0.00164217
0.00168142
0.00172083
0.00176039
0.00180008
0.00183992
0.00187991
0.00192005
0.00196034
0.00200078
0.00204138
0.00208214
0.00212305
0.00216412
0.00220535
0.00224674
0.0022883
0.00233001
0.00237189
0.00241393
0.00245613
0.00249849
0.002541
0.00258367
0.00262648
0.00266943
0.00271251
0.00275572
0.00279905
0.00284248
0.002886
0.00292962
0.0029733
0.00301703
0.00306081
0.00310461
0.00314842
0.00319222
0.00323599
0.00327971
0.00332335
0.00336691
0.00341034
0.00345364
0.00349678
0.00353973
0.00358247
0.00362498
0.00366723
0.00370919
0.00375084
0.00379216
0.00383313
0.0038737
0.00391387
0.00395361
0.00399289
0.00403169
0.00406999
0.00410775
0.00414495
0.00418158
0.0042176
0.00425298
0.00428772
0.00432177
0.00435512
0.00438775
0.00441962
0.00445072
0.00448103
0.00451051
0.00453915
0.00456693
0.00459383
0.00461982
0.00464488
0.00466899
0.00469213
0.00471429
0.00473544
0.00475558
0.00477469
0.00479286
0.00480996
0.00482601
0.00484097
0.00485479
0.00486758
0.0048792
0.00488966
0.004899
0.00490722
0.00491433
0.00492035
0.00492527
0.00492911
0.00493188
0.00493359
0.00493428
0.00493394
0.00493262
0.00493033
0.00492711
0.00492297
0.00491796
0.0049121
0.00490544
0.004898
0.00488982
0.00488093
0.00487139
0.00486122
0.00485046
0.00483915
0.00482732
0.004815
0.00480222
0.00478901
0.00477538
0.00476133
0.00474688
0.00473203
0.0047168
0.00470122
0.00468532
0.00466914
0.00465272
0.00463611
0.00461937
0.00460254
0.0045857
0.00456889
0.00455207
0.00453483
0.00451597
0.00449392
1.04208e-05
0.000105053
0.000218948
0.000315997
0.000395141
0.000459184
0.000511184
0.000554123
0.000590429
0.000622028
0.00065043
0.000676704
0.000701616
0.000725664
0.00074946
0.000773368
0.000797638
0.000822484
0.000848009
0.000874224
0.000901161
0.000928853
0.000957326
0.000986597
0.00101667
0.00104754
0.00107918
0.00111153
0.00114457
0.00117826
0.00121256
0.00124742
0.00128281
0.00131867
0.00135498
0.00139168
0.00142875
0.00146615
0.00150385
0.00154181
0.00158
0.00161842
0.00165706
0.00169601
0.00173511
0.00177427
0.00181348
0.00185277
0.00189215
0.00193163
0.00197122
0.00201093
0.00205077
0.00209074
0.00213085
0.00217111
0.00221152
0.0022521
0.00229284
0.00233375
0.00237484
0.00241612
0.00245758
0.00249924
0.00254108
0.00258313
0.00262536
0.0026678
0.00271042
0.00275323
0.00279622
0.00283939
0.00288272
0.00292621
0.00296985
0.00301363
0.00305753
0.00310153
0.00314562
0.00318978
0.003234
0.00327824
0.0033225
0.00336675
0.00341096
0.00345511
0.00349919
0.00354315
0.00358698
0.00363064
0.00367412
0.00371739
0.00376041
0.00380317
0.00384563
0.00388777
0.00392955
0.00397096
0.00401197
0.00405255
0.00409267
0.00413231
0.00417144
0.00421004
0.00424808
0.00428553
0.00432237
0.00435858
0.00439412
0.00442898
0.00446313
0.00449655
0.0045292
0.00456108
0.00459215
0.00462239
0.00465178
0.0046803
0.00470792
0.00473462
0.00476038
0.00478517
0.00480899
0.00483181
0.00485361
0.00487439
0.00489417
0.00491289
0.0049306
0.00494722
0.00496273
0.0049772
0.00499044
0.00500245
0.00501334
0.00502309
0.00503171
0.00503921
0.00504557
0.00505083
0.00505498
0.00505803
0.00506002
0.00506095
0.00506084
0.00505973
0.00505764
0.0050546
0.00505063
0.00504578
0.00504008
0.00503356
0.00502626
0.00501822
0.00500947
0.00500007
0.00499005
0.00497944
0.00496828
0.00495662
0.00494447
0.00493188
0.00491886
0.00490544
0.00489163
0.00487744
0.00486289
0.00484802
0.00483286
0.00481744
0.00480181
0.00478602
0.00477014
0.00475422
0.00473836
0.00472262
0.00470698
0.00469114
0.00467417
0.00465532
1.07879e-05
0.000106594
0.000222445
0.000322417
0.000404715
0.000472089
0.000527297
0.000573221
0.000612191
0.000646013
0.000676034
0.000703649
0.000729814
0.000755303
0.000780552
0.000805826
0.000831357
0.000857306
0.000883727
0.000910728
0.000938371
0.000966695
0.000995717
0.00102545
0.00105588
0.00108699
0.00111877
0.00115117
0.00118416
0.0012177
0.00125176
0.00128629
0.00132126
0.00135662
0.00139234
0.00142838
0.0014647
0.00150127
0.00153808
0.00157505
0.0016122
0.00164958
0.00168728
0.00172522
0.00176319
0.00180121
0.00183921
0.00187718
0.00191518
0.00195324
0.00199139
0.00202964
0.00206801