/*--------------------------------*- C++ -*----------------------------------*\
  =========                 |
  \\      /  F ield         | OpenFOAM: The Open Source CFD Toolbox
   \\    /   O peration     | Website:  https://openfoam.org
    \\  /    A nd           | Version:  9
     \\/     M anipulation  |
\*---------------------------------------------------------------------------*/
FoamFile
{
    format      ascii;
    class       volScalarField;
    location    "255";
    object      p;
}
// * * * * * * * * * * * * * * * * * * * * * * * * * * * * * * * * * * * * * //

dimensions      [0 2 -2 0 0 0 0];

internalField   nonuniform List<scalar> 
12225
(
-1.47354
-3.6615
-4.76159
-5.08236
-5.2638
-5.43305
-5.56485
-5.66039
-5.73749
-5.8055
-5.8663
-5.92221
-5.97339
-6.02164
-6.06749
-6.10706
-6.15669
-6.13719
-4.6359
-5.40473
-5.56529
-5.47318
-5.46082
-5.52889
-5.60671
-5.67283
-5.73293
-5.79099
-5.84639
-5.89831
-5.94753
-5.9944
-6.03998
-6.08131
-6.12876
-6.16474
-5.03653
-5.02235
-5.14982
-5.22833
-5.32339
-5.44377
-5.55129
-5.63649
-5.70878
-5.77473
-5.83561
-5.8915
-5.94392
-5.99329
-6.04117
-6.08564
-6.13574
-6.18008
-4.91515
-4.85852
-5.10023
-5.25868
-5.36057
-5.46697
-5.56494
-5.64533
-5.71452
-5.77818
-5.83748
-5.89241
-5.94419
-5.99324
-6.04095
-6.08665
-6.13567
-6.18365
-4.90522
-4.92959
-5.15772
-5.29938
-5.38314
-5.47538
-5.56686
-5.6449
-5.71288
-5.77564
-5.83443
-5.88925
-5.94108
-5.99043
-6.03851
-6.08531
-6.13393
-6.18353
-4.96331
-5.0121
-5.18642
-5.31041
-5.39206
-5.48005
-5.56833
-5.64515
-5.71251
-5.7747
-5.83309
-5.88777
-5.93954
-5.98901
-6.03718
-6.08439
-6.13249
-6.18166
-5.02361
-5.06774
-5.20296
-5.31936
-5.40322
-5.48751
-5.57165
-5.64656
-5.713
-5.77444
-5.83224
-5.8866
-5.93817
-5.98756
-6.03561
-6.08276
-6.13013
-6.17799
-5.07706
-5.11465
-5.22464
-5.333
-5.4161
-5.49584
-5.57544
-5.64817
-5.71352
-5.77411
-5.83123
-5.88517
-5.93644
-5.98562
-6.03337
-6.08014
-6.12659
-6.17282
-5.12671
-5.15982
-5.25077
-5.34879
-5.42895
-5.50444
-5.57977
-5.65009
-5.71416
-5.77376
-5.83008
-5.88347
-5.93431
-5.9831
-6.03037
-6.07648
-6.12183
-6.16635
-5.17367
-5.20292
-5.27847
-5.36573
-5.442
-5.51364
-5.58489
-5.65255
-5.71507
-5.77351
-5.82889
-5.88155
-5.93179
-5.98001
-6.02661
-6.07186
-6.11599
-6.15881
-5.21789
-5.24339
-5.30661
-5.38382
-5.45555
-5.52345
-5.59078
-5.65559
-5.71632
-5.77344
-5.82773
-5.87949
-5.92897
-5.97644
-6.0222
-6.06643
-6.10928
-6.15047
-5.25582
-5.27817
-5.33239
-5.40124
-5.4684
-5.53284
-5.59673
-5.65886
-5.71778
-5.77355
-5.82671
-5.87752
-5.92615
-5.9728
-6.01767
-6.06088
-6.10252
-6.1423
-5.29084
-5.31056
-5.3574
-5.41879
-5.48131
-5.54233
-5.60298
-5.66245
-5.71946
-5.7738
-5.82575
-5.87552
-5.9232
-5.96893
-6.01284
-6.055
-6.09544
-6.13392
-5.3275
-5.3447
-5.38472
-5.43873
-5.49606
-5.55323
-5.61036
-5.66685
-5.72162
-5.77421
-5.82469
-5.87315
-5.91966
-5.96425
-6.00699
-6.04791
-6.08702
-6.12412
-5.36456
-5.37935
-5.41334
-5.46042
-5.51229
-5.56526
-5.61869
-5.67197
-5.72417
-5.77471
-5.82344
-5.87035
-5.91542
-5.95864
-6.00002
-6.03954
-6.07722
-6.11289
-5.40004
-5.41266
-5.44159
-5.48252
-5.52906
-5.57772
-5.62741
-5.6774
-5.72683
-5.77508
-5.82183
-5.86696
-5.91038
-5.95204
-5.9919
-6.02992
-6.06611
-6.10035
-5.43103
-5.4419
-5.46684
-5.50275
-5.54459
-5.58925
-5.63542
-5.68225
-5.72894
-5.77481
-5.81947
-5.8627
-5.90435
-5.94434
-5.9826
-6.01909
-6.05379
-6.08666
-5.45317
-5.46281
-5.48505
-5.51748
-5.55587
-5.59743
-5.64078
-5.68501
-5.72933
-5.77307
-5.81578
-5.8572
-5.89716
-5.93553
-5.97224
-6.00726
-6.04057
-6.07215
-5.45958
-5.46872
-5.48991
-5.52101
-5.55804
-5.59823
-5.64017
-5.68298
-5.72589
-5.76824
-5.80958
-5.84964
-5.88826
-5.92533
-5.96078
-5.99458
-6.02675
-6.0573
-5.44315
-5.45291
-5.47548
-5.5085
-5.54743
-5.58903
-5.63187
-5.67526
-5.71847
-5.76087
-5.80203
-5.84174
-5.87989
-5.91641
-5.95125
-5.98442
-6.01593
-6.04586
-5.4161
-5.42688
-5.45212
-5.48908
-5.53178
-5.57619
-5.62116
-5.66626
-5.71074
-5.75393
-5.79552
-5.83543
-5.87362
-5.91004
-5.94469
-5.9776
-6.00884
-6.03848
-5.38074
-5.39254
-5.42186
-5.46539
-5.51359
-5.56148
-5.60917
-5.65676
-5.70317
-5.7476
-5.78996
-5.83035
-5.86879
-5.90529
-5.9399
-5.97271
-6.00379
-6.03325
-5.3401
-5.35198
-5.3864
-5.43961
-5.49507
-5.54693
-5.59771
-5.64802
-5.69639
-5.74212
-5.78539
-5.82641
-5.86525
-5.90195
-5.93663
-5.96943
-6.00046
-6.02984
-5.29634
-5.30729
-5.34902
-5.41338
-5.47548
-5.53206
-5.58757
-5.6413
-5.69143
-5.7381
-5.78207
-5.82361
-5.86272
-5.89953
-5.93422
-5.96698
-5.99793
-6.02721
-5.2494
-5.25484
-5.31746
-5.3956
-5.45747
-5.51562
-5.57665
-5.63488
-5.68727
-5.73519
-5.78006
-5.82218
-5.86157
-5.89847
-5.93315
-5.96584
-5.99672
-6.02596
-5.20611
-5.16966
-5.27915
-5.39006
-5.45223
-5.50743
-5.56952
-5.62914
-5.68224
-5.73082
-5.7764
-5.81906
-5.85879
-5.89589
-5.93068
-5.96343
-5.99434
-6.02359
-5.2202
-5.06119
-5.19008
-5.34412
-5.43415
-5.50543
-5.57425
-5.63504
-5.68771
-5.73586
-5.78101
-5.82313
-5.86229
-5.89882
-5.93307
-5.96533
-5.99583
-6.02481
-5.34291
-5.1629
-5.17707
-5.24917
-5.33747
-5.4366
-5.52719
-5.60085
-5.66242
-5.71743
-5.76761
-5.81325
-5.85492
-5.89329
-5.92885
-5.96207
-5.9934
-6.02346
-5.05022
-5.64178
-5.7306
-5.60631
-5.5519
-5.57897
-5.62584
-5.66897
-5.7104
-5.75245
-5.79381
-5.83301
-5.86984
-5.90444
-5.93688
-5.96732
-5.99596
-6.0246
-2.06196
-3.82472
-4.82938
-5.12847
-5.27757
-5.42111
-5.53503
-5.61587
-5.67998
-5.73671
-5.78784
-5.83375
-5.87529
-5.9134
-5.94856
-5.9806
-6.00935
-6.03305
-6.8971
-6.89714
-6.89754
-6.89834
-6.89938
-6.90063
-6.90208
-6.90376
-6.90572
-6.908
-6.91063
-6.91367
-6.91714
-6.9211
-6.92558
-6.93063
-6.93629
-6.94261
-6.94964
-6.95743
-6.96602
-6.97546
-6.98583
-6.99721
-7.0097
-7.02338
-7.03843
-7.05511
-7.07362
-7.09325
-7.11257
-7.13138
-7.15174
-7.1744
-7.19769
-7.22028
-7.24202
-7.26599
-7.29297
-7.31866
-7.34207
-7.36472
-7.38929
-7.41624
-7.44392
-7.47239
-7.50138
-7.53075
-7.56038
-7.59014
-7.61995
-7.64969
-7.67928
-7.70863
-7.73762
-7.76617
-7.79416
-7.82151
-7.84807
-7.87376
-7.89843
-7.92197
-7.94422
-7.96506
-7.98433
-8.00189
-8.01756
-8.0312
-8.04261
-8.05163
-8.05807
-8.06175
-8.06248
-8.06007
-8.05431
-8.04503
-8.03199
-8.01502
-7.9939
-7.96844
-7.93843
-7.90368
-7.86399
-7.81917
-7.76903
-7.71339
-7.65206
-7.58488
-7.51167
-7.43229
-7.34661
-7.25451
-7.15588
-7.05062
-6.93876
-6.82038
-6.69534
-6.56307
-6.42337
-6.27648
-6.12246
-5.96135
-5.79318
-5.61799
-5.43582
-5.24675
-5.05086
-4.84826
-4.63908
-4.42344
-4.20152
-3.97349
-3.73955
-3.4999
-3.25476
-3.0044
-2.74906
-2.48901
-2.22453
-1.95592
-1.68347
-1.40752
-1.12837
-0.846357
-0.561812
-0.275064
0.0135612
0.303732
0.59513
0.887427
1.18029
1.4734
1.76645
2.05915
2.35119
2.64231
2.93222
3.22068
3.50745
3.79228
4.07495
4.35525
4.63301
4.90804
5.18021
5.44936
5.71537
5.97814
6.23757
6.49357
6.74607
6.99502
7.24037
7.48209
7.72013
7.95449
8.18514
8.41207
8.63528
8.85477
9.07052
9.28257
9.49097
9.69581
9.89691
10.094
10.287
10.476
10.6609
10.8418
11.0185
11.191
11.3593
11.5232
11.683
11.8387
11.9916
12.1427
12.3039
12.4709
-6.8958
-6.89614
-6.8967
-6.8974
-6.89804
-6.89863
-6.8993
-6.90023
-6.90148
-6.90312
-6.90518
-6.90768
-6.91064
-6.91408
-6.91804
-6.92254
-6.92763
-6.93335
-6.93976
-6.94691
-6.95485
-6.96364
-6.97332
-6.98391
-6.99542
-7.00788
-7.02123
-7.03542
-7.05007
-7.06494
-7.08087
-7.09932
-7.11913
-7.1379
-7.15586
-7.17438
-7.19582
-7.2192
-7.24242
-7.26893
-7.29939
-7.33217
-7.36398
-7.39337
-7.4225
-7.45167
-7.48098
-7.51043
-7.54001
-7.56964
-7.59927
-7.62882
-7.65821
-7.68735
-7.71616
-7.74454
-7.77238
-7.7996
-7.82607
-7.85169
-7.87633
-7.89986
-7.92216
-7.94307
-7.96246
-7.98018
-7.99605
-8.00993
-8.02163
-8.03099
-8.03781
-8.04193
-8.04314
-8.04126
-8.0361
-8.02744
-8.0151
-7.99887
-7.97855
-7.95394
-7.92484
-7.89106
-7.85239
-7.80865
-7.75965
-7.70521
-7.64515
-7.5793
-7.5075
-7.4296
-7.34547
-7.25498
-7.158
-7.05439
-6.94403
-6.8267
-6.70222
-6.57077
-6.43251
-6.28726
-6.13498
-5.97564
-5.80926
-5.63586
-5.45549
-5.26822
-5.07413
-4.87332
-4.6659
-4.45202
-4.23183
-4.0055
-3.77322
-3.5352
-3.29166
-3.04283
-2.78898
-2.53036
-2.26726
-1.99996
-1.72877
-1.454
-1.17596
-0.894988
-0.61141
-0.325553
-0.0377502
0.251674
0.542397
0.834104
1.12646
1.41913
1.71181
2.00422
2.29605
2.58702
2.87686
3.16532
3.45215
3.7371
4.01995
4.3005
4.57855
4.85393
5.12648
5.39607
5.66256
5.92584
6.18581
6.44239
6.6955
6.94508
7.19109
7.43348
7.67223
7.9073
8.1387
8.36639
8.59037
8.81065
9.02724
9.24013
9.44929
9.6545
9.85557
10.0526
10.2456
10.4346
10.6196
10.8006
10.9774
11.1501
11.3186
11.483
11.6433
11.7999
11.9543
12.1071
12.2712
12.4324
-6.89166
-6.89271
-6.89419
-6.89541
-6.89614
-6.8966
-6.89706
-6.89772
-6.89869
-6.90006
-6.90187
-6.90414
-6.9069
-6.91016
-6.91396
-6.91834
-6.92332
-6.92895
-6.93528
-6.94235
-6.95022
-6.95893
-6.96854
-6.97905
-6.99048
-7.00283
-7.01609
-7.03017
-7.04486
-7.05996
-7.07579
-7.09298
-7.11155
-7.13102
-7.15149
-7.17332
-7.19669
-7.22083
-7.24463
-7.26891
-7.29465
-7.3219
-7.34992
-7.37803
-7.4064
-7.43502
-7.46383
-7.49278
-7.52184
-7.55094
-7.58004
-7.60906
-7.63793
-7.66657
-7.6949
-7.72282
-7.75025
-7.77708
-7.80321
-7.82852
-7.85289
-7.8762
-7.89831
-7.9191
-7.9384
-7.95608
-7.97197
-7.98591
-7.99774
-8.00728
-8.01434
-8.01876
-8.02033
-8.01888
-8.01419
-8.00609
-7.99437
-7.97882
-7.95926
-7.93548
-7.90727
-7.87445
-7.83681
-7.79418
-7.74635
-7.69315
-7.6344
-7.56993
-7.49957
-7.42317
-7.3406
-7.25173
-7.15642
-7.05456
-6.94601
-6.83061
-6.70818
-6.57878
-6.44249
-6.29924
-6.149
-5.99174
-5.82747
-5.6562
-5.47799
-5.29288
-5.10095
-4.9023
-4.69705
-4.48531
-4.26726
-4.04304
-3.81286
-3.57689
-3.33537
-3.08853
-2.83661
-2.57988
-2.31861
-2.05308
-1.7836
-1.51046
-1.234
-0.954525
-0.672369
-0.387858
-0.101328
0.186899
0.476503
0.767171
1.05856
1.35036
1.64226
1.93395
2.22515
2.51557
2.80493
3.09299
3.37948
3.66417
3.94683
4.22724
4.50521
4.78057
5.05315
5.32282
5.58942
5.85286
6.11302
6.36982
6.62317
6.87302
7.1193
7.36198
7.60102
7.83639
8.06806
8.29603
8.52027
8.74079
8.9576
9.17069
9.38009
9.58573
9.78748
9.98532
10.1792
10.369
10.5548
10.7366
10.9143
11.0878
11.2573
11.4226
11.5842
11.7424
11.8988
12.0534
12.2198
12.3685
-6.88503
-6.88692
-6.8898
-6.8921
-6.89353
-6.89447
-6.89526
-6.8961
-6.89715
-6.89853
-6.9003
-6.90252
-6.90522
-6.90844
-6.9122
-6.91655
-6.9215
-6.92711
-6.9334
-6.94043
-6.94822
-6.95682
-6.96627
-6.97658
-6.98778
-6.99987
-7.01283
-7.0266
-7.0411
-7.05624
-7.07212
-7.08894
-7.10684
-7.12584
-7.14607
-7.16774
-7.19084
-7.21499
-7.2397
-7.26479
-7.29036
-7.31653
-7.34325
-7.37042
-7.39801
-7.42594
-7.45414
-7.48255
-7.51109
-7.53971
-7.56834
-7.59693
-7.62538
-7.65364
-7.68161
-7.70921
-7.73634
-7.76292
-7.78882
-7.81394
-7.83817
-7.86137
-7.88342
-7.90417
-7.9235
-7.94123
-7.95723
-7.97132
-7.98334
-7.99311
-8.00046
-8.00521
-8.00716
-8.00613
-8.00192
-7.99434
-7.98319
-7.96826
-7.94937
-7.9263
-7.89886
-7.86686
-7.83009
-7.78837
-7.7415
-7.68931
-7.6316
-7.56822
-7.499
-7.42377
-7.34241
-7.25476
-7.16069
-7.06008
-6.95281
-6.83874
-6.71779
-6.58993
-6.45518
-6.31348
-6.16481
-6.00914
-5.84647
-5.67683
-5.50024
-5.31677
-5.12648
-4.92947
-4.72585
-4.51574
-4.29929
-4.07667
-3.84806
-3.61364
-3.37365
-3.12829
-2.87783
-2.62251
-2.36261
-2.09841
-1.83021
-1.5583
-1.28301
-1.00466
-0.723565
-0.440063
-0.154483
0.132852
0.421629
0.711524
1.0022
1.29335
1.58465
1.87582
2.16655
2.45657
2.74559
3.03335
3.31961
3.60412
3.88664
4.16697
4.44491
4.72028
4.99291
5.26266
5.52938
5.79297
6.0533
6.31029
6.56386
6.81393
7.06045
7.30337
7.54266
7.77827
8.01019
8.2384
8.46291
8.68369
8.90073
9.11403
9.3236
9.52943
9.73149
9.92969
10.124
10.3142
10.5005
10.6827
10.8608
11.0348
11.2048
11.3707
11.533
11.6919
11.849
12.0033
12.1679
12.3025
-6.87754
-6.88032
-6.88481
-6.88843
-6.89079
-6.89246
-6.89382
-6.89511
-6.89651
-6.89815
-6.90013
-6.90253
-6.90539
-6.90875
-6.91266
-6.91715
-6.92224
-6.92799
-6.93443
-6.94159
-6.94951
-6.95822
-6.96776
-6.97814
-6.98939
-7.0015
-7.01449
-7.02832
-7.04296
-7.0584
-7.07467
-7.09183
-7.10993
-7.12898
-7.14907
-7.17027
-7.1926
-7.21596
-7.24015
-7.26502
-7.29045
-7.31637
-7.34271
-7.36944
-7.39654
-7.42398
-7.45169
-7.47963
-7.50774
-7.53595
-7.56419
-7.59241
-7.62054
-7.64848
-7.67618
-7.70353
-7.73044
-7.75683
-7.78257
-7.80757
-7.8317
-7.85485
-7.87687
-7.89763
-7.917
-7.93481
-7.95092
-7.96515
-7.97735
-7.98733
-7.99493
-7.99995
-8.00222
-8.00154
-7.99771
-7.99054
-7.97984
-7.96539
-7.94701
-7.92449
-7.89764
-7.86625
-7.83012
-7.78907
-7.74291
-7.69145
-7.63451
-7.57192
-7.50351
-7.42912
-7.34862
-7.26185
-7.16869
-7.069
-6.96267
-6.84959
-6.72968
-6.6029
-6.46922
-6.32859
-6.181
-6.02641
-5.86483
-5.69628
-5.52079
-5.33841
-5.14922
-4.9533
-4.75076
-4.54173
-4.32634
-4.10477
-3.87719
-3.64379
-3.40478
-3.16039
-2.91087
-2.65647
-2.39746
-2.13412
-1.86673
-1.59562
-1.32109
-1.04345
-0.763042
-0.480189
-0.195221
0.0915414
0.379789
0.669182
0.959388
1.25011
1.54104
1.83186
2.1223
2.41205
2.70084
2.98842
3.27453
3.55891
3.84135
4.12163
4.39954
4.67493
4.9476
5.21741
5.48422
5.74792
6.00839
6.26553
6.51926
6.76952
7.01623
7.25936
7.49885
7.7347
7.96686
8.19532
8.42005
8.64105
8.85829
9.07175
9.28142
9.48729
9.68937
9.88762
10.082
10.2723
10.4587
10.641
10.8193
10.9935
11.1636
11.3298
11.4922
11.6511
11.808
11.9606
12.1215
12.2432
-6.87071
-6.87434
-6.88031
-6.88521
-6.88855
-6.89102
-6.89306
-6.89493
-6.89681
-6.89888
-6.90124
-6.90397
-6.90715
-6.91081
-6.91501
-6.91978
-6.92517
-6.93119
-6.93791
-6.94534
-6.95354
-6.96251
-6.97231
-6.98294
-6.99443
-7.00677
-7.01998
-7.03405
-7.04895
-7.06469
-7.08127
-7.09871
-7.11703
-7.13624
-7.15637
-7.17743
-7.1994
-7.22223
-7.24583
-7.27014
-7.29507
-7.32053
-7.34645
-7.37279
-7.39949
-7.42654
-7.45387
-7.48143
-7.50919
-7.53707
-7.56501
-7.59295
-7.62082
-7.64854
-7.67604
-7.70322
-7.72999
-7.75626
-7.78192
-7.80687
-7.83097
-7.85412
-7.87617
-7.897
-7.91645
-7.93438
-7.95062
-7.96502
-7.97741
-7.98761
-7.99544
-8.00072
-8.00327
-8.00289
-7.99939
-7.99258
-7.98224
-7.96819
-7.95021
-7.92812
-7.90171
-7.87079
-7.83515
-7.7946
-7.74896
-7.69803
-7.64164
-7.57962
-7.51178
-7.43799
-7.35809
-7.27195
-7.17942
-7.08037
-6.97471
-6.86232
-6.74312
-6.61707
-6.48411
-6.3442
-6.19733
-6.04346
-5.8826
-5.71476
-5.53998
-5.35831
-5.16983
-4.97461
-4.77276
-4.56442
-4.34971
-4.1288
-3.90187
-3.66911
-3.43073
-3.18696
-2.93803
-2.6842
-2.42575
-2.16294
-1.89608
-1.62547
-1.35141
-1.07424
-0.794266
-0.511834
-0.227269
0.0591197
0.347007
0.636048
0.925919
1.21633
1.50699
1.79756
2.08776
2.3773
2.6659
2.95331
3.23925
3.5235
3.80582
4.086
4.36384
4.63916
4.91179
5.18157
5.44837
5.71207
5.97255
6.22972
6.48348
6.73379
6.98056
7.22376
7.46334
7.69927
7.93152
8.16007
8.3849
8.60599
8.82332
9.03686
9.24659
9.45249
9.65456
9.85279
10.0471
10.2375
10.4239
10.6063
10.7846
10.9589
11.1291
11.2953
11.4577
11.6163
11.7723
11.9228
12.0799
12.1903
-6.86568
-6.87007
-6.8772
-6.88319
-6.88744
-6.89069
-6.89342
-6.8959
-6.89834
-6.90089
-6.9037
-6.90686
-6.91043
-6.91448
-6.91906
-6.9242
-6.92995
-6.93634
-6.94341
-6.9512
-6.95973
-6.96904
-6.97915
-6.99009
-7.00187
-7.01449
-7.02796
-7.04227
-7.05741
-7.07337
-7.09015
-7.10776
-7.12619
-7.14546
-7.16557
-7.18652
-7.20828
-7.23081
-7.25407
-7.27799
-7.30252
-7.32759
-7.35315
-7.37915
-7.40553
-7.43227
-7.45931
-7.4866
-7.5141
-7.54174
-7.56947
-7.59723
-7.62494
-7.65252
-7.67991
-7.70701
-7.73373
-7.75997
-7.78562
-7.81059
-7.83474
-7.85795
-7.8801
-7.90103
-7.92061
-7.93869
-7.9551
-7.96968
-7.98227
-7.99269
-8.00075
-8.00628
-8.00909
-8.00898
-8.00576
-7.99922
-7.98919
-7.97544
-7.95778
-7.93602
-7.90994
-7.87935
-7.84405
-7.80386
-7.75857
-7.70801
-7.652
-7.59035
-7.5229
-7.4495
-7.36999
-7.28424
-7.19212
-7.09349
-6.98824
-6.87629
-6.75754
-6.63193
-6.49942
-6.35995
-6.21351
-6.06007
-5.89964
-5.73223
-5.55788
-5.37663
-5.18856
-4.99375
-4.79231
-4.58436
-4.37005
-4.14952
-3.92297
-3.69058
-3.45256
-3.20913
-2.96055
-2.70705
-2.44891
-2.18642
-1.91986
-1.64954
-1.37577
-1.09887
-0.819177
-0.53701
-0.2527
0.0334436
0.321076
0.609861
0.899487
1.18968
1.48012
1.77048
2.06048
2.34982
2.63824
2.92546
3.21124
3.49532
3.77748
4.05751
4.33521
4.6104
4.8829
5.15256
5.41926
5.68284
5.94322
6.20029
6.45398
6.7042
6.95091
7.19404
7.43357
7.66944
7.90165
8.13016
8.35495
8.57602
8.79333
9.00686
9.21658
9.42246
9.6245
9.82269
10.017
10.2074
10.3938
10.5762
10.7546
10.9288
11.0991
11.2652
11.4274
11.5855
11.7404
11.8885
12.0422
12.1427
-6.86316
-6.8681
-6.87607
-6.88287
-6.88788
-6.89182
-6.89519
-6.89825
-6.90122
-6.90428
-6.90755
-6.91115
-6.91515
-6.91961
-6.92459
-6.93012
-6.93626
-6.94303
-6.95048
-6.95863
-6.96751
-6.97716
-6.98759
-6.99882
-7.01087
-7.02375
-7.03744
-7.05196
-7.06729
-7.08342
-7.10035
-7.11806
-7.13657
-7.15585
-7.17593
-7.19677
-7.21837
-7.2407
-7.26371
-7.28737
-7.31162
-7.33642
-7.36171
-7.38746
-7.41362
-7.44015
-7.46699
-7.49411
-7.52145
-7.54896
-7.57658
-7.60424
-7.63188
-7.65943
-7.68679
-7.7139
-7.74064
-7.76693
-7.79265
-7.81771
-7.84196
-7.8653
-7.88758
-7.90867
-7.92842
-7.94667
-7.96328
-7.97806
-7.99085
-8.00148
-8.00976
-8.01551
-8.01854
-8.01865
-8.01566
-8.00936
-7.99954
-7.98602
-7.96859
-7.94705
-7.92119
-7.89083
-7.85575
-7.81577
-7.77071
-7.72036
-7.66456
-7.60312
-7.53589
-7.46269
-7.3834
-7.29787
-7.20595
-7.10753
-7.0025
-6.89077
-6.77224
-6.64686
-6.51457
-6.37532
-6.22909
-6.07585
-5.91562
-5.74841
-5.57425
-5.39319
-5.2053
-5.01068
-4.80942
-4.60165
-4.38751
-4.16716
-3.94077
-3.70854
-3.47068
-3.22741
-2.97898
-2.72563
-2.46764
-2.2053
-1.93888
-1.66871
-1.39508
-1.11833
-0.838783
-0.556769
-0.272609
0.01337
0.300822
0.589418
0.878864
1.16888
1.45914
1.74933
2.03914
2.3283
2.61653
2.90356
3.18915
3.47304
3.75501
4.03486
4.31237
4.58737
4.85968
5.12916
5.39567
5.65908
5.91928
6.17618
6.42969
6.67975
6.92629
7.16927
7.40864
7.64438
7.87645
8.10483
8.32951
8.55046
8.76767
8.98111
9.19074
9.39655
9.59852
9.79665
9.9909
10.1812
10.3676
10.55
10.7283
10.9026
11.0727
11.2387
11.4005
11.5579
11.7116
11.8573
12.0081
12.1001
-6.86344
-6.86872
-6.87716
-6.8845
-6.89007
-6.89457
-6.89847
-6.90204
-6.90549
-6.909
-6.9127
-6.91671
-6.9211
-6.92595
-6.9313
-6.9372
-6.94369
-6.95082
-6.9586
-6.96708
-6.97627
-6.98621
-6.99692
-7.00841
-7.02069
-7.03376
-7.04764
-7.06231
-7.07777
-7.09402
-7.11104
-7.12882
-7.14737
-7.16667
-7.18671
-7.20749
-7.22899
-7.25117
-7.27402
-7.2975
-7.32157
-7.34619
-7.37132
-7.39692
-7.42294
-7.44934
-7.47609
-7.50312
-7.5304
-7.55787
-7.58547
-7.61313
-7.6408
-7.66838
-7.69581
-7.72299
-7.74984
-7.77624
-7.8021
-7.8273
-7.85171
-7.87521
-7.89767
-7.91895
-7.93888
-7.95733
-7.97413
-7.98911
-8.00209
-8.01291
-8.02139
-8.02732
-8.03053
-8.03082
-8.02799
-8.02185
-8.01219
-7.99881
-7.98151
-7.96009
-7.93435
-7.90409
-7.86912
-7.82923
-7.78425
-7.73398
-7.67825
-7.61688
-7.5497
-7.47657
-7.39733
-7.31184
-7.21997
-7.1216
-7.01661
-6.90492
-6.78644
-6.6611
-6.52884
-6.38962
-6.24342
-6.09021
-5.93
-5.76281
-5.58866
-5.40762
-5.21975
-5.02514
-4.82389
-4.61614
-4.40201
-4.18167
-3.95529
-3.72308
-3.48523
-3.24198
-2.99356
-2.74024
-2.48228
-2.21996
-1.95358
-1.68345
-1.40988
-1.13319
-0.853714
-0.571781
-0.287712
-0.00185461
0.285459
0.573906
0.863206
1.15307
1.44317
1.73317
2.0228
2.31176
2.59979
2.88662
3.17198
3.45565
3.7374
4.01701
4.29429
4.56905
4.84112
5.11036
5.37662
5.63978
5.89974
6.15639
6.40967
6.65949
6.9058
7.14856
7.38772
7.62325
7.85512
8.08332
8.30782
8.52861
8.74567
8.95896
9.16846
9.37416
9.57603
9.77407
9.96824
10.1585
10.3448
10.5272
10.7054
10.8796
11.0496
11.2153
11.3767
11.5333
11.6856
11.829
11.9771
12.0619
-6.86649
-6.8719
-6.88049
-6.88809
-6.89401
-6.8989
-6.90321
-6.90718
-6.91101
-6.9149
-6.91896
-6.92331
-6.92803
-6.9332
-6.93886
-6.94507
-6.95186
-6.95926
-6.96732
-6.97605
-6.98549
-6.99566
-7.00656
-7.01823
-7.03067
-7.04389
-7.05788
-7.07265
-7.0882
-7.10451
-7.12158
-7.1394
-7.15797
-7.17727
-7.1973
-7.21804
-7.23947
-7.26158
-7.28435
-7.30773
-7.33171
-7.35625
-7.3813
-7.40684
-7.43281
-7.45919
-7.48592
-7.51296
-7.54026
-7.56778
-7.59544
-7.62318
-7.65095
-7.67865
-7.7062
-7.73353
-7.76053
-7.7871
-7.81314
-7.83852
-7.86312
-7.88682
-7.90947
-7.93094
-7.95106
-7.9697
-7.98667
-8.00183
-8.01498
-8.02595
-8.03457
-8.04063
-8.04396
-8.04435
-8.04162
-8.03555
-8.02595
-8.01262
-7.99536
-7.97396
-7.94823
-7.91796
-7.88296
-7.84305
-7.79802
-7.7477
-7.69191
-7.63047
-7.56322
-7.49
-7.41068
-7.3251
-7.23313
-7.13466
-7.02958
-6.91779
-6.7992
-6.67376
-6.54139
-6.40207
-6.25575
-6.10243
-5.94211
-5.7748
-5.60054
-5.41939
-5.23141
-5.03669
-4.83533
-4.62747
-4.41324
-4.19281
-3.96634
-3.73404
-3.49611
-3.25278
-3.0043
-2.75092
-2.49291
-2.23055
-1.96415
-1.69401
-1.42043
-1.14376
-0.86432
-0.582435
-0.298444
-0.0126915
0.274497
0.562807
0.851957
1.14166
1.43158
1.72139
2.0108
2.29954
2.58733
2.87391
3.15902
3.44243
3.7239
4.00323
4.28022
4.55469
4.82646
5.09538
5.36133
5.62418
5.88382
6.14017
6.39314
6.64266
6.88868
7.13115
7.37004
7.60531
7.83694
8.06491
8.28919
8.50977
8.72664
8.93975
9.1491
9.35466
9.55641
9.75434
9.94841
10.1386
10.3248
10.5071
10.6853
10.8593
11.0291
11.1945
11.3554
11.5111
11.662
11.8032
11.949
12.0277
-6.87207
-6.87743
-6.88587
-6.89348
-6.89955
-6.90467
-6.90923
-6.91347
-6.91758
-6.92173
-6.92606
-6.93066
-6.93563
-6.94103
-6.94691
-6.95332
-6.96031
-6.9679
-6.97614
-6.98503
-6.99462
-7.00491
-7.01594
-7.02771
-7.04024
-7.05352
-7.06757
-7.08239
-7.09797
-7.11431
-7.13141
-7.14925
-7.16783
-7.18714
-7.20717
-7.2279
-7.24933
-7.27142
-7.29416
-7.31753
-7.3415
-7.36603
-7.3911
-7.41666
-7.44267
-7.4691
-7.4959
-7.52303
-7.55043
-7.57806
-7.60585
-7.63375
-7.66166
-7.68953
-7.71727
-7.74478
-7.77197
-7.79874
-7.82497
-7.85055
-7.87535
-7.89923
-7.92207
-7.9437
-7.96399
-7.98278
-7.99989
-8.01516
-8.02842
-8.03948
-8.04817
-8.05428
-8.05764
-8.05805
-8.05531
-8.04922
-8.03958
-8.02619
-8.00885
-7.98736
-7.96152
-7.93112
-7.89599
-7.85593
-7.81074
-7.76025
-7.70427
-7.64264
-7.5752
-7.50178
-7.42225
-7.33646
-7.24428
-7.1456
-7.0403
-6.9283
-6.8095
-6.68384
-6.55127
-6.41173
-6.2652
-6.11167
-5.95114
-5.78362
-5.60916
-5.42781
-5.23964
-5.04473
-4.84319
-4.63515
-4.42076
-4.20016
-3.97354
-3.7411
-3.50304
-3.2596
-3.011
-2.75753
-2.49944
-2.23702
-1.97057
-1.70039
-1.42681
-1.15015
-0.870738
-0.588911
-0.305014
-0.0193762
0.267673
0.555825
0.844798
1.13431
1.42401
1.71358
2.00274
2.29121
2.57872
2.86499
3.14979
3.43287
3.714
3.99298
4.26961
4.54371
4.8151
5.08365
5.34922
5.61168
5.87095
6.12691
6.37951
6.62867
6.87435
7.11648
7.35504
7.59001
7.82134
8.04904
8.27306
8.49341
8.71005
8.92298
9.13215
9.33756
9.53918
9.73699
9.93096
10.1211
10.3072
10.4894
10.6674
10.8413
11.0109
11.1759
11.3362
11.4911
11.6406
11.7798
11.9234
11.9971
-6.87979
-6.88494
-6.89301
-6.90041
-6.90644
-6.91161
-6.91628
-6.92065
-6.92491
-6.92921
-6.93368
-6.93842
-6.94351
-6.94903
-6.95501
-6.96152
-6.96859
-6.97625
-6.98455
-6.9935
-7.00314
-7.01348
-7.02454
-7.03634
-7.04889
-7.0622
-7.07626
-7.09109
-7.10668
-7.12304
-7.14014
-7.158
-7.1766
-7.19593
-7.21598
-7.23674
-7.25819
-7.28032
-7.30311
-7.32652
-7.35054
-7.37513
-7.40026
-7.4259
-7.45202
-7.47857
-7.5055
-7.53278
-7.56035
-7.58814
-7.61611
-7.64419
-7.6723
-7.70036
-7.72829
-7.75599
-7.78338
-7.81033
-7.83674
-7.86249
-7.88745
-7.91148
-7.93444
-7.95619
-7.97658
-7.99543
-8.0126
-8.02791
-8.04118
-8.05223
-8.06088
-8.06694
-8.07023
-8.07054
-8.06767
-8.06144
-8.05164
-8.03807
-8.02054
-7.99883
-7.97276
-7.94213
-7.90675
-7.86641
-7.82095
-7.77018
-7.71392
-7.65199
-7.58425
-7.51053
-7.4307
-7.34461
-7.25214
-7.15316
-7.04756
-6.93526
-6.81617
-6.69023
-6.55737
-6.41755
-6.27075
-6.11695
-5.95615
-5.78838
-5.61367
-5.43208
-5.24367
-5.04854
-4.84679
-4.63855
-4.42397
-4.20319
-3.97641
-3.74381
-3.50562
-3.26205
-3.01335
-2.75979
-2.50163
-2.23916
-1.97267
-1.70249
-1.42891
-1.15229
-0.872942
-0.591214
-0.307443
-0.0219543
0.264918
0.552861
0.841614
1.13087
1.42029
1.70955
1.99839
2.28651
2.57366
2.85955
3.14396
3.42664
3.70736
3.98591
4.2621
4.53575
4.8067
5.07479
5.3399
5.60191
5.86072
6.11625
6.36841
6.61715
6.86241
7.10415
7.34234
7.57695
7.80795
8.03533
8.25906
8.47915
8.69555
8.90826
9.11724
9.32248
9.52396
9.72165
9.91552
10.1055
10.2916
10.4737
10.6516
10.8253
10.9947
11.1593
11.319
11.4729
11.6212
11.7584
11.9001
11.9697
-6.88921
-6.89403
-6.90155
-6.90856
-6.91438
-6.91945
-6.92406
-6.92842
-6.93268
-6.93699
-6.94146
-6.9462
-6.95129
-6.95678
-6.96274
-6.96922
-6.97626
-6.98389
-6.99216
-7.00108
-7.01069
-7.02099
-7.03203
-7.0438
-7.05631
-7.06959
-7.08363
-7.09844
-7.11402
-7.13037
-7.14748
-7.16534
-7.18397
-7.20333
-7.22343
-7.24424
-7.26576
-7.28795
-7.31081
-7.3343
-7.3584
-7.38309
-7.40834
-7.43412
-7.46039
-7.4871
-7.51421
-7.54167
-7.56942
-7.59741
-7.62555
-7.65381
-7.68209
-7.71032
-7.73841
-7.76627
-7.7938
-7.82088
-7.84741
-7.87325
-7.89828
-7.92236
-7.94535
-7.96711
-7.98747
-8.00629
-8.02339
-8.0386
-8.05175
-8.06266
-8.07114
-8.07702
-8.08009
-8.08017
-8.07705
-8.07055
-8.06047
-8.0466
-8.02874
-8.00671
-7.98029
-7.94931
-7.91356
-7.87287
-7.82704
-7.77589
-7.71925
-7.65695
-7.58883
-7.51475
-7.43455
-7.3481
-7.25527
-7.15594
-7.05
-6.93736
-6.81794
-6.69168
-6.5585
-6.41839
-6.27129
-6.11721
-5.95615
-5.78812
-5.61316
-5.43133
-5.2427
-5.04736
-4.84541
-4.63699
-4.42223
-4.20131
-3.97438
-3.74166
-3.50336
-3.2597
-3.01093
-2.75732
-2.49913
-2.23665
-1.97018
-1.70003
-1.42653
-1.15
-0.870783
-0.589225
-0.305643
-0.0203779
0.266231
0.553885
0.84234
1.13126
1.42029
1.70915
1.99757
2.28526
2.57195
2.85739
3.14131
3.4235
3.70371
3.98175
4.25741
4.53053
4.80094
5.06849
5.33306
5.59455
5.85283
6.10784
6.35951
6.60776
6.85256
7.09386
7.33162
7.56583
7.79646
8.0235
8.24692
8.46671
8.68286
8.89534
9.10413
9.3092
9.51054
9.70811
9.90188
10.0918
10.2778
10.4597
10.6376
10.8111
10.9802
11.1444
11.3035
11.4565
11.6035
11.739
11.8788
11.9452
-6.89987
-6.90429
-6.91115
-6.91763
-6.92309
-6.92789
-6.93229
-6.93646
-6.94056
-6.94471
-6.94903
-6.95361
-6.95854
-6.96389
-6.96971
-6.97605
-6.98296
-6.99046
-6.99861
-7.00741
-7.01691
-7.02712
-7.03806
-7.04974
-7.06219
-7.0754
-7.08939
-7.10416
-7.11971
-7.13605
-7.15316
-7.17104
-7.18969
-7.20908
-7.22922
-7.25008
-7.27166
-7.29392
-7.31686
-7.34045
-7.36467
-7.3895
-7.4149
-7.44083
-7.46726
-7.49414
-7.52141
-7.54902
-7.57691
-7.60503
-7.6333
-7.66166
-7.69003
-7.71835
-7.74651
-7.77442
-7.80197
-7.82906
-7.85556
-7.88135
-7.90631
-7.93029
-7.95315
-7.97475
-7.99494
-8.01354
-8.03041
-8.04536
-8.05824
-8.06884
-8.07701
-8.08254
-8.08526
-8.08496
-8.08146
-8.07456
-8.06407
-8.04978
-8.0315
-8.00904
-7.98219
-7.95077
-7.91459
-7.87346
-7.8272
-7.77562
-7.71856
-7.65585
-7.58732
-7.51284
-7.43226
-7.34543
-7.25223
-7.15254
-7.04626
-6.93329
-6.81355
-6.68698
-6.55351
-6.41311
-6.26575
-6.11142
-5.95012
-5.78186
-5.6067
-5.42467
-5.23586
-5.04036
-4.83827
-4.62971
-4.41484
-4.19382
-3.96682
-3.73405
-3.49571
-3.25203
-3.00327
-2.74968
-2.49155
-2.22915
-1.96279
-1.69277
-1.41942
-1.14309
-0.864114
-0.582814
-0.29952
-0.0145908
0.27164
0.55891
0.846954
1.13541
1.42394
1.7123
2.00019
2.28734
2.57347
2.85834
3.14168
3.42326
3.70287
3.98029
4.25533
4.52783
4.79761
5.06454
5.32849
5.58936
5.84705
6.10148
6.35258
6.60029
6.84457
7.08537
7.32267
7.55645
7.78667
8.01333
8.23642
8.4559
8.67178
8.88402
9.09261
9.29752
9.49872
9.69618
9.88986
10.0797
10.2656
10.4475
10.6252
10.7986
10.9674
11.1312
11.2896
11.4417
11.5875
11.7214
11.8595
11.9234
-6.9114
-6.91537
-6.9215
-6.92735
-6.93231
-6.93667
-6.94067
-6.94447
-6.94821
-6.95203
-6.95603
-6.96031
-6.96495
-6.97002
-6.97558
-6.98167
-6.98835
-6.99564
-7.00358
-7.0122
-7.02153
-7.03159
-7.04239
-7.05395
-7.06629
-7.0794
-7.0933
-7.108
-7.12349
-7.13978
-7.15686
-7.17472
-7.19336
-7.21276
-7.23292
-7.25381
-7.27544
-7.29777
-7.3208
-7.3445
-7.36883
-7.39376
-7.41926
-7.44529
-7.47179
-7.49873
-7.52605
-7.5537
-7.5816
-7.6097
-7.63794
-7.66625
-7.69456
-7.72279
-7.75084
-7.77861
-7.806
-7.8329
-7.85918
-7.88473
-7.90941
-7.93309
-7.95563
-7.97688
-7.9967
-8.01491
-8.03137
-8.0459
-8.05833
-8.06848
-8.07618
-8.08124
-8.08348
-8.08269
-8.0787
-8.0713
-8.06031
-8.04552
-8.02675
-8.00379
-7.97646
-7.94456
-7.9079
-7.86631
-7.81959
-7.76757
-7.71008
-7.64695
-7.57803
-7.50317
-7.42222
-7.33504
-7.2415
-7.14149
-7.0349
-6.92165
-6.80165
-6.67482
-6.54112
-6.4005
-6.25295
-6.09844
-5.93697
-5.76858
-5.59329
-5.41116
-5.22227
-5.02669
-4.82455
-4.61597
-4.4011
-4.18009
-3.95312
-3.7204
-3.48214
-3.23857
-2.98993
-2.7365
-2.47854
-2.21634
-1.95021
-1.68045
-1.4074
-1.1314
-0.852781
-0.57186
-0.289001
-0.00455533
0.281167
0.567933
0.855427
1.14327
1.43118
1.7189
2.00614
2.29263
2.57808
2.86226
3.1449
3.42578
3.70467
3.98136
4.25568
4.52745
4.79651
5.06273
5.32598
5.58616
5.84318
6.09696
6.34744
6.59455
6.83825
7.07852
7.31532
7.54862
7.77841
8.00468
8.22741
8.44658
8.66218
8.87419
9.08258
9.28733
9.48841
9.68577
9.87937
10.0691
10.255
10.4368
10.6144
10.7876
10.9561
11.1196
11.2774
11.4287
11.5733
11.7057
11.8421
11.9043
-6.92398
-6.9275
-6.93291
-6.93803
-6.94232
-6.94604
-6.94941
-6.9526
-6.95576
-6.95902
-6.9625
-6.96629
-6.97048
-6.97513
-6.98029
-6.98603
-6.99237
-6.99935
-7.007
-7.01535
-7.02443
-7.03425
-7.04483
-7.05618
-7.06832
-7.08126
-7.09501
-7.10956
-7.12491
-7.14107
-7.15802
-7.17578
-7.19433
-7.21368
-7.23379
-7.25465
-7.27626
-7.29857
-7.32158
-7.34524
-7.36952
-7.39439
-7.4198
-7.44572
-7.47209
-7.49887
-7.52601
-7.55345
-7.58113
-7.60899
-7.63697
-7.66501
-7.69302
-7.72093
-7.74863
-7.77602
-7.803
-7.82945
-7.85527
-7.88034
-7.90451
-7.92767
-7.94968
-7.97038
-7.98963
-8.00727
-8.02315
-8.0371
-8.04894
-8.05851
-8.06562
-8.0701
-8.07175
-8.07039
-8.06583
-8.05788
-8.04634
-8.03102
-8.01172
-7.98825
-7.96043
-7.92805
-7.89094
-7.8489
-7.80176
-7.74935
-7.69149
-7.62801
-7.55876
-7.48358
-7.40233
-7.31487
-7.22107
-7.12083
-7.01404
-6.9006
-6.78043
-6.65346
-6.51964
-6.37893
-6.2313
-6.07674
-5.91524
-5.74684
-5.57157
-5.38948
-5.20064
-5.00514
-4.80311
-4.59465
-4.37992
-4.15909
-3.93231
-3.69981
-3.46179
-3.21849
-2.97015
-2.71703
-2.45942
-2.1976
-1.93187
-1.66256
-1.38998
-1.11447
-0.836368
-0.556018
-0.273783
0.010004
0.295066
0.581161
0.867927
1.155
1.44213
1.72906
2.0155
2.30117