/*--------------------------------*- C++ -*----------------------------------*\
  =========                 |
  \\      /  F ield         | OpenFOAM: The Open Source CFD Toolbox
   \\    /   O peration     | Website:  https://openfoam.org
    \\  /    A nd           | Version:  9
     \\/     M anipulation  |
\*---------------------------------------------------------------------------*/
FoamFile
{
    format      ascii;
    class       volScalarField;
    location    "22.15";
    object      p;
}
// * * * * * * * * * * * * * * * * * * * * * * * * * * * * * * * * * * * * * //

dimensions      [0 2 -2 0 0 0 0];

internalField   nonuniform List<scalar> 
918
(
23.4692
23.5791
0.958373
22.8866
1.01216
23.0956
3.27827
13.7865
19.2425
2.93435
2.62385
14.4085
20.6385
16.8799
12.9961
0.924484
14.0526
2.2522
18.4601
1.39909
12.9948
20.4479
21.5367
19.2842
14.1214
14.3749
18.6008
1.14965
0.109241
0.25792
0.977362
0.409211
0.148037
21.6325
22.3091
22.2474
15.4951
10.406
3.60243
3.80654
2.98864
2.81228
13.8291
13.9289
5.86967
13.7656
13.7614
16.644
19.1105
19.2541
19.5473
19.3364
19.7227
5.97782
2.78648
2.60733
2.87548
2.94908
2.98082
2.69635
2.67774
2.48189
2.33593
13.8879
14.4815
14.5367
14.2679
14.2156
22.4551
21.6982
22.0329
21.1393
21.2847
20.2146
19.829
17.2555
17.608
16.4818
16.1009
12.7865
12.7477
13.2161
13.4658
0.145803
1.07463
1.22245
14.0595
14.0959
14.0962
14.1107
8.29147
2.19392
2.19723
17.9005
17.477
20.4819
20.7491
20.1961
20.0106
1.53157
1.52682
1.15351
1.18282
0.951689
13.3359
13.4899
19.2356
18.4025
14.1549
14.0549
14.1299
11.5002
13.9103
13.9837
15.3246
15.7801
14.9693
15.4058
18.1708
17.7528
19.0374
19.4746
0.394546
0.155535
0.687139
0.317963
0.516418
15.3634
15.158
15.6109
15.6618
15.893
10.4107
10.3409
10.3851
10.3051
4.15328
4.46775
2.26142
2.57646
2.42748
9.87184
13.9451
13.9917
4.81434
5.51817
5.18188
6.35186
6.72607
16.0097
16.4463
16.185
17.7313
16.9362
17.2844
19.8135
19.3027
19.6032
6.37366
6.60878
5.61192
5.25282
2.24321
2.49086
2.43367
2.98028
2.95803
3.21592
3.34536
2.69658
2.55357
2.89148
2.77516
2.82694
2.16582
2.03603
13.612
13.398
14.1509
14.3295
15.0966
14.9483
14.6549
14.8237
19.0241
19.4276
19.4611
19.0769
11.548
10.1577
13.7203
13.9958
0.302203
0.265221
0.138047
0.38074
0.400175
0.141704
2.01411
1.82569
1.40464
1.6802
14.057
14.0167
8.53211
8.75164
8.12815
7.87155
16.3146
16.4649
17.099
16.6988
1.96298
1.67699
1.80664
13.6526
13.5253
13.6321
10.9353
10.3689
11.9779
12.2476
13.9919
14.0356
14.0316
15.6842
16.0027
19.8255
20.0962
19.923
20.3088
21.3716
21.0229
20.6381
14.5392
14.9476
14.786
16.1283
15.7619
15.9814
15.1892
15.4939
15.3518
10.3724
10.4186
10.1244
10.2021
10.25
10.1973
9.80941
9.68261
14.0781
14.0333
14.0573
7.25383
7.75175
4.87175
4.54248
12.5439
13.2171
12.8927
18.6538
17.9762
18.7092
18.3383
17.8883
18.2118
10.4293
10.3907
10.4241
14.9201
14.258
14.6099
2.43841
2.07435
2.23713
8.94767
9.04055
6.97772
7.59547
7.25803
16.3043
16.6447
17.3248
16.4366
16.9042
17.4115
17.1896
9.9449
10.0772
9.99426
9.66664
9.56036
9.73578
8.33673
8.94988
3.6121
4.27019
3.96532
9.20841
9.43777
9.28515
18.6302
19.1651
0.767584
1.15647
19.5951
19.3188
0.140531
0.242244
14.2565
12.5539
7.26431
17.1974
16.63
18.9699
3.19246
6.10523
2.80685
3.38055
2.68632
14.6156
14.2496
13.3408
0.4543
1.25711
1.70833
2.90171
18.4106
17.7355
18.8516
19.1717
19.2261
0.688392
0.914435
0.584388
1.24246
1.03138
1.27567
15.5511
15.6492
4.32788
18.8586
19.1629
19.1806
17.6574
18.61
17.6675
0.935962
0.642841
0.708213
10.0812
12.1219
14.2167
13.7693
13.9663
13.9884
13.7393
14.8726
14.5421
14.5071
14.9919
13.9675
13.8227
7.73546
6.38508
8.07012
7.71038
17.0988
16.6867
16.4936
16.2393
18.085
17.6111
18.4615
17.8499
18.3117
18.5986
2.94141
3.13162
3.01289
2.52264
6.14532
6.61159
5.49003
5.6372
4.26047
2.42632
2.52516
2.75129
2.58254
2.93074
2.67875
2.94272
2.57845
2.32381
2.32058
2.92976
2.73752
2.60317
14.594
14.5324
14.3333
14.3714
14.3539
14.4696
13.5353
13.94
13.5677
12.399
12.98
12.5073
0.826419
0.662024
0.525594
1.32474
1.35188
1.11082
0.83534
1.17463
1.20191
0.814902
1.5443
1.44533
3.15937
2.64912
8.84807
7.97654
6.90139
16.8007
17.6025
16.7721
18.0129
18.4298
18.5352
18.1556
17.6474
15.7299
15.725
15.3851
15.3385
4.77302
3.73625
4.96968
4.53886
10.4809
14.0657
11.8429
10.8043
11.1005
13.4243
13.9319
13.5841
13.7213
13.2961
12.8243
13.5164
13.0501
13.1513
12.9302
15.7209
16.1961
15.8025
15.223
15.243
10.6013
12.0166
5.46793
5.64158
7.24455
6.53911
13.5122
13.9338
13.9184
13.5576
13.7456
13.7461
13.6069
13.7809
13.8612
13.7556
11.8247
10.1444
9.04597
9.03957
14.0774
12.3466
12.931
12.4137
16.1205
16.637
16.2517
15.6462
16.1312
15.603
15.6303
15.8434
17.2016
16.9512
16.721
17.1078
3.05297
3.0014
3.64541
3.13544
3.03737
2.82274
3.48368
4.75768
4.41532
6.72006
7.2695
4.579
3.3726
3.7918
4.80599
5.5415
5.51294
3.96964
4.50261
4.92979
4.44112
5.22765
4.73158
2.71742
3.0227
2.8609
2.83493
3.38187
3.88056
3.37583
2.47933
2.59021
2.25515
2.11799
3.53389
2.99216
3.02869
3.67684
1.10671
1.32913
1.44163
2.41319
1.91199
1.97817
15.1826
14.8267
14.9603
14.2395
14.307
14.2481
13.8726
15.2401
14.9621
15.0615
13.71
13.7968
13.6101
13.9054
14.3213
14.6205
15.4524
15.1735
14.4126
14.5636
14.2145
14.1428
13.4648
12.9018
12.8413
1.11287
0.823409
0.98396
0.911864
0.6078
0.800017
2.18318
1.57248
1.96954
1.72736
1.96013
1.40383
1.30218
4.25314
5.06058
3.96704
3.36823
3.06835
8.90562
9.01739
8.1662
7.86197
8.20369
8.43433
8.38438
7.14044
7.56925
7.38185
9.92086
9.58634
17.5868
17.5309
17.2021
17.0432
17.2697
5.76154
7.66493
6.79979
7.91654
10.2096
10.5059
9.31235
8.70741
9.45999
9.53699
14.0474
14.1236
13.5643
14.0502
14.0787
11.8352
12.8825
13.4973
13.3117
13.8317
13.9126
12.9738
13.5624
13.4775
12.76
12.8131
12.1281
12.4665
11.9946
11.7937
14.0561
13.9509
14.2206
13.7715
14.1507
13.7151
14.0303
14.0283
14.3089
13.4109
12.8323
12.8508
13.2769
12.977
13.3229
13.487
9.30878
9.94993
10.3897
10.9256
10.6334
10.4149
10.2822
10.5838
10.5609
10.8318
10.7513
10.6019
11.5615
13.4187
13.7037
13.8054
13.6015
13.6476
13.3402
13.6134
13.5425
13.9203
14.0084
14.058
13.1388
13.2952
13.4904
13.374
11.6757
10.0963
9.94906
9.50896
7.5773
8.04721
11.0251
9.90248
8.91821
8.98993
12.1688
10.8062
11.6195
12.0425
10.6942
10.3063
12.9715
13.7598
13.9796
13.7036
12.0603
12.1862
12.6359
13.0794
13.2688
13.7249
15.8604
16.436
16.5139
16.238
16.1
16.1999
15.9499
16.053
16.5271
16.6537
16.4849
2.87811
2.99136
2.92157
2.84716
3.08392
2.85901
3.95301
3.94307
3.1541
3.33478
3.35465
3.46091
2.92853
2.97186
4.82539
5.06136
5.33324
4.83198
6.17468
6.82059
7.40284
7.08551
5.7891
5.87014
6.18675
3.50511
3.53315
3.2511
3.70763
3.76052
2.60985
2.23756
2.04245
2.561
2.66403
2.04906
1.76795
1.81689
2.33036
2.05021
1.80466
14.9751
14.7335
14.7548
14.5346
14.5893
14.9841
15.2049
15.015
15.1533
15.2044
14.8035
14.6924
14.8635
1.81813
1.49271
1.62261
1.58015
1.64222
1.54882
1.73614
7.60821
6.41511
6.80242
5.97885
4.12148
4.64193
9.54323
9.96529
10.0036
9.71604
9.50533
9.87088
9.72183
9.71499
8.26524
9.33662
8.8706
9.26806
9.28858
9.35696
9.0697
9.08103
10.5851
10.6185
9.48319
10.1235
9.3316
7.93239
8.09947
9.11297
10.0866
10.4079
10.2523
9.98143
9.75289
10.1176
10.1723
10.2327
10.2222
8.75242
8.71148
8.31122
13.9691
13.8757
14.0223
14.0274
14.1544
13.9789
13.816
14.0932
14.1475
13.9318
11.0799
11.139
11.3847
12.1319
12.1839
12.0934
11.3381
13.1029
12.7581
13.3966
13.3431
13.4149
13.0048
12.8282
13.0989
10.081
11.4537
10.9863
11.25
10.0636
9.30741
13.224
13.278
13.3437
13.6168
13.5745
14.1581
15.8303
15.7002
15.7476
15.7906
15.4023
15.4395
4.17432
3.82752
4.54775
4.50444
4.06286
3.76315
2.287
1.96881
1.78131
1.65556
1.88895
1.94936
8.16186
8.19066
6.33329
7.35626
5.87696
4.93611
4.79225
5.95474
7.13617
7.19601
8.51639
9.19513
8.7533
8.57935
7.92197
8.25277
10.1208
10.2147
10.1154
10.4341
9.96684
11.7148
11.297
11.6459
13.2603
12.9695
12.3713
12.258
12.2229
12.8162
11.9477
11.1792
11.8919
12.548
12.5062
11.1203
10.8754
11.3019
11.2855
10.1994
10.7201
10.4821
10.8344
10.5492
)
;

boundaryField
{
    wall-4
    {
        type            zeroGradient;
    }
    velocity-inlet-5
    {
        type            zeroGradient;
    }
    velocity-inlet-6
    {
        type            zeroGradient;
    }
    pressure-outlet-7
    {
        type            fixedValue;
        value           uniform 0;
    }
    wall-8
    {
        type            zeroGradient;
    }
    frontAndBackPlanes
    {
        type            empty;
    }
}


// ************************************************************************* //
