/*--------------------------------*- C++ -*----------------------------------*\
  =========                 |
  \\      /  F ield         | OpenFOAM: The Open Source CFD Toolbox
   \\    /   O peration     | Website:  https://openfoam.org
    \\  /    A nd           | Version:  9
     \\/     M anipulation  |
\*---------------------------------------------------------------------------*/
FoamFile
{
    format      ascii;
    class       volScalarField;
    location    "1.21";
    object      p_rgh;
}
// * * * * * * * * * * * * * * * * * * * * * * * * * * * * * * * * * * * * * //

dimensions      [1 -1 -2 0 0 0 0];

internalField   nonuniform List<scalar> 
2268
(
1097.56
1098.34
1097.47
1094.23
1088.48
1080.22
1069.55
1056.78
1042.55
1027.66
1012.65
997.464
981.464
963.034
942.493
919.632
895.807
873.128
852.396
831.282
808.001
786.885
780.976
1096.65
1097.21
1096.54
1093.15
1087.09
1078.55
1067.78
1055.27
1041.75
1028
1014.52
1001.13
986.798
969.853
948.691
924.902
899.293
872.694
847.885
824.404
801.264
781.86
779.556
1095.93
1096.29
1095.6
1091.93
1085.55
1076.78
1066.01
1053.93
1041.35
1029
1017.18
1005.43
992.416
976.893
956.665
931.323
901.879
872.085
844.563
819.648
797.411
779.599
777.876
1095.4
1095.81
1095.1
1091.24
1084.66
1075.76
1065.09
1053.43
1041.64
1030.38
1019.81
1009.19
996.95
981.498
961.031
934.326
903.254
871.885
842.875
817.426
796.211
779.017
774.354
1095.16
1095.75
1095.09
1091.19
1084.52
1075.59
1065.01
1053.66
1042.41
1031.89
1022.12
1012.18
1000.3
984.611
963.377
935.774
903.777
871.192
841.09
816.349
795.805
778.69
769.926
1095.23
1096.11
1095.56
1091.69
1084.99
1076.03
1065.5
1054.33
1043.42
1033.38
1024.14
1014.61
1002.87
986.868
964.931
936.537
903.616
868.269
837.583
814.921
794.572
777.781
763.684
1095.66
1096.87
1096.46
1092.65
1085.91
1076.91
1066.37
1055.28
1044.54
1034.8
1025.92
1016.68
1005
988.689
966.138
936.966
902.436
863.642
835.57
811.781
791.648
774.826
752.702
1096.46
1098.02
1097.75
1094
1087.21
1078.12
1067.5
1056.4
1045.72
1036.14
1027.5
1018.45
1006.81
990.263
967.215
937.281
892.06
852.242
836.555
807.089
785.45
766.396
735.752
623.358
627.25
613.978
590.633
559.253
515.776
478.325
471.329
471.051
471.296
472.794
477.55
483.71
489.788
500.861
516.738
535.43
554.132
568.304
618.6
620.975
610.09
591.72
563.748
517.912
456.534
440.191
451.941
465.524
472.861
478.941
486.436
492.474
503.879
518.639
536.881
554.861
569.48
612.969
616.366
606.402
592.022
568.359
500.356
424.957
417.696
407.722
418.724
450.233
471.936
485.543
496.443
498.879
499.516
524.531
553.956
572.549
603.153
602.643
604.142
588.915
567.434
444.709
422.181
466.647
406.529
369.48
385.49
428.78
452.56
476.993
472.676
481.643
499.259
544.283
577.703
604.478
594.073
584.16
576.096
516.42
388.559
469.373
496.519
496.128
367.35
320.034
311.669
345.692
406.864
426.688
484.556
523.087
565.325
584.537
599.311
617.839
569.202
496.841
387.17
378.469
461.44
502.345
504.895
465.435
314.624
296.682
288.396
277.824
378.962
550.974
572.289
575.43
592.733
587.748
623.856
624.685
549.404
372.213
368.847
466.307
509.03
513.09
528.489
362.161
293.699
285.484
274.897
291.951
522.812
577.116
580.082
601.217
581.576
626.793
630.105
628.615
385.732
357.506
522.498
514.201
521.348
536.012
469.83
381.558
368.02
278.803
276.243
490.88
556.024
581.616
609.841
1098.27
1100.38
1100.28
1096.6
1089.69
1080.37
1069.53
1058.26
1047.52
1038.01
1029.61
1020.82
1009.32
992.613
969.142
932.728
879.75
845.116
831.664
796.934
767.222
741.584
719.446
1102.19
1104.98
1105.13
1101.38
1094.21
1084.39
1072.83
1060.77
1049.11
1038.9
1030.75
1023.03
1012.93
997.247
974.077
939.889
881.37
839.228
814.697
703.893
556.82
441.293
419.908
1107.04
1110.23
1110.7
1107.17
1100.1
1089.87
1077.32
1063.99
1049.28
1036.8
1029.03
1024.22
1018.33
1005.95
984.514
953.752
900.719
814.104
541.111
204.393
73.3327
16.9028
10.7495
1112.68
1115.99
1117.34
1115.21
1109.47
1099.16
1084.9
1049.15
867.837
830.032
886.882
978.704
1028.97
1024.29
1007.56
926.872
656.029
380.963
49.9182
12.9422
11.8805
10.7802
9.8526
1084.85
1095.92
1099.55
1089.22
1053.13
981.941
784.318
530.271
474.507
319.71
301.564
397.225
622.527
748.372
660.408
331.064
68.2634
11.856
12.9043
12.9797
14.4242
12.269
9.32762
371.401
410.908
418.86
383.488
300.981
215.417
171.142
277.646
402.706
260.15
151.534
57.8266
26.7286
50.7001
28.643
8.44923
10.0352
11.1179
11.8448
22.6303
42.5657
36.931
9.81667
-0.386948
-0.116252
-0.333798
-0.313947
0.257869
2.70783
84.9911
330.314
414.094
412.164
248.667
28.7348
12.3564
8.90457
8.50325
8.88305
9.54565
10.2161
14.4254
44.8682
43.5741
35.4527
10.4323
-0.255323
-0.250318
-0.278626
-0.282105
-0.248716
5.43427
36.2646
52.4209
126.571
237.065
281.883
153.605
41.2148
8.6267
8.17137
8.49906
8.9847
9.67922
36.5065
45.9975
19.2217
0.441824
2.25186
-0.2486
-0.250893
-0.260408
-0.25108
0.0968475
0.343468
-0.408564
-0.350573
-0.307824
19.9932
140.799
189.187
141.147
8.40695
7.63216
7.6573
23.2753
40.2363
39.4402
10.36
0.318827
0.374966
0.357684
-0.221827
-0.239063
-0.253504
-0.228155
-0.21108
-0.287416
-0.317777
-0.335497
-0.343421
0.000842571
12.7568
59.9854
91.384
45.6295
7.10353
7.02543
20.1424
21.6683
0.551458
0.235697
0.321477
0.337914
0.349566
-0.201465
-0.22487
-0.241931
-0.250443
-0.262531
-0.281163
-0.303156
-0.316507
-0.329223
-0.314406
-0.190836
1.80141
11.8898
23.6567
14.7884
0.889886
0.372185
0.0409737
0.225064
0.225844
0.256655
0.28822
0.317864
-0.185339
-0.211012
-0.230289
-0.241933
-0.25262
-0.266699
-0.281536
-0.292163
-0.303331
-0.315343
-0.305843
-0.246127
-0.1439
0.231931
1.26187
-0.118531
-0.0779926
0.0336561
0.104953
0.155309
0.202107
0.241567
0.275558
-0.173461
-0.198252
-0.217169
-0.228956
-0.23908
-0.250191
-0.261073
-0.269681
-0.277015
-0.282943
-0.283707
-0.273141
-0.248118
-0.202212
-0.154912
-0.114938
-0.0725351
-0.000389865
0.0653928
0.117705
0.1636
0.202307
0.235783
-0.165513
-0.187355
-0.204262
-0.215208
-0.224393
-0.233565
-0.242086
-0.248844
-0.253525
-0.255308
-0.252397
-0.242522
-0.223746
-0.191863
-0.150493
-0.111665
-0.0659456
-0.00909286
0.0451066
0.0917314
0.133023
0.168997
0.200541
-0.160149
-0.177886
-0.191813
-0.201309
-0.209313
-0.216937
-0.223719
-0.228834
-0.231601
-0.231026
-0.225776
-0.214721
-0.197087
-0.171292
-0.138272
-0.101312
-0.0598266
-0.0138636
0.0307685
0.0714101
0.108258
0.141104
0.17015
-0.155951
-0.169054
-0.179623
-0.187404
-0.194089
-0.20028
-0.205569
-0.209257
-0.210598
-0.20867
-0.202439
-0.191082
-0.174131
-0.151154
-0.122552
-0.0906872
-0.0551224
-0.0170518
0.0205584
0.0559775
0.0886916
0.118261
0.144567
-0.151409
-0.160041
-0.167395
-0.173464
-0.1788
-0.18361
-0.187525
-0.189943
-0.190165
-0.187402
-0.180857
-0.169912
-0.154239
-0.133799
-0.109101
-0.0812054
-0.0506052
-0.0183428
0.0138393
0.0446861
0.0735317
0.0998516
0.123394
-0.14547
-0.150397
-0.155008
-0.159513
-0.16354
-0.167026
-0.169657
-0.170923
-0.170221
-0.166896
-0.160329
-0.150055
-0.135855
-0.117781
-0.0962554
-0.0719644
-0.045557
-0.0179229
0.0097734
0.0365858
0.0618766
0.0851176
0.106011
-0.138108
-0.14009
-0.142603
-0.14571
-0.148499
-0.150757
-0.152212
-0.152449
-0.150971
-0.14725
-0.140803
-0.131277
-0.11852
-0.102604
-0.083859
-0.062809
-0.0400509
-0.01632
0.00753867
0.0307903
0.0528693
0.0732781
0.0917125
-0.129951
-0.12982
-0.130594
-0.132328
-0.133962
-0.135124
-0.135552
-0.134909
-0.132801
-0.128813
-0.122571
-0.113809
-0.102414
-0.0884551
-0.0721898
-0.0540264
-0.034464
-0.0140944
0.00644049
0.0265576
0.0457685
0.063618
0.0798103
-0.121531
-0.119914
-0.119277
-0.119698
-0.120258
-0.120471
-0.12005
-0.118707
-0.116127
-0.111994
-0.106023
-0.0980112
-0.0878753
-0.0756714
-0.061597
-0.0459672
-0.0291821
-0.0117112
0.00594595
0.0233206
0.039996
0.0555627
0.069742
-0.113002
-0.11052
-0.108796
-0.108056
-0.107657
-0.107075
-0.105985
-0.104125
-0.101236
-0.0970722
-0.0914197
-0.0841264
-0.0751291
-0.0644705
-0.0523003
-0.0388594
-0.0244618
-0.00947776
0.00569913
0.0206897
0.0351409
0.0486896
0.0610797
-0.104502
-0.101612
-0.0991516
-0.0974995
-0.0963056
-0.0950795
-0.093484
-0.0912667
-0.0882069
-0.0841075
-0.0788047
-0.0721842
-0.0641988
-0.0548807
-0.0443433
-0.032771
-0.0204088
-0.00754795
0.00549955
0.0184263
0.0309353
0.0427084
0.0535144
-0.0961824
-0.0931648
-0.0902891
-0.0880136
-0.0862159
-0.0844929
-0.0825254
-0.080076
-0.0769488
-0.0729798
-0.0680392
-0.0620395
-0.0549454
-0.046782
-0.0376363
-0.0276506
-0.0170169
-0.00596477
0.00525761
0.0164012
0.0272177
0.0374312
0.046837
-0.088164
-0.0851879
-0.0821444
-0.0795058
-0.0772982
-0.0752179
-0.0729893
-0.0703995
-0.067275
-0.0634754
-0.0588941
-0.0534616
-0.047151
-0.0399822
-0.0320229
-0.0233846
-0.0142192
-0.00470842
0.00494949
0.0145529
0.0238956
0.0327409
0.0409101
-0.0805276
-0.0776912
-0.0746489
-0.0718513
-0.0694069
-0.0670989
-0.0647051
-0.0620458
-0.0589712
-0.0553609
-0.0511254
-0.0462079
-0.0405866
-0.0342774
-0.0273329
-0.0198423
-0.0119272
-0.00373237
0.00458322
0.0128562
0.0209163
0.0285623
0.0356409
-0.0733161
-0.0706698
-0.067735
-0.0649248
-0.0623842
-0.0599623
-0.0574888
-0.0548193
-0.0518296
-0.0484185
-0.0445109
-0.0400593
-0.0350455
-0.0294815
-0.023409
-0.0169004
-0.0100535
-0.00298469
0.00417779
0.0113014
0.0182459
0.024842
0.03096
-0.0665404
-0.0641052
-0.0613405
-0.0586157
-0.0560851
-0.0536437
-0.0511647
-0.048537
-0.0456619
-0.0424564
-0.0388587
-0.0348293
-0.0303528
-0.0254375
-0.0201177
-0.0144526
-0.00852126
-0.00241828
0.00375235
0.00988279
0.0158578
0.021536
0.0268089
-0.0601894
-0.0579699
-0.0554091
-0.0528319
-0.0503865
-0.047999
-0.0455763
-0.043036
-0.0403018
-0.0373082
-0.0340052
-0.030361
-0.0263622
-0.0220151
-0.0173484
-0.0124107
-0.00726688
-0.00199435
0.00332186
0.00859363
0.0137264
0.0186027
0.0231329
-0.0542386
-0.0522313
-0.0498898
-0.047497
-0.0451874
-0.0429077
-0.0405904
-0.0381757
-0.0356063
-0.0328316
-0.0298118
-0.0265231
-0.0229522
-0.0191064
-0.0150097
-0.0107025
-0.00623876
-0.00168249
0.00289615
0.00742474
0.0118255
0.0160014
0.0198792
-0.0486572
-0.0468543
-0.0447363
-0.0425472
-0.0404052
-0.0382711
-0.0360964
-0.0338386
-0.0314549
-0.0289068
-0.0261642
-0.0232044
-0.0200216
-0.016622
-0.0130263
-0.00926884
-0.00539524
-0.00145922
0.00248074
0.00636471
0.0101286
0.0136924
0.0169965
-0.043412
-0.0418038
-0.0399058
-0.0379278
-0.0359717
-0.0340087
-0.0320045
-0.0299282
-0.0277479
-0.0254332
-0.0229595
-0.0203116
-0.017485
-0.0144863
-0.0113347
-0.00806019
-0.00470212
-0.00130624
0.00207818
0.0054011
0.00860947
0.0116374
0.0144365
-0.0384699
-0.0370452
-0.0353586
-0.0335908
-0.0318298
-0.0300554
-0.0282425
-0.0263674
-0.024404
-0.0223276
-0.020119
-0.017767
-0.0152698
-0.012635
-0.00988089
-0.00703464
-0.00413074
-0.00120872
0.00168945
0.00452165
0.00724373
0.00980138
0.0121555
-0.0338001
-0.0325445
-0.0310565
-0.0294928
-0.0279317
-0.0263591
-0.0247542
-0.0230953
-0.0213589
-0.0195237
-0.0175747
-0.0155045
-0.0133141
-0.0110129
-0.00861852
-0.00615619
-0.00365661
-0.00115426
0.00131483
0.00371503
0.00600941
0.00815314
0.0101145
-0.0293724
-0.0282696
-0.0269639
-0.0255962
-0.024239
-0.0228802
-0.021497
-0.0200651
-0.0185608
-0.0169658
-0.015269
-0.0134673
-0.0115647
-0.00957217
-0.00750739
-0.00539374
-0.0032587
-0.00113239
0.000954259
0.00297108
0.00488716
0.00666541
0.00827989
-0.0251486
-0.0241823
-0.0230433
-0.0218681
-0.0207242
-0.0195927
-0.0184412
-0.0172402
-0.0159665
-0.0146056
-0.0131515
-0.0116055
-0.0099746
-0.00827124
-0.00651275
-0.00472061
-0.00291916
-0.00113444
0.000607256
0.0022806
0.00385985
0.00531437
0.00662276
-0.0211046
-0.0202541
-0.0192698
-0.0182918
-0.0173753
-0.0164813
-0.015563
-0.0145872
-0.0135348
-0.0123975
-0.0111753
-0.00987365
-0.00850211
-0.00707366
-0.00560463
-0.00411418
-0.00262325
-0.00115379
0.000272396
0.00163452
0.00291152
0.00407839
0.00511745
-0.0172086
-0.0164591
-0.0156258
-0.0148615
-0.0141871
-0.0135303
-0.0128331
-0.0120664
-0.0112201
-0.0102942
-0.00929446
-0.00822938
-0.00710957
-0.00594743
-0.00475742
-0.0035557
-0.00235946
-0.00118631
-5.3525e-05
0.00102264
0.0020257
0.00293591
0.0037392
-0.0134237
-0.0127584
-0.0120867
-0.0115702
-0.0111454
-0.010708
-0.0102063
-0.00962668
-0.00897131
-0.00824789
-0.00746573
-0.00663451
-0.00576422
-0.00486545
-0.00394986
-0.00303001
-0.00211891
-0.00122958
-0.000374507
0.000434774
0.00118655
0.00186645
0.00246361
-0.00977825
-0.00914914
-0.00867611
-0.00842472
-0.00822773
-0.00797146
-0.00763262
-0.00721984
-0.00674583
-0.00622199
-0.00565811
-0.00506275
-0.00444379
-0.00380903
-0.00316667
-0.00252525
-0.00189323
-0.00127876
-0.000689233
-0.000131176
0.000388776
0.000861804
0.00127854
-0.0063799
-0.0061634
-0.0056363
-0.00546292
-0.0053936
-0.00525459
-0.00504505
-0.00478711
-0.0044944
-0.00417569
-0.00383771
-0.00348594
-0.00312515
-0.00275976
-0.00239417
-0.00203259
-0.00167863
-0.00133521
-0.00100433
-0.000687108
-0.000384626
-9.91008e-05
0.000169953
-0.00139488
-0.0049197
-0.00270363
-0.0023641
-0.0022762
-0.00219815
-0.00211939
-0.00204158
-0.0019645
-0.0018892
-0.00181739
-0.00175072
-0.00169044
-0.00163731
-0.00159151
-0.00155235
-0.00151799
-0.00148541
-0.00145056
-0.00140831
-0.00135303
-0.00127927
-0.00117834
724.498
711.303
690.756
654.694
522.618
514.668
333.851
220.376
31.6292
44.4664
60.7995
64.7197
9.31013
8.66539
7.91246
7.29151
8.69489
11.4125
10.3235
6.08251
21.6718
23.3538
22.6543
18.4632
23.6825
23.5393
19.2269
12.5982
13.2835
9.02573
0.651701
0.674589
0.397696
0.492678
0.543587
0.55025
0.377413
0.404785
0.432913
0.455215
0.343441
0.362044
0.38123
0.398184
0.300155
0.316096
0.331631
0.345797
0.259069
0.273502
0.287127
0.299495
0.222025
0.235218
0.247574
0.258719
0.189743
0.201803
0.213109
0.223271
0.16228
0.173247
0.183574
0.192853
0.139277
0.149176
0.158552
0.166989
0.120157
0.129022
0.137466
0.145083
0.104254
0.112146
0.119694
0.126516
0.090885
0.0978823
0.104595
0.110669
0.0794926
0.0856755
0.0916214
0.097004
0.0696494
0.0751032
0.0803579
0.0851149
0.0610319
0.0658354
0.0704738
0.0746735
0.0534157
0.0576377
0.0617266
0.0654324
0.0466504
0.05035
0.0539463
0.0572121
0.0406325
0.0438618
0.047013
0.0498833
0.0352845
0.0380899
0.0408376
0.043349
0.0305402
0.0329645
0.035346
0.0375306
0.0263381
0.0284209
0.0304709
0.0323578
0.0226183
0.0243963
0.026148
0.0277647
0.0193233
0.0208302
0.0223147
0.0236874
0.0163989
0.0176655
0.0189118
0.0200653
0.0137958
0.0148499
0.0158847
0.016842
0.0114706
0.012337
0.0131846
0.0139672
0.00938582
0.0100871
0.0107696
0.0113972
0.00750943
0.00806615
0.00860421
0.00909577
0.00581373
0.0062454
0.00665875
0.00703274
0.0042729
0.00459871
0.00490694
0.00518206
0.00285917
0.0030977
0.00332073
0.0035175
0.0015492
0.00171485
0.00187412
0.00202112
0.000370216
0.000494171
0.000614258
0.000725535
-0.0010637
-0.000986061
-0.000905167
-0.000823562
477.366
543.296
630.746
639.164
568.452
463.224
389.39
403.484
465.957
509.154
528.342
534.533
487.05
473.183
435.866
307.441
201.483
220.993
478.978
157.433
225.305
354.746
449.475
362.2
212.712
165.768
158.25
138.157
146.096
254.388
353.897
473.868
460.633
246.698
129.234
127.95
122.764
128.339
73.1385
107.707
135.768
158.109
167.603
177.707
242.803
214.868
63.6606
31.8664
44.3636
103.926
147.208
151.882
127.485
129.045
148.565
151.609
105.056
25.4209
57.181
119.198
179.756
227.199
247.401
247.728
245.139
98.3813
24.5875
28.7519
39.2011
62.9627
102.88
200.38
231.549
228.835
184.912
100.849
3.60663
2.44575
1.66316
15.9963
42.0653
137.058
128.377
26.4715
31.8752
20.753
22.6376
92.6556
212.645
223.843
231.241
236.262
238.356
117.763
99.3285
4.36567
2.00877
1.74939
1.49435
1.33658
1.64738
5.50631
24.6977
15.1444
17.7412
17.3457
72.0228
224.529
231.447
235.49
241.326
246.668
203.227
98.2737
6.32875
2.17998
1.72664
1.58057
2.1991
10.2814
36.7558
39.5784
27.8879
15.618
14.6414
22.5024
96.1965
127.653
114.264
206.001
249.94
253.336
254.632
1.50985
0.742253
0.73629
1.23388
1.62093
0.72125
15.0983
39.937
42.2038
38.2065
31.3175
20.6796
15.1142
12.1453
6.19834
30.6375
114.358
158.988
158.517
0.564624
0.609874
0.609426
0.583853
0.569418
0.568714
0.448021
9.84311
33.5044
41.8965
42.9406
42.322
38.134
10.009
0.878614
0.347682
-0.0978311
-0.0989966
-0.188097
0.48599
0.519403
0.523781
0.51203
0.510863
0.535585
0.559443
0.399637
1.79383
16.5411
38.1012
44.395
41.2811
13.4439
0.352925
0.183204
0.153981
-0.0423632
-0.0171341
0.422713
0.447053
0.452964
0.450181
0.463786
0.546659
0.530818
0.472649
0.331877
0.00986937
2.45882
7.26044
4.74244
4.61947
1.08265
0.213582
0.181912
0.221756
-0.00760847
0.36661
0.385767
0.39184
0.389
0.374228
0.345495
0.331605
0.286715
0.210342
0.140512
0.0311174
0.002562
0.000190107
-0.0331404
0.363655
0.344739
0.536401
0.504525
-0.000161729
0.317457
0.333597
0.339588
0.33771
0.324443
0.297489
0.260254
0.211967
0.160314
0.12008
0.0626045
0.0103221
-0.018775
-0.0265488
0.25386
0.607651
0.594133
-0.0391977
-0.036958
0.27469
0.288967
0.295112
0.306976
0.298797
0.277424
0.230241
0.191197
0.147949
0.103969
0.0565863
0.0208006
-0.000939511
0.277839
0.659353
0.649733
0.230433
-0.0279573
-0.0265408
0.237728
0.250763
0.25649
0.26619
0.265171
0.248537
0.213882
0.174364
0.13946
0.102392
0.0664937
0.037215
0.0262291
0.395387
0.551114
0.151841
-0.0224341
-0.0197624
-0.0195551
0.20602
0.21807
0.223699
0.222744
0.229263
0.222853
0.185371
0.159454
0.131936
0.10263
0.0737279
0.0479979
0.0505909
0.0795435
0.00955719
-0.0121779
-0.0138296
-0.014344
-0.013705
0.178968
0.190125
0.195791
0.195826
0.190283
0.183224
0.169424
0.145863
0.123683
0.099859
0.0769619
0.0567339
0.0397902
0.0160976
0.00359222
-0.00365636
-0.00741281
-0.0087177
-0.00730605
0.155922
0.166212
0.171804
0.172612
0.168714
0.160428
0.149652
0.135525
0.115132
0.0952149
0.0765273
0.0587369
0.0386405
0.0222929
0.0105737
0.00308883
-0.00110077
-0.00221623
0.000102483
0.136244
0.145662
0.151071
0.152401
0.149715
0.143262
0.133435
0.12109
0.106233
0.0896044
0.0728012
0.0562544
0.0402262
0.0265497
0.016166
0.00920497
0.00536436
0.0050058
0.00825699
0.11934
0.12789
0.133028
0.134683
0.132891
0.127849
0.11987
0.109378
0.0976479
0.0841421
0.069424
0.0544347
0.0412608
0.0298307
0.0209066
0.0148813
0.0119292
0.0126773
0.0166912
0.1047
0.112411
0.117221
0.119057
0.117934
0.114004
0.10753
0.0988609
0.088798
0.0780612
0.0659915
0.0531242
0.0419085
0.0323999
0.0250321
0.02023
0.0183793
0.0245362
0.0261307
0.0919205
0.0988379
0.103295
0.105218
0.104602
0.101572
0.0963502
0.0892414
0.0806463
0.0714587
0.0617121
0.0514723
0.0421816
0.0344769
0.0286688
0.0251988
0.0245712
0.0338078
0.0369196
0.0806824
0.0868657
0.090967
0.0929149
0.0926946
0.0904099
0.0862511
0.0804862
0.0734711
0.0656268
0.0574508
0.0494856
0.0421969
0.0361505
0.0318351
0.0297121
0.0314548
0.0408667
0.0454497
0.0707357
0.0762507
0.0800079
0.0819427
0.0820362
0.0803772
0.0771297
0.0725298
0.0668863
0.0605706
0.0540067
0.0476472
0.0419578
0.0374104
0.0344729
0.0336339
0.0391739
0.0473763
0.0528654
0.0618904
0.066801
0.0702317
0.0721276
0.07247
0.0713366
0.068871
0.0652794
0.0608293
0.0558422
0.0506834
0.0457464
0.041445
0.0382071
0.0364729
0.0367465
0.0422039
0.051701
0.0826518
0.0540039
0.0583673
0.0614893
0.0633258
0.0638612
0.0631649
0.0613638
0.0586369
0.055215
0.0513742
0.0474284
0.043719
0.040609
0.0384784
0.0377264
0.0388286
0.0424245
0.0485533
0.298152
0.0469671
0.0508321
0.0536604
0.0554187
0.0560956
0.055755
0.054509
0.0525134
0.049966
0.0471031
0.0441924
0.0415276
0.0394219
0.0382044
0.0382188
0.0398688
0.0436863
0.0496827
0.337631
0.0406919
0.0440995
0.046646
0.0483076
0.0490777
0.0490164
0.0482236
0.0468347
0.0450196
0.042979
0.0409402
0.0391528
0.0378839
0.0374141
0.0380348
0.0400804
0.0439929
0.0499167
0.346783
0.0351023
0.0380874
0.0403611
0.0419077
0.042726
0.0428731
0.0424388
0.0415419
0.0403281
0.0389677
0.0376521
0.0365914
0.0360112
0.0361505
0.03726
0.0396365
0.0437268
0.0504251
0.355998
0.0301285
0.0327215
0.0347294
0.0361441
0.0369699
0.0372597
0.0370975
0.0365881
0.0358571
0.0350483
0.0343216
0.0338518
0.0338266
0.0344474
0.0359296
0.0385392
0.0427191
0.128985
0.364262
0.0257043
0.0279324
0.0296808
0.030948
0.0317432
0.0321185
0.0321512
0.0319361
0.0315823
0.0312108
0.0309537
0.0309538
0.0313642
0.032349
0.034083
0.0367778
0.0407745
0.18626
0.371608
0.0217666
0.023655
0.0251504
0.026257
0.0269891
0.0273982
0.0275577
0.0275552
0.0274867
0.0274533
0.0275624
0.0279285
0.0286741
0.0299305
0.0318328
0.0345267
0.0382337
0.175433
0.378195
0.0182572
0.0198298
0.0210793
0.022015
0.0226558
0.0230534
0.0232798
0.0234193
0.0235581
0.0237788
0.0241661
0.0248109
0.0258119
0.0272772
0.0293219
0.032066
0.0356755
0.096348
0.384134
0.0151237
0.016404
0.0174162
0.0181735
0.0186987
0.0190443
0.019284
0.0195048
0.0197866
0.0201922
0.0207845
0.021642
0.0228288
0.0244568
0.02669
0.0295659
0.0333229
0.0945639
0.287121
0.0123213
0.0133334
0.0141191
0.0146933
0.0150814
0.015337
0.0155391
0.0157882
0.0161624
0.0166995
0.017458
0.0184899
0.0197778
0.0214624
0.0237707
0.0267414
0.0306883
0.155259
0.301522
0.00981327
0.010583
0.0111561
0.0115457
0.011777
0.0119029
0.0120126
0.0122408
0.0126728
0.0133035
0.0141965
0.0152704
0.01659
0.0182568
0.0204586
0.0233603
0.0272546
0.220454
0.34641
0.00757016
0.00812699
0.00850605
0.00871417
0.00876961
0.00871899
0.00866562
0.00882496
0.0093028
0.0100114
0.010938
0.0120384
0.0133196
0.0148982
0.0168654
0.0194471
0.0230044
0.240203
0.391379
0.00556757
0.0059467
0.00615879
0.00619663
0.00606109
0.00577672
0.00545848
0.00550458
0.00605326
0.00684489
0.0077863
0.00885645
0.0100606
0.0129723
0.0134311
0.0150512
0.0181223
0.352478
0.393938
0.00378736
0.00403615
0.00412464
0.00402426
0.00370212
0.00312437
0.00237299
0.0022225
0.00293379
0.00384848
0.00482714
0.0058496
0.00919445
0.0125292
0.0117612
0.0100595
0.142726
0.389738
0.394919
0.00223252
0.00241884
0.00245721
0.0022956
0.00183724
0.000878298
-0.000720523
-0.00153981
-0.000381989
0.000826848
0.0019084
0.00291781
0.00850182
0.0092194
0.00845742
0.0047929
0.205192
0.388879
0.330297
0.000884693
0.0010744
0.00115993
0.00105538
0.000540427
-0.00110661
-0.00487598
-0.00757075
-0.00502931
-0.00300314
-0.00155302
-0.000338905
0.00249813
0.00570771
0.00257076
0.000353846
0.0536161
0.328876
0.118571
-0.000691314
-0.000467735
-0.000298906
-0.000317111
-0.000889038
-0.00367521
-0.0138247
-0.0137429
-0.00866578
-0.00582092
-0.00414303
-0.00285088
-0.00184839
-0.000922099
-0.000706068
-0.000571599
-0.0030925
0.0101344
0.0141298
)
;

boundaryField
{
    leftWall
    {
        type            fixedFluxPressure;
        gradient        uniform 0;
        value           nonuniform List<scalar> 
50
(
1097.56
1096.65
1095.93
1095.4
1095.16
1095.23
1095.66
1096.46
1098.27
1102.19
1107.04
1112.68
1084.85
371.401
-0.386948
-0.255323
-0.2486
-0.221827
-0.201465
-0.185339
-0.173461
-0.165513
-0.160149
-0.155951
-0.151409
-0.14547
-0.138108
-0.129951
-0.121531
-0.113002
-0.104502
-0.0961824
-0.088164
-0.0805276
-0.0733161
-0.0665404
-0.0601894
-0.0542386
-0.0486572
-0.043412
-0.0384699
-0.0338001
-0.0293724
-0.0251486
-0.0211046
-0.0172086
-0.0134237
-0.00977825
-0.0063799
-0.00139488
)
;
    }
    rightWall
    {
        type            fixedFluxPressure;
        gradient        uniform 0;
        value           nonuniform List<scalar> 
50
(
568.304
569.48
572.549
577.703
584.537
592.733
601.217
609.841
478.978
128.339
105.056
100.849
99.3285
98.2737
254.632
158.517
-0.188097
-0.0171341
-0.00760847
-0.000161729
-0.036958
-0.0265408
-0.0195551
-0.013705
-0.00730605
0.000102483
0.00825699
0.0166912
0.0261307
0.0369196
0.0454497
0.0528654
0.0826518
0.298152
0.337631
0.346783
0.355998
0.364262
0.371608
0.378195
0.384134
0.287121
0.301522
0.34641
0.391379
0.393938
0.394919
0.330297
0.118571
0.0141298
)
;
    }
    lowerWall
    {
        type            fixedFluxPressure;
        gradient        uniform 0;
        value           nonuniform List<scalar> 
62
(
1097.56
1098.34
1097.47
1094.23
1088.48
1080.22
1069.55
1056.78
1042.55
1027.66
1012.65
997.464
981.464
963.034
942.493
919.632
895.807
873.128
852.396
831.282
808.001
786.885
780.976
780.976
779.556
777.876
774.354
769.926
763.684
752.702
735.752
724.498
711.303
690.756
654.694
623.358
618.6
612.969
603.153
604.478
599.311
587.748
581.576
623.358
627.25
613.978
590.633
559.253
515.776
478.325
471.329
471.051
471.296
472.794
477.55
483.71
489.788
500.861
516.738
535.43
554.132
568.304
)
;
    }
    atmosphere
    {
        type            totalPressure;
        rho             rho;
        psi             none;
        gamma           1;
        p0              uniform 0;
        value           nonuniform List<scalar> 
46
(
-0.000185667
-0.000269716
-0.000234749
-0.000233273
-0.000249125
-0.000279052
-0.000321544
-0.000376371
-0.000444172
-0.000526005
-0.000622908
-0.000735522
-0.000863781
-0.00100664
-0.00116188
-0.00132589
-0.00149365
-0.00165867
-0.00181314
-0.00194821
-0.00205436
-0.00212199
-0.00214202
-0.00211465
-0.00207922
-0.00202354
-0.00194778
-0.00179372
-0.00151323
-0.00118756
-0.000840491
-0.000501681
-0.000204346
-1.15687e-05
0
0
0
0
0
0
0
0
0
0
0
0
)
;
    }
    defaultFaces
    {
        type            empty;
    }
}


// ************************************************************************* //
