/*--------------------------------*- C++ -*----------------------------------*\
  =========                 |
  \\      /  F ield         | OpenFOAM: The Open Source CFD Toolbox
   \\    /   O peration     | Website:  https://openfoam.org
    \\  /    A nd           | Version:  9
     \\/     M anipulation  |
\*---------------------------------------------------------------------------*/
FoamFile
{
    format      ascii;
    class       surfaceScalarField;
    location    "8.65";
    object      phi;
}
// * * * * * * * * * * * * * * * * * * * * * * * * * * * * * * * * * * * * * //

dimensions      [0 3 -1 0 0 0 0];

internalField   nonuniform List<scalar> 
1300
(
11.2529
1.87548
-4.5934
11.2529
-4.95641
1.87548
-4.23255
4.23255
-1.28722
1.28722
5.71246
5.5404
-2.52027
2.52027
-3.08778
3.08778
-2.9038
2.9038
-1.06194
1.06194
-1.02836
1.02836
0.712555
-0.712555
-3.31864
3.31864
-1.57104
1.57104
-3.01526
3.01526
6.12882
-6.12882
-3.56301
3.56301
-0.796797
0.796797
-4.26348
15.5163
6.98938
6.98938
-2.45504
2.45504
-1.25689
1.25689
1.41034
-1.41034
9.85072
-9.85072
-5.25732
-6.14157
1.91748
-13.7411
-3.03893
-3.03893
-2.7054
2.7054
-0.829928
1.04555
3.46977
-3.46977
-0.799442
0.799442
-4.28881
0.0562619
-4.28881
4.05679
0.175752
4.05679
-1.43842
0.151196
-1.43842
4.57303
-4.57303
1.16859
0.118629
1.16859
3.92575
-3.92575
-5.70989
11.4224
5.54297
-5.32044
20.8368
-5.93242
11.4728
-3.88169
3.88169
-2.42928
-0.0909984
-2.42928
2.56799
-0.0477145
2.56799
-3.87923
3.87923
-2.85951
-0.228262
-2.85951
3.22571
-0.137938
3.22571
3.64345
-3.64345
-2.94637
0.0425697
-2.94637
2.76609
0.137711
2.76609
0.771042
1.10443
-2.64652
3.69207
-1.10443
0.0424987
1.02614
0.0357985
1.02614
-1.01456
-0.0138052
-1.01456
1.05018
-0.0218167
1.05018
0.76084
-0.0482856
0.76084
-0.764368
0.0518139
-0.764368
-8.51939
-8.59747
-3.42255
0.103909
-3.42255
-1.57835
0.00730624
-1.57835
1.61543
-0.0443837
1.61543
-2.57397
2.57397
-3.34046
0.325191
-3.34046
4.80783
1.32099
4.80783
5.04625
6.20661
16.2991
-16.2991
10.1703
-3.30147
-0.261538
-3.30147
-3.74596
-6.10476
3.74596
-0.182953
-0.870952
0.0741542
-0.870952
5.62579
1.36359
5.62579
2.65996
0.10612
-2.65996
0.204926
4.56899
-4.56899
1.48219
0.972851
1.48219
-1.1906
1.1906
1.12448
-0.0743005
-1.12448
-0.132407
1.38599
0.0243449
1.38599
-1.40974
-0.00059388
-1.40974
7.67036
-13.8119
-7.81822
3.15638
0.162258
-3.15638
0.11745
3.55336
-0.0835847
3.55336
-3.31791
3.31791
-3.60555
0.135776
-3.60555
-0.71968
-0.0797626
-0.71968
0.889161
-0.0897189
0.889161
-4.50311
0.214304
-4.50311
-3.75284
0.412385
3.75284
0.303953
1.30913
-1.30913
-1.54918
0.110759
-1.54918
-4.56215
0.0590364
4.56215
0.0108802
-4.66664
0.0936085
-4.66664
-3.70881
0.103255
3.70881
0.216941
4.58786
1.03794
-4.58786
0.662111
-5.36968
11.5763
-5.88318
11.4262
-3.53545
-0.34624
-3.53545
4.04631
-0.164624
4.04631
2.70204
0.313219
-2.70204
0.272768
2.72243
-0.154442
2.72243
-3.85058
-0.0286479
-3.85058
3.68256
0.196672
3.68256
2.78805
-0.0656164
-2.78805
-0.0714665
3.23126
-0.00554982
3.23126
3.64607
-0.00262192
3.64607
-3.52266
-0.120783
-3.52266
3.19497
-3.19497
3.10316
0.0918076
-3.10316
0.156794
-5.07402
5.07343
-0.00799874
-5.06602
1.01814
1.01814
0.812759
-0.0519192
0.812759
-0.863569
0.0992005
-0.863569
8.46191
-16.2801
8.54013
-17.0595
7.20804
-20.9492
7.93694
-16.5344
3.68693
-3.68693
3.62367
0.063265
-3.62367
0.201119
-1.54613
-0.0322178
-1.54613
-2.33896
-0.235013
-2.33896
2.90733
-0.333355
2.90733
-3.74629
3.74629
-4.12729
0.381003
4.12729
0.680531
3.2939
-0.0626356
-3.2939
-0.00757356
1.00546
0.163135
-1.00546
0.134504
4.79398
-0.22499
4.79398
-4.04367
-0.525327
-4.04367
-1.54635
0.000222054
1.54635
-0.0641668
-1.25862
0.0680141
-1.25862
-5.0745
0.00847724
-5.0387
-1.40127
-1.40127
1.30414
4.9962
-3.57167
0.0490027
3.57167
-0.0183079
3.53304
0.213251
-3.53304
0.215128
-3.27501
0.0800401
3.27501
0.0429059
-0.696805
-0.0228749
-0.696805
-1.08479
1.08479
-0.966588
-0.118198
0.966588
-0.0774265
1.46477
-0.155638
1.46477
1.59044
0.024985
-1.59044
0.0412675
-4.90326
0.236627
-4.90326
4.03921
0.00710131
4.03921
-3.9127
-0.130968
3.9127
-0.26663
-0.00371916
5.07715
-1.01442
-0.00013814
1.01442
-5.10149
5.10136
-0.703011
0.00620633
0.703011
0.109748
1.02876
0.161839
-1.02876
0.165195
3.71221
-0.029652
-3.71221
0.0252783
-2.05891
-0.280046
-2.05891
-3.2235
-0.311946
3.2235
-0.316174
-5.11492
-0.0781866
5.19311
-5.13674
1.3368
0.0491896
-1.3368
5.15054
-1.19834
-0.11079
1.19834
-0.113555
1.66533
-0.20056
1.66533
5.0259
-0.23192
-5.0259
0.122641
-4.02964
0.179059
4.02964
0.00956889
-1.83357
-0.225342
1.83357
-0.168245
-13.1274
14.491
7.70942
-6.70971
-7.10221
-12.8145
4.44796
7.12833
14.6182
-11.434
-9.5152
-11.3165
2.8621
-2.69691
-3.85404
3.80575
23.0624
-22.9688
-18.4033
19.0838
20.7709
-20.554
5.70745
5.7149
16.3527
-16.4437
-20.7661
20.4198
16.373
-16.6012
21.4419
-21.4705
-24.9104
24.8807
-16.2346
16.2772
-20.2138
20.093
-20.9134
20.6468
-8.37495
-8.68458
15.8727
-15.7688
21.3344
-21.596
-19.5521
19.8773
10.046
4.44492
11.084
-6.24741
11.9549
-5.22541
12.9348
8.23534
-16.6103
8.04479
-15.147
9.83173
11.5027
-9.64878
-3.16569
-17.9442
17.8606
-17.2884
17.3313
23.6397
-23.5835
-6.17215
11.8871
-5.254
12.3823
-11.4097
-6.99366
10.0887
4.52959
8.69281
7.17988
-8.85507
-2.46143
-24.4315
24.1995
-25.3984
24.873
0.0854495
2.4339
-2.51935
1.34234
-0.844772
3.27867
2.01733
2.11653
2.45153
-2.28969
0.245379
-2.76473
-2.89713
-5.7303
5.84106
5.56098
-5.44235
16.1626
6.89986
16.1735
-16.4123
-6.5565
-16.1757
11.3692
7.71467
11.7502
12.0528
8.71812
12.1561
10.3618
-10.3298
-0.0320466
-11.4755
21.8374
1.55728
-18.4692
-13.9396
9.31187
7.04086
9.26416
-10.1957
-6.24802
-9.92295
-11.0442
-9.72186
-11.3562
12.2195
8.20036
12.0549
-15.0314
15.041
10.0539
6.31911
9.91592
-9.56582
-7.0354
-9.63729
26.7881
-6.36593
-20.4222
-12.7559
-12.1545
12.5592
8.88269
13.7705
11.1102
13.7958
8.57436
18.2137
-17.4571
5.30252
-10.0075
-6.22712
-9.85072
9.39798
6.87922
9.53569
-11.7332
-8.48062
-11.6842
-11.9252
-8.98823
11.9278
8.16524
-12.4297
-12.9687
12.5607
8.08612
7.46358
-16.9788
9.07082
-17.7554
-10.5169
-5.25188
-10.3158
10.6079
6.61378
-17.2217
-6.00239
24.3151
-12.8124
21.1494
-11.7775
-9.81842
-11.7851
-14.8212
-4.73094
-14.4088
-8.15338
7.87333
-8.94602
8.61267
26.7006
-15.889
-10.8116
-12.3758
-8.17817
11.7137
-0.629748
-12.8375
12.8055
-0.882685
12.0521
16.4971
15.8673
-10.8932
-6.39524
-10.678
10.3032
7.02814
10.3832
15.9074
7.73234
16.0831
-16.4439
-7.13958
-16.2296
5.10759
-5.18735
5.97436
-5.97414
15.3921
9.48088
-15.1672
-9.26431
23.0623
-10.7984
-12.2638
-5.17732
5.40626
-0.228932
-1.89865
-0.556319
0.240479
-1.96714
-1.88689
1.91533
0.201201
5.60746
3.72057
-2.41359
2.4816
2.77952
2.70522
-0.19191
2.63904
-2.63284
19.2504
-11.5356
-7.71478
13.6321
-13.5731
-2.59744
-18.869
16.2715
2.60034
3.27517
-3.20102
-4.22474
-1.50557
-4.18347
3.20709
2.35389
3.37023
2.2359
3.60516
-8.57368
1.686
6.88768
-6.33777
-3.75635
-13.3066
-6.26637
19.573
16.3904
7.8091
-16.5131
0.337384
5.62352
-5.6679
-1.54114
-11.7655
8.64394
-10.1851
-15.1678
-6.37485
21.5427
-9.58738
-1.09065
9.37413
2.37604
-10.8662
-7.07799
10.7304
1.42565
-12.0569
23.9777
-11.9209
-18.4521
8.52122
13.3161
16.2359
-17.8634
9.31148
8.55195
-4.5473
7.87634
1.38782
7.7219
-19.9947
13.7466
11.5873
8.29007
-11.9005
1.97753
-18.0171
24.9377
-21.9365
-3.00127
12.8616
12.0762
13.3838
13.3167
-7.89692
21.2808
-3.38025
-18.5562
21.3974
-13.1073
15.4074
-28.5147
-28.7241
10.1679
-17.8041
21.6322
-3.82808
-5.03241
-9.99902
22.8365
-2.06294
-20.7735
9.99191
-13.9901
-11.9648
25.9549
-20.356
19.0002
-6.5299
-12.4703
-12.3743
-9.09626
12.1952
2.84578
-25.2226
30.5251
-7.0089
8.50536
1.41055
8.49981
10.599
-15.6395
5.04048
9.75701
-16.2869
6.96071
-22.6002
-11.6963
23.4019
-11.7056
-16.9482
-15.2269
-1.72131
4.68854
25.8366
-15.7988
11.6836
4.11517
8.50473
1.87847
-8.59654
-1.25418
1.0537
16.2029
-17.2566
10.5894
10.6955
11.9415
4.26145
10.7469
7.1137
-10.7286
-0.95562
-14.7246
5.73636
-6.55934
-14.4461
20.1825
-16.2282
1.78207
-10.2756
-14.0422
24.3179
-16.5027
11.4534
12.5244
18.4815
-19.6039
5.56166
-9.77702
-9.82689
10.6665
-17.2259
7.4148
12.7677
15.5009
2.53225
12.3359
11.0661
-18.9496
1.19424
18.246
-15.7845
3.75192
10.0439
-15.4355
0.208666
-10.1071
2.67193
-15.4843
-14.5497
16.1627
-20.8936
-12.352
13.5032
2.57991
-13.8072
-0.60163
-5.08391
-3.06946
-5.30925
-3.2963
-5.64972
-11.1932
-1.9886
-9.20463
5.88473
-6.76017
-4.59599
7.07634
1.53633
-5.14943
5.03864
-5.77337
5.57281
-0.213371
13.0189
15.6539
7.47577
-8.47157
15.9473
-15.4041
23.1364
-29.1669
13.7628
15.5312
-22.6708
-13.6357
2.84858
2.25901
2.75886
13.7164
-14.8224
1.10602
-13.6333
17.7828
-4.14955
-20.1127
6.47946
-6.39638
5.4678
0.506555
5.43559
1.52478
6.97806
-8.50284
-4.44935
-4.51352
-9.00574
-13.6905
22.6963
4.85653
-13.0532
8.19669
-12.2582
17.1147
0.203063
-13.2563
17.3244
-10.3463
17.831
-12.0552
5.77581
12.7159
22.262
-9.54609
16.0569
-6.57603
6.89792
-16.444
-6.79261
-11.3714
18.2506
-12.9465
14.7285
-0.99398
15.7225
-13.9453
3.14692
-2.00386
8.69166
8.89659
16.7396
-12.4781
11.9683
-18.5443
-4.47571
-16.0121
-3.24442
0.949584
-13.8687
12.9191
12.2822
-11.3326
-3.41124
9.37732
-5.96608
5.98242
-2.99733
-2.9851
-1.95086
-3.2365
1.97373
0.665311
6.64773
0.518051
-3.51538
-2.11478
-2.00504
10.4997
8.75067
-4.14625
3.91732
3.90578
-0.630605
1.03877
2.33146
4.93563
-3.89687
0.735056
4.20058
-2.46596
4.08758
1.53593
-4.11257
-0.0708998
-3.54379
12.1877
3.34388
-5.69778
1.80091
2.37508
-13.9107
19.3995
-11.1845
-8.21502
21.7746
2.99976
-14.1843
15.8692
-13.2689
7.92974
-14.1961
-6.25452
-19.5234
-12.6235
-10.6706
18.8673
-12.0257
19.8348
3.69944
-20.1722
23.8716
-12.8652
6.49035
-9.80033
11.3363
-4.24953
-5.5508
11.2821
10.2606
-11.0094
-0.756057
0.272702
8.64329
-8.37059
-1.54179
-7.87957
-16.398
17.8236
-8.2675
17.579
7.67984
-7.62111
25.2001
6.57778
-14.1989
-11.8744
-12.965
-5.64693
10.589
-1.93813
-7.69916
-14.4084
7.76477
-0.0428736
-19.2555
22.3897
-3.13413
-12.2147
-1.53198
14.3935
-18.2723
1.98543
-11.3116
11.078
12.4658
12.423
-20.6108
-0.162707
-12.4105
3.2554
-15.6659
15.3316
-6.86151
17.0294
-15.9556
11.3596
-14.4193
14.0281
-1.63773
14.359
-9.31854
6.06314
-15.1594
-12.3136
14.9296
-8.61047
16.3401
-10.3355
26.6756
-17.3444
15.0767
11.5989
-2.89525
-8.88986
-14.624
11.7287
0.452683
8.9525
17.8015
-10.6878
16.8459
8.86056
-18.6376
-8.3653
-25.8614
7.22383
-13.337
-7.33907
14.5629
11.1424
13.0209
4.73601
-11.7667
17.3173
-19.0387
-5.6117
-8.93804
15.1369
-3.40818
10.1658
-19.1039
-5.31849
13.1085
-0.381554
-12.727
2.78046
-15.1325
5.23192
-20.3644
15.6617
-16.2634
1.83799
-8.23436
-3.31145
-3.425
-2.22332
-3.55005
-7.81242
5.5891
-1.33296
3.70569
-12.6818
12.3003
-5.10101
10.6901
-4.18956
-1.1197
4.3578
1.21501
11.9051
2.93893
-16.5746
-9.30046
14.8015
-5.50103
1.19927
-10.9298
3.87173
7.96476
13.8098
-24.2363
1.56548
-15.0091
-4.24826
6.50727
5.12905
17.4112
2.58885
6.8733
-0.366023
9.46215
2.39284
2.31541
-11.1644
12.2704
1.7547
15.5175
-1.93784
7.71365
3.49775
3.50506
2.16285
5.86424
3.03235
9.01116
0.508319
-4.0052
2.16308
-4.16811
-1.3523
-4.22003
-0.414281
3.88576
-4.30005
10.7929
-2.04226
5.29191
-2.02189
-5.26919
7.29108
-9.73667
-5.8998
-1.69922
-5.88246
7.68337
6.30528
-5.98415
-3.75252
2.39129
-15.0148
11.8048
-12.5609
-2.3003
21.5713
-9.71693
1.34634
-3.22658
-6.53322
-8.03879
8.10969
24.1925
1.0076
12.2717
18.8312
11.7532
1.06539
12.0741
-15.9022
-10.526
-16.0649
-0.733371
13.6602
5.61615
20.2204
17.2151
13.8069
-5.29695
-24.3356
20.4781
-8.20769
16.3286
-3.60161
-16.7628
14.4612
8.67515
-17.0412
0.777798
-15.985
-24.1927
-0.432211
12.7325
-11.4729
10.3532
7.28374
1.92089
-2.54348
-0.88152
2.66168
-0.346268
9.11588
-0.167899
-8.58666
8.75456
-3.71787
2.36556
-0.576256
4.49358
6.71483
4.67256
-3.9141
-8.21414
-8.83847
-5.07225
-17.0535
2.51949
-8.82477
5.96032
-3.59475
2.97522
5.15981
10.4517
-1.67503
-9.65757
7.64111
-4.66589
5.78584
)
;

boundaryField
{
    wall-4
    {
        type            calculated;
        value           uniform 0;
    }
    velocity-inlet-5
    {
        type            calculated;
        value           uniform -11.2529;
    }
    velocity-inlet-6
    {
        type            calculated;
        value           uniform -1.87548;
    }
    pressure-outlet-7
    {
        type            calculated;
        value           nonuniform List<scalar> 8(4.5934 4.95641 11.3989 11.8236 17.1169 15.4886 17.002 15.145);
    }
    wall-8
    {
        type            calculated;
        value           uniform 0;
    }
    frontAndBackPlanes
    {
        type            empty;
        value           nonuniform List<scalar> 0();
    }
}


// ************************************************************************* //
