/*--------------------------------*- C++ -*----------------------------------*\
  =========                 |
  \\      /  F ield         | OpenFOAM: The Open Source CFD Toolbox
   \\    /   O peration     | Website:  https://openfoam.org
    \\  /    A nd           | Version:  9
     \\/     M anipulation  |
\*---------------------------------------------------------------------------*/
FoamFile
{
    format      ascii;
    class       volVectorField;
    location    "1.4";
    object      U;
}
// * * * * * * * * * * * * * * * * * * * * * * * * * * * * * * * * * * * * * //

dimensions      [0 1 -1 0 0 0 0];

internalField   nonuniform List<vector> 
918
(
(2.47845 -0.142188 0)
(0.10852 0.722758 0)
(0.136466 1.90219 0)
(2.31813 0.154008 0)
(-0.0721261 1.76312 -1.23778e-19)
(-0.092339 0.644085 -6.52572e-18)
(0.878028 1.36615 -7.19054e-19)
(0.541788 0.319835 -4.18553e-20)
(3.00685 -0.0206035 0)
(-0.0111275 1.17084 0)
(-0.00713305 1.23248 0)
(1.08961 0.00251136 0)
(0.0107317 0.439793 0)
(-0.00333613 0.423607 0)
(0.0362009 0.433031 -1.84105e-18)
(0.00418228 1.18622 -1.6736e-19)
(0.746066 0.187021 3.12862e-18)
(0.140639 1.33121 -5.78556e-19)
(1.55975 0.101314 0)
(-0.0152441 1.24773 0)
(0.340405 0.276747 -1.76255e-18)
(3.07793 -0.37713 0)
(2.93314 -0.486808 0)
(1.89749 -0.168528 0)
(0.988346 0.0455541 0)
(-0.023787 0.531853 0)
(-0.00102666 0.499219 2.36337e-18)
(-0.0687276 2.10494 0)
(0.0390389 3.42637 0)
(0.120142 2.61907 0)
(-0.00961929 3.5238 0)
(-0.0284805 2.22456 9.52635e-20)
(-0.00324985 1.12604 0)
(-0.146456 0.775797 -2.51806e-22)
(-0.193452 1.02927 5.42956e-18)
(-0.0415682 1.04456 0)
(1.15472 -0.00921108 0)
(0.255518 0.372818 9.45541e-19)
(1.45964 2.17121 1.54147e-18)
(1.05017 1.24563 -1.23852e-18)
(1.17854 2.35062 1.59357e-19)
(0.679666 1.40488 -8.21975e-19)
(1.04773 0.594324 4.11644e-20)
(0.604285 0.311006 0)
(1.35658 0.788744 0)
(0.958377 0.588943 1.83528e-19)
(0.493025 0.317172 -1.88334e-19)
(1.14389 -0.0220977 0)
(3.0287 -0.0036535 0)
(3.00671 0.0168487 0)
(3.18794 -0.416933 0)
(3.04479 -0.0824341 0)
(3.03066 -0.0455003 0)
(0.0156599 1.16191 -1.62729e-18)
(-0.0117421 2.05734 0)
(0.0179211 1.17965 0)
(-0.0516743 2.10503 0)
(-0.0170456 1.19196 0)
(0.00915898 1.23071 0)
(0.00670816 2.08999 0)
(0.0153332 1.23484 0)
(-0.0209416 2.13291 0)
(-0.00515533 1.23025 0)
(1.18143 0.0144284 0)
(1.86802 0.0211158 0)
(1.10844 0.0178984 0)
(1.86731 0.00540061 0)
(1.06758 0.00826445 0)
(0.224726 0.922682 2.42695e-18)
(0.0983179 1.20739 0)
(0.175756 1.066 0)
(0.0332372 0.75674 2.74273e-23)
(0.0371178 0.499069 -3.62969e-18)
(0.0191813 0.748511 0)
(0.0058181 0.422855 0)
(-0.00119533 0.735875 5.87209e-24)
(0.000551362 0.415917 0)
(-0.0183942 0.746256 0)
(-0.014088 0.431583 0)
(0.0981461 0.866735 0)
(0.0810571 0.637027 0)
(0.0491903 0.744813 1.74067e-18)
(0.0219652 0.380202 0)
(-0.0107765 3.8014 0)
(-0.00641611 2.05074 1.66153e-19)
(-0.0125825 1.20604 -2.1743e-19)
(1.37504 0.315637 -1.09585e-18)
(0.754255 0.136469 -1.06715e-18)
(1.33666 0.387011 -3.26506e-18)
(0.72843 0.224573 -2.07951e-18)
(0.105532 0.873637 0)
(0.322531 2.33696 5.15149e-19)
(0.338946 1.42654 -8.24133e-19)
(2.188 0.170502 0)
(1.22902 0.0695521 0)
(3.03273 0.104462 0)
(3.1029 0.447324 0)
(2.85528 0.350748 -1.43795e-17)
(2.57621 0.364552 1.10135e-17)
(0.00342351 2.08887 0)
(0.0189688 1.25401 0)
(-0.0498107 2.76325 0)
(-0.0330512 2.16692 0)
(-0.0227902 1.20348 0)
(0.717597 0.538013 5.58513e-19)
(0.390727 0.302301 0)
(2.35939 -0.219358 0)
(1.38494 -0.0870835 0)
(1.81794 0.020745 0)
(1.74673 0.0538973 0)
(1.04123 0.0122033 0)
(1.40657 0.043321 0)
(1.52252 0.0982727 0)
(0.731106 0.0457163 5.00447e-18)
(-0.00768883 0.447884 2.38068e-18)
(-0.0309384 0.791807 0)
(-0.060987 0.867952 0)
(-0.0182285 0.470658 0)
(0.000385664 0.84531 2.32698e-18)
(2.94292e-05 0.492956 0)
(-0.00465142 0.850556 -7.11636e-18)
(-0.00442664 0.501176 2.39365e-18)
(0.0170019 3.75387 0)
(0.031315 3.81404 0)
(0.00225528 2.05692 -4.17748e-21)
(-0.0259367 2.01143 0)
(-0.00729076 1.16169 0)
(1.95268 0.00805925 0)
(1.16393 0.0157517 0)
(1.14149 0.0128265 0)
(1.97974 -0.00874693 0)
(1.14549 0.00698831 0)
(0.492774 0.711035 -1.18759e-18)
(0.236644 0.345443 0)
(0.518155 0.7862 1.33369e-19)
(0.266093 0.423849 0)
(1.72709 2.01115 3.96495e-19)
(1.16016 1.09947 -8.88542e-19)
(0.613714 2.43215 0)
(0.891632 2.43204 0)
(0.506249 1.43685 0)
(0.24783 0.591424 -6.25734e-19)
(1.14267 0.554981 0)
(0.650962 0.293234 5.64586e-19)
(1.93377 1.79338 0)
(2.07988 1.53585 0)
(1.26212 0.950949 9.82021e-19)
(2.19937 1.21456 0)
(1.4492 0.597561 2.93046e-20)
(1.97678 0.0285001 0)
(1.91948 -0.000464748 0)
(1.14776 0.012586 0)
(2.10925 -0.121665 0)
(1.97154 -0.0489757 0)
(1.1998 -0.0390462 0)
(3.06511 0.167472 0)
(3.03064 0.0693228 0)
(3.01046 0.0530133 0)
(-0.00743598 1.95027 8.56539e-19)
(-0.00341783 1.13711 0)
(0.0355219 2.04971 1.56536e-18)
(0.0162854 1.19688 -1.44136e-18)
(0.0554031 2.23063 4.88044e-19)
(0.00104652 2.11587 0)
(0.0270536 1.22585 0)
(-0.0327553 2.1374 0)
(-0.0082412 1.22517 0)
(-0.00836587 2.06995 -7.23754e-21)
(-0.0146302 1.22613 0)
(0.00217878 2.11398 -4.01688e-19)
(-0.0136393 1.23547 7.71567e-19)
(-0.00305672 2.14688 0)
(0.0237144 2.12549 0)
(0.00486119 1.23603 0)
(-0.0129406 2.14761 0)
(-0.00509872 1.2472 0)
(2.03306 0.0240457 0)
(1.20033 -0.00143847 0)
(1.97098 -0.000701402 0)
(1.1781 -0.0140027 0)
(1.13337 -0.00424335 0)
(1.96085 0.00915952 0)
(1.92282 0.0322266 0)
(1.12704 0.00922404 0)
(-0.00500064 1.41798 -2.16526e-20)
(0.000701558 1.37381 0)
(0.0046349 0.733538 0)
(0.00167449 0.41804 0)
(0.426324 1.17862 0)
(0.376993 0.585938 -4.01362e-19)
(0.026733 0.670416 0)
(0.000141868 0.368459 0)
(0.0159962 3.8044 0)
(0.00266521 3.78164 0)
(0.00715566 3.79656 0)
(-0.050242 3.59064 4.33575e-20)
(-0.00368365 3.80015 0)
(-0.031677 3.77985 0)
(0.0115168 1.21581 2.15637e-20)
(0.0122795 2.12722 2.78812e-19)
(-0.0173536 2.09964 2.23344e-19)
(-0.000480253 1.22047 0)
(1.38541 0.218778 1.70542e-18)
(0.743719 0.0924292 -1.66669e-18)
(0.205133 1.55451 0)
(0.139886 0.818882 -3.72981e-19)
(0.157104 1.66182 -1.22698e-18)
(0.0762408 0.968261 1.22059e-18)
(1.14221 -0.00888526 0)
(1.98493 -0.0247939 0)
(1.97608 0.044166 0)
(1.15628 9.06563e-05 0)
(0.00221935 2.14925 0)
(0.0277381 2.13131 0)
(0.00450271 1.25259 0)
(0.872151 0.590238 1.66663e-18)
(0.770563 0.577129 -1.91841e-18)
(0.437055 0.314568 0)
(2.35064 0.165235 1.89104e-19)
(1.51118 0.0949327 0)
(2.1552 0.0628419 0)
(1.28876 0.00676893 0)
(1.36896 0.149956 0)
(1.36233 0.094847 -8.03905e-18)
(0.735614 0.0594766 2.96764e-18)
(0.00407783 0.804856 2.24528e-18)
(0.000427934 0.464364 4.08905e-20)
(-0.0098278 1.40605 -4.51312e-20)
(0.00664098 1.38399 1.71357e-18)
(-0.0140635 0.853119 7.93435e-20)
(-0.0113435 0.527804 -3.17489e-22)
(-0.105579 1.00285 -1.44951e-18)
(-0.0514644 1.35203 1.0378e-18)
(-0.0165993 1.3512 -1.70342e-18)
(2.01207 -0.0158348 0)
(2.01374 0.0293722 0)
(1.16807 0.00679974 0)
(1.9891 -0.0079417 0)
(1.96462 0.020133 0)
(1.15045 0.00219616 0)
(1.96152 -0.0187324 0)
(1.92491 0.00787121 0)
(1.13519 -0.0067416 0)
(0.456195 0.695133 -1.2949e-18)
(0.240603 0.354543 0)
(0.257852 0.50495 1.95137e-19)
(0.493213 0.936649 1.60096e-18)
(0.504603 0.869023 -9.50368e-19)
(0.26188 0.465189 1.85923e-18)
(0.440113 1.16229 3.08014e-18)
(0.232588 0.633081 5.55534e-19)
(1.2945 0.45548 2.2025e-18)
(1.21994 0.523871 5.66935e-19)
(0.697617 0.263688 1.06668e-18)
(2.37632 0.935894 -1.15785e-18)
(1.51371 0.430855 -1.29372e-18)
(-0.00264531 2.1073 6.97322e-19)
(-0.00595586 1.22655 0)
(2.11968 0.0450042 0)
(2.02763 0.017215 0)
(1.24049 0.0213539 0)
(-0.00322418 1.38098 0)
(0.00492761 0.730172 3.20594e-18)
(0.00461184 0.73173 0)
(0.0020234 0.415885 -3.13789e-18)
(-0.0106275 1.38232 7.69948e-19)
(-0.00944192 1.41944 0)
(0.495018 0.709908 3.62546e-19)
(0.525924 0.804462 -1.21009e-18)
(0.250977 0.378837 1.09331e-18)
(-0.0294523 0.75769 -2.23063e-18)
(-0.0212998 0.684203 0)
(-0.0148563 0.405381 0)
(-0.0139076 2.06147 -3.31673e-20)
(0.0306668 2.11217 -6.22357e-19)
(0.0093578 1.23659 -2.41818e-20)
(0.267468 1.46116 1.23453e-18)
(0.162531 0.771351 -8.22256e-19)
(-0.00367807 1.91858 1.03707e-18)
(0.0770969 1.8091 -1.15456e-18)
(0.028115 1.06962 4.73397e-20)
(0.00402467 1.3635 -4.99985e-18)
(-0.00281942 1.39017 5.79001e-18)
(0.00322507 0.835015 2.25583e-18)
(-0.0159519 0.808656 -2.2745e-18)
(-0.0048232 0.485947 -2.26317e-18)
(-0.0117722 1.41348 -5.84128e-18)
(-0.0166366 1.39634 5.96019e-18)
(0.472002 1.08062 0)
(0.478884 1.00767 -3.25672e-18)
(0.253011 0.544946 1.4102e-18)
(0.41931 1.23701 1.65699e-18)
(0.220078 0.682995 -2.56033e-18)
(2.44058 0.356642 7.02839e-19)
(2.47369 0.670016 0)
(1.58574 0.274047 -6.94489e-19)
(-0.019982 2.10327 -8.16139e-21)
(-0.0170712 2.09796 0)
(-0.00162883 1.22768 0)
(0.309439 1.39277 -4.50268e-19)
(0.374458 1.32358 -9.8928e-19)
(0.192966 0.731247 1.85333e-18)
(3.15605 -0.416194 0)
(3.31412 -0.402271 2.61225e-18)
(0.0313265 3.70311 0)
(-0.0113957 3.57443 0)
(3.15258 0.234928 1.40379e-20)
(3.13728 0.477201 5.31655e-18)
(0.0156413 3.59927 -5.80415e-20)
(0.0120842 3.28684 0)
(-0.0190794 1.20115 2.12642e-18)
(0.351705 1.68077 0)
(3.52065 1.72374 -6.00241e-19)
(3.25476 0.108069 -2.79329e-20)
(3.24759 0.0156378 0)
(3.106 -0.0224165 -1.12715e-21)
(0.0495372 3.61217 0)
(0.0844758 3.34279 0)
(-0.0123241 3.5007 0)
(0.019186 3.49204 5.04388e-19)
(0.00865712 3.53983 3.17566e-19)
(3.15011 0.0199764 -2.02921e-20)
(3.31466 0.0193475 0)
(3.36824 0.059514 0)
(0.00558754 3.77919 0)
(-0.00412447 3.42976 0)
(-0.0126575 3.54753 0)
(0.729267 3.87949 6.3391e-19)
(3.29604 -0.331514 0)
(3.06938 -0.240857 0)
(3.17584 -0.0863789 3.29178e-18)
(3.27269 -0.330128 -3.94833e-18)
(3.10767 -0.147758 0)
(0.0026748 3.78013 0)
(0.0125494 3.76221 0)
(0.0178329 3.79112 0)
(-0.00518739 3.65888 0)
(-0.00323913 3.5355 0)
(-0.0122336 3.36697 0)
(3.24014 0.020615 0)
(3.21798 -0.00309623 -2.2716e-20)
(2.40549 3.35581 -7.54332e-19)
(3.16421 0.0119083 -3.29063e-18)
(3.20179 0.255785 3.98741e-18)
(3.0856 0.109764 0)
(3.38794 0.160168 3.09479e-18)
(3.35981 0.394746 -3.90981e-18)
(3.13947 0.314919 0)
(-0.011463 3.57888 0)
(0.0260318 3.52865 1.60025e-19)
(-0.00922261 3.2393 -1.16786e-19)
(3.7242 0.546066 3.77691e-18)
(3.52412 0.143707 0)
(-0.105009 1.2754 -2.94901e-18)
(0.00346765 0.878562 -1.84633e-19)
(0.0295117 1.38953 4.10963e-18)
(0.0395025 1.30644 -1.22592e-18)
(0.0698575 1.14904 0)
(-0.030772 1.23008 9.40861e-19)
(-0.0965471 1.38508 2.91983e-18)
(-0.0419283 1.33772 -1.77862e-18)
(-0.0879329 1.31923 0)
(2.03572 0.957998 0)
(1.83354 1.09702 0)
(3.48779 2.07608 1.79548e-18)
(3.24381 2.16154 -2.28772e-18)
(3.67697 1.68729 0)
(3.62506 1.2803 0)
(3.3796 0.0715744 -5.87696e-18)
(3.14066 0.0173163 7.30099e-18)
(3.37382 -0.00969227 0)
(3.14849 0.00389708 0)
(3.38764 0.043428 0)
(3.48129 0.0615473 0)
(3.28528 0.0715077 0)
(3.47601 0.139394 0)
(3.39776 0.214661 0)
(3.31304 0.176129 0)
(0.035348 3.72974 0)
(-0.00825503 3.45399 0)
(0.0748948 3.80222 0)
(0.0952819 3.51081 0)
(0.121538 3.45516 0)
(0.0865484 3.04661 -7.9163e-19)
(0.0574416 3.50637 0)
(0.0509892 3.26695 5.8957e-19)
(0.00151312 3.37485 -8.09938e-19)
(3.70558e-05 3.64428 0)
(-0.00632912 3.37095 0)
(-0.013953 3.65173 0)
(0.00529288 3.32671 0)
(-0.00177962 3.79286 -4.201e-19)
(0.0106856 3.66182 4.52483e-19)
(0.00565328 3.63965 5.47887e-19)
(0.0037567 3.35276 0)
(-0.0194763 3.66895 -7.71974e-19)
(-0.000328989 3.41896 -4.7068e-19)
(0.0166605 3.79167 3.32007e-19)
(0.00274604 3.74671 -5.77748e-19)
(0.0112515 3.73113 -6.74614e-19)
(3.31786 0.0273133 5.08454e-18)
(3.01258 0.0222737 -6.45914e-18)
(3.28572 0.056235 -5.01815e-18)
(2.97476 0.0316098 6.24939e-18)
(3.43989 0.0262827 0)
(3.17387 -0.0053834 0)
(3.4801 0.0689648 0)
(3.45495 0.0283351 0)
(3.22042 0.0261797 0)
(3.61493 0.169677 0)
(3.52068 0.0793717 0)
(3.2947 0.0625667 0)
(0.0122956 3.79372 -1.75752e-20)
(0.00347872 3.78958 0)
(0.00896957 3.79039 0)
(-0.0035222 3.6036 1.51241e-19)
(-0.011019 3.28312 -6.3409e-21)
(-0.0140492 3.78631 1.73574e-19)
(-0.0237144 3.78018 -1.73387e-19)
(-0.0114711 3.76656 0)
(-0.00618742 3.76869 0)
(-0.00483416 3.77191 0)
(-0.0199159 3.6767 0)
(-0.00480953 3.34893 0)
(0.889129 4.07978 -1.38834e-18)
(1.10532 3.80046 -4.48021e-19)
(0.493523 2.55125 -3.15732e-19)
(0.311415 2.76299 9.79949e-19)
(0.73846 3.54478 4.01205e-19)
(3.37423 0.0075035 0)
(3.29279 -0.0954587 0)
(3.05862 -0.0518766 0)
(3.41013 -0.0527631 0)
(3.31994 -0.143845 0)
(3.38248 -0.232184 0)
(3.41591 -0.188674 0)
(3.45617 -0.0927387 0)
(3.35238 -0.000893553 5.49187e-18)
(3.06331 0.0200235 -7.00288e-18)
(3.34731 0.00898123 -5.42136e-18)
(3.09493 -0.00615605 6.74283e-18)
(2.2549 3.6152 0)
(2.01189 3.52116 -1.01938e-18)
(2.5375 3.42191 -8.95705e-19)
(2.69048 3.01387 1.18905e-18)
(1.12666 1.71405 3.85483e-18)
(2.40468 0.265324 1.97887e-18)
(3.6852 0.264389 0)
(3.81247 0.538507 -3.06942e-18)
(3.52408 0.24141 -1.34539e-19)
(3.36017 0.326498 0)
(0.660533 1.48927 2.48912e-18)
(0.213449 1.29728 -3.96234e-18)
(0.301202 0.857925 2.23372e-18)
(0.574294 0.664884 -1.02096e-18)
(0.409319 1.71557 1.22724e-18)
(0.202019 1.38378 0)
(0.164441 1.2972 -1.57625e-18)
(0.527118 1.64876 -5.66259e-18)
(0.695582 1.86761 0)
(0.0017482 1.28509 1.58888e-19)
(-0.0155524 1.45355 -1.77319e-18)
(-0.0470959 1.30354 2.57777e-18)
(-0.0673354 1.41528 0)
(-0.0291346 1.37555 0)
(0.979606 1.50969 0)
(2.1879 2.29465 -1.46217e-18)
(2.97034 2.55244 7.9839e-19)
(2.85119 3.04754 0)
(2.80453 2.92443 -6.93845e-19)
(3.18424 2.56683 3.2937e-20)
(1.34316 1.03114 -2.49587e-18)
(2.28254 1.02696 -2.55491e-20)
(2.01199 0.813597 1.22531e-18)
(1.93689 1.27737 8.23542e-20)
(1.58935 1.07228 -3.27213e-18)
(2.17264 1.10819 0)
(2.41961 1.38412 2.02572e-18)
(2.45927 1.28373 0)
(2.08229 1.20552 0)
(1.80104 0.965825 0)
(2.77722 1.87802 1.49361e-18)
(3.85715 0.78018 -3.08019e-18)
(3.79153 1.23158 0)
(3.70871 0.839873 0)
(2.26545 0.63649 1.91942e-18)
(2.76715 1.66591 -1.19339e-18)
(2.63805 1.58906 2.19108e-18)
(3.12235 1.20645 -2.71315e-18)
(3.28452 0.0136096 3.76918e-18)
(3.2957 0.0274838 -3.8967e-18)
(3.05513 0.0112678 0)
(3.36603 0.015497 0)
(3.31543 -0.00712985 -3.63227e-18)
(3.08448 -0.00621375 3.60066e-18)
(3.5133 0.0193131 0)
(3.50236 0.00602454 0)
(3.51154 0.0333071 0)
(3.47611 0.0326904 0)
(3.50906 0.0124052 0)
(3.49523 0.0166711 0)
(0.00881153 3.61937 0)
(-0.00881993 3.34749 0)
(0.161245 3.94764 -7.94983e-19)
(0.611263 4.00643 -3.78767e-19)
(0.222175 3.85943 -8.41593e-19)
(0.349722 3.69371 1.34917e-18)
(0.260111 3.98426 0)
(0.280828 3.82622 -9.11666e-19)
(0.211377 3.85165 0)
(0.652032 3.58466 -5.77685e-19)
(0.512693 3.41956 1.3863e-18)
(0.361531 3.87066 7.9947e-19)
(0.552691 4.03648 -4.19117e-19)
(0.397276 4.01243 3.35559e-19)
(0.682346 3.95756 -1.2061e-18)
(0.51723 3.77094 0)
(0.595937 3.75723 9.02006e-19)
(0.0226364 3.75789 -3.04196e-19)
(0.0124823 3.52478 0)
(0.0675571 3.69015 8.5276e-19)
(0.0121309 3.72879 0)
(0.0302278 3.46472 -6.56757e-19)
(0.0129125 3.23144 0)
(0.00723538 3.82819 -5.26909e-19)
(0.00649269 3.80222 0)
(0.0116975 3.80838 0)
(0.00231946 3.82447 5.92051e-19)
(0.0215566 3.62033 2.833e-20)
(-0.000683239 3.57492 9.90026e-19)
(-0.00859993 3.2946 6.88921e-21)
(0.0299439 3.7668 3.01855e-19)
(0.00751186 3.77141 1.77713e-19)
(0.00290669 3.55235 0)
(-0.00683544 3.29692 0)
(0.00271463 3.77825 8.4321e-19)
(-0.00210724 3.80739 7.88984e-19)
(0.00264683 3.8056 -1.00922e-18)
(0.0131293 3.79925 0)
(-0.013806 3.81321 -5.51711e-19)
(-0.0143042 3.78968 2.44855e-19)
(-0.0101544 3.79079 -7.4274e-20)
(0.0428469 3.79422 -3.59943e-19)
(0.0195335 3.75383 -1.2065e-19)
(-0.00521185 3.73764 5.46968e-19)
(3.26673 0.0199351 -3.60027e-18)
(3.25157 0.0197467 3.47588e-18)
(3.01125 0.0221097 0)
(3.38556 0.13314 4.57469e-18)
(3.18026 0.103127 -4.96743e-18)
(2.92285 0.0624299 5.42019e-18)
(3.41388 0.180882 -6.07215e-19)
(3.37659 0.00134772 0)
(3.35467 0.0102738 3.4346e-18)
(3.15858 0.0092556 -3.40681e-18)
(3.50553 0.0747791 -1.95203e-19)
(3.47784 0.0608211 1.68309e-18)
(3.49097 0.119511 0)
(3.47827 0.115014 -5.78479e-19)
(3.51051 0.0772607 0)
(3.48953 0.0591267 0)
(3.52377 0.0182945 0)
(3.47718 0.0100052 0)
(3.50474 0.0617547 1.21305e-18)
(3.50664 0.0284863 -2.69987e-18)
(3.46117 0.0511937 -1.31381e-18)
(3.46629 0.0566173 -1.41404e-18)
(3.52375 0.158631 2.75126e-18)
(3.54906 0.125954 0)
(3.60033 0.207982 0)
(-0.0117847 3.82779 -2.28774e-19)
(0.0137631 3.79937 -2.03791e-20)
(-0.0121163 3.80081 0)
(-0.00751145 3.76438 2.31869e-19)
(-0.00753906 3.772 3.63372e-20)
(-0.00343246 3.75222 -3.84468e-20)
(-0.0223315 3.57787 4.15138e-19)
(-0.0129758 3.75858 -2.52214e-20)
(0.015951 3.74475 1.2101e-19)
(-0.00866927 3.54911 -2.15663e-19)
(-0.00634892 3.31259 2.59844e-19)
(-0.00199483 3.78349 6.71176e-21)
(-0.00522247 3.77972 2.63751e-19)
(0.943511 4.05185 7.72351e-19)
(0.824717 3.90374 1.27472e-18)
(1.80686 3.82338 9.89323e-19)
(1.3155 3.99118 4.30523e-19)
(1.53534 3.67381 0)
(0.592125 2.74462 3.83657e-19)
(0.552502 2.30919 4.6076e-19)
(0.384173 2.91646 1.74018e-20)
(0.479595 3.2257 -1.66984e-18)
(0.584071 3.15526 1.23393e-18)
(0.461158 2.80594 0)
(0.358261 2.51253 -7.74255e-19)
(0.181953 3.21305 1.96504e-18)
(0.265908 3.02404 -3.65327e-20)
(0.177079 2.79201 -2.46116e-18)
(0.895409 2.04332 2.0689e-18)
(0.765793 2.23077 0)
(3.47132 0.000460616 1.27933e-19)
(3.4841 -0.0612596 -1.07447e-19)
(3.50377 -0.00983779 -1.8851e-18)
(3.49608 0.00311494 1.89662e-18)
(3.47466 0.00833653 0)
(2.11351 3.56123 0)
(2.08362 3.28385 0)
(2.47844 3.23611 0)
(2.15607 3.13283 0)
(1.21264 1.93251 -1.38793e-20)
(0.957281 1.55084 0)
(1.54963 3.061 2.15624e-20)
(1.23249 3.16954 0)
(1.30779 2.99446 -1.81623e-18)
(1.38813 2.92887 1.16586e-18)
(2.65685 0.401125 0)
(2.37734 0.383831 5.16668e-19)
(3.03733 0.3202 3.26505e-18)
(2.67465 0.272361 -1.16545e-18)
(2.31009 0.155851 -3.6816e-18)
(3.5362 0.627614 -4.04864e-18)
(3.18575 0.879165 -2.91846e-20)
(3.05076 0.799442 2.9663e-18)
(3.25511 0.63924 2.69249e-18)
(3.17993 0.412818 -4.4893e-18)
(3.10008 0.465278 5.46188e-19)
(3.09439 0.680837 -1.21668e-18)
(3.08241 0.620217 0)
(3.33363 0.430183 2.26393e-18)
(3.38223 0.498041 0)
(3.35813 0.60627 0)
(3.64074 0.296579 1.28972e-18)
(3.45801 0.492663 -2.77013e-20)
(3.54928 0.564265 -7.01543e-19)
(3.67295 0.536442 0)
(3.44542 0.0923759 2.62472e-18)
(3.50356 0.108298 3.28342e-18)
(3.5227 0.101059 -2.5499e-18)
(3.50453 0.169761 -2.22105e-18)
(3.4352 0.142483 -3.23811e-18)
(3.31414 0.269889 0)
(3.33102 0.183973 0)
(3.11372 0.159336 -1.90409e-18)
(2.83092 0.111045 7.10113e-19)
(3.46867 0.225478 2.96637e-18)
(3.53 0.282828 -3.65383e-18)
(3.48559 0.331729 3.19103e-18)
(3.42783 0.340565 0)
(3.52881 0.236801 0)
(3.49411 0.212698 -1.52631e-18)
(3.48901 0.215417 -2.44513e-18)
(1.84708 3.0364 9.25061e-19)
(1.74145 2.9858 -9.72317e-19)
(1.6685 2.71985 -1.46103e-18)
(1.52654 2.57027 3.73505e-19)
(1.25758 1.91939 -3.70802e-18)
(1.12323 1.72031 1.30595e-18)
(0.880567 1.31361 -4.01805e-21)
(1.4655 2.35163 -1.60639e-18)
(1.51664 2.45493 2.40323e-18)
(1.32013 2.31596 7.09026e-19)
(1.1118 1.83075 -7.201e-19)
(0.920226 1.56177 0)
(2.15638 2.41457 -1.63588e-19)
(1.29525 1.52643 1.17589e-18)
(1.48308 1.37425 1.58763e-18)
(1.29339 1.21898 1.8381e-18)
(1.71768 1.2246 1.8539e-18)
(2.00169 1.48048 -3.11538e-18)
(1.93001 1.52944 2.52797e-18)
(1.6024 1.2486 -9.31e-19)
(1.37872 1.00041 2.06629e-18)
(2.42089 0.788074 -1.12329e-18)
(2.31323 0.872856 0)
(2.10438 0.725885 3.70828e-21)
(2.51241 1.60137 1.07878e-18)
(2.40083 1.51807 -3.90374e-18)
(2.15063 1.55698 1.64401e-20)
(2.17251 1.45604 0)
(2.38865 2.28568 1.23499e-18)
(2.77335 2.32742 1.60248e-18)
(2.63933 2.51046 -1.83818e-18)
(2.90173 2.37997 -6.84774e-19)
(3.1321 2.53991 -2.40093e-19)
(3.02656 2.57332 2.47064e-19)
(2.97154 1.91802 -2.49135e-18)
(3.03695 2.14683 6.41614e-19)
(3.26252 2.1744 0)
(3.327 2.05638 -9.44461e-19)
(3.28595 0.912639 9.00568e-19)
(3.71628 0.865417 1.65637e-18)
(3.53412 0.790221 1.60478e-18)
(3.26289 1.12438 -1.75092e-18)
(3.54614 1.21534 0)
(3.64244 1.14309 0)
(2.97894 1.13914 -2.14279e-20)
(2.76854 0.887786 0)
(2.87572 0.867993 1.32544e-18)
(3.01987 0.868256 -3.77633e-20)
(3.11011 1.32553 7.5873e-18)
(2.94506 1.52304 1.94206e-18)
(2.91332 1.38268 -1.91686e-18)
(2.80092 1.33334 2.04966e-18)
(2.69637 1.40054 1.14574e-18)
(2.58783 1.32758 -1.10952e-18)
(3.45431 0.0119468 3.03465e-18)
(3.49329 -0.011114 0)
(3.49286 0.0121246 2.04474e-18)
(3.45368 0.0308102 -4.56379e-18)
(3.51481 0.00143618 2.20686e-18)
(3.50772 0.0236706 -4.61314e-18)
(3.50253 0.0149686 0)
(3.45965 0.0160739 -9.51286e-19)
(3.50432 0.0294074 2.4057e-18)
(3.49055 0.0224703 -1.24363e-18)
(3.45628 0.00989418 8.94682e-19)
(-0.0115729 3.56707 0)
(0.0300204 3.77987 0)
(-0.00469591 3.55429 0)
(-0.00180109 3.30397 0)
(0.0591048 3.82731 1.42782e-18)
(0.0648187 3.83198 -4.26293e-19)
(0.158108 3.82718 -4.17924e-19)
(0.136191 3.87429 4.40472e-19)
(-0.000495723 3.8139 -9.32249e-19)
(0.0256451 3.8053 7.08675e-19)
(0.0468686 3.83305 -2.09542e-20)
(0.0350363 3.80603 -8.61951e-19)
(0.0344062 3.76405 -1.20265e-19)
(0.0297425 3.79438 -1.09571e-19)
(0.104901 3.72208 -9.11898e-19)
(0.115564 3.66649 0)
(0.171668 3.73157 4.40916e-19)
(0.175121 3.8054 4.00191e-19)
(0.383423 3.6386 -3.52273e-19)
(0.289523 3.47101 0)
(0.369052 3.35839 -1.57418e-18)
(0.441499 3.48832 1.11461e-18)
(0.319503 3.68825 -9.43595e-19)
(0.235246 3.6479 5.10776e-19)
(0.187079 3.57262 0)
(0.00480864 3.76909 -9.33065e-19)
(0.00455087 3.75597 -1.05033e-18)
(-0.00714684 3.77258 0)
(0.00547072 3.73911 -8.57747e-21)
(0.00920461 3.78102 4.58369e-19)
(-0.00290898 3.80072 7.67958e-20)
(0.0240358 3.75821 -1.18851e-18)
(-0.00377266 3.81505 3.30339e-19)
(-0.0193273 3.80283 4.11815e-19)
(0.00574267 3.84249 0)
(0.00890348 3.8202 0)
(-0.0266261 3.56871 3.40004e-19)
(0.00396058 3.78302 -1.05927e-19)
(0.00704532 3.78301 0)
(-0.00018724 3.53165 2.74874e-19)
(0.000657806 3.27426 -5.28487e-19)
(3.4483 0.0711969 0)
(3.47814 0.0516233 -3.1591e-19)
(3.48923 0.0327034 -2.22342e-18)
(3.4716 0.0247369 0)
(3.48891 0.0264683 0)
(3.50386 0.00864299 -1.75524e-20)
(3.49153 0.00129314 3.62259e-18)
(3.48824 0.0234123 4.30891e-18)
(3.48617 0.027637 0)
(3.45296 0.0350414 0)
(3.49216 0.0221804 2.16533e-18)
(3.48095 0.0429895 0)
(3.44352 0.0596814 0)
(0.00877655 3.79602 0)
(-0.00585978 3.76047 1.62645e-20)
(-0.00973645 3.77526 1.19209e-19)
(-0.00581962 3.79816 0)
(0.0243621 3.77056 1.84098e-19)
(0.00886844 3.78509 -9.16603e-20)
(-0.00909604 3.7994 0)
(1.01923 3.4794 0)
(0.867973 3.71421 -2.20157e-18)
(0.851674 3.58271 0)
(1.16916 3.81412 2.60079e-18)
(1.3212 4.01446 0)
(1.18667 3.96887 -1.1129e-18)
(1.27252 2.69458 -4.84209e-20)
(1.03418 2.24611 -2.46541e-18)
(0.879352 1.79778 3.02498e-18)
(0.887201 2.42778 5.57049e-19)
(1.04971 2.79694 0)
(1.13455 2.73375 0)
(0.944528 2.31081 0)
(0.771039 1.9947 -1.95938e-18)
(0.984732 3.29962 -1.40617e-18)
(1.06223 3.02347 -3.31678e-19)
(1.15714 3.15381 2.71237e-19)
(0.673424 2.55568 0)
(0.764523 2.50086 0)
(0.630843 2.20546 -5.47865e-19)
(0.944609 2.93691 0)
(2.08406 2.9813 0)
(2.0472 2.70116 -2.0977e-18)
(2.11403 2.63302 -1.25999e-19)
(1.99669 2.9492 0)
(1.98351 2.83662 3.19602e-18)
(2.63663 2.61332 -6.27757e-19)
(2.62128 2.93587 0)
(2.63593 2.84399 1.07386e-18)
(2.26146 2.89982 0)
(2.27566 2.70164 0)
(1.52408 2.47364 -1.31981e-18)
(1.66421 2.76544 -9.94449e-19)
(1.71095 2.92491 1.72245e-18)
(1.67978 2.94326 -5.1444e-19)
(1.38904 2.34891 0)
(1.46507 2.60731 6.65846e-19)
(1.06401 1.83946 -1.0255e-18)
(0.891585 1.56683 -5.03863e-22)
(1.56909 3.13308 0)
(1.74061 3.15637 -8.08841e-19)
(1.79327 3.23894 0)
(2.8252 0.624081 0)
(2.52485 0.507951 0)
(2.1939 0.4867 0)
(2.77886 0.729573 -2.08801e-18)
(2.48427 0.650985 1.17448e-18)
(2.91148 0.11367 -1.4663e-18)
(3.10665 0.22666 0)
(3.03224 0.240465 6.09369e-19)
(2.61745 0.156274 2.42123e-18)
(2.38671 0.0997533 -1.53608e-18)
(1.05429 2.15809 1.20428e-18)
(1.29635 2.42203 0)
(0.793054 1.99035 2.17035e-18)
(0.81847 2.11637 -1.98489e-18)
(1.12666 2.31245 -1.39615e-18)
(1.94776 2.43487 1.82654e-18)
(1.93543 2.60975 0)
(1.8881 1.97544 -3.75636e-19)
(2.05288 2.09194 2.39325e-18)
(1.83973 1.73168 -5.79846e-19)
(2.01635 1.6934 6.0995e-19)
(2.29331 1.70111 1.39738e-18)
(2.45375 1.72758 0)
(2.27531 1.91753 0)
(2.20316 1.81032 0)
(3.27347 1.82791 7.00547e-19)
(3.07747 1.60736 -1.87313e-18)
(3.10828 1.75 1.64078e-18)
(3.20799 1.52666 -1.52029e-18)
(3.55503 1.4914 0)
(3.57292 1.68986 -4.86587e-19)
(2.80196 1.21038 -2.70053e-18)
(2.85294 1.14338 -3.46552e-18)
(2.64574 1.2278 2.07241e-18)
(2.59427 1.15644 -2.00231e-18)
(2.77508 1.00742 -1.65451e-18)
(2.62697 1.01412 2.03481e-18)
(3.52049 0.00471349 -2.33609e-18)
(3.52316 0.0125381 4.80423e-18)
(3.47926 0.0166953 2.93568e-18)
(3.4837 0.0226947 -3.53203e-18)
(3.44951 0.0479943 0)
(3.45364 0.021997 -5.73216e-18)
(0.0619388 3.77888 1.83358e-19)
(0.0249656 3.79006 0)
(0.121779 3.78502 1.57994e-18)
(0.130859 3.80319 -1.43926e-18)
(0.0967564 3.8041 7.76506e-19)
(0.0714735 3.80387 0)
(0.0344955 3.79169 0)
(0.0225188 3.80439 -1.07206e-19)
(0.00555972 3.78066 9.66743e-20)
(0.0251679 3.76725 1.45984e-20)
(0.00941413 3.7876 -1.74629e-19)
(0.0207515 3.77634 9.86546e-20)
(1.45648 3.31608 -2.48329e-18)
(1.37619 3.34899 2.62161e-18)
(1.27765 3.71218 -1.48425e-18)
(1.25721 3.51659 1.16176e-19)
(1.92678 3.65225 0)
(1.57679 3.88288 -1.29207e-18)
(1.75316 3.83768 1.25232e-18)
(1.42982 3.77554 1.44922e-18)
(1.62777 3.52825 0)
(1.782 3.44598 0)
(0.940127 3.23797 2.13799e-18)
(0.80391 2.98003 2.81443e-18)
(0.896006 3.06348 -1.92793e-18)
(0.706749 3.09863 -3.24758e-19)
(0.738664 3.32913 6.6792e-19)
(0.642468 3.22539 -1.60974e-18)
(1.05477 2.03898 -1.72444e-18)
(1.04317 1.8795 0)
(0.882256 1.65021 -1.90478e-18)
(1.37455 2.52243 0)
(1.3637 2.59794 0)
(1.59912 2.51269 -1.52297e-18)
(1.39315 2.56746 -1.45371e-18)
(1.33545 2.54113 1.53709e-18)
(1.50849 1.92272 0)
(1.76056 2.086 -8.20122e-19)
(1.79565 2.32965 -1.17084e-18)
(1.64786 2.36651 0)
(1.27912 2.22096 1.00441e-18)
(1.21251 2.03453 0)
(2.47144 2.08085 -2.62797e-18)
(2.67188 2.13167 3.77487e-18)
(2.71369 1.94254 -3.74681e-18)
(2.41444 1.94004 -3.23468e-19)
(2.50868 1.86522 -1.37184e-18)
(1.54342 2.65575 1.11749e-18)
(1.60368 2.70955 -1.91139e-18)
(1.64868 2.62536 2.50742e-18)
(1.79405 2.66269 -1.63056e-18)
(1.80886 2.89459 -2.22993e-18)
(1.71015 2.77866 -1.71062e-19)
(1.7448 2.83512 1.93534e-18)
(1.79799 2.78019 1.3599e-19)
(1.84667 2.84427 9.21991e-19)
)
;

boundaryField
{
    wall-4
    {
        type            noSlip;
    }
    velocity-inlet-5
    {
        type            fixedValue;
        value           uniform (3 0 0);
    }
    velocity-inlet-6
    {
        type            fixedValue;
        value           uniform (0 1 0);
    }
    pressure-outlet-7
    {
        type            zeroGradient;
    }
    wall-8
    {
        type            noSlip;
    }
    frontAndBackPlanes
    {
        type            empty;
    }
}


// ************************************************************************* //
