/*--------------------------------*- C++ -*----------------------------------*\
  =========                 |
  \\      /  F ield         | OpenFOAM: The Open Source CFD Toolbox
   \\    /   O peration     | Website:  https://openfoam.org
    \\  /    A nd           | Version:  9
     \\/     M anipulation  |
\*---------------------------------------------------------------------------*/
FoamFile
{
    format      ascii;
    class       volScalarField;
    location    "3.89";
    object      k;
}
// * * * * * * * * * * * * * * * * * * * * * * * * * * * * * * * * * * * * * //

dimensions      [0 2 -2 0 0 0 0];

internalField   nonuniform List<scalar> 
2268
(
0.000602798
0.001485
0.00215272
0.00266004
0.00306115
0.00338399
0.00364581
0.00385837
0.00403058
0.00417016
0.00428407
0.00437788
0.00445851
0.00452955
0.00457584
0.00457356
0.00445834
0.0041095
0.00371456
0.00340971
0.00305209
0.00232344
0.000918174
0.0012846
0.00340188
0.00478224
0.00584702
0.00669406
0.00737721
0.00793167
0.0083824
0.00874877
0.00904739
0.00929289
0.00949657
0.00966385
0.00979182
0.00986171
0.00983174
0.00961868
0.00909993
0.00834107
0.00767311
0.00681877
0.00520628
0.00221315
0.00180323
0.00451539
0.00621267
0.00752628
0.00857791
0.0094295
0.0101222
0.0106864
0.0111461
0.0115218
0.0118308
0.0120858
0.0122921
0.0124455
0.0125241
0.0124837
0.0122527
0.0117514
0.0110088
0.0101918
0.00907109
0.00707159
0.00312763
0.00223881
0.00539203
0.0073003
0.00877238
0.00995482
0.0109152
0.0116981
0.0123371
0.0128592
0.0132873
0.0136403
0.0139316
0.0141667
0.0143406
0.0144308
0.0143964
0.0141815
0.0137369
0.0130619
0.0122153
0.0109721
0.00875244
0.0039826
0.00261483
0.006155
0.00823536
0.00982826
0.0111081
0.0121491
0.012999
0.013694
0.0142634
0.0147317
0.0151193
0.0154404
0.0157006
0.0158951
0.0160026
0.0159874
0.0158074
0.0154317
0.0148476
0.0140341
0.0127593
0.0104166
0.00488301
0.00295072
0.00684822
0.00908301
0.0107777
0.0121362
0.0132409
0.0141436
0.0148827
0.0154894
0.0159901
0.0164063
0.0167531
0.0170368
0.0172537
0.0173844
0.0173992
0.0172665
0.016965
0.0164749
0.0157327
0.0145078
0.0121536
0.00602749
0.00326005
0.00749447
0.00987395
0.0116594
0.0130844
0.0142414
0.0151867
0.0159612
0.0165979
0.017125
0.0175653
0.0179349
0.0182415
0.0184833
0.018643
0.0186964
0.0186197
0.0183959
0.0179996
0.0173555
0.0162518
0.0140521
0.00784477
0.00355218
0.00810877
0.010626
0.0124947
0.0139773
0.0151777
0.0161578
0.0169609
0.0176219
0.0181705
0.0186311
0.0190213
0.0193507
0.0196199
0.0198139
0.0199129
0.019899
0.0197562
0.019456
0.0189265
0.0179978
0.0161737
0.0111624
0.000637155
0.00197851
0.00266807
0.00300137
0.00313975
0.003157
0.00312949
0.00310039
0.0031199
0.00316225
0.00298565
0.00269348
0.00258294
0.00290913
0.00325503
0.00315634
0.00255393
0.00174784
0.000915988
0.00154637
0.00430161
0.00572178
0.00646211
0.00679986
0.006894
0.00685408
0.0068047
0.00680072
0.00674621
0.00645141
0.00592413
0.00575852
0.00618862
0.00630735
0.0058953
0.00486384
0.00328153
0.00154997
0.00220292
0.00566158
0.00741813
0.00832409
0.00873919
0.00886596
0.00883539
0.00876347
0.00870428
0.00857312
0.00823986
0.00775728
0.0075711
0.0077595
0.00765758
0.00705253
0.00586382
0.0041297
0.00192197
0.00284599
0.0068928
0.00881782
0.00977813
0.0102105
0.0103397
0.010302
0.0102032
0.0100926
0.00990475
0.00955495
0.00911362
0.00888445
0.00886372
0.00857514
0.00779869
0.0065029
0.00468969
0.00218505
0.00357581
0.00818321
0.0101516
0.0110871
0.0114943
0.0116035
0.0115446
0.0114138
0.0112551
0.0110232
0.0106612
0.0102368
0.0099479
0.00976052
0.00931774
0.00838399
0.00697058
0.00508341
0.00238216
0.00458777
0.00962427
0.011495
0.0123368
0.0126859
0.0127574
0.0126664
0.0124988
0.0122937
0.0120232
0.0116454
0.0112138
0.0108551
0.0105358
0.00996666
0.00888967
0.00733046
0.00536513
0.0025292
0.00628509
0.0112768
0.0128728
0.0135611
0.0138266
0.0138476
0.0137161
0.0135076
0.0132559
0.0129455
0.0125461
0.0120886
0.0116578
0.0112312
0.0105583
0.00935026
0.0076153
0.00557574
0.00263256
0.00945659
0.0131374
0.0142775
0.0147706
0.0149361
0.0148979
0.0147204
0.0144672
0.0141673
0.0138141
0.0133849
0.012891
0.0123925
0.0118759
0.0111149
0.00978129
0.00784467
0.00573774
0.00268272
0.00399695
0.00903671
0.0117593
0.0137488
0.0153095
0.0165662
0.0175909
0.0184302
0.0191211
0.0196968
0.0201842
0.0206037
0.0209672
0.0212781
0.0215268
0.0217009
0.0217887
0.0217746
0.021624
0.0212712
0.0206015
0.0193562
0.0167604
0.00454137
0.0101884
0.0131712
0.0153136
0.016953
0.0182616
0.0193305
0.0202054
0.0209232
0.0215249
0.0220419
0.0224998
0.0229152
0.0232935
0.0236322
0.0239257
0.024171
0.0243532
0.0244335
0.0243569
0.0240619
0.0234522
0.0223818
0.00522655
0.0113285
0.0145649
0.0168759
0.0185328
0.0198533
0.0209542
0.0218521
0.022576
0.0231898
0.0237237
0.0242107
0.0246757
0.0251263
0.0255641
0.0259854
0.026405
0.0268145
0.0271578
0.0273688
0.0274095
0.0272007
0.0266022
0.00634437
0.0123897
0.0159569
0.0185755
0.020068
0.0213501
0.0224966
0.0234058
0.0241136
0.0247408
0.0252704
0.025766
0.02627
0.0267916
0.0273363
0.0278843
0.0284931
0.0291804
0.0298317
0.0303225
0.030696
0.0308789
0.03052
0.00633714
0.012952
0.0170438
0.0199405
0.0213504
0.0226801
0.0239117
0.0247771
0.0255608
0.0262243
0.0266847
0.0271207
0.0276018
0.0281279
0.0287069
0.0293201
0.0300442
0.0308904
0.0316383
0.0322262
0.032969
0.0339665
0.0343148
0.00593997
0.0127539
0.0172547
0.0200729
0.0219201
0.0236557
0.0251106
0.0259657
0.0267293
0.0274173
0.0277944
0.0281592
0.0285963
0.0291096
0.0297075
0.030423
0.0312387
0.0320687
0.0327378
0.0333219
0.0341803
0.0350151
0.035356
0.0056696
0.0128227
0.0174289
0.0205999
0.0223544
0.0238284
0.0252132
0.0262137
0.0271707
0.0279927
0.0284882
0.0289238
0.0293923
0.0299197
0.030511
0.0312029
0.0320234
0.0328605
0.0334098
0.0339869
0.034755
0.0355554
0.0362248
0.0057711
0.0130154
0.0174646
0.0207243
0.0225225
0.0238748
0.0251515
0.0262616
0.027295
0.0281391
0.0288036
0.0293922
0.0299493
0.030511
0.0311099
0.0317892
0.032507
0.0331612
0.0336876
0.0343793
0.0352526
0.0359515
0.0360756
0.00593796
0.0131823
0.0173378
0.0203066
0.022319
0.0238751
0.0252217
0.0263956
0.0274218
0.0282924
0.0290371
0.02969
0.0302823
0.0308467
0.0314212
0.0320351
0.0326359
0.0332026
0.0337323
0.0343259
0.0350202
0.0354063
0.0351864
0.00607872
0.013382
0.0173888
0.0202099
0.0223231
0.0239892
0.0253759
0.0265688
0.0276017
0.0284912
0.0292558
0.0299134
0.0304907
0.0310194
0.0315309
0.0320442
0.0325486
0.0330472
0.0335308
0.0339578
0.0343157
0.0344513
0.0342238
0.00624947
0.0136802
0.0176289
0.0203827
0.022486
0.0241593
0.0255444
0.026731
0.0277591
0.0286477
0.0294084
0.0300538
0.0306077
0.0311
0.0315597
0.0320051
0.0324405
0.0328639
0.0332482
0.0335348
0.0336809
0.0336547
0.0334337
0.00646038
0.0140562
0.0179386
0.0206181
0.0226681
0.0243079
0.0256678
0.0268314
0.0278402
0.0287133
0.0294602
0.0300924
0.0306302
0.0311001
0.0315271
0.0319279
0.0323069
0.0326556
0.0329432
0.0331232
0.0331636
0.0330595
0.0328225
0.00668031
0.0144105
0.0182182
0.0208162
0.0228005
0.0243925
0.0257155
0.0268464
0.0278265
0.0286757
0.029405
0.0300252
0.0305533
0.0310103
0.031416
0.0317829
0.0321129
0.0323959
0.0326071
0.0327148
0.0327004
0.0325673
0.032327
0.0069072
0.0146681
0.0184112
0.0209344
0.0228544
0.0243961
0.0256783
0.0267731
0.0277212
0.0285443
0.0292552
0.029864
0.0303846
0.0308328
0.0312229
0.0315633
0.0318544
0.032088
0.0322476
0.0323143
0.0322777
0.0321417
0.0319133
0.00705851
0.0148161
0.0185018
0.0209603
0.0228233
0.0243187
0.0255625
0.0266233
0.0275412
0.0283394
0.0290318
0.0296294
0.0301432
0.0305848
0.030964
0.0312863
0.0315518
0.0317552
0.0318868
0.0319366
0.0318991
0.0317758
0.0315699
0.00713862
0.0148565
0.0184901
0.0208945
0.0227095
0.0241654
0.0253762
0.0264081
0.027301
0.0280788
0.0287564
0.029345
0.0298539
0.0302918
0.0306655
0.030979
0.0312329
0.031424
0.0315475
0.0315982
0.0315732
0.0314721
0.0312955
0.00716055
0.0148
0.0183824
0.0207412
0.0225174
0.0239417
0.0251267
0.0261372
0.0270123
0.0277764
0.0284451
0.0290294
0.0295378
0.0299772
0.0303527
0.0306675
0.0309226
0.0311167
0.0312473
0.0313118
0.0313083
0.0312353
0.0310919
0.00713218
0.0146582
0.0181876
0.0205068
0.0222523
0.0236531
0.0248206
0.0258179
0.0266837
0.0274422
0.0281095
0.0286965
0.0292109
0.0296588
0.0300445
0.0303706
0.0306384
0.0308476
0.0309968
0.0310845
0.0311089
0.0310681
0.03096
0.0070584
0.0144416
0.0179149
0.0201987
0.0219203
0.0233054
0.0244635
0.0254563
0.0263215
0.0270834
0.0277578
0.0283555
0.028884
0.0293486
0.0297532
0.0301001
0.0303905
0.0306245
0.0308011
0.030919
0.0309763
0.0309707
0.0308998
0.00694348
0.0141593
0.0175728
0.0198244
0.0215279
0.0229046
0.0240611
0.0250577
0.0259313
0.0267055
0.0273958
0.0280129
0.0285639
0.0290539
0.029486
0.0298624
0.0301842
0.030451
0.0306621
0.0308158
0.0309102
0.0309429
0.0309111
0.00679183
0.0138191
0.0171695
0.0193915
0.0210821
0.0224568
0.0236193
0.0246278
0.0255181
0.0263133
0.0270283
0.0276735
0.0282556
0.0287793
0.0292473
0.0296614
0.0300221
0.0303289
0.0305805
0.0307752
0.0309108
0.0309847
0.0309941
0.00660722
0.0134282
0.0167129
0.0189076
0.0205902
0.0219691
0.0231445
0.0241726
0.0250877
0.0259121
0.0266603
0.0273421
0.0279637
0.0285292
0.029041
0.0295004
0.0299071
0.0302602
0.0305582
0.0307988
0.0309796
0.031098
0.0311513
0.00639267
0.0129936
0.0162106
0.0183807
0.0200601
0.0214492
0.0226442
0.023699
0.0246467
0.0255083
0.0262978
0.0270241
0.0276932
0.0283085
0.0288718
0.0293836
0.0298431
0.0302489
0.0305988
0.0308904
0.0311209
0.0312874
0.0313875
0.00615124
0.0125219
0.0156705
0.0178191
0.0195003
0.0209056
0.0221269
0.0232156
0.0242031
0.0251095
0.0259479
0.0267267
0.027451
0.0281237
0.0287459
0.0293173
0.0298365
0.0303014
0.0307092
0.0310571
0.0313418
0.0315606
0.0317109
0.00588572
0.0120197
0.0151009
0.0172322
0.0189207
0.0203484
0.0216024
0.0227318
0.0237663
0.0247249
0.0256197
0.0264585
0.0272456
0.0279833
0.0286719
0.0293104
0.0298964
0.0304272
0.0308992
0.0313092
0.0316535
0.0319291
0.0321332
0.00559701
0.0114928
0.0145107
0.0166304
0.0183323
0.0197887
0.0210821
0.0222589
0.0233473
0.0243651
0.0253237
0.0262299
0.0270875
0.027898
0.0286609
0.0293742
0.0300347
0.0306388
0.0311823
0.0316609
0.0320707
0.0324082
0.0326705
0.00528488
0.0109472
0.0139102
0.0160257
0.0177479
0.0192395
0.0205788
0.0218095
0.0229584
0.0240423
0.0250718
0.0260529
0.0269889
0.0278803
0.0287259
0.0295226
0.0302665
0.0309524
0.0315754
0.0321302
0.0326123
0.0330176
0.033343
0.00497573
0.0103893
0.013312
0.0154326
0.0171821
0.0187153
0.0201065
0.0213973
0.022613
0.0237696
0.0248769
0.0259406
0.0269631
0.0279443
0.028882
0.0297722
0.0306093
0.0313872
0.0320993
0.0327393
0.0333017
0.0337816
0.0341758
0.00468369
0.00984854
0.0127376
0.0148699
0.0166526
0.0182328
0.0196811
0.0210372
0.0223253
0.0235608
0.0247529
0.0259069
0.0270247
0.0281055
0.0291462
0.0301414
0.031084
0.0319659
0.0327789
0.0335149
0.0341671
0.0347297
0.0351991
0.0044109
0.0093517
0.0122103
0.0143583
0.0161781
0.0178092
0.0193187
0.0207444
0.0221098
0.0234297
0.0247133
0.0259657
0.0271886
0.0283804
0.029537
0.0306513
0.0317143
0.0327154
0.0336438
0.0344891
0.0352426
0.0358975
0.0364494
0.00416803
0.00892189
0.0117525
0.013918
0.0157772
0.0174616
0.019035
0.0205335
0.0219799
0.0233892
0.0247709
0.0261304
0.0274693
0.0287854
0.0300735
0.0313247
0.032527
0.0336665
0.0347287
0.0356999
0.0365688
0.037327
0.0379696
0.0039647
0.00857428
0.0113818
0.0135668
0.015467
0.0172063
0.0188448
0.0204176
0.0219475
0.0234503
0.0249364
0.0264121
0.0278794
0.029336
0.0307751
0.0321856
0.0335517
0.0348544
0.0360741
0.0371922
0.0381936
0.039068
0.0398103
0.00380613
0.00831677
0.0111118
0.0133212
0.0152646
0.017059
0.0187618
0.0204082
0.0220221
0.0236209
0.0252172
0.0268188
0.028429
0.0300455
0.0316601
0.0332589
0.0348208
0.0363197
0.037728
0.0390196
0.0401744
0.0411797
0.0420305
0.00369372
0.00815598
0.0109581
0.0132007
0.0151895
0.0170367
0.0187996
0.0205152
0.0222101
0.0239052
0.0256161
0.0273536
0.029123
0.030923
0.0327443
0.0345693
0.0363696
0.0381089
0.039747
0.0412467
0.0425801
0.043732
0.0446991
0.00362949
0.00810989
0.0109505
0.013238
0.0152708
0.0171619
0.0189731
0.0207466
0.0225144
0.0243021
0.0261298
0.0280126
0.0299593
0.0319712
0.0340386
0.0361392
0.0382358
0.0402762
0.0422003
0.0439527
0.0454945
0.0468087
0.0478966
0.00362688
0.00823581
0.0111594
0.0134977
0.0155576
0.0174664
0.0192993
0.0211082
0.0229323
0.024803
0.026746
0.0287818
0.0309251
0.0331816
0.0355438
0.0379855
0.0404579
0.0428847
0.0451735
0.0472373
0.0490216
0.0505104
0.0517167
0.00373906
0.00869287
0.0117456
0.0141046
0.0161307
0.0179943
0.0197959
0.0216002
0.0234527
0.0253895
0.027441
0.0296346
0.0319927
0.0345299
0.0372456
0.0401135
0.0430717
0.0460094
0.0487773
0.0512304
0.0532924
0.0549585
0.0562675
0.00414148
0.00985372
0.0130293
0.0152707
0.0171049
0.018794
0.0204723
0.0222103
0.0240514
0.0260294
0.028177
0.0305276
0.0331148
0.035968
0.0391031
0.0425047
0.0461017
0.0497381
0.0531632
0.0561089
0.0584755
0.0602989
0.0616713
0.00531104
0.0123442
0.0154711
0.0172515
0.0185852
0.0198855
0.0213086
0.0229023
0.0246848
0.0266749
0.0289004
0.0313996
0.0342202
0.0374152
0.0410326
0.0450915
0.0495369
0.0541686
0.0585564
0.0621264
0.0647897
0.0667026
0.0680607
0.00830053
0.0166403
0.0192847
0.0200964
0.0205304
0.021192
0.0222239
0.0236021
0.0252863
0.0272619
0.0295437
0.0321726
0.0352126
0.0387496
0.042885
0.0477154
0.0532726
0.05938
0.065343
0.0696674
0.0725136
0.0743568
0.0755683
0.0195938
0.022904
0.0238722
0.023261
0.0225607
0.0224627
0.0230517
0.0241946
0.0257689
0.0277159
0.0300324
0.0327592
0.0359765
0.0398073
0.0444245
0.0500563
0.0569635
0.0652864
0.074335
0.0793318
0.0819681
0.0834324
0.084304
0.0839183
0.0325617
0.0277652
0.0255518
0.0239451
0.0232883
0.0235633
0.0245439
0.0260425
0.0279663
0.0302982
0.0330779
0.0363965
0.0404041
0.045335
0.0515601
0.0597044
0.0709317
0.0876912
0.091966
0.0933938
0.0940049
0.0943234
0.0117558
0.010219
0.00998258
0.0109043
0.0212053
0.0205378
0.020065
0.0197958
0.0258611
0.02533
0.024755
0.0241677
0.0297706
0.0292524
0.028533
0.0276805
0.0332363
0.032461
0.0316102
0.0305632
0.0350207
0.0341102
0.0333157
0.0322849
0.0357126
0.0351544
0.0346497
0.0335928
0.0353851
0.0349405
0.0344217
0.0336335
0.0346392
0.034241
0.0337779
0.0332691
0.0338296
0.0335219
0.0331818
0.0328297
0.0331194
0.0328781
0.0326091
0.0323219
0.0325422
0.0323336
0.0321005
0.0318473
0.0320682
0.031879
0.0316682
0.0314377
0.0316755
0.0315028
0.0313105
0.0310993
0.0313558
0.0312
0.0310259
0.0308337
0.0311076
0.0309697
0.0308142
0.0306414
0.0309315
0.030812
0.0306756
0.0305223
0.0308279
0.0307271
0.0306099
0.0304763
0.0307968
0.0307149
0.030617
0.030503
0.0308378
0.0307753
0.0306969
0.0306027
0.0309517
0.0309091
0.0308506
0.0307763
0.031141
0.0311189
0.0310808
0.0310268
0.0314109
0.0314101
0.0313931
0.0313598
0.0317697
0.0317912
0.0317961
0.0317843
0.0322296
0.0322746
0.0323024
0.0323128
0.0328069
0.0328768
0.0329286
0.0329623
0.0335223
0.0336187
0.033696
0.0337541
0.0344012
0.0345259
0.0346303
0.0347143
0.0354742
0.0356295
0.0357628
0.0358742
0.0367783
0.0369663
0.0371304
0.0372706
0.0383565
0.0385794
0.038776
0.0389465
0.0402591
0.0405188
0.0407492
0.0409508
0.0425442
0.042842
0.0431068
0.0433396
0.0452793
0.0456149
0.0459133
0.0461758
0.0485412
0.0489124
0.0492412
0.0495298
0.0524181
0.0528187
0.0531712
0.0534791
0.0570086
0.057427
0.0577918
0.0581079
0.0624213
0.0628386
0.0631978
0.0635058
0.0687708
0.0691586
0.0694874
0.0697657
0.0761687
0.0764898
0.0767574
0.0769808
0.084711
0.0849238
0.0850983
0.0852422
0.0944633
0.0945351
0.0945932
0.0946406
0.0148355
0.0159312
0.0164011
0.0166
0.0166143
0.0164875
0.0162421
0.0159142
0.0155345
0.0151079
0.0146202
0.0140642
0.0134729
0.0128302
0.0119341
0.0104026
0.00816509
0.00582053
0.0026503
0.0195988
0.0193445
0.0191619
0.018993
0.018793
0.0185345
0.0181937
0.0177646
0.0172608
0.0167127
0.0161275
0.0154956
0.0148242
0.0140787
0.013065
0.0113493
0.00872429
0.00569922
0.00256112
0.0232506
0.0223238
0.0216989
0.0212374
0.0208427
0.020461
0.0200167
0.0194843
0.0188569
0.0181745
0.0174823
0.0167862
0.0160771
0.015302
0.0142753
0.0125157
0.00971625
0.00624539
0.00290141
0.0263094
0.0249232
0.0239806
0.0232914
0.022732
0.02228
0.0217282
0.0210687
0.0202893
0.0194669
0.0186727
0.0179254
0.0172307
0.0165563
0.015773
0.0141543
0.0112956
0.00788276
0.00407293
0.0287847
0.0270984
0.0259184
0.0250644
0.0243328
0.0237474
0.0230503
0.0222462
0.0213864
0.0205098
0.019645
0.0188068
0.0180118
0.0172648
0.0164988
0.0149698
0.0123892
0.00970569
0.00554452
0.0305424
0.0288567
0.027564
0.0265833
0.0256925
0.0249014
0.0240533
0.0231381
0.0222037
0.0212751
0.0203459
0.0194213
0.0185002
0.0174595
0.0163159
0.0149006
0.0130338
0.0104739
0.00601926
0.0317595
0.0301047
0.028794
0.0276993
0.0266476
0.0257798
0.0248963
0.023889
0.0228532
0.0218216
0.0207776
0.0197095
0.0185773
0.0173206
0.0160984
0.0147937
0.0131152
0.0103124
0.00497469
0.0322886
0.0307525
0.0294687
0.0283384
0.0272724
0.0263615
0.0254529
0.0244034
0.0232745
0.0221166
0.0209479
0.0197501
0.0184536
0.017076
0.015803
0.0144184
0.0125489
0.00948158
0.00435819
0.0324148
0.0311836
0.0299481
0.0287661
0.0276047
0.0265554
0.0255732
0.0245133
0.0233524
0.0221205
0.0208617
0.0195608
0.0181708
0.0167296
0.0153632
0.0138661
0.0117976
0.00868178
0.00389251
0.0322158
0.0312352
0.0301227
0.0289507
0.027736
0.026592
0.0255188
0.0244222
0.0232491
0.0219974
0.0206856
0.0193034
0.0178412
0.0163372
0.0148616
0.0132138
0.0110222
0.00788812
0.00341317
0.0318163
0.0309872
0.0300102
0.0289194
0.0277549
0.0266082
0.0254928
0.02436
0.0231728
0.0219154
0.0205762
0.0191431
0.0176095
0.0160248
0.0144173
0.0125706
0.0102358
0.00713793
0.00299932
0.0313973
0.0306557
0.0297837
0.0287939
0.0277209
0.0266244
0.0255166
0.0243739
0.0231834
0.0219317
0.0205927
0.0191335
0.0175551
0.0159168
0.0141822
0.0121695
0.00973517
0.00670417
0.00289226
0.0310256
0.0303444
0.0295517
0.0286544
0.0276753
0.0266457
0.0255736
0.0244493
0.0232747
0.0220444
0.020723
0.0192702
0.0177005
0.0160509
0.0142637
0.0122184
0.00983161
0.00695399
0.00322992
0.0307205
0.0300915
0.0293642
0.0285447
0.0276472
0.0266851
0.0256621
0.024576
0.0234333
0.0222335
0.0209448
0.0195341
0.0180097
0.0163875
0.014631
0.0126685
0.0104406
0.0077508
0.00371994
0.0304875
0.0299089
0.0292398
0.0284861
0.0276569
0.0267581
0.0257903
0.0247534
0.0236535
0.0224914
0.0212461
0.0198939
0.0184339
0.0168724
0.0151874
0.0133306
0.0112205
0.00856603
0.00417705
0.030328
0.0297989
0.029184
0.0284884
0.0277184
0.0268776
0.0259655
0.0249819
0.0239308
0.0228129
0.0216163
0.0203251
0.0189347
0.0174444
0.0158333
0.0140511
0.0119841
0.00927569
0.00457077
0.0302419
0.0297616
0.0291981
0.0285559
0.0278397
0.0270522
0.0261931
0.0252619
0.0242608
0.0231901
0.0220431
0.0208095
0.0194829
0.0180566
0.0165056
0.0147736
0.0127283
0.00997421
0.00492997
0.0302287
0.0297964
0.0292825
0.0286905
0.0280243
0.0272862
0.0264761
0.0255939
0.0246404
0.0236154
0.0225148
0.0213315
0.0200579
0.0186818
0.0171748
0.0154763
0.0134459
0.0106722
0.0052685
0.0302882
0.0299031
0.029437
0.0288928
0.0282735
0.0275811
0.0268159
0.025978
0.0250674
0.0240835
0.0230234
0.0218809
0.0206476
0.0193065
0.0178271
0.0161454
0.0141162
0.0113203
0.00558845
0.0304206
0.0300819
0.029662
0.0291634
0.0285882
0.0279381
0.0272136
0.0264149
0.0255415
0.0245925
0.023565
0.0224534
0.0212464
0.0199261
0.0184586
0.0167764
0.0147252
0.0118719
0.00591028
0.030627
0.0303341
0.0299593
0.0295041
0.0289705
0.0283596
0.0276717
0.026907
0.0260649
0.025144
0.0241409
0.0230488
0.0218561
0.020543
0.0190719
0.0173722
0.0152862
0.0123498
0.00620887
0.0309107
0.0306634
0.0303324
0.029919
0.0294245
0.0288496
0.0281947
0.0274594
0.0266428
0.0257427
0.0247552
0.0236729
0.0224832
0.0211646
0.0196797
0.0179528
0.0158155
0.012773
0.00645187
0.0312776
0.0310758
0.0307879
0.0304149
0.0299573
0.0294158
0.0287902
0.0280798
0.0272832
0.0263974
0.025418
0.0243362
0.0231405
0.0218075
0.0202964
0.0185272
0.0163209
0.0131509
0.00661245
0.0317369
0.0315809
0.0313358
0.031002
0.0305797
0.0300691
0.0294698
0.0287804
0.027999
0.0271216
0.0261438
0.0250565
0.0238455
0.0224864
0.0209356
0.0191082
0.0168137
0.013494
0.00668353
0.0323014
0.0321922
0.0319898
0.0316945
0.0313062
0.0308248
0.0302492
0.0295775
0.0288075
0.0279348
0.0269531
0.0258523
0.0246167
0.02322
0.021616
0.0197147
0.0173145
0.0138293
0.00671637
0.0329884
0.0329271
0.0327678
0.0325108
0.0321556
0.031702
0.0311485
0.0304927
0.0297313
0.0288588
0.0278676
0.0267462
0.0254771
0.0240321
0.0223618
0.0203717
0.0178514
0.0141913
0.00675918
0.0338195
0.0338074
0.033692
0.0334733
0.0331512
0.0327249
0.0321924
0.0315508
0.0307954
0.0299197
0.0289142
0.0277658
0.0264549
0.0249509
0.0232019
0.0211093
0.0184563
0.0146141
0.00685356
0.0348209
0.0348599
0.0347894
0.0346097
0.0343207
0.0339214
0.0334094
0.0327808
0.0320298
0.0311481
0.0301245
0.0289436
0.0275835
0.0260109
0.0241712
0.021963
0.0191649
0.0151309
0.00706603
0.0360242
0.0361161
0.0360915
0.0359514
0.0356958
0.0353237
0.0348322
0.0342164
0.033469
0.03258
0.0315358
0.0303184
0.0289027
0.0272527
0.0253108
0.0229736
0.0200181
0.0157973
0.007396
0.0374661
0.0376125
0.0376348
0.0375347
0.0373131
0.0369687
0.0364983
0.0358961
0.0351531
0.0342572
0.0331918
0.0319357
0.03046
0.0287249
0.0266696
0.024188
0.0210549
0.016612
0.00782748
0.039189
0.039391
0.0394605
0.0394008
0.0392135
0.0388977
0.0384501
0.0378635
0.0371275
0.0362271
0.0351428
0.0338487
0.0323113
0.0304855
0.0283055
0.0256609
0.0223203
0.0176025
0.00832149
0.0412414
0.0414988
0.0416149
0.0415951
0.0414424
0.0411567
0.0407341
0.0401668
0.0394425
0.0385434
0.0374458
0.0361188
0.0345224
0.0326038
0.0302892
0.0274597
0.0238724
0.0188088
0.00889512
0.0436776
0.0439884
0.044149
0.0441678
0.0440496
0.0437953
0.0434012
0.0428586
0.0421535
0.0412649
0.0401648
0.0388157
0.0371693
0.035162
0.0327071
0.0296707
0.0257892
0.0202922
0.00957655
0.0465582
0.0469176
0.0471185
0.0471731
0.0470886
0.0468672
0.0465057
0.045995
0.0453193
0.0444548
0.0433686
0.0420161
0.0403382
0.0382567
0.035665
0.032404
0.028176
0.0221372
0.0103878
0.0499501
0.0503493
0.0505835
0.0506691
0.0506164
0.0504292
0.0501052
0.0496349
0.0490016
0.048179
0.0471298
0.0458018
0.0441236
0.041998
0.0392902
0.0358009
0.0311758
0.0244625
0.0113549
0.0539258
0.0543512
0.0546081
0.0547179
0.0546938
0.0545415
0.0542596
0.0538393
0.0532633
0.0525042
0.0515212
0.0502557
0.0486239
0.0465066
0.0437319
0.0400411
0.0349877
0.0274546
0.012588
0.0585636
0.0589956
0.059261
0.0593856
0.0593853
0.0592675
0.059032
0.058671
0.0581681
0.0574959
0.0566128
0.0554565
0.0539339
0.0519049
0.049155
0.0453453
0.0398869
0.0314006
0.014278
0.063946
0.0643595
0.0646157
0.0647437
0.0647608
0.0646758
0.0644895
0.0641957
0.0637798
0.0632172
0.0624685
0.0614729
0.0601349
0.0583016
0.0557216
0.0519646
0.0462381
0.0367269
0.016643
0.0701594
0.0705248
0.070752
0.0708705
0.0708976
0.0708419
0.0707054
0.0704836
0.0701651
0.0697299
0.069145
0.0683577
0.0672814
0.0657683
0.0635545
0.06014
0.0544952
0.0441122
0.0201393
0.0772933
0.0775798
0.0777583
0.0778546
0.0778832
0.077852
0.077763
0.0776137
0.0773966
0.0770978
0.0766942
0.0761476
0.0753929
0.0743129
0.0726794
0.0700048
0.0651139
0.0545913
0.0254585
0.0854414
0.0856223
0.0857355
0.0857982
0.0858205
0.0858073
0.0857605
0.0856792
0.0855596
0.0853944
0.0851716
0.084871
0.0844578
0.0838669
0.082962
0.0814122
0.078241
0.0695966
0.0339232
0.094706
0.0947652
0.0948025
0.0948238
0.0948323
0.0948299
0.0948173
0.0947944
0.0947604
0.0947137
0.0946515
0.0945695
0.0944608
0.0943135
0.0941028
0.093758
0.0929787
0.0896626
0.0471385
)
;

boundaryField
{
    leftWall
    {
        type            kqRWallFunction;
        value           nonuniform List<scalar> 
50
(
0.000602798
0.0012846
0.00180323
0.00223881
0.00261483
0.00295072
0.00326005
0.00355218
0.00399695
0.00454137
0.00522655
0.00634437
0.00633714
0.00593997
0.0056696
0.0057711
0.00593796
0.00607872
0.00624947
0.00646038
0.00668031
0.0069072
0.00705851
0.00713862
0.00716055
0.00713218
0.0070584
0.00694348
0.00679183
0.00660722
0.00639267
0.00615124
0.00588572
0.00559701
0.00528488
0.00497573
0.00468369
0.0044109
0.00416803
0.0039647
0.00380613
0.00369372
0.00362949
0.00362688
0.00373906
0.00414148
0.00531104
0.00830053
0.0195938
0.0839183
)
;
    }
    rightWall
    {
        type            kqRWallFunction;
        value           nonuniform List<scalar> 
50
(
0.000915988
0.00154997
0.00192197
0.00218505
0.00238216
0.0025292
0.00263256
0.00268272
0.0026503
0.00256112
0.00290141
0.00407293
0.00554452
0.00601926
0.00497469
0.00435819
0.00389251
0.00341317
0.00299932
0.00289226
0.00322992
0.00371994
0.00417705
0.00457077
0.00492997
0.0052685
0.00558845
0.00591028
0.00620887
0.00645187
0.00661245
0.00668353
0.00671637
0.00675918
0.00685356
0.00706603
0.007396
0.00782748
0.00832149
0.00889512
0.00957655
0.0103878
0.0113549
0.012588
0.014278
0.016643
0.0201393
0.0254585
0.0339232
0.0471385
)
;
    }
    lowerWall
    {
        type            kqRWallFunction;
        value           nonuniform List<scalar> 
62
(
0.000602798
0.001485
0.00215272
0.00266004
0.00306115
0.00338399
0.00364581
0.00385837
0.00403058
0.00417016
0.00428407
0.00437788
0.00445851
0.00452955
0.00457584
0.00457356
0.00445834
0.0041095
0.00371456
0.00340971
0.00305209
0.00232344
0.000918174
0.000918174
0.00221315
0.00312763
0.0039826
0.00488301
0.00602749
0.00784477
0.0111624
0.0117558
0.010219
0.00998258
0.0109043
0.000637155
0.00154637
0.00220292
0.00284599
0.00357581
0.00458777
0.00628509
0.00945659
0.000637155
0.00197851
0.00266807
0.00300137
0.00313975
0.003157
0.00312949
0.00310039
0.0031199
0.00316225
0.00298565
0.00269348
0.00258294
0.00290913
0.00325503
0.00315634
0.00255393
0.00174784
0.000915988
)
;
    }
    atmosphere
    {
        type            inletOutlet;
        inletValue      uniform 0.1;
        value           nonuniform List<scalar> 
46
(
0.1
0.0325617
0.0277652
0.0255518
0.0239451
0.0232883
0.0235633
0.0245439
0.0260425
0.0279663
0.0302982
0.0330779
0.0363965
0.0404041
0.045335
0.0515601
0.0597044
0.0709317
0.1
0.1
0.1
0.1
0.1
0.1
0.1
0.1
0.1
0.1
0.1
0.1
0.1
0.1
0.1
0.1
0.1
0.1
0.1
0.1
0.1
0.1
0.1
0.1
0.1
0.1
0.1
0.0471385
)
;
    }
    defaultFaces
    {
        type            empty;
    }
}


// ************************************************************************* //
