/*--------------------------------*- C++ -*----------------------------------*\
  =========                 |
  \\      /  F ield         | OpenFOAM: The Open Source CFD Toolbox
   \\    /   O peration     | Website:  https://openfoam.org
    \\  /    A nd           | Version:  9
     \\/     M anipulation  |
\*---------------------------------------------------------------------------*/
FoamFile
{
    format      ascii;
    class       volScalarField;
    location    "3.89";
    object      nut;
}
// * * * * * * * * * * * * * * * * * * * * * * * * * * * * * * * * * * * * * //

dimensions      [0 2 -1 0 0 0 0];

internalField   nonuniform List<scalar> 
2268
(
2.24441e-05
2.59171e-05
3.11978e-05
3.46782e-05
3.72013e-05
3.91152e-05
4.06023e-05
4.17717e-05
4.26968e-05
4.34335e-05
4.40268e-05
4.45105e-05
4.49249e-05
4.52865e-05
4.552e-05
4.55069e-05
4.49203e-05
4.31123e-05
4.09932e-05
3.92842e-05
3.71819e-05
3.24333e-05
2.03977e-05
5.10332e-05
0.000200513
0.000268101
0.000311105
0.000341805
0.000365014
0.000383202
0.000397762
0.000409585
0.000419351
0.000427642
0.0004349
0.000440967
0.00044525
0.000447637
0.000446882
0.000440476
0.000422615
0.000387167
0.000369321
0.000343737
0.000258882
6.69711e-05
6.04588e-05
0.00034142
0.000492694
0.00059027
0.000660409
0.000713632
0.000755354
0.000788706
0.000815701
0.000837817
0.000856226
0.000871734
0.000884307
0.000893227
0.000897481
0.000894415
0.000879303
0.000844214
0.000785038
0.00072994
0.000639222
0.000433339
7.95968e-05
6.73645e-05
0.000439983
0.000667742
0.000818557
0.000928358
0.0010123
0.00107836
0.00113123
0.00117399
0.00120884
0.00123747
0.00126098
0.0012795
0.00129228
0.0012975
0.00129149
0.00126835
0.00122013
0.00114173
0.00104397
0.000877845
0.00056146
8.9819e-05
7.28016e-05
0.000512536
0.000805503
0.00100473
0.00115188
0.00126544
0.00135534
0.00142759
0.00148611
0.00153373
0.00157256
0.00160394
0.00162816
0.0016444
0.00165033
0.00164159
0.00161173
0.00155266
0.001457
0.00131722
0.00107911
0.000664499
9.94792e-05
7.73365e-05
0.000568903
0.00091644
0.00115847
0.00133979
0.00148112
0.00159384
0.0016849
0.00175889
0.00181916
0.00186811
0.00190732
0.00193717
0.00195686
0.00196369
0.00195289
0.00191767
0.00184932
0.00173701
0.00155999
0.00125852
0.00075223
0.000110581
8.12901e-05
0.000614745
0.00100792
0.00128732
0.00149941
0.00166638
0.00180058
0.00190962
0.00199862
0.00207125
0.0021302
0.00217716
0.00221268
0.00223603
0.0022442
0.00223222
0.00219307
0.00211723
0.00199067
0.00178479
0.00143293
0.000838893
0.000126218
8.48564e-05
0.000653381
0.00108499
0.0013969
0.00163649
0.00182688
0.00198108
0.00210715
0.00221052
0.00229515
0.00236386
0.0024185
0.00245975
0.00248707
0.00249717
0.00248502
0.00244349
0.00236255
0.00222636
0.00200351
0.00162467
0.000962914
0.000150542
1.69381e-05
2.99323e-05
3.47549e-05
3.68621e-05
3.7703e-05
3.78057e-05
3.76433e-05
3.7472e-05
3.75927e-05
3.7846e-05
3.67721e-05
3.49206e-05
3.41559e-05
3.62265e-05
3.8349e-05
3.77806e-05
3.40227e-05
2.81688e-05
2.86642e-05
6.21679e-05
0.000237863
0.000310749
0.000343434
0.000356869
0.000360462
0.000357883
0.000358972
0.000364586
0.00036262
0.000348483
0.000309701
0.000301097
0.000334035
0.000333028
0.000310069
0.000258067
0.000152085
6.23826e-05
7.42526e-05
0.00039727
0.000572939
0.000657883
0.000695747
0.000709522
0.000711369
0.000714594
0.000722603
0.000718299
0.000690726
0.000635267
0.000619017
0.000647846
0.000634668
0.00057838
0.000468102
0.000279402
6.9396e-05
8.44373e-05
0.000512423
0.000782958
0.000922279
0.000988656
0.00101671
0.00102576
0.00103117
0.00103804
0.00103042
0.000995261
0.000935315
0.000908434
0.000914237
0.000877218
0.000783741
0.000623505
0.000378092
7.39366e-05
9.47064e-05
0.000610785
0.000964329
0.00115279
0.00124636
0.00128917
0.00130557
0.00131261
0.00131645
0.00130463
0.00126458
0.00120233
0.00116177
0.00113788
0.00107042
0.000938016
0.000732727
0.000444702
7.71531e-05
0.000107364
0.000707357
0.00113483
0.00136371
0.00147984
0.00153542
0.00155792
0.00156565
0.00156539
0.00154854
0.0015039
0.00143827
0.0013819
0.00132718
0.00122658
0.00105443
0.000806053
0.000484125
7.94566e-05
0.000125731
0.000815996
0.0013083
0.00156525
0.00169701
0.00176189
0.00178847
0.00179562
0.00179049
0.00176743
0.00171788
0.00164692
0.00157381
0.00148953
0.00135546
0.00114312
0.000851852
0.000503183
8.10195e-05
0.00015415
0.000965218
0.00149767
0.0017643
0.0019032
0.00197314
0.00200142
0.00200659
0.00199586
0.00196589
0.00191044
0.00183231
0.0017425
0.00163097
0.00146448
0.00121148
0.000876142
0.000508339
8.17702e-05
9.00237e-05
0.000705664
0.00118839
0.00154464
0.00182267
0.0020466
0.00223008
0.00238154
0.00250665
0.00260964
0.00269349
0.00276011
0.00281024
0.00284325
0.00285618
0.00284433
0.00280092
0.00271586
0.002573
0.00234439
0.00198233
0.00142697
0.000703729
9.59369e-05
0.000758588
0.00129159
0.00169345
0.00201182
0.00227209
0.00248856
0.00266959
0.00282079
0.00294659
0.00304999
0.00313291
0.00319616
0.00323888
0.00325899
0.00325283
0.00321522
0.00313831
0.00301085
0.00281808
0.00254342
0.00217557
0.00173276
0.000102851
0.000794117
0.00136975
0.00181097
0.00216086
0.00244995
0.00269392
0.00290031
0.00307412
0.00322041
0.00334186
0.00344038
0.00351694
0.00357076
0.00360067
0.00360405
0.00357829
0.00351821
0.00341676
0.00326802
0.00307226
0.00283853
0.00259489
0.000113195
0.000799039
0.00142043
0.00190499
0.00227734
0.00258868
0.00285613
0.00308479
0.0032783
0.00344365
0.00358213
0.00369592
0.00378623
0.0038524
0.00389451
0.00390968
0.00389945
0.00386025
0.00378595
0.00367305
0.00353053
0.00337216
0.00322512
0.000113095
0.000793995
0.00144288
0.00196469
0.00235877
0.00269049
0.00297751
0.00322414
0.00343923
0.00362407
0.00377862
0.00390721
0.00401119
0.00409004
0.00414439
0.00417275
0.00417814
0.00415769
0.0041028
0.00401071
0.00389932
0.00378485
0.00368914
0.000109559
0.000751994
0.00144356
0.0019642
0.00238053
0.00274231
0.00305417
0.00332132
0.0035572
0.00376408
0.00393652
0.00408042
0.00419772
0.00428853
0.00435368
0.00439494
0.00441141
0.00440022
0.00435388
0.00427206
0.00417647
0.00408073
0.00400807
0.000107114
0.000765616
0.00147096
0.00199905
0.00240833
0.0027729
0.00310141
0.00339012
0.00364843
0.00387447
0.00406525
0.00422565
0.00435658
0.00445874
0.00453331
0.00458238
0.00460516
0.00459965
0.004558
0.00448818
0.00440469
0.00432791
0.00428012
0.000108041
0.000810338
0.00150327
0.0020434
0.00246565
0.00283939
0.00317671
0.00347754
0.00374699
0.00398158
0.00418365
0.00435557
0.00449668
0.00460757
0.00468987
0.00474522
0.0047719
0.00476966
0.00473785
0.00468419
0.0046194
0.00455453
0.00450727
0.00010952
0.000824723
0.0015177
0.00208083
0.00254227
0.00294034
0.00328942
0.00359562
0.00386512
0.00410067
0.00430552
0.00448098
0.00462676
0.00474253
0.00482961
0.00488947
0.00492113
0.0049259
0.00490523
0.00486303
0.00480876
0.00474899
0.00469769
0.000110784
0.000845485
0.0015642
0.00215812
0.00265035
0.00306656
0.00342264
0.00372988
0.00399714
0.00423012
0.00443273
0.0046067
0.00475235
0.00486969
0.00495913
0.00502185
0.0050587
0.00507124
0.00506065
0.00502761
0.00497898
0.00492402
0.00487459
0.000112321
0.0008859
0.00164306
0.00226395
0.00277485
0.00320097
0.00356058
0.00386747
0.00413212
0.00436166
0.00456066
0.00473147
0.00487511
0.00499207
0.00508294
0.00514851
0.00519027
0.00520944
0.0052068
0.00518304
0.00514217
0.00509363
0.00504762
0.000114203
0.000934608
0.0017292
0.00237215
0.00289575
0.00332841
0.00369065
0.00399765
0.00426072
0.0044877
0.00468372
0.00485176
0.00499347
0.00510986
0.00520184
0.00527029
0.00531645
0.00534134
0.00534566
0.0053304
0.00529879
0.00525807
0.00521616
0.000116128
0.000976265
0.0018027
0.00246513
0.00300011
0.00343919
0.00380489
0.00411344
0.00437663
0.00460274
0.00479737
0.00496404
0.00510492
0.00522152
0.00531501
0.00538642
0.00543678
0.005467
0.00547788
0.00547063
0.00544808
0.0054155
0.00537866
0.000118104
0.00100126
0.00185474
0.00253554
0.00308223
0.0035288
0.00389942
0.00421121
0.0044764
0.00470361
0.00489886
0.00506595
0.00520754
0.00532554
0.00542142
0.00549632
0.00555116
0.00558687
0.00560437
0.00560498
0.00559111
0.00556656
0.00553551
0.000119431
0.00101679
0.00188945
0.00258525
0.00314299
0.00359775
0.00397458
0.00429113
0.00455994
0.00478991
0.00498731
0.00515647
0.00530039
0.00542124
0.00552067
0.00559995
0.00565996
0.0057017
0.00572615
0.00573465
0.00572921
0.0057126
0.00568783
0.000120138
0.00102511
0.00191058
0.00261783
0.00318523
0.00364806
0.00403169
0.00435402
0.00462776
0.004862
0.00506324
0.00523609
0.00538384
0.0055089
0.00561307
0.0056977
0.00576372
0.00581216
0.00584404
0.00586059
0.00586348
0.00585476
0.0058366
0.000120346
0.00102712
0.00192019
0.00263574
0.00321122
0.00368166
0.00407234
0.00440116
0.0046809
0.00492073
0.00512729
0.00530537
0.00545843
0.00558905
0.00569914
0.00579014
0.00586301
0.00591881
0.00595855
0.00598334
0.00599452
0.00599366
0.0059823
0.000120125
0.00102371
0.00191979
0.00264079
0.00322284
0.00370028
0.00409807
0.00443394
0.00472059
0.00496718
0.00518037
0.00536505
0.00552478
0.00566221
0.00577934
0.00587763
0.00595811
0.00602185
0.0060698
0.00610296
0.00612241
0.00612934
0.00612484
0.000119516
0.00101577
0.00191073
0.00263455
0.00322166
0.00370547
0.00411037
0.00445373
0.00474807
0.00500242
0.0052234
0.00541588
0.00558345
0.00572879
0.00585391
0.00596029
0.00604902
0.00612113
0.00617753
0.0062191
0.00624674
0.00626133
0.00626365
0.000118553
0.00100409
0.00189424
0.0026184
0.00320914
0.00369868
0.00411061
0.00446185
0.00476454
0.00502752
0.00525728
0.00545858
0.00563497
0.0057891
0.00592297
0.00603806
0.00613547
0.00621621
0.00628116
0.0063311
0.00636676
0.00638883
0.00639787
0.000117264
0.000989272
0.00187138
0.00259362
0.00318664
0.00368128
0.00410017
0.00445957
0.00477118
0.00504353
0.00528286
0.00549379
0.00567976
0.00584335
0.00598651
0.00611068
0.006217
0.00630647
0.00637992
0.00643804
0.00648148
0.00651078
0.00652635
0.000115673
0.000971821
0.00184313
0.00256147
0.00315555
0.00365469
0.00408044
0.00444824
0.00476923
0.00505151
0.00530102
0.00552215
0.00571821
0.00589165
0.00604438
0.00617778
0.00629304
0.00639112
0.00647283
0.00653885
0.00658973
0.00662594
0.00664781
0.000113793
0.000952249
0.00181046
0.00252317
0.00311727
0.00362042
0.00405291
0.00442928
0.00475998
0.00505258
0.00531265
0.00554432
0.00575068
0.0059341
0.00609638
0.0062389
0.00636286
0.00646924
0.00655883
0.0066323
0.0066902
0.00673293
0.00676079
0.000111639
0.000931032
0.00177431
0.00248003
0.0030733
0.00358005
0.00401921
0.00440425
0.00474483
0.00504794
0.0053187
0.00556094
0.00577754
0.00597072
0.00614224
0.00629349
0.00642567
0.0065398
0.00663671
0.00671709
0.00678148
0.00683029
0.0068638
0.000109219
0.000908641
0.00173565
0.00243337
0.00302524
0.00353534
0.00398108
0.0043748
0.00472527
0.00503883
0.00532012
0.00557264
0.00579906
0.00600149
0.00618162
0.00634091
0.0064806
0.00660175
0.00670527
0.00679188
0.00686218
0.00691658
0.00695536
0.000106525
0.000885461
0.00169534
0.00238451
0.00297473
0.00348807
0.00394034
0.00434264
0.0047028
0.00502646
0.0053178
0.00557997
0.00581545
0.00602626
0.00621411
0.0063805
0.00652675
0.00665404
0.00676335
0.00685548
0.00693106
0.00699057
0.00703428
0.000103533
0.000861276
0.00165381
0.00233462
0.0029234
0.00344007
0.0038988
0.0043094
0.00467878
0.00501191
0.00531246
0.00558331
0.00582678
0.00604484
0.00623924
0.00641159
0.00656335
0.0066958
0.00681004
0.00690697
0.00698728
0.00705146
0.00709982
0.000100475
0.000833027
0.0016104
0.00228457
0.00287278
0.00339306
0.00385808
0.00427651
0.00465436
0.00499597
0.0053046
0.00558287
0.005833
0.00605697
0.00625663
0.00643372
0.00658988
0.00672655
0.00684495
0.00694607
0.00703066
0.00709923
0.00715207
9.74978e-05
0.000804172
0.00156774
0.00223672
0.00282506
0.00334894
0.00381975
0.00424513
0.00463036
0.00497918
0.0052945
0.00557873
0.00583405
0.00606252
0.00626612
0.0064468
0.00660637
0.00674646
0.00686842
0.00697333
0.00706197
0.00713484
0.0071922
9.46289e-05
0.000778859
0.00152992
0.00219427
0.00278259
0.00330941
0.00378498
0.00421609
0.0046073
0.00496188
0.00528237
0.00557106
0.00583013
0.00606178
0.00626817
0.00645146
0.0066137
0.0067567
0.00688193
0.00699053
0.00708328
0.00716062
0.00722274
9.19956e-05
0.000759384
0.00149967
0.0021592
0.00274652
0.00327494
0.00375382
0.0041892
0.00458498
0.00494391
0.00526822
0.00556008
0.00582171
0.00605549
0.00626384
0.00644915
0.00661372
0.00675952
0.00688815
0.00700072
0.00709797
0.00718022
0.00724755
8.97283e-05
0.000746122
0.00147745
0.00213131
0.00271588
0.00324408
0.00372472
0.00416309
0.00456237
0.0049247
0.00525196
0.00554616
0.00580964
0.00604501
0.00625499
0.00644225
0.00660933
0.00675836
0.00689099
0.00700827
0.00711078
0.00719865
0.00727179
8.79165e-05
0.000737996
0.00146119
0.00210749
0.00268686
0.00321296
0.00369424
0.00413512
0.00453776
0.00490345
0.00523358
0.00553003
0.00579531
0.00603235
0.00624426
0.006434
0.00660439
0.0067577
0.0068955
0.00701871
0.0071276
0.00722203
0.00730165
8.66064e-05
0.000733196
0.00144639
0.00208118
0.00265226
0.00317495
0.00365713
0.00410166
0.00450904
0.00487935
0.00521335
0.00551285
0.00578061
0.00602006
0.00623484
0.00642831
0.00660352
0.00676281
0.00690762
0.00703848
0.00715521
0.00725724
0.00734394
8.58461e-05
0.000729461
0.00142557
0.00204178
0.00260132
0.00312104
0.00360684
0.00405858
0.00447413
0.00485189
0.00519193
0.0054961
0.00576772
0.00601095
0.00623014
0.00642928
0.0066116
0.00677941
0.00693379
0.0070746
0.00720092
0.00731157
0.00740571
8.58088e-05
0.000723719
0.00138743
0.00197503
0.00252105
0.0030413
0.0035368
0.00400221
0.00443156
0.00482112
0.00517031
0.00548142
0.00575875
0.00600757
0.00623331
0.00644076
0.00663338
0.0068133
0.00698078
0.00713454
0.00727239
0.00739246
0.00749381
8.71098e-05
0.00071108
0.00131902
0.00186792
0.00240101
0.00292844
0.00344268
0.00393066
0.00438109
0.00478773
0.00514967
0.00547021
0.00575521
0.00601165
0.00624649
0.00646563
0.00667297
0.0068701
0.00705572
0.00722632
0.00737769
0.00750726
0.0076146
9.16138e-05
0.00068722
0.00121959
0.00172295
0.00224328
0.00278363
0.00332556
0.00384528
0.00432426
0.00475316
0.00513116
0.00546324
0.00575757
0.00602352
0.00627016
0.00650516
0.00673334
0.00695531
0.00716667
0.00735926
0.00752565
0.00766332
0.00777367
0.000103511
0.000659533
0.00111815
0.00157086
0.0020706
0.00262135
0.00319447
0.0037519
0.00426476
0.00471953
0.00511561
0.00546035
0.0057649
0.00604162
0.00630255
0.00655821
0.00681552
0.00707442
0.00732435
0.0075457
0.0077266
0.0078678
0.00797545
0.000128974
0.000630436
0.00104061
0.00144745
0.00191617
0.00246644
0.0030661
0.00366098
0.00420853
0.00468952
0.00510349
0.00546044
0.00577483
0.00606241
0.00633899
0.00661966
0.00691658
0.00723247
0.00754694
0.00780432
0.00799299
0.00812705
0.00822228
0.000198796
0.000556695
0.000956998
0.00135175
0.00179899
0.00234319
0.0029609
0.00358631
0.00416323
0.00466631
0.00509502
0.00546179
0.00578407
0.00608077
0.00637171
0.00667842
0.00702435
0.00742914
0.00787535
0.00816589
0.00833835
0.00844423
0.00851275
0.000412952
0.000425877
0.000833488
0.00126908
0.00172511
0.00227056
0.00289914
0.00354265
0.00413708
0.0046532
0.00509043
0.00546276
0.00578947
0.00609143
0.0063913
0.00671652
0.00710645
0.00762956
0.00842966
0.00867638
0.00876912
0.00881366
0.0088392
0.000155346
0.000144956
0.00014329
0.000149708
0.00139448
0.00133001
0.00131628
0.00135428
0.00244931
0.00239306
0.00236817
0.00237592
0.00314915
0.00311152
0.00308085
0.0030602
0.0036397
0.00361071
0.00357927
0.00354728
0.00398704
0.00396306
0.00393681
0.00390751
0.0042578
0.004239
0.0042179
0.00418954
0.0044742
0.00445408
0.00443296
0.00441127
0.00466426
0.00464424
0.00462587
0.00461076
0.0048437
0.00482553
0.00480951
0.00479607
0.00501793
0.00500029
0.00498416
0.00496952
0.00518715
0.00516933
0.00515227
0.00513586
0.00535094
0.00533322
0.00531555
0.00529781
0.00550993
0.00549294
0.00547533
0.00545705
0.00566518
0.0056495
0.00563265
0.00561458
0.00581746
0.00580357
0.00578802
0.00577079
0.00596706
0.00595528
0.00594143
0.0059255
0.00611372
0.00610425
0.00609237
0.00607808
0.00625677
0.00624973
0.00624
0.00622756
0.00639524
0.00639069
0.00638322
0.00637278
0.00652794
0.00652591
0.00652074
0.00651241
0.00665352
0.00665397
0.00665112
0.00664495
0.00677049
0.00677338
0.00677283
0.00676883
0.00687732
0.00688256
0.00688427
0.00688244
0.00697253
0.00698005
0.00698396
0.00698427
0.00705492
0.00706464
0.00707072
0.00707315
0.00712383
0.00713571
0.00714394
0.00714852
0.00717943
0.00719347
0.00720389
0.00721067
0.00722301
0.00723931
0.00725201
0.00726109
0.0072572
0.00727589
0.00729102
0.00730257
0.00728596
0.00730724
0.00732498
0.00733917
0.00731451
0.00733857
0.00735911
0.00737609
0.007349
0.00737599
0.00739943
0.00741928
0.00739608
0.00742604
0.00745234
0.00747499
0.00746249
0.00749523
0.00752414
0.00754926
0.00755457
0.00758956
0.0076205
0.00764747
0.00767793
0.00771418
0.00774611
0.0077739
0.00783706
0.00787297
0.00790432
0.00793146
0.00803497
0.00806817
0.00809681
0.00812136
0.0082724
0.00829983
0.00832314
0.00834287
0.00854681
0.00856507
0.00858033
0.00859308
0.0088512
0.00885751
0.00886271
0.00886702
0.000781946
0.0014112
0.00182834
0.00207292
0.00221155
0.00228446
0.00231324
0.00231312
0.00229252
0.00225078
0.00218442
0.00209293
0.00197783
0.00182658
0.00161066
0.00129459
0.00089509
0.000487553
8.13354e-05
0.00167882
0.00204082
0.00230877
0.00248961
0.00260189
0.00266217
0.0026821
0.0026703
0.00263291
0.00257278
0.00248851
0.00237708
0.00223381
0.00204416
0.00177946
0.00139699
0.000919609
0.000440095
7.99628e-05
0.00245679
0.00261814
0.00276919
0.00288554
0.00296247
0.00300228
0.00300706
0.00298064
0.00292604
0.00284615
0.00274227
0.00261142
0.00244585
0.00223
0.00193674
0.00151883
0.000989318
0.000444669
8.4936e-05
0.00305369
0.00310747
0.00318246
0.00324722
0.00328936
0.00330767
0.00329392
0.00324972
0.00317631
0.00307731
0.00295463
0.0028059
0.0026236
0.00239393
0.00209555
0.00167745
0.00113656
0.000546391
0.0001006
0.00350861
0.00351037
0.00353987
0.00356728
0.00357841
0.00357364
0.00353923
0.00347607
0.00338585
0.00327071
0.00313121
0.00296565
0.00276876
0.00253103
0.00223859
0.00185099
0.00134008
0.000740121
0.000117394
0.00386814
0.00385195
0.00385282
0.00385061
0.00383417
0.0038033
0.00374906
0.00366786
0.00356046
0.00342818
0.00327104
0.00308726
0.00287305
0.00261644
0.00230579
0.00192786
0.00145911
0.000842899
0.000122627
0.00415406
0.00413487
0.00412068
0.00409781
0.00405786
0.00400469
0.00393227
0.0038322
0.00370548
0.00355323
0.00337536
0.00316992
0.00293241
0.00265343
0.00232899
0.00195327
0.0014938
0.000860894
0.000111721
0.00438701
0.00436772
0.00434436
0.00430751
0.00425155
0.00417966
0.00408847
0.0039699
0.00382334
0.00365006
0.00345042
0.00322209
0.00295975
0.00265833
0.00232259
0.0019385
0.00146596
0.00081937
0.00010449
0.00459276
0.00457175
0.00454008
0.0044902
0.00441882
0.00432885
0.00421957
0.00408446
0.00392081
0.00372865
0.00350781
0.00325533
0.00296709
0.00264283
0.00228871
0.0018934
0.00141298
0.000776401
9.87801e-05
0.00477738
0.00475166
0.00471196
0.00465179
0.00456859
0.00446479
0.00433993
0.00418976
0.00401142
0.00380332
0.0035625
0.00328554
0.00297062
0.00262038
0.0022417
0.00182412
0.00133305
0.000715857
9.25592e-05
0.00494691
0.00491365
0.00486692
0.00479981
0.00470961
0.00459684
0.00446055
0.00429813
0.00410732
0.00388529
0.00362666
0.00332778
0.00298843
0.00261226
0.00220412
0.00175263
0.00123643
0.000636466
8.67593e-05
0.00510899
0.005068
0.00501468
0.00494242
0.00484783
0.00472939
0.00458546
0.00441417
0.00421368
0.00398021
0.00370797
0.00339311
0.00303585
0.00263872
0.00220053
0.00171072
0.00115976
0.000565171
8.50502e-05
0.0052677
0.00522042
0.00516145
0.00508496
0.00498705
0.0048648
0.00471598
0.00453884
0.00433169
0.00409049
0.00380999
0.00348643
0.00311879
0.00270666
0.00224452
0.00172424
0.00114788
0.000552211
8.97954e-05
0.00542514
0.00537355
0.00531021
0.00523017
0.0051294
0.00500443
0.00485263
0.00467212
0.00446111
0.00421603
0.00393196
0.00360497
0.00323253
0.00281068
0.00233287
0.00179525
0.00120746
0.000604046
9.63568e-05
0.00558225
0.00552823
0.00546186
0.00537898
0.0052758
0.00514887
0.00499546
0.00481328
0.00460052
0.00435398
0.00406921
0.003742
0.003368
0.00294099
0.0024544
0.00190602
0.0013017
0.000663792
0.000102108
0.00573916
0.0056843
0.00561613
0.00553124
0.00542624
0.00529796
0.0051437
0.00496103
0.00474795
0.00450141
0.00421729
0.00389097
0.00351686
0.00308767
0.00259577
0.0020357
0.00140521
0.00071669
0.000106829
0.00589541
0.00584097
0.00577214
0.00568612
0.00557999
0.00545093
0.00529631
0.00511381
0.00490115
0.00465526
0.0043721
0.00404664
0.00367254
0.0032417
0.00274468
0.00217208
0.00151463
0.000777147
0.000110978
0.00605014
0.00599716
0.00592866
0.00584237
0.00573582
0.00560651
0.00545198
0.00526996
0.00505795
0.00481275
0.0045302
0.00420492
0.00382998
0.00339636
0.00289308
0.00230755
0.00162572
0.000845638
0.000114757
0.00620224
0.00615153
0.00608424
0.00599852
0.00589225
0.00576319
0.00560912
0.00542771
0.00521629
0.00497146
0.00468882
0.00436264
0.00398544
0.00354716
0.00303565
0.00243585
0.00173002
0.000911093
0.000118214
0.00635041
0.00630263
0.00623731
0.0061529
0.00604758
0.00591934
0.00576599
0.00558523
0.00537419
0.00512926
0.00484572
0.00451745
0.00413614
0.0036912
0.00316908
0.00255254
0.00181944
0.000960208
0.00012159
0.00649322
0.00644887
0.00638615
0.00630371
0.00619995
0.00607299
0.0059207
0.00574062
0.00552977
0.00528426
0.00499903
0.00466732
0.00428042
0.00382695
0.00329173
0.00265583
0.00189636
0.000998496
0.000124639
0.00662909
0.00658857
0.00652895
0.00644904
0.00634735
0.0062221
0.00607114
0.00589189
0.00568111
0.00543461
0.00514696
0.00481099
0.00441741
0.00395399
0.00340551
0.00275133
0.00196606
0.00103183
0.000127054
0.00675638
0.00671998
0.00666386
0.00658693
0.00648777
0.00636461
0.00621525
0.00603696
0.00582627
0.00557867
0.0052884
0.00494773
0.00454736
0.00407448
0.0035126
0.00284006
0.00202985
0.00106198
0.000128605
0.00687344
0.00684135
0.00678907
0.00671552
0.00661931
0.00649865
0.00635125
0.00617422
0.00596388
0.00571534
0.00542276
0.00507815
0.00467136
0.00418907
0.00361392
0.00292332
0.00208919
0.00109044
0.000129277
0.00697874
0.00695114
0.00690298
0.0068332
0.00674038
0.00662268
0.00647772
0.00630241
0.00609299
0.00584442
0.00555031
0.00520235
0.00478982
0.00429873
0.00371091
0.00300291
0.00214587
0.00111824
0.000129597
0.00707112
0.00704819
0.00700446
0.00693884
0.00684988
0.00673568
0.00659382
0.0064211
0.00621349
0.00596573
0.00567108
0.00532081
0.00490361
0.00440481
0.00380537
0.00308087
0.00220164
0.00114599
0.000130023
0.00715005
0.007132
0.00709303
0.00703203
0.00694752
0.00683755
0.00669958
0.00653032
0.00632551
0.00607967
0.00578572
0.00543448
0.00501405
0.00450901
0.00389933
0.00315939
0.00225831
0.00117408
0.000130955
0.0072159
0.00720305
0.00716926
0.00711341
0.00703398
0.00692897
0.00679575
0.00663093
0.00643006
0.00618741
0.00589556
0.00554488
0.00512289
0.0046133
0.00399499
0.00324077
0.0023177
0.00120159
0.000133012
0.00727024
0.00726297
0.00723483
0.00718467
0.00711097
0.00701169
0.00688414
0.00672479
0.00652906
0.00629094
0.00600269
0.00565421
0.00523236
0.00471999
0.00409467
0.0033274
0.00238291
0.00123691
0.000136112
0.00731591
0.00731463
0.00729259
0.00724867
0.00718134
0.00708855
0.00696757
0.00681477
0.0066254
0.0063932
0.00611006
0.00576538
0.00534532
0.00483177
0.00420086
0.00342139
0.00245487
0.00127428
0.000140047
0.00735698
0.00736208
0.00734655
0.00730933
0.00724893
0.00716335
0.00704982
0.00690463
0.00672286
0.00649799
0.00622147
0.00588213
0.00546537
0.00495197
0.0043165
0.00352531
0.0025361
0.00131778
0.000144418
0.0073986
0.00741031
0.00740155
0.00737135
0.00731835
0.0072406
0.00713534
0.00699882
0.00682592
0.00660983
0.0063415
0.00600908
0.005597
0.00508478
0.00444525
0.00364215
0.00262896
0.00136895
0.000149332
0.00744655
0.00746489
0.00746291
0.00743985
0.00739452
0.00732509
0.00722888
0.00710208
0.00693941
0.0067337
0.00647535
0.00615161
0.00574568
0.00523551
0.00459185
0.00377567
0.00273598
0.00142911
0.000154967
0.00750683
0.00753144
0.00753592
0.00751982
0.00748222
0.00742146
0.00733499
0.00721899
0.00706805
0.00687464
0.00662846
0.00631567
0.00591787
0.00541081
0.00476263
0.00393107
0.00286068
0.00150023
0.000161415
0.0075851
0.00761512
0.00762534
0.00761571
0.00758563
0.00753373
0.00745761
0.00735354
0.00721602
0.00703719
0.00680603
0.00650739
0.00612075
0.00561886
0.00496602
0.0041158
0.00300825
0.0015852
0.000168777
0.00768622
0.00772023
0.007735
0.00773099
0.00770798
0.00766493
0.00759967
0.00750866
0.00738643
0.00722492
0.00701245
0.00673248
0.00636191
0.0058693
0.00521324
0.0043408
0.00318654
0.00168726
0.000177727
0.00781388
0.00784986
0.00786756
0.00786799
0.00785134
0.00781692
0.00776288
0.00768597
0.00758096
0.00743983
0.00725059
0.00699546
0.00664855
0.00617311
0.00551913
0.00462264
0.00340863
0.0018114
0.000189304
0.00797035
0.0080057
0.00802435
0.00802779
0.00801658
0.00799034
0.00794764
0.00788563
0.0077996
0.007682
0.00752109
0.00729859
0.00698633
0.00654174
0.00590298
0.00498722
0.00369891
0.00196883
0.000204396
0.00815629
0.00818802
0.00820545
0.00821033
0.00820347
0.00818478
0.00815319
0.00810647
0.00804068
0.00794931
0.00782177
0.00764069
0.00737746
0.00698508
0.00638833
0.00547506
0.00410497
0.00218532
0.00022485
0.00837068
0.00839577
0.00840987
0.00841469
0.00841104
0.00839901
0.00837795
0.00834628
0.00830112
0.00823755
0.00814725
0.00801579
0.00781768
0.00750678
0.0069991
0.00614691
0.00472376
0.0025345
0.000252792
0.00861089
0.00862681
0.00863588
0.00863934
0.00863782
0.00863145
0.0086199
0.00860229
0.00857695
0.00854096
0.00848919
0.00841236
0.00829288
0.00809556
0.0077459
0.0070803
0.00575248
0.00324004
0.000291773
0.008873
0.00887831
0.00888137
0.00888263
0.00888231
0.00888048
0.00887706
0.00887178
0.00886416
0.0088533
0.00883763
0.00881421
0.00877719
0.00871386
0.00859263
0.00832089
0.007577
0.00519815
0.000343886
)
;

boundaryField
{
    leftWall
    {
        type            nutkWallFunction;
        Cmu             0.09;
        kappa           0.41;
        E               9.8;
        value           nonuniform List<scalar> 
50
(
4.20098e-06
6.18836e-06
7.31826e-06
8.13286e-06
8.7674e-06
9.29245e-06
9.74728e-06
1.01553e-05
1.07421e-05
1.14135e-05
1.22221e-05
1.28078e-05
1.27994e-05
1.25014e-05
1.15718e-05
6.77743e-06
6.41247e-06
6.61397e-06
6.85479e-06
7.14717e-06
7.44629e-06
7.74939e-06
7.94875e-06
8.0534e-06
8.08202e-06
8.04551e-06
7.94937e-06
7.79797e-06
7.59592e-06
7.34749e-06
7.05387e-06
6.71665e-06
6.3369e-06
5.91267e-06
5.43962e-06
4.955e-06
4.48107e-06
4.02277e-06
3.60081e-06
3.23657e-06
2.94496e-06
2.73396e-06
2.61175e-06
2.60675e-06
2.8195e-06
3.55382e-06
5.47983e-06
9.49406e-06
1.97501e-05
4.87046e-05
)
;
    }
    rightWall
    {
        type            nutkWallFunction;
        Cmu             0.09;
        kappa           0.41;
        E               9.8;
        value           nonuniform List<scalar> 
50
(
5.80508e-06
7.53368e-06
8.36492e-06
8.89959e-06
9.27712e-06
9.54756e-06
9.7326e-06
9.82084e-06
9.7638e-06
9.60511e-06
1.02055e-05
9.33106e-06
1.17633e-05
1.34182e-05
1.08158e-05
7.00037e-06
4.69537e-06
3.69615e-06
2.77794e-06
2.81093e-06
3.58694e-06
4.41803e-06
5.25074e-06
6.0436e-06
6.78918e-06
7.37042e-06
7.90038e-06
8.41584e-06
8.88012e-06
9.22274e-06
9.3369e-06
9.43398e-06
9.4823e-06
9.54509e-06
9.68929e-06
1.00952e-05
1.05825e-05
1.11718e-05
1.18206e-05
1.25494e-05
1.33824e-05
1.42942e-05
1.53241e-05
1.66319e-05
1.83203e-05
2.04809e-05
2.33755e-05
2.72778e-05
3.26302e-05
3.96262e-05
)
;
    }
    lowerWall
    {
        type            nutkWallFunction;
        Cmu             0.09;
        kappa           0.41;
        E               9.8;
        value           nonuniform List<scalar> 
62
(
1.76603e-06
3.0371e-06
3.72433e-06
4.16892e-06
4.48762e-06
4.72747e-06
4.91271e-06
5.05769e-06
5.17189e-06
5.26246e-06
5.33513e-06
5.39417e-06
5.44434e-06
5.48814e-06
5.51646e-06
5.51507e-06
5.44424e-06
5.22331e-06
4.9601e-06
4.74601e-06
4.48069e-06
3.87991e-06
2.2977e-06
2.2977e-06
8.08746e-06
9.55565e-06
1.07238e-05
1.18114e-05
1.30437e-05
1.4758e-05
1.73923e-05
1.79016e-05
1.67743e-05
1.65928e-05
1.72878e-05
1.83057e-06
7.52505e-06
8.93449e-06
1.01018e-05
1.12602e-05
1.26667e-05
1.46818e-05
1.77571e-05
1.83057e-06
3.55815e-06
4.17552e-06
4.44165e-06
4.54725e-06
4.56023e-06
4.53951e-06
4.51749e-06
4.53229e-06
4.56419e-06
4.4295e-06
4.19644e-06
4.10449e-06
4.36964e-06
4.63322e-06
4.55972e-06
4.08005e-06
3.32483e-06
2.29417e-06
)
;
    }
    atmosphere
    {
        type            calculated;
        value           nonuniform List<scalar> 
46
(
0.009
0.000425877
0.000833488
0.00126908
0.00172511
0.00227056
0.00289914
0.00354265
0.00413708
0.0046532
0.00509043
0.00546276
0.00578947
0.00609143
0.0063913
0.00671652
0.00710645
0.00762956
0.009
0.009
0.009
0.009
0.009
0.009
0.009
0.009
0.009
0.009
0.009
0.009
0.009
0.009
0.009
0.009
0.009
0.009
0.009
0.009
0.009
0.009
0.009
0.009
0.009
0.009
0.009
0.000343886
)
;
    }
    defaultFaces
    {
        type            empty;
    }
}


// ************************************************************************* //
