/*--------------------------------*- C++ -*----------------------------------*\
  =========                 |
  \\      /  F ield         | OpenFOAM: The Open Source CFD Toolbox
   \\    /   O peration     | Website:  https://openfoam.org
    \\  /    A nd           | Version:  9
     \\/     M anipulation  |
\*---------------------------------------------------------------------------*/
FoamFile
{
    format      ascii;
    class       volScalarField;
    location    "195";
    object      epsilon;
}
// * * * * * * * * * * * * * * * * * * * * * * * * * * * * * * * * * * * * * //

dimensions      [0 2 -3 0 0 0 0];

internalField   nonuniform List<scalar> 
12225
(
285.513
270.703
257.914
243.812
232.46
223.088
216.808
212.699
212.744
213.948
217.247
220.883
228.104
232.871
241.273
246.67
255.033
263.149
52.4933
91.8818
106.971
114.75
124.843
136.785
152.693
169.904
191.127
210.932
235.267
255.488
281.131
299.355
324.91
339.369
364.892
373.837
20.3231
34.8567
44.6749
50.4695
55.3968
59.607
64.6663
69.6409
76.3239
83.1819
91.4503
99.3212
108.197
116.955
125.588
135.338
142.665
153.92
15.3482
19.6975
24.1128
27.5684
30.4979
32.869
35.1566
37.2924
39.5049
41.9168
44.3409
47.2027
49.6883
53.045
55.4256
59.2532
61.4603
65.6886
14.6508
15.8626
17.3672
19.0735
20.6387
22.0255
23.2467
24.4307
25.4449
26.5946
27.5246
28.7588
29.634
30.988
31.8173
33.2713
34.0872
35.6602
14.7068
14.8769
15.2015
15.8666
16.5669
17.2866
17.9239
18.5841
19.1194
19.7341
20.1937
20.7994
21.2091
21.8237
22.1998
22.8279
23.1829
23.8636
14.7421
14.6201
14.6248
14.737
14.9298
15.219
15.4913
15.8089
16.071
16.3827
16.6183
16.9205
17.1312
17.4276
17.6166
17.9132
18.0831
18.4085
14.7626
14.5866
14.4638
14.3812
14.3669
14.39
14.4381
14.5337
14.6186
14.7367
14.8309
14.9566
15.0479
15.1764
15.2614
15.3923
15.4706
15.6207
14.7667
14.5908
14.4346
14.2963
14.1849
14.1044
14.0398
14.0066
13.9815
13.9785
13.9809
13.9917
14.0041
14.0296
14.0473
14.0796
14.1035
14.1462
14.7663
14.594
14.432
14.282
14.143
14.0219
13.9115
13.8193
13.737
13.6698
13.6102
13.5633
13.5181
13.4872
13.4517
13.4343
13.4023
13.401
14.7658
14.5945
14.4322
14.2803
14.1362
14.0032
13.8782
13.7644
13.6582
13.5629
13.4735
13.3952
13.3198
13.2561
13.1915
13.1408
13.0838
13.0452
14.7657
14.5943
14.4321
14.2798
14.1353
13.9999
13.8715
13.7518
13.6385
13.5336
13.4341
13.343
13.2557
13.1771
13.1002
13.0328
12.9647
12.9074
14.7657
14.5941
14.432
14.2794
14.1349
13.9989
13.8699
13.7485
13.6332
13.5249
13.422
13.3257
13.2338
13.1483
13.0663
12.9906
12.9172
12.8502
14.7657
14.5939
14.4318
14.279
14.1346
13.9983
13.8692
13.7472
13.6315
13.5223
13.4184
13.3203
13.227
13.1389
13.055
12.9759
12.9002
12.8291
14.7657
14.5938
14.4317
14.2787
14.1342
13.9977
13.8686
13.7464
13.6307
13.5211
13.4171
13.3185
13.2249
13.136
13.0516
12.9715
12.8952
12.8228
14.7657
14.5937
14.4316
14.2785
14.1339
13.9973
13.8681
13.7458
13.63
13.5202
13.4161
13.3174
13.2237
13.1346
13.05
12.9697
12.8932
12.8205
14.7657
14.5937
14.4315
14.2783
14.1337
13.997
13.8677
13.7453
13.6294
13.5195
13.4154
13.3166
13.2227
13.1336
13.0489
12.9685
12.8919
12.819
14.7657
14.5937
14.4314
14.2782
14.1335
13.9968
13.8674
13.745
13.629
13.5191
13.4148
13.3159
13.2221
13.1329
13.0481
12.9676
12.8909
12.818
14.7657
14.5937
14.4314
14.2782
14.1335
13.9967
13.8673
13.7448
13.6288
13.5189
13.4146
13.3157
13.2217
13.1325
13.0477
12.9671
12.8904
12.8175
14.7657
14.5937
14.4314
14.2782
14.1336
13.9968
13.8674
13.745
13.629
13.5191
13.4148
13.3159
13.222
13.1327
13.048
12.9674
12.8907
12.8178
14.7657
14.5937
14.4315
14.2784
14.1338
13.997
13.8677
13.7453
13.6294
13.5196
13.4155
13.3166
13.2229
13.1339
13.0494
12.969
12.8927
12.82
14.7657
14.5937
14.4316
14.2785
14.1341
13.9974
13.8685
13.7464
13.6312
13.522
13.419
13.3214
13.2293
13.1418
13.0595
12.9811
12.9074
12.8369
14.7658
14.5937
14.4318
14.2788
14.1353
14.0002
13.8742
13.756
13.6463
13.5435
13.4485
13.3592
13.277
13.1992
13.1282
13.0602
12.9988
12.9387
14.7655
14.5928
14.4328
14.2844
14.1515
14.0321
13.929
13.8375
13.7593
13.6894
13.6307
13.5769
13.5328
13.4905
13.4574
13.423
13.3989
13.3693
14.7592
14.5932
14.4603
14.3602
14.3029
14.2766
14.2805
14.2922
14.321
14.3531
14.3959
14.4345
14.4824
14.5217
14.572
14.6089
14.6616
14.6938
14.7213
14.6911
14.754
14.9176
15.1828
15.4611
15.7476
16.012
16.2723
16.5038
16.736
16.9386
17.1507
17.3309
17.5309
17.6936
17.8887
18.0359
14.7477
15.5124
16.5473
17.6841
18.7044
19.5675
20.3372
20.9968
21.6194
22.166
22.7188
23.2107
23.7398
24.2042
24.7326
25.1825
25.7248
26.1658
15.9871
20.992
25.0238
27.7604
29.7847
31.3584
32.777
34.0578
35.3593
36.6162
37.9752
39.2969
40.7613
42.1454
43.7174
45.1733
46.8832
48.3579
29.9031
47.2182
54.8695
58.6734
61.6139
64.4317
67.5803
70.9771
74.7381
78.7138
82.9846
87.3436
91.9042
96.4489
101.099
105.621
110.174
114.575
165.797
160.075
154.899
149.564
144.479
139.677
135.614
132.109
129.27
126.973
125.32
124.044
123.34
122.824
122.841
122.96
123.284
123.827
0.508145
0.527372
0.93361
1.32189
1.73373
2.17161
2.63749
3.12717
3.63131
4.13825
4.63594
5.11312
5.55946
5.96605
6.32568
6.63433
6.89263
7.094
7.23709
7.41629
7.60127
7.83752
8.07621
8.52557
8.86089
9.16153
40.2705
41.5178
42.1664
42.0751
41.7079
40.7112
40.7663
42.0225
40.4943
9.26927
43.6623
46.0531
49.7354
53.1141
56.872
60.7056
64.7487
68.9469
73.3249
77.8799
82.6146
87.5371
92.6455
97.9507
103.449
109.153
115.057
121.174
127.498
134.043
140.8
147.783
154.984
162.416
170.067
177.952
186.058
194.399
202.959
211.752
220.762
230
239.449
249.119
258.991
269.074
279.348
289.82
300.467
311.295
322.279
333.424
344.704
356.121
367.646
379.279
390.989
402.772
414.592
426.441
438.28
450.092
461.838
473.492
485.019
496.404
507.658
518.873
529.908
540.788
551.47
561.951
572.198
582.194
591.912
601.333
610.431
619.186
627.578
635.585
643.187
650.364
657.101
663.376
669.179
674.491
679.305
683.605
687.39
690.648
693.38
695.58
697.256
698.407
699.05
699.16
698.697
697.704
696.33
694.448
692.072
689.265
686.034
682.408
678.412
674.075
669.423
664.494
659.307
653.905
648.302
642.554
636.728
630.854
624.982
619.143
613.376
607.698
602.131
596.68
591.406
586.326
581.474
576.872
572.541
568.456
564.614
561.025
557.691
554.612
551.775
549.175
546.789
544.593
542.532
540.54
538.609
536.645
534.603
532.267
530.392
531.828
534.924
537.978
540.76
543.174
545.187
546.497
546.971
546.451
544.578
541.213
535.184
502.257
2.1133
1.25018
1.2501
1.41492
1.66383
1.97252
2.3297
2.7243
3.14449
3.57882
4.01701
4.45072
4.87356
5.28157
5.67343
6.05157
6.42315
6.80147
7.20941
7.68307
8.2566
8.98627
9.94555
11.2739
13.173
16.0437
20.5527
21.6029
22.1086
22.4374
22.7272
23.0276
23.3833
23.7326
23.8477
23.8295
28.5171
29.8619
31.7
33.5099
35.4045
37.3517
39.3684
41.4511
43.604
45.8285
48.126
50.4985
52.947
55.4734
58.0781
60.763
63.5284
66.3759
69.3056
72.3188
75.4151
78.596
81.8604
85.2095
88.642
92.1588
95.7582
99.4406
103.204
107.048
110.971
114.971
119.047
123.196
127.416
131.706
136.06
140.477
144.953
149.485
154.067
158.696
163.366
168.074
172.813
177.577
182.358
187.151
191.947
196.737
201.513
206.266
210.988
215.674
220.322
224.94
229.556
234.222
238.861
243.433
247.933
252.353
256.683
260.917
265.044
269.056
272.944
276.7
280.315
283.781
287.09
290.235
293.207
296
298.608
301.024
303.244
305.262
307.076
308.682
310.078
311.263
312.236
312.997
313.547
313.877
313.971
313.862
313.573
313.084
312.395
311.524
310.478
309.266
307.898
306.384
304.737
302.967
301.087
299.112
297.054
294.933
292.771
290.581
288.383
286.187
284.009
281.857
279.743
277.678
275.677
273.752
271.916
270.176
268.542
267.01
265.587
264.278
263.085
262.006
261.042
260.188
259.441
258.791
258.224
257.718
257.264
256.842
256.434
255.997
255.72
256.022
256.669
257.292
257.828
258.133
258.175
257.905
257.256
256.27
254.843
253.235
251.388
247.501
4.15822
2.09819
1.85971
1.91395
2.08751
2.33928
2.65063
3.00869
3.40181
3.81922
4.25164
4.69188
5.13506
5.57887
6.02374
6.47338
6.93535
7.42185
7.94983
8.54007
9.21676
10.0037
10.9288
12.0199
13.2995
14.7425
16.2092
17.1421
17.9163
18.6673
19.4454
20.2723
21.1602
22.1288
23.2215
24.5572
26.2804
27.6903
29.1677
30.6914
32.2706
33.9033
35.5912
37.3349
39.1353
40.9934
42.9097
44.8855
46.9211
49.0176
51.1755
53.3955
55.6779
58.0236
60.4326
62.9055
65.4424
68.0435
70.7087
73.4381
76.2313
79.0881
82.008
84.9905
88.0348
91.14
94.3051
97.5289
100.81
104.147
107.538
110.981
114.475
118.016
121.602
125.232
128.9
132.606
136.344
140.112
143.905
147.72
151.551
155.395
159.247
163.102
166.955
170.802
174.641
178.469
182.286
186.096
189.9
193.698
197.462
201.178
204.842
208.445
211.981
215.443
218.824
222.116
225.313
228.407
231.392
234.26
237.005
239.621
242.101
244.439
246.63
248.669
250.551
252.273
253.831
255.222
256.445
257.498
258.38
259.091
259.631
260.001
260.167
260.179
260.024
259.718
259.256
258.644
257.89
257
255.981
254.842
253.592
252.24
250.796
249.272
247.678
246.029
244.338
242.617
240.88
239.138
237.399
235.675
233.974
232.306
230.679
229.105
227.59
226.142
224.767
223.466
222.246
221.108
220.054
219.085
218.2
217.395
216.666
216.006
215.406
214.852
214.334
213.84
213.355
212.851
212.386
212.075
211.855
211.581
211.198
210.636
209.869
208.874
207.628
206.157
204.461
202.779
201.219
200.079
6.28512
2.99958
2.52525
2.49026
2.61686
2.83664
3.12316
3.46201
3.84237
4.25509
4.69237
5.14818
5.61839
6.10102
6.59614
7.10593
7.63455
8.18808
8.77386
9.39995
10.0748
10.8065
11.6027
12.469
13.4032
14.3853
15.3684
16.2952
17.215
18.1608
19.1475
20.1826
21.2676
22.4128
23.6356
24.9517
26.3444
27.7284
29.1483
30.6117
32.1238
33.6862
35.3001
36.9663
38.6858
40.4593
42.2876
44.1716
46.1119
48.1092
50.1642
52.2773
54.4491
56.6801
58.9708
61.3215
63.7326
66.2043
68.7368
71.3301
73.9842
76.6989
79.474
82.3091
85.2037
88.1572
91.1688
94.2377
97.3626
100.542
103.776
107.061
110.396
113.78
117.209
120.683
124.197
127.75
131.339
134.96
138.61
142.285
145.983
149.698
153.428
157.169
160.916
164.667
168.418
172.168
175.913
179.651
183.38
187.089
190.765
194.399
197.986
201.517
204.987
208.388
211.714
214.956
218.109
221.164
224.116
226.956
229.679
232.278
234.746
237.078
239.268
241.311
243.202
244.937
246.512
247.925
249.174
250.257
251.173
251.921
252.502
252.917
253.137
253.192
253.087
252.833
252.426
251.871
251.175
250.343
249.382
248.3
247.105
245.806
244.413
242.935
241.384
239.772
238.11
236.41
234.684
232.943
231.195
229.451
227.718
226.008
224.327
222.684
221.085
219.539
218.049
216.62
215.255
213.959
212.731
211.572
210.483
209.459
208.497
207.591
206.732
205.909
205.112
204.326
203.542
202.716
201.88
201.073
200.266
199.39
198.4
197.257
195.938
194.431
192.732
190.871
188.883
186.971
185.266
184.203
8.33352
3.89327
3.1868
3.06919
3.15117
3.34323
3.60972
3.93331
4.30291
4.71009
5.14803
5.6114
6.09637
6.60073
7.12368
7.66583
8.22879
8.81502
9.42739
10.069
10.743
11.4527
12.2014
12.9922
13.8261
14.6993
15.6032
16.5316
17.4921
18.4919
19.5345
20.6219
21.7541
22.9331
24.1637
25.4452
26.7774
28.147
29.5603
31.021
32.5304
34.0899
35.7007
37.3638
39.0803
40.851
42.6771
44.5594
46.499
48.4972
50.5541
52.6704
54.8467
57.0839
59.3825
61.7433
64.1666
66.6531
69.2031
71.8169
74.4948
77.2368
80.043
82.9133
85.8473
88.8449
91.9054
95.0281
98.2123
101.457
104.761
108.123
111.541
115.013
118.538
122.114
125.737
129.406
133.117
136.868
140.655
144.475
148.325
152.2
156.097
160.012
163.942
167.881
171.827
175.774
179.719
183.655
187.576
191.473
195.338
199.163
202.942
206.666
210.33
213.924
217.442
220.876
224.218
227.461
230.598
233.62
236.521
239.294
241.931
244.426
246.773
248.966
251
252.871
254.574
256.106
257.465
258.649
259.656
260.485
261.137
261.613
261.89
261.979
261.903
261.666
261.265
260.706
259.994
259.135
258.135
257.002
255.744
254.37
252.891
251.315
249.654
247.92
246.123
244.276
242.39
240.475
238.542
236.6
234.658
232.726
230.811
228.922
227.065
225.248
223.475
221.752
220.081
218.467
216.911
215.415
213.976
212.593
211.263
209.98
208.735
207.519
206.32
205.128
203.931
202.704
201.453
200.187
198.888
197.515
196.037
194.424
192.661
190.742
188.671
186.478
184.2
182.021
180.053
178.618
10.2448
4.74427
3.81571
3.61866
3.65733
3.82248
4.0693
4.37699
4.73348
5.13043
5.56151
6.02181
6.50768
7.01673
7.54769
8.10031
8.67514
9.27331
9.89633
10.546
11.224
11.9327
12.6741
13.4506
14.2645
15.1166
16.0068
16.9355
17.9047
18.9166
19.9723
21.0726
22.2176
23.408
24.6455
25.9306
27.2633
28.6423
30.0691
31.5454
33.0726
34.6519
36.2845
37.9717
39.7147
41.5147
43.3728
45.2902
47.2678
49.3065
51.4077
53.5726
55.8024
58.0981
60.4607
62.8912
65.3903
67.959
70.598
73.3079
76.0893
78.9426
81.8681
84.866
87.9364
91.0792
94.294
97.5803
100.938
104.365
107.861
111.426
115.056
118.751
122.508
126.325
130.201
134.131
138.113
142.144
146.221
150.339
154.495
158.684
162.903
167.147
171.411
175.69
179.98
184.273
188.565
192.847
197.113
201.354
205.563
209.732
213.853
217.919
221.92
225.849
229.697
233.457
237.119
240.675
244.117
247.437
250.627
253.678
256.582
259.334
261.925
264.349
266.6
268.673
270.564
272.268
273.782
275.104
276.232
277.166
277.904
278.449
278.781
278.902
278.841
278.599
278.176
277.577
276.806
275.87
274.775
273.528
272.139
270.616
268.97
267.212
265.351
263.4
261.371
259.276
257.125
254.931
252.704
250.453
248.19
245.923
243.661
241.412
239.183
236.982
234.815
232.686
230.601
228.562
226.573
224.634
222.745
220.905
219.111
217.359
215.641
213.949
212.275
210.607
208.932
207.238
205.518
203.771
201.983
200.126
198.177
196.116
193.931
191.619
189.19
186.675
184.123
181.68
179.427
177.564
11.9731
5.52717
4.39101
4.11712
4.1137
4.25143
4.47769
4.7679
5.10861
5.49123
5.90959
6.35911
6.83634
7.33894
7.86551
8.41555
8.98923
9.58732
10.211
10.8617
11.5411
12.2509
12.993
13.7694
14.5822
15.433
16.3234
17.2545
18.2279
19.2448
20.3063
21.4131
22.566
23.7657
25.0132
26.3097
27.6557
29.0521
30.4999
32.0006
33.5555
35.1659
36.8333
38.5592
40.345
42.1922
44.1023
46.0766
48.1167
50.224
52.4001
54.6466
56.9649
59.3564
61.8226
64.3649
66.9844
69.6824
72.4601
75.3185
78.2584
81.2807
84.386
87.5748
90.8474
94.204
97.6445
101.169
104.776
108.465
112.236
116.087
120.017
124.023
128.104
132.257
136.479
140.768
145.12
149.532
153.999
158.518
163.083
167.691
172.336
177.013
181.715
186.438
191.174
195.917
200.659
205.393
210.11
214.801
219.458
224.073
228.637
233.141
237.576
241.932
246.201
250.373
254.438
258.388
262.213
265.903
269.45
272.844
276.077
279.142
282.029
284.731
287.243
289.557
291.669
293.573
295.266
296.746
298.009
299.055
299.884
300.496
300.875
301.02
300.959
300.693
300.223
299.553
298.69
297.637
296.403
294.995
293.423
291.695
289.823
287.817
285.69
283.452
281.117
278.698
276.205
273.651
271.046
268.404
265.733
263.044
260.346
257.648
254.958
252.284
249.632
247.009
244.419
241.866
239.355
236.886
234.462
232.081
229.743
227.444
225.18
222.945
220.731
218.531
216.332
214.126
211.904
209.659
207.38
205.047
202.642
200.149
197.561
194.877
192.108
189.282
186.451
183.729
181.163
178.865
13.4856
6.22346
4.89809
4.54768
4.50561
4.6159
4.82085
5.09239
5.41563
5.7815
6.18392
6.61852
7.08212
7.57259
8.0886
8.62963
9.1958
9.78778
10.4066
11.0537
11.7306
12.439
13.1806
13.9571
14.7704
15.622
16.5138
17.4471
18.4234
19.4439
20.5099
21.6225
22.7828
23.9919
25.2511
26.5617
27.925
29.3422
30.8149
32.3444
33.9324
35.5806
37.2906
39.0642
40.9033
42.8095
44.7849
46.8313
48.9507
51.1449
53.416
55.7659
58.1965
60.7099
63.3078
65.9921
68.7646
71.6268
74.5805
77.627
80.7677
84.0037
87.3361
90.7656
94.293
97.9184
101.642
105.464
109.384
113.401
117.514
121.721
126.022
130.414
134.895
139.461
144.111
148.84
153.644
158.52
163.463
168.467
173.528
178.64
183.797
188.992
194.218
199.469
204.737
210.013
215.289
220.556
225.805
231.026
236.21
241.347
246.428
251.441
256.378
261.227
265.979
270.622
275.147
279.543
283.8
287.907
291.854
295.632
299.23
302.639
305.851
308.858
311.651
314.224
316.571
318.686
320.565
322.206
323.604
324.759
325.67
326.337
326.748
326.901
326.819
326.505
325.96
325.19
324.198
322.993
321.579
319.967
318.165
316.184
314.034
311.727
309.275
306.691
303.989
301.181
298.28
295.299
292.25
289.145
285.995
282.811
279.603
276.382
273.155
269.931
266.718
263.522
260.349
257.205
254.095
251.021
247.986
244.992
242.04
239.129
236.256
233.418
230.611
227.828
225.063
222.306
219.552
216.791
214.012
211.202
208.346
205.43
202.451
199.407
196.309
193.185
190.075
187.074
184.197
181.495
14.7617
6.82053
5.3274
4.90556
4.82626
4.90946
5.09284
5.3452
5.65025
5.99847
6.38369
6.80173
7.2497
7.72565
8.22844
8.7576
9.31324
9.896
10.5069
11.1473
11.8188
12.5229
13.2614
14.0355
14.8467
15.6971
16.5882
17.5217
18.4991
19.5219
20.5915
21.7093
22.8766
24.0948
25.3662
26.6923
28.0745
29.5148
31.0149
32.5767
34.2023
35.8937
37.6528
39.482
41.3833
43.3592
45.412
47.544
49.7577
52.0556
54.4401
56.9139
59.4793
62.1388
64.8948
67.7498
70.706
73.7656
76.9307
80.2031
83.5847
87.0771
90.6816
94.3994
98.2314
102.178
106.24
110.417
114.708
119.114
123.632
128.262
133.002
137.848
142.799
147.852
153.001
158.244
163.576
168.992
174.486
180.053
185.685
191.377
197.121
202.909
208.733
214.584
220.454
226.334
232.212
238.08
243.926
249.739
255.509
261.226
266.876
272.451
277.937
283.324
288.6
293.754
298.773
303.647
308.363
312.911
317.279
321.457
325.434
329.2
332.745
336.06
339.136
341.967
344.545
346.864
348.92
350.708
352.226
353.472
354.445
355.145
355.56
355.696
355.564
355.17
354.517
353.61
352.454
351.056
349.422
347.563
345.487
343.204
340.728
338.07
335.243
332.26
329.136
325.884
322.518
319.052
315.498
311.869
308.179
304.437
300.656
296.846
293.017
289.177
285.335
281.5
277.678
273.876
270.1
266.356
262.647
258.979
255.353
251.771
248.235
244.744
241.296
237.889
234.518
231.178
227.863
224.567
221.278
217.986
214.679
211.346
207.982
204.587
201.172
197.756
194.375
191.101
187.924
184.86
15.792
7.31237
5.67589
5.18954
5.07494
5.1319
5.29394
5.52719
5.81412
6.14469
6.51265
6.91393
7.34579
7.80654
8.29523
8.81147
9.35498
9.92657
10.5274
11.1588
11.8225
12.52
13.2537
14.0232
14.8306
15.6777
16.5665
17.4985
18.4756
19.4994
20.5716
21.694
22.8682
24.0962
25.3818
26.7255
28.1288
29.5946
31.1258
32.7247
34.3935
36.1349
37.9514
39.8456
41.8203
43.8783
46.0226
48.256
50.5817
53.0028
55.5222
58.1432
60.8689
63.7023
66.6465
69.7044
72.8789
76.1728
79.5887
83.1289
86.7958
90.5913
94.517
98.5746
102.765
107.089
111.547
116.139
120.865
125.724
130.714
135.834
141.081
146.452
151.945
157.555
163.277
169.107
175.039
181.068
187.186
193.386
199.661
206.002
212.401
218.849
225.335
231.85
238.384
244.924
251.461
257.982
264.474
270.927
277.327
283.662
289.92
296.087
302.152
308.101
313.922
319.602
325.128
330.488
335.67
340.66
345.448
350.021
354.368
358.478
362.342
365.948
369.288
372.354
375.139
377.636
379.839
381.745
383.35
384.653
385.653
386.349
386.733
386.812
386.591
386.076
385.272
384.186
382.823
381.188
379.29
377.138
374.742
372.113
369.263
366.206
362.954
359.523
355.927
352.181
348.299
344.295
340.184
335.979
331.693
327.34
322.93
318.476
313.988
309.476
304.949
300.418
295.891
291.376
286.88
282.411
277.976
273.58
269.23
264.931
260.685
256.498
252.369
248.301
244.292
240.341
236.443
232.593
228.784
225.004
221.244
217.496
213.754
210.017
206.292
202.595
198.951
195.415
191.959
188.574
16.5776
7.69842
5.94491
5.40234
5.25519
5.2874
5.42887
5.64357
5.91294
6.22645
6.5778
6.96297
7.37887
7.82433
8.29902
8.80341
9.33629
9.89824
10.4902
11.1132
11.7689
12.4585
13.1833
13.9452
14.746
15.5879
16.4728
17.4026
18.3793
19.405
20.4817
21.6116
22.7967
24.0391
25.3408
26.7044
28.1322
29.6292
31.1982
32.842
34.5637
36.3662
38.2527
40.2265
42.2907
44.449
46.7048
49.0619
51.524
54.0947
56.778
59.5776
62.4973
65.5408
68.7119
72.0142
75.4511
79.026
82.7419
86.6018
90.6083
94.7637
99.0701
103.529
108.142
112.909
117.831
122.908
128.14
133.524
139.059
144.743
150.572
156.544
162.654
168.897
175.267
181.758
188.364
195.077
201.889
208.791
215.775
222.83
229.945
237.111
244.315
251.546
258.791
266.039
273.274
280.486
287.658
294.778
301.832
308.806
315.686
322.457
329.106
335.619
341.981
348.179
354.2
360.03
365.656
371.064
376.243
381.18
385.863
390.281
394.423
398.279
401.839
405.095
408.039
410.665
412.966
414.94
416.582
417.891
418.865
419.505
419.807
419.775
419.413
418.722
417.717
416.401
414.779
412.858
410.646
408.153
405.388
402.364
399.092
395.588
391.865
387.939
383.824
379.536
375.09
370.502
365.787
360.959
356.032
351.02
345.935
340.791
335.598
330.368
325.111
319.839
314.561
309.288
304.028
298.791
293.587
288.424
283.31
278.255
273.264
268.345
263.504
258.746
254.073
249.487
244.987
240.57
236.23
231.957
227.745
223.584
219.47
215.399
211.375
207.407
203.512
199.731
196.017
192.357
17.1296
7.98267
6.13918
5.5497
5.3735
5.38305
5.50522
5.70241
5.95529
6.2525
6.58817
6.95908
7.36212
7.79538
8.25776
8.74838
9.26738
9.8161
10.3956
11.0073
11.6523
12.3324
13.0492
13.8048
14.601
15.4398
16.3234
17.254
18.2341
19.266
20.3521
21.495
22.6974
23.9625
25.2923
26.6891
28.1555
29.6958
31.3154
33.0185
34.8093
36.692
38.6699
40.7468
42.9267
45.2138
47.6125
50.1272
52.7623
55.5224
58.4121
61.4358
64.5981
67.9034
71.3562
74.9605
78.7205
82.64
86.7225
90.9712
95.3891
99.9787
104.742
109.681
114.796
120.089
125.558
131.204
137.026
143.021
149.186
155.52
162.016
168.672
175.481
182.437
189.533
196.762
204.114
211.582
219.155
226.823
234.575
242.398
250.281
258.211
266.175
274.158
282.147
290.127
298.083
305.999
313.862
321.654
329.361
336.967
344.456
351.813
359.023
366.071
372.942
379.62
386.093
392.345
398.364
404.135
409.647
414.886
419.84
424.499
428.85
432.885
436.593
439.966
442.996
445.677
448.003
449.97
451.576
452.819
453.698
454.213
454.363
454.155
453.578
452.649
451.379
449.773
447.834
445.569
442.988
440.098
436.912
433.442
429.699
425.7
421.458
416.99
412.311
407.437
402.386
397.172
391.812
386.32
380.713
375.004
369.206
363.334
357.4
351.416
345.393
339.345
333.283
327.218
321.162
315.126
309.122
303.162
297.256
291.417
285.655
279.981
274.405
268.935
263.579
258.342
253.228
248.234
243.357
238.591
233.928
229.36
224.881
220.486
216.175
211.951
207.821
203.814
199.872
195.979
17.4709
8.17596
6.26679
5.63975
5.43798
5.42795
5.53225
5.71329
5.95181
6.23613
6.55907
6.91592
7.3035
7.72146
8.16934
8.64717
9.15542
9.6946
10.2656
10.8698
11.5086
12.1838
12.8973
13.6513
14.4478
15.2892
16.178
17.117
18.109
19.1576
20.2647
21.4331
22.666
23.9665
25.3346
26.7771
28.2996
29.9073
31.6048
33.397
35.2884
37.2847
39.3906
41.6104
43.9491
46.4118
49.0036
51.73
54.5961
57.6074
60.7692
64.0866
67.5649
71.2092
75.0244
79.0151
83.1859
87.5408
92.0836
96.8176
101.746
106.87
112.193
117.716
123.438
129.361
135.482
141.802
148.317
155.025
161.921
169.001
176.26
183.691
191.287
199.04
206.941
214.981
223.15
231.435
239.827
248.311
256.876
265.506
274.189
282.908
291.649
300.395
309.132
317.841
326.508
335.114
343.642
352.076
360.399
368.593
376.643
384.53
392.24
399.756
407.062
414.144
420.987
427.576
433.897
439.938
445.686
451.129
456.254
461.05
465.508
469.618
473.369
476.756
479.769
482.404
484.654
486.517
487.991
489.074
489.767
490.068
489.983
489.506
488.632
487.39
485.782
483.814
481.489
478.816
475.802
472.457
468.793
464.822
460.557
456.013
451.206
446.151
440.865
435.366
429.67
423.793
417.753
411.565
405.245
398.808
392.268
385.641
378.938
372.174
365.362
358.514
351.645
344.767
337.894
331.039
324.216
317.44
310.725
304.086
297.538
291.095
284.77
278.578
272.529
266.635
260.901
255.328
249.916
244.66
239.553
234.588
229.757
225.053
220.471
216.009
211.664
207.456
203.316
199.238
17.5932
8.27778
6.33258
5.67968
5.45692
5.43098
5.52203
5.69041
5.91515
6.18434
6.49254
6.8361
7.21291
7.6214
8.06096
8.53161
9.0338
9.5683
10.1362
10.7389
11.3781
12.056
12.7748
13.5375
14.346
15.2027
16.1106
17.073
18.0929
19.1727
20.3143
21.5233
22.8045
24.1626
25.6028
27.1299
28.7498
30.4681
32.2902
34.2219
36.2694
38.439
40.736
43.1665
45.7365
48.4524
51.3206
54.3472
57.5384
60.9002
64.4384
68.159
72.0675
76.1694
80.4699
84.9736
89.6851
94.6083
99.7466
105.103
110.68
116.478
122.499
128.743
135.209
141.897
148.802
155.924
163.256
170.796
178.537
186.472
194.594
202.894
211.363
219.992
228.769
237.682
246.719
255.866
265.11
274.436
283.828
293.272
302.749
312.245
321.741
331.219
340.662
350.053
359.371
368.601
377.722
386.717
395.567
404.255
412.763
421.073
429.169
437.035
444.654
452.012
459.093
465.884
472.371
478.543
484.386
489.89
495.042
499.835
504.256
508.299
511.955
515.217
518.079
520.536
522.582
524.216
525.437
526.244
526.638
526.618
526.192
525.332
524.077
522.432
520.4
517.989
515.203
512.048
508.534
504.67
500.467
495.939
491.099
485.962
480.544
474.86
468.929
462.768
456.393
449.822
443.073
436.162
429.105
421.918
414.617
407.215
399.727
392.167
384.551
376.891
369.203
361.502
353.802
346.12
338.472
330.874
323.345
315.903
308.566
301.352
294.278
287.364
280.625
274.077
267.728
261.585
255.647
249.913
244.377
239.032
233.868
228.876
224.046
219.371
214.839
210.459
206.159
201.944
17.5614
8.29652
6.34318
5.67762
5.44289
5.40572
5.48247
5.63697
5.84979
6.10999
6.41084
6.74843
7.12047
7.52578
7.96395
8.43526
8.94063
9.48088
10.057
10.6709
11.3245
12.0203
12.7606
13.5476
14.3824
15.2702
16.2152
17.2215
18.2935
19.4363
20.6543
21.9524
23.3362
24.8117
26.3849
28.0624
29.8506
31.7564
33.7865
35.9478
38.2477
40.6933
43.2916
46.05
48.9763
52.0783
55.3638
58.8398
62.5126
66.3885
70.4735
74.7732
79.2931
84.0384
89.0135
94.2227
99.6692
105.356
111.285
117.458
123.875
130.536
137.44
144.584
151.967
159.584
167.431
175.502
183.79
192.289
200.99
209.884
218.96
228.208
237.617
247.172
256.863
266.673
276.589
286.595
296.675
306.813
316.991
327.191
337.397
347.589
357.749
367.858
377.897
387.846
397.687
407.4
416.966
426.366
435.582
444.596
453.389
461.944
470.245
478.275
486.018
493.461
500.589
507.388
513.847
519.954
525.699
531.072
536.062
540.662
544.862
548.657
552.039
555.004
557.546
559.662
561.348
562.601
563.423
563.818
563.776
563.316
562.398
561.065
559.321
557.173
554.624
551.683
548.351
544.639
540.553
536.105
531.304
526.164
520.698
514.921
508.85
502.5
495.889
489.035
481.955
474.667
467.188
459.536
451.726
443.777
435.702
427.517
419.237
410.878
402.453
393.979
385.473
376.95
368.427
359.922
351.453
343.041
334.706
326.47
318.354
310.381
302.571
294.947
287.533
280.348
273.403
266.709
260.269
254.082
248.144
242.446
236.978
231.729
226.683
221.827
217.142
212.63
208.209
203.911
17.4334
8.26951
6.32067
5.64719
5.40003
5.35232
5.42187
5.57147
5.78119
6.04025
6.34272
6.68449
7.06325
7.4781
7.92893
8.41614
8.94039
9.50054
10.1001
10.7419
11.429
12.1646
12.9525
13.7967
14.7016
15.6714
16.7114
17.827
19.0243
20.3095
21.6891
23.1698
24.7587
26.4634
28.2918
30.2522
32.3528
34.602
37.0081
39.5793
42.3235
45.2476
48.3613
51.6739
55.1945
58.9332
62.9014
67.1044
71.5467
76.2332
81.1684
86.3563
91.8006
97.5043
103.47
109.698
116.19
122.946
129.964
137.242
144.778
152.568
160.608
168.891
177.411
186.161
195.133
204.319
213.708
223.289
233.053
242.986
253.076
263.31
273.673
284.151
294.729
305.39
316.119
326.898
337.71
348.537
359.362
370.166
380.929
391.634
402.261
412.791
423.204
433.481
443.604
453.552
463.307
472.852
482.167
491.234
500.038
508.56
516.785
524.699
532.287
539.534
546.43
552.96
559.117
564.889
570.269
575.248
579.818
583.973
587.707
591.014
593.89
596.333
598.338
599.904
601.03
601.71
601.95
601.759
601.119
600.024
598.501
596.555
594.191
591.418
588.238
584.66
580.685
576.322
571.58
566.467
560.995
555.176
549.024
542.552
535.777
528.715
521.384
513.8
505.982
497.947
489.713
481.297
472.716
463.987
455.125
446.147
437.066
427.9
418.663
409.373
400.048
390.705
381.364
372.043
362.762
353.544
344.415
335.4
326.522
317.809
309.284
300.975
292.911
285.117
277.592
270.361
263.436
256.819
250.506
244.489
238.756
233.291
228.075
223.088
218.303
213.713
209.228
204.916
17.1546
8.20344
6.26705
5.59155
5.34529
5.30099
5.37671
5.53519
5.7564
6.02966
6.34849
6.70802
7.10817
7.54905
8.03138
8.55655
9.12662
9.74448
10.4129
11.1354
11.9165
12.7611
13.6746
14.6631
15.7331
16.8912
18.1448
19.5018
20.9705
22.5598
24.279
26.1376
28.1456
30.313
32.6505
35.1683
37.8768
40.7862
43.9063
47.2464
50.8154
54.6217
58.6743
62.9818
67.5525
72.3949
77.5168
82.925
88.6183
94.5964
100.859
107.404
114.231
121.338
128.72
136.373
144.294
152.475
160.911
169.593
178.515
187.668
197.042
206.627
216.414
226.39
236.546
246.868
257.346
267.965
278.712
289.575
300.538
311.588
322.709
333.886
345.103
356.345
367.594
378.835
390.05
401.222
412.334
423.369
434.307
445.132
455.825
466.369
476.745
486.936
496.922
506.688
516.215
525.487
534.486
543.198
551.606
559.696
567.453
574.864
581.918
588.602
594.905
600.817
606.33
611.438
616.135
620.414
624.269
627.695
630.691
633.252
635.374
637.062
638.311
639.118
639.492
639.412
638.917
637.941
636.546
634.719
632.466
629.794
626.71
623.221
619.33
615.043
610.362
605.294
599.847
594.03
587.854
581.329
574.469
567.288
559.8
552.022
543.971
535.662
527.114
518.345
509.371
500.21
490.878
481.393
471.771
462.027
452.175
442.233
432.217
422.144
412.036
401.911
391.791
381.694
371.642
361.663
351.785
342.035
332.43
323.002
313.787
304.821
296.14
287.774
279.764
272.1
264.793
257.844
251.25
244.999
239.079
233.469
228.148
223.09
218.259
213.645
209.149
204.878
16.8235
8.07649
6.18636
5.53581
5.31011
5.28607
5.38274
5.56197
5.80785
6.11145
6.46827
6.87626
7.33498
7.84555
8.41022
9.03224
9.71577
10.4659
11.288
12.1882
13.1738
14.2529
15.4344
16.7281
18.1441
19.6932
21.3871
23.238
25.2587
27.462
29.8611
32.4691
35.2991
38.3642
41.6767
45.2481
49.0891
53.2099
57.6194
62.3246
67.3311
72.6442
78.269
84.208
90.4632
97.0386
103.934
111.144
118.656
126.46
134.547
142.906
151.527
160.399
169.511
178.852
188.41
198.173
208.129
218.267
228.574
239.039
249.649
260.392
271.257
282.23
293.3
304.455
315.683
326.971
338.306
349.676
361.069
372.471
383.868
395.247
406.596
417.899
429.143
440.313
451.395
462.373
473.234
483.961
494.539
504.953
515.188
525.229
535.057
544.659
554.018
563.119
571.948
580.489
588.728
596.652
604.247
611.5
618.4
624.935
631.096
636.874
642.258
647.24
651.816
655.98
659.732
663.064
665.97
668.449
670.507
672.134
673.325
674.105
674.451
674.364
673.878
672.909
671.544
669.752
667.546