/*--------------------------------*- C++ -*----------------------------------*\
  =========                 |
  \\      /  F ield         | OpenFOAM: The Open Source CFD Toolbox
   \\    /   O peration     | Website:  https://openfoam.org
    \\  /    A nd           | Version:  9
     \\/     M anipulation  |
\*---------------------------------------------------------------------------*/
FoamFile
{
    format      ascii;
    class       volScalarField;
    location    "195";
    object      k;
}
// * * * * * * * * * * * * * * * * * * * * * * * * * * * * * * * * * * * * * //

dimensions      [0 2 -2 0 0 0 0];

internalField   nonuniform List<scalar> 
12225
(
0.362825
0.343998
0.327744
0.309822
0.295397
0.283487
0.275507
0.270286
0.27034
0.271891
0.276055
0.280708
0.289853
0.295766
0.306875
0.312696
0.325548
0.327154
0.440271
0.468738
0.461615
0.448374
0.450348
0.45832
0.47453
0.498569
0.524394
0.552154
0.580772
0.606217
0.633912
0.653949
0.679988
0.693134
0.718746
0.724859
0.390407
0.41786
0.420244
0.416831
0.411634
0.407804
0.408017
0.410039
0.414555
0.421403
0.43074
0.439724
0.451219
0.461176
0.47293
0.483618
0.493722
0.506184
0.377043
0.387169
0.391467
0.391344
0.39026
0.387885
0.385659
0.384081
0.382882
0.382897
0.383359
0.384385
0.386289
0.388471
0.390936
0.394277
0.396601
0.401073
0.374434
0.376094
0.378427
0.378666
0.378275
0.377202
0.375487
0.373738
0.37201
0.370455
0.369256
0.36811
0.367383
0.366808
0.366448
0.36635
0.366374
0.366736
0.373779
0.372704
0.372659
0.372366
0.371772
0.370819
0.369553
0.368083
0.366571
0.364976
0.363528
0.362063
0.360755
0.35953
0.358397
0.35743
0.356445
0.355794
0.373775
0.37174
0.370388
0.369284
0.368235
0.367114
0.365915
0.364587
0.363238
0.361808
0.360422
0.359023
0.357677
0.356382
0.35512
0.353966
0.352794
0.351805
0.373818
0.371559
0.369635
0.367976
0.366501
0.365108
0.363775
0.362429
0.361107
0.359766
0.35845
0.357143
0.355863
0.354622
0.3534
0.352249
0.351097
0.350052
0.373832
0.371553
0.369449
0.367525
0.365777
0.364154
0.362645
0.361199
0.359817
0.358473
0.357169
0.355902
0.354666
0.353474
0.352306
0.351195
0.350096
0.349071
0.373831
0.37156
0.369418
0.367405
0.365529
0.363773
0.362133
0.360585
0.359122
0.357728
0.356394
0.355117
0.353888
0.352709
0.351568
0.35048
0.349418
0.348419
0.373829
0.37156
0.369413
0.367378
0.365458
0.363645
0.361937
0.360324
0.358798
0.357353
0.355979
0.354672
0.353424
0.352235
0.351093
0.350008
0.348958
0.347968
0.373828
0.371558
0.369409
0.367371
0.365439
0.363609
0.361876
0.360234
0.358677
0.357201
0.3558
0.354468
0.3532
0.351994
0.350842
0.349747
0.348695
0.3477
0.373827
0.371556
0.369405
0.367365
0.36543
0.363594
0.361851
0.360197
0.358626
0.357134
0.355715
0.354367
0.353084
0.351864
0.3507
0.349594
0.348535
0.347531
0.373826
0.371555
0.369401
0.36736
0.365422
0.363583
0.361837
0.360178
0.3586
0.357101
0.355674
0.354317
0.353024
0.351794
0.350622
0.349506
0.34844
0.347427
0.373826
0.371553
0.369398
0.367355
0.365416
0.363575
0.361826
0.360164
0.358584
0.357081
0.355651
0.35429
0.352993
0.351758
0.35058
0.349459
0.348388
0.347369
0.373826
0.371552
0.369396
0.367351
0.36541
0.363568
0.361817
0.360154
0.358572
0.357067
0.355634
0.354271
0.352972
0.351734
0.350554
0.34943
0.348357
0.347334
0.373825
0.371551
0.369394
0.367348
0.365406
0.363562
0.36181
0.360145
0.358562
0.357055
0.355621
0.354256
0.352956
0.351716
0.350535
0.349409
0.348334
0.347309
0.373825
0.371551
0.369393
0.367346
0.365403
0.363558
0.361805
0.360139
0.358555
0.357047
0.355612
0.354246
0.352944
0.351703
0.350521
0.349393
0.348317
0.347291
0.373825
0.37155
0.369393
0.367346
0.365402
0.363557
0.361804
0.360137
0.358552
0.357044
0.355608
0.354241
0.352938
0.351697
0.350514
0.349385
0.348309
0.347281
0.373825
0.371551
0.369393
0.367347
0.365404
0.363559
0.361806
0.36014
0.358555
0.357047
0.355611
0.354244
0.352942
0.351701
0.350518
0.349389
0.348313
0.347285
0.373825
0.371551
0.369395
0.367349
0.365407
0.363563
0.361811
0.360146
0.358562
0.357055
0.355622
0.354256
0.352955
0.351716
0.350535
0.349408
0.348334
0.347308
0.373826
0.371553
0.369397
0.367352
0.365412
0.363571
0.361822
0.360162
0.358583
0.357083
0.355657
0.354299
0.353007
0.351775
0.350603
0.349484
0.348418
0.347399
0.373826
0.371554
0.369399
0.367359
0.365429
0.363603
0.361875
0.36024
0.358691
0.357221
0.355823
0.354494
0.353227
0.352019
0.350866
0.349763
0.348711
0.347701
0.373828
0.371551
0.369412
0.367417
0.365556
0.363819
0.36219
0.360651
0.359189
0.357794
0.356456
0.355172
0.353936
0.352746
0.351601
0.350496
0.349437
0.348411
0.373823
0.371554
0.369604
0.367893
0.366339
0.364892
0.363495
0.362122
0.360761
0.359414
0.358081
0.35677
0.355489
0.354238
0.353029
0.351856
0.350735
0.349646
0.373781
0.37199
0.371113
0.370265
0.369361
0.368312
0.367048
0.36563
0.364121
0.362575
0.36103
0.359523
0.358074
0.356682
0.355382
0.354142
0.35301
0.351924
0.374297
0.375564
0.377778
0.377858
0.377291
0.375885
0.373835
0.371641
0.369505
0.367482
0.365664
0.364084
0.36271
0.361535
0.36061
0.359818
0.359289
0.358801
0.378732
0.394394
0.398293
0.396566
0.392558
0.387608
0.383642
0.380455
0.378266
0.376851
0.376496
0.376749
0.377398
0.378696
0.380441
0.382421
0.384825
0.387135
0.408344
0.427539
0.422424
0.411051
0.402226
0.397923
0.398556
0.401116
0.405984
0.413036
0.420993
0.429824
0.43883
0.448185
0.457299
0.466546
0.475313
0.484172
0.366033
0.353412
0.341988
0.33021
0.318982
0.308382
0.299409
0.291674
0.285403
0.280333
0.276682
0.273866
0.272309
0.271183
0.271174
0.27152
0.272154
0.273384
0.00173789
0.00827725
0.0146734
0.0207681
0.0272056
0.0340301
0.0412701
0.0488565
0.0566341
0.0644203
0.0720312
0.0793161
0.0861573
0.0924901
0.0982975
0.103624
0.108559
0.113224
0.117768
0.122321
0.126678
0.130568
0.133512
0.13506
0.134082
0.129759
0.120706
0.122805
0.1251
0.128297
0.132695
0.135808
0.141037
0.144873
0.151121
0.155555
0.149319
0.159527
0.166479
0.174241
0.1822
0.190265
0.198553
0.206982
0.215586
0.224351
0.233279
0.242374
0.25163
0.261056
0.270642
0.2804
0.290317
0.300407
0.310655
0.321074
0.331649
0.342392
0.353287
0.364345
0.375549
0.386909
0.398407
0.410053
0.421827
0.433737
0.445763
0.457912
0.470162
0.48252
0.494963
0.507497
0.520097
0.532768
0.545484
0.558249
0.571036
0.583848
0.596658
0.609466
0.622244
0.634991
0.647678
0.660298
0.672822
0.685239
0.697515
0.709635
0.721564
0.733281
0.744754
0.755973
0.766951
0.777775
0.788357
0.798681
0.808731
0.818503
0.827973
0.837129
0.845953
0.854431
0.862545
0.870283
0.877629
0.88457
0.891092
0.897181
0.902827
0.908018
0.912746
0.916999
0.920773
0.92406
0.926858
0.929162
0.930973
0.93229
0.933118
0.933461
0.933326
0.932707
0.931538
0.929888
0.927891
0.925433
0.922492
0.919153
0.91541
0.911287
0.906804
0.901984
0.896849
0.891425
0.885737
0.87982
0.873703
0.867442
0.861077
0.85463
0.848145
0.841647
0.835173
0.828741
0.822378
0.816128
0.809997
0.804016
0.798206
0.792583
0.787169
0.781975
0.777036
0.772355
0.767932
0.763766
0.759849
0.756167
0.752719
0.749485
0.746446
0.74355
0.740771
0.738049
0.735318
0.732556
0.730076
0.730293
0.73233
0.734376
0.736284
0.737933
0.739227
0.740185
0.740455
0.739901
0.7383
0.735223
0.729673
0.700185
0.00726512
0.023723
0.0343264
0.0425807
0.0501289
0.0576826
0.0654885
0.0735741
0.0818444
0.0901532
0.0983452
0.106286
0.113871
0.121044
0.127791
0.134158
0.140243
0.146184
0.152122
0.158128
0.164151
0.169974
0.175203
0.179428
0.18257
0.185011
0.187861
0.19394
0.201254
0.209796
0.219638
0.230299
0.241352
0.253319
0.26746
0.284079
0.295187
0.307677
0.320309
0.333506
0.347076
0.360995
0.375243
0.389807
0.404684
0.419873
0.435374
0.45119
0.467322
0.483775
0.500548
0.517647
0.535072
0.552827
0.570912
0.58933
0.60808
0.627165
0.646581
0.66633
0.686406
0.706812
0.727539
0.748588
0.769949
0.79162
0.813591
0.835857
0.858406
0.881231
0.904319
0.927662
0.951242
0.97505
0.999068
1.02328
1.04767
1.07222
1.09691
1.12173
1.14664
1.17163
1.19666
1.22173
1.24679
1.27181
1.29676
1.32161
1.34631
1.37082
1.39508
1.41902
1.44256
1.46561
1.48829
1.51064
1.53263
1.55423
1.5754
1.59611
1.61633
1.63601
1.65513
1.67366
1.69155
1.70877
1.72529
1.74108
1.7561
1.77033
1.78374
1.7963
1.80799
1.81879
1.82868
1.83765
1.84568
1.85277
1.8589
1.86409
1.86835
1.87169
1.87392
1.87506
1.87548
1.87508
1.87366
1.87138
1.86825
1.86432
1.85962
1.85419
1.84808
1.84134
1.83401
1.82616
1.81785
1.80913
1.80009
1.7908
1.78134
1.77177
1.76216
1.75256
1.74305
1.73367
1.72449
1.71554
1.7069
1.69859
1.69068
1.68319
1.67619
1.66968
1.6637
1.65825
1.65335
1.64898
1.64513
1.64177
1.63886
1.63632
1.6341
1.6321
1.63022
1.62837
1.62648
1.625
1.62353
1.62148
1.61859
1.61466
1.6095
1.60294
1.59476
1.58484
1.57291
1.55947
1.54301
1.50471
0.0143238
0.0382999
0.0517818
0.0619998
0.0711114
0.0798944
0.0886845
0.0975986
0.106627
0.115694
0.124698
0.133545
0.14216
0.150507
0.158591
0.166464
0.174228
0.182018
0.189973
0.19819
0.20666
0.21528
0.223882
0.232377
0.240858
0.249634
0.259191
0.270034
0.281975
0.294944
0.308784
0.323231
0.338346
0.353965
0.370336
0.387091
0.403186
0.419601
0.436354
0.453532
0.471122
0.489115
0.507501
0.526275
0.545435
0.564981
0.584913
0.605232
0.62594
0.64704
0.668534
0.690423
0.712709
0.735394
0.758478
0.78196
0.805842
0.83012
0.854794
0.879861
0.905317
0.931158
0.957379
0.983973
1.01093
1.03825
1.06592
1.09392
1.12226
1.15091
1.17986
1.20909
1.2386
1.26836
1.29836
1.32858
1.35899
1.38958
1.42031
1.45118
1.48215
1.51319
1.54428
1.57538
1.60647
1.63751
1.66847
1.6993
1.72997
1.76045
1.79069
1.82065
1.8503
1.8796
1.90855
1.9371
1.96521
1.99285
2.01996
2.04651
2.07245
2.09773
2.12232
2.14616
2.16921
2.19142
2.21276
2.23319
2.25265
2.27111
2.28855
2.30491
2.32018
2.33432
2.3473
2.35912
2.36975
2.37918
2.3874
2.39441
2.40021
2.40481
2.40821
2.41023
2.41103
2.41088
2.40948
2.40697
2.40339
2.39876
2.39315
2.38659
2.37914
2.37087
2.36183
2.35211
2.34177
2.33089
2.31955
2.30785
2.29588
2.28373
2.27146
2.25916
2.2469
2.23476
2.2228
2.21109
2.19969
2.18866
2.17806
2.16794
2.15835
2.14931
2.14086
2.133
2.12576
2.11911
2.11303
2.10749
2.10242
2.09776
2.09341
2.08926
2.0852
2.08106
2.07671
2.07222
2.06729
2.06156
2.05474
2.04664
2.03708
2.02588
2.01292
1.99814
1.9815
1.96371
1.94373
1.91072
0.0216704
0.0516045
0.067777
0.0797334
0.090127
0.0999093
0.109512
0.119129
0.12882
0.138573
0.148335
0.15805
0.16767
0.177177
0.186586
0.195949
0.205359
0.21493
0.224779
0.234991
0.245595
0.256567
0.267851
0.279421
0.291328
0.303707
0.316729
0.330527
0.345112
0.360464
0.376519
0.393205
0.410482
0.428282
0.4466
0.46532
0.484276
0.503568
0.523232
0.543302
0.563794
0.584713
0.606062
0.627844
0.65006
0.672712
0.695803
0.719334
0.74331
0.767731
0.792602
0.817924
0.843699
0.869928
0.896612
0.923751
0.951346
0.979393
1.00789
1.03684
1.06623
1.09606
1.12633
1.15702
1.18813
1.21966
1.25158
1.28389
1.31658
1.34962
1.38302
1.41675
1.45079
1.48512
1.51973
1.55459
1.58968
1.62497
1.66044
1.69606
1.73181
1.76765
1.80355
1.83948
1.87541
1.9113
1.94711
1.98281
2.01835
2.05371
2.08884
2.12369
2.15824
2.19244
2.22624
2.2596
2.29246
2.32479
2.35654
2.38763
2.41804
2.4477
2.47656
2.50457
2.53169
2.55784
2.583
2.60709
2.63009
2.65194
2.6726
2.69203
2.71019
2.72705
2.74257
2.75673
2.76952
2.78091
2.79089
2.79946
2.80661
2.81235
2.8167
2.81957
2.82086
2.82097
2.81967
2.81707
2.81319
2.80808
2.80178
2.79435
2.78585
2.77636
2.76594
2.75466
2.74262
2.72991
2.7166
2.70281
2.68864
2.67416
2.65949
2.64469
2.62987
2.6151
2.60045
2.58601
2.57185
2.55804
2.54463
2.53169
2.51926
2.50739
2.4961
2.48542
2.47535
2.46589
2.45701
2.44867
2.4408
2.43334
2.42616
2.41915
2.41214
2.40499
2.39754
2.38972
2.38126
2.37189
2.36136
2.34948
2.33607
2.32101
2.30423
2.28576
2.26573
2.24494
2.22266
2.19247
0.0287466
0.0637821
0.082427
0.096018
0.107614
0.118319
0.128658
0.138895
0.149158
0.159488
0.169885
0.180329
0.190801
0.201295
0.211832
0.222457
0.233242
0.244276
0.255649
0.267437
0.279682
0.292398
0.305578
0.319215
0.33333
0.347969
0.363194
0.379055
0.395572
0.412748
0.430562
0.448983
0.467979
0.487522
0.507589
0.52814
0.549124
0.570536
0.592383
0.614675
0.637424
0.660637
0.68432
0.70848
0.733121
0.758246
0.783861
0.809969
0.836574
0.863681
0.891292
0.91941
0.948039
0.977181
1.00684
1.03701
1.06769
1.09889
1.1306
1.16282
1.19555
1.22878
1.26251
1.29672
1.33141
1.36658
1.4022
1.43828
1.47478
1.51171
1.54904
1.58675
1.62484
1.66326
1.70201
1.74105
1.78037
1.81993
1.85972
1.89968
1.93981
1.98006
2.02039
2.06078
2.10119
2.14157
2.18189
2.22212
2.2622
2.30209
2.34175
2.38114
2.4202
2.45889
2.49714
2.53492
2.57216
2.60882
2.64482
2.68013
2.71467
2.74839
2.78123
2.81314
2.84405
2.8739
2.90264
2.9302
2.95655
2.98162
3.00536
3.02772
3.04867
3.06816
3.08615
3.10262
3.11754
3.13088
3.14263
3.15278
3.16133
3.16827
3.17361
3.17736
3.1793
3.17976
3.17868
3.1761
3.17205
3.16656
3.1597
3.15151
3.14206
3.13144
3.11971
3.10696
3.09327
3.07875
3.06349
3.04759
3.03117
3.01432
2.99714
2.97972
2.96217
2.94457
2.92701
2.90957
2.89234
2.87538
2.85878
2.84258
2.82686
2.81165
2.797
2.78292
2.76944
2.75655
2.74423
2.73244
2.72112
2.71018
2.69953
2.68903
2.67852
2.66787
2.6569
2.64548
2.63339
2.62038
2.60623
2.59077
2.57385
2.55538
2.53532
2.51379
2.49102
2.46783
2.44363
2.41418
0.0353478
0.0746983
0.095562
0.110663
0.123387
0.134963
0.145993
0.156802
0.167568
0.178385
0.189295
0.200315
0.211453
0.222718
0.234134
0.245741
0.257594
0.269762
0.282313
0.295311
0.308802
0.322813
0.337358
0.352441
0.368071
0.384267
0.40105
0.418439
0.436447
0.455075
0.474316
0.494157
0.514582
0.535574
0.557116
0.579187
0.601767
0.624845
0.648419
0.672492
0.697069
0.722158
0.747765
0.773896
0.800558
0.827757
0.855499
0.883789
0.912634
0.942039
0.972007
1.00255
1.03366
1.06534
1.09761
1.13045
1.16388
1.19789
1.23248
1.26766
1.3034
1.33973
1.37661
1.41406
1.45206
1.4906
1.52967
1.56925
1.60934
1.64992
1.69097
1.73246
1.77438
1.81671
1.85942
1.90248
1.94587
1.98955
2.0335
2.07767
2.12205
2.16658
2.21123
2.25597
2.30075
2.34552
2.39026
2.4349
2.47941
2.52373
2.56782
2.61162
2.65507
2.69812
2.74071
2.78279
2.8243
2.86517
2.90534
2.94475
2.98334
3.02104
3.05779
3.09352
3.12816
3.16166
3.19394
3.22495
3.25462
3.2829
3.30972
3.33504
3.35879
3.38094
3.40144
3.42026
3.43736
3.45271
3.4663
3.47811
3.48812
3.49635
3.50278
3.50743
3.51014
3.51106
3.51028
3.50781
3.50365
3.49785
3.49046
3.48156
3.47119
3.45944
3.4464
3.43214
3.41676
3.40036
3.38306
3.36494
3.34613
3.32672
3.30684
3.28657
3.26603
3.24531
3.2245
3.20371
3.18301
3.1625
3.14224
3.12231
3.10278
3.0837
3.06512
3.04707
3.02958
3.01264
2.99625
2.98037
2.96497
2.94996
2.93526
2.92075
2.90629
2.89173
2.87692
2.8617
2.84586
2.82921
2.81153
2.79268
2.77252
2.75099
2.72809
2.70398
2.67894
2.65372
2.62779
2.59794
0.0413156
0.0842514
0.107046
0.123494
0.137244
0.149625
0.161299
0.172636
0.183854
0.195087
0.206415
0.217887
0.229533
0.241381
0.25346
0.265809
0.278472
0.291504
0.304958
0.318886
0.333331
0.348322
0.363879
0.380014
0.396736
0.414053
0.431973
0.450503
0.469649
0.489411
0.509785
0.530765
0.552342
0.574508
0.597252
0.620563
0.644434
0.668858
0.693833
0.719361
0.745446
0.772096
0.799315
0.827113
0.855497
0.884474
0.914053
0.94424
0.975044
1.00647
1.03853
1.07122
1.10456
1.13854
1.17318
1.20847
1.24441
1.28102
1.31829
1.35621
1.39479
1.43402
1.4739
1.51443
1.55558
1.59735
1.63974
1.68272
1.72628
1.7704
1.81507
1.86026
1.90595
1.95211
1.99872
2.04574
2.09315
2.14091
2.18898
2.23733
2.28593
2.33472
2.38367
2.43273
2.48186
2.53101
2.58012
2.62916
2.67807
2.72679
2.77526
2.82344
2.87124
2.91862
2.96551
3.01186
3.05758
3.10263
3.14693
3.19042
3.23302
3.27467
3.31529
3.35482
3.39318
3.43031
3.46613
3.50057
3.53357
3.56506
3.59498
3.62326
3.64985
3.6747
3.69774
3.71895
3.73828
3.75571
3.77119
3.78471
3.79626
3.80583
3.81342
3.81902
3.82255
3.82401
3.82361
3.82128
3.81706
3.81098
3.8031
3.79348
3.78219
3.7693
3.7549
3.73908
3.72194
3.70357
3.68409
3.66361
3.64224
3.6201
3.59729
3.57393
3.55013
3.52599
3.50161
3.47711
3.45257
3.42809
3.40375
3.37963
3.35581
3.33235
3.30931
3.28674
3.26467
3.24312
3.22209
3.20159
3.18156
3.16197
3.14274
3.12378
3.10497
3.08618
3.06727
3.04809
3.02844
3.00815
2.98705
2.96498
2.94183
2.91756
2.89219
2.86589
2.83895
2.81202
2.78456
2.75423
0.0465369
0.0923825
0.116804
0.134406
0.149051
0.162152
0.174411
0.186229
0.197856
0.209453
0.22113
0.232961
0.244999
0.257287
0.269861
0.282761
0.296029
0.309708
0.323841
0.338471
0.353634
0.369359
0.385666
0.40257
0.420081
0.438206
0.45695
0.476316
0.496307
0.516923
0.538163
0.560024
0.582502
0.605594
0.629295
0.653602
0.678513
0.704027
0.730143
0.756867
0.784204
0.81216
0.840745
0.869966
0.899833
0.930357
0.961546
0.99341
1.02596
1.0592
1.09315
1.12781
1.16318
1.19928
1.23612
1.27369
1.312
1.35106
1.39087
1.43142
1.47272
1.51475
1.55753
1.60103
1.64526
1.6902
1.73583
1.78215
1.82914
1.87677
1.92503
1.97389
2.02332
2.0733
2.12379
2.17477
2.2262
2.27803
2.33023
2.38277
2.43558
2.48864
2.54188
2.59527
2.64875
2.70227
2.75576
2.80918
2.86247
2.91557
2.96841
3.02092
3.07305
3.12472
3.17587
3.22644
3.27634
3.32552
3.3739
3.4214
3.46796
3.5135
3.55794
3.60121
3.64324
3.68395
3.72325
3.76109
3.79738
3.83205
3.86504
3.89627
3.92568
3.95321
3.9788
4.00241
4.02398
4.04348
4.06088
4.07614
4.08925
4.1002
4.10897
4.11556
4.11993
4.122
4.12199
4.11985
4.11559
4.10924
4.10087
4.09053
4.0783
4.06425
4.04846
4.03102
4.01204
3.99162
3.96986
3.94689
3.92282
3.89777
3.87185
3.84518
3.81789
3.79007
3.76185
3.73333
3.70461
3.6758
3.64699
3.61827
3.58973
3.56145
3.53349
3.50592
3.4788
3.45215
3.42602
3.40041
3.37531
3.35071
3.32656
3.3028
3.27934
3.25607
3.23288
3.20961
3.18612
3.16224
3.13781
3.1127
3.08682
3.06012
3.03263
3.0045
2.97601
2.94768
2.91892
2.88796
0.0509416
0.0990786
0.12482
0.143372
0.158771
0.172492
0.185265
0.197512
0.209502
0.22142
0.233394
0.245518
0.257861
0.27048
0.283419
0.296721
0.310426
0.324572
0.339196
0.354333
0.370014
0.386264
0.403104
0.420551
0.438615
0.457303
0.476623
0.496577
0.517169
0.5384
0.560274
0.582789
0.605946
0.629746
0.65419
0.67928
0.705017
0.731405
0.758448
0.786154
0.81453
0.843586
0.873331
0.903777
0.934935
0.966818
0.999437
1.0328
1.06693
1.10183
1.13751
1.17399
1.21127
1.24936
1.28828
1.32802
1.3686
1.41002
1.45228
1.49538
1.53932
1.5841
1.62972
1.67617
1.72343
1.7715
1.82037
1.87001
1.92041
1.97154
2.02339
2.07592
2.1291
2.18291
2.23731
2.29225
2.34771
2.40363
2.45997
2.51669
2.57374
2.63106
2.6886
2.74631
2.80413
2.86199
2.91984
2.97761
3.03524
3.09266
3.14981
3.20661
3.26299
3.31888
3.37421
3.4289
3.48289
3.53609
3.58844
3.63985
3.69025
3.73956
3.78771
3.8346
3.88017
3.92433
3.96701
4.00812
4.04759
4.08534
4.1213
4.15538
4.18753
4.21766
4.24573
4.27168
4.29544
4.31698
4.33625
4.35323
4.36788
4.38019
4.39014
4.39771
4.4029
4.40562
4.40603
4.40408
4.39978
4.39317
4.38431
4.37325
4.36007
4.34483
4.32763
4.30854
4.28768
4.26514
4.24104
4.21549
4.18861
4.16053
4.13136
4.10123
4.07026
4.03857
4.00628
3.97349
3.94033
3.90691
3.87332
3.83967
3.80607
3.7726
3.73936
3.70642
3.67386
3.64174
3.61011
3.57903
3.54851
3.51856
3.48919
3.46035
3.432
3.40407
3.37645
3.34904
3.32169
3.29428
3.26665
3.23869
3.21031
3.18147
3.15217
3.12256
3.09285
3.06343
3.03367
3.00216
0.0544977
0.104372
0.13114
0.150445
0.166452
0.180685
0.19389
0.206505
0.218811
0.231005
0.24323
0.255591
0.268171
0.281035
0.294235
0.307817
0.321821
0.336283
0.351236
0.366712
0.382736
0.399332
0.416522
0.434321
0.452741
0.471794
0.491485
0.511824
0.532814
0.554461
0.57677
0.599745
0.62339
0.64771
0.672712
0.698401
0.724784
0.751866
0.779659
0.808171
0.837414
0.8674
0.898143
0.929657
0.961954
0.995051
1.02896
1.0637
1.09929
1.13573
1.17304
1.21124
1.25033
1.29033
1.33125
1.3731
1.41589
1.45961
1.50429
1.54991
1.59647
1.64398
1.69243
1.74181
1.79211
1.84332
1.89542
1.9484
2.00223
2.05688
2.11234
2.16856
2.22552
2.28317
2.34148
2.40041
2.4599
2.51992
2.58041
2.64131
2.70257
2.76414
2.82594
2.88793
2.95003
3.01218
3.07431
3.13635
3.19824
3.25988
3.32122
3.38218
3.44268
3.50265
3.562
3.62066
3.67855
3.7356
3.79173
3.84685
3.90089
3.95376
4.00539
4.0557
4.10459
4.15199
4.19783
4.24201
4.28445
4.32508
4.36381
4.40057
4.43528
4.46787
4.49827
4.52641
4.55224
4.57571
4.59676
4.61536
4.63148
4.64509
4.65616
4.66468
4.67064
4.67399
4.6748
4.67306
4.66872
4.66185
4.65249
4.64071
4.62658
4.61016
4.59153
4.57079
4.54803
4.52335
4.49686
4.46869
4.43896
4.40778
4.37528
4.34159
4.30683
4.27113
4.23462
4.19741
4.15962
4.12139
4.08281
4.04401
4.00511
3.9662
3.92741
3.88882
3.85055
3.81267
3.77528
3.73845
3.70225
3.66672
3.63189
3.59778
3.56437
3.53164
3.49952
3.46793
3.43675
3.40587
3.37518
3.34455
3.31391
3.2832
3.25242
3.22165
3.19104
3.16087
3.13045
3.09866
0.0572092
0.108334
0.135862
0.155733
0.172206
0.186839
0.20039
0.213305
0.225871
0.238293
0.250719
0.263265
0.276021
0.289055
0.302428
0.316187
0.330373
0.345024
0.36017
0.375839
0.392058
0.408848
0.42623
0.444221
0.462835
0.482086
0.501983
0.522537
0.543758
0.565655
0.588236
0.61151
0.635486
0.660173
0.685582
0.711721
0.738602
0.766237
0.794638
0.823821
0.853801
0.884593
0.916215
0.948683
0.982016
1.01623
1.05134
1.08738
1.12434
1.16226
1.20115
1.24102
1.28189
1.32377
1.36668
1.41062
1.45561
1.50165
1.54874
1.59689
1.6461
1.69636
1.74767
1.80002
1.8534
1.90778
1.96316
2.01951
2.0768
2.13501
2.19411
2.25405
2.3148
2.37631
2.43855
2.50145
2.56498
2.62907
2.69366
2.7587
2.82413
2.88987
2.95586
3.02203
3.08831
3.15462
3.2209
3.28705
3.35301
3.4187
3.48404
3.54895
3.61334
3.67714
3.74026
3.80262
3.86415
3.92476
3.98436
4.04289
4.10025
4.15637
4.21116
4.26454
4.31644
4.36676
4.41542
4.46235
4.50745
4.55066
4.59187
4.63102
4.66803
4.70281
4.7353
4.76542
4.79312
4.81832
4.84098
4.86106
4.87851
4.8933
4.90541
4.9148
4.92147
4.92538
4.92655
4.92501
4.92062
4.91346
4.9036
4.89111
4.87604
4.85845
4.83842
4.81603
4.79138
4.76458
4.73572
4.70494
4.67234
4.63805
4.6022
4.56492
4.52634
4.48659
4.44579
4.40408
4.36159
4.31844
4.27477
4.2307
4.18635
4.14187
4.09737
4.05298
4.00882
3.96502
3.9217
3.87896
3.83691
3.79563
3.75521
3.71571
3.67715
3.63955
3.60289
3.56711
3.53214
3.49789
3.46427
3.43116
3.39849
3.36618
3.33421
3.3026
3.27142
3.24084
3.21013
3.17842
0.0591154
0.111077
0.139119
0.159386
0.176191
0.191115
0.204921
0.21806
0.230823
0.243415
0.25599
0.268665
0.281535
0.294675
0.308146
0.321997
0.336271
0.351004
0.366227
0.381969
0.398255
0.415108
0.43255
0.450598
0.469271
0.488585
0.508553
0.529192
0.550514
0.572533
0.595261
0.618713
0.642902
0.66784
0.693544
0.720026
0.747304
0.775393
0.804312
0.834081
0.864719
0.896247
0.928685
0.962055
0.996377
1.03167
1.06797
1.10527
1.14362
1.18302
1.22349
1.26506
1.30773
1.35153
1.39647
1.44256
1.48981
1.53822
1.58781
1.63856
1.69049
1.74358
1.79783
1.85322
1.90974
1.96738
2.0261
2.08588
2.14669
2.20849
2.27126
2.33494
2.39949
2.46486
2.531
2.59785
2.66536
2.73345
2.80207
2.87115
2.94061
3.01038
3.08039
3.15057
3.22082
3.29108
3.36125
3.43127
3.50103
3.57047
3.63949
3.70801
3.77595
3.84322
3.90973
3.97541
4.04016
4.10391
4.16657
4.22807
4.28831
4.34723
4.40473
4.46074
4.51517
4.56796
4.619
4.66824
4.71557
4.76093
4.80422
4.84537
4.8843
4.92092
4.95516
4.98695
5.01621
5.04289
5.06692
5.08825
5.10684
5.12264
5.13563
5.14578
5.15306
5.15744
5.15892
5.15754
5.15307
5.1456
5.13524
5.12204
5.10605
5.08732
5.06592
5.04194
5.01546
4.98658
4.9554
4.92205
4.88664
4.8493
4.81015
4.76933
4.72696
4.68318
4.63813
4.59194
4.54474
4.49669
4.44791
4.39855
4.34875
4.29865
4.2484
4.19816
4.14808
4.0983
4.04898
4.00027
3.95231
3.90523
3.85917
3.81422
3.77048
3.728
3.68681
3.64689
3.6082
3.5707
3.53429
3.49889
3.46441
3.43076
3.39789
3.36575
3.33434
3.30373
3.27312
3.24192
0.060295
0.112735
0.141067
0.161575
0.178588
0.193696
0.207668
0.220952
0.233841
0.246541
0.259207
0.271958
0.284886
0.298068
0.311564
0.325428
0.339702
0.354424
0.369628
0.385341
0.401592
0.418404
0.435802
0.453806
0.472438
0.491718
0.511665
0.532298
0.553635
0.575696
0.598498
0.622059
0.646396
0.671528
0.697472
0.724246
0.751874
0.780381
0.809791
0.840129
0.87142
0.903689
0.936961
0.971261
1.00661
1.04304
1.08058
1.11923
1.15904
1.20001
1.24218
1.28556
1.33016
1.37601
1.42312
1.47149
1.52114
1.57208
1.6243
1.67781
1.73259
1.78865
1.84597
1.90453
1.96431
2.02529
2.08743
2.15071
2.2151
2.28054
2.34699
2.4144
2.48273
2.5519
2.62187
2.69257
2.76393
2.83588
2.90834
2.98125
3.05452
3.12807
3.20182
3.27569
3.34959
3.42343
3.49713
3.57059
3.64374
3.71647
3.78871
3.86037
3.93135
4.00157
4.07094
4.13938
4.2068
4.27312
4.33826
4.40214
4.46467
4.52579
4.5854
4.64344
4.69983
4.75448
4.80733
4.8583
4.90731
4.95427
4.99911
5.04176
5.08212
5.12012
5.15568
5.18873
5.21919
5.247
5.27208
5.29438
5.31385
5.33044
5.34413
5.35486
5.36262
5.36736
5.36907
5.36779
5.36322
5.35541
5.34454
5.33065
5.31377
5.29395
5.27125
5.24574
5.21751
5.18664
5.15325
5.11744
5.07933
5.03904
4.99671
4.95245
4.90641
4.85873
4.80953
4.75897
4.70718
4.65431
4.60052
4.54596
4.49078
4.43515
4.37923
4.32321
4.26725
4.21155
4.15628
4.10164
4.04782
3.99497
3.9433
3.89295
3.84407
3.79676
3.75111
3.70714
3.66486
3.62423
3.5852
3.54771
3.51166
3.47695
3.44346
3.41113
3.37983
3.34955
3.31947
3.28922
0.0607225
0.113333
0.141834
0.162467
0.179583
0.194779
0.20883
0.222183
0.235129
0.247873
0.260565
0.273324
0.286245
0.299402
0.312859
0.326667
0.340872
0.355513
0.370624
0.386236
0.402379
0.419082
0.436369
0.454268
0.472804
0.492001
0.511884
0.532477
0.553806
0.575895
0.598766
0.62244
0.64694
0.672287
0.698498
0.725588
0.753604
0.782583
0.812554
0.843548
0.875594
0.908723
0.942963
0.978343
1.01489
1.05263
1.0916
1.13181
1.1733
1.21608
1.26018
1.30561
1.3524
1.40055
1.45008
1.501
1.55332
1.60702
1.66212
1.71861
1.77647
1.8357
1.89627
1.95815
2.02133
2.08577
2.15143
2.21827
2.28625
2.35532
2.42542
2.49649
2.56848
2.64132
2.71493
2.78926
2.86422
2.93973
3.01571
3.09209
3.16877
3.24567
3.3227
3.39977
3.47679
3.55366
3.63031
3.70663
3.78253
3.85792
3.93271
4.00682
4.08014
4.1526
4.22411
4.29457
4.36391
4.43206
4.49892
4.56442
4.62849
4.69104
4.75202
4.81133
4.86893
4.92472
4.97866
5.03066
5.08065
5.12855
5.17431
5.21783
5.25904
5.29786
5.33423
5.36805
5.39925
5.42776
5.45351
5.47644
5.49649
5.51361
5.52775
5.53888
5.54694
5.55192
5.55375
5.55251
5.54779
5.53962
5.52825
5.5137
5.49598
5.47514
5.45122
5.4243
5.39443
5.36171
5.32625
5.28814
5.24749
5.20444
5.1591
5.1116
5.06207
5.01067
4.95752
4.90277
4.84659
4.78911
4.7305
4.67092
4.61055
4.54957
4.48816
4.42651
4.36485
4.30338
4.24233
4.18191
4.12236
4.06389
4.00674
3.95112
3.89723
3.84521
3.7951
3.7471
3.70126
3.6576
3.61611
3.57673
3.53937
3.5039
3.47017
3.43804
3.4073
3.37784
3.34881
3.32013
0.0606174
0.113161
0.141638
0.162265
0.179376
0.19457
0.208614
0.221954
0.234881
0.247598
0.260255
0.272971
0.285837
0.29893
0.312311
0.326032
0.340141
0.354677
0.369676
0.385173
0.401201
0.41779
0.434972
0.452778
0.471235
0.490373
0.51022
0.53081
0.552174
0.574342
0.597343
0.621203
0.645952
0.671625
0.698235
0.725793
0.754383
0.784039
0.814797
0.846695
0.879767
0.914056
0.949586
0.986386
1.02449
1.06392
1.10471
1.14689
1.19048
1.2355
1.28196
1.32989
1.37929
1.43018
1.48256
1.53643
1.59179
1.64864
1.70696
1.76675
1.82798
1.89062
1.95465
2.02003
2.08674
2.15471
2.22392
2.29431
2.36581
2.43838
2.51196
2.58647
2.66184
2.73801
2.8149
2.89242
2.9705
3.04905
3.12799
3.20722
3.28666
3.36622
3.44581
3.52532
3.60468
3.68377
3.76252
3.84083
3.9186
3.99575
4.07217
4.1478
4.22252
4.29627
4.36895
4.44048
4.51079
4.57979
4.64742
4.7136
4.77825
4.84132
4.90273
4.96242
5.02033
5.0764
5.13056
5.18276
5.23293
5.28101
5.32692
5.37061
5.41199
5.451
5.48756
5.52159
5.55301
5.58176
5.60774
5.63091
5.65119
5.66853
5.68287
5.69416
5.70237
5.70743
5.7093
5.70803
5.70312
5.69459
5.68274
5.66757
5.64909
5.62733
5.60232
5.57411
5.54278
5.50839
5.47105
5.43085
5.38789
5.3423
5.2942
5.24371
5.19097
5.13611
5.07928
5.02064
4.96032
4.89851
4.83536
4.77105
4.70577
4.63972
4.57309
4.50611
4.439
4.37203
4.30545
4.23951
4.17435
4.11032
4.04775
3.9869
3.92805
3.87139
3.81729
3.76573
3.71679
3.67052
3.62695
3.58604
3.54769
3.51176
3.47808
3.44642
3.41652
3.38818
3.36051
3.33374
0.0601422
0.112515
0.140775
0.161269
0.178268
0.193355
0.207297
0.220537
0.233363
0.245977
0.258526
0.271127
0.283872
0.296835
0.310079
0.323658
0.337621
0.352011
0.366867
0.382228
0.398132
0.414616
0.43172
0.449481
0.467941
0.487135
0.507101
0.527878
0.549506
0.572037
0.595484
0.619881
0.645265
0.67167
0.699069
0.727562
0.757224
0.788104
0.82024
0.853672
0.888433
0.924552
0.962063
1.001
1.04139
1.08326
1.12665
1.17159
1.21809
1.26615
1.31578
1.36698
1.41976
1.47412
1.53004
1.58753
1.64655
1.7071
1.76916
1.83268
1.89764
1.96401
2.03173
2.10077
2.17107
2.24259
2.31526
2.38902
2.46381
2.53957
2.61622
2.6937
2.77192
2.85081
2.93028
3.01026
3.09066
3.17139
3.25236
3.33349
3.41469
3.49586
3.57691
3.65776
3.7383
3.81845
3.89811
3.97719
4.05561
4.13327
4.21008
4.28597
4.36085
4.43464
4.50726
4.57862
4.64866
4.71732
4.78451
4.85019
4.91427
4.97671
5.03744
5.09641
5.15356
5.20887
5.26226
5.31369
5.3631
5.41045
5.45566
5.49869
5.53946
5.57792
5.61398
5.64758
5.67864
5.70707
5.7328
5.75577
5.77589
5.79311
5.80736
5.81857
5.82671
5.83172
5.83349
5.83214
5.82698
5.81808
5.80576
5.79002
5.77086
5.74827
5.72229
5.69295
5.66031
5.62444
5.58543
5.54335
5.49832
5.45044
5.39983
5.34662
5.29093
5.2329
5.17267
5.11041
5.04627
4.98041
4.91302
4.84429
4.77438
4.70346
4.63179
4.55963
4.48724
4.41491
4.34295
4.27166
4.20148
4.13256
4.06523
3.99983
3.93669
3.87618
3.81829
3.76332
3.71144
3.66277
3.61734
3.57516
3.53613
3.50009
3.46684
3.43609
3.4075
3.38078
3.35499
3.33074
0.0592457
0.111042
0.138957
0.159212
0.175999
0.190888
0.204644
0.21771
0.230374
0.242837
0.255249
0.267724
0.280351
0.293205
0.306353
0.319851
0.333752
0.348106
0.362959
0.378359
0.394349
0.410976
0.428286
0.446334
0.465186
0.484861
0.505401
0.526856
0.549264
0.572647
0.597027
0.622491
0.649101
0.676919
0.706011
0.736424
0.768209
0.801414
0.836081
0.872246
0.909938
0.949184
0.990008
1.03243
1.07647
1.12215
1.16946
1.21842
1.26902
1.32124
1.37509
1.43054
1.48759
1.54621
1.60637
1.66804
1.73119
1.79579
1.86178
1.92914
1.9978
2.06772
2.13884
2.21112
2.28449
2.35889
2.43426
2.51053
2.58764
2.66552
2.7441
2.8233
2.90305
2.98327
3.06388
3.14482
3.22598
3.3073
3.38868
3.47005
3.55131
3.63239
3.71319
3.79364
3.87363
3.95309
4.03194
4.11009
4.18745
4.26394
4.33948
4.414