/*--------------------------------*- C++ -*----------------------------------*\
  =========                 |
  \\      /  F ield         | OpenFOAM: The Open Source CFD Toolbox
   \\    /   O peration     | Website:  https://openfoam.org
    \\  /    A nd           | Version:  9
     \\/     M anipulation  |
\*---------------------------------------------------------------------------*/
FoamFile
{
    format      ascii;
    class       surfaceScalarField;
    location    "5.43";
    object      alphaPhi0.water;
}
// * * * * * * * * * * * * * * * * * * * * * * * * * * * * * * * * * * * * * //

dimensions      [0 3 -1 0 0 0 0];

internalField   nonuniform List<scalar> 
4432
(
-2.90101e-07
2.90101e-07
-5.46973e-07
2.56879e-07
-7.89407e-07
2.42427e-07
-1.01741e-06
2.28003e-07
-1.2312e-06
2.13794e-07
-1.42766e-06
1.96452e-07
-1.59891e-06
1.71258e-07
-1.73659e-06
1.37681e-07
-1.83307e-06
9.64745e-08
-1.88267e-06
4.96046e-08
-1.87937e-06
-3.30484e-09
-1.81421e-06
-6.51585e-08
-1.67269e-06
-1.41515e-07
-1.43567e-06
-2.37015e-07
-1.09288e-06
-3.42789e-07
-6.80428e-07
-4.12452e-07
-4.1876e-07
-2.61671e-07
-7.77538e-07
3.58758e-07
-1.59385e-06
8.2148e-07
-2.29906e-06
7.0483e-07
-2.25704e-06
-4.23931e-08
-1.25797e-06
-1.00234e-06
-1.26174e-06
-2.82738e-07
5.72833e-07
-5.42773e-07
5.16926e-07
-7.93403e-07
4.9305e-07
-1.03144e-06
4.66041e-07
-1.25322e-06
4.35566e-07
-1.45375e-06
3.96987e-07
-1.62681e-06
3.44318e-07
-1.76561e-06
2.76481e-07
-1.86467e-06
1.9554e-07
-1.92006e-06
1.04992e-07
-1.92856e-06
5.19103e-09
-1.88359e-06
-1.10124e-07
-1.77582e-06
-2.49279e-07
-1.59611e-06
-4.16719e-07
-1.34481e-06
-5.94085e-07
-1.06023e-06
-6.97007e-07
-8.785e-07
-4.43412e-07
-1.04965e-06
5.29887e-07
-1.47164e-06
1.24391e-06
-1.77313e-06
1.00847e-06
-1.72852e-06
-8.76799e-08
-1.15969e-06
-1.57117e-06
-2.42142e-06
-2.76102e-07
8.48929e-07
-5.39041e-07
7.79874e-07
-7.92683e-07
7.46687e-07
-1.0351e-06
7.08458e-07
-1.26115e-06
6.61613e-07
-1.46552e-06
6.01355e-07
-1.64244e-06
5.21236e-07
-1.78621e-06
4.20253e-07
-1.89223e-06
3.01562e-07
-1.95735e-06
1.70113e-07
-1.97868e-06
2.65179e-08
-1.95258e-06
-1.36222e-07
-1.87406e-06
-3.27789e-07
-1.74048e-06
-5.50304e-07
-1.55764e-06
-7.76928e-07
-1.35137e-06
-9.0306e-07
-1.17541e-06
-6.18964e-07
-1.18793e-06
5.38415e-07
-1.30744e-06
1.34833e-06
-1.38405e-06
1.08508e-06
-1.29962e-06
-1.72118e-07
-8.96101e-07
-1.97469e-06
-3.31752e-06
-2.74075e-07
1.123e-06
-5.42216e-07
1.04802e-06
-8.01072e-07
1.00554e-06
-1.04873e-06
9.5611e-07
-1.27992e-06
8.92801e-07
-1.48937e-06
8.10803e-07
-1.67157e-06
7.03443e-07
-1.82138e-06
5.70063e-07
-1.93476e-06
4.14946e-07
-2.0093e-06
2.44654e-07
-2.04337e-06
6.05892e-08
-2.03539e-06
-1.44205e-07
-1.98383e-06
-3.79352e-07
-1.8903e-06
-6.4383e-07
-1.76376e-06
-9.03467e-07
-1.62114e-06
-1.04568e-06
-1.45157e-06
-7.76145e-07
-1.30007e-06
3.90652e-07
-1.17423e-06
1.21396e-06
-1.06386e-06
9.46052e-07
-8.99858e-07
-3.45727e-07
-5.59773e-07
-2.31478e-06
-3.87727e-06
-2.7443e-07
1.39742e-06
-5.49686e-07
1.32328e-06
-8.15918e-07
1.27176e-06
-1.07023e-06
1.21042e-06
-1.3077e-06
1.13027e-06
-1.52344e-06
1.02654e-06
-1.71213e-06
8.92133e-07
-1.86889e-06
7.2683e-07
-1.9901e-06
5.36147e-07
-2.07408e-06
3.28633e-07
-2.12052e-06
1.07027e-07
-2.12958e-06
-1.35141e-07
-2.10215e-06
-4.06781e-07
-2.04244e-06
-7.03544e-07
-1.96101e-06
-9.84889e-07
-1.87042e-06
-1.13627e-06
-1.7326e-06
-8.99306e-07
-1.43892e-06
1.20234e-07
-1.13636e-06
9.11112e-07
-8.41698e-07
6.51095e-07
-5.28671e-07
-6.6675e-07
-2.35389e-07
-2.60806e-06
-4.11278e-06
-2.77094e-07
1.67451e-06
-5.61526e-07
1.60772e-06
-8.36493e-07
1.54673e-06
-1.09844e-06
1.47236e-06
-1.34295e-06
1.37478e-06
-1.56574e-06
1.24932e-06
-1.76159e-06
1.08799e-06
-1.92575e-06
8.90989e-07
-2.05481e-06
6.65199e-07
-2.14781e-06
4.21638e-07
-2.20563e-06
1.64839e-07
-2.22981e-06
-1.10967e-07
-2.22258e-06
-4.14012e-07
-2.18893e-06
-7.37187e-07
-2.13872e-06
-1.0351e-06
-2.07935e-06
-1.19564e-06
-1.97389e-06
-1.00405e-06
-1.60508e-06
-2.14846e-07
-1.1665e-06
4.72238e-07
-7.24906e-07
2.09216e-07
-2.90462e-07
-1.11643e-06
8.39568e-11
-2.89966e-06
-4.11272e-06
-2.82904e-07
1.95741e-06
-5.7797e-07
1.90279e-06
-8.62137e-07
1.83089e-06
-1.13191e-06
1.74213e-06
-1.38358e-06
1.62645e-06
-1.61356e-06
1.4793e-06
-1.81663e-06
1.29106e-06
-1.98801e-06
1.06237e-06
-2.12442e-06
8.01606e-07
-2.22552e-06
5.22734e-07
-2.2931e-06
2.32418e-07
-2.32972e-06
-7.43464e-08
-2.33795e-06
-4.05775e-07
-2.322e-06
-7.53141e-07
-2.28844e-06
-1.06866e-06
-2.23771e-06
-1.24637e-06
-2.12313e-06
-1.11862e-06
-1.77204e-06
-5.52064e-07
-1.2373e-06
-4.94483e-08
-6.9502e-07
-3.41451e-07
-2.53303e-07
-1.57028e-06
1.08759e-08
-3.16383e-06
-4.10184e-06
-2.95954e-07
2.25336e-06
-5.99341e-07
2.20618e-06
-8.91207e-07
2.12276e-06
-1.16826e-06
2.01917e-06
-1.42657e-06
1.88476e-06
-1.66322e-06
1.71596e-06
-1.87288e-06
1.50071e-06
-2.05068e-06
1.24017e-06
-2.19343e-06
9.44353e-07
-2.30124e-06
6.30542e-07
-2.37647e-06
3.07652e-07
-2.42239e-06
-2.84247e-08
-2.44108e-06
-3.87082e-07
-2.43509e-06
-7.59136e-07
-2.40623e-06
-1.09751e-06
-2.34822e-06
-1.30438e-06
-2.21432e-06
-1.25251e-06
-1.88126e-06
-8.85122e-07
-1.34054e-06
-5.90034e-07
-7.74633e-07
-9.10368e-07
-3.87144e-07
-1.95776e-06
-2.47412e-07
-3.30356e-06
-4.34924e-06
-5.19307e-07
5.19032e-07
4.44641e-07
-9.66961e-07
1.3698e-06
-9.29582e-07
2.0318e-06
-6.69309e-07
2.47319e-06
-4.49794e-07
2.77161e-06
-3.00292e-07
3.00609e-06
-2.36354e-07
3.32436e-06
-3.20144e-07
3.86382e-06
-5.41324e-07
4.44207e-06
-5.52411e-07
4.14866e-06
2.97488e-07
2.95326e-06
1.19626e-06
5.30039e-07
2.40305e-06
-8.6638e-07
1.36266e-06
6.16271e-07
-1.48311e-06
2.2911e-06
-1.67483e-06
2.7007e-06
-4.09611e-07
1.91694e-06
7.82968e-07
1.90892e-06
1.64493e-07
3.54262e-07
7.87188e-07
-1.58966e-06
1.35944e-06
-1.50184e-06
1.82714e-06
-1.137e-06
2.19092e-06
-8.13586e-07
2.46848e-06
-5.79512e-07
2.71091e-06
-4.82298e-07
3.00494e-06
-6.14898e-07
3.41145e-06
-9.46293e-07
3.71906e-06
-8.59982e-07
3.4125e-06
6.04092e-07
2.5057e-06
2.09919e-06
1.04161e-06
3.84197e-06
4.89185e-07
1.88465e-06
1.22968e-06
-2.2199e-06
2.06722e-06
-2.51238e-06
2.16463e-06
-5.07033e-07
1.71245e-06
1.23516e-06
3.61115e-06
6.35247e-07
-2.79679e-07
9.72116e-07
-1.92517e-06
1.34137e-06
-1.87108e-06
1.69696e-06
-1.49259e-06
1.99733e-06
-1.11402e-06
2.23363e-06
-8.15877e-07
2.44219e-06
-6.90944e-07
2.66476e-06
-8.37558e-07
2.90934e-06
-1.19134e-06
3.0609e-06
-1.01353e-06
2.69742e-06
9.67612e-07
1.96942e-06
2.82718e-06
1.24562e-06
4.3843e-06
1.25042e-06
1.89033e-06
1.56819e-06
-2.52281e-06
1.90266e-06
-2.84686e-06
1.68536e-06
-2.89729e-07
1.27029e-06
1.65023e-06
4.87946e-06
7.65076e-07
-1.04543e-06
1.03217e-06
-2.19252e-06
1.30391e-06
-2.14299e-06
1.58927e-06
-1.77777e-06
1.84148e-06
-1.3663e-06
2.03872e-06
-1.01317e-06
2.19257e-06
-8.45143e-07
2.31999e-06
-9.67883e-07
2.42032e-06
-1.29453e-06
2.45235e-06
-1.05153e-06
2.09035e-06
1.24071e-06
1.58674e-06
3.21141e-06
1.46854e-06
4.50428e-06
1.7411e-06
1.68982e-06
1.7761e-06
-2.54412e-06
1.75984e-06
-2.83061e-06
1.27109e-06
1.99026e-07
8.24088e-07
2.09724e-06
5.70151e-06
7.20803e-07
-1.76644e-06
1.00666e-06
-2.47843e-06
1.24395e-06
-2.38036e-06
1.48689e-06
-2.02081e-06
1.70245e-06
-1.58195e-06
1.86121e-06
-1.17201e-06
1.96143e-06
-9.46577e-07
2.00203e-06
-1.01117e-06
1.96091e-06
-1.25712e-06
1.83024e-06
-9.645e-07
1.64084e-06
1.41863e-06
1.4583e-06
3.39585e-06
1.68274e-06
4.28167e-06
2.0709e-06
1.37901e-06
1.85004e-06
-2.31417e-06
1.57056e-06
-2.55111e-06
8.96462e-07
8.44693e-07
4.12768e-07
2.57947e-06
6.11224e-06
6.4082e-07
-2.40727e-06
9.44733e-07
-2.78235e-06
1.16891e-06
-2.60454e-06
1.38445e-06
-2.23642e-06
1.57249e-06
-1.76998e-06
1.69875e-06
-1.29829e-06
1.7564e-06
-1.00585e-06
1.72807e-06
-9.83896e-07
1.57584e-06
-1.10513e-06
1.33896e-06
-7.4331e-07
1.35512e-06
1.40232e-06
1.44083e-06
3.31201e-06
1.89291e-06
3.8314e-06
2.20951e-06
1.14508e-06
1.77228e-06
-1.87692e-06
1.28132e-06
-2.06011e-06
6.08914e-07
1.49543e-06
9.39032e-08
3.10001e-06
6.23035e-06
5.71337e-07
-2.97861e-06
8.77552e-07
-3.08857e-06
1.08605e-06
-2.81303e-06
1.27881e-06
-2.42932e-06
1.44642e-06
-1.93777e-06
1.55158e-06
-1.40363e-06
1.58113e-06
-1.03555e-06
1.50851e-06
-9.11217e-07
1.29218e-06
-8.88753e-07
1.02218e-06
-4.76798e-07
1.1096e-06
1.30129e-06
1.44487e-06
3.03696e-06
2.04409e-06
3.36958e-06
2.14709e-06
1.07647e-06
1.5577e-06
-1.28819e-06
9.1193e-07
-1.41628e-06
3.43716e-07
2.05181e-06
-2.01346e-07
3.64578e-06
6.02918e-06
5.92103e-07
-3.57072e-06
8.22228e-07
-3.31869e-06
9.97909e-07
-2.98872e-06
1.16606e-06
-2.59747e-06
1.31839e-06
-2.0901e-06
1.4134e-06
-1.4987e-06
1.43412e-06
-1.05628e-06
1.3455e-06
-8.22919e-07
1.12031e-06
-6.65701e-07
8.77464e-07
-2.35989e-07
9.98444e-07
1.17912e-06
1.46997e-06
2.60103e-06
2.02865e-06
2.84093e-06
1.95372e-06
1.15075e-06
1.25571e-06
-5.90805e-07
4.78991e-07
-6.4018e-07
4.65513e-08
2.47242e-06
-4.5926e-07
4.13709e-06
5.57008e-06
-6.37976e-07
2.89134e-06
-1.3293e-06
2.8975e-06
-1.98889e-06
2.78235e-06
-2.60353e-06
2.63381e-06
-3.17087e-06
2.4521e-06
-3.69277e-06
2.23786e-06
-4.15613e-06
1.96407e-06
-4.55126e-06
1.63531e-06
-4.8711e-06
1.26419e-06
-5.11707e-06
8.76513e-07
-5.29528e-06
4.85861e-07
-5.41118e-06
8.74709e-08
-5.4705e-06
-3.27764e-07
-5.47023e-06
-7.59394e-07
-5.39876e-06
-1.16897e-06
-5.22481e-06
-1.47832e-06
-4.87284e-06
-1.60449e-06
-4.16457e-06
-1.59336e-06
-3.11582e-06
-1.6381e-06
-2.08242e-06
-1.94237e-06
-1.5076e-06
-2.53266e-06
-1.65669e-06
-3.15446e-06
-3.41348e-06
-2.59233e-06
-7.05233e-07
2.59426e-06
-1.40969e-06
2.59402e-06
-2.05568e-06
2.46122e-06
-2.63828e-06
2.30241e-06
-3.19395e-06
2.15914e-06
-3.71321e-06
1.98929e-06
-4.16399e-06
1.74946e-06
-4.55413e-06
1.47194e-06
-4.88265e-06
1.16292e-06
-5.14122e-06
8.33416e-07
-5.32352e-06
4.93942e-07
-5.4313e-06
1.45362e-07
-5.47218e-06
-2.24309e-07
-5.46384e-06
-6.08912e-07
-5.39367e-06
-9.86115e-07
-5.1932e-06
-1.32577e-06
-4.78619e-06
-1.60471e-06
-4.08962e-06
-1.85051e-06
-3.17685e-06
-2.07917e-06
-2.29803e-06
-2.29806e-06
-1.70578e-06
-2.52848e-06
-1.45263e-06
-2.74155e-06
-2.85006e-06
-1.32104e-06
-2.84837e-07
0
-4.90841e-07
6.56658e-10
-7.20802e-07
3.75121e-12
-9.55154e-07
0
-1.12664e-06
0
-1.25016e-06
1.95452e-08
-1.35828e-06
8.44379e-09
-1.46478e-06
4.0269e-09
-1.57217e-06
9.50252e-10
-1.67247e-06
0
-1.75045e-06
0
-1.79998e-06
0
-1.81663e-06
-2.46097e-09
-1.81259e-06
-7.10943e-09
-1.79453e-06
-1.15921e-08
-1.75119e-06
-1.59508e-08
-1.62492e-06
-2.39234e-08
-1.40661e-06
-2.21245e-08
-1.11446e-06
-5.29425e-09
-8.12166e-07
-1.16099e-08
-5.83885e-07
-1.32837e-08
-4.69518e-07
-1.21698e-08
-4.21552e-09
-3.85267e-07
-3.05443e-09
0
-2.21858e-09
1.73655e-12
-3.30098e-09
3.11985e-12
-9.32402e-09
0
-1.69533e-08
0
-1.44157e-08
0
-1.17018e-08
0
-9.05379e-09
0
-7.25876e-09
0
-6.02546e-09
0
-5.20271e-09
0
-2.78191e-09
0
-2.77658e-09
-2.34755e-09
-2.72747e-09
-7.01365e-09
-2.62779e-09
-1.15276e-08
-2.45314e-09
-1.59705e-08
-1.97013e-09
-2.42761e-08
-1.41052e-09
-2.25627e-08
-1.57077e-09
-5.01165e-09
-1.17595e-09
-1.18899e-08
-7.85361e-10
-1.35861e-08
-5.67556e-10
-1.23119e-08
-4.09539e-09
-6.24862e-10
-1.57838e-10
5.86903e-10
-4.00107e-10
4.52767e-10
-2.39924e-09
9.94593e-10
-1.03348e-09
7.33727e-10
-5.39653e-09
1.9879e-09
-8.78424e-09
2.21016e-09
-1.93886e-08
5.37937e-09
-2.11723e-08
5.8624e-09
-2.21162e-08
5.00604e-09
-2.12267e-08
3.16295e-09
-2.03074e-08
2.08851e-09
-1.68871e-08
-4.13138e-10
-1.30745e-08
-3.14959e-09
-1.13967e-08
-5.67835e-09
-7.99798e-09
-8.95491e-09
-4.46139e-09
-8.43375e-09
2.00785e-10
-1.21496e-08
7.23593e-10
-1.37774e-08
-1.07465e-09
-1.5879e-09
-2.52307e-09
-8.80884e-09
-2.56707e-09
-4.11323e-09
-3.64714e-09
-4.842e-09
-2.0583e-09
-6.38718e-10
6.67114e-10
5.35048e-10
2.99015e-11
1.0246e-09
2.89383e-10
1.6084e-09
2.82714e-09
2.43174e-09
3.67938e-09
5.96861e-10
9.43414e-10
0
-5.6891e-10
0
-1.88228e-09
0
-2.33385e-09
0
-2.48369e-09
0
-2.41658e-09
0
-1.96234e-09
-7.73054e-13
-1.26496e-09
-3.37948e-12
-7.40041e-10
-1.00915e-12
-5.55999e-10
-3.45944e-14
-4.52299e-10
-5.90132e-12
-1.61338e-09
-2.62576e-10
-3.87467e-09
-1.90541e-09
-3.07144e-09
-3.00399e-09
-4.85098e-09
-2.05941e-10
-2.72518e-09
-9.94204e-10
-1.91403e-09
-2.02541e-09
-1.13135e-08
-3.60008e-09
3.46122e-10
1.80202e-13
1.71038e-10
3.01089e-13
3.01926e-10
4.89507e-13
1.28675e-09
9.06459e-13
2.47021e-10
0
1.31297e-10
0
1.57931e-11
0
1.19553e-12
0
1.75781e-13
0
-1.6068e-14
0
-5.04181e-15
7.07519e-14
-1.02721e-14
-8.00404e-13
-1.53706e-14
-3.40074e-12
-2.34013e-14
-1.02922e-12
-4.77394e-14
-3.83297e-14
-2.24044e-12
-3.73672e-12
-6.97305e-11
-2.34637e-10
-1.07963e-09
-7.46766e-10
-2.93351e-10
-9.41802e-10
-3.60953e-10
-1.63874e-10
-1.06872e-09
-3.1164e-10
-2.03251e-09
-2.62309e-09
-5.53166e-09
-1.83101e-09
1.38553e-13
1.03679e-14
5.51272e-13
0
1.26734e-12
0
2.01559e-12
0
7.64967e-13
2.0743e-15
2.65602e-12
0
2.07583e-11
0
1.49473e-12
1.52895e-11
0
1.93986e-13
2.36746e-14
1.29037e-14
1.49546e-13
3.20971e-14
1.22097e-12
2.55015e-13
-6.05399e-13
-1.81664e-12
0
-6.2649e-13
-6.2845e-14
-3.58994e-15
-1.04217e-10
-1.73862e-13
-3.63089e-10
-1.36026e-10
-3.09741e-10
-1.9122e-10
-2.92104e-10
-3.72568e-10
-2.46722e-10
-2.3445e-10
-4.0128e-10
-4.47453e-10
-5.3537e-10
-2.00573e-09
-1.31247e-11
-6.41984e-10
1.23466e-15
7.34532e-15
5.02658e-14
1.10668e-13
9.9555e-14
2.48836e-13
8.78168e-15
4.5558e-14
6.95373e-15
1.27694e-15
8.85228e-13
2.01159e-15
5.11949e-12
1.35345e-14
3.43089e-12
0
1.72799e-13
3.84656e-13
2.05818e-13
1.0762e-14
5.73949e-12
1.75922e-12
5.02247e-12
2.6185e-12
1.98009e-12
1.2817e-12
-1.31176e-13
3.49895e-13
-1.45753e-13
5.58736e-15
-6.40884e-12
8.73799e-15
-7.0981e-11
-1.03484e-14
-9.52292e-11
-2.62492e-12
-5.76243e-11
-7.37599e-11
-2.4964e-10
-1.70941e-10
-9.39483e-11
-7.36457e-11
-7.74027e-13
-1.80893e-13
-1.109e-13
-1.38032e-11
5.23786e-16
5.03322e-15
1.18251e-13
3.18852e-13
7.6657e-14
4.54087e-13
2.37047e-15
1.66899e-13
4.44971e-16
2.46181e-15
1.18354e-15
2.75078e-15
1.14269e-14
3.41633e-15
1.89306e-14
4.0686e-14
9.53427e-15
4.33756e-13
1.9964e-14
3.10344e-14
5.25994e-12
2.46933e-12
5.49245e-12
3.98839e-12
1.4768e-12
1.32276e-12
0
0
3.21292e-15
8.04419e-15
4.17111e-15
0
-1.9593e-15
-4.59464e-15
-2.55143e-12
-7.55221e-14
-1.36298e-11
-4.25007e-12
-1.84623e-11
-2.71875e-11
-2.75709e-14
-1.49392e-11
-4.57339e-14
-1.78107e-13
-1.11182e-13
-6.05963e-14
2.07117e-15
5.56766e-15
2.80447e-14
1.78138e-13
6.57473e-14
4.56398e-13
2.36478e-16
1.05193e-13
3.93347e-16
2.31039e-15
6.86438e-16
2.45284e-15
1.54172e-15
2.56649e-15
1.23782e-14
2.99271e-14
4.50111e-12
5.40173e-12
3.89863e-12
5.6072e-12
3.71278e-12
4.52682e-12
2.02959e-13
0
2.99232e-14
1.95181e-15
9.77882e-16
5.67086e-16
6.49442e-15
3.72907e-15
5.85879e-15
0
9.29998e-16
-2.91032e-17
-4.15679e-14
-3.44429e-13
-5.48311e-13
-6.21392e-12
-4.11324e-14
-2.52294e-11
-3.25182e-14
-1.49688e-11
-4.006e-14
-1.85713e-13
-7.02293e-14
-3.1202e-13
-5.58616e-17
2.74361e-15
-9.65897e-16
1.64095e-14
2.18046e-15
0
7.22271e-17
8.00128e-16
2.16858e-16
2.16172e-15
3.91362e-16
2.2734e-15
5.05368e-13
6.51864e-15
2.50219e-12
4.88454e-12
3.21525e-12
5.19765e-12
3.22846e-12
6.10297e-12
2.46529e-13
6.15083e-13
8.36625e-17
1.6803e-15
1.94002e-15
6.574e-16
1.43963e-15
1.72837e-15
7.96437e-16
1.24363e-16
6.2028e-17
3.38636e-17
4.52033e-17
-1.34551e-17
-3.16386e-13
-2.55095e-12
-1.87145e-12
-9.89191e-12
-6.39344e-12
-1.49164e-11
-4.38562e-12
-1.47518e-11
-6.59013e-14
-6.47475e-12
-5.79992e-14
-7.87413e-14
-2.05746e-17
2.5582e-15
-4.18203e-17
1.67148e-14
-2.88157e-17
7.61011e-16
-1.19179e-16
5.89276e-16
5.87716e-17
4.06397e-15
1.73194e-15
5.8597e-15
3.35406e-13
7.13822e-14
2.04878e-12
2.56515e-12
1.21876e-12
2.84808e-12
1.32118e-13
1.7466e-13
1.86989e-15
0
9.8775e-16
3.52942e-15
1.36997e-15
3.7665e-15
5.22998e-16
1.51817e-15
3.23687e-17
6.56517e-17
2.9436e-17
3.66743e-17
3.45773e-17
-1.89813e-17
-4.02938e-13
-9.12791e-13
-2.61788e-12
-5.99739e-12
-5.11748e-12
-1.07372e-11
-6.4157e-12
-1.1774e-11
-3.76752e-14
-5.97095e-14
-4.90355e-14
-4.72376e-14
-1.77604e-14
3.98801e-13
-3.48741e-17
7.39373e-13
-4.33625e-17
3.66969e-16
-2.51575e-16
3.94749e-16
0
3.80059e-15
0
2.49111e-14
2.35346e-14
1.86882e-13
7.74814e-14
0
6.20632e-14
0
1.12772e-16
0
2.75495e-16
4.22338e-16
8.81377e-16
3.89928e-15
7.26825e-16
3.5455e-15
5.0413e-17
3.50899e-16
1.69631e-17
7.16306e-17
1.23473e-17
4.11682e-17
7.17572e-15
5.554e-17
-5.94873e-14
-3.36768e-17
-1.82413e-12
-6.26045e-17
-5.20113e-12
-1.06119e-16
-4.68872e-14
-2.36024e-14
-6.04902e-14
-5.90646e-14
-8.95964e-14
-3.95321e-14
-5.10425e-14
8.02464e-13
-3.58072e-14
7.20043e-13
-3.57754e-16
2.43544e-14
-7.58447e-16
3.97404e-16
-7.1418e-16
7.18343e-15
-4.85704e-15
2.22069e-14
-2.22592e-16
0
-1.70347e-17
0
1.13104e-17
0
6.6547e-18
4.2103e-17
5.44928e-17
4.25187e-16
8.36053e-17
7.03815e-16
3.91602e-17
2.7487e-16
5.1587e-18
5.02993e-17
3.44783e-18
7.30248e-17
1.86586e-19
4.44349e-17
-4.61428e-18
1.40661e-17
-1.29494e-17
-3.36468e-17
-2.54137e-17
-4.84132e-17
-5.90798e-17
-7.27774e-17
-2.3492e-14
-1.74867e-16
-7.19227e-14
-2.35665e-14
-4.33507e-14
-7.17279e-14
-8.39105e-14
1.07645e-12
-4.17919e-14
5.65932e-13
-3.68946e-16
1.71675e-14
-7.6058e-16
4.02733e-16
-1.40827e-15
4.08987e-15
-3.88096e-16
3.17726e-15
-5.16361e-17
0
-1.78518e-17
1.42084e-16
-4.49996e-18
6.10394e-17
-7.18814e-18
1.71372e-17
-9.50626e-18
1.74096e-17
-3.20353e-18
8.83208e-18
-2.85929e-18
1.4046e-18
-4.62204e-18
8.40578e-18
-7.34409e-18
3.6392e-17
-1.2168e-17
3.86945e-17
-1.8126e-17
1.95525e-17
-1.91808e-17
-1.26703e-17
-2.94886e-17
-4.6431e-17
-4.54463e-17
-6.19033e-17
-4.90001e-16
-5.77224e-17
-3.36028e-14
-1.61313e-15
-1.04858e-15
-3.18778e-14
-1.06234e-13
8.43037e-13
-1.70825e-14
5.645e-13
-6.86818e-17
1.64082e-16
-3.64887e-16
4.12679e-16
-3.11406e-16
9.50021e-16
-5.35689e-17
2.64318e-16
-2.83689e-17
5.76653e-17
-1.19714e-17
6.18518e-17
-1.51756e-18
1.75957e-17
-4.25843e-19
7.66932e-19
-2.0479e-19
1.94473e-18
-3.17827e-20
9.48311e-19
-9.42791e-20
2.03082e-19
-1.8064e-18
2.75333e-18
-8.22978e-18
5.96624e-18
-2.00096e-17
2.2313e-17
-3.2977e-17
2.47537e-17
-4.29865e-17
-1.31118e-18
-5.3687e-17
-2.55924e-17
-5.12478e-17
-3.98105e-17
-4.42375e-17
-3.91134e-17
-9.8386e-18
-2.83818e-17
-1.27825e-17
-1.06477e-15
-7.01354e-14
9.14121e-13
-1.10139e-16
7.30673e-13
-4.65329e-17
1.10846e-16
-9.90922e-17
1.52179e-16
-6.35796e-17
1.97944e-16
-1.20491e-17
6.9287e-17
-6.01871e-18
9.70508e-18
-1.36512e-18
3.16031e-18
-2.91163e-19
3.42446e-18
4.63834e-19
1.18474e-20
4.81246e-19
-1.98846e-18
3.64436e-19
-1.96031e-18
4.30276e-20
-1.36545e-18
-4.14487e-19
-1.40915e-19
-1.60571e-18
1.08989e-18
-9.72084e-18
1.96107e-18
-2.07562e-17
5.54605e-18
-2.80856e-17
1.64616e-18
-3.35284e-17
-2.76331e-18
-3.57674e-17
-6.83277e-18
-2.49241e-17
-9.936e-18
-8.74048e-18
-8.29687e-18
-4.66873e-18
-3.59809e-17
-6.857e-14
9.83639e-13
-4.28356e-17
1.04945e-12
-3.65344e-17
1.14881e-16
-2.60908e-17
1.14658e-16
-1.79937e-17
1.10736e-16
-1.59632e-18
3.73733e-17
-3.45338e-19
8.21286e-19
4.47448e-19
1.73736e-19
8.70924e-19
-1.73634e-18
1.10883e-18
-3.25462e-18
1.05265e-18
-3.95527e-18
8.63829e-19
-3.52318e-18
5.94765e-19
-2.63711e-18
2.77426e-19
-1.58238e-18
-1.08339e-19
-5.97239e-19
-4.1092e-19
1.66609e-19
-1.54641e-18
7.51108e-19
-3.27526e-18
5.44233e-19
-5.07151e-18
-4.74783e-20
-6.59011e-18
-1.3585e-19
-6.73952e-18
-2.35617e-19
-4.25441e-18
-4.27629e-19
-6.05556e-19
-3.00607e-18
-8.43719e-14
1.06895e-12
-3.7964e-17
1.08072e-12
-3.20696e-17
1.19258e-16
-2.31791e-17
1.16142e-16
-1.38988e-17
1.1199e-16
-3.71379e-19
3.60869e-17
4.45505e-19
4.36866e-21
9.49339e-19
-1.67686e-18
1.23121e-18
-3.39606e-18
1.31338e-18
-4.1888e-18
1.21821e-18
-4.22125e-18
1.03247e-18
-3.64429e-18
8.14693e-19
-2.80219e-18
5.98161e-19
-1.92495e-18
3.92286e-19
-1.15219e-18
2.02271e-19
-5.53992e-19
5.17749e-21
-1.73855e-19
-2.43672e-20
-1.72867e-21
-4.26797e-20
1.73345e-20
-8.48331e-20
5.39306e-20
-1.93012e-19
5.57745e-20
-3.35244e-19
3.39844e-20
5.07824e-21
-4.50482e-19
-8.84938e-14
1.15839e-12
-4.52173e-17
9.93114e-13
-3.92716e-17
1.23649e-16
-3.51144e-17
1.31622e-16
-1.52286e-17
2.15803e-16
-4.31022e-19
3.74413e-17
4.33503e-19
3.32623e-20
8.09154e-19
-1.59042e-18
1.00923e-18
-2.79469e-18
1.04777e-18
-3.28742e-18
9.7772e-19
-3.20166e-18
8.46941e-19
-2.76573e-18
6.93867e-19
-2.16654e-18
5.45312e-19
-1.54579e-18
4.16178e-19
-9.9753e-19
3.12067e-19
-5.69832e-19
2.29318e-19
-2.7349e-19
1.69336e-19
-9.14704e-20
1.24796e-19
1.86417e-21
8.53841e-20
3.63071e-20
4.32171e-20
4.71513e-20
5.90983e-21
4.37274e-20
3.28633e-20
-2.54893e-21
-1.18699e-13
5.20111e-13
-6.42393e-17
2.89455e-13
-5.81428e-17
1.27938e-16
-7.58834e-17
3.65622e-16
-2.07205e-17
4.91978e-16
-1.57586e-18
5.97634e-17
-2.39598e-19
5.9166e-18
2.63827e-19
1.51427e-18
4.67681e-19
-9.14317e-19
5.51911e-19
-1.51957e-18
5.56846e-19
-1.67404e-18
5.09234e-19
-1.55803e-18
4.35304e-19
-1.28634e-18
3.54372e-19
-9.59009e-19
2.79557e-19
-6.45483e-19
2.16941e-19
-3.87558e-19
1.67325e-19
-1.99619e-19
1.2942e-19
-7.71127e-20
1.00375e-19
-6.44119e-21
7.66614e-20
1.71381e-20
5.56671e-20
2.51957e-20
3.67825e-20
2.56869e-20
2.17323e-20
2.18212e-20
-1.03045e-14
3.01162e-16
-1.3727e-15
3.42067e-17
-1.45313e-16
2.74718e-16
-1.31045e-16
9.79198e-16
-3.23199e-17
7.00126e-16
-5.54579e-18
1.08232e-16
-3.16438e-18
2.67358e-17
-1.6918e-18
1.64392e-17
-5.48556e-19
8.21471e-18
6.74501e-20
2.92494e-18
1.75455e-19
-2.11396e-19
2.10756e-19
-5.06256e-19
2.04585e-19
-5.48901e-19
1.78455e-19
-4.65857e-19
1.46515e-19
-3.38252e-19
1.15962e-19
-2.1431e-19
8.96726e-20
-1.15613e-19
6.87774e-20
-4.754e-20
5.28739e-20
-6.8116e-21
4.06757e-20
7.14304e-21
3.07871e-20
1.13304e-20
2.20902e-20
1.19683e-20
1.06437e-20
1.44832e-20
-3.24995e-17
3.44541e-16
-7.65677e-17
1.75774e-16
-1.62306e-16
1.04581e-15
-1.64472e-16
1.15691e-15
-4.12074e-17
7.43629e-16
-1.27958e-17
1.55611e-16
-9.44857e-18
6.75244e-17
-6.61917e-18
4.96016e-17
-3.61021e-18
3.1184e-17
-1.42094e-18
1.52045e-17
-3.28305e-19
5.41517e-18
2.78769e-20
1.26401e-18
6.49554e-20
-7.83513e-20
6.95815e-20
-1.60225e-19
6.18728e-20
-1.43907e-19
5.08772e-20
-9.99651e-20
3.95137e-20
-5.71656e-20
2.97875e-20
-2.4507e-20
2.22479e-20
-4.19232e-21
1.66531e-20
2.8271e-21
1.24774e-20
4.59395e-21
9.11227e-21
4.81436e-21
4.34435e-21
6.10071e-21
-1.75568e-17
3.78648e-16
-8.50873e-17
3.48776e-16
-1.45815e-16
1.09653e-15
-1.08833e-16
1.19027e-15
-4.08452e-17
7.07555e-16
-2.05016e-17
1.86063e-16
-1.68322e-17
1.18041e-16
-1.2999e-17
9.27017e-17
-8.19299e-18
6.33823e-17
-3.92022e-18
3.54663e-17
-1.3334e-18
1.49559e-17
-2.60361e-19
4.43444e-18
4.92787e-21
7.59197e-19
2.04246e-20
-1.39354e-20
2.11709e-20
-4.88625e-20
1.86329e-20
-4.00662e-20
1.46034e-20
-2.49424e-20
1.07675e-20
-1.10429e-20
7.71116e-21
-1.95088e-21
5.48108e-21
1.1102e-21
3.92258e-21
1.7568e-21
2.81999e-21
1.75673e-21
1.53926e-21
1.90942e-21
-1.50362e-17
3.9538e-16
-6.19821e-17
3.5739e-16
-1.06894e-16
8.3805e-16
-9.29288e-17
9.177e-16
-3.29437e-17
4.47441e-16
-2.44081e-17
1.96012e-16
-2.13987e-17
1.60427e-16
-1.71676e-17
1.32944e-16
-1.18522e-17
9.40841e-17
-6.33175e-18
5.78921e-17
-2.35209e-18
2.66592e-17
-5.14507e-19
8.25649e-18
-4.46397e-20
1.42107e-18
4.50719e-21
8.73736e-20
5.95897e-21
-1.35528e-20
5.70055e-21
-1.44149e-20
4.48416e-21
-9.94192e-21
3.20183e-21
-4.49478e-21
2.17218e-21
-7.41202e-22
1.43807e-21
4.4081e-22
9.47074e-22
6.52637e-22
6.37856e-22
6.08066e-22
4.93993e-22
4.30413e-22
-9.92879e-18
5.0699e-16
-2.29098e-17
2.88365e-16
-3.77794e-17
3.6046e-16
-3.29755e-17
3.55644e-16
-2.23842e-17
2.52644e-16
-2.14106e-17
1.96401e-16
-2.04299e-17
1.76539e-16
-1.71612e-17
1.59163e-16
-1.23775e-17
1.18171e-16
-6.99531e-18
7.56418e-17
-2.59551e-18
3.62111e-17
-5.00782e-19
1.07634e-17
-3.50518e-20
1.53808e-18
7.68206e-22
8.78761e-20
1.36833e-21
-3.34922e-21
1.37433e-21
-4.95884e-21
1.05359e-21
-3.72402e-21
7.09156e-22
-1.69283e-21
4.41566e-22
-2.35594e-22
2.61556e-22
1.7268e-22
1.49692e-22
2.3406e-22
8.58385e-23
2.02909e-22
1.51196e-22
5.32441e-23
-7.23024e-18
1.38409e-15
-1.10878e-17
2.91845e-16
-1.27803e-17
3.61772e-16
-1.34161e-17
3.55896e-16
-1.41164e-17
2.52961e-16
-1.41337e-17
1.90324e-16
-1.40876e-17
1.76821e-16
-1.26752e-17
1.63688e-16
-9.30653e-18
1.31974e-16
-5.24234e-18
8.4938e-17
-1.79929e-18
4.06116e-17
-2.7993e-19
1.11276e-17
-1.31136e-20
1.46695e-18
9.37176e-23
4.79717e-20
2.06667e-22
-8.40555e-22
1.83964e-22
-1.73216e-21
1.11484e-22
-1.35292e-21
5.05967e-23
-6.03683e-22
1.48067e-23
-6.03524e-23
-2.72702e-24
6.5511e-23
-1.25037e-23
8.12184e-23
-1.40458e-23
6.70286e-23
4.65663e-23
-1.25273e-23
-5.28015e-18
5.86169e-15
-7.25979e-18
2.93444e-16
-7.20417e-18
3.61337e-16
-6.68933e-18
3.55001e-16
-6.4067e-18
2.52295e-16
-6.13553e-18
1.85439e-16
-5.98848e-18
1.71919e-16
-5.17492e-18
1.63005e-16
-3.57796e-18
1.33395e-16
-1.74464e-18
8.59952e-17
-4.48452e-19
4.07945e-17
-3.54693e-20
1.07714e-17
-1.86058e-22
9.52381e-19
3.42233e-22
1.3742e-20
-7.74714e-24
-2.06478e-22
-4.7701e-23
-6.07326e-22
-7.665e-23
-4.78314e-22
-8.10479e-23
-2.0431e-22
-6.8597e-23
-1.05553e-23
-5.07772e-23
2.3686e-23
-3.43428e-23
2.69693e-23
-2.19301e-23
2.09906e-23
1.36241e-23
-1.34727e-23
0
1.34068e-14
-1.67265e-14
8.60164e-13
-1.19386e-14
3.98259e-12
1.47194e-15
3.53001e-12
6.30794e-18
3.98965e-13
1.01639e-18
1.86224e-16
2.29516e-18
1.66083e-16
3.08542e-18
1.62409e-16
3.15394e-18
1.3099e-16
2.34633e-18
8.50326e-17
1.08676e-18
3.80607e-17
1.78676e-19
7.96618e-18
5.05251e-21
4.15578e-19
8.01031e-22
2.50364e-21
-4.28182e-24
-2.57815e-23
-5.53844e-23
-2.20359e-22
-7.16145e-23
-1.68115e-22
-6.41808e-23
-6.68595e-23
-4.76451e-23
6.15719e-27
-3.16196e-23
8.08316e-24
-1.94732e-23
8.46646e-24
-1.13017e-23
6.20142e-24
3.8109e-24
-6.22871e-24
3.65659e-15
1.43094e-14
3.75788e-14
1.35785e-12
9.0765e-14
3.93489e-12
8.57953e-14
3.54053e-12
9.39533e-17
1.24024e-12
6.6716e-19
2.87517e-16
1.01567e-17
1.64716e-16
1.13403e-17
1.56975e-16
9.52139e-18
1.22324e-16
5.96292e-18
7.57702e-17
2.05268e-18
2.94128e-17
1.98104e-19
4.41396e-18
2.38004e-21
1.27377e-19
2.60121e-23
3.15046e-22
5.20241e-26
1.78525e-25
-3.54035e-23
-8.44284e-23
-4.03415e-23
-5.87629e-23
-3.29331e-23
-2.13218e-23
-2.25374e-23
3.16768e-25
-1.39597e-23
2.5724e-24
-8.04468e-24
2.46884e-24
-4.3455e-24
1.68428e-24
9.65028e-25
-2.22828e-24
4.88311e-15
1.39944e-14
5.42517e-14
1.00939e-12
2.13803e-13
3.7809e-12
2.47072e-13
3.51282e-12
0
9.69548e-13
0
5.14983e-16
1.79379e-17
1.63278e-16
1.86505e-17
1.46273e-16
1.41227e-17
1.07972e-16
7.68233e-18
6.00906e-17
1.94366e-18
1.86295e-17
1.03934e-19
1.78815e-18
5.2723e-22
2.55232e-20
4.91249e-23
2.80434e-23
-4.73165e-24
-1.1644e-23
-1.87703e-23
-3.28183e-23
-1.87257e-23
-2.02901e-23
-1.39629e-23
-6.66268e-24
-8.82831e-24
1.61704e-25
-5.12535e-24
7.43273e-25
-2.74976e-24
6.4991e-25
-1.37523e-24
4.08652e-25
2.15842e-25
-6.49986e-25
5.05583e-15
1.35142e-14
1.94896e-13
1.19959e-13
3.37838e-13
1.82404e-12
1.45124e-13
1.31401e-12
0
1.53268e-13
0
5.86663e-16
2.44067e-17
1.62483e-16
2.33701e-17
1.32757e-16
1.58043e-17
8.83158e-17
7.02338e-18
4.15567e-17
1.14971e-18
9.10301e-18
2.93338e-20
4.6921e-19
5.83317e-23
2.82473e-21
5.61857e-24
1.46186e-24
-5.01236e-24
-9.9455e-24
-8.78213e-24
-1.25702e-23
-7.65939e-24
-6.86902e-24
-5.17647e-24
-2.03766e-24
-2.99753e-24
5.4294e-26
-1.6103e-24
1.90683e-25
-7.94104e-25
1.51318e-25
-3.63825e-25
8.67392e-26
4.16853e-26
-1.56918e-25
2.08986e-15
1.66493e-14
1.35859e-14
0
7.88858e-14
0
2.31239e-14
0
0
0
2.85525e-17
3.92729e-16
2.95949e-17
1.80759e-16
2.33313e-17
1.14278e-16
1.39247e-17
6.37837e-17
4.5367e-18
2.28209e-17
3.91371e-19
2.91187e-18
3.83753e-21
6.28081e-20
2.62578e-24
1.29882e-22
3.41063e-25
3.44891e-26
-2.99185e-24
-5.17237e-24
-3.69611e-24
-4.67495e-24
-2.80213e-24
-2.24914e-24
-1.69335e-24
-6.02725e-25
-8.86622e-25
1.36333e-26
-4.33906e-25
4.25586e-26
-1.94165e-25
3.04824e-26
-8.04195e-26
1.57312e-26
6.77562e-27
-3.1221e-26
1.30704e-15
1.54788e-14
8.02771e-16
7.36994e-15
4.64723e-16
3.38344e-16
1.52516e-16
2.50459e-16
7.46592e-17
3.20129e-16
6.5924e-17
3.1536e-16
3.36121e-17
1.70597e-16
1.98975e-17
8.48787e-17
9.12976e-18
3.65773e-17
1.78901e-18
8.27393e-18
6.26646e-20
4.71872e-19
1.89691e-22
3.31996e-21
4.38606e-26
2.24983e-24
1.14853e-26
2.28148e-26
-1.48378e-24
-2.3708e-24
-1.41909e-24
-1.68471e-24
-9.19726e-25
-7.04674e-25
-4.87898e-25
-1.70242e-25
-2.27297e-25
2.51222e-27
-9.95009e-26
8.09554e-27
-3.97741e-26
5.19237e-27
-1.46541e-26
2.37565e-27
9.00274e-28
-5.03477e-27
1.77553e-15
1.38393e-14
1.41074e-15
1.02264e-14
4.9249e-16
4.30969e-15
2.54477e-16
1.90798e-15
1.23838e-16
9.02561e-16
5.73225e-17
3.23096e-16
2.72362e-17
1.22463e-16
1.25397e-17
4.74416e-17
3.7557e-18
1.35274e-17
3.34354e-19
1.47659e-18
3.6639e-21
2.83497e-20
3.12801e-24
5.82661e-23
4.74969e-25
2.0711e-26
-3.43738e-25
-6.51595e-25
-6.74275e-25
-1.04526e-24
-5.03401e-25
-5.90434e-25
-2.7277e-25
-2.11078e-25
-1.23689e-25
-4.54664e-26
-4.99125e-26
2.88201e-28
-1.91545e-26
1.28861e-27
-6.70828e-27
7.30881e-28
-2.15457e-27
2.90427e-28
9.4521e-29
-6.4127e-28
1.48611e-15
4.59113e-15
2.00126e-15
6.72368e-15
9.7084e-16
4.93123e-15
4.63589e-16
2.50409e-15
1.72035e-16
1.02711e-15
5.07035e-17
3.24388e-16
1.59997e-17
7.54283e-17
4.71968e-18
1.71549e-17
7.08814e-19
2.3554e-18
2.1399e-20
8.9737e-20
6.31021e-23
4.87207e-22
2.00745e-26
3.66135e-25
6.40281e-27
1.37766e-26
-2.51147e-25
-4.72471e-25
-2.79373e-25
-4.38015e-25
-1.67268e-25
-2.02831e-25
-7.41244e-26
-6.09896e-26
-2.77467e-26
-1.14551e-26
-9.33266e-27
-1.62315e-29
-3.05039e-27
1.69117e-28
-9.11572e-28
8.30868e-29
-2.48443e-28
2.78219e-29
7.51167e-30
-6.22693e-29
4.1841e-16
2.17204e-16
1.03478e-15
1.06792e-15
1.07865e-15
2.06614e-15
5.00569e-16
1.68575e-15
1.67539e-16
7.77762e-16
3.70426e-17
2.12657e-16
5.99644e-18
3.12425e-17
7.93567e-19
3.03487e-18
4.23815e-20
1.35389e-19
3.57681e-22
1.41189e-21
3.31535e-25
2.49591e-24
7.33587e-26
1.32664e-27
-5.31175e-26
-1.15076e-25
-1.34036e-25
-2.58545e-25
-1.07975e-25
-1.77463e-25
-5.27768e-26
-6.89337e-26
-1.8778e-26
-1.72422e-26
-5.58272e-27
-2.74469e-27
-1.48526e-27
-7.39021e-29
-3.96496e-28
1.83542e-29
-9.72524e-29
7.48997e-30
-2.16303e-29
2.00576e-30
4.24365e-31
-4.38453e-30
1.48915e-17
3.75606e-19
1.59951e-16
1.78964e-17
2.81699e-16
1.66148e-16
2.66984e-16
2.71554e-16
9.37001e-17
1.94783e-16
1.53136e-17
5.52226e-17
1.14678e-18