/*--------------------------------*- C++ -*----------------------------------*\
  =========                 |
  \\      /  F ield         | OpenFOAM: The Open Source CFD Toolbox
   \\    /   O peration     | Website:  https://openfoam.org
    \\  /    A nd           | Version:  9
     \\/     M anipulation  |
\*---------------------------------------------------------------------------*/
FoamFile
{
    format      ascii;
    class       surfaceScalarField;
    location    "1.85";
    object      phi;
}
// * * * * * * * * * * * * * * * * * * * * * * * * * * * * * * * * * * * * * //

dimensions      [0 3 -1 0 0 0 0];

internalField   nonuniform List<scalar> 
4432
(
-1.2318e-06
1.2318e-06
-1.2101e-06
-2.17106e-08
-7.23417e-07
-4.86674e-07
-1.44879e-07
-5.78541e-07
4.06976e-07
-5.51854e-07
8.98625e-07
-4.9165e-07
1.32102e-06
-4.22391e-07
1.67469e-06
-3.53676e-07
1.96348e-06
-2.88783e-07
2.1909e-06
-2.27419e-07
2.35957e-06
-1.68675e-07
2.46883e-06
-1.09259e-07
2.50949e-06
-4.0656e-08
2.45804e-06
5.14573e-08
2.27405e-06
1.83983e-07
1.89901e-06
3.75037e-07
1.27156e-06
6.2745e-07
1.80305e-07
1.09126e-06
-1.73525e-06
1.91556e-06
-3.82327e-06
2.08802e-06
-4.82472e-06
1.00145e-06
-3.84739e-06
-9.77331e-07
-3.84739e-06
-6.58152e-07
1.88996e-06
-5.30082e-07
-1.49791e-07
-1.93895e-07
-8.22855e-07
2.08568e-07
-9.81007e-07
6.22709e-07
-9.65994e-07
1.01445e-06
-8.83394e-07
1.36706e-06
-7.74999e-07
1.6727e-06
-6.59312e-07
1.92946e-06
-5.45547e-07
2.13774e-06
-4.35698e-07
2.29703e-06
-3.27958e-07
2.40371e-06
-2.15939e-07
2.4492e-06
-8.61484e-08
2.41598e-06
8.46741e-08
2.27282e-06
3.27145e-07
1.97479e-06
6.73069e-07
1.45229e-06
1.14995e-06
6.56644e-07
1.88691e-06
-4.32452e-07
3.00466e-06
-1.61022e-06
3.26579e-06
-2.47113e-06
1.86235e-06
-2.43956e-06
-1.0089e-06
-6.28695e-06
-1.92215e-07
2.08218e-06
-9.08561e-08
-2.51159e-07
1.35194e-07
-1.0489e-06
4.28425e-07
-1.27424e-06
7.49575e-07
-1.28714e-06
1.07093e-06
-1.20475e-06
1.37264e-06
-1.0767e-06
1.643e-06
-9.29673e-07
1.87714e-06
-7.7969e-07
2.0732e-06
-6.31759e-07
2.2289e-06
-4.83652e-07
2.33984e-06
-3.26886e-07
2.39874e-06
-1.4504e-07
2.39238e-06
9.10346e-08
2.2981e-06
4.21421e-07
2.08272e-06
8.88449e-07
1.70486e-06
1.52781e-06
1.17107e-06
2.4207e-06
5.91824e-07
3.58391e-06
-6.93009e-08
3.92691e-06
-7.75372e-07
2.56842e-06
-1.14743e-06
-6.36841e-07
-7.43438e-06
1.2562e-07
1.95656e-06
2.14242e-07
-3.39789e-07
3.68762e-07
-1.20342e-06
5.82388e-07
-1.48787e-06
8.33872e-07
-1.53863e-06
1.10072e-06
-1.4716e-06
1.36224e-06
-1.33822e-06
1.60492e-06
-1.17236e-06
1.82239e-06
-9.97159e-07
2.01138e-06
-8.20755e-07
2.16859e-06
-6.40861e-07
2.28989e-06
-4.48185e-07
2.3704e-06
-2.25551e-07
2.40192e-06
5.95199e-08
2.36979e-06
4.53546e-07
2.25279e-06
1.00546e-06
2.03241e-06
1.74818e-06
1.73487e-06
2.71825e-06
1.4838e-06
3.83498e-06
1.17616e-06
4.23455e-06
6.54745e-07
3.08983e-06
1.20427e-07
-1.0252e-07
-7.31395e-06
3.12585e-07
1.64398e-06
4.16969e-07
-4.44179e-07
5.27503e-07
-1.31395e-06
6.84129e-07
-1.6445e-06
8.83089e-07
-1.73758e-06
1.10742e-06
-1.69593e-06
1.33702e-06
-1.56782e-06
1.558e-06
-1.39334e-06
1.76366e-06
-1.20281e-06
1.95009e-06
-1.00718e-06
2.11353e-06
-8.04305e-07
2.25077e-06
-5.85422e-07
2.36013e-06
-3.3491e-07
2.43889e-06
-1.92392e-08
2.4802e-06
4.12233e-07
2.47397e-06
1.01169e-06
2.41735e-06
1.80479e-06
2.34608e-06
2.78952e-06
2.34413e-06
3.83692e-06
2.30474e-06
4.27395e-06
1.96567e-06
3.42891e-06
1.22263e-06
6.40519e-07
-6.09132e-06
4.07901e-07
1.23608e-06
5.36033e-07
-5.72317e-07
6.2163e-07
-1.39954e-06
7.3863e-07
-1.7615e-06
8.98811e-07
-1.89776e-06
1.09077e-06
-1.88789e-06
1.29569e-06
-1.77274e-06
1.50038e-06
-1.59802e-06
1.69873e-06
-1.40117e-06
1.88685e-06
-1.1953e-06
2.06092e-06
-9.78374e-07
2.21903e-06
-7.43535e-07
2.36325e-06
-4.79124e-07
2.49659e-06
-1.52587e-07
2.61967e-06
2.89157e-07
2.73194e-06
8.99413e-07
2.84202e-06
1.69472e-06
2.98655e-06
2.64499e-06
3.21573e-06
3.60774e-06
3.41387e-06
4.07581e-06
3.28466e-06
3.55812e-06
2.45809e-06
1.46709e-06
-3.63322e-06
4.45579e-07
7.90507e-07
5.90492e-07
-7.17235e-07
6.6132e-07
-1.47037e-06
7.50973e-07
-1.85115e-06
8.83127e-07
-2.02992e-06
1.05112e-06
-2.05588e-06
1.23764e-06
-1.95926e-06
1.43087e-06
-1.79124e-06
1.62608e-06
-1.59638e-06
1.81977e-06
-1.38899e-06
2.00833e-06
-1.16693e-06
2.19138e-06
-9.26585e-07
2.375e-06
-6.62746e-07
2.56798e-06
-3.45566e-07
2.77795e-06
7.91792e-08
3.01221e-06
6.65158e-07
3.28821e-06
1.41871e-06
3.64216e-06
2.29104e-06
4.10359e-06
3.14632e-06
4.56757e-06
3.61183e-06
4.75792e-06
3.36777e-06
4.02881e-06
2.1962e-06
3.95582e-07
4.48858e-07
3.41651e-07
5.99812e-07
-8.68191e-07
6.58356e-07
-1.52892e-06
7.28053e-07
-1.92085e-06
8.40044e-07
-2.14191e-06
9.90716e-07
-2.20655e-06
1.16394e-06
-2.13249e-06
1.34981e-06
-1.97711e-06
1.54549e-06
-1.79205e-06
1.7481e-06
-1.59161e-06
1.95424e-06
-1.37307e-06
2.16507e-06
-1.13742e-06
2.3909e-06
-8.88577e-07
2.6459e-06
-6.00567e-07
2.94452e-06
-2.19437e-07
3.29988e-06
3.09793e-07
3.73719e-06
9.81404e-07
4.29521e-06
1.73301e-06
4.99573e-06
2.44579e-06
5.76734e-06
2.84023e-06
6.40084e-06
2.73427e-06
5.9858e-06
2.61124e-06
6.38138e-06
-8.40754e-06
8.40754e-06
-8.49434e-06
8.67996e-08
-2.45936e-06
-6.03498e-06
3.73593e-06
-6.19529e-06
8.8685e-06
-5.13258e-06
1.31831e-05
-4.31456e-06
1.64847e-05
-3.30165e-06
1.77962e-05
-1.31151e-06
1.62263e-05
1.56996e-06
1.27577e-05
3.46859e-06
9.68013e-06
3.07756e-06
7.18322e-06
2.49691e-06
4.657e-06
2.52623e-06
1.45709e-06
3.19991e-06
-1.76912e-06
3.22621e-06
-3.89537e-06
2.12625e-06
-5.17954e-06
1.28417e-06
-4.91174e-06
-2.67798e-07
-4.91174e-06
-5.42331e-06
1.38308e-05
-2.84229e-06
-2.49423e-06
1.69654e-06
-1.05738e-05
5.94543e-06
-1.04442e-05
9.22288e-06
-8.41003e-06
1.18882e-05
-6.9799e-06
1.40853e-05
-5.49876e-06
1.50553e-05
-2.28147e-06
1.44618e-05
2.16342e-06
1.24914e-05
5.43903e-06
1.04362e-05
5.13274e-06
8.51952e-06
4.41357e-06
6.27668e-06
4.76907e-06
3.71752e-06
5.75906e-06
1.22885e-06
5.71488e-06
-4.11512e-07
3.76661e-06
-1.71075e-06
2.58342e-06
-2.68722e-06
7.08667e-07
-7.59897e-06
-2.11629e-06
1.59471e-05
1.29602e-06
-5.90654e-06
4.75616e-06
-1.4034e-05
7.40561e-06
-1.30936e-05
9.20244e-06
-1.02068e-05
1.05835e-05
-8.36097e-06
1.1776e-05
-6.69131e-06
1.24162e-05
-2.92158e-06
1.19733e-05
2.60627e-06
1.08456e-05
6.5667e-06
9.51034e-06
6.46803e-06
8.1672e-06
5.75671e-06
6.46717e-06
6.4691e-06
4.69917e-06
7.52706e-06
3.13603e-06
7.27803e-06
2.16624e-06
4.7364e-06
1.1038e-06
3.64586e-06
-1.66879e-07
1.97934e-06
-7.76585e-06
1.26993e-06
1.46772e-05
4.91369e-06
-9.55029e-06
7.39946e-06
-1.65197e-05
8.52795e-06
-1.42221e-05
8.96159e-06
-1.06405e-05
9.29003e-06
-8.68942e-06
9.6775e-06
-7.07878e-06
9.95314e-06
-3.19722e-06
9.69036e-06
2.86905e-06
9.18642e-06
7.07063e-06
8.40518e-06
7.24927e-06
7.50227e-06
6.65961e-06
6.29408e-06
7.67729e-06
5.1482e-06
8.67295e-06
4.38797e-06
8.03826e-06
4.07577e-06
5.04859e-06
3.40871e-06
4.31293e-06
1.8766e-06
3.51145e-06
-5.88925e-06
4.64574e-06
1.00315e-05
8.45532e-06
-1.33599e-05
9.71043e-06
-1.77748e-05
9.3031e-06
-1.38148e-05
8.45448e-06
-9.79186e-06
7.87114e-06
-8.10607e-06
7.67922e-06
-6.88686e-06
7.54982e-06
-3.06782e-06
7.49004e-06
2.92883e-06
7.44954e-06
7.11114e-06
7.24075e-06
7.45806e-06
6.71863e-06
7.18173e-06
5.97164e-06
8.42428e-06
5.33334e-06
9.31125e-06
5.15983e-06
8.21177e-06
5.38557e-06
4.82285e-06
5.12959e-06
4.5689e-06
3.61926e-06
5.02177e-06
-2.26998e-06
7.98062e-06
2.05084e-06
1.18965e-05
-1.72758e-05
1.15831e-05
-1.74614e-05
9.6409e-06
-1.18726e-05
7.6254e-06
-7.77636e-06
6.26791e-06
-6.74858e-06
5.64e-06
-6.25894e-06
5.27464e-06
-2.70245e-06
5.34826e-06
2.85522e-06
5.72589e-06
6.7335e-06
6.01808e-06
7.16588e-06
5.84797e-06
7.35184e-06
5.54647e-06
8.72578e-06
5.35793e-06
9.49979e-06
5.55197e-06
8.01773e-06
6.11983e-06
4.25499e-06
6.4418e-06
4.24694e-06
5.1563e-06
6.30727e-06
2.88632e-06
1.2161e-05
-1.01102e-05
1.50731e-05
-2.01879e-05
1.28206e-05
-1.52089e-05
9.45122e-06
-8.5032e-06
6.43883e-06
-4.76398e-06
4.44919e-06
-4.75894e-06
3.50432e-06
-5.31407e-06
3.08193e-06
-2.28006e-06
3.3009e-06
2.63624e-06
4.01219e-06
6.02221e-06
4.64575e-06
6.53232e-06
4.87765e-06
7.11994e-06
5.03565e-06
8.56778e-06
5.27342e-06
9.26202e-06
5.73497e-06
7.55618e-06
6.49191e-06
3.49805e-06
7.48826e-06
3.2506e-06
6.67282e-06
7.12271e-06
9.55914e-06
1.73284e-05
-2.74386e-05
1.74704e-05
-2.03299e-05
1.32048e-05
-1.09433e-05
8.67603e-06
-3.97442e-06
4.89207e-06
-9.8002e-07
2.40154e-06
-2.26841e-06
1.25712e-06
-4.16964e-06
7.68407e-07
-1.79135e-06
1.20385e-06
2.2008e-06
2.20351e-06
5.02254e-06
3.14424e-06
5.59159e-06
3.81555e-06
6.44863e-06
4.45531e-06
7.92803e-06
5.13885e-06
8.57848e-06
5.85596e-06
6.83907e-06
6.82016e-06
2.53385e-06
8.17184e-06
1.89892e-06
7.85707e-06
7.43747e-06
1.74162e-05
9.38218e-07
-5.96566e-07
1.22017e-06
-1.15015e-06
1.2927e-06
-1.60144e-06
1.38421e-06
-2.01236e-06
1.57279e-06
-2.33049e-06
1.85309e-06
-2.48685e-06
2.19018e-06
-2.46959e-06
2.57102e-06
-2.35795e-06
2.99832e-06
-2.21935e-06
3.4678e-06
-2.06109e-06
3.97181e-06
-1.87708e-06
4.51588e-06
-1.68148e-06
5.13704e-06
-1.50974e-06
5.88576e-06
-1.34929e-06
6.80642e-06
-1.14009e-06
7.94763e-06
-8.31419e-07
9.38061e-06
-4.5158e-07
1.12208e-05
-1.07195e-07
1.34962e-05
1.70424e-07
1.62411e-05
9.52917e-08
1.93829e-05
-4.07536e-07
2.33814e-05
-1.38728e-06
-2.78458e-06
3.25474e-05
6.94129e-07
-1.2907e-06
9.15829e-07
-1.37185e-06
9.81964e-07
-1.66757e-06
1.05127e-06
-2.08167e-06
1.18817e-06
-2.4674e-06
1.42117e-06
-2.71985e-06
1.74132e-06
-2.78974e-06
2.13558e-06
-2.75221e-06
2.59279e-06
-2.67656e-06
3.11101e-06
-2.57931e-06
3.69881e-06
-2.46488e-06
4.36343e-06
-2.34611e-06
5.1404e-06
-2.28671e-06
6.08649e-06
-2.29538e-06
7.29498e-06
-2.34859e-06
8.86544e-06
-2.40188e-06
1.08784e-05
-2.46452e-06
1.33738e-05
-2.60265e-06
1.64524e-05
-2.90814e-06
2.00869e-05
-3.53919e-06
2.44063e-05
-4.72701e-06
2.96379e-05
-6.61888e-06
-9.759e-06
3.66124e-05
9.41083e-08
-1.3848e-06
3.58921e-07
-1.63666e-06
6.15956e-07
-1.9246e-06
6.69998e-07
-2.13571e-06
5.9625e-07
-2.39365e-06
6.72201e-07
-2.7958e-06
1.02746e-06
-3.145e-06
1.5595e-06
-3.28426e-06
2.07636e-06
-3.19342e-06
2.58225e-06
-3.0852e-06
3.23467e-06
-3.11729e-06
4.06009e-06
-3.17153e-06
4.96719e-06
-3.19381e-06
5.88502e-06
-3.2132e-06
7.08928e-06
-3.55285e-06
8.94649e-06
-4.25909e-06
1.15059e-05
-5.0239e-06
1.46472e-05
-5.74401e-06
1.83011e-05
-6.56198e-06
2.24439e-05
-7.68201e-06
2.71778e-05
-9.46094e-06
3.24116e-05
-1.18527e-05
-1.53371e-05
3.79897e-05
-2.26844e-06
8.83648e-07
-8.86069e-07
-3.01919e-06
7.13102e-07
-3.52372e-06
8.97098e-07
-2.3197e-06
-3.25743e-07
-1.1708e-06
-1.01916e-06
-2.10238e-06
-5.17484e-07
-3.64667e-06
7.89641e-07
-4.59138e-06
1.61997e-06
-4.02374e-06
1.66193e-06
-3.12717e-06
2.22694e-06
-3.68231e-06
3.46152e-06
-4.40613e-06
4.70393e-06
-4.43624e-06
5.00456e-06
-3.51383e-06
5.19966e-06
-3.74796e-06
7.35967e-06
-6.4191e-06
1.09141e-05
-8.5783e-06
1.51283e-05
-9.9583e-06
1.94648e-05
-1.08984e-05
2.39092e-05
-1.21264e-05
2.88257e-05
-1.43774e-05
3.2847e-05
-1.58739e-05
-1.71432e-05
3.46531e-05
-2.35256e-05
2.44096e-05
-2.60456e-05
-4.99324e-07
-2.52437e-05
-4.32553e-06
-2.87361e-05
1.17263e-06
-3.89915e-05
9.0846e-06
-4.41263e-05
3.0325e-06
-4.24704e-05
-5.30264e-06
-4.02796e-05
-6.78216e-06
-3.98224e-05
-4.48086e-06
-4.1699e-05
-1.25063e-06
-4.31295e-05
-2.25179e-06
-4.10262e-05
-6.5095e-06
-4.14003e-05
-4.06214e-06
-4.64723e-05
1.55817e-06
-5.29569e-05
2.73665e-06
-4.61295e-05
-1.32466e-05
-3.55623e-05
-1.91455e-05
-2.65124e-05
-1.90081e-05
-2.12796e-05
-1.61312e-05
-2.28429e-05
-1.05631e-05
-3.1608e-05
-5.61234e-06
-4.61837e-05
-1.29818e-06
6.32907e-06
-6.9656e-05
-1.87957e-05
4.32054e-05
-2.49483e-05
5.65327e-06
-3.06447e-05
1.37089e-06
-3.66067e-05
7.13465e-06
-4.11215e-05
1.35995e-05
-4.44504e-05
6.3614e-06
-4.77779e-05
-1.97512e-06
-5.15237e-05
-3.03636e-06
-5.30832e-05
-2.92142e-06
-5.14866e-05
-2.8473e-06
-4.96428e-05
-4.09558e-06
-4.94875e-05
-6.66485e-06
-5.0617e-05
-2.93264e-06
-5.41727e-05
5.11394e-06
-5.29557e-05
1.51972e-06
-5.00639e-05
-1.61385e-05
-4.53821e-05
-2.38273e-05
-4.03746e-05
-2.40156e-05
-3.80155e-05
-1.84903e-05
-4.0301e-05
-8.27745e-06
-4.91933e-05
3.27999e-06
-6.55089e-05
1.50174e-05
1.05895e-05
-6.97692e-05
-6.85105e-06
5.00565e-05
-1.60537e-05
1.4856e-05
-2.61001e-05
1.14173e-05
-3.26629e-05
1.36975e-05
-3.44556e-05
1.53921e-05
-3.8679e-05
1.05849e-05
-4.60606e-05
5.40643e-06
-5.25177e-05
3.42077e-06
-5.39966e-05
-1.44254e-06
-5.29994e-05
-3.84454e-06
-5.09972e-05
-6.09781e-06
-5.04552e-05
-7.20681e-06
-5.05132e-05
-2.8746e-06
-5.1159e-05
5.75969e-06
-4.9909e-05
2.6972e-07
-4.88441e-05
-1.72034e-05
-4.76479e-05
-2.50234e-05
-4.57021e-05
-2.59614e-05
-4.51846e-05
-1.90078e-05
-4.80653e-05
-5.3968e-06
-5.73372e-05
1.2552e-05
-6.46741e-05
2.23543e-05
3.71086e-06
-5.77955e-05
-3.24957e-07
5.03815e-05
-8.52909e-06
2.30602e-05
-1.64633e-05
1.93516e-05
-2.19736e-05
1.92079e-05
-2.53595e-05
1.8778e-05
-3.02937e-05
1.5519e-05
-3.6816e-05
1.19288e-05
-4.23466e-05
8.95136e-06
-4.74523e-05
3.66315e-06
-4.94549e-05
-1.84194e-06
-4.93583e-05
-6.19439e-06
-4.94845e-05
-7.08069e-06
-4.99479e-05
-2.41115e-06
-4.60109e-05
1.82264e-06
-4.27696e-05
-2.97161e-06
-4.57522e-05
-1.42208e-05
-4.79646e-05
-2.2811e-05
-4.8876e-05
-2.505e-05
-5.19698e-05
-1.59139e-05
-5.51059e-05
-2.26076e-06
-5.44738e-05
1.19199e-05
-4.83576e-05
1.62381e-05
1.00439e-06
-4.56512e-05
3.09146e-06
4.72901e-05
-3.58302e-06
2.97348e-05
-9.37107e-06
2.51397e-05
-1.3718e-05
2.35548e-05
-1.70622e-05
2.21223e-05
-2.10445e-05
1.95012e-05
-2.55382e-05
1.64225e-05
-2.96796e-05
1.30928e-05
-3.41279e-05
8.11145e-06
-3.84588e-05
2.48894e-06
-4.24303e-05
-2.2229e-06
-4.5376e-05
-4.13502e-06
-4.51442e-05
-2.6429e-06
-4.19444e-05
-1.37715e-06
-3.98661e-05
-5.04987e-06
-4.14482e-05
-1.26387e-05
-4.53319e-05
-1.89273e-05
-5.01659e-05
-2.0216e-05
-5.20541e-05
-1.40258e-05
-5.07474e-05
-3.56744e-06
-4.4738e-05
5.91054e-06
-3.57595e-05
7.25959e-06
-3.20775e-06
-3.15474e-05
2.97165e-06
4.43185e-05
-9.47373e-07
3.36539e-05
-4.8799e-06
2.90723e-05
-8.08395e-06
2.67588e-05
-1.07728e-05
2.48111e-05
-1.36298e-05
2.23582e-05
-1.66527e-05
1.94454e-05
-1.95751e-05
1.60152e-05
-2.29665e-05
1.15028e-05
-2.6918e-05
6.44034e-06
-3.1125e-05
1.98413e-06
-3.45577e-05
-7.02363e-07
-3.5751e-05
-1.44957e-06
-3.47861e-05
-2.34201e-06
-3.41351e-05
-5.70093e-06
-3.57793e-05
-1.09945e-05
-3.93236e-05
-1.53829e-05
-4.31765e-05
-1.6363e-05
-4.4665e-05
-1.25372e-05
-4.23124e-05
-5.91999e-06
-3.60457e-05
-3.56217e-07
-2.86203e-05
-1.65807e-07
-6.98688e-06
-2.48412e-05
2.0894e-06
4.22292e-05
1.86382e-07
3.55571e-05
-2.19069e-06
3.14494e-05
-4.32238e-06
2.88905e-05
-6.19696e-06
2.66857e-05
-8.09023e-06
2.42515e-05
-1.00736e-05
2.14287e-05
-1.21602e-05
1.81018e-05
-1.47235e-05
1.40661e-05
-1.79211e-05
9.63789e-06
-2.14595e-05
5.5225e-06
-2.45544e-05
2.39266e-06
-2.6296e-05
2.91953e-07
-2.67925e-05
-1.84546e-06
-2.73754e-05
-5.11803e-06
-2.91647e-05
-9.20518e-06
-3.20008e-05
-1.25468e-05
-3.47253e-05
-1.36385e-05
-3.54807e-05
-1.17817e-05
-3.32004e-05
-8.20045e-06
-2.81726e-05
-5.38394e-06
-2.24753e-05
-5.86307e-06
-1.04368e-05
-1.90253e-05
1.36334e-06
4.08659e-05
6.33956e-07
3.62865e-05
-6.31964e-07
3.27153e-05
-1.86404e-06
3.01226e-05
-2.97773e-06
2.77993e-05
-4.08891e-06
2.53626e-05
-5.28952e-06
2.26293e-05
-6.67952e-06
1.94918e-05
-8.49101e-06
1.58776e-05
-1.08304e-05
1.19772e-05
-1.35007e-05
8.19284e-06
-1.60071e-05
4.89905e-06
-1.78296e-05
2.11449e-06
-1.90167e-05
-6.58372e-07
-2.02276e-05
-3.90708e-06
-2.2017e-05
-7.41571e-06
-2.42489e-05
-1.0315e-05
-2.61463e-05
-1.17411e-05
-2.65593e-05
-1.13686e-05
-2.48319e-05
-9.9279e-06
-2.13024e-05
-8.91331e-06
-1.7394e-05
-9.77145e-06
-1.28733e-05
-1.49573e-05
9.20663e-07
3.99453e-05
7.97556e-07
3.64097e-05
2.68514e-07
3.32444e-05
-2.77543e-07
3.06686e-05
-7.69234e-07
2.8291e-05
-1.26261e-06
2.5856e-05
-1.8459e-06
2.32126e-05
-2.6282e-06
2.02741e-05
-3.75955e-06
1.7009e-05
-5.30847e-06
1.35261e-05
-7.16154e-06
1.00459e-05
-9.0344e-06
6.77195e-06
-1.06433e-05
3.72338e-06
-1.19887e-05
6.87037e-07
-1.33686e-05
-2.52718e-06
-1.50239e-05
-5.76043e-06
-1.682e-05
-8.51883e-06
-1.82494e-05
-1.03119e-05
-1.8636e-05
-1.0982e-05
-1.76104e-05
-1.09535e-05
-1.54443e-05
-1.10794e-05
-1.30584e-05
-1.21573e-05
-1.43494e-05
-1.15822e-05
6.93655e-07
3.92517e-05
8.68381e-07
3.6235e-05
8.19004e-07
3.32938e-05
7.56885e-07
3.07308e-05
7.35425e-07
2.83125e-05
7.14957e-07
2.58765e-05
6.17526e-07
2.331e-05
3.46923e-07
2.05446e-05
-2.01898e-07
1.75578e-05
-1.07991e-06
1.44042e-05
-2.23313e-06
1.11991e-05
-3.51039e-06
8.04922e-06
-4.76102e-06
4.97402e-06
-5.96811e-06
1.89415e-06
-7.25083e-06
-1.24443e-06
-8.69179e-06
-4.31946e-06
-1.01707e-05
-7.03983e-06
-1.13621e-05
-9.12044e-06
-1.18722e-05
-1.04719e-05
-1.15011e-05
-1.13244e-05
-1.04385e-05
-1.2142e-05
-9.24866e-06
-1.33472e-05
-1.50006e-05
-8.59759e-06
5.87099e-07
3.86647e-05
9.26769e-07
3.58954e-05
1.18444e-06
3.30361e-05
1.46322e-06
3.0452e-05
1.78594e-06
2.79898e-05
2.11802e-06
2.55444e-05
2.39343e-06
2.30346e-05
2.53223e-06
2.04058e-05
2.45489e-06
1.76351e-05
2.1163e-06
1.47427e-05
1.53323e-06
1.17822e-05
7.76527e-07
8.80593e-06
-7.89224e-08
5.82946e-06
-1.01644e-06
2.83166e-06
-2.07569e-06
-1.85128e-07
-3.26946e-06
-3.12565e-06
-4.50067e-06
-5.80861e-06
-5.56281e-06
-8.05825e-06
-6.22466e-06
-9.81005e-06
-6.37588e-06
-1.11731e-05
-6.13397e-06
-1.23839e-05
-5.8265e-06
-1.36547e-05
-1.50081e-05
-5.81895e-06
5.5418e-07
3.81105e-05
1.01006e-06
3.54396e-05
1.48058e-06
3.25656e-05
2.00188e-06
2.99307e-05
2.57389e-06
2.74178e-05
3.16364e-06
2.49546e-05
3.71599e-06
2.24822e-05
4.16567e-06
1.99561e-05
4.44962e-06
1.73511e-05
4.5259e-06
1.46664e-05
4.38785e-06
1.19202e-05
4.06e-06
9.13375e-06
3.57317e-06
6.31628e-06
2.93644e-06
3.46837e-06
2.13957e-06
6.11724e-07
1.19362e-06
-2.17967e-06
1.70679e-07
-4.78566e-06
-7.98826e-07
-7.08872e-06
-1.57679e-06
-9.03207e-06
-2.09622e-06
-1.06537e-05
-2.41951e-06
-1.20606e-05
-2.72325e-06
-1.33509e-05
-1.45291e-05
-3.20221e-06
5.91714e-07
3.75188e-05
1.15144e-06
3.488e-05
1.78619e-06
3.19309e-05
2.48873e-06
2.92282e-05
3.24364e-06
2.66629e-05
4.01943e-06
2.41788e-05
4.77068e-06
2.1731e-05
5.4449e-06
1.92819e-05
5.991e-06
1.6805e-05
6.37007e-06
1.42873e-05
6.56293e-06
1.17273e-05
6.56839e-06
9.12824e-06
6.39166e-06
6.49299e-06
6.03237e-06
3.82764e-06
5.48722e-06
1.15684e-06
4.76994e-06
-1.46239e-06
3.92995e-06
-3.94566e-06
3.04925e-06
-6.20801e-06
2.21356e-06
-8.19637e-06
1.46826e-06
-9.90841e-06
7.88698e-07
-1.1381e-05
8.91223e-08
-1.26513e-05
-1.37141e-05
-7.25892e-07
7.11963e-07
3.68069e-05
1.38174e-06
3.42103e-05
2.15843e-06
3.11543e-05
3.00597e-06
2.83807e-05
3.8989e-06
2.577e-05
4.80797e-06
2.32697e-05
5.69659e-06
2.08423e-05
6.52346e-06
1.8455e-05
7.24753e-06
1.6081e-05
7.834e-06
1.37009e-05
8.25854e-06
1.13027e-05
8.50686e-06
8.87989e-06
8.56996e-06
6.42989e-06
8.43954e-06
3.95808e-06
8.11063e-06
1.48575e-06
7.59187e-06
-9.43634e-07
6.91445e-06
-3.26824e-06
6.12955e-06
-5.42311e-06
5.29196e-06
-7.35878e-06
4.43638e-06
-9.05285e-06
3.56131e-06
-1.05059e-05
2.63364e-06
-1.17237e-05
-1.26957e-05
1.61523e-06
9.25555e-07
3.58814e-05
1.72582e-06
3.34101e-05
2.63697e-06
3.02432e-05
3.60802e-06
2.74097e-05
4.60819e-06
2.47698e-05
5.61155e-06
2.22664e-05
6.58978e-06
1.98641e-05
7.51164e-06
1.75331e-05
8.34518e-06
1.52474e-05
9.06093e-06
1.29851e-05
9.63423e-06
1.07294e-05
1.00456e-05
8.46855e-06
1.0279e-05
6.19647e-06
1.03211e-05
3.91601e-06
1.01634e-05
1.64349e-06
9.80806e-06
-5.88344e-07
9.27287e-06
-2.73306e-06
8.58922e-06
-4.73948e-06
7.79334e-06
-6.56293e-06
6.9134e-06
-8.17295e-06
5.96065e-06
-9.55321e-06
4.93117e-06
-1.06942e-05
-1.15834e-05
3.81891e-06
1.23122e-06
3.46503e-05
2.19482e-06
3.24466e-05
3.24119e-06
2.91969e-05
4.32185e-06
2.63291e-05
5.40665e-06
2.3685e-05
6.47465e-06
2.11983e-05
7.50557e-06
1.88331e-05
8.47735e-06
1.65613e-05
9.36661e-06
1.43581e-05
1.015e-05
1.22017e-05
1.08056e-05
1.00739e-05
1.13134e-05
7.96074e-06
1.16553e-05
5.85449e-06
1.18158e-05
3.75554e-06
1.17837e-05
1.67558e-06
1.15564e-05
-3.60969e-07
1.11421e-05
-2.3188e-06
1.05598e-05
-4.15722e-06
9.83417e-06
-5.83725e-06
8.98845e-06
-7.32724e-06
8.03979e-06
-8.60457e-06
6.99922e-06
-9.65368e-06
-1.04618e-05
5.87762e-06
1.60505e-06
3.30453e-05
2.77722e-06
3.12745e-05
3.96397e-06
2.80102e-05
5.14389e-06
2.51492e-05
6.29549e-06
2.25334e-05
7.40509e-06
2.00887e-05
8.4605e-06
1.77777e-05
9.44819e-06
1.55736e-05
1.03527e-05
1.34536e-05
1.11573e-05
1.13971e-05
1.18444e-05
9.38673e-06
1.23964e-05
7.40867e-06
1.27963e-05
5.45454e-06
1.30286e-05
3.52321e-06
1.30814e-05
1.62275e-06
1.29491e-05
-2.2867e-07
1.26344e-05
-2.00406e-06
1.21482e-05
-3.67107e-06
1.15077e-05
-5.19674e-06
1.07322e-05
-6.55175e-06
9.84048e-06
-7.71283e-06
8.85e-06
-8.66321e-06
-9.39125e-06
7.77939e-06
2.01227e-06
3.1033e-05
3.43225e-06
2.98546e-05
4.76535e-06
2.66772e-05
6.03676e-06
2.38778e-05
7.24145e-06
2.13288e-05
8.37558e-06
1.89546e-05
9.43531e-06
1.67179e-05
1.04151e-05
1.45938e-05
1.13068e-05
1.25618e-05
1.21001e-05
1.06038e-05
1.27827e-05
8.70408e-06
1.33409e-05
6.85036e-06
1.37607e-05
5.03476e-06
1.40283e-05
3.25548e-06
1.41328e-05
1.51818e-06
1.40676e-05
-1.63522e-07
1.38324e-05
-1.76884e-06
1.34334e-05
-3.27211e-06
1.28828e-05
-4.64612e-06
1.21964e-05
-5.86539e-06
1.13922e-05
-6.90868e-06
1.04894e-05
-7.76044e-06
-8.41076e-06
9.50891e-06
2.39068e-06
2.86424e-05
4.08439e-06
2.8161e-05
5.57047e-06
2.51912e-05
6.92962e-06
2.25187e-05
8.1794e-06
2.0079e-05
9.32802e-06
1.7806e-05
1.03804e-05
1.56656e-05
1.13383e-05
1.36359e-05
1.22007e-05
1.16995e-05
1.29632e-05
9.84124e-06
1.3619e-05
8.04828e-06
1.4159e-05
6.31028e-06
1.4573e-05
4.6207e-06
1.48505e-05
2.97794e-06
1.49824e-05
1.38625e-06
1.49626e-05
-1.43824e-07
1.47897e-05
-1.59603e-06
1.44675e-05
-2.94995e-06
1.40048e-05
-4.18342e-06
1.34145e-05
-5.27511e-06
1.27126e-05
-6.20681e-06
1.19174e-05
-6.9652e-06
-7.54231e-06
1.10489e-05
2.66322e-06
2.59792e-05
4.63356e-06
2.61907e-05
6.27875e-06
2.3546e-05
7.72744e-06
2.107e-05
9.02174e-06
1.87847e-05
1.01832e-05
1.66446e-05
1.12255e-05
1.46233e-05
1.21578e-05
1.27036e-05
1.29852e-05
1.08721e-05
1.37091e-05
9.11733e-06
1.4328e-05
7.42937e-06
1.48377e-05
5.80056e-06
1.52322e-05
4.22623e-06
1.55045e-05
2.70558e-06
1.56483e-05
1.24241e-06
1.56591e-05
-1.54646e-07
1.55355e-05
-1.47249e-06
1.52802e-05
-2.69465e-06
1.48999e-05
-3.80311e-06
1.44051e-05
-4.78032e-06
1.38094e-05
-5.61119e-06
1.3129e-05
-6.28479e-06
-6.795e-06
1.23817e-05
2.77431e-06
2.3205e-05
4.98577e-06
2.39793e-05
6.78916e-06
2.17426e-05
8.33224e-06
1.95269e-05
9.67681e-06
1.74401e-05
1.08568e-05
1.54646e-05
1.18947e-05
1.35854e-05
1.28063e-05
1.17921e-05
1.36023e-05
1.00761e-05
1.42898e-05
8.42986e-06
1.48721e-05
6.84707e-06
1.53497e-05
5.32298e-06
1.57208e-05
3.85516e-06
1.59822e-05
2.44416e-06
1.61306e-05
1.09402e-06
1.61635e-05
-1.87553e-07
1.60805e-05
-1.38948e-06
1.58839e-05
-2.49809e-06
1.55793e-05
-3.49853e-06
1.51754e-05
-4.37637e-06
1.46834e-05
-5.11923e-06
1.41169e-05
-5.71832e-06
-6.16906e-06
1.34909e-05
2.7177e-06
2.04873e-05
5.09401e-06
2.1603e-05
7.0363e-06
1.98004e-05
8.67279e-06
1.78905e-05
1.00734e-05
1.60395e-05
1.12807e-05
1.42573e-05
1.2324e-05
1.25421e-05
1.3225e-05
1.08911e-05
1.39997e-05
9.30136e-06
1.46598e-05
7.76977e-06
1.52131e-05
6.29375e-06
1.56644e-05
4.87172e-06
1.60158e-05
3.5038e-06
1.62677e-05
2.19227e-06
1.64197e-05
9.41992e-07
1.64717e-05
-2.3951e-07
1.64245e-05
-1.34224e-06
1.62808e-05
-2.35436e-06
1.60455e-05
-3.26326e-06
1.57259e-05
-4.05682e-06
1.53315e-05
-4.7248e-06
1.48732e-05
-5.26007e-06
-5.65916e-06
1.43633e-05
2.54305e-06
1.79443e-05
4.98155e-06
1.91646e-05
7.01649e-06
1.77655e-05
8.72854e-06
1.61784e-05
1.01815e-05
1.45867e-05
1.14199e-05
1.30189e-05
1.24769e-05
1.14851e-05
1.3378e-05
9.99e-06
1.41431e-05
8.5362e-06
1.47877e-05
7.12517e-06
1.53233e-05
5.75815e-06
1.57581e-05
4.43687e-06
1.60978e-05
3.16412e-06
1.6346e-05
1.94417e-06
1.65049e-05
7.83094e-07
1.65765e-05
-3.11168e-07
1.65633e-05
-1.329e-06
1.64685e-05
-2.25956e-06
1.62969e-05
-3.09168e-06
1.60549e-05
-3.81481e-06
1.57503e-05
-4.42019e-06
1.5392e-05
-4.90183e-06
-5.25693e-06
1.49898e-05
2.3237e-06
1.56206e-05
4.72234e-06
1.6766e-05
6.78201e-06
1.57058e-05
8.53122e-06
1.44293e-05
1.00172e-05
1.31007e-05
1.12797e-05
1.17564e-05
1.23512e-05
1.04136e-05
1.32583e-05
9.0829e-06
1.40229e-05
7.77168e-06
1.46625e-05
6.48554e-06
1.51913e-05
5.22937e-06
1.56201e-05
4.00804e-06
1.59572e-05
2.82699e-06
1.62088e-05
1.69259e-06
1.63796e-05
6.12371e-07
1.64734e-05
-4.04933e-07
1.64939e-05
-1.34954e-06
1.64454e-05
-2.21099e-06
1.63326e-05
-2.97888e-06
1.61614e-05
-3.64359e-06
1.59384e-05
-4.19722e-06
1.5671e-05
-4.63442e-06
-4.95261e-06
1.53668e-05
2.11315e-06
1.35075e-05
4.3944e-06
1.44847e-05
6.4074e-06
1.36929e-05
8.14308e-06
1.26937e-05
9.62972e-06
1.16141e-05
1.08978e-05
1.04885e-05
1.19752e-05
9.33626e-06
1.28866e-05
8.17147e-06
1.36536e-05
7.00476e-06
1.42942e-05
5.84495e-06
1.48237e-05
4.69991e-06
1.52544e-05
3.57729e-06
1.55965e-05
2.48494e-06
1.58579e-05
1.43125e-06
1.6045e-05
4.25285e-07
1.61633e-05
-5.23201e-07
1.62177e-05
-1.40391e-06
1.62131e-05
-2.20633e-06
1.61545e-05
-2.92029e-06
1.60476e-05
-3.53659e-06
1.58981e-05
-4.04771e-06
1.57122e-05
-4.44846e-06
-4.73611e-06
1.54958e-05
1.92927e-06
1.15782e-05
4.04732e-06
1.23667e-05
5.9559e-06
1.17843e-05
7.62873e-06
1.10209e-05
9.07905e-06
1.01639e-05
1.03271e-05
9.24045e-06
1.13943e-05
8.26914e-06
1.23012e-05
7.26459e-06
1.30669e-05
6.23903e-06
1.37087e-05
5.20322e-06
1.42414e-05
4.16721e-06
1.4678e-05
3.14076e-06
1.50292e-05
2.13378e-06
1.53041e-05
1.15641e-06
1.55103e-05
2.19183e-07
1.56542e-05
-6.67072e-07
1.57417e-05
-1.49136e-06
1.57782e-05
-2.24282e-06
1.57691e-05
-2.91118e-06
1.57198e-05
-3.48727e-06
1.56357e-05
-3.96355e-06
1.5522e-05
-4.33466e-06
-4.59744e-06
1.53834e-05
1.76636e-06
9.81188e-06
3.69946e-06
1.04335e-05
5.4659e-06
1.00179e-05
7.03759e-06
9.44919e-06
8.41857e-06
8.78292e-06
9.62046e-06
8.03858e-06
1.06579e-05
7.23172e-06
1.15467e-05
6.37586e-06
1.23025e-05
5.48323e-06
1.29404e-05
4.56538e-06
1.34741e-05
3.63355e-06
1.39159e-05
2.69901e-06
1.42766e-05
1.77314e-06
1.45655e-05
8.67548e-07
1.47907e-05
-5.99612e-09
1.49593e-05
-8.35649e-07
1.50777e-05
-1.60968e-06
1.51516e-05
-2.31673e-06
1.51867e-05
-2.94623e-06
1.51883e-05
-3.48879e-06
1.51614e-05
-3.93661e-06
1.51107e-05
-4.2839e-06
-4.52683e-06
1.50401e-05
1.61147e-06
8.20039e-06
3.35099e-06
8.69398e-06
4.95501e-06
8.41384e-06
6.40081e-06
8.00338e-06
7.68767e-06
7.49606e-06
8.82101e-06
6.90524e-06
9.80982e-06
6.24292e-06
1.06653e-05
5.52042e-06
1.13996e-05
4.74892e-06
1.20252e-05
3.93983e-06
1.25539e-05
3.10488e-06
1.29968e-05
2.25616e-06
1.33639e-05
1.40604e-06
1.36644e-05
5.67172e-07
1.39061e-05
-2.47701e-07
1.40964e-05
-1.02589e-06
1.42417e-05
-1.75497e-06
1.43481e-05
-2.4231e-06
1.44212e-05
-3.01931e-06
1.44663e-05
-3.53387e-06
1.44883e-05
-3.95858e-06
1.44915e-05
-4.28707e-06
-4.51472e-06
1.44794e-05
1.45366e-06
6.74672e-06
2.99703e-06
7.15057e-06
4.43004e-06
6.98081e-06
5.73627e-06
6.69711e-06
6.91258e-06
6.31973e-06
7.96028e-06
5.85752e-06
8.88429e-06
5.31891e-06
9.69214e-06
4.71258e-06
1.03929e-05
4.04816e-06
1.09963e-05
3.33644e-06
1.15121e-05
2.58916e-06
1.19496e-05
1.81871e-06
1.23177e-05
1.03797e-06
1.26247e-05
2.60205e-07
1.28781e-05
-5.01163e-07
1.30851e-05
-1.2328e-06
1.32519e-05
-1.92176e-06
1.33845e-05
-2.55575e-06
1.34886e-05
-3.12342e-06
1.35694e-05
-3.61466e-06
1.36317e-05
-4.02083e-06
1.36796e-05
-4.33494e-06
-4.55155e-06
1.37164e-05
1.28745e-06
5.45925e-06
2.63499e-06
5.80299e-06
3.89485e-06
5.72092e-06
5.05493e-06
5.53699e-06
6.1105e-06
5.26414e-06
7.06036e-06
4.90764e-06
7.90686e-06
4.47242e-06
8.65498e-06
3.96449e-06
9.31123e-06
3.39193e-06
9.88282e-06
2.76489e-06
1.03771e-05
2.09492e-06
1.08015e-05
1.39431e-06
1.11636e-05
6.75923e-07
1.14706e-05
-4.67648e-08
1.17294e-05
-7.5995e-07
1.19464e-05
-1.44988e-06
1.21279e-05
-2.10323e-06
1.22796e-05
-2.70737e-06
1.24068e-05
-3.25067e-06
1.25148e-05
-3.72266e-06
1.26083e-05
-4.1143e-06
1.26914e-05
-4.41802e-06
-4.62759e-06
1.27674e-05
1.11269e-06
4.34654e-06
2.26651e-06
4.64912e-06
3.35413e-06
4.63326e-06
4.36523e-06
4.52585e-06
5.29383e-06
4.33552e-06
6.13744e-06
4.06403e-06
6.89703e-06
3.71284e-06
7.57593e-06
3.28561e-06
8.17864e-06
2.78926e-06
8.70991e-06
2.23366e-06
9.17459e-06
1.63027e-06
9.57805e-06
9.90871e-07
9.92634e-06
3.27656e-07
1.02257e-05
-3.46108e-07
1.04822e-05
-1.01648e-06
1.07018e-05
-1.66948e-06
1.08901e-05
-2.29153e-06
1.10526e-05
-2.86981e-06
1.11944e-05
-3.39247e-06
1.13205e-05
-3.84882e-06
1.14357e-05
-4.22947e-06
1.15441e-05
-4.52639e-06
-4.73269e-06
1.16492e-05
9.32255e-07
3.41426e-06
1.89624e-06
3.68506e-06
2.8141e-06
3.71535e-06
3.67544e-06
3.66447e-06
4.47346e-06
3.53748e-06
5.2053e-06
3.3322e-06
5.87143e-06
3.04673e-06
6.47421e-06
2.68286e-06
7.01645e-06
2.24706e-06
7.50052e-06
1.74963e-06
7.92838e-06
1.20245e-06
8.30308e-06
6.16205e-07
8.62943e-06
1.33347e-09
8.91287e-06
-6.29532e-07
9.15883e-06
-1.26243e-06
9.37256e-06
-1.8832e-06
9.55916e-06
-2.47813e-06
9.72363e-06
-3.03428e-06
9.87088e-06
-3.53971e-06
1.00057e-05
-3.98362e-06
1.01326e-05
-4.35639e-06
1.02559e-05
-4.6497e-06
-4.85614e-06
1.03794e-05
7.49384e-07
2.66484e-06
1.52999e-06
2.90437e-06
2.28251e-06
2.96278e-06
2.99545e-06
2.95148e-06
3.66177e-06
2.87114e-06
4.27886e-06
2.71511e-06
4.84724e-06
2.47836e-06
5.36883e-06
2.16131e-06
5.84526e-06
1.77066e-06
6.27662e-06
1.31832e-06
6.66122e-06
8.17898e-07
6.99935e-06
2.78111e-07
7.29519e-06
-2.94475e-07
7.55393e-06
-8.88242e-07
7.78051e-06
-1.48899e-06
7.97956e-06
-2.08225e-06
8.1556e-06
-2.65416e-06
8.31306e-06
-3.19174e-06
8.45642e-06
-3.68308e-06
8.59015e-06
-4.11735e-06
8.71865e-06
-4.48489e-06
8.84616e-06
-4.77722e-06
-4.98665e-06
8.97667e-06
5.66873e-07
2.09792e-06
1.17494e-06
2.29621e-06
1.77043e-06
2.36722e-06
2.33998e-06
2.38187e-06
2.87668e-06
2.33441e-06
3.37843e-06
2.21335e-06
3.84607e-06
2.01073e-06
4.28166e-06
1.72573e-06
4.68685e-06
1.3655e-06
5.06032e-06
9.44883e-07
5.39539e-06
4.82864e-07
5.68851e-06
-1.49651e-08
5.94454e-06
-5.50479e-07
6.16931e-06
-1.11299e-06
6.36751e-06
-1.68717e-06
6.54311e-06
-2.25783e-06
6.69983e-06
-2.81087e-06
6.84144e-06
-3.33336e-06