/*--------------------------------*- C++ -*----------------------------------*\
  =========                 |
  \\      /  F ield         | OpenFOAM: The Open Source CFD Toolbox
   \\    /   O peration     | Website:  https://openfoam.org
    \\  /    A nd           | Version:  9
     \\/     M anipulation  |
\*---------------------------------------------------------------------------*/
FoamFile
{
    format      ascii;
    class       volScalarField;
    location    "4.4";
    object      nut;
}
// * * * * * * * * * * * * * * * * * * * * * * * * * * * * * * * * * * * * * //

dimensions      [0 2 -1 0 0 0 0];

internalField   nonuniform List<scalar> 
2268
(
1.92726e-05
2.20581e-05
2.65053e-05
2.94195e-05
3.1546e-05
3.31832e-05
3.44822e-05
3.55331e-05
3.63974e-05
3.71207e-05
3.77356e-05
3.82667e-05
3.87335e-05
3.91404e-05
3.94586e-05
3.95706e-05
3.90754e-05
3.76914e-05
3.58227e-05
3.42209e-05
3.22674e-05
2.77957e-05
1.57057e-05
4.39094e-05
0.000173726
0.000234544
0.000271295
0.00029686
0.000315999
0.000330935
0.000342894
0.000352651
0.000360713
0.000367401
0.000372912
0.000377377
0.000380674
0.000382274
0.000380953
0.000373681
0.000345148
0.000316158
0.000305329
0.000291113
0.000225573
5.45731e-05
5.20843e-05
0.000286267
0.000423
0.000508877
0.000569027
0.000614068
0.000649183
0.000677254
0.000700079
0.000718837
0.000734272
0.000746851
0.000756852
0.000764014
0.000767139
0.000763442
0.00074668
0.000698472
0.000644829
0.000603168
0.000540608
0.000384225
6.58743e-05
5.80497e-05
0.000362547
0.00056555
0.000698887
0.00079406
0.000865984
0.000922356
0.000967574
0.0010044
0.00103466
0.0010595
0.00107963
0.0010954
0.00110638
0.00111074
0.00110443
0.00107907
0.00101983
0.000946712
0.000867865
0.000745484
0.000499634
7.52349e-05
6.27055e-05
0.000418818
0.000676971
0.000853038
0.000981154
0.00107901
0.00115621
0.0012184
0.00126919
0.00131094
0.00134517
0.00137277
0.00139413
0.00140867
0.00141403
0.0014052
0.001373
0.0013065
0.00121639
0.00110155
0.00092065
0.000592105
8.32685e-05
6.65469e-05
0.000462813
0.000766992
0.000980903
0.00113928
0.0012615
0.00135856
0.00143708
0.00150137
0.00155427
0.0015976
0.00163238
0.00165903
0.00167686
0.00168294
0.00167178
0.00163481
0.00156274
0.00145797
0.00131161
0.00107875
0.000675133
9.08506e-05
6.98648e-05
0.000498486
0.000841626
0.00108899
0.00127492
0.00141976
0.00153548
0.0016295
0.00170667
0.00177024
0.00182227
0.00186389
0.00189554
0.00191646
0.00192327
0.00191057
0.00187033
0.00179379
0.00167726
0.00150584
0.0012314
0.000760986
0.000100199
7.28636e-05
0.000528274
0.000904879
0.00118186
0.00139275
0.00155844
0.00169158
0.00180018
0.00188956
0.00196329
0.00202363
0.00207178
0.00210818
0.0021321
0.00214001
0.00212665
0.00208442
0.00200465
0.00187982
0.00169151
0.00139117
0.000871552
0.000117978
1.51216e-05
2.64536e-05
3.07362e-05
3.2568e-05
3.3368e-05
3.35786e-05
3.35703e-05
3.36295e-05
3.39904e-05
3.38288e-05
3.19959e-05
2.99721e-05
3.02865e-05
3.3023e-05
3.48762e-05
3.39123e-05
3.15545e-05
2.65646e-05
3.03014e-05
5.37837e-05
0.000222984
0.000288694
0.000317177
0.000325874
0.000327877
0.000328146
0.00033133
0.000332708
0.000326133
0.00030637
0.000269052
0.000259627
0.000305485
0.000307152
0.000286083
0.000240797
0.000157171
6.14101e-05
6.51821e-05
0.000386515
0.000546655
0.000618761
0.000647002
0.000656622
0.000659651
0.000663236
0.000662277
0.00064716
0.000608589
0.000557325
0.000548704
0.000594512
0.00058312
0.000527961
0.000427438
0.000270113
6.53617e-05
7.52517e-05
0.000509536
0.000759101
0.000878353
0.000930482
0.000950405
0.000956586
0.000958437
0.000952849
0.000930235
0.000882138
0.000828071
0.000813708
0.000833976
0.000797937
0.00070554
0.000554273
0.000338884
6.64433e-05
8.48582e-05
0.0006125
0.000939535
0.0011044
0.00118022
0.00121077
0.00121987
0.00121925
0.00120837
0.00117927
0.00112677
0.00107054
0.00104337
0.0010295
0.000962406
0.000832107
0.000634032
0.000369044
6.56266e-05
9.54329e-05
0.000703327
0.0011024
0.00130728
0.00140382
0.00144381
0.00145523
0.00145187
0.0014358
0.00140075
0.00134502
0.00128417
0.00124002
0.00119044
0.00108959
0.000921687
0.000678666
0.000363873
6.5248e-05
0.000108572
0.000795707
0.00125979
0.00149559
0.0016079
0.00165514
0.00166797
0.00166162
0.00164018
0.00159962
0.00153988
0.00147161
0.00140701
0.00132476
0.0011904
0.000985702
0.000703358
0.000355623
6.52504e-05
0.000129803
0.000913757
0.0014233
0.00167594
0.0017976
0.00184929
0.00186236
0.00185268
0.00182569
0.00177956
0.00171451
0.00163668
0.00155082
0.00143925
0.00127349
0.00103485
0.000720513
0.000357584
6.55537e-05
7.64193e-05
0.000567649
0.000988627
0.00130617
0.0015522
0.0017479
0.00190667
0.00203719
0.00214522
0.00223475
0.00230826
0.00236701
0.00241136
0.00244041
0.00245075
0.00243754
0.00239389
0.0023112
0.00217896
0.00197832
0.00167374
0.00121522
0.000602814
8.055e-05
0.00060913
0.00107823
0.00143975
0.00172401
0.00195275
0.00214024
0.00229586
0.00242564
0.00253388
0.00262334
0.00269524
0.00274982
0.00278597
0.00280109
0.00279111
0.00275032
0.00267138
0.00254532
0.00235935
0.00209613
0.00174073
0.0013071
8.40158e-05
0.000638886
0.00115404
0.0015526
0.00186754
0.00212258
0.0023336
0.00251075
0.0026596
0.00278463
0.00288886
0.00297343
0.00303831
0.0030828
0.00310487
0.00310123
0.00306765
0.00299903
0.00288983
0.00273388
0.00252714
0.00227505
0.00200488
8.81715e-05
0.000662022
0.00122386
0.00165279
0.00199173
0.00226733
0.0024975
0.00269392
0.00285985
0.00300004
0.00311809
0.00321476
0.00328993
0.00334359
0.0033742
0.00337879
0.00335471
0.00329965
0.00321153
0.00308853
0.00293378
0.00276085
0.00259574
9.4786e-05
0.000738396
0.00130894
0.00174713
0.00209698
0.00238832
0.00263559
0.00284836
0.00303115
0.00318703
0.00331919
0.00342794
0.00351241
0.00357496
0.00361399
0.00362621
0.00360968
0.00357033
0.00350481
0.00341277
0.0033003
0.00317845
0.00306934
9.64161e-05
0.000756624
0.00133897
0.00179006
0.00215248
0.00246499
0.00273562
0.00296926
0.00317244
0.0033443
0.00349038
0.00361051
0.00370427
0.00377444
0.00382093
0.00384102
0.0038351
0.00381169
0.00376255
0.00369078
0.00361013
0.00351654
0.0034269
9.58911e-05
0.000757846
0.00135941
0.00182304
0.00219924
0.00252859
0.00281866
0.00307203
0.00329079
0.00347905
0.00363842
0.0037689
0.0038709
0.00394742
0.00399966
0.00402592
0.00402934
0.00401878
0.00398456
0.00392883
0.00386415
0.00379147
0.00372784
9.35435e-05
0.000742412
0.00136817
0.00186588
0.0022707
0.00261631
0.00291716
0.00318015
0.00340942
0.00360761
0.00377574
0.00391321
0.00402088
0.00410188
0.00415833
0.00419104
0.00420091
0.00419696
0.00417538
0.00413649
0.00408557
0.00403263
0.00398925
9.21787e-05
0.000743547
0.00139269
0.00191953
0.00234952
0.00271004
0.0030211
0.00329165
0.0035272
0.00373076
0.00390322
0.00404477
0.00415673
0.00424158
0.00430195
0.00434085
0.00436035
0.00436563
0.00435569
0.00433069
0.00429437
0.00425351
0.00421555
9.19801e-05
0.000762306
0.0014345
0.00198375
0.0024292
0.00280209
0.00312172
0.00339831
0.0036382
0.00384496
0.00402024
0.00416508
0.00428096
0.00437033
0.00443649
0.0044828
0.00451204
0.00452719
0.00452794
0.0045138
0.00448794
0.00445562
0.00442289
9.30871e-05
0.000790962
0.00148522
0.00204709
0.00250526
0.00288891
0.00321614
0.00349796
0.00374141
0.00395084
0.00412858
0.00427646
0.00439656
0.00449159
0.00456472
0.00461912
0.00465746
0.00468167
0.00469172
0.00468733
0.00467066
0.004646
0.00461789
9.49066e-05
0.000823055
0.00153306
0.00210628
0.00257619
0.00296944
0.00330366
0.0035904
0.00383738
0.00404943
0.00422985
0.00438125
0.00450617
0.00460737
0.00468774
0.0047501
0.00479677
0.00482924
0.00484776
0.00485235
0.0048444
0.00482696
0.00480322
9.7208e-05
0.000844391
0.00157249
0.00215991
0.00264127
0.00304343
0.00338432
0.00367602
0.00392671
0.00414185
0.00432557
0.00448107
0.00461119
0.00471866
0.00480612
0.00487602
0.00493033
0.00497037
0.00499661
0.00500927
0.00500926
0.00499854
0.00497933
9.91594e-05
0.000860028
0.00160595
0.00220767
0.00270006
0.00311074
0.00345821
0.00375506
0.00400981
0.00422872
0.00441645
0.0045766
0.00471221
0.00482596
0.00492027
0.00499728
0.00505873
0.00510579
0.00513909
0.00515896
0.00516605
0.0051616
0.00514716
0.000100574
0.000872905
0.00163427
0.00224925
0.00275214
0.00317113
0.00352525
0.00382741
0.00408686
0.00431029
0.00450274
0.00466808
0.00480946
0.00492951
0.0050305
0.00511435
0.00518258
0.0052363
0.00527616
0.0053026
0.00531613
0.00531758
0.00530803
0.00010148
0.000883253
0.00165745
0.0022843
0.00279714
0.00322425
0.00358505
0.00389306
0.00415789
0.0043866
0.00458445
0.0047555
0.00490295
0.00502941
0.00513703
0.00522755
0.00530237
0.0053625
0.00540862
0.00544121
0.00546073
0.00546777
0.00546313
0.000101957
0.000890749
0.00167526
0.00231251
0.00283454
0.00326961
0.00363746
0.00395189
0.00422282
0.0044575
0.0046614
0.00483866
0.00499252
0.00512556
0.00523983
0.00533697
0.00541827
0.00548469
0.00553689
0.00557538
0.00560059
0.00561299
0.00561317
0.000102159
0.000894845
0.00168727
0.00233346
0.00286409
0.00330713
0.00368237
0.00400379
0.00428145
0.00452278
0.0047333
0.00491724
0.00507785
0.00521765
0.00533865
0.00544241
0.00553013
0.00560274
0.00566091
0.00570513
0.00573582
0.00575339
0.00575827
0.000102236
0.000895188
0.00169349
0.00234732
0.00288596
0.00333688
0.00371978
0.00404865
0.00433361
0.00458213
0.00479979
0.00499081
0.00515844
0.00530519
0.00543298
0.00554334
0.00563744
0.00571615
0.00578015
0.00582995
0.00586596
0.00588853
0.00589801
0.000102085
0.000892579
0.00169449
0.00235457
0.00290049
0.0033591
0.0037498
0.00408646
0.00437915
0.0046353
0.00486048
0.0050589
0.00523376
0.00538754
0.00552214
0.00563905
0.00573941
0.00582409
0.00589377
0.00594898
0.00599011
0.00601752
0.00603147
0.000101677
0.000887618
0.00169092
0.0023558
0.00290822
0.0033742
0.00377271
0.00411735
0.00441804
0.00468211
0.00491506
0.00512103
0.00530321
0.00546402
0.00560535
0.00572866
0.00583509
0.00592553
0.00600067
0.00606105
0.00610711
0.00613916
0.00615744
0.00010103
0.000880666
0.00168339
0.00235169
0.0029098
0.00338276
0.00378894
0.0041416
0.0044504
0.00472251
0.0049633
0.00517684
0.00536626
0.00553395
0.00568179
0.00581123
0.00592344
0.00601932
0.00609962
0.00616491
0.00621562
0.0062521
0.00627457
0.000100171
0.000872071
0.00167254
0.00234303
0.00290603
0.00338549
0.0037991
0.00415966
0.0044765
0.00475657
0.00500508
0.00522602
0.00542243
0.00559669
0.00575066
0.00588584
0.00600341
0.00610435
0.00618942
0.00625925
0.00631432
0.00635499
0.00638149
9.91224e-05
0.000862235
0.00165908
0.00233068
0.0028978
0.00338324
0.00380392
0.00417208
0.0044967
0.00478446
0.00504038
0.00526834
0.00547131
0.00565165
0.00581125
0.00595163
0.00607404
0.00617952
0.00626892
0.00634291
0.00640202
0.00644664
0.00647701
9.79036e-05
0.00085154
0.00164372
0.00231552
0.00288603
0.00337687
0.00380413
0.00417946
0.00451142
0.0048064
0.00506922
0.00530363
0.00551256
0.00569835
0.00586292
0.00600785
0.00613449
0.00624396
0.00633719
0.00641494
0.00647779
0.00652615
0.00656029
9.65333e-05
0.000840359
0.00162715
0.00229839
0.00287161
0.00336722
0.00380046
0.00418236
0.00452105
0.0048226
0.00509164
0.00533178
0.00554591
0.00573638
0.00590516
0.00605394
0.00618415
0.00629704
0.00639363
0.00647478
0.00654113
0.00659313
0.00663103
9.50212e-05
0.000829035
0.00160997
0.00228001
0.00285526
0.00335496
0.00379345
0.00418119
0.00452585
0.00483319
0.00510763
0.00535267
0.00557116
0.00576547
0.00593768
0.00608958
0.00622275
0.00633855
0.00643816
0.00652251
0.00659229
0.00664797
0.00668979
9.33489e-05
0.000817721
0.0015925
0.00226082
0.00283744
0.00334044
0.00378338
0.00417612
0.0045259
0.00483817
0.00511715
0.00536623
0.00558821
0.00578556
0.00596045
0.00611485
0.00625047
0.00636886
0.00647133
0.00655889
0.00663226
0.00669189
0.00673799
9.15082e-05
0.000806007
0.00157442
0.00224069
0.00281808
0.00332361
0.00377012
0.00416697
0.00452103
0.00483741
0.00512013
0.00537243
0.00559716
0.00579685
0.00597385
0.00613029
0.00626811
0.00638903
0.00649449
0.00658555
0.00666295
0.00672708
0.00677806
8.97085e-05
0.000791249
0.00155429
0.00221881
0.00279656
0.00330381
0.00375302
0.0041532
0.00451082
0.00483066
0.00511649
0.00537144
0.00559837
0.00579994
0.00597871
0.00613707
0.00627716
0.00640091
0.00650985
0.00660508
0.00668728
0.00675674
0.00681344
8.80472e-05
0.000775931
0.00153304
0.00219502
0.0027719
0.00327978
0.00373088
0.00413383
0.00449462
0.00481762
0.00510629
0.00536363
0.00559254
0.00579588
0.00597648
0.00613701
0.00627988
0.00640719
0.00652054
0.006621
0.00670912
0.00678503
0.0068485
8.64926e-05
0.000762035
0.00151159
0.00216884
0.00274299
0.00325021
0.00370252
0.00410799
0.00447199
0.0047983
0.00508995
0.00534983
0.00558091
0.00578632
0.00596923
0.00613267
0.00627932
0.00641141
0.00653057
0.00663775
0.00673327
0.00681699
0.00688841
8.50741e-05
0.000749457
0.00148878
0.00213801
0.00270712
0.00321258
0.00366597
0.00407448
0.00444247
0.00477289
0.00506827
0.00533135
0.00556525
0.00577348
0.00595967
0.00612726
0.00627921
0.00641784
0.0065447
0.00666049
0.0067652
0.00685826
0.00693885
8.38007e-05
0.000736486
0.00146125
0.00209841
0.00266025
0.00316356
0.00361894
0.00403206
0.00440579
0.00474193
0.00504241
0.00530986
0.0055477
0.00575996
0.00595087
0.00612436
0.00628367
0.00643114
0.00656809
0.00669484
0.00681081
0.00691487
0.00700573
8.26445e-05
0.000720566
0.00142402
0.00204439
0.00259736
0.00309944
0.00355921
0.00397985
0.00436211
0.00470636
0.00501387
0.00528728
0.00553053
0.0057484
0.00594588
0.00612749
0.00629678
0.00645598
0.00660605
0.00674661
0.00687622
0.00699296
0.00709499
8.15409e-05
0.000698338
0.00137073
0.00196928
0.00251318
0.00301689
0.00348523
0.0039177
0.00431223
0.00466756
0.00498436
0.00526555
0.00551587
0.00574113
0.00594729
0.00613963
0.00632207
0.00649666
0.00666367
0.00682161
0.0069677
0.00709877
0.00721242
8.03943e-05
0.000665053
0.00129355
0.00186605
0.00240312
0.00291384
0.00339685
0.00384662
0.00425775
0.00462731
0.00495567
0.00524636
0.0055053
0.00573966
0.00595668
0.00616264
0.00636197
0.00655657
0.00674565
0.0069258
0.00709186
0.00723878
0.00736369
7.91427e-05
0.000612487
0.00118211
0.00172776
0.00226442
0.00279061
0.00329606
0.00376918
0.00420116
0.00458771
0.00492939
0.00523082
0.0054995
0.0057443
0.00597409
0.00619653
0.00641706
0.00663776
0.00685635
0.00706591
0.00725654
0.00742023
0.00755453
7.89658e-05
0.000521551
0.00102096
0.00154808
0.00209756
0.00265112
0.00318776
0.00368985
0.00414587
0.00455106
0.00490681
0.00521936
0.00549809
0.00575388
0.00599758
0.0062389
0.00648525
0.0067401
0.00699995
0.00725131
0.00747261
0.00765199
0.00779072
9.89672e-05
0.000359351
0.000791786
0.00132457
0.00190918
0.00250501
0.00308087
0.00361537
0.00409632
0.00451981
0.00488886
0.00521167
0.00549966
0.00576579
0.00602315
0.00628423
0.00656026
0.00685928
0.00718011
0.00749898
0.00775755
0.00794537
0.00807764
0.000197144
0.000194325
0.000513494
0.00107351
0.0017199
0.00237119
0.00298954
0.00355498
0.00405784
0.00449653
0.00487622
0.00520704
0.00550222
0.00577652
0.00604515
0.00632383
0.00662964
0.00698152
0.00739499
0.00784899
0.00814124
0.00831319
0.00841793
0.00041336
0.000161503
0.000305129
0.000867054
0.00158056
0.00228279
0.00293356
0.00351975
0.00403614
0.00448377
0.00486951
0.00520477
0.00550392
0.00578276
0.00605785
0.0063473
0.00667388
0.00707243
0.00760772
0.00842132
0.00866933
0.00876185
0.00880597
0.000128565
0.00011886
0.000120187
0.000129659
0.000992649
0.000939494
0.000936964
0.000990738
0.00185032
0.00180325
0.00180362
0.00185249
0.00251211
0.00248173
0.00247713
0.00249884
0.00301864
0.00299692
0.00298548
0.00298383
0.00340491
0.00338933
0.00337507
0.00336227
0.00371077
0.00369826
0.0036857
0.00366965
0.00396655
0.00395229
0.00393842
0.00392267
0.00419236
0.00417752
0.00416257
0.00414824
0.00440011
0.00438522
0.00437036
0.00435644
0.00459577
0.0045811
0.00456613
0.00455133
0.00478217
0.00476777
0.00475264
0.00473701
0.00495999
0.00494627
0.00493136
0.00491539
0.00513014
0.00511751
0.00510326
0.00508748
0.00529372
0.00528249
0.00526926
0.0052541
0.00545172
0.00544207
0.00543011
0.0054159
0.00560474
0.00559678
0.00558626
0.00557321
0.00575285
0.00574663
0.00573766
0.00572595
0.00589557
0.00589114
0.00588378
0.00587352
0.006032
0.00602935
0.00602367
0.00601493
0.00616091
0.00616005
0.00615606
0.00614892
0.00628091
0.00628184
0.00627956
0.00627405
0.00639065
0.00639334
0.00639278
0.00638896
0.00648894
0.0064934
0.00649459
0.00649247
0.00657499
0.00658124
0.00658421
0.00658388
0.00664857
0.00665667
0.00666151
0.00666307
0.00671035
0.00672043
0.00672729
0.0067309
0.00676188
0.00677416
0.00678327
0.00678916
0.00680574
0.00682052
0.00683217
0.00684064
0.00684551
0.00686316
0.0068777
0.0068891
0.00688565
0.00690658
0.00692441
0.00693909
0.00693134
0.00695596
0.00697744
0.00699571
0.0069882
0.00701684
0.00704222
0.0070643
0.00706196
0.0070948
0.0071242
0.00715009
0.00715822
0.00719522
0.00722845
0.00725792
0.00728226
0.00732301
0.00735956
0.00739197
0.00743899
0.00748255
0.00752137
0.00755563
0.00763287
0.00767755
0.00771691
0.00775131
0.00786776
0.00791082
0.00794808
0.00798018
0.00814621
0.0081835
0.00821505
0.00824173
0.00846755
0.00849364
0.00851515
0.00853296
0.00882457
0.00883399
0.00884157
0.00884773
0.00062959
0.00126769
0.00170645
0.00195332
0.00207875
0.0021329
0.0021445
0.00212903
0.00209307
0.00203722
0.00196106
0.00186508
0.00174652
0.00159188
0.00138102
0.00109727
0.000745996
0.000378383
6.65566e-05
0.00134378
0.00179025
0.00211456
0.00231441
0.00242169
0.00246742
0.0024717
0.00244684
0.00239882
0.00232855
0.00223408
0.00211373
0.00196222
0.00176872
0.00151778
0.0011941
0.00080461
0.000411963
6.95722e-05
0.00202307
0.00229262
0.00251029
0.00265543
0.00273588
0.00276767
0.00276121
0.00272523
0.0026644
0.00257816
0.00246633
0.00232622
0.00215251
0.00193702
0.00166657
0.00132165
0.000898439
0.000450898
7.79497e-05
0.00257668
0.00272846
0.00286686
0.00296573
0.00301963
0.00303749
0.00301854
0.00296948
0.00289437
0.0027938
0.00266754
0.00251302
0.0023261
0.00210156
0.00182961
0.00148437
0.0010439
0.00051948
8.86747e-05
0.00300493
0.00308721
0.00317459
0.00324013
0.00327191
0.00327968
0.00324625
0.00318183
0.00309352
0.00298137
0.00284442
0.00268035
0.00248703
0.00226214
0.00199694
0.0016674
0.00125364
0.000712192
9.95282e-05
0.00335306
0.00339227
0.00344143
0.00347653
0.00349428
0.00348722
0.00344241
0.00336624
0.00326616
0.00314235
0.0029937
0.00281813
0.00261289
0.00237395
0.00209093
0.00174964
0.00133571
0.000778669
0.000104169
0.0036498
0.0036632
0.00368487
0.00369738
0.00369551
0.00367202
0.00361511
0.0035281
0.00341679
0.00328155
0.00312034
0.00293026
0.00270805
0.0024494
0.00214424
0.00178609
0.00136326
0.000789379
0.000105482
0.00390394
0.00390382
0.00390641
0.00390135
0.00388134
0.00383878
0.00376727
0.00367089
0.00354929
0.00340285
0.00322814
0.00302145
0.00278058
0.00250177
0.00217925
0.00180723
0.00136918
0.000781936
0.000101868
0.00413033
0.00412004
0.00410767
0.00408558
0.0040468
0.00398628
0.00390314
0.00379798
0.00366799
0.00351054
0.00332094
0.00309624
0.00283529
0.00253608
0.00219545
0.00180768
0.00135108
0.000760292
9.51151e-05
0.00433598
0.00431506
0.00428994
0.00425337
0.00419991
0.00412681
0.00403349
0.00391905
0.00377994
0.00360994
0.00340387
0.00315967
0.00287666
0.00255488
0.00219226
0.00178305
0.00131026
0.000726711
8.95509e-05
0.00452742
0.00449663
0.0044606
0.00441291
0.00434895
0.00426622
0.00416345
0.00403926
0.00388944
0.00370547
0.00348246
0.00321841
0.00291282
0.00256617
0.0021764
0.00173953
0.00124548
0.000670467
8.37463e-05
0.0047104
0.00467159
0.00462645
0.00456983
0.00449744
0.00440636
0.00429472
0.00416059
0.00399896
0.00380122
0.00356258
0.00328109
0.00295524
0.00258325
0.00216299
0.00169213
0.00116663
0.000588869
7.963e-05
0.00488719
0.00484272
0.0047904
0.00472635
0.0046466
0.00454789
0.00442794
0.00428418
0.00411118
0.00390136
0.00365023
0.003355
0.00301209
0.00261739
0.00216828
0.00166403
0.00110774
0.000529601
8.00484e-05
0.00505877
0.00501076
0.00495314
0.004883
0.00479681
0.00469131
0.00456386
0.00441149
0.00422901
0.00400978
0.00374957
0.00344413
0.00308815
0.0026766
0.00220672
0.00167904
0.001103
0.000524644
8.40138e-05
0.00522573
0.00517586
0.00511465
0.00503979
0.0049483
0.00483709
0.00470337
0.00454397
0.00435418
0.00412823
0.00386169
0.00354948
0.00318569
0.00276537
0.00228594
0.00174729
0.00115815
0.000559766
8.92713e-05
0.00538851
0.00533811
0.00527476
0.00519657
0.00510106
0.00498542
0.00484686
0.00468216
0.00448709
0.00425658
0.00398601
0.00367014
0.00330338
0.00288101
0.00240001
0.00185888
0.00126044
0.000626815
9.48112e-05
0.0055473
0.0054974
0.00543313
0.00535293
0.00525469
0.0051359
0.00499387
0.00482548
0.00462684
0.00439345
0.00412064
0.00380336
0.00343633
0.00301481
0.00253489
0.00199269
0.00138427
0.00071218
0.000100107
0.00570187
0.00565327
0.00558912
0.00550808
0.0054083
0.00528756
0.00514329
0.00497251
0.00477164
0.00453652
0.00426255
0.0039448
0.00357801
0.00315691
0.00267597
0.00212807
0.0015033
0.000790352
0.000105069
0.00585155
0.0058049
0.00574172
0.00566082
0.00556056
0.0054389
0.00529344
0.00512132
0.00491914
0.00468297
0.00440819
0.00408982
0.00372224
0.00329911
0.00281269
0.00225121
0.00159966
0.000844197
0.000109444
0.00599529
0.00595109
0.00588958
0.00580965
0.00570979
0.00558812
0.00544232
0.00526965
0.00506679
0.00482986
0.00455414
0.00423443
0.00386444
0.00343632
0.00294028
0.00236262
0.00168432
0.00088682
0.000112099
0.00613176
0.00609041
0.00603113
0.00595285
0.00585416
0.00573323
0.00558782
0.00541522
0.00521212
0.00497453
0.00469759
0.00437571
0.00400189
0.00356721
0.00306008
0.00246465
0.00175929
0.000923376
0.000113407
0.00625949
0.00622133
0.00616475
0.00608872
0.00599183
0.00587231
0.00572792
0.00555592
0.00535294
0.00511485
0.00483673
0.00451239
0.00413405
0.00369176
0.00317247
0.00255864
0.00182695
0.000956099
0.000114192
0.00637711
0.00634242
0.00628895
0.00621567
0.00612118
0.00600367
0.00586089
0.00569002
0.00548769
0.0052496
0.00497046
0.00464361
0.00426054
0.00381031
0.00327858
0.00264636
0.00188917
0.000985901
0.000114897
0.00648345
0.00645251
0.00640256
0.00633253
0.00624098
0.00612608
0.00598552
0.0058165
0.00561545
0.00537787
0.00509814
0.00476912
0.00438162
0.00392374
0.00337992
0.00272974
0.00194746
0.00101253
0.00011577
0.00657782
0.00655095
0.00650494
0.00643866
0.00635062
0.00623897
0.00610139
0.00593492
0.00573584
0.00549943
0.00521977
0.00488923
0.004498
0.00403328
0.00347827
0.0028109
0.00200329
0.00103202
0.000117341
0.00666019
0.00663779
0.00659618
0.00653419
0.00645033
0.00634268
0.0062088
0.00604563
0.00584928
0.00561482
0.00533602
0.00500483
0.00461085
0.00414042
0.00357556
0.00289252
0.00206128
0.00105728
0.000119793
0.00673151
0.00671404
0.00667739
0.00662035
0.00654135
0.00643841
0.00630898
0.00614988
0.00595706
0.00572538
0.0054483
0.0051174
0.00472171
0.00424682
0.00367364
0.00297693
0.00212536
0.00109732
0.000123055
0.00679365
0.00678173
0.00675069
0.00669926
0.00662582
0.0065283
0.00640408
0.00624984
0.00606137
0.00583331
0.00555881
0.00522908
0.00483264
0.00435436
0.00377406
0.00306493
0.00219351
0.00113728
0.000127146
0.00684951
0.00684383
0.00681908
0.00677393
0.00670673
0.00661536
0.00649711
0.00634854
0.00616525
0.00594164
0.00567055
0.00534278
0.00494634
0.00446539
0.00387868
0.00315761
0.00226579
0.00117706
0.000131596
0.00690291
0.00690418
0.00688636
0.00684814
0.00678784
0.00670331
0.00659179
0.00644971
0.00627246
0.00605417
0.00578731
0.00546221
0.00506631
0.00458304
0.00399008
0.00325701
0.00234423
0.00122089
0.000136262
0.00695839
0.00696724
0.00695693
0.00692618
0.00687335
0.00679632
0.00669227
0.00655752
0.00638725
0.00617525
0.00591352
0.00559182
0.0051969
0.00471133
0.00411168
0.00336581
0.00243085
0.00127026
0.000141275
0.00702095
0.00703786
0.00703542
0.00701249
0.00696757
0.00689859
0.00680275
0.00667624
0.00651402
0.00630947
0.00605403
0.00573669
0.00534325
0.00485523
0.00424794
0.00348752
0.00252793
0.00132627
0.000146841
0.00709573
0.00712083
0.00712634
0.00711134
0.00707455
0.00701405
0.0069271
0.00680981
0.00665691
0.00646132
0.00621377
0.00590223
0.00551123
0.00502075
0.00440449
0.00362675
0.00263858
0.00139055
0.000153019
0.00718764
0.00722063
0.00723373
0.00722642
0.00719771
0.00714596
0.00706853
0.00696152
0.00681945
0.00663476
0.00639735
0.00609391
0.00570716
0.0052149
0.00458842
0.0037897
0.00276711
0.00146551
0.000159742
0.00730106
0.00734103
0.00736086
0.00736056
0.0073396
0.00729664
0.00722927
0.00713367
0.00700419
0.00683286
0.00660867
0.0063168
0.00593762
0.00544571
0.0048086
0.00398465
0.00291937
0.00155336
0.000167577
0.00743957
0.00748488
0.00751001
0.00751562
0.00750171
0.00746736
0.00741045
0.00732734
0.00721239
0.00705736
0.00685044
0.00657517
0.00620906
0.00572223
0.00507626
0.00422316
0.00310396
0.00165705
0.000177515
0.0076058
0.00765403
0.00768241
0.00769239
0.00768451
0.0076583
0.00761202
0.00754236
0.00744392
0.00730845
0.0071237
0.00687179
0.00652718
0.00605428
0.00540569
0.00452209
0.0033352
0.00178335
0.000190021
0.00780128
0.00784918
0.00787825
0.00789067
0.0078875
0.00786868
0.00783292
0.00777738
0.00769717
0.00758451
0.00742735
0.00720718
0.00689592
0.00645179
0.00581504
0.00490683
0.00363788
0.00194422
0.000205816
0.00802626
0.00806986
0.0080967
0.00810943
0.00810944
0.00809702
0.00807129
0.00803003
0.00796919
0.00788204
0.00775769
0.00757847
0.0073157
0.00692281
0.00632605
0.00541638
0.00405864
0.00216503
0.000226886
0.00827944
0.00831446
0.0083361
0.00834703
0.00834865
0.00834141
0.00832482
0.00829735
0.00825607
0.00819587
0.00810819
0.00797833
0.00778062
0.00746905
0.0069605
0.00610927
0.00469269
0.00251987
0.00025471
0.00855773
0.00858027
0.0085942
0.00860152
0.0086033
0.00859992
0.0085912
0.00857628
0.00855347
0.00851976
0.00846984
0.00839424
0.00827522
0.00807751
0.0077269
0.00706068
0.00573458
0.0032293
0.000293082
0.00885617
0.00886376
0.00886846
0.00887101
0.0088718
0.00887099
0.00886853
0.0088642
0.00885749
0.00884747
0.00883252
0.00880962
0.00877286
0.00870944
0.00858773
0.00831522
0.00757061
0.00519213
0.000344224
)
;

boundaryField
{
    leftWall
    {
        type            nutkWallFunction;
        Cmu             0.09;
        kappa           0.41;
        E               9.8;
        value           nonuniform List<scalar> 
50
(
3.57445e-06
5.32337e-06
6.32113e-06
7.03769e-06
7.59106e-06
8.04412e-06
8.43313e-06
8.78334e-06
9.19577e-06
9.6723e-06
1.00851e-05
9.13245e-06
1.00778e-05
1.0171e-05
8.65014e-06
3.88392e-06
3.65443e-06
3.61309e-06
3.7859e-06
4.07586e-06
4.44388e-06
4.75621e-06
4.98271e-06
5.12734e-06
5.20332e-06
5.23555e-06
5.24756e-06
5.22301e-06
5.15624e-06
5.05221e-06
4.91551e-06
4.7484e-06
4.55393e-06
4.33489e-06
4.0926e-06
3.82392e-06
3.52749e-06
3.23753e-06
2.96897e-06
2.71714e-06
2.48712e-06
2.28065e-06
2.09352e-06
1.91554e-06
1.73157e-06
1.53226e-06
1.51003e-06
4.7104e-06
1.94046e-05
4.87579e-05
)
;
    }
    rightWall
    {
        type            nutkWallFunction;
        Cmu             0.09;
        kappa           0.41;
        E               9.8;
        value           nonuniform List<scalar> 
50
(
6.14634e-06
7.42164e-06
7.88969e-06
8.019e-06
7.92636e-06
7.88746e-06
7.8919e-06
7.93003e-06
8.04769e-06
8.39513e-06
9.38014e-06
6.09022e-06
8.70454e-06
1.04395e-05
9.07507e-06
5.21247e-06
4.13581e-06
3.23788e-06
2.30301e-06
1.78377e-06
1.85806e-06
2.413e-06
3.33696e-06
4.22933e-06
5.06641e-06
5.84462e-06
6.47852e-06
6.78366e-06
6.99e-06
7.11173e-06
7.21985e-06
7.35278e-06
7.59692e-06
8.07186e-06
8.5919e-06
9.21414e-06
9.88929e-06
1.05745e-05
1.13181e-05
1.21508e-05
1.30468e-05
1.39753e-05
1.51377e-05
1.66154e-05
1.84243e-05
2.06849e-05
2.36639e-05
2.75459e-05
3.2809e-05
3.96762e-05
)
;
    }
    lowerWall
    {
        type            nutkWallFunction;
        Cmu             0.09;
        kappa           0.41;
        E               9.8;
        value           nonuniform List<scalar> 
62
(
1.43984e-06
2.5248e-06
3.11445e-06
3.49413e-06
3.76825e-06
3.97774e-06
4.14306e-06
4.27624e-06
4.38542e-06
4.47656e-06
4.55391e-06
4.62067e-06
4.67931e-06
4.73035e-06
4.77018e-06
4.78413e-06
4.72205e-06
4.54933e-06
4.31487e-06
4.11258e-06
3.86255e-06
3.28372e-06
1.65411e-06
1.65411e-06
6.6196e-06
7.96197e-06
9.05268e-06
9.97609e-06
1.08397e-05
1.18951e-05
1.38728e-05
1.5031e-05
1.39861e-05
1.41419e-05
1.51815e-05
1.57266e-06
6.52138e-06
7.87201e-06
9.04574e-06
1.01534e-05
1.13579e-05
1.28322e-05
1.51661e-05
1.57266e-06
3.10425e-06
3.66151e-06
3.89731e-06
3.99959e-06
4.0268e-06
4.02611e-06
4.03324e-06
4.07831e-06
4.05805e-06
3.8242e-06
3.5644e-06
3.60322e-06
3.95231e-06
4.19009e-06
4.06804e-06
3.76705e-06
3.11752e-06
2.4556e-06
)
;
    }
    atmosphere
    {
        type            calculated;
        value           nonuniform List<scalar> 
46
(
0.009
0.000161503
0.000305129
0.000867054
0.00158056
0.00228279
0.00293356
0.00351975
0.00403614
0.00448377
0.00486951
0.00520477
0.00550392
0.00578276
0.00605785
0.0063473
0.00667388
0.00707243
0.00760772
0.009
0.009
0.009
0.009
0.009
0.009
0.009
0.009
0.009
0.009
0.009
0.009
0.009
0.009
0.009
0.009
0.009
0.009
0.009
0.009
0.009
0.009
0.009
0.009
0.009
0.009
0.000344224
)
;
    }
    defaultFaces
    {
        type            empty;
    }
}


// ************************************************************************* //
