/*--------------------------------*- C++ -*----------------------------------*\
  =========                 |
  \\      /  F ield         | OpenFOAM: The Open Source CFD Toolbox
   \\    /   O peration     | Website:  https://openfoam.org
    \\  /    A nd           | Version:  9
     \\/     M anipulation  |
\*---------------------------------------------------------------------------*/
FoamFile
{
    format      ascii;
    class       volScalarField;
    location    "9.2";
    object      k;
}
// * * * * * * * * * * * * * * * * * * * * * * * * * * * * * * * * * * * * * //

dimensions      [0 2 -2 0 0 0 0];

internalField   nonuniform List<scalar> 
2268
(
8.86345e-05
0.0002293
0.00033893
0.000425039
0.000495824
0.000555008
0.000604647
0.000646175
0.000680925
0.000710247
0.000736129
0.000759194
0.000779127
0.000793373
0.000796286
0.000779208
0.000736366
0.000682087
0.000610334
0.00053299
0.000450686
0.000321786
0.000149612
0.000195336
0.000530462
0.000755765
0.000935053
0.00108325
0.00120752
0.00131208
0.00140003
0.00147414
0.00153696
0.00159076
0.00163734
0.00167582
0.00170202
0.00170741
0.00168028
0.00161292
0.00151102
0.00137268
0.00121505
0.00104135
0.00075746
0.000338412
0.000280372
0.000709867
0.000987008
0.0012076
0.00139051
0.00154407
0.00167338
0.00178233
0.00187434
0.00195245
0.00201909
0.00207602
0.00212205
0.00215254
0.00215888
0.00213009
0.00205952
0.00195154
0.00180693
0.0016305
0.0014104
0.00106076
0.000481487
0.000353174
0.000854331
0.00116607
0.00141287
0.00161774
0.00178984
0.0019348
0.00205707
0.0021605
0.00224844
0.00232336
0.00238691
0.00243774
0.00247125
0.0024794
0.00245254
0.00238497
0.00228035
0.00214115
0.00196398
0.00172641
0.0013439
0.000625925
0.000416972
0.000982488
0.00132289
0.00158997
0.00181132
0.00199707
0.00215342
0.00228529
0.00239698
0.00249208
0.00257312
0.00264157
0.00269618
0.00273255
0.00274348
0.00272078
0.00265946
0.00256251
0.00243365
0.00226539
0.00202907
0.00163456
0.000785917
0.000474735
0.0011008
0.00146767
0.00175242
0.00198739
0.00218399
0.00234909
0.00248823
0.00260615
0.0027067
0.00279255
0.00286487
0.0029228
0.00296219
0.0029768
0.0029599
0.00290733
0.00282097
0.00270534
0.00255234
0.00233208
0.00194982
0.000989393
0.000528582
0.00121269
0.0016054
0.00190665
0.00215355
0.00235908
0.00253103
0.00267567
0.00279829
0.00290303
0.00299266
0.00306829
0.00312931
0.00317199
0.00319105
0.00318119
0.00313945
0.00306642
0.00296589
0.00283263
0.00264034
0.00230037
0.00130174
0.000579969
0.00132059
0.00173925
0.00205652
0.00231412
0.002527
0.00270416
0.00285281
0.00297885
0.00308677
0.00317943
0.00325798
0.00332209
0.0033684
0.00339256
0.0033906
0.00336106
0.00330372
0.00322019
0.00310843
0.00295144
0.0026833
0.00187878
0.000213216
0.000467442
0.000654708
0.000734788
0.000770367
0.000787471
0.000783741
0.000770543
0.000741406
0.000703658
0.000645415
0.000562088
0.000505453
0.000497383
0.000460294
0.000391322
0.000292931
0.000193415
0.000104803
0.000417058
0.00100135
0.0013607
0.00152997
0.00161084
0.00164724
0.00164999
0.00162456
0.00157024
0.00149829
0.00138423
0.00123058
0.00113628
0.00110552
0.00102027
0.000873327
0.000666639
0.000440402
0.000213973
0.000517217
0.00129218
0.00171475
0.00192543
0.00202977
0.00207625
0.00208203
0.00205237
0.0019893
0.00190208
0.00177905
0.00162442
0.00150894
0.0014359
0.00132032
0.00114448
0.000898859
0.000616856
0.000303698
0.000585633
0.00151848
0.00198123
0.00221546
0.00233162
0.00238244
0.00238875
0.00235635
0.00228851
0.00219447
0.00206962
0.00192043
0.00179253
0.00168762
0.00154871
0.00135638
0.00109411
0.000783618
0.000386858
0.000675971
0.00172853
0.0022242
0.0024673
0.00258615
0.0026368
0.00264171
0.00260705
0.00253639
0.0024393
0.00231532
0.00217114
0.00203435
0.00190581
0.00174716
0.00154221
0.00127323
0.000946905
0.000465932
0.000813675
0.00196844
0.00246884
0.00270383
0.0028171
0.00286374
0.00286571
0.00282901
0.0027568
0.00265864
0.00253662
0.00239594
0.002252
0.00210551
0.00193039
0.00171404
0.00143885
0.00110404
0.000546219
0.0010934
0.00227051
0.00272481
0.00293406
0.0030347
0.00307427
0.00307206
0.0030334
0.00296063
0.00286266
0.0027429
0.00260426
0.00245424
0.00229351
0.00210494
0.00187808
0.00159408
0.00124818
0.000633027
0.00173074
0.00263892
0.00299018
0.00316057
0.00324368
0.00327402
0.00326676
0.00322612
0.00315361
0.00305681
0.00293917
0.00280131
0.00264599
0.0024735
0.00227367
0.00203619
0.00174145
0.00137987
0.000713365
0.000657056
0.00148634
0.00194633
0.00228823
0.00256067
0.00278257
0.00296541
0.00311813
0.00324778
0.00335939
0.00345594
0.00353851
0.00360691
0.00365867
0.00369096
0.00370194
0.00369245
0.00366233
0.00360841
0.00353001
0.00342117
0.00325058
0.00291027
0.000756034
0.0017071
0.00222728
0.00260299
0.0028893
0.00311583
0.00329951
0.0034525
0.00358357
0.0036984
0.00380021
0.00388998
0.00396683
0.00402913
0.00407546
0.00410562
0.00412109
0.00412298
0.00410619
0.00406669
0.00400538
0.00392317
0.00381423
0.000880861
0.00194529
0.0025351
0.00294649
0.00322662
0.00344241
0.00361716
0.00376515
0.00389486
0.00401222
0.00412101
0.00422166
0.00431169
0.00438848
0.0044516
0.00450181
0.00454007
0.00456642
0.00457324
0.00456132
0.00453381
0.00450156
0.00447954
0.00105899
0.00219362
0.00289405
0.00335753
0.00357015
0.00376228
0.0039173
0.00405496
0.00418082
0.00430035
0.00441922
0.00453679
0.00464524
0.00474042
0.00482297
0.00489475
0.00495401
0.00499839
0.0050121
0.00501736
0.00501328
0.00500646
0.00502683
0.00120382
0.00244585
0.00322879
0.00362233
0.00378276
0.00400788
0.00417635
0.00430379
0.00442833
0.00455643
0.00468727
0.00482106
0.00494401
0.00504443
0.00512678
0.00518872
0.00523713
0.00528832
0.00534194
0.00538207
0.00539387
0.00541875
0.00549901
0.00160738
0.00259161
0.00321006
0.00360726
0.00387308
0.00416624
0.00435869
0.00449939
0.00462994
0.00476335
0.00490152
0.00504461
0.00518501
0.00529041
0.00536201
0.00542533
0.0055049
0.0055757
0.00563499
0.00571301
0.00575062
0.0057583
0.00581326
0.00202356
0.00269217
0.00322325
0.00363893
0.00393964
0.00422192
0.00443217
0.00460794
0.00477097
0.00492811
0.00508154
0.00523191
0.00537129
0.0054823
0.00556503
0.00563957
0.00571857
0.00579435
0.0058553
0.00592514
0.00598756
0.00602063
0.00606899
0.00219448
0.00275489
0.00323798
0.00364625
0.00397439
0.00425534
0.00449473
0.00470393
0.00489415
0.00507286
0.00524339
0.00540495
0.00554821
0.0056653
0.00576016
0.00584205
0.00592053
0.00599846
0.00606876
0.00613758
0.00620198
0.00624373
0.006272
0.00227925
0.00280401
0.00326861
0.0036716
0.00401481
0.00431097
0.00457026
0.00480148
0.00501257
0.00520959
0.00539662
0.00557221
0.00572604
0.00585013
0.00595169
0.00603979
0.0061206
0.00619798
0.00627074
0.00634059
0.00640512
0.00645312
0.00648242
0.00232967
0.00284581
0.00330771
0.00371069
0.00406339
0.00437378
0.00464995
0.00489922
0.00512759
0.00534022
0.00554097
0.00572816
0.0058919
0.00602618
0.00613812
0.00623614
0.00632381
0.00640423
0.00647943
0.00655034
0.00661537
0.00666886
0.00670655
0.00236125
0.00288178
0.00334804
0.00375606
0.00411748
0.00444016
0.00473081
0.00499551
0.00523893
0.00546534
0.0056775
0.00587389
0.00604802
0.00619568
0.0063216
0.00643254
0.00653105
0.00661906
0.00669945
0.006774
0.00684226
0.00690171
0.00694879
0.00238127
0.0029125
0.0033881
0.00380443
0.00417529
0.00450936
0.00481293
0.00509125
0.00534835
0.00558744
0.00581016
0.00601588
0.00620142
0.00636414
0.00650608
0.00663167
0.00674332
0.00684243
0.00693175
0.00701373
0.00708878
0.0071555
0.00721115
0.00239403
0.00294003
0.00342841
0.00385527
0.00423637
0.00458161
0.0048973
0.00518826
0.00545822
0.00570933
0.00594302
0.00615949
0.00635745
0.00653581
0.00669471
0.00683628
0.00696273
0.00707541
0.00717696
0.00726986
0.00735477
0.00743058
0.00749492
0.00240119
0.00296606
0.0034702
0.00390915
0.00430119
0.00465767
0.0049852
0.00528837
0.00557078
0.00583396
0.00607957
0.00630834
0.00651993
0.00671393
0.00689013
0.00704902
0.00719199
0.00732051
0.00743701
0.00754363
0.00764094
0.00772784
0.00780222
0.0024032
0.00299219
0.00351478
0.00396694
0.00437053
0.00473846
0.00507785
0.00539326
0.00568814
0.00596396
0.00622265
0.00646515
0.00669164
0.00690193
0.00709572
0.00727305
0.0074344
0.00758105
0.00771503
0.00783799
0.00795022
0.00805062
0.00813719
0.00240746
0.00302074
0.00356289
0.0040293
0.00444515
0.00482491
0.00517643
0.00550439
0.00581222
0.00610167
0.00637472
0.00663244
0.00687521
0.00710301
0.00731554
0.00751249
0.00769409
0.0078612
0.00801523
0.00815727
0.00828722
0.00840399
0.00850562
0.00240245
0.00305176
0.00361549
0.00409694
0.00452577
0.0049179
0.005282
0.00562314
0.00594486
0.00624916
0.00653803
0.00681258
0.00707331
0.00732024
0.00755313
0.00777163
0.00797567
0.00816569
0.00834249
0.00850651
0.00865734
0.00879374
0.00891371
0.00240288
0.00308577
0.00367265
0.00417034
0.00461296
0.00501818
0.00539561
0.00575086
0.00608774
0.00640836
0.00671472
0.00700797
0.00728865
0.00755685
0.00781234
0.00805474
0.00828379
0.00849952
0.00870207
0.00889129
0.00906644
0.00922603
0.00936795
0.00240835
0.0031228
0.00373489
0.00424995
0.00470725
0.00512651
0.00551834
0.00588894
0.0062424
0.00658105
0.00690682
0.00722094
0.00752398
0.00781604
0.00809689
0.00836609
0.0086232
0.00886781
0.0090995
0.00931753
0.00952081
0.00970752
0.00987535
0.00240525
0.00316388
0.00380275
0.0043361
0.00480912
0.00524359
0.00565113
0.00603856
0.00641029
0.00676893
0.00711636
0.00745385
0.00778203
0.00810099
0.00841047
0.00870993
0.00899867
0.0092759
0.00954066
0.00979166
0.0100274
0.0102456
0.0104437
0.00240276
0.00320911
0.00387611
0.004429
0.00491898
0.00537003
0.00579483
0.00620083
0.00659278
0.00697364
0.00734529
0.00770905
0.00806558
0.00841498
0.00875689
0.00909064
0.00941524
0.00972951
0.0100319
0.0103208
0.0105937
0.0108484
0.0110818
0.00240896
0.00325759
0.00395496
0.00452881
0.00503716
0.00550634
0.00595016
0.00637672
0.00679113
0.00719676
0.00759556
0.0079889
0.00837749
0.00876138
0.00914014
0.00951289
0.00987833
0.0102348
0.0105804
0.0109125
0.0112285
0.0115254
0.0117995
0.00240078
0.00331102
0.00403945
0.00463567
0.00516392
0.00565296
0.00611777
0.00656711
0.00700656
0.00743977
0.00786907
0.00829579
0.00872066
0.00914374
0.00956446
0.00998169
0.0103938
0.0107986
0.0111936
0.0115756
0.0119412
0.0122867
0.012608
0.00240073
0.00336743
0.00412952
0.00474964
0.00529943
0.00581019
0.00629813
0.00677275
0.00724011
0.0077042
0.00816766
0.00863206
0.00909808
0.00956572
0.0100343
0.0105024
0.010968
0.0114283
0.0118801
0.0123196
0.0127424
0.0131442
0.0135198
0.00240131
0.00342732
0.00422503
0.00487064
0.00544369
0.00597816
0.00649157
0.0069942
0.00749265
0.00799133
0.00849317
0.009
0.00951267
0.010031
0.0105543
0.0110806
0.0116076
0.0121318
0.0126492
0.0131549
0.0136438
0.0141104
0.0145488
0.00240125
0.00349091
0.00432572
0.00499835
0.00559646
0.00615678
0.00669818
0.0072318
0.00776485
0.00830221
0.00884719
0.00940187
0.00996727
0.0105433
0.011129
0.0117222
0.0123197
0.0129175
0.0135105
0.0140929
0.0146582
0.0151996
0.0157102
0.00240308
0.00355639
0.00443099
0.00513225
0.00575728
0.0063457
0.00691779
0.0074856
0.00805705
0.00863756
0.00923091
0.00983951
0.0104646
0.0111062
0.011763
0.0124327
0.0131115
0.0137941
0.0144746
0.0151456
0.0157993
0.0164273
0.0170213
0.00240943
0.00362662
0.00454021
0.00527153
0.00592538
0.00654423
0.00714984
0.00775526
0.00836916
0.00899763
0.00964501
0.0103142
0.0110066
0.0117226
0.0124606
0.0132179
0.01399
0.0147706
0.0155524
0.0163263
0.0170826
0.0178109
0.018501
0.00240582
0.00369691
0.0046522
0.00541509
0.00609968
0.00675135
0.00739341
0.00803996
0.00870055
0.00938206
0.0100895
0.0108264
0.0115946
0.0123946
0.013225
0.0140826
0.0149621
0.0158562
0.0167556
0.0176492
0.0185249
0.0193698
0.0201712
0.00241069
0.00376996
0.00476586
0.00556155
0.00627871
0.00696558
0.00764703
0.0083383
0.00904992
0.00978967
0.0105635
0.0113755
0.0122285
0.0131233
0.0140585
0.0150308
0.0160341
0.0170596
0.0180961
0.0191299
0.0201454
0.0211266
0.0220572
0.00240473
0.00384149
0.00487947
0.00570905
0.00646052
0.00718494
0.0079087
0.00864822
0.00941513
0.0102183
0.0110647
0.0119598
0.0129069
0.0139078
0.0149616
0.0160649
0.0172109
0.0183896
0.0195871
0.020786
0.0219666
0.023108
0.0241895
0.00241052
0.00391318
0.00499077
0.00585509
0.0066426
0.00740689
0.00817578
0.00896689
0.00979309
0.0106646
0.0115897
0.0125753
0.0136261
0.0147452
0.0159326
0.0171855
0.0184968
0.0198547
0.0212426
0.0226382
0.0240158
0.0253474
0.0266062
0.00241152
0.00397945
0.00509638
0.00599643
0.00682191
0.00762841
0.00844504
0.00929069
0.0101796
0.0111237
0.012133
0.0132162
0.0143802
0.0156299
0.0169673
0.0183909
0.0198939
0.0214635
0.0230789
0.0247118
0.0263273
0.0278874
0.0293558
0.00241081
0.00403672
0.00519179
0.00612921
0.00699496
0.00784606
0.00871274
0.00961521
0.0105694
0.0115893
0.0126871
0.0138741
0.0151601
0.0165529
0.0180578
0.019676
0.0214026
0.0232239
0.0251149
0.0270382
0.0289457
0.0307838
0.0325019
0.00241406
0.00407781
0.00527148
0.0062489
0.0071581
0.00805628
0.00897474
0.0099353
0.010956
0.0120533
0.0132424
0.0145377
0.0159531
0.0175009
0.0191915
0.0210313
0.0230193
0.0251425
0.0273713
0.0296559
0.0319281
0.0341097
0.0361278
0.00240242
0.0040963
0.00532853
0.00635104
0.00730796
0.00825571
0.00922675
0.0102451
0.0113317
0.012506
0.0137867
0.0151926
0.0167426
0.0184557
0.02035
0.0224404
0.0247336
0.0272208
0.0298682
0.03261
0.0353474
0.0379618
0.040343
0.00240691
0.00408116
0.00535651
0.0064324
0.00744244
0.00844164
0.00946446
0.0105383
0.0116877
0.0129357
0.0143056
0.015821
0.0175075
0.0193928
0.0215063
0.0238762
0.026523
0.0294478
0.0326173
0.0359468
0.0392925
0.0424666
0.0452918
0.00240764
0.00402312
0.00535045
0.00649231
0.00756152
0.00861233
0.00968355
0.0108077
0.0120138
0.0133295
0.0147823
0.016402
0.0182218
0.0202805
0.0226227
0.0252959
0.0283431
0.0317872
0.0356062
0.0397014
0.043867
0.047794
0.0511669
0.00240776
0.00391013
0.00530852
0.0065337
0.00766729
0.00876651
0.00987919
0.0110452
0.0122991
0.0136728
0.0151985
0.016912
0.018855
0.0210794
0.023648
0.0266346
0.0301161
0.0341553
0.0387677
0.0438657
0.0491791
0.0541867
0.0582348
0.00356831
0.00386643
0.00523456
0.00656025
0.00776148
0.00890138
0.0100447
0.0112413
0.0125313
0.0139504
0.015535
0.0173261
0.019374
0.0217435
0.0245179
0.0278018
0.0317174
0.0363922
0.041926
0.0483171
0.0553019
0.0620449
0.0668831
0.0171851
0.00529548
0.00515163
0.00656693
0.0078398
0.00900877
0.0101695
0.0113842
0.0126974
0.0141474
0.0157733
0.0176202
0.0197453
0.0222244
0.0251593
0.0286845
0.0329721
0.038234
0.0447144
0.052652
0.0621063
0.0721997
0.0776953
0.0839823
0.0136502
0.00526458
0.0065559
0.00788919
0.00907254
0.0102391
0.011461
0.0127851
0.0142506
0.0158978
0.017774
0.0199403
0.0224789
0.025503
0.0291666
0.033678
0.0393207
0.0464971
0.0558387
0.0684915
0.0868748
0.0914659
0.00206452
0.00179933
0.00179469
0.0020245
0.00369876
0.00364502
0.00363087
0.00365629
0.00446836
0.00445845
0.00444482
0.0044271
0.00506069
0.0050709
0.00505795
0.00501549
0.00559825
0.00561293
0.00554737
0.00546806
0.00588887
0.0059342
0.00587669
0.00579935
0.00612256
0.00612712
0.00609508
0.00604332
0.00629224
0.00629214
0.00627606
0.00624952
0.00649374
0.00649437
0.00648748
0.00647469
0.00672128
0.00672546
0.00672457
0.00671904
0.00697053
0.00697916
0.0069827
0.00698149
0.00724034
0.00725389
0.00726195
0.00726467
0.007531
0.00754941
0.00756232
0.00756951
0.00784536
0.00786844
0.00788622
0.00789835
0.00818874
0.00821721
0.00824049
0.00825822
0.00856759
0.00860267
0.00863251
0.00865681
0.00898844
0.00903153
0.00906925
0.00910131
0.009458
0.00951069
0.00955778
0.00959898
0.00998354
0.0100476
0.0101057
0.0101577
0.0105731
0.0106505
0.0107215
0.010786
0.011236
0.0113288
0.0114149
0.011494
0.0119824
0.0120931
0.0121967
0.0122926
0.012824
0.0129555
0.0130791
0.0131944
0.013774
0.0139292
0.0140759
0.0142135
0.0148468
0.0150293
0.0152024
0.0153655
0.0160586
0.0162725
0.0164758
0.016668
0.0174275
0.0176773
0.0179152
0.0181405
0.0189737
0.0192646
0.019542
0.0198049
0.0207202
0.0210583
0.0213807
0.0216865
0.0226942
0.0230863
0.0234601
0.0238145
0.024928
0.025382
0.0258143
0.0262235
0.0274619
0.0279868
0.0284853
0.0289562
0.030347
0.0309528
0.0315259
0.0320651
0.0336494
0.0343468
0.0350028
0.0356164
0.0374546
0.0382544
0.0390006
0.0396926
0.0418732
0.0427848
0.0436253
0.0443957
0.0470475
0.048076
0.0490086
0.0498494
0.0531608
0.0543006
0.0553097
0.056199
0.0604498
0.0616712
0.0627163
0.0636086
0.0692202
0.0704405
0.0714345
0.0722471
0.0798432
0.0808718
0.0816518
0.0822533
0.0926366
0.0931123
0.0934329
0.0936604
0.00283564
0.00319631
0.00339083
0.00350035
0.00355511
0.00357086
0.0035559
0.00351297
0.00344317
0.00334984
0.00323465
0.00309633
0.00293365
0.00274575
0.00252951
0.00227351
0.00196053
0.00156509
0.000800368
0.00373964
0.00383278
0.00389983
0.00394101
0.00395792
0.00395264
0.00392625
0.00387937
0.00381186
0.00372253
0.00360789
0.00346522
0.00329256
0.00308714
0.00284812
0.00256318
0.00221508
0.00175762
0.000862929
0.00439453
0.00437576
0.004367
0.00435819
0.00434362
0.00431939
0.00428139
0.00422869
0.00416107
0.00407461
0.00395932
0.00381114
0.00362995
0.00340861
0.00314607
0.0028333
0.00244874
0.00192944
0.000924544
0.00492629
0.00485466
0.00479848
0.0047532
0.00471353
0.00467327
0.00462302
0.00456243
0.00449286
0.00440923
0.0042908
0.00413559
0.00395092
0.00371243
0.00342446
0.00308531
0.00266672
0.00209663
0.00112956
0.00534168
0.00524382
0.00517696
0.00511919
0.00506586
0.00501446
0.00495165
0.00488134
0.00480525
0.00471235
0.00458399
0.00443498
0.00426025
0.00397576
0.00365765
0.00328552
0.00283268
0.00220287
0.00110146
0.00568399
0.00556749
0.00548925
0.00542722
0.00537557
0.00531841
0.00524387
0.00516242
0.00507871
0.0049796
0.00484498
0.00469382
0.00450869
0.00421796
0.00389901
0.00350518
0.00302136
0.00237212
0.00141038
0.00595511
0.00585585
0.00578042
0.00570821
0.00564366
0.00557368
0.00548426
0.00538676
0.00528737
0.00518014
0.00506378
0.00495381
0.00477404
0.00442021
0.00406352
0.00366895
0.0032001
0.00261817
0.00190219
0.00619792
0.00611919
0.00604581
0.00596944
0.00589318
0.00580962
0.00570987
0.00559847
0.00548105
0.00535803
0.00523019
0.0050924
0.00487907
0.00453598
0.00415758
0.00374896
0.00328289
0.00270711
0.00194868
0.00644602
0.00638429
0.00631129
0.00623241
0.00615029
0.0060567
0.0059452
0.00581763
0.00567968
0.00553103
0.00536795
0.00517475
0.00492051
0.00459779
0.00422258
0.00379582
0.00331095
0.00271606
0.00194876
0.00670252
0.00665382
0.00658338
0.00650402
0.00641825
0.00631555
0.00619056
0.00604611
0.00588642
0.00571047
0.0055105
0.00526913
0.00497344
0.00463896
0.0042565
0.00381472
0.00330653
0.00268888
0.00194636
0.00697165
0.00693162
0.0068664
0.00678772
0.00669749
0.00658631
0.00644979
0.00629066
0.0061106
0.00590771
0.00567472
0.0053967
0.00506489
0.00469539
0.00428503
0.00382043
0.00329115
0.00266155
0.00194728
0.00726035
0.00722639
0.00716666
0.00708847
0.0069934
0.00687551
0.00673064
0.00655933
0.00636159
0.00613511
0.00587394
0.00556699
0.00520524
0.00479696
0.00434791
0.0038511
0.00329809
0.00265408
0.00194403
0.00757183
0.00754523
0.00749119
0.00741451
0.00731652
0.00719363
0.00704214
0.00686076
0.00664838
0.00640251
0.00611847
0.00578847
0.00540371
0.00496327
0.00447446
0.00394115
0.00335745
0.00268393
0.00194574
0.00790878
0.00789236
0.00784632
0.00777375
0.00767564
0.00754975
0.00739306
0.00720354
0.00697939
0.00671808
0.00641583
0.00606719
0.00566504
0.00520279
0.00468218
0.00411444
0.00349168
0.00276013
0.00194254
0.00827804
0.00827411
0.00823861
0.00817301
0.00807774
0.00795129
0.00779131
0.00759567
0.00736233
0.00708885
0.00677206
0.00640787
0.00599096
0.00551411
0.00497338
0.00437527
0.00370384
0.00288598
0.00191153
0.00868751
0.00869812
0.00867533
0.00861923
0.00852959
0.00840519
0.00824415
0.00804448
0.00780416
0.00752093
0.0071921
0.0068144
0.00638357
0.00589362
0.00533797
0.00471162
0.00398747
0.00307551
0.00192207
0.00914471
0.00917209
0.00916415
0.00911992
0.00903852
0.00891869
0.00875879
0.008557
0.0083114
0.00801994
0.00768028
0.00728964
0.00684438
0.00633912
0.00576566
0.00510951
0.00433215
0.00332057
0.00194965
0.00965726
0.00970402
0.0097133
0.00968332
0.00961261
0.00949969
0.00934292
0.00914056
0.00889077
0.00859164
0.00824103
0.00783641
0.00737431
0.00684934
0.00625186
0.00556212
0.00473165
0.00362142
0.00195447
0.0102333
0.0103025
0.0103318
0.0103185
0.0102609
0.010157
0.010005
0.00980326
0.00954977
0.00924268
0.00887988
0.00845884
0.00797597
0.00742544
0.00679643
0.00606618
0.00518012
0.00397848
0.0019555
0.010882
0.0109772
0.0110294
0.0110357
0.0109935
0.0109006
0.0107549
0.0105544
0.0102972
0.00998114
0.00960402
0.00916308
0.00865439
0.00807152
0.00740248
0.00662239
0.00567228
0.00437638
0.00204158
0.0116135
0.0117387
0.0118175
0.0118462
0.0118218
0.0117418
0.0116036
0.0114049
0.0111434
0.0108169
0.0104227
0.00995765
0.00941737
0.00879467
0.00807643
0.00723583
0.00620958
0.00480612
0.0022361
0.0124394
0.0125992
0.0127082
0.0127626
0.0127587
0.0126934
0.0125638
0.0123671
0.0121007
0.0117618
0.0113473
0.0108535
0.0102753
0.00960485
0.00882773
0.00791544
0.00680042
0.00527635
0.00245185
0.0133726
0.0135719
0.0137156
0.0137992
0.0138184
0.0137698
0.0136499
0.0134554
0.0131832
0.0128298
0.0123915
0.011864
0.0112413
0.0105146
0.00966819
0.00867206
0.0074539
0.00579053
0.00269528
0.0144276
0.0146721
0.0148552
0.0149717
0.0150171
0.0149872
0.0148781
0.0146861
0.0144071
0.0140371
0.0135716
0.0130051
0.0123309
0.0115391
0.0106132
0.00952014
0.00818217
0.00635629
0.00295799
0.0156207
0.0159165
0.0161441
0.0162977
0.0163723
0.0163634
0.0162666
0.0160772
0.0157908
0.0154022
0.0149059
0.0142955
0.013563
0.0126972
0.0116798
0.0104749
0.00899819
0.00698418
0.00323941
0.0169699
0.0173238
0.0176014
0.0177966
0.0179039
0.0179184
0.0178352
0.0176492
0.0173549
0.0169462
0.0164162
0.0157572
0.0149595
0.01401
0.0128881
0.0115546
0.00991741
0.00768488
0.00353741
0.0184954
0.0189149
0.0192485
0.0194899
0.0196335
0.0196741
0.0196064
0.0194247
0.0191226
0.0186929
0.018127
0.0174151
0.0165455
0.0155024
0.0142625
0.0127822
0.0109602
0.00847509
0.00386196
0.0202201
0.0207131
0.0211091
0.0214016
0.0215851
0.0216546
0.0216045
0.0214287
0.0211198
0.020669
0.0200657
0.0192978
0.0183503
0.0172044
0.0158327
0.0141865
0.0121539
0.00938017
0.00423894
0.0221697
0.0227448
0.0232097
0.0235582
0.0237854
0.0238867
0.0238567
0.0236888
0.0233748
0.022904
0.0222635
0.0214377
0.0204081
0.0191511
0.0176344
0.0158025
0.0135317
0.0104308
0.00469361
0.0243742
0.0250404
0.0255806
0.0259897
0.026264
0.0263999
0.0263925
0.0262353
0.0259188
0.0254307
0.024755
0.0238721
0.0227583
0.0213841
0.01971
0.0176722
0.0151328
0.0116592
0.00524007
0.0268691
0.0276353
0.0282566
0.02873
0.029054
0.0292266
0.0292445
0.029101
0.0287861
0.0282853
0.0275791
0.0266428
0.0254462
0.0239516
0.0221099
0.0198455
0.0170027
0.0130997
0.00588185
0.029697
0.0305713
0.0312779
0.0318176
0.0321923
0.0324029
0.032448
0.0323219
0.0320138
0.031507
0.0307782
0.0297966
0.0285234
0.0269101
0.0248941
0.0223833
0.0191978
0.0147956
0.00663195
0.0329101
0.0338981
0.0346913
0.0352963
0.0357202
0.0359684
0.0360419
0.0359367
0.0356418
0.0351383
0.0343986
0.0333849
0.0320481
0.0303253
0.0281351
0.0253615
0.021791
0.0168062
0.0075164
0.0365724
0.0376751
0.0385512
0.039216
0.0396842
0.0399666
0.0400684
0.0399874
0.0397129
0.0392243
0.0384898
0.0374639
0.0360852
0.0342728
0.0319198
0.0288757
0.0248785
0.0192129
0.00857171
0.040762
0.0419727
0.0429203
0.0436331
0.0441356
0.0444457
0.0445732
0.0445187
0.0442723
0.0438125
0.0431035
0.0420924
0.0407047
0.0388379
0.0363519
0.0330467
0.0285887
0.022129
0.00984617
0.0455727
0.0468722
0.0478695
0.0486103
0.0491312
0.0494582
0.0496063
0.049579
0.0493683
0.0489523
0.0482928
0.047331
0.0459797
0.0441135
0.0415514
0.0380262
0.0330964
0.0257174
0.0114057
0.0511137
0.0524652
0.0534769
0.0542162
0.0547332
0.055062
0.0552223
0.055221
0.0550519
0.0546945
0.0541105
0.053238
0.0519811
0.0501934
0.0476506
0.0439999
0.0386415
0.0302286
0.0133761
0.0575079
0.0588505
0.0598255
0.0605243
0.0610093
0.0613207
0.0614821
0.0615026
0.0613786
0.0610923
0.0606084
0.0598669
0.0587706
0.0571618
0.05478
0.0511801
0.0455483
0.0360573
0.0159792
0.0648845
0.0661283
0.0670004
0.0676122
0.0680331
0.0683059
0.0684547
0.06849
0.0684106
0.0682028
0.0678375
0.0672632
0.0663926
0.0650745
0.0630386
0.059773
0.054225
0.0438342
0.0195794
0.0733656
0.0743925
0.0750856
0.0755615
0.0758866
0.0760993
0.0762209
0.0762614
0.0762211
0.0760913
0.0758519
0.0754659
0.074868
0.0739386
0.0724454
0.0698937
0.0650923
0.0545707
0.0248882
0.0830418
0.0837203
0.0841621
0.0844601
0.0846631
0.0847977
0.0848783
0.084912
0.0849
0.0848382
0.0847163
0.084515
0.084199
0.0837016
0.0828837
0.0814098
0.0782954
0.069677
0.0334058
0.0939407
0.0941679
0.094312
0.0944085
0.0944745
0.094519
0.0945471
0.0945611
0.0945619
0.0945488
0.0945196
0.0944702
0.0943933
0.0942763
0.0940925
0.0937689
0.0929999
0.0896694
0.0469916
)
;

boundaryField
{
    leftWall
    {
        type            kqRWallFunction;
        value           nonuniform List<scalar> 
50
(
8.86345e-05
0.000195336
0.000280372
0.000353174
0.000416972
0.000474735
0.000528582
0.000579969
0.000657056
0.000756034
0.000880861
0.00105899
0.00120382
0.00160738
0.00202356
0.00219448
0.00227925
0.00232967
0.00236125
0.00238127
0.00239403
0.00240119
0.0024032
0.00240746
0.00240245
0.00240288
0.00240835
0.00240525
0.00240276
0.00240896
0.00240078
0.00240073
0.00240131
0.00240125
0.00240308
0.00240943
0.00240582
0.00241069
0.00240473
0.00241052
0.00241152
0.00241081
0.00241406
0.00240242
0.00240691
0.00240764
0.00240776
0.00356831
0.0171851
0.0839823
)
;
    }
    rightWall
    {
        type            kqRWallFunction;
        value           nonuniform List<scalar> 
50
(
0.000104803
0.000213973
0.000303698
0.000386858
0.000465932
0.000546219
0.000633027
0.000713365
0.000800368
0.000862929
0.000924544
0.00112956
0.00110146
0.00141038
0.00190219
0.00194868
0.00194876
0.00194636
0.00194728
0.00194403
0.00194574
0.00194254
0.00191153
0.00192207
0.00194965
0.00195447
0.0019555
0.00204158
0.0022361
0.00245185
0.00269528
0.00295799
0.00323941
0.00353741
0.00386196
0.00423894
0.00469361
0.00524007
0.00588185
0.00663195
0.0075164
0.00857171
0.00984617
0.0114057
0.0133761
0.0159792
0.0195794
0.0248882
0.0334058
0.0469916
)
;
    }
    lowerWall
    {
        type            kqRWallFunction;
        value           nonuniform List<scalar> 
62
(
8.86345e-05
0.0002293
0.00033893
0.000425039
0.000495824
0.000555008
0.000604647
0.000646175
0.000680925
0.000710247
0.000736129
0.000759194
0.000779127
0.000793373
0.000796286
0.000779208
0.000736366
0.000682087
0.000610334
0.00053299
0.000450686
0.000321786
0.000149612
0.000149612
0.000338412
0.000481487
0.000625925
0.000785917
0.000989393
0.00130174
0.00187878
0.00206452
0.00179933
0.00179469
0.0020245
0.000213216
0.000417058
0.000517217
0.000585633
0.000675971
0.000813675
0.0010934
0.00173074
0.000213216
0.000467442
0.000654708
0.000734788
0.000770367
0.000787471
0.000783741
0.000770543
0.000741406
0.000703658
0.000645415
0.000562088
0.000505453
0.000497383
0.000460294
0.000391322
0.000292931
0.000193415
0.000104803
)
;
    }
    atmosphere
    {
        type            inletOutlet;
        inletValue      uniform 0.1;
        value           nonuniform List<scalar> 
46
(
0.1
0.0136502
0.00526458
0.0065559
0.00788919
0.00907254
0.0102391
0.011461
0.0127851
0.0142506
0.0158978
0.017774
0.0199403
0.0224789
0.025503
0.0291666
0.033678
0.0393207
0.0464971
0.0558387
0.0684915
0.1
0.1
0.1
0.1
0.1
0.1
0.1
0.1
0.1
0.1
0.1
0.1
0.1
0.1
0.1
0.1
0.1
0.1
0.1
0.1
0.1
0.1
0.1
0.1
0.0469916
)
;
    }
    defaultFaces
    {
        type            empty;
    }
}


// ************************************************************************* //
