/*--------------------------------*- C++ -*----------------------------------*\
  =========                 |
  \\      /  F ield         | OpenFOAM: The Open Source CFD Toolbox
   \\    /   O peration     | Website:  https://openfoam.org
    \\  /    A nd           | Version:  9
     \\/     M anipulation  |
\*---------------------------------------------------------------------------*/
FoamFile
{
    format      ascii;
    class       volScalarField;
    location    "9.2";
    object      p;
}
// * * * * * * * * * * * * * * * * * * * * * * * * * * * * * * * * * * * * * //

dimensions      [1 -1 -2 0 0 0 0];

internalField   nonuniform List<scalar> 
2268
(
733.85
733.786
733.709
733.625
733.538
733.45
733.36
733.271
733.18
733.089
732.996
732.9
732.796
732.677
732.537
732.373
732.194
732.031
731.871
731.743
731.723
731.68
731.636
675.007
674.948
674.873
674.789
674.7
674.609
674.516
674.422
674.328
674.232
674.133
674.028
673.912
673.783
673.636
673.48
673.327
673.197
673.113
673.014
672.896
672.781
672.731
616.168
616.113
616.038
615.956
615.866
615.772
615.677
615.579
615.48
615.379
615.273
615.159
615.034
614.896
614.745
614.596
614.457
614.352
614.327
614.233
614.043
613.876
613.825
557.334
557.278
557.203
557.121
557.031
556.936
556.837
556.737
556.634
556.527
556.415
556.296
556.165
556.023
555.873
555.727
555.585
555.488
555.484
555.408
555.171
554.965
554.927
498.504
498.443
498.366
498.283
498.193
498.096
497.997
497.894
497.788
497.677
497.56
497.436
497.304
497.163
497.018
496.879
496.716
496.602
496.599
496.541
496.285
496.064
496.046
439.676
439.609
439.528
439.444
439.352
439.255
439.155
439.05
438.941
438.827
438.706
438.58
438.448
438.313
438.178
438.06
437.878
437.689
437.697
437.65
437.384
437.242
437.176
380.85
380.777
380.692
380.604
380.511
380.413
380.313
380.207
380.095
379.977
379.852
379.723
379.595
379.469
379.353
379.268
379.174
378.958
378.801
378.761
378.614
378.591
378.304
322.026
321.95
321.86
321.768
321.673
321.575
321.474
321.367
321.252
321.129
320.999
320.868
320.743
320.629
320.536
320.501
320.6
320.55
320.139
320.002
320.097
319.98
319.43
730.521
730.628
731.033
731.184
731.237
731.197
731.104
731.001
730.888
730.78
730.634
730.452
730.497
730.766
730.852
730.971
730.974
731.022
731.123
671.661
671.672
672.049
672.213
672.292
672.282
672.269
672.215
672.137
672.079
672.086
672.083
672.055
672.045
672.116
672.228
672.237
672.286
672.376
612.768
612.821
613.13
613.276
613.364
613.373
613.372
613.341
613.294
613.286
613.407
613.66
613.643
613.424
613.403
613.5
613.579
613.654
613.758
554.09
554.148
554.3
554.397
554.471
554.486
554.497
554.486
554.461
554.486
554.635
555.014
555.071
554.81
554.688
554.76
554.892
554.981
555.063
495.598
495.548
495.54
495.561
495.607
495.623
495.64
495.647
495.639
495.69
495.847
496.176
496.304
496.093
495.987
496
496.104
496.249
496.331
437.098
436.948
436.797
436.743
436.757
436.766
436.791
436.816
436.802
436.857
437.034
437.304
437.425
437.304
437.323
437.471
437.446
437.467
437.613
378.42
378.221
378.019
377.921
377.911
377.91
377.948
378.013
377.979
377.98
378.194
378.443
378.563
378.496
378.738
378.994
378.977
378.749
378.916
319.502
319.366
319.19
319.088
319.066
319.049
319.111
319.256
319.388
319.284
319.38
319.59
319.706
319.764
320.299
320.423
320.503
320.128
320.243
230.072
229.987
229.886
229.785
229.685
229.585
229.484
229.376
229.256
229.123
228.982
228.845
228.724
228.63
228.579
228.611
228.761
228.802
228.68
228.505
228.339
228.162
227.523
105.527
105.445
105.367
105.264
105.108
104.96
104.873
104.822
104.774
104.72
104.662
104.602
104.537
104.45
104.357
104.305
104.361
104.525
104.601
104.454
104.119
103.774
103.325
21.4229
21.3739
21.3296
21.2825
21.2382
21.1958
21.1612
21.1486
21.1538
21.1714
21.1973
21.2136
21.1902
21.1355
21.0531
20.9727
20.9793
21.0797
21.1296
21.0753
20.9265
20.7558
20.5651
-0.751959
-0.755076
-0.770169
-0.766049
-0.672516
-0.595995
-0.590442
-0.609041
-0.620957
-0.625737
-0.633214
-0.643942
-0.670226
-0.681006
-0.685055
-0.692017
-0.720989
-0.769171
-0.818885
-0.821793
-0.809157
-0.800461
-0.815532
-0.962396
-0.961537
-0.964639
-0.963334
-0.950205
-0.936748
-0.929764
-0.926231
-0.922729
-0.919552
-0.918026
-0.918098
-0.920586
-0.924902
-0.927593
-0.932555
-0.941936
-0.951847
-0.960017
-0.964128
-0.963775
-0.964181
-0.969877
-1.14264
-1.14349
-1.14177
-1.14124
-1.15059
-1.15483
-1.15628
-1.15652
-1.15676
-1.15713
-1.15714
-1.15626
-1.1543
-1.15352
-1.15401
-1.15492
-1.15387
-1.1493
-1.14403
-1.14317
-1.14209
-1.13993
-1.1375
-1.28341
-1.28393
-1.28326
-1.28283
-1.284
-1.28387
-1.28372
-1.28367
-1.28369
-1.28359
-1.28306
-1.28231
-1.28124
-1.28083
-1.28115
-1.28134
-1.28128
-1.28249
-1.28231
-1.28199
-1.28217
-1.28166
-1.27881
-1.40874
-1.40897
-1.40862
-1.40848
-1.40886
-1.40874
-1.40876
-1.40883
-1.40886
-1.40888
-1.4089
-1.40938
-1.40976
-1.40967
-1.40939
-1.40854
-1.40791
-1.40806
-1.40799
-1.40781
-1.40797
-1.40809
-1.40757
-1.53403
-1.53413
-1.53398
-1.53394
-1.53407
-1.53403
-1.53406
-1.53414
-1.5342
-1.53429
-1.53452
-1.53508
-1.53563
-1.53552
-1.53504
-1.53449
-1.53387
-1.53366
-1.5335
-1.53335
-1.53332
-1.53321
-1.53264
-1.65931
-1.65936
-1.65929
-1.65931
-1.6594
-1.65943
-1.65948
-1.65953
-1.6596
-1.65971
-1.6599
-1.66016
-1.66038
-1.6603
-1.66007
-1.65986
-1.65947
-1.65918
-1.659
-1.65888
-1.65882
-1.65871
-1.65833
-1.78459
-1.7846
-1.78458
-1.78461
-1.7847
-1.78477
-1.78482
-1.78487
-1.78495
-1.78508
-1.78518
-1.78531
-1.78539
-1.78528
-1.78507
-1.78489
-1.78475
-1.7846
-1.78449
-1.78443
-1.78443
-1.78448
-1.7846
-1.90987
-1.90986
-1.90986
-1.90988
-1.90995
-1.91002
-1.91007
-1.91013
-1.91026
-1.91039
-1.91043
-1.9105
-1.91055
-1.91049
-1.91032
-1.91014
-1.91
-1.90998
-1.90995
-1.90994
-1.91001
-1.91019
-1.91061
-2.03514
-2.03513
-2.03513
-2.03515
-2.0352
-2.03525
-2.03529
-2.03538
-2.03553
-2.03563
-2.03566
-2.03572
-2.03579
-2.03587
-2.03582
-2.03564
-2.03544
-2.0354
-2.03538
-2.03539
-2.03547
-2.03565
-2.03598
-2.16041
-2.1604
-2.16039
-2.16041
-2.16045
-2.1605
-2.16054
-2.16064
-2.16078
-2.16083
-2.16088
-2.16094
-2.16103
-2.16115
-2.16123
-2.16117
-2.16102
-2.16085
-2.16077
-2.16076
-2.16082
-2.16095
-2.16117
-2.28568
-2.28566
-2.28565
-2.28567
-2.2857
-2.28576
-2.28582
-2.28591
-2.28601
-2.28605
-2.28609
-2.28615
-2.28622
-2.28631
-2.28642
-2.28648
-2.28639
-2.2862
-2.28609
-2.28607
-2.2861
-2.28619
-2.28632
-2.41093
-2.4109
-2.4109
-2.41091
-2.41095
-2.41101
-2.41111
-2.41118
-2.41123
-2.41125
-2.41129
-2.41134
-2.41139
-2.41146
-2.41152
-2.41156
-2.41152
-2.41142
-2.41134
-2.41132
-2.41134
-2.41139
-2.41147
-2.53617
-2.53614
-2.53614
-2.53615
-2.53619
-2.53625
-2.53634
-2.5364
-2.53642
-2.53645
-2.53648
-2.53652
-2.53656
-2.53661
-2.53665
-2.53667
-2.53665
-2.5366
-2.53656
-2.53654
-2.53655
-2.53658
-2.53663
-2.66139
-2.66137
-2.66137
-2.66138
-2.66141
-2.66146
-2.66152
-2.66158
-2.66161
-2.66164
-2.66167
-2.6617
-2.66174
-2.66177
-2.6618
-2.66181
-2.6618
-2.66177
-2.66175
-2.66174
-2.66175
-2.66177
-2.66179
-2.78662
-2.78659
-2.7866
-2.78661
-2.78664
-2.78667
-2.78672
-2.78676
-2.7868
-2.78683
-2.78685
-2.78688
-2.78691
-2.78694
-2.78696
-2.78697
-2.78696
-2.78695
-2.78694
-2.78694
-2.78694
-2.78695
-2.78697
-2.91184
-2.91183
-2.91183
-2.91183
-2.91186
-2.91189
-2.91192
-2.91196
-2.91199
-2.91201
-2.91204
-2.91207
-2.91209
-2.91211
-2.91213
-2.91214
-2.91214
-2.91213
-2.91213
-2.91213
-2.91213
-2.91214
-2.91215
-3.03706
-3.03707
-3.03706
-3.03706
-3.03707
-3.0371
-3.03712
-3.03715
-3.03718
-3.0372
-3.03723
-3.03725
-3.03727
-3.03729
-3.0373
-3.03731
-3.03732
-3.03732
-3.03732
-3.03732
-3.03732
-3.03733
-3.03733
-3.16226
-3.1623
-3.16228
-3.16228
-3.16229
-3.1623
-3.16233
-3.16235
-3.16237
-3.16239
-3.16241
-3.16243
-3.16245
-3.16247
-3.16248
-3.16249
-3.1625
-3.1625
-3.16251
-3.16251
-3.16251
-3.16252
-3.16252
-3.28748
-3.28751
-3.2875
-3.28749
-3.2875
-3.28751
-3.28753
-3.28755
-3.28757
-3.28758
-3.2876
-3.28762
-3.28764
-3.28765
-3.28767
-3.28768
-3.28768
-3.28769
-3.2877
-3.2877
-3.28771
-3.28771
-3.28772
-3.41271
-3.41271
-3.4127
-3.4127
-3.4127
-3.41271
-3.41273
-3.41274
-3.41276
-3.41278
-3.41279
-3.41281
-3.41283
-3.41284
-3.41285
-3.41286
-3.41287
-3.41288
-3.41289
-3.41289
-3.4129
-3.41291
-3.41291
-3.53794
-3.53792
-3.53791
-3.53791
-3.53791
-3.53792
-3.53793
-3.53794
-3.53795
-3.53797
-3.53798
-3.538
-3.53801
-3.53803
-3.53804
-3.53805
-3.53806
-3.53807
-3.53808
-3.53809
-3.5381
-3.5381
-3.53811
-3.66318
-3.66313
-3.66312
-3.66311
-3.66311
-3.66312
-3.66312
-3.66313
-3.66315
-3.66316
-3.66317
-3.66319
-3.6632
-3.66322
-3.66323
-3.66324
-3.66325
-3.66326
-3.66327
-3.66328
-3.66329
-3.6633
-3.66331
-3.7884
-3.78835
-3.78833
-3.78832
-3.78831
-3.78831
-3.78832
-3.78833
-3.78834
-3.78835
-3.78836
-3.78838
-3.78839
-3.7884
-3.78842
-3.78843
-3.78844
-3.78845
-3.78846
-3.78847
-3.78848
-3.78849
-3.7885
-3.91358
-3.91356
-3.91354
-3.91352
-3.91351
-3.91351
-3.91351
-3.91352
-3.91353
-3.91354
-3.91356
-3.91357
-3.91358
-3.91359
-3.9136
-3.91362
-3.91363
-3.91364
-3.91365
-3.91366
-3.91367
-3.91368
-3.9137
-4.03877
-4.03876
-4.03873
-4.03872
-4.03871
-4.0387
-4.03871
-4.03871
-4.03872
-4.03873
-4.03875
-4.03876
-4.03877
-4.03878
-4.03879
-4.0388
-4.03882
-4.03883
-4.03884
-4.03885
-4.03886
-4.03887
-4.03889
-4.16395
-4.16395
-4.16392
-4.16391
-4.1639
-4.16389
-4.1639
-4.1639
-4.16391
-4.16392
-4.16394
-4.16395
-4.16396
-4.16397
-4.16398
-4.16399
-4.164
-4.16401
-4.16403
-4.16404
-4.16405
-4.16406
-4.16408
-4.28912
-4.28915
-4.28911
-4.28909
-4.28908
-4.28908
-4.28909
-4.28909
-4.2891
-4.28911
-4.28913
-4.28914
-4.28915
-4.28916
-4.28917
-4.28918
-4.28919
-4.2892
-4.28921
-4.28923
-4.28924
-4.28925
-4.28927
-4.41431
-4.41433
-4.4143
-4.41427
-4.41426
-4.41427
-4.41427
-4.41428
-4.4143
-4.41431
-4.41432
-4.41433
-4.41434
-4.41435
-4.41436
-4.41437
-4.41438
-4.41439
-4.4144
-4.41441
-4.41443
-4.41444
-4.41446
-4.53953
-4.53951
-4.53947
-4.53945
-4.53944
-4.53945
-4.53946
-4.53948
-4.53949
-4.5395
-4.53951
-4.53952
-4.53953
-4.53954
-4.53955
-4.53956
-4.53957
-4.53958
-4.53959
-4.5396
-4.53962
-4.53963
-4.53965
-4.66474
-4.66468
-4.66464
-4.66461
-4.66461
-4.66463
-4.66465
-4.66467
-4.66468
-4.66469
-4.66471
-4.66471
-4.66472
-4.66473
-4.66474
-4.66475
-4.66476
-4.66476
-4.66478
-4.66479
-4.6648
-4.66482
-4.66484
-4.78992
-4.78986
-4.78981
-4.78979
-4.78979
-4.78982
-4.78985
-4.78987
-4.78988
-4.78989
-4.7899
-4.78991
-4.78992
-4.78993
-4.78993
-4.78994
-4.78995
-4.78995
-4.78997
-4.78998
-4.78999
-4.79001
-4.79003
-4.9151
-4.91504
-4.915
-4.915
-4.915
-4.91503
-4.91506
-4.91507
-4.91509
-4.9151
-4.9151
-4.91511
-4.91512
-4.91512
-4.91513
-4.91513
-4.91514
-4.91515
-4.91516
-4.91517
-4.91518
-4.9152
-4.91522
-5.04027
-5.0402
-5.0402
-5.04022
-5.04024
-5.04026
-5.04027
-5.04028
-5.04029
-5.0403
-5.04031
-5.04031
-5.04032
-5.04032
-5.04033
-5.04033
-5.04033
-5.04034
-5.04035
-5.04036
-5.04037
-5.04039
-5.04041
-5.16538
-5.16535
-5.16539
-5.16544
-5.16547
-5.16548
-5.16549
-5.1655
-5.16551
-5.16551
-5.16552
-5.16552
-5.16552
-5.16552
-5.16553
-5.16553
-5.16553
-5.16553
-5.16554
-5.16555
-5.16556
-5.16558
-5.16561
-5.29045
-5.29046
-5.29056
-5.29064
-5.29068
-5.2907
-5.29071
-5.29072
-5.29072
-5.29072
-5.29073
-5.29073
-5.29073
-5.29073
-5.29073
-5.29073
-5.29073
-5.29073
-5.29073
-5.29074
-5.29075
-5.29077
-5.2908
-5.41554
-5.4156
-5.41574
-5.41584
-5.41589
-5.41592
-5.41593
-5.41593
-5.41593
-5.41594
-5.41594
-5.41594
-5.41594
-5.41594
-5.41594
-5.41593
-5.41593
-5.41593
-5.41593
-5.41593
-5.41593
-5.41596
-5.416
-5.54061
-5.54082
-5.54098
-5.54106
-5.54111
-5.54113
-5.54114
-5.54114
-5.54114
-5.54114
-5.54114
-5.54113
-5.54113
-5.54113
-5.54113
-5.54113
-5.54112
-5.54112
-5.54111
-5.5411
-5.54109
-5.54113
-5.5412
-5.66591
-5.66638
-5.66632
-5.66634
-5.66635
-5.66635
-5.66635
-5.66634
-5.66634
-5.66634
-5.66634
-5.66634
-5.66634
-5.66634
-5.66633
-5.66633
-5.66633
-5.66632
-5.66631
-5.6663
-5.66626
-5.66629
-5.6664
228.127
227.942
227.931
227.87
103.488
103.423
103.355
103.268
20.5629
20.5317
20.4989
20.4637
-0.825093
-0.814694
-0.806178
-0.803555
-0.968313
-0.96717
-0.96354
-0.963118
-1.13699
-1.13879
-1.13838
-1.13743
-1.27745
-1.27882
-1.28087
-1.28118
-1.40672
-1.40648
-1.40644
-1.40627
-1.53201
-1.53172
-1.53153
-1.53135
-1.65793
-1.65778
-1.65761
-1.6574
-1.78463
-1.78454
-1.7844
-1.78425
-1.91096
-1.91108
-1.91109
-1.91106
-2.03636
-2.03661
-2.03676
-2.03679
-2.16137
-2.16148
-2.16155
-2.16157
-2.28642
-2.28648
-2.28651
-2.28652
-2.41152
-2.41155
-2.41157
-2.41157
-2.53665
-2.53667
-2.53668
-2.53668
-2.66181
-2.66181
-2.66182
-2.66182
-2.78697
-2.78697
-2.78698
-2.78698
-2.91215
-2.91215
-2.91215
-2.91215
-3.03733
-3.03733
-3.03734
-3.03734
-3.16252
-3.16253
-3.16253
-3.16253
-3.28772
-3.28772
-3.28772
-3.28773
-3.41292
-3.41292
-3.41292
-3.41292
-3.53812
-3.53812
-3.53812
-3.53812
-3.66331
-3.66332
-3.66332
-3.66332
-3.78851
-3.78851
-3.78852
-3.78852
-3.9137
-3.91371
-3.91371
-3.91372
-4.0389
-4.0389
-4.03891
-4.03891
-4.16409
-4.16409
-4.1641
-4.16411
-4.28928
-4.28929
-4.28929
-4.2893
-4.41447
-4.41448
-4.41448
-4.41449
-4.53966
-4.53967
-4.53968
-4.53969
-4.66485
-4.66486
-4.66487
-4.66488
-4.79004
-4.79005
-4.79006
-4.79007
-4.91524
-4.91525
-4.91526
-4.91527
-5.04043
-5.04044
-5.04045
-5.04046
-5.16562
-5.16564
-5.16565
-5.16566
-5.29082
-5.29083
-5.29084
-5.29085
-5.41602
-5.41603
-5.41605
-5.41605
-5.54123
-5.54124
-5.54125
-5.54125
-5.66643
-5.66644
-5.66644
-5.66645
227.535
227.323
227.164
227.088
227.103
227.182
227.3
227.53
227.966
228.247
228.328
228.422
228.531
228.626
228.742
228.748
228.804
228.518
228.6
103.113
103.108
103.175
103.31
103.51
103.751
103.944
104.119
104.441
104.807
104.926
104.978
105.034
104.993
104.745
104.732
104.862
104.965
105.154
20.4045
20.431
20.5527
20.7172
20.8879
21.0479
21.1685
21.2138
21.2093
21.2562
21.2774
21.2905
21.2943
21.276
21.1514
21.1933
21.3167
21.5095
21.6984
-0.813798
-0.773124
-0.766009
-0.767946
-0.772868
-0.772987
-0.774413
-0.774817
-0.778312
-0.786686
-0.80004
-0.817723
-0.838011
-0.801333
-0.77644
-0.771601
-0.770908
-0.777336
-0.780807
-0.966308
-0.96168
-0.958432
-0.958127
-0.960283
-0.960629
-0.962039
-0.96402
-0.966926
-0.970872
-0.976636
-0.983032
-0.986541
-0.981944
-0.978596
-0.9766
-0.975447
-0.975141
-0.975832
-1.1354
-1.14304
-1.14357
-1.14378
-1.14384
-1.14461
-1.14527
-1.14609
-1.14709
-1.14727
-1.1459
-1.14407
-1.14006
-1.14421
-1.14575
-1.14536
-1.14499
-1.14478
-1.144
-1.27903
-1.27958
-1.27979
-1.27922
-1.27747
-1.27635
-1.27601
-1.27588
-1.27501
-1.27384
-1.27304
-1.27262
-1.2731
-1.27627
-1.27852
-1.27987
-1.2806
-1.2813
-1.28114
-1.40562
-1.40552
-1.40545
-1.40488
-1.40377
-1.40339
-1.40324
-1.40291
-1.40263
-1.4026
-1.40233
-1.40203
-1.40238
-1.40402
-1.40493
-1.40569
-1.40621
-1.40657
-1.40639
-1.53098
-1.53122
-1.53145
-1.53154
-1.53162
-1.53201
-1.53217
-1.53173
-1.53163
-1.53207
-1.53209
-1.53188
-1.5316
-1.53131
-1.53109
-1.53137
-1.53162
-1.53182
-1.53171
-1.65705
-1.65701
-1.65756
-1.65823
-1.65914
-1.6595
-1.65937
-1.65917
-1.65897
-1.65871
-1.65882
-1.65882
-1.65829
-1.65724
-1.65684
-1.65685
-1.65695
-1.65709
-1.65707
-1.78396
-1.78352
-1.78376
-1.78419
-1.78484
-1.785
-1.78466
-1.78444
-1.78425
-1.78408
-1.78398
-1.78374
-1.78332
-1.78275
-1.78234
-1.78222
-1.78223
-1.78232
-1.78244
-1.91092
-1.91048
-1.90992
-1.90985
-1.91005
-1.91008
-1.90991
-1.90974
-1.90957
-1.90942
-1.9093
-1.90913
-1.90875
-1.90822
-1.90772
-1.90753
-1.90747
-1.90753
-1.90781
-2.03674
-2.03627
-2.0356
-2.03534
-2.03533
-2.03529
-2.03517
-2.03503
-2.03489
-2.03476
-2.03467
-2.03464
-2.0344
-2.03383
-2.03322
-2.03288
-2.0327
-2.03273
-2.03312
-2.16155
-2.16127
-2.16089
-2.16068
-2.1606
-2.16052
-2.16041
-2.1603
-2.16019
-2.1601
-2.16003
-2.16002
-2.15999
-2.15961
-2.15898
-2.15834
-2.15802
-2.15805
-2.15844
-2.28651
-2.28634
-2.2861
-2.28594
-2.28585
-2.28576
-2.28567
-2.28558
-2.28549
-2.28542
-2.28537
-2.28536
-2.28535
-2.28518
-2.28475
-2.2842
-2.28395
-2.28401
-2.28438
-2.41157
-2.41146
-2.4113
-2.41118
-2.41109
-2.41101
-2.41093
-2.41085
-2.41079
-2.41074
-2.4107
-2.41069
-2.41067
-2.41058
-2.41044
-2.4104
-2.41042
-2.41056
-2.41085
-2.53669
-2.53661
-2.5365
-2.53641
-2.53633
-2.53626
-2.53619
-2.53613
-2.53608
-2.53605
-2.53603
-2.53602
-2.53603
-2.53603
-2.53607
-2.5363
-2.53647
-2.53653
-2.5367
-2.66182
-2.66178
-2.66171
-2.66164
-2.66157
-2.66151
-2.66145
-2.66141
-2.66137
-2.66135
-2.66134
-2.66135
-2.66138
-2.66142
-2.66151
-2.66169
-2.66186
-2.66184
-2.66197
-2.78698
-2.78695
-2.78691
-2.78686
-2.7868
-2.78675
-2.78671
-2.78668
-2.78666
-2.78664
-2.78665
-2.78667
-2.78671
-2.78676
-2.78685
-2.78698
-2.78707
-2.78709
-2.78715
-2.91215
-2.91213
-2.9121
-2.91207
-2.91203
-2.91199
-2.91196
-2.91194
-2.91193
-2.91193
-2.91194
-2.91197
-2.91201
-2.91207
-2.91215
-2.91224
-2.9123
-2.91233
-2.91231
-3.03734
-3.03733
-3.03731
-3.03728
-3.03725
-3.03723
-3.03721
-3.0372
-3.0372
-3.0372
-3.03722
-3.03725
-3.0373
-3.03736
-3.03743
-3.0375
-3.03755
-3.03757
-3.03751
-3.16253
-3.16252
-3.16251
-3.16249
-3.16248
-3.16246
-3.16245
-3.16245
-3.16245
-3.16247
-3.16249
-3.16252
-3.16257
-3.16263
-3.1627
-3.16276
-3.1628
-3.16284
-3.16279
-3.28773
-3.28773
-3.28772
-3.28771
-3.2877
-3.28769
-3.28769
-3.28769
-3.2877
-3.28772
-3.28775
-3.28778
-3.28783
-3.28789
-3.28795
-3.28801
-3.28806
-3.2881
-3.28806
-3.41293
-3.41293
-3.41293
-3.41292
-3.41292
-3.41292
-3.41292
-3.41293
-3.41294
-3.41297
-3.413
-3.41303
-3.41308
-3.41314
-3.41319
-3.41326
-3.41331
-3.41335
-3.41331
-3.53813
-3.53813
-3.53813
-3.53814
-3.53814
-3.53814
-3.53815
-3.53816
-3.53818
-3.5382
-3.53824
-3.53827
-3.53832
-3.53837
-3.53842
-3.53848
-3.53854
-3.53857
-3.53856
-3.66333
-3.66334
-3.66334
-3.66335
-3.66335
-3.66336
-3.66337
-3.66339
-3.66341
-3.66344
-3.66347
-3.66351
-3.66355
-3.66359
-3.66364
-3.66368
-3.66372
-3.66373
-3.6637
-3.78853
-3.78854
-3.78854
-3.78855
-3.78856
-3.78858
-3.78859
-3.78861
-3.78863
-3.78866
-3.7887
-3.78873
-3.78877
-3.78881
-3.78884
-3.78886
-3.78886
-3.78884
-3.78876
-3.91373
-3.91374
-3.91375
-3.91376
-3.91377
-3.91379
-3.91381
-3.91383
-3.91385
-3.91388
-3.91392
-3.91395
-3.91399
-3.91402
-3.91404
-3.91404
-3.91401
-3.91395
-3.91382
-4.03892
-4.03894
-4.03895
-4.03896
-4.03898
-4.039
-4.03902
-4.03904
-4.03907
-4.0391
-4.03914
-4.03917
-4.0392
-4.03923
-4.03924
-4.03924
-4.03919
-4.03912
-4.03897
-4.16412
-4.16413
-4.16415
-4.16417
-4.16418
-4.1642
-4.16423
-4.16425
-4.16428
-4.16432
-4.16435
-4.16439
-4.16442
-4.16445
-4.16446
-4.16445
-4.16441
-4.16435
-4.16422
-4.28931
-4.28933
-4.28935
-4.28937
-4.28939
-4.28941
-4.28943
-4.28946
-4.28949
-4.28953
-4.28956
-4.2896
-4.28964
-4.28967
-4.28969
-4.28969
-4.28966
-4.2896
-4.28948
-4.41451
-4.41452
-4.41454
-4.41456
-4.41459
-4.41461
-4.41464
-4.41467
-4.4147
-4.41474
-4.41478
-4.41482
-4.41486
-4.41489
-4.41492
-4.41493
-4.41491
-4.41485
-4.41472
-4.5397
-4.53972
-4.53974
-4.53976
-4.53979
-4.53981
-4.53984
-4.53987
-4.5399
-4.53994
-4.53998
-4.54003
-4.54007
-4.54012
-4.54015
-4.54017
-4.54017
-4.54011
-4.53996
-4.66489
-4.66491
-4.66494
-4.66496
-4.66498
-4.66501
-4.66504
-4.66507
-4.6651
-4.66514
-4.66519
-4.66524
-4.66529
-4.66534
-4.66539
-4.66542
-4.66543
-4.66537
-4.66521
-4.79009
-4.79011
-4.79013
-4.79015
-4.79018
-4.7902
-4.79023
-4.79026
-4.7903
-4.79034
-4.79039
-4.79044
-4.7905
-4.79056
-4.79062
-4.79067
-4.79069
-4.79063
-4.79048
-4.91528
-4.9153
-4.91533
-4.91535
-4.91537
-4.9154
-4.91542
-4.91545
-4.91549
-4.91553
-4.91558
-4.91563
-4.9157
-4.91577
-4.91584
-4.91591
-4.91593
-4.91586
-4.91567
-5.04048
-5.0405
-5.04052
-5.04054
-5.04056
-5.04059
-5.04061
-5.04064
-5.04067
-5.04071
-5.04076
-5.04082
-5.04089
-5.04097
-5.04106
-5.04114
-5.04117
-5.04106
-5.04081
-5.16567
-5.16569
-5.16571
-5.16573
-5.16575
-5.16577
-5.16579
-5.16582
-5.16585
-5.16589
-5.16594
-5.166
-5.16607
-5.16616
-5.16626
-5.16637
-5.16644
-5.16632
-5.16603
-5.29087
-5.29089
-5.2909
-5.29092
-5.29094
-5.29095
-5.29097
-5.291
-5.29102
-5.29106
-5.2911
-5.29116
-5.29123
-5.29133
-5.29145
-5.29161
-5.29175
-5.29165
-5.29137
-5.41607
-5.41608
-5.41609
-5.41611
-5.41612
-5.41613
-5.41615
-5.41616
-5.41619
-5.41621
-5.41625
-5.4163
-5.41636
-5.41646
-5.4166
-5.41683
-5.41711
-5.41707
-5.41684
-5.54126
-5.54127
-5.54128
-5.54129
-5.54129
-5.5413
-5.54131
-5.54133
-5.54134
-5.54136
-5.54138
-5.54142
-5.54146
-5.54153
-5.54166
-5.54194
-5.54244
-5.54261
-5.54259
-5.66645
-5.66646
-5.66646
-5.66647
-5.66647
-5.66648
-5.66648
-5.66649
-5.6665
-5.66651
-5.66652
-5.66653
-5.66655
-5.66659
-5.66666
-5.66686
-5.66742
-5.66803
-5.66858
)
;

boundaryField
{
    leftWall
    {
        type            calculated;
        value           nonuniform List<scalar> 
50
(
733.85
675.007
616.168
557.334
498.504
439.676
380.85
322.026
230.072
105.527
21.4229
-0.751959
-0.962396
-1.14264
-1.28341
-1.40874
-1.53403
-1.65931
-1.78459
-1.90987
-2.03514
-2.16041
-2.28568
-2.41093
-2.53617
-2.66139
-2.78662
-2.91184
-3.03706
-3.16226
-3.28748
-3.41271
-3.53794
-3.66318
-3.7884
-3.91358
-4.03877
-4.16395
-4.28912
-4.41431
-4.53953
-4.66474
-4.78992
-4.9151
-5.04027
-5.16538
-5.29045
-5.41554
-5.54061
-5.66591
)
;
    }
    rightWall
    {
        type            calculated;
        value           nonuniform List<scalar> 
50
(
731.123
672.376
613.758
555.063
496.331
437.613
378.916
320.243
228.6
105.154
21.6984
-0.780807
-0.975832
-1.144
-1.28114
-1.40639
-1.53171
-1.65707
-1.78244
-1.90781
-2.03312
-2.15844
-2.28438
-2.41085
-2.5367
-2.66197
-2.78715
-2.91231
-3.03751
-3.16279
-3.28806
-3.41331
-3.53856
-3.6637
-3.78876
-3.91382
-4.03897
-4.16422
-4.28948
-4.41472
-4.53996
-4.66521
-4.79048
-4.91567
-5.04081
-5.16603
-5.29137
-5.41684
-5.54259
-5.66858
)
;
    }
    lowerWall
    {
        type            calculated;
        value           nonuniform List<scalar> 
62
(
763.279
763.216
763.139
763.055
762.968
762.879
762.79
762.7
762.61
762.518
762.425
762.329
762.225
762.107
761.966
761.803
761.624
761.461
761.278
761.119
761.132
761.11
761.063
731.636
672.731
613.825
554.927
496.046
437.176
378.304
319.43
290.72
290.536
290.526
290.466
730.521
671.661
612.768
554.09
495.598
437.098
378.42
319.502
759.944
760.049
760.449
760.599
760.659
760.619
760.436
760.302
760.189
760.061
759.839
759.657
759.809
760.156
760.243
760.361
760.364
760.413
760.514
)
;
    }
    atmosphere
    {
        type            calculated;
        value           nonuniform List<scalar> 
46
(
-5.72909
-5.72904
-5.72904
-5.72904
-5.72904
-5.72904
-5.72904
-5.72904
-5.72904
-5.72904
-5.72904
-5.72904
-5.72904
-5.72904
-5.72904
-5.72904
-5.72904
-5.72904
-5.72904
-5.72904
-5.72904
-5.72904
-5.72904
-5.72904
-5.72904
-5.72904
-5.72904
-5.72905
-5.72905
-5.72905
-5.72906
-5.72906
-5.72907
-5.72907
-5.72908
-5.72908
-5.72909
-5.72909
-5.7291
-5.7291
-5.7291
-5.7291
-5.7291
-5.72909
-5.72907
-5.73246
)
;
    }
    defaultFaces
    {
        type            empty;
    }
}


// ************************************************************************* //
