/*--------------------------------*- C++ -*----------------------------------*\
  =========                 |
  \\      /  F ield         | OpenFOAM: The Open Source CFD Toolbox
   \\    /   O peration     | Website:  https://openfoam.org
    \\  /    A nd           | Version:  9
     \\/     M anipulation  |
\*---------------------------------------------------------------------------*/
FoamFile
{
    format      ascii;
    class       surfaceScalarField;
    location    "5.19";
    object      alphaPhi0.water;
}
// * * * * * * * * * * * * * * * * * * * * * * * * * * * * * * * * * * * * * //

dimensions      [0 3 -1 0 0 0 0];

internalField   nonuniform List<scalar> 
4432
(
7.43102e-09
-7.43101e-09
1.21841e-07
-1.14409e-07
2.72677e-07
-1.50832e-07
4.21736e-07
-1.49055e-07
5.57517e-07
-1.35778e-07
6.76301e-07
-1.1878e-07
7.80003e-07
-1.03698e-07
8.73684e-07
-9.36796e-08
9.62192e-07
-8.85048e-08
1.04775e-06
-8.55494e-08
1.13204e-06
-8.42926e-08
1.21974e-06
-8.76968e-08
1.32091e-06
-1.01161e-07
1.45176e-06
-1.30858e-07
1.6277e-06
-1.75931e-07
1.83436e-06
-2.06665e-07
1.89938e-06
-6.5017e-08
1.29073e-06
6.08442e-07
8.52819e-08
1.20534e-06
-1.02943e-06
1.11702e-06
-1.46097e-06
4.30942e-07
-9.53125e-07
-5.09302e-07
-9.54571e-07
6.24341e-08
-6.98601e-08
1.77878e-07
-2.29849e-07
3.14844e-07
-2.87792e-07
4.56964e-07
-2.91169e-07
5.92792e-07
-2.71601e-07
7.17318e-07
-2.43302e-07
8.30333e-07
-2.16708e-07
9.33851e-07
-1.97192e-07
1.02971e-06
-1.84355e-07
1.11807e-06
-1.73904e-07
1.1986e-06
-1.64824e-07
1.27293e-06
-1.62025e-07
1.34553e-06
-1.73756e-07
1.42254e-06
-2.07868e-07
1.5066e-06
-2.59994e-07
1.58089e-06
-2.80964e-07
1.55486e-06
-3.90324e-08
1.14679e-06
1.01646e-06
3.37555e-07
2.01453e-06
-4.50358e-07
1.90581e-06
-8.79779e-07
8.61716e-07
-7.74091e-07
-6.14942e-07
-1.73076e-06
1.00154e-07
-1.7001e-07
2.17642e-07
-3.47335e-07
3.47069e-07
-4.17214e-07
4.82975e-07
-4.2707e-07
6.15814e-07
-4.04437e-07
7.40338e-07
-3.67823e-07
8.55178e-07
-3.31547e-07
9.60695e-07
-3.02708e-07
1.05698e-06
-2.80641e-07
1.14258e-06
-2.59507e-07
1.21552e-06
-2.37768e-07
1.27505e-06
-2.21557e-07
1.32175e-06
-2.20459e-07
1.35577e-06
-2.41891e-07
1.37314e-06
-2.77367e-07
1.35828e-06
-2.66106e-07
1.28374e-06
3.47354e-08
9.80755e-07
1.30074e-06
5.26126e-07
2.42238e-06
-6.89745e-09
2.4159e-06
-3.89246e-07
1.23885e-06
-4.60676e-07
-5.43462e-07
-2.19139e-06
1.22546e-07
-2.92554e-07
2.46387e-07
-4.71174e-07
3.74343e-07
-5.45168e-07
5.0678e-07
-5.59505e-07
6.36869e-07
-5.34526e-07
7.599e-07
-4.90854e-07
8.74067e-07
-4.45714e-07
9.78744e-07
-4.07388e-07
1.07286e-06
-3.74756e-07
1.15364e-06
-3.40296e-07
1.21764e-06
-3.01774e-07
1.2622e-06
-2.66119e-07
1.28503e-06
-2.43293e-07
1.28223e-06
-2.39096e-07
1.2458e-06
-2.40939e-07
1.16237e-06
-1.8268e-07
1.03398e-06
1.63124e-07
8.52526e-07
1.45432e-06
6.54837e-07
2.6196e-06
3.64324e-07
2.6881e-06
8.04714e-08
1.50067e-06
-7.40051e-08
-3.88808e-07
-2.2654e-06
1.35723e-07
-4.28275e-07
2.6722e-07
-6.02671e-07
3.9704e-07
-6.74987e-07
5.28016e-07
-6.90479e-07
6.55717e-07
-6.62227e-07
7.76425e-07
-6.11562e-07
8.88394e-07
-5.57683e-07
9.90447e-07
-5.09443e-07
1.08075e-06
-4.65057e-07
1.15546e-06
-4.15009e-07
1.20986e-06
-3.56183e-07
1.2399e-06
-2.96165e-07
1.24142e-06
-2.4481e-07
1.20812e-06
-2.05806e-07
1.13016e-06
-1.62978e-07
9.96475e-07
-4.89934e-08
8.19001e-07
3.40597e-07
7.70168e-07
1.50557e-06
7.35306e-07
2.65394e-06
6.5375e-07
2.76917e-06
5.25033e-07
1.65841e-06
2.80517e-07
-1.42157e-07
-1.98488e-06
1.44408e-07
-5.72682e-07
2.82683e-07
-7.40946e-07
4.15071e-07
-8.07375e-07
5.45242e-07
-8.20648e-07
6.70463e-07
-7.87448e-07
7.88083e-07
-7.29181e-07
8.96658e-07
-6.66256e-07
9.94708e-07
-6.07492e-07
1.07995e-06
-5.50295e-07
1.14772e-06
-4.82781e-07
1.19236e-06
-4.00828e-07
1.20902e-06
-3.12821e-07
1.19266e-06
-2.2845e-07
1.13635e-06
-1.49496e-07
1.03075e-06
-5.738e-08
8.70301e-07
1.11453e-07
6.8506e-07
5.25839e-07
6.77928e-07
1.51752e-06
7.84351e-07
2.54702e-06
8.75552e-07
2.67747e-06
8.67669e-07
1.69508e-06
5.64966e-07
1.61436e-07
-1.41998e-06
1.51517e-07
-7.24198e-07
2.94267e-07
-8.83694e-07
4.28058e-07
-9.41164e-07
5.56875e-07
-9.49461e-07
6.79011e-07
-9.09581e-07
7.92716e-07
-8.42883e-07
8.96868e-07
-7.70406e-07
9.89763e-07
-7.00384e-07
1.06887e-06
-6.29404e-07
1.12904e-06
-5.42942e-07
1.16406e-06
-4.35845e-07
1.16891e-06
-3.17671e-07
1.13867e-06
-1.98212e-07
1.06714e-06
-7.79642e-08
9.48054e-07
6.17077e-08
7.83131e-07
2.76377e-07
6.18828e-07
6.90142e-07
6.18608e-07
1.51774e-06
8.07428e-07
2.3911e-06
1.01293e-06
2.52262e-06
1.05176e-06
1.66848e-06
7.58586e-07
4.54605e-07
-6.61418e-07
1.58332e-07
-8.82529e-07
3.02723e-07
-1.02808e-06
4.35494e-07
-1.07393e-06
5.61504e-07
-1.07547e-06
6.79557e-07
-1.02763e-06
7.88531e-07
-9.51857e-07
8.87435e-07
-8.6931e-07
9.74212e-07
-7.8716e-07
1.04623e-06
-7.01422e-07
1.09818e-06
-5.94896e-07
1.12384e-06
-4.61504e-07
1.11867e-06
-3.12499e-07
1.07869e-06
-1.58228e-07
9.9915e-07
1.56942e-09
8.78028e-07
1.82828e-07
7.24171e-07
4.30231e-07
5.87697e-07
8.26613e-07
6.00457e-07
1.50497e-06
8.06548e-07
2.18501e-06
1.0439e-06
2.28769e-06
1.08788e-06
1.62457e-06
8.53661e-07
6.88824e-07
1.92244e-07
-7.96021e-07
7.94533e-07
-2.31564e-07
-5.67e-07
2.75515e-07
-5.10187e-07
5.65241e-07
-2.92734e-07
6.86622e-07
-1.23215e-07
7.09819e-07
-2.3319e-08
7.24938e-07
-1.52401e-08
9.00375e-07
-1.75559e-07
1.42462e-06
-5.20734e-07
2.06558e-06
-6.34707e-07
1.82884e-06
2.35452e-07
5.73245e-07
1.25404e-06
-1.73265e-06
2.29944e-06
-2.36606e-06
6.12432e-07
-1.68913e-07
-2.21621e-06
1.971e-06
-2.1402e-06
2.85098e-06
-8.80276e-07
2.18147e-06
6.65928e-07
2.17368e-06
-2.17225e-07
1.01027e-06
7.19586e-09
-7.9303e-07
1.66687e-07
-6.69686e-07
2.62163e-07
-3.88217e-07
2.99252e-07
-1.60312e-07
3.0064e-07
-2.50084e-08
3.35012e-07
-4.9933e-08
4.9849e-07
-3.39753e-07
8.50956e-07
-8.75405e-07
1.13031e-06
-9.16498e-07
8.00048e-07
5.64412e-07
-1.07853e-07
2.16066e-06
-1.19546e-06
3.33954e-06
-8.91732e-07
2.87708e-07
3.92506e-07
-3.50073e-06
1.67981e-06
-3.4278e-06
2.18026e-06
-1.38102e-06
1.90437e-06
9.41357e-07
4.07027e-06
1.5741e-07
8.61595e-07
9.37984e-08
-7.29352e-07
6.70396e-08
-6.42899e-07
5.57439e-08
-3.76929e-07
3.36145e-08
-1.38196e-07
2.1983e-09
6.40488e-09
7.87639e-09
-5.56565e-08
9.77604e-08
-4.29681e-07
2.77454e-07
-1.05508e-06
3.84126e-07
-1.02276e-06
4.98127e-08
8.97611e-07
-5.11522e-07
2.67727e-06
-6.61787e-07
3.46433e-06
-1.22749e-07
-2.62279e-07
6.37761e-07
-4.26154e-06
1.43323e-06
-4.22356e-06
1.62665e-06
-1.57474e-06
1.41459e-06
1.15308e-06
5.47708e-06
2.45429e-07
6.16173e-07
7.00006e-08
-5.54003e-07
-5.5964e-08
-5.16975e-07
-1.32176e-07
-3.0071e-07
-1.95565e-07
-7.48091e-08
-2.58776e-07
6.96144e-08
-3.00489e-07
-1.36907e-08
-2.97581e-07
-4.32112e-07
-2.74011e-07
-1.07787e-06
-2.79399e-07
-1.00834e-06
-5.1205e-07
1.10699e-06
-6.90911e-07
2.82319e-06
-2.97721e-07
3.07137e-06
2.93551e-07
-8.38812e-07
7.16944e-07
-4.68441e-06
1.18352e-06
-4.69044e-06
1.14331e-06
-1.53483e-06
9.35879e-07
1.36021e-06
6.4406e-06
1.7231e-07
4.43838e-07
-2.92627e-08
-3.52459e-07
-2.02427e-07
-3.43807e-07
-3.17264e-07
-1.8588e-07
-4.09575e-07
1.74999e-08
-5.03519e-07
1.63615e-07
-5.91326e-07
7.50233e-08
-6.75553e-07
-3.49149e-07
-7.89889e-07
-9.64269e-07
-8.80516e-07
-8.8776e-07
-8.95022e-07
1.12113e-06
-7.21512e-07
2.64959e-06
-7.25308e-08
2.42238e-06
4.80811e-07
-1.42132e-06
6.3001e-07
-4.83272e-06
8.59047e-07
-4.91977e-06
6.9246e-07
-1.3488e-06
5.16826e-07
1.53952e-06
6.95767e-06
6.00918e-08
3.83764e-07
-1.68335e-07
-1.24034e-07
-3.64509e-07
-1.47638e-07
-5.00208e-07
-5.01682e-08
-6.10876e-07
1.28147e-07
-7.29064e-07
2.81894e-07
-8.53727e-07
2.00438e-07
-1.00221e-06
-2.01585e-07
-1.2165e-06
-7.51426e-07
-1.40569e-06
-6.8802e-07
-1.19048e-06
9.81146e-07
-7.48601e-07
2.2077e-06
1.59361e-08
1.65782e-06
4.26609e-07
-1.83198e-06
3.6652e-07
-4.77262e-06
4.08429e-07
-4.95861e-06
2.88588e-07
-1.22981e-06
1.60935e-07
1.66658e-06
7.11861e-06
-6.10285e-08
4.44797e-07
-3.26882e-07
1.41819e-07
-5.31793e-07
5.72724e-08
-6.77612e-07
9.5737e-08
-7.97191e-07
2.47679e-07
-9.27544e-07
4.12199e-07
-1.07358e-06
3.4637e-07
-1.25594e-06
-1.92229e-08
-1.51033e-06
-4.97025e-07
-1.7129e-06
-4.82761e-07
-1.42765e-06
7.27831e-07
-8.05922e-07
1.65615e-06
-3.28831e-08
9.36138e-07
1.81542e-07
-2.0464e-06
-4.6676e-08
-4.54441e-06
-1.54929e-07
-4.85217e-06
-1.80541e-07
-1.20515e-06
-2.55548e-07
1.71786e-06
6.86306e-06
-2.52572e-07
6.97374e-07
-4.92998e-07
3.82243e-07
-6.94353e-07
2.58625e-07
-8.45906e-07
2.47289e-07
-9.67204e-07
3.68975e-07
-1.09708e-06
5.42074e-07
-1.24295e-06
4.92227e-07
-1.42851e-06
1.67205e-07
-1.66882e-06
-2.52869e-07
-1.83076e-06
-3.23048e-07
-1.55586e-06
4.50801e-07
-8.89859e-07
9.92055e-07
-2.17977e-07
2.64249e-07
-1.63727e-07
-2.10066e-06
-5.40558e-07
-4.16759e-06
-8.44736e-07
-4.54702e-06
-7.01328e-07
-1.34955e-06
-6.77707e-07
1.61034e-06
6.18536e-06
3.57906e-07
-1.24044e-06
6.59588e-07
-1.32977e-06
9.29474e-07
-1.34382e-06
1.18241e-06
-1.32841e-06
1.41632e-06
-1.26155e-06
1.63054e-06
-1.16607e-06
1.82239e-06
-1.06116e-06
1.98383e-06
-9.48598e-07
2.11077e-06
-8.2836e-07
2.19231e-06
-6.76439e-07
2.21641e-06
-4.85595e-07
2.1779e-06
-2.73989e-07
2.07221e-06
-5.25403e-08
1.89871e-06
1.75072e-07
1.66035e-06
4.21181e-07
1.39252e-06
6.98064e-07
1.19671e-06
1.02242e-06
1.25987e-06
1.44182e-06
1.63274e-06
1.81213e-06
2.03013e-06
1.8903e-06
2.08138e-06
1.57332e-06
1.66933e-06
1.10087e-06
9.08693e-07
9.52886e-07
3.01587e-07
-9.60927e-07
5.49151e-07
-9.88716e-07
7.73634e-07
-9.88467e-07
9.93827e-07
-9.87219e-07
1.20056e-06
-9.4568e-07
1.3963e-06
-8.88689e-07
1.57297e-06
-8.20654e-07
1.71358e-06
-7.34481e-07
1.80515e-06
-6.30989e-07
1.84491e-06
-5.01803e-07
1.8373e-06
-3.42153e-07
1.78779e-06
-1.61482e-07
1.69737e-06
3.5028e-08
1.562e-06
2.3986e-07
1.39337e-06
4.56602e-07
1.20387e-06
6.94546e-07
1.06593e-06
1.16037e-06
1.12748e-06
1.38027e-06
1.3702e-06
1.56942e-06
1.56285e-06
1.69766e-06
1.45775e-06
1.67842e-06
1.01964e-06
1.53898e-06
1.45764e-06
4.70699e-07
4.55641e-08
-6.62757e-09
6.12707e-08
-4.956e-09
8.99141e-08
-4.22316e-09
1.02829e-07
-1.18266e-09
1.41381e-07
-5.8504e-09
1.99992e-07
-1.31643e-08
2.56559e-07
-1.18521e-08
3.03878e-07
-1.03366e-08
3.33262e-07
-8.34946e-09
3.51574e-07
-7.0639e-09
3.66225e-07
-4.20168e-09
3.77427e-07
-2.1703e-09
3.80726e-07
0
3.72372e-07
3.02184e-10
3.56722e-07
0
3.40864e-07
0
3.42414e-07
5.1061e-09
4.15802e-07
2.28208e-08
4.90096e-07
4.64211e-08
5.49716e-07
6.73904e-08
4.98571e-07
8.91007e-08
2.86816e-07
1.12292e-07
1.29612e-07
3.66728e-08
4.96249e-10
-7.21171e-09
5.67241e-10
-5.1258e-09
5.29261e-10
-4.28767e-09
-5.08022e-10
-2.21821e-10
-4.58996e-10
-6.00187e-09
3.16501e-11
-1.37415e-08
2.47815e-10
-1.20734e-08
3.67004e-10
-1.03455e-08
4.27287e-10
-8.19873e-09
5.20496e-10
-6.86897e-09
5.36753e-10
-3.87389e-09
5.65137e-10
-1.81806e-09
6.07261e-10
0
6.37328e-10
0
7.17733e-10
0
1.12855e-09
0
3.17501e-09
0
4.67461e-09
0
1.97347e-09
3.67079e-10
2.67196e-09
0
4.82112e-09
0
4.39576e-09
0
0
-2.33186e-09
-2.36241e-09
-3.81763e-09
-5.74834e-10
-5.90024e-09
-3.44156e-10
-4.06442e-09
-2.38563e-12
4.61582e-10
-7.5957e-11
-7.25827e-09
-1.26102e-10
-5.42827e-09
-1.5815e-09
-7.69148e-10
-2.18167e-09
-2.23823e-09
-7.66323e-09
-3.09275e-09
-8.12946e-09
-2.24306e-09
-5.49683e-09
-2.27989e-09
-5.35015e-10
-2.51982e-09
5.37601e-09
-1.65677e-09
1.05618e-08
-9.25747e-10
1.44715e-08
-6.15992e-11
1.85796e-08
-2.18449e-10
2.65086e-08
-4.04529e-09
2.53796e-09
2.92605e-10
3.88148e-09
9.68724e-10
4.15418e-09
0
2.5218e-09
0
2.00612e-10
0
2.76336e-09
-1.63779e-09
-1.21114e-10
-1.17516e-09
2.72784e-11
-2.22824e-09
2.27049e-09
-2.84075e-09
8.37279e-09
-9.16542e-10
7.40892e-09
-8.66491e-10
8.68942e-10
0
4.63042e-12
0
-3.78323e-10
2.59769e-13
-8.73313e-10
-2.52425e-13
-1.38131e-09
-8.22328e-15
-1.58441e-09
-9.80015e-14
-1.07076e-09
-2.41183e-12
1.24027e-10
-4.04375e-12
1.03728e-09
-6.29552e-13
1.37673e-09
-1.87291e-12
7.53062e-10
0
-3.09903e-10
-6.10625e-10
-4.31784e-11
5.3876e-13
6.42504e-10
2.21672e-09
-1.02861e-09
6.50517e-10
-3.48302e-09
0
-2.51096e-09
0
1.74107e-09
-3.61064e-09
3.31143e-10
-4.87013e-15
1.34123e-10
-8.68452e-14
2.24189e-10
-2.40044e-13
8.66271e-10
-6.1459e-14
0
-2.09441e-13
1.06137e-10
0
6.16224e-15
1.1208e-11
2.56643e-13
0
3.53629e-15
1.53893e-17
4.4627e-16
-5.37284e-15
-2.38707e-15
-9.58356e-14
-5.70599e-15
-2.40884e-12
-9.45418e-15
-4.03281e-12
-1.67931e-14
-6.14029e-13
-1.89011e-12
2.6744e-15
-3.83506e-12
2.85903e-15
-3.65474e-10
0
-1.4391e-09
0
-6.1071e-10
0
-4.90755e-10
2.35693e-10
-3.89688e-10
0
-1.31986e-09
2.96846e-10
1.55852e-10
-1.8366e-09
2.21539e-16
-7.09045e-15
9.60067e-16
-8.32642e-14
1.05639e-15
-2.29487e-13
-3.91125e-16
-5.00578e-14
-1.97055e-13
-3.1087e-15
-6.69638e-12
0
3.4564e-12
2.2606e-11
1.07138e-14
6.23438e-12
4.15602e-15
6.97717e-15
-6.5467e-17
-1.81882e-15
-2.25142e-13
-4.06245e-13
-2.45797e-12
-4.17843e-12
-4.32986e-12
-2.11773e-12
-5.71553e-13
1.78023e-13
-6.31589e-13
1.62376e-14
-8.77062e-13
1.87607e-13
-2.88971e-10
9.12218e-11
-1.05186e-09
5.77365e-11
-5.90253e-10
0
-1.23544e-10
0
-9.15366e-11
3.29593e-10
-6.76777e-10
3.71458e-10
1.35484e-11
-9.58049e-10
2.3334e-16
-6.27436e-15
-6.304e-16
-2.35101e-13
-1.9664e-14
-4.72928e-13
-7.66579e-15
-1.15617e-13
0
-6.90897e-16
-6.79803e-13
0
-1.48684e-13
1.42314e-15
-1.234e-14
5.43281e-14
0
1.37075e-14
-8.80534e-15
7.39053e-15
-5.89466e-12
-2.1924e-13
-8.36109e-12
-1.36418e-12
-1.02634e-11
1.45505e-13
-3.78926e-13
1.34373e-12
-4.85938e-13
2.13816e-14
-1.26254e-12
1.2781e-13
-2.37897e-10
0
-3.60657e-10
0
-2.41417e-10
3.14537e-12
-1.40433e-10
1.28471e-10
-3.37104e-10
2.03325e-10
-2.79465e-10
3.19777e-12
0
-1.66392e-10
-1.15138e-14
-7.94131e-15
-8.8787e-14
-3.64346e-13
-6.73953e-14
-3.66273e-13
-2.02811e-15
-9.92952e-14
-2.25477e-15
-4.68226e-16
-2.43064e-15
1.47335e-16
-1.77375e-15
3.40084e-17
-1.56336e-15
9.50757e-15
-1.46145e-13
1.07934e-13
0
1.17336e-13
-8.79849e-12
5.43338e-13
-1.09121e-11
1.10962e-12
-1.39481e-12
9.55014e-13
-6.8463e-14
4.29991e-15
-1.7075e-13
2.11848e-14
-4.31373e-13
1.09475e-13
-5.01557e-13
0
-1.62504e-12
0
-4.72352e-11
0
-6.40136e-11
0
-3.15694e-12
0
-1.38347e-13
1.95959e-13
6.32425e-15
-2.52768e-13
-1.45952e-14
-3.84273e-15
-1.12705e-13
-9.019e-14
-1.76516e-13
-1.74415e-13
-1.38563e-15
-2.94924e-14
-1.5998e-15
-2.58645e-16
-1.61751e-15
1.60802e-16
-2.07761e-15
4.93027e-16
-7.32205e-13
3.767e-13
-5.00263e-12
1.03859e-12
-6.08571e-12
1.95321e-12
-3.53512e-12
8.44339e-13
-4.77205e-13
1.56212e-13
-3.40724e-14
1.13339e-14
-5.11627e-14
8.27451e-15
-5.57895e-14
1.27844e-14
-1.18716e-14
2.61376e-16
0
3.64149e-15
-2.47007e-13
5.99777e-13
-3.94967e-12
5.98811e-12
-2.17957e-12
0
-7.21871e-14
0
-5.91982e-14
1.86558e-13
2.08e-14
-7.3781e-14
-8.65322e-16
-3.44097e-15
-2.89823e-14
-1.62529e-15
-2.53702e-14
-6.63997e-16
-1.35295e-15
-1.45565e-15
-1.49736e-15
-1.17718e-16
-1.62501e-15
2.95638e-16
-2.53216e-13
4.87498e-15
-6.04328e-12
1.05357e-12
-6.29821e-12
2.006e-12
-5.18008e-12
1.54756e-12
-1.66407e-13
4.01333e-13
-1.27249e-14
1.63092e-15
-7.79248e-15
8.54367e-16
-7.62889e-15
2.56957e-15
-5.12966e-16
4.03789e-16
-1.26904e-16
1.24381e-16
0
3.82317e-15
-8.75141e-12
3.33477e-12
-1.46544e-11
1.02941e-11
-2.47475e-11
1.01339e-11
-1.09074e-11
8.52411e-12
-9.49758e-14
2.82714e-12
2.17803e-14
-9.59946e-14
-1.55979e-15
-3.16429e-15
-8.69313e-17
-3.08829e-14
-1.3086e-16
-1.22294e-15
-2.31974e-15
-1.45952e-17
-2.64726e-15
3.27662e-16
0
1.54833e-15
-1.7524e-13
7.69685e-15
-3.51955e-12
3.29218e-13
-4.82927e-12
5.67223e-13
-4.07053e-13
0
-8.53393e-15
3.1109e-19
-1.02335e-14
2.44055e-15
-6.70706e-15
4.19584e-15
-5.90403e-16
2.59019e-15
-2.69397e-16
1.29078e-16
-3.21077e-16
1.50585e-16
-2.6091e-15
6.27738e-15
-2.10923e-11
3.05807e-12
-2.02943e-11
9.5371e-12
-1.84835e-11
8.36417e-12
-1.58288e-11
5.91044e-12
-5.07538e-14
3.17894e-12
2.13673e-14
-5.03792e-14
-7.70383e-14
-3.96785e-14
-4.93776e-14
-9.6675e-14
-7.06217e-16
-1.85953e-15
-1.35214e-15
2.00423e-17
0
6.58687e-16
-1.41503e-14
5.5055e-15
-2.79653e-13
4.68826e-14
-1.33635e-13
0
-8.66795e-15
0
-1.87941e-15
0
-5.25917e-15
5.70869e-16
-8.06205e-15
2.6583e-15
-3.79348e-15
2.78652e-15
-3.33384e-16
3.45004e-16
-2.42106e-16
1.24557e-16
-2.53705e-16
1.20286e-16
0
5.89191e-16
-5.16243e-13
0
-9.99194e-12
0
-1.67379e-11
1.78589e-12
-5.21244e-12
9.07069e-13
-5.51298e-14
0
1.99586e-14
-5.37588e-14
-1.57986e-13
-2.89263e-14
-6.06559e-14
-1.13289e-14
-2.91119e-15
5.49557e-15
-3.56094e-15
5.087e-17
-9.74976e-15
1.89023e-15
-1.85177e-14
5.72189e-15
-2.2938e-15
0
-5.50566e-16
0
-1.75115e-16
2.96536e-17
-3.54053e-16
2.28337e-17
-1.65111e-15
1.3351e-16
-1.50875e-15
2.03581e-16
-3.63473e-16
7.40626e-17
-2.33367e-16
3.98578e-17
-2.20268e-16
1.09529e-16
-2.12546e-16
1.07739e-16
-2.18384e-16
1.0627e-16
-5.19347e-15
8.4514e-17
-3.854e-13
0
-3.68962e-13
0
-4.36586e-14
0
-1.3188e-13
0
4.40535e-14
-1.15596e-13
-2.23323e-13
-2.97369e-15
-1.40672e-13
8.93936e-14
-1.60641e-15
1.07014e-14
-2.25379e-15
7.62395e-17
-3.44396e-15
8.90544e-16
-2.0846e-15
5.63065e-16
-4.38114e-16
7.1741e-17
-2.20739e-16
7.67337e-17
-4.60596e-17
4.51673e-17
-4.76318e-17
8.03551e-18
-6.29362e-17
1.95701e-18
-1.97325e-17
1.1406e-18
-2.82825e-17
1.59507e-19
-8.76027e-17
5.29023e-18
-1.46822e-16
3.67347e-17
-2.04717e-16
7.37064e-17
-1.958e-16
9.48401e-17
-2.08694e-16
8.72756e-17
-3.64203e-16
5.9827e-17
-2.87923e-16
7.62799e-18
-1.0211e-15
2.59611e-18
-4.91529e-14
6.41722e-16
4.48313e-15
-7.11987e-14
-2.42203e-13
1.52401e-13
-1.07887e-14
1.98938e-13
-1.40107e-16
5.00348e-17
-7.86953e-16
1.01008e-16
-7.37626e-16
2.82936e-16
-2.35503e-16
1.16208e-16
-1.24246e-16
2.59648e-17
-5.90175e-17
2.1522e-17
-8.59953e-18
6.28928e-18
-6.03289e-19
2.78554e-18
-2.13903e-19
2.29902e-19
-4.41552e-20
1.00787e-19
-2.36833e-19
3.19218e-20
-8.18506e-18
1.23357e-18
-5.67945e-17
3.44887e-18
-1.54534e-16
3.06908e-17
-2.172e-16
8.32418e-17
-2.16627e-16
9.61973e-17
-2.03598e-16
8.17917e-17
-1.15339e-16
5.52995e-17
-1.13661e-16
3.19055e-17
-3.84885e-16
1.27958e-17
0
-1.10314e-15
-1.75209e-13
3.28845e-13
-8.8631e-17
3.56557e-13
-9.29603e-17
5.1758e-17
-1.8846e-16
6.45154e-17
-1.61276e-16
7.88221e-17
-3.46643e-17
3.87939e-17
-1.19946e-17
3.36504e-18
-2.55924e-18
2.79017e-18
7.60447e-19
7.71123e-19
3.14009e-18
-4.87674e-19
3.49425e-18
-1.90965e-18
2.92933e-18
-2.02862e-18
1.36587e-18
-1.63181e-18
-8.50397e-19
-7.31673e-19
-3.89484e-18
4.37093e-19
-3.73854e-17
1.13988e-18
-8.91215e-17
9.85208e-18
-1.10714e-16
2.12108e-17
-1.05761e-16
2.42948e-17
-9.43354e-17
2.18641e-17
-6.12819e-17
2.13548e-17
-1.66105e-17
6.6183e-18
2.15209e-18
-2.01563e-17
-1.57504e-13
4.87532e-13
-3.79616e-17
5.87216e-13
-5.32773e-17
6.42223e-17
-5.72158e-17
6.52391e-17
-4.75255e-17
6.5311e-17
-3.35778e-18
2.65326e-17
-5.36183e-19
1.53181e-18
2.24863e-18
5.29132e-21
3.8372e-18
-1.67787e-18
4.96423e-18
-2.66613e-18
5.10425e-18
-3.23513e-18
4.55237e-18
-3.13781e-18
3.5139e-18
-2.65001e-18
2.11012e-18
-1.9391e-18
-2.13409e-20
-1.10116e-18
-4.80551e-19
1.04627e-20
-3.57782e-18
7.92121e-19
-8.85299e-18
2.52547e-18
-1.31232e-17
4.61929e-19
-1.61209e-17
7.94547e-19
-1.46542e-17
1.10122e-18
-8.42927e-18
1.20373e-18
8.6417e-19
-4.49631e-18
-1.63596e-13
6.5231e-13
-1.44259e-13
5.82481e-13
-4.8091e-17
7.58129e-15
-5.99964e-17
7.47586e-17
-4.06649e-17
7.55521e-17
5.39848e-22
2.86265e-17
1.39502e-18
-5.36441e-22
3.012e-18
-1.24678e-18
4.12392e-18
-2.45587e-18
4.67084e-18
-3.09844e-18
4.66103e-18
-3.25737e-18
4.2381e-18
-3.0326e-18
3.56837e-18
-2.58013e-18
2.78079e-18
-2.03349e-18
1.95169e-18
-1.4794e-18
1.1839e-18
-9.63633e-19
4.03185e-19
-5.37819e-19
-4.40188e-20
-1.66864e-19
-8.25507e-20
1.64609e-20
-1.56551e-19
4.56524e-20
-3.46078e-19
7.07599e-20
-5.64453e-19
1.28974e-19
1.68018e-19
-7.20635e-19
-1.57831e-13
8.11324e-13
-7.56853e-15
4.06933e-13
-9.01142e-17
1.0975e-16
-1.02806e-16
9.41617e-17
-4.4988e-17
2.1246e-16
-1.69236e-18
3.38136e-17
9.22453e-19
9.0131e-19
1.99329e-18
-9.12287e-19
2.74947e-18
-1.77961e-18
3.10028e-18
-2.23944e-18
3.13492e-18
-2.32052e-18
2.91904e-18
-2.16641e-18
2.53626e-18
-1.86675e-18
2.07525e-18
-1.50067e-18
1.61163e-18
-1.13276e-18
1.19308e-18
-8.06954e-19
8.38951e-19
-5.43619e-19
5.57794e-19
-3.44682e-19
3.63562e-19
-2.04911e-19
2.21114e-19
-1.18786e-19
1.02699e-19
-6.42073e-20
1.46033e-20
-2.65868e-20
-3.3799e-21
-6.43055e-21
-1.28194e-13
1.15553e-13
-1.58151e-16
8.61289e-14
-1.44203e-16
1.03867e-16
-2.14542e-16
3.78487e-16
-6.46227e-17
4.68907e-16
-6.32772e-18
6.40622e-17
-1.89036e-18
7.83136e-18
2.27965e-19
2.8438e-18
9.01028e-19
-2.24296e-19
1.30931e-18
-8.01067e-19
1.5066e-18
-1.05944e-18
1.51835e-18
-1.11435e-18
1.39678e-18
-1.02838e-18
1.19449e-18
-8.65654e-19
9.63512e-19
-6.75115e-19
7.41546e-19
-4.93684e-19
5.49211e-19
-3.41624e-19
3.95114e-19
-2.25268e-19
2.77958e-19
-1.42814e-19
1.89886e-19
-8.76993e-20
1.22471e-19
-5.18759e-20
7.14512e-20
-2.87437e-20
-1.42349e-20
3.70044e-20
-3.38646e-15
3.91756e-16
-2.73301e-16
1.83585e-16
-3.23576e-16
6.27087e-16
-3.35214e-16
8.45735e-16
-9.37849e-17
6.12002e-16
-1.83073e-17
1.09666e-16
-1.16703e-17
2.92142e-17
-7.31952e-18
1.88294e-17
-3.20149e-18
1.04043e-17
-6.461e-19
4.1023e-18
3.14683e-19
1.14512e-18
5.26677e-19
-2.52091e-19
5.86514e-19
-3.82441e-19
5.52767e-19
-3.85508e-19
4.72623e-19
-3.27543e-19
3.77013e-19
-2.50764e-19
2.84462e-19
-1.77426e-19
2.06643e-19
-1.17325e-19
1.46561e-19
-7.36369e-20
1.02129e-19
-4.43759e-20
6.92285e-20
-2.57434e-20
4.41386e-20
-1.4124e-20
-6.957e-21
2.54138e-20
-3.82606e-17
3.6859e-16
-1.57325e-16
2.4574e-16
-3.12852e-16
8.64265e-16
-3.24035e-16
9.73022e-16
-1.0332e-16
6.5649e-16
-3.65516e-17
1.43201e-16
-2.91033e-17
6.67327e-17
-2.23066e-17
4.9688e-17
-1.34323e-17
3.23844e-17
-6.02369e-18
1.65926e-17
-1.73609e-18
6.4308e-18
-1.49784e-19
1.65361e-18
1.58361e-19
2.37261e-19
2.02475e-19
-1.12261e-19
1.93341e-19
-1.27882e-19
1.63672e-19
-1.07899e-19
1.26217e-19
-7.9761e-20
9.16155e-20
-5.28604e-20
6.4064e-20
-3.22796e-20
4.38978e-20
-1.84408e-20
2.96497e-20
-9.88031e-21
1.93182e-20
-4.84008e-21
-1.94549e-21
1.1399e-20
-2.92132e-17
3.37072e-16
-1.37684e-16
2.98659e-16
-2.76118e-16
9.14486e-16
-2.14416e-16
1.02742e-15
-9.1417e-17
5.4504e-16
-5.29983e-17
1.60896e-16
-4.67298e-17
1.08957e-16
-3.89624e-17
8.61568e-17
-2.69769e-17
5.99631e-17
-1.41847e-17
3.49517e-17
-5.28274e-18
1.53727e-17
-1.20048e-18
4.78482e-18
-7.9402e-20
9.05837e-19
5.68315e-20
5.92277e-20
6.67366e-20
-3.91024e-20
6.21382e-20
-3.99967e-20
4.92749e-20
-3.19413e-20
3.55767e-20
-2.12458e-20
2.42101e-20
-1.24496e-20
1.59194e-20
-6.52571e-21
1.03283e-20
-3.00623e-21
6.63191e-21
-1.09411e-21
-1.16886e-22
3.95431e-21
-2.20083e-17
3.84878e-16
-8.22988e-17
2.73094e-16
-1.6947e-16
5.0213e-16
-1.55519e-16
5.76247e-16
-6.88243e-17
2.99379e-16
-5.93698e-17
1.6732e-16
-5.68953e-17
1.40518e-16
-4.93936e-17
1.18617e-16
-3.73428e-17
8.48602e-17
-2.20236e-17
5.36102e-17
-8.95389e-18
2.55799e-17
-2.10395e-18
8.16838e-18
-2.0244e-19
1.42953e-18
1.25667e-20
9.14592e-20
2.03391e-20
-9.69674e-21
2.12073e-20
-1.34643e-20
1.7265e-20
-1.17994e-20
1.23319e-20
-7.82109e-21
8.10425e-21
-4.31773e-21
5.03839e-21
-1.99136e-21
3.0372e-21
-6.89935e-22
1.83111e-21
-5.88114e-23
6.68608e-23
1.08448e-21
-1.50829e-17
7.11244e-16
-2.70882e-17
2.86641e-16
-4.22349e-17
3.7904e-16
-4.90374e-17
3.19682e-16
-4.88356e-17
2.00428e-16
-5.20245e-17
1.6661e-16
-5.45893e-17
1.50211e-16
-5.11999e-17
1.37111e-16
-4.06446e-17
1.04212e-16
-2.5486e-17
6.74383e-17
-1.04371e-17
3.30219e-17
-2.17644e-18
9.97301e-18
-1.65136e-19
1.48717e-18
2.45607e-21
8.84377e-20
5.81729e-21
-2.21135e-21
6.60633e-21
-4.42395e-21
5.46913e-21
-4.12969e-21
3.85469e-21
-2.68576e-21
2.43306e-21
-1.36795e-21
1.41384e-21
-5.15716e-22
7.72217e-22
-7.85084e-23
4.1225e-22
3.16541e-23
4.35483e-23
2.33888e-22
-1.21526e-17
2.99941e-15
-2.0466e-17
2.96467e-16
-2.62549e-17
3.86725e-16
-3.07882e-17
3.2658e-16
-3.5496e-17
2.07623e-16
-3.92395e-17
1.64909e-16
-4.36692e-17
1.52766e-16
-4.39962e-17
1.40472e-16
-3.65522e-17
1.14121e-16
-2.33819e-17
7.39103e-17
-9.15712e-18
3.57063e-17
-1.63121e-18
1.01312e-17
-8.27424e-20
1.30356e-18
4.94689e-22
3.90568e-20
1.62652e-21
-5.50088e-22
1.90046e-21
-1.50498e-21
1.56472e-21
-1.4128e-21
1.06614e-21
-8.76864e-22
6.3558e-22
-3.93196e-22
3.40098e-22
-1.00225e-22
1.64888e-22
1.0271e-23
7.42874e-23
2.17366e-23
1.97345e-23
3.67668e-23
0
1.05667e-14
-2.39122e-14
2.93514e-13
-2.4971e-14
2.57502e-12
-2.15281e-17
1.76467e-12
-2.90953e-17
2.17592e-16
-2.63698e-17
1.64537e-16
-3.04196e-17
1.4981e-16
-2.95335e-17
1.42087e-16
-2.69936e-17
1.15792e-16
-1.73004e-17
7.49264e-17
-6.41928e-18
3.58247e-17
-8.67055e-19
9.24578e-18
-2.31884e-20
7.62922e-19
8.92893e-23
1.01875e-20
4.16726e-22
-1.33984e-22
4.85503e-22
-5.14038e-22
3.86549e-22
-4.7169e-22
2.48633e-22
-2.71255e-22
1.36571e-22
-1.00775e-22
6.48907e-23
-6.76344e-24
2.64824e-23
8.85034e-24
8.44346e-24
9.77818e-24
7.3139e-24
1.45941e-24
0
1.63232e-14
-6.39358e-14
1.3829e-12
-1.58359e-13
3.69394e-12
-1.06371e-13
3.23855e-12
-2.11072e-17
7.23551e-13
-2.06052e-17
1.66334e-16
-1.7204e-17
1.48638e-16
-1.81246e-17
1.42924e-16
-1.58302e-17
1.13073e-16
-1.00207e-17
7.28004e-17
-3.19854e-18
3.18144e-17
-2.79645e-19
6.28119e-18
-3.51618e-21
3.03063e-19
1.00369e-23
1.68633e-21
9.42288e-23
-2.39114e-23
1.03054e-22
-1.83908e-22
7.51691e-23
-1.57542e-22
4.29044e-23
-8.09095e-23
1.9552e-23
-2.25453e-23
6.57577e-24
1.81952e-24
7.91354e-25
4.12631e-24
-2.20375e-24
3.58967e-24
2.39216e-24
-2.76506e-24
1.53816e-15
1.63841e-14
1.99641e-15
1.25957e-12
2.89194e-16
3.73003e-12
-4.00809e-15
3.27748e-12
-6.14186e-18
1.0199e-12
-5.10009e-18
1.67521e-16
-4.15468e-18
1.49874e-16
-5.16894e-18
1.37732e-16
-4.93647e-18
1.04719e-16
-3.08456e-18
6.28287e-17
-7.87842e-19
2.31725e-17
-4.12361e-20
3.19559e-18
-2.21482e-22
8.22813e-20
5.33135e-25
1.7478e-22
1.39763e-23
-3.13431e-24
1.2223e-23
-7.01145e-23
6.45824e-24
-5.25156e-23
1.61566e-24
-2.34106e-23
-1.57582e-24
-4.09704e-24
-3.107e-24
1.16146e-24
-3.03801e-24
1.50215e-24
-2.30626e-24
1.12218e-24
6.73684e-25
-1.50903e-24
1.96283e-15
1.6021e-14
3.74244e-14
5.27807e-13
1.60743e-13
3.64114e-12
1.58728e-13
3.31441e-12
0
5.95883e-13
1.80227e-17
4.74881e-16
7.64421e-18
1.49743e-16
6.52791e-18
1.28335e-16
3.92555e-18
9.10644e-17
1.66622e-18
4.82296e-17
3.14414e-19
1.37268e-17
1.22456e-20
1.14256e-18
4.78077e-23
1.34866e-20
4.18776e-24
1.15312e-23
-1.04886e-24
-1.31584e-23
-3.65588e-24
-2.6916e-23
-4.6356e-24
-1.73624e-23
-4.47454e-24
-6.62085e-24
-3.62117e-24
-4.70362e-25
-2.57694e-24
4.53171e-25
-1.64934e-24
4.53288e-25
-9.60534e-25
2.98825e-25
1.6195e-25
-5.16933e-25
2.17502e-15
1.54355e-14
9.99936e-14
1.28949e-14
2.16335e-13
6.03199e-13
7.31449e-14
1.72137e-13
0
0
0
4.94019e-16
1.73858e-17
1.60591e-16
1.46598e-17
1.1572e-16
9.07732e-18
7.2409e-17
3.51302e-18
3.15347e-17
4.63433e-19
5.98046e-18
8.99878e-21
2.46395e-19
1.35746e-23
1.12854e-21
1.15349e-24
4.09954e-25
-2.5227e-24
-8.94894e-24
-4.04359e-24
-1.01193e-23
-3.72971e-24
-5.65468e-24
-2.77087e-24
-1.84059e-24
-1.79665e-24
8.21813e-27
-1.06268e-24
1.36908e-25
-5.75936e-25
1.15075e-25
-2.88677e-25
6.74216e-26
3.28025e-26
-1.35224e-25
1.31518e-15
1.69179e-14
1.46781e-15
5.84351e-15
1.0828e-14
0
3.80363e-16
0
6.64566e-17
6.73388e-17
5.29114e-17
3.02388e-16
2.56842e-17
1.68638e-16
1.7778e-17
9.56883e-17
9.58448e-18
4.93849e-17
2.63325e-18
1.54746e-17
1.71863e-19
1.56308e-18
1.19935e-21
2.43642e-20
5.80721e-25
3.51394e-23
6.76527e-26
1.89606e-25
-1.94437e-24
-4.34819e-24
-2.26809e-24
-3.69574e-24
-1.75564e-24
-1.79074e-24
-1.12161e-24
-5.02038e-25
-6.31778e-25
8.50931e-27
-3.27425e-25
3.36091e-26
-1.55457e-25
2.44715e-26
-6.83512e-26
1.27065e-26
5.49044e-27
-2.81029e-26
1.52901e-15
1.6028e-14
1.09982e-15
1.05076e-14
2.87242e-16
1.9405e-15
1.3134e-16
9.7013e-16
7.85821e-17
4.98998e-16
5.18236e-17
2.74284e-16
2.87905e-17
1.33639e-16
1.57041e-17
6.44327e-17
6.29605e-18
2.49584e-17
9.56906e-19
4.5388e-18
2.31791e-20
1.84066e-19
4.70656e-23
8.69582e-22
4.96277e-24
4.03519e-25
-2.2267e-25
-4.83812e-25
-1.11854e-24
-1.96975e-24
-9.99074e-25
-1.30759e-24
-6.51606e-25
-5.453e-25
-3.60199e-25
-1.33747e-25
-1.77727e-25
2.3367e-27
-8.08636e-26
6.75648e-27
-3.36697e-26
4.30387e-27
-1.29459e-26
1.96097e-27
7.40673e-28
-4.63907e-27
1.69677e-15
1.03858e-14
1.75167e-15
1.00933e-14
7.36546e-16
4.96775e-15
3.40914e-16
2.29916e-15
1.34461e-16
8.80063e-16
4.85374e-17
2.82623e-16
2.15331e-17
8.93894e-17
9.06947e-18
3.09743e-17
2.2121e-18
7.26894e-18
1.37671e-19
5.70283e-19
9.72471e-22
7.16505e-21
5.65267e-25
9.95673e-24
9.40356e-26
3.34639e-27
-3.74775e-25
-7.09072e-25
-5.39711e-25
-8.40995e-25
-3.80161e-25
-4.49306e-25
-2.05481e-25
-1.59283e-25
-9.64894e-26
-3.4473e-26
-4.10808e-26
3.74791e-28
-1.62345e-26
1.10688e-27
-5.86117e-27
6.155e-28
-1.94416e-27
2.41833e-28
7.80509e-29
-5.97448e-28
1.03913e-15
1.94994e-15
1.77147e-15
3.95738e-15
1.04693e-15
4.00346e-15
4.74344e-16
2.27023e-15
1.59432e-16
8.86453e-16
4.19698e-17
2.40193e-16
1.10965e-17
4.72637e-17
2.73447e-18
8.64349e-18
3.01797e-19
8.64616e-19
5.88644e-21
2.16626e-20
1.12172e-23
7.76073e-23
3.13318e-27
4.46022e-26
1.08702e-27
2.18858e-27
-2.40649e-25
-4.26791e-25
-2.30528e-25
-3.42953e-25
-1.309e-25
-1.51288e-25
-5.73132e-26
-4.49093e-26
-2.21095e-26
-8.50791e-27
-7.87566e-27
2.52572e-29
-2.64339e-27
1.46534e-28
-8.10209e-28
7.01931e-29
-2.26584e-28
2.31116e-29
6.16185e-30
-5.82138e-29
1.47556e-16
3.3465e-17
5.89239e-16
2.51489e-16
6.95751e-16
7.8937e-16
4.03669e-16
8.21935e-16
1.29254e-16
4.25641e-16
2.39676e-17
1.06067e-16
3.1867e-18
1.32969e-17
3.23755e-19
9.92878e-19
1.17444e-20
3.07549e-20
6.43538e-23
2.17097e-22
4.61077e-26
3.0387e-25
1.23207e-26
2.61554e-26
-7.18036e-26
-1.40445e-25
-1.24242e-25
-2.17448e-25
-9.03201e-26
-1.35422e-25
-4.20078e-26
-5.03485e-26
-1.45899e-26
-1.23571e-26
-4.43665e-27
-2.00282e-27
-1.26113e-27
-3.75016e-29
-3.46653e-28
1.57021e-29
-8.71741e-29
6.2646e-30
-1.98214e-29
1.64171e-30
3.41892e-31
-4.09478e-30
2.08852e-18
1.73789e-20
3.49729e-17
1.40778e-18
1.03358e-16
2.22472e-17
1.05159e-16
5.13822e-17
4.28379e-17
4.25711e-17
6.42138e-18
1.2878e-17
4.0046e-19
1.19206e-18
1.24028e-20
3.48491e-20
1.23458e-22
3.18239e-22
2.46074e-25
8.76612e-25
6.68787e-26
8.80372e-28
-9.85276e-27
-2.07993e-26
-5.15868e-26
-1.01568e-25
-5.62225e-26
-1.00729e-25