/*--------------------------------*- C++ -*----------------------------------*\
  =========                 |
  \\      /  F ield         | OpenFOAM: The Open Source CFD Toolbox
   \\    /   O peration     | Website:  https://openfoam.org
    \\  /    A nd           | Version:  9
     \\/     M anipulation  |
\*---------------------------------------------------------------------------*/
FoamFile
{
    format      ascii;
    class       volScalarField;
    location    "5.19";
    object      k;
}
// * * * * * * * * * * * * * * * * * * * * * * * * * * * * * * * * * * * * * //

dimensions      [0 2 -2 0 0 0 0];

internalField   nonuniform List<scalar> 
2268
(
0.000286786
0.000700723
0.00101826
0.00126063
0.00145611
0.0016185
0.00175665
0.00187657
0.0019818
0.00207396
0.00215426
0.00222398
0.00228413
0.00233452
0.00237068
0.00237529
0.00229791
0.00210997
0.00186614
0.00166065
0.00147417
0.00112311
0.000429016
0.000614766
0.0016064
0.0022573
0.00276207
0.00317283
0.00351603
0.00380842
0.00406125
0.00428161
0.00447363
0.00464011
0.00478307
0.00490294
0.00499682
0.0050542
0.0050476
0.00491769
0.00457813
0.00415666
0.00379048
0.00336797
0.0025822
0.00106215
0.000865998
0.00213044
0.00293124
0.00355402
0.00406391
0.00449145
0.00485587
0.00517033
0.00544355
0.00568111
0.00588682
0.00606317
0.00621034
0.00632429
0.00639251
0.00638615
0.00625244
0.00592364
0.00548926
0.00505612
0.00451017
0.00354214
0.00152532
0.00107681
0.00254915
0.00345068
0.00414917
0.00472272
0.00520458
0.00561518
0.00596874
0.00627517
0.00654115
0.00677137
0.00696879
0.00713362
0.00726139
0.00733912
0.00733911
0.00721544
0.00691333
0.00649674
0.00603761
0.00544367
0.00440034
0.00198266
0.00125813
0.00291563
0.00390049
0.00465771
0.00527947
0.00580191
0.00624652
0.00662842
0.00695863
0.00724488
0.00749275
0.00770571
0.0078842
0.00802381
0.00811183
0.00812256
0.0080152
0.00774624
0.0073598
0.00690226
0.00629508
0.00521771
0.00247957
0.00141962
0.00324786
0.00430829
0.00511624
0.00577811
0.00633343
0.00680485
0.00720859
0.00755685
0.00785855
0.0081201
0.00834559
0.00853583
0.00868671
0.00878622
0.00881092
0.00872385
0.00849272
0.00814544
0.00771134
0.00711948
0.00604227
0.00301065
0.0015686
0.00355497
0.00468671
0.00554134
0.0062388
0.00682223
0.00731572
0.0077368
0.00809919
0.00841306
0.00868576
0.00892198
0.00912293
0.00928507
0.00939725
0.00943725
0.00937407
0.00918331
0.00888215
0.00848811
0.00793865
0.00691579
0.00369769
0.00171141
0.00384204
0.00504248
0.00594189
0.00667242
0.00728093
0.00779313
0.00822824
0.00860183
0.00892554
0.00920767
0.00945345
0.00966457
0.00983811
0.00996367
0.0100207
0.00998375
0.00983404
0.00958228
0.00923913
0.00875625
0.00787779
0.00505563
0.000427601
0.00114178
0.0015477
0.00175054
0.00184093
0.00187319
0.00188291
0.00190582
0.00195318
0.00192624
0.00168259
0.00141298
0.00126056
0.00154256
0.00190663
0.00176227
0.00140918
0.000986885
0.000669626
0.000883189
0.00250136
0.00336497
0.00382291
0.00404409
0.00413147
0.00415692
0.00417194
0.00416657
0.00402395
0.00363507
0.00315138
0.00284651
0.00324891
0.00363811
0.00335829
0.00272512
0.00194762
0.00105093
0.00121114
0.00330137
0.00435513
0.00490688
0.00517352
0.00527927
0.00530591
0.00530085
0.00524716
0.005044
0.00463184
0.0041699
0.00391349
0.00422906
0.00438318
0.00400869
0.00329011
0.00241615
0.00125239
0.00156821
0.00400264
0.00515083
0.00573141
0.0060066
0.00611129
0.00612821
0.00609808
0.00600124
0.00576038
0.00535838
0.00495629
0.00476815
0.00495189
0.00489068
0.00441065
0.00363034
0.00269291
0.00136806
0.00194945
0.0047109
0.00588621
0.00645515
0.00671539
0.00680477
0.00680337
0.00674425
0.00660955
0.00634534
0.00597076
0.00563525
0.00549161
0.00553632
0.00530446
0.00470942
0.00385885
0.00285634
0.00142302
0.00239727
0.0054596
0.00660325
0.0071301
0.00735784
0.00742107
0.00739399
0.00730374
0.00713624
0.00685925
0.00651843
0.00624004
0.00610441
0.0060214
0.00565895
0.00494875
0.00401281
0.00293319
0.0014278
0.00305328
0.00627264
0.00731874
0.00777765
0.00795961
0.00798884
0.00793083
0.00780867
0.007613
0.00733035
0.00701824
0.0067735
0.00661365
0.00642302
0.00595988
0.00514485
0.00411473
0.00293687
0.00139934
0.0044264
0.00717018
0.00803525
0.00840652
0.00853445
0.00852425
0.00843211
0.00827848
0.00805837
0.0077727
0.00747652
0.00723616
0.00703051
0.00675094
0.00621007
0.00531038
0.00418738
0.00289957
0.00135455
0.0018938
0.00424638
0.00555688
0.00652736
0.00730897
0.00795489
0.00849352
0.00894738
0.00933574
0.00967301
0.00996898
0.0102296
0.0104572
0.0106502
0.0107979
0.0108845
0.0108911
0.0108046
0.0106304
0.0103735
0.0100117
0.00943167
0.00827013
0.00212603
0.00474362
0.00620046
0.00726658
0.00811496
0.00880687
0.00937317
0.00984305
0.0102434
0.0105934
0.0109045
0.0111829
0.0114318
0.0116502
0.0118313
0.0119636
0.0120312
0.0120219
0.011938
0.0117826
0.0115601
0.0112387
0.0107228
0.00234726
0.00519684
0.00680294
0.00796523
0.00887919
0.0096177
0.0102064
0.0106845
0.0110911
0.0114513
0.0117763
0.012072
0.0123426
0.0125901
0.0128135
0.0130035
0.0131421
0.0132078
0.013203
0.0131183
0.0129872
0.0128227
0.0125938
0.00263343
0.00561991
0.00735369
0.00862207
0.00957572
0.0103765
0.0109922
0.0114704
0.0118794
0.0122517
0.0125937
0.0129095
0.0132049
0.0134872
0.0137647
0.0140333
0.0142665
0.0144004
0.0144753
0.0144079
0.0143168
0.0142452
0.0141829
0.00301139
0.00611372
0.00787825
0.00918592
0.0101688
0.0110645
0.0117297
0.012156
0.0125389
0.012931
0.0133208
0.0136852
0.0140222
0.0143341
0.0146549
0.014995
0.0152808
0.0153759
0.0156044
0.0156582
0.0155541
0.0155108
0.0155408
0.00292485
0.00627265
0.00823835
0.00974724
0.0105696
0.0115948
0.0124515
0.0127887
0.0130852
0.0134646
0.0138822
0.0142945
0.0146771
0.0150353
0.0154188
0.0158499
0.0161229
0.0161564
0.0163388
0.0166062
0.0166286
0.0164625
0.0164377
0.00280522
0.00616053
0.00820103
0.00967044
0.010671
0.0116093
0.0123973
0.0129716
0.0134324
0.0138798
0.014324
0.0147491
0.0151514
0.0155416
0.0159486
0.0163753
0.0166471
0.0166519
0.0167943
0.0169654
0.0170153
0.0169479
0.0169586
0.00280291
0.00628168
0.00828262
0.00974448
0.010829
0.0117295
0.0125368
0.0131894
0.0137389
0.0142422
0.0147158
0.0151531
0.0155549
0.0159235
0.0162702
0.016592
0.0168362
0.0169586
0.0171027
0.0172136
0.01728
0.0172915
0.0171705
0.00285948
0.00639994
0.0084231
0.0098862
0.0109728
0.0118702
0.0126689
0.0133648
0.0139709
0.014513
0.0150034
0.0154425
0.0158305
0.0161701
0.0164698
0.0167388
0.0169738
0.0171677
0.0173479
0.0174837
0.0175304
0.0174512
0.0172963
0.00297943
0.00656429
0.00856388
0.0100034
0.0111024
0.0120049
0.0127971
0.0135052
0.0141364
0.0146991
0.0151999
0.0156404
0.0160215
0.0163479
0.0166304
0.0168797
0.0171032
0.0173046
0.0174841
0.0176094
0.0176269
0.0175394
0.017407
0.00309438
0.00672994
0.00870404
0.0101212
0.0112253
0.0121358
0.0129281
0.0136376
0.0142747
0.014844
0.0153487
0.0157903
0.0161707
0.016496
0.0167755
0.0170179
0.01723
0.0174165
0.0175731
0.0176733
0.017685
0.0176204
0.0175139
0.00319612
0.00688511
0.00884164
0.0102412
0.0113456
0.0122633
0.0130588
0.0137674
0.0144032
0.0149717
0.0154757
0.0159172
0.0162996
0.0166283
0.01691
0.017151
0.0173565
0.0175294
0.0176656
0.0177492
0.0177657
0.0177229
0.0176381
0.0032831
0.00702693
0.00897468
0.0103613
0.0114634
0.0123847
0.0131828
0.0138903
0.0145232
0.0150885
0.0155903
0.0160319
0.0164171
0.0167504
0.0170366
0.01728
0.0174841
0.0176505
0.0177766
0.0178551
0.0178801
0.0178552
0.0177882
0.00335471
0.0071541
0.0091002
0.0104781
0.011576
0.0124976
0.0132963
0.0140026
0.0146327
0.0151955
0.0156961
0.0161391
0.0165282
0.0168672
0.0171597
0.0174087
0.0176164
0.0177838
0.01791
0.017992
0.0180277
0.0180185
0.0179674
0.00341207
0.00726525
0.00921478
0.0105871
0.0116805
0.0126005
0.0133985
0.0141036
0.0147323
0.0152944
0.0157962
0.0162425
0.0166373
0.0169838
0.0172848
0.0175425
0.0177584
0.0179332
0.0180668
0.0181582
0.0182068
0.0182128
0.0181772
0.00345675
0.00735927
0.00931469
0.0106841
0.0117743
0.0126924
0.0134898
0.0141947
0.0148239
0.0153879
0.0158935
0.0163458
0.0167487
0.017105
0.0174171
0.0176865
0.0179145
0.0181015
0.0182477
0.0183529
0.0184166
0.0184387
0.0184192
0.00349226
0.00743492
0.00939718
0.0107662
0.0118551
0.0127728
0.0135708
0.0142775
0.0149099
0.0154786
0.015991
0.0164522
0.0168659
0.0172348
0.0175607
0.017845
0.0180885
0.0182916
0.0184543
0.0185765
0.0186579
0.018698
0.0186963
0.00352586
0.00749237
0.00946133
0.010832
0.0119218
0.0128412
0.0136422
0.0143534
0.0149918
0.0155686
0.016091
0.0165642
0.0169918
0.0173762
0.017719
0.0180214
0.0182837
0.0185063
0.018689
0.0188315
0.0189333
0.0189937
0.0190121
0.00355624
0.00753255
0.00950717
0.0108811
0.011974
0.0128978
0.0137046
0.0144232
0.0150711
0.0156592
0.0161951
0.0166837
0.0171286
0.0175319
0.017895
0.0182188
0.0185035
0.0187491
0.0189552
0.0191213
0.0192466
0.0193304
0.0193717
0.00357791
0.00755573
0.00953517
0.0109136
0.0120121
0.0129428
0.0137585
0.014488
0.0151488
0.015752
0.016305
0.0168128
0.0172786
0.0177046
0.0180918
0.0184409
0.0187518
0.0190242
0.0192575
0.0194508
0.0196033
0.0197137
0.0197812
0.00358998
0.00756264
0.00954621
0.0109305
0.0120367
0.0129773
0.0138051
0.0145489
0.0152263
0.0158484
0.0164226
0.0169536
0.0174446
0.0178974
0.018313
0.0186917
0.0190332
0.0193368
0.0196015
0.0198263
0.0200098
0.0201508
0.020248
0.00359206
0.00755414
0.00954147
0.010933
0.0120492
0.0130025
0.0138456
0.0146073
0.0153053
0.0159504
0.01655
0.0171088
0.0176296
0.0181141
0.018563
0.0189763
0.0193533
0.019693
0.0199942
0.0202552
0.0204744
0.0206503
0.0207814
0.00358423
0.00753143
0.0095225
0.0109226
0.0120511
0.0130199
0.0138817
0.0146652
0.0153877
0.0160603
0.0166901
0.0172815
0.0178374
0.018359
0.0188468
0.0193004
0.0197188
0.0201005
0.0204436
0.0207464
0.0210067
0.0212226
0.0213921
0.00356775
0.00749632
0.00949108
0.0109012
0.0120442
0.0130316
0.0139155
0.0147246
0.0154761
0.0161809
0.016846
0.0174756
0.0180724
0.0186374
0.0191706
0.0196711
0.0201376
0.0205679
0.0209598
0.0213108
0.0216183
0.0218799
0.0220933
0.00354404
0.00745082
0.00944917
0.0108707
0.0120305
0.0130394
0.0139491
0.014788
0.0155731
0.0163153
0.0170214
0.0176954
0.0183397
0.0189551
0.0195411
0.0200964
0.0206188
0.0211057
0.0215542
0.021961
0.0223229
0.022637
0.0229005
0.00351425
0.00739671
0.00939865
0.010833
0.0120121
0.0130456
0.0139849
0.0148579
0.0156818
0.016467
0.0172203
0.0179456
0.0186451
0.019319
0.0199665
0.0205855
0.0211732
0.0217262
0.0222405
0.0227121
0.0231371
0.0235116
0.0238325
0.0034793
0.00733548
0.00934118
0.0107899
0.0119908
0.0130524
0.0140252
0.0149371
0.015805
0.0166395
0.017447
0.0182315
0.0189948
0.0197367
0.0204557
0.0211492
0.0218133
0.0224435
0.0230348
0.023582
0.0240801
0.0245245
0.0249106
0.00343969
0.00726805
0.00927804
0.010743
0.0119686
0.0130617
0.0140723
0.0150282
0.0159461
0.0168365
0.017706
0.0185585
0.0193954
0.0202163
0.0210189
0.0217996
0.0225534
0.0232744
0.023956
0.0245916
0.0251749
0.0256996
0.0261603
0.00339436
0.00719429
0.00920996
0.0106936
0.0119469
0.0130753
0.0141284
0.0151336
0.0161078
0.0170616
0.0180018
0.0189322
0.0198542
0.0207668
0.0216671
0.0225502
0.0234097
0.0242377
0.0250259
0.0257654
0.026448
0.0270654
0.0276115
0.00334006
0.00711285
0.00913703
0.0106424
0.011927
0.0130948
0.0141952
0.0152554
0.0162927
0.017318
0.0183384
0.019358
0.020378
0.0213972
0.0224118
0.0234156
0.0244001
0.0253552
0.0262695
0.0271317
0.0279303
0.0286553
0.0292989
0.00327666
0.00702243
0.009059
0.0105899
0.0119095
0.0131212
0.0142738
0.0153952
0.0165027
0.0176081
0.0187191
0.0198403
0.0209732
0.0221163
0.0232649
0.0244112
0.0255443
0.0266506
0.0277152
0.0287227
0.0296577
0.0305074
0.0312623
0.00321786
0.00692384
0.00897575
0.0105358
0.0118947
0.0131548
0.014365
0.0155536
0.0167388
0.0179334
0.0191461
0.0203825
0.0216448
0.0229315
0.0242373
0.0255522
0.0268622
0.0281495
0.0293939
0.0305745
0.0316707
0.0326658
0.0335479
0.00315592
0.00681964
0.00888784
0.0104804
0.0118826
0.0131959
0.0144691
0.015731
0.0170012
0.0182939
0.0196196
0.0209856
0.0223953
0.0238479
0.0253373
0.0268515
0.0283727
0.0298775
0.0313386
0.0327273
0.0340156
0.035181
0.0362084
0.00308873
0.00670875
0.00879387
0.0104222
0.0118723
0.0132437
0.014585
0.015926
0.0172879
0.0186872
0.020137
0.021647
0.0232231
0.0248656
0.0265685
0.0283178
0.0300913
0.0318585
0.0335829
0.0352243
0.0367439
0.0381103
0.0393039
0.00301278
0.0065853
0.00868962
0.0103587
0.0118623
0.0132969
0.0147111
0.0161359
0.0175949
0.0191078
0.0206914
0.0223591
0.0241202
0.0259776
0.0279263
0.0299511
0.0320252
0.0341104
0.0361575
0.0381106
0.0399134
0.0415201
0.0429045
0.00292157
0.00643945
0.00856861
0.0102867
0.011851
0.0133542
0.0148449
0.0163563
0.0179155
0.0195465
0.0212709
0.0231073
0.0250698
0.0271658
0.029393
0.0317368
0.0341677
0.036639
0.0390869
0.0414323
0.0435902
0.0454892
0.0470933
0.00280463
0.00625832
0.00842383
0.0102041
0.0118382
0.0134147
0.0149834
0.0165813
0.0182402
0.0199897
0.0218575
0.0238686
0.0260439
0.0283974
0.0309326
0.0336391
0.0364887
0.0394301
0.0423835
0.0452373
0.047856
0.0501186
0.0519745
0.00264853
0.00602868
0.00825068
0.0101121
0.0118264
0.0134788
0.0151233
0.016803
0.0185563
0.0204192
0.0224265
0.0246108
0.0270016
0.0296219
0.0324853
0.0355922
0.0389244
0.0424363
0.0460387
0.0495767
0.052824
0.0555489
0.0576856
0.00254302
0.00575938
0.00805432
0.010019
0.0118218
0.0135476
0.01526
0.0170113
0.0188477
0.0208123
0.022947
0.0252929
0.0278889
0.0307698
0.0339643
0.0374924
0.0413619
0.0455564
0.0500026
0.054506
0.0586764
0.0619949
0.0644144
0.00430003
0.00564383
0.0078595
0.00993768
0.0118315
0.0136206
0.0153861
0.017193
0.0190955
0.0211431
0.0233842
0.0258677
0.0286421
0.0317556
0.0352559
0.0391931
0.0436223
0.0485984
0.0541335
0.0600643
0.0657556
0.0698052
0.0724156
0.0183989
0.00684152
0.00767934
0.00986669
0.0118546
0.0136901
0.0154889
0.0173314
0.0192788
0.0213848
0.0237027
0.0262872
0.0291951
0.0324867
0.0362293
0.0405083
0.0454448
0.0512187
0.0580652
0.0661412
0.0748309
0.0795543
0.0820009
0.0840488
0.0143685
0.00772404
0.00981404
0.0118783
0.0137371
0.0155493
0.017408
0.0193774
0.0215135
0.0238717
0.0265099
0.0294898
0.0328789
0.0367582
0.0412391
0.0465008
0.0528601
0.0609066
0.0717988
0.0880026
0.0920851
0.093428
0.00585355
0.00484333
0.00465469
0.00531729
0.0101385
0.0098296
0.00969499
0.00974823
0.0123375
0.0121767
0.0120509
0.0119738
0.013992
0.0138544
0.0137096
0.0135787
0.0154354
0.0152663
0.0150324
0.0148326
0.0162927
0.0160905
0.0159017
0.0157114
0.0167797
0.0167096
0.0165666
0.0163564
0.0170409
0.0169524
0.0168086
0.0166602
0.0171777
0.017091
0.0169892
0.0168775
0.0172948
0.0172172
0.0171317
0.0170357
0.0174136
0.0173423
0.017263
0.0171751
0.0175492
0.017484
0.0174104
0.0173281
0.0177099
0.017651
0.0175831
0.0175064
0.0178996
0.0178471
0.0177854
0.0177146
0.0181202
0.0180744
0.0180193
0.0179549
0.0183739
0.0183354
0.0182874
0.01823
0.0186638
0.0186335
0.0185935
0.0185439
0.0189942
0.0189731
0.0189421
0.0189014
0.0193703
0.0193596
0.019339
0.0193083
0.0197986
0.0197997
0.0197906
0.0197713
0.0202867
0.0203012
0.0203052
0.0202986
0.020844
0.0208736
0.0208923
0.0209001
0.0214819
0.0215284
0.0215637
0.0215875
0.0222138
0.0222795
0.0223334
0.0223753
0.0230559
0.0231433
0.0232181
0.0232801
0.0240272
0.0241389
0.024237
0.0243214
0.0251497
0.0252888
0.0254132
0.0255226
0.0264496
0.0266196
0.0267733
0.0269107
0.0279576
0.0281622
0.0283488
0.0285172
0.0297088
0.0299521
0.0301751
0.0303777
0.0317439
0.0320302
0.0322933
0.0325331
0.0341093
0.0344431
0.0347497
0.0350295
0.0368582
0.0372435
0.0375968
0.0379185
0.0400508
0.0404916
0.0408937
0.0412584
0.0437568
0.0442558
0.0447077
0.0451146
0.0480577
0.0486161
0.0491162
0.0495618
0.0530534
0.0536681
0.0542102
0.0546864
0.0588692
0.0595286
0.060098
0.0605883
0.0656646
0.0663399
0.0669067
0.0673824
0.0736352
0.0742664
0.0747769
0.0751918
0.0829874
0.083469
0.0838406
0.0841314
0.0938508
0.0940398
0.094177
0.0942799
0.0075091
0.00862027
0.00914406
0.00936602
0.00940276
0.00932645
0.00917889
0.00897652
0.00872201
0.00842885
0.0081364
0.0078653
0.0075711
0.00716392
0.00652551
0.0055336
0.00428683
0.00285064
0.00126376
0.0100273
0.0103691
0.010559
0.0106014
0.0105176
0.0103533
0.0101337
0.00987163
0.00957552
0.00925605
0.00892592
0.00857842
0.00817365
0.00765768
0.0069499
0.00593953
0.00465988
0.00317842
0.00134667
0.0119114
0.0118992
0.0118765
0.0117918
0.0116029
0.0113653
0.0110769
0.0107523
0.0104067
0.0100482
0.00967859
0.00928321
0.00882224
0.00825854
0.00753899
0.00658065
0.00538628
0.00391178
0.00184504
0.0134196
0.0132353
0.0130991
0.0129647
0.0126744
0.0123936
0.0120219
0.0116137
0.011205
0.0108043
0.0104133
0.010011
0.00954533
0.00899561
0.0083256
0.00746107
0.00637826
0.00483887
0.00250909
0.0145926
0.0143121
0.0141291
0.0139844
0.0136096
0.0134056
0.0129447
0.0124068
0.011913
0.0114621
0.0110456
0.0106265
0.0101513
0.00958803
0.00890034
0.00803238
0.00701652
0.00560865
0.00325226
0.0154426
0.0151737
0.0149694
0.0147787
0.0144018
0.0140948
0.013611
0.0130086
0.012458
0.0119558
0.0114689
0.010948
0.0103893
0.00977475
0.00907584
0.00827521
0.00741238
0.005675
0.0026706
0.0161195
0.0157956
0.015583
0.0154496
0.0149902
0.0146408
0.0141116
0.0134922
0.0129169
0.0123727
0.0118037
0.0112003
0.0105778
0.00990122
0.00917195
0.00841888
0.00745437
0.00545483
0.00255718
0.0164391
0.0161393
0.0159059
0.0157091
0.0153269
0.0149444
0.014427
0.0138628
0.0132918
0.0127134
0.0120832
0.0114185
0.0107239
0.00998529
0.00920147
0.00835558
0.00729575
0.00572474
0.00284982
0.016676
0.0163838
0.0161139
0.0158313
0.0154667
0.015061
0.0146008
0.0141047
0.0135558
0.0129491
0.0122879
0.0115791
0.010828
0.010036
0.00919418
0.00828388
0.00720498
0.00572276
0.00297569
0.0168589
0.0165774
0.0162837
0.015962
0.0155939
0.0151929
0.014761
0.0142967
0.0137488
0.0131245
0.0124439
0.0116954
0.0108978
0.0100545
0.00914914
0.00816247
0.00701027
0.00549289
0.00275623
0.0170145
0.0167477
0.0164492
0.0161175
0.015755
0.0153608
0.0149357
0.0144708
0.0139148
0.0132854
0.0125811
0.0117908
0.010943
0.0100391
0.00906157
0.0079796
0.00670517
0.00506322
0.00233668
0.0171777
0.016923
0.0166296
0.0163008
0.0159428
0.0155512
0.0151227
0.0146446
0.0140843
0.0134419
0.0127141
0.0119006
0.0110119
0.0100432
0.00897214
0.00775569
0.00630996
0.00451233
0.00197009
0.017365
0.0171212
0.0168356
0.0165112
0.0161535
0.0157595
0.0153245
0.0148343
0.0142651
0.013612
0.0128808
0.012063
0.0111517
0.0101354
0.00898805
0.0076606
0.00607539
0.00419104
0.001894
0.0175825
0.01735
0.0170727
0.0167531
0.0163946
0.0159961
0.0155535
0.015053
0.0144788
0.0138282
0.0131039
0.0122925
0.0113781
0.0103486
0.00918423
0.00784469
0.00627628
0.00443438
0.00205096
0.0178329
0.0176128
0.0173454
0.0170325
0.0166757
0.0162752
0.0158268
0.015321
0.0147476
0.0141037
0.0133873
0.0125864
0.011687
0.0106806
0.0095547
0.00828112
0.0068121
0.00502223
0.00240563
0.0181191
0.0179131
0.0176579
0.0173544
0.0170036
0.0166052
0.016156
0.0156498
0.0150802
0.0144432
0.0137351
0.0129472
0.0120704
0.0110997
0.0100276
0.00883224
0.00745503
0.00570772
0.00276016
0.0184455
0.0182558
0.0180151
0.0177241
0.0173829
0.016991
0.0165458
0.0160434
0.0154793
0.0148496
0.0141503
0.0133753
0.0125189
0.0115775
0.010544
0.00939524
0.00805919
0.00629401
0.00306064
0.0188173
0.0186464
0.0184229
0.0181469
0.0178184
0.0174364
0.0169989
0.0165031
0.0159456
0.0153231
0.0146316
0.0138664
0.013023
0.0120968
0.0110778
0.00993672
0.00858723
0.00674496
0.0032681
0.0192405
0.019091
0.0188871
0.0186287
0.0183153
0.0179458
0.0175183
0.0170307
0.0164802
0.0158636
0.0151773
0.0144168
0.013577
0.0126511
0.0116244
0.0104602
0.0090602
0.00711826
0.0034046
0.019722
0.0195967
0.0194149
0.0191762
0.0188799
0.0185246
0.0181086
0.0176298
0.0170856
0.016473
0.0157881
0.0150262
0.0141808
0.0132419
0.0121901
0.0109815
0.00950732
0.00744609
0.0035223
0.0202701
0.0201717
0.0200145
0.0197978
0.0195202
0.0191804
0.0187765
0.0183064
0.0177675
0.0171564
0.016469
0.0156995
0.01484
0.0138775
0.012788
0.0115208
0.00995717
0.00775728
0.00365482
0.0208947
0.0208264
0.0206965
0.0205036
0.0202463
0.019923
0.0195317
0.0190699
0.0185348
0.0179227
0.0172287
0.0164462
0.0155656
0.0145713
0.0134354
0.0121018
0.0104427
0.00809803
0.00381871
0.0216082
0.0215733
0.0214732
0.0213062
0.0210707
0.0207649
0.0203864
0.0199326
0.0194
0.0187843
0.0180801
0.0172797
0.0163721
0.0153399
0.0141525
0.0127502
0.0110008
0.00853145
0.00403825
0.022425
0.0224269
0.0223593
0.0222205
0.0220086
0.0217214
0.0213563
0.02091
0.0203786
0.0197573
0.0190396
0.018217
0.0172773
0.016202
0.0149593
0.0134886
0.0116582
0.00909661
0.00432527
0.023362
0.0234045
0.0233728
0.0232647
0.0230783
0.022811
0.0224599
0.0220213
0.0214904
0.0208617
0.0201276
0.0192786
0.0183016
0.0171771
0.015873
0.0143302
0.0124207
0.00977337
0.00466991
0.0244393
0.0245268
0.0245343
0.0244598
0.0243011
0.0240555
0.0237195
0.0232889
0.0227582
0.0221206
0.0213676
0.0204884
0.0194687
0.0182881
0.016914
0.0152873
0.0132788
0.0105052
0.00507947
0.0256806
0.0258176
0.0258682
0.0258303
0.0257018
0.0254797
0.0251604
0.0247386
0.0242081
0.0235608
0.0227868
0.0218738
0.0208058
0.0195609
0.0181054
0.0163785
0.0142452
0.0112946
0.00550583
0.0271132
0.0273047
0.0274022
0.027404
0.0273083
0.027112
0.0268109
0.0263994
0.0258698
0.0252127
0.0244162
0.023466
0.0223438
0.0210255
0.0194746
0.0176268
0.0153374
0.0121588
0.0059289
0.0287687
0.0290194
0.0291675
0.0292121
0.0291516
0.0289833
0.0287027
0.0283033
0.0277762
0.0271101
0.0262908
0.0253009
0.024119
0.0227172
0.0210551
0.0190618
0.0165797
0.0131173
0.00634358
0.0306828
0.0309973
0.0311993
0.0312891
0.0312661
0.0311281
0.0308703
0.0304856
0.0299635
0.0292906
0.0284496
0.0274192
0.0261734
0.0246787
0.0228883
0.0207228
0.018008
0.0142042
0.00678744
0.032896
0.0332779
0.033536
0.0336727
0.0336888
0.033583
0.0333507
0.0329839
0.0324709
0.0317952
0.030936
0.0298669
0.0285555
0.0269606
0.0250263
0.0226612
0.0196722
0.0154687
0.00731779
0.0354536
0.035905
0.0362199
0.0364037
0.0364595
0.0363874
0.0361832
0.0358386
0.0353399
0.034668
0.0337972
0.0326952
0.031321
0.0296231
0.0275324
0.0249416
0.0216342
0.0169619
0.00793929
0.038406
0.0389266
0.0392967
0.0395259
0.0396207
0.0395829
0.0394096
0.0390918
0.0386146
0.0379555
0.0370841
0.0359604
0.0345331
0.0327366
0.0304837
0.0276447
0.0239713
0.0187442
0.00865713
0.041809
0.0423954
0.0428159
0.0430864
0.0432173
0.0432135
0.0430732
0.0427876
0.0423405
0.0417065
0.0408501
0.039723
0.0382616
0.0363824
0.0339736
0.0308732
0.0267879
0.0209083
0.00954025
0.0457252
0.046369
0.0468313
0.0471356
0.0472978
0.0473258
0.0472199
0.0469719
0.0465648
0.045971
0.0451503
0.0440463
0.0425818
0.0406521
0.0381132
0.0347567
0.0302242
0.0235864
0.0106877
0.0502242
0.0509111
0.0514014
0.0517283
0.0519139
0.0519698
0.0518985
0.0516929
0.0513361
0.0507995
0.0500397
0.0489935
0.047571
0.0456442
0.0430297
0.0394553
0.0344635
0.0269507
0.0121701
0.0553845
0.0560916
0.0565902
0.0569244
0.0571227
0.0572002
0.0571618
0.057002
0.056705
0.0562429
0.0555715
0.0546246
0.0533027
0.051457
0.0488613
0.0451608
0.0397492
0.0312453
0.0140807
0.0612945
0.061988
0.0624684
0.0627906
0.0629878
0.0630784
0.0630688
0.0629556
0.0627252
0.0623526
0.0617963
0.060992
0.0598389
0.0581763
0.055742
0.0520903
0.0464069
0.0368544
0.0166163
0.0680519
0.0686851
0.0691147
0.0694018
0.0695822
0.0696749
0.0696873
0.069618
0.0694566
0.0691827
0.0687618
0.0681383
0.0672211
0.0658563
0.0637715
0.0604535
0.0548516
0.0444137
0.0202293
0.0757595
0.0762747
0.0766165
0.0768444
0.0769909
0.0770731
0.077098
0.0770656
0.076969
0.0767942
0.0765169
0.0760964
0.0754645
0.0744989
0.0729651
0.0703666
0.065513
0.0549456
0.0255672
0.0845171
0.0848533
0.0850725
0.0852189
0.0853155
0.0853739
0.0853992
0.0853919
0.0853487
0.0852623
0.0851194
0.0848985
0.0845622
0.084042
0.0831969
0.0816901
0.0785382
0.0698829
0.0339757
0.0944122
0.0945243
0.0945968
0.0946457
0.094679
0.0947005
0.0947121
0.0947142
0.094706
0.0946858
0.0946505
0.0945951
0.0945117
0.0943869
0.0941932
0.093857
0.0930736
0.0897372
0.0471403
)
;

boundaryField
{
    leftWall
    {
        type            kqRWallFunction;
        value           nonuniform List<scalar> 
50
(
0.000286786
0.000614766
0.000865998
0.00107681
0.00125813
0.00141962
0.0015686
0.00171141
0.0018938
0.00212603
0.00234726
0.00263343
0.00301139
0.00292485
0.00280522
0.00280291
0.00285948
0.00297943
0.00309438
0.00319612
0.0032831
0.00335471
0.00341207
0.00345675
0.00349226
0.00352586
0.00355624
0.00357791
0.00358998
0.00359206
0.00358423
0.00356775
0.00354404
0.00351425
0.0034793
0.00343969
0.00339436
0.00334006
0.00327666
0.00321786
0.00315592
0.00308873
0.00301278
0.00292157
0.00280463
0.00264853
0.00254302
0.00430003
0.0183989
0.0840488
)
;
    }
    rightWall
    {
        type            kqRWallFunction;
        value           nonuniform List<scalar> 
50
(
0.000669626
0.00105093
0.00125239
0.00136806
0.00142302
0.0014278
0.00139934
0.00135455
0.00126376
0.00134667
0.00184504
0.00250909
0.00325226
0.0026706
0.00255718
0.00284982
0.00297569
0.00275623
0.00233668
0.00197009
0.001894
0.00205096
0.00240563
0.00276016
0.00306064
0.0032681
0.0034046
0.0035223
0.00365482
0.00381871
0.00403825
0.00432527
0.00466991
0.00507947
0.00550583
0.0059289
0.00634358
0.00678744
0.00731779
0.00793929
0.00865713
0.00954025
0.0106877
0.0121701
0.0140807
0.0166163
0.0202293
0.0255672
0.0339757
0.0471403
)
;
    }
    lowerWall
    {
        type            kqRWallFunction;
        value           nonuniform List<scalar> 
62
(
0.000286786
0.000700723
0.00101826
0.00126063
0.00145611
0.0016185
0.00175665
0.00187657
0.0019818
0.00207396
0.00215426
0.00222398
0.00228413
0.00233452
0.00237068
0.00237529
0.00229791
0.00210997
0.00186614
0.00166065
0.00147417
0.00112311
0.000429016
0.000429016
0.00106215
0.00152532
0.00198266
0.00247957
0.00301065
0.00369769
0.00505563
0.00585355
0.00484333
0.00465469
0.00531729
0.000427601
0.000883189
0.00121114
0.00156821
0.00194945
0.00239727
0.00305328
0.0044264
0.000427601
0.00114178
0.0015477
0.00175054
0.00184093
0.00187319
0.00188291
0.00190582
0.00195318
0.00192624
0.00168259
0.00141298
0.00126056
0.00154256
0.00190663
0.00176227
0.00140918
0.000986885
0.000669626
)
;
    }
    atmosphere
    {
        type            inletOutlet;
        inletValue      uniform 0.1;
        value           nonuniform List<scalar> 
46
(
0.1
0.0143685
0.00772404
0.00981404
0.0118783
0.0137371
0.0155493
0.017408
0.0193774
0.0215135
0.0238717
0.0265099
0.0294898
0.0328789
0.0367582
0.0412391
0.0465008
0.0528601
0.0609066
0.0717988
0.1
0.1
0.1
0.1
0.1
0.1
0.1
0.1
0.1
0.1
0.1
0.1
0.1
0.1
0.1
0.1
0.1
0.1
0.1
0.1
0.1
0.1
0.1
0.1
0.1
0.0471403
)
;
    }
    defaultFaces
    {
        type            empty;
    }
}


// ************************************************************************* //
