/*--------------------------------*- C++ -*----------------------------------*\
  =========                 |
  \\      /  F ield         | OpenFOAM: The Open Source CFD Toolbox
   \\    /   O peration     | Website:  https://openfoam.org
    \\  /    A nd           | Version:  9
     \\/     M anipulation  |
\*---------------------------------------------------------------------------*/
FoamFile
{
    format      ascii;
    class       volScalarField;
    location    "5.62";
    object      k;
}
// * * * * * * * * * * * * * * * * * * * * * * * * * * * * * * * * * * * * * //

dimensions      [0 2 -2 0 0 0 0];

internalField   nonuniform List<scalar> 
2268
(
0.000240244
0.000575994
0.000834932
0.0010362
0.00120089
0.00133963
0.00145895
0.00156295
0.00165423
0.00173448
0.00180687
0.00187385
0.00193343
0.0019824
0.00201146
0.00199661
0.00188265
0.00167879
0.00148739
0.00135729
0.00120783
0.000969212
0.000429337
0.000511259
0.00133896
0.00187979
0.00230562
0.00265528
0.00294953
0.00320188
0.00342125
0.00361366
0.00378315
0.00393235
0.00406449
0.00417836
0.00426661
0.00431066
0.00427303
0.00409413
0.00374657
0.00338365
0.00308372
0.00274991
0.00214944
0.000977938
0.000720771
0.00178732
0.00245612
0.00298368
0.00341895
0.0037858
0.00409978
0.00437165
0.00460899
0.00481709
0.00499943
0.00515901
0.00529389
0.00539501
0.00544237
0.00540069
0.00522266
0.0048921
0.00452103
0.00416136
0.00371806
0.00295353
0.00136724
0.000898467
0.00214284
0.00289704
0.00348973
0.00398008
0.00439395
0.00474797
0.00505392
0.00532039
0.00555351
0.00575728
0.00593439
0.00608259
0.00619233
0.00624446
0.00620898
0.00605155
0.00576185
0.0054156
0.00504362
0.00455787
0.00370572
0.00174553
0.00105249
0.00245255
0.00327599
0.00391828
0.00444986
0.00489882
0.00528274
0.00561424
0.00590267
0.00615482
0.00637507
0.00656589
0.00672514
0.0068435
0.00690372
0.00688151
0.00675303
0.00651198
0.00620549
0.00584782
0.0053576
0.00445685
0.00215442
0.00119019
0.00273327
0.00361835
0.00430232
0.00486732
0.00534427
0.00575193
0.00610376
0.00640983
0.0066775
0.00691153
0.00711429
0.00728406
0.00741224
0.00748391
0.00748
0.00738433
0.00719393
0.00693494
0.00660796
0.0061366
0.00522349
0.00266722
0.00131671
0.00299363
0.00393613
0.00465735
0.00525084
0.00575093
0.00617795
0.00654638
0.00686704
0.00714783
0.00739398
0.00760777
0.00778823
0.00792772
0.00801369
0.0080314
0.00796986
0.00782775
0.00761811
0.00733087
0.00689928
0.00603938
0.00339474
0.00143575
0.00323898
0.00423625
0.00499222
0.0056108
0.00613032
0.00657323
0.00695529
0.00728813
0.00758024
0.00783725
0.0080617
0.00825324
0.00840541
0.0085078
0.00854894
0.00852085
0.00842266
0.0082591
0.00801455
0.00763757
0.00691639
0.00469842
0.000356964
0.00101344
0.00138963
0.00157738
0.00166925
0.00170768
0.00172581
0.00174663
0.00177069
0.00172883
0.00153608
0.00131287
0.00107477
0.00113194
0.00143105
0.00138287
0.00108053
0.00075489
0.000497185
0.000717703
0.00216382
0.00293488
0.00334431
0.00355183
0.00364372
0.0036791
0.00369277
0.00367586
0.00354235
0.00321426
0.00280231
0.00239763
0.00242403
0.00281394
0.00267178
0.00216269
0.00153445
0.000790746
0.00102757
0.00281574
0.00376142
0.00426181
0.00451367
0.00462412
0.00466136
0.00466161
0.00461205
0.00443433
0.00407871
0.00365282
0.00324599
0.00322753
0.00345987
0.00324021
0.00266887
0.00193166
0.000943125
0.00136402
0.00340858
0.00443465
0.00496301
0.00522425
0.00533421
0.00536266
0.00534425
0.00526494
0.00505761
0.00469316
0.00427667
0.0039003
0.00385627
0.00392763
0.00362793
0.00300649
0.00218128
0.00102566
0.00173168
0.00403486
0.00507327
0.00558679
0.00583374
0.00592978
0.00594134
0.00589991
0.00579222
0.00556233
0.00519737
0.00479859
0.00446638
0.00439239
0.00432609
0.00394316
0.00325989
0.00234384
0.0010633
0.0022
0.00472254
0.00571032
0.00617579
0.00639113
0.00646332
0.0064517
0.00638373
0.00624827
0.00599973
0.00564353
0.005273
0.00497995
0.00485947
0.00468397
0.00421497
0.00345022
0.00244273
0.00108654
0.00291503
0.00548927
0.0063528
0.00674432
0.00691628
0.00695774
0.00691842
0.00682154
0.00665919
0.00639681
0.00605503
0.00571741
0.00544585
0.00526632
0.00500526
0.00445087
0.00359518
0.00250618
0.00109761
0.00425024
0.00632983
0.00699292
0.00729571
0.00741788
0.00742455
0.00735479
0.00722797
0.00704005
0.00676838
0.0064407
0.00612915
0.00585889
0.00561861
0.00528711
0.00465382
0.00371734
0.00255733
0.00109901
0.00161517
0.00360417
0.00468487
0.00549363
0.00614747
0.00669239
0.00715526
0.00755444
0.00790307
0.00821051
0.00848302
0.00872354
0.00893203
0.00910467
0.00923415
0.00931301
0.00933621
0.00930007
0.00920003
0.00901898
0.00872593
0.008228
0.00718731
0.00182314
0.00404473
0.00524766
0.00613669
0.00683041
0.00739633
0.0078726
0.00828376
0.00864577
0.00896881
0.00925997
0.00952272
0.00975711
0.00996092
0.0101301
0.0102584
0.0103393
0.0103653
0.0103288
0.0102235
0.0100429
0.00977808
0.00939146
0.00201993
0.00445963
0.00582177
0.00682856
0.00754526
0.00810649
0.00856815
0.00896878
0.00932966
0.00965988
0.00996483
0.0102473
0.0105069
0.0107423
0.0109514
0.0111276
0.011259
0.0113305
0.0113403
0.0112964
0.0111995
0.0110584
0.0108741
0.00222575
0.00486718
0.00646696
0.00771357
0.00839531
0.00891063
0.00929817
0.00964494
0.00998184
0.0103069
0.0106177
0.0109138
0.0111932
0.0114561
0.0117062
0.0119359
0.0121184
0.0122149
0.0122593
0.0122655
0.0122222
0.0121426
0.0120277
0.00246638
0.00528861
0.00717364
0.00851502
0.00892132
0.00949555
0.00989126
0.0102215
0.0105507
0.0108858
0.011217
0.0115342
0.0118288
0.012107
0.0124048
0.0127199
0.0129763
0.0130513
0.0131121
0.0131554
0.0131141
0.0130536
0.0129822
0.00248732
0.00540768
0.00721189
0.00832261
0.00903463
0.0097996
0.0103138
0.0106447
0.0109827
0.0113382
0.0116998
0.0120495
0.0123748
0.0126978
0.0130635
0.0134575
0.0137221
0.0136838
0.0136835
0.0137153
0.01373
0.013728
0.013677
0.00234429
0.0053134
0.00716026
0.00840352
0.0091325
0.00996375
0.0105176
0.0109243
0.0113056
0.0116897
0.0120774
0.012452
0.0128017
0.0131281
0.0134343
0.0136947
0.0138857
0.0139618
0.0140324
0.0140994
0.0141523
0.0141668
0.0141461
0.00241271
0.00521691
0.00699658
0.0082304
0.00912979
0.00992706
0.0105522
0.0110767
0.0115434
0.0119774
0.0123933
0.0127853
0.0131414
0.0134453
0.0136962
0.0139005
0.0140777
0.0142051
0.0143297
0.0144325
0.0144846
0.0144664
0.0144644
0.0024255
0.00532386
0.00697892
0.00817457
0.00912367
0.00992725
0.0106039
0.0111912
0.0117139
0.0121897
0.0126301
0.013034
0.0133913
0.0136877
0.0139223
0.0141086
0.0142721
0.0144196
0.0145504
0.0146484
0.0146904
0.0146928
0.0146652
0.00250548
0.00547437
0.00707963
0.00824799
0.00919572
0.0100007
0.0106972
0.0113102
0.0118566
0.0123504
0.0127999
0.0132048
0.0135578
0.0138516
0.0140891
0.014284
0.0144555
0.0146102
0.0147384
0.014831
0.0148822
0.014892
0.0148534
0.00258665
0.00563034
0.00722639
0.00838052
0.00931957
0.0101212
0.0108211
0.0114404
0.011993
0.01249
0.012938
0.0133377
0.0136863
0.0139827
0.0142324
0.0144455
0.0146324
0.0147945
0.0149255
0.0150213
0.0150777
0.015088
0.0150484
0.0026632
0.00577441
0.00737878
0.00852889
0.00946233
0.0102597
0.0109578
0.011577
0.0121295
0.0126249
0.0130689
0.0134642
0.0138121
0.014115
0.0143782
0.0146079
0.0148085
0.0149791
0.0151154
0.0152148
0.0152736
0.0152865
0.0152523
0.00273763
0.00590154
0.0075196
0.0086714
0.0096028
0.0103977
0.0110943
0.0117127
0.0122648
0.0127591
0.0132016
0.0135967
0.0139478
0.0142588
0.0145336
0.0147759
0.0149871
0.0151656
0.0153079
0.0154114
0.0154737
0.0154916
0.0154659
0.00280012
0.00601132
0.00764496
0.00880161
0.0097338
0.0105284
0.0112248
0.0118435
0.0123966
0.0128924
0.0133372
0.0137362
0.0140936
0.0144132
0.0146983
0.0149507
0.0151707
0.0153566
0.0155055
0.015615
0.0156834
0.0157094
0.0156943
0.00285275
0.00610561
0.00775518
0.00891861
0.00985377
0.0106499
0.0113477
0.0119684
0.0125245
0.0130245
0.0134749
0.0138809
0.0142468
0.014576
0.0148711
0.0151332
0.015362
0.0155561
0.0157133
0.0158313
0.0159091
0.0159464
0.0159445
0.0028987
0.00618731
0.0078522
0.0090235
0.00996329
0.0107628
0.0114637
0.0120883
0.0126495
0.013156
0.0136145
0.0140298
0.0144061
0.0147464
0.0150526
0.0153255
0.0155648
0.0157693
0.0159372
0.0160669
0.0161576
0.0162095
0.0162231
0.00293991
0.00625863
0.00793781
0.00911757
0.0100634
0.0108679
0.0115739
0.0122043
0.0127726
0.0132879
0.0137566
0.0141835
0.0145723
0.0149256
0.0152449
0.015531
0.0157835
0.0160014
0.0161835
0.0163284
0.0164355
0.0165047
0.0165361
0.00297693
0.00632077
0.00801322
0.00920182
0.0101548
0.0109661
0.0116791
0.0123175
0.0128953
0.0134216
0.0139028
0.0143436
0.0147472
0.015116
0.0154514
0.0157538
0.0160229
0.0162579
0.0164578
0.0166215
0.0167483
0.0168376
0.0168895
0.00300952
0.00637425
0.00807908
0.00927695
0.0102383
0.0110581
0.0117804
0.0124292
0.0130188
0.0135586
0.0140549
0.0145122
0.0149336
0.015321
0.0156757
0.015998
0.0162876
0.0165438
0.0167655
0.0169517
0.0171015
0.0172142
0.017289
0.00303719
0.00641929
0.00813584
0.0093435
0.0103146
0.0111447
0.0118785
0.0125402
0.0131444
0.0137006
0.014215
0.0146919
0.0151343
0.015544
0.0159218
0.0162681
0.0165825
0.0168641
0.0171119
0.0173246
0.0175012
0.0176405
0.0177415
0.00305971
0.00645599
0.00818382
0.009402
0.0103843
0.0112268
0.0119745
0.0126519
0.0132737
0.0138493
0.0143851
0.0148853
0.0153525
0.0157885
0.0161938
0.0165687
0.0169125
0.0172242
0.0175027
0.0177464
0.017954
0.0181238
0.0182545
0.00307714
0.0064844
0.00822338
0.00945305
0.0104482
0.0113053
0.0120695
0.0127654
0.0134081
0.0140068
0.0145678
0.0150952
0.0155916
0.0160584
0.0164961
0.0169046
0.017283
0.0176302
0.0179445
0.0182242
0.0184675
0.0186724
0.0188371
0.00308879
0.00650453
0.00825498
0.00949736
0.0105071
0.0113812
0.0121647
0.0128824
0.0135494
0.014175
0.0147654
0.0153246
0.015855
0.0163578
0.0168334
0.0172813
0.0177003
0.0180888
0.0184449
0.0187664
0.0190509
0.0192962
0.0194998
0.00309429
0.00651684
0.00827933
0.00953581
0.0105623
0.0114557
0.0122615
0.0130044
0.0136995
0.0143562
0.0149806
0.0155767
0.0161466
0.0166914
0.0172111
0.0177048
0.0181712
0.018608
0.0190128
0.0193828
0.0197152
0.0200071
0.0202553
0.00309455
0.00652241
0.00829742
0.00956943
0.0106146
0.0115301
0.0123613
0.0131331
0.0138604
0.0145529
0.0152164
0.015855
0.0164706
0.017064
0.017635
0.0181823
0.0187039
0.0191971
0.0196587
0.0200852
0.0204732
0.0208189
0.0211187
0.00309069
0.00652238
0.0083103
0.00959924
0.0106653
0.0116056
0.0124655
0.01327
0.0140341
0.0147674
0.0154758
0.0161632
0.0168315
0.0174813
0.018112
0.0187218
0.0193079
0.019867
0.0203951
0.0208877
0.0213403
0.0217485
0.0221077
0.00308344
0.00651764
0.00831884
0.00962616
0.0107153
0.0116833
0.0125756
0.0134169
0.0142226
0.0150021
0.0157617
0.0165051
0.0172342
0.0179494
0.0186496
0.0193323
0.0199942
0.0206307
0.0212367
0.0218067
0.0223348
0.0228156
0.0232433
0.00307323
0.00650875
0.00832365
0.00965088
0.0107655
0.0117643
0.0126926
0.0135752
0.0144276
0.0152595
0.0160773
0.0168848
0.017684
0.0184749
0.0192561
0.0200244
0.0207753
0.0215031
0.022201
0.022862
0.0234786
0.0240435
0.0245502
0.00305991
0.00649555
0.00832483
0.00967373
0.0108164
0.0118493
0.0128175
0.0137461
0.0146508
0.0155417
0.0164254
0.0173062
0.018186
0.0190649
0.0199408
0.0208097
0.0216659
0.0225016
0.0233083
0.0240765
0.0247969
0.02546
0.0260579
0.00304146
0.00647679
0.00832187
0.00969465
0.0108682
0.0119385
0.0129508
0.0139304
0.0148933
0.0158503
0.0168086
0.0177729
0.0187457
0.0197267
0.0207135
0.0217011
0.0226819
0.0236461
0.024582
0.0254775
0.02632
0.0270976
0.0278004
0.00301576
0.0064508
0.00831384
0.00971311
0.0109206
0.012032
0.0130926
0.0141283
0.0151558
0.0161865
0.0172287
0.018288
0.0193674
0.0204671
0.0215841
0.0227121
0.0238413
0.0249588
0.0260493
0.0270962
0.0280832
0.0289944
0.0298177
0.00298882
0.0064135
0.00829791
0.00972732
0.0109725
0.0121289
0.0132424
0.0143395
0.0154378
0.0165502
0.0176863
0.0188532
0.0200549
0.0212922
0.0225619
0.0238563
0.0251627
0.0264643
0.0277405
0.0289688
0.030127
0.0311946
0.0321561
0.00295568
0.0063656
0.00827324
0.00973608
0.0110226
0.0122282
0.0133991
0.0145627
0.0157382
0.0169403
0.0181807
0.0194685
0.0208096
0.022206
0.0236544
0.0251457
0.0266642
0.0281876
0.0296881
0.0311352
0.0324979
0.0337492
0.0348691
0.00291522
0.0063068
0.00823825
0.00973764
0.0110695
0.0123285
0.013561
0.0147959
0.0160544
0.0173537
0.0187084
0.0201307
0.0216292
0.0232079
0.0248644
0.0265884
0.0283606
0.0301521
0.0319259
0.0336393
0.035249
0.0367173
0.0380186
0.00286505
0.00623296
0.00818948
0.00972947
0.0111114
0.0124279
0.013726
0.0150361
0.0163822
0.0177849
0.0192628
0.0208322
0.0225058
0.0242909
0.0261871
0.0281842
0.0302595
0.0323769
0.0344865
0.0365289
0.038441
0.0401687
0.0416778
0.00279918
0.00613487
0.00812099
0.00970863
0.0111467
0.0125252
0.0138917
0.0152792
0.0167153
0.0182253
0.0198327
0.0215595
0.0234237
0.025438
0.0276063
0.0299203
0.0323562
0.0348705
0.0373985
0.0398552
0.0421461
0.0441883
0.0459354
0.00270709
0.00599956
0.00802589
0.00967317
0.0111755
0.0126198
0.0140555
0.0155198
0.0170451
0.0186625
0.0204017
0.0222914
0.0243571
0.026619
0.0290886
0.0317641
0.0346249
0.0376244
0.0406813
0.0436749
0.0464557
0.0488862
0.050903
0.00257382
0.00581289
0.00789948
0.00962466
0.0112005
0.0127124
0.0142147
0.015751
0.0173604
0.0190803
0.0209476
0.0229988
0.0252685
0.0277875
0.0305792
0.0336553
0.0370084
0.0405993
0.0443365
0.0480519
0.0514969
0.0544154
0.0567277
0.00246112
0.00557743
0.00774575
0.0095712
0.011228
0.0128045
0.0143655
0.0159642
0.0176471
0.0194586
0.0214428
0.0236446
0.0261089
0.0288795
0.0319974
0.0354974
0.0394019
0.0437034
0.0483262
0.0530564
0.0574687
0.061005
0.0636066
0.00387584
0.00545722
0.00758808
0.00952635
0.0112653
0.0128958
0.0145014
0.0161475
0.0178885
0.0197745
0.0218563
0.0241863
0.0268201
0.029816
0.0332368
0.037151
0.0416332
0.0467513
0.0525166
0.0587406
0.0647335
0.0690175
0.0718006
0.0179802
0.00667861
0.00745077
0.00949072
0.0113111
0.0129786
0.0146104
0.016286
0.0180658
0.0200043
0.0221563
0.0245806
0.0273414
0.0305104
0.0341724
0.0384348
0.0434433
0.0493969
0.056536
0.0649952
0.0740853
0.0790368
0.0816196
0.0840468
0.0143353
0.00752427
0.00946243
0.0113484
0.0130328
0.0146739
0.0163623
0.0181611
0.0201264
0.0223153
0.0247899
0.0276191
0.0308833
0.0346818
0.039151
0.044498
0.0510653
0.0594592
0.0708419
0.0876709
0.0919041
0.0933055
0.00507312
0.00447063
0.00444176
0.00497413
0.00900973
0.00882782
0.00875148
0.0087789
0.0107098
0.0106096
0.0105247
0.0104574
0.011889
0.0117996
0.0117165
0.0116353
0.0128389
0.0127346
0.0126454
0.012568
0.013537
0.0134544
0.0133814
0.0133314
0.0140739
0.0139787
0.0139163
0.0138434
0.0143974
0.0143302
0.0142466
0.014148
0.0146046
0.0145501
0.0144803
0.0143992
0.0147899
0.01474
0.0146811
0.0146132
0.0149874
0.0149403
0.0148858
0.0148235
0.0151968
0.0151533
0.0151021
0.0150433
0.0154178
0.0153788
0.0153319
0.0152771
0.0156549
0.0156215
0.0155799
0.0155304
0.0159153
0.0158883
0.0158532
0.0158099
0.0162055
0.016186
0.0161581
0.016122
0.0165317
0.0165205
0.0165008
0.0164726
0.0168998
0.0168978
0.0168872
0.0168678
0.0173159
0.0173243
0.0173238
0.0173142
0.0177869
0.017807
0.0178179
0.0178194
0.018321
0.0183543
0.0183779
0.0183919
0.0189274
0.0189757
0.0190139
0.0190419
0.0196174
0.0196827
0.0197374
0.0197814
0.0204042
0.0204889
0.0205624
0.0206245
0.0213033
0.0214102
0.0215052
0.021588
0.0223332
0.0224655
0.022585
0.0226913
0.0235157
0.0236771
0.0238244
0.0239573
0.0248764
0.0250708
0.0252497
0.0254128
0.0264452
0.0266771
0.0268916
0.0270884
0.0282571
0.0285313
0.0287856
0.0290197
0.0303527
0.030674
0.0309722
0.0312473
0.0327786
0.033152
0.0334982
0.0338173
0.0355887
0.0360189
0.0364166
0.0367821
0.0388449
0.0393362
0.0397879
0.0402009
0.0426198
0.0431751
0.0436816
0.0441412
0.0469995
0.0476196
0.0481787
0.0486805
0.0520899
0.0527703
0.0533742
0.0539083
0.0580234
0.0587497
0.0593809
0.0599282
0.0649659
0.0657046
0.0663287
0.0668564
0.0731153
0.0738
0.0743578
0.0748146
0.0826729
0.0831907
0.0835934
0.0839112
0.0937522
0.0939536
0.0941011
0.0942129
0.00688724
0.00761416
0.00795784
0.00812295
0.00816632
0.00811781
0.00799978
0.00782626
0.00760029
0.00731785
0.00700685
0.00671139
0.00641746
0.00608994
0.00565562
0.00492652
0.00390822
0.0026659
0.00109636
0.00892869
0.00907311
0.00915391
0.00917119
0.00911544
0.00899314
0.0088119
0.00858205
0.008312
0.008008
0.00768357
0.00735334
0.00700152
0.00659202
0.0060632
0.00529854
0.00427851
0.00298903
0.00117511
0.0103688
0.0102892
0.0102268
0.0101459
0.0100041
0.00981636
0.00957718
0.00929958
0.0089937
0.00866281
0.00831373
0.00794819
0.00754791
0.00707918
0.00650621
0.00578065
0.00486987
0.00362361
0.00148106
0.0114919
0.0113266
0.0112044
0.0110754
0.0108434
0.0106117
0.010316
0.00998918
0.00965248
0.00930026
0.00893478
0.00855184
0.00812298
0.00761603
0.00703367
0.00641467
0.00568839
0.0045077
0.0020857
0.0124326
0.0122319
0.0120903
0.0119153
0.011638
0.0113962
0.0110076
0.0106082
0.0102364
0.00986362
0.00947209
0.00906986
0.0086382
0.00813455
0.00754255
0.00699672
0.00637941
0.00530371
0.00326284
0.0132146
0.0129945
0.0128449
0.0126306
0.0122758
0.011981
0.0115515
0.011112
0.0106941
0.0102852
0.00986098
0.00940088
0.00892076
0.0083897
0.00782198
0.00724795
0.00652422
0.00522144
0.00308235
0.0136853
0.0134596
0.0133139
0.0131734
0.0127565
0.0124301
0.012007
0.0115608
0.0111152
0.0106643
0.0101884
0.00967439
0.00915365
0.00861188
0.00801859
0.00743591
0.00671668
0.00493789
0.00259337
0.0139855
0.0137654
0.0135708
0.0133727
0.0130462
0.0127114
0.0123451
0.011933
0.0114759
0.010986
0.0104632
0.0098993
0.00931197
0.00870944
0.00806541
0.00738931
0.00653215
0.00485027
0.00232468
0.0142531
0.0140272
0.0137933
0.013537
0.0132275
0.0128991
0.0125595
0.0121692
0.0116992
0.0111881
0.0106442
0.0100535
0.00942009
0.00875414
0.00803194
0.00723569
0.00626969
0.00475766
0.00223645
0.014486
0.0142655
0.0140175
0.0137443
0.0134349
0.0130934
0.0127382
0.0123295
0.0118416
0.0113175
0.0107516
0.0101315
0.00946823
0.00875157
0.00795904
0.00707937
0.00605402
0.00464986
0.0022233
0.0147068
0.0144965
0.0142506
0.0139773
0.013667
0.0133103
0.0129242
0.0124864
0.0119896
0.0114502
0.0108511
0.01019
0.00948036
0.00871022
0.00786331
0.00692109
0.00584136
0.0044463
0.00213049
0.014933
0.0147338
0.014496
0.0142245
0.0139108
0.0135442
0.0131362
0.0126835
0.0121772
0.0116178
0.010996
0.0103047
0.00954586
0.00870915
0.00778373
0.00675389
0.00559392
0.00414156
0.00195181
0.0151736
0.0149859
0.0147573
0.0144876
0.0141701
0.0137998
0.0133846
0.0129249
0.0124106
0.0118421
0.0112122
0.0105051
0.00971274
0.00882533
0.00783006
0.00670871
0.00544646
0.00391259
0.00191634
0.0154354
0.0152598
0.0150413
0.014776
0.0144592
0.0140901
0.0136745
0.0132121
0.0126964
0.0121261
0.0114947
0.0107833
0.00997886
0.00907603
0.00806284
0.00691626
0.00561075
0.00401826
0.00189412
0.0157249
0.0155623
0.015355
0.015098
0.0147874
0.0144238
0.0140111
0.0135496
0.013035
0.0124644
0.0118319
0.0111225
0.0103242
0.00943278
0.00843984
0.00732379
0.00604085
0.00444263
0.00202424
0.0160483
0.0159
0.015705
0.015459
0.0151584
0.0148036
0.0143969
0.0139388
0.0134262
0.012856
0.0122227
0.0115161
0.0107274
0.00985258
0.00888484
0.00780272
0.00654654
0.00493865
0.00229814
0.0164116
0.0162792
0.0160982
0.0158649
0.0155766
0.0152327
0.0148342
0.0143812
0.0138717
0.0133023
0.0126684
0.0119629
0.0111794
0.0103131
0.00935638
0.00828527
0.00703069
0.00538475
0.00252452
0.0168209
0.0167064
0.0165412
0.0163226
0.0160479
0.0157161
0.0153271
0.0148805
0.0143745
0.0138061
0.0131712
0.0124642
0.0116793
0.0108107
0.00984771
0.00876238
0.00747703
0.00575737
0.00270415
0.0172831
0.0171887
0.0170415
0.0168392
0.0165794
0.0162605
0.0158819
0.0154423
0.01494
0.0143723
0.0137352
0.0130235
0.0122313
0.0113506
0.010367
0.00924697
0.00790364
0.00608084
0.00285915
0.017806
0.0177342
0.0176074
0.0174233
0.0171796
0.0168745
0.0165066
0.0160744
0.0155758
0.0150079
0.0143669
0.0136475
0.0128428
0.0119427
0.0109286
0.00976089
0.00834288
0.00639777
0.00301886
0.0183985
0.0183524
0.0182485
0.0180846
0.0178585
0.017568
0.0172114
0.0167865
0.0162912
0.0157221
0.0150753
0.0143451
0.0135237
0.012599
0.0115491
0.0103291
0.00883464
0.00677123
0.00321732
0.0190713
0.019054
0.018976
0.0188347
0.0186278
0.0183531
0.0180082
0.0175908
0.0170981
0.0165266
0.0158718
0.0151277
0.0142859
0.0133327
0.0122443
0.0109734
0.00941373
0.00726504
0.00347668
0.0198366
0.0198521
0.0198031
0.0196871
0.0195015
0.0192438
0.0189113
0.0185014
0.0180106
0.0174351
0.01677
0.0160088
0.0151423
0.0141564
0.0130265
0.0117054
0.0100889
0.00787661
0.00378913
0.020709
0.0207615
0.0207453
0.0206575
0.0204955
0.0202564
0.0199373
0.0195349
0.0190454
0.0184643
0.0177863
0.0170041
0.016108
0.0150834
0.0139058
0.0125283
0.0108477
0.00855989
0.00414179
0.0217057
0.0218001
0.0218206
0.0217643
0.0216284
0.0214098
0.0211051
0.0207105
0.0202217
0.0196335
0.0189396
0.0181321
0.0172006
0.0161298
0.0148945
0.0134471
0.0116804
0.00926765
0.00454897
0.0228468
0.0229882
0.0230499
0.0230287
0.0229217
0.0227257
0.0224368
0.0220508
0.0215624
0.0209657
0.0202532
0.0194159
0.0184422
0.0173157
0.0160099
0.0144746
0.0125947
0.0100108
0.00494793
0.0241554
0.0243496
0.0244571
0.0244748
0.0243998
0.0242287
0.0239574
0.0235809
0.0230931
0.0224868
0.0217532
0.0208815
0.0198583
0.0186652
0.0172731
0.0156276
0.0136025
0.0107988
0.00531141
0.0256587
0.0259116
0.0260696
0.02613
0.0260901
0.0259464
0.0256946
0.025329
0.0248425
0.0242263
0.0234695
0.0225592
0.021479
0.0202075
0.0187115
0.0169304
0.0147237
0.0116487
0.00563978
0.0273877
0.027705
0.027918
0.0280247
0.0280227
0.0279089
0.0276789
0.0273262
0.0268424
0.0262167
0.0254359
0.0244836
0.0233397
0.0219782
0.0203602
0.018417
0.0159925
0.0125998
0.00599903
0.0293777
0.0297649
0.0300367
0.0301924
0.0302308
0.0301493
0.0299434
0.029606
0.0291272
0.028494
0.0276899
0.0266942
0.0254818
0.0240201
0.0222631
0.0201321
0.0174546
0.0137007
0.0064481
0.0316689
0.0321302
0.0324634
0.0326699
0.0327502
0.0327028
0.0325234
0.0322044
0.0317343
0.0310974
0.0302731
0.0292358
0.0279531
0.0263843
0.0244734
0.0221297
0.0191624
0.0149951
0.00699232
0.0343065
0.0348443
0.0352396
0.0354971
0.0356196
0.0356073
0.0354566
0.0351596
0.0347032
0.0340687
0.033231
0.0321577
0.0308081
0.0291303
0.0270549
0.024475
0.021177
0.0165281
0.00762717
0.0373413
0.0379554
0.0384107
0.0387168
0.0388799
0.0389028
0.0387828
0.038512
0.0380758
0.0374526
0.0366122
0.0355146
0.0341085
0.0323276
0.0300843
0.0272488
0.023576
0.0183625
0.00837991
0.04083
0.0415162
0.042026
0.0423753
0.0425753
0.0426318
0.0425438
0.0423036
0.0418958
0.0412957
0.0404681
0.0393649
0.0379222
0.0360558
0.0336534
0.0305525
0.0264633
0.0205923
0.00932383
0.0448363
0.0455851
0.046139
0.0465226
0.0467529
0.0468395
0.0467838
0.0465787
0.0462084
0.045646
0.0448518
0.0437696
0.0423222
0.0404041
0.0378706
0.034513
0.029975
0.0233415
0.0105255
0.0494318
0.0502262
0.0508082
0.0512126
0.0514636
0.0515748
0.0515501
0.051384
0.0510606
0.0505523
0.0498163
0.04879
0.0473834
0.045468
0.0428599
0.039286
0.0342895
0.0267755
0.0120453
0.054697
0.0555104
0.0560973
0.0565046
0.0567633
0.0568911
0.0568944
0.0567694
0.0565016
0.0560641
0.0554136
0.0544842
0.053177
0.051343
0.0487557
0.045059
0.0396456
0.0311365
0.0139877
0.060722
0.0615152
0.0620765
0.0624641
0.0627144
0.0628483
0.0628742
0.0627903
0.0625843
0.0622319
0.0616928
0.0609034
0.0597633
0.0581123
0.0556882
0.0520444
0.0463644
0.0368062
0.0165457
0.0676044
0.0683245
0.0688227
0.0691643
0.0693882
0.0695157
0.0695564
0.06951
0.0693673
0.069109
0.0687013
0.0680894
0.0671829
0.0658287
0.0637546
0.0604475
0.0548545
0.0444132
0.0201226
0.0754447
0.0760269
0.0764207
0.0766891
0.0768676
0.0769751
0.0770201
0.0770038
0.0769202
0.076756
0.0764876
0.0760752
0.0754509
0.0744935
0.0729689
0.0703815
0.0655404
0.0549797
0.0254791
0.0843364
0.0847142
0.0849653
0.0851362
0.0852519
0.0853253
0.0853624
0.0853644
0.0853286
0.085248
0.0851101
0.0848936
0.0845616
0.0840461
0.0832067
0.0817072
0.0785645
0.0699181
0.033905
0.094358
0.0944833
0.094566
0.0946227
0.094662
0.0946882
0.0947034
0.0947083
0.0947023
0.0946838
0.0946499
0.0945957
0.0945135
0.0943899
0.0941977
0.0938632
0.0930814
0.0897444
0.0471506
)
;

boundaryField
{
    leftWall
    {
        type            kqRWallFunction;
        value           nonuniform List<scalar> 
50
(
0.000240244
0.000511259
0.000720771
0.000898467
0.00105249
0.00119019
0.00131671
0.00143575
0.00161517
0.00182314
0.00201993
0.00222575
0.00246638
0.00248732
0.00234429
0.00241271
0.0024255
0.00250548
0.00258665
0.0026632
0.00273763
0.00280012
0.00285275
0.0028987
0.00293991
0.00297693
0.00300952
0.00303719
0.00305971
0.00307714
0.00308879
0.00309429
0.00309455
0.00309069
0.00308344
0.00307323
0.00305991
0.00304146
0.00301576
0.00298882
0.00295568
0.00291522
0.00286505
0.00279918
0.00270709
0.00257382
0.00246112
0.00387584
0.0179802
0.0840468
)
;
    }
    rightWall
    {
        type            kqRWallFunction;
        value           nonuniform List<scalar> 
50
(
0.000497185
0.000790746
0.000943125
0.00102566
0.0010633
0.00108654
0.00109761
0.00109901
0.00109636
0.00117511
0.00148106
0.0020857
0.00326284
0.00308235
0.00259337
0.00232468
0.00223645
0.0022233
0.00213049
0.00195181
0.00191634
0.00189412
0.00202424
0.00229814
0.00252452
0.00270415
0.00285915
0.00301886
0.00321732
0.00347668
0.00378913
0.00414179
0.00454897
0.00494793
0.00531141
0.00563978
0.00599903
0.0064481
0.00699232
0.00762717
0.00837991
0.00932383
0.0105255
0.0120453
0.0139877
0.0165457
0.0201226
0.0254791
0.033905
0.0471506
)
;
    }
    lowerWall
    {
        type            kqRWallFunction;
        value           nonuniform List<scalar> 
62
(
0.000240244
0.000575994
0.000834932
0.0010362
0.00120089
0.00133963
0.00145895
0.00156295
0.00165423
0.00173448
0.00180687
0.00187385
0.00193343
0.0019824
0.00201146
0.00199661
0.00188265
0.00167879
0.00148739
0.00135729
0.00120783
0.000969212
0.000429337
0.000429337
0.000977938
0.00136724
0.00174553
0.00215442
0.00266722
0.00339474
0.00469842
0.00507312
0.00447063
0.00444176
0.00497413
0.000356964
0.000717703
0.00102757
0.00136402
0.00173168
0.0022
0.00291503
0.00425024
0.000356964
0.00101344
0.00138963
0.00157738
0.00166925
0.00170768
0.00172581
0.00174663
0.00177069
0.00172883
0.00153608
0.00131287
0.00107477
0.00113194
0.00143105
0.00138287
0.00108053
0.00075489
0.000497185
)
;
    }
    atmosphere
    {
        type            inletOutlet;
        inletValue      uniform 0.1;
        value           nonuniform List<scalar> 
46
(
0.1
0.0143353
0.00752427
0.00946243
0.0113484
0.0130328
0.0146739
0.0163623
0.0181611
0.0201264
0.0223153
0.0247899
0.0276191
0.0308833
0.0346818
0.039151
0.044498
0.0510653
0.0594592
0.0708419
0.1
0.1
0.1
0.1
0.1
0.1
0.1
0.1
0.1
0.1
0.1
0.1
0.1
0.1
0.1
0.1
0.1
0.1
0.1
0.1
0.1
0.1
0.1
0.1
0.1
0.0471506
)
;
    }
    defaultFaces
    {
        type            empty;
    }
}


// ************************************************************************* //
