/*--------------------------------*- C++ -*----------------------------------*\
  =========                 |
  \\      /  F ield         | OpenFOAM: The Open Source CFD Toolbox
   \\    /   O peration     | Website:  https://openfoam.org
    \\  /    A nd           | Version:  9
     \\/     M anipulation  |
\*---------------------------------------------------------------------------*/
FoamFile
{
    format      ascii;
    class       surfaceScalarField;
    location    "7.4";
    object      phi;
}
// * * * * * * * * * * * * * * * * * * * * * * * * * * * * * * * * * * * * * //

dimensions      [0 3 -1 0 0 0 0];

internalField   nonuniform List<scalar> 
1300
(
11.2529
1.87548
-4.68131
11.2529
-5.04044
1.87548
-4.28886
4.28886
-1.33548
1.33548
5.71256
5.5403
-2.6093
2.6093
-3.20988
3.20988
-2.95426
2.95426
-1.06194
1.06194
-1.0284
1.0284
0.719963
-0.719963
-3.3565
3.3565
-1.63825
1.63825
-3.08115
3.08115
6.1293
-6.1293
-3.64565
3.64565
-0.820391
0.820391
-4.26363
15.5165
6.98923
6.98923
-2.51973
2.51973
-1.25794
1.25794
1.41034
-1.41034
10.0059
-10.0059
-5.32463
-6.16086
1.94423
-13.8645
-3.09621
-3.09621
-2.7054
2.7054
-0.829928
1.04555
3.46762
-3.46762
-0.809699
0.809699
-4.3387
0.0498449
-4.3387
4.12419
0.16467
4.12419
-1.49249
0.157011
-1.49249
4.58329
-4.58329
1.21166
0.123817
1.21166
3.92453
-3.92453
-5.70978
11.4223
5.54308
-5.32032
20.8368
-5.93254
11.4728
-3.87696
3.87696
-2.51202
-0.0972776
-2.51202
2.68163
-0.0723249
2.68163
-3.86103
3.86103
-2.98599
-0.223884
-2.98599
3.35534
-0.145463
3.35534
3.64897
-3.64897
-2.98505
0.0307921
-2.98505
2.82643
0.127828
2.82643
0.771042
1.10443
-2.64652
3.69207
-1.10443
0.0424987
1.02614
0.0357984
1.02614
-1.01457
-0.0138335
-1.01457
1.0503
-0.0218999
1.0503
0.771562
-0.0515988
0.771562
-0.768185
0.0482218
-0.768185
-8.48631
-8.47212
-3.44701
0.0905133
-3.44701
-1.64303
0.00478233
-1.64303
1.68362
-0.0453736
1.68362
-2.5917
2.5917
-3.40943
0.328275
-3.40943
4.80881
1.32049
4.80881
5.04633
6.20653
16.2992
-16.2992
10.1699
-3.41101
-0.234637
-3.41101
-3.81952
-6.18642
3.81952
-0.173869
-0.90052
0.080129
-0.90052
5.62533
1.3639
5.62533
2.72502
0.101413
-2.72502
0.205292
4.58471
-4.58471
1.52647
0.993252
1.52647
-1.1903
1.1903
1.12488
-0.0745761
-1.12488
-0.133062
1.38599
0.0243495
1.38599
-1.40974
-0.000593152
-1.40974
7.7201
-13.881
-7.75516
3.20543
0.151069
-3.20543
0.109216
3.551
-0.0833756
3.551
-3.32386
3.32386
-3.60334
0.135721
-3.60334
-0.729272
-0.0804276
-0.729272
0.900152
-0.0904526
0.900152
-4.53764
0.198938
-4.53764
-3.82686
0.417436
3.82686
0.297326
1.32219
-1.32219
-1.60648
0.11399
-1.60648
-4.57934
0.0417019
4.57934
0.00394612
-4.6736
0.0903143
-4.6736
-3.70709
0.103744
3.70709
0.217449
4.58702
1.03831
-4.58702
0.662487
-5.3698
11.5763
-5.88306
11.4261
-3.54936
-0.327609
-3.54936
4.03084
-0.153874
4.03084
2.78055
0.300598
-2.78055
0.268529
2.84589
-0.16426
2.84589
-3.82997
-0.0310527
-3.82997
3.67527
0.185756
3.67527
2.91775
-0.0718644
-2.91775
-0.0682432
3.36627
-0.0109343
3.36627
3.65892
-0.00994578
3.65892
-3.52554
-0.123428
-3.52554
3.21119
-3.21119
3.12979
0.0814009
-3.12979
0.144742
-5.07402
5.07343
-0.00799842
-5.06602
1.01814
1.01814
0.826355
-0.0547929
0.826355
-0.864443
0.096258
-0.864443
8.45259
-16.2078
8.40922
-16.8955
7.17341
-21.0379
7.92838
-16.4005
3.69387
-3.69387
3.63882
0.0550471
-3.63882
0.19181
-1.60692
-0.0361042
-1.60692
-2.35424
-0.237454
-2.35424
2.92945
-0.337756
2.92945
-3.74916
3.74916
-4.12896
0.379806
4.12896
0.679845
3.41961
-0.053332
-3.41961
0.00859252
1.04275
0.168908
-1.04275
0.142231
4.80866
-0.223953
4.80866
-4.06641
-0.518297
-4.06641
-1.59596
-0.0109642
1.59596
-0.0694862
-1.25851
0.0682099
-1.25851
-5.0745
0.00847709
-5.0387
-1.40127
-1.40127
1.30414
4.9962
-3.57067
0.0451302
3.57067
-0.0196756
3.53727
0.211889
-3.53727
0.213413
-3.28482
0.0736278
3.28482
0.0390337
-0.706908
-0.022364
-0.706908
-1.09541
1.09541
-0.97767
-0.117743
0.97767
-0.077518
1.47813
-0.155943
1.47813
1.65461
0.0290102
-1.65461
0.0481317
-4.90705
0.233453
-4.90705
4.01839
0.0124482
4.01839
-3.92594
-0.140466
3.92594
-0.267029
-0.00371766
5.07715
-1.01442
-0.000144735
1.01442
-5.1015
5.10135
-0.71402
0.00711228
0.71402
0.112335
1.02854
0.161758
-1.02854
0.164098
3.71043
-0.0351613
-3.71043
0.0165649
-2.07297
-0.281272
-2.07297
-3.24457
-0.304786
3.24457
-0.315116
-5.11483
-0.0782675
5.1931
-5.13673
1.33678
0.0492113
-1.33678
5.15056
-1.20975
-0.112437
1.20975
-0.114338
1.67958
-0.201453
1.67958
5.0318
-0.223138
-5.0318
0.124745
-4.00432
0.174347
4.00432
0.0140699
-1.84862
-0.224348
1.84862
-0.169038
-13.127
14.4909
7.70985
-6.80562
-7.07534
-12.992
4.44853
7.1278
14.6184
-11.5065
-9.53141
-11.3973
2.86299
-2.69889
-3.89917
3.84757
22.969
-22.8787
-18.4062
19.086
20.7672
-20.5498
5.70655
5.71579
16.6763
-16.7736
-20.6679
20.3403
16.8008
-17.0247
21.2235
-21.2545
-24.6855
24.6504
-16.3609
16.3917
-20.1853
20.0619
-20.8831
20.6161
-8.39481
-8.50071
15.8715
-15.781
21.6699
-21.9045
-19.7637
20.092
10.0452
4.4457
11.0835
-6.24783
11.9544
-5.22502
12.9349
8.12923
-16.524
8.07853
-15.1539
10.0104
11.6594
-9.83657
-3.15547
-17.9326
17.8492
-17.3127
17.3517
23.6681
-23.6183
-6.17172
11.8875
-5.25442
12.3822
-11.4101
-6.99606
10.0896
4.52881
8.75554
7.116
-8.9066
-2.49065
-24.3524
24.1292
-25.3347
24.8164
0.0796206
2.43692
-2.51654
1.33756
-0.83787
3.27479
2.02512
2.12138
2.4511
-2.28935
0.247785
-2.76432
-2.89739
-5.90276
6.01675
5.73277
-5.60896
16.1329
6.83612
16.1369
-16.3697
-6.50899
-16.1363
11.3729
7.71308
11.7527
12.0487
8.71852
12.1524
10.3636
-10.3284
-0.0351301
-11.474
21.8376
1.55907
-18.4701
-13.9413
9.59823
7.07805
9.5259
-10.4017
-6.37183
-10.1332
-11.0391
-9.62887
-11.3438
12.1634
8.17692
12.0095
-14.9061
14.9201
10.3691
6.43166
10.2237
-9.85683
-7.16785
-9.92507
26.4775
-6.30319
-20.1744
-12.6427
-12.0428
12.457
8.76652
13.6813
10.9691
13.6978
8.48282
17.9947
-17.2493
5.20651
-10.0639
-6.29698
-9.91916
9.52685
6.86483
9.65467
-11.7209
-8.46446
-11.6758
-11.9167
-8.96639
11.9267
8.13526
-12.4291
-12.9056
12.5696
8.04647
7.35193
-16.8833
9.04857
-17.5493
-10.5041
-5.2769
-10.3123
10.4455
6.64438
-17.0899
-6.07854
24.3879
-12.7285
21.2324
-12.0462
-9.85829
-12.0376
-14.9885
-4.77513
-14.5711
-8.18599
7.90472
-8.98071
8.64296
26.5158
-15.751
-10.7649
-12.3743
-8.17547
11.7118
-0.628338
-12.8386
12.8035
-0.884227
12.0506
16.4963
15.868
-10.9021
-6.41061
-10.6887
10.3329
7.01881
10.4065
16.0046
7.66353
16.1693
-16.4565
-7.16174
-16.2576
5.17103
-5.25146
6.13403
-6.14499
15.381
9.43547
-15.157
-9.19537
23.0283
-10.8011
-12.2272
-5.2008
5.47781
-0.277009
-1.92602
-0.588458
0.231933
-1.98085
-1.91831
1.93263
0.188744
5.66656
3.74824
-2.41333
2.48154
2.77977
2.70519
-0.192195
2.67765
-2.67054
19.2536
-11.453
-7.8006
13.6262
-13.5845
-2.63142
-18.725
16.0936
2.55238
3.38549
-3.30536
-4.35453
-1.54823
-4.3064
3.31506
2.41771
3.48397
2.29492
3.72183
-8.75284
1.73011
7.02273
-6.45792
-3.87884
-13.2465
-6.18257
19.4291
16.357
7.7722
-16.4818
0.345505
5.79229
-5.83766
-1.54886
-11.6976
8.69609
-10.245
-15.0536
-6.34019
21.3938
-9.59188
-1.09678
9.37999
2.37273
-10.8611
-7.07147
10.7254
1.42703
-12.0488
23.9777
-11.9288
-18.4594
8.52484
13.3128
16.2379
-17.8633
9.30665
8.55665
-4.55053
8.12942
1.39648
7.96516
-20.0547
13.6829
11.7909
8.30106
-12.0915
1.95829
-18.0964
24.7918
-21.7639
-3.02783
12.8541
11.9376
13.2735
13.2423
-7.88778
21.1613
-3.29928
-18.4647
21.3957
-13.0947
15.281
-28.3757
-28.5233
10.0587
-17.6681
21.3859
-3.71779
-4.96249
-9.94358
22.6306
-2.0784
-20.5522
9.93113
-13.9212
-12.0309
25.9521
-20.2244
19.1988
-6.57976
-12.619
-12.2652
-8.98938
12.0908
2.82933
-24.9808
30.1873
-6.98606
8.77198
1.45169
8.76104
10.5223
-15.4708
4.94848
9.70204
-16.2818
6.98855
-22.4593
-11.5403
23.1629
-11.6225
-16.8173
-15.059
-1.75824
4.67268
25.5146
-15.6418
11.6185
4.02334
8.54761
1.85892
-8.62902
-1.29014
1.09425
16.2271
-17.3213
10.7489
10.8503
12.0257
4.20145
10.7413
7.10787
-10.7217
-0.954101
-14.6705
5.70415
-6.53528
-14.3596
20.0638
-16.1588
1.79915
-10.2313
-14.0407
24.272
-16.5283
11.4743
12.5033
18.4932
-19.5633
5.52257
-9.78072
-9.78253
10.6362
-17.1715
7.37445
12.6893
15.4209
2.51533
12.1519
11.011
-18.7963
1.24703
18.127
-15.6363
3.68696
10.0109
-15.3054
0.246408
-10.0659
2.71834
-15.4468
-14.3715
16.0839
-20.8591
-12.2917
13.6369
2.5324
-13.9342
-0.636922
-5.10975
-3.07624
-5.3341
-3.30545
-5.67526
-11.1932
-1.99201
-9.20123
5.91271
-6.78058
-4.56326
7.0957
1.54726
-5.1909
5.07847
-5.80988
5.60843
-0.215302
13.0188
15.6527
7.47724
-8.46825
15.9455
-15.3745
23.0381
-28.9541
13.5796
15.3551
-22.5169
-13.599
2.88229
2.28875
2.79184
13.7025
-14.8575
1.15502
-13.6436
17.7336
-4.09001
-20.1396
6.49596
-6.43711
5.624
0.510026
5.5879
1.5831
7.05898
-8.64208
-4.56189
-4.63137
-8.90991
-13.5633
22.4732
4.85618
-12.9678
8.11166
-12.3076
17.1638
0.222771
-13.1906
17.4571
-10.3981
17.9671
-12.0849
5.88225
12.6302
22.1005
-9.47033
15.9463
-6.51079
6.8124
-16.2827
-6.75089
-11.3947
18.2595
-12.8773
14.6765
-0.938157
15.6146
-14.0103
3.20917
-1.9846
8.86574
9.07103
16.6312
-12.4298
11.8787
-18.3895
-4.40398
-15.8742
-3.18486
0.881682
-13.8001
12.9184
12.2608
-11.3791
-3.45937
9.4537
-5.99433
6.05555
-3.04233
-3.01322
-1.9779
-3.27356
2.00027
0.677381
6.73293
0.522977
-3.56531
-2.14756
-2.03523
10.5045
8.74907
-4.2659
3.98889
4.03397
-0.648483
1.07503
2.40894
5.06755
-3.99253
0.754182
4.31337
-2.55118
4.21373
1.57856
-4.24274
-0.0636623
-3.60575
12.3018
3.41697
-5.83469
1.84216
2.39639
-13.8494
19.2056
-11.0417
-8.1639
21.602
2.99968
-14.0414
15.7253
-13.1729
7.86675
-14.0493
-6.17467
-19.3476
-12.5115
-10.5859
18.6975
-11.8873
19.6595
3.64396
-20.005
23.649
-12.8744
6.53416
-9.92672
11.5053
-4.28946
-5.63726
11.2208
10.173
-10.9454
-0.752195
0.275327
8.69034
-8.41501
-1.55461
-8.01253
-16.3911
17.8181
-8.2729
17.5796
7.67259
-7.61108
25.1906
6.58633
-14.1974
-11.8731
-12.9699
-5.64076
10.5972
-1.97659
-7.94848
-14.5956
8.02034
-0.0551825
-19.3619
22.5475
-3.1856
-12.2839
-1.39902
14.2531
-18.2994
2.01763
-11.3109
11.2366
12.6331
12.5779
-20.4512
-0.100982
-12.2743
3.27294
-15.5473
15.2106
-6.83112
16.8898
-15.8775
11.3142
-14.3302
13.8619
-1.68533
14.1823
-9.23387
5.99201
-14.9814
-12.1521
15.0764
-8.64474
16.5281
-10.3213
26.8494
-17.3073
15.2125
11.6368
-2.90699
-9.13062
-14.7896
11.8826
0.422905
9.18395
17.7728
-10.6649
16.8187
8.81727
-18.598
-8.35423
-25.8469
7.24888
-13.3436
-7.31841
14.5673
11.1747
13.0337
4.78476
-11.7435
17.0678
-18.826
-5.44522
-8.92633
15.2391
-3.35644
10.066
-18.9923
-5.38078
13.0186
-0.405196
-12.6134
2.73232
-15.0241
5.22854
-20.2526
15.6305
-16.2674
1.85148
-8.28859
-3.33942
-3.45376
-2.23205
-3.57783
-7.84065
5.6086
-1.34469
3.73378
-12.6433
12.2381
-5.09037
10.699
-4.21589
-1.1182
4.38493
1.2235
11.9225
2.85659
-16.4556
-9.22769
14.7755
-5.54783
1.27681
-10.9435
3.83199
7.92578
13.6762
-24.0194
1.5025
-14.9531
-4.27667
6.56541
5.17703
17.4379
2.58036
6.93882
-0.373407
9.51918
2.41843
2.34091
-11.0731
12.2282
1.84529
15.4249
-1.97581
7.85806
3.61208
3.61686
2.2208
5.96276
3.10827
9.17193
0.52985
-4.10152
2.19537
-4.2306
-1.36994
-4.28539
-0.437823
3.93931
-4.37713
10.8373
-2.08821
5.28944
-2.03431
-5.38977
7.42408
-9.83492
-6.03825
-1.72488
-5.95596
7.79812
6.34589
-6.07324
-3.76168
2.34962
-14.8611
11.6997
-12.4519
-2.27889
21.3701
-9.78305
1.36803
-3.24889
-6.6445
-8.19273
8.2564
24.1891
1.00156
12.2602
18.8197
11.7482
1.08331
12.0533
-15.7711
-10.406
-15.8721
-0.661526
13.5916
5.52325
19.9914
17.1601
13.8036
-5.18871
-24.0147
20.307
-8.07887
16.217
-3.60357
-16.649
14.4652
8.57287
-16.9976
0.730147
-15.9189
-23.9978
-0.43952
12.6776
-11.483
10.3648
7.28851
1.91272
-2.56727
-0.886494
2.68501
-0.344102
9.17508
-0.170021
-8.69589
8.86591
-3.76928
2.39935
-0.607433
4.59633
6.81665
4.72844
-3.96744
-8.34457
-8.76361
-5.08574
-16.9275
2.50154
-8.84742
6.03155
-3.63221
3.01834
5.2337
10.5231
-1.70739
-9.67176
7.70171
-4.68338
5.83977
)
;

boundaryField
{
    wall-4
    {
        type            calculated;
        value           uniform 0;
    }
    velocity-inlet-5
    {
        type            calculated;
        value           uniform -11.2529;
    }
    velocity-inlet-6
    {
        type            calculated;
        value           uniform -1.87548;
    }
    pressure-outlet-7
    {
        type            calculated;
        value           nonuniform List<scalar> 8(4.68131 5.04044 11.4855 11.9202 16.9584 15.4753 16.8618 15.1018);
    }
    wall-8
    {
        type            calculated;
        value           uniform 0;
    }
    frontAndBackPlanes
    {
        type            empty;
        value           nonuniform List<scalar> 0();
    }
}


// ************************************************************************* //
