# vtk DataFile Version 2.0
track0
ASCII
DATASET POLYDATA
POINTS 12059 float
-0.0205 0.001 1e-05
-0.02052 0.000999985 1e-05
-0.02054 0.000999974 1e-05
-0.02056 0.000999965 1e-05
-0.02058 0.000999959 1e-05
-0.0206 0.000999956 1e-05
-0.0205 0.00367778 1e-05
-0.02052 0.00367778 1e-05
-0.02054 0.00367777 1e-05
-0.02056 0.00367777 1e-05
-0.02058 0.00367777 1e-05
-0.0206 0.00367777 1e-05
-0.0205 0.00635556 1e-05
-0.02052 0.00635555 1e-05
-0.02054 0.00635555 1e-05
-0.02056 0.00635555 1e-05
-0.02058 0.00635555 1e-05
-0.0206 0.00635555 1e-05
-0.0205 0.00903333 1e-05
-0.02052 0.00903333 1e-05
-0.02054 0.00903333 1e-05
-0.02056 0.00903333 1e-05
-0.02058 0.00903333 1e-05
-0.0206 0.00903333 1e-05
-0.0205 0.0117111 1e-05
-0.02052 0.0117111 1e-05
-0.02054 0.0117111 1e-05
-0.02056 0.0117111 1e-05
-0.02058 0.0117111 1e-05
-0.0206 0.0117111 1e-05
-0.0205 0.0143889 1e-05
-0.02052 0.0143889 1e-05
-0.02054 0.0143889 1e-05
-0.02056 0.0143889 1e-05
-0.02058 0.0143889 1e-05
-0.0206 0.0143889 1e-05
-0.0205 0.0170667 1e-05
-0.02052 0.0170667 1e-05
-0.02054 0.0170667 1e-05
-0.02056 0.0170667 1e-05
-0.02058 0.0170667 1e-05
-0.0206 0.0170667 1e-05
-0.0205 0.0197444 1e-05
-0.02052 0.0197444 1e-05
-0.02054 0.0197444 1e-05
-0.02056 0.0197444 1e-05
-0.02058 0.0197444 1e-05
-0.0206 0.0197444 1e-05
-0.0205 0.0224222 1e-05
-0.02052 0.0224222 1e-05
-0.02054 0.0224222 1e-05
-0.02056 0.0224222 1e-05
-0.02058 0.0224222 1e-05
-0.0206 0.0224222 1e-05
-0.0205 0.0251 1e-05
-0.02052 0.0250998 1e-05
-0.02054 0.0250997 1e-05
-0.02056 0.0250995 1e-05
-0.02058 0.0250995 1e-05
-0.0206 0.0250994 1e-05
-0.0205 0.001 1e-05
-0.0202034 0.00100022 1e-05
-0.0199069 0.00100067 1e-05
-0.0196103 0.00100133 1e-05
-0.0193137 0.00100219 1e-05
-0.0190172 0.00100326 1e-05
-0.0187132 0.00100467 1e-05
-0.0184093 0.00100589 1e-05
-0.0181054 0.00100711 1e-05
-0.0178015 0.00100832 1e-05
-0.0174976 0.00100954 1e-05
-0.0172058 0.00101083 1e-05
-0.016914 0.00101193 1e-05
-0.0166222 0.00101303 1e-05
-0.0163305 0.00101413 1e-05
-0.0160387 0.00101523 1e-05
-0.0157586 0.00101637 1e-05
-0.0154784 0.00101745 1e-05
-0.0151983 0.00101856 1e-05
-0.0149182 0.00101972 1e-05
-0.0146381 0.00102091 1e-05
-0.0143746 0.00102209 1e-05
-0.0141112 0.00102327 1e-05
-0.0138478 0.00102449 1e-05
-0.0135843 0.00102574 1e-05
-0.0133618 0.00102682 1e-05
-0.0133482 0.00102688 1e-05
-0.0133345 0.00102695 1e-05
-0.0133208 0.00102702 1e-05
-0.0133071 0.00102709 1e-05
-0.0132934 0.00102716 1e-05
-0.0130353 0.00102844 1e-05
-0.0127771 0.00102975 1e-05
-0.0125189 0.00103107 1e-05
-0.0122607 0.0010324 1e-05
-0.0120025 0.00103375 1e-05
-0.0117547 0.00103506 1e-05
-0.0115068 0.00103638 1e-05
-0.0112589 0.0010377 1e-05
-0.0110111 0.00103902 1e-05
-0.0107632 0.00104035 1e-05
-0.0105252 0.00104163 1e-05
-0.0102873 0.00104291 1e-05
-0.0100493 0.00104418 1e-05
-0.00981133 0.00104546 1e-05
-0.00957337 0.00104674 1e-05
-0.00934491 0.00104796 1e-05
-0.00911645 0.00104918 1e-05
-0.00888799 0.0010504 1e-05
-0.00865954 0.00105162 1e-05
-0.00843108 0.00105283 1e-05
-0.00821175 0.00105399 1e-05
-0.00799242 0.00105515 1e-05
-0.00777309 0.0010563 1e-05
-0.00755376 0.00105745 1e-05
-0.00733443 0.0010586 1e-05
-0.00712387 0.00105969 1e-05
-0.0069133 0.00106078 1e-05
-0.00670273 0.00106187 1e-05
-0.00649216 0.00106295 1e-05
-0.0062816 0.00106403 1e-05
-0.00607944 0.00106505 1e-05
-0.00587729 0.00106608 1e-05
-0.00567514 0.0010671 1e-05
-0.00547298 0.00106812 1e-05
-0.00527083 0.00106914 1e-05
-0.00507675 0.0010701 1e-05
-0.00488267 0.00107107 1e-05
-0.0046886 0.00107203 1e-05
-0.00449452 0.00107299 1e-05
-0.00430044 0.00107394 1e-05
-0.00411412 0.00107485 1e-05
-0.0039278 0.00107576 1e-05
-0.00374147 0.00107666 1e-05
-0.00355515 0.00107757 1e-05
-0.00336883 0.00107847 1e-05
-0.00318995 0.00107932 1e-05
-0.00301107 0.00108018 1e-05
-0.00283219 0.00108103 1e-05
-0.00265331 0.00108189 1e-05
-0.00247443 0.00108274 1e-05
-0.0023027 0.00108355 1e-05
-0.00213097 0.00108437 1e-05
-0.00195924 0.00108518 1e-05
-0.0017875 0.00108599 1e-05
-0.00161577 0.0010868 1e-05
-0.0014509 0.00108757 1e-05
-0.00128603 0.00108835 1e-05
-0.00112116 0.00108913 1e-05
-0.000956289 0.00108991 1e-05
-0.000791418 0.00109069 1e-05
-0.000633135 0.00109143 1e-05
-0.000474851 0.00109218 1e-05
-0.000316567 0.00109294 1e-05
-0.000158284 0.00109369 1e-05
0 0.00109444 1e-05
0.000105677 0.00109494 1e-05
0.000211355 0.00109544 1e-05
0.000317032 0.00109594 1e-05
0.00042271 0.00109644 1e-05
0.000528387 0.00109693 1e-05
0.000634886 0.00109742 1e-05
0.000741385 0.00109791 1e-05
0.000847885 0.0010984 1e-05
0.000954384 0.00109888 1e-05
0.00106088 0.00109936 1e-05
0.00116821 0.00109983 1e-05
0.00127554 0.00110031 1e-05
0.00138286 0.00110078 1e-05
0.00149019 0.00110124 1e-05
0.00159752 0.00110169 1e-05
0.00170568 0.00110214 1e-05
0.00181384 0.00110258 1e-05
0.001922 0.00110302 1e-05
0.00203016 0.00110344 1e-05
0.00213833 0.00110386 1e-05
0.00224733 0.00110427 1e-05
0.00235633 0.00110467 1e-05
0.00246533 0.00110507 1e-05
0.00257434 0.00110545 1e-05
0.00268334 0.00110583 1e-05
0.00279319 0.0011062 1e-05
0.00290304 0.00110657 1e-05
0.00301289 0.00110692 1e-05
0.00312274 0.00110727 1e-05
0.00323259 0.00110761 1e-05
0.00334329 0.00110794 1e-05
0.003454 0.00110827 1e-05
0.0035647 0.00110859 1e-05
0.0036754 0.0011089 1e-05
0.00378611 0.00110921 1e-05
0.00389767 0.0011095 1e-05
0.00400924 0.00110979 1e-05
0.0041208 0.00111008 1e-05
0.00423237 0.00111035 1e-05
0.00434393 0.00111062 1e-05
0.00445636 0.00111088 1e-05
0.00456879 0.00111113 1e-05
0.00468123 0.00111138 1e-05
0.00479366 0.00111161 1e-05
0.00490609 0.00111184 1e-05
0.0050194 0.00111206 1e-05
0.0051327 0.00111228 1e-05
0.00524601 0.00111249 1e-05
0.00535932 0.00111269 1e-05
0.00547262 0.00111288 1e-05
0.00558681 0.00111306 1e-05
0.005701 0.00111324 1e-05
0.00581518 0.00111341 1e-05
0.00592937 0.00111358 1e-05
0.00604356 0.00111373 1e-05
0.00615863 0.00111388 1e-05
0.00627371 0.00111402 1e-05
0.00638878 0.00111415 1e-05
0.00650386 0.00111428 1e-05
0.00661893 0.0011144 1e-05
0.0067349 0.0011145 1e-05
0.00685087 0.00111461 1e-05
0.00696684 0.0011147 1e-05
0.00708281 0.00111479 1e-05
0.00719878 0.00111487 1e-05
0.00730183 0.00111493 1e-05
0.00740489 0.00111499 1e-05
0.00750794 0.00111504 1e-05
0.00761099 0.00111509 1e-05
0.00770893 0.00111513 1e-05
0.00772377 0.00111513 1e-05
0.00773861 0.00111514 1e-05
0.00775345 0.00111514 1e-05
0.00776829 0.00111515 1e-05
0.00778313 0.00111515 1e-05
0.00790091 0.00111518 1e-05
0.00801869 0.00111521 1e-05
0.00813647 0.00111523 1e-05
0.00825425 0.00111524 1e-05
0.00837203 0.00111524 1e-05
0.00849073 0.00111523 1e-05
0.00860942 0.00111521 1e-05
0.00872812 0.00111519 1e-05
0.00884682 0.00111516 1e-05
0.00896551 0.00111512 1e-05
0.00908513 0.00111507 1e-05
0.00920475 0.00111501 1e-05
0.00932437 0.00111495 1e-05
0.00944398 0.00111487 1e-05
0.0095636 0.00111479 1e-05
0.00968415 0.00111469 1e-05
0.0098047 0.0011146 1e-05
0.00992525 0.00111449 1e-05
0.0100458 0.00111437 1e-05
0.0101663 0.00111425 1e-05
0.0102878 0.00111411 1e-05
0.0104093 0.00111396 1e-05
0.0105308 0.00111381 1e-05
0.0106523 0.00111365 1e-05
0.0107738 0.00111348 1e-05
0.0108962 0.00111329 1e-05
0.0110186 0.00111311 1e-05
0.0111411 0.00111291 1e-05
0.0112635 0.0011127 1e-05
0.0113859 0.00111249 1e-05
0.0115093 0.00111225 1e-05
0.0116327 0.00111202 1e-05
0.0117561 0.00111178 1e-05
0.0118795 0.00111153 1e-05
0.0120028 0.00111127 1e-05
0.0121272 0.00111098 1e-05
0.0122515 0.0011107 1e-05
0.0123759 0.00111041 1e-05
0.0125002 0.00111011 1e-05
0.0126245 0.0011098 1e-05
0.0127498 0.00110947 1e-05
0.0128752 0.00110914 1e-05
0.0130005 0.0011088 1e-05
0.0131258 0.00110845 1e-05
0.0132511 0.00110809 1e-05
0.0133774 0.00110771 1e-05
0.0135036 0.00110733 1e-05
0.0136299 0.00110694 1e-05
0.0137562 0.00110654 1e-05
0.0138825 0.00110614 1e-05
0.0140098 0.0011057 1e-05
0.014137 0.00110527 1e-05
0.0142643 0.00110483 1e-05
0.0143915 0.00110438 1e-05
0.0145188 0.00110392 1e-05
0.0146471 0.00110344 1e-05
0.0147753 0.00110296 1e-05
0.0149036 0.00110246 1e-05
0.0150318 0.00110196 1e-05
0.0151601 0.00110145 1e-05
0.0152893 0.00110092 1e-05
0.0154186 0.00110038 1e-05
0.0155478 0.00109983 1e-05
0.0156771 0.00109928 1e-05
0.0158063 0.00109871 1e-05
0.0159366 0.00109813 1e-05
0.0160668 0.00109754 1e-05
0.0161971 0.00109694 1e-05
0.0163274 0.00109633 1e-05
0.0164576 0.00109571 1e-05
0.0165889 0.00109508 1e-05
0.0167201 0.00109443 1e-05
0.0168514 0.00109378 1e-05
0.0169827 0.00109311 1e-05
0.0171139 0.00109244 1e-05
0.0172462 0.00109176 1e-05
0.0173785 0.00109106 1e-05
0.0175108 0.00109035 1e-05
0.0176431 0.00108963 1e-05
0.0177754 0.0010889 1e-05
0.0179087 0.00108817 1e-05
0.018042 0.00108742 1e-05
0.0181753 0.00108665 1e-05
0.0183087 0.00108587 1e-05
0.018442 0.00108509 1e-05
0.0185763 0.00108431 1e-05
0.0187107 0.0010835 1e-05
0.018845 0.00108268 1e-05
0.0189794 0.00108185 1e-05
0.0191137 0.00108101 1e-05
0.0192491 0.00108018 1e-05
0.0193845 0.00107932 1e-05
0.0195199 0.00107844 1e-05
0.0196553 0.00107755 1e-05
0.0197907 0.00107666 1e-05
0.0199272 0.00107577 1e-05
0.0200636 0.00107486 1e-05
0.0202001 0.00107392 1e-05
0.0203365 0.00107297 1e-05
0.020473 0.00107203 1e-05
0.0206105 0.00107109 1e-05
0.020748 0.00107012 1e-05
0.0208855 0.00106913 1e-05
0.021023 0.00106813 1e-05
0.0211606 0.00106713 1e-05
0.0212991 0.00106614 1e-05
0.0214377 0.00106511 1e-05
0.0215763 0.00106407 1e-05
0.0217149 0.00106301 1e-05
0.0218535 0.00106196 1e-05
0.0219931 0.00106091 1e-05
0.0221328 0.00105983 1e-05
0.0222724 0.00105873 1e-05
0.0224121 0.00105761 1e-05
0.0225517 0.00105651 1e-05
0.0226925 0.0010554 1e-05
0.0228332 0.00105427 1e-05
0.022974 0.00105311 1e-05
0.0231147 0.00105194 1e-05
0.0232555 0.00105078 1e-05
0.0233973 0.00104962 1e-05
0.0235391 0.00104843 1e-05
0.023681 0.00104721 1e-05
0.0238228 0.00104598 1e-05
0.0239647 0.00104476 1e-05
0.0241076 0.00104355 1e-05
0.0242505 0.0010423 1e-05
0.0243935 0.00104102 1e-05
0.0245364 0.00103974 1e-05
0.0246794 0.00103847 1e-05
0.0248234 0.00103719 1e-05
0.0249675 0.00103589 1e-05
0.0251115 0.00103455 1e-05
0.0252556 0.00103321 1e-05
[...]
POINT_DATA 12059
 FIELD attributes 3
age 1 12059 float
0 -2e-05 -4e-05 -6e-05 -8e-05 -0.0001
0 -2e-05 -4e-05 -6e-05 -8e-05 -0.0001
0 -2e-05 -4e-05 -6e-05 -8e-05 -0.0001
0 -2e-05 -4e-05 -6e-05 -8e-05 -0.0001
0 -2e-05 -4e-05 -6e-05 -8e-05 -0.0001
0 -2e-05 -4e-05 -6e-05 -8e-05 -0.0001
0 -2e-05 -4e-05 -6e-05 -8e-05 -0.0001
0 -2e-05 -4e-05 -6e-05 -8e-05 -0.0001
0 -2e-05 -4e-05 -6e-05 -8e-05 -0.0001
0 -2.00009e-05 -4.00018e-05 -6.00027e-05 -8.00036e-05 -0.000100002
0 0.000296567 0.000593135 0.000889702 0.00118627 0.00148284 0.00178676 0.00209069 0.00239461 0.00269853 0.00300245 0.00329423 0.00358601 0.00387779 0.00416957 0.00446135 0.00474147 0.00502159 0.00530171 0.00558183 0.00586196 0.0061254 0.00638884 0.00665229 0.00691573 0.00713821 0.00715189 0.00716557 0.00717925 0.00719293 0.00720661 0.0074648 0.00772298 0.00798117 0.00823935 0.00849754 0.00874541 0.00899328 0.00924116 0.00948903 0.0097369 0.00997487 0.0102128 0.0104508 0.0106888 0.0109267 0.0111552 0.0113837 0.0116121 0.0118406 0.012069 0.0122884 0.0125077 0.012727 0.0129464 0.0131657 0.0133763 0.0135868 0.0137974 0.014008 0.0142186 0.0144207 0.0146229 0.014825 0.0150272 0.0152293 0.0154234 0.0156175 0.0158116 0.0160057 0.0161997 0.0163861 0.0165724 0.0167587 0.016945 0.0171314 0.0173102 0.0174891 0.017668 0.0178469 0.0180258 0.0181975 0.0183692 0.018541 0.0187127 0.0188844 0.0190493 0.0192142 0.0193791 0.0195439 0.0197088 0.0198671 0.0200254 0.0201837 0.0203419 0.0205002 0.0206059 0.0207116 0.0208173 0.0209229 0.0210286 0.0211351 0.0212416 0.0213481 0.0214546 0.0215611 0.0216684 0.0217758 0.0218831 0.0219904 0.0220978 0.0222059 0.0223141 0.0224222 0.0225304 0.0226386 0.0227476 0.0228566 0.0229656 0.0230746 0.0231836 0.0232934 0.0234033 0.0235131 0.023623 0.0237328 0.0238435 0.0239542 0.024065 0.0241757 0.0242864 0.0243979 0.0245095 0.0246211 0.0247326 0.0248442 0.0249566 0.0250691 0.0251815 0.0252939 0.0254063 0.0255197 0.025633 0.0257463 0.0258596 0.0259729 0.0260871 0.0262013 0.0263154 0.0264296 0.0265438 0.0266589 0.026774 0.026889 0.0270041 0.0271192 0.0272352 0.0273511 0.0274671 0.0275831 0.027699 0.0278021 0.0279051 0.0280082 0.0281113 0.0282092 0.028224 0.0282389 0.0282537 0.0282686 0.0282834 0.0284012 0.028519 0.0286367 0.0287545 0.0288723 0.028991 0.0291097 0.0292284 0.0293471 0.0294658 0.0295854 0.029705 0.0298246 0.0299442 0.0300639 0.0301844 0.030305 0.0304255 0.0305461 0.0306666 0.0307881 0.0309096 0.0310311 0.0311525 0.031274 0.0313965 0.0315189 0.0316413 0.0317638 0.0318862 0.0320096 0.0321329 0.0322563 0.0323797 0.0325031 0.0326274 0.0327518 0.0328761 0.0330005 0.0331248 0.0332501 0.0333754 0.0335007 0.033626 0.0337513 0.0338776 0.0340039 0.0341302 0.0342565 0.0343828 0.03451 0.0346373 0.0347646 0.0348918 0.0350191 0.0351473 0.0352756 0.0354038 0.0355321 0.0356604 0.0357896 0.0359189 0.0360481 0.0361774 0.0363066 0.0364369 0.0365671 0.0366974 0.0368276 0.0369579 0.0370892 0.0372204 0.0373517 0.037483 0.0376142 0.0377465 0.0378788 0.0380111 0.0381434 0.0382757 0.038409 0.0385423 0.0386757 0.038809 0.0389423 0.0390767 0.039211 0.0393454 0.0394797 0.0396141 0.0397495 0.0398849 0.0400203 0.0401557 0.0402911 0.0404275 0.040564 0.0407004 0.0408369 0.0409734 0.0411109 0.0412484 0.0413859 0.0415234 0.0416609 0.0417995 0.0419381 0.0420767 0.0422153 0.0423539 0.0424935 0.0426332 0.0427728 0.0429125 0.0430522 0.0431929 0.0433337 0.0434744 0.0436152 0.0437559 0.0438978 0.0440396 0.0441814 0.0443233 0.0444651 0.0446081 0.044751 0.044894 0.0450369 0.0451799 0.0453239 0.045468 0.045612 0.0457561 0.0459002 0.0460453 0.0461905 0.0463357 0.0464809 0.0466261 0.0467724 0.0469187 0.047065 0.0472113 0.0473576 0.047505 0.0476525 0.0477999 0.0479474 0.0480948 0.0482434 0.048392 0.0485406 0.0486892 0.0488378 0.0489875 0.0491373 0.049287 0.0494368 0.0495865 0.0497374 0.0498884 0.0500393 0.0501902 0.0503411 0.0504932 0.0506453 0.0507974 0.0509495 0.0511015 0.0512548 0.0514081 0.0515614 0.0517146 0.0518679 0.0520224 0.0521768 0.0523313 0.0524857 0.0526402 0.0527959 0.0529515 0.0531072 0.0532629 0.0534185 0.0535754 0.0537323 0.0538892 0.054046 0.0542029 0.05436 0.054517 0.0546741 0.0548311 0.0549814 0.0549838 0.0549862 0.0549886 0.054991 0.0549934 0.0551527 0.055312 0.0554714 0.0556307 0.05579 0.0559506 0.0561112 0.0562717 0.0564323 0.0565929 0.0567547 0.0569165 0.0570783 0.0572401 0.0574019 0.057565 0.0577281 0.0578912 0.0580542 0.0582173 0.0583817 0.058546 0.0587103 0.0588747 0.059039 0.0592047 0.0593703 0.0595359 0.0597015 0.0598672 0.0600341 0.060201 0.0603679 0.0605348 0.0607017 0.0608699 0.0610381 0.0612063 0.0613746 0.0615428 0.0617123 0.0618818 0.0620513 0.0622209 0.0623904 0.0625612 0.0627321 0.0629029 0.0630737 0.0632446 0.0634168 0.0635889 0.0637611 0.0639333 0.0641054 0.064279 0.0644525 0.064626 0.0647995 0.064973 0.0651479 0.0653227 0.0654976 0.0656725 0.0658473 0.0660236 0.0661998 0.066376 0.0665522 0.0667285 0.0669061 0.0670837 0.0672612 0.0674388 0.0676165 0.0677954 0.0679744 0.0681534 0.0683324 0.0685114 0.0686917 0.0688721 0.0690525 0.0692329 0.0694133 0.069595 0.0697768 0.0699586 0.0701404 0.0703222 0.0705054 0.0706886 0.0708718 0.071055 0.0712382 0.0714228 0.0716074 0.0717921 0.0719767 0.0721613 0.0723474 0.0725335 0.0727195 0.0729056 0.0730917 0.0732792 0.0734667 0.0736542 0.0738418 0.0740293 0.0740954 0.0741616 0.0742277 0.0742939 0.0743585 0.0744817 0.0746048 0.0747279 0.0748511 0.0749742 0.0751647 0.0753551 0.0755456 0.075736 0.0759265 0.0761185 0.0763104 0.0765023 0.0766943 0.0768862 0.0770797 0.0772731 0.0774666 0.07766 0.0778535 0.0780484 0.0782434 0.0784383 0.0786333 0.0788283 0.0790247 0.0792212 0.0794177 0.0796142 0.0798107 0.0800087 0.0802067 0.0804047 0.0806027 0.0808008 0.0810003 0.0811999 0.0813995 0.081599 0.0817986 0.0819997 0.0822009 0.082402 0.0826031 0.0828043 0.083007 0.0832096 0.0834123 0.083615 0.0838178 0.0840221 0.0842263 0.0844306 0.0846349 0.0848392 0.0850451 0.085251 0.0854569 0.0856628 0.0858687 0.0860762 0.0862837 0.0864912 0.0866987 0.0869062 0.0871154 0.0873245 0.0875336 0.0877427 0.0879519 0.0880472 0.0881426 0.0882379 0.0883333 0.0884256 0.0885416 0.0886577 0.0887737 0.0888897 0.0890058 0.0892182 0.0894306 0.0896431 0.0898555 0.090068 0.090282 0.0904961 0.0907102 0.0909243 0.0911385 0.0913542 0.09157 0.0917858 0.0920016 0.0922174 0.0924349 0.0926524 0.0928698 0.0930873 0.0933048 0.093524 0.0937432 0.0939624 0.0941816 0.0944008 0.0946217 0.0948427 0.0950636 0.0952845 0.0955055 0.0957281 0.0959508 0.0961735 0.0963961 0.0966188 0.0968433 0.0970677 0.0972921 0.0975165 0.097741 0.0979493 0.0981575 0.0983658 0.098574 0.0987687 0.0987894 0.09881 0.0988307 0.0988514 0.098872 0.0991 0.099328 0.099556 0.099784 0.100012 0.100242 0.100472 0.100701 0.100931 0.101161 0.101393 0.101624 0.101856 0.102088 0.102319 0.102553 0.102786 0.10302 0.103253 0.103487 0.103722 0.103957 0.104192 0.104428 0.104663 0.1049 0.105138 0.105375 0.105612 0.105849 0.106088 0.106327 0.106566 0.106806 0.107045 0.107155 0.107266 0.107376 0.107487 0.107594 0.107725 0.107856 0.107987 0.108119 0.10825 0.108493 0.108736 0.108978 0.109221 0.109464 0.109709 0.109954 0.110199 0.110444 0.110689 0.110936 0.111182 0.111429 0.111676 0.111923 0.112172 0.112421 0.112669 0.112918 0.113167 0.113418 0.113669 0.11392 0.11417 0.114421 0.114614 0.114806 0.114998 0.115191 0.115373 0.115436 0.115498 0.115561 0.115623 0.115686 0.115941 0.116196 0.11645 0.116705 0.11696 0.117217 0.117474 0.117731 0.117988 0.118245 0.118504 0.118763 0.119022 0.119281 0.119541 0.119802 0.120063 0.120324 0.120585 0.120847 0.12111 0.121373 0.121636 0.1219 0.122163 0.122209 0.122254 0.1223 0.122345 0.12239 0.12261 0.12283 0.12305 0.12327 0.123491 0.123758 0.124026 0.124293 0.124561 0.124829 0.125099 0.125369 0.125638 0.125908 0.126178 0.12645 0.126722 0.126994 0.127266 0.127539 0.127801 0.128063 0.128326 0.128588 0.128835 0.12885 0.128865 0.12888 0.128895 0.12891 0.129187 0.129464 0.12974 0.130017 0.130294 0.130572 0.130851 0.13113 0.131409 0.131688 0.131969 0.132251 0.132532 0.132813 0.133095 0.133378 0.133662 0.133945 0.134229 0.134513 0.134579 0.134646 0.134712 0.134779 0.134844 0.135064 0.135284 0.135503 0.135723 0.135943 0.136231 0.136519 0.136808 0.137096 0.137385 0.137675 0.137966 0.138257 0.138547 0.138839 0.139132 0.139425 0.139718 0.140011 0.140305 0.14035 0.140394 0.140439 0.140484 0.140528 0.140779 0.14103 0.141281 0.141532 0.141784 0.142082 0.14238 0.142678 0.142976 0.143275 0.143576 0.143876 0.144177 0.144478 0.144779 0.145021 0.145263 0.145506 0.145748 0.145982 0.146044 0.146107 0.14617 0.146233 0.146295 0.146601 0.146907 0.147213 0.147518 0.147824 0.148133 0.148441 0.148749 0.149058 0.149367 0.149677 0.149988 0.150299 0.15061 0.150921 0.150996 0.151071 0.151146 0.15122 0.151294 0.151533 0.151772 0.152011 0.15225 0.152489 0.152806 0.153122 0.153438 0.153754 0.15407 0.154389 0.154708 0.155026 0.155345 0.155664 0.155842 0.15602 0.156198 0.156375 0.156551 0.156695 0.156839 0.156983 0.157127 0.157271 0.157595 0.157919 0.158243 0.158567 0.158891 0.159218 0.159544 0.159871 0.160197 0.160524 0.160787 0.161051 0.161314 0.161578 0.161839 0.161905 0.161971 0.162037 0.162104 0.16217 0.162502 0.162833 0.163165 0.163497 0.163828 0.164163 0.164497 0.164831 0.165166 0.1655 0.165837 0.166174 0.166511 0.166847 0.167184 0.167199 0.167213 0.167228 0.167242 0.167257 0.167582 0.167906 0.168231 0.168556 0.168881 0.169223 0.169565 0.169907 0.170249 0.170591 0.170935 0.17128 0.171624 0.171968 0.172313 0.172372 0.172432 0.172492 0.172551 0.172611 0.172899 0.173186 0.173473 0.17376 0.174047 0.174397 0.174746 0.175096 0.175445 0.175794 0.176146 0.176498 0.17685 0.177202 0.177553 0.177676 0.177798 0.17792 0.178042 0.178166 0.178398 0.17863 0.178862 0.179093 0.179325 0.179682 0.180039 0.180396 0.180753 0.181109 0.181468 0.181828 0.182187 0.182547 0.182905 0.183142 0.183379 0.183616 0.183853 0.184099 0.184222 0.184345 0.184468 0.184591 0.184714 0.185078 0.185443 0.185807 0.186171 0.186535 0.186902 0.187269 0.187636 0.188003 0.188369 0.188738 0.189108 0.189477 0.189847 0.190215 0.190303 0.19039 0.190478 0.190565 0.190654 0.190938 0.191222 0.191507 0.191791 0.192074 0.192449 0.192823 0.193198 0.193572 0.193946 0.194323 0.1947 0.195078 0.195455 0.195831 0.196211 0.196591 0.19697 0.19735 0.197729 0.197822 0.197914 0.198006 0.198098 0.198193 0.198482 0.198772 0.199062 0.199352 0.199641 0.200026 0.200411 0.200796 0.201181 0.201566 0.201954 0.202342 0.20273 0.203118 0.203505 0.203896 0.204286 0.204677 0.205068 0.205458 0.205814 0.206169 0.206525 0.206881 0.207268 0.207299 0.207331 0.207362 0.207393 0.207425 0.207821 0.208217 0.208614 0.20901 0.209406 0.209805 0.210204 0.210604 0.211003 0.211402 0.211804 0.212206 0.212608 0.21301 0.213412 0.213817 0.214222 0.214628 0.215033 0.215438 0.215846 0.216254 0.216662 0.21707 0.217478 0.217745 0.218012 0.218279 0.218546 0.218837 0.218977 0.219116 0.219255 0.219394 0.219533 0.219947 0.220362 0.220776 0.22119 0.221604 0.222021 0.222438 0.222855 0.223273 0.223689 0.22411 0.22453 0.22495 0.225371 0.225791 0.226214 0.226637 0.227061 0.227484 0.227907 0.228317 0.228726 0.229136 0.229546 0.229955 0.230266 0.230576 0.230887 0.231197 0.231542 0.23165 0.231758 0.231866 0.231975 0.232083 0.232525 0.232967 0.233409 0.233851 0.234293 0.234752 0.235211 0.23567 0.236129 0.236588 0.237065 0.237542 0.238019 0.238496 0.238973 0.239359 0.239746 0.240132 0.240519 0.240954 0.241053 0.241152 0.241252 0.241351 0.24145 0.241964 0.242479 0.242994 0.243508 0.244023 0.244558 0.245093 0.245627 0.246162 0.246697 0.247252 0.247808 0.248364 0.248919 0.249475 0.250052 0.250629 0.251207 0.251784 0.252361 0.252493 0.252626 0.252758 0.25289 0.253028 0.253494 0.253961 0.254427 0.254894 0.25536 0.255984 0.256607 0.25723 0.257853 0.258477 0.259124 0.259772 0.260419 0.261067 0.261715 0.262388 0.263061 0.263734 0.264407 0.26508 0.265779 0.266478 0.267178 0.267877 0.268576 0.268813 0.26905 0.269287 0.269523 0.269779 0.270265 0.270751 0.271237 0.271724 0.27221 0.272965 0.27372 0.274475 0.27523 0.275986 0.27677 0.277555 0.27834 0.279124 0.27991 0.280725 0.28154 0.282356 0.283171 0.283987 0.284834 0.285682 0.286529 0.287376 0.288224 0.289105 0.289985 0.290866 0.291746 0.292627 0.293542 0.294457 0.295372 0.296287 0.297203 0.297346 0.297489 0.297632 0.297775 0.297927 0.298733 0.299539 0.300345 0.301151 0.301957 0.302945 0.303934 0.304922 0.30591 0.306898 0.307924 0.30895 0.309977 0.311003 0.312028