/*--------------------------------*- C++ -*----------------------------------*\
  =========                 |
  \\      /  F ield         | OpenFOAM: The Open Source CFD Toolbox
   \\    /   O peration     | Website:  https://openfoam.org
    \\  /    A nd           | Version:  9
     \\/     M anipulation  |
\*---------------------------------------------------------------------------*/
FoamFile
{
    format      ascii;
    class       volScalarField;
    location    "9.69";
    object      alpha.water;
}
// * * * * * * * * * * * * * * * * * * * * * * * * * * * * * * * * * * * * * //

dimensions      [0 0 0 0 0 0 0];

internalField   nonuniform List<scalar> 
2268
(
1
0.999999
0.999999
0.999998
0.999999
0.999999
0.999999
0.999998
0.999997
0.999997
0.999999
0.999999
0.999999
0.999999
0.999999
0.999999
1
1
0.999569
0.998284
0.999487
0.999997
0.99994
0.999999
0.999998
0.999997
0.999997
0.999999
0.999999
0.999997
0.999997
0.999997
0.999997
0.999999
0.999999
0.999999
0.999999
0.999998
0.999998
0.999999
1
0.998896
0.998284
0.999618
0.999997
0.999996
0.999997
0.999996
0.999997
0.999998
0.999999
0.999999
0.999999
0.999998
0.999999
0.999999
0.999999
0.999999
0.999999
1
0.999998
0.99999
0.999998
1
0.998641
0.998284
0.999673
0.999996
0.999996
0.999999
0.999998
0.999999
0.999999
0.999999
1
1
0.999999
0.999999
0.999999
1
1
1
1
0.999996
0.999946
0.999969
1
0.999305
0.998284
0.999642
0.999996
0.999837
1
0.999999
1
1
1
1
1
1
1
1
1
1
1
1
1
0.999809
0.999712
0.999894
0.999931
0.998808
0.999761
0.999663
0.999616
1
1
1
1
1
1
1
1
1
1
1
1
1
1
1
0.999675
0.999068
0.999969
0.999969
0.999957
0.999957
0.996509
0.999507
1
1
1
1
1
1
1
1
1
1
1
1
1
1
1
1
0.996058
0.994168
0.999969
0.999969
0.996044
0.994653
0.999286
1
1
1
1
1
1
1
1
0.999999
0.999999
0.999999
0.999999
0.999999
0.999999
1
1
0.99371
0.99078
0.994069
0.998142
0.993336
0.994946
0.999807
0.999817
0.999651
0.999607
0.999607
0.999766
0.999982
0.997802
0.995823
0.995812
0.995585
0.992435
0.992435
0.997473
0.998687
0.998687
0.998687
0.998687
0.998687
0.998686
0.999828
0.999828
0.999992
0.999991
0.999998
0.999997
0.999997
0.999997
0.999997
0.999997
0.997535
0.992416
0.993079
0.998687
0.998687
0.998687
0.998285
0.996578
0.997681
0.999828
0.998151
0.999999
0.999999
0.999998
0.999993
0.999963
0.999954
0.999942
0.999985
0.999339
0.992416
0.992416
0.996045
0.998687
0.998386
0.995857
0.995857
0.995861
0.997722
0.996362
0.999999
0.999999
0.999998
0.999946
0.999815
0.999751
0.999579
0.999567
0.999547
0.996265
0.992842
0.996813
0.998687
0.998687
0.997449
0.996673
0.998582
0.992405
0.997532
0.999999
0.999997
0.999992
0.999883
0.999884
0.999848
0.99938
0.99938
0.999409
0.999688
0.999155
0.999426
0.997618
0.998596
0.998593
0.998585
0.998584
0.992405
0.997881
0.999996
0.99999
0.999987
0.999997
0.999997
0.99981
0.999582
0.999673
0.999689
0.999689
0.999689
0.999689
0.996734
0.992199
0.992875
0.998496
0.998446
0.993484
0.999309
0.999996
0.999997
0.999997
0.999997
0.99999
0.999321
0.998708
0.999689
0.999689
0.999689
0.999689
0.999552
0.994107
0.990947
0.990947
0.995955
0.998446
0.999643
0.999989
0.999996
0.999997
0.999997
0.999997
0.999997
0.998407
0.992688
0.99488
0.9995
0.999689
0.999612
0.99599
0.993001
0.996515
0.990948
0.995193
0.998446
1
1
1
1
1
1
1
0.999999
0.999999
0.999999
0.999999
0.999999
1
1
1
1
0.99999
0.995726
0.9913
0.991586
0.996501
0.999962
0.999998
0.968583
0.968185
0.968708
0.970341
0.972797
0.975049
0.977206
0.979488
0.980882
0.981942
0.982729
0.98318
0.984562
0.986821
0.989962
0.994223
0.999165
0.999968
0.999973
0.999978
0.999979
0.999979
0.999404
0.285771
0.287485
0.289776
0.292001
0.2947
0.29846
0.303176
0.308776
0.315758
0.323795
0.332496
0.341511
0.3499
0.357535
0.36434
0.370613
0.377521
0.387426
0.396166
0.401125
0.403499
0.404845
0.405261
0.000306734
0.000306194
0.000305304
0.000306194
0.000306807
0.000308114
0.000309315
0.000310244
0.000311175
0.000312204
0.000313178
0.000314079
0.000375301
0.000424735
0.000565906
0.000783409
0.00106594
0.000824922
0.000432603
0.000423134
0.000501954
0.000505821
0.000421145
0.000557814
0.000557712
0.000304385
0.000702554
0.00119522
0.00126124
0.0012607
0.00141644
0.00155035
0.00156233
0.00156814
0.00156839
0.0015434
0.00146575
0.00145183
0.00145204
0.00133704
0.000929637
0.000382437
0.000415939
0.000499565
0.000486226
0.000332923
0.000191086
0.000213608
0.000256475
0.000185454
6.6912e-08
6.69119e-08
6.6912e-08
6.69119e-08
6.6912e-08
6.69124e-08
6.69172e-08
1.43944e-06
1.41947e-06
1.60115e-05
2.09709e-05
2.11809e-05
3.97199e-05
0.000170363
0.000239142
0.000216542
0.000236684
0.000250213
0.000130245
2.03175e-09
5.06336e-09
3.24521e-06
6.72657e-08
6.71456e-08
6.6912e-08
6.69119e-08
6.6912e-08
6.69124e-08
6.69172e-08
2.41993e-06
3.43555e-05
4.1475e-05
4.14745e-05
4.1475e-05
8.86986e-06
6.07295e-09
1.25604e-06
7.12255e-06
2.01048e-07
4.05364e-06
3.64654e-05
5.65128e-05
2.02216e-09
2.01231e-09
1.57984e-08
2.66174e-07
7.67839e-07
9.16144e-07
1.67424e-07
4.96763e-07
9.70544e-07
5.45076e-07
1.52378e-06
1.15434e-05
1.78157e-05
1.10693e-05
6.68643e-06
7.74282e-06
6.05355e-09
6.01811e-09
6.02337e-09
6.01699e-09
6.19632e-09
6.14397e-08
7.06134e-07
2.06081e-09
2.00036e-09
1.92905e-09
2.5098e-07
1.72334e-06
1.72346e-06
1.40627e-06
1.59889e-06
2.57312e-06
2.57297e-06
3.51946e-07
4.32729e-10
4.32579e-10
4.58333e-10
2.92537e-06
6.93526e-06
3.34874e-07
6.01405e-09
6.01406e-09
6.0156e-09
6.01723e-09
6.02313e-09
1.68502e-07
2.20889e-09
2.02783e-09
1.87212e-09
7.56948e-08
1.38576e-06
1.72332e-06
1.5242e-06
1.51418e-06
2.57312e-06
2.50389e-06
8.25544e-08
4.23577e-10
3.32424e-08
1.69412e-08
2.21624e-07
6.51399e-07
6.14596e-07
6.01406e-09
6.01405e-09
6.01406e-09
6.0156e-09
4.38365e-07
1.56832e-05
2.13756e-09
1.77255e-09
1.77255e-09
2.24196e-09
4.2533e-07
1.18928e-06
3.2446e-07
9.43509e-07
2.57307e-06
1.46884e-06
3.99227e-10
4.00916e-10
5.16078e-07
1.83247e-06
1.37224e-06
2.18392e-08
2.19746e-08
1.22479e-08
1.42908e-08
9.71679e-09
7.24452e-09
7.23782e-07
1.75864e-05
2.8914e-09
1.77255e-09
3.29804e-09
1.73291e-09
4.18858e-09
3.55654e-08
3.57416e-08
5.2278e-07
2.57212e-06
5.35479e-07
3.97929e-10
3.99227e-10
4.94139e-07
5.03413e-06
5.49943e-06
2.57923e-06
8.75255e-09
8.74341e-09
1.62817e-08
1.60575e-08
1.02339e-08
5.15552e-08
8.29006e-07
7.36255e-09
7.67069e-08
8.56248e-08
2.60018e-09
7.856e-10
7.85585e-10
4.00304e-08
1.15978e-06
1.57766e-06
3.97482e-10
3.97482e-10
3.97926e-10
2.49606e-07
4.34487e-06
5.49943e-06
5.49943e-06
2.18386e-06
5.49697e-09
5.8724e-09
1.08103e-08
8.90212e-09
4.07235e-09
3.30303e-09
1.06663e-08
1.00485e-07
1.00478e-07
1.13331e-08
7.8559e-10
2.01398e-08
8.5931e-07
1.39347e-06
8.9974e-07
3.97482e-10
3.97482e-10
4.26622e-10
2.41862e-10
2.44647e-07
3.90617e-06
5.49538e-06
3.83353e-06
5.4971e-09
5.49697e-09
5.52569e-09
7.92696e-09
9.28784e-09
1.10734e-08
8.85925e-09
1.00481e-07
1.00484e-07
1.15693e-08
7.90754e-10
1.96589e-07
1.39361e-06
1.39367e-06
4.71907e-07
3.97481e-10
4.81406e-10
5.08372e-10
1.84219e-10
6.49334e-09
2.94479e-07
9.15148e-07
8.98886e-07
9.92683e-08
5.49713e-09
5.60983e-09
1.14988e-08
1.10462e-08
1.79639e-08
3.81054e-09
3.43867e-08
6.62056e-08
6.00234e-09
8.70183e-10
1.22264e-07
1.37112e-06
1.28457e-06
8.82581e-11
4.27783e-10
6.66917e-10
5.21618e-10
1.25834e-10
6.40476e-11
7.10859e-11
1.21899e-10
2.92146e-09
1.76929e-08
9.57925e-09
1.22631e-08
1.22634e-08
5.87869e-09
1.10524e-09
5.50127e-10
3.81557e-10
2.73297e-09
9.90902e-10
9.15636e-10
4.44475e-08
1.91027e-07
2.10055e-07
8.81268e-11
4.53228e-10
6.50474e-10
3.34802e-10
7.95676e-11
5.87682e-11
5.87706e-11
5.87872e-11
7.60786e-11
8.97033e-10
4.15514e-09
5.85386e-09
4.50331e-09
1.26595e-09
2.85901e-10
3.81469e-10
3.81513e-10
3.81557e-10
4.31192e-10
2.72739e-09
1.22222e-08
1.25472e-10
1.16592e-11
8.81303e-11
3.50439e-10
3.92187e-10
1.261e-10
4.12586e-11
5.24731e-11
5.98608e-11
6.03019e-11
6.00068e-11
7.47902e-11
1.72283e-10
1.933e-10
1.25969e-10
1.08387e-10
1.00163e-10
3.8155e-10
4.15304e-08
2.01778e-09
4.64095e-10
3.42585e-09
4.3972e-09
3.66757e-11
1.14592e-11
5.32358e-11
1.39765e-10
1.02456e-10
2.13136e-11
1.20677e-11
3.25118e-11
4.39129e-11
4.5482e-11
3.97625e-11
2.37376e-11
1.14276e-11
5.14818e-12
2.71298e-12
2.22555e-12
2.19067e-12
2.28163e-07
2.33362e-07
4.65996e-09
4.95349e-10
2.96249e-09
1.0397e-09
2.07972e-11
1.14586e-11
1.47017e-11
1.99667e-11
7.68397e-12
8.53376e-13
1.26673e-12
8.73391e-12
1.48046e-11
1.56495e-11
1.187e-11
5.49758e-12
2.22007e-12
1.10337e-12
5.39793e-13
2.58233e-13
2.0134e-13
2.76382e-07
2.26755e-07
2.62367e-09
4.67939e-10
1.69737e-09
1.0332e-10
1.3913e-11
9.77859e-12
1.41875e-12
5.04742e-13
3.64102e-14
-1.9745e-13
-7.86273e-14
4.37378e-13
1.12549e-12
1.25319e-12
7.34227e-13
2.701e-13
9.49186e-14
4.16678e-14
1.34356e-14
1.0059e-15
4.56607e-16
2.76382e-07
4.24493e-08
3.74177e-10
3.57754e-10
4.96416e-10
1.03062e-11
8.68647e-12
6.08584e-12
2.01948e-31
-3.32571e-13
-5.6205e-13
-7.39476e-13
-6.11695e-13
-2.8031e-13
-1.9447e-14
3.21385e-15
-2.06406e-15
-6.48039e-14
-7.69026e-14
-6.70628e-14
-5.12267e-14
-3.52611e-14
-2.20161e-14
2.76254e-07
1.36491e-10
1.36491e-10
1.76842e-10
7.0316e-11
4.21328e-12
3.49708e-12
1.70845e-12
-3.58462e-13
-7.53058e-13
-9.10942e-13
-9.47238e-13
-7.95803e-13
-5.46387e-13
-3.48008e-13
-2.39523e-13
-1.86736e-13
-1.50574e-13
-1.14119e-13
-8.13801e-14
-5.47384e-14
-3.46293e-14
-2.06291e-14
2.76474e-07
6.48662e-08
1.98853e-10
5.19341e-11
2.79322e-11
4.14906e-12
5.73444e-13
8.22953e-14
-5.01802e-13
-8.29882e-13
-9.24889e-13
-8.87438e-13
-7.37523e-13
-5.43522e-13
-3.79688e-13
-2.65841e-13
-1.89525e-13
-1.32914e-13
-8.9237e-14
-5.73145e-14
-3.55399e-14
-2.13143e-14
-1.22693e-14
2.76482e-07
2.71886e-07
1.0644e-09
2.88087e-11
2.88079e-11
4.4863e-12
2.98823e-13
4.89931e-14
-3.60467e-13
-6.10808e-13
-6.88491e-13
-6.57386e-13
-5.50315e-13
-4.15262e-13
-2.94673e-13
-2.0292e-13
-1.36943e-13
-8.88036e-14
-5.47073e-14
-3.21106e-14
-1.82584e-14
-1.02571e-14
-5.69892e-15
2.76482e-07
2.76482e-07
1.59339e-09
3.22987e-11
3.58721e-11
5.80406e-12
6.88223e-13
4.47594e-13
1.38831e-14
-1.76742e-13
-2.97799e-13
-3.4558e-13
-3.25215e-13
-2.61551e-13
-1.88669e-13
-1.27641e-13
-8.28794e-14
-5.07303e-14
-2.9107e-14
-1.57019e-14
-8.10883e-15
-4.16021e-15
-2.17563e-15
2.76482e-07
2.35082e-07
4.70283e-10
6.03139e-11
5.68334e-11
9.36536e-12
2.54997e-12
2.32232e-12
1.72388e-12
9.55298e-13
3.56065e-13
-1.0244e-14
-1.12854e-13
-1.31573e-13
-1.03958e-13
-6.99525e-14
-4.43274e-14
-2.59533e-14
-1.40151e-14
-6.99962e-15
-3.28244e-15
-1.51644e-15
-7.20196e-16
2.49519e-07
3.46545e-08
1.31398e-10
1.34268e-10
9.61764e-11
1.68681e-11
7.50055e-12
7.33272e-12
6.29499e-12
4.44542e-12
2.44788e-12
9.21398e-13
1.32486e-13
-4.03633e-14
-4.91625e-14
-3.42463e-14
-2.15183e-14
-1.21834e-14
-6.23901e-15
-2.90237e-15
-1.24414e-15
-5.22482e-16
-2.27488e-16
2.96203e-08
7.68193e-11
1.31361e-10
1.99041e-10
1.31551e-10
2.9546e-11
1.71021e-11
1.67571e-11
1.46749e-11
1.09842e-11
6.4731e-12
2.69063e-12
6.15378e-13
1.42619e-14
-1.81456e-14
-1.51075e-14
-9.62527e-15
-5.3219e-15
-2.6007e-15
-1.1332e-15
-4.49625e-16
-1.77704e-16
-7.45337e-17
7.68075e-11
7.67473e-11
1.5994e-10
2.06292e-10
1.36508e-10
4.58004e-11
3.12952e-11
3.0412e-11
2.64119e-11
2.00963e-11
1.21494e-11
5.00609e-12
1.05159e-12
5.48996e-14
-3.3592e-15
-5.99789e-15
-4.0123e-15
-2.18401e-15
-1.02244e-15
-4.20051e-16
-1.56452e-16
-5.81845e-17
-2.34551e-17
7.67473e-11
7.67471e-11
1.64795e-10
1.92819e-10
1.26355e-10
5.4517e-11
4.57848e-11
4.51942e-11
3.93961e-11
3.00781e-11
1.83099e-11
7.16318e-12
1.24577e-12
5.83075e-14
-1.96651e-16
-2.2014e-15
-1.57724e-15
-8.49904e-16
-3.8173e-16
-1.48069e-16
-5.16148e-17
-1.79682e-17
-6.9599e-18
8.44112e-11
6.76088e-11
1.27221e-10
1.13599e-10
8.52629e-11
5.38327e-11
5.19649e-11
5.29575e-11
4.88512e-11
3.8175e-11
2.2979e-11
8.31011e-12
1.2512e-12
4.92459e-14
9.74417e-17
-7.68278e-16
-5.92776e-16
-3.16417e-16
-1.36053e-16
-4.96302e-17
-1.6039e-17
-5.17075e-18
-1.8849e-18
1.57199e-10
5.16971e-11
5.66579e-11
5.14894e-11
5.1638e-11
5.15076e-11
5.19968e-11
5.38927e-11
5.18783e-11
4.16871e-11
2.46363e-11
8.42662e-12
1.13011e-12
2.9935e-14
7.05141e-17
-2.63419e-16
-2.16123e-16
-1.136e-16
-4.64508e-17
-1.57635e-17
-4.63302e-18
-1.35219e-18
-4.55174e-19
3.3046e-10
5.14941e-11
5.14894e-11
5.14893e-11
5.14892e-11
5.14893e-11
5.51492e-11
5.4396e-11
5.19036e-11
4.19407e-11
2.45881e-11
7.99739e-12
8.37451e-13
1.31334e-14
1.94511e-17
-9.15579e-17
-7.74968e-17
-3.95794e-17
-1.51998e-17
-4.7161e-18
-1.23133e-18
-3.1747e-19
-9.64766e-20
3.35447e-10
9.22711e-09
5.14941e-11
3.33581e-07
5.24504e-09
6.70677e-10
5.2762e-11
5.2443e-11
5.10404e-11
4.1395e-11
2.33896e-11
6.55502e-12
4.78324e-13
4.19127e-15
2.5565e-18
-3.27431e-17
-2.75894e-17
-1.34337e-17
-4.7623e-18
-1.32157e-18
-2.9798e-19
-6.56621e-20
-1.75555e-20
3.35476e-10
2.02631e-08
6.06979e-07
8.19837e-07
7.084e-07
9.07136e-08
4.37653e-11
4.37401e-11
4.82418e-11
3.89995e-11
2.00083e-11
4.33342e-12
1.97891e-13
8.95715e-16
2.14975e-19
-1.21215e-17
-9.80268e-18
-4.44704e-18
-1.42545e-18
-3.4519e-19
-6.51073e-20
-1.1774e-20
-2.67805e-21
3.35525e-10
4.38599e-09
8.19837e-07
8.19837e-07
8.19837e-07
1.76559e-07
4.18428e-11
4.14578e-11
4.44207e-11
3.39931e-11
1.46482e-11
2.18867e-12
5.44839e-14
1.09832e-16
7.23012e-21
-4.67851e-18
-3.48341e-18
-1.43611e-18
-4.07174e-19
-8.39054e-20
-1.28119e-20
-1.81202e-21
-3.34492e-22
7.27314e-10
7.27439e-10
3.94896e-07
8.19837e-07
6.62959e-07
8.33042e-08
5.31235e-11
4.14232e-11
3.97976e-11
2.64358e-11
8.68957e-12
7.80146e-13
8.82021e-15
6.44544e-18
-1.89435e-19
-1.89522e-18
-1.23794e-18
-4.53041e-19
-1.11265e-19
-1.90528e-20
-2.28206e-21
-2.38283e-22
-3.34006e-23
1.5332e-09
1.25526e-09
3.13627e-09
2.63205e-07
6.4678e-08
4.96234e-09
6.19816e-11
4.573e-11
3.40222e-11
1.73989e-11
3.80996e-12
1.70353e-13
7.07209e-16
1.70974e-19
-3.79264e-19
-7.90726e-19
-4.39481e-19
-1.40224e-19
-2.93178e-20
-4.09015e-21
-3.74506e-22
-2.72404e-23
-2.63056e-24
7.53749e-10
1.25896e-09
6.97834e-10
2.73761e-10
1.06686e-10
7.80349e-11
7.80276e-11
5.06011e-11
2.6156e-11
8.9125e-12
1.05129e-12
1.8248e-14
2.28256e-17
1.26621e-21
-2.75817e-19
-3.31711e-19
-1.5604e-19
-4.29521e-20
-7.55933e-21
-8.48061e-22
-5.83203e-23
-2.81186e-24
-1.63617e-25
-5.91274e-27
7.3951e-10
6.99064e-10
3.45997e-10
1.79955e-10
1.35853e-10
1.00465e-10
4.81811e-11
1.68433e-11
3.10401e-12
1.43582e-13
7.22474e-16
2.44605e-19
-1.98601e-20
-1.61075e-19
-1.39053e-19
-5.56628e-20
-1.31879e-20
-1.94989e-21
-1.7553e-22
-8.98184e-24
-2.75077e-25
-8.12106e-27
-7.88225e-28
1.48393e-10
5.81722e-10
5.26804e-10
3.92575e-10
2.36097e-10
1.02616e-10
3.20574e-11
5.7072e-12
4.0378e-13
5.30762e-15
6.34588e-18
7.68106e-22
-3.76825e-20
-8.64888e-20
-5.83034e-20
-2.00798e-20
-4.1247e-21
-5.18875e-22
-3.83216e-23
-1.50811e-24
-2.78428e-26
-2.97302e-28
0.999998
0.999998
0.999998
0.999998
0.99904
0.998961
0.999151
0.99863
0.405807
0.405023
0.403736
0.402106
0.000348816
0.000549918
0.000599988
0.000490396
0.000257685
0.000543466
0.000599858
0.000384175
8.54866e-05
0.000263163
0.000390782
0.000336067
1.43464e-05
6.73798e-06
3.95006e-06
1.37937e-05
1.27135e-06
5.69196e-08
5.53296e-08
4.68231e-08
1.40583e-05
2.11629e-05
5.73746e-06
1.08301e-06
2.11635e-05
2.11635e-05
2.11634e-05
2.11634e-05
2.11635e-05
2.11634e-05
2.11634e-05
2.11633e-05
7.87429e-06
2.1163e-05
2.11629e-05
2.11613e-05
2.19055e-09
2.19051e-09
2.19053e-09
2.19068e-09
1.09476e-08
5.50098e-09
4.39273e-09
2.74913e-09
2.21683e-08
2.36339e-08
7.69256e-08
1.43619e-07
8.22883e-10
2.02283e-09
1.45539e-07
2.39072e-07
1.42373e-11
3.55028e-13
7.3822e-10
4.78509e-08
5.47498e-12
3.4987e-13
9.02994e-14
2.00785e-14
3.68436e-13
2.28548e-13
1.01455e-13
2.00547e-14
1.76824e-13
1.24612e-13
6.91251e-14
3.75223e-14
1.37727e-15
2.07034e-16
-7.49617e-16
-1.34758e-15
-1.27301e-14
-1.01649e-14
-8.09808e-15
-6.42407e-15
-1.16998e-14
-9.18055e-15
-7.24494e-15
-5.73692e-15
-6.69092e-15
-5.02905e-15
-3.84311e-15
-2.97896e-15
-3.07794e-15
-2.21949e-15
-1.60791e-15
-1.17582e-15
-1.21076e-15
-8.60436e-16
-6.02434e-16
-4.09042e-16
-4.29308e-16
-2.97311e-16
-2.06182e-16
-1.36561e-16
-1.43924e-16
-9.62157e-17
-6.44535e-17
-4.23601e-17
-4.6981e-17
-3.03664e-17
-1.95537e-17
-1.24655e-17
-1.43946e-17
-9.00745e-18
-5.60592e-18
-3.44662e-18
-4.12671e-18
-2.48191e-18
-1.48277e-18
-8.73923e-19
-1.06681e-18
-6.11113e-19
-3.47583e-19
-1.94937e-19
-2.43249e-19
-1.31424e-19
-7.04422e-20
-3.71982e-20
-4.79718e-20
-2.41276e-20
-1.20292e-20
-5.90167e-21
-7.97963e-21
-3.67613e-21
-1.67751e-21
-7.52063e-22
-1.08694e-21
-4.49067e-22
-1.83673e-22
-7.3658e-23
-1.17156e-22
-4.21303e-23
-1.50047e-23
-5.22833e-24
-9.57785e-24
-2.8649e-24
-8.51139e-25
-2.47008e-25
-5.63855e-25
-1.29711e-25
-2.99273e-26
-6.75737e-27
-2.21765e-26
-3.36474e-27
-5.25807e-28
-8.15241e-29
-5.11698e-28
-3.63461e-29
-2.78656e-30
-2.22213e-31
-4.22638e-30
-5.61353e-32
-7.43351e-34
-1.04771e-35
0.999998
0.999998
0.999998
0.999998
0.999681
0.997758
0.997511
0.997781
0.990882
0.98548
0.985613
0.988044
0.987671
0.988289
0.996511
0.996515
0.996216
0.996537
0.997753
0.999782
0.996461
0.991909
0.987548
0.984223
0.981993
0.979999
0.980484
0.985003
0.985478
0.985134
0.982733
0.980695
0.97879
0.976326
0.973852
0.971892
0.966037
0.963527
0.398909
0.392872
0.388513
0.384106
0.379227
0.37393
0.367478
0.359583
0.351494
0.344283
0.335881
0.328472
0.322005
0.315128
0.30802
0.303543
0.301371
0.301084
0.300745
0.000359787
0.000751382
0.000775137
0.000764993
0.000731139
0.000463086
0.00028367
0.000193767
0.000186566
0.000186313
0.000186054
0.00018592
0.000185795
0.00018592
0.000186081
0.000186338
0.000186544
0.000186761
0.00018697
0.000284282
0.000736994
0.000738932
0.000712746
0.000726273
0.00074683
0.0007564
0.000763749
0.000763766
0.000728445
0.000617058
0.000423943
0.000185618
0.000420868
0.000507316
0.000507303
0.000507318
0.000507303
0.00043784
0.000164911
0.000155458
0.000170271
0.000150293
0.000118507
9.31534e-05
7.25965e-05
5.60013e-05
1.9915e-05
1.03339e-05
1.03297e-05
1.07871e-05
7.47539e-05
6.4412e-05
5.92005e-05
8.66741e-05
9.9647e-05
0.000107614
0.000143624
2.28781e-05
1.47113e-08
2.35831e-08
2.18219e-07
4.80574e-07
5.79424e-06
7.0192e-06
6.23467e-06
6.23356e-06
1.52464e-05
2.58176e-05
3.65574e-05
3.58478e-05
2.04471e-05
1.25353e-06
5.1508e-07
5.15079e-07
5.15079e-07
5.15079e-07
1.48001e-08
1.46143e-08
1.47871e-08
2.01666e-06
2.43751e-05
3.34417e-05
3.34107e-05
1.89986e-05
2.88803e-05
4.27759e-05
4.27797e-05
4.27797e-05
4.27797e-05
3.08501e-05
1.83238e-06
5.15079e-07
5.15078e-07
5.15078e-07
5.15079e-07
2.45942e-07
1.46143e-08
1.46143e-08
1.38426e-05
3.34407e-05
3.34443e-05
2.34788e-05
2.73648e-05
2.32687e-05
9.86102e-06
1.81309e-05
2.74299e-05
2.64835e-05
5.60893e-06
5.15078e-07
5.15078e-07
5.15078e-07
5.15078e-07
5.15078e-07
1.38601e-05
1.46143e-08
2.52472e-08
5.11347e-06
1.13809e-05
5.66469e-06
8.07369e-08
1.6961e-07
3.4287e-10
3.4296e-10
3.4287e-10
4.8538e-10
1.37687e-06
4.80783e-06
5.15078e-07
5.15077e-07
5.15078e-07
5.15078e-07
5.17494e-07
2.11632e-05
1.4985e-05
2.21854e-09
2.21904e-09
2.21966e-09
2.21969e-09
2.70238e-07
4.51939e-07
1.68325e-07
3.06673e-10
1.64499e-07
4.60767e-06
7.47001e-06
3.20114e-06
5.15077e-07
5.15077e-07
5.15087e-07
5.18477e-07
5.18477e-07
1.48278e-05
6.23079e-06
2.21873e-09
2.21854e-09
2.44808e-09
2.44788e-07
4.63e-07
4.52062e-07
1.09072e-07
2.69958e-10
8.79729e-07
7.6225e-06
7.6225e-06
5.83393e-06
5.15077e-07
5.15076e-07
5.15075e-07
5.15077e-07
5.15079e-07
2.19055e-09
2.55529e-09
3.0195e-09
2.86739e-09
9.78724e-09
1.13242e-08
7.55097e-09
2.64198e-10
2.64198e-10
2.64201e-10
3.22643e-10
2.98574e-06
7.6225e-06
7.6207e-06
2.17312e-06
5.15075e-07
5.15075e-07
5.15077e-07
5.15082e-07
3.20882e-09
2.23842e-09
2.23827e-09
2.23735e-09
1.76539e-09
2.64201e-10
2.64198e-10
2.64197e-10
2.64198e-10
3.1179e-10
3.1112e-10
6.83522e-11
3.42078e-06
6.048e-06
2.74782e-06
1.91413e-06
4.30867e-06
3.8477e-06
1.76878e-06
1.63153e-07
1.0271e-07
1.63671e-08
6.15883e-10
6.1582e-10
5.1352e-10
2.825e-10
2.6916e-10
4.57123e-10
5.2269e-10
3.39855e-10
6.83522e-11
6.83522e-11
7.12495e-11
1.67874e-06
1.04493e-05
1.04493e-05
1.04493e-05
1.04453e-05
2.39072e-07
2.39072e-07
2.0618e-07
9.03069e-09
9.59085e-10
1.04562e-09
6.11168e-09
1.03503e-08
2.82511e-09
2.65856e-10
1.73872e-10
7.1822e-11
7.06433e-11
7.17459e-11
1.01142e-06
7.81059e-06
1.01699e-05
5.6978e-06
2.9096e-06
1.77071e-07
2.39056e-07
2.3904e-07
2.16904e-07
9.60781e-10
1.40414e-09
3.7776e-08
6.39066e-08
2.95516e-08
2.4153e-09
2.87038e-11
4.41937e-11
7.0597e-11
4.40968e-10
3.40116e-09
1.00154e-12
3.4476e-08
1.22899e-12
1.28814e-12
5.27046e-10
8.24351e-08
2.14782e-07
1.62599e-07
8.47059e-09
2.6778e-09
5.23119e-08
6.39066e-08
6.39066e-08
2.23602e-08
2.87006e-11
3.57044e-11
1.4316e-10
4.92748e-10
1.00157e-12
1.00096e-12
1.00154e-12
1.09502e-12
1.4267e-12
2.52771e-19
4.93038e-35
-1.00473e-31
4.30571e-20
8.37621e-10
2.39211e-09
2.96808e-08
6.39066e-08
6.08714e-08
2.03771e-08
2.86915e-11
2.86887e-11
4.64744e-11
4.7557e-11
4.78515e-11
1.00037e-12
6.77359e-11
9.51069e-09
5.0031e-08
1.27382e-14
-2.54483e-16
-1.48146e-16
-5.61342e-32
4.30554e-20
7.94515e-19
6.60636e-16
3.52048e-09
6.41715e-09
3.01374e-11
8.25848e-11
2.66764e-11
3.6405e-11
4.48357e-12
6.67364e-13
9.96882e-13
9.9713e-13
4.38077e-08
1.53526e-06
-1.48428e-15
-1.08516e-15
-4.73998e-16
3.02196e-16
1.72317e-15
3.13879e-15
3.13876e-15
3.14286e-15
3.1608e-15
3.2039e-15
3.71588e-13
8.0096e-12
1.8703e-11
1.35181e-12
5.91808e-13
6.69624e-13
4.43575e-13
4.30202e-08
2.09152e-06
-5.09555e-15
-2.6586e-15
-1.16315e-15
6.43639e-18
3.5487e-15
1.41592e-14
2.9338e-14
6.75094e-14
1.21361e-13
1.61142e-13
2.09041e-13
3.76738e-13
4.96618e-13
1.86867e-13
8.26762e-14
4.40334e-13
4.40357e-13
1.49514e-09
2.09155e-06
-4.55502e-15
-2.55539e-15
-1.40867e-15
-7.35579e-16
-3.10849e-16
0
1.25093e-15
1.81818e-14
5.83396e-14
7.24421e-14
7.35665e-14
1.27884e-13
1.43017e-13
4.5812e-14
2.38979e-14
3.76983e-13
1.80301e-12
6.90975e-13
2.09148e-06
-2.33199e-15
-1.32281e-15
-7.47442e-16
-4.20064e-16
-2.32639e-16
-1.23903e-16
-5.57972e-17
-3.56167e-19
2.03653e-16
1.27094e-15
2.11569e-15
3.48357e-15
9.66112e-15
5.16306e-15
1.0915e-14
3.36101e-13
1.7762e-12
6.90953e-13
1.87587e-06
-8.75803e-16
-4.83486e-16
-2.67396e-16
-1.48253e-16
-8.24677e-17
-4.63014e-17
-2.55957e-17
-1.26841e-17
-2.72714e-18
2.70316e-18
2.1432e-17
7.54813e-17
2.82602e-16
1.21222e-15
8.43071e-15
3.08695e-13
1.77349e-12
6.90975e-13
1.18458e-07
-2.69192e-16
-1.42401e-16
-7.538e-17
-4.03195e-17
-2.1974e-17
-1.20279e-17
-6.4283e-18
-2.98361e-18
-7.31078e-19
8.15585e-19
1.05034e-17
4.79637e-17
2.23325e-16
1.10041e-15
8.233e-15
3.01e-13
1.95949e-12
9.30263e-13
9.3028e-13
-7.31258e-17
-3.62769e-17
-1.84239e-17
-9.54123e-18
-4.96483e-18
-2.42372e-18
-9.2008e-19
9.705e-20
1.66125e-18
1.03468e-17
2.19219e-17
5.1213e-17
2.19681e-16
1.10709e-15
1.13788e-14
3.1162e-13
2.30092e-12
1.12495e-12
1.05952e-08
-1.94007e-17
-8.76495e-18
-4.06619e-18
-1.93532e-18
-8.49811e-19
3.90401e-22
7.75943e-19
6.92393e-18
3.26049e-17
9.49321e-17
1.86062e-16
3.43692e-16
1.16578e-15
8.64105e-15
8.11961e-14
6.02231e-13
2.86113e-12
1.12695e-12
1.30984e-06
-5.11874e-18
-2.0736e-18
-8.56822e-19
-3.50666e-19
3.30773e-21
1.31671e-18
1.26617e-17
6.2027e-17
2.2563e-16
6.85045e-16
2.17771e-15
1.15154e-14
6.71919e-14
3.4819e-13
9.79537e-13
2.58008e-12
4.46716e-12
1.13595e-12
2.16573e-06
-1.31754e-18
-4.87325e-19
-1.79371e-19
-5.00677e-20
4.06685e-19
7.99456e-18
7.01642e-17
3.5142e-16
1.5622e-15
7.71928e-15
5.58749e-14
3.84752e-13
1.69998e-12
5.24823e-12
7.78413e-12
9.9038e-12
9.51559e-12
1.14109e-12
2.16577e-06
-3.12156e-19
-1.06729e-19
-3.52063e-20
9.39278e-21
1.10302e-18
2.16977e-17
2.75674e-16
1.965e-15
1.42976e-14
1.07913e-13
8.09128e-13
4.23225e-12
1.34443e-11
2.76808e-11
3.18195e-11
2.67182e-11
2.2115e-11
1.14403e-12
2.14652e-06
-6.46346e-20
-2.0411e-20
-5.72581e-21
3.5325e-20
1.65619e-18
4.22385e-17
7.52383e-16
9.06049e-15
9.2175e-14
7.1825e-13
4.23855e-12
1.6949e-11
4.23803e-11
6.5261e-11
7.08146e-11
5.2874e-11
4.49194e-11
1.15002e-12
2.06305e-06
-1.1296e-20
-3.25477e-21
-5.2642e-22
3.75109e-20
2.01197e-18
5.98921e-17
1.38607e-15
2.65539e-14
2.9784e-13
2.11592e-12
1.00336e-11
3.3246e-11
7.17626e-11
9.13478e-11
9.89212e-11
9.16872e-11
9.12584e-11
1.16587e-12
2.06319e-06
-1.61364e-21
-4.16086e-22
7.16526e-23
3.33177e-20
2.09938e-18
6.69376e-17
1.83175e-15
4.80168e-14
5.347e-13
3.45461e-12
1.41765e-11
4.17787e-11
8.40003e-11
9.79436e-11
1.03792e-10
2.43829e-10
3.36512e-10
1.18173e-12
2.06311e-06
-1.81454e-22
-4.05979e-23
1.02979e-22
1.84006e-20
1.81792e-18
6.57455e-17
1.95866e-15
6.02961e-14
6.51414e-13
3.95533e-12
1.5262e-11
4.23841e-11
8.37715e-11
8.52429e-11
6.2662e-11
1.18129e-09
1.83708e-09
1.24943e-12
7.52451e-07
-1.5301e-23
-2.74631e-24
3.55912e-23
7.51876e-21
9.26945e-19
4.06878e-17
1.67816e-15
6.20873e-14
6.56215e-13
3.77975e-12
1.29526e-11
2.78528e-11
5.38538e-11
4.20704e-11
1.31939e-12
3.09485e-09
4.45758e-09
2.92973e-10
2.9303e-10
-9.05709e-25
-8.49625e-26
1.1894e-23
2.63807e-21
3.28346e-19
1.42864e-17
7.397e-16
4.26743e-14
4.0933e-13
1.99573e-12
5.59099e-12
9.25581e-12
1.81199e-11
1.08898e-11
1.31937e-12
4.05211e-09
5.01206e-09
2.9303e-10
2.35014e-07
-3.41352e-26
8.79753e-27
2.58292e-24
7.16655e-22
9.36741e-20
3.7069e-18
1.87774e-16
1.3929e-14
1.2253e-13
5.33636e-13
1.31067e-12
1.97371e-12
3.54384e-12
1.50497e-12
1.31937e-12
2.5418e-09
4.6864e-09
4.82923e-10
6.44755e-07
-6.95928e-28
1.29157e-27
3.45976e-25
1.2762e-22
1.89744e-20
7.29116e-19
3.26159e-17
2.65749e-15
2.1824e-14
8.74187e-14
1.92258e-13
2.81682e-13
4.55458e-13
1.03319e-13
3.85638e-12
3.59239e-10
1.53508e-09
3.40527e-10
6.44765e-07
-5.53941e-30
9.63101e-29
2.47572e-26
1.32708e-23
2.21541e-21
9.1056e-20
3.71267e-18
3.06937e-16
2.34926e-15
8.6379e-15
1.72545e-14
2.44365e-14
3.56171e-14
3.90592e-15
1.16349e-11
1.44271e-11
8.51315e-11
2.79712e-23
6.30256e-07
-7.78985e-33
5.52376e-33
4.27716e-28
6.58502e-25
1.11505e-22
5.01106e-21
2.12151e-19
1.67111e-17
1.18848e-16
4.00399e-16
7.38121e-16
1.01622e-15
1.29255e-15
2.65716e-16
4.56864e-13
1.25713e-17
2.79712e-23
1.39856e-23
5.82655e-07
-6.9306e-38
-5.06383e-40
3.79192e-36
5.03362e-31
8.72949e-28
2.03461e-25
3.55338e-23
2.6503e-21
1.27214e-20
3.6108e-20
5.94233e-20
7.17435e-20
2.86108e-20
1.05326e-21
3.26314e-17
9.6113e-18
1.28655e-19
0
5.45193e-07
)
;

boundaryField
{
    leftWall
    {
        type            zeroGradient;
    }
    rightWall
    {
        type            zeroGradient;
    }
    lowerWall
    {
        type            zeroGradient;
    }
    atmosphere
    {
        type            inletOutlet;
        inletValue      uniform 0;
        value           nonuniform List<scalar> 
46
(
0
1.48393e-10
5.81722e-10
5.26804e-10
3.92575e-10
2.36097e-10
1.02616e-10
3.20574e-11
5.7072e-12
4.0378e-13
5.30762e-15
6.34588e-18
7.68106e-22
-3.76825e-20
-8.64888e-20
-5.83034e-20
-2.00798e-20
-4.1247e-21
-5.18875e-22
-3.83216e-23
-1.50811e-24
-2.78428e-26
0
0
0
0
0
0
0
0
0
0
0
0
0
0
0
0
0
0
0
0
0
0
0
5.45193e-07
)
;
    }
    defaultFaces
    {
        type            empty;
    }
}


// ************************************************************************* //
