/*--------------------------------*- C++ -*----------------------------------*\
  =========                 |
  \\      /  F ield         | OpenFOAM: The Open Source CFD Toolbox
   \\    /   O peration     | Website:  https://openfoam.org
    \\  /    A nd           | Version:  9
     \\/     M anipulation  |
\*---------------------------------------------------------------------------*/
FoamFile
{
    format      ascii;
    class       volScalarField;
    location    "29.65";
    object      p;
}
// * * * * * * * * * * * * * * * * * * * * * * * * * * * * * * * * * * * * * //

dimensions      [0 2 -2 0 0 0 0];

internalField   nonuniform List<scalar> 
918
(
23.4693
23.5762
0.953212
22.8867
1.01706
23.0926
3.27287
13.7852
19.2425
2.93437
2.62495
14.4086
20.6356
16.877
12.9932
0.925029
14.0521
2.24693
18.4602
1.39808
12.9924
20.448
21.5367
19.2843
14.1214
14.3722
18.5979
1.14497
0.10788
0.255004
0.97926
0.410794
0.147564
21.6295
22.3062
22.2445
15.4951
10.4028
3.59802
3.80255
2.98334
2.80638
13.8278
13.9278
5.86742
13.764
13.7598
16.644
19.1106
19.2542
19.5474
19.3364
19.7228
5.97435
2.7856
2.60571
2.87627
2.95059
2.98312
2.69733
2.67897
2.48253
2.33656
13.888
14.4817
14.5368
14.268
14.2157
22.4522
21.6953
22.03
21.1364
21.2818
20.2117
19.8261
17.2527
17.6051
16.4789
16.0981
12.7836
12.7447
13.2131
13.463
0.145404
1.07609
1.22331
14.0591
14.0956
14.0956
14.1101
8.28331
2.18876
2.19155
17.9006
17.477
20.4819
20.7491
20.1961
20.0106
1.52991
1.52579
1.15066
1.18125
0.950448
13.3337
13.4878
19.2357
18.4026
14.1549
14.0549
14.1299
11.5001
13.9103
13.9836
15.3217
15.7773
14.9665
15.403
18.1679
17.7499
19.0345
19.4717
0.393056
0.15459
0.687617
0.318289
0.516722
15.3634
15.158
15.611
15.6618
15.893
10.4076
10.3382
10.3816
10.3015
4.14983
4.46443
2.25575
2.57033
2.42123
9.86627
13.9441
13.9908
4.81136
5.51569
5.17903
6.35013
6.72451
16.0097
16.4463
16.1851
17.7314
16.9363
17.2845
19.8136
19.3028
19.6032
6.36898
6.60336
5.60854
5.24978
2.2389
2.48833
2.43045
2.98189
2.95986
3.21793
3.34633
2.69861
2.55528
2.89321
2.77651
2.82866
2.16584
2.03602
13.612
13.3981
14.151
14.3295
15.0968
14.9484
14.655
14.8238
19.0212
19.4247
19.4582
19.074
11.5453
10.1558
13.7174
13.993
0.302103
0.264573
0.138291
0.38096
0.400683
0.142596
2.01576
1.82727
1.40569
1.68106
14.0567
14.0165
8.5239
8.74351
8.1198
7.86361
16.3147
16.4649
17.0991
16.6989
1.96242
1.67617
1.80604
13.6509
13.5233
13.6302
10.9352
10.3686
11.9778
12.2476
13.9917
14.0355
14.0315
15.6814
15.9998
19.8226
20.0932
19.9201
20.3059
21.3687
21.02
20.6352
14.5393
14.9477
14.7861
16.1283
15.762
15.9815
15.1894
15.494
15.352
10.3699
10.4162
10.1198
10.1977
10.2462
10.1933
9.80351
9.67654
14.0774
14.0325
14.0565
7.25258
7.75063
4.86951
4.54068
12.5439
13.2171
12.8926
18.651
17.9733
18.7063
18.3354
17.8854
18.2089
10.427
10.3886
10.422
14.9173
14.2551
14.6071
2.44127
2.07702
2.24005
8.93949
9.03286
6.97146
7.58811
7.25119
16.3015
16.6418
17.322
16.4337
16.9014
17.4087
17.1867
9.93952
10.0723
9.9892
9.65999
9.55355
9.73534
8.33588
8.94918
3.61291
4.2695
3.96539
9.20084
9.43076
9.27803
18.6303
19.1651
0.765669
1.1529
19.5951
19.3188
0.139337
0.24223
14.2537
12.5513
7.26284
17.1975
16.6301
18.9699
3.19277
6.10281
2.80974
3.38084
2.68656
14.6157
14.2497
13.3408
0.452848
1.25671
1.70915
2.89672
18.4107
17.7355
18.8516
19.1718
19.2261
0.687491
0.912595
0.584059
1.24215
1.03088
1.27585
15.5512
15.6493
4.32397
18.8586
19.1629
19.1807
17.6574
18.6101
17.6676
0.935702
0.642728
0.70757
10.0808
12.1217
14.2139
13.7665
13.9635
13.9856
13.7365
14.8698
14.5393
14.5042
14.9891
13.9665
13.8212
7.73462
6.38354
8.06908
7.70943
17.0988
16.6867
16.4936
16.2393
18.0851
17.6112
18.4615
17.8499
18.3118
18.5986
2.94355
3.13327
3.01236
2.52103
6.14354
6.60646
5.48835
5.63401
4.25963
2.42854
2.52716
2.75349
2.58424
2.9315
2.67904
2.9431
2.57946
2.32384
2.32188
2.93117
2.73891
2.60461
14.5941
14.5326
14.3334
14.3715
14.3539
14.4696
13.5353
13.94
13.5677
12.3988
12.98
12.5073
0.825815
0.663416
0.524947
1.32415
1.35127
1.11086
0.834471
1.17354
1.20181
0.813967
1.54537
1.44506
3.15603
2.64458
8.84069
7.96848
6.90131
16.8007
17.6025
16.7722
18.0129
18.4299
18.5353
18.1557
17.6475
15.73
15.7251
15.3852
15.3386
4.77125
3.73204
4.96734
4.53642
10.4781
14.0655
11.8428
10.804
11.1003
13.4244
13.9291
13.5814
13.7184
13.2935
12.8216
13.5135
13.0473
13.1486
12.9276
15.7181
16.1932
15.7997
15.2202
15.2402
10.5991
12.0157
5.46584
5.63982
7.24431
6.53817
13.51
13.933
13.9177
13.5561
13.7439
13.745
13.6059
13.78
13.8599
13.7545
11.8247
10.1441
9.0454
9.03898
14.0769
12.3463
12.9306
12.4139
16.1206
16.6371
16.2518
15.6462
16.1313
15.6031
15.6304
15.8435
17.2017
16.9513
16.721
17.1079
3.05488
3.00359
3.64734
3.13375
3.03683
2.82003
3.48405
4.75851
4.41621
6.71862
7.2692
4.58023
3.37294
3.79311
4.80809
5.54159
5.51148
3.96949
4.5014
4.93024
4.44079
5.22468
4.72915
2.71803
3.02521
2.86342
2.83709
3.38202
3.88048
3.37598
2.48061
2.59247
2.25656
2.11882
3.53624
2.99595
3.0327
3.67887
1.10695
1.3291
1.4413
2.414
1.91334
1.97929
15.1827
14.8268
14.9604
14.2396
14.3071
14.2482
13.8727
15.2401
14.9622
15.0616
13.7101
13.7968
13.6101
13.9054
14.3214
14.6206
15.4525
15.1736
14.4127
14.5637
14.2146
14.1429
13.4648
12.9019
12.8413
1.11275
0.824837
0.98419
0.910912
0.606257
0.798527
2.18352
1.57307
1.97065
1.72688
1.96012
1.40333
1.30243
4.2534
5.06404
3.96419
3.36565
3.06277
8.89907
9.01061
8.15929
7.85715
8.19871
8.42751
8.37725
7.135
7.56216
7.37518
9.9159
9.58026
17.5869
17.531
17.2022
17.0433
17.2697
5.76261
7.66546
6.79939
7.91555
10.2069
10.5026
9.31114
8.70533
9.45671
9.53461
14.0472
14.1233
13.5642
14.0501
14.0786
11.8353
12.8825
13.4974
13.3119
13.8317
13.9126
12.9736
13.5623
13.4776
12.7603
12.8132
12.128
12.4666
11.9947
11.7937
14.0563
13.951
14.2207
13.7716
14.1509
13.7151
14.0304
14.0284
14.309
13.411
12.8323
12.8507
13.277
12.9771
13.323
13.4871
9.3087
9.94884
10.3876
10.9233
10.6306
10.4126
10.2799
10.5816
10.5584
10.8297
10.7491
10.6
11.5608
13.4162
13.7012
13.8026
13.5997
13.6458
13.3384
13.6113
13.5406
13.9198
14.0077
14.0574
13.1381
13.2941
13.4889
13.3727
11.6754
10.0972
9.94941
9.50942
7.57707
8.04678
11.0256
9.90249
8.91773
8.98967
12.1688
10.8062
11.6195
12.0427
10.6943
10.3062
12.9714
13.7595
13.9794
13.7036
12.0604
12.1862
12.6359
13.0791
13.2684
13.7241
15.8605
16.4361
16.514
16.2381
16.1001
16.1999
15.95
16.0531
16.5272
16.6537
16.485
2.88011
2.99379
2.92386
2.84919
3.08592
2.86142
3.95645
3.94729
3.15668
3.33702
3.35703
3.46248
2.93131
2.97442
4.82653
5.06221
5.33389
4.83241
6.17556
6.81681
7.39819
7.08353
5.78993
5.86935
6.18476
3.50743
3.53361
3.2519
3.70936
3.76202
2.61144
2.2389
2.04411
2.56484
2.66633
2.05105
1.76812
1.81727
2.33176
2.05051
1.80459
14.9752
14.7335
14.7549
14.5347
14.5893
14.9841
15.205
15.0151
15.1535
15.2045
14.8036
14.6925
14.8636
1.81858
1.49377
1.62263
1.58067
1.64363
1.54971
1.73777
7.60607
6.41597
6.80344
5.97891
4.12099
4.64187
9.53924
9.9607
9.99916
9.71037
9.50028
9.86604
9.71683
9.70959
8.26362
9.33246
8.86828
9.26131
9.28267
9.35042
9.06498
9.08098
10.5847
10.6182
9.4832
10.1228
9.33158
7.93238
8.09939
9.11304
10.0866
10.4049
10.25
9.98005
9.75145
10.1146
10.1693
10.2294
10.2186
8.75198
8.71186
8.31133
13.9689
13.8754
14.022
14.0271
14.154
13.979
13.816
14.0932
14.1475
13.9318
11.0778
11.1367
11.3826
12.1293
12.1813
12.0921
11.3368
13.1009
12.7566
13.3945
13.3413
13.4136
13.0039
12.8271
13.0975
10.081
11.4539
10.9868
11.25
10.0635
9.30706
13.2236
13.2778
13.3431
13.6161
13.5741
14.1575
15.8304
15.7003
15.7476
15.7906
15.4023
15.4396
4.17563
3.82948
4.55095
4.50658
4.06483
3.7649
2.28668
1.96874
1.78077
1.65593
1.88943
1.95059
8.16271
8.18985
6.33418
7.35576
5.8766
4.93488
4.79033
5.95583
7.13709
7.19601
8.51368
9.1899
8.74901
8.5743
7.91853
8.24816
10.1165
10.2108
10.1113
10.4303
9.96298
11.7126
11.2947
11.6436
13.2576
12.9673
12.3692
12.2558
12.2206
12.8136
11.9478
11.1795
11.8919
12.5474
12.5056
11.1183
10.8733
11.3
11.284
10.1981
10.7182
10.4802
10.8327
10.548
)
;

boundaryField
{
    wall-4
    {
        type            zeroGradient;
    }
    velocity-inlet-5
    {
        type            zeroGradient;
    }
    velocity-inlet-6
    {
        type            zeroGradient;
    }
    pressure-outlet-7
    {
        type            fixedValue;
        value           uniform 0;
    }
    wall-8
    {
        type            zeroGradient;
    }
    frontAndBackPlanes
    {
        type            empty;
    }
}


// ************************************************************************* //
