/*--------------------------------*- C++ -*----------------------------------*\
  =========                 |
  \\      /  F ield         | OpenFOAM: The Open Source CFD Toolbox
   \\    /   O peration     | Website:  https://openfoam.org
    \\  /    A nd           | Version:  9
     \\/     M anipulation  |
\*---------------------------------------------------------------------------*/
FoamFile
{
    format      ascii;
    class       volVectorField;
    location    "29.65";
    object      U;
}
// * * * * * * * * * * * * * * * * * * * * * * * * * * * * * * * * * * * * * //

dimensions      [0 1 -1 0 0 0 0];

internalField   nonuniform List<vector> 
918
(
(2.47629 -0.138943 0)
(0.108704 0.722546 0)
(0.171735 1.05377 0)
(2.31834 0.153728 0)
(-0.0597941 1.27071 -1.22268e-19)
(-0.0924034 0.643931 -5.31392e-18)
(0.530012 0.849601 -2.95406e-19)
(0.274319 0.152871 -2.9885e-20)
(3.00615 -0.0195607 0)
(-0.00824958 0.476879 0)
(-0.0172057 0.589389 0)
(0.605212 0.00676615 0)
(0.0107054 0.439105 0)
(-0.00288245 0.421689 0)
(0.0134385 0.340818 -1.30516e-18)
(-0.00471547 0.768985 -9.20739e-20)
(0.3124 0.074269 2.15216e-18)
(0.0797426 0.642428 -2.23005e-19)
(1.52884 0.128628 0)
(-0.0267182 0.68525 0)
(0.194588 0.15772 -1.26557e-18)
(3.08302 -0.397373 0)
(2.92445 -0.50598 0)
(1.86116 -0.1811 0)
(0.511384 0.0400858 0)
(-0.0253685 0.52155 0)
(-0.00135313 0.494038 1.86243e-18)
(-0.0225194 1.40024 0)
(0.0745561 2.88367 0)
(0.168146 1.73639 0)
(-0.0385876 3.16555 0)
(0.0271562 1.64025 9.40127e-20)
(0.0232856 0.686713 0)
(-0.147425 0.775094 -2.03089e-22)
(-0.193914 1.0291 4.42132e-18)
(-0.0415772 1.04471 0)
(0.744578 -0.00600503 0)
(0.161008 0.246313 6.65559e-19)
(0.993485 1.51301 6.52914e-19)
(0.649932 0.784356 -5.1606e-19)
(0.798588 1.57514 6.20095e-20)
(0.4168 0.851367 -3.20165e-19)
(0.552315 0.30656 2.93915e-20)
(0.296965 0.153643 0)
(0.962992 0.566565 0)
(0.532595 0.303943 1.32016e-19)
(0.257972 0.162788 -1.35468e-19)
(0.871596 -0.0554787 0)
(3.02784 -0.0017048 0)
(3.00685 0.0178656 0)
(3.20086 -0.417733 0)
(3.04288 -0.0742117 0)
(3.03116 -0.0388406 0)
(0.018623 0.903266 -1.14637e-18)
(-0.0542515 0.974149 0)
(0.00283785 0.455026 0)
(-0.0291292 0.981198 0)
(-0.0113918 0.481226 0)
(-0.00133544 0.870203 0)
(-0.0520828 1.11073 0)
(-0.0125523 0.541715 0)
(-0.0253367 1.16204 0)
(-0.00591603 0.621628 0)
(0.790478 0.0116242 0)
(1.16942 -0.00156192 0)
(0.618249 0.0123697 0)
(1.12578 0.0175986 0)
(0.56976 0.0086793 0)
(0.225406 0.921982 1.9598e-18)
(0.0985379 1.2081 0)
(0.176302 1.06604 0)
(0.0331901 0.755774 2.19933e-23)
(0.0372233 0.498055 -2.93104e-18)
(0.0194616 0.747943 0)
(0.00595421 0.422033 0)
(-0.000695318 0.734548 4.51745e-24)
(0.000702479 0.414825 0)
(-0.0169204 0.74318 0)
(-0.0129373 0.42798 0)
(0.0494378 0.649984 0)
(0.0484406 0.458229 0)
(0.00800663 0.621954 1.23401e-18)
(0.000745429 0.344905 0)
(-0.0685282 4.69211 0)
(0.00891171 1.45863 9.14103e-20)
(-0.010481 0.785713 -1.17681e-19)
(0.63609 0.152147 -7.50953e-19)
(0.321616 0.0656848 -7.28713e-19)
(0.644795 0.169723 -2.25467e-18)
(0.317534 0.0955716 -1.45157e-18)
(0.0785494 0.618489 0)
(0.17852 1.31362 1.84926e-19)
(0.179687 0.730152 -2.95054e-19)
(2.06031 0.260946 0)
(1.10704 0.11845 0)
(3.03313 0.103887 0)
(3.10392 0.446059 0)
(2.83919 0.377459 -1.01279e-17)
(2.5781 0.361309 7.77131e-18)
(-0.0706748 1.26267 0)
(-0.0113491 0.623008 0)
(-0.0139903 1.89994 0)
(-0.0507002 1.34615 0)
(-0.0480189 0.678843 0)
(0.440318 0.295633 4.00676e-19)
(0.225467 0.163362 0)
(2.2961 -0.266393 0)
(1.32372 -0.119273 0)
(1.07633 0.0126686 0)
(1.01199 0.0187647 0)
(0.540924 0.0108509 0)
(1.01986 0.0563985 0)
(0.821219 0.070326 0)
(0.343624 0.0286957 3.36302e-18)
(-0.00543504 0.451601 1.77351e-18)
(-0.0270314 0.784628 0)
(-0.0473179 0.847508 0)
(-0.015274 0.460436 0)
(0.000132484 0.839725 1.81598e-18)
(7.30037e-05 0.48753 0)
(-0.0054789 0.845554 -5.59034e-18)
(-0.00488634 0.496761 1.88634e-18)
(0.0542028 3.56546 0)
(0.0426963 4.02476 0)
(-0.016282 1.41118 -2.05231e-21)
(-0.013101 1.36361 0)
(-0.00981859 0.741683 0)
(1.41018 0.0348842 0)
(0.760549 0.0154386 0)
(0.709514 0.0142643 0)
(1.41618 -0.0328482 0)
(0.773515 -0.00873977 0)
(0.322072 0.480371 -8.35633e-19)
(0.156812 0.232729 0)
(0.324975 0.509191 9.36503e-20)
(0.163368 0.268445 0)
(1.24072 1.38677 1.66472e-19)
(0.778645 0.740804 -3.92479e-19)
(0.411547 1.42191 0)
(0.607109 1.53383 0)
(0.303507 0.814677 0)
(0.145341 0.353403 -4.4286e-19)
(0.607312 0.280722 0)
(0.313514 0.13464 3.98827e-19)
(1.42726 1.30665 0)
(1.58662 1.16849 0)
(0.874874 0.663883 4.61769e-19)
(1.73387 0.953065 0)
(1.06857 0.438762 2.32213e-20)
(1.47298 0.00813842 0)
(1.501 -0.0292391 0)
(0.801896 -0.00441622 0)
(1.95042 -0.199779 0)
(1.65082 -0.14818 0)
(1.05215 -0.0889697 0)
(3.06126 0.164853 0)
(3.03105 0.0687874 0)
(3.01022 0.0531594 0)
(0.0357312 1.60605 6.08265e-19)
(0.0178824 0.827214 0)
(0.017985 1.69682 1.07987e-18)
(0.00305224 0.939189 -9.70833e-19)
(0.0646817 1.15211 1.87843e-19)
(0.0477025 0.988979 0)
(0.0401852 0.528591 0)
(-0.0286541 1.00519 0)
(-0.00697877 0.517357 0)
(0.0181322 1.61631 -4.43334e-21)
(-0.0180832 0.865964 0)
(-0.0539515 1.58491 -2.25812e-19)
(-0.0161526 0.821165 4.37338e-19)
(-0.00177586 1.02943 0)
(0.0102688 1.04362 0)
(5.63475e-05 0.531397 0)
(0.0106714 1.17049 0)
(0.000905665 0.612124 0)
(1.46831 -0.00370402 0)
(0.789216 0.00805955 0)
(1.44055 0.0331659 0)
(0.761791 -0.00055764 0)
(0.675383 0.00534449 0)
(1.26196 0.016682 0)
(1.20239 0.0473082 0)
(0.659691 0.0155559 0)
(-0.00580052 1.42077 -1.70208e-20)
(0.00018432 1.37708 0)
(0.00482012 0.732923 0)
(0.00172892 0.417221 0)
(0.284448 0.828777 0)
(0.253625 0.399746 -2.87139e-19)
(-0.00223147 0.63541 0)
(-0.00889682 0.367611 0)
(0.011012 4.33738 0)
(-0.0493955 4.66434 0)
(-0.0188342 4.56588 0)
(-0.0723458 3.36831 2.04391e-20)
(-0.0585048 4.60347 0)
(-0.0523168 4.18069 0)
(0.00483405 0.819477 1.08058e-20)
(0.0142174 1.56313 1.6541e-19)
(-0.0358855 1.50359 1.20906e-19)
(-0.00745523 0.826278 0)
(0.664433 0.105709 1.1533e-18)
(0.325687 0.0441635 -1.13026e-18)
(0.149697 1.13353 0)
(0.100964 0.573477 -2.69254e-19)
(0.118166 1.23342 -8.74363e-19)
(0.0518754 0.687248 8.69862e-19)
(0.809202 0.0240635 0)
(1.55677 0.0476795 0)
(1.7097 0.127652 0)
(0.919845 0.0445228 0)
(0.00791193 1.18167 0)
(0.0258312 1.18973 0)
(0.00449542 0.627587 0)
(0.482116 0.315085 1.20362e-18)
(0.436851 0.309086 -1.3867e-18)
(0.234769 0.164176 0)
(1.93549 0.152998 1.15241e-19)
(1.13641 0.0932498 0)
(1.72435 0.118443 0)
(0.883726 0.0226946 0)
(0.678176 0.085739 0)
(0.699718 0.04606 -5.40761e-18)
(0.34673 0.0325964 1.99905e-18)
(0.0091473 0.807284 1.69368e-18)
(0.00222278 0.46251 4.08166e-20)
(-0.0108777 1.40842 -3.58005e-20)
(0.00613616 1.38675 1.36587e-18)
(-0.0149832 0.848955 6.29438e-20)
(-0.0119261 0.524486 -2.52907e-22)
(-0.107514 1.00068 -1.16488e-18)
(-0.0529602 1.3532 8.33994e-19)
(-0.0175323 1.35275 -1.35776e-18)
(1.42273 -0.0170848 0)
(1.44236 0.0203183 0)
(0.769871 -0.000177715 0)
(1.45218 0.0253833 0)
(1.36319 0.0462297 0)
(0.761541 0.020307 0)
(1.30062 -0.00215368 0)
(1.31867 -0.00584879 0)
(0.695055 -0.000986503 0)
(0.304866 0.473419 -9.15242e-19)
(0.161362 0.242687 0)
(0.157163 0.308445 1.36942e-19)
(0.309606 0.585921 1.12219e-18)
(0.307417 0.548602 -6.64345e-19)
(0.156827 0.28191 1.29822e-18)
(0.278501 0.717745 2.18162e-18)
(0.148272 0.380876 3.93645e-19)
(0.636095 0.213095 1.53748e-18)
(0.625998 0.253606 3.99325e-19)
(0.316623 0.115046 7.4928e-19)
(1.92127 0.714613 -5.99701e-19)
(1.16768 0.336098 -7.01924e-19)
(-0.035104 1.70386 4.64162e-19)
(-0.0114026 0.925215 0)
(1.60389 0.0239518 0)
(1.5219 0.065372 0)
(0.852931 0.0268582 0)
(-0.00355882 1.38473 0)
(0.00507421 0.729574 2.49512e-18)
(0.00465033 0.731252 0)
(0.00207079 0.415097 -2.44216e-18)
(-0.0102751 1.38627 5.95656e-19)
(-0.00947265 1.4225 0)
(0.336558 0.488152 2.57963e-19)
(0.360047 0.546415 -8.63018e-19)
(0.171839 0.257824 7.8116e-19)
(-0.0256693 0.767468 -1.66262e-18)
(-0.0261517 0.689734 0)
(-0.0154343 0.412938 0)
(0.0301882 1.54875 -1.27167e-20)
(0.0313968 1.58141 -3.64911e-19)
(0.0178993 0.822976 -1.55923e-20)
(0.213379 1.04413 8.90032e-19)
(0.119659 0.509045 -5.9227e-19)
(0.0118849 1.48511 7.30611e-19)
(0.0558476 1.35101 -8.15439e-19)
(0.0268255 0.760499 3.53073e-20)
(0.00751354 1.36614 -3.80756e-18)
(-0.000214856 1.39326 4.40937e-18)
(0.00377339 0.829776 1.73291e-18)
(-0.0138288 0.805094 -1.72538e-18)
(-0.00430906 0.481399 -1.73855e-18)
(-0.0106511 1.41685 -4.49978e-18)
(-0.0152178 1.40032 4.58897e-18)
(0.286373 0.674814 0)
(0.299782 0.634647 -2.28774e-18)
(0.151942 0.331728 9.90363e-19)
(0.281224 0.795989 1.18504e-18)
(0.13881 0.427525 -1.82851e-18)
(2.05698 0.322578 4.15845e-19)
(2.05153 0.547718 0)
(1.21864 0.220979 -4.01799e-19)
(-0.073877 1.63594 -4.80178e-21)
(-0.0141118 1.69127 0)
(-0.0157075 0.922285 0)
(0.22709 0.944517 -3.22784e-19)
(0.248233 0.866512 -7.0689e-19)
(0.128807 0.46328 1.32476e-18)
(3.16442 -0.442872 0)
(3.34728 -0.414685 1.81284e-18)
(0.0618869 3.48356 0)
(0.0486021 2.80734 0)
(3.15925 0.249915 1.4192e-20)
(3.12355 0.506296 3.7122e-18)
(0.0229684 3.43315 -2.74303e-20)
(0.00907453 2.66494 0)
(-0.0416457 1.19604 1.555e-18)
(0.190072 1.31639 0)
(3.47256 1.62507 -3.24758e-19)
(3.17427 0.272573 -2.96098e-20)
(3.14838 -0.118697 0)
(3.10047 -0.000404037 3.73113e-22)
(0.0439615 2.58961 0)
(0.15763 3.30151 0)
(-0.0548471 2.53327 0)
(-0.0229483 3.48971 3.15779e-19)
(-0.0248614 3.57073 1.99258e-19)
(2.63343 0.0488308 -1.36492e-20)
(3.04751 0.0311519 0)
(3.15792 0.086839 0)
(-0.0516027 4.61746 0)
(-0.0458362 3.08454 0)
(-0.0719164 2.93474 0)
(0.652514 3.10548 2.65709e-19)
(3.33884 -0.422458 0)
(3.0114 -0.34581 0)
(3.1699 -0.0530368 2.27725e-18)
(3.2927 -0.3287 -2.74206e-18)
(3.1038 -0.125777 0)
(-0.0573488 4.51543 0)
(0.0162683 3.93459 0)
(0.00806302 4.26551 0)
(-0.0267088 3.09525 0)
(-0.0131033 2.85076 0)
(-0.0305428 2.42359 0)
(2.97422 -0.00316974 0)
(2.85043 0.0486284 -1.805e-20)
(2.24681 3.04921 -3.21571e-19)
(3.15695 0.0444552 -2.27832e-18)
(3.19037 0.278179 2.76941e-18)
(3.0828 0.117338 0)
(3.3954 0.328926 2.08734e-18)
(3.35695 0.484366 -2.70661e-18)
(3.07111 0.418429 0)
(-0.0550164 3.34792 0)
(0.00541399 3.27774 8.52273e-20)
(-0.030422 2.57667 -6.039e-20)
(3.70789 0.555309 2.26554e-18)
(3.47097 0.208495 0)
(-0.151982 1.27126 -2.16592e-18)
(-0.0624304 0.882159 -1.35034e-19)
(-0.0848334 1.33672 2.98559e-18)
(-0.0352336 1.27045 -8.99613e-19)
(-0.000493114 1.08841 0)
(-0.0266646 1.23955 6.94854e-19)
(-0.115053 1.38786 2.14654e-18)
(-0.0590491 1.34056 -1.31413e-18)
(-0.0767371 1.32063 0)
(1.28931 0.597224 0)
(1.17729 0.682393 0)
(3.5566 2.02945 9.53567e-19)
(3.04981 1.93593 -1.19065e-18)
(3.83771 1.70658 0)
(3.38422 1.15684 0)
(3.34934 0.280495 -3.91692e-18)
(2.89884 0.17312 4.83989e-18)
(3.35145 -0.155478 0)
(2.85479 -0.0761358 0)
(3.43642 0.0430262 0)
(3.5938 0.145057 0)
(3.28683 0.119875 0)
(3.55033 0.298581 0)
(3.40841 0.293059 0)
(3.32755 0.218074 0)
(0.0973946 2.79106 0)
(0.0343996 2.07966 0)
(0.126661 3.0519 0)
(0.0927419 2.20583 0)
(0.214956 3.59453 0)
(0.140188 2.67453 -5.58607e-19)
(0.0534689 3.61095 0)
(0.0114205 3.01464 4.05644e-19)
(-0.0243401 3.20384 -5.17057e-19)
(-0.0589288 2.79781 0)
(-0.0227809 2.20048 0)
(-0.0718056 2.9055 0)
(-0.0554803 2.04867 0)
(-0.106483 4.74976 -2.45556e-19)
(-0.0790369 3.94175 2.77271e-19)
(-0.0742211 3.80257 3.09092e-19)
(-0.0526514 3.01698 0)
(-0.104361 3.80412 -4.58712e-19)
(-0.0370693 3.21561 -2.95083e-19)
(-0.0806094 4.78215 1.92566e-19)
(-0.0932306 4.46582 -3.50465e-19)
(-0.0684231 4.33553 -3.78951e-19)
(3.03134 0.088387 3.35868e-18)
(2.2896 0.0321825 -4.22988e-18)
(2.89132 0.132845 -3.3276e-18)
(2.20958 0.0734893 4.15637e-18)
(3.36857 0.0277271 0)
(2.64306 -0.00265079 0)
(3.45416 0.091357 0)
(3.32024 0.0192903 0)
(2.70665 0.00922778 0)
(3.6803 0.239644 0)
(3.43883 0.0960037 0)
(2.86369 0.0565185 0)
(-0.0217131 4.33611 -1.20312e-20)
(-0.0545344 4.65365 0)
(-0.0598808 4.54969 0)
(-0.0748414 3.50554 8.7744e-20)
(-0.0373904 2.77898 -3.4662e-21)
(-0.0796039 4.67008 1.13445e-19)
(-0.0937577 4.45827 -1.14643e-19)
(-0.0774135 3.95554 0)
(-0.0555887 3.87572 0)
(-0.0191628 3.99252 0)
(-0.0708751 3.25553 0)
(-0.0425604 2.30043 0)
(0.948785 3.66191 -6.08769e-19)
(0.921235 2.8534 -1.76332e-19)
(0.430237 2.05275 -2.28179e-19)
(0.252218 2.29913 6.96935e-19)
(1.02361 4.20001 2.63809e-19)
(3.43308 -0.167422 0)
(3.32213 -0.256546 0)
(2.88327 -0.189515 0)
(3.47032 -0.0643458 0)
(3.34581 -0.147864 0)
(3.44893 -0.261022 0)
(3.5195 -0.283601 0)
(3.57949 -0.281129 0)
(3.22413 0.093388 3.61897e-18)
(2.55519 0.0645185 -4.57614e-18)
(3.09649 0.106578 -3.56243e-18)
(2.50909 0.0566752 4.43266e-18)
(2.23995 3.41707 0)
(1.73971 2.94849 -4.45574e-19)
(2.56695 3.34899 -4.03182e-19)
(2.3696 2.52963 5.35871e-19)
(0.774471 1.21298 2.72217e-18)
(1.44676 0.216477 1.34317e-18)
(3.72256 0.304254 0)
(3.89314 0.572826 -1.84601e-18)
(3.299 0.24396 -8.23406e-20)
(3.7208 0.440151 0)
(0.236598 1.31233 1.79602e-18)
(-0.0166549 1.20198 -2.87626e-18)
(0.0588024 0.76996 1.61448e-18)
(0.275931 0.464898 -7.47817e-19)
(0.187239 1.38375 8.70967e-19)
(0.0506408 1.23716 0)
(0.0577329 1.08616 -1.13225e-18)
(0.191705 1.44297 -4.092e-18)
(0.32899 1.55696 0)
(0.00867309 1.2902 1.19583e-19)
(-0.00971757 1.45729 -1.34019e-18)
(-0.0410146 1.30282 1.94835e-18)
(-0.0574436 1.41766 0)
(-0.020476 1.38228 0)
(0.681067 1.04986 0)
(2.45674 2.45513 -1.06617e-18)
(2.64411 2.17381 3.95217e-19)
(2.79259 2.88264 0)
(3.21304 3.06772 -3.94555e-19)
(3.166 2.41184 2.84635e-20)
(0.803655 0.589316 -1.82232e-18)
(1.55582 0.691435 -1.62184e-20)
(1.23285 0.450986 8.72125e-19)
(1.27495 0.843587 5.95033e-20)
(0.938747 0.633788 -2.36941e-18)
(1.46416 0.714116 0)
(1.98973 1.09967 1.45589e-18)
(2.03188 1.01562 0)
(1.41171 0.790642 0)
(1.06189 0.549642 0)
(3.37543 2.18022 1.00847e-18)
(3.94757 0.760936 -1.86334e-18)
(3.84791 1.21612 0)
(3.53385 0.757811 0)
(1.39132 0.364752 1.33245e-18)
(3.25796 1.84223 -8.51481e-19)
(2.83427 1.65439 1.5468e-18)
(3.75524 1.37709 -1.83584e-18)
(3.09793 0.114761 2.46396e-18)
(3.16856 0.180818 -2.57891e-18)
(2.66183 0.0916427 0)
(3.30731 -0.0394957 0)
(3.20141 -0.0842561 -2.36649e-18)
(2.63244 -0.0321095 2.34565e-18)
(3.9563 0.0932067 0)
(3.75968 0.145655 0)
(3.69369 0.155373 0)
(3.5883 0.204748 0)
(3.83261 0.0590322 0)
(3.72611 0.0522534 0)
(-0.0400548 2.51312 0)
(-0.0376838 2.01214 0)
(0.357179 3.98944 -4.11336e-19)
(0.662924 3.33468 -1.60003e-19)
(0.25972 3.02869 -3.57987e-19)
(0.343859 2.54889 5.73415e-19)
(0.458411 4.01546 0)
(0.470149 4.67188 -5.09897e-19)
(0.383422 4.73026 0)
(0.911228 4.37529 -3.79496e-19)
(0.673241 3.81429 9.68807e-19)
(0.59748 4.65346 4.46952e-19)
(0.740943 4.20185 -1.87511e-19)
(0.602834 4.32719 1.50866e-19)
(0.91664 4.65763 -6.63766e-19)
(0.750012 4.66205 0)
(0.858759 4.58981 5.04542e-19)
(0.00732618 4.57219 -1.81148e-19)
(-0.0184117 3.64685 0)
(0.101773 4.28716 5.49638e-19)
(-0.00256398 4.39002 0)
(-0.0034986 3.45848 -4.51068e-19)
(-0.0151832 2.91197 0)
(-0.0997463 4.3086 -2.89128e-19)
(-0.105335 4.68176 0)
(-0.0527205 3.80625 0)
(-0.0395777 3.72825 3.25189e-19)
(-0.0467575 3.88796 1.03859e-20)
(-0.03451 3.70906 6.25935e-19)
(-0.0410334 2.94937 4.06888e-21)
(-0.113378 4.71051 1.80187e-19)
(-0.102231 4.7421 1.0322e-19)
(-0.0165701 2.62294 0)
(0.00134597 2.1352 0)
(-0.0410902 4.78954 4.86239e-19)
(-0.0478774 4.30924 4.23882e-19)
(-0.0825093 4.5853 -5.54127e-19)
(0.016817 4.75845 0)
(-0.0777139 4.53541 -3.0904e-19)
(-0.117049 4.16905 1.27724e-19)
(-0.0842572 4.24958 -4.12948e-20)
(-0.0695789 4.72944 -2.18898e-19)
(-0.0848982 4.27065 -6.85629e-20)
(-0.0832978 4.21549 3.06692e-19)
(2.87142 0.0610244 -2.36358e-18)
(2.85887 0.0497072 2.27305e-18)
(2.3386 0.0345582 0)
(3.51009 0.192036 3.04657e-18)
(2.70367 0.126546 -3.30481e-18)
(2.25449 0.0644868 3.60963e-18)
(3.68248 0.335341 -4.01647e-19)
(3.20989 -0.0485202 0)
(3.17212 -0.0135475 2.23704e-18)
(2.69091 -0.0123743 -2.21941e-18)
(3.87877 0.122251 -1.2524e-19)
(3.77177 0.101863 1.07835e-18)
(4.15977 0.1735 0)
(4.22847 0.18116 -3.75139e-19)
(4.0137 0.145243 0)
(3.6949 0.155412 0)
(4.0323 0.0950907 0)
(3.71179 0.0873356 0)
(4.18472 0.113894 7.85515e-19)
(4.1372 0.0791439 -1.74794e-18)
(4.14067 0.113896 -8.48024e-19)
(4.1864 0.116538 -9.24504e-19)
(4.2157 0.229026 1.7741e-18)
(3.85475 0.188638 0)
(4.06128 0.301931 0)
(-0.0715729 4.58077 -1.35728e-19)
(-0.0320803 4.64482 -1.16776e-20)
(-0.0649114 4.66123 0)
(-0.0543907 4.19719 1.38106e-19)
(-0.0527522 4.22484 2.25348e-20)
(-0.0576025 4.09298 -2.18411e-20)
(-0.0798752 3.52783 2.61185e-19)
(-0.142909 4.00759 -1.45176e-20)
(-0.101687 4.13492 7.4763e-20)
(-0.0738163 3.40372 -1.32294e-19)
(-0.0245696 2.92625 1.58435e-19)
(-0.074768 4.42827 5.20454e-21)
(-0.0876703 4.64249 1.72232e-19)
(1.24347 4.35975 3.47443e-19)
(1.15967 4.52871 7.26072e-19)
(1.73674 3.46643 4.3086e-19)
(1.30875 3.56071 1.69508e-19)
(1.28645 2.88964 0)
(0.548447 2.31862 2.74881e-19)
(0.463522 1.74144 3.30681e-19)
(0.345059 2.56721 1.50942e-20)
(0.492079 3.17306 -1.16126e-18)
(0.631603 3.132 8.76492e-19)
(0.432714 2.40431 0)
(0.293552 1.97185 -5.57258e-19)
(0.259822 3.07753 1.39469e-18)
(0.273318 2.71933 -3.13843e-20)
(0.157898 2.27608 -1.748e-18)
(0.591378 1.41099 1.46333e-18)
(0.576325 1.61676 0)
(3.58364 -0.0751495 8.6435e-20)
(3.61861 -0.254101 -7.2598e-20)
(3.72135 -0.217712 -1.26657e-18)
(3.75927 -0.126019 1.28245e-18)
(3.67616 -0.0488556 0)
(2.44634 3.8715 0)
(2.61789 3.91464 0)
(2.88949 3.62551 0)
(2.7362 3.64265 0)
(0.854155 1.39436 -3.33948e-21)
(0.611472 1.03904 0)
(1.70897 3.38412 1.50212e-20)
(1.42087 3.46315 0)
(1.32646 2.95034 -1.28372e-18)
(1.40696 2.89303 8.24411e-19)
(1.79127 0.310397 0)
(1.43045 0.262017 3.52068e-19)
(2.41165 0.358827 2.19181e-18)
(1.78607 0.284835 -7.85436e-19)
(1.42632 0.112198 -2.49501e-18)
(4.26631 0.79009 -2.56552e-18)
(3.85198 0.995202 -3.67207e-20)
(3.29692 0.844631 2.06786e-18)
(3.87579 0.745464 1.8133e-18)
(3.12307 0.465685 -3.04508e-18)
(2.91023 0.45216 3.74993e-19)
(3.1925 0.682313 -8.18729e-19)
(2.9761 0.683401 0)
(3.75867 0.563988 1.53767e-18)
(4.09566 0.629398 0)
(4.09119 0.776472 0)
(4.04577 0.415921 8.23686e-19)
(4.29665 0.642584 -3.0247e-20)
(4.24945 0.715904 -4.52886e-19)
(4.17659 0.643288 0)
(3.61567 0.130417 1.71821e-18)
(4.19 0.183601 2.14423e-18)
(4.09069 0.151661 -1.67944e-18)
(4.13651 0.240878 -1.44288e-18)
(3.74574 0.238216 -2.15641e-18)
(3.30289 0.375967 0)
(3.40343 0.30241 0)
(2.55812 0.19065 -1.26607e-18)
(2.10847 0.119115 4.76774e-19)
(4.03723 0.352628 1.94037e-18)
(4.28774 0.43285 -2.34653e-18)
(4.28489 0.489479 2.06894e-18)
(4.15713 0.493536 0)
(4.25663 0.337307 0)
(4.26651 0.322397 -9.81954e-19)
(4.2143 0.316165 -1.59655e-18)
(2.22677 3.4872 6.20489e-19)
(1.93754 3.23084 -6.83369e-19)
(1.44568 2.35542 -1.0319e-18)
(1.18636 1.99626 2.66847e-19)
(0.88376 1.37813 -2.6287e-18)
(0.793658 1.21542 9.22136e-19)
(0.600765 0.903928 -1.9712e-21)
(1.11454 1.7847 -1.13787e-18)
(1.14186 1.8818 1.69861e-18)
(0.974352 1.70011 5.06078e-19)
(0.785939 1.28863 -5.12694e-19)
(0.635408 1.0744 0)
(2.44561 2.60678 -1.15437e-19)
(0.705175 1.1442 8.5724e-19)
(0.927748 0.889711 1.1562e-18)
(0.755273 0.813611 1.33776e-18)
(1.08309 0.74652 1.34117e-18)
(1.46691 1.04431 -2.2703e-18)
(1.38294 1.07121 1.83944e-18)
(1.0018 0.765513 -6.76759e-19)
(0.817033 0.568009 1.49466e-18)
(1.6155 0.490754 -7.78122e-19)
(1.55896 0.508329 0)
(1.23955 0.407336 4.60602e-21)
(2.5092 1.51589 7.7557e-19)
(2.07981 1.27015 -2.80863e-18)
(1.68665 1.1844 9.08789e-21)
(1.66071 1.09234 0)
(2.86209 2.59509 8.7381e-19)
(3.44678 2.75286 1.03748e-18)
(3.2558 2.93076 -1.19597e-18)
(3.55421 2.76341 -4.2839e-19)
(3.48428 2.60367 -1.34895e-19)
(3.51245 2.79512 1.38788e-19)
(3.67425 2.26703 -1.67944e-18)
(3.70518 2.49207 4.00749e-19)
(3.78366 2.43584 0)
(3.78444 2.19159 -5.79717e-19)
(4.04897 1.07332 5.80568e-19)
(4.27596 0.993168 1.00217e-18)
(4.30041 0.966877 1.01168e-18)
(4.05503 1.32934 -1.14964e-18)
(4.10287 1.34976 0)
(4.15251 1.23372 0)
(3.32769 1.23573 -1.5606e-20)
(2.41773 0.666491 0)
(2.72186 0.744043 9.30664e-19)
(3.23827 0.885947 -2.64561e-20)
(3.77289 1.53467 5.10752e-18)
(3.56981 1.76189 1.31114e-18)
(3.48095 1.54047 -1.34068e-18)
(3.03736 1.36978 1.43745e-18)
(2.76066 1.36965 8.23773e-19)
(2.30657 1.15589 -7.97807e-19)
(3.67221 -0.0855432 1.98465e-18)
(3.8947 -0.0289328 0)
(3.85894 -0.0665492 1.34208e-18)
(3.74291 -0.0594088 -2.98778e-18)
(3.98056 0.0373771 1.46199e-18)
(3.90444 0.113427 -3.08298e-18)
(3.73986 0.128036 0)
(3.55625 0.17347 -6.28554e-19)
(3.81197 0.122981 1.60529e-18)
(3.69195 0.191384 -8.22568e-19)
(3.6003 0.171078 5.90723e-19)
(-0.0800773 2.59135 0)
(-0.0466122 3.39849 0)
(-0.0318004 2.46237 0)
(-0.021515 1.97102 0)
(0.0465197 3.9413 6.70723e-19)
(0.140347 3.72272 -1.72965e-19)
(0.31756 4.64452 -2.29753e-19)
(0.253282 4.46159 2.42652e-19)
(-0.0244835 4.29422 -4.97578e-19)
(0.0125574 4.3263 3.73643e-19)
(0.0960982 3.86999 2.22676e-20)
(0.0101268 3.55735 -4.67132e-19)
(-0.0121469 3.30903 -6.22703e-20)
(-0.0388741 3.67133 -5.67422e-20)
(0.153567 4.475 -5.8701e-19)
(0.178736 4.28849 0)
(0.276053 4.63509 2.96432e-19)
(0.269246 4.7096 2.53005e-19)
(0.596157 4.44449 -2.26033e-19)
(0.408309 3.78055 0)
(0.457446 3.6283 -1.11491e-18)
(0.560169 3.99716 7.90003e-19)
(0.480402 4.56197 -6.14841e-19)
(0.370785 4.43253 3.3079e-19)
(0.299739 4.15426 0)
(-0.0339437 4.76212 -5.53253e-19)
(-0.0737605 4.52727 -6.41507e-19)
(-0.0748615 4.74013 0)
(-0.0282091 4.36011 -6.2493e-21)
(-0.0182068 4.64162 2.74271e-19)
(-0.117833 3.88183 4.47071e-20)
(-0.0548198 3.48633 -6.538e-19)
(-0.0948627 3.92454 1.74195e-19)
(-0.134583 4.51776 2.32368e-19)
(-0.0752297 4.32809 0)
(-0.0591078 3.88637 0)
(-0.0818514 2.89808 2.00848e-19)
(-0.0471478 3.63156 -6.26721e-20)
(-0.0722918 3.61908 0)
(-0.0879425 2.68714 1.58139e-19)
(-0.0462136 2.19375 -3.06405e-19)
(3.76103 0.0323479 0)
(3.7319 0.00774994 -2.03281e-19)
(4.1795 0.0679695 -1.43998e-18)
(4.08911 0.0463197 0)
(3.87634 0.0178306 0)
(4.14973 0.037065 -1.25248e-20)
(4.1003 0.0349586 2.37898e-18)
(4.0001 0.0802209 2.84574e-18)
(3.75586 0.118677 0)
(3.55802 0.110062 0)
(4.01332 0.0939721 1.41751e-18)
(3.70324 0.116148 0)
(3.4721 0.128885 0)
(-0.0807524 4.70012 0)
(-0.106402 4.66844 1.06685e-20)
(-0.0767633 4.72017 6.29921e-20)
(-0.0604076 3.83207 0)
(-0.111935 4.53601 1.11258e-19)
(-0.0676491 4.24067 -6.33691e-20)
(-0.0537576 3.92935 0)
(1.41035 4.1857 0)
(1.2095 4.58041 -1.29812e-18)
(1.22483 4.48828 0)
(1.57409 4.4871 1.48454e-18)
(1.59333 4.12106 0)
(1.50173 4.37146 -6.06599e-19)
(1.01143 2.24256 -3.39483e-20)
(0.709138 1.64536 -1.74467e-18)
(0.590655 1.22746 2.12866e-18)
(0.708714 1.83493 3.96813e-19)
(0.975016 2.4241 0)
(1.03639 2.37917 0)
(0.718354 1.68729 0)
(0.532316 1.33009 -1.39523e-18)
(1.20883 3.77484 -9.83483e-19)
(1.12881 2.98887 -2.35503e-19)
(1.32694 3.40491 1.92601e-19)
(0.599268 2.04086 0)
(0.620207 1.9426 0)
(0.462228 1.57111 -3.92722e-19)
(0.957662 2.72042 0)
(2.68721 3.57097 0)
(2.38126 3.00852 -1.45461e-18)
(2.5459 3.02689 -8.58777e-20)
(2.41976 3.40431 0)
(2.28565 3.14934 2.22118e-18)
(3.27803 3.08679 -3.89716e-19)
(3.13408 3.32498 0)
(3.11647 3.15134 6.30474e-19)
(2.87048 3.41267 0)
(2.88199 3.20076 0)
(1.2092 2.0062 -9.30445e-19)
(1.41399 2.4032 -6.99543e-19)
(1.75352 2.98165 1.20602e-18)
(1.6957 2.95966 -3.62255e-19)
(1.06236 1.82213 0)
(1.20679 2.20837 4.71121e-19)
(0.718395 1.28863 -7.15221e-19)
(0.581601 1.04342 -5.61201e-22)
(1.93727 3.69561 0)
(2.19909 3.74291 -5.42624e-19)
(2.33829 3.98624 0)
(2.2841 0.52902 0)
(1.61736 0.341912 0)
(1.20903 0.276589 0)
(2.20915 0.554269 -1.46526e-18)
(1.63529 0.4022 8.17251e-19)
(2.14562 0.129124 -9.85174e-19)
(2.62661 0.297532 0)
(2.46567 0.301648 4.13491e-19)
(1.76988 0.135719 1.63301e-18)
(1.53027 0.0812684 -1.03705e-18)
(0.74553 1.55588 8.58056e-19)
(0.959763 1.82035 0)
(0.537642 1.44 1.56089e-18)
(0.523839 1.6148 -1.42525e-18)
(0.757164 1.81445 -9.88356e-19)
(2.07337 2.4626 1.33772e-18)
(2.09672 2.712 0)
(1.58345 1.67807 -2.76349e-19)
(2.00966 1.98941 1.74508e-18)
(1.35983 1.29257 -4.23583e-19)
(1.58863 1.31342 4.5069e-19)
(2.10958 1.51321 1.02318e-18)
(2.44271 1.67096 0)
(2.27601 1.85608 0)
(2.0099 1.60601 0)
(3.95681 2.07987 3.84513e-19)
(3.75983 1.88977 -1.26357e-18)
(3.81724 2.02809 1.04679e-18)
(3.90108 1.77148 -1.00833e-18)
(4.15788 1.67389 0)
(4.11696 1.84109 -2.97842e-19)
(2.84048 1.16333 -1.89732e-18)
(2.97084 1.16345 -2.41303e-18)
(2.33198 1.04357 1.45644e-18)
(2.13827 0.934442 -1.41984e-18)
(2.46351 0.846181 -1.17812e-18)
(2.17858 0.776954 1.44885e-18)
(4.00845 0.0334767 -1.52891e-18)
(4.05276 0.0406909 3.13024e-18)
(3.76797 -0.0658799 1.90092e-18)
(3.79119 -0.0737706 -2.2868e-18)
(3.95955 0.0105753 0)
(4.05604 0.0228798 -3.72985e-18)
(0.0968887 4.76164 1.06559e-19)
(0.0677177 4.73208 0)
(0.189772 4.73161 9.53551e-19)
(0.211331 4.74928 -8.67507e-19)
(0.231234 4.71879 4.28469e-19)
(0.122244 4.65875 0)
(-0.100657 4.77144 0)
(-0.106482 4.40391 -6.18477e-20)
(-0.105434 4.33283 5.54356e-20)
(-0.11418 4.48212 7.17725e-21)
(-0.104856 4.72178 -1.01157e-19)
(-0.0819099 4.70941 5.5091e-20)
(1.87552 4.00965 -1.64329e-18)
(1.81648 4.01618 1.74023e-18)
(1.68411 4.40651 -8.54281e-19)
(1.6929 4.27737 7.61274e-20)
(2.25274 4.08648 0)
(1.85461 4.21998 -6.35547e-19)
(1.98183 3.9598 6.16388e-19)
(1.82398 4.38093 8.34474e-19)
(2.07671 4.21934 0)
(2.22816 4.10031 0)
(1.13837 3.63089 1.49506e-18)
(0.826629 2.81136 2.02333e-18)
(0.95435 2.98972 -1.38961e-18)
(0.746565 2.97141 -2.31902e-19)
(0.902483 3.73052 4.66318e-19)
(0.722161 3.36305 -1.13404e-18)
(0.745697 1.46562 -1.21477e-18)
(0.746165 1.31683 0)
(0.602508 1.11441 -1.33521e-18)
(1.11084 2.06385 0)
(1.08781 2.15079 0)
(1.35847 2.19073 -1.09057e-18)
(1.06438 2.01409 -1.03598e-18)
(1.01674 2.03497 1.09866e-18)
(1.03101 1.5191 0)
(1.41023 1.76168 -6.01214e-19)
(1.62715 2.11888 -8.55428e-19)
(1.41068 2.08248 0)
(0.867725 1.81833 7.12441e-19)
(0.779638 1.67941 0)
(2.90594 2.28882 -1.84709e-18)
(3.31883 2.47055 2.60933e-18)
(3.27753 2.19305 -2.59342e-18)
(2.61021 2.02079 -2.31181e-19)
(2.72481 1.94027 -9.74165e-19)
(1.26176 2.18962 7.96149e-19)
(1.31589 2.24445 -1.35988e-18)
(1.45393 2.32939 1.79275e-18)
(1.79014 2.55939 -1.16521e-18)
(1.88873 2.93212 -1.56719e-18)
(1.56298 2.48848 -1.188e-19)
(1.63272 2.62801 1.37124e-18)
(1.80982 2.69286 9.66151e-20)
(2.01771 2.99858 6.49988e-19)
)
;

boundaryField
{
    wall-4
    {
        type            noSlip;
    }
    velocity-inlet-5
    {
        type            fixedValue;
        value           uniform (3 0 0);
    }
    velocity-inlet-6
    {
        type            fixedValue;
        value           uniform (0 1 0);
    }
    pressure-outlet-7
    {
        type            zeroGradient;
    }
    wall-8
    {
        type            noSlip;
    }
    frontAndBackPlanes
    {
        type            empty;
    }
}


// ************************************************************************* //
