/*--------------------------------*- C++ -*----------------------------------*\
  =========                 |
  \\      /  F ield         | OpenFOAM: The Open Source CFD Toolbox
   \\    /   O peration     | Website:  https://openfoam.org
    \\  /    A nd           | Version:  9
     \\/     M anipulation  |
\*---------------------------------------------------------------------------*/
FoamFile
{
    format      ascii;
    class       volScalarField;
    location    "45";
    object      epsilon;
}
// * * * * * * * * * * * * * * * * * * * * * * * * * * * * * * * * * * * * * //

dimensions      [0 2 -3 0 0 0 0];

internalField   nonuniform List<scalar> 
12225
(
285.399
270.876
257.808
243.999
232.401
223.325
216.804
212.963
213.068
214.486
218.047
222.069
229.765
234.856
244.285
250.275
260.059
270.379
52.5135
91.8175
107.125
114.836
125.246
137.198
153.656
171.015
193.313
213.463
239.49
260.55
288.662
308.444
337.83
354.878
388.773
401.741
20.3443
34.7878
44.7591
50.4267
55.5655
59.6469
65.0025
69.8308
77.0819
83.8601
93.0176
100.869
111.013
120.141
130.523
141.649
151.52
167.282
15.362
19.6651
24.1667
27.5309
30.5832
32.8608
35.3074
37.337
39.7758
42.0974
44.8392
47.6683
50.5517
54.0626
56.9128
61.3104
64.2214
69.9168
14.6554
15.8616
17.3889
19.0473
20.6796
22.0177
23.3125
24.4541
25.5523
26.68
27.7068
28.9618
29.9442
31.4037
32.36
34.0568
35.1029
37.2177
14.7079
14.8772
15.2079
15.8541
16.5866
17.2836
17.9519
18.5994
19.1645
19.7817
20.2709
20.9021
21.3435
22.0189
22.4407
23.1778
23.6216
24.5202
14.7426
14.6202
14.6257
14.7367
14.9356
15.2177
15.5019
15.8175
16.0897
16.4081
16.6532
16.9733
17.1959
17.5248
17.7354
18.0851
18.2942
18.7165
14.7631
14.5861
14.4645
14.3799
14.3678
14.3906
14.4401
14.5372
14.6249
14.7481
14.8458
14.9815
15.0784
15.2239
15.3202
15.4787
15.5752
15.7735
14.767
14.5904
14.435
14.2955
14.1845
14.1038
14.0393
14.0069
13.9818
13.9819
13.9856
14.0001
14.0162
14.0494
14.0735
14.12
14.1519
14.225
14.7665
14.5939
14.4321
14.2816
14.1424
14.0208
13.9101
13.8178
13.7352
13.6684
13.6094
13.5636
13.5204
13.4918
13.4612
13.4472
13.4267
13.4324
14.7658
14.5947
14.4322
14.2801
14.1357
14.0022
13.8768
13.7623
13.6557
13.5599
13.4705
13.392
13.3172
13.2541
13.1915
13.1427
13.0896
13.0562
14.7656
14.5946
14.4322
14.2798
14.135
13.999
13.8704
13.7499
13.6362
13.5306
13.4307
13.339
13.2516
13.173
13.0967
13.0305
12.9638
12.9093
14.7655
14.5945
14.4321
14.2795
14.1348
13.9983
13.8691
13.7469
13.6313
13.5224
13.4188
13.3222
13.2297
13.1443
13.0621
12.987
12.9144
12.8489
14.7655
14.5944
14.4319
14.2792
14.1346
13.9979
13.8687
13.7461
13.6302
13.5203
13.4161
13.3176
13.2239
13.1357
13.0518
12.9729
12.8981
12.8277
14.7655
14.5942
14.4318
14.2789
14.1343
13.9975
13.8683
13.7457
13.6299
13.5198
13.4156
13.3168
13.223
13.1342
13.0501
12.9702
12.8948
12.8232
14.7655
14.5941
14.4316
14.2788
14.134
13.9973
13.868
13.7455
13.6297
13.5198
13.4155
13.317
13.2231
13.1345
13.0503
12.9705
12.8949
12.8232
14.7655
14.594
14.4315
14.2785
14.1339
13.9971
13.868
13.7454
13.6297
13.5198
13.4158
13.3173
13.2236
13.1351
13.051
12.9713
12.8958
12.824
14.7656
14.5939
14.4315
14.2784
14.1339
13.997
13.868
13.7454
13.6298
13.5201
13.4162
13.3178
13.2243
13.1359
13.0519
12.9723
12.8967
12.8251
14.7656
14.5937
14.4315
14.2783
14.1339
13.997
13.868
13.7457
13.6302
13.5206
13.4168
13.3186
13.2252
13.1369
13.053
12.9735
12.898
12.8263
14.7656
14.5938
14.4315
14.2784
14.134
13.9973
13.8683
13.7462
13.6307
13.5213
13.4176
13.3195
13.2263
13.138
13.0543
12.9748
12.8993
12.8277
14.7656
14.5938
14.4316
14.2785
14.1343
13.9976
13.8689
13.7467
13.6315
13.5222
13.4188
13.3207
13.228
13.1397
13.0565
12.977
12.9021
12.8305
14.7657
14.5937
14.4318
14.2786
14.1346
13.9981
13.8698
13.748
13.6335
13.5249
13.4227
13.3259
13.2347
13.1481
13.0668
12.9893
12.9167
12.8473
14.7658
14.5936
14.4319
14.2789
14.1359
14.0008
13.8755
13.7576
13.6486
13.5463
13.4519
13.3633
13.2815
13.2046
13.1339
13.0666
13.0055
12.946
14.7656
14.5926
14.433
14.2844
14.1521
14.0327
13.93
13.8385
13.7606
13.6907
13.632
13.5781
13.5336
13.491
13.4573
13.4222
13.3973
13.3668
14.7596
14.5927
14.4609
14.3595
14.3033
14.2763
14.2801
14.291
14.3194
14.3496
14.3912
14.4277
14.4736
14.5103
14.5579
14.5917
14.6413
14.6697
14.7221
14.6909
14.7536
14.9148
15.1838
15.4566
15.7448
16.0038
16.2634
16.4893
16.7185
16.9149
17.1216
17.2949
17.4874
17.6419
17.8284
17.9657
14.7521
15.5115
16.5518
17.6726
18.7058
19.5519
20.3285
20.9713
21.5939
22.124
22.6704
23.145
23.66
24.106
24.6132
25.0416
25.5566
25.9711
15.9941
20.9808
25.0397
27.7373
29.7937
31.3198
32.7559
33.9861
35.286
36.4912
37.8289
39.095
40.511
41.8388
43.3302
44.7112
46.3077
47.7039
29.9116
47.1759
54.873
58.5997
61.5808
64.2812
67.4318
70.6828
74.3927
78.1955
82.3555
86.5023
90.88
95.1743
99.5744
103.859
108.088
112.285
165.794
160.078
154.892
149.571
144.472
139.699
135.588
132.131
129.214
126.967
125.216
123.977
123.159
122.658
122.543
122.628
122.889
123.383
25.0049
8.23298
8.50232
37.9881
37.8941
37.3408
37.6727
8.71517
8.66857
8.0399
7.97388
7.99214
7.67007
7.83518
7.92982
8.47215
8.9828
44.0278
54.7536
72.2775
95.9597
123.702
155.504
187.118
218.577
249.404
279.502
309.019
337.742
366.127
393.719
421.238
447.931
474.713
500.6
526.66
551.701
577.009
601.238
625.878
649.432
673.521
696.412
719.771
741.705
764.095
785.021
806.698
827.067
848.133
866.816
885.632
902.759
918.644
936.368
957.394
969.304
984.705
998.426
1003.81
1021.66
1024.04
1019.3
1041.35
1038.14
1035.3
1025.54
1000.97
1024.63
1022.4
1012.13
978.976
989.737
977.612
936.699
944.266
928.117
905.138
857.432
862.424
808.758
813.714
815.114
771.708
771.27
731.104
729.214
689.679
684.967
641.794
630.781
611.901
595.466
578.904
562.792
547.036
531.592
516.52
501.748
487.331
473.176
459.188
444.371
430.205
416.477
403.193
390.385
377.952
365.89
354.146
342.786
331.843
321.467
313.121
306.578
300.438
294.445
288.532
282.693
276.795
270.913
265.111
259.413
253.596
248.208
242.944
237.082
230.908
224.82
218.87
213.176
207.569
202.078
196.616
191.372
186.3
181.567
177.051
172.847
168.856
164.88
160.851
156.266
151.18
145.181
137.981
130.083
119.663
109.803
99.9483
90.9276
82.6704
75.8204
71.1845
68.4728
66.0802
68.6739
68.7337
68.1837
66.4827
15.3688
15.0497
14.74
14.4803
14.2538
14.0733
13.9121
13.778
13.6593
13.5649
13.4897
13.439
13.394
13.3824
13.3514
13.4286
13.4827
13.5306
13.6142
13.3884
58.3096
45.0063
39.1389
34.9641
32.073
30.0573
28.5426
27.0004
26.1584
26.0877
27.8777
32.6039
41.2084
53.8339
70.6887
91.5542
114.878
139.355
157.892
172.62
184.398
194.75
204.01
212.194
219.966
227.521
232.548
238.034
243.438
249.064
254.823
260.842
266.969
273.322
279.708
286.257
292.765
299.389
305.92
312.53
318.997
325.495
331.786
338.053
344.076
350.069
355.827
361.558
367.007
372.341
377.317
382.286
387.123
392.101
397.332
402.774
407.935
413.656
419.46
425.885
431.788
434.151
436.105
438.136
438.514
438.262
437.017
432.261
437.293
435.882
431.215
421.893
423.862
419.183
406.844
404.672
398.684
391.857
384.284
379.68
371.356
367.69
361.741
352.644
346.884
337.68
331.72
322.256
315.937
305.674
299.053
291.514
284.389
277.354
270.476
263.752
257.169
250.741
244.445
238.293
232.246
226.287
220.306
214.502
208.844
203.354
198.009
192.808
187.724
182.761
177.907
173.191
168.639
164.444
160.612
156.971
153.42
149.94
146.511
143.114
139.74
136.407
133.121
129.853
126.661
123.607
120.311
116.888
113.444
110.029
106.663
103.345
100.074
96.8343
93.6576
90.5672
87.5935
84.7284
81.9592
79.2969
76.6688
74.0615
71.3302
68.4427
65.3907
61.9783
58.3946
54.3014
50.18
46.0123
42.0537
38.282
34.9803
32.0635
29.753
28.5956
26.7996
26.696
24.7319
23.8935
17.3585
14.7035
13.468
12.8011
12.3819
12.0966
11.8791
11.7111
11.5761
11.4659
11.3824
11.3148
11.2625
11.2314
11.2115
11.2221
11.2664
11.3793
11.6049
12.2838
89.9007
62.4189
51.8575
46.5626
43.6513
42.5075
43.1713
46.0125
51.8484
61.6056
76.0993
94.7897
115.09
133.293
147.266
156.124
162.41
166.915
170.227
173.695
177.181
179.447
181.885
184.351
186.919
189.431
194.187
199.182
204.484
210.002
215.624
221.299
226.94
232.535
238.02
243.414
248.673
253.834
258.859
263.795
268.607
273.343
277.972
282.55
287.05
291.53
295.962
300.397
304.802
309.23
313.662
318.168
322.722
327.367
332.064
336.791
341.479
346.132
350.616
354.87
358.684
361.89
364.805
367.281
368.82
369.91
370.419
371.015
372.634
371.823
369.852
367.306
365.329
361.662
356.999
353.188
348.438
343.241
337.794
332.431
326.503
320.898
314.634
307.841
301.34
294.391
287.795
280.79
274.181
267.182
260.8
254.419
248.198
242.1
236.136
230.306
224.612
219.052
213.621
208.314
203.118
198.022
193.007
188.115
183.339
178.684
174.135
169.691
165.337
161.074
156.893
152.813
148.84
145.013
141.372
137.873
134.465
131.13
127.852
124.624
121.433
118.287
115.186
112.132
109.132
106.204
103.261
100.304
97.3539
94.4352
91.4816
88.5227
85.5865
82.6672
79.7702
76.921
74.1312
71.4084
68.7459
66.1484
63.59
61.0596
58.5019
55.8788
53.1851
50.3308
47.3553
44.1854
40.9212
37.5806
34.2764
31.0499
28.0684
25.3399
22.9584
21.1771
19.4583
18.3093
16.9374
15.9725
14.3743
13.1913
12.4067
11.8799
11.5065
11.2305
11.0131
10.8401
10.6989
10.5809
10.4872
10.4042
10.3505
10.2984
10.2645
10.269
10.2876
10.3549
10.4922
10.8688
118.825
80.5239
69.7572
65.2744
63.638
64.3787
68.1221
75.3286
86.1616
99.9813
115.176
129.234
139.384
146.012
150.003
152.538
153.866
154.389
155.088
156.013
157.701
160.882
164.623
168.857
173.58
178.771
184.473
190.311
196.211
202.105
207.925
213.64
219.21
224.635
229.895
235.01
239.972
244.81
249.526
254.168
258.721
263.221
267.668
272.101
276.522
280.966
285.434
289.957
294.531
299.184
303.908
308.721
313.605
318.561
323.553
328.567
333.557
338.479
343.272
347.884
352.239
356.284
360.007
363.33
366.144
368.503
370.38
371.737
372.489
373.309
372.799
371.494
369.534
366.683
363.149
359.204
354.653
349.603
344.152
338.375
332.247
325.89
319.211
312.3
305.322
298.25
291.21
284.155
277.209
270.303
263.587
256.992
250.541
244.232
238.067
232.05
226.178
220.453
214.869
209.422
204.102
198.904
193.82
188.855
184.006
179.269
174.637
170.104
165.669
161.329
157.083
152.934
148.884
144.93
141.125
137.437
133.841
130.322
126.869
123.476
120.135
116.847
113.612
110.434
107.314
104.255
101.233
98.2403
95.2809
92.3618
89.4689
86.6058
83.7747
80.9407
78.0906
75.2646
72.4646
69.7004
66.9712
64.2825
61.6274
59.0002
56.3764
53.7289
51.0435
48.2728
45.4135
42.4419
39.3773
36.2293
33.0532
29.8993
26.8817
24.0663
21.534
19.4288
17.6053
16.1662
14.9025
13.9062
12.9908
12.2491
11.6846
11.2614
10.9355
10.6802
10.4764
10.3123
10.1737
10.057
9.96344
9.87449
9.82652
9.77805
9.7547
9.75943
9.77138
9.83206
9.95563
10.2218
144.181
103.144
93.2458
89.9959
89.1722
90.4843
94.4984
101.036
109.298
117.901
125.127
130.994
135.084
136.353
136.623
136.563
137.494
139.144
141.548
144.692
148.615
153.243
158.343
163.822
169.612
175.637
181.814
188.03
194.237
200.376
206.404
212.304
218.055
223.661
229.115
234.433
239.615
244.682
249.632
254.528
259.363
264.17
268.958
273.76
278.587
283.47
288.416
293.457
298.594
303.853
309.23
314.738
320.363
326.102
331.926
337.814
343.725
349.636
355.496
361.26
366.862
372.241
377.329
382.044
386.299
390.037
393.181
395.646
397.405
398.275
399.13
398.68
397.193
394.763
391.495
387.483
382.757
377.391
371.466
365.058
358.23
351.058
343.593
335.916
328.117
320.253
312.39
304.567
296.833
289.204
281.716
274.382
267.217
260.222
253.4
246.751
240.276
233.972
227.835
221.857
216.034
210.353
204.814
199.409
194.137
188.99
183.967
179.058
174.266
169.581
165.007
160.539
156.18
151.929
147.795
143.767
139.837
135.99
132.221
128.522
124.89
121.32
117.816
114.377
111.005
107.699
104.451
101.256
98.1154
95.0276
91.9918
89.005
86.0668
83.1632
80.2852
77.4231
74.5429
71.6669
68.8009
65.9533
63.1287
60.3282
57.543
54.7559
51.9519
49.1016
46.1912
43.2054
40.1415
36.9992
33.8057
30.6028
27.4741
24.5045
21.7797
19.4143
17.3929
15.7375
14.3783
13.3025
12.4422
11.7692
11.248
10.8494
10.5309
10.2806
10.0846
9.93119
9.7925
9.67686
9.5848
9.49732
9.48114
9.43931
9.41543
9.44023
9.44707
9.49446
9.59651
9.79048
150.885
118.077
114.097
112.798
111.639
111.241
111.906
113.876
116.511
119.121
121.261
122.637
122.861
123.393
124.352
125.978
128.451
131.667
135.56
140.05
145.074
150.536
156.34
162.411
168.688
175.112
181.602
188.089
194.55
200.956
207.277
213.499
219.607
225.603
231.482
237.26
242.944
248.554
254.101
259.604
265.063
270.508
275.949
281.416
286.921
292.496
298.153
303.922
309.811
315.848
322.036
328.393
334.915
341.609
348.463
355.466
362.588
369.8
377.053
384.293
391.45
398.444
405.185
411.571
417.494
422.846
427.516
431.393
434.363
436.169
437.481
438.216
437.336
435.265
432.115
427.972
422.912
417.024
410.405
403.155
395.373
387.158
378.604
369.807
360.858
351.836
342.813
333.846
324.985
316.256
307.687
299.306
291.132
283.171
275.423
267.887
260.563
253.446
246.529
239.806
233.269
226.91
220.723
214.703
208.842
203.136
197.575
192.156
186.872
181.719
176.693
171.791
167.01
162.348
157.802
153.368
149.037
144.801
140.654
136.588
132.601
128.69
124.855
121.095
117.412
113.803
110.265
106.796
103.395
100.061
96.7931
93.5887
90.4456
87.3566
84.3138
81.3079
78.3176
75.3041
72.2651
69.219
66.1818
63.1631
60.1635
57.1744
54.1841
51.1725
48.1243
45.0263
41.8689
38.6465
35.371
32.0714
28.8114
25.6741
22.7544
20.1495
17.9008
16.0226
14.4973
13.2896
12.3472
11.6213
11.0606
10.6344
10.289
10.0273
9.82772
9.67422
9.51983
9.4001
9.30818
9.24192
9.26659
9.20185
9.23217
9.20058
9.25893
9.24064
9.37103
9.47099
131.207
125.067
127.381
127.454
124.84
121.591
118.686
116.55
115.479
114.678
114.085
114.057
114.619
115.899
117.954
120.763
124.287
128.426
133.106
138.252
143.804
149.695
155.866
162.262
168.819
175.509
182.294
189.149
196.043
202.927
209.77
216.558
223.273
229.913
236.469
242.943
249.33
255.65
261.908
268.121
274.296
280.457
286.615
292.798
299.022
305.318
311.703
318.211
324.861
331.685
338.698
345.93
353.39
361.096
369.049
377.247
385.67
394.293
403.067
411.935
420.819
429.627
438.247
446.554
454.41
461.671
468.186
473.806
478.391
481.842
483.842
485.382
485.26
483.64
480.643
476.371
470.924
464.414
456.966
448.71
439.78
430.306
420.415
410.227
399.853
389.394
378.935
368.551
358.298
348.212
338.324
328.669
319.27
310.137
301.268
292.663
284.317
276.227
268.384
260.782
253.409
246.261
239.323
232.592
226.054
219.704
213.529
207.525
201.681
195.994
190.453
185.058
179.798
174.673
169.674
164.797
160.034
155.379
150.823
146.362
141.991
137.709
133.513
129.404
125.378
121.438
117.579
113.801
110.101
106.479
102.933
99.4623
96.0621
92.7286
89.4534
86.2277
83.0332
79.8428
76.6069
73.3344
70.0563
66.7913
63.5467
60.3208
57.1053
53.8864
50.65
47.3844
44.0791
40.7277
37.3323
33.9112
30.5114
27.2078
24.0958
21.2721
18.8001
16.7098
14.9963
13.6289
12.5605
11.7358
11.1015
10.6185
10.2327
9.93439
9.7041
9.52879
9.36209
9.22437
9.12439
9.15055
9.13895
9.12295
9.12652
9.12255
9.13301
9.07883
9.20709
9.25845
137.475
130.748
132.977
132.393
128.414
123.305
118.49
114.528
111.258
109.34
108.589
108.689
109.791
111.783
114.571
118.052
122.147
126.77
131.857
137.351
143.203
149.368
155.803
162.471
169.37
176.451
183.663
190.967
198.335
205.741
213.157
220.565
227.944
235.285
242.572
249.806
256.976
264.09
271.147
278.16
285.131
292.081
299.018
305.97
312.951
319.994
327.12
334.368
341.762
349.346
357.145
365.201
373.54
382.195
391.183
400.519
410.197
420.203
430.498
441.028
451.711
462.448
473.109
483.547
493.59
503.053
511.74
519.454
526.008
531.233
534.718
536.908
537.977
537.016
534.316
530
524.195
517.041
508.694
499.321
489.095
478.186
466.755
454.958
442.932
430.804
418.682
406.656
394.797
383.149
371.749
360.636
349.84
339.372
329.237
319.43
309.947
300.782
291.925
283.364
275.088
267.084
259.34
251.843
244.582
237.544
230.717
224.09
217.655
211.4
205.319
199.402
193.642
188.032
182.565
177.233
172.028
166.943
161.971
157.107
152.346
147.683
143.118
138.649
134.273
129.99
125.798
121.695
117.679
113.749
109.903
106.14
102.455
98.8435
95.2986
91.8097
88.3605
84.9241
81.4574
77.9319
74.3916
70.8617
67.3546
63.8729
60.4119
56.9617
53.5106
50.0479
46.5636
43.0512
39.5098
35.9503
32.4063
28.9417
25.6488
22.6254
19.9466
17.6546
15.7557
14.2256
13.0198
12.0836
11.3601
10.8041
10.3663
10.0219
9.74908
9.53485
9.35345
9.16995
9.14774
9.129
9.053
9.08126
9.08218
9.07927
9.06892
9.00193
9.02975
9.20443
137.52
129.209
131.076
130.253
126.061
120.532
114.875
110.025
106.578
104.8
104.287
104.853
106.46
108.946
112.179
116.047
120.47
125.376
130.716
136.444
142.527
148.928
155.617
162.592
169.842
177.308
184.944
192.723
200.615
208.596
216.638
224.721
232.818
240.915
248.992
257.04
265.045
273.005
280.912
288.773
296.583
304.359
312.103
319.84
327.582
335.362
343.202
351.145
359.22
367.478
375.958
384.714
393.788
403.235
413.091
423.396
434.166
445.408
457.101
469.204
481.644
494.319
507.092
519.793
532.218
544.139
555.306
565.459
574.342
581.713
587.387
590.833
593.016
592.969
590.792
586.606
580.557
572.813
563.57
553.035
541.428
528.964
515.85
502.278
488.424
474.444
460.475
446.626
432.985
419.609
406.544
393.836
381.523
369.617
358.123
347.036
336.35
326.052
316.131
306.568
297.351
288.46
279.882
271.597
263.593
255.851
248.359
241.1
234.065
227.238
220.612
214.172
207.912
201.82
195.888
190.106
184.467
178.961
173.582
168.322
163.178
158.143
153.216
148.392
143.671
139.048
134.525
130.096
125.762
121.519
117.366
113.3
109.317
105.411
101.575
97.7982
94.0632
90.3432
86.5977
82.7925
78.9735
75.1677
71.3897
67.6443
63.9295
60.238
56.5603
52.8867
49.2083
45.5186
41.8154
38.1054
34.4142
30.7949
27.3349
24.1319
21.2674
18.7921
16.7205
15.0343
13.6923
12.6409
11.8227
11.188
10.6896
10.2945
9.97761
9.71965
9.51346
9.29654
9.19806
9.16409
9.1501
9.13398
9.08645
9.08579
9.05376
8.98428
9.09333
9.1494
133.677
123.702
124.738
123.402
119.197
113.874
108.741
104.543
101.753
100.516
100.399
101.428
103.427
106.246
109.763
113.874
118.51
123.614
129.145
135.071
141.366
148.005
154.967
162.218
169.756
177.605
185.7
193.976
202.415
210.993
219.68
228.454
237.287
246.157
255.041
263.922
272.78
281.606
290.382
299.107
307.772
316.384
324.94
333.458
341.946
350.434
358.943
367.514
376.182
385.004
394.026
403.317
412.935
422.957
433.443
444.465
456.068
468.292
481.142
494.606
508.629
523.123
537.951
552.93
567.831
582.381
596.275
609.183
620.773
630.727
638.767
644.327
647.732
649.05
647.707
643.906
637.812
629.622
619.569
607.91
594.914
580.851
565.979
550.535
534.738
518.786
502.845
487.057
471.529
456.334
441.524
427.154
413.263
399.868
386.972
374.569
362.647
351.193
340.186
329.608
319.439
309.657
300.241
291.171
282.427
273.989
265.839
257.961
250.337
242.954
235.797
228.853
222.11
215.556
209.179
202.97
196.918
191.014
185.25
179.618
174.111
168.725
163.454
158.294
153.244
148.299
143.457
138.715
134.07
129.521
125.065
120.696
116.413
112.208
108.072
103.993
99.9538
95.9265
91.8656
87.7621
83.6556
79.5704
75.5207
71.512
67.5438
63.6105
59.7043
55.8166
51.9393
48.0664
44.1946
40.3294
36.4897
32.7227
29.1107
25.7493
22.7226
20.0861
17.8597
16.0302
14.5594
13.3955
12.4817
11.7659
11.2012
10.7508
10.3868
10.0855
9.84446
9.59622
9.49401
9.40419
9.26764
9.21228
9.06306
9.15727
9.04251
9.1422
9.15609
9.13604
150.437
119.835
115.669
113.826
110.157
105.87
101.856
98.6714
96.7399
96.0612
96.4444
97.8453
100.136
103.183
106.886
111.157
115.941
121.191
126.877
132.974
139.464
146.328
153.554
161.117
168.979
177.125
185.557
194.29
203.264
212.437
221.755
231.202
240.75
250.373
260.042
269.737
279.43
289.104
298.736
308.315
317.823
327.26
336.614
345.895
355.105
364.267
373.396
382.533
391.711
400.987
410.416
420.075
430.038
440.401
451.253
462.697
474.815
487.689
501.364
515.866
531.175
547.23
563.908
581.03
598.35
615.559
632.296
648.158
662.722
675.566
686.295
694.52
699.863
702.706
702.515
699.408
693.539
685.123
674.43
661.769
647.467
631.855
615.248
597.943
580.205
562.275
544.357
526.62
509.199
492.177
475.616
459.579
444.107
429.221
414.923
401.207
388.056
375.453
363.373
351.795
340.689
330.036
319.804
309.972
300.513
291.407
282.629
274.161
265.98
258.073
250.418
243.003
235.811
228.83
222.044
215.443
209.014
202.748
196.633
190.663
184.827
179.121
173.536
168.071
162.718
157.476
152.338
147.304
142.368
137.529
132.781
128.121
123.544
119.042
114.606
110.22
105.866
101.516
97.1236
92.7172
88.3244
83.9648
79.6501
75.3857
71.1713
67.0028
62.8735
58.7759
54.7025
50.6479
46.6083
42.5886
38.6037
34.6987
30.9513
27.454
24.29
21.5163
19.156
17.199
15.6103
14.3398
13.332
12.5342
11.8994
11.389
10.9734
10.6272
10.3419
10.0779
9.87771
9.72086
9.55831
9.45105
9.26106
9.38835
9.25323
9.35469
9.2661
9.39533
157.214
117.069
108.316
104.202
100.771
97.5014
94.6619
92.5576
91.479
91.3556
92.1955
93.9102
96.4145
99.6125
103.427
107.792
112.666
118.011
123.806
130.033
136.677
143.725
151.164
158.982
167.162
175.669
184.466
193.53
202.864
212.483
222.345
232.405
242.62
252.934
263.325
273.773
284.244
294.716
305.155
315.544
325.857
336.085
346.207
356.224
366.127
375.933
385.646
395.303
404.929
414.583
424.317
434.215
444.359
454.862
465.837
477.418
489.728
502.896
517.015
532.163
548.367
565.606
583.79
602.757
622.258
641.964
661.467
680.293
697.93
713.854
727.552
738.575
746.447
751.132
752.411
750.325
744.994
736.634
725.557
712.129
696.741
679.783
661.632
642.636
623.111
603.337
583.555
563.971
544.741
525.97
507.73
490.089
473.096
456.774
441.128
426.147
411.817
398.111
385.006
372.472
360.479
348.998
338
327.452
317.328
307.6
298.243
289.233
280.546
272.162
264.061
256.223
248.633
241.273
234.127
227.183
220.425
213.843
207.425
201.16
195.04
189.055
183.199
177.466
171.848
166.342
160.942
155.644
150.444
145.337
140.319
135.385
130.528
125.74
121.008
116.317
111.643
106.954
102.247
97.5499
92.8836
88.2628
83.6969
79.1904
74.7432
70.3518
66.0107
61.713
57.4524
53.2233
49.0226
44.8548
40.7336
36.7039
32.8407
29.2317
25.9569
23.0719
20.6003
18.534
16.8402
15.4709
14.3724
13.4927
12.785
12.2102
11.7376
11.3416
11.008
10.7135
10.4605
10.2464
10.047
9.8912
9.67691
9.768
9.74015
9.70411
9.65478
9.69452
155.942
110.527
99.1102
94.4775
91.5562
89.2723
87.5214
86.4248
86.0839
86.5227
87.7423
89.7046
92.3569
95.6375
99.4965
103.889
108.784
114.158
119.995
126.282
133.009
140.165
147.742
155.726
164.104
172.859
181.977
191.415
201.134
211.109
221.317
231.752
242.407
253.267
264.266
275.367
286.526
297.72
308.885
320.01
331.064
342.03
352.877
363.594
374.163
384.589
394.869
405.028
415.083
425.084
435.079
445.152
455.385
465.902
476.828
488.327
500.557
513.695
527.892
543.282
559.953
577.939
597.187
617.561
638.827
660.652
682.602
704.134
724.659
743.587
760.277
774.139
784.691
791.599
794.503
793.76
789.313
781.363
770.262
756.432
740.322
722.371
703.009
682.633
661.607
640.25
618.844
597.625
576.785
556.44
536.684
517.588
499.211
481.578
464.699
448.561
433.15
418.436
404.394
390.987
378.188
365.958
354.268
343.079
332.362
322.084
312.217
302.733
293.608
284.815
276.333
268.139
260.214
252.539
245.096
237.869
230.843
224.004
217.34
210.837
204.486
198.275
192.197
186.242
180.404
174.677
169.054
163.529
158.098
152.755
147.494
142.308
137.19
132.13
127.114
122.121
117.124
112.119
107.126
102.163
97.2455
92.3845
87.5878
82.8585
78.197
73.6002
69.0634
64.5806
60.1464
55.7556
51.4059
47.1021
42.8592
38.7238
34.7682
31.0744
27.7171
24.7481
22.1893
20.0331
18.2483
16.7893
15.6046
14.6435
13.8605
13.217
12.6817
12.2297
11.8433
11.5054
11.2078
10.9459
10.7077
10.5048
10.272
10.282
10.2279
10.0754
9.91619
10.0537
148.106
102.584
90.292
85.5423
83.1317
81.6739
80.8263
80.5362
80.8291
81.7352
83.2692
85.4174
88.1582
91.4594
95.2961
99.6424
104.483
109.803
115.594
121.847
128.558
135.718
143.321
151.357
159.813
168.677
177.929
187.553
197.529
207.82
218.391
229.205
240.226
251.427
262.786
274.28
285.877
297.586
309.343
321.102
332.817
344.463
356.008
367.397
378.616
389.664
400.527
411.217
421.735
432.121
442.413
452.686
463.018
473.531
484.357
495.673
507.664
520.543
534.503
549.736
566.412
584.626
604.37
625.54
647.949
671.319
695.213
719
742.031
763.577
782.93
799.432
812.516
821.728
826.446
827.175
823.905
816.699
805.939
792.109
775.714
757.217
737.09
715.772
693.664
671.122
648.464
625.953
603.816
582.192
561.185
540.883
521.347
502.611
484.687
467.568
451.235
435.662
420.816
406.667
393.179
380.318
368.044
356.32
345.108
334.376
324.092
314.227
304.751
295.637
286.858
278.39
270.211
262.299
254.634
247.199
239.976
232.951
226.109
219.434
212.914
206.538
200.295
194.175
188.17
182.27
176.47
170.762
165.139
159.595
154.122
148.713
143.357
138.045
132.755
127.464
122.174
116.902
111.661
106.465
101.326
96.2527
91.2508
86.3233
81.4705
76.6901
71.9783
67.3302
62.7409
58.2064
53.7254
49.304
44.9608
40.7451
36.7253
32.9772
29.5679
26.5436
23.923
21.6974
19.837
18.2983
17.0325
15.9914
15.1313
14.4147
13.8112
13.2961
12.8509
12.46
12.1132
11.8028
11.5222
11.2702
11.0269
10.8417
10.6885
10.547
10.3381
10.4858
137.683
94.633
82.3741
77.818
75.8742
75.0557
74.8871
75.2045
75.995
77.2788
79.0583
81.3364
84.1132
87.3791
91.1294
95.3552
100.054
105.222
110.859
116.962
123.531
130.561
138.05
145.989
154.371
163.184
172.413
182.042
192.05
202.416
213.114
224.128
235.412
246.935
258.662
270.562
282.585
294.681
306.833
319.017
331.191
343.331
355.405
367.414
379.287
390.994
402.507
413.828
424.921
435.816
446.542
457.159
467.736
478.38
489.219
500.428
512.207
524.788
538.406
553.278
569.607
587.558
607.251
628.519
651.173
675.077
699.903
724.865
749.31
772.523
793.746
812.254
827.401
838.664
845.718
847.855
846.004
839.928
829.947
816.614
800.409
781.879
761.521
739.807
717.159
693.967
670.545
647.228
624.227
601.734
579.859
558.702
538.33
518.788
500.09
482.239
465.211
448.987
433.529
418.814
404.805
391.467
378.758
366.639
355.06
343.995
333.413
323.281
313.568
304.241
295.27
286.628
278.291
270.235
262.438
254.881
247.546
240.418
233.475
226.704
220.088
213.615
207.273
201.05
194.935
188.92
182.994
177.15
171.378
165.673
160.023
154.42
148.85
143.307
137.753
132.21
126.689
121.2
115.756
110.367
105.042
99.7891
94.6126
89.5159
84.4994
79.5619
74.7004
69.9112
65.1906
60.5358
55.9474
51.434
47.0202
42.7561
38.7056
34.9367
31.5081
28.4587
25.8024
23.5288
21.6087
20.001
18.6601
17.5408
16.6022
15.8088
15.1315
14.5465
14.0355
13.5833
13.1797
12.8152
12.4852
12.1824
11.9046
11.6497
11.4277
11.2305
10.9878
11.0441
125.827
87.307
75.4634
71.237
69.7159
69.4057
69.7542
70.5682
71.7838
73.3734
75.3496
77.7189
80.4941
83.6796
87.2866
91.3196
95.7899
100.702
106.067
111.887
118.171
124.918
132.132
139.808
147.943
156.53
165.556
175.01
184.875
195.134
205.764
216.746
228.049
239.647
251.509
263.61
275.918
288.39
300.985
313.672
326.407
339.154
351.852
364.461
376.944
389.285
401.453
413.462
425.301
436.916
448.311
459.54
470.64
481.708
492.837
504.201
515.98
528.426
541.763
556.254
572.104
589.519
608.629
629.393
651.673
675.17
699.819
724.748
749.384
773.012
794.873
814.22
830.396
842.894
851.447
854.563
853.739
848.554
839.257
826.709
811.223
793.299
773.395
752.005
729.539
706.39
682.913
659.41
636.166
613.358
591.133
569.598
548.833
528.887
509.788
491.54
474.129
457.519
441.707
426.67
412.374
398.777
385.84
373.515
361.738
350.509
339.797
329.559
319.751
310.342
301.304
292.607
284.225
276.134
268.305
260.725
253.375
246.234
239.281
232.496
225.863
219.368
212.998
206.738
200.577
194.502
188.503
182.571
176.695
170.866
165.072
159.304
153.537
147.778
142.03
136.304
130.61
124.957
119.354
113.812
108.338
102.939
97.6205
92.3854
87.235
82.1692
77.1863
72.284
67.4599
62.7133
58.0476
53.476
49.029
44.7549
40.7123
36.9602
33.5475
30.5045
27.8393
25.5392
23.5755
21.9096
20.4995
19.3039
18.2852
17.4109
16.6539
15.9918
15.4071
14.8853
14.4161
13.9895
13.6017
13.2425
12.9156
12.6056
12.3332
12.068
11.8317
11.6148
113.847
80.8338
69.9713
66.2444
65.1517
65.2685
65.9936
67.2111
68.7604
70.6112
72.7615
75.213
77.9805
81.0754
84.5181
88.3239
92.5144
97.1049
102.115
107.558
113.448
119.795
126.608
133.889
141.64
149.859
158.539
167.673
177.248
187.253
197.67
208.482
219.665
231.2
243.06
255.222
267.654
280.328
293.204
306.253
319.43
332.703
346.016
359.337
372.619
385.831
398.912
411.86
424.603
437.16
449.512
461.682
473.684
485.583
497.438
509.392
521.596
534.283
547.662
561.98
577.433
594.217
612.43
632.093
653.143
675.108
697.93
721.097
744.087
766.272
787.008
805.625
821.543
834.376
843.935
847.83
847.901
843.682
835.758
824.195
809.627
792.515
773.384
752.652
730.783
708.12
685.038
661.85
638.828
616.18
594.061
572.586
551.843
531.889
512.76
494.465
476.999
460.326
444.453
429.358
415.013
401.377
388.412
376.068
364.229
352.999
342.325
332.143
322.412
313.093
304.154
295.559
287.288
279.313
271.592
264.126
256.886
249.846
242.987
236.29
229.733
223.303
216.987
210.768
204.633
198.565
192.555
186.591
180.66
174.755
168.85
162.949
157.056
151.176
145.314
139.477
133.674
127.915
122.208
116.563
110.986
105.486
100.068
94.7356
89.4916
84.337
79.2717
74.2952
69.4072
64.6097
59.9107
55.3294
50.899
46.665
42.6788
38.9892
35.6342
32.6347
29.9922
27.6912
25.7036
23.9938
22.5239
21.2572
20.1603
19.2041
18.3643
17.6205
16.9565
16.3585
15.8169
15.3212
14.868
14.4461
14.0614
13.6931
13.3691
13.0391
12.7797
12.4503
103.161
75.4174
65.8944
62.7877
62.1445
62.6116
63.7421
65.32
67.203
69.3574
71.7387
74.3324
77.1496
80.2067
83.5318
87.1506
91.0946
95.3902
100.066
105.146
110.652
116.603
123.019
129.906
137.269
145.11
153.429
162.225
171.49
181.217
191.394
202.01
213.047
224.491
236.322
248.52
261.061
273.921
287.067
300.475
314.1
327.927
341.89
355.955
370.069
384.195
398.269
412.215
426.029
439.73
453.278
466.661
479.88
492.929
505.869
518.751
531.733
544.946
558.615
572.883
587.963
603.943
620.926
638.891
657.73
677.092
696.851
716.737
736.336
755.24
772.992
789.078
803.045
814.599
823.877
827.844
828.22
824.542
817.482
807.211
794.078
778.483
760.83
741.54
720.993
699.571
677.589
655.37
633.187
611.261
589.76
568.814
548.521
528.951
510.149
492.138
474.918
458.469
442.798
427.888
413.712
400.239
387.433
375.25
363.576
352.513
341.989
331.957
322.379
313.221
304.447
296.02
287.919
280.115
272.533
265.245
258.197
251.346
244.67
238.148