/*--------------------------------*- C++ -*----------------------------------*\
  =========                 |
  \\      /  F ield         | OpenFOAM: The Open Source CFD Toolbox
   \\    /   O peration     | Website:  https://openfoam.org
    \\  /    A nd           | Version:  9
     \\/     M anipulation  |
\*---------------------------------------------------------------------------*/
FoamFile
{
    format      ascii;
    class       volScalarField;
    location    "45";
    object      nut;
}
// * * * * * * * * * * * * * * * * * * * * * * * * * * * * * * * * * * * * * //

dimensions      [0 2 -1 0 0 0 0];

internalField   nonuniform List<scalar> 
12225
(
4.14831e-05
3.93631e-05
3.74712e-05
3.54558e-05
3.37781e-05
3.24503e-05
3.15114e-05
3.09475e-05
3.09684e-05
3.11497e-05
3.17017e-05
3.2233e-05
3.34136e-05
3.40979e-05
3.55505e-05
3.61556e-05
3.81846e-05
3.71532e-05
0.000332118
0.000215469
0.000179094
0.000157817
0.000146026
0.000138204
0.000132364
0.000131756
0.000129285
0.00013016
0.000128984
0.000129546
0.000128705
0.000128725
0.000128259
0.000127677
0.000128069
0.00012683
0.000674057
0.000451811
0.000355118
0.000310206
0.000274529
0.000251193
0.000230773
0.00021712
0.000201497
0.000191168
0.000181241
0.000173634
0.000167954
0.000161367
0.000158737
0.000152326
0.000151921
0.000145447
0.000832744
0.000686122
0.000570696
0.000500691
0.00044826
0.000412227
0.000379294
0.000355758
0.000332121
0.00031387
0.000295688
0.000279711
0.000267289
0.000252363
0.000244375
0.000230808
0.000224605
0.000212892
0.000860947
0.000802648
0.00074116
0.000677534
0.000622758
0.000581629
0.000544355
0.00051407
0.000487596
0.000463018
0.00044328
0.000421251
0.000406493
0.0003862
0.000374834
0.000356402
0.000346592
0.00032889
0.000854889
0.000840376
0.000821861
0.000787089
0.000749887
0.000715987
0.000684636
0.000655465
0.000631024
0.000605897
0.000586788
0.000564334
0.000548956
0.000528518
0.000515579
0.000496882
0.000485263
0.000466593
0.000852863
0.000850716
0.000844164
0.000832836
0.000816997
0.000796971
0.000777244
0.000756122
0.000737878
0.00071775
0.000701839
0.000683179
0.00066934
0.000652061
0.000639827
0.000623591
0.000612628
0.000595877
0.000851882
0.000851875
0.000850101
0.000847463
0.000841321
0.000833572
0.000824631
0.000812989
0.000802211
0.000789516
0.000778568
0.000765834
0.000755418
0.000742989
0.000733233
0.000721094
0.000712073
0.000699171
0.000851717
0.000851596
0.000850991
0.000850374
0.000848839
0.000846093
0.000842908
0.000838056
0.000833104
0.0008268
0.000820518
0.000813793
0.000807157
0.00079981
0.000793141
0.000785572
0.000778979
0.000770567
0.000851747
0.000851423
0.000851024
0.000850649
0.000850226
0.000849339
0.000848344
0.000846661
0.000844796
0.000842267
0.000839554
0.000836293
0.000833094
0.000829269
0.000825735
0.000821499
0.000817814
0.000812886
0.000851775
0.000851378
0.000850999
0.000850625
0.000850308
0.000849896
0.000849483
0.000848873
0.000848212
0.000847266
0.00084628
0.000844933
0.000843643
0.000841926
0.000840405
0.000838318
0.00083672
0.000834172
0.000851782
0.000851372
0.000850986
0.000850618
0.00085027
0.000849938
0.00084961
0.000849249
0.000848894
0.00084843
0.000847993
0.000847374
0.000846819
0.000846024
0.000845363
0.000844375
0.000843647
0.000842453
0.000851782
0.000851373
0.000850977
0.000850618
0.00085025
0.00084993
0.000849601
0.000849293
0.000848999
0.000848679
0.000848395
0.000848043
0.000847744
0.000847347
0.000847023
0.00084657
0.000846216
0.00084571
0.00085178
0.000851374
0.000850972
0.000850616
0.000850242
0.000849923
0.000849586
0.000849287
0.000848995
0.000848706
0.000848447
0.000848171
0.000847933
0.00084767
0.000847447
0.000847199
0.00084698
0.000846746
0.000851779
0.000851372
0.00085097
0.00085061
0.00085024
0.000849916
0.000849581
0.000849282
0.000848986
0.000848705
0.000848443
0.000848184
0.00084795
0.000847721
0.000847509
0.000847317
0.000847123
0.00084696
0.000851778
0.000851371
0.000850969
0.000850604
0.000850239
0.000849909
0.000849578
0.000849279
0.000848981
0.000848707
0.000848441
0.00084819
0.000847956
0.000847734
0.000847525
0.000847339
0.000847149
0.000847001
0.000851778
0.000851368
0.000850963
0.000850601
0.00085023
0.000849905
0.000849572
0.000849274
0.000848982
0.000848703
0.000848451
0.000848191
0.000847975
0.00084774
0.000847549
0.000847351
0.000847175
0.000847013
0.000851778
0.000851365
0.000850959
0.000850598
0.000850223
0.000849902
0.000849567
0.000849273
0.000848981
0.000848708
0.000848454
0.000848202
0.000847985
0.000847755
0.000847565
0.000847366
0.000847194
0.000847025
0.000851774
0.000851369
0.00085096
0.000850596
0.000850229
0.000849898
0.000849573
0.000849271
0.000848987
0.000848712
0.000848462
0.000848212
0.000847993
0.000847771
0.000847573
0.000847382
0.000847203
0.000847033
0.000851779
0.000851362
0.000850963
0.000850594
0.000850232
0.000849902
0.000849579
0.000849283
0.000848997
0.000848729
0.000848475
0.000848236
0.000848009
0.000847799
0.000847594
0.000847406
0.000847231
0.000847052
0.000851779
0.000851363
0.000850963
0.000850597
0.000850235
0.000849911
0.000849588
0.000849297
0.000849011
0.000848748
0.000848492
0.000848257
0.000848024
0.000847816
0.000847602
0.000847414
0.00084722
0.000847044
0.000851776
0.000851367
0.000850962
0.000850606
0.00085024
0.000849926
0.000849597
0.000849311
0.00084901
0.000848735
0.000848446
0.000848174
0.000847883
0.000847611
0.000847308
0.00084703
0.000846714
0.00084643
0.000851771
0.000851381
0.000850962
0.000850627
0.00085024
0.000849914
0.0008495
0.000849102
0.000848589
0.000848065
0.000847417
0.000846756
0.000845962
0.000845181
0.000844257
0.000843387
0.000842354
0.000841445
0.000851786
0.000851428
0.000850956
0.000850569
0.000849868
0.000849002
0.000847654
0.000846067
0.000844023
0.000841815
0.000839199
0.000836541
0.000833539
0.00083064
0.000827415
0.000824456
0.000821108
0.000818248
0.000852105
0.000851442
0.000850195
0.00084832
0.000844484
0.000839451
0.000832848
0.000825977
0.000818203
0.000810439
0.000802172
0.000794356
0.000786225
0.000778793
0.000771036
0.000764204
0.000756855
0.000750764
0.000854081
0.000847739
0.000840125
0.000827302
0.00080866
0.000789961
0.000770193
0.000751947
0.000733861
0.000717731
0.000701892
0.000688002
0.000674246
0.000662347
0.000650305
0.000640131
0.000629412
0.000620782
0.000854724
0.000818426
0.000776013
0.000727128
0.000684909
0.000650459
0.000618722
0.000592835
0.000569057
0.000549415
0.000530817
0.000515434
0.000500355
0.000487893
0.000475303
0.000465055
0.000454247
0.000445706
0.000807142
0.000667321
0.000570285
0.000510395
0.000465638
0.000431891
0.000404372
0.000383352
0.000364729
0.000350112
0.000336782
0.000326223
0.000315758
0.00030762
0.000299503
0.000293053
0.000286289
0.000280968
0.00050169
0.000348658
0.000292634
0.00025945
0.000236402
0.000221423
0.000211671
0.000204301
0.000198587
0.000195431
0.000192336
0.000190698
0.000188717
0.000187732
0.000186347
0.000185647
0.000184751
0.000184174
7.2726e-05
7.02261e-05
6.79492e-05
6.56189e-05
6.33766e-05
6.12881e-05
5.9478e-05
5.79677e-05
5.66823e-05
5.56995e-05
5.493e-05
5.43862e-05
5.40294e-05
5.3807e-05
5.37592e-05
5.3814e-05
5.38734e-05
5.41457e-05
3.53763e-05
0.0002051
0.000253349
5.41605e-05
5.33921e-05
5.19394e-05
4.90264e-05
0.000212728
0.000230493
0.000223058
0.000236253
0.000241706
0.000263109
0.000243836
0.000326701
0.000334923
0.00045289
6.49425e-05
5.14865e-05
5.08622e-05
5.55573e-05
6.11642e-05
6.69122e-05
7.2918e-05
7.80838e-05
8.26986e-05
8.68312e-05
9.05365e-05
9.3909e-05
9.69972e-05
9.9833e-05
0.000102476
0.000104913
0.000107218
0.00010935
0.000111399
0.000113302
0.000115159
0.000116889
0.000118595
0.000120177
0.000121739
0.000123174
0.0001246
0.000125915
0.000127244
0.000128474
0.000129709
0.0001308
0.000131844
0.000132766
0.000133734
0.000134553
0.000135596
0.00013647
0.000136861
0.000137594
0.000138697
0.000139374
0.000141358
0.000142845
0.00014328
0.000144452
0.000141503
0.000139673
0.000140985
0.00014262
0.000148477
0.000144024
0.000138909
0.000141144
0.000146435
0.000142874
0.000137791
0.000145443
0.000141325
0.000134543
0.000137119
0.000144357
0.000139758
0.000143834
0.000136426
0.000134378
0.000136691
0.000127271
0.000133727
0.000124734
0.000130929
0.000122297
0.000128508
0.00012044
0.000120805
0.000119036
0.000117819
0.000116466
0.000115158
0.000113847
0.000112552
0.000111265
0.000109995
0.000108733
0.000107484
0.000106308
0.000104968
0.000103685
0.000102413
0.000101166
9.99403e-05
9.87395e-05
9.75523e-05
9.63744e-05
9.52055e-05
9.3996e-05
9.25404e-05
9.1475e-05
9.06902e-05
8.99679e-05
8.92525e-05
8.85484e-05
8.78472e-05
8.71367e-05
8.63937e-05
8.56944e-05
8.50579e-05
8.4243e-05
8.35008e-05
8.30631e-05
8.24289e-05
8.16802e-05
8.08726e-05
8.00556e-05
7.92569e-05
7.85066e-05
7.77653e-05
7.69866e-05
7.61696e-05
7.53223e-05
7.44883e-05
7.36872e-05
7.29043e-05
7.22345e-05
7.16643e-05
7.13446e-05
7.12404e-05
7.13345e-05
7.16993e-05
7.21678e-05
7.28465e-05
7.25199e-05
7.17924e-05
7.0162e-05
6.8155e-05
6.48174e-05
6.10547e-05
5.64697e-05
5.50558e-05
5.10682e-05
4.90671e-05
5.02496e-05
5.09493e-05
0.000213944
0.00020877
0.000202133
0.000195375
0.000189019
0.000183465
0.00017859
0.000174398
0.000170632
0.00016726
0.000164459
0.000161753
0.000159907
0.000157778
0.00015859
0.000155736
0.000156278
0.000155847
0.000155709
0.000151892
5.99049e-05
0.000120205
0.000184657
0.000231107
0.000258164
0.000272233
0.000278624
0.00028637
0.000288718
0.000287296
0.000278958
0.000268298
0.00026099
0.000250454
0.000237362
0.000221598
0.000210078
0.000199494
0.000206646
0.000219263
0.000233947
0.000248926
0.000264575
0.000281017
0.000298043
0.000315781
0.000337584
0.000359308
0.000381786
0.000404569
0.00042758
0.000450632
0.000473662
0.000496559
0.000519325
0.000541895
0.000564308
0.000586512
0.000608567
0.000630438
0.000652207
0.000673861
0.000695506
0.000717117
0.00073876
0.000760352
0.000781922
0.000803385
0.000824846
0.000846268
0.000867638
0.000888478
0.000908554
0.000927514
0.000944617
0.000960093
0.000974523
0.000986863
0.000997864
0.00100677
0.00101591
0.00103108
0.00104607
0.00105859
0.00107396
0.00109078
0.00109891
0.00112164
0.00111527
0.00111634
0.00113478
0.00114717
0.00113735
0.00114243
0.00116921
0.00116115
0.00116182
0.00116538
0.00116924
0.00115981
0.00116105
0.0011447
0.0011359
0.00113453
0.00111924
0.00111745
0.00110015
0.00109872
0.00108245
0.00108418
0.0010689
0.00106047
0.00105018
0.00104028
0.00103031
0.00102042
0.00101061
0.00100089
0.000991294
0.000981815
0.000972493
0.000963442
0.000955049
0.000946579
0.000938163
0.000929783
0.000921431
0.00091314
0.000904899
0.000896692
0.000888466
0.000880148
0.000871639
0.000862034
0.000851141
0.000839597
0.000827734
0.000815709
0.000803607
0.000791533
0.000779485
0.000767391
0.000755284
0.000743485
0.000731497
0.000718939
0.000708154
0.000696878
0.000685466
0.000674199
0.00066327
0.000652753
0.000642604
0.000632698
0.000622696
0.000612827
0.000603178
0.000593941
0.000585144
0.000576638
0.000568701
0.000561306
0.000554963
0.000549955
0.000545617
0.000542947
0.000540138
0.000537231
0.000530321
0.000519968
0.000503291
0.000482338
0.000451764
0.000418662
0.000381698
0.000335137
0.000310081
0.000275648
0.000271034
0.00025982
0.000337796
0.000375628
0.0003856
0.000383114
0.000376095
0.00036835
0.000360796
0.000354275
0.000347903
0.000342665
0.000339065
0.000334282
0.000335472
0.000335383
0.000333344
0.000330665
0.000332202
0.000327991
0.000329932
0.000310152
9.75511e-05
0.000193767
0.00028003
0.000339456
0.00037569
0.000393751
0.000398919
0.00039564
0.000386725
0.000375327
0.000364775
0.000358626
0.000358189
0.000361807
0.000367995
0.000377969
0.000389144
0.000403803
0.00042495
0.000449619
0.000479237
0.000517032
0.000559329
0.000606181
0.000657008
0.00071173
0.000760768
0.000810696
0.000860274
0.000909136
0.00095701
0.00100369
0.00104907
0.0010931
0.00113579
0.00117719
0.0012174
0.00125651
0.00129464
0.00133189
0.00136841
0.00140427
0.00143958
0.00147439
0.00150877
0.00154273
0.00157632
0.00160953
0.00164238
0.00167478
0.00170665
0.00173778
0.00176808
0.00179741
0.0018257
0.00185305
0.00187936
0.00190465
0.00192922
0.00195308
0.00197676
0.00200072
0.00202325
0.00204496
0.00206769
0.00208861
0.00210652
0.00212036
0.00212223
0.00213314
0.00215377
0.00216578
0.00216902
0.00217663
0.00218389
0.00218046
0.00217857
0.00217521
0.0021695
0.00215877
0.00214898
0.00213357
0.00212026
0.00210802
0.00209144
0.00207779
0.00205986
0.0020458
0.00202778
0.00201421
0.00199523
0.0019775
0.00195921
0.00194088
0.00192246
0.00190405
0.00188568
0.00186738
0.00184918
0.0018311
0.00181319
0.0017955
0.00177817
0.0017609
0.00174368
0.00172648
0.00170931
0.00169217
0.00167507
0.00165798
0.00164085
0.00162364
0.00160626
0.00158852
0.00156972
0.00155015
0.00153009
0.00150975
0.00148922
0.00146859
0.00144792
0.0014272
0.00140644
0.00138584
0.00136521
0.00134418
0.00132396
0.00130413
0.00128458
0.00126534
0.00124756
0.00123105
0.00121547
0.00120046
0.00118494
0.00116996
0.00115596
0.00114322
0.00113173
0.00112104
0.00111145
0.00110316
0.00109659
0.00109214
0.00108928
0.00108836
0.00108848
0.00108897
0.00108571
0.00107645
0.00105735
0.00102709
0.000980663
0.000921086
0.000853238
0.000771892
0.00070507
0.000638064
0.00059869
0.000563068
0.000567219
0.000568168
0.000560742
0.000548833
0.000535517
0.000523045
0.000511502
0.000501618
0.000491853
0.000485098
0.000481077
0.000473598
0.00047559
0.000474832
0.000476259
0.000475845
0.000474581
0.000466959
0.000472716
0.000450539
0.00013429
0.000270537
0.000374406
0.000439159
0.000472853
0.000484845
0.000481448
0.000470831
0.000460299
0.000454533
0.000455162
0.000461807
0.000475001
0.000489153
0.000504846
0.00052478
0.000553991
0.000594298
0.000643717
0.000701877
0.000765715
0.00083006
0.000897806
0.000967596
0.00103794
0.00110753
0.00117469
0.00124066
0.00130496
0.0013674
0.00142787
0.00148634
0.00154282
0.00159738
0.00165013
0.00170118
0.00175065
0.0017987
0.00184543
0.00189087
0.00193524
0.00197867
0.00202124
0.00206304
0.00210413
0.00214457
0.00218439
0.00222363
0.00226229
0.00230036
0.00233781
0.00237462
0.00241078
0.00244627
0.00248108
0.00251519
0.00254852
0.00258113
0.00261298
0.00264397
0.0026741
0.00270326
0.00273107
0.00275751
0.0027826
0.00280538
0.00282532
0.00284241
0.00285633
0.00286152
0.00287628
0.00289279
0.00290061
0.00290619
0.00290869
0.00290705
0.00290353
0.00289767
0.00288929
0.00287823
0.0028656
0.00285072
0.00283518
0.00281875
0.00280062
0.00278211
0.00276221
0.00274236
0.00272139
0.00270064
0.00267836
0.00265583
0.00263293
0.00260979
0.00258647
0.00256305
0.00253956
0.00251604
0.00249253
0.00246906
0.00244565
0.00242232
0.00239912
0.00237595
0.00235279
0.00232962
0.00230645
0.00228328
0.00226009
0.00223689
0.00221364
0.00219031
0.00216687
0.00214342
0.00211905
0.00209405
0.0020686
0.00204282
0.00201681
0.00199063
0.00196434
0.00193797
0.00191156
0.0018852
0.00185884
0.00183236
0.00180619
0.00178039
0.00175494
0.00172986
0.00170559
0.00168228
0.00165997
0.00163936
0.00162057
0.00160333
0.00158813
0.00157515
0.00156437
0.0015544
0.00154602
0.00153966
0.00153561
0.00153417
0.00153498
0.00153787
0.00154243
0.00154794
0.00155162
0.00155024
0.00153914
0.00151412
0.00146907
0.00140192
0.00131603
0.00121166
0.0011071
0.00100499
0.000921668
0.000851993
0.000804584
0.000767905
0.000736472
0.000709056
0.0006855
0.000665733
0.000648463
0.000633331
0.000620236
0.000613171
0.000607623
0.000597166
0.000603689
0.000595521
0.000598549
0.000599254
0.000598066
0.00058744
0.000596398
0.000573753
0.000162773
0.00033367
0.000456546
0.000526635
0.00055982
0.00056888
0.000562886
0.000552397
0.000545369
0.000545598
0.000555065
0.000568646
0.000587601
0.000619322
0.000660698
0.000712699
0.00077103
0.000837118
0.000909695
0.000986894
0.00106653
0.00114694
0.00122801
0.00130876
0.00138837
0.00146622
0.00154197
0.00161569
0.00168712
0.00175631
0.00182322
0.00188787
0.0019503
0.00201059
0.00206884
0.00212516
0.00217968
0.00223258
0.00228403
0.00233387
0.00238233
0.00242952
0.00247553
0.00252045
0.00256435
0.00260731
0.00264936
0.00269057
0.00273097
0.0027706
0.00280948
0.00284765
0.00288513
0.00292198
0.00295822
0.0029939
0.00302897
0.00306329
0.00309675
0.0031292
0.00316053
0.0031906
0.00321923
0.0032463
0.00327166
0.00329495
0.00331599
0.0033348
0.00335091
0.00336529
0.00337101
0.00338591
0.00339548
0.00340113
0.00340343
0.00340264
0.00339929
0.00339346
0.00338521
0.00337468
0.00336217
0.00334782
0.003332
0.0033148
0.0032962
0.00327652
0.00325574
0.0032342
0.00321181
0.00318883
0.00316503
0.0031407
0.00311591
0.00309075
0.00306528
0.00303958
0.00301368
0.00298763
0.00296146
0.0029352
0.00290886
0.00288247
0.00285603
0.00282953
0.00280296
0.00277632
0.00274962
0.00272283
0.00269598
0.00266905
0.00264202
0.00261488
0.00258758
0.00256008
0.00253217
0.00250383
0.00247511
0.00244608
0.00241679
0.00238729
0.00235763
0.00232786
0.00229801
0.00226816
0.0022383
0.00220843
0.00217872
0.00214926
0.00212012
0.00209134
0.00206315
0.00203569
0.00200909
0.0019837
0.00195987
0.00193815
0.00191995
0.00190514
0.00189378
0.00188532
0.00187966
0.00187676
0.00187661
0.00187934
0.00188458
0.0018915
0.00190044
0.00191098
0.0019215
0.00192912
0.00192887
0.00191526
0.00188076
0.00181916
0.00172973
0.00161355
0.00148358
0.0013506
0.00122886
0.00112305
0.00103734
0.000968642
0.000913521
0.000868802
0.000833335
0.000804438
0.000779773
0.000757605
0.000742777
0.000734529
0.000724293
0.000714774
0.000718374
0.000707185
0.000709535
0.000709112
0.000707856
0.000695526
0.000704642
0.000683803
0.000201105
0.000410546
0.000537356
0.000607674
0.00064175
0.000652178
0.000651019
0.000645508
0.000644542
0.000652441
0.000670697
0.000700219
0.000744826
0.000798
0.000860575
0.000931198
0.00100777
0.00108921
0.00117403
0.00126076
0.00134814
0.00143533
0.00152184
0.00160714
0.00169077
0.00177242
0.00185209
0.00192982
0.00200528
0.00207839
0.00214912
0.00221747
0.00228345
0.0023471
0.00240848
0.00246763
0.00252458
0.00257944
0.00263225
0.00268321
0.00273247
0.00278017
0.0028264
0.00287125
0.00291484
0.00295724
0.00299856
0.00303888
0.00307828
0.00311683
0.00315462
0.00319171
0.00322816
0.003264
0.00329924
0.00333387
0.00336785
0.00340111
0.00343356
0.00346509
0.00349558
0.00352492
0.00355296
0.00357957
0.00360461
0.0036279
0.00364929
0.00366872
0.00368614
0.00370283
0.0037111
0.00371898
0.00373222
0.00373918
0.00374262
0.00374312
0.00374099
0.00373637
0.0037294
0.00372021
0.00370896
0.00369582
0.00368097
0.00366455
0.00364668
0.00362752
0.00360719
0.00358585
0.00356359
0.00354052
0.00351668
0.00349219
0.00346713
0.00344157
0.00341559
0.00338923
0.00336255
0.00333557
0.00330834
0.00328088
0.00325322
0.00322537
0.00319735
0.00316916
0.00314081
0.0031123
0.00308364
0.00305484
0.00302589
0.00299679
0.00296753
0.00293812
0.00290851
0.00287868
0.00284856
0.00281811
0.00278735
0.00275628
0.00272496
0.00269341
0.00266168
0.00262981
0.00259784
0.00256584
0.00253382
0.00250184
0.00246996
0.00243829
0.00240689
0.00237586
0.00234534
0.00231545
0.00228636
0.00225831
0.00223163
0.00220678
0.00218474
0.00216707
0.00215421
0.00214573
0.00214116
0.0021401
0.00214227
0.00214753
0.0021556
0.00216606
0.00217889
0.00219389
0.00221039
0.00222663
0.00223708
0.00223674
0.00221664
0.0021675
0.0020837
0.00196553
0.0018223
0.00166795
0.00151682
0.00137971
0.00126277
0.0011666
0.00108957
0.00102764
0.000979883
0.000940659
0.000907291
0.000879043
0.000856635
0.00084289
0.000829249
0.000825902
0.000822847
0.000820604
0.000803447
0.00081037
0.000802139
0.000801202
0.000791889
0.000779851
0.000283084
0.000486382
0.000602468
0.000673678
0.000714595
0.000736151
0.000744597
0.00075126
0.000758841
0.000779777
0.000815421
0.000863061
0.000922062
0.000990411
0.00106627
0.00114783
0.00123339
0.00132169
0.00141157
0.00150205
0.00159238
0.001682
0.00177054
0.00185766
0.00194328
0.00202695
0.00210846
0.00218751
0.00226396
0.00233801
0.00240966
0.00247887
0.00254564
0.00261
0.00267199
0.00273167
0.00278916
0.00284448
0.00289766
0.00294882
0.00299806
0.00304549
0.00309121
0.00313533
0.00317793
0.00321913
0.00325902
0.00329771
0.00333531
0.00337192
0.00340762
0.00344252
0.00347669
0.0035102
0.0035431
0.00357542
0.00360715
0.00363829
0.00366878
0.00369854
0.0037275
0.00375556
0.00378258
0.00380846
0.00383303
0.00385615
0.00387767
0.00389746
0.00391543
0.00393129
0.00394669
0.00395267
0.00396565
0.0039738
0.00397875
0.0039809
0.00398045
0.00397755
0.00397231
0.00396487
0.00395535
0.00394388
0.00393062
0.0039157
0.00389925
0.00388142
0.00386233
0.00384211
0.00382088
0.00379872
0.00377572
0.00375197
0.00372754
0.00370251
0.00367693
0.00365085
0.00362432
0.00359737
0.00357004
0.00354236
0.00351436
0.00348606
0.00345748
0.00342863
0.00339952
0.00337018
0.0033406
0.0033108
0.00328077
0.00325053
0.00322008
0.00318941
0.00315851
0.00312737
0.00309595
0.00306425
0.00303225
0.00299997
0.00296743
0.00293466
0.00290169
0.00286857
0.00283534
0.00280206
0.00276876
0.00273551
0.00270236
0.0026694
0.00263671
0.00260439
0.00257256
0.00254135
0.00251093
0.00248152
0.00245342
0.00242707
0.0024032
0.00238302
0.00236841
0.00235942
0.00235522
0.00235513
0.00235867
0.00236547
0.00237521
0.00238756
0.00240234
0.00241938
0.00243832
0.00245825
0.0024767
0.00249003
0.00248615
0.00245295
0.00238035
0.0022664
0.00211848
0.0019506
0.00177913
0.00161805
0.0014762
0.00135712
0.00126033
0.00118242
0.0011219
0.00107328
0.00103285
0.000998713
0.000971326
0.000950164
0.000929665
0.00090657
0.000915499
0.000908125
0.000903378
0.000889716
0.000886514
0.000878392
0.000880969
0.000868061
0.000305347
0.000518436
0.000643301
0.00072504
0.00077845
0.000814073
0.000836194
0.000856472
0.000882552
0.000917712
0.000964715
0.00102493
0.00109451
0.00117155
0.00125422
0.00134086
0.00143012
0.00152093
0.00161245
0.00170399
0.00179504
0.00188521
0.00197419
0.00206169
0.00214705
0.00223028
0.00231145
0.0023905
0.00246728
0.00254173
0.00261378
0.00268342
0.0027506
0.00281534
0.00287765
0.00293757
0.00299513
0.00305037
0.00310336
0.00315415
0.00320284
0.00324951
0.00329424
0.00333714
0.0033783
0.00341782
0.00345582
0.00349241
0.0035277
0.00356182
0.00359488
0.00362701
0.00365832
0.00368893
0.00371893
0.00374839
0.00377738
0.00380593
0.00383403
0.00386166
0.00388877
0.00391529
0.00394112
0.00396612
0.00399016
0.00401308
0.00403473
0.00405492
0.00407348
0.00409021
0.00410708
0.00411775
0.0041286
0.00413802
0.00414467
0.00414862
0.00415002
0.00414901
0.00414569
0.00414015
0.00413252
0.00412292
0.00411148
0.00409834
0.00408363
0.00406749
0.00405003
0.00403138
0.00401164
0.00399089
0.00396922
0.00394671
0.00392343
0.00389946
0.00387484
0.00384961
0.00382383
0.00379752
0.00377073
0.00374349
0.00371582
0.00368775
0.0036593
0.00363049
0.00360134
0.00357187
0.00354208
0.00351198
0.0034816
0.00345094
0.00342
0.00338879
0.00335731
0.00332555
0.00329351
0.00326118
0.00322856
0.00319566
0.00316249
0.00312909
0.00309548
0.00306171
0.00302782
0.00299387
0.00295991
0.002926
0.00289221
0.00285861
0.00282529
0.00279236
0.00275993
0.00272815
0.00269719
0.00266727
0.00263869
0.00261189
0.00258749
0.00256658
0.00255083
0.00254155
0.00253757
0.00253806
0.0025424
0.00255011
0.0025608
0.00257411
0.00258982
0.0026077
0.00262748
0.00264864
0.00266999
0.00268929
0.00269949
0.00268427
0.00262512
0.00251877
0.00237129
0.00219652
0.00201186
0.00183339
0.0016724
0.00153454
0.00142095
0.0013291
0.00125661
0.00119902
0.00115233
0.00111344
0.00108095
0.00105768
0.00102007
0.00100556
0.00100568
0.000978407
0.000987393
0.000980231
0.000976542
0.000955637
0.000966269
0.000936011
0.000302302
0.000523937
0.00065622
0.000748905
0.000816522
0.000868417
0.000912402
0.000953071
0.000995674
0.00104337
0.00110129
0.0011695
0.00124522
0.00132674
0.0014125
0.00150113
0.00159157
0.00168295
0.00177462
0.00186605
0.00195687
0.00204674
0.00213543
0.00222233
0.00230701
0.00238975
0.0024706
0.00254945
0.00262614
0.00270057
0.00277269
0.00284242
0.00290972
0.00297458
0.00303698
0.00309693
0.00315443
0.00320953
0.00326224
0.00331263
0.00336075
0.00340666
0.00345043
0.00349215
0.0035319
0.00356978
0.00360589
0.00364036
0.00367331
0.00370486
0.00373516
0.00376436
0.00379261
0.00382005
0.00384685
0.00387313
0.00389901
0.00392459
0.00394994
0.00397507
0.00399999
0.00402465
0.00404898
0.00407288
0.00409621
0.00411882
0.00414052
0.00416113
0.00418042
0.00419819
0.00421414
0.00423006
0.00423918
0.00425128
0.00425983
0.00426569
0.00426904
0.00426999
0.00426863
0.00426505
0.00425936
0.00425168
0.00424213
0.00423085
0.00421798
0.00420366
0.00418799
0.0041711
0.00415308
0.004134
0.00411394
0.00409299
0.00407121
0.00404867
0.00402541
0.00400146
0.00397688
0.00395168
0.00392591
0.0038996
0.00387277
0.00384544
0.00381765
0.00378942
0.00376076
0.00373169
0.00370223
0.0036724
0.00364221
0.00361167
0.0035808
0.0035496
0.00351808
0.00348625
0.00345411
0.00342166
0.0033889
0.00335586
0.00332255
0.00328899
0.00325522
0.00322128
0.00318722
0.0031531
0.00311897
0.00308489
0.00305094
0.0030172
0.00298377
0.00295074
0.00291826
0.00288647
0.00285556
0.00282577
0.0027974
0.00277091
0.00274689
0.00272636
0.00271088
0.00270193
0.00269837
0.00269934
0.00270418
0.00271238
0.00272352
0.00273722
0.00275319
0.00277119
0.00279095
0.00281211
0.00283403
0.0028552
0.00287131
0.0028712
0.00282506
0.00272698
0.00258236
0.00240487
0.00221239
0.0020222
0.00184735
0.00169516
0.00156801
0.00146438
0.00138156
0.00131563
0.00126261
0.00121939
0.00118223
0.0011561
0.00112194
0.00108529
0.00106638
0.00104457
0.00106361
0.00105664
0.0010545
0.00103057
0.00102498
0.00100319
0.000291352
0.000521341
0.000662185
0.000766014
0.000846397
0.000912888
0.000971897
0.00102928
0.00108671
0.00114591
0.00121323
0.0012869
0.0013663
0.00145012
0.00153715
0.00162635
0.00171687
0.00180801
0.00189925
0.00199015
0.00208037
0.00216962
0.00225767
0.00234445
0.00242946
0.00251187
0.00259213
0.00267065
0.00274715
0.00282151
0.00289365
0.00296347
0.00303091
0.00309594
0.00315851
0.0032186
0.0032762
0.00333132
0.00338397
0.00343417
0.00348196
0.00352739
0.00357048
0.00361132
0.00364996
0.00368648
0.00372099
0.00375358
0.00378437
0.0038135
0.00384112
0.00386739
0.00389249
0.00391662
0.00393996
0.00396272
0.00398508
0.00400723
0.00402929
0.00405139
0.00407356
0.00409583
0.00411816
0.00414047
0.00416267
0.00418462
0.00420613
0.00422696
0.00424683
0.00426546
0.00428252
0.0043001
0.00431279
0.00432495
0.00433525
0.0043431
0.00434852
0.00435156
0.00435227
0.00435072
0.00434702
0.00434129
0.00433364
0.00432424
0.00431323
0.00430075
0.00428694
0.0042719
0.00425573
0.0042385
0.00422027
0.00420112
0.00418111
0.00416031
0.00413874
0.00411642
0.00409341
0.00406971
0.00404537
0.0040204
0.00399484
0.0039687
0.00394201
0.0039148
0.00388708
0.00385887
0.0038302
0.00380109
0.00377155
0.0037416
0.00371125
0.00368053
0.00364944
0.003618
0.00358621
0.00355408
0.00352164
0.00348889
0.00345585
0.00342257
0.00338907
0.00335539
0.00332159
0.00328772
0.00325385
0.00322005
0.00318639
0.00315295
0.00311985
0.0030872
0.00305513
0.00302382
0.00299347
0.00296434
0.00293676
0.0029112
0.0028883
0.00286901
0.00285504
0.0028471
0.00284424
0.0028457
0.0028509
0.00285933
0.00287056
0.00288421
0.00289998
0.00291758
0.00293674
0.00295715
0.00297839
0.00299921
0.00301704
0.00302184
0.0029873
0.00289607
0.00275463
0.00257667
0.00238013
0.00218284
0.0019988
0.00183649
0.00169922
0.00158634
0.00149519
0.00142214
0.00136329
0.00131565
0.00127463
0.00124525
0.00120524
0.00116844
0.00114692
0.00112118
0.00114541
0.00112041
0.00112974
0.00110186
0.00107825
0.00106857
0.000228008
0.000476459
0.000647072
0.00076727
0.000864322
0.000945848
0.00101706
0.00108332
0.00114916
0.00121858
0.00129327
0.00137211
0.0014546
0.00154008
0.00162782
0.00171714
0.0018074
0.001898
0.0019887
0.00207904
0.00216871
0.00225742
0.00234493
0.00243111
0.00251607
0.00259955
0.00268099
0.00275973
0.00283611
0.00291029
0.0029825
0.00305252
0.00312023
0.00318559
0.00324852
0.00330898
0.00336692
0.00342234
0.00347522
0.00352557
0.00357339
0.00361869
0.00366149
0.00370184
0.00373976
0.00377531
0.00380857
0.00383961
0.00386855
0.0038955
0.0039206
0.00394402
0.00396596
0.00398662
0.00400624
0.00402508
0.00404341
0.00406149
0.00407956
0.00409785
0.00411651
0.00413559
0.00415513
0.00417511
0.00419545
0.00421611
0.00423699
0.00425776
0.00427812
0.00429774
0.00431633
0.00433397
0.0043503
0.00436334
0.00437622
0.0043864
0.00439419
0.0043996
0.00440264
0.00440335
0.00440181
0.00439814
0.00439249
0.00438502
0.00437592
0.00436534
0.00435346
0.00434038
0.00432619
0.00431096
0.00429473
0.00427759
0.0042596
0.00424079
0.0042212
0.00420083
0.0041797
0.00415785
0.00413529
0.00411204
0.00408813
0.00406357
0.00403837
0.00401258
0.0039862
0.00395927
0.00393179
0.00390381
0.00387533
0.00384638
0.00381697
0.00378714
0.0037569
0.00372626
0.00369524
0.00366386
0.00363213
0.00360008
0.00356774
0.00353514
0.00350232
0.00346932
0.00343619
0.00340301
0.00336983
0.00333672
0.00330378
0.00327109
0.00323877
0.00320694
0.00317575
0.0031454
0.0031161
0.00308814
0.0030619
0.00303788
0.00301679
0.00299955
0.00298792
0.00298144
0.00297949
0.0029815
0.00298696
0.00299541
0.00300646
0.00301973
0.0030349
0.00305169
0.00306977
0.00308886
0.00310856
0.00312767
0.00314439
0.00314902
0.00311916
0.00303106
0.00289153
0.00271396
0.00251595
0.00231523
0.00212609
0.00195759
0.00181366
0.00169422
0.0015969
0.00151827
0.00145458
0.00140277
0.00135886
0.00132391
0.00128991
0.00125636
0.00122949
0.00120023
0.00120038
0.00115109
0.00117449
0.00114865
0.00113302
0.00112088
0.000198441
0.00042643
0.000606888
0.000747263
0.000860262
0.000955994
0.00104143
0.00112058
0.00119523
0.00127004
0.00134731
0.00142779
0.00151122
0.00159711
0.00168488
0.00177398
0.00186395
0.00195455
0.00204498
0.00213506
0.00222453
0.00231312
0.00240061
0.00248679
0.00257146
0.00265475
0.00273675
0.00281735
0.0028956
0.00297102
0.00304376
0.00311407
0.00318199
0.00324785
0.00331138
0.00337242
0.00343091
0.00348685
0.00354022
0.00359101
0.00363917
0.0036847
0.00372757
0.0037678
0.00380539
0.00384035
0.00387273
0.00390257
0.00392996
0.003955
0.00397779
0.00399848
0.00401726
0.00403435
0.00404999
0.00406449
0.00407819
0.00409147
0.00410462
0.00411794
0.00413172
0.00414624
0.0041618
0.00417855
0.00419645
0.00421532
0.00423496
0.0042552
0.00427576
0.00429618
0.00431603
0.00433494