/*--------------------------------*- C++ -*----------------------------------*\
  =========                 |
  \\      /  F ield         | OpenFOAM: The Open Source CFD Toolbox
   \\    /   O peration     | Website:  https://openfoam.org
    \\  /    A nd           | Version:  9
     \\/     M anipulation  |
\*---------------------------------------------------------------------------*/
FoamFile
{
    format      ascii;
    class       volScalarField;
    location    "45";
    object      p;
}
// * * * * * * * * * * * * * * * * * * * * * * * * * * * * * * * * * * * * * //

dimensions      [0 2 -2 0 0 0 0];

internalField   nonuniform List<scalar> 
12225
(
-0.224042
-2.40874
-3.49537
-3.79444
-3.96947
-4.11649
-4.19613
-4.24116
-4.28461
-4.31749
-4.31747
-4.28248
-4.22075
-4.14191
-4.044
-3.88947
-3.72113
-3.1755
-3.38644
-4.14541
-4.30355
-4.18943
-4.166
-4.20968
-4.23723
-4.25565
-4.28275
-4.30416
-4.29752
-4.2586
-4.19695
-4.12109
-4.02812
-3.89388
-3.70501
-3.49668
-3.78765
-3.77163
-3.89143
-3.94495
-4.02644
-4.12134
-4.18292
-4.22497
-4.26444
-4.29096
-4.28812
-4.25442
-4.20063
-4.13421
-4.05351
-3.94532
-3.80792
-3.72079
-3.66718
-3.60905
-3.8351
-3.97366
-4.0639
-4.14484
-4.20046
-4.24071
-4.2758
-4.297
-4.2919
-4.26081
-4.21358
-4.15622
-4.08785
-4.00136
-3.90423
-3.81914
-3.65844
-3.67751
-3.89353
-4.01934
-4.09052
-4.15572
-4.20649
-4.24581
-4.2786
-4.29748
-4.29326
-4.26728
-4.22806
-4.1808
-4.12502
-4.05813
-3.98548
-3.92714
-3.71823
-3.76173
-3.92846
-4.03348
-4.10122
-4.16276
-4.21197
-4.25122
-4.28362
-4.3027
-4.30128
-4.28096
-4.24943
-4.21168
-4.16815
-4.11889
-4.07019
-4.04446
-3.78093
-3.82062
-3.94903
-4.04299
-4.11453
-4.1752
-4.22142
-4.2593
-4.29191
-4.31252
-4.31458
-4.29966
-4.27533
-4.24673
-4.21531
-4.18266
-4.15522
-4.14828
-3.8375
-3.871
-3.97379
-4.0594
-4.13226
-4.19104
-4.23344
-4.26954
-4.30292
-4.32593
-4.3319
-4.32249
-4.30533
-4.28588
-4.26631
-4.24865
-4.23822
-4.2439
-3.89106
-3.92
-4.00411
-4.08083
-4.15123
-4.20754
-4.24715
-4.2822
-4.31658
-4.34225
-4.35258
-4.34919
-4.33936
-4.32882
-4.32038
-4.31609
-4.31983
-4.33592
-3.9429
-3.96831
-4.03751
-4.10564
-4.17173
-4.22515
-4.26326
-4.29812
-4.33354
-4.36198
-4.37715
-4.38029
-4.37771
-4.3756
-4.37727
-4.38453
-4.39997
-4.42567
-3.99305
-4.01517
-4.07126
-4.13267
-4.19474
-4.24488
-4.28191
-4.31697
-4.35351
-4.38485
-4.40538
-4.41544
-4.42035
-4.42626
-4.43679
-4.45364
-4.4787
-4.51212
-4.03752
-4.05689
-4.10324
-4.15908
-4.21804
-4.26576
-4.30214
-4.33712
-4.37401
-4.40778
-4.43359
-4.45075
-4.46314
-4.47601
-4.49328
-4.51695
-4.5489
-4.58897
-4.08004
-4.09738
-4.13688
-4.18606
-4.24138
-4.28857
-4.32581
-4.3605
-4.39639
-4.4315
-4.46253
-4.48788
-4.50859
-4.52856
-4.55172
-4.58059
-4.61824
-4.66263
-4.12666
-4.1416
-4.17646
-4.21817
-4.268
-4.31607
-4.35692
-4.39229
-4.42595
-4.46067
-4.49683
-4.5313
-4.56258
-4.59165
-4.62166
-4.65533
-4.69698
-4.74417
-4.17687
-4.18924
-4.22137
-4.25719
-4.29988
-4.34786
-4.39453
-4.43353
-4.46579
-4.49886
-4.53765
-4.58077
-4.62351
-4.66368
-4.70214
-4.74166
-4.78714
-4.83628
-4.22969
-4.24069
-4.26966
-4.30256
-4.3389
-4.38401
-4.43586
-4.48227
-4.51744
-4.54931
-4.58855
-4.63741
-4.6907
-4.74277
-4.79138
-4.83754
-4.88682
-4.93708
-4.28313
-4.29307
-4.31912
-4.35249
-4.38622
-4.42695
-4.48089
-4.53569
-4.57828
-4.6124
-4.65136
-4.70265
-4.76368
-4.82663
-4.88553
-4.93947
-4.99363
-5.04631
-4.33357
-4.34316
-4.36722
-4.40246
-4.43798
-4.4768
-4.53066
-4.59154
-4.64282
-4.68293
-4.72436
-4.77749
-4.8429
-4.91372
-4.98176
-5.04347
-5.10244
-5.15667
-4.37423
-4.38471
-4.40893
-4.44588
-4.48595
-4.5281
-4.58347
-4.64808
-4.70639
-4.7541
-4.80123
-4.85857
-4.92772
-5.0029
-5.07591
-5.14272
-5.20541
-5.2617
-4.38737
-4.39904
-4.42621
-4.46669
-4.51238
-4.56173
-4.62171
-4.68881
-4.74945
-4.80255
-4.85647
-4.92081
-4.9939
-5.07076
-5.14355
-5.21103
-5.27436
-5.33335
-4.381
-4.39407
-4.4258
-4.47064
-4.52191
-4.57814
-4.64347
-4.71136
-4.77354
-4.83052
-4.89211
-4.96248
-5.0396
-5.11578
-5.18763
-5.25303
-5.3169
-5.37676
-4.36111
-4.37549
-4.41254
-4.46334
-4.52204
-4.58654
-4.65629
-4.72453
-4.78701
-4.84898
-4.91772
-4.99408
-5.07283
-5.14762
-5.21672
-5.28093
-5.34464
-5.407
-4.3318
-4.34651
-4.38935
-4.44842
-4.51655
-4.5901
-4.6638
-4.73183
-4.79543
-4.86229
-4.93726
-5.01758
-5.09576
-5.16832
-5.23447
-5.29863
-5.36316
-5.42871
-4.2961
-4.31012
-4.36185
-4.43044
-4.50605
-4.58646
-4.66449
-4.73446
-4.80124
-4.87359
-4.95348
-5.03529
-5.112
-5.18151
-5.24641
-5.31024
-5.37697
-5.4448
-4.25472
-4.26276
-4.33686
-4.42068
-4.49797
-4.57904
-4.65896
-4.73165
-4.80318
-4.88135
-4.96536
-5.04759
-5.12255
-5.19012
-5.25438
-5.31916
-5.38745
-5.45704
-4.21521
-4.18099
-4.29908
-4.41769
-4.50096
-4.58057
-4.65854
-4.7299
-4.80302
-4.8849
-4.97097
-5.0526
-5.12556
-5.1918
-5.2562
-5.32262
-5.3931
-5.46518
-4.23179
-4.07814
-4.2121
-4.36868
-4.48075
-4.58076
-4.66662
-4.7386
-4.81232
-4.896
-4.98304
-5.0627
-5.13242
-5.19559
-5.25819
-5.32422
-5.39583
-5.47041
-4.35581
-4.18098
-4.20963
-4.28048
-4.38465
-4.5116
-4.61898
-4.70316
-4.78668
-4.88025
-4.97557
-5.06021
-5.13096
-5.1939
-5.25613
-5.32198
-5.3952
-5.47317
-4.06373
-4.65157
-4.75936
-4.64049
-4.60408
-4.65833
-4.71911
-4.76916
-4.83086
-4.91257
-5.00213
-5.08269
-5.14865
-5.20645
-5.26372
-5.32515
-5.39454
-5.47067
-1.07616
-2.84493
-3.85284
-4.15756
-4.33092
-4.50417
-4.63101
-4.71625
-4.79888
-4.89516
-4.99578
-5.0845
-5.15592
-5.21685
-5.27591
-5.3387
-5.40777
-5.48002
-6.54248
-6.51361
-6.53575
-6.60271
-6.67684
-6.7433
-6.79593
-6.83403
-6.86055
-6.87774
-6.89062
-6.90202
-6.91307
-6.92426
-6.93732
-6.9518
-6.97183
-6.99883
-7.03459
-7.08448
-7.15682
-7.25917
-7.39677
-7.5722
-7.78486
-8.03272
-8.31064
-8.61406
-8.93578
-9.27108
-9.61307
-9.95834
-10.3009
-10.6386
-10.9671
-11.2857
-11.5906
-11.8822
-12.1576
-12.4177
-12.6597
-12.8848
-13.0899
-13.2764
-13.4412
-13.5853
-13.7051
-13.8008
-13.8684
-13.9081
-13.9155
-13.8898
-13.8259
-13.7233
-13.5781
-13.3903
-13.1573
-12.8804
-12.5588
-12.1935
-11.784
-11.3316
-10.8383
-10.3061
-9.73773
-9.13509
-8.50277
-7.84276
-7.1608
-6.45889
-5.74301
-5.01475
-4.28104
-3.54307
-2.80692
-2.07306
-1.34895
-0.63444
0.0643211
0.749073
1.41408
2.06166
2.68709
3.29409
3.87823
4.44265
4.98325
5.50244
5.99834
6.47383
6.93173
7.37166
7.79316
8.19636
8.58198
8.95064
9.30328
9.64057
9.96333
10.2721
10.5678
10.8509
11.1219
11.3812
11.629
11.8659
12.0923
12.3087
12.5157
12.7136
12.9029
13.0839
13.2571
13.4229
13.5815
13.7328
13.8767
14.0133
14.1433
14.2675
14.3848
14.4953
14.5989
14.6972
14.7909
14.8785
14.96
15.037
15.1079
15.1757
15.2421
15.3041
15.3594
15.4103
15.4603
15.5104
15.5562
15.5966
15.6354
15.675
15.7129
15.749
15.7858
15.824
15.8602
15.8959
15.9304
15.9672
16.0086
16.0485
16.0852
16.1157
16.1386
16.1606
16.1825
16.1965
16.2069
16.2144
16.2207
16.2299
16.2368
16.2387
16.2368
16.2339
16.2306
16.2264
16.2207
16.2137
16.2062
16.1994
16.1928
16.1862
16.1813
16.1792
16.1805
16.1879
16.2056
16.238
16.3061
16.3929
-6.63782
-6.64933
-6.68263
-6.73463
-6.7931
-6.8445
-6.88175
-6.90199
-6.90571
-6.89648
-6.87995
-6.86205
-6.84781
-6.84079
-6.84281
-6.85424
-6.87364
-6.89924
-6.93433
-6.98856
-7.07289
-7.1948
-7.35719
-7.55972
-7.79876
-8.06955
-8.36553
-8.68125
-9.01008
-9.34752
-9.68813
-10.029
-10.3659
-10.6971
-11.0196
-11.3327
-11.6337
-11.9224
-12.1967
-12.4566
-12.7001
-12.927
-13.1351
-13.3245
-13.4926
-13.6391
-13.7611
-13.858
-13.9271
-13.9677
-13.9764
-13.952
-13.8914
-13.7938
-13.6567
-13.4792
-13.2599
-12.9979
-12.6919
-12.3417
-11.9473
-11.5099
-11.0308
-10.5114
-9.95449
-9.36247
-8.73929
-8.08756
-7.41121
-6.71345
-5.99984
-5.27363
-4.53988
-3.80112
-3.0627
-2.32675
-1.59858
-0.880338
-0.176307
0.513299
1.18476
1.83824
2.4714
3.08475
3.67593
4.24635
4.79394
5.31945
5.82196
6.30415
6.76815
7.21388
7.64091
8.04958
8.44067
8.8145
9.17222
9.51439
9.84185
10.1551
10.4551
10.7423
11.0173
11.2803
11.5319
11.7725
12.0025
12.2223
12.4327
12.6337
12.826
13.0097
13.1852
13.3524
13.5124
13.6652
13.8107
13.9496
14.0816
14.2067
14.3255
14.4376
14.5442
14.6448
14.7385
14.8273
14.9113
14.99
15.0657
15.137
15.2026
15.2643
15.3221
15.3772
15.429
15.4769
15.5225
15.5668
15.609
15.6502
15.6909
15.7305
15.7679
15.8051
15.843
15.8797
15.9206
15.9615
15.9969
16.0307
16.0648
16.0994
16.1322
16.1595
16.1834
16.2055
16.2199
16.2292
16.2345
16.2366
16.2369
16.2346
16.2313
16.2275
16.2235
16.2187
16.213
16.2057
16.198
16.1917
16.1858
16.1793
16.1748
16.1729
16.1741
16.181
16.1962
16.2244
16.2825
16.3479
-6.68556
-6.71747
-6.75482
-6.79612
-6.83846
-6.87314
-6.89419
-6.89969
-6.89053
-6.87061
-6.84601
-6.82275
-6.80583
-6.79952
-6.80768
-6.83352
-6.87866
-6.94322
-7.0284
-7.13729
-7.27325
-7.43803
-7.63127
-7.85139
-8.09509
-8.3591
-8.63921
-8.93225
-9.23403
-9.54204
-9.85269
-10.1642
-10.4737
-10.78
-11.0806
-11.3748
-11.6604
-11.9369
-12.2023
-12.4562
-12.6964
-12.9224
-13.1321
-13.325
-13.4983
-13.651
-13.7809
-13.8866
-13.9657
-14.0165
-14.0361
-14.0229
-13.9746
-13.8899
-13.7663
-13.6031
-13.3986
-13.1517
-12.8607
-12.5253
-12.1456
-11.7225
-11.2566
-10.7496
-10.2036
-9.62133
-9.00593
-8.36043
-7.68859
-6.99429
-6.2821
-5.55618
-4.82108
-4.08043
-3.33874
-2.5998
-1.86764
-1.14518
-0.435537
0.259517
0.937452
1.59707
2.23694
2.85641
3.45427
4.0306
4.58462
5.11603
5.62487
6.11311
6.5827
7.03353
7.46527
7.87865
8.2742
8.65248
9.01442
9.36078
9.6921
10.0092
10.3128
10.6035
10.8819
11.148
11.4028
11.6464
11.8796
12.1026
12.3162
12.5205
12.7161
12.9032
13.0823
13.2533
13.417
13.5733
13.7222
13.864
13.9991
14.1275
14.2496
14.3651
14.4744
14.5774
14.6744
14.7663
14.8533
14.9351
15.0124
15.0849
15.1523
15.2162
15.2768
15.3339
15.3872
15.4372
15.4857
15.5323
15.5764
15.6187
15.6605
15.7014
15.7405
15.7788
15.8177
15.8561
15.8962
15.9362
15.9725
16.0078
16.0441
16.0815
16.1164
16.1457
16.1714
16.195
16.2124
16.2245
16.232
16.2351
16.2355
16.2333
16.2298
16.2254
16.2203
16.2148
16.2088
16.2015
16.1939
16.1877
16.1818
16.1755
16.1711
16.169
16.1699
16.1757
16.1877
16.2101
16.2525
16.2821
-6.57009
-6.63042
-6.68172
-6.72195
-6.75691
-6.78329
-6.79802
-6.80121
-6.79532
-6.78468
-6.77482
-6.77153
-6.78004
-6.80509
-6.85018
-6.91719
-7.00616
-7.116
-7.24547
-7.39417
-7.562
-7.74892
-7.95406
-8.17655
-8.41449
-8.66642
-8.92977
-9.20291
-9.48311
-9.76894
-10.0577
-10.3483
-10.6383
-10.9268
-11.2117
-11.4921
-11.7661
-12.0331
-12.2911
-12.5395
-12.7762
-13.0005
-13.2103
-13.4046
-13.5809
-13.7382
-13.8738
-13.9864
-14.0732
-14.1327
-14.1619
-14.1592
-14.122
-14.0486
-13.9367
-13.7851
-13.5918
-13.3556
-13.0752
-12.7498
-12.3794
-11.9644
-11.5056
-11.0043
-10.4626
-9.88314
-9.26888
-8.62308
-7.94969
-7.25279
-6.53681
-5.80603
-5.06512
-4.31834
-3.57009
-2.82456
-2.08559
-1.35638
-0.639862
0.0616924
0.746137
1.41193
2.05777
2.68276
3.28609
3.86734
4.42617
4.96221
5.4756
5.96836
6.44193
6.89626
7.33128
7.7476
8.14601
8.52712
8.89181
9.24079
9.57475
9.89444
10.2006
10.4937
10.7743
11.0428
11.2999
11.5459
11.7814
12.007
12.2231
12.43
12.6282
12.8179
12.9995
13.1733
13.3395
13.4983
13.6496
13.7938
13.9314
14.0623
14.1867
14.3044
14.4158
14.521
14.6206
14.7147
14.8038
14.8875
14.9663
15.0405
15.1102
15.176
15.2383
15.2969
15.352
15.4041
15.4541
15.5017
15.5469
15.5905
15.633
15.6746
15.7149
15.7543
15.7936
15.8325
15.8715
15.9103
15.9475
15.9845
16.022
16.0598
16.0956
16.1269
16.1545
16.1794
16.1989
16.2131
16.2226
16.2277
16.2293
16.228
16.2249
16.2206
16.2155
16.21
16.204
16.1972
16.1902
16.1838
16.1778
16.1719
16.1672
16.1643
16.1642
16.1678
16.1763
16.191
16.2171
16.2211
-6.28685
-6.38137
-6.45959
-6.51235
-6.55294
-6.58455
-6.6086
-6.62818
-6.64702
-6.66882
-6.69738
-6.73678
-6.79059
-6.86142
-6.95035
-7.05749
-7.18202
-7.32303
-7.47928
-7.65019
-7.83502
-8.03341
-8.24438
-8.46743
-8.70121
-8.94503
-9.19727
-9.45716
-9.72282
-9.99348
-10.2672
-10.5433
-10.8198
-11.096
-11.37
-11.6412
-11.9076
-12.1687
-12.4223
-12.668
-12.9036
-13.1282
-13.3397
-13.537
-13.7176
-13.8803
-14.0225
-14.1426
-14.2379
-14.3065
-14.3455
-14.3531
-14.3264
-14.2636
-14.1621
-14.0203
-13.8361
-13.6081
-13.3349
-13.0156
-12.65
-12.2383
-11.7811
-11.2798
-10.7363
-10.1533
-9.53386
-8.88144
-8.20024
-7.49456
-6.76906
-6.02826
-5.27699
-4.51984
-3.76145
-3.00606
-2.25757
-1.51939
-0.794464
-0.0852327
0.606241
1.27833
1.92979
2.55971
3.16746
3.75259
4.31488
4.85408
5.37054
5.86596
6.342
6.79836
7.23506
7.65289
8.05268
8.43523
8.80132
9.15174
9.48721
9.80854
10.1162
10.4111
10.6933
10.9636
11.2222
11.4701
11.7073
11.9348
12.1526
12.3615
12.5613
12.7529
12.9362
13.1118
13.2796
13.4401
13.593
13.7391
13.8783
14.011
14.1369
14.2564
14.3693
14.4763
14.5774
14.6733
14.7638
14.8493
14.9298
15.0058
15.0772
15.1448
15.2086
15.2687
15.3252
15.3788
15.4297
15.4783
15.5247
15.5693
15.6126
15.6547
15.6957
15.7356
15.7749
15.8137
15.8518
15.8895
15.9267
15.9638
16.0012
16.0385
16.0744
16.1069
16.1358
16.1617
16.1828
16.1988
16.2101
16.2168
16.2198
16.2197
16.2175
16.2139
16.2093
16.2043
16.1986
16.1924
16.186
16.1797
16.1737
16.1677
16.1624
16.1587
16.1571
16.158
16.1624
16.1692
16.1807
16.167
-5.94643
-6.07163
-6.18119
-6.25603
-6.31289
-6.35988
-6.40369
-6.45051
-6.50459
-6.56848
-6.64346
-6.73052
-6.83038
-6.94371
-7.07047
-7.21042
-7.36277
-7.52698
-7.70214
-7.88788
-8.08341
-8.28863
-8.50272
-8.72552
-8.95611
-9.19434
-9.43907
-9.69009
-9.94607
-10.2067
-10.4705
-10.737
-11.0048
-11.2732
-11.5406
-11.8064
-12.0689
-12.3274
-12.5799
-12.8257
-13.0628
-13.2902
-13.5057
-13.7081
-13.8949
-14.0648
-14.215
-14.344
-14.4489
-14.5277
-14.5774
-14.5958
-14.58
-14.5278
-14.4364
-14.304
-14.1282
-13.9074
-13.6399
-13.3246
-12.9612
-12.5497
-12.0906
-11.5853
-11.0357
-10.4446
-9.81513
-9.15113
-8.45706
-7.73749
-6.99752
-6.24204
-5.47613
-4.70473
-3.93263
-3.16426
-2.40368
-1.6544
-0.919437
-0.201319
0.497901
1.17662
1.83369
2.46824
3.07978
3.66798
4.23278
4.77404
5.29214
5.78916
6.26634
6.72355
7.16081
7.57908
7.97928
8.36233
8.72899
9.08009
9.41645
9.73871
10.0475
10.3433
10.6267
10.898
11.1579
11.4069
11.6456
11.8744
12.0937
12.3039
12.5053
12.6982
12.883
13.0599
13.229
13.3907
13.545
13.6924
13.8331
13.967
14.0943
14.215
14.3293
14.4376
14.5402
14.6375
14.7295
14.8164
14.8985
14.976
15.0491
15.1182
15.1834
15.245
15.303
15.3578
15.41
15.4598
15.5074
15.5532
15.5974
15.6403
15.6818
15.7221
15.7615
15.7999
15.8373
15.8742
15.9106
15.9468
15.9832
16.0195
16.0548
16.0876
16.1172
16.1437
16.1659
16.1831
16.1958
16.2039
16.2083
16.2096
16.2085
16.2058
16.2021
16.1976
16.1925
16.1869
16.181
16.1752
16.1692
16.163
16.1571
16.1523
16.1488
16.147
16.1467
16.146
16.1451
16.1176
-5.67166
-5.80635
-5.93711
-6.03507
-6.11466
-6.18334
-6.25086
-6.32553
-6.41203
-6.51202
-6.62502
-6.75007
-6.88604
-7.03234
-7.18815
-7.3531
-7.5264
-7.70785
-7.89669
-8.09295
-8.29608
-8.50623
-8.72278
-8.946
-9.17522
-9.41062
-9.65139
-9.89763
-10.1484
-10.4035
-10.6619
-10.9233
-11.1865
-11.4511
-11.7155
-11.9793
-12.2408
-12.4995
-12.7534
-13.0018
-13.2425
-13.4747
-13.696
-13.9054
-14.1001
-14.2788
-14.4387
-14.578
-14.6939
-14.7841
-14.8455
-14.8758
-14.8718
-14.8309
-14.7503
-14.6276
-14.4603
-14.2465
-13.9841
-13.6721
-13.3096
-12.8964
-12.4333
-11.9213
-11.3626
-10.76
-10.1169
-9.43745
-8.72646
-7.98891
-7.23036
-6.45622
-5.67195
-4.88281
-4.09392
-3.3099
-2.53497
-1.77277
-1.02639
-0.298412
0.409166
1.09482
1.75748
2.39644
3.01135
3.60204
4.16859
4.71106
5.23012
5.72766
6.20522
6.66251
7.09971
7.51782
7.91794
8.30098
8.66779
9.01913
9.35588
9.67849
9.98782
10.284
10.568
10.8398
11.1006
11.3504
11.5903
11.82
12.0405
12.2518
12.4544
12.6485
12.8345
13.0124
13.1828
13.3455
13.5012
13.6497
13.7917
13.9267
14.0552
14.1769
14.2925
14.4021
14.506
14.6045
14.6979
14.786
14.8695
14.9484
15.023
15.0934
15.1601
15.223
15.2826
15.3388
15.3925
15.4437
15.4927
15.5397
15.5851
15.6289
15.6711
15.7118
15.7513
15.7896
15.8267
15.8629
15.8984
15.9335
15.9685
16.0034
16.0376
16.0698
16.0994
16.126
16.1487
16.1668
16.1805
16.1899
16.1957
16.1983
16.1985
16.1969
16.194
16.1902
16.1856
16.1806
16.1753
16.1697
16.1638
16.1575
16.1512
16.145
16.1397
16.1349
16.1299
16.122
16.1106
16.072
-5.49687
-5.63687
-5.77725
-5.8892
-5.98808
-6.07901
-6.16991
-6.26874
-6.37997
-6.50513
-6.64335
-6.79301
-6.95219
-7.11975
-7.29442
-7.47575
-7.6629
-7.85587
-8.05408
-8.2578
-8.46652
-8.68073
-8.89996
-9.12463
-9.35427
-9.58933
-9.82909
-10.0739
-10.3229
-10.5762
-10.8328
-11.0928
-11.3549
-11.619
-11.8835
-12.1483
-12.4117
-12.6732
-12.9307
-13.1839
-13.4304
-13.6694
-13.8985
-14.1166
-14.3209
-14.5101
-14.6813
-14.8326
-14.9609
-15.0641
-15.1387
-15.1822
-15.1912
-15.1628
-15.094
-14.982
-14.824
-14.6176
-14.3607
-14.0517
-13.6895
-13.2739
-12.8054
-12.2849
-11.7149
-11.0981
-10.4385
-9.74039
-9.00913
-8.25018
-7.4696
-6.67343
-5.86765
-5.05794
-4.24972
-3.44789
-2.65686
-1.88041
-1.12165
-0.383148
0.33316
1.02585
1.69403
2.33716
2.9551
3.54784
4.11573
4.65899
5.17841
5.67616
6.15365
6.61072
7.04758
7.46532
7.86502
8.24767
8.6141
8.96523
9.30177
9.6244
9.93358
10.23
10.514
10.7863
11.0474
11.298
11.5384
11.7691
11.9903
12.2026
12.4062
12.6013
12.7883
12.9674
13.1387
13.3026
13.4593
13.6091
13.7521
13.8882
14.0177
14.1407
14.2574
14.3682
14.4733
14.573
14.6676
14.757
14.8417
14.9219
14.9978
15.0695
15.1375
15.2018
15.2627
15.3206
15.3757
15.4285
15.479
15.5274
15.574
15.6187
15.6618
15.7031
15.743
15.7814
15.8184
15.8542
15.889
15.9231
15.9568
15.9901
16.0228
16.0539
16.0828
16.109
16.1317
16.1502
16.1647
16.1752
16.1822
16.1862
16.1876
16.1872
16.1853
16.1822
16.1783
16.1738
16.1688
16.1634
16.1575
16.1512
16.1444
16.137
16.1297
16.122
16.1126
16.0982
16.0778
16.0305
-5.43953
-5.57442
-5.71147
-5.82874
-5.93833
-6.04425
-6.15207
-6.26768
-6.39471
-6.53465
-6.6866
-6.84922
-7.02042
-7.19908
-7.38374
-7.57398
-7.76888
-7.96861
-8.1725
-8.38103
-8.59379
-8.8113
-9.03314
-9.25993
-9.49118
-9.72744
-9.96814
-10.2137
-10.4634
-10.7176
-10.9753
-11.2366
-11.5005
-11.7668
-12.0342
-12.3026
-12.5702
-12.8368
-13.1004
-13.3604
-13.6147
-13.8624
-14.1011
-14.3297
-14.5454
-14.7467
-14.9308
-15.0957
-15.2381
-15.3558
-15.4452
-15.5035
-15.527
-15.5127
-15.4571
-15.3571
-15.2096
-15.0117
-14.761
-14.4555
-14.0938
-13.6755
-13.2007
-12.6706
-12.0876
-11.4546
-10.776
-10.0566
-9.30228
-8.51909
-7.71373
-6.89286
-6.06311
-5.23061
-4.40121
-3.58009
-2.77182
-1.98029
-1.20862
-0.459276
0.265896
0.965626
1.63924
2.28643
2.90724
3.5019
4.07095
4.61489
5.13462
5.63237
6.10957
6.5661
7.00216
7.41902
7.81778
8.19959
8.56523
8.91575
9.25168
9.57393
9.88263
10.1788
10.4627
10.7352
10.9965
11.2476
11.4884
11.7199
11.9418
12.1549
12.3593
12.5554
12.7432
12.9233
13.0956
13.2606
13.4184
13.5694
13.7133
13.8506
13.981
14.1052
14.223
14.3351
14.4413
14.5423
14.638
14.7287
14.8146
14.896
14.973
15.0461
15.1153
15.181
15.2433
15.3027
15.3594
15.4137
15.4657
15.5154
15.5632
15.609
15.6529
15.695
15.7354
15.7741
15.8113
15.847
15.8814
15.9148
15.9473
15.9791
16.0102
16.0399
16.0676
16.0929
16.115
16.1337
16.1486
16.16
16.1681
16.1734
16.1761
16.1769
16.1761
16.1739
16.1707
16.1667
16.1621
16.1567
16.1505
16.144
16.1367
16.1284
16.1191
16.1083
16.0947
16.0745
16.0466
15.9925
-5.48441
-5.5998
-5.72424
-5.8369
-5.94761
-6.05859
-6.17352
-6.29709
-6.43165
-6.57807
-6.73544
-6.90276
-7.07818
-7.26078
-7.4491
-7.64284
-7.84101
-8.04382
-8.25065
-8.462
-8.67733
-8.89734
-9.12161
-9.35071
-9.58418
-9.82267
-10.0656
-10.3135
-10.5658
-10.8227
-11.0834
-11.3481
-11.6159
-11.8866
-12.1591
-12.4331
-12.7071
-12.9807
-13.2522
-13.5209
-13.7847
-14.0428
-14.2927
-14.5333
-14.7619
-14.9769
-15.1754
-15.3554
-15.5134
-15.6472
-15.753
-15.8277
-15.8675
-15.869
-15.8282
-15.7419
-15.6063
-15.4183
-15.175
-14.8738
-14.5131
-14.0921
-13.6108
-13.0703
-12.4731
-11.8224
-11.123
-10.3802
-9.60061
-8.79099
-7.95881
-7.11134
-6.25589
-5.39919
-4.54748
-3.70621
-2.8801
-2.07306
-1.28821
-0.527886
0.206231
0.913054
1.59214
2.24344
2.86719
3.46376
4.03387
4.57813
5.09771
5.59484
6.07118
6.52654
6.9613
7.37677
7.77422
8.15472
8.51929
8.86873
9.20389
9.52525
9.83348
10.1291
10.4128
10.6851
10.9467
11.1979
11.4393
11.6711
11.8938
12.1076
12.3127
12.5096
12.6984
12.8793
13.0527
13.2187
13.3777
13.5297
13.6747
13.8129
13.9445
14.0697
14.1888
14.302
14.4095
14.5117
14.6086
14.7005
14.7876
14.8702
14.9485
15.0228
15.0933
15.1603
15.2241
15.285
15.3432
15.399
15.4525
15.5036
15.5525
15.5994
15.6442
15.687
15.728
15.7673
15.8047
15.8405
15.8748
15.9077
15.9393
15.9699
15.9993
16.0273
16.0535
16.0775
16.0989
16.1172
16.1324
16.1445
16.1536
16.16
16.164
16.166
16.1663
16.1651
16.1627
16.1593
16.155
16.1496
16.1432
16.1363
16.1284
16.1192
16.1081
16.0943
16.0767
16.0516
16.0173
15.9577
-5.58954
-5.67688
-5.77661
-5.87691
-5.98154
-6.09119
-6.20707
-6.33183
-6.46716
-6.61386
-6.77093
-6.93764
-7.11235
-7.29439
-7.48236
-7.67612
-7.87463
-8.07818
-8.286
-8.49866
-8.71567
-8.93761
-9.16398
-9.39554
-9.63173
-9.87313
-10.1192
-10.3706
-10.6265
-10.8875
-11.1527
-11.4225
-11.6957
-11.9724
-12.2514
-12.5326
-12.8145
-13.0967
-13.3775
-13.6563
-13.931
-14.2009
-14.4633
-14.7173
-14.96
-15.19
-15.4042
-15.6005
-15.7756
-15.9269
-16.0505
-16.1432
-16.2009
-16.2197
-16.1954
-16.1243
-16.0022
-15.8255
-15.5906
-15.2947
-14.9357
-14.5123
-14.0245
-13.4732
-12.8611
-12.1916
-11.4701
-10.7025
-9.89613
-9.05868
-8.19837
-7.32325
-6.44127
-5.55969
-4.68515
-3.82338
-2.97925
-2.15665
-1.35855
-0.587143
0.155985
0.86989
1.55428
2.20926
2.83534
3.43315
4.00356
4.54747
5.06612
5.56205
6.03684
6.49045
6.92343
7.33708
7.73283
8.1117
8.4749
8.823
9.15711
9.4774
9.78492
10.0798
10.3633
10.6354
10.8971
11.1484
11.3902
11.6223
11.8456
12.0599
12.2659
12.4635
12.6532
12.8349
13.0094
13.1764
13.3365
13.4895
13.6357
13.7748
13.9076
14.0339
14.1543
14.2686
14.3775
14.4808
14.579
14.672
14.7605
14.8443
14.9239
14.9995
15.0714
15.1397
15.205
15.2674
15.3272
15.3845
15.4393
15.4917
15.5418
15.5897
15.6354
15.679
15.7206
15.7604
15.7982
15.8342
15.8685
15.9011
15.9321
15.9616
15.9895
16.0158
16.0403
16.0628
16.0831
16.101
16.1162
16.1288
16.1387
16.1463
16.1515
16.1547
16.1561
16.1559
16.1543
16.1516
16.1476
16.1423
16.1357
16.1283
16.1197
16.1094
16.0965
16.08
16.0587
16.0293
15.9899
15.9257
-5.69438
-5.76612
-5.84188
-5.92477
-6.0175
-6.11955
-6.23053
-6.35166
-6.48334
-6.6261
-6.77907
-6.94178
-7.11275
-7.29158
-7.47689
-7.66864
-7.86579
-8.06859
-8.2763
-8.48944
-8.70735
-8.93075
-9.1591
-9.39307
-9.63218
-9.87707
-10.1271
-10.3827
-10.6434
-10.9095
-11.1803
-11.456
-11.7358
-12.0196
-12.3063
-12.5959
-12.8867
-13.1787
-13.4698
-13.7598
-14.0463
-14.3289
-14.6047
-14.873
-15.1308
-15.3767
-15.6075
-15.8212
-16.0142
-16.184
-16.3265
-16.4383
-16.5148
-16.5522
-16.5455
-16.4907
-16.3832
-16.2187
-15.9932
-15.7033
-15.3465
-14.921
-14.4268
-13.8646
-13.2372
-12.5486
-11.8044
-11.0115
-10.1779
-9.31214
-8.4234
-7.52051
-6.61206
-5.70576
-4.80856
-3.92647
-3.06446
-2.22654
-1.41566
-0.633947
0.117245
0.837198
1.52583
2.1835
2.81093
3.40898
3.97888
4.52153
5.03858
5.53251
6.00518
6.45659
6.8873
7.29883
7.69249
8.06957
8.43101
8.77774
9.11039
9.4297
9.73614
10.0305
10.3134
10.5854
10.847
11.0985
11.3405
11.5731
11.7968
12.0118
12.2184
12.4167
12.6072
12.7899
12.9653
13.1336
13.2947
13.4487
13.5958
13.7362
13.87
13.9976
14.1191
14.2348
14.3448
14.4494
14.5489
14.6433
14.733
14.8181
14.8991
14.9761
15.0493
15.1192
15.186
15.2499
15.3112
15.3699
15.4261
15.4797
15.5309
15.5798
15.6264
15.6708
15.7131
15.7534
15.7916
15.8279
15.8622
15.8946
15.9251
15.9536
15.9801
16.0047
16.0274
16.0483
16.0675
16.0847
16.0999
16.1129
16.1236
16.1321
16.1386
16.1429
16.1455
16.1463
16.1456
16.1435
16.1399
16.1348
16.1282
16.1203
16.1108
16.0992
16.0846
16.0656
16.0411
16.0079
15.9643
15.8966
-5.77135
-5.83106
-5.88812
-5.95449
-6.03362
-6.12485
-6.22715
-6.34095
-6.466
-6.60249
-6.7494
-6.90642
-7.07219
-7.24655
-7.42817
-7.61704
-7.81211
-8.01366
-8.22081
-8.43409
-8.65285
-8.87772
-9.10807
-9.34462
-9.5868
-9.83531
-10.0895
-10.35
-10.616
-10.888
-11.1652
-11.4479
-11.735
-12.0268
-12.322
-12.6206
-12.9211
-13.2233
-13.5254
-13.8271
-14.126
-14.4216
-14.7113
-14.9942
-15.2673
-15.5293
-15.7769
-16.0082
-16.2194
-16.4079
-16.5694
-16.7005
-16.7962
-16.8524
-16.8638
-16.8257
-16.7332
-16.5813
-16.3657
-16.0822
-15.728
-15.3009
-14.8006
-14.228
-13.5858
-12.8785
-12.1123
-11.2947
-10.4345
-9.54114
-8.62456
-7.6944
-6.76003
-5.82966
-4.91078
-4.00955
-3.13111
-2.2794
-1.45738
-0.666992
0.0906079
0.815033
1.50644
2.16541
2.7929
3.39018
3.95841
4.49908
5.0136
5.50503
5.97494
6.42371
6.85182
7.26097
7.65236
8.02745
8.38698
8.73215
9.06327
9.38145
9.68684
9.98066
10.2629
10.5348
10.7962
11.0479
11.29
11.5231
11.7471
11.9628
12.1699
12.3692
12.5604
12.7442
12.9205
13.0899
13.252
13.4071
13.5552
13.6968
13.8317
13.9606
14.0833
14.2003
14.3116
14.4176
14.5183
14.6141
14.705
14.7917
14.874
14.9524
15.0271
15.0986
15.1669
15.2324
15.2952
15.3553
15.4127
15.4675
15.5198
15.5697
15.6172
15.6624
15.7053
15.7461
15.7848
15.8213
15.8557
15.8879
15.9178
15.9453
15.9705
15.9934
16.0144
16.0338
16.0518
16.0685
16.0835
16.0968
16.1083
16.1178
16.1254
16.1309
16.1346
16.1364
16.1366
16.1351
16.132
16.1272
16.1205
16.1122
16.1019
16.089
16.0725
16.0511
16.0236
15.987
15.94
15.8696
-5.80426
-5.85232
-5.89347
-5.94552
-6.01202
-6.09201
-6.1843
-6.28924
-6.40622
-6.53519
-6.67507
-6.82575
-6.98585
-7.15531
-7.33288
-7.51859
-7.71144
-7.91165
-8.11836
-8.33199
-8.55178
-8.77841
-9.01123
-9.25078
-9.4965
-9.74909
-10.0079
-10.2735
-10.5452
-10.8235
-11.1075
-11.3974
-11.6925
-11.9926
-12.2967
-12.6047
-12.9151
-13.2278
-13.541
-13.8544
-14.1657
-14.4744
-14.7778
-15.0752
-15.3635
-15.6414
-15.9055
-16.1541
-16.3831
-16.5901
-16.7705
-16.9207
-17.0356
-17.1107
-17.1403
-17.1192
-17.042
-16.9033
-16.698
-16.4215
-16.0705
-15.6425
-15.1369
-14.5543
-13.898
-13.1724
-12.3845
-11.5425
-10.6561
-9.7356
-8.7919
-7.83562
-6.87675
-5.92417
-4.98571
-4.06767
-3.17538
-2.31247
-1.48198
-0.685334
0.0762859
0.803114
1.49526
2.15386
2.77998
3.37512
3.94062
4.47862
4.98986
5.47821
5.94502
6.39069
6.81601
7.22249
7.61161
7.98447
8.34221
8.68555
9.01535
9.33213
9.63674
9.9297
10.2117
10.4831
10.7446
10.9963
11.2387
11.472
11.6966
11.9128
12.1207
12.3206
12.5127
12.6975
12.875
13.0453
13.2085
13.3646
13.5138
13.6565
13.7927
13.9228
14.0469
14.1652
14.2778
14.3851
14.4872
14.5843
14.6767
14.7648
14.8486
14.9285
15.0049
15.0779
15.1479
15.2149
15.2791
15.3405
15.3992
15.4551
15.5085
15.5594
15.6077
15.6537
15.6973
15.7386
15.7776
15.8143
15.8487
15.8805
15.9098
15.9363
15.9601
15.9814
16.0008
16.0189
16.0359
16.052
16.067
16.0807
16.0928
16.1033
16.112
16.1187
16.1234
16.1263
16.1274
16.1266
16.124
16.1194
16.1128
16.104
16.093
16.0788
16.0606
16.0371
16.0068
15.9671
15.917
15.8444
-5.78565
-5.82007
-5.84674
-5.88683
-5.94222
-6.01141
-6.09358
-6.18912
-6.29747
-6.41862
-6.55132
-6.6955
-6.85
-7.01482
-7.18869
-7.37163
-7.56263
-7.76192
-7.96858
-8.18305
-8.4045
-8.63347
-8.8693
-9.11262
-9.36257
-9.61988
-9.88386
-10.155
-10.4327
-10.7174
-11.0083
-11.3056
-11.6085
-11.917
-12.2301
-12.5476
-12.8682
-13.1916
-13.5161
-13.8413
-14.165
-14.4868
-14.804
-15.1157
-15.4191
-15.7127
-15.9933
-16.2589
-16.5056
-16.7307
-16.9297
-17.0986
-17.2324
-17.3259
-17.3734
-17.369
-17.3069
-17.181
-16.9858
-16.7159
-16.3676
-15.9382
-15.4266
-14.8337
-14.1625
-13.4182
-12.6083
-11.7419
-10.8298
-9.88331
-8.91436
-7.93441
-6.95397
-5.98276
-5.02823
-4.09744
-3.19492
-2.32463
-1.48902
-0.689545
0.0733379
0.799797
1.4905
2.14678
2.7699
3.36118
3.9241
4.45744
4.96605
5.45048
5.91386
6.35615
6.7785
7.18226
7.56905
7.93975
8.2957
8.63729
8.96575
9.28128
9.58512
9.87736
10.1591
10.4302
10.6916
10.9433
11.1861
11.4197
11.6449
11.8616
12.0703
12.2709
12.4641
12.6498
12.8284
12.9997
13.1639
13.321
13.4715
13.6153
13.7529
13.8842
14.0097
14.1292
14.2433
14.3519
14.4555
14.5541
14.6481
14.7376
14.823
14.9045
14.9825
15.0571
15.1287
15.1972
15.2628
15.3255
15.3853
15.4424
15.4968
15.5486
15.5978
15.6445
15.6887
15.7305
15.7698
15.8065
15.8407
15.8721
15.9006
15.9259
15.9483
15.9682
15.9863
16.0033
16.0196
16.0353
16.0503
16.0645
16.0774
16.0888
16.0986
16.1064
16.1122
16.1161
16.1181
16.118
16.1159
16.1116
16.105
16.096
16.0841
16.0688
16.0491
16.0236
15.9909
15.9484
15.8955
15.8206
-5.71583
-5.73259
-5.74685
-5.77681
-5.82186
-5.88044
-5.95235
-6.03857
-6.13819
-6.25133
-6.37691
-6.51504
-6.66438
-6.82517
-6.99611
-7.17727
-7.36736
-7.56677
-7.77428
-7.99048
-8.21422
-8.44626
-8.6856
-8.93313
-9.18769
-9.45035
-9.7201
-9.99767
-10.2819
-10.5739
-10.8721
-11.1774
-11.4884
-11.8056
-12.1275
-12.4545
-12.7849
-13.1187
-13.4539
-13.7905
-14.1261
-14.4605
-14.7907
-15.1163
-15.4339
-15.7427
-16.0388
-16.3207
-16.584
-16.8265
-17.0428
-17.2297
-17.3809
-17.4921
-17.5559
-17.5671
-17.5184
-17.404
-17.217
-16.9522
-16.605
-16.1725
-15.6534
-15.0488
-14.362
-13.5987
-12.7673
-11.8777
-10.9419
-9.97217
-8.98176
-7.9822
-6.98529
-6.0001
-5.03541
-4.09697
-3.18887
-2.31645
-1.47945
-0.681555
0.0797789
0.802193
1.48967
2.14077
2.75946
3.34666
3.90408
4.43466
4.9384
5.4194
5.87886
6.31762
6.73686
7.1381
7.52251
7.89134
8.24536
8.58559
8.91261
9.22729
9.53023
9.82211
10.1034
10.3745
10.6359
10.8879
11.1308
11.365
11.5907
11.8081
12.0174
12.2191
12.4132
12.6
12.7797
12.952
13.1173
13.2756
13.4273
13.5725
13.7114
13.8441
13.971
14.092
14.2076
14.3177
14.4228
14.5229
14.6185
14.7097
14.7967
14.8799
14.9595
15.0358
15.1089
15.1789
15.2458
15.3098
15.3708
15.429
15.4845
15.5372
15.5872
15.6346
15.6794
15.7215
15.7609
15.7976
15.8313
15.8621
15.8895
15.9137
15.9347
15.9534
15.9705
15.9868
16.0025
16.0182
16.0335
16.0481
16.0618
16.0743
16.0851
16.0941
16.101
16.1059
16.1087
16.1094
16.1078
16.1038
16.0973
16.088
16.0756
16.0592
16.0381
16.0108
15.976
15.9311
15.8757
15.7986
-5.60015
-5.5986
-5.60239
-5.6234
-5.658
-5.70564
-5.76733
-5.84428
-5.93564
-6.04138
-6.16047
-6.29331
-6.43875
-6.59667
-6.76584
-6.94629
-7.13665
-7.3372
-7.54669
-7.76559
-7.9929
-8.22903
-8.47296
-8.72554
-8.98567
-9.25403
-9.5298
-9.81362
-10.1045
-10.4031
-10.7085
-11.021
-11.3395
-11.6645
-11.9946
-12.3299
-12.6691
-13.0121
-13.3569
-13.7036
-14.0497
-14.3952
-14.7371
-15.0749
-15.4054
-15.7275
-16.0375
-16.3338
-16.612
-16.8697
-17.1016
-17.304
-17.4709
-17.5971
-17.6751
-17.6991
-17.6614