/*--------------------------------*- C++ -*----------------------------------*\
  =========                 |
  \\      /  F ield         | OpenFOAM: The Open Source CFD Toolbox
   \\    /   O peration     | Website:  https://openfoam.org
    \\  /    A nd           | Version:  9
     \\/     M anipulation  |
\*---------------------------------------------------------------------------*/
FoamFile
{
    format      ascii;
    class       surfaceScalarField;
    location    "45";
    object      phi;
}
// * * * * * * * * * * * * * * * * * * * * * * * * * * * * * * * * * * * * * //

dimensions      [0 3 -1 0 0 0 0];

internalField   nonuniform List<scalar> 
24170
(
3.12874e-06
5.96649e-08
3.04605e-06
8.26766e-08
2.97226e-06
7.37763e-08
2.90269e-06
6.95479e-08
2.83706e-06
6.56263e-08
2.77811e-06
5.89309e-08
2.72697e-06
5.1138e-08
2.68283e-06
4.4119e-08
2.64448e-06
3.83488e-08
2.61082e-06
3.36381e-08
2.58083e-06
2.99907e-08
2.55345e-06
2.73668e-08
2.52771e-06
2.57278e-08
2.50251e-06
2.51872e-08
2.47661e-06
2.58882e-08
2.44715e-06
2.94178e-08
2.4111e-06
3.59586e-08
6.12476e-08
2.34976e-06
3.45306e-06
2.38495e-08
3.45681e-06
7.89217e-08
3.45004e-06
8.05366e-08
3.43806e-06
8.15202e-08
3.42259e-06
8.10924e-08
3.40448e-06
7.70333e-08
3.38413e-06
7.14834e-08
3.36212e-06
6.61287e-08
3.33916e-06
6.13153e-08
3.31581e-06
5.69781e-08
3.29255e-06
5.32571e-08
3.26951e-06
5.0403e-08
3.24675e-06
4.84814e-08
3.22412e-06
4.78108e-08
3.2016e-06
4.83999e-08
3.17868e-06
5.2304e-08
3.15622e-06
5.8324e-08
7.92766e-08
3.13814e-06
3.6682e-06
1.81642e-08
3.67888e-06
6.82381e-08
3.68467e-06
7.47315e-08
3.68811e-06
7.80699e-08
3.68894e-06
8.02557e-08
3.68704e-06
7.89198e-08
3.68274e-06
7.57768e-08
3.67645e-06
7.24129e-08
3.66852e-06
6.92329e-08
3.65925e-06
6.62326e-08
3.64888e-06
6.36332e-08
3.63751e-06
6.17543e-08
3.62522e-06
6.07664e-08
3.61198e-06
6.10404e-08
3.59766e-06
6.27102e-08
3.58253e-06
6.74095e-08
3.56621e-06
7.45972e-08
9.08604e-08
3.55463e-06
3.92579e-06
1.77572e-08
3.93552e-06
5.85144e-08
3.94168e-06
6.85622e-08
3.94655e-06
7.32044e-08
3.95013e-06
7.66689e-08
3.95204e-06
7.70071e-08
3.95242e-06
7.53959e-08
3.9515e-06
7.33312e-08
3.94944e-06
7.1285e-08
3.94635e-06
6.93238e-08
3.9423e-06
6.7685e-08
3.93733e-06
6.67239e-08
3.93143e-06
6.66624e-08
3.92459e-06
6.78631e-08
3.91674e-06
7.05504e-08
3.90833e-06
7.5797e-08
3.89913e-06
8.37505e-08
9.7141e-08
3.89282e-06
4.20806e-06
1.68194e-08
4.21553e-06
5.10402e-08
4.22072e-06
6.33697e-08
4.22509e-06
6.88206e-08
4.22894e-06
7.2816e-08
4.23177e-06
7.41707e-08
4.23353e-06
7.36262e-08
4.23436e-06
7.24939e-08
4.23434e-06
7.13035e-08
4.23348e-06
7.01732e-08
4.23182e-06
6.93467e-08
4.22938e-06
6.91636e-08
4.22616e-06
6.98781e-08
4.2222e-06
7.18118e-08
4.21754e-06
7.52108e-08
4.21257e-06
8.07509e-08
4.20761e-06
8.8687e-08
9.95563e-08
4.20521e-06
4.51054e-06
1.5362e-08
4.51641e-06
4.51773e-08
4.52109e-06
5.86827e-08
4.52513e-06
6.47821e-08
4.52887e-06
6.907e-08
4.53191e-06
7.11373e-08
4.5341e-06
7.14296e-08
4.53554e-06
7.10518e-08
4.53628e-06
7.05611e-08
4.5363e-06
7.0142e-08
4.53563e-06
7.0021e-08
4.53427e-06
7.05166e-08
4.53227e-06
7.18779e-08
4.52969e-06
7.43778e-08
4.52666e-06
7.82295e-08
4.52357e-06
8.38261e-08
4.52099e-06
9.12522e-08
1.00267e-07
4.52024e-06
4.83417e-06
1.39118e-08
4.83913e-06
4.02166e-08
4.84364e-06
5.41609e-08
4.84754e-06
6.08783e-08
4.85114e-06
6.54608e-08
4.85419e-06
6.80937e-08
4.85652e-06
6.90903e-08
4.8582e-06
6.93675e-08
4.85927e-06
6.94909e-08
4.85971e-06
6.96965e-08
4.85953e-06
7.0201e-08
4.85876e-06
7.12864e-08
4.85745e-06
7.31824e-08
4.85572e-06
7.61056e-08
4.85373e-06
8.02115e-08
4.85186e-06
8.56897e-08
4.8506e-06
9.2489e-08
1.00282e-07
4.85064e-06
5.18089e-06
1.25997e-08
5.18522e-06
3.58861e-08
5.1896e-06
4.97817e-08
5.19342e-06
5.70524e-08
5.19693e-06
6.19531e-08
5.19997e-06
6.50585e-08
5.20239e-06
6.66697e-08
5.20421e-06
6.75433e-08
5.20546e-06
6.82308e-08
5.20616e-06
6.89934e-08
5.20631e-06
7.00492e-08
5.20595e-06
7.16393e-08
5.20516e-06
7.39687e-08
5.20408e-06
7.71891e-08
5.20288e-06
8.14021e-08
5.2019e-06
8.66616e-08
5.20153e-06
9.28749e-08
9.96067e-08
5.20219e-06
5.55254e-06
1.13997e-08
5.55634e-06
3.2076e-08
5.56052e-06
4.56048e-08
5.56428e-06
5.32901e-08
5.56773e-06
5.84988e-08
5.57078e-06
6.20063e-08
5.5733e-06
6.41542e-08
5.57525e-06
6.55885e-08
5.57668e-06
6.68054e-08
5.5776e-06
6.8073e-08
5.57804e-06
6.96055e-08
5.57806e-06
7.16204e-08
5.57774e-06
7.42867e-08
5.57722e-06
7.77025e-08
5.57671e-06
8.19149e-08
5.57646e-06
8.69032e-08
5.5768e-06
9.25205e-08
9.84303e-08
5.57805e-06
5.95089e-06
1.02906e-08
5.95424e-06
2.87195e-08
5.95818e-06
4.16674e-08
5.96186e-06
4.96058e-08
5.96529e-06
5.50727e-08
5.96838e-06
5.89127e-08
5.97101e-06
6.15257e-08
5.97312e-06
6.34828e-08
5.97473e-06
6.51929e-08
5.97589e-06
6.69092e-08
5.97665e-06
6.88445e-08
5.97706e-06
7.12048e-08
5.97722e-06
7.41186e-08
5.97727e-06
7.76451e-08
5.9774e-06
8.17785e-08
5.97783e-06
8.64579e-08
5.97883e-06
9.15443e-08
9.66902e-08
5.98058e-06
6.37783e-06
9.26908e-09
6.38081e-06
2.57479e-08
6.38451e-06
3.79655e-08
6.38811e-06
4.5999e-08
6.39153e-06
5.16567e-08
6.39468e-06
5.57601e-08
6.39744e-06
5.87705e-08
6.39973e-06
6.11912e-08
6.40158e-06
6.33498e-08
6.40302e-06
6.54589e-08
6.40413e-06
6.77317e-08
6.40497e-06
7.03496e-08
6.40564e-06
7.34384e-08
6.40628e-06
7.69905e-08
6.40706e-06
8.09943e-08
6.40816e-06
8.5346e-08
6.40977e-06
8.99088e-08
9.44562e-08
6.41205e-06
5.74164e-06
8.46614e-09
5.74389e-06
2.34916e-08
5.74685e-06
3.50069e-08
5.74985e-06
4.29895e-08
5.75275e-06
4.87607e-08
5.75546e-06
5.30506e-08
5.75789e-06
5.63371e-08
5.76e-06
5.90767e-08
5.76179e-06
6.1557e-08
5.76328e-06
6.39589e-08
5.76453e-06
6.64662e-08
5.7656e-06
6.92851e-08
5.76659e-06
7.24344e-08
5.76761e-06
7.59816e-08
5.76877e-06
7.98126e-08
5.77023e-06
8.38916e-08
5.7721e-06
8.80647e-08
9.21244e-08
5.77445e-06
6.99901e-06
7.61122e-09
7.00138e-06
2.11245e-08
7.00458e-06
3.17983e-08
7.00796e-06
3.9612e-08
7.01129e-06
4.54268e-08
7.01448e-06
4.98572e-08
7.01742e-06
5.33848e-08
7.02006e-06
5.64353e-08
7.02238e-06
5.92266e-08
7.02441e-06
6.18965e-08
7.02625e-06
6.46477e-08
7.02794e-06
6.75751e-08
7.02961e-06
7.07974e-08
7.03134e-06
7.42449e-08
7.03327e-06
7.79054e-08
7.03552e-06
8.16466e-08
7.03823e-06
8.53958e-08
8.89524e-08
7.04143e-06
8.53174e-06
6.71862e-09
8.53422e-06
1.86376e-08
8.53765e-06
2.83634e-08
8.54144e-06
3.5821e-08
8.54528e-06
4.15907e-08
8.54904e-06
4.60874e-08
8.55262e-06
4.98019e-08
8.55595e-06
5.31004e-08
8.55899e-06
5.6167e-08
8.56181e-06
5.90881e-08
8.56447e-06
6.19948e-08
8.56706e-06
6.50142e-08
8.56966e-06
6.8202e-08
8.57241e-06
7.15296e-08
8.57538e-06
7.49373e-08
8.57873e-06
7.83327e-08
8.58252e-06
8.16258e-08
8.46752e-08
8.58686e-06
1.04001e-05
5.79875e-09
1.04027e-05
1.60305e-08
1.04064e-05
2.46699e-08
1.04107e-05
3.15652e-08
1.04152e-05
3.71228e-08
1.04196e-05
4.16241e-08
1.0424e-05
4.5412e-08
1.04283e-05
4.88707e-08
1.04323e-05
5.21156e-08
1.04362e-05
5.52132e-08
1.044e-05
5.82073e-08
1.04438e-05
6.12377e-08
1.04477e-05
6.43008e-08
1.04519e-05
6.74435e-08
1.04562e-05
7.05424e-08
1.0461e-05
7.35668e-08
1.04663e-05
7.63994e-08
7.89673e-08
1.0472e-05
1.26778e-05
4.81829e-09
1.26805e-05
1.32537e-08
1.26846e-05
2.06564e-08
1.26894e-05
2.67447e-08
1.26947e-05
3.18772e-08
1.27001e-05
3.62103e-08
1.27055e-05
3.99614e-08
1.2711e-05
4.34084e-08
1.27164e-05
4.671e-08
1.27218e-05
4.9848e-08
1.27272e-05
5.28608e-08
1.27327e-05
5.5774e-08
1.27383e-05
5.86782e-08
1.27442e-05
6.15269e-08
1.27505e-05
6.43092e-08
1.27571e-05
6.69197e-08
1.27642e-05
6.93303e-08
7.14313e-08
1.27717e-05
1.54543e-05
3.74108e-09
1.54573e-05
1.02127e-08
1.54619e-05
1.60972e-08
1.54675e-05
2.11371e-08
1.54738e-05
2.55594e-08
1.54806e-05
2.94946e-08
1.54875e-05
3.30156e-08
1.54946e-05
3.62898e-08
1.55019e-05
3.945e-08
1.55093e-05
4.24894e-08
1.55168e-05
4.53816e-08
1.55245e-05
4.81302e-08
1.55324e-05
5.07763e-08
1.55406e-05
5.33186e-08
1.55491e-05
5.57309e-08
1.55581e-05
5.79494e-08
1.55674e-05
5.99344e-08
6.16481e-08
1.55772e-05
1.88389e-05
2.49508e-09
1.88425e-05
6.64803e-09
1.88479e-05
1.06356e-08
1.88548e-05
1.42875e-08
1.88627e-05
1.76835e-08
1.88713e-05
2.09111e-08
1.88803e-05
2.39725e-08
1.88897e-05
2.68904e-08
1.88994e-05
2.97273e-08
1.89095e-05
3.24808e-08
1.89197e-05
3.5124e-08
1.89302e-05
3.763e-08
1.8941e-05
4.00012e-08
1.89521e-05
4.22264e-08
1.89635e-05
4.4287e-08
1.89754e-05
4.61525e-08
1.89875e-05
4.77921e-08
4.92067e-08
1.89999e-05
2.2965e-05
8.60033e-10
2.29695e-05
2.12072e-09
2.29765e-05
3.63579e-09
2.29854e-05
5.42333e-09
2.29956e-05
7.41181e-09
2.3007e-05
9.58936e-09
2.3019e-05
1.19147e-08
2.30316e-05
1.42988e-08
2.30447e-05
1.66558e-08
2.30582e-05
1.89929e-08
2.3072e-05
2.12878e-08
2.30861e-05
2.35191e-08
2.31005e-05
2.56277e-08
2.31151e-05
2.75843e-08
2.313e-05
2.93523e-08
2.31452e-05
3.09328e-08
2.31607e-05
3.23031e-08
3.35036e-08
2.31764e-05
1.6812e-05
-4.87919e-10
1.68158e-05
-1.60944e-09
1.68215e-05
-2.12294e-09
1.68288e-05
-1.84025e-09
1.68371e-05
-9.37716e-10
1.68462e-05
4.51881e-10
1.68559e-05
2.23221e-09
1.6866e-05
4.23107e-09
1.68763e-05
6.29054e-09
1.6887e-05
8.36714e-09
1.68978e-05
1.0452e-08
1.69088e-05
1.25241e-08
1.69199e-05
1.44973e-08
1.69312e-05
1.63324e-08
1.69426e-05
1.79871e-08
1.69541e-05
1.94635e-08
1.69656e-05
2.07649e-08
2.19249e-08
1.69772e-05
1.46359e-05
-1.80448e-09
1.46396e-05
-5.3243e-09
1.46453e-05
-7.84367e-09
1.46524e-05
-8.94509e-09
1.46604e-05
-8.95106e-09
1.4669e-05
-8.2116e-09
1.46781e-05
-6.8809e-09
1.46875e-05
-5.18209e-09
1.46971e-05
-3.34231e-09
1.47069e-05
-1.42535e-09
1.47168e-05
5.51225e-10
1.47268e-05
2.53208e-09
1.47369e-05
4.44333e-09
1.4747e-05
6.21556e-09
1.47571e-05
7.83132e-09
1.47673e-05
9.2843e-09
1.47775e-05
1.05794e-08
1.17657e-08
1.47877e-05
1.27414e-05
-3.04395e-09
1.27451e-05
-9.06412e-09
1.27509e-05
-1.3682e-08
1.27579e-05
-1.59435e-08
1.27656e-05
-1.66288e-08
1.27737e-05
-1.63884e-08
1.27822e-05
-1.53961e-08
1.2791e-05
-1.39131e-08
1.27998e-05
-1.21966e-08
1.28087e-05
-1.03519e-08
1.28177e-05
-8.41142e-09
1.28266e-05
-6.44801e-09
1.28356e-05
-4.55452e-09
1.28446e-05
-2.78381e-09
1.28536e-05
-1.16656e-09
1.28625e-05
3.1903e-10
1.28714e-05
1.65086e-09
2.90205e-09
1.28803e-05
1.1092e-05
-4.10756e-09
1.10958e-05
-1.28557e-08
1.11018e-05
-1.97299e-08
1.11087e-05
-2.28642e-08
1.11161e-05
-2.39883e-08
1.11238e-05
-2.40979e-08
1.11317e-05
-2.32961e-08
1.11397e-05
-2.1896e-08
1.11477e-05
-2.02234e-08
1.11557e-05
-1.83884e-08
1.11637e-05
-1.64374e-08
1.11717e-05
-1.44546e-08
1.11797e-05
-1.25342e-08
1.11876e-05
-1.07452e-08
1.11955e-05
-9.08017e-09
1.12034e-05
-7.55968e-09
1.12112e-05
-6.16047e-09
-4.85578e-09
1.12189e-05
9.65602e-06
-4.9156e-09
9.65999e-06
-1.68253e-08
9.66616e-06
-2.5907e-08
9.67282e-06
-2.95163e-08
9.67984e-06
-3.10189e-08
9.68714e-06
-3.13955e-08
9.69446e-06
-3.06243e-08
9.70173e-06
-2.91712e-08
9.70896e-06
-2.74542e-08
9.71614e-06
-2.55829e-08
9.72327e-06
-2.35774e-08
9.73035e-06
-2.15379e-08
9.73736e-06
-1.95669e-08
9.74432e-06
-1.77134e-08
9.75122e-06
-1.59999e-08
9.75806e-06
-1.44069e-08
9.76483e-06
-1.29425e-08
-1.15556e-08
9.77153e-06
8.40547e-06
-5.02915e-09
8.41033e-06
-2.16894e-08
8.41635e-06
-3.19232e-08
8.4224e-06
-3.55703e-08
8.42903e-06
-3.76529e-08
8.43597e-06
-3.83275e-08
8.44281e-06
-3.74721e-08
8.44951e-06
-3.58674e-08
8.45608e-06
-3.40331e-08
8.46254e-06
-3.20436e-08
8.46889e-06
-2.9926e-08
8.47511e-06
-2.77619e-08
8.48121e-06
-2.56719e-08
8.4872e-06
-2.37131e-08
8.49309e-06
-2.18955e-08
8.49889e-06
-2.02123e-08
8.50458e-06
-1.86546e-08
-1.71657e-08
8.5102e-06
7.31465e-06
-2.3897e-09
7.32176e-06
-2.88016e-08
7.32804e-06
-3.82081e-08
7.33394e-06
-4.14672e-08
7.34047e-06
-4.4183e-08
7.34712e-06
-4.49738e-08
7.3535e-06
-4.38558e-08
7.35961e-06
-4.19787e-08
7.36549e-06
-3.99082e-08
7.37113e-06
-3.76883e-08
7.37654e-06
-3.53333e-08
7.38173e-06
-3.29513e-08
7.38671e-06
-3.06531e-08
7.39151e-06
-2.85117e-08
7.39615e-06
-2.65357e-08
7.40065e-06
-2.47056e-08
7.405e-06
-2.30227e-08
-2.14272e-08
7.40925e-06
6.36263e-06
5.04272e-09
6.37239e-06
-3.85613e-08
6.38037e-06
-4.61858e-08
6.38782e-06
-4.89066e-08
6.39511e-06
-5.14775e-08
6.4016e-06
-5.14625e-08
6.40721e-06
-4.94702e-08
6.41216e-06
-4.69223e-08
6.41657e-06
-4.4323e-08
6.42052e-06
-4.16349e-08
6.42407e-06
-3.88806e-08
6.42727e-06
-3.61477e-08
6.43017e-06
-3.35523e-08
6.43283e-06
-3.11649e-08
6.43528e-06
-2.89826e-08
6.43757e-06
-2.69847e-08
6.43971e-06
-2.51578e-08
-2.34491e-08
6.44171e-06
5.54143e-06
9.08044e-09
5.55076e-06
-4.78974e-08
5.55918e-06
-5.45973e-08
5.5675e-06
-5.72282e-08
5.57474e-06
-5.87172e-08
5.58001e-06
-5.67367e-08
5.58338e-06
-5.28391e-08
5.58522e-06
-4.87522e-08
5.58586e-06
-4.49575e-08
5.58557e-06
-4.13542e-08
5.58461e-06
-3.79158e-08
5.58316e-06
-3.46938e-08
5.58137e-06
-3.17495e-08
5.57933e-06
-2.91204e-08
5.57714e-06
-2.67784e-08
5.57487e-06
-2.4706e-08
5.57259e-06
-2.28809e-08
-2.12305e-08
5.57037e-06
4.8601e-06
-2.34129e-08
4.86555e-06
-5.33444e-08
4.86573e-06
-5.47696e-08
4.86313e-06
-5.46284e-08
4.85852e-06
-5.4111e-08
4.85174e-06
-4.99534e-08
4.84295e-06
-4.40551e-08
4.83263e-06
-3.8425e-08
4.82124e-06
-3.35686e-08
4.80928e-06
-2.9385e-08
4.79713e-06
-2.57649e-08
4.78508e-06
-2.26395e-08
4.77331e-06
-1.99742e-08
4.76194e-06
-1.77324e-08
4.75102e-06
-1.58491e-08
4.74062e-06
-1.42976e-08
4.73085e-06
-1.31047e-08
-1.2793e-08
4.7224e-06
4.17926e-06
4.12592e-06
4.07115e-06
4.01652e-06
3.96241e-06
3.91246e-06
3.8684e-06
3.82998e-06
3.79641e-06
3.76702e-06
3.74126e-06
3.71862e-06
3.69865e-06
3.68092e-06
3.66507e-06
3.65078e-06
3.63767e-06
3.62488e-06
1.11176e-07
-1.10375e-07
2.6891e-07
-1.56788e-07
4.22855e-07
-1.53306e-07
5.53989e-07
-1.30118e-07
6.55373e-07
-1.00944e-07
7.24608e-07
-6.81102e-08
7.59274e-07
-3.44709e-08
7.62422e-07
-1.82227e-09
7.36118e-07
2.6388e-08
6.91059e-07
4.65647e-08
6.34337e-07
5.66201e-08
5.78023e-07
5.7903e-08
5.20979e-07
5.66153e-08
4.63493e-07
5.90304e-08
3.95959e-07
6.66763e-08
3.17783e-07
7.99249e-08
2.18264e-07
9.82264e-08
1.00758e-07
1.19713e-07
-4.46821e-08
1.44203e-07
-2.1547e-07
1.72619e-07
-4.14265e-07
1.97992e-07
-6.30984e-07
2.17795e-07
-8.63551e-07
2.32157e-07
-1.10447e-06
2.41447e-07
-1.35049e-06
2.45943e-07
-1.59673e-06
2.46366e-07
-1.83991e-06
2.43287e-07
-2.07754e-06
2.37467e-07
-2.30696e-06
2.29648e-07
-2.52773e-06
2.20472e-07
-2.73783e-06
2.10521e-07
-2.93831e-06
2.00163e-07
-3.12759e-06
1.898e-07
-3.30745e-06
1.79583e-07
-3.47648e-06
1.69755e-07
-3.63702e-06
1.60285e-07
-3.78754e-06
1.51325e-07
-3.93059e-06
1.42734e-07
-4.06444e-06
1.34624e-07
-4.19165e-06
1.26793e-07
-4.31028e-06
1.19346e-07
-4.42281e-06
1.12045e-07
-4.5271e-06
1.04999e-07
-4.62554e-06
9.79459e-08
-4.71577e-06
9.10162e-08
-4.80017e-06
8.39373e-08
-4.87626e-06
7.6884e-08
-4.94632e-06
6.95647e-08
-5.00765e-06
6.21297e-08
-5.06257e-06
5.42614e-08
-5.10815e-06
4.62147e-08
-5.1467e-06
3.76738e-08
-5.17522e-06
2.89276e-08
-5.19606e-06
1.99423e-08
-5.20683e-06
1.13349e-08
-5.2105e-06
2.86593e-09
-5.20502e-06
-4.97951e-09
-5.19335e-06
-1.23398e-08
-5.17344e-06
-1.92558e-08
-5.14744e-06
-2.65036e-08
-5.11324e-06
-3.36181e-08
-5.0728e-06
-4.07253e-08
-5.02432e-06
-4.77813e-08
-4.96974e-06
-5.45978e-08
-4.90816e-06
-6.0897e-08
-4.84006e-06
-6.80038e-08
-4.76476e-06
-7.47853e-08
-4.68337e-06
-8.1283e-08
-4.59616e-06
-8.69313e-08
-4.50463e-06
-9.1452e-08
-4.40806e-06
-9.65034e-08
-4.30532e-06
-1.02584e-07
-4.19854e-06
-1.0684e-07
-4.08895e-06
-1.09191e-07
-3.97506e-06
-1.13889e-07
-3.85721e-06
-1.17007e-07
-3.73869e-06
-1.18315e-07
-3.61767e-06
-1.19922e-07
-3.49572e-06
-1.21932e-07
-3.37168e-06
-1.22798e-07
-3.24862e-06
-1.23032e-07
-3.12366e-06
-1.23692e-07
-3.00133e-06
-1.22591e-07
-2.87769e-06
-1.22297e-07
-2.75582e-06
-1.21935e-07
-2.63396e-06
-1.20531e-07
-2.51461e-06
-1.19604e-07
-2.39651e-06
-1.18056e-07
-2.28089e-06
-1.16928e-07
-2.16787e-06
-1.15324e-07
-2.05529e-06
-1.14164e-07
-1.94411e-06
-1.1199e-07
-1.83457e-06
-1.0983e-07
-1.72714e-06
-1.07551e-07
-1.62179e-06
-1.05303e-07
-1.51864e-06
-1.03083e-07
-1.4175e-06
-1.00923e-07
-1.31844e-06
-9.87931e-08
-1.22128e-06
-9.67256e-08
-1.12608e-06
-9.46877e-08
-1.03263e-06
-9.27201e-08
-9.40927e-07
-9.07369e-08
-8.50819e-07
-8.88322e-08
-7.62333e-07
-8.69198e-08
-6.75582e-07
-8.51386e-08
-5.90584e-07
-8.33736e-08
-5.07392e-07
-8.1811e-08
-4.25852e-07
-8.03295e-08
-3.45915e-07
-7.90053e-08
-2.67481e-07
-7.76773e-08
-1.90282e-07
-7.66055e-08
-1.14159e-07
-7.56523e-08
-3.89856e-08
-7.47938e-08
3.5856e-08
-7.45395e-08
1.1042e-07
-7.43786e-08
1.83924e-07
-7.33012e-08
2.56021e-07
-7.20254e-08
3.26636e-07
-7.06372e-08
3.9562e-07
-6.92739e-08
4.63197e-07
-6.77683e-08
5.29495e-07
-6.62818e-08
5.94746e-07
-6.47901e-08
6.58803e-07
-6.34946e-08
7.21663e-07
-6.21667e-08
7.82839e-07
-6.07675e-08
8.42504e-07
-5.92706e-08
9.00582e-07
-5.79823e-08
9.57398e-07
-5.667e-08
1.01276e-06
-5.54547e-08
1.06702e-06
-5.42643e-08
1.11989e-06
-5.30689e-08
1.17144e-06
-5.16352e-08
1.22151e-06
-5.03414e-08
1.27044e-06
-4.9076e-08
1.31795e-06
-4.78286e-08
1.36406e-06
-4.63208e-08
1.4084e-06
-4.47211e-08
1.45119e-06
-4.31831e-08
1.49237e-06
-4.18856e-08
1.53202e-06
-4.04435e-08
1.57e-06
-3.886e-08
1.60649e-06
-3.71923e-08
1.64134e-06
-3.5431e-08
1.67424e-06
-3.32799e-08
1.70413e-06
-3.02305e-08
1.7305e-06
-2.65539e-08
1.75317e-06
-2.28557e-08
1.77243e-06
-1.93454e-08
1.78795e-06
-1.56659e-08
1.80019e-06
-1.23348e-08
1.81033e-06
-1.03282e-08
1.81959e-06
-9.4352e-09
1.829e-06
-9.66769e-09
1.84054e-06
-1.17985e-08
1.86021e-06
-1.99769e-08
1.8872e-06
-2.72797e-08
1.92206e-06
-3.51707e-08
1.95325e-06
-3.14941e-08
1.98117e-06
-2.82213e-08
2.01551e-06
-3.46295e-08
2.04717e-06
-3.19691e-08
2.07474e-06
-2.78645e-08
2.09836e-06
-2.39464e-08
2.11858e-06
-2.05316e-08
2.13587e-06
-1.76025e-08
2.15069e-06
-1.51096e-08
2.16344e-06
-1.30425e-08
2.17453e-06
-1.13332e-08
2.18415e-06
-9.85449e-09
2.19249e-06
-8.52475e-09
2.19975e-06
-7.43195e-09
2.20595e-06
-6.31504e-09
2.2109e-06
-5.05714e-09
2.21459e-06
-3.7378e-09
2.21569e-06
-1.14512e-09
2.21221e-06
3.47568e-09
2.20092e-06
1.12828e-08
2.17531e-06
2.56352e-08
2.11747e-06
5.78619e-08
1.10494e-07
2.00701e-06
1.50754e-07
-2.60615e-07
2.70113e-07
-2.7561e-07
3.54214e-07
-2.37093e-07
4.10926e-07
-1.86321e-07
4.43292e-07
-1.33075e-07
4.55832e-07
-8.00335e-08
4.50533e-07
-2.89442e-08
4.3073e-07
1.88113e-08
3.95098e-07
6.21983e-08
3.4284e-07
9.9829e-08
2.69317e-07
1.30223e-07
1.73607e-07
1.54594e-07
5.23587e-08
1.77797e-07
-9.5483e-08
2.07471e-07
-2.75255e-07
2.46265e-07
-4.84606e-07
2.89586e-07
-7.19466e-07
3.32943e-07
-9.72969e-07
3.73511e-07
-1.23838e-06
4.09512e-07
-1.50434e-06
4.38883e-07
-1.76598e-06
4.59587e-07
-2.01898e-06
4.71062e-07
-2.26078e-06
4.73949e-07
-2.48861e-06
4.69438e-07
-2.70144e-06
4.58825e-07
-2.89862e-06
4.43631e-07
-3.08059e-06
4.25341e-07
-3.2483e-06
4.05141e-07
-3.40254e-06
3.84005e-07
-3.54481e-06
3.62688e-07
-3.67587e-06
3.41747e-07
-3.79732e-06
3.2155e-07
-3.90964e-06
3.02335e-07
-4.01429e-06
2.84193e-07
-4.11139e-06
2.67157e-07
-4.20228e-06
2.51154e-07
-4.28676e-06
2.36122e-07
-4.36599e-06
2.21919e-07
-4.43952e-06
2.0845e-07
-4.50838e-06
1.95552e-07
-4.57192e-06
1.83138e-07
-4.63106e-06
1.71049e-07
-4.68503e-06
1.59217e-07
-4.7347e-06
1.47494e-07
-4.77924e-06
1.35847e-07
-4.81951e-06
1.2415e-07
-4.85471e-06
1.12399e-07
-4.88572e-06
1.00481e-07
-4.91171e-06
8.84194e-08
-4.93366e-06
7.61108e-08
-4.9509e-06
6.36291e-08
-4.96442e-06
5.09263e-08
-4.97351e-06
3.81212e-08
-4.97894e-06
2.51657e-08
-4.97962e-06
1.21379e-08
-4.97581e-06
-1.17219e-09
-4.96592e-06
-1.47434e-08
-4.94983e-06
-2.85616e-08
-4.92648e-06
-4.24529e-08
-4.89655e-06
-5.65284e-08
-4.8594e-06
-7.06137e-08
-4.81539e-06
-8.47233e-08
-4.76419e-06
-9.87615e-08
-4.70606e-06
-1.12608e-07
-4.64057e-06
-1.26131e-07
-4.56888e-06
-1.39552e-07
-4.49095e-06
-1.52511e-07
-4.4072e-06
-1.64914e-07
-4.31757e-06
-1.76447e-07
-4.22173e-06
-1.87217e-07
-4.12077e-06
-1.97427e-07
-4.01621e-06
-2.07065e-07
-3.90754e-06
-2.15483e-07
-3.79401e-06
-2.22588e-07
-3.67864e-06
-2.29129e-07
-3.56069e-06
-2.34592e-07
-3.44002e-06
-2.3874e-07
-3.31749e-06
-2.42061e-07
-3.19447e-06
-2.44719e-07
-3.0705e-06
-2.46313e-07
-2.94617e-06
-2.47145e-07
-2.82229e-06
-2.47174e-07
-2.69836e-06
-2.4636e-07
-2.57507e-06
-2.45133e-07
-2.45329e-06
-2.43468e-07
-2.33219e-06
-2.41189e-07
-2.21302e-06
-2.38621e-07
-2.09539e-06
-2.35724e-07
-1.9804e-06
-2.32746e-07
-1.86722e-06
-2.29603e-07
-1.75594e-06
-2.26204e-07
-1.64589e-06
-2.22345e-07
-1.5375e-06
-2.18201e-07
-1.43102e-06
-2.13946e-07
-1.32648e-06
-2.09651e-07
-1.22395e-06
-2.05431e-07
-1.12332e-06
-2.01266e-07
-1.02463e-06
-1.97216e-07
-9.27716e-07
-1.93242e-07
-8.32627e-07
-1.89399e-07
-7.39157e-07
-1.85634e-07
-6.47325e-07
-1.81965e-07
-5.56935e-07
-1.78371e-07
-4.68127e-07
-1.74879e-07
-3.80779e-07
-1.71529e-07
-2.95042e-07
-1.68325e-07
-2.10757e-07
-1.65345e-07
-1.27922e-07
-1.62634e-07
-4.62406e-08
-1.60199e-07
3.43504e-08
-1.57965e-07
1.1389e-07
-1.55851e-07
1.92154e-07
-1.53755e-07
2.6926e-07
-1.5173e-07
3.4454e-07
-1.49759e-07
4.17933e-07
-1.47677e-07
4.89914e-07
-1.45265e-07
5.60622e-07
-1.42687e-07
6.29915e-07
-1.40035e-07
6.97868e-07
-1.37358e-07
7.6457e-07
-1.34611e-07
8.30186e-07
-1.31848e-07
8.94671e-07
-1.29074e-07
9.57912e-07
-1.26388e-07
1.01977e-06
-1.23726e-07
1.08026e-06
-1.21003e-07
1.13935e-06
-1.18211e-07
1.19702e-06
-1.1555e-07
1.25329e-06
-1.12927e-07
1.30822e-06
-1.10393e-07
1.36183e-06
-1.07928e-07
1.41415e-06
-1.05457e-07
1.46518e-06
-1.02782e-07
1.51483e-06
-1.00103e-07
1.56306e-06
-9.74588e-08
1.6099e-06
-9.48268e-08
1.65537e-06
-9.19784e-08
1.69938e-06
-8.89389e-08
1.7418e-06
-8.59327e-08
1.78255e-06
-8.30887e-08
1.82169e-06
-8.01467e-08
1.85925e-06
-7.69552e-08
1.89517e-06
-7.35751e-08
1.92931e-06
-6.98938e-08
1.96139e-06
-6.56007e-08
1.99133e-06
-6.03273e-08
2.01906e-06
-5.43792e-08
2.04451e-06
-4.83489e-08
2.06767e-06
-4.25056e-08
2.0889e-06
-3.68982e-08
2.10865e-06
-3.20851e-08
2.12717e-06
-2.88748e-08
2.14541e-06
-2.77254e-08
2.16441e-06
-2.87741e-08
2.18473e-06
-3.22359e-08
2.2037e-06
-3.91269e-08
2.22168e-06
-4.54606e-08
2.23653e-06
-5.02568e-08
2.25206e-06
-4.72995e-08
2.26633e-06
-4.27594e-08
2.27766e-06
-4.62448e-08
2.29108e-06
-4.56792e-08
2.30559e-06
-4.26889e-08
2.32014e-06
-3.87908e-08
2.33407e-06
-3.47841e-08
2.34712e-06
-3.09464e-08
2.35919e-06
-2.74813e-08
2.3703e-06
-2.44117e-08
2.38044e-06
-2.17236e-08
2.38965e-06
-1.92768e-08
2.39802e-06
-1.70685e-08
2.40561e-06
-1.5162e-08
2.41232e-06
-1.31306e-08
2.41796e-06
-1.07628e-08
2.42213e-06
-7.93148e-09
2.42455e-06
-3.55416e-09
2.42509e-06
2.9767e-09
2.42285e-06
1.35942e-08
2.41618e-06
3.24126e-08
2.40255e-06
7.15987e-08
1.4529e-07
2.36788e-06
8.45796e-08
-3.44912e-07
1.2549e-07
-3.16138e-07
1.42628e-07
-2.54051e-07
1.41981e-07
-1.85334e-07
1.24618e-07
-1.15551e-07
9.19398e-08
-4.68849e-08
4.36106e-08
1.95349e-08
-2.03755e-08
8.33515e-08
-1.0254e-07
1.44531e-07
-2.05265e-07
2.03047e-07
-3.34031e-07
2.5909e-07
-4.92694e-07
3.13619e-07
-6.82911e-07
3.68015e-07
-8.98075e-07
4.22862e-07
-1.12857e-06
4.76673e-07
-1.36478e-06
5.25958e-07
-1.59954e-06
5.67607e-07
-1.82579e-06
5.99919e-07
-2.03864e-06
6.22286e-07
-2.23413e-06
6.34555e-07
-2.41177e-06
6.37192e-07
-2.57196e-06
6.31399e-07
-2.7166e-06
6.1861e-07
-2.84745e-06
6.00393e-07
-2.96686e-06
5.78287e-07
-3.07685e-06
5.53691e-07
-3.17917e-06
5.27754e-07
-3.27539e-06
5.01382e-07
-3.36654e-06
4.75262e-07
-3.45373e-06
4.49877e-07
-3.53739e-06
4.25533e-07
-3.61825e-06
4.02399e-07
-3.69631e-06
3.8054e-07
-3.77206e-06
3.59934e-07
-3.84524e-06
3.40506e-07
-3.91624e-06
3.22145e-07
-3.98466e-06
3.04716e-07
-4.05084e-06
2.88069e-07
-4.11431e-06
2.72063e-07
-4.17536e-06
2.56547e-07
-4.23349e-06
2.4139e-07
-4.28898e-06
2.26456e-07
-4.34128e-06
2.11632e-07
-4.39065e-06
1.96803e-07
-4.43653e-06
1.81883e-07
-4.47917e-06
1.6678e-07
-4.51802e-06
1.51433e-07
-4.55329e-06
1.35765e-07
-4.58442e-06
1.19731e-07
-4.61158e-06
1.03277e-07
-4.6342e-06
8.63911e-08
-4.65235e-06
6.90421e-08
-4.66537e-06
5.12403e-08
-4.67318e-06
3.29475e-08
-4.67509e-06
1.41474e-08
-4.67109e-06
-5.20204e-09
-4.66069e-06
-2.50668e-08
-4.64389e-06
-4.53791e-08
-4.62028e-06
-6.60102e-08
-4.58993e-06
-8.68953e-08
-4.55258e-06
-1.07923e-07
-4.50829e-06
-1.29008e-07
-4.45695e-06
-1.50024e-07
-4.39868e-06
-1.7082e-07
-4.3335e-06
-1.91225e-07
-4.26178e-06
-2.1119e-07
-4.18373e-06
-2.3048e-07
-4.09967e-06
-2.48909e-07
-4.00984e-06
-2.66229e-07
-3.91456e-06
-2.82451e-07
-3.8144e-06
-2.97564e-07
-3.71e-06
-3.11414e-07
-3.60171e-06
-3.23748e-07
-3.48975e-06
-3.34469e-07
-3.37511e-06
-3.43678e-07
-3.25806e-06
-3.51477e-07
-3.1389e-06
-3.57743e-07
-3.01821e-06
-3.62572e-07
-2.89667e-06
-3.66102e-07
-2.77452e-06
-3.68271e-07
-2.65224e-06
-3.69264e-07
-2.5302e-06
-3.69043e-07
-2.40863e-06
-3.67785e-07
-2.28791e-06
-3.65644e-07
-2.16843e-06
-3.62735e-07
-2.05022e-06
-3.59165e-07
-1.93363e-06
-3.55022e-07
-1.81889e-06
-3.505e-07
-1.70638e-06
-3.45647e-07
-1.59597e-06
-3.40666e-07
-1.48724e-06
-3.35295e-07
-1.37999e-06
-3.29576e-07
-1.27445e-06
-3.23582e-07
-1.1707e-06
-3.1743e-07
-1.06882e-06
-3.1126e-07
-9.68792e-07
-3.05139e-07
-8.70606e-07
-2.99134e-07
-7.74204e-07
-2.93256e-07
-6.79535e-07
-2.87537e-07
-5.86539e-07
-2.81978e-07
-4.95113e-07
-2.76564e-07
-4.05211e-07
-2.71306e-07
-3.16718e-07
-2.6617e-07
-2.29706e-07
-2.6122e-07
-1.44063e-07
-2.56467e-07
-5.98247e-08
-2.52018e-07
2.31586e-08
-2.47821e-07
1.04752e-07
-2.43893e-07
1.85022e-07
-2.40152e-07
2.63848e-07
-2.36608e-07
3.41342e-07
-2.33147e-07
4.17445e-07
-2.29767e-07
4.92213e-07
-2.2638e-07
5.6545e-07
-2.22969e-07
6.37247e-07
-2.19411e-07
7.07664e-07
-2.1569e-07
7.76799e-07
-2.11825e-07
8.44571e-07
-2.07914e-07
9.11056e-07
-2.0395e-07
9.76283e-07
-1.99942e-07
1.04038e-06
-1.95886e-07
1.10327e-06
-1.91819e-07
1.16492e-06
-1.87765e-07
1.22513e-06
-1.83746e-07
1.28398e-06
-1.79658e-07
1.34142e-06
-1.75558e-07
1.39747e-06
-1.71516e-07
1.4521e-06
-1.6755e-07
1.50538e-06
-1.63653e-07
1.55722e-06
-1.59817e-07
1.60767e-06
-1.55931e-07
1.65675e-06
-1.51947e-07
1.70452e-06
-1.47931e-07
1.75091e-06
-1.4395e-07
1.7959e-06
-1.39908e-07
1.83947e-06
-1.35671e-07
1.88164e-06
-1.31258e-07
1.92233e-06
-1.26859e-07
1.96145e-06
-1.22521e-07
1.99899e-06
-1.18072e-07
2.03505e-06
-1.13375e-07
2.06956e-06
-1.08382e-07
2.10241e-06
-1.0296e-07
2.13355e-06
-9.68892e-08
2.16309e-06
-8.99811e-08
2.19109e-06
-8.24557e-08
2.21762e-06
-7.49353e-08
2.24272e-06
-6.76394e-08
2.26654e-06
-6.07394e-08
2.28935e-06
-5.49199e-08
2.31139e-06
-5.09418e-08
2.33302e-06
-4.9385e-08
2.35456e-06
-5.03574e-08
2.37579e-06
-5.35153e-08
2.39543e-06
-5.88344e-08
2.41289e-06
-6.29933e-08
2.42693e-06
-6.44003e-08
2.44072e-06
-6.11946e-08
2.45441e-06
-5.6601e-08
2.46418e-06
-5.61479e-08
2.47324e-06
-5.48859e-08
2.4826e-06
-5.21894e-08
2.49225e-06
-4.86081e-08
2.50195e-06
-4.46231e-08
2.51144e-06
-4.05949e-08
2.52062e-06
-3.67989e-08
2.52938e-06
-3.33152e-08
2.53765e-06
-3.01159e-08
2.54543e-06
-2.71775e-08
2.55277e-06
-2.45053e-08
2.55958e-06
-2.20574e-08
2.56566e-06
-1.92732e-08
2.57076e-06
-1.59241e-08
2.57454e-06
-1.17586e-08
2.57671e-06
-5.76152e-09
2.57686e-06
2.79697e-09
2.57423e-06
1.6195e-08
2.56755e-06
3.90737e-08
2.5579e-06
8.12373e-08
1.55091e-07
2.54811e-06
-4.0957e-10
-3.44384e-07
-2.875e-08
-2.87613e-07
-7.05031e-08
-2.12232e-07
-1.24598e-07
-1.31001e-07
-1.9171e-07
-4.83701e-08
-2.72402e-07
3.40856e-08
-3.68609e-07
1.1584e-07
-4.8153e-07
1.96588e-07
-6.12924e-07
2.75976e-07
-7.62943e-07
3.5337e-07
-9.31668e-07
4.27832e-07
-1.11595e-06
4.98139e-07
-1.31075e-06
5.62786e-07
-1.50762e-06
6.199e-07
-1.69868e-06
6.67661e-07
-1.87731e-06
7.04709e-07
-2.04039e-06
7.30607e-07
-2.18611e-06
7.45754e-07
-2.31497e-06
7.51072e-07
-2.42809e-06
7.47775e-07
-2.52817e-06
7.37242e-07
-2.61761e-06
7.20926e-07
-2.69922e-06
7.00223e-07
-2.77519e-06
6.76435e-07
-2.84753e-06
6.50682e-07
-2.91769e-06
6.23903e-07
-2.98666e-06
5.96808e-07
-3.05519e-06
5.69939e-07
-3.12351e-06
5.43692e-07
-3.19195e-06
5.1833e-07
-3.26031e-06
4.94004e-07
-3.32868e-06
4.70776e-07
-3.39666e-06
4.48638e-07
-3.46427e-06
4.27536e-07
-3.53102e-06
4.07378e-07
-3.59695e-06
3.88045e-07
-3.66153e-06
3.69409e-07
-3.72483e-06
3.51329e-07
-3.78634e-06
3.33667e-07
-3.84614e-06
3.16283e-07
-3.90372e-06
2.99043e-07
-3.95916e-06
2.81818e-07
-4.01194e-06
2.64488e-07
-4.06214e-06
2.4694e-07
-4.10923e-06
2.29073e-07
-4.15326e-06
2.10794e-07
-4.1937e-06
1.92016e-07
-4.23057e-06
1.72659e-07
-4.26334e-06
1.52662e-07
-4.29197e-06
1.3196e-07
-4.31594e-06
1.10514e-07
-4.33515e-06
8.82918e-08
-4.34904e-06
6.52741e-08
-4.35748e-06
4.14387e-08
-4.36e-06
1.6791e-08
-4.35653e-06
-8.64649e-09
-4.34669e-06
-3.48142e-08
-4.33044e-06
-6.16194e-08
-4.30747e-06
-8.89395e-08
-4.27773e-06
-1.16654e-07
-4.24102e-06
-1.44624e-07
-4.19734e-06
-1.72699e-07
-4.14667e-06
-2.00698e-07
-4.08906e-06
-2.2842e-07
-4.02462e-06
-2.55652e-07
-3.95358e-06
-2.82206e-07
-3.8762e-06
-3.07838e-07
-3.79277e-06
-3.32307e-07
-3.7036e-06
-3.55374e-07
-3.60916e-06
-3.76862e-07
-3.50992e-06
-3.96786e-07
-3.40636e-06
-4.14948e-07
-3.29896e-06
-4.3112e-07
-3.18816e-06
-4.45222e-07
-3.07452e-06
-4.57255e-07
-2.95859e-06
-4.67312e-07
-2.84085e-06
-4.75386e-07
-2.7218e-06
-4.81523e-07
-2.60197e-06
-4.85832e-07
-2.48176e-06
-4.88383e-07
-2.36161e-06
-4.89317e-07
-2.24184e-06
-4.88712e-07
-2.12276e-06
-4.86748e-07
-2.00468e-06
-4.83589e-07
-1.88784e-06
-4.79408e-07
-1.77245e-06
-4.74376e-07
-1.65868e-06
-4.68626e-07
-1.54678e-06
-4.62342e-07
-1.43707e-06
-4.55675e-07
-1.32941e-06
-4.48698e-07
-1.22344e-06
-4.41404e-07
-1.11908e-06
-4.338e-07
-1.01643e-06
-4.2594e-07
-9.15563e-07
-4.17958e-07
-8.16495e-07
-4.09953e-07
-7.19228e-07
-4.0204e-07
-6.23709e-07
-3.94256e-07
-5.29911e-07
-3.8666e-07
-4.37763e-07
-3.79263e-07
-3.472e-07
-3.72091e-07
-2.58145e-07
-3.65103e-07
-1.70515e-07
-3.58347e-07
-8.42419e-08
-3.51803e-07
7.07634e-10
-3.45527e-07
8.42814e-08
-3.39468e-07
1.66435e-07
-3.33698e-07
2.47153e-07
-3.28163e-07
3.26447e-07
-3.22901e-07
4.04335e-07
-3.17816e-07
4.80819e-07
-3.12927e-07
5.55922e-07
-3.08117e-07
6.29646e-07
-3.03398e-07
7.01992e-07
-2.98655e-07
7.72945e-07
-2.93887e-07
8.42546e-07
-2.88983e-07
9.10829e-07
-2.8398e-07
9.77815e-07
-2.78854e-07
1.04349e-06
-2.73691e-07
1.10788e-06
-2.68452e-07
1.17105e-06