/*--------------------------------*- C++ -*----------------------------------*\
  =========                 |
  \\      /  F ield         | OpenFOAM: The Open Source CFD Toolbox
   \\    /   O peration     | Website:  https://openfoam.org
    \\  /    A nd           | Version:  9
     \\/     M anipulation  |
\*---------------------------------------------------------------------------*/
FoamFile
{
    format      ascii;
    class       volVectorField;
    location    "45";
    object      U;
}
// * * * * * * * * * * * * * * * * * * * * * * * * * * * * * * * * * * * * * //

dimensions      [0 1 -1 0 0 0 0];

internalField   nonuniform List<vector> 
12225
(
(9.85685 -0.886761 0)
(9.66539 -0.740425 0)
(9.45308 -0.429692 0)
(9.21922 -0.221822 0)
(8.99764 -0.105453 0)
(8.80149 -0.0446215 0)
(8.62889 -0.013992 0)
(8.48012 0.00176583 0)
(8.35068 0.0100722 0)
(8.23929 0.014461 0)
(8.14021 0.0167359 0)
(8.05099 0.0183784 0)
(7.96789 0.0195925 0)
(7.88874 0.0211062 0)
(7.80874 0.0232366 0)
(7.72855 0.0269101 0)
(7.61385 0.0351049 0)
(7.5572 0.0481091 0)
(10.0545 0.227892 0)
(10.1209 0.327234 0)
(10.1188 0.262203 0)
(10.0834 0.187524 0)
(10.0396 0.136107 0)
(9.9908 0.102744 0)
(9.93513 0.0810844 0)
(9.87211 0.0667944 0)
(9.80607 0.0572681 0)
(9.73808 0.0505956 0)
(9.67004 0.045828 0)
(9.60195 0.042507 0)
(9.53468 0.0405292 0)
(9.46829 0.0401199 0)
(9.40172 0.041442 0)
(9.3377 0.046878 0)
(9.26475 0.0557524 0)
(9.21897 0.0875908 0)
(10.0035 0.0583234 0)
(10.0301 0.0563775 0)
(10.0547 0.0348585 0)
(10.0675 0.0342122 0)
(10.0724 0.042283 0)
(10.0711 0.0486369 0)
(10.0628 0.0520483 0)
(10.0478 0.0539531 0)
(10.0283 0.0550278 0)
(10.0049 0.0555139 0)
(9.97818 0.0557927 0)
(9.94828 0.0563532 0)
(9.91574 0.0575874 0)
(9.88089 0.0600785 0)
(9.84323 0.0640444 0)
(9.80364 0.0720243 0)
(9.7598 0.0829883 0)
(9.71932 0.111541 0)
(9.9977 0.0111481 0)
(10.0106 0.0273312 0)
(10.0335 0.0381718 0)
(10.0494 0.0495358 0)
(10.0595 0.0576618 0)
(10.0663 0.061184 0)
(10.0692 0.0622532 0)
(10.0684 0.0626795 0)
(10.0646 0.0629987 0)
(10.0582 0.0632735 0)
(10.0491 0.0637772 0)
(10.0375 0.06493 0)
(10.0235 0.0670603 0)
(10.0073 0.070664 0)
(9.9886 0.0761269 0)
(9.96801 0.0851423 0)
(9.94542 0.0982128 0)
(9.92409 0.120774 0)
(9.99928 0.00737255 0)
(10.0084 0.0325005 0)
(10.0259 0.0452657 0)
(10.0387 0.0521122 0)
(10.0479 0.0567051 0)
(10.0556 0.0592074 0)
(10.0611 0.0605221 0)
(10.0642 0.0615721 0)
(10.0652 0.0626409 0)
(10.0643 0.0637928 0)
(10.0613 0.0652737 0)
(10.0563 0.0674731 0)
(10.0495 0.0707123 0)
(10.0409 0.0754435 0)
(10.0307 0.0821092 0)
(10.0192 0.0918886 0)
(10.0072 0.105501 0)
(9.99728 0.124768 0)
(10.0002 0.00950662 0)
(10.0077 0.0322444 0)
(10.0212 0.0428231 0)
(10.0319 0.0482079 0)
(10.0401 0.0527609 0)
(10.0475 0.0561444 0)
(10.0533 0.0584288 0)
(10.0574 0.0602741 0)
(10.0598 0.0620723 0)
(10.0608 0.0639861 0)
(10.0601 0.0662625 0)
(10.0578 0.0692564 0)
(10.0539 0.0732874 0)
(10.0488 0.0787817 0)
(10.0426 0.086171 0)
(10.0357 0.0962886 0)
(10.0291 0.109649 0)
(10.0246 0.126821 0)
(10.0004 0.00936974 0)
(10.0066 0.0284129 0)
(10.0176 0.0386983 0)
(10.0271 0.0446716 0)
(10.0347 0.0497894 0)
(10.0415 0.0537887 0)
(10.0471 0.0566546 0)
(10.0512 0.0590085 0)
(10.0541 0.0613129 0)
(10.0558 0.0637946 0)
(10.0561 0.066682 0)
(10.055 0.0702906 0)
(10.0527 0.0749319 0)
(10.0496 0.0809862 0)
(10.0457 0.0888331 0)
(10.0416 0.0990096 0)
(10.038 0.111794 0)
(10.0363 0.127071 0)
(10.0003 0.00843489 0)
(10.0055 0.0249328 0)
(10.0147 0.0353936 0)
(10.0233 0.0419392 0)
(10.0304 0.047294 0)
(10.0367 0.0515432 0)
(10.0419 0.0547801 0)
(10.0459 0.0575522 0)
(10.049 0.0603028 0)
(10.051 0.063272 0)
(10.0518 0.0666789 0)
(10.0515 0.0708077 0)
(10.0503 0.0759537 0)
(10.0484 0.0824304 0)
(10.0462 0.090535 0)
(10.044 0.100581 0)
(10.0425 0.11267 0)
(10.0425 0.126472 0)
(10.0003 0.00757503 0)
(10.0046 0.0222237 0)
(10.0123 0.0325352 0)
(10.02 0.03934 0)
(10.0266 0.0447851 0)
(10.0325 0.0491981 0)
(10.0374 0.0527596 0)
(10.0414 0.0559376 0)
(10.0445 0.0591184 0)
(10.0468 0.0625279 0)
(10.048 0.0663861 0)
(10.0483 0.0709564 0)
(10.0479 0.0765054 0)
(10.0471 0.0832686 0)
(10.0461 0.0914608 0)
(10.0454 0.101247 0)
(10.0453 0.112631 0)
(10.0466 0.125257 0)
(10.0003 0.00684127 0)
(10.0038 0.0199114 0)
(10.0103 0.0298047 0)
(10.0172 0.0366797 0)
(10.0234 0.0422129 0)
(10.0289 0.0468096 0)
(10.0336 0.0506689 0)
(10.0375 0.0542149 0)
(10.0407 0.0577796 0)
(10.0432 0.0615779 0)
(10.0448 0.065821 0)
(10.0457 0.0707552 0)
(10.046 0.0765986 0)
(10.0461 0.0835251 0)
(10.0462 0.0916743 0)
(10.0466 0.101121 0)
(10.0478 0.111807 0)
(10.0499 0.123411 0)
(10.0003 0.0061766 0)
(10.0032 0.0178598 0)
(10.0087 0.0272011 0)
(10.0148 0.0340346 0)
(10.0205 0.0396282 0)
(10.0257 0.0443913 0)
(10.0303 0.0485103 0)
(10.0342 0.0523648 0)
(10.0375 0.0562495 0)
(10.0401 0.0603661 0)
(10.0422 0.064918 0)
(10.0436 0.0701204 0)
(10.0447 0.0761554 0)
(10.0457 0.0831347 0)
(10.0467 0.0911449 0)
(10.0481 0.100188 0)
(10.0502 0.110189 0)
(10.0531 0.120864 0)
(10.0003 0.00559791 0)
(10.0028 0.0161642 0)
(10.0074 0.0249516 0)
(10.0129 0.0317158 0)
(10.0183 0.0372998 0)
(10.0233 0.0421347 0)
(10.0277 0.0464606 0)
(10.0315 0.0505723 0)
(10.035 0.0546973 0)
(10.0379 0.0590211 0)
(10.0403 0.0637604 0)
(10.0423 0.0691362 0)
(10.044 0.0752711 0)
(10.0457 0.0822472 0)
(10.0475 0.0900596 0)
(10.0498 0.0986999 0)
(10.0526 0.10807 0)
(10.0562 0.117965 0)
(10.0002 0.00506443 0)
(10.0024 0.0146179 0)
(10.0065 0.0228237 0)
(10.0114 0.029439 0)
(10.0164 0.0349656 0)
(10.0212 0.0398038 0)
(10.0255 0.0442598 0)
(10.0294 0.0485864 0)
(10.033 0.0529284 0)
(10.0361 0.0574238 0)
(10.0389 0.0622893 0)
(10.0414 0.0677354 0)
(10.0438 0.0738753 0)
(10.0461 0.0807521 0)
(10.0487 0.088332 0)
(10.0516 0.0965649 0)
(10.0551 0.105359 0)
(10.0593 0.114511 0)
(10.0002 0.00451305 0)
(10.0021 0.0130251 0)
(10.0056 0.0205245 0)
(10.01 0.0268617 0)
(10.0146 0.0322999 0)
(10.0192 0.0370863 0)
(10.0235 0.0415846 0)
(10.0275 0.0460658 0)
(10.0312 0.0506121 0)
(10.0346 0.055273 0)
(10.0378 0.0602325 0)
(10.041 0.065657 0)
(10.044 0.0716987 0)
(10.0471 0.0783508 0)
(10.0504 0.0856057 0)
(10.054 0.0933518 0)
(10.0581 0.10151 0)
(10.0629 0.109873 0)
(10.0002 0.00394576 0)
(10.0017 0.0113537 0)
(10.0048 0.0180902 0)
(10.0088 0.0239853 0)
(10.013 0.0292359 0)
(10.0174 0.0339347 0)
(10.0218 0.0383641 0)
(10.026 0.0428454 0)
(10.0299 0.0474774 0)
(10.0336 0.0522668 0)
(10.0373 0.057262 0)
(10.041 0.0626136 0)
(10.0448 0.0684138 0)
(10.0486 0.0747262 0)
(10.0527 0.0814865 0)
(10.057 0.0886376 0)
(10.0618 0.0960547 0)
(10.067 0.10359 0)
(10.0002 0.00334969 0)
(10.0015 0.00959039 0)
(10.0042 0.0154712 0)
(10.0079 0.0207445 0)
(10.0118 0.0256278 0)
(10.016 0.030157 0)
(10.0205 0.0344399 0)
(10.0249 0.0387621 0)
(10.0292 0.0432905 0)
(10.0333 0.048034 0)
(10.0374 0.0529631 0)
(10.0418 0.0581299 0)
(10.0462 0.063597 0)
(10.0509 0.0694244 0)
(10.0557 0.0755779 0)
(10.0607 0.0819953 0)
(10.066 0.0885811 0)
(10.0717 0.0952018 0)
(10.0001 0.00270022 0)
(10.0014 0.00768934 0)
(10.0038 0.0125423 0)
(10.0073 0.0170233 0)
(10.0112 0.0213225 0)
(10.0153 0.0254892 0)
(10.0198 0.0295202 0)
(10.0246 0.0335596 0)
(10.0293 0.0377875 0)
(10.0339 0.0422315 0)
(10.0385 0.0468748 0)
(10.0434 0.0516774 0)
(10.0485 0.0566862 0)
(10.0539 0.0618971 0)
(10.0593 0.0673292 0)
(10.065 0.0729041 0)
(10.0708 0.0785796 0)
(10.077 0.0842397 0)
(10.0001 0.00196344 0)
(10.0013 0.00554049 0)
(10.0037 0.00916243 0)
(10.0071 0.0126613 0)
(10.0111 0.0161127 0)
(10.0153 0.0196082 0)
(10.02 0.0231354 0)
(10.0251 0.0267169 0)
(10.0304 0.0304425 0)
(10.0355 0.0343595 0)
(10.0407 0.0384571 0)
(10.0461 0.0427033 0)
(10.0518 0.0470836 0)
(10.0577 0.0515806 0)
(10.0638 0.0561793 0)
(10.07 0.0608444 0)
(10.0763 0.0655277 0)
(10.0828 0.0701931 0)
(10.0002 0.00105378 0)
(10.0014 0.00291699 0)
(10.0039 0.00496742 0)
(10.0074 0.0071546 0)
(10.0117 0.00946994 0)
(10.0163 0.0119718 0)
(10.0213 0.0146811 0)
(10.0269 0.0175491 0)
(10.0327 0.0205669 0)
(10.0384 0.0237375 0)
(10.0441 0.0270688 0)
(10.0501 0.030531 0)
(10.0563 0.0341049 0)
(10.0628 0.0377457 0)
(10.0694 0.0414219 0)
(10.0759 0.0450951 0)
(10.0826 0.0487387 0)
(10.0893 0.0523575 0)
(10.0002 0.00011322 0)
(10.0016 0.000217398 0)
(10.0043 0.000623206 0)
(10.0083 0.00142996 0)
(10.013 0.00258092 0)
(10.0182 0.00406172 0)
(10.0238 0.00587515 0)
(10.0298 0.00796481 0)
(10.036 0.0102291 0)
(10.0422 0.012654 0)
(10.0484 0.0152264 0)
(10.0548 0.0179573 0)
(10.0615 0.0207854 0)
(10.0683 0.0236783 0)
(10.0751 0.0265677 0)
(10.0819 0.0294379 0)
(10.0887 0.0322525 0)
(10.0956 0.0350502 0)
(10.0002 -0.000727009 0)
(10.0018 -0.00223673 0)
(10.0049 -0.00330614 0)
(10.0094 -0.00368438 0)
(10.0147 -0.0034939 0)
(10.0204 -0.00283354 0)
(10.0265 -0.00172753 0)
(10.0329 -0.00026527 0)
(10.0395 0.00140799 0)
(10.046 0.00325694 0)
(10.0526 0.00528467 0)
(10.0594 0.00749184 0)
(10.0663 0.0098025 0)
(10.0733 0.0121657 0)
(10.0803 0.014513 0)
(10.0872 0.0168318 0)
(10.0941 0.0190932 0)
(10.1011 0.0213485 0)
(10.0002 -0.0015349 0)
(10.002 -0.00467955 0)
(10.0057 -0.00725004 0)
(10.0109 -0.00875267 0)
(10.0167 -0.00940001 0)
(10.023 -0.00940725 0)
(10.0296 -0.00883005 0)
(10.0365 -0.00784958 0)
(10.0433 -0.00663881 0)
(10.0502 -0.00525058 0)
(10.0571 -0.0036538 0)
(10.0642 -0.00188546 0)
(10.0714 -5.27023e-06 0)
(10.0785 0.00189229 0)
(10.0856 0.00377852 0)
(10.0925 0.00562356 0)
(10.0995 0.00743189 0)
(10.1065 0.0092519 0)
(10.0002 -0.00229589 0)
(10.0021 -0.00712937 0)
(10.0065 -0.0111755 0)
(10.0126 -0.0136602 0)
(10.0192 -0.015067 0)
(10.026 -0.0156898 0)
(10.0332 -0.0155798 0)
(10.0403 -0.0149693 0)
(10.0475 -0.0140939 0)
(10.0546 -0.0130107 0)
(10.0618 -0.0117191 0)
(10.0691 -0.0102643 0)
(10.0764 -0.00873227 0)
(10.0836 -0.0071986 0)
(10.0907 -0.0056889 0)
(10.0978 -0.00420662 0)
(10.1048 -0.00275803 0)
(10.1118 -0.00127754 0)
(10.0002 -0.00297484 0)
(10.0022 -0.00996063 0)
(10.0074 -0.0152474 0)
(10.0144 -0.0181623 0)
(10.0217 -0.0200827 0)
(10.0292 -0.0213232 0)
(10.0369 -0.0217376 0)
(10.0444 -0.0215296 0)
(10.0518 -0.0209589 0)
(10.0592 -0.0201161 0)
(10.0666 -0.0190362 0)
(10.0741 -0.0177997 0)
(10.0815 -0.0165123 0)
(10.0887 -0.0152309 0)
(10.0958 -0.0139789 0)
(10.1029 -0.0127491 0)
(10.1099 -0.0115536 0)
(10.1169 -0.0103425 0)
(9.99995 -0.00293718 0)
(10.002 -0.0137298 0)
(10.0085 -0.0206854 0)
(10.0165 -0.0233561 0)
(10.0242 -0.0250087 0)
(10.0322 -0.0262998 0)
(10.0405 -0.0269403 0)
(10.0485 -0.0270491 0)
(10.0563 -0.0268208 0)
(10.064 -0.0262947 0)
(10.0717 -0.0254974 0)
(10.0793 -0.0245309 0)
(10.0867 -0.0234991 0)
(10.0939 -0.0224571 0)
(10.1008 -0.0214175 0)
(10.1077 -0.020381 0)
(10.1145 -0.0193554 0)
(10.1213 -0.0183071 0)
(9.99862 -4.16937e-05 0)
(9.99944 -0.0148416 0)
(10.0087 -0.025747 0)
(10.0189 -0.0302527 0)
(10.0275 -0.0321116 0)
(10.0362 -0.0327264 0)
(10.0451 -0.0325654 0)
(10.0537 -0.0321544 0)
(10.0617 -0.0317015 0)
(10.0696 -0.0311312 0)
(10.0773 -0.0303994 0)
(10.0846 -0.0295648 0)
(10.0916 -0.028717 0)
(10.0982 -0.0278856 0)
(10.1046 -0.0270675 0)
(10.1108 -0.0262499 0)
(10.1168 -0.025434 0)
(10.1227 -0.0245712 0)
(9.99497 0.001642 0)
(9.99334 -0.00750372 0)
(10.0072 -0.0191269 0)
(10.0223 -0.0303572 0)
(10.0342 -0.0381502 0)
(10.0447 -0.0414825 0)
(10.0542 -0.0418837 0)
(10.0624 -0.0411571 0)
(10.0695 -0.0401037 0)
(10.0761 -0.0388589 0)
(10.0821 -0.0374768 0)
(10.0875 -0.0360557 0)
(10.0923 -0.0347096 0)
(10.0965 -0.0334969 0)
(10.1004 -0.032404 0)
(10.1041 -0.0313954 0)
(10.1075 -0.0304571 0)
(10.1108 -0.0294963 0)
(9.99477 -0.0304579 0)
(9.99983 -0.0222815 0)
(10.0158 -0.00202081 0)
(10.0324 -0.000762557 0)
(10.0465 -0.00987455 0)
(10.0582 -0.0186986 0)
(10.0663 -0.024677 0)
(10.0707 -0.0286099 0)
(10.0725 -0.0311415 0)
(10.0728 -0.0325376 0)
(10.0718 -0.0330365 0)
(10.0697 -0.0329156 0)
(10.0667 -0.0324424 0)
(10.0631 -0.031851 0)
(10.0591 -0.0312322 0)
(10.055 -0.0306236 0)
(10.0509 -0.0300906 0)
(10.0468 -0.0295213 0)
(10.0272 -0.182911 0)
(10.0766 -0.288094 0)
(10.0877 -0.247337 0)
(10.0792 -0.186117 0)
(10.0687 -0.139739 0)
(10.0576 -0.10719 0)
(10.0422 -0.0843198 0)
(10.022 -0.0684652 0)
(9.99899 -0.0575111 0)
(9.97457 -0.0496248 0)
(9.94975 -0.0436622 0)
(9.92478 -0.0389151 0)
(9.90004 -0.0350433 0)
(9.87584 -0.0318508 0)
(9.85258 -0.0292039 0)
(9.83037 -0.027056 0)
(9.80942 -0.0253384 0)
(9.7899 -0.0244055 0)
(9.93593 0.689633 0)
(9.86904 0.609716 0)
(9.76666 0.381626 0)
(9.63038 0.218244 0)
(9.49183 0.11975 0)
(9.36626 0.0637052 0)
(9.25515 0.0323885 0)
(9.15708 0.0147373 0)
(9.07108 0.00457165 0)
(8.99645 -0.00140334 0)
(8.93134 -0.00489196 0)
(8.87432 -0.00690554 0)
(8.82378 -0.00798992 0)
(8.77897 -0.0085445 0)
(8.73893 -0.00881477 0)
(8.70315 -0.00893093 0)
(8.67061 -0.00899418 0)
(8.64098 -0.00945618 0)
(0.101342 -0.102615 -1.90696e-19)
(0.175055 -0.199719 1.0838e-19)
(0.28667 -0.222581 0)
(0.435378 -0.198017 0)
(0.543633 -0.163659 0)
(0.619885 -0.124358 -1.00679e-19)
(0.665987 -0.0840676 0)
(0.684063 -0.0441258 0)
(0.672267 -0.0083882 0)
(0.638938 0.0178795 0)
(0.592225 0.0321803 1.14344e-19)
(0.541307 0.034606 0)
(0.490362 0.0298357 0)
(0.439592 0.0199528 0)
(0.38572 0.00625232 0)
(0.321273 -0.0024468 1.59136e-19)
(0.242203 0.000666851 0)
(0.141119 0.0210144 0)
(0.0314649 0.0565346 0)
(-0.105217 0.100619 0)
(-0.273128 0.142255 0)
(-0.462321 0.176685 0)
(-0.66596 0.20334 0)
(-0.880064 0.222277 6.04063e-20)
(-1.10021 0.233795 -5.2296e-20)
(-1.32272 0.239096 4.6486e-20)
(-1.54376 0.239064 4.22717e-20)
(-1.76089 0.235072 0)
(-1.97182 0.228266 0)
(-2.17525 0.219624 -3.51535e-20)
(-2.37009 0.209917 -3.38719e-20)
(-2.55599 0.199674 0)
(-2.73264 0.189343 0)
(-2.90021 0.179128 -3.16391e-20)
(-3.05883 0.169242 0)
(-3.20896 0.159672 0)
(-3.35091 0.150523 3.07239e-20)
(-3.48519 0.14168 0)
(-3.6121 0.133211 3.04667e-20)
(-3.73207 0.124951 6.08015e-20)
(-3.8453 0.116976 0)
(-3.95211 0.109109 0)
(-4.05255 0.101435 0)
(-4.1468 0.0937795 0)
(-4.23481 0.0862822 0)
(-4.31665 0.0788074 6.1215e-20)
(-4.39217 0.0715523 6.14728e-20)
(-4.46134 0.0643333 6.17836e-20)
(-4.52392 0.0572544 0)
(-4.57979 0.0500914 -6.25985e-20)
(-4.62857 0.043079 0)
(-4.67003 0.0359732 6.36489e-20)
(-4.70375 0.0288934 6.42444e-20)
(-4.72941 0.022071 0)
(-4.74693 0.0160183 0)
(-4.75638 0.00969594 0)
(-4.75854 0.00331278 6.64786e-20)
(-4.75393 -0.00232133 0)
(-4.74276 -0.00744174 0)
(-4.72508 -0.0131999 0)
(-4.70078 -0.018836 0)
(-4.66982 -0.0241486 0)
(-4.63221 -0.029693 0)
(-4.58817 -0.0346553 0)
(-4.53813 -0.0387429 0)
(-4.48182 -0.0451631 -6.50368e-20)
(-4.41901 -0.0513889 0)
(-4.35005 -0.0570882 0)
(-4.27536 -0.0610348 6.10998e-20)
(-4.19617 -0.0623188 5.93636e-20)
(-4.11253 -0.0660547 0)
(-4.02369 -0.0734685 -5.52486e-20)
(-3.92947 -0.0769047 5.26278e-20)
(-3.83267 -0.0766132 0)
(-3.73214 -0.0827992 -4.69728e-20)
(-3.62733 -0.0854467 0)
(-3.52076 -0.0842888 0)
(-3.41233 -0.084943 3.65366e-20)
(-3.30246 -0.0872722 0)
(-3.19039 -0.0878805 -2.87243e-20)
(-3.07852 -0.0873962 0)
(-2.96525 -0.0891708 2.028e-20)
(-2.85257 -0.0865893 1.57475e-20)
(-2.74067 -0.087014 1.11353e-20)
(-2.62783 -0.0872314 1.2578e-20)
(-2.51672 -0.0858629 -2.66894e-21)
(-2.40557 -0.0853713 0)
(-2.29712 -0.083951 0)
(-2.18939 -0.0832765 0)
(-2.0849 -0.0815528 4.00271e-20)
(-1.98051 -0.0816726 5.1577e-20)
(-1.87728 -0.0798572 -6.35517e-20)
(-1.77521 -0.0783871 0)
(-1.67481 -0.076811 8.89776e-20)
(-1.57621 -0.0753041 1.02507e-19)
(-1.47946 -0.0738486 1.16659e-19)
(-1.38451 -0.072462 0)
(-1.29132 -0.0711269 0)
(-1.19986 -0.0698631 0)
(-1.11005 -0.068669 1.81395e-19)
(-1.02183 -0.0675637 0)
(-0.935069 -0.0664785 0)
(-0.849722 -0.0654936 -2.4219e-19)
(-0.765734 -0.0646077 0)
(-0.683184 -0.0638729 0)
(-0.602143 -0.06323 -3.19902e-19)
(-0.522635 -0.062789 0)
(-0.444628 -0.0624894 0)
(-0.368001 -0.0623619 4.23811e-19)
(-0.29267 -0.0622752 4.67106e-19)
(-0.218506 -0.0624017 0)
(-0.145381 -0.062638 -5.73323e-19)
(-0.0735485 -0.0628077 0)
(-0.00170159 -0.0617927 6.44719e-19)
(0.0706123 -0.0595844 0)
(0.141934 -0.0570717 5.71148e-19)
(0.212248 -0.0546653 5.42321e-19)
(0.28133 -0.0523969 0)
(0.349107 -0.0503591 0)
(0.41548 -0.0483239 0)
(0.480686 -0.0462702 0)
(0.545002 -0.0443183 0)
(0.60848 -0.0427222 0)
(0.670959 -0.0413327 0)
(0.731994 -0.0398047 4.07735e-19)
(0.791683 -0.0380118 -3.97199e-19)
(0.850172 -0.0364656 0)
(0.907327 -0.0351763 0)
(0.963277 -0.0341284 0)
(1.0183 -0.0335959 0)
(1.07201 -0.0331619 -7.13892e-19)
(1.12439 -0.0320804 0)
(1.17585 -0.0307858 6.88846e-19)
(1.22636 -0.0297808 -6.77692e-19)
(1.27565 -0.0292475 0)
(1.32336 -0.0285355 0)
(1.36958 -0.0271781 0)
(1.41465 -0.025626 6.39305e-19)
(1.45848 -0.0246472 6.30847e-19)
(1.50057 -0.0239191 0)
(1.54107 -0.0231157 6.15215e-19)
(1.58031 -0.0223718 6.07884e-19)
(1.6182 -0.0217698 -6.00604e-19)
(1.65438 -0.0208639 0)
(1.68816 -0.0188949 0)
(1.71887 -0.0166658 -5.83596e-19)
(1.74614 -0.0154417 0)
(1.77028 -0.0158822 0)
(1.79013 -0.0158042 0)
(1.80662 -0.0141704 0)
(1.82038 -0.0120074 5.97957e-19)
(1.83317 -0.00980653 6.05435e-19)
(1.84506 -0.00940936 0)
(1.85815 -0.0131371 6.19591e-19)
(1.87776 -0.0276403 0)
(1.90319 -0.0286971 0)
(1.93825 -0.0126763 6.20778e-19)
(1.97002 0.039472 0)
(2.01022 0.0577677 5.28899e-19)
(2.04592 0.0279151 0)
(2.08297 0.0110139 0)
(2.1167 0.00112956 5.04624e-19)
(2.14657 -0.00466153 0)
(2.17281 -0.00805197 5.04356e-19)
(2.1958 -0.00988792 0)
(2.21614 -0.0106855 0)
(2.23428 -0.0108652 0)
(2.2507 -0.0107025 -5.0262e-19)
(2.26559 -0.0102313 0)
(2.27911 -0.0095 5.01122e-19)
(2.29144 -0.00870503 0)
(2.30283 -0.00788182 0)
(2.31309 -0.00686225 0)
(2.32215 -0.00588892 0)
(2.3296 -0.00415991 0)
(2.33333 -0.00162671 0)
(2.33147 0.00147805 0)
(2.31615 0.00642965 -9.97526e-19)
(2.29069 0.0164922 0)
(2.18147 0.0310462 0)
(0.0861139 -0.387615 4.53883e-19)
(0.193443 -0.444936 -2.6948e-19)
(0.280659 -0.402217 0)
(0.342475 -0.327817 1.24632e-19)
(0.382715 -0.243678 0)
(0.402735 -0.157997 5.77928e-20)
(0.405227 -0.0748545 -1.21151e-19)
(0.393487 0.00184707 -1.2766e-19)
(0.370988 0.0672758 0)
(0.333855 0.116244 -1.48383e-19)
(0.279663 0.144411 -8.11622e-20)
(0.205029 0.154297 0)
(0.105205 0.159438 0)
(-0.0137819 0.180152 0)
(-0.158013 0.223943 0)
(-0.33344 0.282979 -6.33423e-20)
(-0.534749 0.349381 0)
(-0.754277 0.416644 9.07748e-20)
(-0.985787 0.478556 0)
(-1.22454 0.529542 0)
(-1.46275 0.566519 -6.09196e-20)
(-1.69519 0.589072 0)
(-1.9186 0.598484 5.06491e-20)
(-2.13063 0.59674 -2.36319e-20)
(-2.32967 0.585734 2.22456e-20)
(-2.51473 0.567824 -2.11943e-20)
(-2.68594 0.54511 -2.04235e-20)
(-2.84404 0.519188 0)
(-2.98979 0.491485 0)
(-3.12426 0.463139 1.92936e-20)
(-3.24848 0.435035 -1.97215e-20)
(-3.36353 0.407749 0)
(-3.47031 0.381729 0)
(-3.5697 0.357141 1.92094e-20)
(-3.6624 0.334134 0)
(-3.74906 0.312606 0)
(-3.83017 0.292555 -1.95241e-20)
(-3.90615 0.273746 0)
(-3.97733 0.256126 1.9727e-20)
(-4.04394 0.239408 -3.98303e-20)
(-4.10615 0.223548 0)
(-4.16405 0.208256 0)
(-4.21774 0.193512 -8.09026e-20)
(-4.26722 0.179031 -8.14236e-20)
(-4.31253 0.164843 -8.19624e-20)
(-4.35364 0.150691 4.11249e-20)
(-4.3906 0.136661 -4.16827e-20)
(-4.42341 0.12252 -1.25728e-19)
(-4.45211 0.10839 8.43959e-20)
(-4.47673 0.0940506 4.26146e-20)
(-4.49744 0.0797145 0)
(-4.51433 0.0652294 -4.32856e-20)
(-4.52755 0.0509036 4.34533e-20)
(-4.53715 0.0366324 0)
(-4.54297 0.0227673 0)
(-4.54491 0.00923266 0)
(-4.542 -0.00375489 -4.46937e-20)
(-4.5333 -0.0165717 0)
(-4.5184 -0.0290685 8.97684e-20)
(-4.49714 -0.0415744 0)
(-4.46952 -0.0538767 8.96234e-20)
(-4.43544 -0.066167 0)
(-4.39495 -0.0782474 -8.82121e-20)
(-4.34787 -0.0900307 0)
(-4.29414 -0.101345 8.60572e-20)
(-4.23409 -0.112388 -4.27917e-20)
(-4.16835 -0.122881 0)
(-4.09692 -0.132885 -8.09543e-20)
(-4.02006 -0.142074 -3.87176e-20)
(-3.93746 -0.150638 -3.74837e-20)
(-3.84946 -0.15842 0)
(-3.75738 -0.165434 -3.62123e-20)
(-3.6618 -0.171461 -3.27644e-20)
(-3.56171 -0.176353 0)
(-3.45822 -0.180626 2.88758e-20)
(-3.35303 -0.184245 -5.53979e-20)
(-3.24499 -0.186829 0)
(-3.13465 -0.188595 -2.2267e-20)
(-3.0231 -0.189743 0)
(-2.91077 -0.189981 5.47826e-20)
(-2.79768 -0.189699 0)
(-2.68439 -0.188467 -4.02223e-20)
(-2.57124 -0.186903 -1.01977e-20)
(-2.45805 -0.184857 9.71842e-21)
(-2.34577 -0.182572 1.41972e-20)
(-2.23434 -0.179831 -8.95141e-21)
(-2.12388 -0.176908 0)
(-2.01494 -0.173795 0)
(-1.90786 -0.170696 0)
(-1.80282 -0.167649 -4.46393e-20)
(-1.69911 -0.164152 -2.14284e-20)
(-1.59673 -0.160405 2.67514e-20)
(-1.49551 -0.156445 0)
(-1.39582 -0.152439 3.39029e-20)
(-1.29777 -0.148468 -4.28695e-20)
(-1.20142 -0.144605 -4.82995e-20)
(-1.10674 -0.140846 0)
(-1.0137 -0.137213 0)
(-0.922255 -0.133694 0)
(-0.832344 -0.130307 -7.05162e-20)
(-0.74389 -0.127033 0)
(-0.656799 -0.12387 1.60925e-19)
(-0.57099 -0.120832 2.60731e-19)
(-0.486448 -0.117904 -1.84863e-19)
(-0.403187 -0.115141 0)
(-0.321226 -0.112523 -1.03408e-19)
(-0.240557 -0.110116 0)
(-0.16112 -0.107921 -2.36179e-19)
(-0.082846 -0.105977 1.23252e-19)
(-0.00536604 -0.104269 1.27327e-19)
(0.0713422 -0.102786 0)
(0.147014 -0.101424 3.95609e-19)
(0.221728 -0.100175 -2.65321e-19)
(0.295155 -0.098516 -1.35154e-19)
(0.366919 -0.0962699 0)
(0.437254 -0.0937075 -1.3773e-19)
(0.506496 -0.0910776 -4.14814e-19)
(0.5746 -0.0884408 0)
(0.641498 -0.0858575 -2.80768e-19)
(0.707308 -0.0832978 -2.83124e-19)
(0.77217 -0.0808094 -2.85408e-19)
(0.836146 -0.0783994 0)
(0.89915 -0.0761129 0)
(0.960985 -0.0738776 0)
(1.02166 -0.0716455 1.45968e-19)
(1.08118 -0.0693891 1.4843e-19)
(1.13942 -0.0673072 0)
(1.19648 -0.0653303 2.98495e-19)
(1.25236 -0.0634228 3.00023e-19)
(1.30701 -0.0615582 0)
(1.36058 -0.0597153 3.03813e-19)
(1.41308 -0.0577456 6.06821e-19)
(1.46445 -0.0558684 -3.05522e-19)
(1.51456 -0.0540743 -3.03923e-19)
(1.56338 -0.0523111 0)
(1.61099 -0.05042 0)
(1.6574 -0.0484562 0)
(1.70246 -0.0465963 -3.08275e-19)
(1.74603 -0.0449428 3.06287e-19)
(1.7881 -0.0432455 6.14448e-19)
(1.82869 -0.0413868 -3.07778e-19)
(1.86783 -0.0394495 3.05294e-19)
(1.90544 -0.0373895 3.05984e-19)
(1.94128 -0.0349786 0)
(1.9751 -0.0319731 0)
(2.00682 -0.0286904 -3.00596e-19)
(2.03645 -0.0252863 0)
(2.06383 -0.0218973 0)
(2.08926 -0.0187639 6.14271e-19)
(2.1132 -0.0160151 0)
(2.13573 -0.0141809 3.20386e-19)
(2.15744 -0.0135543 -3.31663e-19)
(2.1795 -0.0138329 0)
(2.20296 -0.0150668 3.55333e-19)
(2.2268 -0.0172229 0)
(2.24952 -0.0237946 0)
(2.26924 -0.0345105 -3.94692e-19)
(2.29077 -0.0448842 7.94519e-19)
(2.30628 -0.0420132 -3.62176e-19)
(2.32352 -0.0346229 0)
(2.34059 -0.0286054 0)
(2.35929 -0.0239836 3.49076e-19)
(2.37854 -0.0204156 0)
(2.39745 -0.0176585 3.51757e-19)
(2.4156 -0.0154523 0)
(2.43287 -0.0136391 0)
(2.44921 -0.012121 0)
(2.46472 -0.0108654 3.55508e-19)
(2.47932 -0.00977261 0)
(2.49304 -0.00881652 -3.55676e-19)
(2.50601 -0.00805013 0)
(2.51821 -0.00730286 0)
(2.52962 -0.00645073 7.0745e-19)
(2.53976 -0.00544978 -7.04379e-19)
(2.54809 -0.00391024 0)
(2.55466 -0.00140597 0)
(2.55937 0.00297961 0)
(2.55868 0.0109274 2.09227e-18)
(2.55817 0.0283188 0)
(2.53453 0.0577975 -1.3996e-18)
(0.046001 -0.627433 1.67588e-21)
(0.0992823 -0.603627 2.90961e-19)
(0.122894 -0.492254 0)
(0.128741 -0.372295 -2.07036e-19)
(0.120838 -0.253725 0)
(0.0988945 -0.139827 0)
(0.0630436 -0.0329883 -2.273e-22)
(0.0135531 0.0658835 1.04968e-19)
(-0.0502554 0.156757 1.02101e-19)
(-0.130972 0.239348 9.80415e-20)
(-0.232725 0.314065 0)
(-0.360559 0.384894 0)
(-0.517428 0.458298 -7.72762e-20)
(-0.700247 0.539378 -1.38577e-19)
(-0.901284 0.62651 1.23951e-19)
(-1.112 0.711414 0)
(-1.32478 0.786071 1.01294e-19)
(-1.53252 0.84617 -4.71271e-20)
(-1.72992 0.890129 0)
(-1.91357 0.917259 8.01858e-20)
(-2.08143 0.927751 3.75374e-20)
(-2.23344 0.923226 -7.12397e-20)
(-2.37074 0.905884 -3.32923e-20)
(-2.49495 0.878397 0)
(-2.60788 0.843408 6.28877e-20)
(-2.71161 0.803386 6.12072e-20)
(-2.80791 0.760542 0)
(-2.89818 0.716669 5.90519e-20)
(-2.9836 0.673105 0)
(-3.06512 0.630801 5.79149e-20)
(-3.14343 0.590387 2.81167e-20)
(-3.21905 0.552218 0)
(-3.29227 0.51646 0)
(-3.36332 0.483097 0)
(-3.43228 0.452037 0)
(-3.49921 0.423081 0)
(-3.56409 0.396033 0)
(-3.6269 0.370633 5.80364e-20)
(-3.68757 0.34667 -8.73782e-20)
(-3.74601 0.323888 0)
(-3.80213 0.302104 0)
(-3.85582 0.281089 0)
(-3.90695 0.260699 1.56953e-22)
(-3.9554 0.240744 6.00876e-20)
(-4.00103 0.221128 1.20762e-19)
(-4.04368 0.201704 -1.21575e-19)
(-4.08321 0.182418 -6.10986e-20)
(-4.11947 0.163143 6.17491e-20)
(-4.1523 0.143855 -1.9667e-22)
(-4.18151 0.124455 6.24647e-20)
(-4.20691 0.104974 0)
(-4.22826 0.0853534 6.34217e-20)
(-4.2453 0.0656464 -1.06711e-22)
(-4.25766 0.0457823 0)
(-4.26499 0.0257773 0)
(-4.267 0.00550124 -6.50224e-20)
(-4.26339 -0.0149708 0)
(-4.25392 -0.0355647 0)
(-4.23838 -0.0561018 6.55738e-20)
(-4.21662 -0.0765877 1.30529e-19)
(-4.18856 -0.0968644 -6.4645e-20)
(-4.15409 -0.116881 0)
(-4.1132 -0.136482 6.34806e-20)
(-4.06575 -0.15557 0)
(-4.01194 -0.173982 6.32032e-20)
(-3.95186 -0.191804 6.05028e-20)
(-3.88583 -0.20867 -1.2027e-19)
(-3.81397 -0.22447 -5.97708e-20)
(-3.73663 -0.238983 0)
(-3.65394 -0.252359 1.10353e-19)
(-3.56646 -0.264544 0)
(-3.47461 -0.275462 1.51004e-19)
(-3.37895 -0.284767 9.65554e-20)
(-3.27951 -0.292423 9.12488e-20)
(-3.17714 -0.298684 -8.54231e-20)
(-3.07231 -0.303572 1.17776e-19)
(-2.96513 -0.306972 0)
(-2.85617 -0.309087 0)
(-2.74592 -0.310129 -6.02917e-20)
(-2.63491 -0.309907 -7.89849e-20)
(-2.52333 -0.308718 0)
(-2.41167 -0.306494 1.86036e-20)
(-2.30019 -0.303384 0)
(-2.1891 -0.299611 -3.74321e-20)
(-2.07889 -0.295249 2.51048e-21)
(-1.9696 -0.290362 -2.46741e-21)
(-1.86154 -0.285072 4.57644e-21)
(-1.75488 -0.279535 0)
(-1.65011 -0.273811 9.37298e-21)
(-1.54718 -0.268055 2.26348e-21)
(-1.44582 -0.262035 0)
(-1.34572 -0.255736 0)
(-1.24694 -0.249253 0)
(-1.14964 -0.24272 -4.53529e-20)
(-1.0539 -0.236243 0)
(-0.959745 -0.2299 0)
(-0.867171 -0.223718 0)
(-0.776138 -0.217723 0)
(-0.6866 -0.211915 0)
(-0.598505 -0.206309 -8.24153e-20)
(-0.511779 -0.200877 0)
(-0.426342 -0.195627 -9.71962e-20)
(-0.342124 -0.190533 -1.03642e-19)
(-0.259106 -0.18563 1.10113e-19)
(-0.177279 -0.180933 0)
(-0.0966461 -0.176503 1.23185e-19)
(-0.0170725 -0.172362 0)
(0.061441 -0.168535 1.3181e-19)
(0.13879 -0.16495 -1.35061e-19)
(0.214988 -0.161526 -4.11187e-19)
(0.290024 -0.158181 0)
(0.363916 -0.154921 -4.28875e-19)
(0.43668 -0.151707 -1.43715e-19)
(0.508229 -0.148543 0)
(0.578488 -0.145334 -3.01628e-19)
(0.647561 -0.142002 -3.07136e-19)
(0.715524 -0.138592 4.70227e-19)
(0.782366 -0.135183 0)
(0.848082 -0.131785 1.62864e-19)
(0.912723 -0.128394 1.65403e-19)
(0.976381 -0.125035 5.01311e-19)
(1.03908 -0.121713 0)
(1.10076 -0.118465 0)
(1.1613 -0.115274 0)
(1.22064 -0.112072 1.75279e-19)
(1.27875 -0.10891 0)
(1.33567 -0.105854 0)
(1.39136 -0.102859 -1.83845e-19)
(1.44585 -0.0999612 -1.85858e-19)
(1.49914 -0.0971021 0)
(1.55121 -0.094225 0)
(1.60206 -0.0913439 -3.81784e-19)
(1.65172 -0.0885359 0)
(1.70022 -0.0857973 3.87309e-19)
(1.74753 -0.0830345 3.88271e-19)
(1.79358 -0.0801568 0)
(1.83836 -0.0772513 0)
(1.88186 -0.0744352 -3.93412e-19)
(1.92402 -0.0716666 -1.2772e-21)
(1.96475 -0.0688178 -1.21896e-21)
(2.00404 -0.0658517 0)
(2.04198 -0.0627534 -7.90624e-19)
(2.07851 -0.0594209 0)
(2.11344 -0.0557358 0)
(2.14684 -0.0516061 0)
(2.17872 -0.0471072 3.89517e-19)
(2.20916 -0.0427055 0)
(2.23834 -0.0384389 -7.76292e-19)
(2.26643 -0.0343656 -3.92251e-19)
(2.29345 -0.0311016 0)
(2.31963 -0.0290562 -4.09184e-19)
(2.34513 -0.0284674 0)
(2.37073 -0.0293122 0)
(2.39633 -0.0312276 -1.39484e-18)
(2.42107 -0.0343588 9.80702e-19)
(2.4439 -0.0361953 0)
(2.46372 -0.036869 1.08156e-18)
(2.4831 -0.0363225 -5.60618e-19)
(2.50031 -0.0357386 0)
(2.51588 -0.0363692 0)
(2.52965 -0.035151 0)
(2.54351 -0.0329239 -1.69149e-18)
(2.55782 -0.0303863 0)
(2.57235 -0.027829 -5.74052e-19)
(2.58683 -0.0253929 0)
(2.60112 -0.0231869 0)
(2.61508 -0.0212405 0)
(2.62869 -0.0195321 0)
(2.64187 -0.0180236 0)
(2.65467 -0.0166798 0)
(2.66704 -0.0154747 -1.17024e-18)
(2.67878 -0.0141622 0)
(2.68994 -0.0126723 -5.82707e-19)
(2.69983 -0.0109071 1.74188e-18)
(2.70818 -0.00836529 0)
(2.7149 -0.00472394 0)
(2.71938 0.00107632 -1.1576e-18)
(2.71936 0.0110965 -1.14897e-18)
(2.71871 0.0303971 1.1389e-18)
(2.70556 0.0661264 1.14719e-18)
(-0.00881802 -0.689861 -5.90293e-19)
(-0.00892213 -0.593523 -3.69664e-19)
(-0.0397231 -0.460241 -1.93134e-19)
(-0.0843186 -0.317201 -8.49573e-20)
(-0.138423 -0.174029 0)
(-0.203506 -0.034322 1.54964e-19)
(-0.281511 0.100781 -7.3465e-20)
(-0.37401 0.231195 0)
(-0.482305 0.357335 -6.80185e-20)
(-0.607428 0.479623 0)
(-0.749893 0.598104 1.16527e-19)
(-0.908491 0.712272 0)
(-1.07944 0.82037 5.00243e-20)
(-1.25637 0.918925 9.21075e-20)
(-1.43167 1.00402 -8.51227e-20)
(-1.59859 1.0722 0)
(-1.75259 1.12161 -7.35273e-20)
(-1.89144 1.15205 0)
(-2.01471 1.16457 0)
(-2.12325 1.16086 -6.0812e-20)
(-2.21899 1.14307 0)
(-2.3043 1.11392 -1.17584e-21)
(-2.38149 1.07614 0)
(-2.45281 1.03234 0)
(-2.52014 0.984841 1.51582e-21)
(-2.58507 0.935611 -4.88894e-20)
(-2.64866 0.8861 -4.95789e-20)
(-2.71165 0.837399 -4.75738e-20)
(-2.77449 0.790282 0)
(-2.83741 0.745248 -9.50787e-20)
(-2.90045 0.702566 0)
(-2.96356 0.66233 -4.77242e-20)
(-3.0266 0.624508 0)
(-3.08939 0.588976 0)
(-3.15171 0.555552 4.76994e-20)
(-3.21335 0.524015 0)
(-3.2741 0.494135 -4.79359e-20)
(-3.33375 0.465666 3.01011e-22)
(-3.39209 0.438381 9.63966e-20)
(-3.44894 0.412054 -9.70991e-20)
(-3.50409 0.386482 0)
(-3.55735 0.361467 0)
(-3.60852 0.336841 -4.94448e-20)
(-3.6574 0.312445 0)
(-3.70378 0.28815 -5.0052e-20)
(-3.74744 0.263829 5.04336e-20)
(-3.78816 0.239382 5.08279e-20)
(-3.82571 0.214711 0)
(-3.85983 0.18975 -5.16603e-20)
(-3.89028 0.164427 -5.20933e-20)
(-3.91679 0.138714 1.05123e-19)
(-3.93906 0.112577 -5.29634e-20)
(-3.95678 0.0860183 -5.33845e-20)
(-3.96964 0.0590159 0)
(-3.97733 0.0315844 0)
(-3.97963 0.0037376 5.42815e-20)
(-3.97629 -0.0244504 0)
(-3.96713 -0.0528685 0)
(-3.95195 -0.0813591 -1.08842e-19)
(-3.93058 -0.109805 -1.08593e-19)
(-3.9029 -0.138056 0)
(-3.8688 -0.165968 0)
(-3.82826 -0.193369 0)
(-3.78126 -0.220074 0)
(-3.72788 -0.245867 -1.03575e-19)
(-3.66826 -0.270609 1.03509e-19)
(-3.60259 -0.294082 9.95095e-20)
(-3.53116 -0.316054 1.96033e-19)
(-3.45416 -0.336254 0)
(-3.37201 -0.354655 2.09994e-21)
(-3.2851 -0.371378 0)
(-3.19385 -0.386165 -8.33717e-20)
(-3.09872 -0.398831 2.11971e-21)