/*--------------------------------*- C++ -*----------------------------------*\
  =========                 |
  \\      /  F ield         | OpenFOAM: The Open Source CFD Toolbox
   \\    /   O peration     | Website:  https://openfoam.org
    \\  /    A nd           | Version:  9
     \\/     M anipulation  |
\*---------------------------------------------------------------------------*/
FoamFile
{
    format      ascii;
    class       volScalarField;
    location    "2.02";
    object      p;
}
// * * * * * * * * * * * * * * * * * * * * * * * * * * * * * * * * * * * * * //

dimensions      [1 -1 -2 0 0 0 0];

internalField   nonuniform List<scalar> 
2268
(
704.188
703.775
703.675
703.651
703.644
703.665
703.735
703.874
704.087
704.369
704.711
705.103
705.55
706.071
706.7
707.467
708.391
709.524
710.692
712.964
716.285
719.006
720.814
645.471
644.936
644.718
644.63
644.582
644.579
644.626
644.737
644.917
645.169
645.49
645.884
646.37
646.985
647.776
648.784
650.049
651.925
654.417
656.522
658.535
660.03
661.691
586.717
586.263
585.91
585.716
585.588
585.523
585.515
585.572
585.699
585.903
586.191
586.577
587.096
587.799
588.743
589.979
591.556
593.911
597.308
599.354
600.265
600.741
602.697
527.957
527.633
527.187
526.891
526.669
526.522
526.443
526.436
526.505
526.66
526.913
527.285
527.817
528.571
529.607
530.983
532.741
535.191
538.83
540.965
541.34
541.374
544.137
469.202
468.998
468.5
468.108
467.79
467.556
467.403
467.333
467.35
467.463
467.684
468.036
468.563
469.328
470.394
471.816
473.621
475.96
479.2
481.354
481.572
482.04
486.032
410.453
410.335
409.819
409.335
408.921
408.599
408.374
408.247
408.218
408.296
408.491
408.821
409.326
410.07
411.119
412.523
414.281
416.412
419.033
420.863
421.064
422.477
428.158
351.716
351.653
351.132
350.56
350.047
349.634
349.339
349.16
349.091
349.138
349.309
349.61
350.074
350.767
351.762
353.104
354.762
356.644
358.681
359.963
359.919
362.159
370.189
293.009
292.97
292.444
291.782
291.159
290.647
290.28
290.051
289.943
289.96
290.104
290.36
290.741
291.325
292.21
293.448
294.973
296.579
298.009
298.643
298.04
299.896
313.49
749.396
745.28
749.368
752.768
754.301
753.45
750.295
746.663
747.842
755.764
763.552
770.722
776.806
781.414
786.231
791.148
794.654
795.203
795.952
691.501
685.644
688.581
691.834
693.748
693.315
691.654
690.654
692.011
699.318
706.556
712.701
718.826
724.767
729.725
734.092
737.345
737.038
737.571
632.434
626.67
629.406
632.09
634.06
634.089
633.746
635.536
638.848
644.281
649.204
654.867
660.824
667.649
672.845
676.952
679.515
678.474
678.896
572.764
568.158
571.596
573.82
575.663
576.001
576.255
579.739
585.782
590.728
592.142
597.152
602.778
609.956
615.679
619.737
621.403
619.705
620.466
513.327
510.22
514.577
516.386
518.002
518.495
519.07
523.308
531.971
536.893
537.812
539.573
544.543
551.568
558.047
562.413
564.121
562.835
565.49
453.623
453.277
457.888
459.344
460.672
461.184
461.81
466.525
476.992
482.652
483.025
481.823
485.985
492.56
499.607
505.248
511.166
509.858
513.939
393.108
396.677
401.335
402.538
403.563
403.94
404.195
408.549
419.625
426.001
425.913
423.509
426.991
433.031
440.611
448.231
456.725
457.764
462.519
331.503
340.323
344.961
346.07
346.846
346.762
346.15
350.168
359.171
367.14
366.144
364.659
367.581
373.412
381.714
391.183
400.408
403.077
409.248
201.297
201.25
200.695
199.87
199.04
198.357
197.885
197.596
197.445
197.434
197.553
197.729
197.932
198.264
198.894
199.918
201.185
202.31
202.842
202.377
200.744
199.133
200.337
81.6608
81.7536
81.3734
80.6018
79.7475
79.0121
78.5479
78.3161
78.2254
78.2679
78.4513
78.6725
78.8221
78.9418
79.2022
79.8321
80.7612
81.5471
81.5225
80.5176
79.0599
77.8095
79.9176
12.1988
12.1887
12.105
12.009
11.8943
11.637
11.3659
11.2256
11.2464
11.3215
11.4616
11.8006
12.3666
12.9295
13.1604
13.1225
13.035
13.3872
14.4057
15.4748
15.5987
14.0209
12.5091
-0.283074
-0.302273
-0.234763
0.0579745
0.382766
0.461545
0.340642
0.225481
0.275922
0.343878
0.41195
0.631426
1.17853
1.798
1.94684
1.60864
1.04502
0.822053
1.92586
3.77909
4.62019
3.88898
2.83028
-0.382343
-0.405178
-0.341952
-0.253493
-0.122502
0.0385833
0.100486
0.110738
0.105037
0.127031
0.267085
0.518946
0.747496
1.01017
1.27436
1.32427
1.35409
1.5291
1.90197
2.49734
3.04331
2.78197
1.88231
-0.641699
-0.706095
-0.704259
-0.706546
-0.689103
-0.558391
-0.400887
-0.322057
-0.3412
-0.372327
-0.39408
-0.306987
-0.219555
-0.0841935
0.0880377
0.0914533
0.0967197
0.412765
0.661677
0.749409
1.1477
1.35126
1.36481
-0.953882
-1.04469
-1.11223
-1.14634
-1.15275
-1.10586
-1.02969
-0.969395
-0.943097
-0.968803
-1.06085
-1.12924
-1.10019
-0.965812
-0.822059
-0.917714
-0.982643
-0.911141
-0.839854
-0.585193
-0.0357633
-0.0302037
-0.110875
-1.26068
-1.31691
-1.34856
-1.36398
-1.37149
-1.3902
-1.40055
-1.38642
-1.37481
-1.37728
-1.36528
-1.35602
-1.36423
-1.37935
-1.38167
-1.36229
-1.33773
-1.32643
-1.35701
-1.36546
-1.28054
-1.31398
-1.37212
-1.46746
-1.483
-1.49257
-1.5032
-1.51115
-1.5211
-1.5273
-1.53275
-1.53091
-1.51711
-1.50264
-1.49589
-1.49925
-1.51073
-1.51172
-1.49922
-1.48025
-1.47111
-1.48557
-1.50627
-1.49645
-1.47274
-1.46635
-1.61125
-1.61864
-1.62333
-1.63036
-1.63671
-1.64376
-1.64878
-1.65118
-1.64876
-1.64153
-1.6333
-1.62854
-1.62895
-1.63255
-1.63118
-1.6232
-1.61311
-1.60856
-1.6147
-1.62438
-1.62145
-1.61129
-1.59767
-1.74387
-1.74845
-1.75082
-1.75639
-1.7616
-1.76667
-1.77039
-1.77201
-1.77064
-1.7666
-1.76203
-1.75896
-1.75812
-1.75825
-1.75638
-1.752
-1.74753
-1.7464
-1.74998
-1.75433
-1.75402
-1.75318
-1.75518
-1.87511
-1.87643
-1.87827
-1.88266
-1.88692
-1.89074
-1.89352
-1.89481
-1.89426
-1.89218
-1.88968
-1.88774
-1.88668
-1.88591
-1.88439
-1.88214
-1.88036
-1.8806
-1.88306
-1.88596
-1.88774
-1.89063
-1.89672
-2.00521
-2.00443
-2.0057
-2.00899
-2.01244
-2.01552
-2.01779
-2.01902
-2.01904
-2.01812
-2.01682
-2.01564
-2.01478
-2.01403
-2.01305
-2.012
-2.0115
-2.01226
-2.01434
-2.01696
-2.01962
-2.0233
-2.02878
-2.13444
-2.13265
-2.13329
-2.13559
-2.13827
-2.14078
-2.14275
-2.14398
-2.14442
-2.14421
-2.14367
-2.14307
-2.14255
-2.14209
-2.14163
-2.1413
-2.14149
-2.14254
-2.14447
-2.147
-2.14996
-2.15377
-2.15894
-2.26292
-2.26089
-2.26096
-2.26239
-2.26439
-2.2664
-2.26812
-2.26936
-2.27006
-2.27031
-2.27028
-2.27014
-2.26999
-2.26987
-2.26983
-2.27
-2.2706
-2.27181
-2.27368
-2.27611
-2.27905
-2.28273
-2.2874
-2.39077
-2.38884
-2.38847
-2.38924
-2.39065
-2.39225
-2.39372
-2.39492
-2.39578
-2.39633
-2.39665
-2.39686
-2.39704
-2.39725
-2.39756
-2.39807
-2.39892
-2.40024
-2.40207
-2.40438
-2.40719
-2.41059
-2.41471
-2.51812
-2.51636
-2.51568
-2.51599
-2.51695
-2.51818
-2.51942
-2.52055
-2.52148
-2.52221
-2.52278
-2.52327
-2.52372
-2.5242
-2.52477
-2.52553
-2.52656
-2.52795
-2.52973
-2.53193
-2.53455
-2.53764
-2.54125
-2.64502
-2.64345
-2.64261
-2.64259
-2.64318
-2.6441
-2.64514
-2.64617
-2.64711
-2.64795
-2.64869
-2.64937
-2.65003
-2.65073
-2.65151
-2.65245
-2.6536
-2.65503
-2.65678
-2.65886
-2.6613
-2.66409
-2.66726
-2.77156
-2.77017
-2.76923
-2.76897
-2.76929
-2.76996
-2.77081
-2.77173
-2.77265
-2.77354
-2.77439
-2.77521
-2.77604
-2.7769
-2.77784
-2.77891
-2.78015
-2.78161
-2.78332
-2.7853
-2.78755
-2.79008
-2.79288
-2.89778
-2.89654
-2.89554
-2.89512
-2.89524
-2.8957
-2.8964
-2.89722
-2.8981
-2.89901
-2.89992
-2.90084
-2.90178
-2.90277
-2.90383
-2.90499
-2.9063
-2.90778
-2.90945
-2.91132
-2.91342
-2.91572
-2.9182
-3.02374
-3.02259
-3.02154
-3.02103
-3.021
-3.02132
-3.02188
-3.02262
-3.02346
-3.02437
-3.02532
-3.02631
-3.02733
-3.0284
-3.02954
-3.03077
-3.03212
-3.0336
-3.03523
-3.03702
-3.03898
-3.04108
-3.04331
-3.14947
-3.14834
-3.14727
-3.1467
-3.14658
-3.1468
-3.14727
-3.14794
-3.14875
-3.14965
-3.15062
-3.15165
-3.15272
-3.15385
-3.15505
-3.15633
-3.15769
-3.15917
-3.16076
-3.16247
-3.1643
-3.16624
-3.16827
-3.27503
-3.27386
-3.27277
-3.27217
-3.272
-3.27216
-3.27258
-3.27321
-3.27399
-3.27488
-3.27586
-3.27691
-3.27802
-3.27919
-3.28042
-3.28172
-3.28309
-3.28455
-3.2861
-3.28774
-3.28946
-3.29126
-3.29312
-3.40048
-3.39922
-3.39811
-3.3975
-3.39731
-3.39744
-3.39783
-3.39844
-3.3992
-3.4001
-3.40108
-3.40214
-3.40327
-3.40445
-3.4057
-3.407
-3.40837
-3.40981
-3.41131
-3.41288
-3.41451
-3.41619
-3.4179
-3.5259
-3.5245
-3.52338
-3.52276
-3.52257
-3.52269
-3.52308
-3.52367
-3.52443
-3.52532
-3.52631
-3.52737
-3.5285
-3.52969
-3.53094
-3.53223
-3.53358
-3.53498
-3.53643
-3.53793
-3.53947
-3.54105
-3.54264
-3.65136
-3.64983
-3.64869
-3.64806
-3.64786
-3.64798
-3.64837
-3.64896
-3.64971
-3.6506
-3.65158
-3.65264
-3.65376
-3.65494
-3.65616
-3.65744
-3.65875
-3.66011
-3.66151
-3.66294
-3.6644
-3.66587
-3.66736
-3.77693
-3.7753
-3.77413
-3.77347
-3.77326
-3.77338
-3.77376
-3.77434
-3.77509
-3.77595
-3.77692
-3.77796
-3.77906
-3.78021
-3.78141
-3.78265
-3.78392
-3.78523
-3.78656
-3.78792
-3.7893
-3.79068
-3.79207
-3.90263
-3.90096
-3.89975
-3.89906
-3.89883
-3.89893
-3.8993
-3.89986
-3.90058
-3.90142
-3.90236
-3.90336
-3.90443
-3.90554
-3.90669
-3.90788
-3.9091
-3.91035
-3.91161
-3.9129
-3.9142
-3.9155
-3.91679
-4.02846
-4.0268
-4.02557
-4.02485
-4.02459
-4.02467
-4.025
-4.02554
-4.02622
-4.02702
-4.02791
-4.02886
-4.02987
-4.03093
-4.03202
-4.03315
-4.03431
-4.03549
-4.03668
-4.03789
-4.03911
-4.04032
-4.04153
-4.15442
-4.15279
-4.15156
-4.15082
-4.15054
-4.15059
-4.15089
-4.15137
-4.152
-4.15274
-4.15357
-4.15446
-4.1554
-4.15639
-4.15741
-4.15847
-4.15955
-4.16065
-4.16177
-4.1629
-4.16404
-4.16518
-4.1663
-4.28048
-4.27891
-4.2777
-4.27696
-4.27665
-4.27667
-4.27692
-4.27735
-4.27792
-4.27859
-4.27933
-4.28015
-4.28101
-4.28192
-4.28286
-4.28383
-4.28483
-4.28586
-4.2869
-4.28795
-4.289
-4.29006
-4.2911
-4.40661
-4.40512
-4.40395
-4.40322
-4.4029
-4.40288
-4.40308
-4.40345
-4.40394
-4.40453
-4.40519
-4.40592
-4.40669
-4.40751
-4.40836
-4.40925
-4.41016
-4.4111
-4.41206
-4.41303
-4.414
-4.41497
-4.41594
-4.5328
-4.53139
-4.53028
-4.52957
-4.52925
-4.5292
-4.52934
-4.52964
-4.53005
-4.53056
-4.53113
-4.53176
-4.53243
-4.53315
-4.53391
-4.5347
-4.53552
-4.53638
-4.53725
-4.53814
-4.53903
-4.53993
-4.54081
-4.659
-4.65769
-4.65665
-4.65599
-4.65566
-4.65558
-4.65567
-4.6559
-4.65623
-4.65665
-4.65712
-4.65765
-4.65822
-4.65884
-4.65949
-4.66019
-4.66092
-4.66169
-4.66248
-4.66328
-4.6641
-4.66491
-4.66572
-4.7852
-4.78401
-4.78306
-4.78244
-4.78212
-4.782
-4.78205
-4.78221
-4.78246
-4.78279
-4.78316
-4.78359
-4.78405
-4.78456
-4.7851
-4.78569
-4.78634
-4.78702
-4.78773
-4.78846
-4.7892
-4.78994
-4.79067
-4.91137
-4.91031
-4.90946
-4.90889
-4.90858
-4.90845
-4.90845
-4.90855
-4.90872
-4.90896
-4.90924
-4.90956
-4.90991
-4.91029
-4.91072
-4.91121
-4.91176
-4.91237
-4.91302
-4.91368
-4.91434
-4.915
-4.91566
-5.0375
-5.03658
-5.03584
-5.03533
-5.03504
-5.03489
-5.03486
-5.0349
-5.03501
-5.03516
-5.03534
-5.03555
-5.03578
-5.03604
-5.03634
-5.03672
-5.03719
-5.03774
-5.03832
-5.03892
-5.03952
-5.0401
-5.04068
-5.16356
-5.16279
-5.16216
-5.16173
-5.16147
-5.16132
-5.16126
-5.16126
-5.1613
-5.16137
-5.16145
-5.16155
-5.16166
-5.16179
-5.16195
-5.1622
-5.16259
-5.16311
-5.16366
-5.16421
-5.16474
-5.16525
-5.16575
-5.28954
-5.28892
-5.28841
-5.28806
-5.28784
-5.28771
-5.28763
-5.2876
-5.28759
-5.28758
-5.28758
-5.28757
-5.28755
-5.28754
-5.28754
-5.28762
-5.28795
-5.28849
-5.28903
-5.28954
-5.29001
-5.29045
-5.29087
-5.41541
-5.41494
-5.41455
-5.41431
-5.41416
-5.41406
-5.41399
-5.41393
-5.41387
-5.4138
-5.41371
-5.41359
-5.41344
-5.41327
-5.41306
-5.41287
-5.41315
-5.41388
-5.41447
-5.41494
-5.41534
-5.4157
-5.41603
-5.54113
-5.54084
-5.54064
-5.54056
-5.54052
-5.54049
-5.54043
-5.54034
-5.54022
-5.54006
-5.53984
-5.53956
-5.53923
-5.5388
-5.53822
-5.53743
-5.53769
-5.53918
-5.54
-5.54042
-5.54073
-5.541
-5.54123
-5.66683
-5.66672
-5.66671
-5.66677
-5.66682
-5.66682
-5.66677
-5.66666
-5.66649
-5.66626
-5.66597
-5.6656
-5.66512
-5.66445
-5.66324
-5.66112
-5.66141
-5.66451
-5.66563
-5.66603
-5.66625
-5.66641
-5.66653
198.021
203.178
211.796
221.703
81.41
83.7419
88.3252
95.3636
12.0769
12.0842
12.4078
13.8358
2.3998
2.28845
2.21829
2.14906
1.62976
1.55898
1.54842
1.55466
1.43497
1.44116
1.46454
1.47825
0.614649
0.889485
1.02077
1.10932
-1.18777
-0.809144
-0.476603
-0.280296
-1.53453
-1.57525
-1.54124
-1.49209
-1.59599
-1.62217
-1.66959
-1.71567
-1.76235
-1.76774
-1.77413
-1.78195
-1.90512
-1.91191
-1.9197
-1.92735
-2.03528
-2.04012
-2.04554
-2.05121
-2.16434
-2.16821
-2.17235
-2.17661
-2.29184
-2.29497
-2.2983
-2.3017
-2.41841
-2.421
-2.42373
-2.42649
-2.54437
-2.54654
-2.54882
-2.55111
-2.66992
-2.67176
-2.67368
-2.6756
-2.79517
-2.79675
-2.79838
-2.80001
-2.92021
-2.92157
-2.92298
-2.92438
-3.04508
-3.04627
-3.0475
-3.04872
-3.16984
-3.1709
-3.17198
-3.17305
-3.29454
-3.29548
-3.29644
-3.2974
-3.41919
-3.42004
-3.42091
-3.42176
-3.54383
-3.5446
-3.54539
-3.54616
-3.66845
-3.66917
-3.66988
-3.67058
-3.79309
-3.79374
-3.7944
-3.79504
-3.91774
-3.91834
-3.91895
-3.91954
-4.04241
-4.04297
-4.04353
-4.04408
-4.16712
-4.16764
-4.16816
-4.16867
-4.29186
-4.29234
-4.29282
-4.2933
-4.41664
-4.41709
-4.41753
-4.41796
-4.54146
-4.54186
-4.54227
-4.54267
-4.66631
-4.66668
-4.66705
-4.66742
-4.7912
-4.79154
-4.79187
-4.7922
-4.91613
-4.91643
-4.91673
-4.91703
-5.0411
-5.04137
-5.04163
-5.04189
-5.16611
-5.16634
-5.16657
-5.16679
-5.29117
-5.29136
-5.29154
-5.29172
-5.41627
-5.41641
-5.41656
-5.4167
-5.5414
-5.5415
-5.5416
-5.54169
-5.66661
-5.66666
-5.66671
-5.66676
240.706
251.654
256.846
258.266
258.544
262.51
268.468
275.538
281.812
285.338
287.814
289.267
291.198
293.544
297.567
304.358
312.186
312.952
322.113
108.965
124.937
135.128
141.596
149.637
164.164
174.782
182.025
187.877
191.727
195.602
198.318
198.765
196.113
192.435
193.499
197.016
195.833
206.503
18.9623
29.0742
41.2097
54.5453
68.2056
79.4988
84.5802
87.8919
93.402
99.1824
104.668
107.826
107.884
103.803
98.4358
96.1106
96.5592
99.4038
105.936
2.13611
3.31858
8.23177
15.8296
21.5116
22.7195
23.6952
25.2875
27.6782
29.6596
31.5506
32.781
33.379
32.7067
31.4627
28.8941
27.8197
34.1968
36.9357
1.59203
1.86982
2.51712
4.31006
4.25336
4.29472
5.67139
6.16004
5.85117
4.68772
2.77669
1.88598
2.40697
4.08944
4.48138
3.24208
2.17722
3.65018
6.89167
1.4638
1.48438
1.54291
1.50507
1.20757
1.28864
1.40078
1.44792
1.55858
1.30275
0.960527
0.845866
0.794518
0.616398
0.00400699
-0.255071
-0.201416
-0.618597
-0.973441
1.14277
1.01315
0.741232
0.545557
0.482722
0.337084
0.128887
-0.0502751
-0.101125
0.0280528
0.190306
0.177412
0.0376271
-0.3224
-0.581741
-0.785713
-0.832027
-0.9579
-1.02938
-0.0686222
-0.0772251
-0.163242
-0.205538
-0.168048
-0.240333
-0.414389
-0.596035
-0.621114
-0.533475
-0.519162
-0.605394
-0.817632
-1.098
-1.19203
-1.254
-1.28236
-1.26607
-1.27087
-1.41907
-1.34589
-1.25304
-1.12981
-1.00992
-1.02684
-1.11503
-1.1951
-1.22211
-1.21596
-1.28723
-1.35107
-1.41925
-1.46299
-1.4721
-1.46133
-1.4796
-1.49051
-1.47129
-1.76456
-1.77288
-1.74919
-1.71123
-1.68286
-1.67094
-1.667
-1.6505
-1.67025
-1.71093
-1.73327
-1.72602
-1.7026
-1.65981
-1.64543
-1.63096
-1.62434
-1.62802
-1.61675
-1.79685
-1.81442
-1.82878
-1.84461
-1.85796
-1.86556
-1.86468
-1.86013
-1.86278
-1.86063
-1.83809
-1.82609
-1.81307
-1.79195
-1.77848
-1.77118
-1.76402
-1.7656
-1.76046
-1.9384
-1.9536
-1.96134
-1.96605
-1.97085
-1.97428
-1.97365
-1.97101
-1.97252
-1.97127
-1.96129
-1.95135
-1.9404
-1.92467
-1.91301
-1.90406
-1.89979
-1.90297
-1.90023
-2.06062
-2.07193
-2.07965
-2.08539
-2.0901
-2.09309
-2.09343
-2.09224
-2.09247
-2.09134
-2.08569
-2.07813
-2.06888
-2.05619
-2.04789
-2.0401
-2.03621
-2.03692
-2.03419
-2.18357
-2.19217
-2.19891
-2.20436
-2.20885
-2.2118
-2.21289
-2.21277
-2.21265
-2.21182
-2.20855
-2.20221
-2.19373
-2.18337
-2.17714
-2.17184
-2.16716
-2.16463
-2.16219
-2.30723
-2.31422
-2.31997
-2.32462
-2.32842
-2.33112
-2.33246
-2.33279
-2.33257
-2.33163
-2.32884
-2.32331
-2.31608
-2.30846
-2.30227
-2.29712
-2.29268
-2.28878
-2.28785
-2.43099
-2.43688
-2.4419
-2.44593
-2.44909
-2.45137
-2.45267
-2.4531
-2.45282
-2.45151
-2.44883
-2.44442
-2.43875
-2.43267
-2.42703
-2.42194
-2.41755
-2.41418
-2.41352
-2.5548
-2.55969
-2.5641
-2.56769
-2.57041
-2.57231
-2.57349
-2.57392
-2.57357
-2.57232
-2.56997
-2.5664
-2.56191
-2.55699
-2.55213
-2.54755
-2.54353
-2.54033
-2.53903
-2.67868
-2.68274
-2.68645
-2.68963
-2.69203
-2.69377
-2.69487
-2.69529
-2.69499
-2.69392
-2.69197
-2.68913
-2.68561
-2.68174
-2.67786
-2.67418
-2.67091
-2.66819
-2.66675
-2.80262
-2.80604
-2.80919
-2.81192
-2.81409
-2.81569
-2.81673
-2.81718
-2.817
-2.81615
-2.81461
-2.81243
-2.80978
-2.80691
-2.80411
-2.80162
-2.7997
-2.79882
-2.79713
-2.92662
-2.92954
-2.93225
-2.93462
-2.93656
-2.93804
-2.93903
-2.93951
-2.93947
-2.93886
-2.93772
-2.93611
-2.93421
-2.93222
-2.93041
-2.92906
-2.92839
-2.93024
-2.92684
-3.05066
-3.0532
-3.05555
-3.05764
-3.05938
-3.06074
-3.06169
-3.06221
-3.06229
-3.06193
-3.06114
-3.06003
-3.05872
-3.0574
-3.05633
-3.05573
-3.05566
-3.05807
-3.05491
-3.17477
-3.17699
-3.17906
-3.18092
-3.18249
-3.18374
-3.18466
-3.18521
-3.18541
-3.18525
-3.18477
-3.18403
-3.18316
-3.18231
-3.18165
-3.18137
-3.1815
-3.18248
-3.18144
-3.29892
-3.3009
-3.30275
-3.30441
-3.30584
-3.307
-3.30788
-3.30847
-3.30876
-3.30876
-3.30851
-3.30806
-3.30749
-3.30692
-3.30645
-3.30617
-3.306
-3.30583
-3.30475
-3.42314
-3.42491
-3.42658
-3.42808
-3.42939
-3.43048
-3.43133
-3.43193
-3.43229
-3.43242
-3.43233
-3.43208
-3.43171
-3.4313
-3.43089
-3.43046
-3.42985
-3.4288
-3.42642
-3.5474
-3.54902
-3.55053
-3.5519
-3.55311
-3.55413
-3.55495
-3.55557
-3.55598
-3.55619
-3.55622
-3.5561
-3.55586
-3.55553
-3.55512
-3.55455
-3.55364
-3.55215
-3.54942
-3.67172
-3.6732
-3.67459
-3.67585
-3.67698
-3.67794
-3.67873
-3.67935
-3.67979
-3.68006
-3.68017
-3.68014
-3.67998
-3.67969
-3.67925
-3.67858
-3.67748
-3.67574
-3.67308
-3.79609
-3.79746
-3.79874
-3.79992
-3.80097
-3.80188
-3.80265
-3.80326
-3.80372
-3.80403
-3.80419
-3.80421
-3.80409
-3.80381
-3.80334
-3.80258
-3.80134
-3.79939
-3.79669
-3.92051
-3.92179
-3.92298
-3.92408
-3.92507
-3.92593
-3.92667
-3.92728
-3.92775
-3.92808
-3.92827
-3.92832
-3.92822
-3.92794
-3.92744
-3.9266
-3.92523
-3.92308
-3.92032
-4.04498
-4.04617
-4.04729
-4.04832
-4.04926
-4.05008
-4.0508
-4.05139
-4.05186
-4.05221
-4.05242
-4.05249
-4.05241
-4.05213
-4.05159
-4.0507
-4.04923
-4.04691
-4.04412
-4.16951
-4.17062
-4.17167
-4.17264
-4.17352
-4.17431
-4.175
-4.17558
-4.17605
-4.17641
-4.17664
-4.17673
-4.17665
-4.17638
-4.17584
-4.17494
-4.17346
-4.17111
-4.16825
-4.29407
-4.29511
-4.29609
-4.29701
-4.29785
-4.2986
-4.29927
-4.29984
-4.30031
-4.30067
-4.30092
-4.30102
-4.30097
-4.3007
-4.30018
-4.29931
-4.29792
-4.29574
-4.29273
-4.41868
-4.41965
-4.42057
-4.42143
-4.42222
-4.42294
-4.42358
-4.42414
-4.42461
-4.42499
-4.42525
-4.42537
-4.42534
-4.4251
-4.4246
-4.42375
-4.42239
-4.42031
-4.4176
-4.54334
-4.54423
-4.54509
-4.54589
-4.54664
-4.54732
-4.54794
-4.54849
-4.54895
-4.54933
-4.54961
-4.54977
-4.54977
-4.54956
-4.54907
-4.5482
-4.54674
-4.5445
-4.54205
-4.66803
-4.66885
-4.66964
-4.67039
-4.67108
-4.67173
-4.67232
-4.67285
-4.67331
-4.6737
-4.67401
-4.6742
-4.67425
-4.67409
-4.67364
-4.67274
-4.67113
-4.66861
-4.66554
-4.79275
-4.79351
-4.79423
-4.79491
-4.79555
-4.79615
-4.79671
-4.79721
-4.79767
-4.79807
-4.7984
-4.79865
-4.79877
-4.79871
-4.79837
-4.79757
-4.79599
-4.79344
-4.79003
-4.91752
-4.91819
-4.91884
-4.91945
-4.92004
-4.92058
-4.9211
-4.92157
-4.92201
-4.92242
-4.92278
-4.92309
-4.92332
-4.92342
-4.92329
-4.92276
-4.92147
-4.91913
-4.91593
-5.04232
-5.04291
-5.04348
-5.04402
-5.04453
-5.04502
-5.04548
-5.04591
-5.04633
-5.04672
-5.0471
-5.04747
-5.04783
-5.04814
-5.04834
-5.04825
-5.04745
-5.04537
-5.04219
-5.16716
-5.16766
-5.16814
-5.1686
-5.16904
-5.16945
-5.16985
-5.17022
-5.17059
-5.17096
-5.17134
-5.17175
-5.17222
-5.17278
-5.17341
-5.17397
-5.17389
-5.17212
-5.16878
-5.29203
-5.29243
-5.29283
-5.2932
-5.29355
-5.29388
-5.2942
-5.2945
-5.2948
-5.29512
-5.29546
-5.29587
-5.29641
-5.29718
-5.29831
-5.29977
-5.30088
-5.29954
-5.2961
-5.41693
-5.41724
-5.41753
-5.4178
-5.41806
-5.4183
-5.41853
-5.41875
-5.41897
-5.4192
-5.41946
-5.4198
-5.4203
-5.42112
-5.42257
-5.42506
-5.4284
-5.42798
-5.42486
-5.54185
-5.54206
-5.54225
-5.54242
-5.54258
-5.54273
-5.54286
-5.54298
-5.5431
-5.54322
-5.54336
-5.54356
-5.54389
-5.5445
-5.54581
-5.54921
-5.55746
-5.55943
-5.55899
-5.66683
-5.66692
-5.66699
-5.66705
-5.6671
-5.66713
-5.66716
-5.66717
-5.66718
-5.66719
-5.66721
-5.66726
-5.66741
-5.66778
-5.66893
-5.67344
-5.68915
-5.69274
-5.69681
)
;

boundaryField
{
    leftWall
    {
        type            calculated;
        value           nonuniform List<scalar> 
50
(
704.188
645.471
586.717
527.957
469.202
410.453
351.716
293.009
201.297
81.6608
12.1988
-0.283074
-0.382343
-0.641699
-0.953882
-1.26068
-1.46746
-1.61125
-1.74387
-1.87511
-2.00521
-2.13444
-2.26292
-2.39077
-2.51812
-2.64502
-2.77156
-2.89778
-3.02374
-3.14947
-3.27503
-3.40048
-3.5259
-3.65136
-3.77693
-3.90263
-4.02846
-4.15442
-4.28048
-4.40661
-4.5328
-4.659
-4.7852
-4.91137
-5.0375
-5.16356
-5.28954
-5.41541
-5.54113
-5.66683
)
;
    }
    rightWall
    {
        type            calculated;
        value           nonuniform List<scalar> 
50
(
795.952
737.571
678.896
620.466
565.49
513.939
462.519
409.248
322.113
206.503
105.936
36.9357
6.89167
-0.973441
-1.02938
-1.27087
-1.47129
-1.61675
-1.76046
-1.90023
-2.03419
-2.16219
-2.28785
-2.41352
-2.53903
-2.66675
-2.79713
-2.92684
-3.05491
-3.18144
-3.30475
-3.42642
-3.54942
-3.67308
-3.79669
-3.92032
-4.04412
-4.16825
-4.29273
-4.4176
-4.54205
-4.66554
-4.79003
-4.91593
-5.04219
-5.16878
-5.2961
-5.42486
-5.55899
-5.69681
)
;
    }
    lowerWall
    {
        type            calculated;
        value           nonuniform List<scalar> 
62
(
733.617
733.205
733.104
733.08
733.073
733.094
733.165
733.304
733.516
733.798
734.14
734.533
734.979
735.5
736.129
736.897
737.821
738.78
739.465
741.975
745.571
748.086
749.894
720.814
661.691
602.697
544.137
486.032
428.158
370.189
313.49
260.618
265.775
274.393
284.3
749.396
691.501
632.434
572.764
513.327
453.623
393.108
331.503
778.614
774.375
778.447
781.846
783.387
782.614
778.93
775.257
776.87
785.012
792.801
800.086
806.155
809.97
814.491
819.408
822.913
823.48
824.233
)
;
    }
    atmosphere
    {
        type            calculated;
        value           nonuniform List<scalar> 
46
(
-5.72904
-5.72904
-5.72904
-5.72904
-5.72904
-5.72904
-5.72904
-5.72904
-5.72904
-5.72904
-5.72904
-5.72904
-5.72904
-5.72904
-5.72904
-5.72904
-5.72904
-5.72906
-5.72908
-5.72912
-5.72917
-5.72921
-5.72926
-5.72929
-5.72931
-5.72933
-5.72934
-5.72936
-5.72938
-5.72939
-5.72938
-5.72936
-5.72933
-5.72928
-5.72924
-5.72919
-5.72915
-5.72911
-5.72908
-5.72906
-5.72905
-5.72905
-5.72906
-5.72905
-5.72904
-5.78217
)
;
    }
    defaultFaces
    {
        type            empty;
    }
}


// ************************************************************************* //
