/*--------------------------------*- C++ -*----------------------------------*\
  =========                 |
  \\      /  F ield         | OpenFOAM: The Open Source CFD Toolbox
   \\    /   O peration     | Website:  https://openfoam.org
    \\  /    A nd           | Version:  9
     \\/     M anipulation  |
\*---------------------------------------------------------------------------*/
FoamFile
{
    format      ascii;
    class       surfaceScalarField;
    location    "9.15";
    object      phi;
}
// * * * * * * * * * * * * * * * * * * * * * * * * * * * * * * * * * * * * * //

dimensions      [0 3 -1 0 0 0 0];

internalField   nonuniform List<scalar> 
1300
(
11.2529
1.87548
-4.56503
11.2529
-4.93134
1.87548
-4.21771
4.21771
-1.27256
1.27256
5.71243
5.54043
-2.49659
2.49659
-3.04932
3.04932
-2.8926
2.8926
-1.06194
1.06194
-1.02835
1.02835
0.710046
-0.710046
-3.31144
3.31144
-1.55065
1.55065
-2.99491
2.99491
6.12869
-6.12869
-3.5331
3.5331
-0.789357
0.789357
-4.26343
15.5163
6.98943
6.98943
-2.43665
2.43665
-1.25653
1.25653
1.41034
-1.41034
9.79615
-9.79615
-5.23112
-6.13648
1.90719
-13.708
-3.02415
-3.02415
-2.7054
2.7054
-0.829928
1.04555
3.47077
-3.47077
-0.795557
0.795557
-4.27681
0.059101
-4.27681
4.03807
0.179646
4.03807
-1.42202
0.14946
-1.42202
4.57333
-4.57333
1.15533
0.117229
1.15533
3.92614
-3.92614
-5.70992
11.4224
5.54294
-5.32047
20.8368
-5.93239
11.4728
-3.88386
3.88386
-2.40716
-0.0894276
-2.40716
2.53585
-0.0392626
2.53585
-3.89001
3.89001
-2.82033
-0.228997
-2.82033
3.18441
-0.135088
3.18441
3.64523
-3.64523
-2.93878
0.0461835
-2.93878
2.7512
0.141401
2.7512
0.771042
1.10443
-2.64652
3.69207
-1.10443
0.0424987
1.02614
0.0357985
1.02614
-1.01455
-0.0137953
-1.01455
1.05014
-0.0217877
1.05014
0.757119
-0.047073
0.757119
-0.763089
0.0530435
-0.763089
-8.52277
-8.64466
-3.42012
0.108676
-3.42012
-1.55892
0.00826899
-1.55892
1.59462
-0.0439724
1.59462
-2.57085
2.57085
-3.31847
0.323555
-3.31847
4.80756
1.32113
4.80756
5.04623
6.20663
16.2991
-16.2991
10.1704
-3.26409
-0.269003
-3.26409
-3.71864
-6.07752
3.71864
-0.18554
-0.861707
0.0723501
-0.861707
5.62593
1.3635
5.62593
2.64242
0.108782
-2.64242
0.205763
4.56886
-4.56886
1.46936
0.967295
1.46936
-1.19071
1.19071
1.12434
-0.0742056
-1.12434
-0.132184
1.386
0.0243432
1.386
-1.40974
-0.00059414
-1.40974
7.64466
-13.7811
-7.84063
3.14507
0.166378
-3.14507
0.120921
3.55473
-0.0839584
3.55473
-3.31639
3.31639
-3.60639
0.135622
-3.60639
-0.71605
-0.079507
-0.71605
0.885049
-0.0894914
0.885049
-4.49615
0.219339
-4.49615
-3.73099
0.412529
3.73099
0.307072
1.3053
-1.3053
-1.53181
0.109797
-1.53181
-4.56046
0.0643095
4.56046
0.0128729
-4.66755
0.0942212
-4.66755
-3.7094
0.103014
3.7094
0.216733
4.58811
1.03782
-4.58811
0.661974
-5.36964
11.5763
-5.88322
11.4262
-3.53311
-0.350751
-3.53311
4.05127
-0.167408
4.05127
2.67982
0.315092
-2.67982
0.272659
2.68577
-0.149925
2.68577
-3.86038
-0.0296341
-3.86038
3.69083
0.199183
3.69083
2.74839
-0.0626167
-2.74839
-0.0719357
3.1878
-0.00338598
3.1878
3.64697
-0.00173804
3.64697
-3.52422
-0.121008
-3.52422
3.19166
-3.19166
3.09801
0.0936539
-3.09801
0.159223
-5.07402
5.07343
-0.00799884
-5.06602
1.01814
1.01814
0.807873
-0.0507541
0.807873
-0.863288
0.100199
-0.863288
8.45462
-16.2952
8.58774
-17.1105
7.22793
-20.9359
7.93704
-16.5817
3.69071
-3.69071
3.62464
0.0660661
-3.62464
0.204523
-1.52831
-0.0306105
-1.52831
-2.33636
-0.234496
-2.33636
2.90298
-0.332128
2.90298
-3.74552
3.74552
-4.12684
0.381322
4.12684
0.680721
3.25274
-0.0649398
-3.25274
-0.0113557
0.993887
0.161441
-0.993887
0.132181
4.79326
-0.2244
4.79326
-4.04254
-0.526315
-4.04254
-1.53146
0.00315586
1.53146
-0.0621035
-1.25866
0.0679444
-1.25866
-5.0745
0.0084773
-5.0387
-1.40127
-1.40127
1.30414
4.9962
-3.57336
0.0491352
3.57336
-0.0186285
3.53192
0.213595
-3.53192
0.215532
-3.27278
0.0811176
3.27278
0.0436113
-0.693034
-0.023016
-0.693034
-1.08111
1.08111
-0.962565
-0.118547
0.962565
-0.0775165
1.46124
-0.155938
1.46124
1.57097
0.0236533
-1.57097
0.0391528
-4.90544
0.237888
-4.90544
4.04635
0.00491695
4.04635
-3.91378
-0.128768
3.91378
-0.266812
-0.00371967
5.07715
-1.01442
-0.000135847
1.01442
-5.10149
5.10136
-0.698973
0.00593931
0.698973
0.108899
1.02885
0.161861
-1.02885
0.165563
3.71875
-0.0279192
-3.71875
0.0280391
-2.05638
-0.279978
-2.05638
-3.21937
-0.313743
3.21937
-0.316386
-5.11496
-0.0781577
5.19311
-5.13674
1.33681
0.0491819
-1.33681
5.15054
-1.19464
-0.110661
1.19464
-0.113529
1.66196
-0.200714
1.66196
5.02764
-0.23438
-5.02764
0.122198
-4.03961
0.179232
4.03961
0.00674095
-1.83042
-0.225959
1.83042
-0.168464
-13.1275
14.491
7.70928
-6.66945
-7.11169
-12.747
4.4478
7.12847
14.6182
-11.4233
-9.51257
-11.3024
2.86181
-2.69625
-3.83851
3.79144
23.1025
-23.0083
-18.4026
19.0833
20.772
-20.5553
5.70769
5.71466
16.2633
-16.3528
-20.7974
20.4466
16.2322
-16.4612
21.5225
-21.5521
-25.0023
24.9744
-16.2037
16.2499
-20.2261
20.1051
-20.932
20.6652
-8.36097
-8.74954
15.8925
-15.7838
21.2103
-21.4793
-19.4832
19.8067
10.0463
4.44469
11.0841
-6.24729
11.955
-5.22552
12.9348
8.27062
-16.6316
8.02462
-15.1363
9.76511
11.4452
-9.57957
-3.16739
-17.9482
17.8642
-17.2824
17.326
23.6467
-23.5876
-6.17227
11.8869
-5.25388
12.3824
-11.4095
-6.99302
10.0884
4.52979
8.68396
7.20856
-8.85034
-2.45207
-24.4658
24.2315
-25.4292
24.9029
0.0873906
2.43289
-2.52028
1.34392
-0.847104
3.27999
2.01471
2.11491
2.45168
-2.28981
0.244575
-2.76485
-2.89704
-5.67622
5.78601
5.5067
-5.38947
16.1821
6.92036
16.195
-16.4337
-6.57459
-16.1958
11.3682
7.71511
11.7495
12.0542
8.71777
12.1573
10.3613
-10.3301
-0.0311946
-11.4759
21.8373
1.55681
-18.469
-13.9392
9.23111
7.03222
9.19185
-10.1364
-6.21635
-9.86375
-11.0498
-9.7476
-11.3635
12.2369
8.20973
12.0695
-15.0722
15.0789
9.95062
6.28156
9.81553
-9.47308
-6.98809
-9.54502
26.8877
-6.39493
-20.4928
-12.8033
-12.199
12.6041
8.91839
13.8155
11.1589
13.8435
8.60946
18.2783
-17.5278
5.32884
-9.99494
-6.20877
-9.83572
9.36546
6.88444
9.50686
-11.7383
-8.48783
-11.6891
-11.9331
-8.99887
11.9349
8.1702
-12.4399
-12.9893
12.5687
8.09649
7.50701
-17.0196
9.07469
-17.8242
-10.5357
-5.24817
-10.3312
10.6583
6.60235
-17.2606
-5.97331
24.277
-12.8318
21.1096
-11.6839
-9.79544
-11.6953
-14.7712
-4.712
-14.3586
-8.14848
7.86851
-8.94083
8.6087
26.7564
-15.9332
-10.8232
-12.3763
-8.17902
11.7143
-0.63019
-12.8372
12.806
-0.882249
12.0526
16.4972
15.8671
-10.8907
-6.39173
-10.6752
10.2965
7.02953
10.3776
15.8854
7.76131
16.065
-16.4514
-7.13621
-16.232
5.08365
-5.16316
5.92591
-5.92276
15.405
9.49792
-15.1806
-9.28527
23.0633
-10.7964
-12.2669
-5.16968
5.38216
-0.212472
-1.88969
-0.545775
0.243582
-1.96251
-1.876
1.90946
0.205446
5.5876
3.7116
-2.41368
2.48162
2.77944
2.70523
-0.191807
2.62479
-2.61885
19.2394
-11.5525
-7.6869
13.644
-13.5797
-2.58806
-18.9202
16.3321
2.61532
3.23954
-3.16719
-4.18426
-1.49196
-4.1451
3.17286
2.33384
3.3343
2.21734
3.56868
-8.51499
1.67133
6.84366
-6.29765
-3.71814
-13.3228
-6.28576
19.6086
16.4087
7.82273
-16.5309
0.335145
5.57088
-5.61485
-1.54179
-11.781
8.62074
-10.1625
-15.2007
-6.38355
21.5842
-9.58617
-1.08901
9.37257
2.37692
-10.868
-7.08022
10.7324
1.42491
-12.0584
23.977
-11.9185
-18.4502
8.52023
13.317
16.2353
-17.8634
9.31282
8.55053
-4.54633
7.80111
1.39074
7.65119
-19.9734
13.7571
11.5257
8.28102
-11.8408
1.97704
-17.9964
24.9766
-21.9789
-2.99768
12.8658
12.1107
13.4182
13.3382
-7.90314
21.3214
-3.39548
-18.5834
21.3919
-13.1109
15.441
-28.5519
-28.7792
10.1959
-17.8382
21.7057
-3.86748
-5.05599
-10.0162
22.8942
-2.05824
-20.8359
10.0112
-14.0012
-11.9418
25.943
-20.3962
18.9299
-6.5037
-12.4262
-12.4133
-9.13887
12.234
2.84485
-25.298
30.6269
-7.01977
8.41755
1.39798
8.41417
10.6123
-15.6935
5.08118
9.78383
-16.2875
6.93862
-22.6321
-11.7527
23.485
-11.7323
-17.0009
-15.2905
-1.71031
4.69626
25.9306
-15.8552
11.7121
4.14307
8.49557
1.88206
-8.58922
-1.24649
1.03775
16.1893
-17.2271
10.5446
10.6534
11.9085
4.28079
10.75
7.11421
-10.7314
-0.957727
-14.7389
5.74002
-6.56869
-14.4705
20.2106
-16.2408
1.77028
-10.285
-14.0355
24.3206
-16.4938
11.4481
12.5288
18.4777
-19.6093
5.57372
-9.77262
-9.83664
10.6671
-17.2358
7.4269
12.7837
15.5234
2.53413
12.3969
11.088
-18.9993
1.17504
18.2966
-15.8445
3.77553
10.068
-15.4876
0.19707
-10.1341
2.65766
-15.4895
-14.603
16.1873
-20.8993
-12.3646
13.4688
2.59621
-13.7759
-0.582741
-5.07901
-3.06947
-5.30497
-3.29498
-5.64585
-11.1981
-1.98816
-9.20996
5.88035
-6.75767
-4.60584
7.07406
1.53464
-5.13653
5.02587
-5.76425
5.56354
-0.212807
13.0188
15.6542
7.47523
-8.47252
15.9478
-15.4176
23.1789
-29.2385
13.8209
15.5893
-22.7255
-13.6492
2.83601
2.24764
2.74652
13.7177
-14.7997
1.08196
-13.6202
17.7975
-4.17726
-20.0951
6.47491
-6.37739
5.41945
0.506466
5.38884
1.50654
6.95369
-8.46024
-4.41621
-4.47832
-9.03293
-13.7278
22.7607
4.85313
-13.0751
8.22198
-12.2392
17.0923
0.194627
-13.2697
17.2791
-10.3254
17.7856
-12.0445
5.74104
12.7379
22.3027
-9.56478
16.0918
-6.5939
6.92123
-16.486
-6.80655
-11.3582
18.2427
-12.9623
14.7326
-1.01558
15.7482
-13.9218
3.12536
-2.01326
8.64014
8.8459
16.7643
-12.4835
11.9885
-18.5824
-4.49747
-16.0483
-3.26466
0.971583
-13.8852
12.9137
12.2826
-11.311
-3.3933
9.34642
-5.95312
5.95469
-2.9811
-2.9736
-1.94076
-3.2224
1.96378
0.661012
6.6157
0.515953
-3.49705
-2.1029
-1.994
10.4952
8.74414
-4.10663
3.89416
3.86305
-0.623501
1.02763
2.30667
4.89235
-3.86472
0.728344
4.164
-2.43885
4.04834
1.52253
-4.07199
-0.0731086
-3.52454
12.1453
3.31911
-5.65296
1.78824
2.36978
-13.9223
19.4584
-11.2276
-8.2308
21.8281
3.0015
-14.2291
15.9187
-13.3034
7.95103
-14.2368
-6.27803
-19.5814
-12.6611
-10.6949
18.9169
-12.0658
19.8885
3.71619
-20.2237
23.9399
-12.8577
6.47414
-9.7579
11.2804
-4.23461
-5.52329
11.2974
10.2869
-11.0267
-0.754295
0.270685
8.62459
-8.3539
-1.53795
-7.83561
-16.3999
17.8248
-8.26563
17.5785
7.68212
-7.62363
25.2021
6.57538
-14.199
-11.8748
-12.9638
-5.64847
10.5869
-1.92211
-7.62292
-14.3483
7.68553
-0.0343469
-19.2249
22.3408
-3.11593
-12.1926
-1.56444
14.4303
-18.2547
1.96713
-11.316
11.0248
12.4155
12.3811
-20.6569
-0.179058
-12.4471
3.2536
-15.7007
15.3643
-6.87327
17.0691
-15.9827
11.3769
-14.4481
14.0714
-1.6293
14.4177
-9.33652
6.07512
-15.214
-12.3691
14.8746
-8.59305
16.2726
-10.3302
26.6028
-17.35
15.0195
11.5833
-2.88645
-8.80881
-14.5599
11.6734
0.45958
8.87375
17.8084
-10.6942
16.8507
8.87296
-18.6456
-8.36283
-25.8628
7.21719
-13.334
-7.34307
14.5603
11.1346
13.0167
4.72362
-11.7702
17.3947
-19.105
-5.66242
-8.94055
15.0933
-3.41981
10.1916
-19.1322
-5.29782
13.13
-0.365543
-12.7644
2.80327
-15.1678
5.22248
-20.3903
15.6768
-16.2596
1.83476
-8.21216
-3.30177
-3.4153
-2.22229
-3.54196
-7.80288
5.58059
-1.32797
3.6979
-12.6893
12.3237
-5.10821
10.6888
-4.1835
-1.12147
4.35197
1.21157
11.9004
2.96291
-16.6121
-9.31794
14.8036
-5.48569
1.17731
-10.9223
3.8813
7.97795
13.8502
-24.3101
1.58456
-15.0275
-4.23705
6.48469
5.10937
17.392
2.5923
6.84778
-0.363083
9.44008
2.38344
2.30592
-11.1916
12.2735
1.72207
15.5429
-1.92647
7.66751
3.46236
3.47063
2.14422
5.83592
3.00999
8.96127
0.501036
-3.97728
2.15179
-4.14578
-1.34526
-4.19654
-0.4051
3.86714
-4.27224
10.7733
-2.02915
5.28759
-2.01339
-5.22923
7.24262
-9.70029
-5.85273
-1.68873
-5.8551
7.64334
6.29018
-5.95461
-3.74568
2.40018
-15.0612
11.8366
-12.5909
-2.30404
21.6358
-9.69269
1.33879
-3.21855
-6.49682
-7.98878
8.06189
24.1927
1.00939
12.2742
18.8342
11.754
1.05979
12.0704
-15.9379
-10.5617
-16.1169
-0.75262
13.6777
5.64071
20.2899
17.224
13.8042
-5.32797
-24.433
20.5326
-8.25904
16.3553
-3.59089
-16.7994
14.4652
8.71367
-17.0615
0.80186
-15.9976
-24.2566
-0.426352
12.7501
-11.474
10.3526
7.28308
1.92688
-2.53484
-0.880459
2.65339
-0.347463
9.09262
-0.168045
-8.54698
8.71503
-3.6991
2.35383
-0.563113
4.45727
6.67951
4.65036
-3.89662
-8.16887
-8.85578
-5.06649
-17.0866
2.52198
-8.81216
5.93358
-3.57974
2.95998
5.13528
10.4229
-1.66364
-9.64739
7.61676
-4.65678
5.76609
)
;

boundaryField
{
    wall-4
    {
        type            calculated;
        value           uniform 0;
    }
    velocity-inlet-5
    {
        type            calculated;
        value           uniform -11.2529;
    }
    velocity-inlet-6
    {
        type            calculated;
        value           uniform -1.87548;
    }
    pressure-outlet-7
    {
        type            calculated;
        value           nonuniform List<scalar> 8(4.56503 4.93134 11.3676 11.8008 17.1674 15.4853 17.0424 15.165);
    }
    wall-8
    {
        type            calculated;
        value           uniform 0;
    }
    frontAndBackPlanes
    {
        type            empty;
        value           nonuniform List<scalar> 0();
    }
}


// ************************************************************************* //
