/*--------------------------------*- C++ -*----------------------------------*\
  =========                 |
  \\      /  F ield         | OpenFOAM: The Open Source CFD Toolbox
   \\    /   O peration     | Website:  https://openfoam.org
    \\  /    A nd           | Version:  9
     \\/     M anipulation  |
\*---------------------------------------------------------------------------*/
FoamFile
{
    format      ascii;
    class       volScalarField;
    location    "1.05";
    object      epsilon;
}
// * * * * * * * * * * * * * * * * * * * * * * * * * * * * * * * * * * * * * //

dimensions      [0 2 -3 0 0 0 0];

internalField   nonuniform List<scalar> 
2268
(
0.010745
0.0394704
0.0727218
0.104605
0.136094
0.171723
0.217013
0.278686
0.36458
0.48125
0.616385
0.751984
0.865907
0.941878
0.981015
0.986949
0.970579
0.941752
0.922986
0.85854
0.671458
0.346549
0.0759854
0.0202924
0.0333339
0.0517926
0.0681845
0.0829859
0.0982004
0.116644
0.141705
0.177159
0.22637
0.286237
0.350128
0.409366
0.456889
0.48936
0.503723
0.500959
0.485558
0.468209
0.43431
0.359089
0.226834
0.105212
0.0363809
0.0377736
0.0513542
0.0641777
0.0760162
0.0887824
0.105317
0.128809
0.162269
0.206743
0.259316
0.314115
0.364343
0.405097
0.433547
0.448529
0.451333
0.445558
0.435873
0.413645
0.359394
0.260242
0.156002
0.0534867
0.0431054
0.0534931
0.0647787
0.0762296
0.0899066
0.108931
0.13661
0.175462
0.224969
0.280882
0.336515
0.385454
0.423945
0.450551
0.466158
0.473414
0.475464
0.473597
0.46034
0.417441
0.332512
0.228453
0.0704373
0.0486026
0.0564631
0.067094
0.079394
0.0956975
0.119538
0.154468
0.202457
0.261312
0.324754
0.384765
0.435078
0.473016
0.498924
0.515894
0.528181
0.538437
0.54478
0.540156
0.508811
0.44397
0.343478
0.0866822
0.0540951
0.0598905
0.070499
0.084602
0.104961
0.135672
0.180566
0.240815
0.312019
0.385354
0.451368
0.504195
0.542498
0.568689
0.588129
0.60657
0.625644
0.639665
0.642277
0.623478
0.598193
0.576167
0.102263
0.0595393
0.0636718
0.0748342
0.0916611
0.117551
0.15733
0.215029
0.290532
0.37646
0.461071
0.533694
0.589528
0.628966
0.656627
0.67997
0.70576
0.733541
0.752664
0.75784
0.746967
0.782448
1.03219
0.117228
0.0649338
0.0677772
0.0800756
0.100614
0.133698
0.185035
0.25864
0.352342
0.454853
0.551331
0.630403
0.689551
0.731159
0.762004
0.791085
0.825181
0.860248
0.879027
0.877337
0.858908
0.945134
1.90808
0.229457
0.342532
0.747572
1.29491
1.91109
2.55873
3.0324
3.07723
2.73881
2.46486
2.23621
1.93686
1.5774
1.29283
1.07869
0.815478
0.541258
0.280772
0.0686871
0.267839
0.406254
0.673921
0.891723
1.05949
1.22677
1.37697
1.41182
1.32048
1.21655
1.11113
0.973753
0.815412
0.678847
0.564618
0.441352
0.313532
0.189694
0.0874313
0.415282
0.456856
0.65483
0.799885
0.899783
1.01073
1.12719
1.17047
1.11875
1.05165
0.983021
0.884834
0.75942
0.637387
0.530468
0.425046
0.318369
0.213204
0.131784
0.547882
0.492995
0.647823
0.770526
0.85327
0.946034
1.06171
1.11523
1.07795
1.03182
0.990458
0.917073
0.803621
0.679613
0.56676
0.461478
0.359009
0.258821
0.195593
0.653203
0.52092
0.644717
0.76263
0.838956
0.920106
1.03005
1.09823
1.08047
1.05256
1.03581
0.981924
0.874838
0.746297
0.626334
0.516724
0.4121
0.313627
0.28165
0.736168
0.542403
0.642362
0.760139
0.829676
0.901636
0.995678
1.07311
1.0901
1.08323
1.08836
1.05091
0.947928
0.818331
0.695588
0.581042
0.471824
0.374882
0.387582
0.814002
0.563123
0.642916
0.754519
0.819462
0.885722
0.968593
1.04837
1.09481
1.10569
1.12154
1.0983
1.00805
0.887541
0.76905
0.650964
0.535977
0.44137
0.503689
0.958753
0.586329
0.65067
0.74811
0.811653
0.875786
0.951514
1.0342
1.08904
1.11252
1.13149
1.11465
1.04052
0.94587
0.844361
0.725559
0.598935
0.505909
0.61738
0.140883
0.0733151
0.0746794
0.0897184
0.117791
0.165143
0.238932
0.341851
0.466774
0.59623
0.711573
0.80173
0.867897
0.915826
0.956113
0.998336
1.04658
1.08577
1.08661
1.04735
0.97485
0.928383
1.03582
0.160745
0.0817867
0.0838969
0.105638
0.149537
0.226964
0.34741
0.506616
0.684405
0.853544
0.992573
1.09505
1.16804
1.2259
1.29096
1.36801
1.44027
1.44534
1.39768
1.31893
1.1897
1.05484
0.964269
0.172421
0.0883966
0.0933733
0.124983
0.191931
0.314028
0.502155
0.735804
0.971944
1.17691
1.33399
1.44719
1.53029
1.60805
1.7236
1.89715
2.02995
1.95087
1.85545
1.73817
1.53673
1.32036
1.15548
0.174291
0.0930438
0.102577
0.146773
0.244703
0.429915
0.713576
1.04397
1.33462
1.55552
1.70114
1.81958
1.95077
2.09496
2.263
2.49082
2.65495
2.65429
2.64895
2.42537
2.04065
1.66498
1.39537
0.170555
0.0969684
0.111395
0.16957
0.305554
0.575583
0.992534
1.43876
1.72063
1.84383
1.92922
2.04299
2.2164
2.48536
2.98978
3.59268
3.83691
3.53703
3.64211
3.52496
2.71122
2.04984
1.63267
0.173387
0.103179
0.121561
0.193889
0.37388
0.755216
1.35747
1.91463
1.9577
1.89844
1.94172
2.06431
2.24919
2.52548
2.99996
3.66547
4.13974
4.29593
4.04684
3.89193
3.26251
2.3876
1.81395
0.193567
0.114274
0.137521
0.229193
0.46405
1.00126
1.85596
2.2042
1.94412
1.85314
1.89562
2.01952
2.16321
2.33324
2.59612
2.94758
3.33189
3.79739
4.09915
3.90784
3.28602
2.46356
1.87616
0.233274
0.131817
0.161911
0.278454
0.567409
1.11824
1.7155
1.89663
1.83479
1.79288
1.85759
1.96794
2.0669
2.12306
2.22457
2.39853
2.62167
2.89911
3.20781
3.2827
2.85439
2.20114
1.7722
0.283641
0.154097
0.196264
0.329674
0.592887
0.980235
1.37307
1.57266
1.62837
1.67304
1.73315
1.79226
1.85007
1.89845
1.95607
2.04307
2.14927
2.27614
2.38787
2.36449
2.15366
1.82557
1.58971
0.348531
0.179703
0.218302
0.339965
0.554749
0.843614
1.12694
1.30595
1.4019
1.4802
1.54081
1.58924
1.63536
1.68728
1.75587
1.82548
1.88383
1.95876
2.00139
1.89521
1.71274
1.53895
1.41429
0.369045
0.180814
0.215374
0.320367
0.494458
0.717175
0.931839
1.08412
1.18865
1.28032
1.35284
1.40622
1.4511
1.5001
1.55758
1.60687
1.63737
1.66104
1.67537
1.59118
1.45402
1.34141
1.26401
0.347787
0.167847
0.196306
0.282467
0.42072
0.595284
0.766317
0.897148
0.99544
1.0844
1.16024
1.21793
1.26263
1.30433
1.34666
1.38108
1.40053
1.4037
1.38642
1.33181
1.25656
1.18475
1.12724
0.302605
0.147192
0.169047
0.236587
0.343719
0.480392
0.620079
0.735258
0.825047
0.904336
0.973997
1.02943
1.07149
1.10598
1.1366
1.16128
1.17822
1.18431
1.17604
1.14513
1.09784
1.04814
1.00577
0.25115
0.125357
0.140891
0.191674
0.272431
0.37776
0.491366
0.59284
0.675071
0.744195
0.803921
0.852306
0.888885
0.916439
0.938084
0.955132
0.969331
0.978893
0.980232
0.967446
0.942156
0.913021
0.888012
0.206493
0.107157
0.116819
0.153552
0.21281
0.29224
0.383029
0.469177
0.542215
0.603118
0.654052
0.694797
0.725196
0.746723
0.761762
0.772654
0.782437
0.792175
0.798645
0.79831
0.791065
0.781289
0.774339
0.177111
0.0951459
0.0991342
0.124854
0.167527
0.225886
0.294753
0.364531
0.427478
0.481094
0.525345
0.560165
0.58569
0.602954
0.613826
0.620644
0.626303
0.634291
0.642168
0.64839
0.652644
0.65685
0.664041
0.159245
0.0880942
0.0877238
0.105021
0.134936
0.176506
0.227009
0.281023
0.332816
0.378819
0.417429
0.447958
0.470352
0.485324
0.494319
0.499355
0.503013
0.508675
0.515878
0.524263
0.533813
0.545443
0.560796
0.148207
0.0840489
0.0807725
0.0919681
0.112589
0.141689
0.177841
0.218117
0.258801
0.29671
0.329703
0.35655
0.376802
0.390766
0.399433
0.404356
0.407598
0.411884
0.417944
0.426133
0.436821
0.450706
0.468839
0.141104
0.0815575
0.0765572
0.0835624
0.0976946
0.117972
0.143563
0.172894
0.203733
0.233751
0.261
0.284108
0.30235
0.315659
0.324578
0.330161
0.333906
0.337821
0.343056
0.35028
0.360115
0.373299
0.390712
0.135949
0.0795758
0.0736691
0.0779346
0.0876879
0.101927
0.120081
0.141269
0.16418
0.187279
0.209082
0.228384
0.244402
0.256841
0.265893
0.272176
0.276682
0.280796
0.285647
0.291938
0.300374
0.311718
0.326807
0.131465
0.0774836
0.0711648
0.0737007
0.08057
0.090764
0.103828
0.119227
0.136182
0.153724
0.170824
0.18656
0.200242
0.211499
0.220308
0.226969
0.232084
0.23655
0.241292
0.246916
0.254075
0.263488
0.275934
0.126946
0.0750107
0.0685519
0.0700077
0.0749978
0.0825108
0.0921449
0.103539
0.116214
0.129561
0.1429
0.155577
0.167051
0.176972
0.185216
0.191889
0.197319
0.202059
0.206794
0.211992
0.218191
0.22601
0.236138
0.1221
0.0721237
0.065672
0.0664426
0.0701989
0.0759321
0.0832634
0.0919224
0.101597
0.111898
0.122386
0.132611
0.142179
0.1508
0.158323
0.164749
0.170236
0.175109
0.179844
0.184776
0.19032
0.196977
0.20532
0.116909
0.0689249
0.0625652
0.0628869
0.0658119
0.0703445
0.0761176
0.0829085
0.0904993
0.0986358
0.107029
0.115378
0.123404
0.130883
0.137672
0.143726
0.149106
0.153996
0.158712
0.163481
0.168611
0.174487
0.181571
0.11152
0.0655775
0.0593647
0.0593825
0.0617259
0.0654244
0.0701212
0.0756208
0.08176
0.0883654
0.0952445
0.102195
0.109023
0.115561
0.121689
0.127346
0.132544
0.137387
0.142071
0.146748
0.151639
0.157033
0.163296
0.106159
0.0622571
0.056228
0.0560357
0.0579557
0.0610526
0.0649823
0.0695679
0.0746798
0.0801938
0.0859786
0.0918968
0.0978129
0.103605
0.109177
0.114468
0.119459
0.124237
0.128894
0.133532
0.138308
0.143441
0.149213
0.101062
0.0591236
0.0532984
0.0529601
0.0545611
0.0572072
0.0605697
0.0644872
0.0688524
0.0735729
0.0785566
0.0837085
0.0889339
0.0941441
0.0992641
0.104239
0.109045
0.113752
0.11839
0.123027
0.127776
0.1328
0.138318
0.0964465
0.0563068
0.0506891
0.0502488
0.0516032
0.0538999
0.0568278
0.0602391
0.0640434
0.0681701
0.0725528
0.0771253
0.0818207
0.086575
0.0913303
0.0960408
0.100698
0.105334
0.10996
0.114619
0.119392
0.124404
0.129828
0.0924879
0.0539028
0.0484787
0.0479656
0.049125
0.0511438
0.0537281
0.056743
0.0601114
0.0637784
0.0676959
0.0718174
0.0760961
0.0804854
0.0849415
0.0894277
0.0939612
0.0985317
0.103145
0.107832
0.112653
0.117707
0.123129
0.0893227
0.0519775
0.0467163
0.0461471
0.0471486
0.0489413
0.0512472
0.0539426
0.0569614
0.0602607
0.063806
0.0675648
0.0715049
0.0755928
0.079795
0.0841021
0.0885112
0.0930094
0.0975993
0.102303
0.10717
0.112278
0.11774
0.0870555
0.0505744
0.0454293
0.0448094
0.0456783
0.0472828
0.0493578
0.0517893
0.0545205
0.0575176
0.0607563
0.0642147
0.0678711
0.0717021
0.0756871
0.0798285
0.0841094
0.0885201
0.0930625
0.0977558
0.102641
0.107785
0.113282
0.0857717
0.049724
0.0446329
0.0439566
0.0447075
0.0461496
0.048028
0.0502368
0.0527266
0.0554709
0.0584528
0.0616579
0.0650713
0.0686764
0.0724734
0.0764481
0.0805878
0.0848855
0.0893443
0.0939822
0.0988368
0.103968
0.109461
0.0855483
0.0494533
0.044338
0.0435875
0.0442232
0.0455175
0.0472228
0.04924
0.0515255
0.0540583
0.056826
0.0598186
0.0630248
0.0664391
0.0700539
0.073856
0.077835
0.081986
0.086314
0.0908378
0.0955939
0.10064
0.106053
0.0864549
0.0497909
0.0445557
0.043698
0.0442081
0.0453579
0.0469049
0.0487557
0.0508713
0.0532336
0.0558312
0.0586541
0.0616923
0.0649377
0.068377
0.0719982
0.075792
0.079756
0.0838972
0.0882362
0.0928107
0.0976774
0.102913
0.0885384
0.0507641
0.0452938
0.0442787
0.0446382
0.0456364
0.0470343
0.048744
0.05073
0.0529726
0.0554556
0.0581619
0.0610736
0.0641725
0.0674427
0.0708715
0.0744516
0.0781826
0.0820744
0.0861502
0.0904495
0.0950303
0.0999697
0.0917881
0.0523845
0.0465474
0.045306
0.045476
0.0463077
0.0475662
0.0491701
0.0510851
0.0532838
0.0557324
0.0583914
0.0612237
0.0642016
0.0673063
0.0705266
0.0738583
0.0773053
0.0808808
0.0846111
0.0885378
0.0927201
0.0972359
0.096085
0.054623
0.0482793
0.0467287
0.0466606
0.0473097
0.0484484
0.0500061
0.0519493
0.0542281
0.0567622
0.0594642
0.0622723
0.0651508
0.0680839
0.0710685
0.0741086
0.0772145
0.0804048
0.0837086
0.0871688
0.0908446
0.0948127
0.101152
0.0573787
0.0503987
0.048452
0.0480972
0.0485563
0.0496183
0.0512369
0.0533847
0.0559607
0.0587569
0.0616136
0.0644452
0.0672244
0.0699559
0.0726571
0.0753479
0.0780493
0.0807854
0.0835879
0.0864992
0.0895755
0.0928892
0.10653
0.060453
0.0527409
0.0503256
0.0496493
0.049931
0.0509978
0.0528664
0.0555473
0.0588139
0.0621257
0.0652353
0.0680867
0.0707106
0.0731644
0.0755027
0.0777683
0.0799943
0.0822102
0.0844478
0.0867461
0.089155
0.0917375
0.111585
0.0635381
0.0550559
0.0521374
0.051136
0.0512817
0.0524827
0.0549205
0.0587899
0.0635044
0.0676136
0.0709447
0.0736688
0.0759734
0.0780039
0.0798599
0.0816051
0.0832805
0.0849163
0.0865407
0.0881856
0.0898903
0.0917042
0.115588
0.0662152
0.0570063
0.0536204
0.0523388
0.0524148
0.0539057
0.0574222
0.0641279
0.071574
0.0764487
0.0795651
0.0817424
0.083414
0.0848017
0.0860229
0.087141
0.0881917
0.0891978
0.0901788
0.0911555
0.0921534
0.0932037
0.11777
0.0678655
0.058169
0.0544783
0.0530272
0.053096
0.0549523
0.0603192
0.0769588
0.0864504
0.0902302
0.0918625
0.0927692
0.0933978
0.0938984
0.0943303
0.0947203
0.0950816
0.095422
0.095748
0.0960668
0.0963872
0.0967203
1.78311
1.34232
1.21763
1.34569
0.94172
0.907977
0.885268
0.862216
1.07281
1.03372
1.00736
0.990878
1.26436
1.20448
1.16517
1.14406
1.44929
1.36824
1.31622
1.2873
1.58707
1.49059
1.43147
1.4007
1.64669
1.54945
1.48968
1.46119
1.59959
1.53003
1.48379
1.45085
1.48951
1.44408
1.40275
1.37086
1.35376
1.32139
1.29321
1.27117
1.22385
1.20014
1.17915
1.16263
1.09283
1.07408
1.05841
1.04599
0.98092
0.967757
0.957392
0.950099
0.875491
0.869944
0.867006
0.86684
0.774281
0.776361
0.780696
0.787447
0.673743
0.681996
0.692211
0.704521
0.576294
0.588435
0.602345
0.618116
0.486298
0.499877
0.515137
0.532151
0.407418
0.420523
0.435237
0.451631
0.341361
0.352901
0.365923
0.380506
0.287962
0.29757
0.30847
0.320749
0.245856
0.253635
0.262482
0.272488
0.213185
0.219455
0.226577
0.234634
0.188075
0.193209
0.199006
0.20554
0.168866
0.173202
0.178052
0.183477
0.154187
0.158
0.162213
0.166877
0.142947
0.146439
0.150251
0.154424
0.134283
0.137598
0.141177
0.145053
0.127521
0.130751
0.134207
0.137917
0.122127
0.125323
0.12872
0.13234
0.11768
0.120859
0.124223
0.12779
0.11385
0.117001
0.120326
0.123841
0.110384
0.113475
0.116732
0.12017
0.107111
0.110091
0.11323
0.116543
0.103941
0.106746
0.109703
0.112825
0.100877
0.103436
0.106136
0.108991
0.0980199
0.100261
0.10263
0.10514
0.0955701
0.0974329
0.0994042
0.101498
0.0938248
0.0952663
0.0967933
0.0984182
0.0931651
0.0941672
0.0952293
0.0963611
0.0940443
0.0946166
0.095223
0.09587
0.0969848
0.0971635
0.0973529
0.0975553
0.686338
0.616339
0.680836
0.747708
0.811428
0.874646
0.94307
1.02483
1.07356
1.10581
1.13546
1.12495
1.06497
1.00514
0.960883
0.835356
0.673512
0.609741
0.886085
0.783711
0.737748
0.797284
0.848177
0.882646
0.927682
0.978075
1.04549
1.08656
1.11625
1.16752
1.16587
1.09649
1.03898
0.998947
0.866822
0.750417
0.764198
1.29002
0.975551
0.979041
1.06181
1.13196
1.08742
1.05978
1.06927
1.11937
1.17982
1.19728
1.29477
1.31755
1.18961
1.08144
1.01906
0.926971
0.854086
0.911768
1.63429
1.13698
1.19119
1.29197
1.36492
1.30033
1.23275
1.20251
1.23724
1.26578
1.33269
1.57896
1.68927
1.37832
1.19337
1.1466
1.0428
0.965303
1.04855
1.87745
1.27079
1.30741
1.37812
1.43865
1.43936
1.40157
1.34024
1.31067
1.34572
1.44933
1.85999
2.16545
1.61874
1.33028
1.22659
1.12122
1.05924
1.1582
2.07475
1.38615
1.43015
1.4973
1.55162
1.58155
1.57218
1.46621
1.38934
1.35251
1.41401
1.68224
1.9904
1.74679
1.42436
1.28441
1.18257
1.13184
1.21879
2.11797
1.45477
1.51187
1.58008
1.62123
1.61896
1.54782
1.42502
1.36322
1.32596
1.35662
1.50339
1.68742
1.6569
1.53177
1.41211
1.28237
1.20873
1.24264
1.97514
1.42885
1.45379
1.4884
1.50675
1.47621
1.40164
1.33381
1.30008
1.29069
1.31964
1.41117
1.54556
1.62269
1.68602
1.63124
1.42601
1.29192
1.25003
1.74415
1.34197
1.33814
1.34367
1.34441
1.32702
1.29055
1.26059
1.25538
1.2729
1.31901
1.39862
1.54355
1.71764
1.86462
1.74795
1.46447
1.26688
1.19663
1.49843
1.24788
1.23686
1.23274
1.23141
1.23087
1.2304
1.22967
1.24757
1.28195
1.34402
1.42627
1.57475
1.78671
1.90197
1.7231
1.41151
1.18872
1.1135
1.23508
1.14468
1.13614
1.13522
1.14148
1.15601
1.18066
1.21132
1.25176
1.29626
1.36147
1.44418
1.55857
1.69936
1.73104
1.55101
1.26702
1.05462
0.969538
0.98493
1.03221
1.02862
1.03721
1.05751
1.09121
1.13887
1.19307
1.24749
1.3015
1.36071
1.42276
1.48893
1.54189
1.50571
1.35129
1.16457
1.04832
0.977438
0.854537
0.943971
0.951813
0.973741
1.00847
1.05564
1.11424
1.17942
1.2448
1.30493
1.35604
1.39665
1.42473
1.42674
1.37436
1.27258
1.17236
1.09954
1.01739
0.958473
0.871188
0.892598
0.928128
0.975965
1.03453
1.10177
1.17331
1.24354
1.30565
1.35262
1.38158
1.3925
1.38042
1.33761
1.26822
1.18294
1.07769
0.978234
1.06035
0.802648
0.837691
0.885633
0.944402
1.01155
1.08395
1.1573
1.22681
1.28653
1.3299
1.35342
1.35859
1.34417
1.3062
1.24043
1.14226
1.01758
0.93039
1.12492
0.728865
0.774744
0.832024
0.898389
0.970605
1.04469
1.11624
1.18087
1.23373
1.26998
1.28758
1.28745
1.26853
1.22659
1.15551
1.05263
0.941377
0.879984
1.16263
0.647739
0.699769
0.76227
0.832411
0.906339
0.979373
1.04668
1.10397
1.14738
1.17408
1.18354
1.17603
1.15052
1.10386
1.03309
0.941972
0.857746
0.826586
1.178
0.563651
0.616151
0.679196
0.749334
0.821997
0.892052
0.954188
1.00398
1.0383
1.05582
1.05734
1.04309
1.01295
0.966025
0.902701
0.8343
0.778332
0.776367
1.18077
0.481976
0.531429
0.590158
0.656467
0.725306
0.790979
0.847973
0.891744
0.919411
0.930477
0.926896
0.909258
0.878889
0.837248
0.787844
0.741876
0.710979
0.735479
1.18453
0.407644
0.451589
0.503843
0.562849
0.625244
0.685536
0.73763
0.777074
0.801085
0.809433
0.804466
0.787591
0.761235
0.728182
0.695247
0.668107
0.657742
0.703304
1.18525
0.343747
0.381025
0.425679
0.476477
0.530677
0.58398
0.631343
0.667736
0.690423
0.699165
0.696123
0.68344
0.664135
0.642381
0.623538
0.611835
0.616846
0.677351
1.17959
0.291319
0.321926
0.358907
0.401418
0.44738
0.493421
0.535348
0.569025
0.591682
0.602707
0.603767
0.597354
0.586691
0.576116
0.56907
0.569292
0.585549
0.656046
1.16851
0.249821
0.27452
0.304563
0.339457
0.377729
0.416859
0.45357
0.484535
0.507321
0.521166
0.527219
0.527808
0.525956
0.524961
0.527542
0.536902
0.561173
0.637758
1.15161
0.21783
0.237739
0.26202
0.290444
0.322042
0.355025
0.386965
0.415303
0.438057
0.45445
0.465298
0.472433
0.478271
0.485238
0.49548
0.511704
0.541456
0.621066
1.1281
0.193622
0.209902
0.229706
0.252983
0.279142
0.306977
0.334774
0.360657
0.383098
0.401417
0.416218
0.428735
0.440803
0.454083
0.470189
0.49137
0.524629
0.604925
1.09763
0.175526
0.189204
0.205712
0.225107
0.247061
0.270803
0.295174
0.318858
0.340726
0.360366
0.378028
0.394563
0.411286
0.429257
0.449581
0.474095
0.509321
0.588636
1.06108
0.162085
0.173987
0.188179
0.204771
0.223612
0.244234
0.265888
0.287692
0.30888
0.3292
0.348711
0.367964
0.387802
0.408968
0.432023
0.45847
0.494433
0.571761
1.02195
0.152098
0.162847
0.175474
0.190118
0.206733
0.225055
0.24462
0.264857
0.285335
0.305815
0.326316
0.347159
0.368827
0.39178
0.416272
0.443472
0.479199
0.554246
0.987356
0.1446
0.154632
0.166244
0.179575
0.194642
0.21131
0.229304
0.248278
0.267995
0.288264
0.309079
0.330603
0.353053
0.376593
0.401452
0.428506
0.463373
0.536334
0.959722
0.138818
0.148424
0.159394
0.171861
0.185872
0.201367
0.218191
0.236144
0.255081
0.274875
0.295502
0.317012
0.339437
0.362744
0.387005
0.413318
0.447047
0.518045
0.932992
0.134139
0.143485
0.15405
0.165951
0.179245
0.19391
0.209856
0.226964
0.245137
0.26429
0.284383
0.305384
0.327209
0.349705
0.372874
0.397819
0.43032
0.499298
0.90308
0.130078
0.139236
0.149519
0.161031
0.173825
0.187893
0.203171
0.219572
0.237021
0.255448
0.274793
0.294973
0.315833
0.337168
0.358973
0.382404
0.413284
0.480196
0.871666
0.126259
0.135221
0.145256
0.156459
0.168875
0.182493
0.197251
0.213063
0.22985
0.247536
0.266039
0.285239
0.304947
0.324957
0.345306
0.367212
0.396429
0.460918
0.841246
0.122407
0.131099
0.140846
0.151738
0.163814
0.177059
0.1914
0.206727
0.22294
0.239939
0.25761
0.2758
0.294313
0.312973
0.331891
0.35235
0.379957
0.44137
0.808113
0.118357
0.126646
0.135993
0.146492
0.158191
0.171071
0.185051
0.199993
0.215752
0.232185
0.24913
0.266396
0.283785
0.30117
0.318756
0.337901
0.364067
0.422685
0.772897
0.11406
0.121766
0.130535
0.140482
0.151678
0.164124
0.177746
0.192388
0.207843
0.223908
0.240335
0.256871
0.273308
0.289577
0.305999
0.324042
0.349142
0.406283
0.747079
0.109606
0.116514
0.124471
0.133628
0.144099
0.155939
0.16912
0.183511
0.198845
0.21483
0.231068
0.247183
0.262934
0.27832
0.293802
0.31103
0.335599
0.392701
0.731385
0.105233
0.111119
0.117998
0.126058
0.135477
0.146402
0.158925
0.173031
0.188453
0.20478
0.221309
0.237433
0.252853
0.267644
0.282449
0.299189
0.323835
0.381955
0.720858
0.101325
0.105991
0.111531
0.118156
0.126107
0.135653
0.147092
0.160708
0.176462
0.193758
0.211256
0.227936
0.243428
0.257936
0.272336
0.288912
0.314252
0.374577
0.7171
0.098391
0.101706
0.105702
0.110583
0.116618
0.124179
0.133834
0.146467
0.16293
0.182137
0.201476
0.219297
0.235233
0.249727
0.263959
0.280636
0.307143
0.371459
0.728605
0.0970328
0.0989608
0.101316
0.104252
0.10799
0.112911
0.119794
0.130512
0.148804
0.171115
0.19309
0.212441
0.229017
0.243642
0.257855
0.274806
0.302792
0.373242
0.764918
0.0979204
0.098534
0.0992917
0.10025
0.101501
0.103239
0.10607
0.112726
0.137418
0.163323
0.187746
0.208391
0.2255
0.240272
0.254532
0.271815
0.301574
0.3815
0.828276
)
;

boundaryField
{
    leftWall
    {
        type            epsilonWallFunction;
        value           nonuniform List<scalar> 
50
(
0.010745
0.0202924
0.0363809
0.0534867
0.0704373
0.0866822
0.102263
0.117228
0.140883
0.160745
0.172421
0.174291
0.170555
0.173387
0.193567
0.233274
0.283641
0.348531
0.369045
0.347787
0.302605
0.25115
0.206493
0.177111
0.159245
0.148207
0.141104
0.135949
0.131465
0.126946
0.1221
0.116909
0.11152
0.106159
0.101062
0.0964465
0.0924879
0.0893227
0.0870555
0.0857717
0.0855483
0.0864549
0.0885384
0.0917881
0.096085
0.101152
0.10653
0.111585
0.115588
0.11777
)
;
    }
    rightWall
    {
        type            epsilonWallFunction;
        value           nonuniform List<scalar> 
50
(
0.0686871
0.0874313
0.131784
0.195593
0.28165
0.387582
0.503689
0.61738
0.886085
1.29002
1.63429
1.87745
2.07475
2.11797
1.97514
1.74415
1.49843
1.23508
0.98493
0.854537
0.958473
1.06035
1.12492
1.16263
1.178
1.18077
1.18453
1.18525
1.17959
1.16851
1.15161
1.1281
1.09763
1.06108
1.02195
0.987356
0.959722
0.932992
0.90308
0.871666
0.841246
0.808113
0.772897
0.747079
0.731385
0.720858
0.7171
0.728605
0.764918
0.828276
)
;
    }
    lowerWall
    {
        type            epsilonWallFunction;
        value           nonuniform List<scalar> 
62
(
0.010745
0.0394704
0.0727218
0.104605
0.136094
0.171723
0.217013
0.278686
0.36458
0.48125
0.616385
0.751984
0.865907
0.941878
0.981015
0.986949
0.970579
0.941752
0.922986
0.85854
0.671458
0.346549
0.0759854
0.0759854
0.105212
0.156002
0.228453
0.343478
0.576167
1.03219
1.90808
1.78311
1.34232
1.21763
1.34569
0.229457
0.267839
0.415282
0.547882
0.653203
0.736168
0.814002
0.958753
0.229457
0.342532
0.747572
1.29491
1.91109
2.55873
3.0324
3.07723
2.73881
2.46486
2.23621
1.93686
1.5774
1.29283
1.07869
0.815478
0.541258
0.280772
0.0686871
)
;
    }
    atmosphere
    {
        type            inletOutlet;
        inletValue      uniform 0.1;
        value           nonuniform List<scalar> 
46
(
0.11777
0.0678655
0.058169
0.0544783
0.0530272
0.053096
0.0549523
0.0603192
0.1
0.1
0.1
0.1
0.1
0.1
0.1
0.1
0.1
0.1
0.1
0.1
0.1
0.1
0.1
0.1
0.1
0.1
0.1
0.1
0.1
0.1
0.1
0.1
0.1
0.1
0.1
0.137418
0.163323
0.187746
0.208391
0.2255
0.240272
0.254532
0.271815
0.301574
0.3815
0.828276
)
;
    }
    defaultFaces
    {
        type            empty;
    }
}


// ************************************************************************* //
