/*--------------------------------*- C++ -*----------------------------------*\
  =========                 |
  \\      /  F ield         | OpenFOAM: The Open Source CFD Toolbox
   \\    /   O peration     | Website:  https://openfoam.org
    \\  /    A nd           | Version:  9
     \\/     M anipulation  |
\*---------------------------------------------------------------------------*/
FoamFile
{
    format      ascii;
    class       volScalarField;
    location    "4.33";
    object      nut;
}
// * * * * * * * * * * * * * * * * * * * * * * * * * * * * * * * * * * * * * //

dimensions      [0 2 -1 0 0 0 0];

internalField   nonuniform List<scalar> 
2268
(
1.97218e-05
2.25053e-05
2.70024e-05
2.99682e-05
3.21372e-05
3.38086e-05
3.51353e-05
3.62096e-05
3.70948e-05
3.7839e-05
3.84778e-05
3.90386e-05
3.95367e-05
3.9971e-05
4.03083e-05
4.0422e-05
3.9891e-05
3.85178e-05
3.66942e-05
3.51424e-05
3.30824e-05
2.84339e-05
1.61931e-05
4.48982e-05
0.000177774
0.000239273
0.000276197
0.00030195
0.000321354
0.00033662
0.000348957
0.000359132
0.000367655
0.000374855
0.000380958
0.000386075
0.000389868
0.000391813
0.000390789
0.000384001
0.000355459
0.000328679
0.000318351
0.000300733
0.000229664
5.59085e-05
5.32833e-05
0.000293359
0.000431489
0.000517344
0.000577511
0.000622875
0.000658608
0.000687536
0.000711413
0.000731395
0.000748225
0.00076239
0.000774102
0.000782759
0.000787069
0.000784411
0.000768042
0.000721336
0.000670474
0.000627806
0.000557164
0.000389749
6.72802e-05
5.94219e-05
0.00037255
0.000578179
0.000711417
0.000806312
0.000878414
0.000935491
0.000981869
0.00102024
0.00105235
0.00107935
0.00110191
0.00112031
0.0011338
0.00114023
0.00113554
0.00111066
0.00105314
0.000981612
0.000899197
0.000765034
0.000505003
7.66363e-05
6.42214e-05
0.000431418
0.000693893
0.000870158
0.00099783
0.00109569
0.00117357
0.00123706
0.00128967
0.0013337
0.0013706
0.00140121
0.00142586
0.00144338
0.00145113
0.00144408
0.001413
0.00134771
0.00125734
0.00113636
0.000941016
0.000596706
8.467e-05
6.81845e-05
0.000477543
0.000787872
0.0010026
0.00116059
0.00128274
0.00138042
0.00146027
0.00152651
0.0015819
0.00162818
0.00166632
0.00169665
0.00171766
0.00172638
0.00171729
0.00168157
0.00160992
0.00150315
0.00134858
0.00109953
0.000679293
9.24665e-05
7.16134e-05
0.000514819
0.000865797
0.00111481
0.00130063
0.00144544
0.00156177
0.00165711
0.00173624
0.00180236
0.00185744
0.00190258
0.00193812
0.00196236
0.00197206
0.00196158
0.00192252
0.00184573
0.00172594
0.00154508
0.00125365
0.000766196
0.000102244
7.4749e-05
0.000545626
0.000931513
0.00121109
0.00142235
0.00158821
0.001722
0.00183189
0.00192316
0.00199936
0.00206271
0.00211437
0.00215483
0.00218226
0.00219321
0.00218214
0.00214106
0.0020607
0.00193202
0.00173403
0.0014169
0.000880144
0.000120666
1.54993e-05
2.67496e-05
3.11578e-05
3.3078e-05
3.39257e-05
3.41592e-05
3.41276e-05
3.41373e-05
3.44292e-05
3.43694e-05
3.25549e-05
3.0491e-05
3.05515e-05
3.3127e-05
3.52198e-05
3.432e-05
3.19436e-05
2.66869e-05
3.01426e-05
5.46918e-05
0.000223245
0.000291748
0.000322225
0.000331888
0.000333753
0.00033326
0.000335268
0.000337385
0.000331523
0.000313729
0.000275012
0.00026321
0.000308511
0.000312223
0.000291708
0.00024593
0.000155771
6.14465e-05
6.58651e-05
0.000389686
0.000554011
0.000629418
0.000659598
0.000669045
0.000670615
0.000672344
0.000671774
0.000657757
0.000621294
0.000567309
0.000555781
0.000601358
0.000593311
0.000539016
0.000437063
0.000270761
6.56564e-05
7.59858e-05
0.000516068
0.0007694
0.000893814
0.000948454
0.000968251
0.000972678
0.000972417
0.000966741
0.000945076
0.000898894
0.000841848
0.000824791
0.000845274
0.000812541
0.000721364
0.000568367
0.000344158
6.70217e-05
8.60043e-05
0.000620092
0.00095336
0.001124
0.00120252
0.001233
0.00124031
0.00123755
0.00122626
0.00119775
0.00114688
0.00108831
0.00105916
0.00104557
0.000980917
0.000852514
0.000653005
0.000379887
6.65786e-05
9.70388e-05
0.000713759
0.00112032
0.00133079
0.00142982
0.00146968
0.00147934
0.0014739
0.00145712
0.00142239
0.0013681
0.00130592
0.00126068
0.0012111
0.0011119
0.000945672
0.000702872
0.000382112
6.66816e-05
0.000110722
0.000810484
0.00128246
0.00152311
0.0016373
0.00168415
0.00169518
0.0016868
0.00166434
0.00162401
0.00156573
0.00149698
0.0014315
0.00134931
0.00121607
0.00101312
0.000732112
0.000380254
6.70448e-05
0.000132538
0.00093355
0.00145147
0.00170778
0.00183035
0.00188114
0.00189227
0.00188057
0.00185238
0.00180632
0.00174239
0.00166462
0.00157835
0.00146676
0.00130171
0.00106479
0.000751893
0.00038486
6.75537e-05
7.84443e-05
0.000585353
0.00101708
0.00133863
0.00158604
0.00178256
0.00194233
0.00207428
0.00218423
0.0022762
0.00235268
0.0024149
0.00246328
0.0024959
0.00250942
0.00249866
0.0024563
0.00237305
0.0022372
0.00202802
0.00170858
0.00123088
0.000602474
8.2701e-05
0.000625722
0.00110603
0.00147335
0.00176079
0.00199149
0.0021805
0.00233759
0.00246904
0.00257933
0.00267135
0.00274637
0.00280448
0.00284423
0.00286279
0.00285588
0.0028175
0.00273962
0.00261254
0.00242268
0.00215214
0.00178691
0.00134419
8.61871e-05
0.000651494
0.00117868
0.0015857
0.00190608
0.00216408
0.00237675
0.00255502
0.0027049
0.00283134
0.00293767
0.00302503
0.00309314
0.00314129
0.00316716
0.00316751
0.00313808
0.00307252
0.00296497
0.00280943
0.00260214
0.00234997
0.00208129
9.01549e-05
0.000668409
0.00124638
0.00168754
0.00203415
0.00231252
0.00254336
0.00273969
0.00290549
0.00304633
0.00316621
0.00326571
0.0033437
0.00340116
0.00343578
0.00344494
0.00342699
0.00337659
0.00329175
0.00317164
0.00301982
0.00285247
0.00269391
9.53571e-05
0.000748671
0.00133441
0.00178482
0.00214061
0.00243443
0.00268147
0.00289282
0.00307469
0.00323175
0.00336632
0.00347744
0.00356495
0.00363193
0.00367541
0.00369212
0.00368204
0.00364805
0.00358607
0.00349743
0.00338897
0.00327265
0.00316562
9.77791e-05
0.00076862
0.00136054
0.00181771
0.00218985
0.00250767
0.00277757
0.00300886
0.00321093
0.00338553
0.00353538
0.00365957
0.00375863
0.00383487
0.00388655
0.00391035
0.00390998
0.00389237
0.00384775
0.00377913
0.0036987
0.00360585
0.00351677
9.91052e-05
0.000783952
0.00138678
0.00185203
0.00222779
0.00256167
0.00285468
0.00310902
0.00332962
0.00352049
0.00368374
0.00381924
0.00392711
0.00401028
0.00406781
0.0040976
0.00410498
0.00409959
0.00406955
0.00401685
0.00395222
0.00388158
0.00382269
9.67242e-05
0.000781069
0.00140414
0.0018895
0.00228971
0.00264067
0.00294825
0.00321606
0.0034493
0.00365091
0.00382253
0.00396435
0.00407726
0.00416346
0.0042241
0.00426058
0.0042749
0.004276
0.00425867
0.00422371
0.00417563
0.00412487
0.00408238
9.43294e-05
0.000773334
0.00141486
0.00193355
0.00236151
0.00272892
0.00304826
0.00332495
0.00356487
0.00377214
0.00394853
0.00409472
0.00421155
0.00430111
0.00436606
0.00440913
0.00443278
0.00444234
0.00443662
0.00441586
0.00438276
0.00434305
0.00430374
9.3373e-05
0.000775424
0.00144216
0.00198706
0.0024356
0.00281688
0.00314529
0.00342864
0.00367337
0.00388421
0.00406379
0.00421325
0.00433405
0.00442861
0.00449972
0.0045504
0.00458346
0.00460196
0.00460612
0.00459567
0.00457254
0.00454082
0.00450642
9.41918e-05
0.000793806
0.00148337
0.00204452
0.00250899
0.00290172
0.00323769
0.00352639
0.00377497
0.00398872
0.00417082
0.0043234
0.00444862
0.00454888
0.00462686
0.00468537
0.00472699
0.00475388
0.00476653
0.00476494
0.00475042
0.00472617
0.00469669
9.60052e-05
0.000823589
0.00152872
0.00210379
0.00258064
0.00298256
0.00332493
0.00361827
0.00387036
0.00408691
0.00427164
0.00442763
0.00455744
0.0046635
0.00474827
0.00481422
0.00486359
0.00489811
0.0049185
0.00492498
0.00491847
0.00490132
0.00487661
9.8459e-05
0.000847049
0.00157215
0.0021617
0.00264916
0.0030588
0.00340681
0.00370447
0.0039601
0.00417953
0.00436735
0.00452712
0.00466165
0.00477339
0.00486464
0.00493754
0.00499403
0.00503558
0.00506303
0.0050768
0.0050776
0.005067
0.0050471
0.000100619
0.000866249
0.00161145
0.00221539
0.00271281
0.00312958
0.00348295
0.00378494
0.00404416
0.00426698
0.00445845
0.00462242
0.00476185
0.00487923
0.00497669
0.00505617
0.00511933
0.00516749
0.0052015
0.00522191
0.00522932
0.0052248
0.0052098
0.000102215
0.000881885
0.00164505
0.00226276
0.00276995
0.00319386
0.00355278
0.00385931
0.00412253
0.00434939
0.00454514
0.00471377
0.00485838
0.00498145
0.00508502
0.00517086
0.00524045
0.00529495
0.0053352
0.00536181
0.00537534
0.00537654
0.00536646
0.00010324
0.000894015
0.00167217
0.0023025
0.0028193
0.00325062
0.00361542
0.00392699
0.00419499
0.00442663
0.00462731
0.00480115
0.0049513
0.00508024
0.00518995
0.00528209
0.00535798
0.00541869
0.00546502
0.00549758
0.0055169
0.00552358
0.00551837
0.000103787
0.000902389
0.00169245
0.00233398
0.00286005
0.00329887
0.00367009
0.00398753
0.00426115
0.00449835
0.00470465
0.00488426
0.00504036
0.00517544
0.00529143
0.00538989
0.00547207
0.00553895
0.00559128
0.00562966
0.00565458
0.00566656
0.00566615
0.000104016
0.000906675
0.00170574
0.00235681
0.00289156
0.00333813
0.00371642
0.0040405
0.00432053
0.00456405
0.00477666
0.0049626
0.0051251
0.00526662
0.00538907
0.00549395
0.00558244
0.00565547
0.00571376
0.00575787
0.00578829
0.00580545
0.00580977
0.000104077
0.000906888
0.00171227
0.0023713
0.0029141
0.00336847
0.00375425
0.00408559
0.00437273
0.00462324
0.00484277
0.00503558
0.00520488
0.00535314
0.00548223
0.00559362
0.00568845
0.0057676
0.00583179
0.00588156
0.00591736
0.0059396
0.00594861
0.000103884
0.000903896
0.00171287
0.00237815
0.0029282
0.00339018
0.00378368
0.00412272
0.00441751
0.00467557
0.00490254
0.00510264
0.00527908
0.00543429
0.00557015
0.00568808
0.00578921
0.00587443
0.00594441
0.00599972
0.0060408
0.006068
0.00608162
0.000103414
0.000898301
0.0017083
0.00237814
0.00293454
0.0034038
0.00380505
0.00415206
0.00445486
0.00472087
0.00495563
0.00516331
0.00534709
0.00550937
0.00565201
0.00577643
0.00588375
0.00597487
0.00605049
0.00611116
0.00615734
0.00618937
0.0062075
0.00010269
0.000890503
0.0016993
0.00237216
0.00293398
0.00341008
0.00381898
0.00417404
0.00448503
0.00475918
0.00500191
0.00521729
0.00540844
0.00557774
0.00572703
0.00585775
0.00597104
0.00606781
0.0061488
0.00621459
0.00626564
0.00630231
0.00632483
0.000101743
0.000880912
0.00168664
0.00236114
0.00292752
0.00340996
0.00382626
0.00418929
0.00450846
0.00479075
0.0050414
0.00526439
0.00546275
0.00563884
0.00579449
0.00593118
0.00605008
0.00615214
0.00623814
0.00630872
0.00636437
0.00640545
0.0064322
0.000100592
0.000869974
0.00167114
0.00234611
0.00291622
0.00340447
0.00382783
0.00419858
0.00452572
0.00481593
0.00507426
0.00530455
0.00550975
0.00569221
0.00585377
0.00599594
0.00611995
0.00622682
0.00631741
0.00639239
0.00645231
0.00649755
0.00652837
9.92599e-05
0.000858108
0.00165358
0.00232806
0.00290118
0.00339468
0.00382463
0.0042027
0.00453741
0.00483513
0.00510068
0.00533775
0.00554924
0.00573747
0.00590432
0.00605136
0.00617988
0.00629102
0.00638569
0.00646466
0.00652852
0.00657769
0.00661243
9.77632e-05
0.000845716
0.00163474
0.00230796
0.00288342
0.00338157
0.00381757
0.0042024
0.00454411
0.00484873
0.00512085
0.00536402
0.00558108
0.00577434
0.00594574
0.00609693
0.00622932
0.00634413
0.0064424
0.00652496
0.00659248
0.00664541
0.00668402
9.61078e-05
0.000833157
0.00161526
0.00228663
0.00286382
0.00336599
0.00380736
0.00419826
0.00454624
0.00485701
0.0051349
0.00538336
0.00560515
0.00580262
0.00597778
0.00613239
0.00626799
0.00638593
0.00648738
0.00657327
0.00664431
0.00670098
0.00674353
9.42727e-05
0.000820545
0.00159549
0.0022646
0.00284296
0.00334846
0.00379444
0.00419059
0.00454403
0.00486009
0.00514291
0.00539579
0.00562146
0.00582231
0.00600046
0.0061578
0.00629605
0.00641672
0.00652112
0.00661026
0.00668489
0.00674548
0.00679224
9.22698e-05
0.000807345
0.0015751
0.00224186
0.00282091
0.00332904
0.0037788
0.00417935
0.00453739
0.00485794
0.00514487
0.00540136
0.00563012
0.00583362
0.0060141
0.00617367
0.00631421
0.00643746
0.00654483
0.00663742
0.00671598
0.00678094
0.00683245
9.03721e-05
0.00079068
0.00155274
0.00221773
0.00279717
0.00330722
0.00375991
0.00416406
0.00452597
0.00485033
0.00514074
0.00540023
0.00563149
0.0058371
0.0060195
0.00618104
0.00632383
0.00644981
0.00656054
0.00665714
0.00674032
0.00681041
0.00686742
8.86041e-05
0.000774545
0.00153031
0.00219265
0.00277125
0.00328192
0.00373661
0.00414372
0.0045091
0.00483695
0.00513055
0.00539274
0.00562622
0.00583371
0.00601793
0.00618154
0.00632693
0.00645625
0.00657115
0.00667274
0.00676161
0.0068379
0.00690143
8.69617e-05
0.000760615
0.00150868
0.00216607
0.00274178
0.00325167
0.00370759
0.00411739
0.00448626
0.00481776
0.00511468
0.00537965
0.00561541
0.00582492
0.00601127
0.00617749
0.00632631
0.00646008
0.00658046
0.00668848
0.00678447
0.00686831
0.00693953
8.54897e-05
0.000748503
0.00148638
0.00213541
0.00270568
0.00321358
0.00367055
0.00408358
0.00445678
0.00479279
0.00509378
0.00536211
0.00560066
0.00581273
0.00600195
0.00617182
0.00632546
0.00646532
0.00659304
0.00670937
0.0068143
0.00690724
0.00698739
8.42084e-05
0.000736325
0.00145957
0.00209589
0.00265825
0.00316367
0.00362267
0.00404066
0.00442011
0.00476235
0.00506879
0.00534159
0.00558386
0.00579949
0.00599278
0.00616789
0.00632831
0.00647654
0.00661403
0.00674106
0.00685703
0.00696077
0.00705099
8.31025e-05
0.000721294
0.00142261
0.00204098
0.0025936
0.00309748
0.00356112
0.00398729
0.00437608
0.00472714
0.00504103
0.0053198
0.00556708
0.00578763
0.00598669
0.00616917
0.00633898
0.00649855
0.00664888
0.00678952
0.00691895
0.00703519
0.00713638
8.21254e-05
0.000699674
0.0013683
0.00196306
0.00250558
0.003011
0.00348388
0.00392298
0.00432524
0.00468835
0.00501203
0.00529852
0.00555232
0.00577942
0.00598629
0.0061788
0.00636127
0.00653594
0.00670304
0.00686088
0.00700658
0.00713693
0.00724953
8.12162e-05
0.000666309
0.00128827
0.00185474
0.00238938
0.00290196
0.00339059
0.00384859
0.00426908
0.00464766
0.00498347
0.00527936
0.00554115
0.00577648
0.0059934
0.00619895
0.00639805
0.00659261
0.00678164
0.00696144
0.00712678
0.00727263
0.00739623
8.03815e-05
0.000613186
0.00117325
0.00171031
0.00224314
0.00277121
0.00328356
0.00376686
0.00421016
0.00460718
0.00495697
0.0052635
0.00553439
0.00577937
0.00600842
0.00623016
0.00645039
0.00667104
0.00688936
0.00709811
0.00728743
0.00744956
0.0075822
8.07568e-05
0.00052425
0.00101211
0.00152697
0.00206965
0.00262413
0.00316856
0.00368276
0.00415217
0.00456935
0.00493391
0.00525146
0.00553186
0.00578721
0.00602983
0.00627042
0.00651662
0.00677135
0.00703043
0.00728007
0.00749916
0.00767637
0.00781314
9.94302e-05
0.000372141
0.000792926
0.00130689
0.00187845
0.00247209
0.00305561
0.00360374
0.00409996
0.00453686
0.00491537
0.00524314
0.00553239
0.0057977
0.00605389
0.00631445
0.00659051
0.00688913
0.00720812
0.00752366
0.00777886
0.00796401
0.00809424
0.000196712
0.000208863
0.000530242
0.0010669
0.00169114
0.00233506
0.00295984
0.00353977
0.0040593
0.00451252
0.00490219
0.00523797
0.00553418
0.00580749
0.00607502
0.00635347
0.00665945
0.00701034
0.00742009
0.00786779
0.00815567
0.00832502
0.00842809
0.000413354
0.000167774
0.000326839
0.000871486
0.00155562
0.00224568
0.00290151
0.0035025
0.00403635
0.00449914
0.00489515
0.00523539
0.00553546
0.00581326
0.00608737
0.00637681
0.00670362
0.00710051
0.00762961
0.00843031
0.00867466
0.00876586
0.00880929
0.000131506
0.000123339
0.000125312
0.00013503
0.00103299
0.000980938
0.000978061
0.0010314
0.00192812
0.00188221
0.00188406
0.00193471
0.00260832
0.00257729
0.00257371
0.00259713
0.00311643
0.00309478
0.00308402
0.00308242
0.0034983
0.00348315
0.00346931
0.00345689
0.00380302
0.00378884
0.00377501
0.0037584
0.00405566
0.00403887
0.00402315
0.00400691
0.00427741
0.00426078
0.00424479
0.00423027
0.00448142
0.00446533
0.00444968
0.0044351
0.00467294
0.00465727
0.00464138
0.00462562
0.00485432
0.00483907
0.00482303
0.0048064
0.00502683
0.00501241
0.0049967
0.00497981
0.00519204
0.00517884
0.0051639
0.00514732
0.0053515
0.00533977
0.00532594
0.00531008
0.00550635
0.00549624
0.00548375
0.0054689
0.00565715
0.00564876
0.00563775
0.00562413
0.00580381
0.00579721
0.0057878
0.00577558
0.00594572
0.00594095
0.00593322
0.00592253
0.0060818
0.0060789
0.00607292
0.00606385
0.00621075
0.00620973
0.00620553
0.00619815
0.00633111
0.00633196
0.00632957
0.00632392
0.00644144
0.00644415
0.00644357
0.00643969
0.00654051
0.00654507
0.00654631
0.00654421
0.00662745
0.00663385
0.00663693
0.00663667
0.00670193
0.00671022
0.0067152
0.00671686
0.00676446
0.00677473
0.00678173
0.00678543
0.00681645
0.00682888
0.00683808
0.00684402
0.00686033
0.00687518
0.00688684
0.00689528
0.00689953
0.00691714
0.0069316
0.00694286
0.00693842
0.00695919
0.00697681
0.00699124
0.00698211
0.00700644
0.00702759
0.00704548
0.00703621
0.00706445
0.00708939
0.00711098
0.00710653
0.00713888
0.00716773
0.00719304
0.0071988
0.00723522
0.00726783
0.00729663
0.00731843
0.00735852
0.00739437
0.00742606
0.00747043
0.00751326
0.00755133
0.00758482
0.00765931
0.00770321
0.00774178
0.00777539
0.00788888
0.00793114
0.00796763
0.00799899
0.0081616
0.00819817
0.00822905
0.0082551
0.00847682
0.0085024
0.00852345
0.00854084
0.00882757
0.00883681
0.00884422
0.00885023
0.000635264
0.00129882
0.00174484
0.00199252
0.00211679
0.00216891
0.00217816
0.00216056
0.00212321
0.00206699
0.00199113
0.00189536
0.00177674
0.00162189
0.00141118
0.00112865
0.000777145
0.000402191
6.85026e-05
0.00139103
0.00184492
0.00216786
0.00236354
0.00246655
0.00250847
0.00250957
0.00248222
0.00243254
0.00236138
0.00226636
0.00214542
0.00199313
0.00179859
0.00154655
0.00122172
0.000828808
0.000426649
7.07897e-05
0.00210467
0.0023687
0.00257801
0.00271457
0.00278766
0.00281375
0.00280317
0.00276413
0.00270122
0.00261345
0.00250029
0.00235889
0.00218389
0.00196696
0.0016941
0.00134459
0.000913685
0.000459524
7.88429e-05
0.00267445
0.00281721
0.00294505
0.00303313
0.00307731
0.00308799
0.00306441
0.00301191
0.002934
0.00283139
0.00270351
0.00254789
0.00236049
0.00213594
0.00186158
0.00150822
0.00105021
0.000519368
8.93122e-05
0.00310256
0.00317816
0.00325659
0.00331189
0.00333317
0.00333227
0.0032944
0.0032258
0.00313393
0.0030194
0.00288109
0.00271677
0.00252372
0.00229965
0.00203182
0.00169378
0.00125778
0.000702407
9.80433e-05
0.0034488
0.00348152
0.00352161
0.00354681
0.00355469
0.00353973
0.00348928
0.00340802
0.0033034
0.00317622
0.00302533
0.00284867
0.00264324
0.00240415
0.00211851
0.00176969
0.00134413
0.000780925
0.000103726
0.00373993
0.00374767
0.0037604
0.00376332
0.00375215
0.00372147
0.00365846
0.00356605
0.0034501
0.003311
0.00314689
0.00295501
0.00273213
0.00247365
0.0021685
0.00180762
0.00138669
0.00080915
0.000107
0.00398907
0.00398328
0.0039771
0.00396295
0.00393407
0.0038841
0.00380718
0.00370605
0.0035802
0.00342932
0.00325082
0.00304183
0.00279973
0.00252121
0.00219921
0.00182896
0.00139804
0.000807502
0.000104676
0.00421164
0.00419533
0.00417462
0.00414438
0.0040979
0.00403103
0.00394266
0.0038327
0.0036979
0.00353526
0.00334114
0.00311311
0.00284962
0.00254914
0.00220864
0.00182455
0.00137775
0.000787428
9.76743e-05
0.00441306
0.0043865
0.00435415
0.00431052
0.00425044
0.00417136
0.00407257
0.00395305
0.00380861
0.00363322
0.00342233
0.00317365
0.00288632
0.00256098
0.00219789
0.00179389
0.00133194
0.000752164
9.11102e-05
0.00459978
0.00456414
0.00452209
0.00446825
0.00439822
0.00430958
0.00420113
0.00407164
0.00391641
0.00372716
0.00349868
0.00322842
0.00291712
0.00256662
0.00217692
0.00174587
0.00126106
0.000689429
8.44771e-05
0.00477784
0.00473494
0.00468472
0.00462264
0.00454459
0.00444776
0.0043305
0.00419094
0.004024
0.00382049
0.00357536
0.00328717
0.0029554
0.00257979
0.00215985
0.0016944
0.00117728
0.000602617
8.04868e-05
0.00494985
0.00490188
0.0048452
0.00477627
0.00469127
0.00458713
0.00446179
0.0043127
0.00413413
0.00391813
0.00366039
0.00335873
0.00301054
0.00261279
0.00216387
0.0016641
0.00111519
0.000540492
8.11033e-05
0.00511705
0.00506602
0.00500465
0.00493015
0.00483918
0.00472865
0.00459612
0.00443857
0.00425052
0.0040253
0.00375896
0.00344795
0.00308752
0.00267321
0.00220294
0.00167816
0.00110795
0.00053285
8.51297e-05
0.00528033
0.00522785
0.00516337
0.00508467
0.0049889
0.00487314
0.00473473
0.00457049
0.00437554
0.00414416
0.00387233
0.00355548
0.00318788
0.00276475
0.00228402
0.00174617
0.00116008
0.00056412
9.03003e-05
0.00544029
0.00538761
0.00532142
0.00523989
0.00514063
0.00502096
0.0048782
0.00470915
0.00450953
0.00427437
0.0039994
0.00367966
0.00330957
0.0028843
0.00240102
0.00185848
0.00125987
0.000627492
9.57396e-05
0.00559713
0.00554525
0.00547854
0.00539548
0.00529401
0.00517175
0.00502607
0.00485389
0.00465138
0.00441412
0.00413768
0.00381712
0.00344708
0.00302264
0.00253977
0.00199464
0.0013837
0.000711184
0.000100967
0.00575056
0.00570026
0.00563404
0.00555058
0.00544809
0.00532439
0.00517702
0.00500304
0.00479893
0.00456061
0.00428361
0.00396302
0.00359347
0.00316949
0.0026854
0.00213402
0.00150614
0.000793699
0.000105835
0.00589976
0.00585169
0.00578678
0.00570388
0.00560136
0.00547725
0.00532918
0.00515437
0.00494948
0.00471062
0.00443324
0.00411231
0.00374215
0.00331627
0.00282677
0.0022617
0.00160732
0.000849757
0.000110439
0.00604356
0.00599821
0.00593529
0.00585372
0.00575201
0.0056283
0.00548033
0.00530538
0.0051002
0.00486092
0.00458289
0.00426071
0.00388815
0.00345739
0.00295843
0.00237739
0.00169547
0.000894136
0.000113544
0.0061805
0.00613827
0.00607787
0.00599828
0.00589806
0.00577543
0.00562817
0.00545359
0.00524842
0.00500866
0.00472961
0.00440547
0.00402916
0.00359172
0.00308145
0.0024824
0.00177277
0.00093164
0.000115165
0.00630904
0.00627022
0.00621279
0.00613569
0.00603755
0.00591659
0.00577057
0.00559677
0.00539196
0.00515195
0.00487174
0.00454509
0.00416418
0.00371896
0.00319628
0.00257849
0.00184201
0.000965006
0.000115979
0.00642766
0.00639253
0.00633842
0.00626429
0.00616874
0.00604997
0.00590571
0.00573332
0.00552928
0.00528929
0.00500802
0.00467877
0.00429296
0.00383958
0.00330421
0.00266776
0.00190546
0.000995486
0.000116615
0.00653514
0.00650392
0.00645349
0.00638276
0.0062903
0.00617426
0.00603245
0.00586198
0.00565925
0.00541976
0.00513784
0.00480628
0.00441585
0.00395459
0.00340687
0.00275227
0.00196493
0.00102359
0.000117347
0.00663065
0.00660362
0.00655722
0.00649034
0.00640149
0.00628886
0.0061501
0.00598221
0.00578146
0.00554312
0.00526118
0.00492799
0.00453364
0.00406529
0.0035061
0.00283414
0.00202194
0.00104758
0.00011855
0.00671406
0.00669153
0.00664958
0.00658705
0.00650245
0.00639386
0.00625883
0.00609426
0.00589625
0.00565983
0.00537871
0.00504476
0.0046475
0.00417321
0.00360386
0.00291579
0.00207915
0.00106931
0.000120736
0.0067861
0.00676849
0.00673149
0.00667391
0.00659418
0.0064903
0.00635973
0.00619925
0.00600479
0.00577116
0.00549174
0.00515803
0.00475897
0.00428006
0.00370211
0.00299987
0.00214187
0.00110519
0.000123772
0.00684849
0.00683635
0.00680489
0.00675286
0.00667865
0.00658017
0.00645482
0.00629922
0.00610915
0.00587918
0.00560239
0.00526988
0.00487007
0.0043877
0.0038025
0.0030876
0.00220955
0.00114553
0.000127683
0.00690402
0.00689796
0.00687265
0.0068268
0.00675875
0.00666639
0.006547
0.0063971
0.00621227
0.00598683
0.00571354
0.00538311
0.0049834
0.00449844
0.00390683
0.0031799
0.00228127
0.00118477
0.000132079
0.00695637
0.00695704
0.00693849
0.00689943
0.00683818
0.00675261
0.00663994
0.00649656
0.00631784
0.00609782
0.00582891
0.00550132
0.00510235
0.00461526
0.00401756
0.0032787
0.00235902
0.00122791
0.00013672
0.00701004
0.00701805
0.00700679
0.00697503
0.00692114
0.006843
0.00673778
0.00660177
0.0064301
0.0062165
0.00595289
0.00562892
0.00523119
0.0047421
0.00413802
0.00338659
0.00244484
0.00127659
0.000141716
0.00707003
0.00708583
0.00708223
0.00705811
0.00701201
0.00694185
0.00684481
0.00671707
0.00655352
0.0063475
0.00609037
0.005771
0.00537506
0.00488388
0.00427257
0.00350699
0.00254095
0.00133192
0.000147263
0.00714152
0.00716528
0.00716941
0.00715306
0.00711497
0.00705322
0.00696505
0.00684656
0.0066924
0.00649546
0.00624639
0.00593307
0.00553988
0.00504665
0.00442685
0.0036445
0.0026504
0.00139548
0.000153443
0.00722955
0.00726098
0.00727252
0.00726371
0.00723362
0.00718056
0.00710191
0.00699372
0.00685046
0.00666454
0.00642577
0.00612077
0.00573214
0.00523754
0.00460804
0.00380534
0.00277752
0.00146967
0.00016017
0.00733859
0.00737684
0.00739499
0.00739311
0.00737069
0.00732641
0.00725782
0.00716107
0.00703048
0.00685802
0.00663263
0.00633941
0.00595865
0.00546479
0.00482518
0.00399792
0.00292823
0.00155685
0.000167937
0.00747238
0.00751589
0.00753927
0.00754326
0.00752789
0.00749223
0.00743414
0.00734994
0.00723396
0.00707791
0.00686993
0.0065935
0.00622608
0.00573767
0.00508969
0.00423397
0.00311124
0.00165997
0.000177769
0.00763367
0.00768007
0.00770672
0.00771511
0.00770583
0.00767838
0.007631
0.00756034
0.00746097
0.00732459
0.00713892
0.00688605
0.00654037
0.00606624
0.00541611
0.00453051
0.00334095
0.00178572
0.000190191
0.00782406
0.0078702
0.00789764
0.0079086
0.00790415
0.00788422
0.00784748
0.00779105
0.00771003
0.0075966
0.00743868
0.00721773
0.00690565
0.0064606
0.00582274
0.00491312
0.00364228
0.00194614
0.000205898
0.00804385
0.00808588
0.00811131
0.00812279
0.00812172
0.00810836
0.00808182
0.00803983
0.00797833
0.00789056
0.00776561
0.0075858
0.00732243
0.00692891
0.00633143
0.00542087
0.00406187
0.0021664
0.000226946
0.00829181
0.00832559
0.00834613
0.0083561
0.00835691
0.00834897
0.00833177
0.00830376
0.00826198
0.00820133
0.00811322
0.00798295
0.00778485
0.00747291
0.00696396
0.00611224
0.00469486
0.00252069
0.000254796
0.00856494
0.00858669
0.00859993
0.00860666
0.00860794
0.00860413
0.00859503
0.00857978
0.00855667
0.00852268
0.0084725
0.00839667
0.00827744
0.00807955
0.00772879
0.00706239
0.00573587
0.00322956
0.000293206
0.00885845
0.00886578
0.00887025
0.0088726
0.00887323
0.00887227
0.0088697
0.00886526
0.00885844
0.00884833
0.0088333
0.00881032
0.0087735
0.00871003
0.00858829
0.00831576
0.0075711
0.00519253
0.00034428
)
;

boundaryField
{
    leftWall
    {
        type            nutkWallFunction;
        Cmu             0.09;
        kappa           0.41;
        E               9.8;
        value           nonuniform List<scalar> 
50
(
3.66289e-06
5.44343e-06
6.46414e-06
7.19949e-06
7.76834e-06
8.23439e-06
8.63508e-06
8.99983e-06
9.4281e-06
9.91809e-06
1.0328e-05
9.40969e-06
1.01947e-05
1.04957e-05
9.33874e-06
4.48549e-06
3.99569e-06
3.83213e-06
3.9596e-06
4.2484e-06
4.63912e-06
4.98401e-06
5.23911e-06
5.40269e-06
5.49014e-06
5.52781e-06
5.53797e-06
5.50668e-06
5.43038e-06
5.31469e-06
5.16423e-06
4.98142e-06
4.76935e-06
4.53062e-06
4.26587e-06
3.97151e-06
3.6496e-06
3.34446e-06
3.05894e-06
2.79308e-06
2.5545e-06
2.34692e-06
2.16823e-06
2.01131e-06
1.86699e-06
1.73761e-06
1.80828e-06
4.78505e-06
1.93352e-05
4.8757e-05
)
;
    }
    rightWall
    {
        type            nutkWallFunction;
        Cmu             0.09;
        kappa           0.41;
        E               9.8;
        value           nonuniform List<scalar> 
50
(
6.11488e-06
7.42825e-06
7.92773e-06
8.09135e-06
8.04357e-06
8.05951e-06
8.10492e-06
8.16589e-06
8.27572e-06
8.53252e-06
9.47016e-06
6.08879e-06
8.76547e-06
1.03101e-05
9.48333e-06
5.65049e-06
4.547e-06
3.49484e-06
2.42407e-06
1.93916e-06
2.04241e-06
2.58644e-06
3.47085e-06
4.37557e-06
5.20055e-06
5.96207e-06
6.67585e-06
7.02777e-06
7.26004e-06
7.38699e-06
7.4845e-06
7.59597e-06
7.7777e-06
8.18654e-06
8.70171e-06
9.2953e-06
9.96183e-06
1.06488e-05
1.13875e-05
1.22168e-05
1.31222e-05
1.40419e-05
1.51873e-05
1.66524e-05
1.84488e-05
2.06971e-05
2.36726e-05
2.75581e-05
3.28261e-05
3.96839e-05
)
;
    }
    lowerWall
    {
        type            nutkWallFunction;
        Cmu             0.09;
        kappa           0.41;
        E               9.8;
        value           nonuniform List<scalar> 
62
(
1.48592e-06
2.58391e-06
3.17861e-06
3.56407e-06
3.84299e-06
4.05633e-06
4.22475e-06
4.36057e-06
4.47215e-06
4.56578e-06
4.64605e-06
4.71651e-06
4.77902e-06
4.83348e-06
4.87571e-06
4.88988e-06
4.82338e-06
4.65178e-06
4.42356e-06
4.22876e-06
3.96661e-06
3.36762e-06
1.72495e-06
1.72495e-06
6.78374e-06
8.12812e-06
9.21398e-06
1.01365e-05
1.10248e-05
1.21294e-05
1.41767e-05
1.53689e-05
1.44834e-05
1.47005e-05
1.57586e-05
1.62354e-06
6.63033e-06
7.9558e-06
9.13488e-06
1.02853e-05
1.15368e-05
1.30701e-05
1.54733e-05
1.62354e-06
3.14445e-06
3.71725e-06
3.9631e-06
4.07112e-06
4.10063e-06
4.09609e-06
4.09666e-06
4.13296e-06
4.127e-06
3.89802e-06
3.63189e-06
3.63538e-06
3.96283e-06
4.23125e-06
4.11893e-06
3.81606e-06
3.13383e-06
2.44069e-06
)
;
    }
    atmosphere
    {
        type            calculated;
        value           nonuniform List<scalar> 
46
(
0.009
0.000167774
0.000326839
0.000871486
0.00155562
0.00224568
0.00290151
0.0035025
0.00403635
0.00449914
0.00489515
0.00523539
0.00553546
0.00581326
0.00608737
0.00637681
0.00670362
0.00710051
0.00762961
0.009
0.009
0.009
0.009
0.009
0.009
0.009
0.009
0.009
0.009
0.009
0.009
0.009
0.009
0.009
0.009
0.009
0.009
0.009
0.009
0.009
0.009
0.009
0.009
0.009
0.009
0.00034428
)
;
    }
    defaultFaces
    {
        type            empty;
    }
}


// ************************************************************************* //
