/*--------------------------------*- C++ -*----------------------------------*\
  =========                 |
  \\      /  F ield         | OpenFOAM: The Open Source CFD Toolbox
   \\    /   O peration     | Website:  https://openfoam.org
    \\  /    A nd           | Version:  9
     \\/     M anipulation  |
\*---------------------------------------------------------------------------*/
FoamFile
{
    format      ascii;
    class       volScalarField;
    location    "9.88";
    object      p_rgh;
}
// * * * * * * * * * * * * * * * * * * * * * * * * * * * * * * * * * * * * * //

dimensions      [1 -1 -2 0 0 0 0];

internalField   nonuniform List<scalar> 
2268
(
757.192
757.235
757.348
757.537
757.799
758.128
758.517
758.959
759.445
759.964
760.505
761.059
761.611
762.147
762.65
763.111
763.52
763.894
764.2
764.425
764.763
764.957
765.035
757.183
757.229
757.343
757.533
757.795
758.123
758.511
758.952
759.436
759.955
760.496
761.047
761.594
762.124
762.625
763.094
763.528
763.927
764.212
764.465
764.799
764.955
765.027
757.161
757.209
757.325
757.517
757.78
758.109
758.498
758.939
759.425
759.944
760.485
761.035
761.581
762.11
762.614
763.092
763.544
763.968
764.195
764.477
764.838
764.969
765.042
757.122
757.171
757.288
757.483
757.749
758.081
758.473
758.918
759.407
759.93
760.474
761.027
761.577
762.111
762.622
763.102
763.564
764.01
764.327
764.469
764.871
765.004
765.056
757.067
757.114
757.233
757.431
757.701
758.039
758.436
758.887
759.382
759.911
760.461
761.021
761.579
762.125
762.651
763.105
763.535
764.022
764.511
764.551
764.955
764.991
765.071
756.995
757.039
757.158
757.361
757.637
757.981
758.387
758.846
759.35
759.887
760.446
761.016
761.587
762.15
762.698
763.126
763.391
764.064
764.57
764.962
765.073
764.101
765.122
756.904
756.945
757.066
757.273
757.557
757.91
758.326
758.797
759.31
759.858
760.428
761.011
761.598
762.183
762.761
763.315
762.338
762.207
764.629
765.049
763.892
763.492
765.214
756.795
756.835
756.959
757.171
757.464
757.828
758.256
758.74
759.266
759.825
760.407
761.004
761.611
762.222
762.837
763.443
761.29
760.751
762.423
764.579
762.828
763.595
765.62
764.24
764.127
764.261
764.097
763.787
763.333
762.727
762.043
761.4
760.748
759.95
759.21
758.958
758.764
758.488
758.255
757.993
757.853
757.884
764.26
764.095
764.19
764.025
763.73
763.286
762.777
762.23
761.622
760.994
760.241
759.226
758.734
758.796
758.504
758.281
757.991
757.697
757.805
764.266
763.862
764.17
763.988
763.692
763.259
762.757
762.218
761.628
761.048
760.505
759.188
758.645
758.521
758.544
758.261
757.722
757.569
757.583
764.179
763.615
764.224
764.014
763.699
763.255
762.736
762.189
761.579
761.021
760.585
759.641
758.543
758.641
758.577
758.322
757.938
757.619
758.011
762.638
763.877
764.382
764.094
763.741
763.273
762.778
762.238
761.538
761.009
760.588
760.516
759.805
759.325
758.376
758.27
758.128
757.998
757.982
762.643
764.141
764.579
764.207
763.811
763.349
762.847
762.254
761.594
761.099
760.684
760.449
760.068
759.42
758.109
756.441
756.423
757.86
757.897
762.849
764.909
764.787
764.342
763.903
763.41
762.902
762.117
761.339
761.083
760.677
760.388
759.986
759.409
757.005
755.77
755.441
756.763
757.87
765.596
765.473
764.969
764.48
764.005
763.479
762.976
761.818
758.9
759.294
760.652
760.334
759.913
758.219
756.676
757.512
755.202
756.405
757.844
756.612
756.647
756.771
756.989
757.296
757.68
758.132
758.641
759.19
759.77
760.372
760.991
761.628
762.287
762.969
763.698
764.451
762.569
761.029
761.38
764.201
766.343
766.024
741.555
741.059
741.078
742.044
743.389
744.486
745.615
746.994
748.094
749.02
749.8
750.451
751.631
753.308
755.613
758.861
762.153
762.677
763.038
763.149
763.087
763.172
762.514
258.527
258.598
259.535
259.605
260.259
262.064
264.764
267.842
271.751
276.287
281.231
286.39
291.02
295.061
298.535
301.777
306.188
312.807
318.125
320.831
321.342
320.585
319.864
0.643115
0.631102
0.402919
0.816288
1.17359
1.23147
0.99286
0.80227
0.642093
0.525331
0.465626
0.378197
0.372527
0.367047
0.364386
0.362059
0.347523
0.302304
0.249103
0.241547
0.254384
0.259273
0.244217
0.638728
0.631208
0.341991
0.909959
1.32611
1.31962
1.30493
1.58506
1.64496
1.64612
1.64662
1.62319
1.59894
1.55019
1.52444
1.52192
1.46085
1.04468
0.431687
0.418811
0.547535
0.54605
0.375293
0.263316
0.285212
0.272575
0.233238
0.0137908
0.026012
0.0497052
0.0140719
0.00691253
0.00583797
0.00395837
0.00425343
0.0041793
0.00378406
0.00270684
0.000805723
0.000635153
0.138607
0.28546
0.258259
0.269007
0.270872
0.150551
0.00594612
0.00575065
0.0291458
0.00498219
0.00603971
0.00561192
0.00501921
0.00404592
0.0034545
0.00306645
0.00692583
0.0458279
0.0516935
0.0511474
0.0502852
0.0109077
-0.00022287
-0.00143461
0.00649267
-0.00104248
0.000934503
0.0398709
0.0662993
0.00526105
0.00489167
0.00546596
0.00474913
0.00607379
0.00584999
0.00455702
0.00444863
0.00467817
0.00352891
0.00436322
0.0139011
0.0201318
0.0111027
0.00678782
0.00939176
-0.000678
-0.0011872
-0.00138467
-0.00135483
-0.00160005
-0.00166587
1.07425e-05
0.00468178
0.00446262
0.00461794
0.00465947
0.00693597
0.00670337
0.00572172
0.00594141
0.0067579
0.00619871
0.00175618
0.000516245
-0.000139709
-0.000440917
0.00381219
0.00863513
-0.000771317
-0.00100492
-0.0011579
-0.00119825
-0.0012806
-0.00107411
0.00251123
0.00417003
0.00403321
0.00401239
0.00397273
0.00622436
0.00628231
0.00573054
0.00554164
0.00661223
0.00576638
0.0012933
0.000660324
0.000265945
-0.000108746
-5.9094e-05
0.000205004
4.97466e-05
-0.000902954
-0.00104436
-0.00113503
-0.00121762
0.00145609
0.0311306
0.00371592
0.00362638
0.00355612
0.00336957
0.00412191
0.00518325
0.00325792
0.00429213
0.00655905
0.00371053
0.00111279
0.000655789
0.00164156
0.00387028
0.00196411
-0.000411133
-0.000625958
-0.000839342
-0.00101153
-0.00118014
-0.00137049
0.00183071
0.0327137
0.00331855
0.00325721
0.0031791
0.00301583
0.00282699
0.00268889
0.0024337
0.00320614
0.00658007
0.00201594
0.000956063
0.000580346
0.00203777
0.0104737
0.0102884
0.00299944
-0.000588962
-0.000827181
-0.0010174
-0.00122851
-0.00150403
-0.00180182
-0.00154842
0.00296908
0.00303946
0.00298303
0.00270719
0.00253063
0.00232718
0.00218709
0.00419684
0.00450513
0.00112721
0.000818131
0.000475882
0.00110922
0.00960823
0.010741
0.0106593
0.00170547
-0.000851955
-0.00104784
-0.00124833
-0.00151777
-0.00188936
-0.0023715
0.00265818
0.00282894
0.00275772
0.00244255
0.00226687
0.00212537
0.00369762
0.00456575
0.00305815
0.000990479
0.000704972
0.000389407
3.29252e-05
0.000594456
0.00888209
0.0110757
0.00572234
-0.000894576
-0.00104381
-0.00122495
-0.00143965
-0.00170798
-0.00201547
0.00236888
0.00256158
0.0024991
0.00219144
0.00202373
0.00232849
0.00479503
0.00453474
0.00208947
0.000874007
0.000618094
0.000337303
2.91968e-05
-0.000268159
0.000264881
0.00138683
0.00107099
-0.000807256
-0.00100218
-0.00114889
-0.00130942
-0.00150448
-0.00168602
0.00210248
0.00221116
0.00222059
0.00195151
0.00180339
0.00200711
0.00473795
0.00430234
0.000982811
0.000779663
0.000554306
0.00030957
4.86884e-05
-0.000222615
-0.000477054
-0.000663607
-0.000752065
-0.000788993
-0.000910251
-0.0010289
-0.0011655
-0.00132404
-0.00146211
0.00186733
0.00186671
0.00183277
0.00173483
0.00161154
0.00159011
0.00204134
0.0016812
0.000887196
0.000706273
0.00050731
0.00029484
7.44982e-05
-0.00014694
-0.000352467
-0.00051744
-0.000635219
-0.000728103
-0.000819664
-0.000923268
-0.00103899
-0.00115305
-0.00124319
0.00167086
0.00167373
0.00163068
0.00155431
0.00145035
0.00133618
0.00113196
0.0009678
0.000813013
0.000648171
0.000471585
0.000286683
9.87767e-05
-8.66127e-05
-0.000259377
-0.000406858
-0.000525773
-0.00062727
-0.000724228
-0.000819605
-0.000911356
-0.000993527
-0.00105726
0.00150286
0.00154091
0.00146851
0.00139647
0.00130852
0.00118974
0.00103787
0.00089381
0.000749676
0.000599664
0.00044279
0.000281568
0.000119571
-3.88079e-05
-0.00018724
-0.000318958
-0.000431993
-0.000531135
-0.000622434
-0.000707419
-0.000784725
-0.000850618
-0.000899111
0.00184783
0.00195814
0.00132614
0.0012535
0.00117772
0.0010687
0.000946768
0.000821053
0.000691617
0.000557288
0.000418663
0.000277686
0.000136969
-7.52179e-08
-0.000129278
-0.000246715
-0.000350962
-0.000443802
-0.000527791
-0.000603605
-0.000670157
-0.000724846
-0.000763734
0.00203889
0.00194622
0.00118131
0.00112278
0.00105648
0.000963155
0.000861732
0.000752563
0.000638231
0.000519504
0.000397575
0.000274168
0.000151452
3.20316e-05
-8.1209e-05
-0.000185729
-0.000280334
-0.000365415
-0.000441832
-0.000509638
-0.00056789
-0.000614725
-0.000647552
0.00194024
0.00129084
0.00104621
0.00100502
0.000946433
0.00086995
0.000783793
0.000689383
0.000589468
0.000485384
0.000378557
0.000270612
0.000163392
5.89413e-05
-4.06365e-05
-0.000133523
-0.000218647
-0.000295761
-0.000364905
-0.000425777
-0.000477532
-0.000518808
-0.000547884
0.00186042
0.000950106
0.000934113
0.000900378
0.000850025
0.000786624
0.000713168
0.000631952
0.000545178
0.000454409
0.000361102
0.000266765
0.000172985
8.14141e-05
-6.32048e-06
-8.88125e-05
-0.000165088
-0.000234626
-0.00029709
-0.000352009
-0.000398628
-0.000435937
-0.000462775
0.00179413
0.000955509
0.000836286
0.000807313
0.000765396
0.00071217
0.000649757
0.000580142
0.000505109
0.000426226
0.00034488
0.000262458
0.000180341
9.99072e-05
2.24708e-05
-5.08205e-05
-0.000119085
-0.000181708
-0.000238202
-0.00028804
-0.000330567
-0.000364992
-0.000390551
0.00173576
0.00165771
0.000749417
0.000723653
0.000689842
0.000645735
0.000593141
0.000533717
0.000469052
0.000400603
0.000329713
0.000257647
0.000185625
0.000114819
4.63273e-05
-1.88848e-05
-8.00268e-05
-0.000136478
-0.000187713
-0.000233212
-0.000272406
-0.000304691
-0.000329539
0.0016833
0.00168011
0.000669955
0.000648333
0.000622516
0.000586874
0.000543016
0.000492486
0.00043682
0.000377426
0.000315557
0.000252431
0.00018911
0.000126615
6.58794e-05
7.72757e-06
-4.71403e-05
-9.81414e-05
-0.000144769
-0.000186539
-0.000222968
-0.000253585
-0.000278018
0.0016393
0.00157761
0.000593061
0.000582119
0.000563742
0.000535594
0.000499271
0.000456321
0.000408302
0.000356612
0.000302477
0.000246996
0.00019115
0.000135824
8.18164e-05
2.98308e-05
-1.95227e-05
-6.57206e-05
-0.0001083
-0.000146832
-0.000180904
-0.000210145
-0.000234286
0.00160427
0.000753522
0.000528572
0.000526414
0.000514202
0.000492079
0.000461853
0.000425089
0.000383382
0.000338125
0.000290503
0.000241536
0.000192103
0.00014297
9.48188e-05
4.82401e-05
3.75217e-06
-3.81916e-05
-7.71866e-05
-0.000112861
-0.00014487
-0.000172913
-0.000196789
0.000699262
0.000467072
0.000478932
0.000481943
0.000474172
0.000456317
0.000430576
0.000398547
0.00036184
0.000321824
0.000279624
0.000236173
0.000192245
0.000148494
0.000105477
6.36774e-05
2.35217e-05
-1.46153e-05
-5.03952e-05
-8.35061e-05
-0.000113662
-0.000140618
-0.000164211
0.000453099
0.000419838
0.000440134
0.000447839
0.000443008
0.00042781
0.000404949
0.000376238
0.00034329
0.000307429
0.000269693
0.000230907
0.00019173
0.000152692
0.000114227
7.67067e-05
4.04598e-05
5.7782e-06
-2.70716e-05
-5.78394e-05
-8.62944e-05
-0.000112233
-0.000135514
0.000420938
0.000391485
0.000414633
0.000423883
0.000419986
0.000405719
0.000384196
0.000357464
0.000327149
0.000294493
0.000260411
0.000225589
0.000190555
0.000155703
0.000121334
8.77061e-05
5.50466e-05
2.35585e-05
-6.56841e-06
-3.51516e-05
-6.20132e-05
-8.69835e-05
-0.000109927
0.000371141
0.000381564
0.000399793
0.000408385
0.000404026
0.000389017
0.000367278
0.000341279
0.000312627
0.000282398
0.000251327
0.000219928
0.000188575
0.000157509
0.000126897
9.68801e-05
6.75804e-05
3.91081e-05
1.15682e-05
-1.49312e-05
-4.027e-05
-6.43096e-05
-8.69049e-05
0.000324961
0.000373099
0.000389568
0.00039964
0.000394252
0.000376594
0.000352926
0.000326497
0.000298721
0.000270352
0.00024185
0.00021351
0.000185523
0.000157969
0.000130882
0.000104288
7.8209e-05
5.2656e-05
2.76404e-05
3.1823e-06
-2.06694e-05
-4.3811e-05
-6.60726e-05
0.000311978
0.000350452
0.000380535
0.000399312
0.000390545
0.000367019
0.000339391
0.000311562
0.000284195
0.000257419
0.000231293
0.00020584
0.000181051
0.000156852
0.000133154
0.000109885
8.69683e-05
6.43198e-05
4.18443e-05
1.94512e-05
-2.91053e-06
-2.51894e-05
-4.71704e-05
0.000297654
0.000374267
0.000383991
0.0013719
0.000393536
0.000357227
0.000323348
0.000294119
0.000267482
0.000242539
0.000218922
0.000196398
0.000174789
0.000153892
0.000133529
0.000113556
9.38196e-05
7.41432e-05
5.43134e-05
3.40922e-05
1.32723e-05
-8.19429e-06
-3.0017e-05
0.000289237
0.000407821
0.00263372
0.00441528
0.00337199
0.000702578
0.00029917
0.000271193
0.000246895
0.000224709
0.000204103
0.000184759
0.00016643
0.000148853
0.000131824
0.000115166
9.86845e-05
8.21277e-05
6.51551e-05
4.73287e-05
2.8178e-05
7.43229e-06
-1.44866e-05
0.000314326
0.000347729
0.00448727
0.0044735
0.00444924
0.00129214
0.00026407
0.000241747
0.000221835
0.000203558
0.00018659
0.00017074
0.000155812
0.000141582
0.000127884
0.000114565
0.000101438
8.82151e-05
7.44381e-05
5.94071e-05
4.21944e-05
2.19948e-05
-5.25905e-07
0.00034419
0.000383162
0.00272158
0.00452649
0.00418587
0.000841817
0.000222919
0.000207821
0.000193243
0.000179464
0.000166475
0.000154274
0.000142767
0.000131836
0.000121404
0.000111395
0.000101694
9.20534e-05
8.19557e-05
7.04056e-05
5.57046e-05
3.57407e-05
1.16748e-05
0.00043217
0.000426676
0.000387302
0.00223906
0.000893885
0.000254781
0.000182124
0.00017217
0.000162409
0.000152954
0.000143865
0.000135215
0.000126994
0.000119197
0.000111854
0.000105012
9.87033e-05
9.28469e-05
8.70434e-05
8.01492e-05
6.9286e-05
4.87198e-05
2.11929e-05
0.000506239
0.000448678
0.000322063
0.00022833
0.000175384
0.000153398
0.000144188
0.000138079
0.00013253
0.000127045
0.000121603
0.000116259
0.000111065
0.00010611
0.000101528
9.75095e-05
9.43102e-05
9.21926e-05
9.13e-05
9.1313e-05
8.80994e-05
6.27897e-05
2.61874e-05
0.000592876
0.000412972
0.000272403
0.000189164
0.000139737
0.000121812
0.000117994
0.000116763
0.000115357
0.000113514
0.000111329
0.000108882
0.000106278
0.000103658
0.000101225
9.92962e-05
9.83798e-05
9.92399e-05
0.000103284
0.000113946
0.000129029
8.83956e-05
2.6224e-05
0.000483673
6.18078e-05
0.000119987
0.000104925
9.35606e-05
9.21594e-05
9.42931e-05
9.57423e-05
9.62702e-05
9.63062e-05
9.59969e-05
9.53724e-05
9.44671e-05
9.3358e-05
9.2199e-05
9.12795e-05
9.11348e-05
9.2731e-05
9.83876e-05
0.000115662
0.000152789
0.000133053
3.1834e-05
766.841
766.746
766.731
766.648
763.366
763.576
763.575
763.31
321.122
321.273
320.945
320.1
0.247972
0.257321
0.260534
0.256692
0.337451
0.648812
0.650864
0.429454
0.123107
0.292344
0.418053
0.337492
0.0108463
-0.000449166
-0.00144112
0.00297845
0.00167359
0.00054331
-0.000521228
-0.000329886
0.0327702
0.030072
0.00344649
0.00205936
0.0346557
0.0347755
0.0350134
0.0352106
0.0361167
0.036257
0.0363942
0.0365438
0.0179286
0.0376822
0.0378613
0.0365769
-0.00274715
-0.00292741
-0.00296147
-0.00286696
-0.00220123
-0.00228561
-0.0022983
-0.00224219
-0.00177748
-0.00180011
-0.00162696
-0.00143437
-0.00151528
-0.00150568
-0.00107195
-0.000941507
-0.00127607
-0.00128749
-0.00128525
-0.00111379
-0.00107903
-0.00108627
-0.00108607
-0.00107895
-0.000914693
-0.000919794
-0.000919819
-0.000914879
-0.00077618
-0.000780464
-0.000781113
-0.000778152
-0.000658585
-0.000662899
-0.000664531
-0.00066342
-0.000558593
-0.000563429
-0.000566223
-0.000566862
-0.00047383
-0.000479407
-0.00048337
-0.00048558
-0.000402301
-0.000408653
-0.000413665
-0.000417202
-0.000342102
-0.000349151
-0.000355032
-0.000359637
-0.000291354
-0.000298981
-0.000305551
-0.000310993
-0.000248277
-0.000256362
-0.000263471
-0.000269578
-0.000211291
-0.000219735
-0.00022728
-0.000233937
-0.000179087
-0.000187819
-0.000195735
-0.000202877
-0.000150651
-0.000159622
-0.000167874
-0.000175466
-0.000125244
-0.000134424
-0.000142989
-0.000151011
-0.000102352
-0.000111722
-0.000120585
-0.000129017
-8.16317e-05
-9.11838e-05
-0.000100332
-0.000109151
-6.28623e-05
-7.26021e-05
-8.2026e-05
-9.12055e-05
-4.5918e-05
-5.58738e-05
-6.55731e-05
-7.50827e-05
-3.07611e-05
-4.09963e-05
-5.09826e-05
-6.07831e-05
-1.747e-05
-2.80951e-05
-3.8388e-05
-4.84132e-05
-6.35949e-06
-1.75129e-05
-2.8103e-05
-3.82042e-05
1.64134e-06
-1.00452e-05
-2.07308e-05
-3.05379e-05
4.44063e-06
-7.25348e-06
-1.71761e-05
-2.58062e-05
-1.24424e-06
-1.22371e-05
-1.93234e-05
-2.43855e-05
4.7515e-06
-4.34097e-06
-9.86155e-06
-1.3283e-05
766.221
765.74
765.223
764.707
764.045
762.557
761.938
761.683
757.66
754.74
754.312
755.249
754.673
754.315
757.906
757.608
757.261
757.049
757.483
762.541
761.391
758.582
755.768
753.727
752.435
751.258
751.683
755.072
754.823
754.387
753.951
752.666
751.35
749.417
747.877
746.591
742.806
741.585
318.044
316.047
315.078
314.094
312.578
310.508
307.639
303.751
299.836
297.051
292.762
287.893
284.627
280.932
277.366
275.482
275.1
276.257
277.334
0.250755
0.286696
0.292061
0.288868
0.28834
0.289028
0.289187
0.289332
0.287196
0.288609
0.306233
0.367361
0.238113
0.463939
0.567897
0.576967
0.578161
0.565893
0.527915
0.374925
0.79466
0.797814
0.774073
0.792636
0.818541
0.825107
0.824086
0.822362
0.787159
0.673879
0.472208
0.235556
0.471576
0.563917
0.564855
0.564584
0.564553
0.491413
0.179147
0.176582
0.192384
0.161818
0.127555
0.0988205
0.0810156
0.0669487
0.0238344
0.0236224
0.0255999
0.0354077
0.101886
0.0948733
0.0898933
0.122251
0.137905
0.146807
0.183311
0.027995
0.000328174
0.000457997
0.00203572
0.00519858
0.0144562
0.0163064
0.0156582
0.0170785
0.0307998
0.0459138
0.0608533
0.0613744
0.0388165
0.0112367
0.00787442
0.00742615
0.00712211
0.0071198
0.000418484
0.000296681
0.000624583
0.00699331
0.0417518
0.0495536
0.0500065
0.0291157
0.0524725
0.0623627
0.062932
0.0635534
0.0637837
0.0507003
0.0097037
0.00691441
0.00670934
0.00658594
0.00670752
0.000817796
0.000227278
0.000210974
0.026543
0.0502234
0.0503016
0.0320165
0.0396494
0.0312421
0.0155986
0.027972
0.0410668
0.0367687
0.0113136
0.00604655
0.00617883
0.00618918
0.00616158
0.00626455
0.0193566
-3.5542e-05
-0.000216396
0.00880941
0.0156293
0.00344235
-0.000205027
0.000481544
0.00078244
0.00138276
0.00177204
0.00228003
0.00535952
0.0102458
0.00534524
0.00568022
0.00579478
0.00580283
0.0058297
0.0368184
0.0202398
-0.000909158
-0.00115153
-0.0013035
-0.000923279
0.000174981
0.000912697
0.000925593
0.00120012
0.00266015
0.0121901
0.0155414
0.00677349
0.00496622
0.00533288
0.00549243
0.00551163
0.00542588
0.0192609
0.00539449
-0.00127576
-0.00114262
-0.00104322
-0.000199191
0.000524992
0.000914348
0.000669312
0.00100588
0.00530402
0.0156184
0.0162341
0.0131672
0.00471114
0.00507324
0.00525743
0.0052577
0.00505543
-0.00254048
-0.00189559
-0.001372
-0.00111133
-0.000901184
-0.000621249
-0.000272739
8.61209e-05
0.000463385
0.000811378
0.00118336
0.00953287
0.0165819
0.0172985
0.00593234
0.00482831
0.00506623
0.005038
0.00471722
-0.00206988
-0.00167531
-0.00130197
-0.00104046
-0.000814479
-0.00055144
-0.00025116
6.02823e-05
0.000369888
0.000656314
0.000889454
0.00121129
0.00924438
0.0133864
0.00773261
0.00980018
0.0147234
0.0120587
0.00703656
-0.00130497
-0.0012442
-0.00115267
-0.000948609
-0.000729217
-0.000490155
-0.000232456
3.12223e-05
0.000289744
0.000529374
0.000736107
0.00091242
0.00111001
0.00146729
0.00966982
0.0259661
0.0261004
0.0260315
0.0257909
-0.000881027
-0.000694023
-0.000588065
-0.000842933
-0.000654724
-0.000442395
-0.000205291
2.80503e-05
0.000222445
0.000417901
0.000596216
0.000753627
0.000919983
0.00111844
0.00420417
0.0189562
0.0225099
0.0108136
0.00594524
-0.000759835
-0.000504791
-0.000339398
-0.000275587
-0.000592616
-0.000404593
-0.000111274
0.000129542
0.000218974
0.000322254
0.000467136
0.000598236
0.000718982
0.000825293
0.000844249
0.000734246
0.000741621
0.000885305
0.00074242
-0.00105638
-0.00071855
-0.000261604
-0.000333567
-0.000536316
-0.000371951
-7.39541e-05
0.000103514
0.000256198
0.000273674
0.000350644
0.0004571
0.000546758
0.000614205
0.000632676
0.000609869
0.000642418
0.000724655
0.000594761
-0.000898577
-0.00083181
-0.000737727
-0.000621559
-0.000490712
-0.000353689
-0.000143412
7.96022e-05
0.000188523
0.00018693
0.000246947
0.000332138
0.000399794
0.000446981
0.000466524
0.000469991
0.000507538
0.000635874
0.00118873
-0.000766783
-0.000716096
-0.000642337
-0.000550679
-0.000447668
-0.000340036
-0.000231686
-0.000117451
-8.93752e-06
7.3646e-05
0.000155963
0.000222395
0.000272615
0.000305096
0.000319109
0.000325134
0.000348804
0.00057667
0.0061686
-0.000656282
-0.000618594
-0.000561801
-0.000489954
-0.000407988
-0.000321007
-0.000232649
-0.000145671
-6.28822e-05
1.23516e-05
7.62481e-05
0.000126526
0.00016194
0.00018161
0.000186123
0.0001819
0.000179652
0.000314385
0.0065204
-0.000563504
-0.000536482
-0.000493667
-0.000438199
-0.000373897
-0.000304765
-0.00023412
-0.000164775
-9.94955e-05
-4.12064e-05
7.16813e-06
4.35336e-05
6.65512e-05
7.53935e-05
7.01713e-05
5.37831e-05
3.17466e-05
-8.35063e-06
0.00661807
-0.000485531
-0.000467352
-0.00043612
-0.0003943
-0.000344901
-0.000291137
-0.000235936
-0.000181948
-0.000131712
-8.77376e-05
-5.23861e-05
-2.74697e-05
-1.42705e-05
-1.36827e-05
-2.63314e-05
-5.28244e-05
-9.30771e-05
-0.000135002
0.00674219
-0.000419941
-0.000409109
-0.00038751
-0.000357099
-0.000320287
-0.000279691
-0.000237839
-0.000197098
-0.000159706
-0.000127767
-0.000103153
-8.73024e-05
-8.12135e-05
-8.55589e-05
-0.000101132
-0.000129974
-0.000173731
-0.000211309
0.00422979
-0.000364656
-0.000359907
-0.000346321
-0.00032546
-0.000299277
-0.000269921
-0.000239533
-0.000210154
-0.000183682
-0.000161815
-0.000145945
-0.00013701
-0.000135446
-0.000141197
-0.000153992
-0.000174026
-0.000200093
-0.000214317
-0.000194608
-0.000317852
-0.000318129
-0.000311207
-0.000298341
-0.000281128
-0.000261335
-0.000240751
-0.000221089
-0.000203907
-0.000190503
-0.000181801
-0.000178173
-0.000179301
-0.000184024
-0.000190071
-0.000193419
-0.000187246
-0.000165996
-0.000102366
-0.00027794
-0.000282378
-0.000281005
-0.000274836
-0.000265185
-0.000253508
-0.000241289
-0.000229942
-0.000220712
-0.000214548
-0.000211952
-0.000212777
-0.000215997
-0.000219392
-0.000218761
-0.000206029
-0.000169942
-0.000119478
0.000415751
-0.000243569
-0.000251474
-0.000254735
-0.000254177
-0.000250895
-0.000246093
-0.000241005
-0.000236798
-0.000234458
-0.000234657
-0.00023759
-0.000242744
-0.00024864
-0.00025246
-0.000249101
-0.00022903
-0.000180306
-0.00011876
0.00693996
-0.000213628
-0.000224449
-0.000231591
-0.000235734
-0.000237803
-0.000238811
-0.000239798
-0.000241741
-0.000245441
-0.000251394
-0.000259614
-0.000269427
-0.000279213
-0.000286094
-0.00028521
-0.000268244
-0.000225806
-0.000171589
0.00861844
-0.000187237
-0.000200529
-0.000210925
-0.000218996
-0.000225536
-0.000231425
-0.000237564
-0.000244805
-0.000253843
-0.000265087
-0.000278503
-0.000293416
-0.000308285
-0.000320452
-0.000325725
-0.000317558
-0.00028828
-0.000241949
0.0088104
-0.000163728
-0.000179116
-0.000192224
-0.000203543
-0.000213776
-0.000223712
-0.000234172
-0.000245944
-0.000259688
-0.000275814
-0.000294336
-0.00031469
-0.000335518
-0.000354464
-0.000367939
-0.000370498
-0.000353891
-0.000310089
0.00888681
-0.000142613
-0.000159762
-0.000175092
-0.000189034
-0.000202239
-0.000215446
-0.000229445
-0.000245015
-0.000262842
-0.000283411
-0.000306861
-0.000332808
-0.000360148
-0.000386875
-0.000409762
-0.000423939
-0.000419321
-0.000374679
0.00862583
-0.000123551
-0.00014214
-0.000159219
-0.000175186
-0.000190664
-0.000206386
-0.00022315
-0.000241773
-0.000263018
-0.000287503
-0.000315557
-0.000347049
-0.000381186
-0.000416319
-0.000449437
-0.000476084
-0.000484792
-0.000440967
0.00882751
-0.000106325
-0.000126023
-0.000144368
-0.000161747
-0.000178794
-0.000196264
-0.000214997
-0.00023588
-0.000259795
-0.000287536
-0.000319683
-0.00035642
-0.000397285
-0.000440902
-0.00048434
-0.000522286
-0.000542887
-0.000503962
0.00895956
-9.08153e-05
-0.000111256
-0.000130339
-0.000148481
-0.000166358
-0.000184779
-0.000204642
-0.000226926
-0.000252649
-0.000282817
-0.00031831
-0.000359681
-0.000406805
-0.000458479
-0.000511292
-0.000552459
-0.00057242
-0.000530914
0.00157997
-7.6982e-05
-9.77253e-05
-0.000116939
-0.000135129
-0.000153054
-0.000171587
-0.000191695
-0.000214441
-0.000240986
-0.000272568
-0.00031042
-0.000355599
-0.000408432
-0.000467861
-0.000529628
-0.000567933
-0.00057847
-0.000517386
-0.000324389
-6.4839e-05
-8.5309e-05
-0.000103929
-0.000121375
-0.000138519
-0.0001563
-0.000175729
-0.000197932
-0.000224186
-0.000255961
-0.000294907
-0.000342726
-0.00040064
-0.000468402
-0.000541993
-0.000589115
-0.000605014
-0.000523731
0.00115501
-5.44129e-05
-7.38091e-05
-9.09552e-05
-0.000106792
-0.000122312
-0.000138485
-0.000156315
-0.000176923
-0.000201645
-0.000232133
-0.000270459
-0.000319147
-0.000380892
-0.000457649
-0.000548474
-0.000631866
-0.000670051
-0.000585139
0.00290917
-4.56664e-05
-6.28248e-05
-7.74333e-05
-9.07582e-05
-0.000103855
-0.00011763
-0.000132986
-0.000150941
-0.00017277
-0.000200175
-0.000235531
-0.00028218
-0.000344619
-0.000428391
-0.000539764
-0.000677746
-0.000790524
-0.000713197
0.00285691
-3.82348e-05
-5.14662e-05
-6.23425e-05
-7.231e-05
-8.23024e-05
-9.3011e-05
-0.000105104
-0.000119366
-0.000136835
-0.000159012
-0.000188211
-0.000228117
-0.000284525
-0.000366659
-0.000492237
-0.000691203
-0.00093621
-0.00091
0.00259018
-3.05275e-05
-3.79372e-05
-4.42588e-05
-5.04302e-05
-5.69863e-05
-6.42472e-05
-7.2534e-05
-8.22633e-05
-9.4042e-05
-0.000108832
-0.000128277
-0.000155346
-0.000195389
-0.000258719
-0.000372977
-0.000615807
-0.00105927
-0.00121329
0.00189243
-1.6343e-05
-1.97334e-05
-2.28937e-05
-2.64329e-05
-3.04734e-05
-3.50138e-05
-4.00563e-05
-4.56379e-05
-5.18621e-05
-5.89692e-05
-6.75123e-05
-7.88114e-05
-9.59969e-05
-0.000126454
-0.000191711
-0.000369669
-0.000861569
-0.00139411
0.00111275
)
;

boundaryField
{
    leftWall
    {
        type            fixedFluxPressure;
        gradient        uniform 0;
        value           nonuniform List<scalar> 
50
(
757.192
757.183
757.161
757.122
757.067
756.995
756.904
756.795
756.612
741.555
258.527
0.643115
0.638728
0.263316
0.00594612
0.00526105
0.00468178
0.00417003
0.00371592
0.00331855
0.00296908
0.00265818
0.00236888
0.00210248
0.00186733
0.00167086
0.00150286
0.00184783
0.00203889
0.00194024
0.00186042
0.00179413
0.00173576
0.0016833
0.0016393
0.00160427
0.000699262
0.000453099
0.000420938
0.000371141
0.000324961
0.000311978
0.000297654
0.000289237
0.000314326
0.00034419
0.00043217
0.000506239
0.000592876
0.000483673
)
;
    }
    rightWall
    {
        type            fixedFluxPressure;
        gradient        uniform 0;
        value           nonuniform List<scalar> 
50
(
757.884
757.805
757.583
758.011
757.982
757.897
757.87
757.844
757.483
741.585
277.334
0.527915
0.491413
0.183311
0.0071198
0.00670752
0.00626455
0.0058297
0.00542588
0.00505543
0.00471722
0.00703656
0.0257909
0.00594524
0.00074242
0.000594761
0.00118873
0.0061686
0.0065204
0.00661807
0.00674219
0.00422979
-0.000194608
-0.000102366
0.000415751
0.00693996
0.00861844
0.0088104
0.00888681
0.00862583
0.00882751
0.00895956
0.00157997
-0.000324389
0.00115501
0.00290917
0.00285691
0.00259018
0.00189243
0.00111275
)
;
    }
    lowerWall
    {
        type            fixedFluxPressure;
        gradient        uniform 0;
        value           nonuniform List<scalar> 
62
(
757.192
757.235
757.348
757.537
757.799
758.128
758.517
758.959
759.445
759.964
760.505
761.059
761.611
762.147
762.65
763.111
763.52
763.894
764.2
764.425
764.763
764.957
765.035
765.035
765.027
765.042
765.056
765.071
765.122
765.214
765.62
766.841
766.746
766.731
766.648
764.24
764.26
764.266
764.179
762.638
762.643
762.849
765.596
764.24
764.127
764.261
764.097
763.787
763.333
762.727
762.043
761.4
760.748
759.95
759.21
758.958
758.764
758.488
758.255
757.993
757.853
757.884
)
;
    }
    atmosphere
    {
        type            totalPressure;
        rho             rho;
        psi             none;
        gamma           1;
        p0              uniform 0;
        value           nonuniform List<scalar> 
46
(
-4.43308e-05
0
0
0
0
0
0
0
0
0
0
0
0
0
0
0
0
0
0
0
0
-1.6946e-10
-3.26912e-07
-9.41118e-07
-1.49399e-06
-2.16635e-06
-2.95453e-06
-4.52804e-06
-7.20387e-06
-1.03732e-05
-1.39664e-05
-1.79098e-05
-2.2124e-05
-2.65214e-05
-3.10047e-05
-3.54639e-05
-3.97732e-05
-4.37858e-05
-4.73266e-05
-5.01753e-05
-5.20275e-05
-5.23942e-05
-5.03061e-05
-4.34882e-05
-2.44012e-05
0
)
;
    }
    defaultFaces
    {
        type            empty;
    }
}


// ************************************************************************* //
