/*--------------------------------*- C++ -*----------------------------------*\
  =========                 |
  \\      /  F ield         | OpenFOAM: The Open Source CFD Toolbox
   \\    /   O peration     | Website:  https://openfoam.org
    \\  /    A nd           | Version:  9
     \\/     M anipulation  |
\*---------------------------------------------------------------------------*/
FoamFile
{
    format      ascii;
    class       volScalarField;
    location    "9.59";
    object      nut;
}
// * * * * * * * * * * * * * * * * * * * * * * * * * * * * * * * * * * * * * //

dimensions      [0 2 -1 0 0 0 0];

internalField   nonuniform List<scalar> 
2268
(
8.28727e-06
9.82569e-06
1.1954e-05
1.34067e-05
1.45006e-05
1.53603e-05
1.60495e-05
1.6605e-05
1.70552e-05
1.74266e-05
1.77429e-05
1.80222e-05
1.82668e-05
1.84496e-05
1.85059e-05
1.8337e-05
1.79439e-05
1.73387e-05
1.64398e-05
1.52988e-05
1.39927e-05
1.16318e-05
7.72724e-06
1.91999e-05
8.08421e-05
0.000110105
0.000128698
0.000142151
0.000152433
0.000160486
0.000166851
0.000171909
0.000175991
0.000179338
0.000182101
0.00018427
0.000185593
0.000185581
0.000183614
0.000177636
0.000169243
0.000156767
0.000143878
0.000131687
9.79039e-05
2.49224e-05
2.30456e-05
0.000137661
0.000205387
0.000249477
0.000281492
0.000305983
0.000325188
0.000340392
0.000352483
0.00036222
0.000370175
0.000376717
0.000381871
0.000385129
0.000385406
0.000381194
0.000369557
0.000352402
0.000327999
0.000297684
0.000256293
0.000170781
2.97745e-05
2.58947e-05
0.000178039
0.000281559
0.00035126
0.00040245
0.00044183
0.000472845
0.000497509
0.00051721
0.000533102
0.000546065
0.000556659
0.000564948
0.00057024
0.000570979
0.000564834
0.000548605
0.00052378
0.000488374
0.000438816
0.000362906
0.000227288
3.39891e-05
2.81565e-05
0.000208728
0.000343644
0.000437326
0.000506986
0.000560927
0.000603617
0.000637727
0.000665096
0.000687223
0.000705241
0.000719859
0.000731189
0.000738429
0.000739712
0.00073211
0.00071218
0.000680751
0.000634975
0.000566432
0.000456928
0.00027433
3.81261e-05
3.00621e-05
0.000233427
0.00039561
0.00051124
0.000598252
0.000666078
0.000720017
0.000763321
0.000798217
0.000826496
0.000849486
0.000868017
0.000882257
0.000891367
0.000893304
0.000884722
0.000861973
0.000825076
0.000770058
0.000684584
0.000545118
0.000318127
4.26324e-05
3.17484e-05
0.000254211
0.000440209
0.000575774
0.000678907
0.0007598
0.000824434
0.000876565
0.000918754
0.000953022
0.000980847
0.00100315
0.00102019
0.00103114
0.00103389
0.00102478
0.00100016
0.000959119
0.000896717
0.000797976
0.000634681
0.000366308
4.83517e-05
3.33462e-05
0.000272299
0.000479375
0.00063305
0.00075109
0.000844195
0.000918917
0.000979461
0.00102866
0.00106871
0.00110121
0.00112715
0.00114688
0.0011597
0.00116328
0.00115421
0.00112875
0.00108513
0.00101779
0.000910926
0.000734031
0.00043358
5.8056e-05
9.51199e-06
1.40972e-05
1.67095e-05
1.76355e-05
1.79675e-05
1.80961e-05
1.80354e-05
1.78442e-05
1.75285e-05
1.71815e-05
1.64717e-05
1.52979e-05
1.47043e-05
1.46844e-05
1.4164e-05
1.28879e-05
1.10212e-05
8.9694e-06
9.75458e-06
3.1439e-05
0.000111211
0.000150734
0.000168984
0.000177083
0.000179939
0.000180113
0.000178064
0.000174153
0.000169079
0.000159544
0.000139998
0.00013589
0.00014422
0.000138466
0.000124358
0.000100627
6.8313e-05
2.28323e-05
3.53586e-05
0.000196827
0.000290006
0.000337738
0.000360235
0.000369035
0.000370313
0.000366051
0.000357392
0.00034592
0.000328027
0.000299463
0.000288132
0.000290576
0.000275069
0.000242771
0.000190497
0.000116528
2.69842e-05
3.78441e-05
0.00025713
0.000404354
0.00048534
0.000525405
0.000542301
0.000545963
0.0005403
0.000527282
0.00050999
0.00048649
0.000454527
0.000434569
0.000423775
0.000394989
0.00034446
0.000266774
0.00015765
3.03563e-05
3.99436e-05
0.000301496
0.000500613
0.000614493
0.000672557
0.000698227
0.000704985
0.000698722
0.000682345
0.000660298
0.000632599
0.00059813
0.000569457
0.000543984
0.00050094
0.00043342
0.000334154
0.000196074
3.32929e-05
4.33901e-05
0.000337813
0.000587928
0.000731355
0.000805619
0.000839461
0.000849348
0.000842973
0.000824131
0.00079832
0.000766959
0.000729322
0.000692122
0.000652695
0.000595811
0.000512999
0.000395031
0.000231806
3.5987e-05
4.93604e-05
0.00038195
0.000675731
0.000841838
0.000928635
0.000969047
0.000981501
0.000975132
0.000954429
0.000925544
0.000890645
0.000848994
0.000803475
0.000751406
0.000681525
0.000584871
0.000449677
0.000262836
3.85767e-05
6.08954e-05
0.0004519
0.000773106
0.000950714
0.00104488
0.00108947
0.00110362
0.00109703
0.00107488
0.00104333
0.00100484
0.000958532
0.000904953
0.000841412
0.000759429
0.000649299
0.000497474
0.000288311
4.0946e-05
3.54633e-05
0.000297084
0.000533132
0.000712331
0.000851883
0.000962912
0.00105273
0.00112616
0.00118638
0.00123573
0.00127582
0.00130769
0.00133188
0.00134755
0.00135272
0.00134442
0.00131911
0.00127392
0.001203
0.00109266
0.000920089
0.000661199
0.000332051
3.82544e-05
0.000327225
0.000596101
0.000804337
0.000968461
0.00109979
0.00120695
0.00129559
0.00136905
0.0014296
0.00147887
0.0015179
0.00154727
0.00156663
0.0015747
0.00156932
0.0015477
0.00150687
0.00144238
0.0013458
0.0012049
0.00100955
0.000765428
4.21194e-05
0.0003596
0.000657369
0.000890377
0.00107498
0.00122229
0.00134392
0.00144609
0.00153151
0.00160213
0.00165976
0.00170544
0.00173975
0.00176312
0.001775
0.00177413
0.00175882
0.00172699
0.00167579
0.00160032
0.00149602
0.00136297
0.00121441
0.000204498
0.000439398
0.000730331
0.000980141
0.00118039
0.00133734
0.00146983
0.00158373
0.00167944
0.00175865
0.00182389
0.00187595
0.00191523
0.00194308
0.00195962
0.00196429
0.00195635
0.00193445
0.00189779
0.00184312
0.00177002
0.00168378
0.00159984
5.0883e-05
0.000438783
0.000798711
0.00106175
0.00127319
0.00144138
0.00158376
0.00170767
0.00181284
0.00190041
0.00197352
0.0020326
0.00207714
0.00210967
0.00213136
0.00214193
0.00214076
0.00212666
0.00210253
0.00206682
0.00201774
0.00196226
0.00191297
5.8052e-05
0.000487271
0.000819419
0.00109839
0.00133346
0.00151846
0.00167265
0.00180716
0.00192247
0.00202006
0.0021026
0.0021706
0.00222359
0.00226313
0.00229028
0.00230581
0.00231029
0.00230192
0.00228471
0.0022642
0.00223709
0.00220358
0.00217293
0.000243504
0.000563524
0.000871041
0.00114795
0.00138485
0.00158097
0.00174845
0.00189395
0.00201892
0.00212533
0.00221576
0.00229144
0.00235213
0.00239861
0.00243171
0.0024524
0.00246223
0.00246217
0.00245492
0.00244509
0.00243312
0.00241797
0.00240508
0.000259877
0.000594295
0.000910542
0.00119034
0.00143112
0.00163773
0.00181634
0.00197146
0.00210534
0.00222016
0.00231828
0.00240133
0.00246933
0.00252286
0.00256282
0.00259015
0.00260671
0.00261497
0.00261726
0.0026167
0.00261496
0.00261225
0.00261046
0.000267861
0.000607934
0.000935273
0.00122365
0.00147337
0.0016899
0.00187828
0.00204235
0.00218469
0.0023076
0.00241331
0.00250357
0.00257876
0.00263947
0.00268671
0.00272155
0.00274555
0.00276143
0.00277166
0.00277868
0.00278429
0.00278915
0.00279353
0.000273007
0.000616706
0.000954037
0.0012523
0.00151182
0.00173793
0.00193544
0.00210805
0.00225853
0.00238917
0.0025021
0.00259914
0.0026811
0.00274879
0.00280325
0.0028455
0.00287685
0.00289974
0.00291663
0.00292967
0.00294044
0.00294965
0.002957
0.000277029
0.000624308
0.000970304
0.0012782
0.00154742
0.00178271
0.00198881
0.00216951
0.00232767
0.00246552
0.00258516
0.00268846
0.00277664
0.00285075
0.00291183
0.00296081
0.0029989
0.00302814
0.00305077
0.00306868
0.00308317
0.00309475
0.00310306
0.000280582
0.000632104
0.000985944
0.00130281
0.00158104
0.00182501
0.00203917
0.00222741
0.00239264
0.00253707
0.00266281
0.00277183
0.00286563
0.00294543
0.0030123
0.00306714
0.0031111
0.00314588
0.00317344
0.00319536
0.00321266
0.00322566
0.003234
0.000283832
0.000640102
0.00100128
0.0013265
0.00161316
0.00186522
0.002087
0.00228223
0.00245388
0.00260422
0.00273544
0.0028496
0.00294836
0.0030331
0.00310492
0.00316471
0.00321365
0.00325315
0.00328486
0.00331008
0.0033296
0.00334363
0.00335188
0.000286816
0.000647981
0.00101608
0.00134917
0.00164384
0.00190358
0.0021325
0.00233426
0.00251175
0.00266737
0.00280348
0.00292217
0.00302522
0.00311414
0.00319006
0.00325401
0.0033071
0.00335055
0.00338572
0.00341368
0.00343505
0.00345003
0.00345843
0.000289548
0.000655391
0.00102998
0.00137063
0.00167307
0.00194021
0.00217589
0.00238361
0.00256635
0.0027267
0.0028671
0.00298975
0.00309649
0.00318891
0.00326826
0.00333566
0.00339216
0.00343888
0.00347694
0.00350723
0.00353029
0.00354631
0.00355522
0.00029202
0.000661822
0.00104257
0.00139077
0.00170093
0.00197526
0.00221732
0.00243053
0.00261799
0.00278253
0.00292669
0.00305274
0.00316261
0.00325795
0.00334013
0.00341033
0.00346963
0.00351906
0.00355957
0.00359195
0.00361667
0.00363395
0.0036438
0.000294018
0.000665592
0.00105298
0.00140942
0.00172755
0.00200892
0.00225698
0.00247522
0.00266694
0.00283515
0.00298255
0.00311147
0.00322394
0.00332169
0.00340619
0.0034787
0.00354032
0.00359204
0.00363475
0.00366911
0.00369561
0.00371446
0.00372572
0.000294457
0.000662736
0.00105984
0.00142645
0.00175309
0.00204142
0.0022951
0.00251792
0.00271341
0.0028848
0.00303492
0.00316622
0.00328082
0.00338056
0.00346699
0.00354145
0.00360508
0.00365888
0.00370366
0.00374008
0.00376858
0.00378939
0.00380258
0.000295167
0.000660962
0.00106643
0.00144294
0.001778
0.00207301
0.00233191
0.00255885
0.00275764
0.00293171
0.00308406
0.00321728
0.00333362
0.003435
0.00352309
0.00359929
0.0036648
0.00372062
0.00376757
0.00380626
0.00383711
0.00386035
0.00387604
0.000294737
0.000650559
0.00107157
0.0014592
0.00180257
0.00210391
0.00236761
0.00259821
0.00279981
0.0029761
0.00313024
0.00326499
0.00338274
0.00348554
0.00357514
0.00365302
0.00372044
0.00377842
0.00382777
0.00386908
0.00390276
0.00392901
0.00394785
0.000294072
0.000637721
0.00107768
0.0014757
0.00182699
0.00213426
0.00240234
0.00263615
0.00284013
0.0030182
0.00317376
0.00330974
0.00342869
0.00353278
0.00362387
0.00370353
0.00377305
0.00383347
0.00388562
0.00393006
0.00396715
0.00399706
0.00401976
0.000295239
0.000640335
0.00108441
0.00149241
0.00185133
0.00216415
0.0024362
0.0026728
0.00287876
0.00305826
0.00321495
0.00335196
0.003472
0.0035774
0.00367011
0.00375177
0.00382373
0.00388706
0.00394254
0.00399073
0.00403193
0.00406623
0.00409355
0.000295014
0.000632057
0.00109118
0.00150934
0.00187558
0.00219361
0.00246925
0.00270829
0.00291588
0.00309654
0.00325417
0.00339212
0.0035133
0.00362014
0.00371474
0.00379879
0.00387369
0.0039405
0.00399998
0.00405264
0.00409871
0.00413822
0.00417096
0.000294647
0.000623342
0.00109838
0.00152648
0.00189976
0.00222264
0.00250154
0.00274269
0.00295167
0.00313331
0.00329181
0.00343076
0.00355322
0.00366181
0.00375871
0.00384568
0.00392413
0.00399512
0.00405937
0.00411731
0.0041691
0.00421465
0.00425365
0.00029486
0.000619479
0.00110614
0.0015438
0.00192381
0.00225123
0.00253308
0.00277611
0.0029863
0.00316886
0.00332828
0.0034684
0.00359246
0.00370323
0.00380298
0.00389351
0.00397626
0.00405223
0.0041221
0.0041862
0.0042446
0.00429706
0.00434316
0.000295326
0.00061762
0.00111438
0.00156123
0.00194765
0.00227932
0.00256388
0.0028086
0.00301994
0.00320348
0.00336401
0.0035056
0.00363171
0.00374522
0.00384848
0.00394334
0.0040312
0.00411303
0.00418943
0.00426063
0.00432654
0.00438683
0.00444089
0.000294532
0.000609904
0.00112277
0.00157862
0.00197115
0.0023068
0.00259387
0.00284021
0.00305275
0.00323744
0.00339938
0.0035429
0.00367162
0.00378854
0.00389607
0.00399609
0.00408996
0.00417859
0.00426248
0.00434172
0.00441611
0.00448512
0.00454801
0.000295216
0.000609253
0.00113145
0.00159581
0.00199411
0.00233349
0.00262296
0.00287094
0.00308483
0.00327098
0.00343477
0.00358077
0.00371276
0.00383385
0.00394649
0.00405255
0.00415336
0.00424975
0.0043421
0.00443038
0.00451421
0.00459289
0.00466548
0.000295428
0.000607434
0.00114019
0.0016126
0.00201625
0.00235914
0.00265096
0.00290071
0.00311625
0.00330427
0.00347046
0.00361959
0.00375559
0.00388165
0.00400025
0.00411325
0.00422194
0.00432707
0.00442889
0.00452723
0.00462151
0.00471084
0.00479406
0.000295835
0.000606988
0.00114879
0.00162853
0.00203719
0.00238343
0.00267764
0.00292939
0.00314696
0.0033374
0.00350663
0.0036596
0.00380037
0.0039322
0.00405761
0.00417845
0.00429596
0.0044108
0.00452312
0.00463259
0.00473841
0.00483945
0.00493428
0.000295872
0.000604749
0.00115657
0.00164316
0.0020564
0.00240587
0.00270263
0.00295675
0.00317689
0.00337036
0.00354331
0.00370085
0.00384714
0.00398551
0.00411853
0.00424805
0.00437529
0.00450085
0.00462477
0.00474652
0.00486509
0.00497903
0.00508659
0.0002962
0.000604445
0.00116351
0.00165588
0.00207314
0.00242574
0.00272534
0.00298238
0.00320576
0.00340299
0.00358038
0.00374318
0.00389567
0.00404126
0.0041826
0.00432159
0.00445947
0.0045968
0.00473352
0.00486891
0.00500163
0.00512986
0.00525142
6.96409e-05
0.000597149
0.00116873
0.00166562
0.00208622
0.00244197
0.00274494
0.00300567
0.00323314
0.00343494
0.00361749
0.00378619
0.00394545
0.00409884
0.0042491
0.00439829
0.00454772
0.00469799
0.00484892
0.00499954
0.00514812
0.00529232
0.00542939
0.000295389
0.000599322
0.00117136
0.00167056
0.00209375
0.002453
0.00276027
0.00302582
0.00325843
0.00346568
0.00365409
0.00382922
0.00399569
0.00415728
0.00431697
0.00447704
0.004639
0.00480353
0.00497037
0.00513823
0.00530482
0.00546708
0.0056215
0.000295859
0.000599154
0.00116868
0.00166739
0.00209276
0.00245657
0.0027698
0.0030418
0.00328088
0.00349454
0.00368944
0.00387139
0.00404533
0.00421536
0.00438486
0.00455646
0.00473202
0.00491239
0.00509723
0.00528484
0.00547219
0.00565522
0.0058293
6.96729e-05
0.000589164
0.0011549
0.00165038
0.00207868
0.00244961
0.00277163
0.00305245
0.00329968
0.00352077
0.00372269
0.00391167
0.00409311
0.00427165
0.00445119
0.00463494
0.00482523
0.00502323
0.00522859
0.00543912
0.00565085
0.00585826
0.00605506
0.000295794
0.00057906
0.00112106
0.0016103
0.00204481
0.00242812
0.00276365
0.00305663
0.00331403
0.00354359
0.00375291
0.00394891
0.00413768
0.00432455
0.00451418
0.00471053
0.00491664
0.00513418
0.00536292
0.0056003
0.0058412
0.00607813
0.00630208
0.000295138
0.000543763
0.0010475
0.00153163
0.001982
0.00238763
0.00274395
0.00305353
0.0033234
0.00356237
0.00377922
0.00398196
0.00417761
0.00437239
0.00457186
0.00478095
0.00500361
0.00524232
0.00549739
0.00576625
0.00604286
0.00631713
0.00657536
0.000295169
0.000438112
0.000894868
0.00139205
0.00188026
0.00232482
0.00271196
0.00304325
0.00332775
0.0035767
0.00380087
0.00400976
0.00421153
0.00441343
0.00462205
0.00484338
0.00508253
0.00534319
0.0056269
0.00593223
0.00625341
0.00657784
0.00688346
8.58223e-05
0.000233706
0.000633566
0.00117625
0.00173622
0.00224152
0.0026703
0.00302759
0.00332785
0.00358655
0.0038173
0.00403137
0.00423818
0.00444601
0.00466244
0.00489457
0.00514878
0.00543037
0.00574312
0.00608885
0.00646568
0.00686223
0.00724367
0.000187391
0.000112831
0.000335067
0.000907949
0.00156745
0.00215103
0.00262716
0.00301078
0.00332547
0.00359236
0.00382821
0.00404608
0.00425651
0.00446862
0.00469082
0.00493113
0.00519709
0.00549573
0.00583389
0.00621929
0.00666125
0.00716529
0.00769793
0.000413107
0.00013705
0.000155962
0.000679661
0.00143009
0.00208407
0.00259729
0.00299925
0.00332312
0.00359486
0.00383356
0.00405346
0.00426579
0.00448016
0.00470544
0.00495018
0.00522264
0.00553105
0.00588477
0.00629779
0.00679692
0.00744101
0.00836923
6.35927e-05
5.86397e-05
5.84954e-05
6.2656e-05
0.0005694
0.000541011
0.000540069
0.000566148
0.00112184
0.00109334
0.00109106
0.00111498
0.00155544
0.00153874
0.00153571
0.00154721
0.00189312
0.00188732
0.00188473
0.00188777
0.00216551
0.00216598
0.00216555
0.00216627
0.00240259
0.00240277
0.00240287
0.00240232
0.00261098
0.00261107
0.0026106
0.00260955
0.00279573
0.00279625
0.00279565
0.0027939
0.00295968
0.00296016
0.00295921
0.00295676
0.00310544
0.00310554
0.00310403
0.00310081
0.00323575
0.00323531
0.00323314
0.00322919
0.00335305
0.00335215
0.00334944
0.0033449
0.0034593
0.00345816
0.00345516
0.00345029
0.00355618
0.00355507
0.00355207
0.00354716
0.00364528
0.00364447
0.00364176
0.00363712
0.00372813
0.00372793
0.00372582
0.00372176
0.00380638
0.00380709
0.00380588
0.00380274
0.00388172
0.00388365
0.00388369
0.00388179
0.0039559
0.00395941
0.00396102
0.00396072
0.00403074
0.00403616
0.00403972
0.00404136
0.00410802
0.00411572
0.00412157
0.00412552
0.0041895
0.00419985
0.00420836
0.00421497
0.00427685
0.00429023
0.00430175
0.00431137
0.00437162
0.00438838
0.00440328
0.00441624
0.00447518
0.00449569
0.00451431
0.00453094
0.00458873
0.00461333
0.00463601
0.00465663
0.00471322
0.00474229
0.00476935
0.00479427
0.00484942
0.00488333
0.00491512
0.00494465
0.00499793
0.00503705
0.00507393
0.00510839
0.00515924
0.005204
0.00524632
0.00528604
0.00533387
0.00538471
0.00543289
0.00547819
0.00552253
0.00557997
0.00563441
0.00568562
0.00572636
0.00579094
0.00585205
0.00590947
0.00594707
0.00601936
0.00608756
0.00615141
0.00618719
0.00626787
0.00634352
0.00641389
0.00645048
0.00654028
0.00662366
0.00670039
0.00674269
0.00684246
0.00693355
0.00701591
0.00707351
0.00718384
0.00728171
0.00736764
0.00746082
0.00758051
0.00768129
0.00776553
0.00794
0.00805944
0.0081507
0.00822094
0.00857893
0.00865707
0.00870563
0.00873775
0.000319148
0.000674467
0.000950504
0.00112338
0.00122066
0.0012682
0.00128338
0.00127598
0.00125174
0.0012162
0.00117167
0.00111726
0.00105129
0.000970796
0.000869956
0.000738956
0.000562361
0.000321391
4.31028e-05
0.000757302
0.0010156
0.00122124
0.0013611
0.0014448
0.0014865
0.0014981
0.00148748
0.00145968
0.00141892
0.00136641
0.00130013
0.00121849
0.00111853
0.00099404
0.000835844
0.000629094
0.000352333
4.45218e-05
0.0012056
0.00136004
0.00149686
0.00159747
0.00166019
0.0016905
0.00169481
0.0016785
0.00164557
0.00159882
0.00153764
0.00145991
0.0013636
0.00124628
0.00110063
0.000917277
0.000682343
0.000376304
4.63128e-05
0.00158943
0.00167388
0.00175817
0.00182386
0.00186476
0.00188145
0.00187628
0.00185243
0.00181285
0.00175938
0.00169028
0.00160216
0.00149217
0.00136036
0.00119781
0.000994243
0.000739301
0.000438952
0.00020259
0.00190242
0.00195035
0.00199837
0.00203553
0.00205672
0.00205942
0.00204359
0.00201078
0.001963
0.00190085
0.00182255
0.00172604
0.00160775
0.00146366
0.00128928
0.00107034
0.000791263
0.000430034
5.25235e-05
0.0021682
0.00219374
0.00221807
0.00223375
0.00223748
0.00222603
0.00219792
0.00215407
0.00209535
0.00202218
0.0019332
0.00182774
0.00170256
0.00155296
0.00137246
0.00114628
0.00085985
0.000492443
0.000257604
0.00240112
0.00240971
0.00241667
0.00241601
0.00240525
0.00238075
0.00234055
0.0022851
0.00221522
0.00213082
0.00203108
0.00191648
0.00178304
0.00162196
0.00143294
0.0012047
0.000925357
0.000595049
0.00028251
0.00260683
0.00260302
0.00259635
0.00258323
0.00256044
0.00252416
0.00247245
0.00240614
0.00232552
0.00222993
0.00211818
0.00198964
0.00184106
0.00166755
0.00146695
0.00123072
0.000943956
0.000591476
0.000294692
0.00278903
0.00277699
0.00276005
0.00273668
0.00270327
0.00265612
0.00259429
0.00251814
0.00242732
0.00232069
0.00219646
0.00205258
0.0018867
0.00169699
0.00148191
0.00123406
0.000938375
0.000577356
0.000294514
0.00295011
0.00293285
0.00290863
0.0028769
0.00283434
0.00277786
0.0027071
0.00262189
0.00252133
0.0024039
0.00226727
0.00210852
0.00192562
0.00171912
0.00148859
0.00122791
0.000926403
0.00057684
0.000294766
0.00309259
0.00307193
0.00304269
0.00300439
0.00295445
0.00289055
0.0028123
0.00271912
0.0026097
0.0024822
0.00233401
0.00216188
0.00196372
0.00174055
0.00149331
0.00121919
0.000912637
0.000569996
0.000294331
0.00321969
0.00319655
0.00316376
0.0031206
0.00306514
0.00299572
0.00291163
0.00281194
0.00269513
0.00255907
0.00240101
0.00221759
0.00200646
0.00176823
0.00150436
0.00121499
0.000899365
0.000557881
0.000294166
0.00333438
0.00330949
0.0032742
0.00322764
0.00316839
0.00309509
0.00300676
0.00290222
0.00277977
0.00263715
0.00247149
0.00227939
0.00205818
0.00180739
0.00152832
0.00122302
0.000894138
0.00054453
6.94667e-05
0.00343917
0.00341317
0.00337629
0.00332764
0.00326603
0.00319025
0.00309914
0.00299137
0.0028651
0.00271801
0.00254717
0.00234926
0.00212119
0.00186129
0.00156977
0.00124907
0.000901824
0.00053856
0.000294743
0.00353593
0.00350956
0.003472
0.00342239
0.00335965
0.00328261
0.00319004
0.00308047
0.00295203
0.00280234
0.00262855
0.00242737
0.00219546
0.00193014
0.00162989
0.0012946
0.000923703
0.000522024
0.00029258
0.00362632
0.00360036
0.00356304
0.00351349
0.00345069
0.00337347
0.00328057
0.00317043
0.00304115
0.00289039
0.00271534
0.00251273
0.00227906
0.00201084
0.0017046
0.00135627
0.000962519
0.000525709
6.94192e-05
0.00371193
0.00368721
0.00365101
0.00360247
0.00354056
0.00346412
0.00337183
0.00326209
0.003133
0.00298222
0.00280697
0.00260395
0.00236937
0.00209886
0.00178701
0.00142632
0.00100881
0.000536405
0.000295919
0.00379444
0.00377178
0.00373757
0.00369091
0.00363075
0.0035559
0.00346499
0.0033564
0.00322819
0.00307802
0.00290308
0.00269994
0.00246441
0.00219123
0.00187331
0.00150073
0.00106158
0.000550504
6.98428e-05
0.0038756
0.00385583
0.00382443
0.00378045
0.0037228
0.00365023
0.00356132
0.00345441
0.00332751
0.00317825
0.00300371
0.00280028
0.00256336
0.00228687
0.00196239
0.00157811
0.00111904
0.000577874
0.000296191
0.00395722
0.00394115
0.00391336
0.0038728
0.00381833
0.00374862
0.0036622
0.00355732
0.00343195
0.00328362
0.00310931
0.00290519
0.00266624
0.00238572
0.0020542
0.00165831
0.00118027
0.000606538
7.03561e-05
0.00404113
0.00402957
0.00400613
0.00396968
0.00391897
0.00385262
0.00376903
0.00366641
0.00354261
0.00339509
0.00322065
0.00301525
0.00277351
0.00248817
0.00214898
0.00174149
0.00124619
0.000646556
7.37292e-05
0.00412916
0.00412287
0.00410448
0.00407276
0.00402634
0.00396374
0.00388326
0.003783
0.00366073
0.00351375
0.00333872
0.00313136
0.00288594
0.00259479
0.00224695
0.0018269
0.00131337
0.000686483
7.74381e-05
0.00422305
0.00422278
0.00421011
0.00418367
0.004142
0.00408347
0.0040063
0.00390845
0.00378756
0.0036408
0.00346462
0.00325461
0.00300474
0.00270679
0.00234911
0.00191501
0.00138109
0.000724074
8.13285e-05
0.00432445
0.00433091
0.00432456
0.00430392
0.00426739
0.00421322
0.00413949
0.00404405
0.00392436
0.00377749
0.00359974
0.00338639
0.00313114
0.00282532
0.00245656
0.002007
0.00145118
0.000762702
8.52428e-05
0.00443486
0.00444872
0.00444926
0.00443488
0.00440383
0.00435425
0.00428409
0.00419104
0.00407247
0.0039252
0.00374537
0.00352798
0.00326644
0.00295162
0.0025705
0.00210405
0.00152486
0.000803488
8.9152e-05
0.00455563
0.0045775
0.00458545
0.00457773
0.00455249
0.00450772
0.00444126
0.00435065
0.00423307
0.00408515
0.00390277
0.00368069
0.00341195
0.003087
0.00269215
0.00220728
0.00160306
0.000846982
9.31194e-05
0.00468787
0.00471835
0.00473419
0.00473351
0.00471436
0.00467463
0.00461202
0.00452391
0.00440727
0.00425852
0.00407324
0.00384587
0.00356909
0.00323288
0.00282286
0.00231784
0.00168657
0.000893382
9.74085e-05
0.00483256
0.00487219
0.00489634
0.00490305
0.00489027
0.00485579
0.0047972
0.00471172
0.00459609
0.00444646
0.00425807
0.00402496
0.00373938
0.00339078
0.0029641
0.00243702
0.00177631
0.000943004
0.000102276
0.00499044
0.00503975
0.00507261
0.00508701
0.00508083
0.00505183
0.00499748
0.00491484
0.00480044
0.00465006
0.00445855
0.00421946
0.00392448
0.00356244
0.00311754
0.0025663
0.00187346
0.000996515
0.000107864
0.00516215
0.00522162
0.00526353
0.00528585
0.00528648
0.00526318
0.00521335
0.0051339
0.00502111
0.00487037
0.00467602
0.00443098
0.00412624
0.00374984
0.00328512
0.00270744
0.00197944
0.00105496
0.000114122
0.00534824
0.00541829
0.0054695
0.0054999
0.00550748
0.00549007
0.00544509
0.00536932
0.00525875
0.00510836
0.00491183
0.00466128
0.00434676
0.00395531
0.00346919
0.00286252
0.00209591
0.00111946
0.00012098
0.00554928
0.00563024
0.00569087
0.00572935
0.00574391
0.00573255
0.00569276
0.00562129
0.00551384
0.00536487
0.00516732
0.00491227
0.00458851
0.00418169
0.00367267
0.00303413
0.00222475
0.00119094
0.000128524
0.005766
0.00585803
0.00592795
0.0059743
0.00599568
0.00599041
0.00595618
0.00588974
0.00578657
0.00564057
0.00544379
0.00518601
0.00485434
0.00443249
0.00389932
0.00322572
0.00236844
0.00127057
0.000136884
0.00599942
0.00610238
0.00618113
0.00623478
0.00626253
0.00626321
0.00623485
0.00617429
0.00607683
0.00593586
0.00574241
0.00548468
0.0051476
0.00471213
0.00415421
0.00344209
0.00253051
0.00136005
0.000146228
0.00625102
0.0063643
0.00645087
0.00651075
0.00654404
0.00655025
0.00652791
0.00647411
0.00638407
0.00625072
0.00606403
0.00581044
0.00547209
0.0050262
0.00444422
0.00369023
0.00271633
0.00146195
0.000156733
0.0065229
0.00664513
0.00673772
0.00680211
0.00683957
0.00685053
0.00683416
0.00678793
0.00670718
0.0065845
0.00640897
0.00616515
0.00583195
0.00538158
0.00477881
0.00398058
0.00293434
0.00158021
0.00016871
0.00681791
0.00694654
0.00704229
0.00710861
0.00714826
0.00716274
0.00715197
0.00711396
0.00704434
0.00693571
0.00677657
0.00654989
0.00623118
0.00578648
0.00517088
0.00432909
0.00319863
0.00172132
0.000182791
0.0071398
0.00727046
0.00736508
0.00742975
0.00746895
0.00748526
0.00747937
0.0074499
0.00739303
0.00730179
0.00716478
0.00696416
0.00667265
0.00624969
0.00563751
0.00476054
0.0035343
0.001898
0.000199896
0.00749327
0.00761872
0.0077061
0.00776457
0.00780012
0.00781619
0.00781408
0.00779302
0.00774998
0.00767897
0.00756961
0.00740476
0.00715632
0.00677867
0.00619969
0.00531327
0.00398848
0.00213868
0.000221378
0.00788324
0.00799221
0.00806442
0.00811139
0.00813985
0.00815345
0.00815372
0.00814041
0.00811144
0.00806228
0.00798476
0.00786457
0.00767642
0.00737503
0.00687863
0.00604438
0.00465407
0.00251548
0.000249698
0.00831241
0.00838921
0.00843726
0.0084676
0.00848586
0.00849493
0.00849608
0.00848934
0.00847357
0.00844611
0.00840192
0.00833175
0.00821809
0.00802613
0.00768264
0.00702743
0.0057214
0.0032455
0.000289321
0.00877503
0.00880288
0.00881939
0.00882957
0.00883569
0.00883884
0.00883949
0.00883771
0.00883318
0.0088251
0.00881193
0.00879073
0.00875568
0.00869413
0.00857483
0.00830628
0.00756972
0.00520536
0.000343281
)
;

boundaryField
{
    leftWall
    {
        type            nutkWallFunction;
        Cmu             0.09;
        kappa           0.41;
        E               9.8;
        value           nonuniform List<scalar> 
50
(
1.25343e-06
2.13398e-06
2.65286e-06
3.03e-06
3.32563e-06
3.57233e-06
3.78895e-06
3.99274e-06
4.26138e-06
4.6114e-06
5.08363e-06
0
8.56814e-07
0
0
0
0
0
0
0
0
0
0
0
0
0
1.26508e-10
0
0
1.35434e-09
0
0
0
1.15892e-11
0
0
0
4.91059e-09
4.59926e-09
1.0278e-08
0
0
6.57007e-09
0
5.65909e-09
0
0
2.59538e-06
1.80044e-05
4.87251e-05
)
;
    }
    rightWall
    {
        type            nutkWallFunction;
        Cmu             0.09;
        kappa           0.41;
        E               9.8;
        value           nonuniform List<scalar> 
50
(
1.73793e-06
2.62314e-06
3.1718e-06
3.60944e-06
3.98565e-06
4.32741e-06
4.65316e-06
4.9488e-06
5.21666e-06
5.39209e-06
5.60558e-06
0
4.95181e-07
0
0
0
0
0
0
0
0
0
1.55019e-10
0
6.16992e-09
0
8.42524e-09
8.01255e-08
6.49596e-07
1.26029e-06
1.89652e-06
2.53154e-06
3.14465e-06
3.7768e-06
4.45915e-06
5.23817e-06
6.12567e-06
7.09897e-06
8.15659e-06
9.30931e-06
1.05764e-05
1.19795e-05
1.35318e-05
1.52871e-05
1.73405e-05
1.98072e-05
2.28599e-05
2.68241e-05
3.22721e-05
3.9538e-05
)
;
    }
    lowerWall
    {
        type            nutkWallFunction;
        Cmu             0.09;
        kappa           0.41;
        E               9.8;
        value           nonuniform List<scalar> 
62
(
2.25138e-07
8.00515e-07
1.11448e-06
1.32423e-06
1.48012e-06
1.60152e-06
1.69817e-06
1.7757e-06
1.83829e-06
1.8898e-06
1.93358e-06
1.97218e-06
2.00592e-06
2.03111e-06
2.03884e-06
2.01556e-06
1.9612e-06
1.87738e-06
1.75236e-06
1.59259e-06
1.40797e-06
1.06789e-06
4.82087e-07
4.82087e-07
2.90336e-06
3.5367e-06
4.07621e-06
4.59826e-06
5.16001e-06
5.86265e-06
7.03081e-06
7.68455e-06
7.10001e-06
7.08288e-06
7.57495e-06
7.53434e-07
3.74885e-06
4.24707e-06
4.5591e-06
4.82233e-06
5.2517e-06
5.985e-06
7.37051e-06
7.53434e-07
1.42351e-06
1.79124e-06
1.9196e-06
1.96547e-06
1.98335e-06
1.97495e-06
1.94865e-06
1.90494e-06
1.8567e-06
1.75809e-06
1.59389e-06
1.50906e-06
1.50603e-06
1.43231e-06
1.25007e-06
9.78378e-07
6.71517e-07
3.5932e-07
)
;
    }
    atmosphere
    {
        type            calculated;
        value           nonuniform List<scalar> 
46
(
0.009
0.00013705
0.000155962
0.000679661
0.00143009
0.00208407
0.00259729
0.00299925
0.00332312
0.00359486
0.00383356
0.00405346
0.00426579
0.00448016
0.00470544
0.00495018
0.00522264
0.00553105
0.00588477
0.00629779
0.00679692
0.00744101
0.009
0.009
0.009
0.009
0.009
0.009
0.009
0.009
0.009
0.009
0.009
0.009
0.009
0.009
0.009
0.009
0.009
0.009
0.009
0.009
0.009
0.009
0.009
0.000343281
)
;
    }
    defaultFaces
    {
        type            empty;
    }
}


// ************************************************************************* //
