/*--------------------------------*- C++ -*----------------------------------*\
  =========                 |
  \\      /  F ield         | OpenFOAM: The Open Source CFD Toolbox
   \\    /   O peration     | Website:  https://openfoam.org
    \\  /    A nd           | Version:  9
     \\/     M anipulation  |
\*---------------------------------------------------------------------------*/
FoamFile
{
    format      ascii;
    class       volScalarField;
    location    "1.7";
    object      k;
}
// * * * * * * * * * * * * * * * * * * * * * * * * * * * * * * * * * * * * * //

dimensions      [0 2 -2 0 0 0 0];

internalField   nonuniform List<scalar> 
2268
(
0.00209641
0.00542026
0.0082266
0.0103518
0.0120215
0.0134015
0.0145685
0.0155658
0.0164112
0.017117
0.0177076
0.0182078
0.0186203
0.0189149
0.0190422
0.018966
0.0185963
0.0177706
0.0164641
0.0147297
0.012505
0.00897592
0.00463472
0.00413919
0.0122948
0.0179696
0.0223509
0.0259076
0.0288778
0.031403
0.033568
0.0354184
0.0369886
0.0383222
0.0394576
0.0404018
0.0411166
0.0415196
0.0415103
0.0409647
0.0396302
0.0374321
0.0344358
0.0300365
0.0226909
0.0103015
0.00578675
0.0161935
0.0230639
0.0284813
0.0329327
0.0366769
0.0398775
0.0426364
0.0450117
0.047047
0.0487925
0.0502936
0.0515646
0.0525744
0.0532477
0.0534885
0.053166
0.0520595
0.0499734
0.0467273
0.04155
0.0324709
0.0147449
0.00739079
0.0192807
0.0269765
0.033058
0.0380917
0.0423534
0.0460193
0.049201
0.0519621
0.054349
0.0564167
0.0582183
0.0597792
0.0610796
0.0620554
0.0626206
0.0626531
0.0619502
0.0602447
0.0571631
0.0517567
0.0417525
0.0197151
0.00885405
0.0220629
0.0304278
0.0370105
0.0424817
0.0471418
0.0511797
0.0547137
0.0578069
0.0605042
0.0628652
0.0649547
0.0668138
0.0684369
0.0697702
0.070738
0.0712317
0.0710644
0.0699339
0.0673419
0.0621742
0.0516423
0.025148
0.0102468
0.0246927
0.0336512
0.0406498
0.0464771
0.0514692
0.0558318
0.0596878
0.0630937
0.0660883
0.068737
0.0711227
0.0733082
0.075304
0.0770647
0.0785218
0.0795855
0.0800899
0.0797309
0.0779555
0.073547
0.0631317
0.0317226
0.0115375
0.0272328
0.0367504
0.0441172
0.0502512
0.055537
0.0602032
0.0643757
0.0680961
0.0713905
0.0743339
0.0770365
0.0795907
0.0820242
0.0842952
0.0863376
0.0880865
0.0894077
0.0900254
0.0894067
0.0863836
0.0773294
0.0422639
0.0128021
0.0297269
0.0397859
0.0474926
0.0539023
0.0594617
0.0644304
0.0689346
0.0729879
0.0765957
0.079849
0.0828989
0.0858778
0.0888299
0.0917071
0.0944402
0.0969954
0.0992824
0.10108
0.101941
0.100957
0.0953161
0.0655047
0.0102401
0.0233216
0.0364499
0.0424744
0.0435054
0.041681
0.0376135
0.0326539
0.0285925
0.0250202
0.0213942
0.0176023
0.0142169
0.0119298
0.0107997
0.0101634
0.009088
0.00792601
0.0062526
0.0183915
0.049534
0.0738765
0.0840994
0.0855415
0.0817706
0.0746265
0.066145
0.0585868
0.0518726
0.0449841
0.0381697
0.032344
0.0280848
0.0257382
0.0241266
0.0213044
0.0170477
0.0101865
0.0211669
0.0636765
0.0906012
0.102667
0.104907
0.101065
0.0932417
0.083919
0.0753128
0.0672765
0.0590257
0.0508619
0.0436744
0.0382758
0.0350466
0.0326779
0.0291787
0.0236589
0.0130304
0.0239
0.0744446
0.102889
0.115849
0.118492
0.114649
0.106482
0.0966142
0.0873281
0.0784249
0.0692781
0.0603085
0.0523533
0.0463058
0.0424414
0.0393923
0.0354154
0.0296472
0.0161218
0.0292906
0.0858088
0.115011
0.128116
0.130561
0.126221
0.117467
0.106966
0.0970314
0.087405
0.077509
0.0679734
0.0596296
0.0532889
0.0489995
0.0453665
0.0409255
0.0348921
0.0195485
0.0422361
0.100631
0.129074
0.14136
0.142755
0.137151
0.12729
0.115932
0.105294
0.0950106
0.0844733
0.0745593
0.0661031
0.0596927
0.0551449
0.0510501
0.0461586
0.0396382
0.0228672
0.0700062
0.120582
0.146229
0.156433
0.155756
0.147987
0.136403
0.123924
0.112522
0.101625
0.0906064
0.0805137
0.0721332
0.0657416
0.0610563
0.0566757
0.0513969
0.0441353
0.0256301
0.107217
0.14564
0.166552
0.173411
0.169674
0.158843
0.144955
0.131115
0.118892
0.107448
0.0962155
0.0861934
0.0779358
0.0715368
0.0667957
0.0623709
0.0567988
0.0485677
0.0270582
0.0145477
0.0334196
0.0443482
0.0525826
0.0594109
0.0654044
0.0708863
0.0759761
0.0806134
0.0847549
0.088533
0.0921932
0.0959542
0.0998822
0.103894
0.107896
0.111905
0.115928
0.119853
0.123417
0.126261
0.127655
0.1231
0.0169469
0.0385799
0.0507423
0.059638
0.0669689
0.0735875
0.0799708
0.0861839
0.0918873
0.0968896
0.101489
0.106212
0.111491
0.117358
0.123506
0.12977
0.136281
0.143152
0.150413
0.157877
0.165547
0.173974
0.18378
0.0197075
0.0443153
0.0578811
0.067302
0.0750005
0.0823382
0.0900895
0.0981654
0.105423
0.111376
0.11685
0.122985
0.130623
0.139495
0.148544
0.157475
0.166932
0.177043
0.187823
0.198471
0.208611
0.219286
0.232463
0.0241368
0.0515623
0.0666254
0.0761118
0.0837992
0.0919335
0.10195
0.113515
0.123041
0.129618
0.135781
0.143868
0.155585
0.169437
0.182095
0.193579
0.206412
0.219869
0.234042
0.246318
0.255596
0.264948
0.280582
0.0335108
0.0610684
0.0742847
0.0833548
0.091176
0.100268
0.112796
0.126437
0.134364
0.140715
0.147711
0.15813
0.173811
0.191354
0.207097
0.22292
0.242269
0.265033
0.286446
0.298774
0.301425
0.304472
0.322782
0.0355843
0.0628703
0.0761831
0.0863189
0.0951464
0.104363
0.115092
0.1253
0.132233
0.139126
0.147197
0.157852
0.171722
0.187351
0.20397
0.22269
0.2456
0.273827
0.300634
0.313361
0.314805
0.318287
0.336023
0.0332218
0.0628479
0.0779928
0.0895488
0.0987513
0.106913
0.114806
0.122386
0.13078
0.139335
0.148037
0.158171
0.169838
0.184224
0.200913
0.219698
0.240832
0.263935
0.284926
0.299027
0.309636
0.322179
0.340861
0.0305142
0.0632518
0.0795803
0.0910229
0.0998306
0.107238
0.113811
0.120303
0.128489
0.13833
0.148353
0.158143
0.168196
0.181542
0.197963
0.215888
0.234565
0.254775
0.272796
0.288334
0.305447
0.326294
0.344481
0.0290051
0.0625458
0.0792762
0.0902153
0.0985926
0.105578
0.111777
0.117924
0.125326
0.13454
0.144775
0.154783
0.164918
0.177977
0.193955
0.210322
0.226515
0.244987
0.262584
0.279706
0.300662
0.325974
0.345178
0.0278752
0.0611271
0.077601
0.0883413
0.0964668
0.103211
0.109258
0.11524
0.122024
0.130171
0.139449
0.149213
0.15961
0.17207
0.186561
0.20142
0.21666
0.234655
0.253795
0.272322
0.294835
0.321804
0.34282
0.0269822
0.0594493
0.0754276
0.0859712
0.0939385
0.100556
0.106526
0.112389
0.118733
0.12602
0.134308
0.143367
0.15325
0.164538
0.177227
0.190673
0.205255
0.222598
0.242944
0.263806
0.286338
0.311118
0.330576
0.0263805
0.0576611
0.0731023
0.0834058
0.0912363
0.0977627
0.103661
0.109405
0.115424
0.12208
0.129534
0.137758
0.14677
0.156781
0.16783
0.179801
0.193137
0.208787
0.22693
0.246506
0.266119
0.28459
0.297584
0.0259257
0.0558828
0.0707469
0.0807612
0.0884344
0.0948563
0.100659
0.106266
0.112019
0.118201
0.124987
0.132424
0.140525
0.149358
0.158981
0.169465
0.181177
0.194618
0.209664
0.225274
0.240059
0.252423
0.259629
0.0254599
0.0540913
0.0683525
0.0780373
0.0855185
0.0918054
0.0974804
0.102928
0.108438
0.114239
0.120486
0.127247
0.134533
0.142363
0.150784
0.159877
0.169896
0.181108
0.193322
0.205545
0.216458
0.224642
0.228638
0.0248689
0.0521985
0.0658485
0.0751769
0.0824346
0.0885561
0.0940759
0.0993454
0.104619
0.11009
0.115889
0.122082
0.128686
0.13567
0.143057
0.150925
0.159431
0.168713
0.178545
0.188229
0.196626
0.202594
0.205338
0.0240851
0.0501146
0.0631531
0.0721108
0.0791231
0.0850573
0.0904038
0.095484
0.100526
0.105697
0.11111
0.116822
0.122815
0.12907
0.13559
0.14242
0.149658
0.157385
0.165412
0.173225
0.180032
0.18494
0.187396
0.0230724
0.0477725
0.0602018
0.0687853
0.0755417
0.0812776
0.0864432
0.0913322
0.096151
0.101047
0.106114
0.111379
0.116838
0.122467
0.128253
0.13422
0.14043
0.146939
0.153608
0.160084
0.165811
0.170172
0.172696
0.0218117
0.0451342
0.0569608
0.0651766
0.071678
0.0772152
0.082202
0.0869081
0.0915185
0.0961541
0.100892
0.105761
0.110752
0.115842
0.121009
0.126261
0.131657
0.13722
0.142861
0.148347
0.153302
0.157287
0.159942
0.0203283
0.0421858
0.0534325
0.0612981
0.0675554
0.0729027
0.0777203
0.0822513
0.0866605
0.0910563
0.0955021
0.100022
0.104608
0.109238
0.113891
0.118565
0.123316
0.128146
0.133
0.13773
0.142087
0.145762
0.148476
0.0187579
0.0389611
0.0496586
0.0571971
0.0632265
0.0683965
0.0730571
0.0774285
0.0816575
0.0858397
0.0900295
0.0942476
0.0984889
0.102734
0.106965
0.111185
0.115427
0.119687
0.123933
0.128071
0.131941
0.135328
0.138018
0.0170943
0.0355879
0.0457419
0.052974
0.0587934
0.0638012
0.0683192
0.0725473
0.076617
0.0806127
0.0845824
0.0885448
0.0924973
0.0964252
0.100312
0.104176
0.108017
0.111834
0.115607
0.119277
0.122742
0.125856
0.128457
0.0153895
0.0322247
0.0418331
0.0487711
0.0543942
0.0592526
0.0636405
0.0677397
0.0716684
0.0755017
0.0792827
0.0830293
0.0867416
0.0904097
0.0940255
0.0975981
0.101121
0.104589
0.107989
0.111287
0.114413
0.117271
0.119743
0.0137327
0.0290568
0.0381157
0.0447608
0.0501928
0.054908
0.0591735
0.0631535
0.0669542
0.0706433
0.07426
0.0778219
0.0813315
0.0847812
0.0881761
0.0915082
0.0947706
0.0979583
0.101061
0.104056
0.106899
0.109524
0.111849
0.0122305
0.0262623
0.0347748
0.0411208
0.0463582
0.0509295
0.0550739
0.0589385
0.0626184
0.0661745
0.0696427
0.0730407
0.0763733
0.0796378
0.0828375
0.0859621
0.0890041
0.0919578
0.094815
0.0975598
0.100163
0.10258
0.104753
0.0109783
0.0239652
0.031955
0.0379988
0.0430362
0.0474595
0.0514803
0.0552292
0.0587904
0.0622184
0.0655463
0.0687917
0.0719614
0.0750567
0.0780776
0.0810144
0.0838602
0.0866093
0.0892548
0.0917851
0.0941805
0.0964109
0.0984364
0.0100268
0.0222089
0.0297289
0.0354834
0.0403235
0.0445982
0.0484944
0.0521266
0.0555692
0.0588708
0.0620617
0.0651594
0.0681716
0.0711045
0.073954
0.076713
0.0793756
0.0819368
0.084391
0.0867298
0.0889397
0.0910005
0.0928849
0.00936901
0.020967
0.0280981
0.0335983
0.0382585
0.0423938
0.0461702
0.0496884
0.053014
0.0561905
0.0592461
0.0621981
0.0650557
0.0678269
0.0705071
0.0730919
0.0755771
0.077959
0.0802332
0.0823941
0.0844325
0.086335
0.0880833
0.00896034
0.02018
0.0270218
0.0323213
0.0368338
0.0408497
0.0445188
0.0479308
0.0511444
0.054199
0.0571214
0.0599294
0.062634
0.0652429
0.0677543
0.0701662
0.0724765
0.074683
0.0767834
0.0787738
0.0806488
0.0823999
0.0840149
0.00875288
0.0197906
0.0264504
0.0316136
0.0360199
0.0399439
0.0435236
0.0468411
0.0499501
0.0528879
0.0556807
0.058347
0.0609001
0.0633475
0.0656908
0.0679309
0.070068
0.0721019
0.0740319
0.0758565
0.0775728
0.079176
0.0806586
0.00871709
0.019763
0.0263486
0.0314433
0.0357882
0.0396499
0.0431595
0.0463947
0.049407
0.0522331
0.0548998
0.0574271
0.0598304
0.0621179
0.064295
0.0663653
0.0683315
0.0701955
0.0719583
0.0736205
0.0751813
0.0766387
0.0779886
0.00884408
0.0200888
0.0267062
0.0317995
0.0361263
0.0399528
0.0434085
0.0465703
0.0494906
0.0522073
0.0547496
0.0571395
0.0593933
0.0615225
0.0635356
0.0654391
0.0672377
0.0689353
0.0705346
0.0720379
0.0734462
0.0747596
0.0759764
0.00914141
0.0207855
0.0275407
0.0326976
0.0370454
0.040858
0.0442691
0.0473597
0.0501863
0.0527909
0.055206
0.0574552
0.0595582
0.0615298
0.0633811
0.0651207
0.0667554
0.0682907
0.0697307
0.0710791
0.0723384
0.0735099
0.0745939
0.00962913
0.021895
0.0288985
0.0341822
0.0385835
0.0423942
0.0457599
0.0487718
0.0514944
0.0539767
0.0562536
0.0583546
0.0603026
0.0621151
0.0638052
0.0653833
0.0668576
0.0682347
0.06952
0.070718
0.071832
0.0728647
0.0738171
0.0103392
0.0234857
0.0308578
0.0363287
0.0408062
0.0446137
0.0479195
0.0508323
0.0534299
0.0557673
0.0578894
0.0598303
0.0616157
0.0632648
0.0647924
0.0662099
0.0675263
0.0687491
0.0698841
0.0709362
0.0719096
0.072807
0.0736303
0.0113199
0.0256607
0.0335342
0.0392459
0.0438053
0.0475891
0.0508021
0.0535784
0.0560133
0.0581777
0.0601234
0.0618881
0.0634996
0.0649785
0.0663401
0.0675963
0.0687564
0.0698277
0.0708164
0.0717275
0.0725649
0.0733316
0.0740293
0.0126342
0.028566
0.037089
0.0430771
0.0476935
0.0514
0.05446
0.0570459
0.0592763
0.0612339
0.0629768
0.0645458
0.0659697
0.0672694
0.0684601
0.0695531
0.0705572
0.0714794
0.0723254
0.0730997
0.0738061
0.0744472
0.0750243
0.0143723
0.0324066
0.0417256
0.0479828
0.0525831
0.0561252
0.0589527
0.0612827
0.0632569
0.0649685
0.0664797
0.0678321
0.069054
0.0701651
0.0711792
0.0721064
0.0729544
0.0737292
0.0744356
0.0750776
0.0756582
0.0761794
0.0766421
0.0167152
0.0375544
0.0477726
0.0541911
0.0586174
0.061852
0.0643364
0.0663305
0.0679919
0.069418
0.07067
0.0717868
0.0727938
0.0737078
0.0745403
0.0752993
0.075991
0.0766199
0.0771899
0.0777039
0.0781642
0.0785722
0.0789279
0.0200182
0.0446319
0.0556795
0.0619448
0.0659099
0.0686339
0.0706438
0.0722194
0.0735164
0.0746241
0.0755956
0.0764627
0.0772455
0.0779565
0.0786038
0.0791933
0.0797289
0.0802138
0.0806506
0.0810412
0.0813872
0.0816893
0.0819469
0.0252759
0.054802
0.066012
0.0714206
0.0744869
0.0764628
0.0778747
0.0789681
0.0798672
0.0806383
0.0813187
0.0819298
0.0824842
0.0829895
0.0834505
0.0838701
0.0842507
0.0845938
0.0849009
0.0851731
0.0854112
0.0856154
0.0857851
0.0368044
0.0703028
0.079174
0.0825032
0.0841904
0.0852431
0.0859987
0.0865946
0.0870951
0.0875328
0.0879254
0.0882827
0.0886099
0.0889101
0.089185
0.0894355
0.0896624
0.0898661
0.0900472
0.0902061
0.0903432
0.0904584
0.090551
0.0857276
0.0934533
0.094082
0.0943678
0.0946058
0.0948105
0.0949879
0.0951448
0.0952865
0.0954167
0.0955376
0.0956501
0.0957548
0.0958519
0.0959414
0.096023
0.0960969
0.096163
0.0962213
0.0962719
0.0963148
0.0963501
0.0963776
0.107145
0.102273
0.104207
0.113214
0.191445
0.197421
0.204298
0.212116
0.244187
0.252643
0.261088
0.269369
0.297337
0.308423
0.31842
0.327796
0.342554
0.350986
0.356692
0.360601
0.351904
0.358501
0.360475
0.358504
0.35522
0.358804
0.356088
0.35033
0.349941
0.348776
0.344609
0.340281
0.343706
0.340328
0.336105
0.328122
0.342456
0.337824
0.329766
0.31755
0.33126
0.326126
0.315794
0.30219
0.297141
0.292874
0.285038
0.275108
0.25855
0.25571
0.25104
0.245083
0.227681
0.225921
0.22315
0.219568
0.204803
0.203749
0.202051
0.199796
0.187363
0.186827
0.185814
0.184371
0.173144
0.173025
0.172521
0.171658
0.160796
0.161015
0.160912
0.160504
0.149633
0.150109
0.150319
0.150269
0.139363
0.140019
0.140457
0.140678
0.129892
0.130654
0.131243
0.131656
0.121197
0.122011
0.122688
0.123222
0.113275
0.114103
0.114822
0.115426
0.106126
0.106942
0.107672
0.108309
0.0997428
0.100533
0.101254
0.1019
0.0941183
0.0948746
0.0955736
0.0962122
0.0892403
0.0899566
0.0906257
0.0912453
0.0850926
0.0857647
0.0863975
0.0869894
0.0816541
0.0822781
0.0828692
0.0834262
0.0788989
0.0794714
0.0800161
0.0805319
0.0767988
0.077317
0.0778111
0.0782807
0.0753265
0.075788
0.0762285
0.0766476
0.0744591
0.0748626
0.0752473
0.0756129
0.074182
0.0745271
0.0748551
0.0751656
0.0744924
0.0747799
0.0750514
0.0753065
0.0754018
0.0756338
0.0758505
0.0760514
0.0769388
0.0771183
0.0772834
0.0774333
0.0791501
0.0792817
0.0793998
0.0795037
0.0821023
0.0821918
0.0822694
0.0823341
0.0858829
0.0859372
0.0859818
0.086016
0.0906015
0.0906281
0.0906483
0.0906617
0.0963916
0.0963984
0.0964031
0.0964054
0.152504
0.182252
0.197904
0.200067
0.191048
0.17465
0.15698
0.141117
0.12765
0.115616
0.10452
0.0949138
0.0868859
0.0802484
0.0754558
0.0714605
0.0655541
0.0552079
0.0277025
0.225986
0.240572
0.250597
0.244124
0.221647
0.193626
0.170305
0.152288
0.137806
0.125208
0.114217
0.105005
0.0973582
0.0902597
0.0847181
0.0823236
0.0755586
0.0597684
0.028211
0.282709
0.298855
0.31531
0.285328
0.240785
0.206131
0.180775
0.162535
0.147482
0.134337
0.123069
0.113915
0.106343
0.0988723
0.0918687
0.0887284
0.081172
0.0622892
0.0296217
0.342154
0.354672
0.333156
0.290293
0.247378
0.212849
0.188443
0.170883
0.156145
0.142786
0.131115
0.121895
0.114446
0.106372
0.097578
0.0906861
0.0828032
0.0649917
0.0310918
0.362485
0.347753
0.336707
0.293383
0.248932
0.216507
0.192629
0.175897
0.16198
0.149401
0.137951
0.129232
0.122808
0.11404
0.102539
0.0933695
0.0825132
0.0662793
0.0341762
0.352259
0.34678
0.338187
0.292068
0.249088
0.218858
0.194298
0.176955
0.163356
0.151953
0.142091
0.134986
0.1317
0.121687
0.106684
0.0980278
0.0864523
0.0673128
0.0393923
0.344136
0.332246
0.310854
0.277835
0.243011
0.215327
0.193686
0.175801
0.162197
0.151464
0.142933
0.136833
0.13278
0.123194
0.108945
0.0979402
0.0838959
0.0628636
0.0357538
0.329863
0.307369
0.28368
0.257476
0.231235
0.208729
0.189262
0.173042
0.160131
0.150109
0.142499
0.137628
0.133005
0.123881
0.111932
0.0988376
0.080917
0.0551853
0.0288752
0.310506
0.284769
0.261669
0.239486
0.218087
0.199218
0.182484
0.1683
0.156754
0.147754
0.140918
0.137493
0.134026
0.126107
0.113793
0.103328
0.0875684
0.0548996
0.0254485
0.294542
0.266935
0.244434
0.224711
0.206103
0.189667
0.174946
0.162448
0.151892
0.143558
0.137546
0.134295
0.130763
0.123323
0.112145
0.10218
0.0891316
0.0580683
0.0253264
0.278487
0.252124
0.230733
0.211688
0.194623
0.179844
0.166859
0.155745
0.146219
0.138506
0.132794
0.128709
0.12403
0.116495
0.106743
0.0971409
0.0839377
0.0594821
0.0272375
0.257535
0.236009
0.21704
0.199615
0.184289
0.170897
0.159171
0.14897
0.140182
0.132911
0.126986
0.121621
0.115723
0.108129
0.100072
0.0919822
0.0798231
0.0595664
0.0284565
0.2341
0.218193
0.202907
0.1883
0.174915
0.162876
0.152135
0.142608
0.134226
0.126967
0.120512
0.114151
0.107444
0.100265
0.0932922
0.086152
0.0750754
0.0568553
0.0273052
0.212753
0.201591
0.189837
0.177971
0.16653
0.155816
0.145942
0.136924
0.128722
0.121248
0.114231
0.107266
0.100209
0.0932242
0.0865304
0.0792881
0.068453
0.0514743
0.024452
0.195369
0.187433
0.178443
0.168873
0.159186
0.149719
0.140666
0.132109
0.124046
0.116408
0.109042
0.101766
0.0945319
0.0874386
0.0803758
0.0724048
0.0614541
0.0455645
0.0210221
0.181401
0.175632
0.168694
0.160954
0.152774
0.144457
0.13621
0.12815
0.120317
0.112693
0.105229
0.0978559
0.0905236
0.083166
0.0755321
0.0668767
0.0558947
0.0409518
0.0181841
0.169715
0.165521
0.16016
0.153904
0.147025
0.139771
0.132334
0.124849
0.117386
0.109976
0.102626
0.0953082
0.0879406
0.0803722
0.0723331
0.0633066
0.052444
0.0382818
0.0166521
0.159363
0.156419
0.152345
0.147342
0.141614
0.135356
0.12874
0.121903
0.114937
0.107899
0.10082
0.0936799
0.0863822
0.0787604
0.0705757
0.0614629
0.0508056
0.0372455
0.016301
0.149776
0.147861
0.144872
0.140956
0.136262
0.130945
0.125153
0.119018
0.112638
0.106083
0.0993887
0.0925372
0.0854375
0.0779392
0.0698386
0.0608402
0.050414
0.037246
0.0166823
0.140693
0.139619
0.137546
0.134573
0.13081
0.126377
0.121398
0.115991
0.110252
0.104251
0.0980259
0.0915614
0.0847829
0.0775651
0.0697316
0.0610083
0.0508626
0.0379295
0.0174151
0.132048
0.131641
0.130324
0.12816
0.125226
0.121609
0.117411
0.112732
0.107658
0.102255
0.0965585
0.0905589
0.0841993
0.07738
0.0699474
0.0616386
0.0519057
0.0393002
0.0183085
0.123873
0.123972
0.123265
0.121781
0.119569
0.116691
0.113225
0.109251
0.104842
0.100054
0.0949205
0.0894356
0.0835569
0.0772047
0.070245
0.0624293
0.0532123
0.0410654
0.0192536
0.11624
0.116701
0.116469
0.115544
0.11395
0.111728
0.108931
0.10562
0.101853
0.0976753
0.0931151
0.088166
0.0827948
0.0769342
0.0704627
0.0631435
0.0544419
0.0427581
0.0200903
0.109217
0.109923
0.110045
0.109568
0.108493
0.10684
0.10464
0.101936
0.0987713
0.0951819
0.0911827
0.0867661
0.0819015
0.0765261
0.0705224
0.0636562
0.0553914
0.0440961
0.0207504
0.102853
0.103717
0.104095
0.103962
0.103308
0.102134
0.100456
0.0982989
0.0956865
0.0926454
0.0891777
0.0852713
0.0808931
0.075978
0.0704043
0.0639291
0.0559936
0.0449014
0.0213031
0.0971765
0.0981337
0.0986899
0.0988162
0.0984935
0.0977132
0.0964764
0.0947914
0.0926712
0.0901255
0.0871464
0.0837146
0.0797912
0.0753047
0.0701246
0.0639937
0.0563263
0.0453692
0.0215777
0.0921969
0.0931998
0.0938723
0.0941858
0.0941171
0.0936502
0.0927757
0.0914886
0.0897944
0.0876839
0.0851409
0.0821378
0.0786274
0.0745296
0.0697022
0.0638719
0.0564294
0.0455846
0.0217399
0.0879098
0.088921
0.08966
0.0901003
0.0902176
0.0899913
0.0894049
0.0884455
0.087106
0.0853663
0.0832013
0.0805743
0.0774291
0.0736751
0.0691581
0.0635896
0.0563434
0.0456127
0.0218231
0.0843002
0.0852892
0.0860534
0.0865691
0.0868126
0.0867611
0.0863928
0.0856925
0.0846389
0.0832048
0.0813571
0.0790504
0.0762192
0.0727625
0.0685144
0.0631736
0.056102
0.0454857
0.021801
0.0813467
0.082288
0.0830422
0.083589
0.0839061
0.0839704
0.0837579
0.0832489
0.0824145
0.0812217
0.0796304
0.0775876
0.0750186
0.0718129
0.0677938
0.0626501
0.0557367
0.0452352
0.0216876
0.0790253
0.0798971
0.0806113
0.0811506
0.0814947
0.0816214
0.0815064
0.0811257
0.0804469
0.0794333
0.0780391
0.0762046
0.0738475
0.070848
0.0670206
0.0620463
0.0552772
0.0448975
0.0215001
0.0773132
0.0780973
0.078746
0.0792442
0.0795739
0.0797143
0.0796421
0.0793309
0.0787476
0.0778534
0.0765991
0.07492
0.0727269
0.0698924
0.0662229
0.0613932
0.054755
0.0445014
0.021276
0.076193
0.0768749
0.0774366
0.077865
0.0781433
0.0782526
0.0781719
0.0778742
0.0773284
0.0764961
0.0753271
0.0737531
0.0716799
0.0689734
0.0654329
0.0607269
0.0542045
0.0440696
0.0210497
0.0756559
0.0762249
0.0766828
0.0770168
0.0772111
0.0772481
0.0771091
0.0767701
0.0762045
0.0753777
0.074241
0.072725
0.0707316
0.0681211
0.0646859
0.0600873
0.0536663
0.0436249
0.020753
0.0757056
0.0761553
0.0764974
0.0767176
0.0767991
0.0767245
0.0764778
0.0760409
0.0753959
0.0745171
0.0733607
0.071858
0.0699081
0.0673665
0.0640187
0.0595167
0.0531887
0.0432215
0.0204034
0.0763608
0.07669
0.0769102
0.0770033
0.076948
0.076724
0.0763175
0.0757195
0.0749288
0.0739358
0.0727064
0.0711741
0.0692357
0.0667416
0.06347
0.0590627
0.0528326
0.0429564
0.0203284
0.0776579
0.0778716
0.0779717
0.0779327
0.0777239
0.0773152
0.0766902
0.0758539
0.0748348
0.0736551
0.0722958
0.0706924
0.0687379
0.0662766
0.0630801
0.05878
0.0526742
0.0429331
0.0206809
0.0796523
0.0797632
0.0797554
0.0795927
0.0792268
0.0786052
0.0776953
0.0765164
0.075151
0.0736904
0.0721372
0.0704223
0.0684291
0.0659942
0.0628835
0.0587234
0.0527974
0.0432507
0.0214294
0.0824194
0.0824488
0.0823591
0.0821012
0.0816008
0.0807628
0.079505
0.0778393
0.0759257
0.0740434
0.0722195
0.0703542
0.0683052
0.0658969
0.0628945
0.0589304
0.0532866
0.0440727
0.0227496
0.0860543
0.0860321
0.0859022
0.0856062
0.0850432
0.084056
0.0824537
0.080133
0.0772417
0.074692
0.0724991
0.0704482
0.0683322
0.0659538
0.0630851
0.0593929
0.0542101
0.0456371
0.0248252
0.0906713
0.0906332
0.0905176
0.0902721
0.0897923
0.0888801
0.0871951
0.0842093
0.0792171
0.075555
0.0728792
0.0706224
0.0684369
0.0660867
0.0633589
0.059998
0.055526
0.0481615
0.0280176
0.096405
0.0963865
0.0963403
0.0962447
0.0960496
0.0956357
0.09468
0.0920188
0.0815959
0.0763264
0.0731628
0.0707403
0.0685016
0.0661635
0.0635243
0.0604165
0.0567097
0.0522522
0.0324179
)
;

boundaryField
{
    leftWall
    {
        type            kqRWallFunction;
        value           nonuniform List<scalar> 
50
(
0.00209641
0.00413919
0.00578675
0.00739079
0.00885405
0.0102468
0.0115375
0.0128021
0.0145477
0.0169469
0.0197075
0.0241368
0.0335108
0.0355843
0.0332218
0.0305142
0.0290051
0.0278752
0.0269822
0.0263805
0.0259257
0.0254599
0.0248689
0.0240851
0.0230724
0.0218117
0.0203283
0.0187579
0.0170943
0.0153895
0.0137327
0.0122305
0.0109783
0.0100268
0.00936901
0.00896034
0.00875288
0.00871709
0.00884408
0.00914141
0.00962913
0.0103392
0.0113199
0.0126342
0.0143723
0.0167152
0.0200182
0.0252759
0.0368044
0.0857276
)
;
    }
    rightWall
    {
        type            kqRWallFunction;
        value           nonuniform List<scalar> 
50
(
0.0062526
0.0101865
0.0130304
0.0161218
0.0195485
0.0228672
0.0256301
0.0270582
0.0277025
0.028211
0.0296217
0.0310918
0.0341762
0.0393923
0.0357538
0.0288752
0.0254485
0.0253264
0.0272375
0.0284565
0.0273052
0.024452
0.0210221
0.0181841
0.0166521
0.016301
0.0166823
0.0174151
0.0183085
0.0192536
0.0200903
0.0207504
0.0213031
0.0215777
0.0217399
0.0218231
0.021801
0.0216876
0.0215001
0.021276
0.0210497
0.020753
0.0204034
0.0203284
0.0206809
0.0214294
0.0227496
0.0248252
0.0280176
0.0324179
)
;
    }
    lowerWall
    {
        type            kqRWallFunction;
        value           nonuniform List<scalar> 
62
(
0.00209641
0.00542026
0.0082266
0.0103518
0.0120215
0.0134015
0.0145685
0.0155658
0.0164112
0.017117
0.0177076
0.0182078
0.0186203
0.0189149
0.0190422
0.018966
0.0185963
0.0177706
0.0164641
0.0147297
0.012505
0.00897592
0.00463472
0.00463472
0.0103015
0.0147449
0.0197151
0.025148
0.0317226
0.0422639
0.0655047
0.107145
0.102273
0.104207
0.113214
0.0102401
0.0183915
0.0211669
0.0239
0.0292906
0.0422361
0.0700062
0.107217
0.0102401
0.0233216
0.0364499
0.0424744
0.0435054
0.041681
0.0376135
0.0326539
0.0285925
0.0250202
0.0213942
0.0176023
0.0142169
0.0119298
0.0107997
0.0101634
0.009088
0.00792601
0.0062526
)
;
    }
    atmosphere
    {
        type            inletOutlet;
        inletValue      uniform 0.1;
        value           nonuniform List<scalar> 
46
(
0.1
0.1
0.1
0.1
0.1
0.1
0.1
0.1
0.1
0.1
0.1
0.1
0.1
0.1
0.1
0.1
0.1
0.1
0.1
0.1
0.1
0.1
0.1
0.1
0.1
0.1
0.1
0.1
0.1
0.1
0.1
0.1
0.1
0.1
0.1
0.0815959
0.0763264
0.0731628
0.0707403
0.0685016
0.0661635
0.0635243
0.0604165
0.0567097
0.0522522
0.0324179
)
;
    }
    defaultFaces
    {
        type            empty;
    }
}


// ************************************************************************* //
