/*--------------------------------*- C++ -*----------------------------------*\
  =========                 |
  \\      /  F ield         | OpenFOAM: The Open Source CFD Toolbox
   \\    /   O peration     | Website:  https://openfoam.org
    \\  /    A nd           | Version:  9
     \\/     M anipulation  |
\*---------------------------------------------------------------------------*/
FoamFile
{
    format      ascii;
    class       surfaceScalarField;
    location    "60";
    object      phi;
}
// * * * * * * * * * * * * * * * * * * * * * * * * * * * * * * * * * * * * * //

dimensions      [0 3 -1 0 0 0 0];

internalField   nonuniform List<scalar> 
24170
(
3.1289e-06
5.95081e-08
3.04627e-06
8.26272e-08
2.97274e-06
7.35139e-08
2.9035e-06
6.92163e-08
2.83838e-06
6.51312e-08
2.78006e-06
5.83073e-08
2.72956e-06
5.04884e-08
2.68619e-06
4.33441e-08
2.64885e-06
3.73466e-08
2.61642e-06
3.24067e-08
2.58789e-06
2.85208e-08
2.56227e-06
2.55974e-08
2.53873e-06
2.3531e-08
2.51635e-06
2.23612e-08
2.49431e-06
2.20317e-08
2.46988e-06
2.4412e-08
2.44266e-06
2.71968e-08
5.10297e-08
2.3916e-06
3.45304e-06
2.37134e-08
3.45691e-06
7.87765e-08
3.45026e-06
8.01604e-08
3.4385e-06
8.09811e-08
3.42331e-06
8.03249e-08
3.40551e-06
7.61086e-08
3.38558e-06
7.04242e-08
3.36414e-06
6.47783e-08
3.3419e-06
5.95924e-08
3.31939e-06
5.49068e-08
3.29708e-06
5.08305e-08
3.27517e-06
4.75001e-08
3.2538e-06
4.48921e-08
3.23291e-06
4.3241e-08
3.21253e-06
4.24002e-08
3.19238e-06
4.4546e-08
3.17299e-06
4.65485e-08
6.39035e-08
3.16009e-06
3.66812e-06
1.81117e-08
3.67901e-06
6.78738e-08
3.68499e-06
7.41766e-08
3.68865e-06
7.72886e-08
3.6898e-06
7.91884e-08
3.68824e-06
7.76535e-08
3.68437e-06
7.42877e-08
3.67862e-06
7.05091e-08
3.67138e-06
6.68265e-08
3.66294e-06
6.33423e-08
3.65352e-06
6.02397e-08
3.64332e-06
5.76934e-08
3.63245e-06
5.57595e-08
3.62097e-06
5.47137e-08
3.60879e-06
5.45719e-08
3.59645e-06
5.68852e-08
3.58277e-06
6.02264e-08
7.13511e-08
3.57534e-06
3.92579e-06
1.77145e-08
3.93568e-06
5.79939e-08
3.94203e-06
6.78231e-08
3.94716e-06
7.21654e-08
3.95106e-06
7.5298e-08
3.95335e-06
7.5365e-08
3.95421e-06
7.34258e-08
3.95387e-06
7.08435e-08
3.95252e-06
6.81782e-08
3.95026e-06
6.56036e-08
3.94719e-06
6.33084e-08
3.94338e-06
6.1498e-08
3.93887e-06
6.02626e-08
3.93371e-06
5.98659e-08
3.92785e-06
6.04246e-08
3.92183e-06
6.28959e-08
3.91526e-06
6.67921e-08
7.45051e-08
3.91209e-06
4.20812e-06
1.67223e-08
4.21571e-06
5.03933e-08
4.22109e-06
6.24369e-08
4.22574e-06
6.75002e-08
4.22992e-06
7.11184e-08
4.23317e-06
7.21061e-08
4.23547e-06
7.11221e-08
4.23692e-06
6.93836e-08
4.23761e-06
6.74842e-08
4.23759e-06
6.56162e-08
4.23692e-06
6.3977e-08
4.23565e-06
6.27662e-08
4.2338e-06
6.21076e-08
4.23145e-06
6.2223e-08
4.22861e-06
6.32616e-08
4.22574e-06
6.57702e-08
4.22296e-06
6.95824e-08
7.52046e-08
4.22228e-06
4.51062e-06
1.51882e-08
4.51659e-06
4.44333e-08
4.52149e-06
5.75406e-08
4.52582e-06
6.31731e-08
4.52992e-06
6.70216e-08
4.5334e-06
6.86233e-08
4.53616e-06
6.8367e-08
4.53824e-06
6.73021e-08
4.5397e-06
6.60164e-08
4.54058e-06
6.47366e-08
4.54091e-06
6.36477e-08
4.54073e-06
6.29437e-08
4.54007e-06
6.27573e-08
4.53902e-06
6.32685e-08
4.53767e-06
6.4608e-08
4.53638e-06
6.70635e-08
4.53544e-06
7.05249e-08
7.48087e-08
4.53582e-06
4.83424e-06
1.36665e-08
4.83932e-06
3.93486e-08
4.84407e-06
5.27795e-08
4.84826e-06
5.89708e-08
4.85225e-06
6.30369e-08
4.85576e-06
6.51073e-08
4.85867e-06
6.54517e-08
4.86101e-06
6.49587e-08
4.86282e-06
6.42041e-08
4.86412e-06
6.34335e-08
4.86495e-06
6.28239e-08
4.86533e-06
6.25541e-08
4.86533e-06
6.27568e-08
4.86503e-06
6.35704e-08
4.86456e-06
6.50888e-08
4.86419e-06
6.74371e-08
4.86421e-06
7.04951e-08
7.39418e-08
4.86512e-06
5.18095e-06
1.22924e-08
5.18543e-06
3.48783e-08
5.19005e-06
4.81628e-08
5.19417e-06
5.48501e-08
5.19808e-06
5.91357e-08
5.2016e-06
6.15841e-08
5.20461e-06
6.24507e-08
5.20709e-06
6.24691e-08
5.20911e-06
6.21904e-08
5.21067e-06
6.18692e-08
5.21181e-06
6.16829e-08
5.21257e-06
6.17898e-08
5.21301e-06
6.23137e-08
5.21323e-06
6.33527e-08
5.21336e-06
6.4966e-08
5.21361e-06
6.71794e-08
5.21424e-06
6.98877e-08
7.26796e-08
5.2155e-06
5.5526e-06
1.10328e-08
5.55656e-06
3.09114e-08
5.56098e-06
4.374e-08
5.56504e-06
5.07792e-08
5.56891e-06
5.5271e-08
5.57246e-06
5.80334e-08
5.57555e-06
5.93572e-08
5.57817e-06
5.98481e-08
5.58036e-06
6.00067e-08
5.58213e-06
6.00947e-08
5.58353e-06
6.02849e-08
5.5846e-06
6.07201e-08
5.58541e-06
6.15086e-08
5.58605e-06
6.2715e-08
5.58665e-06
6.43675e-08
5.5874e-06
6.64445e-08
5.58846e-06
6.88241e-08
7.11872e-08
5.59e-06
5.95094e-06
9.86749e-09
5.95445e-06
2.74044e-08
5.95863e-06
3.95654e-08
5.96264e-06
4.678e-08
5.96649e-06
5.1434e-08
5.97007e-06
5.44515e-08
5.97326e-06
5.61711e-08
5.97602e-06
5.70938e-08
5.97838e-06
5.76503e-08
5.98037e-06
5.81058e-08
5.98202e-06
5.8627e-08
5.98339e-06
5.93513e-08
5.98454e-06
6.03547e-08
5.98557e-06
6.16851e-08
5.9866e-06
6.33415e-08
5.98775e-06
6.52812e-08
5.98919e-06
6.74136e-08
6.94208e-08
5.99096e-06
6.37789e-06
8.79439e-09
6.38102e-06
2.42744e-08
6.38495e-06
3.5627e-08
6.38889e-06
4.28439e-08
6.39272e-06
4.76093e-08
6.39635e-06
5.08264e-08
6.39964e-06
5.28801e-08
6.40255e-06
5.41837e-08
6.4051e-06
5.51026e-08
6.40732e-06
5.58826e-08
6.40925e-06
5.66995e-08
6.41093e-06
5.76598e-08
6.41243e-06
5.88477e-08
6.41385e-06
6.02605e-08
6.41528e-06
6.19064e-08
6.41684e-06
6.3725e-08
6.4186e-06
6.5635e-08
6.74207e-08
6.42063e-06
5.74168e-06
7.95199e-09
5.74406e-06
2.18874e-08
5.74721e-06
3.24833e-08
5.75048e-06
3.95725e-08
5.75371e-06
4.43856e-08
5.75681e-06
4.77287e-08
5.75968e-06
5.00107e-08
5.76228e-06
5.15884e-08
5.7646e-06
5.27792e-08
5.76666e-06
5.3809e-08
5.76852e-06
5.48304e-08
5.7702e-06
5.59863e-08
5.77176e-06
5.72758e-08
5.77327e-06
5.87609e-08
5.7748e-06
6.03775e-08
5.77641e-06
6.21134e-08
5.77819e-06
6.38871e-08
6.54994e-08
5.78012e-06
6.99904e-06
7.06384e-09
7.00157e-06
1.9367e-08
7.00498e-06
2.90681e-08
7.00865e-06
3.5904e-08
7.01234e-06
4.06914e-08
7.01595e-06
4.41271e-08
7.01935e-06
4.66058e-08
7.02249e-06
4.84488e-08
7.02535e-06
4.99056e-08
7.02796e-06
5.11726e-08
7.03038e-06
5.24306e-08
7.03262e-06
5.37326e-08
7.03476e-06
5.51602e-08
7.03685e-06
5.66719e-08
7.03897e-06
5.82815e-08
7.04118e-06
5.99209e-08
7.04353e-06
6.15589e-08
6.30253e-08
7.04603e-06
8.53178e-06
6.13459e-09
8.53441e-06
1.67211e-08
8.53808e-06
2.54056e-08
8.54217e-06
3.1815e-08
8.54637e-06
3.64905e-08
8.55055e-06
3.99443e-08
8.55458e-06
4.25774e-08
8.55839e-06
4.4638e-08
8.56194e-06
4.63417e-08
8.56527e-06
4.78477e-08
8.56841e-06
4.92903e-08
8.57142e-06
5.07556e-08
8.57432e-06
5.22696e-08
8.57719e-06
5.38224e-08
8.58009e-06
5.53958e-08
8.58308e-06
5.69527e-08
8.5862e-06
5.84665e-08
5.97995e-08
8.58946e-06
1.04002e-05
5.16683e-09
1.04029e-05
1.39724e-08
1.04069e-05
2.14814e-08
1.04114e-05
2.72903e-08
1.04162e-05
3.17005e-08
1.0421e-05
3.51026e-08
1.04258e-05
3.77858e-08
1.04305e-05
4.00101e-08
1.04349e-05
4.19029e-08
1.04392e-05
4.36072e-08
1.04433e-05
4.52031e-08
1.04473e-05
4.67915e-08
1.04512e-05
4.83591e-08
1.04551e-05
4.99365e-08
1.0459e-05
5.14642e-08
1.0463e-05
5.29477e-08
1.04672e-05
5.43438e-08
5.55668e-08
1.04714e-05
1.26778e-05
4.15267e-09
1.26807e-05
1.10806e-08
1.26849e-05
1.72692e-08
1.269e-05
2.22504e-08
1.26955e-05
2.62271e-08
1.27011e-05
2.94212e-08
1.27069e-05
3.2061e-08
1.27126e-05
3.43213e-08
1.27182e-05
3.63346e-08
1.27236e-05
3.81551e-08
1.2729e-05
3.98682e-08
1.27343e-05
4.15055e-08
1.27395e-05
4.31198e-08
1.27448e-05
4.46748e-08
1.27501e-05
4.6174e-08
1.27554e-05
4.75727e-08
1.27609e-05
4.88836e-08
5.00031e-08
1.27664e-05
1.54543e-05
3.05977e-09
1.54574e-05
7.97375e-09
1.54621e-05
1.26172e-08
1.54678e-05
1.65434e-08
1.54742e-05
1.98449e-08
1.54809e-05
2.26539e-08
1.54879e-05
2.50863e-08
1.5495e-05
2.72603e-08
1.55021e-05
2.92609e-08
1.55091e-05
3.11202e-08
1.55161e-05
3.28661e-08
1.55231e-05
3.45294e-08
1.55301e-05
3.61312e-08
1.55371e-05
3.76644e-08
1.55441e-05
3.91117e-08
1.55513e-05
4.04497e-08
1.55584e-05
4.16793e-08
4.27308e-08
1.55657e-05
1.88389e-05
1.82065e-09
1.88424e-05
4.44642e-09
1.88478e-05
7.24285e-09
1.88545e-05
9.81419e-09
1.88622e-05
1.21711e-08
1.88705e-05
1.4358e-08
1.88792e-05
1.64025e-08
1.88881e-05
1.83353e-08
1.88972e-05
2.01924e-08
1.89063e-05
2.19796e-08
1.89155e-05
2.36947e-08
1.89247e-05
2.53372e-08
1.89339e-05
2.69089e-08
1.89432e-05
2.84023e-08
1.89525e-05
2.9803e-08
1.89618e-05
3.10969e-08
1.89712e-05
3.22797e-08
3.32996e-08
1.89806e-05
2.29649e-05
2.67215e-10
2.29692e-05
1.10732e-10
2.29759e-05
5.74798e-10
2.29843e-05
1.38273e-09
2.2994e-05
2.47385e-09
2.30046e-05
3.78502e-09
2.30157e-05
5.24598e-09
2.30273e-05
6.79342e-09
2.30391e-05
8.39364e-09
2.3051e-05
1.0021e-08
2.30631e-05
1.16536e-08
2.30751e-05
1.325e-08
2.30872e-05
1.47882e-08
2.30994e-05
1.62449e-08
2.31115e-05
1.76175e-08
2.31238e-05
1.88926e-08
2.31359e-05
2.00701e-08
2.11061e-08
2.31481e-05
1.6812e-05
-1.00861e-09
1.68155e-05
-3.39303e-09
1.68209e-05
-4.81588e-09
1.68276e-05
-5.40181e-09
1.68354e-05
-5.26138e-09
1.68437e-05
-4.58523e-09
1.68525e-05
-3.55038e-09
1.68616e-05
-2.2648e-09
1.68708e-05
-8.40687e-10
1.68801e-05
6.94658e-10
1.68895e-05
2.26781e-09
1.68989e-05
3.85709e-09
1.69083e-05
5.38572e-09
1.69177e-05
6.86071e-09
1.6927e-05
8.24164e-09
1.69364e-05
9.55225e-09
1.69457e-05
1.07622e-08
1.18583e-08
1.6955e-05
1.46358e-05
-2.2505e-09
1.46393e-05
-6.84926e-09
1.46446e-05
-1.01429e-08
1.46512e-05
-1.20006e-08
1.46585e-05
-1.26451e-08
1.46664e-05
-1.24948e-08
1.46747e-05
-1.17881e-08
1.46831e-05
-1.06961e-08
1.46916e-05
-9.35213e-09
1.47001e-05
-7.8635e-09
1.47087e-05
-6.28194e-09
1.47172e-05
-4.69041e-09
1.47258e-05
-3.12446e-09
1.47342e-05
-1.62929e-09
1.47427e-05
-1.97091e-10
1.4751e-05
1.15052e-09
1.47594e-05
2.42067e-09
3.57123e-09
1.47677e-05
1.27413e-05
-3.4205e-09
1.27448e-05
-1.03432e-08
1.27502e-05
-1.55883e-08
1.27567e-05
-1.84986e-08
1.27638e-05
-1.97107e-08
1.27712e-05
-1.99658e-08
1.2779e-05
-1.9503e-08
1.27868e-05
-1.85024e-08
1.27946e-05
-1.71713e-08
1.28023e-05
-1.56502e-08
1.28101e-05
-1.40287e-08
1.28178e-05
-1.23841e-08
1.28254e-05
-1.07689e-08
1.2833e-05
-9.21471e-09
1.28405e-05
-7.72444e-09
1.2848e-05
-6.31143e-09
1.28553e-05
-4.97779e-09
-3.75469e-09
1.28627e-05
1.10919e-05
-4.41545e-09
1.10955e-05
-1.3911e-08
1.11012e-05
-2.12963e-08
1.11076e-05
-2.49444e-08
1.11144e-05
-2.64833e-08
1.11214e-05
-2.70106e-08
1.11286e-05
-2.66688e-08
1.11358e-05
-2.56599e-08
1.11429e-05
-2.42755e-08
1.11499e-05
-2.26865e-08
1.11568e-05
-2.0992e-08
1.11637e-05
-1.92693e-08
1.11705e-05
-1.75831e-08
1.11773e-05
-1.5952e-08
1.11839e-05
-1.43919e-08
1.11905e-05
-1.29008e-08
1.1197e-05
-1.14935e-08
-1.01895e-08
1.12034e-05
9.65596e-06
-5.16456e-09
9.65971e-06
-1.76586e-08
9.66558e-06
-2.71723e-08
9.67183e-06
-3.11894e-08
9.67834e-06
-3.29966e-08
9.68504e-06
-3.37155e-08
9.69169e-06
-3.33235e-08
9.69821e-06
-3.21853e-08
9.70462e-06
-3.06858e-08
9.71092e-06
-2.8995e-08
9.71712e-06
-2.71986e-08
9.72323e-06
-2.5381e-08
9.72925e-06
-2.36047e-08
9.73518e-06
-2.189e-08
9.74103e-06
-2.02444e-08
9.74679e-06
-1.86711e-08
9.75247e-06
-1.71785e-08
-1.57845e-08
9.75806e-06
8.40545e-06
-5.2587e-09
8.41007e-06
-2.22805e-08
8.41579e-06
-3.28972e-08
8.42149e-06
-3.68849e-08
8.42769e-06
-3.92061e-08
8.43412e-06
-4.01381e-08
8.44039e-06
-3.95934e-08
8.44643e-06
-3.82326e-08
8.45228e-06
-3.65441e-08
8.45796e-06
-3.46792e-08
8.46348e-06
-3.27164e-08
8.46884e-06
-3.07451e-08
8.47407e-06
-2.88303e-08
8.47917e-06
-2.69958e-08
8.48417e-06
-2.52381e-08
8.48905e-06
-2.35615e-08
8.49383e-06
-2.19666e-08
-2.04793e-08
8.49852e-06
7.31465e-06
-2.62822e-09
7.32156e-06
-2.91894e-08
7.32756e-06
-3.88991e-08
7.33312e-06
-4.24392e-08
7.33925e-06
-4.53413e-08
7.34545e-06
-4.63436e-08
7.35135e-06
-4.54928e-08
7.35693e-06
-4.38075e-08
7.3622e-06
-4.18206e-08
7.36718e-06
-3.96594e-08
7.37188e-06
-3.74151e-08
7.37632e-06
-3.51816e-08
7.38053e-06
-3.30428e-08
7.38454e-06
-3.10093e-08
7.38838e-06
-2.90809e-08
7.39207e-06
-2.72519e-08
7.39563e-06
-2.55294e-08
-2.39274e-08
7.39908e-06
6.36256e-06
4.87855e-09
6.37221e-06
-3.88439e-08
6.38001e-06
-4.66963e-08
6.38717e-06
-4.95947e-08
6.3941e-06
-5.22712e-08
6.40017e-06
-5.24176e-08
6.40534e-06
-5.06632e-08
6.40981e-06
-4.82771e-08
6.41371e-06
-4.57239e-08
6.41711e-06
-4.30635e-08
6.42007e-06
-4.03691e-08
6.42264e-06
-3.77572e-08
6.42489e-06
-3.5287e-08
6.42686e-06
-3.29792e-08
6.42861e-06
-3.08257e-08
6.43017e-06
-2.88139e-08
6.43159e-06
-2.69577e-08
-2.52366e-08
6.43291e-06
5.54128e-06
9.06352e-09
5.55058e-06
-4.81479e-08
5.55888e-06
-5.49892e-08
5.56699e-06
-5.77038e-08
5.57397e-06
-5.92486e-08
5.57891e-06
-5.73681e-08
5.58189e-06
-5.36391e-08
5.58327e-06
-4.96676e-08
5.58344e-06
-4.58973e-08
5.58269e-06
-4.23012e-08
5.58122e-06
-3.89041e-08
5.57923e-06
-3.57682e-08
5.57686e-06
-3.29162e-08
5.57422e-06
-3.03345e-08
5.5714e-06
-2.8003e-08
5.56849e-06
-2.59024e-08
5.56557e-06
-2.40331e-08
-2.23539e-08
5.56269e-06
4.86004e-06
-2.33669e-08
4.86549e-06
-5.35987e-08
4.86553e-06
-5.50231e-08
4.86274e-06
-5.49123e-08
4.85794e-06
-5.44526e-08
4.85092e-06
-5.03517e-08
4.84181e-06
-4.45347e-08
4.8311e-06
-3.8965e-08
4.81932e-06
-3.41133e-08
4.80693e-06
-2.99146e-08
4.79433e-06
-2.63018e-08
4.78179e-06
-2.32241e-08
4.76948e-06
-2.061e-08
4.75754e-06
-1.83906e-08
4.74605e-06
-1.65065e-08
4.73507e-06
-1.49225e-08
4.72472e-06
-1.36777e-08
-1.33032e-08
4.71568e-06
4.17931e-06
4.12571e-06
4.07069e-06
4.01578e-06
3.96132e-06
3.91097e-06
3.86644e-06
3.82747e-06
3.79336e-06
3.76344e-06
3.73714e-06
3.71392e-06
3.69331e-06
3.67492e-06
3.65841e-06
3.64349e-06
3.62981e-06
3.61651e-06
7.47801e-08
-7.49118e-08
1.77761e-07
-1.03249e-07
2.78345e-07
-1.00487e-07
3.80366e-07
-1.02357e-07
4.81933e-07
-1.01369e-07
5.68693e-07
-8.72696e-08
6.40237e-07
-7.12406e-08
6.92942e-07
-5.31643e-08
7.17289e-07
-2.40494e-08
7.21954e-07
-5.11166e-09
7.14375e-07
7.86986e-09
6.86793e-07
2.70234e-08
6.48373e-07
3.88024e-08
6.01876e-07
4.57723e-08
5.54257e-07
4.81279e-08
5.05417e-07
4.78105e-08
4.59347e-07
4.67295e-08
4.11896e-07
4.60414e-08
3.63734e-07
4.88256e-08
3.05187e-07
5.69116e-08
2.37664e-07
6.83079e-08
1.54876e-07
8.11141e-08
5.98841e-08
9.58501e-08
-5.4234e-08
1.12814e-07
-1.86459e-07
1.33118e-07
-3.39778e-07
1.52536e-07
-5.07847e-07
1.689e-07
-6.89725e-07
1.8132e-07
-8.78953e-07
1.89929e-07
-1.07429e-06
1.94865e-07
-1.27023e-06
1.96656e-07
-1.46629e-06
1.9564e-07
-1.65803e-06
1.92426e-07
-1.84581e-06
1.87391e-07
-2.02618e-06
1.81157e-07
-2.20058e-06
1.74061e-07
-2.36644e-06
1.66617e-07
-2.52579e-06
1.58997e-07
-2.67668e-06
1.51564e-07
-2.8214e-06
1.44348e-07
-2.95841e-06
1.3759e-07
-3.09002e-06
1.31224e-07
-3.21491e-06
1.25402e-07
-3.33526e-06
1.19999e-07
-3.44987e-06
1.15118e-07
-3.56078e-06
1.10599e-07
-3.66682e-06
1.06527e-07
-3.76985e-06
1.02732e-07
-3.86866e-06
9.92782e-08
-3.96499e-06
9.59941e-08
-4.05757e-06
9.29567e-08
-4.14797e-06
8.99883e-08
-4.23487e-06
8.71615e-08
-4.31959e-06
8.43235e-08
-4.4008e-06
8.15402e-08
-4.47981e-06
7.86302e-08
-4.5552e-06
7.56683e-08
-4.62808e-06
7.24978e-08
-4.69692e-06
6.91959e-08
-4.76287e-06
6.55725e-08
-4.82431e-06
6.17293e-08
-4.88212e-06
5.74941e-08
-4.93468e-06
5.29501e-08
-4.9828e-06
4.78966e-08
-5.02482e-06
4.24229e-08
-5.06138e-06
3.63257e-08
-5.09076e-06
2.97292e-08
-5.11351e-06
2.24927e-08
-5.12811e-06
1.48927e-08
-5.13536e-06
7.00928e-09
-5.13462e-06
-4.68074e-10
-5.12728e-06
-7.56293e-09
-5.11246e-06
-1.45596e-08
-5.09096e-06
-2.17733e-08
-5.06167e-06
-2.91142e-08
-5.02539e-06
-3.66984e-08
-4.98108e-06
-4.43039e-08
-4.9294e-06
-5.21255e-08
-4.86932e-06
-6.00268e-08
-4.80169e-06
-6.79915e-08
-4.72583e-06
-7.58389e-08
-4.64241e-06
-8.36467e-08
-4.55122e-06
-9.11474e-08
-4.45253e-06
-9.87434e-08
-4.3469e-06
-1.05599e-07
-4.2347e-06
-1.1212e-07
-4.11624e-06
-1.18494e-07
-3.99157e-06
-1.24809e-07
-3.8616e-06
-1.3031e-07
-3.72742e-06
-1.35165e-07
-3.58858e-06
-1.39873e-07
-3.44636e-06
-1.43418e-07
-3.30097e-06
-1.46452e-07
-3.15324e-06
-1.48808e-07
-3.00367e-06
-1.5046e-07
-2.85311e-06
-1.51471e-07
-2.70205e-06
-1.51793e-07
-2.55131e-06
-1.51547e-07
-2.40125e-06
-1.50696e-07
-2.25269e-06
-1.49349e-07
-2.10586e-06
-1.47477e-07
-1.96133e-06
-1.45141e-07
-1.81926e-06
-1.42407e-07
-1.68002e-06
-1.39259e-07
-1.54392e-06
-1.35917e-07
-1.41114e-06
-1.32289e-07
-1.282e-06
-1.28661e-07
-1.1565e-06
-1.24865e-07
-1.03484e-06
-1.21192e-07
-9.16861e-07
-1.17426e-07
-8.0273e-07
-1.13793e-07
-6.92268e-07
-1.10084e-07
-5.85582e-07
-1.06536e-07
-4.8249e-07
-1.02946e-07
-3.83012e-07
-9.95234e-08
-2.86966e-07
-9.60586e-08
-1.94199e-07
-9.28633e-08
-1.0452e-07
-8.98066e-08
-1.76106e-08
-8.71785e-08
6.71754e-08
-8.48965e-08
1.49594e-07
-8.22523e-08
2.29214e-07
-7.90041e-08
3.05771e-07
-7.58268e-08
3.79297e-07
-7.26972e-08
4.49646e-07
-6.98164e-08
5.17205e-07
-6.70656e-08
5.82005e-07
-6.46116e-08
6.4448e-07
-6.22466e-08
7.04607e-07
-6.01373e-08
7.62794e-07
-5.81008e-08
8.1892e-07
-5.62411e-08
8.73343e-07
-5.44084e-08
9.25977e-07
-5.28019e-08
9.77174e-07
-5.12361e-08
1.02676e-06
-4.98167e-08
1.07502e-06
-4.837e-08
1.12178e-06
-4.70807e-08
1.1673e-06
-4.58399e-08
1.21137e-06
-4.47582e-08
1.25425e-06
-4.36368e-08
1.29599e-06
-4.25977e-08
1.33692e-06
-4.15933e-08
1.37702e-06
-4.06513e-08
1.41634e-06
-3.9682e-08
1.45477e-06
-3.87536e-08
1.49241e-06
-3.78407e-08
1.52918e-06
-3.69729e-08
1.56518e-06
-3.61118e-08
1.60034e-06
-3.52958e-08
1.63471e-06
-3.44396e-08
1.66822e-06
-3.36388e-08
1.70095e-06
-3.28056e-08
1.73282e-06
-3.19981e-08
1.7639e-06
-3.11809e-08
1.79411e-06
-3.03698e-08
1.82354e-06
-2.95399e-08
1.85222e-06
-2.88507e-08
1.88026e-06
-2.81522e-08
1.90761e-06
-2.75098e-08
1.93438e-06
-2.68669e-08
1.96049e-06
-2.62501e-08
1.98605e-06
-2.56349e-08
2.01092e-06
-2.49773e-08
2.03514e-06
-2.42787e-08
2.05846e-06
-2.34048e-08
2.08071e-06
-2.22923e-08
2.10176e-06
-2.11155e-08
2.12143e-06
-1.96982e-08
2.13945e-06
-1.807e-08
2.15585e-06
-1.64213e-08
2.17047e-06
-1.46784e-08
2.18317e-06
-1.27103e-08
2.19392e-06
-1.07748e-08
2.20227e-06
-8.34501e-09
2.20666e-06
-4.38365e-09
2.20473e-06
1.93705e-09
2.19382e-06
1.08936e-08
2.17763e-06
1.61847e-08
2.12521e-06
5.24005e-08
1.17223e-07
2.008e-06
1.11425e-07
-1.86441e-07
2.23443e-07
-2.15453e-07
3.17749e-07
-1.94777e-07
3.85977e-07
-1.70747e-07
4.31867e-07
-1.47211e-07
4.64137e-07
-1.1973e-07
4.83425e-07
-9.04575e-08
4.90113e-07
-6.00614e-08
4.94828e-07
-2.86844e-08
4.88279e-07
1.21614e-09
4.67382e-07
2.88512e-08
4.39733e-07
5.44301e-08
4.02279e-07
7.63764e-08
3.53379e-07
9.43837e-08
2.92712e-07
1.08976e-07
2.18347e-07
1.21819e-07
1.30409e-07
1.34905e-07
2.62224e-08
1.49872e-07
-9.42354e-08
1.69458e-07
-2.33011e-07
1.95408e-07
-3.90159e-07
2.25552e-07
-5.66294e-07
2.57102e-07
-7.58199e-07
2.87812e-07
-9.61625e-07
3.16117e-07
-1.16923e-06
3.40806e-07
-1.37712e-06
3.6035e-07
-1.58186e-06
3.73734e-07
-1.78143e-06
3.80793e-07
-1.97331e-06
3.81927e-07
-2.15639e-06
3.77866e-07
-2.32918e-06
3.6958e-07
-2.49171e-06
3.58078e-07
-2.64353e-06
3.44403e-07
-2.78568e-06
3.29468e-07
-2.9183e-06
3.13979e-07
-3.04277e-06
2.98474e-07
-3.15932e-06
2.83379e-07
-3.26935e-06
2.68959e-07
-3.37301e-06
2.55411e-07
-3.47156e-06
2.42809e-07
-3.56502e-06
2.31202e-07
-3.65444e-06
2.20551e-07
-3.73973e-06
2.10826e-07
-3.82174e-06
2.0193e-07
-3.90027e-06
1.93799e-07
-3.97603e-06
1.86316e-07
-4.04875e-06
1.79407e-07
-4.11903e-06
1.72958e-07
-4.1865e-06
1.66898e-07
-4.25166e-06
1.61112e-07
-4.31414e-06
1.55536e-07
-4.37433e-06
1.50074e-07
-4.43177e-06
1.44679e-07
-4.48678e-06
1.39251e-07
-4.53889e-06
1.33737e-07
-4.5884e-06
1.28045e-07
-4.63479e-06
1.22141e-07
-4.67831e-06
1.15936e-07
-4.71844e-06
1.09397e-07
-4.75542e-06
1.02449e-07
-4.78871e-06
9.50874e-08
-4.81853e-06
8.72434e-08
-4.8444e-06
7.8916e-08
-4.86657e-06
7.00424e-08
-4.88468e-06
6.06432e-08
-4.89907e-06
5.06763e-08
-4.90945e-06
4.01958e-08
-4.91619e-06
2.91928e-08
-4.91897e-06
1.77435e-08
-4.91782e-06
5.82955e-09
-4.9116e-06
-6.60125e-09
-4.89953e-06
-1.96547e-08
-4.88079e-06
-3.32217e-08
-4.85528e-06
-4.73173e-08
-4.82253e-06
-6.18544e-08
-4.78254e-06
-7.68232e-08
-4.73481e-06
-9.20905e-08
-4.67945e-06
-1.07629e-07
-4.61621e-06
-1.23315e-07
-4.54524e-06
-1.39084e-07
-4.46633e-06
-1.54786e-07
-4.37968e-06
-1.70356e-07
-4.28532e-06
-1.85516e-07
-4.18381e-06
-2.00265e-07
-4.07506e-06
-2.14326e-07
-3.9594e-06
-2.2776e-07
-3.8374e-06
-2.40501e-07
-3.7098e-06
-2.52406e-07
-3.57723e-06
-2.63282e-07
-3.43987e-06
-2.72967e-07
-3.29893e-06
-2.81495e-07
-3.1544e-06
-2.88608e-07
-3.00713e-06
-2.94348e-07
-2.85772e-06
-2.98757e-07
-2.70688e-06
-3.01783e-07
-2.55526e-06
-3.03509e-07
-2.40351e-06
-3.0391e-07
-2.25226e-06
-3.03119e-07
-2.1021e-06
-3.01153e-07
-1.95358e-06
-2.98177e-07
-1.80707e-06
-2.94207e-07
-1.66304e-06
-2.89383e-07
-1.52164e-06
-2.8376e-07
-1.38334e-06
-2.77482e-07
-1.24823e-06
-2.70691e-07
-1.11673e-06
-2.63521e-07
-9.88847e-07
-2.56135e-07
-8.64839e-07
-2.48598e-07
-7.44618e-07
-2.41047e-07
-6.28352e-07
-2.33485e-07
-5.15869e-07
-2.25999e-07
-4.07253e-07
-2.18576e-07
-3.02314e-07
-2.11301e-07
-2.0107e-07
-2.04165e-07
-1.03192e-07
-1.97325e-07
-8.51732e-09
-1.90755e-07
8.31075e-08
-1.84453e-07
1.71487e-07
-1.78272e-07
2.56504e-07
-1.72273e-07
3.37933e-07
-1.6641e-07
4.16317e-07
-1.60536e-07
4.9214e-07
-1.546e-07
5.65523e-07
-1.4884e-07
6.36433e-07
-1.43292e-07
7.0497e-07
-1.3806e-07
7.71195e-07
-1.33113e-07
8.3525e-07
-1.28517e-07
8.9725e-07
-1.24179e-07
9.57325e-07
-1.2015e-07
1.01557e-06
-1.16342e-07
1.07212e-06
-1.12772e-07
1.12705e-06
-1.09368e-07
1.18044e-06
-1.06208e-07
1.23236e-06
-1.03211e-07
1.28288e-06
-1.00393e-07
1.33209e-06
-9.76734e-08
1.38001e-06
-9.51173e-08
1.42665e-06
-9.27131e-08
1.47202e-06
-9.04731e-08
1.51622e-06
-8.82988e-08
1.55938e-06
-8.62057e-08
1.60161e-06
-8.41952e-08
1.64294e-06
-8.22515e-08
1.68339e-06
-8.03321e-08
1.72296e-06
-7.84545e-08
1.76165e-06
-7.66444e-08
1.79949e-06
-7.48835e-08
1.8365e-06
-7.31779e-08
1.87269e-06
-7.15168e-08
1.90806e-06
-6.98566e-08
1.94259e-06
-6.81987e-08
1.97628e-06
-6.6544e-08
2.00916e-06
-6.49229e-08
2.04127e-06
-6.33464e-08
2.07259e-06
-6.17585e-08
2.10318e-06
-6.01955e-08
2.13301e-06
-5.87588e-08
2.16218e-06
-5.73927e-08
2.19067e-06
-5.60725e-08
2.21852e-06
-5.47768e-08
2.2457e-06
-5.3494e-08
2.27222e-06
-5.21966e-08
2.29801e-06
-5.08119e-08
2.323e-06
-4.9306e-08
2.34706e-06
-4.74874e-08
2.37004e-06
-4.5294e-08
2.39177e-06
-4.28599e-08
2.41215e-06
-4.00804e-08
2.43108e-06
-3.70007e-08
2.44855e-06
-3.38856e-08
2.46457e-06
-3.07035e-08
2.47917e-06
-2.72923e-08
2.49213e-06
-2.37164e-08
2.5032e-06
-1.93785e-08
2.51225e-06
-1.34003e-08
2.5191e-06
-4.8834e-09
2.52237e-06
7.62228e-09
2.51556e-06
2.29765e-08
2.49832e-06
6.96311e-08
1.5741e-07
2.45817e-06
8.96003e-08
-2.76087e-07
1.53044e-07
-2.79016e-07
2.01724e-07
-2.43439e-07
2.35178e-07
-2.04314e-07
2.52884e-07
-1.64887e-07
2.57949e-07
-1.24929e-07
2.52246e-07
-8.47201e-08
2.36703e-07
-4.46659e-08
2.13225e-07
-5.16583e-09
1.80999e-07
3.32973e-08
1.39613e-07
7.02931e-08
8.84681e-08
1.05439e-07
2.64736e-08
1.3845e-07
-4.8841e-08
1.69575e-07
-1.39386e-07
1.99619e-07
-2.47592e-07
2.29919e-07
-3.74461e-07
2.61884e-07
-5.21163e-07
2.96485e-07
-6.85202e-07
3.33603e-07
-8.61975e-07
3.72118e-07
-1.04614e-06
4.09808e-07
-1.23314e-06
4.44059e-07
-1.41819e-06
4.72938e-07
-1.59753e-06
4.95415e-07
-1.76768e-06
5.11011e-07
-1.92696e-06
5.19596e-07
-2.0746e-06
5.21436e-07
-2.21106e-06
5.17203e-07
-2.33694e-06
5.07857e-07
-2.45359e-06
4.94463e-07
-2.56205e-06
4.78098e-07
-2.66382e-06
4.59785e-07
-2.75975e-06
4.40404e-07
-2.85101e-06
4.20665e-07
-2.93806e-06
4.01119e-07
-3.02182e-06
3.82172e-07
-3.10246e-06
3.64106e-07
-3.18065e-06
3.4709e-07
-3.25639e-06
3.31216e-07
-3.33014e-06
3.16504e-07
-3.40182e-06
3.02934e-07
-3.47177e-06
2.90444e-07
-3.53985e-06
2.78956e-07
-3.60633e-06
2.6837e-07
-3.67105e-06
2.58584e-07
-3.73424e-06
2.49487e-07
-3.79572e-06
2.40972e-07
-3.8557e-06
2.32931e-07
-3.91398e-06
2.25259e-07
-3.97072e-06
2.17853e-07
-4.02573e-06
2.10619e-07
-4.07914e-06
2.03462e-07
-4.1307e-06
1.963e-07
-4.18049e-06
1.89043e-07
-4.2283e-06
1.81607e-07
-4.27417e-06
1.73907e-07
-4.31786e-06
1.65873e-07
-4.35936e-06
1.57426e-07
-4.39843e-06
1.48502e-07
-4.43505e-06
1.39035e-07
-4.46893e-06
1.28979e-07
-4.5e-06
1.1828e-07
-4.52795e-06
1.06895e-07
-4.5527e-06
9.47779e-08
-4.57393e-06
8.18972e-08
-4.59148e-06
6.82152e-08
-4.60499e-06
5.37153e-08
-4.61417e-06
3.83649e-08
-4.61854e-06
2.21399e-08
-4.61769e-06
4.99549e-09
-4.61115e-06
-1.31053e-08
-4.5986e-06
-3.21752e-08
-4.57963e-06
-5.21472e-08
-4.55397e-06
-7.29564e-08
-4.5213e-06
-9.45146e-08
-4.48141e-06
-1.16735e-07
-4.43405e-06
-1.39478e-07
-4.3791e-06
-1.62624e-07
-4.31641e-06
-1.86029e-07
-4.24597e-06
-2.09565e-07
-4.16773e-06
-2.33048e-07
-4.08179e-06
-2.56313e-07
-3.98827e-06
-2.79047e-07
-3.88746e-06
-3.01071e-07
-3.7796e-06
-3.2218e-07
-3.6651e-06
-3.42257e-07
-3.5444e-06
-3.61172e-07
-3.41816e-06
-3.78736e-07
-3.2869e-06
-3.94663e-07
-3.15131e-06
-4.08944e-07
-3.01197e-06
-4.21262e-07
-2.86935e-06
-4.31556e-07
-2.72423e-06
-4.39852e-07
-2.57714e-06
-4.46061e-07
-2.4289e-06
-4.5028e-07
-2.28004e-06
-4.52473e-07
-2.13133e-06
-4.52777e-07
-1.98326e-06
-4.51227e-07
-1.83648e-06
-4.48015e-07
-1.69143e-06
-4.43249e-07
-1.54854e-06
-4.37092e-07
-1.40816e-06
-4.29683e-07
-1.27054e-06
-4.2115e-07
-1.13606e-06
-4.11726e-07
-1.00484e-06
-4.01535e-07
-8.77232e-07
-3.90859e-07
-7.53224e-07
-3.79787e-07
-6.33058e-07
-3.68553e-07
-5.16625e-07
-3.57193e-07
-4.04077e-07
-3.45893e-07
-2.95225e-07
-3.3464e-07
-1.90142e-07
-3.23586e-07
-8.85368e-08
-3.12769e-07
9.60199e-09
-3.02294e-07
1.04427e-07
-2.9208e-07
1.95813e-07
-2.82167e-07
2.83887e-07
-2.72514e-07
3.6868e-07
-2.63161e-07
4.50404e-07
-2.54066e-07
5.29123e-07
-2.45223e-07
6.05199e-07
-2.36553e-07
6.78811e-07
-2.28099e-07
7.50123e-07
-2.19924e-07
8.19109e-07
-2.12124e-07
8.85921e-07
-2.04703e-07
9.50582e-07
-1.97708e-07
1.01326e-06
-1.91114e-07
1.07399e-06
-1.84917e-07
1.13295e-06
-1.79083e-07
1.19016e-06
-1.73592e-07
1.24577e-06
-1.68393e-07
1.29983e-06
-1.63481e-07
1.35244e-06
-1.58846e-07
1.40362e-06
-1.54469e-07
1.45349e-06
-1.50304e-07
1.50205e-06
-1.46333e-07
1.54938e-06
-1.42558e-07
1.59548e-06
-1.39e-07
1.64037e-06
-1.35629e-07
1.68412e-06
-1.32385e-07
1.72684e-06
-1.29256e-07
1.76861e-06
-1.26221e-07
1.80946e-06
-1.23283e-07
1.8494e-06
-1.20406e-07
1.88845e-06
-1.17612e-07
1.92663e-06
-1.14896e-07
1.96395e-06
-1.12266e-07
2.00043e-06
-1.0969e-07
2.03605e-06
-1.07173e-07
2.07085e-06
-1.0468e-07
2.10483e-06
-1.02211e-07
2.13801e-06
-9.97534e-08
2.17039e-06
-9.7346e-08
2.20199e-06
-9.49779e-08
2.23282e-06
-9.26415e-08
2.26294e-06
-9.03559e-08
2.29232e-06
-8.81945e-08
2.32102e-06
-8.61277e-08
2.34902e-06
-8.41309e-08
2.37636e-06
-8.21519e-08
2.403e-06
-8.01762e-08
2.42893e-06
-7.81451e-08
2.45408e-06
-7.59943e-08
2.47835e-06
-7.36006e-08
2.50167e-06
-7.08308e-08
2.52397e-06
-6.76044e-08
2.54508e-06
-6.39864e-08
2.56497e-06
-5.99808e-08
2.58366e-06
-5.57025e-08
2.60111e-06
-5.13401e-08
2.61734e-06
-4.69497e-08
2.63245e-06
-4.24104e-08
2.64628e-06
-3.75552e-08
2.65863e-06
-3.17129e-08
2.66925e-06
-2.40192e-08
2.67759e-06
-1.32291e-08
2.68236e-06
2.84192e-09
2.67948e-06
2.58406e-08
2.67479e-06
7.42973e-08
1.60366e-07
2.67182e-06
4.05051e-08
-3.16594e-07
5.57596e-08
-2.94364e-07
6.32253e-08
-2.50873e-07
6.24798e-08
-2.03665e-07
5.29949e-08
-1.55376e-07
3.45352e-08
-1.06579e-07
7.44079e-09
-5.76063e-08
-2.85474e-08
-8.79274e-09
-7.3352e-08
3.96581e-08
-1.27751e-07
8.75921e-08
-1.92248e-07
1.34818e-07
-2.68112e-07
1.81215e-07
-3.56424e-07
2.26807e-07
-4.5875e-07
2.71825e-07
-5.75693e-07
3.16625e-07
-7.07334e-07
3.61494e-07
-8.51721e-07
4.06346e-07
-1.00574e-06
4.5045e-07
-1.16449e-06
4.92442e-07
-1.32313e-06
5.30709e-07
-1.47684e-06
5.63608e-07
-1.62261e-06
5.89793e-07
-1.75817e-06
6.0857e-07
-1.88269e-06
6.19914e-07
-1.99587e-06
6.24266e-07
-2.09861e-06
6.22313e-07
-2.19201e-06
6.14899e-07
-2.27781e-06
6.02977e-07
-2.35742e-06
5.87519e-07
-2.43246e-06
5.69471e-07
-2.50401e-06
5.49695e-07
-2.57322e-06
5.28945e-07
-2.64062e-06
5.07843e-07
-2.70689e-06
4.86873e-07
-2.77214e-06
4.66412e-07
-2.83676e-06
4.46735e-07
-2.90064e-06
4.28028e-07
-2.96402e-06
4.10399e-07
-3.02667e-06
3.93898e-07
-3.08875e-06
3.78523e-07
-3.15003e-06
3.64241e-07
-3.21063e-06
3.50988e-07
-3.27033e-06
3.38685e-07
-3.32924e-06
3.27238e-07
-3.38715e-06
3.16544e-07
-3.44418e-06
3.06499e-07
-3.50015e-06
2.96993e-07
-3.55514e-06
2.87918e-07
-3.60898e-06
2.79168e-07
-3.66175e-06
2.70635e-07
-3.71328e-06
2.62217e-07
-3.76361e-06
2.53814e-07
-3.81257e-06
2.45328e-07
-3.86017e-06
2.36661e-07
-3.90621e-06
2.27718e-07
-3.95069e-06
2.18403e-07
-3.99339e-06
2.08628e-07
-4.03427e-06
1.98302e-07
-4.07308e-06
1.87342e-07
-4.10973e-06
1.75668e-07
-4.14395e-06
1.63206e-07
-4.17558e-06
1.49885e-07
-4.20432e-06
1.35635e-07
-4.22996e-06
1.20389e-07
-4.25215e-06
1.04086e-07
-4.27063e-06
8.66653e-08
-4.28499e-06
6.80743e-08
-4.2949e-06
4.82611e-08
-4.29993e-06
2.71802e-08
-4.29972e-06
4.80163e-09
-4.2939e-06
-1.88903e-08
-4.28217e-06
-4.38767e-08
-4.26417e-06
-7.00984e-08
-4.23962e-06
-9.74786e-08
-4.2082e-06
-1.25905e-07
-4.16968e-06
-1.55248e-07
-4.12381e-06
-1.8535e-07
-4.0704e-06
-2.16033e-07
-4.00932e-06
-2.47108e-07
-3.94052e-06
-2.7837e-07
-3.86401e-06
-3.09574e-07
-3.77987e-06
-3.40453e-07
-3.68824e-06
-3.7068e-07
-3.58935e-06
-3.99968e-07
-3.48347e-06
-4.28063e-07
-3.37103e-06
-4.54691e-07
-3.25253e-06
-4.79698e-07
-3.12848e-06
-5.02803e-07
-2.99957e-06
-5.23793e-07
-2.86636e-06
-5.42341e-07
-2.72948e-06
-5.58391e-07
-2.58955e-06
-5.71737e-07
-2.44719e-06
-5.82374e-07
-2.30312e-06
-5.90258e-07
-2.15798e-06
-5.95452e-07
-2.01248e-06
-5.97986e-07
-1.8672e-06
-5.97997e-07
-1.72276e-06
-5.95598e-07
-1.57967e-06
-5.91e-07
-1.4384e-06
-5.84381e-07
-1.29937e-06
-5.75945e-07
-1.16289e-06
-5.65906e-07
-1.02926e-06
-5.54451e-07
-8.98744e-07
-5.41866e-07
-7.71581e-07
-5.28334e-07
-6.47931e-07
-5.14176e-07
-5.27916e-07
-4.99514e-07
-4.11594e-07
-4.84631e-07
-2.98996e-07
-4.69583e-07
-1.90109e-07
-4.54616e-07
-8.48239e-08
-4.3978e-07
1.69386e-08
-4.25249e-07
1.15204e-07
-4.10947e-07
2.09959e-07
-3.97009e-07
3.01296e-07
-3.83377e-07
3.89297e-07
-3.7017e-07
4.74095e-07
-3.5733e-07
5.55801e-07
-3.44946e-07
6.34598e-07
-3.32934e-07
7.10655e-07
-3.21346e-07