/*--------------------------------*- C++ -*----------------------------------*\
  =========                 |
  \\      /  F ield         | OpenFOAM: The Open Source CFD Toolbox
   \\    /   O peration     | Website:  https://openfoam.org
    \\  /    A nd           | Version:  9
     \\/     M anipulation  |
\*---------------------------------------------------------------------------*/
FoamFile
{
    format      ascii;
    class       volScalarField;
    location    "8.06";
    object      alpha.water;
}
// * * * * * * * * * * * * * * * * * * * * * * * * * * * * * * * * * * * * * //

dimensions      [0 0 0 0 0 0 0];

internalField   nonuniform List<scalar> 
2268
(
1
1
0.999999
0.999998
0.999999
1
0.999999
0.999999
0.999997
0.999998
1
1
1
1
1
1
1
1
0.9987
0.997669
0.998475
0.999994
0.999803
0.999998
0.999999
0.999997
0.999998
0.999999
0.999999
0.999997
0.999997
0.999997
0.999999
0.999999
1
1
1
0.999999
0.999998
0.999998
1
0.998628
0.997669
0.999648
0.999994
0.999992
0.999997
0.999997
0.999997
0.999999
0.999999
1
0.999999
0.999999
0.999999
0.999999
0.999999
0.999999
1
1
0.999998
0.999981
1
1
0.999183
0.997669
0.999907
0.999994
0.999994
0.999998
0.999999
0.999999
1
0.999999
1
0.999999
0.999999
0.999999
0.999999
1
1
1
1
1
0.999913
0.999773
0.999937
0.999942
0.999145
0.999937
0.999914
0.999987
0.999999
1
0.999999
1
1
1
0.999999
0.999999
1
1
1
1
1
1
1
0.999853
0.998881
0.999988
0.999988
0.999988
0.999988
0.997699
0.999942
1
1
1
1
1
1
1
1
1
1
1
1
1
1
1
1
0.996626
0.998285
0.999988
0.999988
0.999988
0.99637
0.999808
1
1
1
1
1
1
1
1
1
1
1
1
1
1
1
1
0.996181
0.983813
0.988671
0.995748
0.986273
0.996287
0.99996
1
1
1
1
1
1
1
1
1
1
1
1
1
1
1
1
0.99819
0.983233
0.983233
0.983268
0.983278
0.997559
0.999963
0.998577
0.999833
0.999303
0.99919
0.999319
0.997769
0.994603
0.994603
0.994858
0.993605
0.992203
0.992203
0.992929
0.998676
0.998676
0.998676
0.998676
0.998676
0.998582
0.994037
0.999897
0.999992
0.999985
0.999991
0.999991
0.999991
0.999938
0.999938
0.999889
0.996977
0.992203
0.992203
0.998272
0.998676
0.998676
0.998677
0.998126
0.997733
0.992265
0.997763
0.999992
0.999987
0.999991
0.999985
0.99997
0.99997
0.999886
0.999915
0.999692
0.996584
0.994195
0.996486
0.998676
0.998676
0.998007
0.994981
0.99498
0.992265
0.998127
0.999992
0.999992
0.999998
0.999953
0.99976
0.999788
0.999437
0.999275
0.999696
0.999668
0.999446
0.998511
0.99786
0.998676
0.997258
0.99498
0.996485
0.992771
0.999337
0.999999
0.999999
0.999997
0.999836
0.999745
0.999754
0.999467
0.998811
0.999497
0.999668
0.999668
0.999475
0.995288
0.996762
0.996034
0.997977
0.998434
0.9994
0.999991
0.999999
0.999992
0.99997
0.999952
0.999934
0.99996
0.999177
0.999152
0.999637
0.999668
0.999661
0.999661
0.995294
0.991488
0.989008
0.998434
0.998434
0.999999
0.999999
0.999997
0.999987
0.99999
0.999995
0.999995
0.999995
0.99746
0.990819
0.999667
0.999668
0.999287
0.992025
0.991311
0.997424
0.988751
0.99772
0.998434
0.999999
0.999999
0.999998
0.999997
0.999997
0.999997
0.99999
0.99999
0.993646
0.982106
0.988375
0.997512
0.997725
0.983524
0.989582
0.997424
0.988751
0.995918
0.998434
0.999999
1
1
1
1
1
1
1
1
1
1
1
1
1
1
1
1
0.998438
0.993034
0.99149
0.998556
0.999999
0.999999
0.98242
0.982844
0.983847
0.984565
0.985233
0.986332
0.98765
0.988899
0.989191
0.987655
0.985382
0.982957
0.981881
0.981617
0.982361
0.984147
0.987002
0.990718
0.992169
0.991592
0.988837
0.983622
0.980082
0.347659
0.348907
0.349813
0.350421
0.35037
0.349206
0.347565
0.345793
0.344658
0.344703
0.345272
0.345646
0.344943
0.343533
0.341661
0.340015
0.339516
0.341019
0.34319
0.343031
0.341201
0.341069
0.343291
0.000386336
0.000386024
0.000385011
0.00038439
0.000383705
0.000382001
0.000380028
0.000378523
0.000377577
0.000376957
0.000376728
0.000376854
0.00037685
0.000446352
0.000629106
0.00091309
0.00127753
0.00117969
0.000716864
0.000702883
0.000733662
0.000735351
0.000605375
0.000593889
0.000768524
0.0011367
0.00113457
0.00108886
0.00181378
0.00225934
0.00245592
0.00249345
0.0025743
0.00259872
0.0026029
0.00256197
0.00230414
0.00213274
0.00199095
0.00166633
0.0011784
0.000678562
0.000702273
0.000732396
0.000724719
0.000543541
0.000444611
0.000370402
0.000147319
0.000159476
0.000242156
3.86498e-05
2.70635e-08
2.70637e-08
2.70635e-08
2.70637e-08
2.70643e-08
3.37878e-08
3.37874e-08
2.00051e-05
3.39825e-05
4.09669e-05
8.29485e-05
0.000244594
0.000339904
0.000346799
0.000353088
0.000304303
0.000406265
1.59683e-05
1.55424e-05
9.84296e-06
2.10261e-07
6.85661e-08
6.70698e-08
6.63694e-08
2.70635e-08
2.70637e-08
2.70643e-08
2.70728e-08
2.75137e-08
2.03776e-05
6.65485e-05
6.65599e-05
5.64974e-05
1.39158e-05
1.35005e-05
1.02033e-05
4.64849e-06
3.36167e-05
0.000100714
0.000112032
2.32032e-09
2.32005e-09
2.32032e-09
3.58467e-07
1.40241e-06
1.63059e-06
9.44444e-07
1.12997e-07
5.02516e-07
9.22777e-07
2.30817e-07
4.67606e-07
3.77032e-05
6.65385e-05
6.03251e-05
2.76793e-05
1.5506e-05
9.48377e-06
4.24991e-06
8.84355e-09
1.73138e-08
5.16092e-09
4.20782e-09
2.36998e-09
2.32005e-09
2.32005e-09
3.02547e-09
4.23697e-07
1.88751e-06
1.88785e-06
1.10581e-06
1.04425e-06
2.80607e-06
1.7574e-06
1.54304e-06
2.28129e-06
6.97713e-10
7.88277e-10
7.77402e-06
1.55811e-05
3.70351e-06
8.84355e-09
8.79455e-09
8.50859e-09
4.06094e-09
3.63721e-09
2.52808e-09
2.32005e-09
2.32005e-09
2.32011e-09
7.38933e-08
1.54508e-06
1.79873e-06
2.5605e-07
1.86769e-06
2.80607e-06
2.73403e-06
1.6031e-07
5.49438e-10
6.90748e-10
2.95864e-09
6.14245e-08
7.6722e-07
6.99092e-07
2.846e-08
8.86e-09
1.53923e-08
1.57752e-08
3.63721e-09
3.15676e-09
3.04505e-08
6.23837e-08
3.11853e-09
2.77134e-09
1.23331e-07
2.91695e-07
6.22435e-08
1.52457e-06
2.80607e-06
1.46016e-06
5.46076e-10
5.45867e-10
5.21973e-09
3.63647e-07
6.8261e-07
4.81939e-07
1.92587e-08
1.92222e-08
2.65605e-08
3.05406e-08
2.81637e-08
5.99697e-09
6.20334e-09
1.05509e-07
1.05486e-07
1.55096e-08
4.90627e-10
4.91333e-10
5.13397e-10
3.37239e-09
1.48224e-06
2.55799e-06
5.45839e-10
5.45381e-10
5.43803e-10
5.59181e-10
1.10924e-06
5.87932e-06
5.87603e-06
1.81974e-06
1.04829e-08
1.04594e-08
2.33627e-08
1.91129e-08
4.11105e-09
5.82341e-09
1.05538e-07
1.05539e-07
2.01356e-08
4.90627e-10
4.90627e-10
1.72376e-07
1.44307e-06
1.54489e-06
7.20334e-07
5.44941e-10
5.44297e-10
5.3046e-10
2.95351e-10
1.42936e-06
5.8793e-06
5.87932e-06
5.87929e-06
1.70181e-06
5.45407e-09
5.45537e-09
6.61552e-09
4.36187e-09
2.46034e-09
4.26037e-08
9.24948e-08
1.14792e-08
4.90627e-10
6.30719e-09
9.65088e-07
1.63451e-06
1.53123e-06
2.84157e-10
6.77063e-10
7.99181e-10
5.29893e-10
1.9426e-10
1.63931e-08
1.28373e-06
5.52099e-06
5.77943e-06
7.08608e-07
5.45537e-09
6.70246e-09
1.3593e-08
7.3349e-09
1.04046e-09
5.03407e-10
1.14526e-08
1.91081e-09
4.95817e-10
5.53784e-09
9.8692e-07
1.63451e-06
7.48783e-07
2.83894e-10
7.70766e-10
8.82795e-10
5.35177e-10
8.91317e-11
6.38051e-11
2.04536e-08
2.62438e-07
4.41502e-07
6.40197e-08
5.45322e-09
1.4428e-08
1.56699e-08
8.67153e-09
3.00226e-10
3.00226e-10
3.00226e-10
3.17667e-10
6.85558e-10
1.36918e-08
3.11713e-07
5.63247e-07
6.34698e-09
2.83762e-10
8.25582e-10
8.34204e-10
2.90868e-10
6.88273e-11
6.3777e-11
6.52465e-11
7.25917e-11
6.55534e-11
6.2564e-10
8.72297e-09
1.61271e-08
1.45215e-08
1.64475e-09
3.00648e-10
1.18511e-08
6.85622e-10
3.19262e-10
2.83403e-09
1.30383e-08
1.83016e-10
1.45276e-11
2.31305e-11
2.83919e-10
5.88427e-10
4.4096e-10
9.77624e-11
4.98277e-11
6.378e-11
6.58342e-11
6.035e-11
5.74568e-11
2.1981e-10
1.46169e-09
2.48145e-09
1.77374e-09
1.15365e-09
2.16733e-07
2.20755e-07
3.41965e-10
4.11175e-10
3.3049e-09
7.78715e-09
2.20986e-11
1.38097e-11
1.72082e-11
1.23093e-10
1.8313e-10
8.55258e-11
1.64036e-11
2.81842e-11
5.1938e-11
6.09058e-11
6.16257e-11
5.59285e-11
4.5084e-11
2.36101e-11
5.21923e-12
3.71588e-11
1.51074e-10
2.75219e-07
2.29145e-07
3.86687e-11
4.85708e-10
2.3353e-09
1.03176e-09
1.75504e-11
1.38083e-11
7.89647e-12
1.64097e-11
1.53449e-11
3.33913e-12
7.33326e-13
7.51308e-12
2.27761e-11
3.1991e-11
3.33739e-11
2.77712e-11
1.68708e-11
8.84831e-12
4.48892e-12
2.37867e-12
1.44966e-12
2.75222e-07
9.16566e-08
3.83373e-11
3.89128e-10
8.68774e-10
2.76692e-11
1.30627e-11
1.17293e-11
1.45801e-12
3.68916e-13
1.63491e-13
0
-2.30333e-13
3.64719e-13
2.75015e-12
5.16223e-12
5.21799e-12
3.61802e-12
2.01478e-12
1.15814e-12
7.41096e-13
3.37565e-13
2.44949e-13
2.75225e-07
7.90525e-09
3.8134e-11
1.93606e-10
1.40403e-10
5.35137e-12
6.92583e-12
5.22359e-12
2.01948e-31
-5.14107e-13
-6.97307e-13
-8.52532e-13
-7.98053e-13
-4.13853e-13
2.02003e-14
1.09094e-13
1.06666e-13
5.24925e-14
2.277e-14
1.13161e-14
5.27606e-15
8.16648e-16
3.05201e-16
2.76332e-07
4.10621e-08
2.82824e-11
5.48748e-11
2.86252e-11
4.04363e-12
1.44837e-12
5.01931e-13
-5.14451e-13
-9.75969e-13
-1.12178e-12
-1.14206e-12
-9.98718e-13
-7.27313e-13
-4.50464e-13
-2.81823e-13
-2.06681e-13
-1.67398e-13
-1.34123e-13
-1.01932e-13
-7.17273e-14
-4.70376e-14
-2.88158e-14
2.76484e-07
2.56566e-07
2.82825e-11
2.84318e-11
2.7136e-11
4.0631e-12
8.07382e-14
-2.92974e-14
-6.66474e-13
-1.00232e-12
-1.09157e-12
-1.0449e-12
-8.96485e-13
-6.95679e-13
-5.03339e-13
-3.55264e-13
-2.57511e-13
-1.8836e-13
-1.3503e-13
-9.3928e-14
-6.31893e-14
-4.08355e-14
-2.50716e-14
2.76484e-07
2.76483e-07
2.82824e-11
3.05729e-11
3.21634e-11
4.54882e-12
1.68559e-13
-3.58273e-14
-4.35698e-13
-6.8567e-13
-7.69641e-13
-7.40919e-13
-6.40174e-13
-5.07764e-13
-3.79237e-13
-2.72868e-13
-1.92928e-13
-1.33115e-13
-8.89746e-14
-5.785e-14
-3.7063e-14
-2.33489e-14
-1.42451e-14
2.76484e-07
2.50636e-07
2.82825e-11
4.9186e-11
4.98263e-11
6.54755e-12
1.09159e-12
6.63694e-13
1.426e-13
-1.46612e-13
-3.01076e-13
-3.6805e-13
-3.58442e-13
-3.01492e-13
-2.30888e-13
-1.66663e-13
-1.15681e-13
-7.66451e-14
-4.85089e-14
-2.95807e-14
-1.7767e-14
-1.06569e-14
-6.37471e-15
2.60598e-07
4.86537e-08
2.82837e-11
1.12817e-10
8.41621e-11
1.18075e-11
4.38776e-12
3.71068e-12
2.61571e-12
1.37256e-12
4.83174e-13
1.7521e-15
-1.15966e-13
-1.41458e-13
-1.18991e-13
-8.71118e-14
-6.02235e-14
-3.88175e-14
-2.34648e-14
-1.34353e-14
-7.47482e-15
-4.1568e-15
-2.36097e-15
3.76221e-08
8.20516e-11
8.52132e-11
2.03067e-10
1.23978e-10
2.17611e-11
1.19032e-11
1.08978e-11
8.63813e-12
5.61671e-12
2.83843e-12
1.00255e-12
1.4146e-13
-3.81042e-14
-5.23761e-14
-4.02038e-14
-2.81586e-14
-1.78517e-14
-1.03904e-14
-5.62199e-15
-2.89698e-15
-1.47567e-15
-7.65926e-16
7.69927e-11
8.18479e-11
1.76144e-10
2.21288e-10
1.3577e-10
3.56549e-11
2.44008e-11
2.26663e-11
1.84735e-11
1.29259e-11
7.05357e-12
2.72329e-12
6.0073e-13
1.98367e-14
-1.86043e-14
-1.67145e-14
-1.20836e-14
-7.59705e-15
-4.27656e-15
-2.19606e-15
-1.05523e-15
-4.98055e-16
-2.39885e-16
7.68701e-11
8.19455e-11
1.9324e-10
2.17692e-10
1.29424e-10
4.89172e-11
3.97405e-11
3.72899e-11
3.05571e-11
2.21843e-11
1.25372e-11
4.77515e-12
9.32008e-13
5.05923e-14
-3.75986e-15
-6.32483e-15
-4.83816e-15
-3.03084e-15
-1.65252e-15
-8.06578e-16
-3.65905e-16
-1.65432e-16
-7.68199e-17
7.6869e-11
7.52903e-11
1.61915e-10
1.62628e-10
9.79039e-11
5.31672e-11
5.07157e-11
5.0157e-11
4.23765e-11
3.12044e-11
1.78828e-11
6.38565e-12
1.00961e-12
4.7413e-14
-1.07809e-16
-2.22524e-15
-1.83529e-15
-1.14523e-15
-6.03431e-16
-2.80719e-16
-1.2095e-16
-5.20908e-17
-2.33058e-17
9.09839e-11
5.56569e-11
7.39099e-11
5.75557e-11
5.7456e-11
5.27535e-11
5.3087e-11
5.4478e-11
4.96991e-11
3.74269e-11
2.11977e-11
6.93067e-12
9.57071e-13
3.17406e-14
4.1545e-17
-7.62229e-16
-6.70258e-16
-4.14078e-16
-2.09819e-16
-9.27254e-17
-3.77512e-17
-1.54814e-17
-6.67567e-18
2.7295e-10
5.11715e-11
5.11525e-11
5.11431e-11
5.11364e-11
5.11355e-11
5.22606e-11
5.46052e-11
5.13233e-11
3.92911e-11
2.18232e-11
6.80609e-12
7.53104e-13
1.39869e-14
2.02264e-17
-2.6152e-16
-2.3909e-16
-1.44532e-16
-6.98153e-17
-2.90587e-17
-1.10444e-17
-4.27732e-18
-1.74508e-18
5.04805e-10
5.11827e-11
5.11791e-11
2.63579e-08
5.11359e-11
5.11359e-11
5.11355e-11
5.43132e-11
5.11479e-11
3.91551e-11
2.13144e-11
5.94272e-12
4.57876e-13
4.47636e-15
3.56081e-18
-9.15532e-17
-8.41958e-17
-4.89858e-17
-2.22571e-17
-8.58376e-18
-2.98228e-18
-1.07267e-18
-4.06932e-19
5.04535e-10
4.73579e-08
4.57101e-07
7.8612e-07
1.49568e-07
3.18507e-09
5.11212e-11
5.27893e-11
4.98529e-11
3.75748e-11
1.89526e-11
4.21806e-12
2.07964e-13
1.08008e-15
3.46738e-19
-3.30306e-17
-2.94279e-17
-1.61357e-17
-6.77154e-18
-2.36561e-18
-7.3396e-19
-2.40426e-19
-8.31291e-20
5.04693e-10
1.39352e-07
8.2606e-07
8.26098e-07
7.57127e-07
2.98485e-08
4.938e-11
4.93793e-11
4.66612e-11
3.33769e-11
1.44567e-11
2.311e-12
6.65526e-14
1.71686e-16
1.48845e-20
-1.23661e-17
-1.0212e-17
-5.14871e-18
-1.9525e-18
-6.0177e-19
-1.61902e-19
-4.70662e-20
-1.45354e-20
5.04929e-10
9.20444e-08
8.26093e-07
8.26087e-07
6.20839e-07
1.86247e-08
4.67797e-11
4.67745e-11
4.17538e-11
2.6609e-11
9.06275e-12
9.21036e-13
1.33803e-14
1.44372e-17
-6.5958e-19
-4.82702e-18
-3.50687e-18
-1.58495e-18
-5.30236e-19
-1.40079e-19
-3.15417e-20
-7.87588e-21
-2.11926e-21
8.45856e-10
1.43318e-08
3.22352e-07
6.08287e-07
1.30728e-07
2.20462e-09
4.83952e-11
4.51506e-11
3.47693e-11
1.82352e-11
4.35748e-12
2.38429e-13
1.42987e-15
5.77661e-19
-1.00932e-18
-1.91367e-18
-1.18687e-18
-4.70192e-19
-1.3543e-19
-2.97587e-20
-5.38619e-21
-1.10546e-21
-2.50363e-22
1.99504e-09
1.50381e-09
8.30697e-10
1.84336e-08
5.99541e-10
1.34109e-10
6.83801e-11
4.36569e-11
2.56784e-11
9.91755e-12
1.40268e-12
3.32123e-14
6.68419e-17
6.76682e-21
-6.45203e-19
-7.53155e-19
-3.95989e-19
-1.3501e-19
-3.27223e-20
-5.80587e-21
-8.06676e-22
-1.28036e-22
-2.31884e-23
2.01658e-09
1.57052e-09
6.61928e-10
2.38911e-10
1.34895e-10
1.34881e-10
8.13116e-11
3.87185e-11
1.57563e-11
3.71836e-12
2.41961e-13
1.92988e-15
1.11746e-18
-1.39118e-20
-3.39919e-19
-2.94266e-19
-1.30982e-19
-3.79348e-20
-7.59858e-21
-1.06256e-21
-1.0848e-22
-1.2234e-23
-1.62682e-24
4.14635e-10
1.20907e-09
9.55004e-10
5.3617e-10
2.99698e-10
1.76139e-10
7.97515e-11
2.81461e-11
6.96542e-12
7.61742e-13
1.66217e-14
3.60316e-17
5.06777e-21
-7.28338e-20
-1.68325e-19
-1.14621e-19
-4.33215e-20
-1.06018e-20
-1.73882e-21
-1.88842e-22
-1.3689e-23
-9.84183e-25
-8.28549e-26
-1.30413e-26
3.6894e-10
8.3167e-10
6.89272e-10
4.42951e-10
2.05933e-10
7.14941e-11
1.61419e-11
1.83385e-12
6.27653e-14
3.326e-16
1.88859e-19
1.98697e-24
-6.09382e-20
-8.00661e-20
-4.46328e-20
-1.44595e-20
-3.00439e-21
-4.04658e-22
-3.40485e-23
-1.70823e-24
-6.90569e-26
-2.85912e-27
-3.0601e-27
2.43995e-11
3.48221e-10
4.77883e-10
3.53881e-10
1.67928e-10
4.37146e-11
4.79978e-12
1.65288e-13
1.19273e-15
1.30287e-18
3.09559e-22
-1.26873e-20
-3.92023e-20
-3.69554e-20
-1.74157e-20
-4.91427e-21
-8.81965e-22
-9.98693e-23
-6.71343e-24
-2.42155e-25
-4.49572e-27
-5.1178e-29
0.999999
0.999999
0.999999
0.999999
0.97906
0.978526
0.978628
0.978745
0.343914
0.343986
0.343937
0.344279
0.000429308
0.000418649
0.000520192
0.000511983
0.000359635
0.00035717
0.000478063
0.00049933
0.000375763
0.000239853
0.000202242
0.000461635
0.000124607
0.000123894
0.000117972
0.00010656
1.27079e-08
4.11503e-07
1.90156e-06
2.72252e-07
4.04905e-09
2.07807e-08
2.4237e-07
6.37167e-07
3.63721e-09
3.83719e-07
1.011e-05
2.01126e-05
3.2367e-07
1.46334e-05
2.10037e-05
2.10039e-05
9.03614e-09
5.50453e-07
1.26823e-05
2.10037e-05
3.88126e-09
4.3242e-09
3.52393e-08
1.81491e-07
7.47412e-09
1.38379e-08
8.42587e-09
2.60841e-09
2.05676e-08
3.7484e-08
3.74858e-08
3.74697e-08
1.52442e-09
3.68426e-09
1.07644e-08
2.83603e-08
1.03026e-09
1.48227e-10
2.61367e-12
1.41555e-11
1.2131e-10
1.04374e-11
3.25586e-13
2.24622e-13
4.7719e-13
3.82006e-13
3.91281e-13
2.24974e-13
2.37927e-13
2.37334e-13
1.97101e-13
1.21014e-13
1.92512e-15
3.81585e-15
2.63163e-15
1.1539e-15
-1.63974e-14
-1.29392e-14
-1.02495e-14
-8.12706e-15
-1.46211e-14
-1.15939e-14
-9.29562e-15
-7.50268e-15
-8.23146e-15
-6.29739e-15
-4.8936e-15
-3.8734e-15
-3.71691e-15
-2.75143e-15
-2.03246e-15
-1.51763e-15
-1.42373e-15
-1.0401e-15
-7.49138e-16
-5.23991e-16
-4.91299e-16
-3.48739e-16
-2.48917e-16
-1.71451e-16
-1.60431e-16
-1.10019e-16
-7.55972e-17
-5.11667e-17
-5.05286e-17
-3.35428e-17
-2.21364e-17
-1.44541e-17
-1.49349e-17
-9.61728e-18
-6.12946e-18
-3.85128e-18
-4.13653e-18
-2.56288e-18
-1.56823e-18
-9.43987e-19
-1.03453e-18
-6.11272e-19
-3.56295e-19
-2.04095e-19
-2.28429e-19
-1.27463e-19
-7.00522e-20
-3.77903e-20
-4.36065e-20
-2.26898e-20
-1.16064e-20
-5.81803e-21
-7.01372e-21
-3.35024e-21
-1.56956e-21
-7.19036e-22
-9.21726e-22
-3.96097e-22
-1.66473e-22
-6.82248e-23
-9.539e-23
-3.58659e-23
-1.31467e-23
-4.68331e-24
-7.4133e-24
-2.34016e-24
-7.18017e-25
-2.13349e-25
-4.05073e-25
-1.0019e-25
-2.40774e-26
-5.59291e-27
-1.39047e-26
-2.36145e-27
-3.93268e-28
-6.36509e-29
-2.36407e-28
-2.03543e-29
-1.77545e-30
-1.55084e-31
-8.81855e-31
-1.4537e-32
-2.44201e-34
-4.40039e-36
0.999999
0.999999
0.999999
0.999999
0.998995
0.995727
0.995193
0.996863
0.996857
0.987575
0.976848
0.976846
0.976848
0.983528
0.997416
0.997424
0.993422
0.993519
0.997815
0.979665
0.977474
0.975392
0.9733
0.971595
0.970397
0.968402
0.968006
0.978499
0.98957
0.989571
0.989468
0.989212
0.988831
0.98679
0.983134
0.982308
0.976399
0.971207
0.345665
0.344796
0.344081
0.345691
0.34885
0.353452
0.35769
0.359368
0.357618
0.359066
0.365394
0.367033
0.36691
0.363562
0.357198
0.355012
0.356762
0.356742
0.358061
0.00049036
0.000603262
0.00105992
0.00107381
0.00103029
0.000763131
0.000523391
0.000385753
0.000332065
0.000303885
0.000302617
0.00030182
0.000301071
0.00030182
0.000302608
0.000303807
0.000304762
0.0003058
0.000306795
0.000466982
0.000532566
0.00104726
0.00104102
0.00102247
0.00103508
0.0010454
0.00104809
0.00104827
0.00104823
0.00102934
0.000758278
0.000300335
0.000673862
0.000796839
0.000796841
0.000796885
0.000796841
0.00068861
0.000466853
0.000392743
0.000335707
0.000350508
0.000325263
0.000254248
0.00020639
0.000186104
0.000178149
0.00013332
5.48844e-06
5.55329e-06
0.000152362
0.000196015
0.000230696
0.000270896
0.000279528
0.000271086
0.000319653
9.19091e-05
8.04811e-05
1.51371e-05
1.76679e-08
4.962e-07
8.2364e-07
1.72958e-06
1.73741e-06
1.74096e-06
1.74331e-06
5.47169e-06
8.43726e-06
2.07342e-05
3.96341e-06
5.1791e-07
5.17895e-07
5.17894e-07
5.17895e-07
8.27887e-06
1.519e-07
3.20359e-08
7.21338e-09
1.4716e-08
5.26032e-07
2.04763e-05
3.73778e-05
3.10193e-05
2.24327e-05
3.34047e-05
5.09292e-05
5.09254e-05
4.32341e-05
4.50342e-06
5.17918e-07
5.17894e-07
5.17893e-07
5.17894e-07
5.17895e-07
9.32452e-07
2.32997e-08
7.21338e-09
7.21338e-09
1.19268e-05
4.8765e-05
4.87653e-05
4.82451e-05
4.81914e-05
4.71292e-05
5.09254e-05
5.09309e-05
3.89969e-05
4.00769e-06
5.22018e-07
5.17889e-07
5.17892e-07
5.17893e-07
5.17894e-07
2.10039e-05
8.22441e-06
8.02321e-09
1.28217e-08
1.17564e-05
3.28512e-05
1.56645e-05
1.30985e-07
1.30946e-07
1.31258e-07
1.14668e-05
2.4794e-05
3.37024e-05
1.55506e-05
3.13649e-06
5.17889e-07
5.17889e-07
5.17895e-07
5.1792e-07
2.10039e-05
2.10039e-05
1.39612e-05
1.74713e-06
1.09698e-06
2.0254e-09
2.02498e-09
2.74453e-07
7.7955e-07
1.38468e-07
8.88741e-08
2.4468e-06
1.64144e-05
1.84747e-05
3.38166e-06
5.17889e-07
5.17892e-07
5.19437e-07
5.19437e-07
2.10039e-05
2.10019e-05
2.07818e-05
4.44063e-06
2.04229e-09
2.02498e-09
1.83525e-07
9.34037e-07
9.34074e-07
3.62462e-07
8.62154e-08
3.58736e-06
7.26353e-06
1.30006e-05
6.49724e-07
5.17894e-07
5.17893e-07
5.17896e-07
5.18242e-07
4.70923e-06
1.05555e-05
3.19689e-06
2.05582e-09
2.05772e-09
5.77462e-09
6.50457e-08
9.06928e-08
7.53068e-08
2.48851e-10
2.48829e-10
2.5121e-10
1.28924e-06
9.76253e-06
9.76665e-06
5.81905e-06
5.17894e-07
5.17897e-07
5.17899e-07
2.06964e-09
2.06044e-09
2.05582e-09
2.05582e-09
3.83158e-09
5.62801e-09
9.48698e-10
2.48673e-10
2.48701e-10
2.4869e-10
2.49502e-10
2.55982e-10
3.16748e-06
9.49866e-06
9.76426e-06
9.75852e-06
5.3247e-06
5.17899e-07
5.179e-07
4.2321e-08
5.33465e-08
3.66e-08
2.12444e-09
1.48206e-09
1.44309e-09
8.67415e-10
3.65672e-10
2.48674e-10
5.72165e-10
8.44979e-10
7.47636e-10
7.2555e-11
2.43885e-07
2.51454e-06
2.21043e-06
2.20957e-06
3.64233e-06
5.60506e-06
1.49883e-07
2.4363e-07
2.4363e-07
1.03534e-07
9.49133e-09
2.40748e-10
3.20831e-10
7.65783e-10
1.55224e-09
7.63273e-10
8.196e-10
6.53408e-10
7.22307e-11
4.31417e-11
4.31208e-11
6.15952e-11
5.14212e-06
1.26248e-05
1.26253e-05
7.42891e-08
2.4363e-07
2.43619e-07
2.43607e-07
1.60692e-07
2.40748e-10
2.76618e-09
2.77003e-08
3.86777e-08
8.81423e-09
4.77225e-11
4.77106e-11
5.04229e-11
4.31211e-11
4.37377e-11
4.54817e-07
1.0043e-05
1.26253e-05
1.23226e-05
3.23956e-14
3.76503e-08
2.07564e-07
2.43559e-07
2.12014e-07
8.68158e-09
5.41051e-09
6.26479e-08
6.52534e-08
5.54206e-08
7.91233e-10
4.69461e-11
7.47792e-11
7.65091e-11
8.94879e-11
1.85745e-08
2.5052e-06
5.59538e-06
1.00432e-06
3.2345e-14
5.72505e-34
6.47022e-11
3.82696e-08
2.69419e-08
3.74766e-09
1.08995e-08
6.19974e-08
6.52534e-08
6.52479e-08
1.71295e-08
4.69428e-11
4.69428e-11
5.70221e-11
2.91845e-10
4.31895e-09
1.11177e-12
1.11177e-12
1.11177e-12
5.17582e-14
-3.56234e-18
-7.68243e-17
0
1.18896e-19
1.88557e-16
7.97615e-10
1.36948e-08
3.67684e-08
2.32021e-08
1.8181e-09
6.02177e-11
4.74271e-11
2.21257e-11
6.68506e-12
1.11179e-12
1.11177e-12
1.11177e-12
1.11177e-12
-2.28254e-16
-5.91382e-16
-4.79963e-16
-8.03334e-17
5.98097e-16
5.98108e-16
6.02537e-16
6.16238e-16
6.46227e-16
7.0942e-16
8.08907e-16
1.46239e-11
6.75263e-11
7.65195e-12
2.05119e-12
1.33106e-12
1.12492e-12
1.11177e-12
1.11178e-12
-6.44701e-15
-3.39046e-15
-1.66679e-15
-2.35041e-16
2.2212e-15
1.72999e-14
3.70375e-14
7.11816e-14
1.31256e-13
1.71994e-13
2.19533e-13
6.50095e-13
1.27049e-12
7.85601e-13
4.53541e-13
8.01528e-13
1.31756e-12
1.11178e-12
2.53457e-09
-6.02855e-15
-3.49643e-15
-1.98512e-15
-1.06924e-15
-4.76496e-16
-1.2326e-35
1.18966e-15
3.08486e-14
1.32471e-13
1.8577e-13
2.15263e-13
4.97034e-13
6.72272e-13
2.22073e-13
1.01596e-13
5.62258e-13
1.79366e-12
1.11181e-12
1.18419e-06
-3.08304e-15
-1.83134e-15
-1.07759e-15
-6.27348e-16
-3.57843e-16
-1.95037e-16
-8.91675e-17
-9.17801e-19
7.21931e-16
6.35001e-15
1.23798e-14
2.52366e-14
8.37697e-14
3.31015e-14
3.08706e-14
4.98305e-13
2.23525e-12
1.11271e-12
2.20167e-06
-1.14994e-15
-6.6848e-16
-3.87862e-16
-2.24463e-16
-1.29509e-16
-7.54633e-17
-4.32625e-17
-2.22495e-17
-3.80903e-18
1.44911e-17
9.34469e-17
2.94667e-16
8.26796e-16
2.58713e-15
1.45212e-14
4.89229e-13
2.42821e-12
1.11307e-12
2.2017e-06
-3.49737e-16
-1.95833e-16
-1.09124e-16
-6.1195e-17
-3.48312e-17
-2.00113e-17
-1.13565e-17
-6.02965e-18
-2.28529e-18
1.10288e-18
1.37773e-17
6.79709e-17
3.4298e-16
1.70329e-15
1.27925e-14
4.96462e-13
2.45542e-12
1.1133e-12
2.20163e-06
-9.36263e-17
-4.94233e-17
-2.65644e-17
-1.4527e-17
-7.99977e-18
-4.3288e-18
-2.13298e-18
-7.37265e-19
1.7065e-20
2.33236e-18
1.25483e-17
6.04575e-17
3.11132e-16
1.58845e-15
1.25847e-14
4.82308e-13
2.45475e-12
1.11367e-12
1.9968e-06
-2.43602e-17
-1.1686e-17
-5.7637e-18
-2.90768e-18
-1.44212e-18
-5.58376e-19
4.09155e-20
1.17123e-18
6.92684e-18
2.37892e-17
5.47333e-17
1.11407e-16
3.61587e-16
1.78282e-15
1.89073e-14
4.7562e-13
2.52494e-12
1.11401e-12
1.20289e-07
-6.19333e-18
-2.64484e-18
-1.155e-18
-5.06516e-19
-1.16101e-19
3.67254e-19
3.82153e-18
2.13602e-17
8.32607e-17
2.41637e-16
5.11092e-16
9.63537e-16
2.52435e-15
1.19284e-14
8.85411e-14
6.04599e-13
3.0501e-12
1.1743e-12
1.17478e-12
-1.52705e-18
-5.90795e-19
-2.28282e-19
-7.33757e-20
2.11655e-19
4.0358e-18
2.79002e-17
1.36547e-16
5.18768e-16
1.59269e-15
4.17961e-15
1.30771e-14
4.91524e-14
1.96273e-13
6.29468e-13
1.73178e-12
4.05711e-12
1.17478e-12
5.2281e-07
-3.48639e-19
-1.24072e-19
-4.26182e-20
6.50488e-21
9.59183e-19
1.42364e-17
1.27177e-16
6.76925e-16
2.95003e-15
1.21235e-14
5.91296e-14
3.02539e-13
1.06085e-12
2.67419e-12
4.14095e-12
6.00897e-12
6.63824e-12
1.17816e-12
2.34482e-06
-6.98788e-20
-2.29176e-20
-6.56317e-21
4.73099e-20
1.79192e-18
3.68387e-17
4.63457e-16
3.24477e-15
2.05414e-14
1.27468e-13
8.21956e-13
3.80908e-12
1.04045e-11
1.82579e-11
1.88341e-11
1.84226e-11
1.59805e-11
1.18001e-12
2.34485e-06
-1.18426e-20
-3.53915e-21
-4.3571e-22
5.48272e-20
2.64775e-18
6.94695e-17
1.2283e-15
1.38763e-14
1.25885e-13
8.90827e-13
5.03046e-12
1.86014e-11
4.10647e-11
5.63912e-11
5.33443e-11
4.43627e-11
4.39691e-11
1.18245e-12
2.34008e-06
-1.64076e-21
-4.37691e-22
2.66953e-22
5.56817e-20
3.11824e-18
9.61063e-17
2.25833e-15
4.13138e-14
4.36627e-13
2.96364e-12
1.37306e-11
4.25479e-11
8.04285e-11
9.37226e-11
9.62156e-11
8.71186e-11
1.0389e-10
1.19127e-12
2.34005e-06
-1.78833e-22
-4.09994e-23
2.12038e-22
4.14982e-20
3.19443e-18
1.05767e-16
2.98828e-15
7.74697e-14
8.40383e-13
5.29462e-12
2.10803e-11
5.88709e-11
9.94957e-11
1.06404e-10
1.20535e-10
1.98617e-10
2.59541e-10
1.21486e-12
2.33989e-06
-1.46006e-23
-2.54156e-24
8.5922e-23
1.93726e-20
2.37937e-18
9.88654e-17
3.18802e-15
9.92111e-14
1.06057e-12
6.29872e-12
2.334e-11
6.25024e-11
9.92278e-11
9.6909e-11
1.18465e-10
1.10267e-09
1.21351e-09
1.28091e-12
1.79622e-06
-8.35553e-25
-3.58078e-26
3.19163e-23
7.4217e-21
1.01726e-18
5.07971e-17
2.52435e-15
1.02128e-13
1.07497e-12
6.10865e-12
2.02177e-11
4.15881e-11
7.56487e-11
4.51707e-11
4.63281e-11
4.18115e-09
4.553e-09
1.59806e-12
4.81599e-07
-3.03837e-26
2.44834e-26
7.9955e-24
2.32948e-21
3.31424e-19
1.55206e-17
9.34792e-16
6.44116e-14
6.33732e-13
3.10418e-12
8.33453e-12
1.32832e-11
2.54549e-11
8.49479e-12
8.50093e-12
6.43754e-09
6.62865e-09
2.89648e-12
5.48193e-07
-5.95323e-28
3.87444e-27
1.20341e-24
4.84849e-22
8.05797e-20
3.56247e-18
1.96527e-16
1.76218e-14
1.62815e-13
7.21381e-13
1.69906e-12
2.59356e-12
4.48861e-12
1.37471e-13
2.09232e-11
5.24104e-09
6.40012e-09
1.82271e-09
8.77852e-07
-4.49548e-30
3.10271e-28
9.5509e-26
5.70267e-23
1.12812e-20
5.40522e-19
2.6364e-17
2.55484e-15
2.22876e-14
9.13577e-14
1.96868e-13
2.9676e-13
4.61163e-13
9.04997e-16
6.45947e-11
9.22985e-10
2.54451e-09
1.64957e-14
8.77812e-07
-5.89194e-33
1.8529e-32
1.70245e-27
3.16653e-24
6.5702e-22
3.56955e-20
1.81827e-18
1.70668e-16
1.39967e-15
5.31265e-15
1.07561e-14
1.6078e-14
2.16508e-14
9.04693e-16
8.52174e-12
5.57264e-12
5.72873e-11
5.02609e-26
8.61946e-07
-3.69575e-38
-3.32717e-40
2.85879e-35
5.22862e-30
1.23344e-26
3.85477e-24
8.87973e-22
8.56158e-20
5.1721e-19
1.80835e-18
3.5599e-18
4.98117e-18
2.13497e-18
4.49768e-20
1.26686e-14
-3.9443e-34
-4.81482e-38
1.21233e-55
7.75999e-07
)
;

boundaryField
{
    leftWall
    {
        type            zeroGradient;
    }
    rightWall
    {
        type            zeroGradient;
    }
    lowerWall
    {
        type            zeroGradient;
    }
    atmosphere
    {
        type            inletOutlet;
        inletValue      uniform 0;
        value           nonuniform List<scalar> 
46
(
0
2.43995e-11
3.48221e-10
4.77883e-10
3.53881e-10
1.67928e-10
4.37146e-11
4.79978e-12
1.65288e-13
1.19273e-15
1.30287e-18
3.09559e-22
-1.26873e-20
-3.92023e-20
-3.69554e-20
-1.74157e-20
-4.91427e-21
-8.81965e-22
-9.98693e-23
-6.71343e-24
-2.42155e-25
0
0
0
0
0
0
0
0
0
0
0
0
0
0
0
0
0
0
0
0
0
0
0
0
7.75999e-07
)
;
    }
    defaultFaces
    {
        type            empty;
    }
}


// ************************************************************************* //
