/*--------------------------------*- C++ -*----------------------------------*\
  =========                 |
  \\      /  F ield         | OpenFOAM: The Open Source CFD Toolbox
   \\    /   O peration     | Website:  https://openfoam.org
    \\  /    A nd           | Version:  9
     \\/     M anipulation  |
\*---------------------------------------------------------------------------*/
FoamFile
{
    format      ascii;
    class       volScalarField;
    location    "8.06";
    object      p_rgh;
}
// * * * * * * * * * * * * * * * * * * * * * * * * * * * * * * * * * * * * * //

dimensions      [1 -1 -2 0 0 0 0];

internalField   nonuniform List<scalar> 
2268
(
762.273
762.339
762.4
762.447
762.475
762.481
762.462
762.418
762.347
762.252
762.135
761.999
761.844
761.671
761.478
761.276
761.09
760.96
760.841
760.77
760.889
761.014
761.115
762.255
762.313
762.37
762.414
762.441
762.446
762.428
762.385
762.318
762.226
762.112
761.976
761.819
761.641
761.449
761.262
761.119
761.051
760.955
760.883
761.026
761.014
761.119
762.232
762.285
762.34
762.38
762.405
762.41
762.393
762.352
762.289
762.202
762.092
761.958
761.803
761.627
761.442
761.273
761.164
761.132
761.091
760.914
761.112
761.021
761.134
762.205
762.26
762.315
762.354
762.377
762.382
762.367
762.329
762.269
762.186
762.079
761.95
761.799
761.632
761.459
761.291
761.153
761.154
761.238
761.134
761.128
760.998
761.167
762.176
762.237
762.295
762.334
762.358
762.364
762.351
762.316
762.259
762.179
762.076
761.951
761.808
761.652
761.496
761.325
760.949
761.146
761.215
761.281
761.111
760.448
761.209
762.144
762.213
762.277
762.32
762.346
762.355
762.344
762.313
762.26
762.181
762.08
761.959
761.825
761.684
761.549
761.445
760.293
760.561
761.142
761.215
761.033
760.008
761.239
762.112
762.19
762.261
762.309
762.339
762.351
762.345
762.319
762.268
762.191
762.09
761.972
761.847
761.721
761.615
761.555
760.168
755.352
757.036
759.661
756.045
759.925
761.352
762.078
762.163
762.242
762.297
762.332
762.348
762.348
762.329
762.283
762.206
762.105
761.989
761.874
761.764
761.693
761.684
761.089
754.899
754.693
754.442
754.612
760.466
761.481
760.781
760.981
761.175
761.24
761.235
761.119
760.934
760.827
760.703
760.538
760.407
760.28
760.308
760.661
760.701
760.767
760.744
760.686
760.662
760.462
760.873
761.125
761.212
761.229
761.21
761.188
761.083
760.971
760.92
760.734
760.359
760.332
760.703
760.694
760.728
760.698
760.601
760.588
760.179
760.709
761.153
761.199
761.217
761.201
761.172
761.084
760.985
760.986
761.133
760.897
760.561
760.568
760.714
760.723
760.599
760.221
760.282
760.096
760.947
761.267
761.234
761.234
761.204
761.138
761.071
760.935
760.903
761.187
761.435
761.454
760.937
760.582
760.739
760.432
760.155
760.506
760.135
761.445
761.401
761.291
761.264
761.197
761.154
761.104
760.979
760.795
761.16
761.42
761.48
761.179
759.958
760.291
760.039
760.744
760.933
761.993
761.777
761.493
761.337
761.287
761.251
761.237
761.224
760.933
760.846
761.197
761.408
761.46
761.212
759.921
758.795
757.805
760.785
760.896
762.133
761.811
761.527
761.368
761.318
761.285
761.293
761.322
760.39
757.791
761.187
761.403
761.33
758.425
758.487
760.857
757.472
760.435
760.871
762.063
761.75
761.524
761.401
761.353
761.297
761.323
761.437
758.934
754.07
756.457
760.502
760.688
754.754
757.771
760.946
757.201
759.611
760.873
762.023
762.118
762.209
762.277
762.322
762.348
762.359
762.356
762.322
762.243
762.135
762.019
761.925
761.858
761.826
761.875
762.113
761.663
758.837
757.904
761.431
761.729
761.497
751.5
751.881
752.627
753.164
753.629
754.324
755.133
755.9
756.051
755.012
753.492
751.863
751.106
750.866
751.279
752.396
754.303
756.927
758.047
757.638
755.595
752.025
749.817
294.153
295.204
295.962
296.471
296.439
295.507
294.173
292.724
291.796
291.846
292.33
292.651
292.078
290.91
289.36
287.988
287.541
288.703
290.407
290.271
288.801
288.746
290.621
0.50143
0.512458
0.530179
0.532461
0.540942
0.597518
0.64501
0.67075
0.680736
0.688287
0.6916
0.693238
0.690353
0.741467
0.903354
1.15943
1.46958
1.32375
0.833603
0.815845
0.859223
0.864964
0.727248
0.707686
0.886743
1.26898
1.26948
1.22942
1.9925
2.47046
2.68521
2.72893
2.81689
2.84513
2.8508
2.80578
2.53116
2.3462
2.19115
1.84412
1.3281
0.80178
0.823129
0.855327
0.845228
0.655306
0.538304
0.449328
0.184836
0.197441
0.291904
0.0482488
-0.00104532
-0.00285824
-0.00250954
-0.00194909
-0.000810613
0.00116333
0.00495639
0.0333536
0.0525028
0.0617488
0.112697
0.305982
0.422929
0.432172
0.441407
0.388235
0.511132
0.0209563
0.0199511
0.0140206
0.00140968
0.000198128
0.000108217
-0.000621713
-0.00122842
-0.00113885
-0.0006803
0.000127646
0.00151745
0.0299719
0.0916173
0.0926442
0.0798197
0.0251527
0.0237157
0.0195779
0.0129159
0.0511367
0.139013
0.154081
-0.00198943
-0.0015429
-0.000403572
0.000439849
0.00161576
0.00185148
0.000587059
-0.00082838
-0.000216071
0.000648756
6.99715e-05
0.000832553
0.0535591
0.0943287
0.0862495
0.0414421
0.0257996
0.0176549
0.0107199
0.005044
0.0047306
0.00398849
0.00405558
-0.000351187
-0.000434546
-0.000183026
-0.000196033
0.000214263
0.00235377
0.00219981
0.000869946
0.000820553
0.00366008
0.00219415
0.00176485
0.00214776
-0.00181623
-0.00110782
0.0123792
0.0258291
0.00848842
0.0035374
0.0039629
0.0039756
0.00384346
0.00398864
-0.000804138
-0.000685162
-0.000461932
-0.000392415
-0.000365161
0.00196849
0.00229541
-0.000308888
0.0023872
0.00399094
0.00390637
-0.000438609
-0.000950549
-0.0009725
-0.000473954
0.000425701
0.00244532
0.00323932
0.00281423
0.00318334
0.00334073
0.00338554
0.00352898
-0.000193805
-0.000267659
-0.000226616
-0.000364225
-0.00044538
-0.000334527
-0.000100696
-0.000517999
0.00206806
0.00435262
0.00194374
-0.000615546
-0.000633857
-0.00051127
0.00056005
0.00181825
0.00212295
0.0018511
0.00229083
0.00260621
0.00276443
0.00281927
0.00283684
-0.000104916
-1.85286e-05
-6.84154e-05
-0.000292107
-0.000385586
-0.000453174
-0.00049334
-0.000501203
0.00225891
0.00426021
-0.000589642
-0.000505926
-0.000437546
-0.000283882
0.0021684
0.0118026
0.0123189
0.00504069
0.00187651
0.00207433
0.00221348
0.00222658
0.00211835
-4.13563e-05
5.98979e-05
1.65578e-06
-0.000227602
-0.000322174
-0.000370366
-4.29228e-05
0.00251437
0.00264382
0.000907536
-0.000487122
-0.000406666
-0.000322698
-0.000196686
0.00289235
0.0122066
0.0126356
0.0130903
0.00486251
0.00160777
0.00171364
0.00171745
0.00158645
3.42034e-06
-1.48115e-05
4.00149e-05
-0.00018933
-0.000264541
-0.000298551
0.00173858
0.00313568
0.00285359
-0.000455589
-0.000395543
-0.000325086
-0.000248953
-0.000157856
-3.82492e-05
0.00278702
0.0121796
0.0130723
0.00246783
0.0012058
0.00132805
0.00135213
0.00123743
2.20006e-05
-4.13786e-05
-7.64369e-05
-0.000153685
-0.000210186
-0.000254142
0.00192432
0.00335045
0.00129846
-0.000372129
-0.000317272
-0.000257033
-0.000191325
-0.00011806
-4.71003e-05
5.49413e-05
0.000693084
0.00132945
0.000807484
0.000905965
0.00103932
0.00106117
0.000979417
5.21079e-05
1.90133e-05
-4.26733e-05
-0.000101646
-0.000155959
-0.000184014
0.000459259
0.00101308
-0.000324084
-0.000297337
-0.000249654
-0.000198491
-0.000142289
-7.89278e-05
-1.31069e-05
5.43451e-05
0.000150335
0.000312288
0.000523325
0.000705601
0.000812891
0.000830848
0.000760618
0.000108576
8.63937e-05
3.96712e-06
-5.28138e-05
-9.89955e-05
-0.000126627
-0.000217081
-0.000255482
-0.000250152
-0.000224447
-0.000189152
-0.000147863
-0.000100209
-4.53787e-05
1.46456e-05
8.12394e-05
0.000167234
0.000285784
0.000423257
0.00053764
0.000606872
0.000625818
0.000602582
0.000721804
0.00066189
3.49816e-05
-1.32061e-05
-5.19665e-05
-8.4383e-05
-0.000145794
-0.000172238
-0.000175065
-0.000160481
-0.000135697
-0.000103251
-6.36499e-05
-1.74148e-05
3.47599e-05
9.38657e-05
0.000164922
0.000251907
0.000345525
0.000423002
0.000472255
0.000490569
0.000479777
0.000903246
0.000734779
5.85358e-05
1.79091e-05
-1.64792e-05
-5.60294e-05
-8.94805e-05
-0.000109468
-0.000114206
-0.000106167
-8.86882e-05
-6.34724e-05
-3.15079e-05
6.49541e-06
5.01069e-05
9.96014e-05
0.000156449
0.000220769
0.000286336
0.000341196
0.000377574
0.000392782
0.000387669
0.000934373
0.000380344
7.73289e-05
4.16556e-05
1.01281e-05
-2.10712e-05
-4.46756e-05
-6.01684e-05
-6.52387e-05
-6.07173e-05
-4.81898e-05
-2.88205e-05
-3.47729e-06
2.71722e-05
6.26215e-05
0.000102626
0.000147114
0.000194896
0.000241732
0.00028096
0.000307631
0.00031965
0.000317398
0.00100281
0.000127879
8.57309e-05
5.85648e-05
3.22391e-05
9.14045e-06
-9.08184e-06
-2.11853e-05
-2.58596e-05
-2.32715e-05
-1.4195e-05
6.11102e-07
2.04779e-05
4.4806e-05
7.30306e-05
0.000104611
0.000138874
0.000174372
0.000208169
0.000236291
0.000255563
0.000264459
0.000263116
0.00103232
0.000252989
9.61591e-05
7.20828e-05
5.09666e-05
3.31573e-05
1.91403e-05
9.77226e-06
5.81918e-06
7.3395e-06
1.39768e-05
2.52529e-05
4.06641e-05
5.96896e-05
8.17651e-05
0.000106245
0.000132285
0.000158551
0.000182966
0.000203011
0.000216596
0.00022262
0.000221088
0.00106587
0.000964334
0.000100179
8.11521e-05
6.52107e-05
5.19427e-05
4.15662e-05
3.45767e-05
3.14859e-05
3.24587e-05
3.73678e-05
4.59296e-05
5.77735e-05
7.24591e-05
8.94625e-05
0.000108145
0.000127687
0.000146961
0.000164467
0.00017852
0.000187689
0.000191163
0.000188865
0.0010979
0.00104436
9.73309e-05
8.62447e-05
7.57552e-05
6.67951e-05
5.96944e-05
5.48338e-05
5.26592e-05
5.34116e-05
5.71106e-05
6.3613e-05
7.26561e-05
8.38768e-05
9.68105e-05
0.000110876
0.000125345
0.000139299
0.000151628
0.000161146
0.000166828
0.000168048
0.000164676
0.00108406
0.000999268
0.000101083
9.1396e-05
8.47314e-05
7.93176e-05
7.49901e-05
7.19506e-05
7.06303e-05
7.13352e-05
7.41867e-05
7.91432e-05
8.60266e-05
9.45417e-05
0.000104284
0.000114742
0.000125289
0.000135179
0.000143565
0.000149571
0.000152426
0.00015162
0.000146986
0.00104731
0.000285384
0.0001015
9.62133e-05
9.33201e-05
9.08523e-05
8.87199e-05
8.70846e-05
8.642e-05
8.70953e-05
8.93078e-05
9.30865e-05
9.83131e-05
0.000104743
0.000112021
0.000119695
0.000127224
0.000133989
0.000139319
0.000142534
0.000143023
0.000140349
0.000134327
0.000256717
9.53982e-05
0.000100684
0.000102194
0.000102872
0.000102599
0.000101921
0.000101126
0.000100773
0.000101289
0.000102923
0.000105745
0.000109672
0.000114488
0.000119869
0.000125403
0.000130605
0.000134944
0.00013786
0.000138797
0.000137247
0.000132822
0.000125334
0.00013917
8.92675e-05
0.000105577
0.000111633
0.00011456
0.000115441
0.00011531
0.000114672
0.000114169
0.00011428
0.000115272
0.000117233
0.000120089
0.000123628
0.000127534
0.00013141
0.000134805
0.000137237
0.00013821
0.000137246
0.000133901
0.000127827
0.000118843
0.000124591
0.000110629
0.000120575
0.000125784
0.000128956
0.000129768
0.000129231
0.000128021
0.00012685
0.000126239
0.000126451
0.000127561
0.000129477
0.00013197
0.000134708
0.000137288
0.000139267
0.00014018
0.000139567
0.00013699
0.00013205
0.000124426
0.000113959
0.000112519
0.00012922
0.000136549
0.000142284
0.00014561
0.000145621
0.000143759
0.000141207
0.000138835
0.000137171
0.000136443
0.000136675
0.000137735
0.000139351
0.000141152
0.000142716
0.000143582
0.000143283
0.000141365
0.00013741
0.000131043
0.000121972
0.000110067
0.000146249
0.000114587
0.000144278
0.000159998
0.000164875
0.000162977
0.000158639
0.000153962
0.000149906
0.000146915
0.000145125
0.000144472
0.000144758
0.000145643
0.000146707
0.000147487
0.000147497
0.000146245
0.000143264
0.000138133
0.000130489
0.000120067
0.00010678
0.000148653
0.000124427
0.00016401
0.000185936
0.000188695
0.00018177
0.000173303
0.000165706
0.000159594
0.000155133
0.000152265
0.000150795
0.000150424
0.000150739
0.000151261
0.000151484
0.00015088
0.000148918
0.000145099
0.000138979
0.000130194
0.000118501
0.000103873
0.000114987
0.000162034
0.000199616
0.000344365
0.000217064
0.000200066
0.000185984
0.000175223
0.000167109
0.000161315
0.000157536
0.000155423
0.00015458
0.000154522
0.000154719
0.000154622
0.000153654
0.000151235
0.000146813
0.000139896
0.000130093
0.00011718
0.000101219
0.000126243
0.000388304
0.00235005
0.00390819
0.000935185
0.000226203
0.00019317
0.000180577
0.000171375
0.00016484
0.000160554
0.000158105
0.000157048
0.000156853
0.000156967
0.000156808
0.000155754
0.000153162
0.000148404
0.000140905
0.000130206
0.000116079
9.87265e-05
0.000153445
0.00084088
0.00417675
0.00418699
0.0038529
0.000350555
0.000192276
0.000180577
0.000171713
0.000165297
0.000161048
0.000158639
0.000157654
0.000157575
0.00015786
0.000157914
0.000157081
0.00015465
0.000149886
0.000142076
0.000130617
0.000115217
9.63029e-05
0.000162585
0.00067225
0.00428904
0.00428006
0.00325097
0.000286499
0.00018599
0.000176434
0.00016862
0.000162845
0.000159022
0.000156952
0.000156276
0.000156534
0.000157223
0.000157765
0.000157486
0.000155612
0.000151271
0.000143536
0.00013151
0.000114673
9.38259e-05
0.000177625
0.000358861
0.00188232
0.00328562
0.000853756
0.000199449
0.000179397
0.000170333
0.000163112
0.000157916
0.000154626
0.000153039
0.000152816
0.000153561
0.00015483
0.000156095
0.000156706
0.00015585
0.000152507
0.000145437
0.000133194
0.000114603
9.11114e-05
0.000268124
0.000359055
0.000303162
0.000336563
0.000209573
0.000187266
0.000172714
0.000162324
0.000155097
0.000150344
0.000147625
0.000146587
0.000146879
0.000148166
0.000150089
0.000152219
0.000154
0.000154647
0.000153039
0.000147569
0.00013586
0.000115069
8.77454e-05
0.000458786
0.000441589
0.000343067
0.000261115
0.000209035
0.000178969
0.000160882
0.000149847
0.00014311
0.000139169
0.000137239
0.000136841
0.000137655
0.000139432
0.000141937
0.000144905
0.000147965
0.000150501
0.000151481
0.000149163
0.000139791
0.00011593
8.2618e-05
0.000586071
0.000515213
0.000353454
0.00025071
0.000190501
0.000158643
0.000142486
0.000134099
0.000129638
0.000127426
0.000126694
0.000127065
0.000128355
0.000130458
0.000133313
0.000136881
0.000141078
0.000145645
0.00015018
0.000154099
0.000151937
0.000120676
7.42098e-05
0.000714716
0.000486751
0.000309935
0.000215626
0.000161852
0.000139803
0.00013339
0.000131706
0.000131329
0.000131509
0.0001321
0.000133107
0.000134592
0.000136644
0.000139403
0.000143088
0.000147976
0.000154361
0.000163399
0.000179008
0.000196721
0.000147279
6.41775e-05
0.000590381
3.95205e-05
0.00013393
0.000124931
0.000116852
0.0001183
0.000122831
0.000125942
0.000127489
0.00012823
0.000128672
0.000129088
0.000129661
0.000130563
0.000132015
0.00013435
0.000138039
0.000143803
0.000154163
0.000178148
0.000223473
0.000195775
5.78533e-05
761.469
761.484
761.491
761.452
749.204
748.859
748.917
749.001
291.151
291.221
291.191
291.473
0.547857
0.535163
0.633796
0.632473
0.46261
0.458542
0.583654
0.608547
0.478757
0.322231
0.27836
0.578152
0.172258
0.172804
0.165092
0.148607
0.00489045
0.00593819
0.00825988
0.00594762
0.00452071
0.00491013
0.0055782
0.00641054
0.00390897
0.00485587
0.0212558
0.0380354
0.00348083
0.0290715
0.0405024
0.0405364
0.00190159
0.00270307
0.0256788
0.0414723
0.00132318
0.00109744
0.000861838
0.000902751
0.00104935
0.000915564
0.000737544
0.000549369
0.000884882
0.000834839
0.00073766
0.000634256
0.000683144
0.000634938
0.000595743
0.000578756
0.000554211
0.000520024
0.000486995
0.000452258
0.000449897
0.000430477
0.00041164
0.000391656
0.000368978
0.000357369
0.000346531
0.000335245
0.000305172
0.000297806
0.000291321
0.00028472
0.000254449
0.000249362
0.000245072
0.00024078
0.000214237
0.000210266
0.000206925
0.000203561
0.00018279
0.000179215
0.000176074
0.000172815
0.000158724
0.000155068
0.000151638
0.000147963
0.000140712
0.000136645
0.000132601
0.000128176
0.000127417
0.000122728
0.000117869
0.000112502
0.000117574
0.000112149
0.000106382
9.99995e-05
0.000110109
0.00010391
9.72292e-05
8.98511e-05
0.0001042
9.72459e-05
8.97041e-05
8.14098e-05
9.92811e-05
9.16189e-05
8.33007e-05
7.41999e-05
9.49926e-05
8.66787e-05
7.76752e-05
6.78827e-05
9.11168e-05
8.22003e-05
7.25925e-05
6.22111e-05
8.75102e-05
7.80221e-05
6.78707e-05
5.69836e-05
8.40484e-05
7.39944e-05
6.33357e-05
5.20066e-05
8.05836e-05
6.99386e-05
5.87853e-05
4.70657e-05
7.69073e-05
6.56105e-05
5.39583e-05
4.1905e-05
7.27077e-05
6.06597e-05
4.85047e-05
3.62126e-05
6.74789e-05
5.45763e-05
4.19617e-05
2.96251e-05
6.02401e-05
4.65724e-05
3.37492e-05
2.17897e-05
4.91721e-05
3.54666e-05
2.33365e-05
1.26565e-05
3.21139e-05
1.93593e-05
9.99159e-06
2.63554e-06
2.41288e-05
1.24828e-05
4.25014e-06
-1.5013e-06
761.885
761.597
761.505
761.461
760.951
759.283
759.087
760.169
760.697
756.345
750.753
750.717
750.759
754.334
761.522
761.076
759.048
758.393
760.63
749.75
748.141
746.743
745.45
744.532
744.037
742.951
742.827
749.969
757.73
758.111
758.095
757.836
757.375
755.488
752.794
752.388
748.228
744.753
292.606
291.907
291.408
292.778
295.416
299.221
302.723
304.102
302.629
303.786
308.962
310.288
310.15
307.4
302.169
300.376
301.845
301.853
302.942
0.616208
0.734849
1.21668
1.23781
1.18698
0.919109
0.678446
0.541741
0.49055
0.452445
0.422417
0.386629
0.352556
0.392077
0.424422
0.434957
0.43424
0.437468
0.426049
0.579136
0.649535
1.18925
1.18545
1.16451
1.17434
1.18192
1.18187
1.17936
1.17487
1.14694
0.858138
0.38211
0.774075
0.906772
0.910089
0.910948
0.909894
0.798186
0.584096
0.495747
0.420466
0.436608
0.405571
0.321449
0.264104
0.238697
0.227414
0.172678
0.0219248
0.0224081
0.195189
0.245339
0.286019
0.333665
0.344347
0.335311
0.392988
0.128136
0.114107
0.0280292
0.00826448
0.00938135
0.0117316
0.0138059
0.0137297
0.0133378
0.0139061
0.0206782
0.0251954
0.0396935
0.0125718
0.00542142
0.00421166
0.00402279
0.00443069
0.0144945
0.00557504
0.00601638
0.00662064
0.00713979
0.00865652
0.0381847
0.0621302
0.0531505
0.0410376
0.0566047
0.0819329
0.081977
0.0695704
0.0123038
0.00495941
0.00403364
0.00371812
0.00381643
0.00372371
0.00706679
0.00587428
0.00587704
0.00587167
0.0242293
0.0807052
0.0798421
0.0786738
0.0786308
0.0768099
0.0828002
0.0832089
0.064848
0.0107724
0.00447796
0.00382184
0.00355829
0.00362052
0.0038546
0.0397297
0.018824
0.00510857
0.00451828
0.0230529
0.0566536
0.0274835
0.00160155
0.00156724
0.00150553
0.0202793
0.0427058
0.058335
0.0292344
0.00827572
0.00363137
0.00348306
0.00351953
0.00372812
0.0406326
0.0411233
0.0287069
0.00631236
0.00412226
0.000950749
0.00087634
0.00162667
0.0025458
0.00129582
0.000929791
0.00505746
0.03035
0.035186
0.00857575
0.00356236
0.00351203
0.00353455
0.0036207
0.0414107
0.041728
0.0415598
0.0104118
0.00159582
0.00107035
0.00128057
0.0027578
0.00274517
0.00159106
0.000938331
0.0075225
0.0146212
0.0263953
0.00364057
0.003667
0.00362543
0.00362113
0.00354152
0.0098251
0.0217707
0.00708626
0.0010833
0.0011563
0.000967613
0.000997304
0.00102728
0.000973192
0.000788719
0.000718795
0.000636573
0.00338542
0.0211548
0.0220225
0.014422
0.00375873
0.00376472
0.0035184
0.000249899
0.000147354
0.000452634
0.000800133
0.000897003
0.000836004
0.000777927
0.000753204
0.00072756
0.000696614
0.000651868
0.000618082
0.00748214
0.0213524
0.0225375
0.0231238
0.0140128
0.00391135
0.00354787
0.000476338
0.000456345
0.000555931
0.000657086
0.000724265
0.000706695
0.000680146
0.00065727
0.000630145
0.000598358
0.000560442
0.000520114
0.000464514
0.00107443
0.00665237
0.00649281
0.00713854
0.010905
0.0149098
0.000772859
0.000972347
0.00104214
0.000802736
0.000621306
0.000594344
0.000578649
0.000559607
0.00053386
0.00049707
0.000457959
0.000420487
0.000397985
0.000451548
0.000652304
0.000986448
0.013779
0.0320337
0.0315337
0.000579863
0.000988077
0.0010243
0.00108017
0.000900232
0.000492451
0.000486368
0.000529467
0.000527431
0.000413066
0.000345184
0.000298927
0.000259538
0.000249373
0.000284046
0.00144237
0.0256444
0.0320338
0.030891
0.000355176
0.00043572
0.00090004
0.00102297
0.000957697
0.000419755
0.000399224
0.000528473
0.000501673
0.000431815
0.000232049
0.000167047
9.55863e-05
1.54007e-05
-9.10689e-05
-0.000262544
0.00587977
0.0137939
0.00153535
0.000313958
0.00029854
0.000296483
0.000410968
0.000386683
0.000322392
0.000327228
0.000441399
0.000412123
0.000362433
0.000166543
4.21791e-05
-5.31285e-05
-0.000174533
-0.000342007
-0.00059003
-0.00100134
-0.00132065
-0.00115481
0.000271619
0.000259335
0.000253215
0.000251034
0.000248218
0.000239193
0.000220752
0.00022513
0.000248831
0.000154588
2.47577e-05
-6.52875e-05
-0.000171698
-0.000306086
-0.000480412
-0.000708143
-0.00097396
-0.00115659
-0.00102197
0.000231788
0.000220496
0.000211125
0.000202721
0.000192189
0.000175825
0.000149957
0.00011317
6.56203e-05
7.07147e-06
-6.47189e-05
-0.000153167
-0.000260832
-0.000391324
-0.000547274
-0.000724736
-0.000891971
-0.000976572
-0.000847065
0.000196228
0.000184544
0.000172273
0.000158921
0.000142505
0.000120447
9.01684e-05
5.02456e-05
8.06811e-08
-6.11453e-05
-0.000134902
-0.000223001
-0.000326396
-0.000444868
-0.000575112
-0.000703797
-0.000794887
-0.000808488
-0.000646617
0.000165656
0.000152703
0.00013767
0.000120248
9.91097e-05
7.24318e-05
3.83621e-05
-4.39405e-06
-5.6646e-05
-0.000119157
-0.000192762
-0.000278031
-0.000374353
-0.000479109
-0.00058542
-0.000676284
-0.000717496
-0.000688165
0.00337846
0.000140064
0.000125297
0.000107573
8.66599e-05
6.16191e-05
3.1139e-05
-6.13177e-06
-5.12629e-05
-0.000104999
-0.00016787
-0.000240156
-0.000321534
-0.000410362
-0.000502833
-0.000591134
-0.000659293
-0.000679346
-0.00063694
0.00703176
0.000118986
0.000102093
8.17607e-05
5.77812e-05
2.94572e-05
-4.1718e-06
-4.40963e-05
-9.11344e-05
-0.000145843
-0.000208475
-0.000278856
-0.00035607
-0.000437934
-0.000520361
-0.000596263
-0.000653321
-0.000671026
-0.000631267
0.00728908
0.000101731
8.25853e-05
5.97692e-05
3.30793e-05
1.97347e-06
-3.42645e-05
-7.63515e-05
-0.000124867
-0.000180141
-0.000242149
-0.000310348
-0.000383417
-0.0004589
-0.000532822
-0.000599345
-0.000650194
-0.000671445
-0.000637295
0.00754655
8.75623e-05
6.61881e-05
4.10685e-05
1.19996e-05
-2.14544e-05
-5.98348e-05
-0.000103649
-0.000153263
-0.000208788
-0.000269933
-0.000335835
-0.000404833
-0.000474219
-0.000540056
-0.000597333
-0.000640402
-0.000659768
-0.000629084
0.00702413
7.58066e-05
5.23484e-05
2.51607e-05
-5.95493e-06
-4.13566e-05
-8.14584e-05
-0.000126609
-0.000177001
-0.000232548
-0.000292722
-0.000356359
-0.000421432
-0.000484816
-0.000542134
-0.000587879
-0.000615581
-0.000614962
-0.000565917
4.2153e-06
6.59075e-05
4.05925e-05
1.16199e-05
-2.11955e-05
-5.81533e-05
-9.9579e-05
-0.00014571
-0.000196611
-0.000252046
-0.000311296
-0.000372931
-0.000434545
-0.000492447
-0.000541363
-0.000574031
-0.000579984
-0.000543422
-0.000454118
-0.000295479
5.74292e-05
3.05337e-05
9.63703e-08
-3.40498e-05
-7.21642e-05
-0.00011452
-0.000161292
-0.000212476
-0.000267754
-0.000326297
-0.000386507
-0.000445689
-0.000499667
-0.000542313
-0.000564603
-0.000552179
-0.000484473
-0.000361755
0.00202264
5.00366e-05
2.18588e-05
-9.6954e-06
-4.47766e-05
-8.36254e-05
-0.0001265
-0.000173568
-0.000224823
-0.000279954
-0.000338137
-0.000397758
-0.00045605
-0.000508654
-0.000549087
-0.000567688
-0.000549059
-0.00047226
-0.000342021
0.00992679
4.34642e-05
1.43094e-05
-1.79897e-05
-5.3577e-05
-9.27016e-05
-0.000135648
-0.000182631
-0.000233717
-0.000288698
-0.000346888
-0.000406838
-0.000465959
-0.000520056
-0.000562818
-0.000584966
-0.000572231
-0.000505287
-0.00038447
0.0101543
3.74862e-05
7.66509e-06
-2.49772e-05
-6.05988e-05
-9.94896e-05
-0.000142003
-0.000188453
-0.00023905
-0.000293785
-0.000352238
-0.0004133
-0.000474781
-0.000532945
-0.000581968
-0.000613119
-0.000613167
-0.000562103
-0.000445724
0.010372
3.18924e-05
1.73521e-06
-3.08036e-05
-6.59298e-05
-0.000104012
-0.00014551
-0.000190887
-0.00024055
-0.000294771
-0.000353512
-0.000416168
-0.000481177
-0.000545556
-0.000604191
-0.000648752
-0.000666475
-0.000634211
-0.000518869
0.0106102
2.64759e-05
-3.63877e-06
-3.5557e-05
-6.95828e-05
-0.000106204
-0.000146019
-0.000189665
-0.000237786
-0.000290986
-0.000349707
-0.000414008
-0.000483201
-0.000555367
-0.000626346
-0.000688321
-0.000728224
-0.000718849
-0.000606008
0.0108313
2.10323e-05
-8.56607e-06
-3.92436e-05
-7.14729e-05
-0.000105901
-0.000143276
-0.000184413
-0.000230196
-0.00028158
-0.00033954
-0.000404932
-0.000478182
-0.000558785
-0.000643986
-0.000726778
-0.000788943
-0.000804251
-0.000694984
0.00837624
1.53772e-05
-1.30724e-05
-4.17537e-05
-7.13953e-05
-0.000102829
-0.000136941
-0.000174688
-0.00021715
-0.000265601
-0.000321544
-0.000386708
-0.00046291
-0.000551356
-0.000651685
-0.000758443
-0.000835925
-0.00087549
-0.000768103
0.00195412
9.3935e-06
-1.70377e-05
-4.28147e-05
-6.90051e-05
-9.6619e-05
-0.000126624
-0.000160038
-0.000198048
-0.000242141
-0.000294261
-0.000356984
-0.000433611
-0.000527776
-0.000642523
-0.00077715
-0.000885453
-0.000968368
-0.000857684
0.0023321
3.16587e-06
-2.00367e-05
-4.18588e-05
-6.37206e-05
-8.67326e-05
-0.000111833
-0.000139978
-0.000172312
-0.000210351
-0.000256254
-0.000313189
-0.000385808
-0.000480547
-0.000605609
-0.000770619
-0.000950069
-0.00112036
-0.0010173
0.00398566
-2.67704e-06
-2.10046e-05
-3.77448e-05
-5.44806e-05
-7.22334e-05
-9.17467e-05
-0.000113753
-0.000139157
-0.000169238
-0.000205964
-0.000252515
-0.000314127
-0.000399194
-0.000521262
-0.00070641
-0.000995302
-0.00134662
-0.00130877
0.00374151
-6.68796e-06
-1.84461e-05
-2.92989e-05
-4.04764e-05
-5.2639e-05
-6.61633e-05
-8.14055e-05
-9.88384e-05
-0.000119199
-0.000143742
-0.00017473
-0.000216386
-0.000276455
-0.000369976
-0.000537436
-0.00089269
-0.00153848
-0.00174399
0.00307078
-7.43685e-06
-1.38429e-05
-1.98752e-05
-2.64777e-05
-3.38644e-05
-4.20455e-05
-5.09984e-05
-6.07245e-05
-7.13053e-05
-8.30134e-05
-9.65792e-05
-0.000113865
-0.00013941
-0.000184038
-0.000279401
-0.00054005
-0.00126462
-0.00207417
0.00158185
)
;

boundaryField
{
    leftWall
    {
        type            fixedFluxPressure;
        gradient        uniform 0;
        value           nonuniform List<scalar> 
50
(
762.273
762.255
762.232
762.205
762.176
762.144
762.112
762.078
762.023
751.5
294.153
0.50143
0.707686
0.538304
0.0209563
-0.00198943
-0.000351187
-0.000804138
-0.000193805
-0.000104916
-4.13563e-05
3.42034e-06
2.20006e-05
5.21079e-05
0.000108576
0.000721804
0.000903246
0.000934373
0.00100281
0.00103232
0.00106587
0.0010979
0.00108406
0.00104731
0.000256717
0.00013917
0.000124591
0.000112519
0.000146249
0.000148653
0.000114987
0.000126243
0.000153445
0.000162585
0.000177625
0.000268124
0.000458786
0.000586071
0.000714716
0.000590381
)
;
    }
    rightWall
    {
        type            fixedFluxPressure;
        gradient        uniform 0;
        value           nonuniform List<scalar> 
50
(
760.662
760.588
760.282
760.506
760.933
760.896
760.871
760.873
760.63
744.753
302.942
0.426049
0.798186
0.392988
0.0144945
0.00372371
0.0038546
0.00372812
0.0036207
0.00354152
0.0035184
0.00354787
0.0149098
0.0315337
0.030891
0.00153535
-0.00115481
-0.00102197
-0.000847065
-0.000646617
0.00337846
0.00703176
0.00728908
0.00754655
0.00702413
4.2153e-06
-0.000295479
0.00202264
0.00992679
0.0101543
0.010372
0.0106102
0.0108313
0.00837624
0.00195412
0.0023321
0.00398566
0.00374151
0.00307078
0.00158185
)
;
    }
    lowerWall
    {
        type            fixedFluxPressure;
        gradient        uniform 0;
        value           nonuniform List<scalar> 
62
(
762.273
762.339
762.4
762.447
762.475
762.481
762.462
762.418
762.347
762.252
762.135
761.999
761.844
761.671
761.478
761.276
761.09
760.96
760.841
760.77
760.889
761.014
761.115
761.115
761.119
761.134
761.167
761.209
761.239
761.352
761.481
761.469
761.484
761.491
761.452
760.781
760.462
760.179
760.096
760.135
761.993
762.133
762.063
760.781
760.981
761.175
761.24
761.235
761.119
760.934
760.827
760.703
760.538
760.407
760.28
760.308
760.661
760.701
760.767
760.744
760.686
760.662
)
;
    }
    atmosphere
    {
        type            totalPressure;
        rho             rho;
        psi             none;
        gamma           1;
        p0              uniform 0;
        value           nonuniform List<scalar> 
46
(
-7.29276e-05
0
0
0
0
0
0
0
0
0
0
0
0
0
0
0
0
0
0
0
0
-9.33801e-09
-5.82343e-07
-1.56752e-06
-2.44472e-06
-3.50317e-06
-4.7341e-06
-7.17387e-06
-1.13084e-05
-1.62034e-05
-2.17584e-05
-2.78606e-05
-3.43812e-05
-4.11734e-05
-4.80699e-05
-5.48796e-05
-6.13844e-05
-6.73332e-05
-7.24299e-05
-7.63079e-05
-7.84613e-05
-7.80695e-05
-7.34852e-05
-6.08827e-05
-2.8626e-05
0
)
;
    }
    defaultFaces
    {
        type            empty;
    }
}


// ************************************************************************* //
