/*--------------------------------*- C++ -*----------------------------------*\
  =========                 |
  \\      /  F ield         | OpenFOAM: The Open Source CFD Toolbox
   \\    /   O peration     | Website:  https://openfoam.org
    \\  /    A nd           | Version:  9
     \\/     M anipulation  |
\*---------------------------------------------------------------------------*/
FoamFile
{
    format      ascii;
    class       volVectorField;
    location    "8.06";
    object      U;
}
// * * * * * * * * * * * * * * * * * * * * * * * * * * * * * * * * * * * * * //

dimensions      [0 1 -1 0 0 0 0];

internalField   nonuniform List<vector> 
2268
(
(0.000927405 -0.000455105 0)
(0.00277431 -0.000488687 0)
(0.00456322 -0.00046891 0)
(0.00633511 -0.000455307 0)
(0.00804881 -0.00044433 0)
(0.00969846 -0.000432284 0)
(0.0112736 -0.000416129 0)
(0.0127609 -0.000393979 0)
(0.0141228 -0.000356437 0)
(0.0153065 -0.000308982 0)
(0.0163116 -0.000278136 0)
(0.0172265 -0.000290693 0)
(0.0182261 -0.000368375 0)
(0.0194777 -0.000483655 0)
(0.0209596 -0.000539869 0)
(0.0222741 -0.000320631 0)
(0.0221457 0.000443839 0)
(0.0189278 0.00136282 0)
(0.0128357 0.00252123 0)
(0.00299559 0.00314592 0)
(-0.00543585 0.00138975 0)
(-0.00729078 -0.000750668 0)
(-0.00364289 -0.00164391 0)
(0.000943966 -0.00129138 0)
(0.00278399 -0.00134672 0)
(0.00457698 -0.00131807 0)
(0.00638711 -0.00127378 0)
(0.00812866 -0.00122752 0)
(0.00978811 -0.00117383 0)
(0.0113488 -0.00110962 0)
(0.0127968 -0.00102911 0)
(0.0141019 -0.00091655 0)
(0.0152172 -0.000782384 0)
(0.0161322 -0.000678101 0)
(0.016904 -0.000662151 0)
(0.0176429 -0.000763685 0)
(0.0184414 -0.000916995 0)
(0.0192566 -0.000914004 0)
(0.0197915 -0.000333735 0)
(0.019271 0.00128874 0)
(0.0164456 0.00329624 0)
(0.011711 0.00523522 0)
(0.00551921 0.00618981 0)
(-0.000198101 0.00362766 0)
(-0.00400044 -2.30988e-05 0)
(-0.00370224 -0.00379312 0)
(0.000973721 -0.00213894 0)
(0.00283963 -0.00218768 0)
(0.00463311 -0.00215192 0)
(0.00644684 -0.00208745 0)
(0.00818802 -0.00200698 0)
(0.00983715 -0.00190905 0)
(0.0113742 -0.00179294 0)
(0.0127864 -0.00165055 0)
(0.0140454 -0.00145909 0)
(0.015101 -0.00123065 0)
(0.0159286 -0.00103817 0)
(0.01656 -0.000963708 0)
(0.0170686 -0.00104317 0)
(0.0175152 -0.00118346 0)
(0.0178729 -0.00110359 0)
(0.0179763 -0.000239808 0)
(0.0172229 0.00206961 0)
(0.014612 0.00493704 0)
(0.0107698 0.00723162 0)
(0.00691724 0.00824799 0)
(0.00296031 0.00567068 0)
(-0.00144942 0.00125642 0)
(-0.00251113 -0.00527523 0)
(0.000998366 -0.00303566 0)
(0.00289667 -0.0030692 0)
(0.00471128 -0.0030111 0)
(0.00653371 -0.0029205 0)
(0.00827825 -0.00280076 0)
(0.00992139 -0.00265222 0)
(0.0114413 -0.00247796 0)
(0.0128274 -0.0022679 0)
(0.0140519 -0.00198998 0)
(0.0150558 -0.00165452 0)
(0.0157982 -0.00135269 0)
(0.0162896 -0.00118737 0)
(0.0165794 -0.00120288 0)
(0.0167147 -0.0012898 0)
(0.0166994 -0.00112635 0)
(0.0165063 -4.57272e-05 0)
(0.0157489 0.00282299 0)
(0.0135223 0.00636178 0)
(0.0103914 0.00877184 0)
(0.00778928 0.00967213 0)
(0.0048633 0.0075064 0)
(0.000671937 0.00274786 0)
(-0.000937872 -0.00582556 0)
(0.00102358 -0.00394359 0)
(0.00295498 -0.00397109 0)
(0.00480559 -0.00388539 0)
(0.00664753 -0.00376509 0)
(0.00840441 -0.00360238 0)
(0.0100487 -0.00339805 0)
(0.0115575 -0.00316072 0)
(0.0129243 -0.00287881 0)
(0.0141217 -0.00250758 0)
(0.0150789 -0.00205146 0)
(0.0157379 -0.00161822 0)
(0.0160906 -0.0013307 0)
(0.0161697 -0.00124469 0)
(0.016015 -0.00124476 0)
(0.0156584 -0.00100114 0)
(0.015193 0.000189197 0)
(0.014531 0.00344331 0)
(0.012789 0.00755752 0)
(0.0102822 0.0099743 0)
(0.00841301 0.0107002 0)
(0.00608643 0.00909905 0)
(0.00256154 0.00412915 0)
(0.0010438 -0.00541851 0)
(0.00105394 -0.00486719 0)
(0.00302468 -0.00488968 0)
(0.00492036 -0.0047714 0)
(0.00679192 -0.00461741 0)
(0.00857017 -0.00440741 0)
(0.0102219 -0.00414163 0)
(0.0117232 -0.00383637 0)
(0.0130732 -0.00347928 0)
(0.0142461 -0.00300866 0)
(0.0151594 -0.00241842 0)
(0.0157383 -0.00183229 0)
(0.0159586 -0.00139328 0)
(0.0158405 -0.00117179 0)
(0.0154152 -0.00105302 0)
(0.0147273 -0.000726438 0)
(0.0139326 0.000484916 0)
(0.0133363 0.00386245 0)
(0.0121751 0.0084991 0)
(0.0103289 0.0108925 0)
(0.0089523 0.0114654 0)
(0.00709993 0.0104271 0)
(0.00455804 0.0051821 0)
(0.00324372 -0.00415148 0)
(0.00108762 -0.00580745 0)
(0.00311595 -0.0058311 0)
(0.00506051 -0.0056747 0)
(0.00696917 -0.00548293 0)
(0.00877592 -0.00522007 0)
(0.0104388 -0.00488537 0)
(0.0119324 -0.00450594 0)
(0.0132626 -0.00407017 0)
(0.0144077 -0.00349452 0)
(0.0152762 -0.00275706 0)
(0.0157795 -0.00199794 0)
(0.0158801 -0.00138086 0)
(0.015588 -0.000994204 0)
(0.0149212 -0.000725815 0)
(0.0139191 -0.000294608 0)
(0.0127248 0.000912275 0)
(0.0119416 0.00413205 0)
(0.0113984 0.009076 0)
(0.0104921 0.0115243 0)
(0.00947028 0.0120762 0)
(0.00827581 0.0112985 0)
(0.00712765 0.00587648 0)
(0.00542627 -0.00218109 0)
(0.00113328 -0.00683168 0)
(0.0032288 -0.00682407 0)
(0.00522348 -0.00661853 0)
(0.00717467 -0.00638233 0)
(0.00901501 -0.00605755 0)
(0.01069 -0.00564216 0)
(0.0121716 -0.00517801 0)
(0.0134726 -0.0046572 0)
(0.0145782 -0.00396972 0)
(0.0153953 -0.00307103 0)
(0.015828 -0.00212027 0)
(0.0158287 -0.00129977 0)
(0.0153974 -0.000721865 0)
(0.0145376 -0.000280165 0)
(0.0132752 0.000300655 0)
(0.0117228 0.00153273 0)
(0.0105239 0.00444488 0)
(0.0103326 0.00918897 0)
(0.0104403 0.0117715 0)
(0.00999066 0.0124851 0)
(0.00976045 0.0114826 0)
(0.00970227 0.00662755 0)
(0.00717245 0.00213574 0)
(-0.0166414 0.00410849 0)
(-0.0155653 -0.00136734 0)
(-0.00832968 -0.00229561 0)
(-0.00281734 -0.00142928 0)
(0.000462958 -0.000983979 0)
(0.00271906 -0.000587794 0)
(0.00380949 -0.000232183 0)
(0.00486871 -0.000474464 0)
(0.00659128 -0.000513548 0)
(0.00694888 0.000200909 0)
(0.00434872 0.00118667 0)
(-0.00197859 0.00272929 0)
(-0.0125952 0.0029714 0)
(-0.0194738 0.000683384 0)
(-0.0197605 -0.000544774 0)
(-0.0162171 -0.00145297 0)
(-0.0120067 -0.00139645 0)
(-0.00779971 -0.00204772 0)
(0.00165829 -0.000277625 0)
(-0.0137404 0.00976455 0)
(-0.00873088 -0.00257416 0)
(-0.00584842 -0.0038199 0)
(-0.00302556 -0.00248287 0)
(-0.00162671 -0.00157207 0)
(-0.000823731 -0.000952036 0)
(-0.000197395 -0.000618909 0)
(0.000653858 -0.000860994 0)
(0.00135706 -0.000517872 0)
(0.000426024 0.000981168 0)
(-0.00223776 0.0026222 0)
(-0.00561157 0.00484035 0)
(-0.0101032 0.00515237 0)
(-0.0138399 0.00202199 0)
(-0.0155552 -0.000503545 0)
(-0.0142606 -0.00230084 0)
(-0.0127762 -0.00239851 0)
(-0.0111405 -0.0038608 0)
(-0.00365158 -0.00245671 0)
(-0.00599455 0.0130956 0)
(-0.00365294 -0.00354664 0)
(-0.00376409 -0.00449398 0)
(-0.00318535 -0.0029058 0)
(-0.00307119 -0.00176202 0)
(-0.00308857 -0.00106264 0)
(-0.00301247 -0.000840044 0)
(-0.00264777 -0.00106224 0)
(-0.00244837 -0.00032314 0)
(-0.00378892 0.0018525 0)
(-0.00638305 0.00366466 0)
(-0.00816479 0.00569156 0)
(-0.0090823 0.00591342 0)
(-0.0108356 0.0030441 0)
(-0.0127969 -0.000108426 0)
(-0.0123844 -0.00255157 0)
(-0.0125147 -0.00250781 0)
(-0.0129544 -0.0052365 0)
(-0.00741629 -0.00651749 0)
(0.00106907 0.0139817 0)
(0.000157891 -0.00322399 0)
(-0.00241001 -0.00414856 0)
(-0.00357908 -0.00271423 0)
(-0.00446619 -0.00159978 0)
(-0.00513698 -0.00093077 0)
(-0.00557404 -0.00084392 0)
(-0.0056454 -0.00109688 0)
(-0.00569305 -5.56863e-05 0)
(-0.00693586 0.00269427 0)
(-0.00905302 0.00444081 0)
(-0.00987601 0.00592196 0)
(-0.00920895 0.00597368 0)
(-0.00965956 0.00367328 0)
(-0.0109854 0.000283342 0)
(-0.0104868 -0.00257598 0)
(-0.0111939 -0.00202507 0)
(-0.0126195 -0.00622048 0)
(-0.00803383 -0.0112469 0)
(0.00561851 0.0125454 0)
(0.00234166 -0.00185857 0)
(-0.00197552 -0.00300399 0)
(-0.00434678 -0.00203406 0)
(-0.00597737 -0.00113233 0)
(-0.00718229 -0.000576705 0)
(-0.00808212 -0.000655566 0)
(-0.00853867 -0.00101577 0)
(-0.00868956 0.000187028 0)
(-0.00957164 0.00336656 0)
(-0.0110087 0.00491636 0)
(-0.0110947 0.00578223 0)
(-0.00971595 0.00564862 0)
(-0.00949548 0.00395312 0)
(-0.00986132 0.000326157 0)
(-0.00849937 -0.00272846 0)
(-0.00864894 -0.00141849 0)
(-0.0100134 -0.00694099 0)
(-0.00626053 -0.0153718 0)
(0.0064667 0.0102998 0)
(0.00239885 5.31559e-05 0)
(-0.00251517 -0.00140139 0)
(-0.00552507 -0.00103074 0)
(-0.00764166 -0.000434096 0)
(-0.00925797 -2.99784e-05 0)
(-0.0105646 -0.000290264 0)
(-0.0113843 -0.000845967 0)
(-0.0115724 0.000325204 0)
(-0.0119162 0.00380262 0)
(-0.0125946 0.00509905 0)
(-0.0120912 0.00539446 0)
(-0.0102912 0.00510645 0)
(-0.00961057 0.00397725 0)
(-0.00903577 -0.000120436 0)
(-0.00661331 -0.00335868 0)
(-0.0053057 -0.00119777 0)
(-0.00583029 -0.0073422 0)
(-0.00338758 -0.0182001 0)
(0.00486336 0.00869107 0)
(0.000844326 0.0020454 0)
(-0.00381132 0.00032194 0)
(-0.00704111 0.000135066 0)
(-0.0094329 0.000413483 0)
(-0.0113406 0.000673892 0)
(-0.0129845 0.000241363 0)
(-0.0141895 -0.000581875 0)
(-0.0144833 0.000323161 0)
(-0.0141077 0.00389139 0)
(-0.0138718 0.00503796 0)
(-0.0129187 0.00482744 0)
(-0.0109021 0.00442164 0)
(-0.0096536 0.00370645 0)
(-0.00790339 -0.00103548 0)
(-0.00492241 -0.00442136 0)
(-0.00239048 -0.00166433 0)
(-0.00146574 -0.00759836 0)
(-0.00014804 -0.0194733 0)
(0.00203477 0.00781866 0)
(-0.00143835 0.0037854 0)
(-0.00553763 0.00197387 0)
(-0.00876027 0.00137583 0)
(-0.0112952 0.00136575 0)
(-0.0133798 0.00149897 0)
(-0.0152533 0.000926398 0)
(-0.0168503 -0.000168928 0)
(-0.0174079 0.000229544 0)
(-0.0163398 0.00347066 0)
(-0.0149796 0.00467704 0)
(-0.0134996 0.00409125 0)
(-0.0113537 0.00361296 0)
(-0.00926928 0.00292581 0)
(-0.00618049 -0.00236311 0)
(-0.00333694 -0.00557559 0)
(-0.000232808 -0.00285629 0)
(0.00238401 -0.0080239 0)
(0.00306963 -0.0189167 0)
(0.00121652 -0.00848798 0)
(0.00340814 -0.00849781 0)
(0.00548706 -0.00821 0)
(0.00751593 -0.00788927 0)
(0.00941485 -0.00744583 0)
(0.0111078 -0.00687678 0)
(0.01256 -0.00625237 0)
(0.0137887 -0.00557824 0)
(0.0147951 -0.00469991 0)
(0.015506 -0.00352589 0)
(0.0158356 -0.00225145 0)
(0.0157238 -0.00107259 0)
(0.0151463 -0.000145341 0)
(0.0140995 0.000636944 0)
(0.0125838 0.00150883 0)
(0.0107257 0.00282406 0)
(0.00915596 0.00518304 0)
(0.00893271 0.00886741 0)
(0.00979899 0.011432 0)
(0.010727 0.0123462 0)
(0.0116417 0.0110326 0)
(0.0115309 0.00810447 0)
(0.00898971 0.00685792 0)
(0.00125854 -0.0103787 0)
(0.0035787 -0.010424 0)
(0.00579662 -0.0100554 0)
(0.00794751 -0.00964006 0)
(0.00991289 -0.00904025 0)
(0.011618 -0.00823317 0)
(0.0130067 -0.00734788 0)
(0.0140265 -0.00641939 0)
(0.0146929 -0.00528794 0)
(0.0150962 -0.00384449 0)
(0.0152946 -0.00226901 0)
(0.0152405 -0.000723996 0)
(0.0148137 0.000637467 0)
(0.0139027 0.00188266 0)
(0.012495 0.00310876 0)
(0.0107576 0.00447768 0)
(0.00918427 0.0061677 0)
(0.0086223 0.00829236 0)
(0.0093277 0.0100916 0)
(0.0105648 0.0109301 0)
(0.0111361 0.0104055 0)
(0.00995166 0.00960612 0)
(0.00717899 0.00933093 0)
(0.00188708 -0.0125827 0)
(0.00307892 -0.0125104 0)
(0.00556991 -0.0118412 0)
(0.00790392 -0.0113014 0)
(0.00967117 -0.0105295 0)
(0.0112508 -0.00939178 0)
(0.0127674 -0.00814169 0)
(0.0137869 -0.00691576 0)
(0.0141626 -0.00556445 0)
(0.0142492 -0.00399795 0)
(0.0143826 -0.00230838 0)
(0.0145551 -0.000586455 0)
(0.0144829 0.00107282 0)
(0.0138344 0.00266515 0)
(0.0125775 0.00420276 0)
(0.0109825 0.00568957 0)
(0.00955522 0.00708243 0)
(0.00896301 0.00836489 0)
(0.00937469 0.00950467 0)
(0.0102562 0.0104026 0)
(0.0103637 0.010943 0)
(0.00876067 0.0114165 0)
(0.00606724 0.0118935 0)
(0.00542191 -0.0174025 0)
(-0.000345008 -0.0131109 0)
(0.00344997 -0.0128823 0)
(0.00637662 -0.0120785 0)
(0.00620904 -0.0109143 0)
(0.0065896 -0.00995357 0)
(0.00909704 -0.00861985 0)
(0.0111765 -0.00709815 0)
(0.0119302 -0.00548671 0)
(0.0120718 -0.00396772 0)
(0.0123281 -0.0023186 0)
(0.0127127 -0.00062025 0)
(0.0130436 0.00119818 0)
(0.0125461 0.00309931 0)
(0.0112074 0.00483661 0)
(0.0100718 0.0063154 0)
(0.00985245 0.00737786 0)
(0.0103321 0.00834275 0)
(0.00988575 0.00942914 0)
(0.00924428 0.0102239 0)
(0.00927724 0.0113314 0)
(0.00855537 0.0122329 0)
(0.00690662 0.0127985 0)
(-0.014282 -0.0111678 0)
(-0.0208036 -0.0141663 0)
(-0.0205902 -0.0256148 0)
(-0.0241497 -0.0184094 0)
(-0.0289602 -0.0113335 0)
(-0.0282647 -0.0176236 0)
(-0.0232649 -0.0173396 0)
(-0.0164826 -0.0127213 0)
(-0.0113238 -0.00748504 0)
(-0.00778525 -0.00550085 0)
(-0.00443366 -0.00389665 0)
(-0.00057857 -0.00219868 0)
(0.00382487 0.000834385 0)
(0.00780533 0.006294 0)
(0.0108619 0.00933821 0)
(0.0133322 0.00956033 0)
(0.0143542 0.00863206 0)
(0.0132173 0.008444 0)
(0.00861552 0.012896 0)
(0.00147688 0.0108503 0)
(-0.00144488 0.0135908 0)
(-0.00124389 0.0179519 0)
(-0.000237287 0.0233567 0)
(0.000210485 0.0102237 0)
(0.00770131 -0.00384793 0)
(0.00010044 -0.0110211 0)
(-0.0111229 -0.00557193 0)
(-0.00922572 -0.00570137 0)
(-0.00875704 -0.0139437 0)
(-0.0147071 -0.0176499 0)
(-0.0179934 -0.0159172 0)
(-0.0179238 -0.0108426 0)
(-0.0166737 -0.00898355 0)
(-0.0160372 -0.00725794 0)
(-0.0160113 -0.00650029 0)
(-0.0154871 -0.00564313 0)
(-0.0117325 -0.00215969 0)
(-0.00593808 0.00104828 0)
(-0.00325197 0.00380067 0)
(-0.00600496 0.00900422 0)
(-0.0105899 0.0117549 0)
(-0.0119062 0.0186024 0)
(-0.0131972 0.0170087 0)
(-0.0164679 0.0142167 0)
(-0.018608 0.0137526 0)
(-0.018106 0.0153475 0)
(0.00139643 -0.0145368 0)
(0.000645477 -0.0109211 0)
(-0.00429957 -0.00412083 0)
(-0.0080147 -0.00412838 0)
(-0.00986505 -0.0106082 0)
(-0.0127777 -0.0106185 0)
(-0.0168612 -0.0120945 0)
(-0.0207855 -0.0125706 0)
(-0.0234454 -0.0107258 0)
(-0.0250746 -0.00883656 0)
(-0.0266083 -0.00660891 0)
(-0.0281234 -0.00509349 0)
(-0.0281353 -0.00629988 0)
(-0.0250323 -0.00731388 0)
(-0.0205992 -0.00275713 0)
(-0.0175824 0.0047233 0)
(-0.0164506 0.012883 0)
(-0.0172262 0.0150139 0)
(-0.018394 0.0185354 0)
(-0.0196052 0.0195015 0)
(-0.021642 0.0170297 0)
(-0.0223368 0.0146058 0)
(-0.0218931 0.0137588 0)
(-0.00240618 0.00184321 0)
(-0.005449 -0.00165225 0)
(-0.00807793 -0.00185258 0)
(-0.00946545 -0.00195113 0)
(-0.0115305 -0.00518901 0)
(-0.0147329 -0.00697324 0)
(-0.0180986 -0.00803898 0)
(-0.0215101 -0.00835407 0)
(-0.024373 -0.00765377 0)
(-0.0263803 -0.00640254 0)
(-0.0277133 -0.00464147 0)
(-0.0283504 -0.00386827 0)
(-0.0283467 -0.00685592 0)
(-0.028321 -0.00901879 0)
(-0.0282563 -0.00500011 0)
(-0.0274421 0.00276926 0)
(-0.0253935 0.0105168 0)
(-0.0235464 0.0149579 0)
(-0.0225935 0.0183527 0)
(-0.0216245 0.0197231 0)
(-0.0210332 0.0178237 0)
(-0.0211443 0.0144297 0)
(-0.0213614 0.0128272 0)
(-0.00076528 -0.00294014 0)
(-0.00280506 -0.00140357 0)
(-0.00626387 -0.00042418 0)
(-0.00863158 -0.000373664 0)
(-0.0111571 -0.00228166 0)
(-0.0142306 -0.00400922 0)
(-0.0172323 -0.00498207 0)
(-0.0201082 -0.00533259 0)
(-0.0225623 -0.00532079 0)
(-0.0242942 -0.00487823 0)
(-0.0252437 -0.00392721 0)
(-0.0255409 -0.00382786 0)
(-0.0262803 -0.00620925 0)
(-0.0283796 -0.0073415 0)
(-0.0305931 -0.00415839 0)
(-0.0310061 0.00177998 0)
(-0.0293888 0.00776704 0)
(-0.0271074 0.013052 0)
(-0.0249754 0.0166542 0)
(-0.0229236 0.0180209 0)
(-0.0214042 0.0168917 0)
(-0.0208308 0.0144169 0)
(-0.0206677 0.0122784 0)
(-0.00178782 0.00368796 0)
(-0.00388786 0.00315372 0)
(-0.00623202 0.00264302 0)
(-0.00813733 0.00200569 0)
(-0.0102327 0.000448342 0)
(-0.012765 -0.0012239 0)
(-0.0153346 -0.00231222 0)
(-0.0177186 -0.00288294 0)
(-0.0197401 -0.00342119 0)
(-0.0213008 -0.00357306 0)
(-0.0224171 -0.00318662 0)
(-0.0232974 -0.00324374 0)
(-0.0247124 -0.00441371 0)
(-0.0270392 -0.00461686 0)
(-0.0292301 -0.00243774 0)
(-0.0300116 0.00146452 0)
(-0.029241 0.00602988 0)
(-0.0274519 0.0108244 0)
(-0.0251876 0.0143278 0)
(-0.0229148 0.0158865 0)
(-0.0210998 0.0155087 0)
(-0.0200322 0.0138528 0)
(-0.0194253 0.0116401 0)
(-0.00145755 0.00428809 0)
(-0.00323986 0.00454059 0)
(-0.00532654 0.00434618 0)
(-0.00710451 0.00378623 0)
(-0.00892767 0.00257198 0)
(-0.0110169 0.0011263 0)
(-0.0131676 -3.82583e-05 0)
(-0.015121 -0.000873845 0)
(-0.0168366 -0.00173515 0)
(-0.0183809 -0.00216037 0)
(-0.0197832 -0.00196227 0)
(-0.0211091 -0.00196495 0)
(-0.0227458 -0.00243249 0)
(-0.024872 -0.00229566 0)
(-0.0268045 -0.000900094 0)
(-0.0276386 0.00154401 0)
(-0.027173 0.00497672 0)
(-0.0257629 0.00891594 0)
(-0.0238289 0.0121235 0)
(-0.0217634 0.0138052 0)
(-0.019903 0.0139068 0)
(-0.0184524 0.0127745 0)
(-0.0173019 0.0106909 0)
(-0.00121764 0.00680278 0)
(-0.0027815 0.00659065 0)
(-0.00452354 0.00611216 0)
(-0.00607672 0.00543297 0)
(-0.00765604 0.00435021 0)
(-0.00938048 0.00306532 0)
(-0.0111295 0.0018395 0)
(-0.0127299 0.000777809 0)
(-0.0142511 -0.000149533 0)
(-0.0158342 -0.000591951 0)
(-0.017389 -0.000452218 0)
(-0.018852 -0.000454888 0)
(-0.020441 -0.000596957 0)
(-0.0222317 -0.000371352 0)
(-0.0238255 0.000453214 0)
(-0.0246686 0.00178969 0)
(-0.0245254 0.00422199 0)
(-0.0234757 0.00737063 0)
(-0.0218593 0.010254 0)
(-0.0200405 0.0118879 0)
(-0.018214 0.0121573 0)
(-0.0165069 0.0112665 0)
(-0.0149138 0.00932477 0)
(-0.000931296 0.0085438 0)
(-0.00225542 0.00823591 0)
(-0.00374247 0.00763374 0)
(-0.00509718 0.00688579 0)
(-0.00646804 0.00586551 0)
(-0.00791598 0.00466147 0)
(-0.0093607 0.00337551 0)
(-0.0107306 0.0021989 0)
(-0.0121474 0.00137135 0)
(-0.0137084 0.00104367 0)
(-0.0152311 0.00106243 0)
(-0.0166221 0.00101398 0)
(-0.0180194 0.000971046 0)
(-0.0194331 0.0011542 0)
(-0.0206792 0.00160032 0)
(-0.021546 0.00226668 0)
(-0.0217539 0.00383148 0)
(-0.0211156 0.00617272 0)
(-0.0198463 0.00868005 0)
(-0.0182444 0.0101211 0)
(-0.0164919 0.0103554 0)
(-0.014731 0.00953554 0)
(-0.0130448 0.00772478 0)
(-0.000695297 0.00988718 0)
(-0.00176168 0.00959855 0)
(-0.00302271 0.00894227 0)
(-0.0041968 0.00815492 0)
(-0.00538174 0.00716681 0)
(-0.00661265 0.00600945 0)
(-0.00785921 0.00468974 0)
(-0.00913047 0.00352811 0)
(-0.010504 0.0028358 0)
(-0.0119495 0.00257709 0)
(-0.013314 0.00244235 0)
(-0.0145521 0.00231803 0)
(-0.0157273 0.00224593 0)
(-0.0168267 0.00231963 0)
(-0.0177827 0.00254141 0)
(-0.0185591 0.00290632 0)
(-0.0189686 0.0038099 0)
(-0.0187657 0.0054203 0)
(-0.0178907 0.00738784 0)
(-0.0165079 0.00850969 0)
(-0.0148995 0.0086338 0)
(-0.0132658 0.0078505 0)
(-0.011745 0.00622045 0)
(-0.000506238 0.0109107 0)
(-0.00135057 0.0107079 0)
(-0.00239823 0.0100574 0)
(-0.00340944 0.00925382 0)
(-0.0044335 0.0082883 0)
(-0.00549553 0.00717518 0)
(-0.00663073 0.00590191 0)
(-0.00786467 0.00482763 0)
(-0.00917777 0.00421961 0)
(-0.0104645 0.00390981 0)
(-0.011638 0.0036508 0)
(-0.0127071 0.00343397 0)
(-0.0136927 0.00327985 0)
(-0.0145809 0.00323003 0)
(-0.0153398 0.00329729 0)
(-0.015965 0.00350463 0)
(-0.0163998 0.00403107 0)
(-0.0164409 0.00507155 0)
(-0.0158624 0.0063755 0)
(-0.0147446 0.00711885 0)
(-0.0133827 0.00711656 0)
(-0.0119896 0.00638298 0)
(-0.0107252 0.00497689 0)
(-0.000365314 0.0116779 0)
(-0.00102299 0.0115973 0)
(-0.00189406 0.0110019 0)
(-0.0027698 0.0102083 0)
(-0.00366987 0.00926876 0)
(-0.00461253 0.00821005 0)
(-0.0056589 0.00705675 0)
(-0.00682942 0.00607984 0)
(-0.00802974 0.00547236 0)
(-0.00914892 0.00505161 0)
(-0.010159 0.00469203 0)
(-0.0110784 0.00438447 0)
(-0.011914 0.00413922 0)
(-0.0126563 0.00397806 0)
(-0.0132903 0.00391816 0)
(-0.0138106 0.00399316 0)
(-0.0141725 0.00429687 0)
(-0.0142319 0.00490105 0)
(-0.0138242 0.00562282 0)
(-0.0129822 0.00601137 0)
(-0.0119088 0.00587644 0)
(-0.010792 0.00518791 0)
(-0.00978668 0.00399246 0)
(-0.000265723 0.0122465 0)
(-0.000775883 0.0123128 0)
(-0.0015186 0.0118126 0)
(-0.0022901 0.011051 0)
(-0.00309618 0.0101461 0)
(-0.00395185 0.00914999 0)
(-0.00490057 0.00812157 0)
(-0.00594448 0.00722253 0)
(-0.00699151 0.00656332 0)
(-0.00795956 0.00604071 0)
(-0.00883681 0.00559186 0)
(-0.00963154 0.00519992 0)
(-0.0103464 0.00486837 0)
(-0.0109754 0.00461019 0)
(-0.0115089 0.0044412 0)
(-0.0119347 0.00438802 0)
(-0.0122119 0.00449511 0)
(-0.0122458 0.00476826 0)
(-0.01194 0.00507684 0)
(-0.0113131 0.00517404 0)
(-0.0104946 0.00491296 0)
(-0.0096293 0.00425231 0)
(-0.00884744 0.00322453 0)
(-0.000197864 0.0126801 0)
(-0.000627803 0.0129115 0)
(-0.0012761 0.0125198 0)
(-0.00195249 0.0118003 0)
(-0.00267063 0.0109368 0)
(-0.0034388 0.0100016 0)
(-0.00427568 0.00906077 0)
(-0.00517038 0.00820721 0)
(-0.00606151 0.0074992 0)
(-0.00689375 0.00689919 0)
(-0.00765232 0.00637153 0)
(-0.00833766 0.00590197 0)
(-0.00894917 0.00549044 0)
(-0.00948182 0.00514455 0)
(-0.00992644 0.00487554 0)
(-0.0102679 0.00469879 0)
(-0.0104728 0.00462948 0)
(-0.0104821 0.00465017 0)
(-0.0102442 0.00467054 0)
(-0.00977417 0.00454721 0)
(-0.00915556 0.00417962 0)
(-0.00849337 0.00353208 0)
(-0.00788839 0.00262658 0)
(-0.000165024 0.0130422 0)
(-0.000566883 0.0134478 0)
(-0.00113835 0.013132 0)
(-0.00171782 0.0124568 0)
(-0.00234357 0.0116365 0)
(-0.00301485 0.0107529 0)
(-0.00373459 0.00986583 0)
(-0.0044883 0.00903452 0)
(-0.00523647 0.00829449 0)
(-0.00594232 0.0076361 0)
(-0.00659034 0.00704196 0)
(-0.00717558 0.00650303 0)
(-0.00769445 0.00601823 0)
(-0.00814125 0.00559164 0)
(-0.00850677 0.00522953 0)
(-0.00877628 0.0049382 0)
(-0.00892456 0.0047179 0)
(-0.00891648 0.00454586 0)
(-0.00872653 0.00436023 0)
(-0.00836856 0.00407423 0)
(-0.00789818 0.00362202 0)
(-0.00738977 0.00297768 0)
(-0.00691767 0.00215663 0)
(-0.000183562 0.013385 0)
(-0.000541806 0.0139404 0)
(-0.00104558 0.0136561 0)
(-0.00153905 0.013021 0)
(-0.00207477 0.0122405 0)
(-0.00264761 0.0113972 0)
(-0.00325394 0.0105439 0)
(-0.0038804 0.00972339 0)
(-0.00450113 0.00896123 0)
(-0.00509126 0.00825905 0)
(-0.00563645 0.00761057 0)
(-0.00612911 0.00701142 0)
(-0.00656352 0.00646081 0)
(-0.00693311 0.0059606 0)
(-0.00722889 0.00551335 0)
(-0.00743815 0.00511969 0)
(-0.00754303 0.00477352 0)
(-0.00752318 0.00445352 0)
(-0.00736737 0.00411738 0)
(-0.00708831 0.00371125 0)
(-0.0067243 0.00319296 0)
(-0.00632757 0.00254534 0)
(-0.00595155 0.0017798 0)
(-0.000249453 0.0137388 0)
(-0.000528118 0.014372 0)
(-0.000962344 0.0141059 0)
(-0.00138548 0.0135017 0)
(-0.00183857 0.0127523 0)
(-0.00231784 0.011938 0)
(-0.00281925 0.0111062 0)
(-0.0033326 0.0102909 0)
(-0.00384082 0.00951248 0)
(-0.00432663 0.00877725 0)
(-0.00477763 0.00808503 0)
(-0.0051854 0.00743471 0)
(-0.00554307 0.00682618 0)
(-0.00584358 0.00626018 0)
(-0.00607857 0.00573702 0)
(-0.00623766 0.00525448 0)
(-0.00630862 0.00480469 0)
(-0.00628 0.00437005 0)
(-0.00614792 0.00392167 0)
(-0.00592357 0.00342557 0)
(-0.00563401 0.00285515 0)
(-0.00531593 0.00219982 0)
(-0.0050072 0.0014684 0)
(-0.000289657 0.0141153 0)
(-0.00051924 0.0147294 0)
(-0.000883971 0.0144938 0)
(-0.00124611 0.0139087 0)
(-0.00162265 0.0131788 0)
(-0.00201461 0.0123831 0)
(-0.00242052 0.0115648 0)
(-0.0028338 0.0107517 0)
(-0.00324313 0.00996117 0)
(-0.00363616 0.00920096 0)
(-0.00400246 0.00847386 0)
(-0.00433368 0.00778079 0)
(-0.00462259 0.00712231 0)
(-0.0048621 0.00649875 0)
(-0.00504461 0.00590941 0)
(-0.00516188 0.00535114 0)
(-0.00520557 0.00481654 0)
(-0.00516938 0.00429204 0)
(-0.00505297 0.00375808 0)
(-0.00486577 0.00319309 0)
(-0.00462721 0.00258049 0)
(-0.00436311 0.00191426 0)
(-0.00410013 0.00120145 0)
(-0.000302214 0.0145017 0)
(-0.00050656 0.0150329 0)
(-0.000823822 0.0148247 0)
(-0.00112037 0.0142454 0)
(-0.00142117 0.0135246 0)
(-0.00173069 0.01274 0)
(-0.00204981 0.0119303 0)
(-0.0023747 0.0111187 0)
(-0.00269761 0.0103196 0)
(-0.0030093 0.00954085 0)
(-0.00330091 0.00878633 0)
(-0.00356456 0.00805811 0)
(-0.00379308 0.00735732 0)
(-0.00397961 0.00668432 0)
(-0.00411737 0.00603827 0)
(-0.00419976 0.00541626 0)
(-0.00422102 0.00481224 0)
(-0.00417769 0.00421638 0)
(-0.00407092 0.00361564 0)
(-0.00390834 0.00299638 0)
(-0.00370401 0.00234853 0)
(-0.00347615 0.00166903 0)
(-0.00324348 0.000963642 0)
(-0.000289563 0.0148796 0)
(-0.000491989 0.0153186 0)
(-0.000777014 0.0150964 0)
(-0.0010011 0.0145099 0)
(-0.00122634 0.0137919 0)
(-0.00145835 0.013015 0)
(-0.00169926 0.0122126 0)
(-0.00194676 0.0114036 0)
(-0.00219511 0.0105996 0)
(-0.00243681 0.00980774 0)
(-0.0026641 0.0090322 0)
(-0.0028696 0.00827559 0)
(-0.00304636 0.00753949 0)
(-0.0031879 0.00682463 0)
(-0.00328816 0.00613056 0)
(-0.00334174 0.00545515 0)
(-0.00334445 0.00479409 0)
(-0.00329435 0.00414069 0)
(-0.00319301 0.00348653 0)
(-0.0030464 0.00282322 0)
(-0.00286472 0.00214488 0)
(-0.00266085 0.00145036 0)
(-0.00244794 0.000744443 0)
(-0.000251065 0.0152388 0)
(-0.000478799 0.0156007 0)
(-0.000720392 0.0153065 0)
(-0.000872671 0.0147017 0)
(-0.00102656 0.0139845 0)
(-0.00118824 0.0132156 0)
(-0.00136059 0.0124218 0)
(-0.00154195 0.0116177 0)
(-0.00172747 0.0108127 0)
(-0.00191058 0.0100126 0)
(-0.00208415 0.00922156 0)
(-0.00224116 0.00844242 0)
(-0.00237497 0.00767722 0)
(-0.00247945 0.00692723 0)
(-0.00254913 0.00619268 0)
(-0.00257943 0.00547253 0)
(-0.00256713 0.00476419 0)
(-0.00251101 0.00406357 0)
(-0.00241253 0.0033656 0)
(-0.00227627 0.00266542 0)
(-0.00210962 0.00195991 0)
(-0.00192172 0.00124912 0)
(-0.00172184 0.000537059 0)
(-0.000279727 0.0155873 0)
(-0.000454452 0.0158523 0)
(-0.000632 0.0154527 0)
(-0.000719116 0.0148249 0)
(-0.000810017 0.0141097 0)
(-0.000911267 0.0133512 0)
(-0.00102611 0.0125688 0)
(-0.00115311 0.011773 0)
(-0.00128771 0.0109706 0)
(-0.00142368 0.0101666 0)
(-0.00155421 0.00936468 0)
(-0.00167251 0.00856796 0)
(-0.00177219 0.00777894 0)
(-0.00184743 0.00699951 0)
(-0.00189322 0.00623078 0)
(-0.00190553 0.00547287 0)
(-0.00188172 0.00472483 0)
(-0.00182086 0.00398468 0)
(-0.00172414 0.00324983 0)
(-0.00159499 0.00251787 0)
(-0.00143877 0.00178755 0)
(-0.00126201 0.00105966 0)
(-0.0010713 0.000337602 0)
(-0.000299991 0.0159257 0)
(-0.000382053 0.0160349 0)
(-0.000494003 0.0155374 0)
(-0.000529348 0.0148891 0)
(-0.00056864 0.0141785 0)
(-0.000620867 0.0134334 0)
(-0.00069001 0.0126656 0)
(-0.000774686 0.0118813 0)
(-0.000870258 0.0110851 0)
(-0.00097048 0.0102808 0)
(-0.00106857 0.00947186 0)
(-0.00115786 0.00866158 0)
(-0.0012321 0.00785299 0)
(-0.00128576 0.00704872 0)
(-0.00131416 0.00625082 0)
(-0.00131367 0.00546062 0)
(-0.00128196 0.00467863 0)
(-0.00121823 0.00390462 0)
(-0.00112334 0.0031379 0)
(-0.000999864 0.00237783 0)
(-0.000851724 0.00162443 0)
(-0.00068366 0.000878952 0)
(-0.000500397 0.000144346 0)
(-0.000225453 0.0162046 0)
(-0.000257406 0.0161439 0)
(-0.000314766 0.0155705 0)
(-0.000305205 0.0149053 0)
(-0.000301376 0.0142019 0)
(-0.000314557 0.0134737 0)
(-0.00034912 0.012724 0)
(-0.000403131 0.0119547 0)
(-0.000471279 0.0111679 0)
(-0.000546846 0.0103662 0)
(-0.000622824 0.00955321 0)
(-0.00069249 0.00873241 0)
(-0.000749722 0.00790749 0)
(-0.000789184 0.00708188 0)
(-0.00080647 0.00625863 0)
(-0.000798244 0.00544023 0)
(-0.000762389 0.00462854 0)
(-0.000698132 0.0038248 0)
(-0.000606097 0.00302983 0)
(-0.000488217 0.0022443 0)
(-0.00034745 0.00146913 0)
(-0.000187327 0.000705888 0)
(-1.13289e-05 -4.28643e-05 0)
(-0.000137304 0.016378 0)
(-0.000117501 0.0161881 0)
(-0.00011452 0.0155557 0)
(-5.59639e-05 0.0148782 0)
(-1.13936e-05 0.0141872 0)
(7.45961e-06 0.0134815 0)
(-2.38078e-06 0.0127551 0)
(-3.67443e-05 0.0120046 0)
(-8.85819e-05 0.01123 0)
(-0.000150107 0.0104334 0)
(-0.00021379 0.00961844 0)
(-0.000272753 0.00878923 0)
(-0.000320937 0.00795021 0)
(-0.000353191 0.00710571 0)
(-0.000365349 0.00625982 0)
(-0.000354308 0.00541614 0)
(-0.000318117 0.00457777 0)
(-0.000256039 0.00374723 0)
(-0.000168531 0.00292657 0)
(-5.71282e-05 0.00211749 0)
(7.5832e-05 0.0013216 0)
(0.000227588 0.000540663 0)
(0.000395461 -0.000223115 0)
(-6.70356e-05 0.0164458 0)
(2.16008e-05 0.0161584 0)
(9.60983e-05 0.015485 0)
(0.000212502 0.0148043 0)
(0.00029942 0.0141372 0)
(0.000344804 0.0134647 0)
(0.000350222 0.0127689 0)
(0.000324717 0.0120418 0)
(0.000278498 0.0112821 0)
(0.000221008 0.0104924 0)
(0.000160491 0.00967668 0)
(0.000104014 0.00884024 0)
(5.75551e-05 0.00798841 0)
(2.60609e-05 0.00712654 0)
(1.34625e-05 0.00625973 0)
(2.2644e-05 0.00539269 0)
(5.53999e-05 0.00452966 0)
(0.000112412 0.0036743 0)
(0.000193292 0.00282972 0)
(0.000296718 0.00199849 0)
(0.000420692 0.00118274 0)
(0.000562892 0.000384351 0)
(0.000721123 -0.000394802 0)
(-2.16536e-05 0.0164155 0)
(0.000158947 0.0160493 0)
(0.000318082 0.0153433 0)
(0.000501135 0.0146753 0)
(0.000632754 0.0140534 0)
(0.000697973 0.013431 0)
(0.000707849 0.0127759 0)
(0.000680012 0.0120772 0)
(0.000629101 0.0113346 0)
(0.000566438 0.0105523 0)
(0.000500909 0.00973622 0)
(0.000439641 0.00889283 0)
(0.000388426 0.00802866 0)
(0.000351948 0.0071501 0)
(0.000333876 0.0062633 0)
(0.000336875 0.00537401 0)
(0.000362585 0.00448754 0)
(0.000411608 0.0036086 0)
(0.000483548 0.00274127 0)
(0.000577144 0.00188887 0)
(0.000690524 0.00105399 0)
(0.000821545 0.00023856 0)
(0.000968251 -0.000555915 0)
(2.00799e-05 0.0162943 0)
(0.000301703 0.0158508 0)
(0.000559773 0.0151143 0)
(0.000819144 0.0144811 0)
(0.000993428 0.0139397 0)
(0.00106693 0.0133916 0)
(0.00106768 0.0127882 0)
(0.00102584 0.0121215 0)
(0.000960695 0.0113966 0)
(0.000884898 0.0106214 0)
(0.000807498 0.00980427 0)
(0.000735381 0.00895341 0)
(0.00067398 0.00807666 0)
(0.000627627 0.00718147 0)
(0.000599697 0.00627497 0)
(0.000592639 0.00536392 0)
(0.00060795 0.00445461 0)
(0.000646148 0.00355277 0)
(0.000706785 0.00266338 0)
(0.000788558 0.00179049 0)
(0.000889548 0.000937107 0)
(0.00100758 0.000105163 0)
(0.00114073 -0.000704272 0)
(0.000118122 0.0160721 0)
(0.00048241 0.0155535 0)
(0.000850046 0.0147882 0)
(0.00118179 0.0142196 0)
(0.00138342 0.013807 0)
(0.00144651 0.0133624 0)
(0.00142243 0.012819 0)
(0.00135599 0.0121852 0)
(0.00126906 0.0114764 0)
(0.00117417 0.0107064 0)
(0.00107981 0.00988658 0)
(0.000992281 0.00902712 0)
(0.000916485 0.00813706 0)
(0.000856333 0.00722487 0)
(0.000814893 0.00629858 0)
(0.000794417 0.00536583 0)
(0.000796295 0.00443386 0)
(0.000820994 0.00350936 0)
(0.000868021 0.00259822 0)
(0.000935979 0.00170525 0)
(0.00102277 0.000833914 0)
(0.00112599 -1.38987e-05 0)
(0.00124358 -0.000837676 0)
(0.00032298 0.0156775 0)
(0.000813581 0.0151466 0)
(0.00126691 0.0143848 0)
(0.00160127 0.0139339 0)
(0.00178191 0.0136744 0)
(0.00181775 0.0133605 0)
(0.00175864 0.0128791 0)
(0.00166188 0.0122751 0)
(0.00154923 0.0115791 0)
(0.00143195 0.0108115 0)
(0.00131757 0.00998707 0)
(0.00121167 0.00911761 0)
(0.00111855 0.00821337 0)
(0.00104169 0.00728368 0)
(0.000983857 0.00633732 0)