/*--------------------------------*- C++ -*----------------------------------*\
  =========                 |
  \\      /  F ield         | OpenFOAM: The Open Source CFD Toolbox
   \\    /   O peration     | Website:  https://openfoam.org
    \\  /    A nd           | Version:  9
     \\/     M anipulation  |
\*---------------------------------------------------------------------------*/
FoamFile
{
    format      ascii;
    class       volScalarField;
    location    "5.85";
    object      nut;
}
// * * * * * * * * * * * * * * * * * * * * * * * * * * * * * * * * * * * * * //

dimensions      [0 2 -1 0 0 0 0];

internalField   nonuniform List<scalar> 
2268
(
1.35283e-05
1.54943e-05
1.86782e-05
2.08217e-05
2.24205e-05
2.36804e-05
2.47136e-05
2.55818e-05
2.63193e-05
2.69465e-05
2.74848e-05
2.79583e-05
2.83833e-05
2.87497e-05
2.89899e-05
2.89233e-05
2.82473e-05
2.6929e-05
2.52797e-05
2.37851e-05
2.2363e-05
1.97226e-05
1.29754e-05
3.07759e-05
0.000123349
0.000167068
0.000194102
0.000213375
0.000228166
0.000240044
0.000249837
0.000257974
0.000264701
0.000270244
0.000274809
0.00027848
0.000281042
0.000281814
0.000279361
0.000269831
0.000245589
0.000224972
0.000212746
0.000200359
0.000154429
4.17608e-05
3.65873e-05
0.000205799
0.000304683
0.000367682
0.000412755
0.000447294
0.000474969
0.000497741
0.000516641
0.000532243
0.000545052
0.000555525
0.000563871
0.000569656
0.000571446
0.000566155
0.00054694
0.000505134
0.000464012
0.000429882
0.00038119
0.000263921
4.93782e-05
4.08791e-05
0.000263703
0.000412459
0.000510698
0.000581845
0.000636598
0.0006805
0.000716599
0.000746557
0.000771313
0.000791634
0.000808183
0.000821227
0.000830117
0.000832795
0.000825054
0.000798581
0.000745896
0.000687759
0.000626984
0.000533615
0.000349981
5.57935e-05
4.42675e-05
0.000307718
0.000499706
0.000630509
0.000726417
0.000800582
0.000860101
0.000909005
0.000949567
0.000983095
0.0010106
0.00103292
0.00105032
0.00106197
0.00106535
0.0010557
0.00102394
0.000964149
0.000891727
0.000804137
0.000666524
0.000420654
6.22669e-05
4.70989e-05
0.000343111
0.000572577
0.000733053
0.000852051
0.000944486
0.00101872
0.00107968
0.0011302
0.00117195
0.00120617
0.00123382
0.00125521
0.00126935
0.0012734
0.00126197
0.0012268
0.0011625
0.00107829
0.000966772
0.000789748
0.000485846
6.86195e-05
4.95855e-05
0.000372691
0.000634975
0.000822423
0.000962798
0.00107228
0.00116027
0.00123247
0.00129228
0.0013417
0.00138215
0.00141473
0.00143982
0.00145631
0.00146083
0.00144822
0.00141117
0.00134438
0.00125127
0.00112084
0.000911988
0.000554195
7.5856e-05
5.1917e-05
0.000398126
0.00068955
0.000901536
0.00106163
0.00118694
0.00128773
0.00137042
0.00143891
0.00149547
0.00154173
0.00157887
0.00160744
0.00162599
0.00163126
0.00161833
0.00158069
0.00151303
0.00141447
0.00127162
0.00104257
0.000643045
8.86039e-05
1.29388e-05
2.05786e-05
2.39088e-05
2.54067e-05
2.61268e-05
2.6456e-05
2.67002e-05
2.69711e-05
2.7206e-05
2.66137e-05
2.47049e-05
2.25435e-05
2.05069e-05
2.18615e-05
2.44437e-05
2.39321e-05
2.05798e-05
1.69642e-05
1.90524e-05
4.2397e-05
0.000166129
0.000218286
0.000243729
0.000256406
0.000262726
0.000266027
0.000267328
0.000264032
0.000250651
0.000221094
0.000187272
0.00015734
0.000163725
0.000207416
0.000200138
0.000165058
0.000117814
4.02571e-05
4.87959e-05
0.000291774
0.000416389
0.000480011
0.000511846
0.000527141
0.000534189
0.000535497
0.000526927
0.000498316
0.000440624
0.00037891
0.000331262
0.00034243
0.000395094
0.000370017
0.000293606
0.000194478
4.37315e-05
5.5301e-05
0.000386258
0.000581294
0.000685205
0.000737995
0.00076289
0.000773022
0.000772828
0.000758134
0.000717548
0.000642933
0.000565771
0.000510452
0.000516699
0.00055033
0.000501306
0.000388208
0.00024246
4.57046e-05
6.2156e-05
0.000463815
0.000722263
0.000863636
0.00093651
0.000970904
0.000983369
0.000980845
0.000960139
0.00091116
0.000828423
0.000744374
0.000684761
0.000677819
0.000680302
0.000604618
0.000459622
0.000270923
4.7205e-05
6.9767e-05
0.00053438
0.00084987
0.00102342
0.00111342
0.00115588
0.00117011
0.00116494
0.00113892
0.00108451
0.000999522
0.000913125
0.000849018
0.000823595
0.000791812
0.00068924
0.000517065
0.000291182
4.8301e-05
7.92932e-05
0.000607833
0.000973846
0.0011718
0.00127444
0.00132272
0.001338
0.00133014
0.00129978
0.00124215
0.00115792
0.00107094
0.00100065
0.000954345
0.000889615
0.000761637
0.000567177
0.000310903
4.92061e-05
9.4832e-05
0.000700757
0.00110323
0.00131438
0.00142413
0.00147565
0.00149111
0.00148061
0.00144689
0.00138752
0.00130477
0.00121721
0.00113893
0.00107092
0.000977105
0.00082613
0.000613879
0.000335269
5.01381e-05
5.4799e-05
0.000432226
0.000763539
0.00101011
0.00119864
0.00134715
0.00146699
0.00156551
0.00164732
0.00171509
0.00177063
0.00181517
0.0018493
0.00187122
0.00187821
0.00186594
0.00182902
0.00176219
0.00166041
0.00150934
0.00127733
0.000921991
0.000448361
5.83233e-05
0.000470367
0.000847303
0.00113325
0.00135389
0.00152837
0.00166963
0.00178635
0.00188378
0.00196479
0.00203134
0.00208466
0.00212514
0.00215174
0.00216234
0.0021536
0.00212141
0.00206138
0.00196789
0.00182973
0.00162902
0.00134823
0.00100022
6.16054e-05
0.000498194
0.000920334
0.00124182
0.00148998
0.00168554
0.00184438
0.00197704
0.00208878
0.00218193
0.00225852
0.00231995
0.0023667
0.00239868
0.00241443
0.0024115
0.00238704
0.00233803
0.00226053
0.00214644
0.00198835
0.00178513
0.0015636
6.5788e-05
0.000519176
0.000989394
0.00134357
0.00161538
0.00182765
0.00200009
0.00214661
0.00227179
0.00237575
0.00246119
0.00252996
0.00258265
0.00262024
0.00264187
0.00264588
0.00263012
0.00259258
0.0025332
0.00244459
0.00232641
0.00218632
0.00204901
7.09244e-05
0.000592964
0.00107935
0.00144082
0.0017168
0.00194614
0.00213465
0.00229538
0.00243368
0.002549
0.00264363
0.00271945
0.00277717
0.00282
0.00284759
0.00285915
0.00285202
0.00282237
0.00277652
0.00271364
0.00262767
0.0025324
0.0024474
7.15862e-05
0.000614208
0.00110037
0.00147069
0.00176606
0.00202979
0.00223781
0.00241373
0.002566
0.0026944
0.00280005
0.00288445
0.00294953
0.0029983
0.0030315
0.00304957
0.00304998
0.0030269
0.00298881
0.00294573
0.00289123
0.00283233
0.00277931
6.97825e-05
0.00061676
0.00111169
0.00149486
0.00181053
0.00208474
0.0023154
0.00251212
0.00268016
0.0028211
0.00293667
0.00302913
0.00310088
0.00315406
0.00319005
0.00321081
0.00321836
0.00321021
0.00318819
0.00315939
0.00312774
0.00309356
0.00306136
7.01388e-05
0.000606139
0.00111946
0.00152589
0.001859
0.00214363
0.00238985
0.00260204
0.0027832
0.00293523
0.00305989
0.00315964
0.00323697
0.00329388
0.00333391
0.00336175
0.00338004
0.00338679
0.00338141
0.00336839
0.00335071
0.0033297
0.00330754
6.98746e-05
0.000603907
0.00113178
0.00155752
0.00190703
0.00220421
0.00246209
0.0026852
0.00287623
0.00303728
0.0031703
0.00327772
0.00336148
0.00342502
0.00347281
0.00350994
0.00353841
0.00355663
0.00356404
0.00356338
0.00355603
0.00354388
0.00352954
6.99637e-05
0.00061067
0.001149
0.00158992
0.00195453
0.00226385
0.00253124
0.00276267
0.0029615
0.00313027
0.00327116
0.00338609
0.00347767
0.0035497
0.00360672
0.00365315
0.00369075
0.00371847
0.00373611
0.00374514
0.00374674
0.00374224
0.0037341
7.02571e-05
0.000620183
0.00117008
0.00162428
0.00200171
0.00232168
0.00259726
0.00283565
0.00304119
0.00321682
0.00336482
0.00348746
0.00358759
0.00366885
0.00373537
0.00379076
0.00383666
0.00387281
0.00389919
0.00391654
0.00392565
0.00392754
0.00392408
7.08127e-05
0.000629375
0.00119341
0.0016596
0.0020479
0.00237694
0.00265984
0.00290463
0.00311635
0.00329842
0.00345345
0.00358395
0.00369279
0.00378333
0.00385907
0.00392299
0.00397666
0.0040204
0.00405433
0.00407879
0.00409426
0.00410153
0.00410199
7.17592e-05
0.000640033
0.00121659
0.00169402
0.00209219
0.00242971
0.00271971
0.0029708
0.00318861
0.003377
0.00353895
0.00367717
0.00379449
0.0038939
0.00397834
0.00405029
0.00411125
0.00416187
0.00420239
0.00423299
0.00425396
0.0042659
0.0042698
7.2506e-05
0.000649501
0.00123794
0.00172646
0.00213442
0.00248038
0.0027776
0.00303516
0.00325914
0.00345384
0.00362258
0.00376826
0.00389359
0.00400125
0.00409373
0.00417314
0.00424089
0.00429777
0.00434411
0.00438007
0.00440586
0.0044219
0.00442884
7.31258e-05
0.000657549
0.0012572
0.0017567
0.00217453
0.00252913
0.0028339
0.0030982
0.00332854
0.00352961
0.00370503
0.0038578
0.00399058
0.00410578
0.0042056
0.00429185
0.00436583
0.00442836
0.00447986
0.00452053
0.00455052
0.00457016
0.0045798
7.371e-05
0.000664291
0.00127449
0.00178474
0.0022125
0.00257598
0.0028886
0.00315996
0.00339689
0.00360442
0.00378638
0.00394587
0.0040855
0.00420755
0.00431398
0.00440638
0.00448598
0.00455357
0.00460963
0.00465439
0.00468805
0.0047108
0.00472281
7.42469e-05
0.000670031
0.00129009
0.00181076
0.00224838
0.00262084
0.00294155
0.00322022
0.00346394
0.00367795
0.00386628
0.00403211
0.00417803
0.00430623
0.00441853
0.00451639
0.00460095
0.00467299
0.00473302
0.00478134
0.00481814
0.00484355
0.00485765
7.47313e-05
0.000675022
0.00130429
0.00183498
0.00228226
0.00266369
0.00299256
0.00327866
0.00352923
0.00374967
0.00394414
0.00411589
0.00426754
0.00440121
0.00451866
0.00462126
0.00471012
0.004786
0.00484944
0.00490079
0.00494026
0.00496795
0.0049839
7.51623e-05
0.000679456
0.00131737
0.00185764
0.00231431
0.00270453
0.00304148
0.00333496
0.00359228
0.00381896
0.00401925
0.00419647
0.00435325
0.00449172
0.0046136
0.00472024
0.00481272
0.00489184
0.00495815
0.00501205
0.00505378
0.00508345
0.00510106
7.55404e-05
0.000683497
0.00132957
0.00187898
0.00234468
0.00274341
0.0030882
0.00338883
0.00365264
0.00388523
0.00409091
0.00427305
0.00443435
0.00457694
0.00470254
0.00481253
0.00490799
0.00498976
0.00505845
0.00511448
0.00515814
0.00518956
0.00520874
7.58666e-05
0.00068725
0.00134106
0.00189919
0.00237351
0.00278036
0.00313263
0.00344002
0.00370991
0.00394793
0.00415846
0.00434493
0.00451007
0.00465607
0.0047847
0.00489737
0.00499521
0.00507911
0.00514973
0.00520756
0.00525291
0.00528595
0.00530672
7.61444e-05
0.000690754
0.00135194
0.00191839
0.00240089
0.00281541
0.00317466
0.00348831
0.00376373
0.00400659
0.00422133
0.00441144
0.00457973
0.00472845
0.00485943
0.00497416
0.00507384
0.00515941
0.00523162
0.00529101
0.00533794
0.00537262
0.00539511
7.63712e-05
0.000694015
0.00136229
0.00193665
0.00242686
0.00284852
0.00321419
0.00353348
0.00381377
0.00406078
0.00427902
0.00447206
0.00464278
0.00479354
0.00492624
0.00504248
0.00514353
0.00523044
0.00530402
0.00536488
0.00541344
0.00544992
0.0054744
7.65369e-05
0.00069708
0.00137215
0.00195401
0.00245143
0.00287964
0.00325107
0.0035753
0.00385974
0.00411016
0.00433115
0.00452638
0.00469884
0.00485099
0.00498487
0.00510216
0.00520426
0.00529231
0.00536721
0.00542963
0.00548002
0.00551865
0.00554558
7.66445e-05
0.00070002
0.00138158
0.0019705
0.00247456
0.00290867
0.00328515
0.00361357
0.00390137
0.00415443
0.00437742
0.00457413
0.00474769
0.00490069
0.0050353
0.00515334
0.00525633
0.00534552
0.00542188
0.00548614
0.0055388
0.00558011
0.00561012
7.67098e-05
0.000702874
0.00139061
0.00198609
0.00249618
0.00293549
0.00331625
0.00364806
0.00393845
0.00419339
0.00441767
0.00461523
0.00478935
0.00494277
0.00507783
0.00519649
0.00530041
0.00539094
0.00546914
0.00553578
0.00559136
0.00563611
0.00567004
7.67422e-05
0.000705651
0.00139922
0.00200072
0.00251616
0.00295991
0.00334417
0.0036786
0.00397082
0.00422693
0.00445188
0.00464978
0.00482406
0.00497765
0.00511307
0.00523245
0.00533758
0.00542992
0.00551059
0.00558038
0.00563977
0.00568895
0.00572781
7.67465e-05
0.000708335
0.00140735
0.00201423
0.00253428
0.0029817
0.00336869
0.00370499
0.00399837
0.00425507
0.0044802
0.00467806
0.00485229
0.00500601
0.00514194
0.00526239
0.00536928
0.00546416
0.00554821
0.00562221
0.00568655
0.00574133
0.00578631
7.67215e-05
0.000710866
0.0014148
0.00202636
0.00255025
0.00300056
0.00338955
0.00372709
0.00402108
0.00427792
0.00450293
0.00470059
0.00487477
0.00502883
0.00516567
0.00528781
0.0053973
0.00549578
0.0055844
0.0056639
0.00573457
0.00579631
0.00584874
7.66502e-05
0.000713095
0.00142125
0.00203666
0.00256361
0.0030161
0.00340648
0.00374475
0.00403897
0.00429572
0.00452051
0.00471804
0.00489244
0.00504729
0.00518575
0.00531051
0.00542375
0.00552715
0.00562182
0.00570839
0.00578694
0.00585717
0.00591848
7.64853e-05
0.000714553
0.00142599
0.00204444
0.0025737
0.00302776
0.00341908
0.00375781
0.00405214
0.00430881
0.00453354
0.00473127
0.00490639
0.00506279
0.00520386
0.00533247
0.00545092
0.00556087
0.00566336
0.00575878
0.00584698
0.00592732
0.00599895
7.62577e-05
0.000713937
0.00142774
0.00204856
0.00257956
0.0030348
0.0034269
0.0037661
0.0040607
0.00431759
0.00454269
0.00474121
0.00491786
0.00507682
0.00522177
0.00535577
0.00548118
0.00559962
0.00571194
0.00581825
0.00591801
0.0060102
0.00609358
7.59818e-05
0.000710547
0.00142554
0.00204799
0.00258024
0.00303648
0.00342947
0.0037695
0.00406487
0.00432258
0.00454875
0.0047489
0.0049281
0.00509089
0.00524125
0.00538242
0.00551683
0.00564598
0.00577043
0.0058899
0.00600332
0.00610917
0.00620569
7.56019e-05
0.000705446
0.00141922
0.00204164
0.00257437
0.00303167
0.00342614
0.00376783
0.00406489
0.00432434
0.00455252
0.00475534
0.00493829
0.00510635
0.00526383
0.0054142
0.0055599
0.00570227
0.0058415
0.00597671
0.00610615
0.00622757
0.00633856
7.50828e-05
0.000698346
0.00140732
0.00202717
0.00255965
0.00301865
0.00341594
0.0037608
0.00406095
0.00432339
0.00455475
0.0047614
0.00494939
0.00512422
0.00529063
0.00545235
0.00561188
0.00577033
0.00592741
0.00608144
0.00622966
0.00636879
0.00649553
7.43446e-05
0.000687238
0.00138579
0.00199988
0.00253213
0.00299481
0.00339753
0.00374799
0.00405322
0.00432021
0.00455602
0.00476769
0.00496196
0.005145
0.0053221
0.00549737
0.00567344
0.00585127
0.00602993
0.00620666
0.00637717
0.00653654
0.00668023
7.32345e-05
0.000667775
0.00134594
0.00195095
0.00248536
0.00295645
0.00336928
0.00372903
0.00404193
0.00431524
0.00455676
0.00477447
0.00497603
0.00516846
0.00535777
0.00554865
0.00574412
0.00594514
0.00615018
0.00635491
0.00655258
0.00673545
0.00689708
7.15187e-05
0.000629097
0.00126907
0.00186461
0.00240973
0.00289901
0.00332968
0.00370385
0.00402751
0.0043089
0.00455718
0.00478161
0.00499105
0.00519355
0.00539607
0.00560421
0.00582184
0.00605048
0.00628831
0.00652896
0.00676128
0.00697201
0.00715191
7.01159e-05
0.000536486
0.00111645
0.00171597
0.0022935
0.00281868
0.00327848
0.00367331
0.00401085
0.00430175
0.00455733
0.00478863
0.00500589
0.00521838
0.00543424
0.00566041
0.00590238
0.00616342
0.00644272
0.00673201
0.00701216
0.00725654
0.00745277
9.00173e-05
0.000329356
0.000837985
0.00148031
0.00212997
0.00271675
0.0032189
0.00364016
0.00399368
0.00429455
0.00455721
0.00479478
0.00501902
0.00524044
0.00546849
0.00571186
0.00597867
0.00627601
0.00660765
0.00696704
0.00732271
0.00760659
0.00781053
0.000192637
0.000146955
0.000476681
0.00117231
0.00193557
0.00260764
0.0031606
0.00360993
0.00397877
0.00428841
0.00455685
0.00479928
0.00502881
0.00525701
0.00549453
0.00575188
0.00604047
0.00637372
0.00676701
0.00723092
0.00773516
0.00805261
0.0082375
0.000413286
0.00014243
0.000236404
0.000902543
0.00177598
0.0025273
0.00312133
0.0035908
0.00396969
0.00428469
0.00455646
0.00480159
0.00503399
0.00526586
0.00550859
0.00577389
0.00607576
0.00643398
0.00688136
0.0074814
0.00837545
0.00864067
0.00873898
9.39421e-05
8.80239e-05
8.97107e-05
9.71498e-05
0.00075725
0.000718658
0.00071747
0.000757786
0.00144346
0.00141095
0.00141622
0.00145856
0.00198648
0.00196829
0.00197293
0.00199787
0.00241228
0.00240124
0.00240158
0.00241417
0.0027551
0.00274519
0.00274325
0.00275058
0.00304413
0.00303768
0.0030372
0.00303967
0.00329604
0.00329216
0.00329056
0.00329034
0.00352187
0.00351826
0.00351592
0.0035142
0.00372807
0.00372451
0.00372142
0.0037184
0.00391927
0.00391575
0.00391207
0.003908
0.00409833
0.00409499
0.004091
0.00408621
0.00426732
0.00426432
0.00426028
0.0042551
0.00442757
0.00442501
0.00442111
0.00441577
0.00457969
0.00457763
0.00457398
0.00456864
0.00472381
0.00472226
0.00471892
0.0047137
0.0048597
0.00485867
0.00485569
0.00485067
0.00498694
0.00498644
0.00498387
0.00497913
0.00510509
0.00510515
0.00510305
0.0050987
0.00521379
0.00521446
0.00521292
0.00520908
0.00531289
0.00531428
0.00531342
0.00531023
0.00540259
0.00540484
0.00540483
0.00540248
0.00548348
0.0054868
0.00548786
0.00548658
0.00555665
0.00556131
0.00556373
0.00556383
0.00562371
0.00563005
0.00563419
0.00563602
0.00568678
0.00569523
0.0057015
0.00570551
0.00574845
0.00575951
0.00576841
0.00577507
0.00581174
0.00582593
0.00583799
0.0058478
0.00587986
0.00589776
0.00591351
0.00592698
0.00595622
0.00597837
0.00599833
0.00601595
0.00604421
0.00607113
0.00609577
0.00611795
0.00614717
0.00617931
0.00620899
0.00623605
0.00626829
0.006306
0.00634098
0.00637308
0.0064107
0.00645416
0.00649452
0.00653162
0.00657748
0.00662669
0.00667226
0.00671407
0.00677192
0.00682658
0.00687685
0.00692272
0.00699781
0.00705713
0.00711109
0.0071598
0.00725979
0.00732217
0.00737795
0.00742754
0.00756358
0.00762596
0.00768041
0.0077278
0.00791556
0.00797247
0.00802055
0.00806124
0.00832036
0.00836294
0.00839743
0.00842564
0.00877393
0.00879055
0.00880333
0.00881341
0.000455345
0.000972682
0.00132856
0.00153542
0.00164718
0.00169987
0.00171397
0.00169927
0.00166055
0.00159956
0.00151988
0.00142993
0.001337
0.00123402
0.00109791
0.00091543
0.000682923
0.00038192
5.19147e-05
0.00102964
0.0013944
0.0016608
0.00182905
0.00192431
0.00196899
0.00197752
0.00195817
0.00191505
0.00185113
0.00176926
0.0016723
0.0015582
0.00141876
0.00124376
0.00102773
0.000768694
0.000442924
5.62522e-05
0.00159405
0.001815
0.00199427
0.00211572
0.00218621
0.00221797
0.0022184
0.00219328
0.00214578
0.00207664
0.00198828
0.00188137
0.00175017
0.00158614
0.00138268
0.00113587
0.000842922
0.000476212
6.28193e-05
0.00206619
0.00219304
0.00230629
0.00238681
0.00243236
0.00245033
0.00244106
0.00240934
0.00235631
0.00228128
0.00218556
0.00206931
0.00192506
0.00174356
0.00151838
0.00124495
0.000910548
0.000473592
7.14818e-05
0.0024498
0.00252067
0.00258753
0.00263479
0.00266156
0.00266767
0.00264579
0.00260556
0.00254571
0.00246348
0.002359
0.00223205
0.00207737
0.00188643
0.00165049
0.00136169
0.0010048
0.000531148
7.89322e-05
0.00277049
0.00280785
0.00284108
0.00286067
0.00287055
0.00286135
0.00282807
0.00277755
0.00270872
0.00261832
0.00250419
0.00236366
0.00219378
0.00198856
0.00174109
0.0014411
0.00106675
0.000550774
7.80317e-05
0.00304753
0.00306284
0.00307342
0.00307453
0.00306429
0.00303982
0.00299589
0.00293599
0.00285754
0.00275714
0.00263089
0.0024748
0.00228737
0.00206519
0.00180138
0.00148365
0.00109052
0.000591872
7.69979e-05
0.00329184
0.00329333
0.00328802
0.00327351
0.00324743
0.00320698
0.00315287
0.00308339
0.00299372
0.00288034
0.00273935
0.00256686
0.00236171
0.00212195
0.00184064
0.00150641
0.00110385
0.00060937
7.79295e-05
0.00351158
0.00350368
0.00348696
0.00345934
0.00341911
0.00336621
0.00330205
0.00322235
0.00311951
0.00299084
0.00283295
0.00264189
0.00241721
0.00215788
0.00185844
0.00151054
0.00110124
0.000607815
7.51595e-05
0.00371278
0.00369823
0.00367337
0.00363598
0.00358527
0.00352223
0.00344777
0.00335543
0.00323819
0.00309323
0.00291678
0.00270494
0.00245812
0.00217639
0.00185647
0.00149388
0.00107869
0.000587482
7.28636e-05
0.00390003
0.00388058
0.00384973
0.00380532
0.00374659
0.00367465
0.00358932
0.0034836
0.0033517
0.00319004
0.00299504
0.00276246
0.00249246
0.00218532
0.00184091
0.00145912
0.0010357
0.00055285
6.99986e-05
0.00407654
0.00405337
0.0040179
0.00396794
0.00390271
0.00382262
0.00372623
0.00360777
0.00346184
0.00328513
0.00307354
0.00282243
0.0025305
0.00219784
0.00182529
0.00141603
0.000976726
0.000511216
0.000295727
0.00424428
0.00421816
0.00417872
0.00412394
0.00405298
0.00396541
0.00385905
0.00372931
0.00357146
0.00338203
0.00315651
0.00289036
0.00258151
0.00222941
0.00183438
0.00140099
0.000944249
0.00047943
6.91825e-05
0.00440425
0.00437577
0.00433293
0.00427394
0.00419782
0.00410361
0.00398896
0.00384997
0.00368253
0.00348289
0.0032467
0.00296981
0.0026501
0.00228671
0.00187994
0.00143402
0.000961562
0.000483483
0.000291745
0.00455674
0.00452649
0.00448091
0.00441845
0.00433804
0.00423837
0.00411712
0.00397093
0.00379611
0.00358891
0.00334534
0.00306177
0.00273604
0.00236724
0.00195569
0.00150362
0.0010165
0.000508319
6.95132e-05
0.00470167
0.00467022
0.00462262
0.00455754
0.00447384
0.00437003
0.0042439
0.00409248
0.0039124
0.0037001
0.0034519
0.00316448
0.00283547
0.0024635
0.00204807
0.00158928
0.00108713
0.000547977
7.31582e-05
0.00483872
0.0048066
0.00475772
0.00469091
0.00460497
0.00449836
0.00436897
0.00421412
0.00403071
0.00381536
0.00356455
0.00327494
0.00294365
0.00256825
0.00214659
0.00167637
0.00115496
0.000586001
7.65453e-05
0.00496748
0.00493523
0.00488578
0.00481808
0.00473093
0.00462277
0.0044916
0.00433491
0.0041498
0.00393299
0.00368098
0.00339013
0.00305675
0.00267696
0.00224644
0.00176023
0.00121371
0.000612132
7.934e-05
0.00508756
0.00505568
0.00500635
0.00493859
0.0048512
0.00474263
0.00461095
0.00445379
0.00426831
0.0040513
0.00379911
0.00350765
0.00317233
0.00278767
0.00234698
0.00184234
0.00126683
0.00062972
8.19819e-05
0.0051987
0.00516771
0.00511917
0.00505213
0.0049654
0.00485745
0.00472639
0.00456988
0.00438514
0.00416891
0.00391735
0.00362592
0.00328912
0.00290004
0.00244986
0.00192775
0.00132391
0.000650257
8.49974e-05
0.0053009
0.00527133
0.00522426
0.00515872
0.00507351
0.0049671
0.0048376
0.0046827
0.0044996
0.00428496
0.00403474
0.00374398
0.00340647
0.0030142
0.00255677
0.00202124
0.00139518
0.000688939
8.86913e-05
0.00539454
0.00536701
0.00532209
0.00525881
0.00517592
0.00507189
0.00494479
0.0047923
0.00461157
0.00439917
0.00415084
0.00386131
0.00352382
0.00312962
0.00266729
0.00212251
0.00148062
0.000745411
9.29226e-05
0.00548046
0.00545565
0.00541363
0.00535338
0.00527361
0.00517272
0.00504876
0.00489934
0.00472156
0.00451185
0.0042658
0.00397781
0.00364071
0.00324514
0.00277882
0.00222617
0.00156999
0.000807334
9.74554e-05
0.00556005
0.00553874
0.00550042
0.005444
0.00536811
0.0052711
0.00515093
0.00500514
0.00483073
0.00462402
0.00438039
0.00409398
0.00375719
0.00336003
0.00288917
0.00232713
0.00165286
0.000856123
0.000102427
0.00563521
0.0056183
0.00558455
0.00553279
0.00546156
0.00536912
0.00525334
0.00511167
0.004941
0.00473747
0.00449629
0.00421131
0.00387452
0.00347523
0.002999
0.00242627
0.00173213
0.0009
0.000107003
0.00570839
0.00569684
0.00566858
0.00562232
0.00555652
0.00546931
0.00535849
0.00522138
0.00505472
0.00485451
0.0046157
0.00433186
0.00399454
0.00359238
0.00310981
0.00252529
0.00181049
0.000943314
0.000110867
0.00578243
0.00577727
0.00575543
0.00571551
0.00565586
0.00557453
0.00546919
0.00533703
0.00517464
0.0049778
0.00474122
0.00445812
0.00411962
0.00371368
0.00322368
0.0026263
0.00189014
0.000988107
0.000114076
0.00586045
0.0058627
0.00584819
0.0058154
0.0057626
0.00568773
0.00558836
0.00546154
0.00530367
0.00511027
0.00487576
0.00459298
0.00425254
0.00384178
0.00334308
0.00273151
0.00197283
0.00103507
0.000117328
0.00594573
0.00595637
0.00595
0.00592503
0.00587967
0.0058118
0.00571886
0.00559777
0.0054447
0.00525489
0.00502236
0.00473951
0.00439639
0.00397965
0.00347074
0.00284322
0.00206012
0.00108445
0.000121286
0.00604153
0.00606139
0.00606383
0.00604723
0.00600979
0.00594934
0.00586328
0.00574834
0.00560045
0.00541451
0.00518406
0.00490092
0.00455445
0.00413055
0.0036097
0.00296404
0.00215394
0.00113739
0.000126036
0.00615098
0.00618067
0.00619235
0.00618445
0.00615523
0.00610255
0.00602376
0.00591545
0.0057733
0.00559174
0.00536377
0.00508042
0.00473021
0.00429806
0.00376338
0.00309694
0.00225661
0.00119548
0.000131432
0.00627694
0.00631676
0.0063378
0.00633867
0.00631776
0.00627305
0.0062019
0.0061008
0.00596512
0.00578881
0.00556414
0.00528119
0.00492731
0.00448611
0.00393571
0.00324537
0.00237074
0.00126028
0.000137416
0.00642197
0.00647181
0.00650195
0.00651129
0.00649852
0.00646183
0.00639866
0.00630543
0.00617722
0.00600746
0.00578754
0.00550632
0.00514959
0.00469917
0.00413131
0.00341352
0.00249932
0.00133305
0.000144267
0.00658831
0.00664754
0.00668601
0.00670313
0.00669803
0.0066692
0.00661428
0.00652967
0.00641023
0.00624883
0.00603587
0.00575874
0.00540116
0.00494239
0.00435593
0.00360677
0.00264623
0.00141522
0.000152475
0.00677788
0.00684521
0.00689068
0.00691443
0.00691616
0.00689483
0.00684833
0.00677317
0.00666406
0.00651336
0.00631049
0.00604111
0.00568633
0.00522185
0.00461692
0.00383254
0.00281722
0.00150974
0.00016223
0.00699232
0.00706566
0.00711615
0.00714486
0.00715223
0.00713775
0.0070997
0.0070348
0.00693777
0.00680064
0.00661194
0.00635556
0.00600953
0.00554473
0.00492401
0.00410149
0.00302097
0.00162101
0.000173679
0.00723304
0.00730931
0.00736209
0.00739358
0.00740501
0.00739646
0.00736668
0.00731275
0.00722958
0.00710921
0.00693964
0.00670325
0.00637483
0.00591931
0.00529013
0.0044295
0.00327148
0.00175564
0.000187254
0.00750105
0.00757602
0.00762764
0.00765925
0.00767284
0.00766905
0.0076471
0.00760455
0.00753683
0.00743641
0.00729143
0.00708359
0.00678504
0.00635431
0.00573225
0.00484109
0.00359325
0.00192577
0.000203704
0.0077967
0.00786495
0.00791135
0.00794013
0.00795379
0.00795334
0.00793846
0.00790729
0.00785606
0.00777826
0.00766314
0.00749322
0.00723995
0.00685704
0.0062712
0.00537429
0.00403254
0.00215794
0.000224558
0.00811899
0.0081742
0.00821109
0.00823409
0.00824572
0.00824711
0.00823823
0.00821786
0.00818327
0.00812956
0.00804824
0.00792477
0.00773359
0.00742891
0.00692807
0.00608628
0.00468212
0.00252248
0.000252712
0.0084646
0.0085005
0.00852406
0.0085388
0.00854659
0.00854833
0.00854413
0.00853333
0.0085144
0.0084844
0.00843812
0.00836616
0.00825086
0.00805714
0.00771118
0.00705124
0.00573482
0.00324131
0.000291549
0.00882697
0.00883912
0.00884701
0.00885197
0.0088547
0.00885552
0.0088545
0.00885148
0.00884598
0.00883713
0.00882331
0.00880153
0.00876592
0.00870374
0.00858352
0.00831319
0.00757251
0.00519995
0.000343913
)
;

boundaryField
{
    leftWall
    {
        type            nutkWallFunction;
        Cmu             0.09;
        kappa           0.41;
        E               9.8;
        value           nonuniform List<scalar> 
50
(
2.39072e-06
3.66689e-06
4.40643e-06
4.9433e-06
5.36233e-06
5.70948e-06
6.01218e-06
6.29439e-06
6.64172e-06
7.06275e-06
7.45557e-06
4.33156e-06
6.19914e-06
4.7878e-06
7.04398e-07
2.18535e-08
5.99062e-09
1.61495e-08
2.88291e-08
1.49591e-07
3.07788e-07
4.33026e-07
5.37354e-07
6.35097e-07
7.25111e-07
8.05209e-07
8.76387e-07
9.38721e-07
9.92404e-07
1.03801e-06
1.07439e-06
1.09921e-06
1.11647e-06
1.12683e-06
1.13173e-06
1.13196e-06
1.12734e-06
1.11504e-06
1.08727e-06
1.04932e-06
1.00335e-06
9.4022e-07
8.54107e-07
7.31726e-07
5.47579e-07
2.62417e-07
2.78166e-08
3.27339e-06
1.87577e-05
4.87483e-05
)
;
    }
    rightWall
    {
        type            nutkWallFunction;
        Cmu             0.09;
        kappa           0.41;
        E               9.8;
        value           nonuniform List<scalar> 
50
(
3.81928e-06
4.87297e-06
5.30486e-06
5.54661e-06
5.72898e-06
5.86108e-06
5.96871e-06
6.07831e-06
6.28767e-06
6.80401e-06
7.59211e-06
4.14209e-06
7.00962e-06
5.93191e-06
2.47529e-06
1.29818e-06
8.48277e-07
4.83514e-07
1.9857e-08
3.76838e-09
0
7.95278e-09
6.15162e-09
5.41852e-07
1.10191e-06
1.55985e-06
1.98891e-06
2.53412e-06
3.20628e-06
3.88105e-06
4.59936e-06
5.38292e-06
6.09563e-06
6.59556e-06
7.07631e-06
7.58519e-06
8.21737e-06
8.94365e-06
9.75855e-06
1.06399e-05
1.16719e-05
1.29198e-05
1.43626e-05
1.60403e-05
1.80094e-05
2.03631e-05
2.33187e-05
2.72524e-05
3.25847e-05
3.9628e-05
)
;
    }
    lowerWall
    {
        type            nutkWallFunction;
        Cmu             0.09;
        kappa           0.41;
        E               9.8;
        value           nonuniform List<scalar> 
62
(
8.21849e-07
1.62177e-06
2.06346e-06
2.35525e-06
2.57038e-06
2.73853e-06
2.87558e-06
2.99022e-06
3.08725e-06
3.16955e-06
3.24007e-06
3.30201e-06
3.35751e-06
3.40528e-06
3.43655e-06
3.42787e-06
3.3397e-06
3.16726e-06
2.95048e-06
2.75345e-06
2.56414e-06
2.20817e-06
1.26479e-06
1.26479e-06
5.05517e-06
5.98989e-06
6.76381e-06
7.53415e-06
8.2825e-06
9.12598e-06
1.05872e-05
1.11945e-05
1.05249e-05
1.07144e-05
1.15546e-05
1.25697e-06
5.12703e-06
5.9139e-06
6.70059e-06
7.51766e-06
8.41211e-06
9.51769e-06
1.12902e-05
1.25697e-06
2.32253e-06
2.7698e-06
2.96822e-06
3.06286e-06
3.10575e-06
3.13722e-06
3.17193e-06
3.20273e-06
3.12675e-06
2.87638e-06
2.58969e-06
2.31432e-06
2.49552e-06
2.84049e-06
2.77383e-06
2.3252e-06
1.82917e-06
1.35284e-06
)
;
    }
    atmosphere
    {
        type            calculated;
        value           nonuniform List<scalar> 
46
(
0.009
0.00014243
0.000236404
0.000902543
0.00177598
0.0025273
0.00312133
0.0035908
0.00396969
0.00428469
0.00455646
0.00480159
0.00503399
0.00526586
0.00550859
0.00577389
0.00607576
0.00643398
0.00688136
0.0074814
0.009
0.009
0.009
0.009
0.009
0.009
0.009
0.009
0.009
0.009
0.009
0.009
0.009
0.009
0.009
0.009
0.009
0.009
0.009
0.009
0.009
0.009
0.009
0.009
0.009
0.000343913
)
;
    }
    defaultFaces
    {
        type            empty;
    }
}


// ************************************************************************* //
