/*--------------------------------*- C++ -*----------------------------------*\
  =========                 |
  \\      /  F ield         | OpenFOAM: The Open Source CFD Toolbox
   \\    /   O peration     | Website:  https://openfoam.org
    \\  /    A nd           | Version:  9
     \\/     M anipulation  |
\*---------------------------------------------------------------------------*/
FoamFile
{
    format      ascii;
    class       volScalarField;
    location    "3.09";
    object      k;
}
// * * * * * * * * * * * * * * * * * * * * * * * * * * * * * * * * * * * * * //

dimensions      [0 2 -2 0 0 0 0];

internalField   nonuniform List<scalar> 
2268
(
0.00104659
0.00260808
0.00379939
0.00470319
0.00541463
0.00597739
0.00642021
0.00676597
0.00703055
0.00723007
0.00737818
0.00748573
0.00755959
0.00760165
0.00760809
0.00756522
0.00740692
0.00692475
0.00633983
0.00573897
0.0049819
0.00366596
0.00119153
0.00224664
0.0060041
0.00847495
0.0103862
0.0119062
0.0131177
0.0140777
0.0148323
0.0154171
0.0158639
0.0161998
0.0164454
0.0166111
0.0166967
0.0166866
0.0165387
0.0161557
0.0153468
0.0142056
0.0129897
0.0113654
0.00856344
0.00322229
0.00315687
0.00795272
0.010987
0.0133449
0.015233
0.0167462
0.0179505
0.0189002
0.019641
0.0202111
0.0206432
0.0209608
0.0211752
0.0212844
0.0212681
0.0210781
0.0206229
0.0197651
0.0185415
0.0170454
0.0149717
0.0115341
0.00467831
0.0039187
0.00949614
0.0129128
0.0155615
0.0176897
0.0193997
0.0207635
0.0218411
0.0226855
0.0233393
0.0238384
0.0242079
0.0244592
0.0245891
0.0245755
0.0243707
0.0238964
0.0230532
0.0218178
0.0201965
0.017886
0.0140665
0.00603225
0.00457432
0.0108514
0.0145913
0.017472
0.0197856
0.0216439
0.0231252
0.0242963
0.0252158
0.0259315
0.0264816
0.0268922
0.0271746
0.0273253
0.0273223
0.0271214
0.0266569
0.0258515
0.0246462
0.0229917
0.0205792
0.0165201
0.00735183
0.00516005
0.0120962
0.0161397
0.0192281
0.0216993
0.0236769
0.025248
0.0264881
0.0274624
0.0282242
0.0288135
0.0292574
0.0295676
0.0297407
0.029756
0.0295741
0.0291397
0.0283885
0.0272471
0.0256298
0.0232333
0.0190935
0.0088173
0.00570121
0.0132729
0.0176165
0.0209042
0.0235174
0.0255932
0.0272319
0.0285205
0.0295325
0.030327
0.0309457
0.0314168
0.0317525
0.0319505
0.0319919
0.031842
0.0314536
0.0307715
0.0297239
0.0282066
0.0259471
0.0219822
0.0109138
0.00621407
0.0144129
0.0190606
0.0225473
0.0252926
0.0274482
0.0291336
0.030451
0.0314843
0.0322993
0.0329386
0.0334315
0.0337915
0.0340173
0.0340926
0.0339863
0.0336573
0.0330576
0.0321234
0.0307634
0.0287607
0.0253637
0.0155907
0.00144987
0.00363394
0.00487057
0.00550293
0.00573554
0.00566287
0.00541507
0.00504317
0.00475233
0.00475568
0.00476466
0.00450629
0.00437884
0.00453604
0.00475809
0.00433191
0.0033569
0.00226478
0.0010497
0.00351587
0.00788925
0.0103221
0.0115861
0.0121051
0.0120666
0.0116023
0.0109537
0.0105032
0.0105211
0.0104609
0.00997175
0.00975589
0.00983794
0.00969343
0.0088005
0.00702916
0.00485391
0.0020361
0.00495749
0.0106058
0.0134614
0.0148953
0.0154835
0.0154558
0.014982
0.0143208
0.0138276
0.0136963
0.0135096
0.0130204
0.0126864
0.0125183
0.0120879
0.0109538
0.00893621
0.006377
0.00274131
0.0064034
0.0130785
0.0160577
0.0174718
0.0180304
0.0179815
0.0175005
0.016847
0.0163283
0.0160805
0.0157943
0.0152907
0.0148503
0.0144829
0.01383
0.0124904
0.0103167
0.00748794
0.00337556
0.00806212
0.015542
0.0184783
0.0197649
0.0202345
0.0201402
0.0196431
0.0189929
0.0184488
0.0181064
0.0177401
0.0172087
0.0166707
0.0161471
0.0153174
0.0137954
0.011466
0.00838739
0.0039406
0.0102326
0.0180825
0.0208361
0.0219175
0.0222561
0.0220986
0.0215783
0.020926
0.0203542
0.0199299
0.0194936
0.0189243
0.0182955
0.0176375
0.0166693
0.0150006
0.0124795
0.00915902
0.00433476
0.0133498
0.0207901
0.0231793
0.0239877
0.0241631
0.023928
0.0233814
0.0227243
0.0221229
0.0216248
0.021122
0.0205048
0.0197909
0.019011
0.0179315
0.016156
0.0134366
0.0098063
0.00443028
0.0179138
0.0237655
0.0255202
0.0259972
0.0259871
0.0256624
0.0250894
0.0244287
0.023796
0.0232288
0.0226586
0.021984
0.0211895
0.0202948
0.0191185
0.0172761
0.0143989
0.0103946
0.00441178
0.00698722
0.0161836
0.0213188
0.0251236
0.0280635
0.0303131
0.032036
0.033366
0.0344048
0.0352278
0.0358802
0.0363933
0.0367838
0.0370536
0.0371899
0.0371665
0.0369484
0.0364978
0.0357707
0.0347121
0.0332208
0.0310526
0.0271974
0.00805286
0.0186847
0.0245369
0.0288359
0.0320168
0.034279
0.0359318
0.0371803
0.0381537
0.0389333
0.0395634
0.0400778
0.0405018
0.0408416
0.0410884
0.0412146
0.0411788
0.0409454
0.0405077
0.0398569
0.0389644
0.0378191
0.0363862
0.00960845
0.0216996
0.0282786
0.033235
0.0365959
0.0385801
0.0399471
0.0409709
0.0417844
0.0424658
0.0430317
0.0435152
0.0439617
0.0443784
0.0447644
0.0450844
0.0452584
0.0452198
0.0450286
0.044716
0.0442139
0.0435088
0.0426915
0.0132382
0.0259346
0.0328555
0.0390335
0.042428
0.0433707
0.044166
0.0447896
0.0453162
0.045856
0.0463209
0.0467279
0.0471881
0.047689
0.0482551
0.0488486
0.0492824
0.0493469
0.0492912
0.0492636
0.0490283
0.0484916
0.0479592
0.0137943
0.0286754
0.0375925
0.0457204
0.0484716
0.0473745
0.0478978
0.0483742
0.0485433
0.0489287
0.0492882
0.0495706
0.0499623
0.0504927
0.0511638
0.0519265
0.0525326
0.0527018
0.0526612
0.0527689
0.0528581
0.0528406
0.0523784
0.0120218
0.0273177
0.0380833
0.045622
0.0486026
0.049103
0.0505187
0.0515531
0.0513166
0.0511493
0.0513113
0.0515524
0.0519395
0.0525257
0.0532756
0.0540904
0.0547778
0.0551592
0.0552254
0.0554042
0.0559401
0.0561632
0.0557292
0.0118268
0.0291798
0.0394592
0.0471543
0.0501923
0.0502852
0.0514526
0.0523135
0.0523853
0.0525159
0.0527411
0.0530011
0.0534287
0.0540569
0.0548582
0.0557328
0.0565021
0.0572963
0.0576009
0.0573736
0.0577755
0.0577151
0.0581333
0.0121906
0.0299352
0.0394198
0.0480914
0.0515977
0.0509319
0.0514487
0.0524601
0.0528704
0.0532749
0.0536886
0.0540715
0.0545217
0.0550967
0.055795
0.0565556
0.0572425
0.0579611
0.0586114
0.0584729
0.0584036
0.0585238
0.0592544
0.0118594
0.0277829
0.0368978
0.0444861
0.0484195
0.0495502
0.0508011
0.0521092
0.0529491
0.053621
0.0542255
0.0547371
0.0552051
0.0557196
0.0562841
0.0568738
0.0574159
0.0578539
0.0582266
0.0583239
0.058353
0.0585209
0.058876
0.011986
0.0268469
0.0349761
0.0411885
0.0453524
0.0479631
0.0499465
0.0515658
0.0527714
0.0536908
0.054422
0.0550045
0.0555008
0.0559754
0.0564431
0.0568971
0.0572963
0.0575826
0.0577008
0.0576597
0.0576533
0.0577551
0.0577653
0.0125298
0.0269921
0.0346744
0.0401876
0.0442188
0.0470631
0.049221
0.0509766
0.0523517
0.053413
0.0542344
0.0548704
0.0553864
0.0558312
0.0562252
0.0565735
0.0568533
0.0570389
0.0570802
0.0569246
0.0567117
0.0565832
0.0563698
0.0132085
0.027753
0.0350228
0.0400177
0.0436809
0.0463855
0.0484947
0.0502265
0.0516256
0.0527298
0.0535895
0.0542528
0.0547731
0.0551888
0.0555205
0.0557782
0.055955
0.0560378
0.0559985
0.0557964
0.0554869
0.0551898
0.0548021
0.0139372
0.0284474
0.0353252
0.0398737
0.0431802
0.0456672
0.0476368
0.0492624
0.0505973
0.0516708
0.0525176
0.0531748
0.0536809
0.0540653
0.0543475
0.0545403
0.0546471
0.0546634
0.0545753
0.0543679
0.0540667
0.0537062
0.0532171
0.0143685
0.0288355
0.035352
0.0395225
0.0425262
0.0448031
0.0466135
0.0481038
0.0493346
0.0503366
0.051137
0.0517638
0.0522449
0.0526037
0.0528586
0.0530244
0.05311
0.0531176
0.0530418
0.0528746
0.0526157
0.0522536
0.0517361
0.0144726
0.0288131
0.0350532
0.038934
0.0416948
0.0437863
0.0454454
0.0468035
0.0479252
0.0488449
0.049588
0.0501779
0.050637
0.0509851
0.0512399
0.0514163
0.0515246
0.0515683
0.0515428
0.0514366
0.0512322
0.050902
0.050408
0.0143429
0.0284049
0.0344302
0.0381034
0.0406849
0.0426302
0.0441654
0.0454143
0.046444
0.0472926
0.0479868
0.0485489
0.048999
0.0493553
0.0496337
0.0498476
0.0500051
0.050107
0.0501456
0.0501039
0.0499576
0.0496775
0.0492374
0.0140301
0.0276748
0.0335163
0.0370444
0.0395046
0.0413492
0.042798
0.0439712
0.0449378
0.0457392
0.0464044
0.0469566
0.0474148
0.0477961
0.0481145
0.0483801
0.0485972
0.0487628
0.0488653
0.0488851
0.0487972
0.0485766
0.0482056
0.0135597
0.0266878
0.0323573
0.0357829
0.0381688
0.0399556
0.0413567
0.0424902
0.0434259
0.0442084
0.0448686
0.0454308
0.0459139
0.0463334
0.046701
0.0470235
0.0473015
0.0475285
0.0476905
0.047768
0.0477384
0.0475818
0.0472864
0.0129663
0.0255053
0.0310038
0.034353
0.0366986
0.0384622
0.0398494
0.0409754
0.0419104
0.0427006
0.0433787
0.0439697
0.0444916
0.0449589
0.045381
0.0457616
0.0460985
0.0463831
0.046601
0.0467342
0.0467635
0.0466734
0.0464556
0.0122815
0.0241828
0.0295058
0.0327927
0.0351201
0.0368855
0.0382847
0.0394288
0.0403876
0.0412079
0.0419229
0.0425579
0.0431302
0.0436526
0.0441325
0.0445717
0.0449662
0.0453066
0.0455793
0.0457683
0.045858
0.0458361
0.0456961
0.0115307
0.022767
0.0279097
0.0311412
0.0334632
0.0352465
0.0366752
0.037856
0.0388568
0.039724
0.0404909
0.0411819
0.0418133
0.0423967
0.042938
0.0434373
0.04389
0.0442869
0.0446157
0.0448627
0.0450151
0.0450628
0.0450003
0.0107321
0.0212951
0.0262561
0.029436
0.0317596
0.0335702
0.0350398
0.0362696
0.037325
0.0382512
0.0390806
0.0398367
0.0405346
0.0411843
0.0417906
0.042353
0.0428666
0.0433228
0.0437109
0.0440191
0.0442368
0.0443555
0.0443702
0.00989469
0.0197937
0.0245786
0.0277115
0.0300415
0.0318851
0.0334025
0.0346891
0.0358075
0.036801
0.0377007
0.0385288
0.039299
0.04002
0.0406957
0.0413251
0.0419035
0.0424231
0.0428746
0.0432478
0.0435337
0.0437248
0.0438164
0.00902611
0.0182802
0.0229048
0.025999
0.0283404
0.0302213
0.0317913
0.0331401
0.0343271
0.0353937
0.0363692
0.0372745
0.0381217
0.0389187
0.0396682
0.0403692
0.0410171
0.0416048
0.0421241
0.0425662
0.042923
0.0431878
0.043356
0.00821922
0.0167554
0.0212574
0.0243279
0.0266876
0.0286104
0.0302371
0.0316518
0.0329114
0.034055
0.0351103
0.0360966
0.0370251
0.0379021
0.03873
0.0395072
0.0402295
0.0408903
0.041482
0.0419966
0.0424269
0.0427666
0.043011
0.00746495
0.0153227
0.0196963
0.0227445
0.0251235
0.0270887
0.0287726
0.0302552
0.0315899
0.0328133
0.0339513
0.0350216
0.0360346
0.0369955
0.037906
0.0387642
0.0395659
0.0403048
0.0409734
0.0415643
0.0420706
0.0424863
0.0428066
0.00677499
0.0140395
0.0182733
0.0212933
0.0236882
0.025694
0.0274345
0.028985
0.0303952
0.0316995
0.0329214
0.0340775
0.0351778
0.036226
0.0372231
0.0381669
0.0390529
0.0398745
0.0406246
0.0412957
0.0418807
0.0423737
0.0427698
0.00617336
0.0129492
0.0170332
0.0200139
0.0224175
0.0244592
0.0262533
0.0278697
0.0293544
0.0307391
0.0320457
0.0332891
0.0344788
0.0356176
0.0367059
0.0377406
0.0387166
0.0396269
0.0404638
0.0412194
0.0418862
0.042458
0.0429299
0.00567808
0.0120703
0.0160021
0.0189335
0.0213374
0.0234088
0.0252519
0.0269307
0.0284875
0.0299515
0.0313427
0.0326749
0.0339566
0.0351904
0.0363755
0.037508
0.0385815
0.039588
0.0405186
0.0413642
0.0421169
0.0427699
0.0433182
0.00529325
0.0113951
0.0151851
0.0180629
0.0204607
0.0225558
0.0244427
0.0261799
0.0278059
0.0293476
0.0308237
0.0322468
0.0336248
0.0349598
0.0362499
0.0374897
0.0386711
0.039784
0.0408174
0.0417609
0.0426051
0.0433427
0.0439687
0.0050103
0.0109009
0.0145703
0.0173973
0.0197865
0.021901
0.0238273
0.0256189
0.0273115
0.0289301
0.0304924
0.0320105
0.0334916
0.0349373
0.0363445
0.0377055
0.0390093
0.0402428
0.041392
0.0424437
0.0433871
0.044214
0.0449195
0.0048142
0.0105609
0.014137
0.0169217
0.0193032
0.021435
0.0233976
0.0252407
0.0269981
0.028694
0.0303459
0.0319658
0.0335605
0.0351314
0.0366733
0.0381756
0.0396229
0.0409971
0.0422796
0.0434535
0.0445058
0.0454277
0.0462148
0.00468877
0.01035
0.0138616
0.016616
0.0189939
0.0211428
0.0231395
0.025032
0.0268535
0.0286286
0.0303758
0.0321078
0.033832
0.035549
0.0372515
0.0389242
0.0405449
0.0420878
0.0435273
0.0448413
0.0460142
0.0470371
0.047907
0.00461888
0.0102468
0.0137241
0.0164633
0.0188433
0.0210095
0.023038
0.0249774
0.0268623
0.0287196
0.0305699
0.0324286
0.0343043
0.0361974
0.0380978
0.0399829
0.0418198
0.0435701
0.0451975
0.0466732
0.0479791
0.0491075
0.0500591
0.00459194
0.010241
0.0137198
0.0164614
0.0188481
0.0210284
0.0230824
0.0250627
0.0270082
0.02895
0.0309131
0.0329172
0.0349743
0.0370859
0.0392382
0.041397
0.0435112
0.0455216
0.0473757
0.0490366
0.0504857
0.0517196
0.0527464
0.00460345
0.0103572
0.0138876
0.0166467
0.0190329
0.0212102
0.0232713
0.0252777
0.0272753
0.0293011
0.0313868
0.0335594
0.0358379
0.0382275
0.0407099
0.043233
0.045713
0.0480547
0.0501812
0.0520481
0.0536421
0.0549715
0.0560572
0.00467877
0.0107369
0.0143828
0.0171399
0.0194729
0.0215922
0.0236154
0.0256161
0.0276467
0.0297504
0.0319672
0.0343353
0.0368871
0.0396372
0.0425648
0.0455886
0.0485662
0.0513336
0.0537793
0.0558599
0.0575822
0.0589789
0.0600922
0.00496382
0.011908
0.0156639
0.0182341
0.0203237
0.0222426
0.0241337
0.0260703
0.0281008
0.0302686
0.0326214
0.035214
0.0381027
0.0413254
0.0448656
0.0486017
0.0522813
0.0555965
0.0583945
0.060664
0.0624635
0.0638708
0.0649599
0.00618194
0.0156166
0.0189222
0.0205321
0.0218358
0.0232429
0.0248352
0.0266197
0.0286038
0.0308141
0.0333018
0.0361445
0.039439
0.0432735
0.0476632
0.0524476
0.0571731
0.0611832
0.0643167
0.0666839
0.0684549
0.069779
0.0707695
0.0115497
0.0262881
0.0264791
0.0249433
0.0242675
0.0246182
0.0256792
0.0272106
0.0291007
0.0313286
0.0339406
0.0370429
0.0407947
0.0453808
0.0509248
0.0572963
0.0637377
0.0685726
0.07189
0.074147
0.0757114
0.0768204
0.0776201
0.0280856
0.0499637
0.0400753
0.0317571
0.0274809
0.0261791
0.0265199
0.0277404
0.0295128
0.0317384
0.03445
0.0377838
0.0419792
0.0473754
0.0543561
0.0631274
0.0729008
0.0784332
0.0814594
0.0832238
0.0843338
0.085076
0.0855925
0.0852258
0.0875732
0.0559254
0.0384392
0.0302221
0.0273466
0.027083
0.0280663
0.0297513
0.0319681
0.0347358
0.0382121
0.0427042
0.0487125
0.0570228
0.0689346
0.0869468
0.0916055
0.0932074
0.0939277
0.0943269
0.0945788
0.0947494
0.0212072
0.0183524
0.0173341
0.0180357
0.0350735
0.0341994
0.0336071
0.0333995
0.0419993
0.0414772
0.0409343
0.0404224
0.0475172
0.0471141
0.0465137
0.0457837
0.0523175
0.0520235
0.0512919
0.0503102
0.0555472
0.0551521
0.0543418
0.0532084
0.0589354
0.0593188
0.0582168
0.0561057
0.0596735
0.0594512
0.0583481
0.0567532
0.058489
0.057985
0.0572711
0.056317
0.0573103
0.0568881
0.0563181
0.0555611
0.0558963
0.0554819
0.0549387
0.0542512
0.054272
0.0538404
0.0533073
0.0526702
0.0526519
0.0522174
0.051707
0.0511231
0.0511741
0.0507584
0.0502857
0.0497596
0.0498838
0.0495027
0.0490774
0.0486114
0.0487714
0.0484345
0.0480609
0.0476539
0.0478068
0.0475176
0.0471964
0.046846
0.0469571
0.0467158
0.0464453
0.0461482
0.0461949
0.046
0.0457779
0.0455306
0.045502
0.0453515
0.0451753
0.0449748
0.0448705
0.0447626
0.04463
0.0444735
0.0443026
0.0442355
0.0441444
0.0440299
0.043809
0.0437812
0.0437298
0.0436554
0.043407
0.0434171
0.043404
0.0433678
0.0431189
0.0431657
0.0431893
0.0431897
0.0429701
0.0430524
0.0431114
0.043147
0.0429876
0.0431047
0.0431979
0.0432673
0.0432011
0.0433522
0.0434787
0.0435806
0.0436422
0.0438265
0.0439854
0.0441186
0.044345
0.044562
0.0447522
0.0449156
0.0453477
0.0455968
0.0458173
0.0460094
0.0466943
0.0469744
0.0472238
0.0474429
0.0484362
0.0487456
0.0490218
0.0492653
0.0506343
0.05097
0.0512694
0.0515337
0.0533601
0.0537167
0.0540338
0.0543132
0.056696
0.0570647
0.0573908
0.057677
0.0607344
0.0611017
0.0614245
0.061706
0.0655738
0.0659213
0.066224
0.0664864
0.0713138
0.0716184
0.0718816
0.0721079
0.0780487
0.0782858
0.078489
0.0786625
0.0858634
0.0860118
0.0861382
0.0862454
0.0948376
0.0948857
0.0949264
0.0949609
0.0242296
0.0280313
0.0289341
0.0289652
0.0286929
0.0282386
0.0276365
0.0269739
0.0262946
0.0256248
0.0249419
0.024167
0.0232499
0.0221805
0.0208489
0.0189589
0.015972
0.0114514
0.00480308
0.0336551
0.0338271
0.0334026
0.032771
0.0321141
0.0314431
0.0307483
0.030052
0.0293224
0.0285383
0.0277066
0.0267805
0.0256855
0.0243799
0.0228191
0.0208435
0.0179919
0.0135656
0.0058025
0.0396658
0.0386225
0.037408
0.0362621
0.0352588
0.0343682
0.0335578
0.0328142
0.0320471
0.0311691
0.0302169
0.0291563
0.0278727
0.0263073
0.0244504
0.0222452
0.0193886
0.0151653
0.00725313
0.0446251
0.0428675
0.0410216
0.0394188
0.0380991
0.0370081
0.0360697
0.0352858
0.0344875
0.0334906
0.0324506
0.0313155
0.029841
0.0279668
0.0257497
0.0232422
0.0203317
0.0159387
0.00809424
0.0483823
0.0464084
0.0441245
0.0421263
0.0405827
0.0393071
0.0382089
0.0373034
0.0363655
0.0352696
0.0341947
0.032879
0.0311465
0.0289966
0.0264731
0.0235333
0.0203061
0.0158643
0.00792495
0.051077
0.0486556
0.0463543
0.0443075
0.0426233
0.0411983
0.0400072
0.0390903
0.0380432
0.0365884
0.0350638
0.0333405
0.0312347
0.0288159
0.0261565
0.0230198
0.0193846
0.0144207
0.00671036
0.0533383
0.0506305
0.0482249
0.0460409
0.0442149
0.0426778
0.0413269
0.0401751
0.0388319
0.0369805
0.0350499
0.0330496
0.0305923
0.0277729
0.0246973
0.0213125
0.0177258
0.0127107
0.00573697
0.0541399
0.0514794
0.0491967
0.0470981
0.0453031
0.0436467
0.0420034
0.0404951
0.0388638
0.0368118
0.0346143
0.0324136
0.0297588
0.0267949
0.0236941
0.0204741
0.017014
0.0122886
0.00548357
0.0542987
0.0516632
0.0494733
0.0474011
0.045463
0.0436233
0.0418118
0.0400509
0.0382167
0.0361591
0.0339367
0.0316382
0.0290166
0.0261853
0.0232809
0.0203202
0.0170722
0.0128069
0.00571619
0.0539525
0.0514453
0.0492007
0.0470499
0.0449835
0.0430574
0.0412041
0.0393784
0.0375061
0.0355019
0.0333549
0.0310773
0.028562
0.0258469
0.0230077
0.020066
0.0168459
0.0126801
0.00560137
0.0528879
0.0506494
0.0484666
0.0463597
0.0443514
0.0424615
0.0406477
0.0388584
0.0370276
0.0350903
0.0330174
0.0307905
0.0283463
0.0256844
0.0228187
0.0197509
0.0163685
0.0120468
0.0052397
0.0514781
0.0495259
0.0475411
0.0456047
0.0437454
0.0419656
0.0402382
0.0385211
0.0367558
0.0348845
0.0328675
0.0306773
0.0282859
0.0256689
0.0227952
0.0196392
0.0160417
0.0115235
0.00509539
0.0500745
0.0483842
0.0466357
0.044906
0.0432201
0.0415733
0.0399466
0.0383092
0.036612
0.0348012
0.0328318
0.0306836
0.0283499
0.0257988
0.0229832
0.0198385
0.016156
0.0115317
0.00532871
0.0488378
0.0473746
0.0458465
0.0443117
0.0427878
0.0412686
0.0397395
0.0381779
0.0365436
0.0347889
0.0328745
0.0307882
0.0285299
0.0260725
0.0233647
0.0203129
0.0167089
0.0121335
0.00584243
0.0478048
0.0465344
0.0451952
0.0438277
0.0424433
0.0410363
0.0395951
0.0381016
0.0365242
0.0348254
0.032976
0.0309677
0.0287999
0.0264504
0.0238682
0.0209559
0.0175269
0.0131325
0.00647265
0.0469522
0.045846
0.0446655
0.0434383
0.0421719
0.0408616
0.0394977
0.0380657
0.036542
0.0349
0.0331199
0.0311951
0.0291223
0.0268824
0.024429
0.0216721
0.0184428
0.0142538
0.00710563
0.0462393
0.0452752
0.0442299
0.0431221
0.0419571
0.0407312
0.0394368
0.0380624
0.0365918
0.0350071
0.0332956
0.031452
0.0294711
0.0273357
0.0250055
0.0223981
0.019351
0.0153551
0.00770212
0.0456282
0.0447894
0.0438622
0.0428593
0.0417846
0.0406354
0.039406
0.0380882
0.0366712
0.0351439
0.0334984
0.0317306
0.0298344
0.0277938
0.0255721
0.0230869
0.0201742
0.0162862
0.008275
0.0450909
0.0443647
0.0435439
0.0426365
0.0416454
0.0405689
0.039403
0.0381424
0.0367802
0.03531
0.0337272
0.0320283
0.030207
0.0282465
0.0261104
0.0237205
0.0208824
0.0169799
0.00869254
0.0446101
0.0439879
0.0432652
0.0424474
0.0415362
0.0405309
0.0394289
0.0382269
0.0369209
0.0355074
0.0339836
0.0323462
0.0305879
0.0286927
0.0266233
0.0242879
0.0214677
0.0174776
0.0088644
0.04418
0.0436555
0.0430254
0.0422932
0.0414602
0.0405257
0.0394885
0.0383465
0.0370977
0.03574
0.0342715
0.0326883
0.0309832
0.02914
0.0271103
0.0247932
0.0219472
0.0178357
0.0088815
0.0438042
0.043373
0.0428315
0.0421822
0.0414259
0.0405621
0.0395903
0.0385092
0.0373178
0.0360145
0.0345972
0.0330634
0.0314049
0.0295958
0.0275838
0.0252587
0.0223629
0.0181336
0.00893087
0.0434949
0.043153
0.0426969
0.0421282
0.0414471
0.0406535
0.0397468
0.0387264
0.0375916
0.0363401
0.0349727
0.0334838
0.0318597
0.0300713
0.0280616
0.0257132
0.0227602
0.0184329
0.0090771
0.04327
0.0430139
0.0426401
0.0421493
0.0415416
0.0408167
0.0399741
0.0390126
0.0379326
0.036733
0.0354108
0.0339582
0.0323585
0.03058
0.0285614
0.026181
0.0231692
0.0187558
0.00927445
0.0431524
0.0429784
0.0426834
0.0422674
0.0417303
0.0410713
0.0402906
0.0393873
0.0383604
0.0372073
0.0359233
0.0344986
0.0329144
0.031136
0.0290993
0.0266795
0.0236048
0.0191004
0.00948029
0.0431677
0.043072
0.0428516
0.0425067
0.0420368
0.0414414
0.0407199
0.0398707
0.0388918
0.0377793
0.0365265
0.0351216
0.0335437
0.0317558
0.0296914
0.0272234
0.0240765
0.0194647
0.00968542
0.0433436
0.0433222
0.0431727
0.0428949
0.0424884
0.0419524
0.0412855
0.0404855
0.0395489
0.0384704
0.0372413
0.0358477
0.0342664
0.0324586
0.0303556
0.0278279
0.0245948
0.0198512
0.00986884
0.0437102
0.0437591
0.0436759
0.0434607
0.0431128
0.0426313
0.0420141
0.0412578
0.0403576
0.0393063
0.0380931
0.0367019
0.0351072
0.033268
0.0311135
0.028511
0.0251719
0.0202618
0.00997965
0.0442992
0.044414
0.0443924
0.0442347
0.0439405
0.0435083
0.0429354
0.0422174
0.0413477
0.040317
0.0391122
0.0377144
0.0360958
0.0342127
0.0319914
0.0292954
0.0258253
0.0207107
0.0100165
0.0451447
0.0453208
0.0453558
0.0452505
0.0450047
0.0446167
0.0440831
0.0433982
0.0425536
0.0415376
0.0403342
0.0389216
0.0372685
0.035328
0.0330232
0.0302123
0.0265855
0.021239
0.0100908
0.0462842
0.0465168
0.046603
0.0465447
0.0463421
0.0459935
0.0454948
0.0448388
0.0440151
0.0430091
0.0418016
0.0403666
0.0386691
0.036658
0.034252
0.0313043
0.0274965
0.0219022
0.010323
0.04776
0.0480435
0.0481751
0.0481582
0.0479938
0.0476804
0.0472131
0.0465832
0.0457779
0.0447794
0.0435641
0.0421014
0.0403509
0.0382564
0.0357318
0.0326253
0.0286117
0.0227483
0.0107298
0.0496202
0.0499477
0.0501182
0.0501368
0.0500059
0.0497241
0.0492861
0.0486814
0.0478945
0.0469036
0.0456802
0.0441872
0.0423775
0.0401883
0.0375279
0.0342389
0.0299891
0.0238128
0.0112516
0.0519198
0.0522826
0.052484
0.0525318
0.0524299
0.0521772
0.0517679
0.0511899
0.0504245
0.0494455
0.0482176
0.0466961
0.0448244
0.0425308
0.0397171
0.0362184
0.0316921
0.0251337
0.0118793
0.0547211
0.0551077
0.0553306
0.0554006
0.0553232
0.0550981
0.0547188
0.0541717
0.0534349
0.0524767
0.0512542
0.0497118
0.0477802
0.0453739
0.0423833
0.0386333
0.0337755
0.0267615
0.0126298
0.0580937
0.0584893
0.0587223
0.0588066
0.0587496
0.0585515
0.0582056
0.0576967
0.0569997
0.0560774
0.0548776
0.0533308
0.0513485
0.0488239
0.0456246
0.0415673
0.0362997
0.0287193
0.0135074
0.0621141
0.0625001
0.06273
0.0628203
0.0627795
0.0626088
0.0623013
0.0618408
0.0611997
0.0603354
0.0591854
0.0576628
0.0556516
0.0530078
0.0495624
0.0451156
0.0393321
0.0310607
0.0145881
0.0668643
0.0672196
0.067432
0.0675193
0.0674911
0.0673488
0.067086
0.0666864
0.0661212
0.0653441
0.0642833
0.0628318
0.0608355
0.0580883
0.0543481
0.0493755
0.0429209
0.0338157
0.0159105
0.0724319
0.072734
0.0729143
0.0729904
0.0729713
0.072859
0.0726476
0.0723223
0.0718557
0.0712011
0.0702818
0.0689728
0.0670736
0.0642784
0.060186
0.0544273
0.0470561
0.0369559
0.0174693
0.0789094
0.0791377
0.0792734
0.0793311
0.0793187
0.0792377
0.0790839
0.0788453
0.0784992
0.0780047
0.0772895
0.076223
0.0745643
0.0718708
0.0673981
0.0602759
0.0515832
0.0403291
0.0192043
0.0863973
0.0865368
0.0866191
0.0866541
0.0866467
0.0865982
0.0865061
0.086363
0.0861541
0.0858517
0.0854028
0.0847001
0.083508
0.0812705
0.0766258
0.0666627
0.0560234
0.0435457
0.0209918
0.0950096
0.0950541
0.0950803
0.0950912
0.0950888
0.0950734
0.0950444
0.0949995
0.0949342
0.0948394
0.0946967
0.0944634
0.0940218
0.0929628
0.0894771
0.0723851
0.0592447
0.0458427
0.0225192
)
;

boundaryField
{
    leftWall
    {
        type            kqRWallFunction;
        value           nonuniform List<scalar> 
50
(
0.00104659
0.00224664
0.00315687
0.0039187
0.00457432
0.00516005
0.00570121
0.00621407
0.00698722
0.00805286
0.00960845
0.0132382
0.0137943
0.0120218
0.0118268
0.0121906
0.0118594
0.011986
0.0125298
0.0132085
0.0139372
0.0143685
0.0144726
0.0143429
0.0140301
0.0135597
0.0129663
0.0122815
0.0115307
0.0107321
0.00989469
0.00902611
0.00821922
0.00746495
0.00677499
0.00617336
0.00567808
0.00529325
0.0050103
0.0048142
0.00468877
0.00461888
0.00459194
0.00460345
0.00467877
0.00496382
0.00618194
0.0115497
0.0280856
0.0852258
)
;
    }
    rightWall
    {
        type            kqRWallFunction;
        value           nonuniform List<scalar> 
50
(
0.0010497
0.0020361
0.00274131
0.00337556
0.0039406
0.00433476
0.00443028
0.00441178
0.00480308
0.0058025
0.00725313
0.00809424
0.00792495
0.00671036
0.00573697
0.00548357
0.00571619
0.00560137
0.0052397
0.00509539
0.00532871
0.00584243
0.00647265
0.00710563
0.00770212
0.008275
0.00869254
0.0088644
0.0088815
0.00893087
0.0090771
0.00927445
0.00948029
0.00968542
0.00986884
0.00997965
0.0100165
0.0100908
0.010323
0.0107298
0.0112516
0.0118793
0.0126298
0.0135074
0.0145881
0.0159105
0.0174693
0.0192043
0.0209918
0.0225192
)
;
    }
    lowerWall
    {
        type            kqRWallFunction;
        value           nonuniform List<scalar> 
62
(
0.00104659
0.00260808
0.00379939
0.00470319
0.00541463
0.00597739
0.00642021
0.00676597
0.00703055
0.00723007
0.00737818
0.00748573
0.00755959
0.00760165
0.00760809
0.00756522
0.00740692
0.00692475
0.00633983
0.00573897
0.0049819
0.00366596
0.00119153
0.00119153
0.00322229
0.00467831
0.00603225
0.00735183
0.0088173
0.0109138
0.0155907
0.0212072
0.0183524
0.0173341
0.0180357
0.00144987
0.00351587
0.00495749
0.0064034
0.00806212
0.0102326
0.0133498
0.0179138
0.00144987
0.00363394
0.00487057
0.00550293
0.00573554
0.00566287
0.00541507
0.00504317
0.00475233
0.00475568
0.00476466
0.00450629
0.00437884
0.00453604
0.00475809
0.00433191
0.0033569
0.00226478
0.0010497
)
;
    }
    atmosphere
    {
        type            inletOutlet;
        inletValue      uniform 0.1;
        value           nonuniform List<scalar> 
46
(
0.1
0.1
0.0559254
0.0384392
0.0302221
0.0273466
0.027083
0.0280663
0.0297513
0.0319681
0.0347358
0.0382121
0.0427042
0.0487125
0.0570228
0.0689346
0.1
0.1
0.1
0.1
0.1
0.1
0.1
0.1
0.1
0.1
0.1
0.1
0.1
0.1
0.1
0.1
0.1
0.1
0.1
0.1
0.1
0.1
0.1
0.1
0.1
0.1
0.0723851
0.0592447
0.0458427
0.0225192
)
;
    }
    defaultFaces
    {
        type            empty;
    }
}


// ************************************************************************* //
