/*--------------------------------*- C++ -*----------------------------------*\
  =========                 |
  \\      /  F ield         | OpenFOAM: The Open Source CFD Toolbox
   \\    /   O peration     | Website:  https://openfoam.org
    \\  /    A nd           | Version:  9
     \\/     M anipulation  |
\*---------------------------------------------------------------------------*/
FoamFile
{
    format      ascii;
    class       surfaceScalarField;
    location    "9.85";
    object      phi;
}
// * * * * * * * * * * * * * * * * * * * * * * * * * * * * * * * * * * * * * //

dimensions      [0 3 -1 0 0 0 0];

internalField   nonuniform List<scalar> 
1300
(
11.2529
1.87548
-4.52815
11.2529
-4.90412
1.87548
-4.20265
4.20265
-1.25543
1.25543
5.7124
5.54046
-2.4709
2.4709
-3.00322
3.00322
-2.88225
2.88225
-1.06194
1.06194
-1.02833
1.02833
0.706998
-0.706998
-3.30718
3.30718
-1.52698
1.52698
-2.97009
2.97009
6.12855
-6.12855
-3.49472
3.49472
-0.780593
0.780593
-4.26338
15.5162
6.98948
6.98948
-2.41678
2.41678
-1.25608
1.25608
1.41034
-1.41034
9.72293
-9.72293
-5.19478
-6.12892
1.89432
-13.6767
-3.00981
-3.00981
-2.7054
2.7054
-0.829928
1.04555
3.47204
-3.47204
-0.790357
0.790357
-4.26563
0.0629718
-4.26563
4.01757
0.185081
4.01757
-1.40281
0.147383
-1.40281
4.57648
-4.57648
1.13978
0.115646
1.13978
3.92659
-3.92659
-5.70995
11.4224
5.54291
-5.32051
20.8368
-5.93235
11.4728
-3.88794
3.88794
-2.38191
-0.0889848
-2.38191
2.50106
-0.030162
2.50106
-3.90545
3.90545
-2.77464
-0.228586
-2.77464
3.13437
-0.131143
3.13437
3.64869
-3.64869
-2.93195
0.0497014
-2.93195
2.73687
0.145384
2.73687
0.771042
1.10443
-2.64652
3.69207
-1.10443
0.0424987
1.02614
0.0357985
1.02614
-1.01455
-0.0137831
-1.01455
1.05009
-0.0217517
1.05009
0.752517
-0.0455193
0.752517
-0.761553
0.0545547
-0.761553
-8.52435
-8.70602
-3.42192
0.11474
-3.42192
-1.53656
0.00958244
-1.53656
1.57029
-0.0433106
1.57029
-2.56891
2.56891
-3.29269
0.3226
-3.29269
4.80727
1.32128
4.80727
5.0462
6.20666
16.2991
-16.2991
10.1705
-3.21769
-0.277033
-3.21769
-3.6825
-6.04044
3.6825
-0.187772
-0.850845
0.0702525
-0.850845
5.62609
1.3634
5.62609
2.62433
0.112538
-2.62433
0.207553
4.57291
-4.57291
1.45531
0.961463
1.45531
-1.19085
1.19085
1.12417
-0.074088
-1.12417
-0.131909
1.386
0.0243412
1.386
-1.40974
-0.000594453
-1.40974
7.60666
-13.7356
-7.86665
3.1354
0.171778
-3.1354
0.125593
3.55653
-0.0844882
3.55653
-3.31473
3.31473
-3.60741
0.135364
-3.60741
-0.711255
-0.0791013
-0.711255
0.879484
-0.0891273
0.879484
-4.49119
0.225561
-4.49119
-3.70765
0.414956
3.70765
0.309924
1.30018
-1.30018
-1.51144
0.108631
-1.51144
-4.5615
0.0703092
4.5615
0.0149824
-4.67132
0.094841
-4.67132
-3.71011
0.1027
3.71011
0.21648
4.5884
1.03769
-4.5884
0.661812
-5.3696
11.5763
-5.88326
11.4262
-3.53256
-0.35538
-3.53256
4.05791
-0.169965
4.05791
2.65339
0.316709
-2.65339
0.271473
2.64529
-0.144231
2.64529
-3.87289
-0.0325619
-3.87289
3.70451
0.200941
3.70451
2.70323
-0.0579369
-2.70323
-0.0714097
3.13513
-0.000760251
3.13513
3.65028
-0.00158905
3.65028
-3.52687
-0.121824
-3.52687
3.18837
-3.18837
3.09316
0.0952051
-3.09316
0.161211
-5.07402
5.07343
-0.00799897
-5.06602
1.01814
1.01814
0.801681
-0.049164
0.801681
-0.862967
0.101414
-0.862967
8.44064
-16.3073
8.64621
-17.1706
7.25854
-20.9352
7.93737
-16.6434
3.70016
-3.70016
3.63079
0.0693751
-3.63079
0.208869
-1.50803
-0.028536
-1.50803
-2.33455
-0.234353
-2.33455
2.90003
-0.331129
2.90003
-3.74467
3.74467
-4.12634
0.381662
4.12634
0.680929
3.20232
-0.0671897
-3.20232
-0.0153752
0.980319
0.159459
-0.980319
0.129474
4.79654
-0.22363
4.79654
-4.04553
-0.527385
-4.04553
-1.5149
0.00686964
1.5149
-0.059582
-1.25871
0.0678557
-1.25871
-5.0745
0.00847736
-5.0387
-1.40127
-1.40127
1.30414
4.9962
-3.57575
0.0488783
3.57575
-0.0192167
3.53072
0.213959
-3.53072
0.21599
-3.27041
0.0820416
3.27041
0.0443142
-0.688123
-0.0231326
-0.688123
-1.07606
1.07606
-0.957083
-0.118975
0.957083
-0.0775993
1.4567
-0.156524
1.4567
1.54815
0.0221403
-1.54815
0.036711
-4.911
0.239678
-4.911
4.05514
0.00277385
4.05514
-3.91806
-0.127469
3.91806
-0.267775
-0.00372029
5.07715
-1.01442
-0.000133017
1.01442
-5.10149
5.10136
-0.693787
0.00566416
0.693787
0.107895
1.02897
0.16188
-1.02897
0.166003
3.73115
-0.0266313
-3.73115
0.0309849
-2.05422
-0.280337
-2.05422
-3.21676
-0.3158
3.21676
-0.31673
-5.11499
-0.078121
5.19312
-5.13675
1.33683
0.0491721
-1.33683
5.15053
-1.18956
-0.110625
1.18956
-0.113498
1.65792
-0.201212
1.65792
5.03308
-0.236539
-5.03308
0.122084
-4.0518
0.178903
4.0518
0.00333983
-1.82709
-0.227124
1.82709
-0.169175
-13.1276
14.491
7.70914
-6.61553
-7.12005
-12.656
4.44763
7.12863
14.6181
-11.4221
-9.51316
-11.2965
2.86147
-2.69547
-3.81939
3.77387
23.1574
-23.0625
-18.4017
19.0827
20.7732
-20.5567
5.70797
5.71439
16.1605
-16.2495
-20.8391
20.4837
16.0627
-16.2913
21.6213
-21.6539
-25.127
25.1004
-16.1727
16.2224
-20.2411
20.1193
-20.9574
20.6896
-8.34103
-8.82954
15.9331
-15.8184
21.0479
-21.3249
-19.4016
19.7242
10.0466
4.44443
11.0843
-6.24716
11.9551
-5.22564
12.9348
8.3116
-16.6526
7.99569
-15.1157
9.67739
11.3705
-9.48962
-3.16635
-17.953
17.8685
-17.2761
17.3204
23.6675
-23.6046
-6.17241
11.8868
-5.25376
12.3824
-11.4094
-6.99233
10.0881
4.53002
8.68335
7.24977
-8.85513
-2.44133
-24.5153
24.2788
-25.4722
24.9448
0.0897281
2.43166
-2.52139
1.34581
-0.849931
3.28159
2.01154
2.11295
2.45185
-2.28997
0.243614
-2.765
-2.89691
-5.61173
5.72037
5.442
-5.32636
16.2128
6.94454
16.2278
-16.466
-6.59656
-16.2263
11.3671
7.71559
11.7487
12.0559
8.71729
12.1586
10.3608
-10.3305
-0.03026
-11.4764
21.8371
1.55629
-18.4687
-13.9387
9.14215
7.01835
9.11199
-10.0661
-6.18334
-9.79467
-11.0611
-9.77804
-11.3769
12.2597
8.22404
12.0897
-15.1195
15.1228
9.82422
6.23849
9.69307
-9.36501
-6.92629
-9.43642
27.0086
-6.44009
-20.5685
-12.8657
-12.2613
12.6648
8.9565
13.882
11.2184
13.913
8.65841
18.3501
-17.6149
5.35362
-9.98228
-6.19043
-9.82106
9.33309
6.88931
9.47847
-11.7444
-8.49666
-11.6956
-11.9441
-9.01335
11.9456
8.17362
-12.4569
-13.0153
12.5843
8.1053
7.5644
-17.0776
9.07899
-17.9085
-10.5704
-5.24796
-10.3616
10.7158
6.58796
-17.3038
-5.93683
24.2189
-12.8484
21.0526
-11.5651
-9.75979
-11.5805
-14.7192
-4.68239
-14.3042
-8.14536
7.86503
-8.93945
8.60832
26.8195
-15.9894
-10.8301
-12.3768
-8.17997
11.715
-0.630691
-12.8369
12.8066
-0.881761
12.053
16.4975
15.8668
-10.8881
-6.38796
-10.6721
10.2897
7.03066
10.3717
15.8674
7.80015
16.0525
-16.4701
-7.1345
-16.2445
5.0517
-5.1308
5.8706
-5.86373
15.428
9.51682
-15.2044
-9.31095
23.0561
-10.7939
-12.2622
-5.16053
5.35276
-0.19223
-1.87894
-0.533127
0.247466
-1.95686
-1.86252
1.90231
0.210646
5.5634
3.70088
-2.41379
2.48165
2.77932
2.70524
-0.191673
2.6063
-2.60064
19.2176
-11.5648
-7.6528
13.666
-13.5957
-2.57848
-18.9849
16.4064
2.6321
3.19684
-3.12659
-4.13608
-1.47566
-4.09937
3.13211
2.30989
3.29157
2.19497
3.52539
-8.44367
1.65358
6.79009
-6.24869
-3.67278
-13.3397
-6.30417
19.6439
16.4377
7.84107
-16.5598
0.33351
5.50873
-5.55204
-1.54336
-11.7964
8.58941
-10.1328
-15.2357
-6.39302
21.6287
-9.58484
-1.08727
9.37088
2.37785
-10.8701
-7.08292
10.7347
1.42392
-12.0601
23.9758
-11.9158
-18.448
8.51915
13.318
16.2347
-17.8632
9.3143
8.54895
-4.54526
7.71741
1.39458
7.57317
-19.9433
13.7599
11.4519
8.27225
-11.7686
1.97395
-17.9693
25.0195
-22.0242
-2.99539
12.8736
12.1459
13.4609
13.3586
-7.91085
21.3717
-3.41173
-18.6124
21.381
-13.1088
15.4831
-28.5918
-28.8417
10.2293
-17.8784
21.7876
-3.90926
-5.08212
-10.0374
22.9605
-2.0551
-20.9054
10.0346
-14.0046
-11.919
25.9236
-20.4446
18.8453
-6.46492
-12.3804
-12.46
-9.19385
12.2811
2.84174
-25.3927
30.7463
-7.04253
8.3096
1.38347
8.30884
10.6215
-15.7544
5.13294
9.82314
-16.2881
6.91107
-22.6655
-11.825
23.5897
-11.7647
-17.073
-15.374
-1.69898
4.7091
26.0372
-15.9275
11.7531
4.17433
8.48651
1.88524
-8.58172
-1.23935
1.01821
16.1701
-17.1883
10.4967
10.6092
11.865
4.30507
10.7541
7.11437
-10.7349
-0.960623
-14.7536
5.74024
-6.57997
-14.4974
20.2377
-16.2513
1.75387
-10.2931
-14.0259
24.319
-16.4835
11.4426
12.5332
18.4732
-19.6128
5.58692
-9.76695
-9.84586
10.6644
-17.2444
7.44219
12.7955
15.5475
2.53214
12.4716
11.1181
-19.0596
1.15103
18.3679
-15.9265
3.80506
10.108
-15.5582
0.184221
-10.1773
2.6407
-15.4891
-14.6631
16.2222
-20.9046
-12.3697
13.4335
2.61896
-13.7434
-0.560782
-5.07412
-3.07124
-5.30124
-3.29559
-5.64386
-11.2064
-1.98681
-9.21963
5.87822
-6.75843
-4.61843
7.07516
1.53316
-5.11885
5.00823
-5.75269
5.55148
-0.212182
13.0188
15.6546
7.47461
-8.47355
15.9482
-15.4357
23.2358
-29.3266
13.8909
15.6603
-22.7948
-13.6663
2.81905
2.23265
2.72992
13.7134
-14.7649
1.05149
-13.5957
17.8104
-4.21472
-20.0632
6.46752
-6.34977
5.36306
0.507543
5.33452
1.48491
6.92607
-8.41098
-4.37883
-4.43841
-9.06261
-13.7688
22.8314
4.84602
-13.0963
8.25027
-12.2135
17.0596
0.182667
-13.279
17.222
-10.296
17.7296
-12.0309
5.69872
12.7601
22.3416
-9.58145
16.1322
-6.61538
6.94753
-16.529
-6.82125
-11.3416
18.2309
-12.9774
14.7313
-1.04263
15.7739
-13.8919
3.09807
-2.02693
8.5823
8.78985
16.7868
-12.4817
12.0044
-18.6198
-4.52454
-16.0877
-3.2922
0.996176
-13.901
12.9049
12.277
-11.2808
-3.37036
9.30407
-5.93371
5.91798
-2.9605
-2.95749
-1.9275
-3.2033
1.95063
0.655673
6.57366
0.512939
-3.47344
-2.0877
-1.97981
10.4871
8.7305
-4.05855
3.86632
3.81108
-0.614241
1.01449
2.27709
4.83983
-3.82534
0.720026
4.1198
-2.40656
4.00178
1.50695
-4.02392
-0.0754469
-3.50138
12.0908
3.2887
-5.59859
1.77325
2.3653
-13.9301
19.5258
-11.2756
-8.25026
21.8911
3.00577
-14.2814
15.9791
-13.347
7.9777
-14.2819
-6.30365
-19.6507
-12.7061
-10.7207
18.9709
-12.1107
19.9518
3.73525
-20.2853
24.0206
-12.8455
6.45245
-9.70488
11.2118
-4.21409
-5.49079
11.3127
10.316
-11.0444
-0.752001
0.268302
8.59988
-8.33158
-1.5329
-7.78159
-16.4021
17.826
-8.26339
17.5777
7.68476
-7.62626
25.204
6.5728
-14.1991
-11.8752
-12.9625
-5.65012
10.5846
-1.89926
-7.53716
-14.2796
7.5951
-0.0219213
-19.1858
22.284
-3.0982
-12.1674
-1.59251
14.4661
-18.2307
1.94261
-11.3196
10.9644
12.3589
12.337
-20.7119
-0.193479
-12.4879
3.25441
-15.7423
15.4003
-6.88608
17.1153
-16.0188
11.4004
-14.4856
14.1199
-1.62233
14.4867
-9.35378
6.08174
-15.2756
-12.4338
14.8038
-8.5653
16.1873
-10.3157
26.503
-17.3583
14.9406
11.5624
-2.87249
-8.70798
-14.4742
11.6017
0.466329
8.77517
17.8155
-10.7012
16.8549
8.88609
-18.653
-8.35827
-25.8633
7.21025
-13.3301
-7.3468
14.557
11.1265
13.0117
4.71119
-11.7723
17.4851
-19.1841
-5.7204
-8.94266
15.0317
-3.42995
10.2172
-19.1599
-5.2719
13.1471
-0.337053
-12.8101
2.84227
-15.2119
5.20504
-20.417
15.6995
-16.2603
1.83053
-8.1803
-3.28832
-3.40182
-2.22163
-3.53106
-7.78816
5.56653
-1.32064
3.68758
-12.6918
12.3547
-5.11862
10.6851
-4.17627
-1.12497
4.34545
1.20603
11.8912
2.98959
-16.6559
-9.33391
14.8009
-5.46696
1.15316
-10.9115
3.88942
7.99496
13.8962
-24.4014
1.60659
-15.0493
-4.22086
6.45351
5.08321
17.3602
2.59526
6.81285
-0.359342
9.40812
2.37058
2.29298
-11.2219
12.2734
1.68298
15.5739
-1.91362
7.61234
3.4209
3.43048
2.12155
5.80489
2.98496
8.90296
0.491984
-3.94642
2.13776
-4.11757
-1.33568
-4.16673
-0.392862
3.844
-4.23686
10.745
-2.01454
5.27809
-2.00008
-5.1803
7.18039
-9.65288
-5.79454
-1.67474
-5.81991
7.59317
6.27088
-5.91842
-3.73446
2.40937
-15.1155
11.8725
-12.6245
-2.30848
21.7121
-9.66101
1.32943
-3.20856
-6.45215
-7.92781
8.00326
24.1925
1.01149
12.2767
18.8375
11.7545
1.05336
12.0676
-15.9769
-10.5979
-16.1704
-0.770048
13.6961
5.66576
20.3714
17.2282
13.7982
-5.36167
-24.5458
20.5961
-8.32275
16.3814
-3.57134
-16.8456
14.4734
8.7624
-17.0924
0.832074
-16.0136
-24.3363
-0.414934
12.7697
-11.4762
10.3513
7.28004
1.93959
-2.52288
-0.878937
2.64186
-0.348882
9.05923
-0.16898
-8.49618
8.66516
-3.67502
2.33934
-0.545268
4.41158
6.63512
4.62057
-3.8756
-8.11246
-8.87121
-5.05886
-17.1215
2.52244
-8.79332
5.89866
-3.55932
2.94117
5.10584
10.3839
-1.65012
-9.63069
7.58383
-4.64266
5.74127
)
;

boundaryField
{
    wall-4
    {
        type            calculated;
        value           uniform 0;
    }
    velocity-inlet-5
    {
        type            calculated;
        value           uniform -11.2529;
    }
    velocity-inlet-6
    {
        type            calculated;
        value           uniform -1.87548;
    }
    pressure-outlet-7
    {
        type            calculated;
        value           nonuniform List<scalar> 8(4.52815 4.90412 11.3237 11.7824 17.2304 15.4733 17.0869 15.1959);
    }
    wall-8
    {
        type            calculated;
        value           uniform 0;
    }
    frontAndBackPlanes
    {
        type            empty;
        value           nonuniform List<scalar> 0();
    }
}


// ************************************************************************* //
