/*--------------------------------*- C++ -*----------------------------------*\
  =========                 |
  \\      /  F ield         | OpenFOAM: The Open Source CFD Toolbox
   \\    /   O peration     | Website:  https://openfoam.org
    \\  /    A nd           | Version:  9
     \\/     M anipulation  |
\*---------------------------------------------------------------------------*/
FoamFile
{
    format      ascii;
    class       surfaceScalarField;
    location    "2.04";
    object      phi;
}
// * * * * * * * * * * * * * * * * * * * * * * * * * * * * * * * * * * * * * //

dimensions      [0 3 -1 0 0 0 0];

internalField   nonuniform List<scalar> 
4432
(
-8.18779e-07
8.18779e-07
-8.97371e-07
7.85937e-08
-7.25615e-07
-1.71755e-07
-5.02775e-07
-2.22842e-07
-2.94747e-07
-2.08031e-07
-1.10093e-07
-1.84656e-07
6.22734e-08
-1.72365e-07
2.35967e-07
-1.7369e-07
4.20654e-07
-1.84685e-07
6.19045e-07
-1.98389e-07
8.2624e-07
-2.07192e-07
1.02743e-06
-2.01186e-07
1.19654e-06
-1.69108e-07
1.29832e-06
-1.01788e-07
1.29222e-06
6.10414e-09
1.13632e-06
1.55901e-07
7.91706e-07
3.44608e-07
7.43075e-08
7.17396e-07
-1.43101e-06
1.50531e-06
-3.10961e-06
1.6786e-06
-3.90494e-06
7.95328e-07
-3.1286e-06
-7.76342e-07
-3.1286e-06
-5.00272e-07
1.31905e-06
-4.95354e-07
7.3676e-08
-4.03028e-07
-2.64084e-07
-2.84907e-07
-3.40966e-07
-1.61822e-07
-3.31117e-07
-3.65912e-08
-3.09885e-07
9.74213e-08
-3.06373e-07
2.4838e-07
-3.24644e-07
4.21068e-07
-3.57368e-07
6.15064e-07
-3.92381e-07
8.23171e-07
-4.15296e-07
1.02997e-06
-4.07983e-07
1.2123e-06
-3.51436e-07
1.34183e-06
-2.31323e-07
1.38792e-06
-3.99904e-08
1.31566e-06
2.28154e-07
1.06984e-06
5.9043e-07
5.92423e-07
1.19481e-06
-1.77775e-07
2.27551e-06
-1.12342e-06
2.62425e-06
-1.88494e-06
1.55684e-06
-1.97732e-06
-6.83954e-07
-5.10591e-06
-2.20235e-07
1.53929e-06
-2.36971e-07
9.04114e-08
-2.01972e-07
-2.99085e-07
-1.43896e-07
-3.99044e-07
-7.04024e-08
-4.0461e-07
1.83161e-08
-3.986e-07
1.27313e-07
-4.15367e-07
2.62062e-07
-4.59389e-07
4.24978e-07
-5.20281e-07
6.14025e-07
-5.81426e-07
8.21345e-07
-6.22614e-07
1.03218e-06
-6.1882e-07
1.22599e-06
-5.45239e-07
1.37933e-06
-3.84672e-07
1.46796e-06
-1.28621e-07
1.46462e-06
2.31497e-07
1.33105e-06
7.23994e-07
1.05714e-06
1.46872e-06
7.20709e-07
2.61193e-06
2.24807e-07
3.12015e-06
-3.99359e-07
2.18101e-06
-8.22887e-07
-2.60418e-07
-5.9288e-06
-2.02794e-08
1.55957e-06
-5.24512e-08
1.22584e-07
-5.36291e-08
-2.97908e-07
-3.45905e-08
-4.18083e-07
4.49966e-09
-4.43699e-07
6.63206e-08
-4.60419e-07
1.55904e-07
-5.04948e-07
2.77505e-07
-5.80988e-07
4.32224e-07
-6.74998e-07
6.17276e-07
-7.66478e-07
8.24891e-07
-8.30229e-07
1.04141e-06
-8.3534e-07
1.24882e-06
-7.52646e-07
1.42811e-06
-5.63966e-07
1.56153e-06
-2.6204e-07
1.63127e-06
1.61751e-07
1.61743e-06
7.37839e-07
1.52855e-06
1.5576e-06
1.47177e-06
2.66871e-06
1.30227e-06
3.28965e-06
8.72052e-07
2.61124e-06
3.05503e-07
3.06135e-07
-5.6233e-06
1.09864e-07
1.4497e-06
8.25396e-08
1.4991e-07
6.14358e-08
-2.76804e-07
5.53862e-08
-4.12032e-07
6.99471e-08
-4.58258e-07
1.1099e-07
-5.01459e-07
1.84664e-07
-5.7862e-07
2.94991e-07
-6.91314e-07
4.4251e-07
-8.22517e-07
6.24324e-07
-9.48292e-07
8.33301e-07
-1.03921e-06
1.05718e-06
-1.05922e-06
1.28043e-06
-9.75904e-07
1.48829e-06
-7.7182e-07
1.66959e-06
-4.43341e-07
1.81659e-06
1.47502e-08
1.92392e-06
6.30501e-07
2.01184e-06
1.46968e-06
2.15623e-06
2.52432e-06
2.23777e-06
3.20812e-06
1.99789e-06
2.85112e-06
1.30552e-06
9.98509e-07
-4.31778e-06
1.85952e-07
1.26375e-06
1.79837e-07
1.56026e-07
1.52052e-07
-2.49017e-07
1.31537e-07
-3.91515e-07
1.2914e-07
-4.55859e-07
1.54275e-07
-5.26591e-07
2.14899e-07
-6.39244e-07
3.15444e-07
-7.91861e-07
4.564e-07
-9.63475e-07
6.35273e-07
-1.12717e-06
8.46035e-07
-1.24997e-06
1.07807e-06
-1.29125e-06
1.31833e-06
-1.21617e-06
1.55602e-06
-1.00951e-06
1.78631e-06
-6.73625e-07
2.01091e-06
-2.0985e-07
2.23612e-06
4.0529e-07
2.48556e-06
1.22024e-06
2.80194e-06
2.20794e-06
3.08031e-06
2.92976e-06
3.0345e-06
2.89693e-06
2.30089e-06
1.73211e-06
-2.01688e-06
2.2988e-07
1.03387e-06
2.48214e-07
1.37694e-07
2.24118e-07
-2.24919e-07
1.97367e-07
-3.64763e-07
1.84267e-07
-4.42756e-07
1.97841e-07
-5.40165e-07
2.48097e-07
-6.895e-07
3.40183e-07
-8.83949e-07
4.74863e-07
-1.09816e-06
6.50458e-07
-1.30276e-06
8.62484e-07
-1.462e-06
1.10224e-06
-1.53101e-06
1.35915e-06
-1.47308e-06
1.62606e-06
-1.27642e-06
1.90373e-06
-9.5129e-07
2.20203e-06
-5.08151e-07
2.53613e-06
7.11844e-08
2.92868e-06
8.27689e-07
3.40036e-06
1.73626e-06
3.85523e-06
2.47489e-06
4.03998e-06
2.71217e-06
3.37537e-06
2.39671e-06
1.35849e-06
2.55778e-07
7.78098e-07
2.97167e-07
9.6307e-08
2.82036e-07
-2.09787e-07
2.55065e-07
-3.37791e-07
2.36693e-07
-4.24382e-07
2.42933e-07
-5.46405e-07
2.8558e-07
-7.32149e-07
3.7048e-07
-9.68851e-07
4.98788e-07
-1.22647e-06
6.70006e-07
-1.47398e-06
8.81675e-07
-1.67367e-06
1.12736e-06
-1.77669e-06
1.39904e-06
-1.74476e-06
1.69271e-06
-1.5701e-06
2.01351e-06
-1.27209e-06
2.3776e-06
-8.72234e-07
2.80648e-06
-3.57698e-07
3.32124e-06
3.12928e-07
3.92801e-06
1.1295e-06
4.55031e-06
1.85259e-06
4.98958e-06
2.2729e-06
4.63771e-06
2.7486e-06
5.9962e-06
-5.49934e-06
5.49934e-06
-6.49758e-06
9.98234e-07
-4.08557e-06
-2.412e-06
-1.53075e-06
-2.55483e-06
6.31572e-07
-2.16232e-06
2.6434e-06
-2.01183e-06
4.01849e-06
-1.37508e-06
3.28301e-06
7.35475e-07
-1.44989e-07
3.428e-06
-4.01382e-06
3.86883e-06
-6.08841e-06
2.07459e-06
-6.42506e-06
3.36655e-07
-6.54925e-06
1.24181e-07
-7.42567e-06
8.76417e-07
-7.84409e-06
4.18438e-07
-6.92145e-06
-9.2265e-07
-5.38895e-06
-1.5325e-06
-3.80792e-06
-1.58104e-06
-3.80792e-06
-4.42958e-06
9.92892e-06
-4.24412e-06
8.12769e-07
-2.95244e-06
-3.70368e-06
-1.6072e-06
-3.90008e-06
-4.90871e-07
-3.27864e-06
3.29844e-07
-2.83255e-06
7.50266e-07
-1.7955e-06
5.91661e-08
1.42657e-06
-2.46901e-06
5.95619e-06
-5.14843e-06
6.54824e-06
-6.58409e-06
3.51026e-06
-6.99963e-06
7.52199e-07
-7.18188e-06
3.06442e-07
-7.19524e-06
8.89763e-07
-6.54347e-06
-2.33321e-07
-5.01882e-06
-2.44731e-06
-3.35689e-06
-3.19442e-06
-2.30271e-06
-2.63522e-06
-6.11063e-06
-2.95282e-06
1.28817e-05
-2.72295e-06
5.82896e-07
-2.27676e-06
-4.14987e-06
-1.81279e-06
-4.36404e-06
-1.46939e-06
-3.62204e-06
-1.38768e-06
-2.91426e-06
-1.69067e-06
-1.49253e-06
-2.42308e-06
2.15899e-06
-4.08207e-06
7.6152e-06
-5.77354e-06
8.23971e-06
-6.8936e-06
4.63031e-06
-7.3169e-06
1.17549e-06
-7.46072e-06
4.50279e-07
-7.0612e-06
4.90234e-07
-5.96265e-06
-1.33186e-06
-4.0524e-06
-4.35757e-06
-2.18486e-06
-5.06195e-06
-1.07016e-06
-3.74991e-06
-7.18079e-06
-1.56194e-06
1.44437e-05
-1.60772e-06
6.28686e-07
-1.88979e-06
-3.8678e-06
-2.16268e-06
-4.09115e-06
-2.45896e-06
-3.32576e-06
-2.9328e-06
-2.44041e-06
-3.71325e-06
-7.12066e-07
-4.58329e-06
3.02902e-06
-5.51894e-06
8.55084e-06
-6.32975e-06
9.05052e-06
-7.20497e-06
5.50554e-06
-7.58839e-06
1.55891e-06
-7.71057e-06
5.72462e-07
-7.14671e-06
-7.36383e-08
-5.79555e-06
-2.68302e-06
-3.6389e-06
-6.51423e-06
-1.56041e-06
-7.14044e-06
-3.23652e-07
-4.98667e-06
-7.50444e-06
-3.0901e-07
1.47527e-05
-7.68252e-07
1.08793e-06
-1.7617e-06
-2.87436e-06
-2.67378e-06
-3.17906e-06
-3.50306e-06
-2.49649e-06
-4.41019e-06
-1.53328e-06
-5.51484e-06
3.92592e-07
-6.48336e-06
3.99753e-06
-6.88717e-06
8.95465e-06
-7.05815e-06
9.22149e-06
-7.48612e-06
5.93352e-06
-7.84438e-06
1.91717e-06
-7.93887e-06
6.66956e-07
-7.35419e-06
-6.58325e-07
-5.92591e-06
-4.1113e-06
-3.71161e-06
-8.72853e-06
-1.44517e-06
-9.40688e-06
-1.15725e-07
-6.31611e-06
-7.62017e-06
9.08047e-07
1.38446e-05
-2.12889e-07
2.20886e-06
-1.90119e-06
-1.18606e-06
-3.35748e-06
-1.72276e-06
-4.62005e-06
-1.23391e-06
-5.84587e-06
-3.0747e-07
-7.15963e-06
1.70635e-06
-8.14588e-06
4.98378e-06
-8.17606e-06
8.98484e-06
-7.8483e-06
8.89373e-06
-7.80261e-06
5.88782e-06
-8.11239e-06
2.22694e-06
-8.15848e-06
7.1305e-07
-7.59926e-06
-1.21755e-06
-6.25701e-06
-5.45354e-06
-4.17494e-06
-1.08106e-05
-1.6134e-06
-1.19684e-05
-8.14471e-08
-7.84806e-06
-7.70161e-06
1.78586e-06
1.20588e-05
-5.6618e-08
4.05134e-06
-2.32976e-06
1.08708e-06
-4.22113e-06
1.68605e-07
-5.81994e-06
3.64899e-07
-7.25386e-06
1.12644e-06
-8.63462e-06
3.08712e-06
-9.54327e-06
5.89243e-06
-9.32138e-06
8.76295e-06
-8.61393e-06
8.18628e-06
-8.26678e-06
5.54067e-06
-8.41315e-06
2.3733e-06
-8.35587e-06
6.55777e-07
-7.81359e-06
-1.75983e-06
-6.58627e-06
-6.68086e-06
-4.61319e-06
-1.27837e-05
-1.99313e-06
-1.45885e-05
-1.46434e-07
-9.69474e-06
-7.84804e-06
2.21458e-06
9.8442e-06
-3.92779e-07
6.6587e-06
-3.05134e-06
3.74564e-06
-5.26853e-06
2.3858e-06
-7.11141e-06
2.20778e-06
-8.65067e-06
2.6657e-06
-1.00023e-05
4.4387e-06
-1.06785e-05
6.56869e-06
-1.03373e-05
8.42171e-06
-9.37563e-06
7.22463e-06
-8.85813e-06
5.02317e-06
-8.73294e-06
2.24811e-06
-8.49702e-06
4.19859e-07
-7.90918e-06
-2.34767e-06
-6.77385e-06
-7.81619e-06
-4.85088e-06
-1.47067e-05
-2.32092e-06
-1.71184e-05
-3.17498e-07
-1.16982e-05
-8.16554e-06
6.0057e-07
1.77528e-07
7.4807e-07
-5.11915e-08
7.53905e-07
-2.15621e-07
7.09745e-07
-2.93629e-07
6.69756e-07
-3.84392e-07
6.73304e-07
-5.49953e-07
7.49025e-07
-8.07871e-07
9.10474e-07
-1.1303e-06
1.16043e-06
-1.47642e-06
1.50276e-06
-1.81631e-06
1.94187e-06
-2.11278e-06
2.47371e-06
-2.30854e-06
3.09047e-06
-2.36151e-06
3.79203e-06
-2.27166e-06
4.59632e-06
-2.07638e-06
5.55203e-06
-1.82795e-06
6.71769e-06
-1.52336e-06
8.13384e-06
-1.10322e-06
9.79078e-06
-5.27443e-07
1.16051e-05
3.83127e-08
1.33157e-05
5.62301e-07
1.48476e-05
1.21668e-06
2.79813e-06
1.80457e-05
5.222e-07
-3.4467e-07
7.37747e-07
-2.66738e-07
8.00608e-07
-2.7848e-07
8.18824e-07
-3.11845e-07
8.4795e-07
-4.13518e-07
8.99436e-07
-6.0144e-07
9.89823e-07
-8.9826e-07
1.13605e-06
-1.27653e-06
1.34329e-06
-1.68367e-06
1.61938e-06
-2.0924e-06
1.98195e-06
-2.47534e-06
2.46214e-06
-2.78873e-06
3.09038e-06
-2.98975e-06
3.87649e-06
-3.05777e-06
4.7986e-06
-2.99848e-06
5.86254e-06
-2.89189e-06
7.10711e-06
-2.76793e-06
8.62449e-06
-2.62061e-06
1.04453e-05
-2.34821e-06
1.24326e-05
-1.949e-06
1.4332e-05
-1.33715e-06
1.55019e-05
4.67751e-08
2.60836e-06
1.56917e-05
3.63056e-07
-7.07726e-07
5.07323e-07
-4.11006e-07
5.28338e-07
-2.99495e-07
6.52071e-07
-4.35578e-07
9.28483e-07
-6.8993e-07
1.1763e-06
-8.4926e-07
1.31234e-06
-1.0343e-06
1.40628e-06
-1.37046e-06
1.51035e-06
-1.78773e-06
1.61063e-06
-2.19268e-06
1.70221e-06
-2.56692e-06
1.93739e-06
-3.02391e-06
2.52186e-06
-3.57422e-06
3.51669e-06
-4.05259e-06
4.6653e-06
-4.14709e-06
5.71958e-06
-3.94617e-06
6.47762e-06
-3.52598e-06
7.33524e-06
-3.47822e-06
8.94783e-06
-3.96078e-06
1.13778e-05
-4.37897e-06
1.38681e-05
-3.82747e-06
1.49493e-05
-1.03439e-06
4.76175e-06
1.27959e-05
4.3603e-07
-1.14376e-06
-1.05492e-06
1.08002e-06
-1.93529e-06
5.80887e-07
-1.73911e-06
-6.3175e-07
-3.25353e-07
-2.10369e-06
1.09495e-06
-2.26956e-06
1.477e-06
-1.41633e-06
1.26101e-06
-1.15445e-06
9.34141e-07
-1.46083e-06
4.90762e-07
-1.7493e-06
-2.25845e-07
-1.85033e-06
-1.15098e-06
-2.09877e-06
-9.4327e-07
-3.7819e-06
1.28368e-06
-6.2795e-06
3.89086e-06
-6.75426e-06
5.54538e-06
-5.60069e-06
4.79216e-06
-2.77278e-06
1.13562e-06
1.78333e-07
9.056e-07
-3.73075e-06
4.98293e-06
-8.45638e-06
1.13163e-05
-1.01609e-05
1.53148e-05
-5.03291e-06
9.51405e-06
1.05625e-05
-2.35427e-05
2.2399e-05
-3.57547e-05
1.32921e-05
-3.79512e-05
2.77749e-06
-3.60314e-05
-2.5516e-06
-3.25039e-05
-5.63113e-06
-2.9285e-05
-5.48847e-06
-2.71607e-05
-3.54054e-06
-2.65598e-05
-1.75531e-06
-2.85526e-05
5.31979e-07
-3.28442e-05
2.54228e-06
-3.69166e-05
2.222e-06
-3.81769e-05
-8.38412e-07
-3.54244e-05
-6.53437e-06
-3.0405e-05
-1.12989e-05
-2.70716e-05
-1.00877e-05
-2.82554e-05
-4.41692e-06
-3.59673e-05
4.93916e-06
-5.53444e-05
1.95555e-05
-5.33122e-05
-5.76276e-06
-3.95181e-05
-2.22505e-05
-2.63927e-05
-2.32863e-05
-1.55033e-05
-1.59222e-05
3.49804e-06
-9.48711e-06
-2.36226e-05
4.60216e-05
-3.27454e-05
2.24149e-05
-3.5247e-05
5.2791e-06
-3.74674e-05
-3.31188e-07
-3.97697e-05
-3.32881e-06
-3.93883e-05
-5.86987e-06
-3.71087e-05
-5.82005e-06
-3.48233e-05
-4.04066e-06
-3.40283e-05
-2.63044e-07
-3.53003e-05
3.81419e-06
-3.82319e-05
5.1536e-06
-3.94596e-05
3.8938e-07
-3.97712e-05
-6.2227e-06
-3.90093e-05
-1.20608e-05
-3.83195e-05
-1.07775e-05
-4.16774e-05
-1.05902e-06
-4.86791e-05
1.19409e-05
-5.18997e-05
2.27758e-05
-5.29505e-05
-4.71204e-06
-5.08357e-05
-2.43653e-05
-4.66928e-05
-2.74291e-05
-4.44701e-05
-1.8145e-05
1.31258e-06
-4.22847e-05
-1.14614e-05
5.74831e-05
-1.94878e-05
3.04414e-05
-2.69031e-05
1.26943e-05
-3.35169e-05
6.28264e-06
-3.91125e-05
2.26686e-06
-4.01427e-05
-4.83971e-06
-3.95231e-05
-6.43955e-06
-3.80845e-05
-5.47925e-06
-3.6099e-05
-2.24862e-06
-3.4265e-05
1.98021e-06
-3.51393e-05
6.02791e-06
-3.85838e-05
3.83386e-06
-4.18739e-05
-2.93255e-06
-4.28257e-05
-1.1109e-05
-4.3491e-05
-1.01122e-05
-4.73129e-05
2.76284e-06
-5.09328e-05
1.55609e-05
-4.84733e-05
2.03163e-05
-5.20038e-05
-1.18157e-06
-5.49784e-05
-2.13907e-05
-5.7619e-05
-2.47886e-05
-6.17911e-05
-1.39728e-05
5.44596e-06
-6.59244e-05
-2.31732e-06
5.98004e-05
-9.2607e-06
3.73848e-05
-1.8783e-05
2.22167e-05
-2.61485e-05
1.36482e-05
-3.11645e-05
7.28289e-06
-3.605e-05
4.57544e-08
-3.87492e-05
-3.74023e-06
-3.9064e-05
-5.16444e-06
-3.83144e-05
-2.99828e-06
-3.78882e-05
1.55405e-06
-3.6477e-05
4.61672e-06
-3.63195e-05
3.67645e-06
-3.83474e-05
-9.04667e-07
-4.36156e-05
-5.84073e-06
-4.93226e-05
-4.40523e-06
-5.06284e-05
4.0686e-06
-4.74454e-05
1.23779e-05
-4.04333e-05
1.33042e-05
-4.23937e-05
7.78853e-07
-5.24233e-05
-1.13611e-05
-6.39976e-05
-1.32142e-05
-7.11375e-05
-6.83292e-06
3.38472e-06
-6.90764e-05
-1.57215e-06
6.13726e-05
-6.586e-06
4.23988e-05
-1.30894e-05
2.87201e-05
-1.87917e-05
1.93505e-05
-2.3438e-05
1.19292e-05
-2.84059e-05
5.01369e-06
-3.24347e-05
2.886e-07
-3.56103e-05
-1.98879e-06
-3.73014e-05
-1.30725e-06
-3.70288e-05
1.28151e-06
-3.58179e-05
3.40576e-06
-3.52312e-05
3.08982e-06
-3.67483e-05
6.12507e-07
-4.086e-05
-1.72906e-06
-4.49517e-05
-3.13485e-07
-4.56629e-05
4.77975e-06
-4.27224e-05
9.43734e-06
-3.87251e-05
9.30682e-06
-4.0469e-05
2.52285e-06
-4.8172e-05
-3.65819e-06
-5.71197e-05
-4.26651e-06
-6.28418e-05
-1.11071e-06
3.93691e-06
-6.33939e-05
-1.19802e-06
6.25707e-05
-4.20454e-06
4.54054e-05
-8.4462e-06
3.29618e-05
-1.27763e-05
2.36806e-05
-1.69573e-05
1.61103e-05
-2.14791e-05
9.53558e-06
-2.5831e-05
4.64058e-06
-2.96311e-05
1.81132e-06
-3.22001e-05
1.26174e-06
-3.31607e-05
2.24224e-06
-3.30073e-05
3.2524e-06
-3.30035e-05
3.08601e-06
-3.42557e-05
1.86468e-06
-3.69361e-05
9.51331e-07
-3.93116e-05
2.06208e-06
-3.9545e-05
5.0131e-06
-3.76149e-05
7.50735e-06
-3.55156e-05
7.20749e-06
-3.66634e-05
3.67068e-06
-4.07946e-05
4.73056e-07
-4.52594e-05
1.98079e-07
-4.85579e-05
2.18757e-06
4.64966e-06
-4.92706e-05
9.4319e-07
6.16276e-05
-1.15043e-06
4.74991e-05
-4.16348e-06
3.59749e-05
-7.6573e-06
2.71744e-05
-1.14094e-05
1.98624e-05
-1.55156e-05
1.36419e-05
-1.96734e-05
8.79847e-06
-2.34633e-05
5.60123e-06
-2.63335e-05
4.13198e-06
-2.79839e-05
3.8926e-06
-2.87022e-05
3.97083e-06
-2.92719e-05
3.65566e-06
-3.0371e-05
2.96379e-06
-3.20145e-05
2.59483e-06
-3.32657e-05
3.31333e-06
-3.31716e-05
4.919e-06
-3.18397e-05
6.17544e-06
-3.04953e-05
5.86321e-06
-3.07643e-05
3.93973e-06
-3.24113e-05
2.1201e-06
-3.39234e-05
1.71029e-06
-3.4268e-05
2.53215e-06
3.5556e-06
-3.31739e-05
2.8906e-06
5.87371e-05
1.66248e-06
4.87274e-05
-5.62792e-07
3.82002e-05
-3.39665e-06
3.00083e-05
-6.66969e-06
2.31355e-05
-1.02958e-05
1.7268e-05
-1.40322e-05
1.25349e-05
-1.75285e-05
9.09764e-06
-2.03752e-05
6.97867e-06
-2.23426e-05
5.86009e-06
-2.35758e-05
5.20406e-06
-2.45037e-05
4.5836e-06
-2.54964e-05
3.95656e-06
-2.65348e-05
3.63321e-06
-2.71441e-05
3.92246e-06
-2.68731e-05
4.64796e-06
-2.58373e-05
5.13959e-06
-2.47403e-05
4.76612e-06
-2.43377e-05
3.53713e-06
-2.4488e-05
2.27032e-06
-2.44245e-05
1.64666e-06
-2.35212e-05
1.62893e-06
1.68063e-06
-2.16462e-05
3.75016e-06
5.4987e-05
3.62487e-06
4.88528e-05
2.16677e-06
3.96583e-05
-3.97424e-08
3.22148e-05
-2.7436e-06
2.58394e-05
-5.80254e-06
2.0327e-05
-9.00432e-06
1.57367e-05
-1.20697e-05
1.21631e-05
-1.46969e-05
9.60585e-06
-1.67097e-05
7.87283e-06
-1.81534e-05
6.6477e-06
-1.92373e-05
5.66749e-06
-2.01453e-05
4.86461e-06
-2.08587e-05
4.34668e-06
-2.11458e-05
4.20957e-06
-2.08083e-05
4.31034e-06
-1.99437e-05
4.2749e-06
-1.89434e-05
3.7658e-06
-1.81886e-05
2.7824e-06
-1.76289e-05
1.71065e-06
-1.68901e-05
9.07849e-07
-1.56574e-05
3.96287e-07
-8.39214e-08
-1.38928e-05
3.71664e-06
5.12704e-05
4.55814e-06
4.80113e-05
3.90183e-06
4.03145e-05
2.40789e-06
3.37087e-05
3.57667e-07
2.78896e-05
-2.06601e-06
2.27507e-05
-4.6688e-06
1.83395e-05
-7.2251e-06
1.47193e-05
-9.50965e-06
1.18904e-05
-1.13778e-05
9.74103e-06
-1.28158e-05
8.08565e-06
-1.39068e-05
6.75851e-06
-1.47301e-05
5.68782e-06
-1.52693e-05
4.88594e-06
-1.5415e-05
4.35528e-06
-1.50877e-05
3.98323e-06
-1.43642e-05
3.55137e-06
-1.34683e-05
2.86989e-06
-1.26109e-05
1.92504e-06
-1.17966e-05
8.96405e-07
-1.086e-05
-2.88038e-08
-9.64778e-06
-8.15871e-07
-1.57642e-06
-8.15526e-06
3.25536e-06
4.80151e-05
4.75596e-06
4.65108e-05
4.83479e-06
4.02357e-05
4.05173e-06
3.44917e-05
2.68653e-06
2.92548e-05
9.26101e-07
2.45112e-05
-1.05188e-06
2.03175e-05
-3.06222e-06
1.67297e-05
-4.92973e-06
1.37579e-05
-6.53156e-06
1.13429e-05
-7.82298e-06
9.37708e-06
-8.81915e-06
7.75472e-06
-9.54257e-06
6.41128e-06
-9.97709e-06
5.32046e-06
-1.0071e-05
4.44917e-06
-9.79787e-06
3.7101e-06
-9.21559e-06
2.96911e-06
-8.45841e-06
2.11279e-06
-7.6543e-06
1.12098e-06
-6.8325e-06
7.45934e-08
-5.93233e-06
-9.29015e-07
-4.89145e-06
-1.85681e-06
-2.74778e-06
-3.72017e-06
2.7533e-06
4.52619e-05
4.5766e-06
4.46875e-05
5.22348e-06
3.95888e-05
5.07464e-06
3.46405e-05
4.35815e-06
2.99713e-05
3.24066e-06
2.56287e-05
1.87554e-06
2.16826e-05
4.14208e-07
1.8191e-05
-1.0035e-06
1.51756e-05
-2.27202e-06
1.26114e-05
-3.33374e-06
1.04388e-05
-4.16974e-06
8.59069e-06
-4.77319e-06
7.01477e-06
-5.12661e-06
5.67399e-06
-5.20388e-06
4.52656e-06
-4.99946e-06
3.50571e-06
-4.55561e-06
2.52522e-06
-3.95629e-06
1.51345e-06
-3.28467e-06
4.49389e-07
-2.57694e-06
-6.33147e-07
-1.82247e-06
-1.6835e-06
-1.0036e-06
-2.67569e-06
-3.61637e-06
-1.35011e-07
2.35127e-06
4.29106e-05
4.26454e-06
4.27742e-05
5.30267e-06
3.85506e-05
5.66744e-06
3.42757e-05
5.51765e-06
3.0121e-05
4.98307e-06
2.61633e-05
4.18625e-06
2.24794e-05
3.24748e-06
1.91297e-05
2.27815e-06
1.61449e-05
1.36776e-06
1.35218e-05
5.76017e-07
1.12305e-05
-6.3257e-08
9.22994e-06
-5.29392e-07
7.48086e-06
-8.03366e-07
5.94795e-06
-8.69167e-07
4.59247e-06
-7.27506e-07
3.36413e-06
-4.07785e-07
2.2055e-06
3.62018e-08
1.06941e-06
5.48535e-07
-6.29689e-08
1.09484e-06
-1.17948e-06
1.6655e-06
-2.25417e-06
2.25812e-06
-3.26828e-06
-4.2163e-06
2.85809e-06
2.06722e-06
4.08434e-05
3.95702e-06
4.08845e-05
5.24053e-06
3.7267e-05
5.99513e-06
3.3521e-05
6.31113e-06
2.98051e-05
6.27635e-06
2.61981e-05
5.98049e-06
2.27753e-05
5.51462e-06
1.95956e-05
4.96541e-06
1.66942e-05
4.40665e-06
1.40806e-05
3.89375e-06
1.17434e-05
3.46477e-06
9.65894e-06
3.146e-06
7.79961e-06
2.95716e-06
6.13675e-06
2.91096e-06
4.6387e-06
3.00675e-06
3.2684e-06
3.22547e-06
1.98682e-06
3.53277e-06
7.62098e-07
3.89101e-06
-4.21219e-07
4.27187e-06
-1.56034e-06
4.65993e-06
-2.64224e-06
5.0457e-06
-3.65404e-06
-4.58715e-06
5.41653e-06
1.88957e-06
3.89538e-05
3.71866e-06
3.90554e-05
5.15052e-06
3.58351e-05
6.18892e-06
3.24826e-05
6.87023e-06
2.91238e-05
7.24405e-06
2.58243e-05
7.36954e-06
2.26498e-05
7.3116e-06
1.96535e-05
7.13521e-06
1.68706e-05
6.89907e-06
1.43168e-05
6.6512e-06
1.19914e-05
6.42824e-06
9.88199e-06
6.2573e-06
7.97059e-06
6.15809e-06
6.23594e-06
6.1427e-06
4.65411e-06
6.21267e-06
3.19849e-06
6.35708e-06
1.84243e-06
6.55485e-06
5.64303e-07
6.78137e-06
-6.47772e-07
7.01559e-06
-1.79459e-06
7.243e-06
-2.86967e-06
7.45334e-06
-3.8644e-06
-4.77066e-06
7.63684e-06
1.80853e-06
3.71453e-05
3.58237e-06
3.72815e-05
5.10632e-06
3.43112e-05
6.34678e-06
3.12421e-05
7.30378e-06
2.81668e-05
7.99725e-06
2.51309e-05
8.46118e-06
2.21858e-05
8.73861e-06
1.93759e-05
8.87621e-06
1.67329e-05
8.91902e-06
1.4274e-05
8.90665e-06
1.20038e-05
8.87168e-06
9.91699e-06
8.83966e-06
8.00264e-06
8.82956e-06
6.24603e-06
8.85354e-06
4.63008e-06
8.9157e-06
3.13633e-06
9.01133e-06
1.74679e-06
9.12867e-06
4.46912e-07
9.25267e-06
-7.7184e-07
9.36917e-06
-1.91115e-06
9.46714e-06
-2.96769e-06
9.5384e-06
-3.93569e-06
-4.80851e-06
9.57622e-06
1.81827e-06
3.53271e-05
3.5649e-06
3.55349e-05
5.15238e-06
3.27237e-05
6.53525e-06
2.98591e-05
7.69285e-06
2.70092e-05
8.62516e-06
2.41986e-05
9.34776e-06
2.14631e-05
9.88695e-06
1.88366e-05
1.02748e-05
1.63449e-05
1.0545e-05
1.40038e-05
1.0729e-05
1.18197e-05
1.08546e-05
9.79134e-06
1.09448e-05
7.9125e-06
1.10172e-05
6.17359e-06
1.10841e-05
4.56309e-06
1.11517e-05
3.06866e-06
1.122e-05
1.67852e-06
1.12836e-05
3.8326e-07
1.13345e-05
-8.22838e-07
1.13644e-05
-1.94113e-06
1.13663e-05
-2.96964e-06
1.13349e-05
-3.90433e-06
-4.74004e-06
1.12664e-05
1.90833e-06
3.34188e-05
3.66726e-06
3.3776e-05
5.30721e-06
3.10837e-05
6.79016e-06
2.83762e-05
8.08766e-06
2.57118e-05
9.18885e-06
2.30974e-05
1.00977e-05
2.05543e-05
1.08288e-05
1.81054e-05
1.1404e-05
1.57698e-05
1.18476e-05
1.35602e-05
1.21847e-05
1.14825e-05
1.24383e-05
9.53765e-06
1.26286e-05
7.7222e-06
1.27719e-05
6.03032e-06
1.28802e-05
4.4547e-06
1.29613e-05
2.98757e-06
1.30181e-05
1.62166e-06
1.305e-05
3.51289e-07
1.3054e-05
-8.26868e-07
1.30262e-05
-1.91341e-06
1.29633e-05
-2.90675e-06
1.28627e-05
-3.80379e-06
-4.60048e-06
1.27231e-05
2.05585e-06
3.13629e-05
3.87052e-06
3.19614e-05
5.56239e-06
2.93917e-05
7.11604e-06
2.68225e-05
8.50581e-06
2.4322e-05
9.71776e-06
2.18855e-05
1.07502e-05
1.95218e-05
1.16112e-05
1.72445e-05
1.23153e-05
1.50657e-05
1.28812e-05
1.29944e-05
1.33284e-05
1.10353e-05
1.36764e-05
9.18962e-06
1.39427e-05
7.45591e-06
1.41421e-05
5.83087e-06
1.42865e-05
4.3103e-06
1.43843e-05
2.88978e-06
1.44406e-05
1.56536e-06
1.44577e-05
3.34147e-07
1.4436e-05
-8.05237e-07
1.4375e-05
-1.85248e-06
1.42741e-05
-2.8059e-06
1.4133e-05
-3.6628e-06
-4.41984e-06
1.39523e-05
2.22278e-06
2.91402e-05
4.13229e-06
3.00519e-05
5.88144e-06
2.76425e-05
7.48653e-06
2.52174e-05
8.9329e-06
2.28757e-05
1.02097e-05
2.06086e-05
1.13148e-05
1.84167e-05
1.22535e-05
1.63058e-05
1.30369e-05
1.42823e-05
1.36798e-05
1.23515e-05
1.41986e-05
1.05165e-05
1.46098e-05
8.7784e-06
1.49288e-05
7.13685e-06
1.51692e-05
5.59038e-06
1.53424e-05
4.1371e-06
1.5457e-05
2.7751e-06
1.55195e-05
1.50288e-06
1.55339e-05
3.19695e-07
1.55028e-05
-7.74259e-07
1.5428e-05
-1.77776e-06
1.53109e-05
-2.68878e-06
1.51527e-05
-3.50469e-06
-4.2225e-06
1.49553e-05
2.35971e-06
2.67805e-05
4.3892e-06
2.80224e-05
6.20321e-06
2.58284e-05
7.84884e-06
2.35718e-05
9.32737e-06
2.13971e-05
1.06357e-05
1.93002e-05
1.17749e-05
1.72775e-05
1.27511e-05
1.53296e-05
1.35746e-05
1.34589e-05
1.42584e-05
1.16677e-05
1.48172e-05
9.95766e-06
1.52656e-05
8.32993e-06
1.56175e-05
6.78484e-06
1.58855e-05
5.32234e-06
1.60802e-05
3.94233e-06
1.62104e-05
2.64484e-06
1.62829e-05
1.43027e-06
1.6303e-05
2.99538e-07
1.62746e-05
-7.45869e-07
1.62007e-05
-1.70388e-06
1.60839e-05
-2.57199e-06
1.59266e-05
-3.34742e-06
-4.02729e-06
1.57314e-05
2.41994e-06
2.43606e-05
4.57076e-06
2.58716e-05
6.4546e-06
2.39446e-05
8.13567e-06
2.18908e-05
9.63169e-06
1.9901e-05
1.09499e-05
1.79819e-05
1.20973e-05
1.613e-05
1.30832e-05
1.43438e-05
1.3919e-05
1.26231e-05
1.46179e-05
1.09687e-05
1.51937e-05
9.38174e-06
1.56602e-05
7.86335e-06
1.60303e-05
6.41472e-06
1.63155e-05
5.03707e-06
1.6526e-05
3.73179e-06
1.66703e-05
2.5005e-06
1.67554e-05
1.34513e-06
1.67869e-05
2.67943e-07
1.67696e-05
-7.28499e-07
1.6707e-05
-1.64134e-06
1.66026e-05
-2.46758e-06
1.64593e-05
-3.20413e-06
-3.84802e-06
1.62801e-05
2.38115e-06
2.19795e-05
4.62506e-06
2.36276e-05
6.57325e-06
2.19965e-05
8.28478e-06
2.01793e-05
9.78942e-06
1.83963e-05
1.11048e-05
1.66665e-05
1.22451e-05
1.49898e-05
1.32239e-05
1.3365e-05
1.40552e-05
1.17918e-05
1.47531e-05
1.02707e-05
1.53318e-05
8.80308e-06
1.58043e-05
7.39075e-06
1.61831e-05
6.03593e-06
1.6479e-05
4.74113e-06
1.67016e-05
3.50912e-06
1.68591e-05
2.34291e-06
1.69585e-05
1.24574e-06
1.70055e-05
2.20985e-07
1.70049e-05
-7.27883e-07
1.69609e-05
-1.5973e-06
1.68771e-05
-2.38374e-06
1.67567e-05
-3.08375e-06
-3.6941e-06
1.66028e-05
2.26021e-06
1.97193e-05
4.54233e-06
2.13455e-05
6.53066e-06
2.00082e-05
8.25963e-06
1.84503e-05
9.76339e-06
1.68924e-05
1.10672e-05
1.53626e-05
1.21916e-05
1.38655e-05
1.31545e-05
1.24022e-05
1.39726e-05
1.09737e-05
1.46615e-05
9.58186e-06
1.52355e-05
8.22904e-06
1.57079e-05
6.91834e-06
1.60905e-05
5.65327e-06
1.63938e-05
4.43776e-06
1.6627e-05
3.27596e-06
1.67977e-05
2.17216e-06
1.69127e-05
1.13075e-06
1.69776e-05
1.56059e-07
1.69974e-05
-7.47639e-07
1.69763e-05
-1.57616e-06
1.69181e-05
-2.32547e-06
1.68261e-05
-2.99167e-06
-3.5712e-06
1.67032e-05
2.10213e-06
1.76171e-05
4.35457e-06
1.9093e-05
6.33893e-06
1.80239e-05
8.05902e-06
1.67302e-05
9.54598e-06
1.54054e-05
1.08282e-05
1.40804e-05
1.19297e-05
1.27639e-05
1.28716e-05
1.14603e-05
1.36723e-05
1.0173e-05
1.43485e-05
8.90568e-06
1.49149e-05
7.66263e-06
1.53846e-05
6.44855e-06
1.57693e-05
5.26857e-06
1.6079e-05
4.1281e-06
1.63222e-05
3.0327e-06
1.65064e-05
1.98793e-06
1.66379e-05
9.99204e-07
1.67223e-05
7.17076e-08
1.67643e-05
-7.8963e-07
1.67683e-05
-1.58008e-06
1.6738e-05
-2.29512e-06
1.66768e-05
-2.93041e-06
-3.48196e-06
1.65876e-05
1.94816e-06
1.56689e-05
4.1083e-06
1.69328e-05
6.03473e-06
1.60975e-05
7.70931e-06
1.50555e-05
9.15629e-06
1.39583e-05
1.04026e-05
1.2834e-05
1.14728e-05
1.16937e-05
1.23885e-05
1.05446e-05
1.31687e-05
9.3928e-06
1.383e-05
8.24428e-06
1.43873e-05
7.10531e-06
1.48534e-05
5.98243e-06
1.52395e-05
4.88248e-06
1.55551e-05
3.81249e-06
1.58084e-05
2.77944e-06
1.60062e-05
1.79011e-06
1.61545e-05
8.50879e-07
1.62585e-05
-3.2353e-08
1.6323e-05
-8.54134e-07
1.63523e-05
-1.6093e-06
1.63501e-05
-2.2929e-06
1.63199e-05
-2.90015e-06
-3.42656e-06
1.62646e-05
1.81298e-06
1.38559e-05
3.83542e-06
1.49104e-05
5.65503e-06
1.42778e-05
7.24651e-06
1.34639e-05
8.62752e-06
1.25773e-05
9.82097e-06
1.16406e-05
1.0849e-05
1.06658e-05
1.17316e-05
9.662e-06
1.24867e-05
8.6376e-06
1.31304e-05
7.60058e-06
1.36767e-05
6.55906e-06
1.41378e-05
5.52135e-06
1.45242e-05
4.49603e-06
1.4845e-05
3.49169e-06
1.51077e-05
2.5168e-06
1.53185e-05
1.57932e-06
1.54829e-05
6.86517e-07
1.56057e-05
-1.5516e-07
1.56914e-05
-9.39935e-07
1.57445e-05
-1.66237e-06
1.57688e-05
-2.31718e-06
1.57678e-05
-2.89913e-06
-3.40322e-06
1.57445e-05
1.68816e-06
1.21677e-05
3.54546e-06
1.3053e-05
5.22378e-06
1.25993e-05
6.70237e-06
1.19853e-05
7.99454e-06
1.12852e-05
9.11846e-06
1.05167e-05
1.00923e-05
9.69188e-06
1.09334e-05
8.82094e-06
1.16574e-05
7.91356e-06
1.22788e-05
6.97919e-06
1.28105e-05
6.02741e-06
1.32638e-05
5.06812e-06
1.36484e-05
4.11144e-06
1.39726e-05
3.16758e-06
1.42429e-05
2.24644e-06
1.44651e-05
1.35723e-06
1.46436e-05
5.0801e-07
1.47829e-05
-2.94462e-07
1.48873e-05
-1.04439e-06
1.49613e-05
-1.73633e-06
1.50088e-05
-2.36474e-06
1.50337e-05
-2.92401e-06
-3.40853e-06
1.5039e-05
1.55906e-06
1.06086e-05
3.23612e-06
1.13759e-05
4.75393e-06
1.10814e-05
6.10091e-06
1.06383e-05
7.28792e-06
1.00982e-05
8.32872e-06
9.47597e-06
9.23744e-06
8.78318e-06
1.00279e-05
8.03051e-06
1.07133e-05
7.22816e-06
1.13062e-05
6.38636e-06
1.18179e-05
5.51569e-06
1.22589e-05
4.62725e-06
1.26377e-05
3.73259e-06
1.29619e-05
2.84347e-06
1.3237e-05
1.97135e-06
1.34675e-05
1.12674e-06
1.36571e-05
3.18474e-07
1.38093e-05
-4.46696e-07
1.39284e-05
-1.16348e-06
1.40188e-05
-1.82677e-06
1.4085e-05
-2.43098e-06
1.4131e-05
-2.97006e-06
-3.43777e-06
1.41602e-05
1.41674e-06
9.19179e-06
2.90593e-06
9.88659e-06
4.25548e-06
9.73188e-06
5.46196e-06
9.4319e-06
6.53429e-06
9.02598e-06
7.48244e-06
8.52786e-06
8.31676e-06
7.94887e-06
9.04791e-06
7.29938e-06
9.68661e-06
6.58948e-06
1.02434e-05
5.82959e-06
1.07284e-05
5.03079e-06
1.11506e-05
4.20504e-06
1.15181e-05
3.36513e-06
1.18372e-05
2.52438e-06
1.21126e-05
1.69598e-06
1.23473e-05
8.92027e-07
1.25435e-05
1.22291e-07
1.27037e-05
-6.06943e-07
1.28319e-05
-1.29176e-06
1.29331e-05
-1.92794e-06
1.3012e-05
-2.51001e-06
1.30733e-05
-3.0314e-06
-3.4851e-06
1.31205e-05
1.26049e-06
7.93125e-06
2.56007e-06
8.58697e-06
3.74143e-06
8.55057e-06
4.80566e-06
8.36776e-06
5.75926e-06
8.07243e-06
6.60886e-06
7.67826e-06
7.36171e-06
7.19603e-06
8.02576e-06
6.63534e-06
8.60958e-06
6.00569e-06
9.12201e-06
5.31719e-06
9.57183e-06
4.58099e-06
9.96733e-06
3.80955e-06
1.03158e-05
3.01665e-06
1.0623e-05
2.21719e-06
1.08925e-05
1.4264e-06
1.11259e-05
6.58623e-07
1.1323e-05
-7.48614e-08
1.14849e-05
-7.68826e-07
1.16153e-05
-1.42227e-06
1.172e-05
-2.0327e-06
1.18047e-05
-2.59475e-06
1.18744e-05
-3.10114e-06
-3.54381e-06
1.19331e-05
1.09568e-06
6.83554e-06
2.21042e-06
7.47224e-06
3.22964e-06
7.53143e-06
4.15489e-06
7.44255e-06
4.98972e-06
7.23761e-06
5.73791e-06
6.93005e-06
6.40424e-06
6.52967e-06
6.99457e-06
6.04499e-06
7.51566e-06
5.48459e-06
7.97492e-06
4.85792e-06
8.38013e-06
4.17577e-06
8.73901e-06
3.45065e-06
9.05863e-06
2.69701e-06
9.34463e-06
1.93115e-06
9.60025e-06
1.17075e-06
9.82527e-06
4.33559e-07
1.00163e-05
-2.65924e-07
1.01717e-05
-9.24278e-07
1.02958e-05
-1.54637e-06
1.03956e-05
-2.13252e-06
1.0478e-05
-2.67718e-06
1.05485e-05
-3.17173e-06
-3.60668e-06
1.06114e-05
9.315e-07
5.90403e-06
1.87391e-06
6.52988e-06
2.74234e-06
6.66306e-06
3.53579e-06
6.6491e-06
4.25487e-06
6.51849e-06
4.90132e-06
6.28356e-06
5.47818e-06
5.95276e-06
5.98969e-06
5.53344e-06
6.44109e-06
5.03315e-06
6.83848e-06
4.46047e-06
7.18874e-06
3.82546e-06
7.49925e-06
3.1401e-06
7.77743e-06
2.4188e-06
8.0298e-06
1.67875e-06
8.26044e-06
9.40098e-07
8.46821e-06
2.25763e-07
8.64445e-06
-4.42182e-07
8.78319e-06
-1.06304e-06
8.89024e-06
-1.65344e-06
8.97532e-06
-2.21761e-06
9.04678e-06
-2.74865e-06
9.11049e-06
-3.23543e-06
-3.66649e-06
9.17032e-06
7.80544e-07
5.12351e-06
1.57152e-06
5.73895e-06
2.30518e-06
5.9294e-06
2.97696e-06
5.97728e-06
3.58583e-06
5.90957e-06
4.13266e-06
5.73667e-06
4.61956e-06
5.46583e-06
5.04944e-06
5.10352e-06
5.42602e-06
4.65651e-06
5.75395e-06
4.13249e-06
6.03891e-06
3.54043e-06
6.28786e-06
2.89111e-06
6.50886e-06
2.19778e-06
6.71057e-06
1.47704e-06
6.90035e-06
7.50324e-07
7.07896e-06
4.71612e-08
7.22908e-06
-5.92288e-07
7.33762e-06
-1.17157e-06
7.41466e-06