/*--------------------------------*- C++ -*----------------------------------*\
  =========                 |
  \\      /  F ield         | OpenFOAM: The Open Source CFD Toolbox
   \\    /   O peration     | Website:  https://openfoam.org
    \\  /    A nd           | Version:  9
     \\/     M anipulation  |
\*---------------------------------------------------------------------------*/
FoamFile
{
    format      ascii;
    class       volScalarField;
    location    "22.7";
    object      p;
}
// * * * * * * * * * * * * * * * * * * * * * * * * * * * * * * * * * * * * * //

dimensions      [0 2 -2 0 0 0 0];

internalField   nonuniform List<scalar> 
918
(
23.4695
23.5786
0.957576
22.8869
1.0128
23.0951
3.27749
13.7865
19.2427
2.93414
2.62353
14.4089
20.638
16.8795
12.9957
0.924468
14.0528
2.25138
18.4604
1.3988
12.9946
20.4482
21.5369
19.2845
14.1217
14.3745
18.6004
1.14876
0.109051
0.257435
0.977623
0.409347
0.147902
21.632
22.3086
22.247
15.4954
10.4055
3.60183
3.80601
2.98786
2.81141
13.8291
13.929
5.86951
13.7655
13.7613
16.6443
19.1108
19.2544
19.5476
19.3366
19.723
5.97751
2.78612
2.60693
2.87529
2.94899
2.98113
2.696
2.67746
2.4815
2.33555
13.8883
14.4819
14.5371
14.2683
14.2159
22.4547
21.6977
22.0325
21.1388
21.2842
20.2142
19.8286
17.2551
17.6076
16.4814
16.1005
12.7861
12.7473
13.2157
13.4655
0.145688
1.07475
1.2225
14.0598
14.0962
14.0964
14.1109
8.29018
2.1931
2.19638
17.9008
17.4773
20.4822
20.7494
20.1964
20.0109
1.53115
1.52643
1.15296
1.18244
0.951355
13.3357
13.4898
19.2359
18.4028
14.1552
14.0553
14.1302
11.5005
13.9107
13.984
15.3242
15.7797
14.9689
15.4054
18.1704
17.7523
19.0369
19.4742
0.394255
0.15539
0.68711
0.317932
0.516396
15.3637
15.1583
15.6113
15.6621
15.8933
10.4102
10.3405
10.3845
10.3045
4.15287
4.46736
2.26057
2.57554
2.42655
9.87087
13.9452
13.9919
4.81403
5.51797
5.18159
6.35182
6.72607
16.01
16.4466
16.1853
17.7316
16.9365
17.2847
19.8138
19.303
19.6035
6.37319
6.60811
5.61165
5.25258
2.24248
2.49036
2.43312
2.98015
2.9579
3.21626
3.34555
2.69685
2.55379
2.89131
2.7749
2.82675
2.16539
2.03564
13.6123
13.3984
14.1513
14.3298
15.097
14.9487
14.6553
14.8241
19.0237
19.4271
19.4606
19.0764
11.5476
10.1575
13.72
13.9954
0.302155
0.265077
0.138078
0.380788
0.400193
0.141771
2.01424
1.82582
1.40471
1.68026
14.0573
14.017
8.53079
8.75031
8.12686
7.87035
16.3149
16.4652
17.0993
16.6991
1.96256
1.67659
1.80625
13.6525
13.5251
13.6319
10.9357
10.3692
11.9782
12.248
13.9922
14.0359
14.0319
15.6838
16.0023
19.825
20.0957
19.9225
20.3083
21.3711
21.0224
20.6376
14.5396
14.948
14.7864
16.1286
15.7622
15.9817
15.1896
15.4943
15.3522
10.3721
10.4183
10.1236
10.2013
10.2494
10.1966
9.80838
9.68154
14.0783
14.0335
14.0575
7.2539
7.75185
4.87161
4.5424
12.5442
13.2175
12.893
18.6534
17.9757
18.7087
18.3378
17.8879
18.2114
10.429
10.3904
10.4238
14.9197
14.2576
14.6095
2.43874
2.0746
2.23739
8.94631
9.03926
6.9769
7.59441
7.25708
16.3039
16.6443
17.3244
16.4362
16.9038
17.4111
17.1892
9.94395
10.0764
9.99337
9.66548
9.55917
9.73603
8.33689
8.95008
3.6123
4.27027
3.96544
9.20713
9.43656
9.28392
18.6305
19.1653
0.767205
1.15575
19.5954
19.3191
0.140389
0.242276
14.2561
12.5536
7.26432
17.1977
16.6304
18.9701
3.19244
6.10488
2.8068
3.38055
2.68627
14.616
14.25
13.3411
0.454005
1.257
1.7082
2.90102
18.4109
17.7358
18.8519
19.172
19.2264
0.688195
0.914034
0.584283
1.24213
1.0311
1.27548
15.5514
15.6495
4.32737
18.8589
19.1632
19.1809
17.6577
18.6103
17.6678
0.935873
0.64284
0.708063
10.0815
12.1222
14.2163
13.7689
13.9659
13.988
13.7389
14.8722
14.5418
14.5067
14.9915
13.9676
13.8227
7.73558
6.38505
8.07022
7.71051
17.0991
16.687
16.4939
16.2396
18.0853
17.6114
18.4618
17.8502
18.312
18.5988
2.94151
3.13165
3.01275
2.52233
6.14503
6.61085
5.48981
5.63686
4.26045
2.42608
2.52496
2.75121
2.58237
2.93071
2.67868
2.94272
2.57854
2.32373
2.32063
2.92983
2.73753
2.60325
14.5943
14.5328
14.3337
14.3717
14.3542
14.4699
13.5356
13.9403
13.5681
12.3993
12.9803
12.5076
0.826385
0.662332
0.525473
1.32458
1.35174
1.11065
0.835057
1.17428
1.20177
0.81451
1.54427
1.445
3.15896
2.6485
8.84682
7.97527
6.90137
16.801
17.6028
16.7724
18.0132
18.4301
18.5355
18.1559
17.6477
15.7302
15.7253
15.3855
15.3389
4.77291
3.73567
4.96947
4.53864
10.4805
14.066
11.8433
10.8046
11.1008
13.4246
13.9316
13.5838
13.7209
13.2958
12.824
13.516
13.0497
13.151
12.9299
15.7205
16.1956
15.8021
15.2226
15.2426
10.601
12.0166
5.46778
5.6415
7.24475
6.53918
13.512
13.934
13.9186
13.5576
13.7455
13.7462
13.607
13.781
13.8612
13.7557
11.8249
10.1447
9.04618
9.03979
14.0776
12.3468
12.9312
12.4141
16.1209
16.6373
16.252
15.6465
16.1315
15.6034
15.6306
15.8438
17.2019
16.9515
16.7213
17.1081
3.05294
3.0014
3.64557
3.13523
3.03725
2.82235
3.48368
4.75779
4.4154
6.71982
7.26939
4.57917
3.37261
3.79198
4.80634
5.54154
5.51272
3.96954
4.50251
4.92987
4.44106
5.22734
4.73136
2.71722
3.02276
2.86092
2.83486
3.38185
3.88061
3.37586
2.47926
2.59017
2.25487
2.11766
3.53405
2.9923
3.02885
3.67693
1.10678
1.32909
1.44149
2.41309
1.91202
1.97824
15.183
14.827
14.9607
14.2399
14.3074
14.2485
13.8729
15.2404
14.9624
15.0619
13.7104
13.7971
13.6104
13.9057
14.3216
14.6209
15.4527
15.1739
14.4129
14.564
14.2149
14.1431
13.4652
12.9022
12.8417
1.11283
0.823638
0.983915
0.911521
0.607468
0.799643
2.18315
1.57246
1.96951
1.72728
1.9601
1.4035
1.30213
4.25329
5.06118
3.96673
3.36795
3.06754
8.90451
9.01622
8.16508
7.86116
8.20284
8.43319
8.38321
7.13963
7.56816
7.38087
9.92
9.58527
17.5871
17.5312
17.2024
17.0435
17.27
5.76192
7.6652
6.79994
7.91654
10.2092
10.5054
9.31222
8.70708
9.45944
9.53663
14.0477
14.1239
13.5647
14.0505
14.079
11.8355
12.8829
13.4976
13.3121
13.832
13.913
12.9741
13.5627
13.4778
12.7604
12.8135
12.1284
12.4669
11.9949
11.794
14.0565
13.9512
14.221
13.7718
14.1511
13.7154
14.0307
14.0287
14.3093
13.4112
12.8326
12.8511
13.2773
12.9773
13.3233
13.4873
9.30892
9.94986
10.3895
10.9253
10.633
10.4146
10.2819
10.5835
10.5606
10.8316
10.751
10.6017
11.5616
13.4185
13.7034
13.805
13.6014
13.6475
13.3401
13.6132
13.5423
13.9206
14.0086
14.0582
13.1389
13.2953
13.4904
13.374
11.6758
10.0968
9.94936
9.50929
7.57752
8.04738
11.0255
9.90274
8.9184
8.99017
12.1692
10.8065
11.6198
12.0429
10.6945
10.3066
12.9718
13.7601
13.9799
13.704
12.0606
12.1865
12.6362
13.0797
13.269
13.725
15.8607
16.4364
16.5142
16.2383
16.1003
16.2002
15.9503
16.0533
16.5274
16.654
16.4852
2.87798
2.99131
2.92153
2.84707
3.08401
2.85911
3.95336
3.94348
3.15416
3.33483
3.35477
3.46087
2.92859
2.9719
4.82554
5.06152
5.33332
4.83199
6.17474
6.82001
7.40213
7.08514
5.78916
5.87001
6.18649
3.50524
3.53318
3.25113
3.70783
3.76062
2.60967
2.23734
2.04233
2.56107
2.664
2.04893
1.76765
1.81657
2.33022
2.04984
1.80431
14.9755
14.7338
14.7552
14.535
14.5896
14.9844
15.2053
15.0153
15.1537
15.2047
14.8039
14.6928
14.8639
1.81798
1.49284
1.62241
1.57996
1.64235
1.5488
1.73618
7.6079
6.41529
6.80265
5.97891
4.12153
4.64204
9.54255
9.96449
10.0028
9.71505
9.50445
9.87005
9.72096
9.71405
8.26496
9.33592
8.87021
9.2669
9.28754
9.35582
9.06889
9.08121
10.5852
10.6186
9.48337
10.1235
9.33182
7.93261
8.09968
9.11319
10.0868
10.4074
10.252
9.98129
9.75271
10.1171
10.1719
10.2322
10.2216
8.75242
8.71168
8.31139
13.9694
13.876
14.0226
14.0277
14.1547
13.9793
13.8163
14.0936
14.1479
13.9321
11.0797
11.1387
11.3845
12.1316
12.1836
12.0934
11.3381
13.1027
12.758
13.3964
13.343
13.4149
13.0049
12.8282
13.0989
10.0813
11.454
10.9867
11.2503
10.0639
9.30764
13.2242
13.2783
13.3439
13.617
13.5747
14.1583
15.8306
15.7006
15.7479
15.7909
15.4026
15.4398
4.1744
3.82763
4.54809
4.50461
4.06301
3.76322
2.28676
1.96856
1.78098
1.65534
1.88884
1.94935
8.16207
8.19056
6.33353
7.35623
5.87707
4.93605
4.79209
5.95504
7.13643
7.19613
8.51592
9.19423
8.75257
8.57849
7.92138
8.25198
10.12
10.214
10.1147
10.4335
9.96619
11.7146
11.2967
11.6457
13.26
12.9693
12.3711
12.2577
12.2227
12.8159
11.948
11.1795
11.8922
12.5481
12.5063
11.1201
10.8751
11.3017
11.2854
10.1993
10.7199
10.4819
10.8342
10.5491
)
;

boundaryField
{
    wall-4
    {
        type            zeroGradient;
    }
    velocity-inlet-5
    {
        type            zeroGradient;
    }
    velocity-inlet-6
    {
        type            zeroGradient;
    }
    pressure-outlet-7
    {
        type            fixedValue;
        value           uniform 0;
    }
    wall-8
    {
        type            zeroGradient;
    }
    frontAndBackPlanes
    {
        type            empty;
    }
}


// ************************************************************************* //
