/*--------------------------------*- C++ -*----------------------------------*\
  =========                 |
  \\      /  F ield         | OpenFOAM: The Open Source CFD Toolbox
   \\    /   O peration     | Website:  https://openfoam.org
    \\  /    A nd           | Version:  9
     \\/     M anipulation  |
\*---------------------------------------------------------------------------*/
FoamFile
{
    format      ascii;
    class       surfaceScalarField;
    location    "8.39";
    object      alphaPhi0.water;
}
// * * * * * * * * * * * * * * * * * * * * * * * * * * * * * * * * * * * * * //

dimensions      [0 3 -1 0 0 0 0];

internalField   nonuniform List<scalar> 
4432
(
-1.56952e-07
1.56952e-07
-2.93324e-07
1.36375e-07
-4.15049e-07
1.21725e-07
-5.21659e-07
1.06611e-07
-6.11559e-07
8.99023e-08
-6.82286e-07
7.07274e-08
-7.31798e-07
4.95136e-08
-7.58876e-07
2.70815e-08
-7.64663e-07
5.78843e-09
-7.50827e-07
-1.38361e-08
-7.13451e-07
-3.73753e-08
-6.42285e-07
-7.11647e-08
-5.23534e-07
-1.1875e-07
-3.4985e-07
-1.73685e-07
-1.37534e-07
-2.12317e-07
4.80005e-08
-1.85535e-07
8.58506e-08
-3.78499e-08
-7.51611e-08
1.61013e-07
-4.83792e-07
4.09224e-07
-1.01353e-06
5.28844e-07
-1.15691e-06
1.42183e-07
-8.08266e-07
-3.48657e-07
-8.08446e-07
-1.50733e-07
3.07685e-07
-2.8443e-07
2.70074e-07
-4.05795e-07
2.43092e-07
-5.13332e-07
2.14149e-07
-6.05432e-07
1.82005e-07
-6.79805e-07
1.45103e-07
-7.34278e-07
1.0399e-07
-7.68163e-07
6.09683e-08
-7.82403e-07
2.00302e-08
-7.77316e-07
-1.89221e-08
-7.50722e-07
-6.3969e-08
-6.96296e-07
-1.25592e-07
-6.0572e-07
-2.09327e-07
-4.75713e-07
-3.03692e-07
-3.20348e-07
-3.67681e-07
-1.86341e-07
-3.19542e-07
-1.52935e-07
-7.12548e-08
-2.62827e-07
2.70941e-07
-4.679e-07
6.15209e-07
-6.85315e-07
7.45368e-07
-7.77611e-07
2.34165e-07
-6.58508e-07
-4.67764e-07
-1.46696e-06
-1.45744e-07
4.53429e-07
-2.78076e-07
4.02409e-07
-3.9924e-07
3.64258e-07
-5.08271e-07
3.23181e-07
-6.03366e-07
2.77102e-07
-6.82246e-07
2.23984e-07
-7.42632e-07
1.64378e-07
-7.83647e-07
1.01983e-07
-8.05758e-07
4.21401e-08
-8.09656e-07
-1.5024e-08
-7.94276e-07
-7.93506e-08
-7.55535e-07
-1.64334e-07
-6.87754e-07
-2.7711e-07
-5.88465e-07
-4.02982e-07
-4.66136e-07
-4.90004e-07
-3.53251e-07
-4.3243e-07
-3.13652e-07
-1.10835e-07
-3.78043e-07
3.35352e-07
-4.53112e-07
6.91471e-07
-4.8919e-07
7.80549e-07
-5.40686e-07
2.85522e-07
-4.99222e-07
-5.09235e-07
-1.96618e-06
-1.42611e-07
5.96042e-07
-2.75167e-07
5.34965e-07
-3.97434e-07
4.86526e-07
-5.08973e-07
4.3472e-07
-6.08117e-07
3.76246e-07
-6.92348e-07
3.08214e-07
-7.59244e-07
2.31273e-07
-8.0766e-07
1.50397e-07
-8.37976e-07
7.24528e-08
-8.51284e-07
-1.71816e-09
-8.47525e-07
-8.31122e-08
-8.24249e-07
-1.87612e-07
-7.77242e-07
-3.24118e-07
-7.032e-07
-4.77025e-07
-6.04038e-07
-5.89161e-07
-4.96882e-07
-5.39469e-07
-4.39525e-07
-1.6825e-07
-4.5791e-07
3.53692e-07
-4.57613e-07
6.91957e-07
-3.9055e-07
7.14379e-07
-3.86557e-07
2.81371e-07
-3.56501e-07
-5.39293e-07
-2.3225e-06
-1.40907e-07
7.3695e-07
-2.74648e-07
6.68706e-07
-3.9909e-07
6.1097e-07
-5.14231e-07
5.49859e-07
-6.18492e-07
4.80508e-07
-7.0914e-07
3.9886e-07
-7.83432e-07
3.05562e-07
-8.39929e-07
2.0689e-07
-8.78979e-07
1.11499e-07
-9.02123e-07
2.14212e-08
-9.1026e-07
-7.49787e-08
-9.02221e-07
-1.95654e-07
-8.74685e-07
-3.51657e-07
-8.23301e-07
-5.2841e-07
-7.43988e-07
-6.68473e-07
-6.3653e-07
-6.46372e-07
-5.50018e-07
-2.54997e-07
-5.24982e-07
3.28552e-07
-4.72952e-07
6.39934e-07
-3.48082e-07
5.89727e-07
-2.92781e-07
2.26495e-07
-2.20327e-07
-6.12079e-07
-2.54255e-06
-1.40382e-07
8.77331e-07
-2.76378e-07
8.04702e-07
-4.03904e-07
7.38497e-07
-5.23582e-07
6.69534e-07
-6.33944e-07
5.90869e-07
-7.31969e-07
4.96882e-07
-8.14509e-07
3.88099e-07
-8.79758e-07
2.72135e-07
-9.27973e-07
1.5971e-07
-9.61124e-07
5.45678e-08
-9.80953e-07
-5.51529e-08
-9.87376e-07
-1.89233e-07
-9.77918e-07
-3.61117e-07
-9.47811e-07
-5.58517e-07
-8.88938e-07
-7.27345e-07
-7.86829e-07
-7.46988e-07
-6.58793e-07
-3.83918e-07
-5.93524e-07
2.63289e-07
-4.95875e-07
5.42292e-07
-3.3647e-07
4.30328e-07
-2.34447e-07
1.24689e-07
-6.46448e-08
-7.81014e-07
-2.60769e-06
-1.40678e-07
1.01801e-06
-2.80224e-07
9.44247e-07
-4.11575e-07
8.6985e-07
-5.3649e-07
7.94448e-07
-6.53675e-07
7.08055e-07
-7.59799e-07
6.03007e-07
-8.51266e-07
4.79565e-07
-9.25811e-07
3.46679e-07
-9.8346e-07
2.17359e-07
-1.02643e-06
9.75413e-08
-1.05721e-06
-2.43794e-08
-1.07654e-06
-1.69896e-07
-1.0831e-06
-3.54564e-07
-1.07266e-06
-5.68956e-07
-1.03569e-06
-7.64316e-07
-9.53037e-07
-8.29637e-07
-7.90671e-07
-5.37714e-07
-6.5177e-07
1.22961e-07
-5.11712e-07
3.90139e-07
-3.48149e-07
2.67718e-07
-1.71084e-07
-5.26255e-08
1.01653e-07
-1.05083e-06
-2.50551e-06
-1.45012e-07
1.16302e-06
-2.86574e-07
1.08581e-06
-4.21321e-07
1.0046e-06
-5.51859e-07
9.24989e-07
-6.76263e-07
8.32464e-07
-7.90874e-07
7.17622e-07
-8.91693e-07
5.80389e-07
-9.75929e-07
4.3092e-07
-1.04315e-06
2.84585e-07
-1.09538e-06
1.49772e-07
-1.13577e-06
1.60146e-08
-1.16549e-06
-1.40168e-07
-1.18486e-06
-3.35194e-07
-1.19085e-06
-5.62965e-07
-1.17406e-06
-7.81102e-07
-1.11509e-06
-8.88612e-07
-9.58229e-07
-6.82634e-07
-7.33983e-07
-1.03904e-07
-5.25196e-07
1.78698e-07
-3.56632e-07
9.87851e-08
-9.03847e-08
-3.24588e-07
1.97764e-07
-1.34517e-06
-2.30723e-06
-9.8596e-07
9.84067e-07
-3.50875e-07
-6.34929e-07
5.2692e-07
-8.78325e-07
1.16215e-06
-6.35847e-07
1.60925e-06
-4.48099e-07
1.91992e-06
-3.15692e-07
2.09067e-06
-1.7413e-07
2.24271e-06
-1.53608e-07
2.30754e-06
-6.60175e-08
2.18628e-06
1.18248e-07
1.80115e-06
3.85118e-07
9.87473e-07
8.13666e-07
1.35388e-07
8.5365e-07
-2.20669e-07
3.56056e-07
-3.27052e-07
1.06382e-07
-2.93701e-07
-3.33512e-08
-3.06937e-07
1.32345e-08
-9.1356e-08
-2.15581e-07
-9.14762e-08
-5.80869e-07
1.55523e-06
5.10528e-08
-1.26599e-06
6.39996e-07
-1.46725e-06
1.08511e-06
-1.08097e-06
1.39001e-06
-7.53002e-07
1.59492e-06
-5.20612e-07
1.76719e-06
-3.46402e-07
1.8737e-06
-2.60186e-07
1.84787e-06
-4.0263e-08
1.65599e-06
3.09496e-07
1.38296e-06
6.54281e-07
9.82687e-07
1.21392e-06
5.21799e-07
1.31451e-06
1.65724e-07
7.14338e-07
-7.35228e-08
3.45627e-07
-2.30952e-07
1.24077e-07
-4.503e-07
2.32491e-07
-4.42632e-07
-2.22314e-07
-5.33283e-07
-7.18089e-08
1.62704e-06
3.73173e-07
-1.70952e-06
7.49345e-07
-1.84341e-06
1.04217e-06
-1.37381e-06
1.25623e-06
-9.67067e-07
1.40759e-06
-6.71988e-07
1.53297e-06
-4.71778e-07
1.60378e-06
-3.30981e-07
1.54549e-06
1.79173e-08
1.32604e-06
5.28603e-07
1.08237e-06
8.9648e-07
8.9878e-07
1.39794e-06
7.0715e-07
1.51401e-06
3.97434e-07
1.02693e-06
1.11904e-07
6.31159e-07
-1.33469e-07
3.69448e-07
-4.79864e-07
5.79171e-07
-5.95065e-07
-1.07395e-07
-1.12863e-06
4.19206e-07
1.20783e-06
6.59097e-07
-1.94449e-06
8.41524e-07
-2.02583e-06
1.0117e-06
-1.544e-06
1.15291e-06
-1.1083e-06
1.25691e-06
-7.76059e-07
1.3432e-06
-5.58254e-07
1.39066e-06
-3.78481e-07
1.32825e-06
7.99106e-08
1.12789e-06
7.2898e-07
9.24726e-07
1.09929e-06
8.43596e-07
1.47972e-06
7.68491e-07
1.59186e-06
5.28208e-07
1.26808e-06
2.65336e-07
8.9472e-07
6.58951e-09
6.28189e-07
-3.7654e-07
9.60446e-07
-5.03157e-07
1.88073e-08
-1.63476e-06
7.98778e-07
4.09058e-07
8.69207e-07
-2.01212e-06
9.00946e-07
-2.05756e-06
9.79544e-07
-1.62258e-06
1.06246e-06
-1.19119e-06
1.1251e-06
-8.38878e-07
1.17793e-06
-6.11267e-07
1.21028e-06
-4.11155e-07
1.16152e-06
1.28645e-07
9.94914e-07
8.94543e-07
8.45646e-07
1.24927e-06
8.08488e-07
1.51687e-06
7.72556e-07
1.62779e-06
5.8723e-07
1.45259e-06
4.05657e-07
1.06904e-06
2.11876e-07
8.15718e-07
-1.33232e-07
1.29885e-06
-2.83676e-07
1.69282e-07
-1.91844e-06
9.55566e-07
-5.45624e-07
9.59482e-07
-2.0153e-06
9.18002e-07
-2.01607e-06
9.38936e-07
-1.64353e-06
9.79117e-07
-1.23138e-06
1.00691e-06
-8.66783e-07
1.02873e-06
-6.33213e-07
1.05138e-06
-4.33988e-07
1.02812e-06
1.51121e-07
9.02303e-07
1.02036e-06
8.02863e-07
1.34871e-06
7.92504e-07
1.52723e-06
7.75034e-07
1.64526e-06
6.23176e-07
1.60445e-06
5.11363e-07
1.17136e-06
4.41429e-07
8.92248e-07
1.98355e-07
1.54149e-06
4.70752e-09
3.63521e-07
-1.91373e-06
9.01801e-07
-1.44742e-06
9.49849e-07
-2.06335e-06
8.97583e-07
-1.96381e-06
8.88804e-07
-1.63476e-06
9.0031e-07
-1.24291e-06
8.99702e-07
-8.66172e-07
8.91646e-07
-6.25156e-07
8.99418e-07
-4.41759e-07
9.06887e-07
1.38779e-07
8.38593e-07
1.07106e-06
7.84085e-07
1.40322e-06
7.94218e-07
1.5171e-06
7.878e-07
1.64929e-06
6.69494e-07
1.69781e-06
6.34354e-07
1.19469e-06
6.37563e-07
8.97775e-07
5.18482e-07
1.65569e-06
3.0087e-07
5.84182e-07
-1.61286e-06
8.12986e-07
-2.2604e-06
8.98875e-07
-2.14924e-06
8.53802e-07
-1.91874e-06
8.29996e-07
-1.61096e-06
8.24287e-07
-1.23721e-06
8.03275e-07
-8.45161e-07
7.70194e-07
-5.92073e-07
7.42741e-07
-4.14304e-07
7.8003e-07
8.93779e-08
7.93133e-07
1.04845e-06
7.88249e-07
1.40432e-06
8.16012e-07
1.48933e-06
8.10651e-07
1.64493e-06
7.5584e-07
1.71847e-06
8.09878e-07
1.15339e-06
7.5932e-07
9.48672e-07
7.98021e-07
1.6247e-06
5.68081e-07
8.11931e-07
-1.04478e-06
-3.02326e-07
1.46535e-06
-6.17364e-07
1.40085e-06
-9.25185e-07
1.31242e-06
-1.22574e-06
1.22554e-06
-1.51508e-06
1.1218e-06
-1.787e-06
9.89538e-07
-2.03304e-06
8.26428e-07
-2.24537e-06
6.43245e-07
-2.42013e-06
4.59341e-07
-2.56045e-06
2.9009e-07
-2.66925e-06
1.24817e-07
-2.75646e-06
-5.29618e-08
-2.82453e-06
-2.67123e-07
-2.873e-06
-5.1449e-07
-2.88648e-06
-7.67618e-07
-2.81176e-06
-9.6323e-07
-2.53837e-06
-9.56264e-07
-1.96267e-06
-6.74681e-07
-1.29128e-06
-4.81559e-07
-6.64979e-07
-5.28766e-07
-5.68484e-08
-9.41942e-07
1.16375e-07
-1.51617e-06
-1.94517e-06
-2.44441e-07
-2.55721e-07
1.22718e-06
-5.9944e-07
1.24716e-06
-9.41443e-07
1.1851e-06
-1.25165e-06
1.10074e-06
-1.54465e-06
1.01595e-06
-1.83602e-06
9.23865e-07
-2.11501e-06
8.01576e-07
-2.37258e-06
6.56668e-07
-2.59537e-06
5.00375e-07
-2.76888e-06
3.42161e-07
-2.88558e-06
1.79584e-07
-2.94953e-06
8.48011e-09
-2.99079e-06
-1.80071e-07
-3.02363e-06
-3.87004e-07
-3.05006e-06
-6.01861e-07
-3.02536e-06
-8.08874e-07
-2.80635e-06
-9.56065e-07
-2.26272e-06
-1.00607e-06
-1.47549e-06
-1.0516e-06
-6.31462e-07
-1.1491e-06
6.36552e-09
-1.32523e-06
2.9984e-07
-1.5125e-06
-1.65462e-06
3.42997e-07
-1.53933e-07
0
-2.58532e-07
2.38229e-09
-3.6334e-07
8.30122e-10
-4.74098e-07
0
-5.72858e-07
0
-6.52702e-07
8.8641e-09
-7.33858e-07
1.02023e-08
-8.24364e-07
6.07504e-09
-9.17754e-07
3.07174e-09
-9.97519e-07
1.08771e-09
-1.05182e-06
0
-1.07719e-06
0
-1.08289e-06
-8.84339e-10
-1.08733e-06
-2.09679e-09
-1.09893e-06
-2.33364e-09
-1.11686e-06
-3.1158e-09
-1.0904e-06
-4.04774e-09
-9.12612e-07
-4.05815e-09
-6.01115e-07
-2.59294e-09
-2.39897e-07
-3.00491e-09
3.20466e-08
-3.24427e-09
1.55561e-07
-2.87017e-09
-2.11722e-09
1.94681e-07
-3.69587e-09
0
-1.71409e-09
-1.68511e-11
-1.17404e-09
6.1894e-13
-2.1327e-09
0
-4.31252e-09
0
-3.73833e-09
0
-2.83723e-09
0
-2.22149e-09
0
-1.76152e-09
0
-1.40124e-09
0
-1.15124e-09
0
-9.38397e-10
0
-9.32043e-10
-1.01117e-09
-8.89422e-10
-2.25452e-09
-8.86648e-10
-2.4413e-09
-8.581e-10
-3.23903e-09
-7.61795e-10
-4.23045e-09
-6.01277e-10
-4.30025e-09
-4.40445e-10
-2.83366e-09
-1.95554e-10
-3.32762e-09
3.14362e-11
-3.54549e-09
1.82636e-10
-3.09199e-09
-2.28464e-09
2.81115e-10
-6.25445e-10
1.26272e-10
-8.58364e-10
-2.67777e-10
-1.59247e-09
4.81225e-10
-1.97693e-09
7.01029e-10
-3.11785e-09
7.86701e-10
-5.30638e-09
9.86949e-10
-6.44465e-09
4.31321e-10
-6.36083e-09
4.00201e-10
-6.0587e-09
5.0762e-10
-5.38871e-09
3.11389e-10
-4.40692e-09
-4.60326e-15
-3.42332e-09
-6.07261e-13
-1.65124e-09
-9.22137e-11
4.54611e-10
-2.38377e-10
5.99948e-10
-1.54974e-09
4.26848e-10
-1.57844e-09
2.23022e-10
-1.69017e-09
3.54739e-11
-2.05887e-09
0
-1.44725e-09
1.61301e-10
-2.15847e-09
2.5819e-11
-2.33825e-09
1.32644e-10
-2.12715e-09
-1.7022e-09
1.79387e-11
1.46967e-09
1.16411e-10
5.5568e-10
0
5.61416e-11
0
6.87105e-13
0
3.22542e-11
2.47967e-12
-1.02945e-11
0
-8.1346e-12
0
-1.65265e-11
1.82571e-13
-1.03999e-11
0
-4.0261e-14
-1.47197e-15
-3.65034e-14
-9.76713e-15
-1.03001e-13
-5.4124e-13
-1.05807e-13
-9.2214e-11
3.32691e-14
-2.38568e-10
1.89373e-11
-2.40948e-10
2.65514e-11
-1.29712e-10
2.70361e-11
-5.15325e-11
-8.80037e-11
-1.82554e-10
-2.04623e-10
-2.35459e-10
-4.54991e-10
-2.65312e-10
-6.0595e-10
-5.80923e-10
-1.02081e-09
-9.28283e-10
-1.18291e-09
-8.23448e-10
2.66062e-12
2.95463e-15
9.03468e-14
5.62381e-15
9.88441e-13
0
2.73628e-13
0
1.38259e-13
0
1.51177e-14
0
-4.69391e-15
0
-1.48895e-14
0
-1.88476e-14
0
-2.28284e-14
0
-3.44977e-14
-8.50058e-16
-4.59283e-12
-1.92271e-12
-2.5272e-11
-8.58725e-11
-1.44873e-12
-2.19324e-10
6.88524e-12
-2.0624e-10
3.57702e-12
-6.41532e-11
1.5264e-12
-1.61716e-11
-2.58453e-12
-1.01953e-11
-3.0278e-12
-3.84712e-12
-2.70916e-11
-5.11916e-15
-1.33223e-10
-1.21058e-14
-2.36238e-10
-1.92986e-14
-2.89869e-12
-5.05007e-10
-2.86924e-15
5.08014e-15
-6.03273e-15
8.49228e-15
-3.05217e-14
1.00189e-14
2.11181e-13
5.42121e-13
6.80137e-13
3.52537e-12
4.36629e-13
4.1604e-12
4.45813e-14
2.12384e-12
5.45485e-15
8.03042e-13
-1.29266e-13
1.22458e-12
-5.72299e-15
5.89727e-13
0
-8.47179e-14
-1.77092e-12
-1.09209e-12
-9.04441e-12
-1.23932e-15
-3.10083e-11
-2.91026e-14
-2.6454e-11
-1.23273e-11
-1.71373e-11
-4.3384e-11
-1.03379e-11
-1.41589e-11
-5.02414e-12
-2.91667e-12
-7.46948e-15
-3.03435e-15
-8.95652e-15
-4.19309e-15
-1.18984e-14
-9.72458e-15
-2.32864e-14
-8.47155e-15
-1.07023e-14
-2.91154e-12
-1.54969e-15
6.33172e-15
-1.67111e-15
8.28828e-15
-1.35929e-15
9.45995e-15
-5.02351e-16
8.64039e-15
1.57655e-13
1.12755e-12
5.57668e-13
4.59077e-12
3.98237e-13
3.11374e-12
2.25163e-13
6.73811e-13
9.19385e-14
2.17078e-12
3.97288e-15
7.11237e-13
1.25862e-14
-2.30902e-13
3.51708e-15
-5.04769e-16
-1.86576e-16
-1.42087e-15
-1.19013e-14
-2.12693e-14
-1.22768e-11
-6.45136e-14
-1.4318e-11
-7.35741e-12
-1.3101e-11
-6.43089e-12
-2.97277e-14
-5.7398e-13
-2.07229e-14
-7.91604e-16
-1.30808e-14
-5.5733e-16
-1.29219e-14
-2.30647e-15
-1.56196e-14
-6.34857e-15
-7.4952e-15
-1.94148e-14
-1.07887e-15
9.05742e-15
-1.35459e-15
8.32208e-15
-9.09998e-16
8.77408e-15
-5.39347e-16
8.02807e-15
1.01386e-13
6.26148e-14
2.7423e-13
2.11921e-12
1.71698e-13
1.16438e-12
1.16494e-13
1.03387e-13
8.38707e-15
1.77481e-12
-1.16359e-13
8.69527e-13
-1.99497e-16
-1.06905e-13
-2.38987e-16
-2.2196e-16
-1.85582e-15
-5.46591e-16
-2.5014e-15
-1.77044e-13
-1.49696e-13
0
-2.8756e-12
-1.33734e-12
-1.42673e-12
-8.02107e-13
-3.806e-14
-3.098e-14
-2.6769e-14
-8.66209e-16
-3.02281e-14
-2.53489e-16
-2.7258e-14
-3.53807e-15
0
-7.87263e-15
-1.72852e-14
0
-1.28312e-15
1.40816e-14
-8.86423e-15
2.18468e-13
-6.7876e-16
3.28072e-13
-8.8078e-16
8.08998e-15
1.84027e-15
1.93194e-15
1.81678e-14
0
1.70971e-14
8.40908e-14
-2.83909e-15
1.16597e-13
-2.03685e-13
1.22948e-12
-2.7944e-13
9.78826e-13
-6.723e-16
6.85445e-14
-5.36356e-16
-1.18569e-16
-4.9691e-16
-3.42718e-16
-7.86516e-13
-5.05323e-14
-1.49351e-12
-2.52102e-12
-6.76383e-13
-5.94478e-12
-5.63372e-14
-1.2696e-12
-4.25561e-14
-2.85484e-15
-6.18645e-14
-3.583e-16
-6.06558e-14
1.52147e-15
-5.88298e-14
-1.99795e-15
0
-5.85729e-15
-3.94297e-15
0
-7.06545e-15
3.05393e-14
-1.75442e-14
3.65312e-13
-6.5486e-15
3.5986e-13
-1.19308e-16
3.34216e-14
6.28819e-18
1.57496e-15
1.79276e-17
1.91962e-15
-5.57163e-17
7.84495e-14
-4.04659e-14
7.23929e-13
-3.28758e-13
6.16831e-13
-6.89934e-14
3.99242e-13
-3.65302e-16
1.5517e-16
-2.39547e-16
-6.95939e-18
-1.94415e-16
-1.48618e-16
-1.03831e-12
-3.68115e-14
-1.088e-11
-3.25014e-12
-1.0461e-11
-4.80765e-12
-1.33977e-12
-3.6129e-12
-5.09737e-14
-1.26435e-12
-2.39587e-14
-7.66063e-17
-5.50325e-14
9.2658e-16
-5.22161e-14
-5.29506e-16
0
-2.36035e-15
-3.2695e-15
0
-4.88471e-15
3.0639e-14
-6.442e-15
3.68322e-13
-5.50572e-16
3.55549e-13
1.24698e-16
4.98647e-14
1.36178e-17
1.45465e-15
2.44879e-16
1.45694e-15
-1.36405e-14
1.30201e-12
-9.44111e-14
2.16418e-12
-3.20018e-13
8.8339e-13
-5.56825e-16
1.04637e-13
-3.83615e-16
2.19325e-16
-2.55561e-16
9.86962e-17
0
-1.85448e-17
-1.0346e-12
-3.62039e-16
-1.05757e-11
-6.99878e-13
-1.18675e-11
-1.9602e-12
-1.09426e-11
-2.98183e-12
-1.35253e-14
-1.29546e-12
-1.3785e-14
-1.38602e-16
-1.33962e-14
1.68187e-16
-1.37078e-14
-5.78094e-16
-1.05429e-14
-2.99784e-15
-3.38051e-15
-8.94053e-15
2.27042e-16
9.42016e-15
1.33814e-15
9.75599e-14
4.03307e-15
3.54366e-13
4.74853e-16
2.4223e-14
2.4328e-16
1.45483e-15
1.97996e-14
5.52188e-14
-1.68506e-14
2.71903e-12
-1.46988e-13
2.4351e-12
-1.04415e-13
6.96879e-13
-5.10988e-16
6.02613e-16
-4.65634e-16
4.80941e-16
-4.01506e-16
3.30395e-16
-6.02707e-17
7.434e-17
0
-3.67103e-18
-1.21069e-12
-8.93243e-15
-9.80393e-12
-5.65169e-13
-1.07537e-11
-4.74883e-13
-1.43198e-14
-6.09272e-13
-1.3446e-14
-1.33983e-15
-1.34451e-14
-1.48926e-16
-2.12269e-14
-1.19423e-15
-1.30033e-14
-3.96899e-15
-6.24646e-15
-1.66835e-14
1.11277e-16
2.06826e-15
8.18511e-16
1.99468e-15
2.44093e-15
1.01049e-15
3.5406e-16
2.66999e-15
1.56259e-16
1.45977e-15
4.6934e-14
5.55824e-14
7.96351e-16
1.46062e-12
-7.95595e-14
2.65785e-12
-5.6354e-16
1.8031e-13
-4.87305e-16
3.9623e-16
-4.74809e-16
6.29152e-16
-3.363e-16
5.04358e-16
-6.544e-17
1.69705e-16
0
1.25859e-17
-3.03937e-14
0
-8.1169e-13
-8.61277e-18
-9.63007e-13
-1.55322e-17
-2.04816e-13
-4.65063e-15
-2.77001e-14
-3.62442e-16
-2.73819e-14
-8.00898e-16
-2.24065e-14
-2.84603e-15
-9.32696e-15
-5.82719e-15
-1.79007e-15
-1.95652e-14
2.24016e-17
2.01824e-15
3.72581e-17
1.95191e-15
5.26159e-17
6.44063e-16
8.81737e-17
1.30551e-15
1.43842e-15
1.96949e-15
2.15683e-14
4.67186e-14
8.42827e-15
0
-2.27268e-14
1.20115e-14
-1.71866e-16
0
-3.50315e-16
4.44061e-16
-4.15238e-16
8.4037e-16
-2.68944e-16
5.77797e-16
-6.42585e-17
8.7802e-17
-7.08413e-17
2.4144e-17
-7.45154e-17
1.20792e-17
-8.54066e-17
7.96833e-19
-1.01475e-16
-1.07953e-18
-4.74976e-15
-3.95425e-18
-1.14033e-14
-7.00586e-17
-2.56931e-14
-5.81493e-16
-2.04687e-14
-7.30079e-16
-6.04799e-15
-2.3792e-15
-8.80061e-16
-2.74303e-15
2.67444e-17
1.96358e-15
4.26432e-17
1.90839e-15
8.49373e-17
1.75914e-15
6.0712e-17
1.17304e-15
9.1909e-16
9.39065e-15
1.52811e-15
1.89477e-14
1.05488e-17
0
-4.15501e-18
2.49065e-17
-4.26702e-17
3.68082e-17
-2.13813e-16
4.85445e-16
-2.66958e-16
5.84037e-16
-8.33561e-17
2.39113e-16
-4.23589e-17
3.30047e-17
-5.95853e-17
2.45972e-17
-6.89455e-17
2.26818e-17
-7.35867e-17
1.33772e-17
-8.30833e-17
6.81218e-18
-1.93686e-16
3.07393e-18
-2.6517e-15
-8.23293e-19
-5.03928e-15
-3.54163e-17
-4.06006e-15
-1.24792e-16
-2.27868e-15
-1.50665e-16
-1.85256e-16
-1.29571e-15
7.66582e-15
9.39554e-13
1.10116e-14
7.81196e-13
1.3045e-17
1.49309e-15
1.33374e-16
1.30786e-15
8.48078e-16
9.77879e-15
7.49475e-16
8.89563e-15
2.95922e-19
3.63254e-17
-1.15169e-18
2.63015e-17
-2.41793e-17
3.57969e-17
-6.75486e-17
1.51504e-16
-6.06083e-17
1.24068e-16
-1.18631e-17
2.7608e-17
-1.80534e-17
5.27656e-18
-4.13037e-17
1.66696e-17
-5.69992e-17
2.44629e-17
-6.4723e-17
2.06705e-17
-6.7811e-17
1.34236e-17
-6.53099e-17
6.05459e-18
-4.87439e-17
5.64271e-19
-1.49828e-17
-1.01831e-18
-3.91489e-17
-1.37564e-18
-2.1509e-16
-2.03906e-18
-2.79262e-18
-1.50317e-16
1.08405e-14
9.23696e-13
2.3086e-14
7.65713e-13
6.99984e-18
1.7617e-15
9.35389e-17
1.55893e-15
3.53172e-16
6.0294e-15
1.15904e-16
7.551e-16
3.78588e-19
3.39932e-17
-5.74e-19
2.72434e-17
-4.27288e-18
1.09303e-17
-7.10278e-18
9.82141e-18
-3.15375e-18
4.76011e-18
-7.60141e-19
4.29858e-19
-3.27098e-18
1.35601e-19
-1.57432e-17
3.67532e-18
-2.77888e-17
9.55401e-18
-3.21412e-17
1.00236e-17
-3.24789e-17
7.13935e-18
-2.14907e-17
3.02686e-18
-1.15954e-17
4.89829e-19
-5.84286e-18
-9.5382e-20
-3.12978e-18
-2.35877e-19
-2.43753e-18
-1.89861e-19
-2.09884e-19
-7.74032e-19
1.76138e-14
9.00964e-13
2.21784e-15
1.31064e-13
0
1.69602e-16
8.99737e-17
1.25082e-15
1.44841e-16
1.79187e-15
1.30687e-18
1.8648e-17
4.21023e-19
3.01608e-17
-9.64271e-20
2.3066e-17
-1.43421e-19
9.72419e-19
-1.3758e-19
1.81543e-18
-1.03828e-20
7.7281e-19
-2.41831e-21
3.28655e-20
-9.30356e-20
8.05823e-21
-1.83571e-18
8.62036e-19
-4.56374e-18
6.06791e-19
-5.16707e-18
8.28178e-19
-4.48288e-18
5.49007e-19
-2.53946e-18
1.89611e-19
-1.43523e-18
4.29055e-20
-9.29722e-19
-8.57147e-22
-3.8e-19
-1.10627e-20
-2.53039e-19
-1.1592e-20
-1.05703e-20
-2.47299e-19
7.01494e-15
8.88765e-13
1.30406e-16
1.32824e-14
0
1.16805e-16
3.0165e-17
5.61358e-16
2.81082e-17
2.30196e-16
5.0311e-19
1.08843e-17
3.82537e-19
1.53974e-17
-2.26495e-21
9.28507e-18
1.85722e-20
8.56883e-20
6.81527e-20
-5.08944e-19
1.42501e-19
-8.13456e-19
1.81543e-19
-9.50673e-19
8.20278e-20
-7.48755e-19
-4.43286e-20
-2.19615e-19
-1.14657e-19
7.87673e-20
-1.26832e-19
1.36333e-19
-8.13057e-20
8.75976e-20
-3.71036e-20
2.7833e-20
-1.92085e-20
6.43162e-21
-1.06077e-20
5.48197e-22
-1.80121e-21
7.25673e-21
-2.58533e-22
1.0894e-20
1.03918e-20
-1.78338e-21
4.54891e-15
8.81023e-13
1.81929e-16
1.94077e-13
2.5485e-18
1.12989e-16
8.68981e-18
1.45652e-16
1.57937e-18
7.813e-17
2.17274e-19
1.0534e-17
1.08723e-19
2.4326e-18
1.91214e-20
5.85692e-19
2.63048e-20
-8.47354e-19
8.48742e-20
-1.57832e-18
1.50244e-19
-1.65594e-18
1.89184e-19
-1.50452e-18
1.72837e-19
-1.12884e-18
1.24113e-19
-6.58759e-19
9.00411e-20
-3.12555e-19
7.7683e-20
-1.51372e-19
7.42516e-20
-8.59708e-20
6.70368e-20
-5.12356e-20
5.55453e-20
-2.47238e-20
4.19247e-20
-5.82886e-21
2.92077e-20
4.7786e-21
1.88882e-20
8.50297e-21
8.37561e-21
1.1346e-20
4.2583e-15
8.76758e-13
2.463e-15
8.58525e-13
0
3.38832e-16
2.16628e-18
9.07067e-17
1.88897e-18
7.69477e-17
5.831e-20
1.05505e-17
1.98847e-21
3.69309e-19
7.69358e-22
4.78739e-20
-1.9387e-21
-1.30978e-18
4.05587e-20
-1.84473e-18
8.71535e-20
-1.80244e-18
1.19106e-19
-1.52681e-18
1.26326e-19
-1.12874e-18
1.1479e-19
-7.29835e-19
9.80173e-20
-4.27795e-19
8.36604e-20
-2.41146e-19
7.00622e-20
-1.35219e-19
5.58667e-20
-7.12439e-20
4.21863e-20
-3.15307e-20
3.02412e-20
-8.54639e-21
2.0573e-20
1.81933e-21
1.32273e-20
4.29985e-21
4.40615e-21
8.07788e-21
2.97824e-15
8.73774e-13
7.2875e-15
8.54209e-13
0
4.46362e-16
2.06925e-18
9.02996e-17
2.33681e-18
9.01439e-17
5.8709e-20
1.19154e-17
1.10153e-20
3.62519e-19
-2.15174e-21
-8.2522e-20
-1.79739e-20
-1.03746e-18
-4.65351e-21
-1.43654e-18
2.32741e-20
-1.41361e-18
4.65217e-20
-1.18776e-18
5.84515e-20
-8.8181e-19
5.96501e-20
-5.88611e-19
5.42506e-20
-3.61935e-19
4.61608e-20
-2.09325e-19
3.68821e-20
-1.14706e-19
2.76404e-20
-5.73345e-20
1.96285e-20
-2.4268e-20
1.34498e-20
-6.97081e-21
8.93517e-21
4.48478e-22
5.70133e-21
1.73837e-21
1.84422e-21
3.43336e-21
1.59764e-15
8.7217e-13
5.36051e-15
8.5044e-13
0
2.86823e-16
2.61228e-18
1.42522e-16
3.42848e-18
1.41572e-16
1.1609e-19
1.76258e-17
3.46553e-20
2.74498e-18
3.01636e-20
1.57947e-18
-4.43349e-21
-1.34304e-19
-1.353e-20
-5.39171e-19
-8.68652e-21
-7.01834e-19
3.81494e-21
-6.7802e-19
1.41222e-20
-5.45375e-19
1.9141e-20
-3.81598e-19
1.96794e-20
-2.40686e-19
1.75212e-20
-1.39922e-19
1.39642e-20
-7.53273e-20
1.01578e-20
-3.63213e-20
6.88277e-21
-1.48156e-20
4.47442e-21
-4.30266e-21
2.85212e-21
3.95691e-23
1.79061e-21
6.07519e-22
6.47594e-22
1.08691e-21
-2.18152e-16
8.72382e-13
1.62608e-15
5.61723e-14
0
1.34782e-16
5.69089e-18
3.34826e-16
5.31097e-18
2.42514e-16
3.87404e-19
3.25153e-17
2.85369e-19
1.16018e-17
2.42072e-19
9.293e-18
1.25132e-19
6.13857e-18
3.765e-20
3.05351e-18
1.27044e-20
1.10692e-18
-3.63569e-21
-1.24321e-19
-3.14963e-21
-2.227e-19
1.08695e-21
-1.98127e-19
3.4208e-21
-1.34048e-19
4.05284e-21
-7.87487e-20
3.60046e-21
-4.2138e-20
2.70184e-21
-1.98114e-20
1.80298e-21
-7.80809e-21
1.1192e-21
-2.2297e-21
6.74117e-22
-7.73377e-23
4.06419e-22
1.96862e-22
2.02079e-22
2.56605e-22
-2.74391e-16
2.44893e-14
0
2.43953e-16
2.57042e-18
2.1441e-16
1.3922e-17
5.99318e-16
7.76877e-18
3.51556e-16
1.22755e-18
6.04165e-17
1.1417e-18
3.15782e-17
1.09095e-18
2.73748e-17
7.63747e-19
2.04892e-17
3.95798e-19
1.24737e-17
1.41883e-19
5.89992e-18
2.34544e-20
1.86259e-18
4.49191e-21
2.87598e-19
-3.01477e-21
-6.80708e-20
-1.94654e-21
-6.3653e-20
-4.55165e-22
-3.87441e-20
1.93992e-22
-2.09056e-20
3.09698e-22
-9.66884e-21
2.5684e-22
-3.69352e-21
1.69318e-22
-1.02443e-21
1.00749e-22
-6.35412e-23
5.79178e-23
6.21486e-23
6.17297e-23
3.97712e-23
5.57426e-19
2.52845e-16
2.3256e-18
2.4866e-16
1.12611e-17
5.25335e-16
2.16646e-17
6.29226e-16
1.14912e-17
3.71457e-16
3.1807e-18
9.85582e-17
3.12933e-18
6.41362e-17
3.07371e-18
5.63234e-17
2.31747e-18
4.31325e-17
1.39153e-18
2.81867e-17
5.91204e-19
1.42456e-17
1.53341e-19
5.02829e-18
1.40572e-20
9.89825e-19
5.49155e-22
3.74164e-20
-2.13474e-21
-2.48509e-20
-1.42743e-21
-1.70365e-20
-7.74136e-22
-9.42752e-21
-3.54805e-22
-4.31913e-21
-1.39379e-22
-1.60102e-21
-4.71115e-23
-4.27958e-22
-1.3858e-23
-3.15975e-23
-3.77563e-24
1.98524e-23
1.96925e-23
-1.15072e-24
1.17444e-18
2.46973e-16
4.16401e-18
2.52501e-16
1.68637e-17
5.68794e-16
2.79703e-17
6.26024e-16
1.43949e-17
3.60445e-16
6.63215e-18
1.30906e-16
6.62291e-18
1.02141e-16
6.48443e-18
9.09222e-17
4.97115e-18
7.01103e-17
3.20776e-18
4.73682e-17
1.44019e-18
2.47328e-17
3.74724e-19
8.51038e-18
3.61426e-20
1.41269e-18
7.49867e-21
6.12384e-20
-8.24076e-22
-6.26191e-21
-9.64149e-22
-6.77002e-21
-6.29973e-22
-3.93339e-21
-3.4442e-22
-1.79335e-21
-1.66376e-22
-6.44814e-22
-7.31311e-23
-1.65099e-22
-3.04298e-23
-1.2807e-23
-1.29853e-23
6.1858e-24
6.037e-24
-5.93652e-24
2.19816e-18
2.40077e-16
5.75194e-18
2.33694e-16
2.22794e-17
4.88596e-16
3.06589e-17
4.71011e-16
1.5685e-17
2.68828e-16
1.07688e-17
1.36216e-16
1.12134e-17
1.25378e-16
1.12382e-17
1.17811e-16
8.58616e-18
9.48362e-17
5.63841e-18
6.51609e-17
2.57505e-18
3.4381e-17
5.99621e-19
1.09763e-17
4.28604e-20
1.48111e-18
9.59006e-21
6.19395e-20
-5.45623e-23
-3.23797e-22
-4.66811e-22
-2.4698e-21
-3.41588e-22
-1.54259e-21
-1.94435e-22
-7.00578e-22
-9.49857e-23
-2.43673e-22
-4.15184e-23
-5.96512e-23
-1.70166e-23
-4.58996e-24
-7.09505e-24
1.85249e-24
1.75996e-24
-3.17152e-24
3.59779e-18
2.74645e-16
6.0139e-18
1.76744e-16
1.59454e-17
2.356e-16
1.60873e-17
2.07619e-16
1.43648e-17
1.65105e-16
1.39877e-17
1.34826e-16
1.46975e-17
1.27704e-16
1.52485e-17
1.22818e-16
1.25368e-17
1.07747e-16
8.15093e-18
7.60939e-17
3.60505e-18
3.95278e-17
7.23794e-19
1.15744e-17
4.1732e-20
1.45314e-18
3.28858e-22
3.9641e-20
3.68365e-24
3.33839e-23
-1.93597e-22
-8.62324e-22
-1.54658e-22
-5.78213e-22
-8.89211e-23
-2.60666e-22
-4.25299e-23
-8.72902e-23
-1.79207e-23
-2.03068e-23
-7.01231e-24
-1.48683e-24
-2.79672e-24
5.2194e-25
4.70535e-25
-1.20868e-24
1.02312e-17
7.75372e-16
6.27104e-18
1.80708e-16
9.78554e-18
2.32031e-16
1.27596e-17
2.04591e-16
1.47801e-17
1.63031e-16
1.59159e-17
1.33152e-16
1.68226e-17
1.25918e-16
1.74623e-17
1.2396e-16
1.54051e-17
1.09599e-16
9.94457e-18
7.85718e-17
4.16247e-18
4.0359e-17
7.53629e-19
1.16739e-17
3.21424e-20
1.12464e-18
1.20767e-22
1.56988e-20
8.08902e-24
3.48674e-23
-7.44601e-23
-2.98265e-22
-6.30587e-23
-2.10594e-22
-3.59001e-23
-9.33248e-23
-1.65131e-23
-2.98377e-23
-6.59246e-24
-6.53131e-24
-2.41434e-24
-4.41747e-25
-9.0758e-25
1.34309e-25
1.12467e-25
-3.71136e-25
3.26259e-17
1.29751e-15
8.00173e-18
2.05278e-16
1.21172e-17
2.27861e-16
1.55668e-17
2.01088e-16
1.7538e-17
1.61006e-16
1.84059e-17
1.32231e-16
1.87124e-17
1.23602e-16
1.94103e-17
1.23688e-16
1.70143e-17
1.1012e-16
1.09096e-17
7.91203e-17
4.3987e-18
4.00729e-17
6.78956e-19
1.01971e-17
1.66429e-20
6.5465e-19
2.67165e-23
4.59534e-21
2.61233e-24
3.71159e-24
-2.77888e-23
-1.04811e-22
-2.40482e-23
-7.55353e-23
-1.32815e-23
-3.24129e-23
-5.77318e-24
-9.7706e-24
-2.14064e-24
-1.98076e-24
-7.15873e-25
-1.20774e-25
-2.48397e-25
3.09668e-26
2.35516e-26
-9.42817e-26
6.07922e-16
1.24367e-15
1.70451e-14
1.18464e-13
9.749e-14
1.6616e-12
1.5285e-13
2.02768e-12
0
7.50809e-13
2.33212e-17
1.13257e-14
2.01503e-17
1.24792e-16
2.08276e-17
1.20196e-16
1.81675e-17
1.07863e-16
1.13174e-17
7.66124e-17
4.08994e-18
3.56942e-17
4.53622e-19
7.0308e-18
5.85139e-21
2.77038e-19
4.13905e-24
1.009e-21
3.74394e-25
2.52575e-25
-1.03086e-23
-3.79296e-23
-8.75628e-24
-2.69063e-23
-4.58165e-24
-1.0961e-23
-1.8434e-24
-3.06246e-24
-6.19312e-25
-5.62982e-25
-1.84177e-25
-3.04706e-26
-5.77374e-26
6.22273e-27
4.21304e-27
-1.98781e-26
6.31901e-16
1.16558e-15
1.72831e-13
2.58166e-13
3.60811e-13
2.17869e-12
2.93871e-13
2.09645e-12
1.00193e-13
2.41895e-12
2.0891e-17
1.01915e-13
1.04216e-17
1.3542e-16
2.05024e-17
1.10285e-16
1.86234e-17
1.01018e-16
1.06111e-17
6.82117e-17
3.07619e-18
2.68652e-17
2.11619e-19
3.65322e-18
1.33745e-21
7.91386e-20
4.24578e-25
1.37221e-22
4.18954e-26
1.75305e-26
-3.85538e-24
-1.42477e-23
-3.07477e-24
-9.54921e-24
-1.48338e-24
-3.60687e-24
-5.3921e-25
-9.14894e-25
-1.59564e-25
-1.48874e-25
-4.08758e-26
-7.06936e-27
-1.12461e-26
1.0629e-27
6.26261e-28
-3.43148e-27
6.77613e-16
1.04135e-15
9.06772e-14
2.23224e-13
4.06893e-13
1.8643e-12
4.23848e-13
2.08132e-12
1.89947e-13
1.23184e-12
1.42286e-18
9.88998e-14
9.64048e-18
1.33551e-16
2.00805e-17
1.06327e-16
1.7369e-17
9.09455e-17
8.52645e-18
5.42151e-17
1.76358e-18
1.63821e-17
6.4659e-20
1.33717e-18
1.73523e-22
1.32525e-20
2.23486e-26
9.2092e-24
3.34609e-27
1.42918e-26
-1.4708e-24
-5.59602e-24
-1.04503e-24
-3.37434e-24
-4.51469e-25
-1.15219e-24
-1.44352e-25
-2.59376e-25
-3.64864e-26
-3.64089e-26
-7.75562e-27
-1.49925e-27
-1.80415e-27
1.51215e-28
7.51236e-29
-4.74312e-28
7.23144e-16
8.71214e-16
1.507e-13
8.97667e-15
3.45688e-13
2.69259e-13
4.69846e-13
1.95899e-12
0
1.26528e-14
0
5.50337e-15
1.75814e-17
1.21071e-16
2.00209e-17
1.0653e-16
1.41517e-17
7.69142e-17
5.54819e-18
3.67605e-17
7.11074e-19
7.47307e-18
1.14182e-20
2.99433e-19
1.06382e-23
1.07298e-21
8.82302e-25
3.03359e-25
-2.13195e-25
-9.4523e-25
-5.70077e-25
-2.28034e-24
-3.43898e-25
-1.18363e-24
-1.29404e-25
-3.57071e-25
-3.53923e-26
-6.97426e-26
-7.39714e-27
-8.22727e-27
-1.25133e-27
-2.89424e-28
-2.34311e-28
1.76269e-29
7.03863e-30
-5.101e-29
1.15301e-15
2.36351e-15
2.91979e-15
2.12294e-15
2.35524e-14
0
7.06251e-14
0
0
9.06295e-17
2.89736e-17
2.08916e-16
2.34707e-17
1.74494e-16
1.77342e-17
1.07268e-16
9.61299e-18
5.73977e-17
2.67416e-18
1.93903e-17
1.72535e-19
2.15541e-18
9.51132e-22
3.23784e-20
2.6223e-25
3.48509e-23
3.22039e-26
5.28859e-27
-1.7133e-25
-7.99359e-25
-2.18338e-25
-9.33591e-25
-1.09851e-25
-4.11634e-25
-3.51434e-26
-1.07756e-25
-7.99382e-27
-1.7888e-26
-1.33606e-27
-1.72998e-27
-1.71694e-28
-5.08571e-29
-2.42101e-29
1.68572e-30
4.99058e-31
-4.11299e-30
1.44623e-15
1.34209e-15
1.0771e-15
2.63883e-15
3.36585e-16
9.93134e-16
1.96038e-16
1.1272e-16
8.42328e-17
3.0529e-16
7.21748e-17
3.3967e-16
3.32222e-17
2.2086e-16
1.38278e-17
1.01543e-16
5.03074e-18
3.52385e-17