/*--------------------------------*- C++ -*----------------------------------*\
  =========                 |
  \\      /  F ield         | OpenFOAM: The Open Source CFD Toolbox
   \\    /   O peration     | Website:  https://openfoam.org
    \\  /    A nd           | Version:  9
     \\/     M anipulation  |
\*---------------------------------------------------------------------------*/
FoamFile
{
    format      ascii;
    class       volScalarField;
    location    "8.39";
    object      epsilon;
}
// * * * * * * * * * * * * * * * * * * * * * * * * * * * * * * * * * * * * * //

dimensions      [0 2 -3 0 0 0 0];

internalField   nonuniform List<scalar> 
2268
(
0.000104887
0.000587777
0.00105436
0.00147716
0.00185737
0.00219665
0.00249649
0.00275864
0.00298491
0.00318038
0.00335161
0.00350669
0.0036466
0.00375495
0.00379064
0.00368371
0.0033716
0.00296955
0.0024747
0.00198655
0.00155269
0.000963569
0.000322751
0.000219163
0.000388454
0.000580175
0.000758988
0.000920797
0.0010651
0.00119242
0.00130376
0.00140051
0.00148475
0.00155849
0.00162378
0.00168006
0.00172156
0.0017356
0.00170392
0.00161744
0.00150216
0.00134097
0.00113802
0.000910566
0.000661184
0.00050904
0.000375955
0.000405966
0.000528541
0.000651283
0.000764897
0.000867199
0.000957947
0.00103771
0.00110748
0.00116863
0.0012224
0.00126963
0.00130942
0.00133802
0.00134842
0.00133248
0.00128845
0.0012245
0.00113063
0.00100904
0.000876712
0.000759734
0.000854049
0.000530828
0.000454866
0.000539058
0.00063392
0.000724604
0.000807347
0.000881238
0.000946502
0.00100391
0.00105454
0.00109933
0.00113865
0.00117161
0.00119537
0.00120532
0.00119698
0.00117029
0.00112898
0.00106864
0.000995096
0.000928542
0.00091444
0.00125652
0.000680398
0.000514229
0.000570369
0.000646542
0.000722447
0.000792823
0.000856138
0.000912329
0.000962013
0.0010061
0.00104537
0.00108004
0.00110926
0.0011308
0.00114134
0.00113822
0.00112203
0.00109539
0.0010586
0.00102155
0.00101095
0.00110022
0.00175395
0.000826181
0.000578651
0.000611809
0.000673585
0.000738432
0.000799675
0.000855205
0.00090471
0.000948703
0.000988002
0.00102331
0.00105478
0.00108165
0.00110211
0.0011137
0.00111484
0.00110669
0.00109173
0.00107389
0.00106706
0.00110855
0.00131712
0.00244465
0.000970735
0.000646327
0.000659461
0.000709261
0.000765082
0.000818907
0.000868093
0.00091212
0.00095145
0.000986867
0.00101902
0.00104805
0.00107328
0.00109324
0.00110606
0.00111095
0.00110977
0.00110534
0.00110341
0.00112146
0.00121005
0.00156306
0.00363498
0.00111634
0.00071664
0.000711693
0.00075101
0.000799005
0.00084638
0.000889995
0.000929174
0.000964377
0.000996398
0.00102584
0.00105286
0.00107686
0.00109661
0.00111074
0.00111901
0.00112404
0.00112954
0.00114109
0.0011779
0.0012991
0.00177785
0.00624805
0.000531851
0.00174007
0.00276308
0.00325545
0.00351711
0.00364412
0.00365553
0.00361466
0.00340567
0.0030485
0.00259259
0.00207627
0.00174352
0.00170094
0.00158146
0.00133284
0.00089801
0.000513344
0.000107154
0.000565416
0.000949542
0.001287
0.00146387
0.00156872
0.00162891
0.00164979
0.00163584
0.00156794
0.00145502
0.00130099
0.00112017
0.00097389
0.000886548
0.000789605
0.00066481
0.000488224
0.000324784
0.000192687
0.000738068
0.000898312
0.00107681
0.00117519
0.00123575
0.00127224
0.00128568
0.00127302
0.00122759
0.00115561
0.00105199
0.000930341
0.00082526
0.000748306
0.000669233
0.000576393
0.000459569
0.000355995
0.000339821
0.000926801
0.000963153
0.00104808
0.00109662
0.00112896
0.0011494
0.00115527
0.00114114
0.00110337
0.0010467
0.000965346
0.000870459
0.000784772
0.000715512
0.00064638
0.000572024
0.000485831
0.000421552
0.000504136
0.00121662
0.00109553
0.00108276
0.00108488
0.00109314
0.00110014
0.00109916
0.00108323
0.00104938
0.00100099
0.000933676
0.000855778
0.000782183
0.000718279
0.000655391
0.000593093
0.000527787
0.000494878
0.000681536
0.00170657
0.00128377
0.00114697
0.00110214
0.00108858
0.00108385
0.00107686
0.00105942
0.0010283
0.000985708
0.00092874
0.000863055
0.000798024
0.000738089
0.000679742
0.000625447
0.000574124
0.000567669
0.000874197
0.00272058
0.00151438
0.00122076
0.00113216
0.00109985
0.00108516
0.00107313
0.00105469
0.00102608
0.000988401
0.000939734
0.000883336
0.000824798
0.000767842
0.00071302
0.000664102
0.000622278
0.000641969
0.00110568
0.00517324
0.0017279
0.00128548
0.00116581
0.00111936
0.00109677
0.00108081
0.00106194
0.00103603
0.00100316
0.000961453
0.000912327
0.000858918
0.000804257
0.000751774
0.000706052
0.000671861
0.000715109
0.00134684
0.00134162
0.00083068
0.000799585
0.000823859
0.000860677
0.000898771
0.000934273
0.000966331
0.000995488
0.00102261
0.00104825
0.00107251
0.00109494
0.00111458
0.00113069
0.00114379
0.00115733
0.00117664
0.00120592
0.00126129
0.00138823
0.00171022
0.0026879
0.00165494
0.00099991
0.000933915
0.000939056
0.000961992
0.000988204
0.00101302
0.00103556
0.00105677
0.00107775
0.00109911
0.00112076
0.00114221
0.00116254
0.00118137
0.00119972
0.00122105
0.00125068
0.00129133
0.00134923
0.00144554
0.00162772
0.00196953
0.00210714
0.00120657
0.00108687
0.00106947
0.00107659
0.00108814
0.00110049
0.00111252
0.00112542
0.00114065
0.00115895
0.00118009
0.00120305
0.00122616
0.0012483
0.00127073
0.00129685
0.00133069
0.00137191
0.00142197
0.00148742
0.00158753
0.00173173
0.00320088
0.00150658
0.0012625
0.00121692
0.00119939
0.00118771
0.00118652
0.00118791
0.00119288
0.0012034
0.00122056
0.0012442
0.00127279
0.00130308
0.00133047
0.00135634
0.00138533
0.00142042
0.00145568
0.00149635
0.00153768
0.00158841
0.00165988
0.00343249
0.00169474
0.00147685
0.00135124
0.00126716
0.0012363
0.00123866
0.00124525
0.00124904
0.00125817
0.00127551
0.00130233
0.00133664
0.00137028
0.00139009
0.00140176
0.0014198
0.00145066
0.00149206
0.00153156
0.0015614
0.00159801
0.00164951
0.00350195
0.00200307
0.00158463
0.00135839
0.00128017
0.00126815
0.00127097
0.00127593
0.00128126
0.00129112
0.00130975
0.00133862
0.00137585
0.00140627
0.00142214
0.00143202
0.00145812
0.00149488
0.00153712
0.00158564
0.00160732
0.00161656
0.00163836
0.00164057
0.00151359
0.00139322
0.00131008
0.0012724
0.00126425
0.00127122
0.00127976
0.00129001
0.0013063
0.0013296
0.00136014
0.00139429
0.00142012
0.00143747
0.00145246
0.00147634
0.00150724
0.00153805
0.0015722
0.00159754
0.00161222
0.0016289
0.00176708
0.0014837
0.00133933
0.0012834
0.00126042
0.00125839
0.00126706
0.00127934
0.00129504
0.00131606
0.00134299
0.00137547
0.00140876
0.00143394
0.00145249
0.0014697
0.00149093
0.00151606
0.00154208
0.00156896
0.00159275
0.00160883
0.00161889
0.00176277
0.0015371
0.00132259
0.00126271
0.00124726
0.00125147
0.00126447
0.00128121
0.00130121
0.00132577
0.00135588
0.00139129
0.00142703
0.00145405
0.00147225
0.0014885
0.00150709
0.00152764
0.00154905
0.00157119
0.00159214
0.00160786
0.00161637
0.00176677
0.00152178
0.00131304
0.00125088
0.00123828
0.00124608
0.00126289
0.00128402
0.00130834
0.00133641
0.00136915
0.00140621
0.00144293
0.00147177
0.00149234
0.00151033
0.00152876
0.00154741
0.00156595
0.00158462
0.00160255
0.00161747
0.00162754
0.00176418
0.00152411
0.00131002
0.0012468
0.00123484
0.00124442
0.00126395
0.00128863
0.00131673
0.00134801
0.0013828
0.00142038
0.00145732
0.00148862
0.0015134
0.00153517
0.0015559
0.00157532
0.00159335
0.00161064
0.00162717
0.00164203
0.00165422
0.00176733
0.00151776
0.00131271
0.00124852
0.00123639
0.00124694
0.00126846
0.00129592
0.00132716
0.00136128
0.00139791
0.00143617
0.00147389
0.00150804
0.00153757
0.0015639
0.00158821
0.00161029
0.00163007
0.00164842
0.00166581
0.00168202
0.00169662
0.00176306
0.00154321
0.00132042
0.00125476
0.00124223
0.00125345
0.00127661
0.00130638
0.00134029
0.00137698
0.0014156
0.00145532
0.00149469
0.00153202
0.00156631
0.00159759
0.00162625
0.00165225
0.00167556
0.00169703
0.00171731
0.00173644
0.00175414
0.0017653
0.00155075
0.00133241
0.00126497
0.001252
0.00126382
0.00128844
0.0013203
0.00135664
0.00139582
0.00143684
0.00147888
0.00152091
0.0015618
0.0016008
0.00163732
0.00167113
0.00170212
0.00173038
0.00175661
0.0017814
0.00180483
0.00182665
0.00176299
0.00158388
0.00134869
0.00127907
0.0012656
0.00127799
0.00130404
0.00133793
0.00137669
0.00141858
0.00146255
0.00150776
0.00155337
0.00159852
0.00164247
0.0016846
0.00172434
0.00176142
0.00179591
0.00182832
0.00185905
0.00188812
0.00191524
0.00176556
0.00160324
0.00136928
0.00129703
0.001283
0.00129598
0.0013235
0.00135956
0.00140098
0.00144604
0.00149362
0.00154286
0.00159297
0.00164322
0.0016929
0.0017413
0.00178783
0.00183213
0.00187413
0.00191409
0.00195219
0.00198832
0.00202211
0.00176437
0.0016424
0.00139395
0.00131881
0.00130418
0.00131786
0.00134703
0.00138554
0.00143012
0.00147898
0.00153094
0.00158511
0.00164074
0.0016971
0.00175352
0.0018093
0.00186381
0.00191659
0.00196745
0.00201641
0.0020634
0.00210815
0.00215015
0.00176279
0.00168862
0.00142293
0.00134435
0.00132917
0.00134376
0.00137491
0.00141635
0.00146472
0.00151814
0.00157537
0.00163551
0.0016978
0.00176151
0.00182598
0.0018905
0.00195443
0.00201724
0.00207856
0.00213816
0.00219577
0.0022509
0.00230287
0.00176294
0.00173196
0.00145563
0.00137361
0.00135802
0.00137387
0.0014075
0.0014525
0.00150541
0.00156427
0.00162782
0.00169512
0.00176539
0.00183792
0.00191202
0.00198697
0.0020621
0.00213678
0.00221048
0.00228269
0.00235293
0.00242051
0.00248454
0.00176291
0.00178218
0.0014921
0.00140657
0.00139086
0.00140844
0.00144517
0.00149447
0.00155281
0.00161817
0.00168924
0.00176508
0.0018449
0.00192797
0.00201359
0.00210102
0.00218949
0.00227829
0.00236666
0.00245388
0.00253921
0.00262172
0.00270029
0.00176533
0.00182682
0.00153227
0.00144331
0.00142784
0.00144772
0.00148829
0.00154278
0.00160759
0.00168066
0.00176066
0.00184665
0.00193785
0.00203352
0.00213292
0.00223525
0.00233968
0.00244532
0.00255123
0.00265642
0.00275981
0.00286026
0.00295639
0.00746272
0.0019019
0.00157609
0.00148386
0.00146912
0.00149198
0.00153725
0.00159794
0.00167044
0.00175263
0.00184322
0.00194126
0.002046
0.00215669
0.00227256
0.00239276
0.0025163
0.00264214
0.00276909
0.00289585
0.003021
0.00314312
0.00326045
0.00176514
0.00194996
0.00162359
0.00152834
0.00151486
0.00154147
0.00159242
0.00166051
0.00174207
0.00183504
0.00193814
0.00205047
0.00217131
0.00229992
0.00243551
0.00257713
0.00272366
0.00287382
0.00302613
0.00317893
0.00333041
0.00347873
0.00362174
0.00176522
0.00202054
0.00167467
0.00157671
0.00156517
0.00159645
0.00165419
0.00173102
0.00182326
0.0019289
0.00204676
0.00217601
0.00231599
0.00246601
0.00262523
0.00279261
0.00296687
0.00314643
0.00332945
0.00351383
0.00369725
0.00387737
0.0040515
0.00176707
0.00208325
0.00172908
0.00162895
0.00162016
0.00165713
0.00172293
0.00181003
0.00191479
0.0020353
0.00217052
0.00231978
0.00248253
0.00265811
0.0028457
0.00304415
0.00325195
0.00346718
0.00368755
0.00391037
0.00413269
0.00435149
0.00456339
0.00176625
0.00216395
0.00178662
0.00168495
0.00167986
0.0017237
0.00179897
0.00189808
0.00201745
0.00215536
0.00231099
0.00248387
0.00267364
0.00287979
0.0031015
0.00333749
0.00358599
0.00384467
0.00411061
0.00438041
0.00465027
0.00491621
0.00517405
0.00746278
0.00225487
0.00184681
0.00174452
0.00174428
0.0017963
0.00188262
0.00199565
0.00213199
0.00229019
0.00246973
0.00267048
0.00289235
0.00313503
0.00339776
0.0036792
0.00397726
0.00428903
0.00461082
0.00493822
0.00526633
0.00558995
0.00590372
0.00746885
0.00232857
0.00190867
0.00180748
0.00181339
0.001875
0.00197408
0.00210314
0.00225906
0.0024408
0.00264828
0.00288184
0.00314178
0.00342814
0.0037403
0.00407687
0.00443537
0.00481223
0.00520269
0.00560104
0.0060008
0.00639516
0.00677715
0.00176911
0.00238119
0.00197253
0.00187393
0.00188716
0.00195982
0.00207346
0.00222082
0.00239919
0.00260809
0.00284806
0.00312008
0.00342509
0.00376361
0.00413535
0.00453888
0.00497135
0.00542829
0.00590359
0.00638969
0.00687798
0.0073594
0.00782476
0.00746657
0.00248012
0.00203961
0.00194364
0.00196537
0.0020506
0.00218071
0.00234877
0.00255267
0.00279267
0.00307017
0.00338709
0.00374525
0.00414594
0.00458942
0.00507439
0.00559758
0.00615343
0.00673401
0.00732925
0.00792752
0.00851658
0.00908419
0.00747208
0.00256166
0.00210806
0.00201598
0.00204765
0.00214705
0.00229559
0.00248683
0.00271946
0.00299475
0.0033153
0.00368426
0.00410478
0.00457933
0.00510904
0.00569304
0.00632772
0.00700619
0.00771812
0.00844995
0.00918575
0.00990872
0.0106022
0.00176904
0.00261183
0.00217504
0.00209029
0.0021336
0.00224885
0.00241773
0.00263455
0.0028991
0.00321398
0.00358335
0.00401214
0.00450532
0.00506713
0.0057002
0.00640452
0.00717638
0.00800744
0.00888421
0.00978826
0.0106975
0.0115882
0.0124376
0.00176593
0.00268038
0.00224267
0.00216655
0.00222306
0.00235568
0.00254661
0.00279118
0.00309058
0.00344917
0.0038732
0.00436996
0.00494699
0.00561114
0.00636743
0.00721756
0.00815832
0.00917992
0.0102649
0.011388
0.012518
0.0136209
0.0146645
0.00747178
0.0027541
0.00230983
0.00224475
0.00231624
0.00246754
0.00268175
0.00295562
0.00329219
0.0036981
0.00418226
0.00475508
0.00542761
0.00621051
0.00711254
0.00813854
0.00928697
0.0105471
0.0118968
0.0133015
0.0147161
0.0160907
0.0173782
0.00747144
0.00280853
0.00237601
0.0023262
0.00241452
0.00258512
0.00282281
0.00312643
0.00350143
0.00395722
0.00450604
0.00516228
0.00594171
0.00686035
0.00793269
0.00916902
0.0105718
0.012131
0.0138195
0.0155903
0.0173774
0.0191051
0.020702
0.00176917
0.00283543
0.00244576
0.00241616
0.0025219
0.00271049
0.00296987
0.00330183
0.00371475
0.0042213
0.00483765
0.00558307
0.00647938
0.00754995
0.00881779
0.0103022
0.0120138
0.0139469
0.0160715
0.0183247
0.0206091
0.022805
0.0247991
0.0017689
0.00286698
0.00253371
0.00252806
0.00264719
0.00284786
0.00312347
0.00347947
0.00392736
0.0044832
0.00516744
0.00600497
0.00702508
0.0082608
0.00974722
0.0115179
0.0135984
0.0159957
0.0186827
0.0215802
0.0245446
0.0273789
0.0298899
0.00747901
0.0029641
0.00269121
0.00269404
0.00280729
0.00300412
0.00328426
0.00365598
0.00413285
0.00473362
0.00548278
0.00641123
0.00755687
0.00896476
0.0106862
0.012776
0.0152852
0.0182478
0.0216563
0.025425
0.0293479
0.0330882
0.0362806
0.00176745
0.00340383
0.0030715
0.00298359
0.00302995
0.00318735
0.00345129
0.00382587
0.0043227
0.00496099
0.00576822
0.006781
0.00804638
0.0096232
0.011583
0.0140093
0.0169931
0.0206192
0.024935
0.0298862
0.0352099
0.0403194
0.0444126
0.0142222
0.00603645
0.00415106
0.00353291
0.003349
0.00340012
0.00361794
0.00397968
0.00448575
0.00515182
0.00600634
0.00709057
0.00846022
0.0101882
0.0123683
0.0151191
0.0185857
0.0229361
0.0283346
0.0348623
0.042306
0.0497115
0.054947
0.144921
0.0228287
0.00742775
0.00454535
0.00377103
0.00362272
0.00376558
0.00410214
0.00460825
0.00529154
0.00617931
0.00731579
0.00876351
0.0106074
0.0129615
0.0159789
0.0198655
0.0248975
0.0314363
0.039905
0.0505773
0.0625379
0.0688932
1.53686
0.123201
0.0162831
0.00599694
0.00417419
0.00378844
0.00385935
0.00417277
0.0046754
0.00536642
0.00627128
0.0074355
0.00892537
0.0108329
0.0132845
0.0164562
0.0205981
0.026079
0.0334729
0.0437438
0.0586819
0.0820148
0.0876732
0.00719214
0.00570924
0.00555997
0.00667225
0.00238628
0.00242387
0.00240753
0.00234909
0.00183308
0.00186332
0.00185991
0.00182393
0.00171091
0.00173059
0.00172915
0.00170592
0.00171852
0.00174852
0.00172692
0.0016785
0.00167522
0.00169648
0.00169887
0.00166127
0.00165811
0.00166956
0.00166367
0.00163879
0.00162862
0.00163335
0.00163063
0.00161902
0.00162034
0.00162202
0.00162077
0.00161571
0.00163217
0.00163414
0.00163444
0.00163295
0.00166113
0.00166455
0.00166664
0.00166744
0.00170593
0.00171107
0.001715
0.00171769
0.00176588
0.00177269
0.00177847
0.00178304
0.00184127
0.00184992
0.00185759
0.00186413
0.00193351
0.00194444
0.00195436
0.00196315
0.00204498
0.00205877
0.00207148
0.002083
0.00217872
0.00219607
0.00221224
0.00222712
0.00233844
0.00236016
0.00238058
0.00239958
0.00252861
0.00255565
0.00258124
0.00260526
0.00275465
0.00278815
0.00282002
0.00285015
0.0030232
0.0030645
0.00310399
0.00314151
0.00334231
0.00339306
0.00344175
0.0034882
0.0037218
0.00378396
0.00384376
0.003901
0.00417357
0.00424953
0.00432274
0.00439297
0.00471211
0.00480472
0.00489411
0.00497997
0.005355
0.00546774
0.0055766
0.00568122
0.0061237
0.00626072
0.006393
0.00652013
0.00704442
0.00721073
0.00737116
0.0075252
0.0081493
0.00835098
0.00854519
0.00873134
0.00947818
0.00972247
0.00995712
0.0101814
0.0110805
0.0113761
0.0116591
0.0119286
0.0130184
0.0133757
0.0137161
0.0140387
0.0153701
0.0158017
0.0162101
0.0165947
0.0182358
0.0187563
0.0192448
0.0197008
0.021745
0.0223712
0.0229526
0.0234893
0.0260671
0.0268177
0.0275043
0.0281288
0.0314276
0.0323203
0.033121
0.0338349
0.0381313
0.0391768
0.0400893
0.0408815
0.046596
0.0477815
0.0487775
0.0496117
0.057394
0.0586463
0.0596431
0.0604385
0.0712751
0.0723864
0.0732049
0.0738169
0.089044
0.0895809
0.0899285
0.0901649
0.00263602
0.00166507
0.00134298
0.00121475
0.00115558
0.00112446
0.00110429
0.00108584
0.0010647
0.00103972
0.00100752
0.000967355
0.000920344
0.000868494
0.000817296
0.000773766
0.000750078
0.000821259
0.00162386
0.00193285
0.00157671
0.00137796
0.00126998
0.0012104
0.00117645
0.00115552
0.00114015
0.00112606
0.00111056
0.00108893
0.00105664
0.00101396
0.00096278
0.000910773
0.000866855
0.00084841
0.000933855
0.00180244
0.00170809
0.0015367
0.00140628
0.0013198
0.00126625
0.00123449
0.00121573
0.00120412
0.0011963
0.00118951
0.00117722
0.00115068
0.00111128
0.00106083
0.00100769
0.000962734
0.00094575
0.00103237
0.00185992
0.00164063
0.00153489
0.00144043
0.00136952
0.00132264
0.00129471
0.00127874
0.00127041
0.00126793
0.00126958
0.00126642
0.00124443
0.00121276
0.00116441
0.00110857
0.00106381
0.00105168
0.00116535
0.00237745
0.00160786
0.00152881
0.00146663
0.00141651
0.00137917
0.00135655
0.00134229
0.00133602
0.00133608
0.00133535
0.00132898
0.00132825
0.00131725
0.00124011
0.00117817
0.00113757
0.00114411
0.00130249
0.00240267
0.00160123
0.00153626
0.00148604
0.00144886
0.00142462
0.00141099
0.00139943
0.00139324
0.00139156
0.00138811
0.00138366
0.00137861
0.00135947
0.00130244
0.00125544
0.00121983
0.00123007
0.00143588
0.00276893
0.00159374
0.00154627
0.00151242
0.0014843
0.00146045
0.00144675
0.00143345
0.00142223
0.00141656
0.00141467
0.00142114
0.00144769
0.00144295
0.00135576
0.00130313
0.00127255
0.00128192
0.0013869
0.0011568
0.0015932
0.00155991
0.00153231
0.00150851
0.00148704
0.00147113
0.00145571
0.00144177
0.00143262
0.00143102
0.00144214
0.00146533
0.001452
0.00137519
0.00131273
0.00128195
0.00131057
0.00153325
0.00115917
0.00160343
0.0015837
0.00156226
0.00154011
0.0015203
0.00150293
0.00148568
0.00146855
0.00145456
0.00144643
0.00144536
0.0014465
0.00142606
0.00137762
0.00132108
0.00128695
0.00131615
0.00155147
0.00115831
0.0016283
0.00161777
0.00160187
0.00158168
0.00156274
0.00154454
0.00152461
0.00150328
0.00148354
0.00146695
0.00145222
0.00143317
0.00140144
0.00136588
0.00132163
0.00128698
0.00130387
0.00149122
0.00115828
0.00166699
0.00166159
0.0016499
0.00163247
0.00161453
0.00159548
0.00157273
0.00154762
0.00152242
0.00149779
0.00147209
0.00143999
0.00139709
0.00135486
0.00131507
0.00128279
0.00128691
0.0014171
0.00115798
0.00172013
0.00171776
0.00170898
0.0016943
0.00167693
0.00165681
0.00163239
0.00160452
0.00157464
0.00154317
0.00150894
0.00146835
0.00141776
0.0013641
0.00131802
0.00128386
0.00128068
0.00138403
0.00489251
0.00178843
0.00178929
0.00178314
0.00177069
0.00175388
0.00173311
0.00170762
0.00167762
0.00164393
0.00160692
0.00156607
0.00151944
0.00146453
0.0014036
0.00134653
0.00130483
0.00129725
0.00136587
0.00115912
0.00187282
0.00187777
0.00187499
0.00186512
0.00184955
0.00182881
0.00180259
0.00177092
0.00173425
0.00169297
0.00164712
0.00159608
0.001539
0.00147625
0.00141286
0.00136402
0.00135625
0.00141902
0.00115877
0.00197555
0.00198544
0.00198706
0.00198075
0.00196741
0.00194756
0.00192121
0.00188843
0.00184959
0.00180517
0.00175563
0.00170141
0.00164311
0.00158169
0.00152042
0.00147354
0.00147728
0.00158021
0.00113318
0.00209985
0.00211567
0.00212274
0.00212101
0.00211097
0.00209301
0.00206735
0.00203418
0.00199394
0.00194727
0.00189503
0.0018384
0.00177909
0.00171954
0.00166436
0.00162743
0.00164848
0.00181015
0.0011201
0.00224942
0.0022724
0.00228605
0.00228997
0.00228429
0.00226929
0.00224522
0.00221243
0.00217147
0.00212319
0.0020688
0.00201006
0.0019496
0.00189131
0.00184195
0.00181676
0.00185619
0.00207946
0.00482988
0.00242854
0.0024602
0.00248174
0.0024925
0.00249234
0.00248134
0.00245978
0.00242809
0.00238694
0.00233738
0.00228094
0.00221988
0.00215759
0.00209925
0.0020538
0.00203955
0.00210336
0.00240344
0.00116116
0.00264236
0.00268452
0.00271554
0.00273455
0.00274114
0.00273525
0.00271709
0.00268712
0.00264613
0.00259532
0.0025365
0.00247236
0.00240693
0.00234653
0.00230208
0.00229558
0.00238297
0.00277581
0.00526009
0.00289713
0.002952
0.00299441
0.00302331
0.00303807
0.00303845
0.00302458
0.00299689
0.00295623
0.00290394
0.00284203
0.00277356
0.00270311
0.002638
0.00259091
0.00258731
0.00269139
0.00314598
0.00603371
0.00320047
0.00327069
0.00332681
0.00336755
0.00339209
0.00340003
0.00339136
0.00336647
0.0033262
0.00327196
0.00320594
0.00313149
0.00305368
0.00298073
0.00292693
0.00292112
0.00303606
0.00354615
0.00682186
0.00356164
0.00365037
0.00372293
0.00377784
0.00381406
0.003831
0.00382853
0.00380694
0.00376703
0.00371024
0.00363886
0.00355646
0.0034686
0.00338432
0.00331959
0.00330673
0.00342725
0.00399009
0.00767142
0.00399192
0.00410289
0.00419513
0.00426691
0.00431699
0.0043446
0.00434945
0.00433172
0.00429213
0.00423208
0.00415393
0.00406142
0.00396055
0.00386125
0.00378138
0.00375709
0.00388023
0.00450161
0.00867257
0.00450492
0.00464255
0.00475826
0.00485006
0.00491652
0.00495669
0.00497015
0.00495695
0.00491768
0.00485367
0.00476725
0.00466232
0.0045453
0.00442722
0.00432788
0.00428804
0.00441227
0.00510192
0.00986775
0.00511718
0.00528663
0.00543018
0.00554561
0.00563131
0.00568622
0.00570979
0.00570192
0.00566309
0.00559449
0.00549834
0.0053787
0.00524241
0.00510145
0.00497801
0.00491834
0.00504181
0.00580769
0.011253
0.00584868
0.00605596
0.00623237
0.00637551
0.00648367
0.00655575
0.00659114
0.00658965
0.00655158
0.00647797
0.00637091
0.00623439
0.00607558
0.00590751
0.00575501
0.00567059
0.00579037
0.00663847
0.0128464
0.00672371
0.00697573
0.00719065
0.00736601
0.00750017
0.00759213
0.0076413
0.00764749
0.00761088
0.00753225
0.00741342
0.0072582
0.0070739
0.00687456
0.00668777
0.00657294
0.0066848
0.00761891
0.0146608
0.00777177
0.00807638
0.00833608
0.00854856
0.00871249
0.00882721
0.0088924
0.00890795
0.00887393
0.00879084
0.00866009
0.00848508
0.00827304
0.00803879
0.00781268
0.00766153
0.0077607
0.00878446
0.0167294
0.00902885
0.00939483
0.00970607
0.0099608
0.0101584
0.0102989
0.0103826
0.0104095
0.0103798
0.0102937
0.0101519
0.00995737
0.00971678
0.00944537
0.00917609
0.00898385
0.00906788
0.0101959
0.0192107
0.010539
0.010976
0.0113459
0.011648
0.011883
0.0120523
0.0121569
0.0121976
0.0121747
0.0120881
0.0119379
0.0117261
0.0114586
0.0111504
0.0108369
0.0106018
0.0106737
0.0119404
0.0223508
0.0123565
0.0128748
0.0133103
0.0136645
0.0139402
0.0141407
0.0142687
0.0143259
0.0143131
0.01423
0.0140762
0.0138524
0.0135633
0.0132232
0.0128692
0.012595
0.0126646
0.0141213
0.0263656
0.0145484
0.0151585
0.0156659
0.0160756
0.0163941
0.0166276
0.016781
0.0168576
0.016859
0.0167852
0.0166352
0.0164086
0.0161086
0.0157482
0.0153656
0.0150643
0.0151505
0.0168597
0.031426
0.0171983
0.0179096
0.0184933
0.0189603
0.0193219
0.0195886
0.0197685
0.0198672
0.0198876
0.0198304
0.0196947
0.0194795
0.0191866
0.0188275
0.0184405
0.0181389
0.0182754
0.0203185
0.037782
0.0204103
0.02123
0.0218912
0.0224134
0.0228156
0.0231137
0.0233198
0.0234425
0.0234868
0.023455
0.0233472
0.0231629
0.0229039
0.0225811
0.0222334
0.0219833
0.0222343
0.0247353
0.0458749
0.0243149
0.0252449
0.0259791
0.02655
0.0269861
0.0273105
0.0275403
0.0276876
0.0277602
0.027763
0.0276986
0.0275695
0.0273806
0.0271461
0.0269093
0.026804
0.0272904
0.0304542
0.0563543
0.0290756
0.0301086
0.0309027
0.0315085
0.0319668
0.0323087
0.0325566
0.0327266
0.03283
0.0328752
0.0328697
0.0328224
0.0327473
0.0326706
0.0326516
0.0328487
0.0337939
0.0379798
0.0701816
0.0348967
0.0360096
0.0368384
0.0374566
0.0379191
0.0382649
0.0385218
0.0387093
0.0388424
0.038934
0.0389987
0.0390564
0.0391388
0.0393
0.0396415
0.0403862
0.0421913
0.0480761
0.0889696
0.0420303
0.0431764
0.0439985
0.0445965
0.0450387
0.0453706
0.0456233
0.0458188
0.0459751
0.04611
0.0462464
0.0464194
0.0466879
0.0471557
0.0480126
0.0496379
0.0529797
0.0619079
0.115796
0.0507817
0.0518814
0.0526374
0.0531733
0.0535653
0.0538614
0.0540929
0.0542822
0.0544485
0.0546131
0.0548066
0.0550795
0.0555235
0.0563103
0.0577756
0.0606125
0.0664645
0.0810578
0.156586
0.0615064
0.062443
0.0630588
0.0634848
0.0637946
0.0640311
0.0642217
0.0643858
0.0645413
0.0647098
0.0649247
0.0652455
0.0657871
0.0667832
0.0687368
0.072809
0.0820204
0.106702
0.223849
0.0745943
0.0752271
0.0756263
0.0758978
0.0760957
0.0762498
0.0763784
0.0764949
0.0766122
0.0767472
0.0769278
0.0772059
0.0776876
0.0786063
0.080521
0.0849246
0.0964941
0.134818
0.348225
0.090444
0.090655
0.0907842
0.0908718
0.0909367
0.090989
0.0910349
0.0910792
0.0911266
0.0911841
0.0912636
0.0913876
0.0916038
0.0920231
0.0929392
0.095285
0.102853
0.139081
0.579274
)
;

boundaryField
{
    leftWall
    {
        type            epsilonWallFunction;
        value           nonuniform List<scalar> 
50
(
0.000104887
0.000219163
0.000375955
0.000530828
0.000680398
0.000826181
0.000970735
0.00111634
0.00134162
0.00165494
0.00210714
0.00320088
0.00343249
0.00350195
0.00164057
0.00176708
0.00176277
0.00176677
0.00176418
0.00176733
0.00176306
0.0017653
0.00176299
0.00176556
0.00176437
0.00176279
0.00176294
0.00176291
0.00176533
0.00746272
0.00176514
0.00176522
0.00176707
0.00176625
0.00746278
0.00746885
0.00176911
0.00746657
0.00747208
0.00176904
0.00176593
0.00747178
0.00747144
0.00176917
0.0017689
0.00747901
0.00176745
0.0142222
0.144921
1.53686
)
;
    }
    rightWall
    {
        type            epsilonWallFunction;
        value           nonuniform List<scalar> 
50
(
0.000107154
0.000192687
0.000339821
0.000504136
0.000681536
0.000874197
0.00110568
0.00134684
0.00162386
0.00180244
0.00185992
0.00237745
0.00240267
0.00276893
0.0011568
0.00115917
0.00115831
0.00115828
0.00115798
0.00489251
0.00115912
0.00115877
0.00113318
0.0011201
0.00482988
0.00116116
0.00526009
0.00603371
0.00682186
0.00767142
0.00867257
0.00986775
0.011253
0.0128464
0.0146608
0.0167294
0.0192107
0.0223508
0.0263656
0.031426
0.037782
0.0458749
0.0563543
0.0701816
0.0889696
0.115796
0.156586
0.223849
0.348225
0.579274
)
;
    }
    lowerWall
    {
        type            epsilonWallFunction;
        value           nonuniform List<scalar> 
62
(
0.000104887
0.000587777
0.00105436
0.00147716
0.00185737
0.00219665
0.00249649
0.00275864
0.00298491
0.00318038
0.00335161
0.00350669
0.0036466
0.00375495
0.00379064
0.00368371
0.0033716
0.00296955
0.0024747
0.00198655
0.00155269
0.000963569
0.000322751
0.000322751
0.00050904
0.000854049
0.00125652
0.00175395
0.00244465
0.00363498
0.00624805
0.00719214
0.00570924
0.00555997
0.00667225
0.000531851
0.000565416
0.000738068
0.000926801
0.00121662
0.00170657
0.00272058
0.00517324
0.000531851
0.00174007
0.00276308
0.00325545
0.00351711
0.00364412
0.00365553
0.00361466
0.00340567
0.0030485
0.00259259
0.00207627
0.00174352
0.00170094
0.00158146
0.00133284
0.00089801
0.000513344
0.000107154
)
;
    }
    atmosphere
    {
        type            inletOutlet;
        inletValue      uniform 0.1;
        value           nonuniform List<scalar> 
46
(
0.1
0.123201
0.0162831
0.00599694
0.00417419
0.00378844
0.00385935
0.00417277
0.0046754
0.00536642
0.00627128
0.0074355
0.00892537
0.0108329
0.0132845
0.0164562
0.0205981
0.026079
0.0334729
0.0437438
0.0586819
0.1
0.1
0.1
0.1
0.1
0.1
0.1
0.1
0.1
0.1
0.1
0.1
0.1
0.1
0.1
0.1
0.1
0.1
0.1
0.1
0.1
0.1
0.1
0.1
0.579274
)
;
    }
    defaultFaces
    {
        type            empty;
    }
}


// ************************************************************************* //
