/*--------------------------------*- C++ -*----------------------------------*\
  =========                 |
  \\      /  F ield         | OpenFOAM: The Open Source CFD Toolbox
   \\    /   O peration     | Website:  https://openfoam.org
    \\  /    A nd           | Version:  9
     \\/     M anipulation  |
\*---------------------------------------------------------------------------*/
FoamFile
{
    format      ascii;
    class       volScalarField;
    location    "8.39";
    object      p_rgh;
}
// * * * * * * * * * * * * * * * * * * * * * * * * * * * * * * * * * * * * * //

dimensions      [1 -1 -2 0 0 0 0];

internalField   nonuniform List<scalar> 
2268
(
756.363
756.397
756.507
756.703
756.981
757.337
757.762
758.248
758.784
759.36
759.961
760.573
761.181
761.765
762.303
762.781
763.194
763.585
763.901
764.177
764.535
764.796
764.901
756.357
756.396
756.508
756.706
756.984
757.338
757.761
758.245
758.778
759.35
759.946
760.552
761.15
761.723
762.255
762.743
763.198
763.639
763.969
764.242
764.615
764.771
764.876
756.336
756.379
756.494
756.695
756.975
757.33
757.753
758.236
758.768
759.337
759.932
760.534
761.127
761.695
762.228
762.727
763.21
763.689
764.061
764.258
764.686
764.764
764.878
756.297
756.341
756.458
756.663
756.947
757.305
757.731
758.216
758.75
759.322
759.917
760.521
761.116
761.689
762.232
762.733
763.205
763.712
764.217
764.343
764.734
764.777
764.913
756.239
756.281
756.4
756.609
756.898
757.262
757.694
758.185
758.725
759.302
759.903
760.513
761.118
761.704
762.265
762.771
763.052
763.723
764.259
764.697
764.796
764.399
764.963
756.16
756.2
756.321
756.534
756.829
757.201
757.642
758.142
758.692
759.277
759.887
760.508
761.127
761.734
762.323
762.864
762.556
763.733
764.258
764.739
764.842
763.905
765.074
756.061
756.098
756.221
756.438
756.741
757.122
757.575
758.089
758.651
759.248
759.869
760.503
761.142
761.776
762.403
763.032
762.523
758.945
761.648
764.807
761.682
763.388
765.308
755.938
755.979
756.105
756.328
756.639
757.031
757.498
758.028
758.605
759.216
759.849
760.498
761.159
761.827
762.499
763.196
762.835
758.171
758.417
760.129
759.678
763.856
765.537
764.438
764.67
764.93
764.796
764.462
763.934
763.232
762.577
761.903
761.197
760.493
759.865
759.457
759.441
759.098
758.931
758.695
758.561
758.572
764.24
764.525
764.821
764.706
764.401
763.95
763.435
762.813
762.161
761.561
760.786
759.928
759.448
759.51
759.138
758.938
758.699
758.461
758.476
763.646
764.322
764.793
764.647
764.349
763.911
763.399
762.804
762.175
761.625
761.234
760.229
759.493
759.357
759.187
758.963
758.561
758.19
758.232
763.594
764.454
764.885
764.665
764.346
763.897
763.357
762.781
762.121
761.561
761.274
761.054
760.527
759.678
759.079
758.973
758.502
758.136
758.669
763.557
764.974
765.047
764.737
764.382
763.891
763.374
762.815
762.128
761.505
761.23
761.028
760.647
759.957
758.582
758.54
758.303
758.8
758.788
764.976
765.499
765.211
764.834
764.436
763.97
763.462
762.907
762.105
761.622
761.273
760.98
760.587
760.004
758.541
756.617
755.884
758.689
758.751
765.942
765.694
765.35
764.941
764.523
764.034
763.534
763.024
761.285
759.867
761.225
760.934
760.479
758.879
756.981
758.71
755.575
758.242
758.718
765.91
765.805
765.48
765.065
764.619
764.091
763.598
763.159
759.247
755.713
758.117
760.888
760.101
754.728
755.994
758.921
755.249
757.613
758.696
755.736
755.776
755.903
756.13
756.452
756.864
757.358
757.92
758.528
759.163
759.817
760.488
761.186
761.911
762.664
763.466
764.352
763.668
761.49
759.937
764.171
766.42
766.025
737.478
737.839
738.334
738.719
739.619
741.139
742.87
744.589
746.111
747.18
747.946
748.543
749.838
751.664
754.182
757.681
760.823
761.7
762.152
762.277
762.014
761.74
760.736
255.92
254.876
254.668
255.734
257.06
258.271
260.567
263.643
267.577
272.431
277.972
283.697
288.982
293.483
297.561
301.643
307.594
316.259
323.607
326.966
326.165
323.696
322.342
0.727722
0.923638
1.02642
0.986434
1.14369
1.6097
1.43859
1.18282
0.95819
0.791371
0.695772
0.654614
0.606633
0.600535
0.5832
0.563327
0.526093
0.467626
0.412844
0.406389
0.420078
0.433555
0.423464
0.601051
0.932681
1.02495
0.934402
1.08743
1.74809
2.19581
2.39264
2.47326
2.54117
2.54275
2.5432
2.45511
2.43061
2.23229
2.0822
1.80702
1.29477
0.721587
0.722011
0.794235
0.792305
0.629235
0.40965
0.343191
0.261827
0.260267
0.296762
0.0618417
0.0155174
0.0111472
0.0147724
0.0089396
0.00425547
0.00430142
0.00609442
0.00713096
0.0262581
0.0310951
0.0728108
0.263631
0.406621
0.399444
0.389063
0.393179
0.506197
0.0109489
0.007095
0.0177046
0.00817922
0.00669258
0.00673146
0.00555722
0.00457899
0.00396315
0.0035043
0.00346358
0.00482982
0.0538629
0.0885606
0.0879494
0.0613654
0.0165741
0.00934454
0.00633126
0.00367348
0.0488787
0.104412
0.135987
0.00635842
0.00599859
0.00633586
0.00695406
0.0078331
0.00799319
0.00610405
0.00458399
0.00475748
0.00452372
0.00307089
0.00649691
0.0601182
0.077959
0.0529181
0.0237887
0.0143838
0.00672006
0.00111919
-0.00108682
-0.00195105
-0.00278305
-0.00286241
0.00591443
0.00559651
0.00566837
0.00571865
0.00661361
0.00783474
0.00734785
0.00532921
0.00607905
0.00695767
0.0054073
0.0024277
-0.000703668
-0.00169357
-0.00162936
0.0127099
0.0144879
0.00317781
-0.000948706
-0.00119339
-0.0016404
-0.00201117
-0.00194923
0.00526511
0.005106
0.00506604
0.00494625
0.00506922
0.00734713
0.00663038
0.00390865
0.00709605
0.00685506
0.00521348
0.000941386
-0.000119996
-0.00080023
-0.000980958
-0.00036925
0.00144934
-0.000444436
-0.000995271
-0.00116375
-0.00142387
-0.0016414
-0.00158615
0.00476407
0.00462364
0.00457644
0.00438137
0.00415037
0.00425549
0.003928
0.00324342
0.00610378
0.00682494
0.0028202
0.00083365
0.000141293
-0.000144847
0.000687056
0.000729506
-0.000489751
-0.000833616
-0.000966258
-0.0011237
-0.00134409
-0.0015554
-0.00168502
0.00430279
0.0043248
0.00425825
0.00391904
0.00368058
0.00338982
0.00306419
0.00279118
0.0056919
0.00566315
0.00123959
0.000762392
0.000242034
-9.85833e-05
0.00681026
0.010543
0.00804105
-0.000741344
-0.000970746
-0.00117135
-0.00136917
-0.00163091
-0.0019305
0.00383558
0.00394086
0.00385855
0.00353158
0.00329567
0.00304219
0.00312155
0.00528631
0.00524405
0.00229682
0.0011111
0.00069797
0.000261991
-3.56016e-05
0.00716742
0.0110792
0.0110077
0.00891872
-0.001043
-0.00122245
-0.00142646
-0.0016683
-0.00198832
0.00341848
0.00351596
0.00349898
0.00316254
0.00295318
0.00276633
0.00472042
0.00553515
0.00459014
0.00135472
0.00100842
0.000642147
0.000258026
-0.000134173
-0.000339444
0.00630208
0.0114964
0.00851573
-0.00111855
-0.00122803
-0.00139339
-0.00159157
-0.0018604
0.00305078
0.00302648
0.00300527
0.00282409
0.00264665
0.00247786
0.00495421
0.00545744
0.00306058
0.00122863
0.00092424
0.000600548
0.000263597
-8.09421e-05
-0.000434334
-0.000493196
0.000157728
7.59938e-06
-0.00103963
-0.00117289
-0.00129313
-0.00146221
-0.00166537
0.00271559
0.00272022
0.0026436
0.00253095
0.00237449
0.00221681
0.00310177
0.0034989
0.00138953
0.00112499
0.000857234
0.000573014
0.000279514
-1.61492e-05
-0.000311913
-0.000588634
-0.000802062
-0.000922737
-0.00098008
-0.00105192
-0.0011631
-0.00130713
-0.00147885
0.00247732
0.00241696
0.00237016
0.00227387
0.00213959
0.00198867
0.00172327
0.00148617
0.00126921
0.00104318
0.00080391
0.000553869
0.000299014
4.54788e-05
-0.000201979
-0.000430233
-0.000617125
-0.00075032
-0.000847867
-0.00094418
-0.00105157
-0.00116904
-0.00128239
0.00252776
0.0024768
0.0021294
0.00204488
0.00193077
0.00178675
0.00157703
0.00137703
0.00117701
0.000971728
0.000758044
0.000538139
0.000316447
9.75271e-05
-0.000113477
-0.00030806
-0.000474801
-0.0006083
-0.000717766
-0.000820691
-0.000921474
-0.00101815
-0.00110584
0.00273456
0.00271899
0.0019155
0.00183991
0.00173948
0.00160224
0.00143885
0.0012672
0.00108956
0.000905792
0.000716152
0.000522858
0.000329077
0.000138559
-4.42529e-05
-0.000213662
-0.000363455
-0.00049106
-0.000600701
-0.000700327
-0.000792764
-0.000876985
-0.000949425
0.00252356
0.00219711
0.00172092
0.0016549
0.00156492
0.00144591
0.00131105
0.00116303
0.00100682
0.000844176
0.000676702
0.00050661
0.000336578
0.000169729
9.60744e-06
-0.000139827
-0.000274859
-0.000393896
-0.000498712
-0.000592802
-0.000677585
-0.000752206
-0.000814117
0.00237152
0.00162096
0.00154369
0.00148753
0.0014088
0.00130944
0.00119422
0.00106641
0.000929757
0.000786686
0.000639174
0.000489419
0.000339821
0.000193
5.17564e-05
-8.10411e-05
-0.000202905
-0.000312599
-0.000410628
-0.000498355
-0.000576246
-0.000643491
-0.000698271
0.00227903
0.00141374
0.00138147
0.00133657
0.00127064
0.00118692
0.00108834
0.000977995
0.00085889
0.000733416
0.000603676
0.000471765
0.000339848
0.000210154
8.49431e-05
-3.36037e-05
-0.000143651
-0.000244118
-0.000334854
-0.000416171
-0.000487989
-0.00054954
-0.00059951
0.0021989
0.00186098
0.00123632
0.00120179
0.0011477
0.00107718
0.000993021
0.000897857
0.00079423
0.000684328
0.00057027
0.00045398
0.000337405
0.000222474
0.000111056
4.8879e-06
-9.45729e-05
-0.000186341
-0.000269951
-0.000345205
-0.00041174
-0.000468845
-0.000515547
0.00208664
0.0020676
0.00111212
0.0010828
0.00103839
0.000979381
0.000907744
0.000825715
0.00073555
0.000639319
0.000538938
0.000436255
0.000333001
0.000230854
0.000131395
3.60591e-05
-5.39433e-05
-0.000137709
-0.000214645
-0.000284322
-0.000346249
-0.000399783
-0.000444184
0.00199463
0.00197904
0.000999425
0.000977089
0.000941713
0.000892818
0.000831969
0.000761206
0.000682629
0.00059819
0.000509685
0.000418799
0.000327096
0.000236056
0.000147023
6.1211e-05
-2.03479e-05
-9.6836e-05
-0.000167631
-0.000232218
-0.000290069
-0.000340609
-0.000383261
0.00191625
0.00136185
0.000900714
0.000885111
0.0008575
0.000817053
0.00076524
0.000703959
0.000635214
0.00056085
0.000482555
0.00040187
0.000320204
0.000238843
0.00015895
8.15618e-05
7.55904e-06
-6.23277e-05
-0.0001275
-0.000187434
-0.000241614
-0.000289525
-0.000330712
0.00131389
0.000821522
0.00081886
0.000807497
0.00078557
0.000751624
0.000707056
0.000653551
0.000593009
0.000527173
0.000457619
0.000385751
0.000312825
0.000239958
0.000168146
9.82636e-05
3.10628e-05
-3.2818e-05
-9.2833e-05
-0.000148488
-0.000199303
-0.000244828
-0.000284688
0.000757392
0.000726079
0.000744616
0.000741535
0.000724642
0.000695681
0.000656713
0.000609413
0.000555603
0.000496933
0.000434854
0.000370633
0.00030537
0.000240023
0.000175425
0.000112302
5.12805e-05
-7.09914e-06
-6.23596e-05
-0.000114056
-0.000161759
-0.000205071
-0.000243679
0.000683006
0.000679203
0.000690154
0.000688001
0.000673747
0.000648188
0.000613303
0.000570795
0.000522425
0.000469748
0.000414078
0.000356534
0.000298059
0.000239446
0.000181369
0.000124405
6.90561e-05
1.57594e-05
-3.50874e-05
-8.31025e-05
-0.000127909
-0.00016916
-0.000206578
0.000611936
0.000639573
0.000643155
0.000642989
0.000631065
0.000607838
0.000575746
0.000536788
0.000492739
0.000445063
0.000394923
0.00034327
0.000290883
0.000238384
0.00018628
0.000135002
8.49228e-05
3.63698e-05
-1.03481e-05
-5.49205e-05
-9.70277e-05
-0.00013636
-0.00017266
0.000595417
0.000566829
0.000594423
0.000604057
0.000595554
0.0005736
0.000542927
0.00050634
0.000465648
0.000422159
0.000376848
0.000330472
0.00028363
0.000236762
0.000190209
0.000144252
9.91305e-05
5.50553e-05
1.22367e-05
-2.90955e-05
-6.86806e-05
-0.00010624
-0.000141509
0.000553131
0.000523281
0.000560338
0.000576315
0.00056832
0.000544765
0.000513649
0.000478244
0.000440092
0.00040017
0.000359174
0.00031763
0.000275931
0.000234335
0.000193016
0.00015211
0.000111717
7.19263e-05
3.28356e-05
-5.41745e-06
-4.26374e-05
-7.85684e-05
-0.000112912
0.000488858
0.000502813
0.000542184
0.000564547
0.000549178
0.000519535
0.000485959
0.000450882
0.000414802
0.000378112
0.000341144
0.000304153
0.000267328
0.000230751
0.000194444
0.000158403
0.000122593
8.69682e-05
5.15013e-05
1.62179e-05
-1.87671e-05
-5.32181e-05
-8.67641e-05
0.00043984
0.000561576
0.00122163
0.00301226
0.000655823
0.000498913
0.000456243
0.000421916
0.00038825
0.000354925
0.00032197
0.000289433
0.000257339
0.000225623
0.000194187
0.000162902
0.000131606
0.000100113
6.82497e-05
3.58956e-05
3.05199e-06
-3.00781e-05
-6.29956e-05
0.000402638
0.000920901
0.00432884
0.00445687
0.00359845
0.000630527
0.00042017
0.00038909
0.000359059
0.000329695
0.000300991
0.000272954
0.000245535
0.000218585
0.000191932
0.000165358
0.000138585
0.000111287
8.31135e-05
5.37482e-05
2.30064e-05
-8.99142e-06
-4.15304e-05
0.000380573
0.000922509
0.0045158
0.00450578
0.00435424
0.000602069
0.000377933
0.000352387
0.000327008
0.000302126
0.000277897
0.000254408
0.00023161
0.000209344
0.000187411
0.000165538
0.000143366
0.000120429
9.61757e-05
7.00124e-05
4.14257e-05
1.03016e-05
-2.22744e-05
0.000357774
0.000579776
0.00302061
0.00455729
0.00192812
0.000405274
0.000334721
0.000313911
0.000292979
0.000272506
0.000252702
0.000233678
0.000215383
0.000197679
0.000180375
0.000163196
0.000145739
0.000127437
0.000107517
8.50135e-05
5.88229e-05
2.81948e-05
-5.14256e-06
0.00037895
0.00050318
0.000506514
0.000938729
0.000362565
0.000313884
0.000293056
0.000274675
0.000257299
0.000240826
0.000225225
0.000210477
0.00019649
0.000183154
0.000170319
0.000157759
0.00014511
0.000131772
0.000116803
9.87946e-05
7.56677e-05
4.50365e-05
9.76738e-06
0.000522113
0.000525088
0.000423914
0.000349217
0.000300204
0.000270207
0.000249265
0.000232845
0.00021886
0.00020632
0.000194823
0.000184174
0.000174259
0.000165014
0.000156368
0.000148212
0.00014032
0.000132205
0.000122944
0.000110896
9.2526e-05
6.10135e-05
2.1702e-05
0.000649237
0.000551096
0.000404468
0.000308229
0.000250663
0.000219176
0.000201206
0.000189214
0.000179841
0.000171782
0.000164528
0.000157883
0.000151805
0.000146316
0.000141471
0.00013734
0.000133941
0.000131093
0.000128415
0.000125196
0.00011605
7.99606e-05
2.9488e-05
0.00076189
0.00051556
0.000339347
0.000246872
0.000193546
0.00017082
0.000162728
0.000158655
0.000155367
0.000152255
0.000149243
0.000146392
0.000143818
0.00014167
0.00014015
0.00013954
0.000140167
0.000142351
0.00014715
0.000157898
0.000169536
0.000119829
3.48951e-05
0.000585897
8.15387e-05
0.000144282
0.000132872
0.000122153
0.000121465
0.000124425
0.000126361
0.000126997
0.00012695
0.000126633
0.000126262
0.000125994
0.000125999
0.000126511
0.00012788
0.00013059
0.000135348
0.000144596
0.000167145
0.000210246
0.000177583
4.45326e-05
767.121
767.047
767.106
767.066
761.998
762.241
762.296
762.078
324.651
325.162
325.009
324.165
0.397574
0.393149
0.400946
0.411204
0.436845
0.462683
0.612651
0.615409
0.231677
0.140874
0.34221
0.55976
0.167362
0.104965
0.140419
0.12478
-0.000627582
0.00281141
-0.0011047
-0.00121116
-0.00124956
-0.000740225
0.0018369
0.00330682
-0.000608642
0.0101267
0.0343282
0.0344812
0.0163889
0.0359213
0.0359649
0.0360466
-0.00218551
0.00764568
0.03503
0.037485
-0.00236622
-0.00264142
-0.00291353
-0.00159543
-0.00210826
-0.00226357
-0.00241995
-0.00253654
-0.00178119
-0.00186044
-0.00193776
-0.0019975
-0.00158684
-0.00164308
-0.00167532
-0.00160758
-0.00135884
-0.00140093
-0.00143249
-0.00145511
-0.0011608
-0.0011904
-0.00121358
-0.00123159
-0.000991642
-0.00101431
-0.00103257
-0.00104684
-0.000848739
-0.000867432
-0.000882876
-0.000895192
-0.000728398
-0.0007449
-0.0007589
-0.000770377
-0.000627115
-0.000642536
-0.00065595
-0.00066726
-0.000541846
-0.000556821
-0.000570119
-0.000581603
-0.000469862
-0.000484698
-0.000498078
-0.000509852
-0.000408645
-0.000423449
-0.000436948
-0.000448999
-0.00035591
-0.000370694
-0.000384279
-0.00039655
-0.000309701
-0.000324448
-0.00033808
-0.000350522
-0.000268473
-0.000283171
-0.000296833
-0.000309427
-0.000231125
-0.000245776
-0.000259474
-0.000272228
-0.000196948
-0.000211566
-0.00022532
-0.000238254
-0.000165544
-0.000180145
-0.000193975
-0.000207106
-0.000136716
-0.000151314
-0.000165234
-0.000178565
-0.000110375
-0.000124983
-0.000138996
-0.000152515
-8.64747e-05
-0.000101106
-0.00011521
-0.000128888
-6.49738e-05
-7.96578e-05
-9.38472e-05
-0.000107637
-4.58459e-05
-6.06322e-05
-7.49031e-05
-8.87397e-05
-2.91145e-05
-4.4084e-05
-5.84247e-05
-7.21967e-05
-1.49554e-05
-3.01901e-05
-4.45409e-05
-5.80405e-05
-3.98927e-06
-1.9383e-05
-3.34833e-05
-4.62899e-05
2.33427e-06
-1.24804e-05
-2.54573e-05
-3.67422e-05
1.80485e-06
-1.1582e-05
-2.14894e-05
-2.92394e-05
1.1349e-05
-3.04134e-07
-8.56655e-06
-1.43249e-05
766.41
766.1
765.709
765.286
764.396
762.444
761.781
762.071
761.923
754.452
751.868
751.316
750.891
752.436
759.499
758.911
757.213
756.528
758.287
761.036
759.733
757.905
755.668
753.551
751.7
749.448
748.404
753.344
755.046
754.71
754.197
753.67
753.022
750.64
746.451
745.564
741.074
739.282
321.648
320.53
319.668
319.037
318.512
317.904
316.464
313.162
307.815
307.826
305.861
301.714
297.592
291.888
284.238
282.913
283.663
285.887
288.026
0.425636
0.447017
0.475501
0.478103
0.472596
0.468466
0.466031
0.467534
0.469147
0.499375
0.518828
0.559373
0.336437
0.594032
0.839588
0.85348
0.857314
0.830209
0.798887
0.522914
0.767214
1.11312
1.11568
1.0882
1.10812
1.11368
1.11152
1.10851
1.10361
1.04421
0.713326
0.344256
0.720575
0.82976
0.824461
0.826783
0.823216
0.718527
0.552058
0.420391
0.389302
0.387616
0.338271
0.270839
0.231099
0.210159
0.181702
0.0922904
0.0250554
0.0476473
0.182665
0.201751
0.235066
0.28416
0.295146
0.315426
0.357455
0.0873784
0.0724551
0.00236909
0.00208968
0.00405522
0.00666433
0.00956528
0.0104339
0.011598
0.0158798
0.0295522
0.0303202
0.0446914
0.0187591
0.00997193
0.00873519
0.00824724
0.00772055
0.00784704
-0.00105455
-0.00016821
0.00101253
0.00194762
0.0080166
0.0456026
0.0604527
0.0444551
0.0363091
0.0629023
0.081834
0.0827421
0.0784171
0.0220465
0.00855349
0.007794
0.00737797
0.00716629
0.00736874
0.00251398
0.00032424
0.000773269
0.00121384
0.0353778
0.0717913
0.0718566
0.0725154
0.0711222
0.0656618
0.0791883
0.0834814
0.0830895
0.0167121
0.00735458
0.00700291
0.00678696
0.00673703
0.00688478
0.0347491
0.0077556
0.000513173
0.000412835
0.0248438
0.0455927
0.0120965
0.000167315
0.00085962
0.00144674
0.004904
0.0321919
0.0452176
0.026963
0.0093724
0.0063724
0.00633059
0.00634483
0.00645338
0.0362593
0.0370314
0.018046
0.000531445
-0.000154049
-0.00140761
-0.000777579
0.000719705
0.00180943
0.00119205
0.00155336
0.00353035
0.0205634
0.0286483
0.00915322
0.00592787
0.0059948
0.00602362
0.00604483
0.0375662
0.0380855
0.0319061
-0.000237683
-0.00108812
-0.00103833
7.36514e-05
0.00147451
0.00197288
0.0011092
0.00138168
0.00583709
0.0145802
0.0291752
0.0052586
0.0056688
0.00576946
0.00581097
0.00568011
0.00557054
0.0118342
-0.00099733
-0.00144091
-0.00111638
-0.000870207
-0.000417405
3.28807e-05
0.000323322
0.000744235
0.00111162
0.00144319
0.00772622
0.0214024
0.0224586
0.0122121
0.00557842
0.00568792
0.00539528
-0.00268646
-0.0025153
-0.00196419
-0.00142053
-0.00107245
-0.000794656
-0.000470688
-0.00010714
0.000260197
0.000615656
0.000942513
0.00124325
0.00919941
0.01992
0.0226676
0.0224449
0.00627876
0.00558488
0.0051682
-0.00203277
-0.00185006
-0.00159577
-0.00129671
-0.000994972
-0.000722432
-0.000427812
-0.000117646
0.000193125
0.000493873
0.000773019
0.00102072
0.00121789
0.00155001
0.00564685
0.00476173
0.0127644
0.0211723
0.0221876
-0.00129369
-0.00107965
-0.000847629
-0.000964565
-0.000892936
-0.000660414
-0.00040273
-0.000134741
0.000129164
0.000375804
0.000609233
0.000821002
0.00101949
0.00126771
0.00160451
0.0036865
0.0288901
0.0323784
0.0319322
-0.0012287
-0.000791397
-0.000625265
-0.00041539
-0.000509069
-0.000610558
-0.000374528
-7.18298e-05
0.000154686
0.000274814
0.000447573
0.000617361
0.000767718
0.000915364
0.00104913
0.00399162
0.0265013
0.0305982
0.0147077
-0.00125292
-0.00107637
-0.000523225
-0.000281516
-0.00032892
-0.000572414
-0.000346325
-3.17219e-05
0.000147897
0.000277038
0.000294083
0.000420576
0.000518544
0.00058349
0.000586408
0.000550875
0.000489498
-4.66912e-05
-0.000112227
-0.0010629
-0.00102748
-0.000947557
-0.000759001
-0.000657777
-0.000534011
-0.000345253
-6.23517e-05
8.38408e-05
0.00020944
0.000176667
0.000244326
0.000302773
0.000319626
0.00027382
0.000130255
-0.00010095
-0.000224246
-0.000187898
-0.000909128
-0.000884502
-0.000825548
-0.000738465
-0.000631156
-0.000512996
-0.000389824
-0.000238896
-6.86026e-05
-1.74772e-05
3.34424e-05
9.40596e-05
0.000125851
0.000119023
6.27278e-05
-4.89003e-05
-0.000192678
-0.000290569
-0.000215203
-0.000783849
-0.000768428
-0.000726229
-0.000661398
-0.000579866
-0.000488506
-0.000393869
-0.000300774
-0.000212952
-0.00013458
-7.17153e-05
-3.05688e-05
-1.59718e-05
-3.26788e-05
-8.31408e-05
-0.000161691
-0.000237973
-0.000287739
-0.000188267
-0.000681214
-0.000673677
-0.000644919
-0.000597956
-0.000537192
-0.000467913
-0.000395384
-0.000324027
-0.000257724
-0.000200618
-0.000157349
-0.000132434
-0.000129108
-0.000148839
-0.000189126
-0.000242398
-0.000271691
-0.000279019
0.00157728
-0.000596474
-0.000595654
-0.000577815
-0.000545281
-0.000501429
-0.000450414
-0.000396518
-0.000343674
-0.000295515
-0.000255685
-0.000227832
-0.000215134
-0.000219462
-0.000240663
-0.000274861
-0.000310387
-0.000321058
-0.000306837
0.00689449
-0.000525738
-0.000530587
-0.000521697
-0.000500923
-0.000470933
-0.000435048
-0.000396782
-0.000359526
-0.000326487
-0.000300739
-0.000285113
-0.00028181
-0.000291803
-0.000314227
-0.000345174
-0.000375123
-0.000386412
-0.000370539
0.00706672
-0.000465829
-0.000475426
-0.000473911
-0.000462797
-0.000444236
-0.000420915
-0.000395723
-0.000371522
-0.000351027
-0.000336765
-0.000330863
-0.000334817
-0.000349016
-0.00037237
-0.000401759
-0.000431213
-0.000449458
-0.000437162
0.00726012
-0.000414204
-0.00042777
-0.000432365
-0.000429239
-0.000420149
-0.000407284
-0.000393021
-0.000379731
-0.000369618
-0.00036472
-0.000366555
-0.000376014
-0.000393038
-0.000416399
-0.000443748
-0.000472045
-0.000494889
-0.00048744
0.00745585
-0.000368903
-0.000385807
-0.000395497
-0.000399013
-0.000397804
-0.000393653
-0.000388522
-0.000384333
-0.000382864
-0.000385618
-0.000393597
-0.000407112
-0.000425554
-0.000447254
-0.000469714
-0.000490301
-0.000503758
-0.000488035
0.00246535
-0.000328484
-0.000348227
-0.000362197
-0.000371256
-0.000376612
-0.000379745
-0.000382247
-0.000385676
-0.000391417
-0.00040052
-0.000413486
-0.000430034
-0.00044884
-0.000467312
-0.000481462
-0.000485611
-0.000470426
-0.000422296
-0.000323396
-0.000291942
-0.000314129
-0.000331706
-0.000345398
-0.000356225
-0.000365427
-0.000374315
-0.000384148
-0.000395989
-0.00041052
-0.00042781
-0.000447038
-0.000466144
-0.000481443
-0.000486908
-0.000472424
-0.000422927
-0.000336326
-3.33248e-05
-0.000258621
-0.000282916
-0.000303526
-0.000321067
-0.000336423
-0.000350654
-0.00036487
-0.000380113
-0.000397213
-0.000416596
-0.000438034
-0.000460327
-0.000480904
-0.000495331
-0.000496274
-0.000471114
-0.000402481
-0.000296914
0.00653103
-0.000228113
-0.0002542
-0.000277319
-0.000298004
-0.000317045
-0.000335385
-0.000354005
-0.000373818
-0.000395526
-0.00041943
-0.000445177
-0.000471425
-0.000495432
-0.000512568
-0.000515392
-0.00049161
-0.000425138
-0.000322979
0.00969535
-0.000200169
-0.000227728
-0.000252845
-0.000276
-0.000297933
-0.000319525
-0.0003417
-0.000365325
-0.000391081
-0.000419281
-0.000449618
-0.000480835
-0.000510309
-0.000533607
-0.000543786
-0.000529853
-0.000476723
-0.000382268
0.00991626
-0.000174639
-0.000203316
-0.000229901
-0.00025485
-0.00027889
-0.000302895
-0.000327793
-0.000354484
-0.000383723
-0.000415958
-0.000451089
-0.000488129
-0.000524816
-0.000557139
-0.000578596
-0.000579028
-0.000541809
-0.000449496
0.0100268
-0.000151416
-0.00018081
-0.000208286
-0.000234317
-0.000259657
-0.000285216
-0.000311977
-0.000340933
-0.000372995
-0.000408855
-0.000448764
-0.000492206
-0.000537512
-0.00058125
-0.000617205
-0.000635577
-0.000616675
-0.000524877
0.010255
-0.000130409
-0.000160048
-0.00018777
-0.000214113
-0.000239898
-0.000266107
-0.000293809
-0.000324128
-0.000358187
-0.000397008
-0.000441337
-0.000491333
-0.000546155
-0.000603115
-0.000656396
-0.000695396
-0.000697447
-0.000608622
0.0104642
-0.000111519
-0.000140831
-0.000168056
-0.000193868
-0.000219193
-0.000245096
-0.000272739
-0.000303386
-0.000338391
-0.000379162
-0.00042705
-0.000483092
-0.000547538
-0.000618827
-0.000691573
-0.000747376
-0.000768055
-0.000681352
0.00597702
-9.46213e-05
-0.000122884
-0.000148752
-0.000173117
-0.000197032
-0.000221635
-0.000248155
-0.000277957
-0.000312605
-0.000353892
-0.000403853
-0.000464649
-0.000537908
-0.000623888
-0.000718456
-0.000785306
-0.00082268
-0.000732146
0.00104869
-7.95145e-05
-0.000105793
-0.000129318
-0.000151272
-0.000172829
-0.000195146
-0.000219448
-0.000247126
-0.000279863
-0.000319771
-0.000369553
-0.000432587
-0.000512584
-0.00061268
-0.000732713
-0.000829907
-0.000905566
-0.00080633
0.00228162
-6.58335e-05
-8.89007e-05
-0.000108985
-0.000127573
-0.000145886
-0.000164999
-0.000186018
-0.00021023
-0.000239278
-0.000275395
-0.000321747
-0.000382851
-0.000464862
-0.000575533
-0.000724043
-0.000893405
-0.0010443
-0.000947447
0.00367813
-5.28453e-05
-7.11065e-05
-8.66013e-05
-0.000100962
-0.000115277
-0.000130386
-0.000147129
-0.000166513
-0.000189901
-0.000219292
-0.000257801
-0.000310422
-0.00038503
-0.000494205
-0.000662086
-0.000928291
-0.00125313
-0.00121535
0.00346024
-3.90371e-05
-5.07726e-05
-6.08467e-05
-7.04803e-05
-8.03722e-05
-9.09645e-05
-0.000102691
-0.000116103
-0.000132009
-0.000151697
-0.000177391
-0.000213112
-0.000266109
-0.000350324
-0.000503085
-0.000829178
-0.00142389
-0.00161655
0.00280591
-2.02537e-05
-2.65869e-05
-3.22477e-05
-3.81169e-05
-4.44162e-05
-5.11842e-05
-5.84392e-05
-6.62321e-05
-7.46986e-05
-8.41587e-05
-9.5361e-05
-0.0001101
-0.000132631
-0.000172986
-0.000260339
-0.00050007
-0.00116628
-0.00190622
0.00146294
)
;

boundaryField
{
    leftWall
    {
        type            fixedFluxPressure;
        gradient        uniform 0;
        value           nonuniform List<scalar> 
50
(
756.363
756.357
756.336
756.297
756.239
756.16
756.061
755.938
755.736
737.478
255.92
0.727722
0.601051
0.40965
0.0109489
0.00635842
0.00591443
0.00526511
0.00476407
0.00430279
0.00383558
0.00341848
0.00305078
0.00271559
0.00247732
0.00252776
0.00273456
0.00252356
0.00237152
0.00227903
0.0021989
0.00208664
0.00199463
0.00191625
0.00131389
0.000757392
0.000683006
0.000611936
0.000595417
0.000553131
0.000488858
0.00043984
0.000402638
0.000380573
0.000357774
0.00037895
0.000522113
0.000649237
0.00076189
0.000585897
)
;
    }
    rightWall
    {
        type            fixedFluxPressure;
        gradient        uniform 0;
        value           nonuniform List<scalar> 
50
(
758.572
758.476
758.232
758.669
758.788
758.751
758.718
758.696
758.287
739.282
288.026
0.798887
0.718527
0.357455
0.00784704
0.00736874
0.00688478
0.00645338
0.00604483
0.00568011
0.00539528
0.0051682
0.0221876
0.0319322
0.0147077
-0.000112227
-0.000187898
-0.000215203
-0.000188267
0.00157728
0.00689449
0.00706672
0.00726012
0.00745585
0.00246535
-0.000323396
-3.33248e-05
0.00653103
0.00969535
0.00991626
0.0100268
0.010255
0.0104642
0.00597702
0.00104869
0.00228162
0.00367813
0.00346024
0.00280591
0.00146294
)
;
    }
    lowerWall
    {
        type            fixedFluxPressure;
        gradient        uniform 0;
        value           nonuniform List<scalar> 
62
(
756.363
756.397
756.507
756.703
756.981
757.337
757.762
758.248
758.784
759.36
759.961
760.573
761.181
761.765
762.303
762.781
763.194
763.585
763.901
764.177
764.535
764.796
764.901
764.901
764.876
764.878
764.913
764.963
765.074
765.308
765.537
767.121
767.047
767.106
767.066
764.438
764.24
763.646
763.594
763.557
764.976
765.942
765.91
764.438
764.67
764.93
764.796
764.462
763.934
763.232
762.577
761.903
761.197
760.493
759.865
759.457
759.441
759.098
758.931
758.695
758.561
758.572
)
;
    }
    atmosphere
    {
        type            totalPressure;
        rho             rho;
        psi             none;
        gamma           1;
        p0              uniform 0;
        value           nonuniform List<scalar> 
46
(
-5.93247e-05
0
0
0
0
0
0
0
0
0
0
0
0
0
0
0
0
0
0
0
0
-7.68855e-08
-8.60876e-07
-1.96759e-06
-2.90694e-06
-4.01494e-06
-5.28267e-06
-7.75415e-06
-1.18439e-05
-1.65773e-05
-2.18419e-05
-2.75202e-05
-3.34872e-05
-3.96088e-05
-4.57387e-05
-5.17157e-05
-5.73594e-05
-6.24644e-05
-6.67883e-05
-7.00278e-05
-7.17558e-05
-7.1265e-05
-6.7113e-05
-5.5915e-05
-2.71763e-05
0
)
;
    }
    defaultFaces
    {
        type            empty;
    }
}


// ************************************************************************* //
