/*--------------------------------*- C++ -*----------------------------------*\
  =========                 |
  \\      /  F ield         | OpenFOAM: The Open Source CFD Toolbox
   \\    /   O peration     | Website:  https://openfoam.org
    \\  /    A nd           | Version:  9
     \\/     M anipulation  |
\*---------------------------------------------------------------------------*/
FoamFile
{
    format      ascii;
    class       volVectorField;
    location    "12.7";
    object      U;
}
// * * * * * * * * * * * * * * * * * * * * * * * * * * * * * * * * * * * * * //

dimensions      [0 1 -1 0 0 0 0];

internalField   nonuniform List<vector> 
918
(
(2.47629 -0.138942 0)
(0.108704 0.722546 0)
(0.175368 1.11226 0)
(2.31834 0.153729 0)
(-0.0573973 1.23554 -1.20211e-19)
(-0.0924034 0.643931 -5.32912e-18)
(0.521916 0.838942 -3.02556e-19)
(0.279812 0.155739 -2.99661e-20)
(3.00615 -0.0195673 0)
(-0.00947688 0.483223 0)
(-0.018513 0.605147 0)
(0.606502 0.00660879 0)
(0.0107054 0.439105 0)
(-0.0028914 0.421705 0)
(0.0142396 0.343788 -1.31209e-18)
(-0.00536479 0.749202 -9.20938e-20)
(0.315971 0.0748308 2.15309e-18)
(0.0782276 0.643511 -2.27662e-19)
(1.52888 0.128615 0)
(-0.028994 0.712062 0)
(0.198896 0.160744 -1.27161e-18)
(3.08302 -0.397383 0)
(2.92445 -0.505991 0)
(1.86115 -0.181107 0)
(0.513557 0.0400698 0)
(-0.0252968 0.521523 0)
(-0.00135341 0.494037 1.86872e-18)
(-0.0239227 1.46392 0)
(0.0766526 2.98336 0)
(0.171699 1.81492 0)
(-0.038627 3.08083 0)
(0.0269247 1.59409 9.24239e-20)
(0.0222081 0.668026 0)
(-0.147425 0.775094 -2.037e-22)
(-0.193914 1.0291 4.43397e-18)
(-0.0415772 1.04471 0)
(0.74422 -0.00605096 0)
(0.164606 0.251593 6.68057e-19)
(0.977767 1.49279 6.65027e-19)
(0.639057 0.772606 -5.25697e-19)
(0.787996 1.55686 6.3648e-20)
(0.411414 0.843231 -3.28625e-19)
(0.563723 0.312611 2.94712e-20)
(0.302523 0.156173 0)
(0.947806 0.557565 0)
(0.544544 0.310432 1.32441e-19)
(0.263751 0.166148 -1.35904e-19)
(0.871483 -0.0554993 0)
(3.02784 -0.00171844 0)
(3.00685 0.0178587 0)
(3.20086 -0.417748 0)
(3.04288 -0.0742266 0)
(3.03116 -0.0388504 0)
(0.0171935 0.906637 -1.14362e-18)
(-0.0538387 0.984035 0)
(0.00257573 0.460002 0)
(-0.0300954 0.995349 0)
(-0.0124684 0.490589 0)
(-0.00234331 0.859202 0)
(-0.0529151 1.13848 0)
(-0.0127797 0.555648 0)
(-0.0276328 1.19592 0)
(-0.00727689 0.640659 0)
(0.789084 0.011426 0)
(1.17171 -0.00175168 0)
(0.619245 0.0122906 0)
(1.12865 0.0175547 0)
(0.571247 0.00856726 0)
(0.225406 0.921982 1.96566e-18)
(0.0985379 1.2081 0)
(0.176302 1.06604 0)
(0.0331901 0.755774 2.20615e-23)
(0.0372233 0.498055 -2.93981e-18)
(0.0194616 0.747943 0)
(0.00595419 0.422033 0)
(-0.000704292 0.734559 4.5345e-24)
(0.000700211 0.414828 0)
(-0.0169547 0.74322 0)
(-0.0129667 0.42803 0)
(0.051431 0.657317 0)
(0.0500802 0.464579 0)
(0.00922032 0.625924 1.24055e-18)
(0.00137174 0.346091 0)
(-0.0731365 4.6457 0)
(0.00774617 1.42274 9.143e-20)
(-0.0103233 0.767435 -1.17578e-19)
(0.643398 0.153452 -7.5116e-19)
(0.324603 0.0659256 -7.28663e-19)
(0.653475 0.171643 -2.25584e-18)
(0.321808 0.0966185 -1.45299e-18)
(0.0794149 0.628514 0)
(0.176697 1.31081 1.8968e-19)
(0.177796 0.727911 -3.02662e-19)
(2.06039 0.260908 0)
(1.10711 0.11843 0)
(3.03313 0.103881 0)
(3.10393 0.446052 0)
(2.83921 0.37744 -1.01155e-17)
(2.57811 0.361304 7.76186e-18)
(-0.0717579 1.31137 0)
(-0.0114306 0.648727 0)
(-0.0167107 1.98495 0)
(-0.0546029 1.40451 0)
(-0.050441 0.708238 0)
(0.449099 0.302777 4.02506e-19)
(0.229972 0.166985 0)
(2.29605 -0.266418 0)
(1.32368 -0.119289 0)
(1.07976 0.0124177 0)
(1.01625 0.0185561 0)
(0.542705 0.010593 0)
(1.01474 0.0557199 0)
(0.82517 0.0706377 0)
(0.345106 0.0287559 3.35954e-18)
(-0.00546621 0.451472 1.78121e-18)
(-0.0271293 0.784766 0)
(-0.04766 0.847951 0)
(-0.0153402 0.460654 0)
(0.000131175 0.839724 1.82241e-18)
(7.13884e-05 0.487528 0)
(-0.00547911 0.845554 -5.60952e-18)
(-0.00488638 0.496761 1.89271e-18)
(0.0514235 3.66542 0)
(0.0399619 4.10231 0)
(-0.0162607 1.37378 -2.06739e-21)
(-0.0142517 1.32664 0)
(-0.00974707 0.722318 0)
(1.40938 0.0347571 0)
(0.760021 0.0153402 0)
(0.709865 0.0142278 0)
(1.41561 -0.0329251 0)
(0.773251 -0.00879215 0)
(0.329368 0.490762 -8.38795e-19)
(0.160085 0.237494 0)
(0.332514 0.520771 9.40226e-20)
(0.167089 0.274481 0)
(1.2213 1.36443 1.69442e-19)
(0.765764 0.728895 -3.98265e-19)
(0.407998 1.41353 0)
(0.600169 1.52014 0)
(0.300164 0.809588 0)
(0.148797 0.361815 -4.44961e-19)
(0.618671 0.285503 0)
(0.318542 0.136535 3.99524e-19)
(1.40472 1.28507 0)
(1.56252 1.1497 0)
(0.860835 0.653122 4.67018e-19)
(1.70921 0.938832 0)
(1.05372 0.432327 2.28413e-20)
(1.47258 0.00805644 0)
(1.50075 -0.0292903 0)
(0.801719 -0.00445145 0)
(1.95033 -0.19981 0)
(1.65066 -0.148218 0)
(1.05208 -0.0889888 0)
(3.06126 0.164841 0)
(3.03105 0.0687725 0)
(3.01022 0.0531499 0)
(0.0326429 1.61444 6.06896e-19)
(0.0164461 0.834918 0)
(0.015764 1.699 1.07714e-18)
(0.00176605 0.93879 -9.68481e-19)
(0.0634854 1.15517 1.91771e-19)
(0.0471687 0.996222 0)
(0.0389313 0.532952 0)
(-0.0301876 1.02417 0)
(-0.00785624 0.528392 0)
(0.0164266 1.59833 -4.42281e-21)
(-0.0186297 0.858275 0)
(-0.0538326 1.56275 -2.2537e-19)
(-0.0161817 0.809168 4.36422e-19)
(-0.00308119 1.05223 0)
(0.00986527 1.06901 0)
(-0.000586427 0.544437 0)
(0.00826794 1.2097 0)
(-0.000153834 0.634576 0)
(1.46529 -0.00419042 0)
(0.787384 0.00780738 0)
(1.43837 0.032916 0)
(0.760796 -0.000660915 0)
(0.676019 0.00525957 0)
(1.26335 0.016534 0)
(1.20416 0.0472294 0)
(0.660518 0.0154626 0)
(-0.00580091 1.42077 -1.7079e-20)
(0.000184199 1.37708 0)
(0.00482005 0.732923 0)
(0.00172882 0.417221 0)
(0.29087 0.842666 0)
(0.25898 0.407392 -2.8781e-19)
(-0.0013437 0.636679 0)
(-0.00861738 0.367776 0)
(0.00316411 4.38534 0)
(-0.0545879 4.64172 0)
(-0.0261076 4.57898 0)
(-0.0732318 3.28536 2.06262e-20)
(-0.0663117 4.5375 0)
(-0.0558988 4.09829 0)
(0.00381646 0.803312 1.0805e-20)
(0.0128139 1.52986 1.65208e-19)
(-0.0353079 1.46894 1.2081e-19)
(-0.00806342 0.808296 0)
(0.670474 0.106367 1.15292e-18)
(0.328003 0.0441764 -1.12993e-18)
(0.151423 1.15257 0)
(0.102472 0.583542 -2.70259e-19)
(0.11964 1.25231 -8.76631e-19)
(0.0521009 0.697647 8.72142e-19)
(0.809386 0.0240221 0)
(1.55703 0.0476115 0)
(1.70985 0.127616 0)
(0.919957 0.0444979 0)
(0.0066759 1.22468 0)
(0.0242007 1.23597 0)
(0.00362128 0.651451 0)
(0.493678 0.322549 1.20774e-18)
(0.447 0.316897 -1.39183e-18)
(0.240126 0.167972 0)
(1.92396 0.150484 1.15085e-19)
(1.12872 0.0918416 0)
(1.71631 0.117426 0)
(0.880108 0.0222033 0)
(0.682942 0.0858821 0)
(0.703565 0.0462386 -5.4023e-18)
(0.348434 0.0325718 1.99735e-18)
(0.00906892 0.807157 1.70064e-18)
(0.00219865 0.462462 4.08113e-20)
(-0.0108777 1.40842 -3.59176e-20)
(0.00613614 1.38675 1.37023e-18)
(-0.0149832 0.848955 6.31498e-20)
(-0.0119261 0.524486 -2.53717e-22)
(-0.107514 1.00068 -1.16845e-18)
(-0.0529602 1.3532 8.36551e-19)
(-0.0175323 1.35275 -1.3621e-18)
(1.4211 -0.0172502 0)
(1.44116 0.0201164 0)
(0.769106 -0.000304997 0)
(1.45258 0.0253178 0)
(1.36375 0.0461784 0)
(0.761796 0.0202645 0)
(1.30168 -0.00225905 0)
(1.31944 -0.00596426 0)
(0.695544 -0.00106785 0)
(0.311261 0.483553 -9.17872e-19)
(0.16471 0.24771 0)
(0.160626 0.315185 1.37576e-19)
(0.316378 0.599249 1.12703e-18)
(0.314455 0.561307 -6.67203e-19)
(0.160278 0.288294 1.30372e-18)
(0.284648 0.734687 2.19182e-18)
(0.151509 0.389581 3.95516e-19)
(0.645688 0.216205 1.53916e-18)
(0.636323 0.25769 3.99787e-19)
(0.321201 0.116512 7.50345e-19)
(1.8973 0.703723 -6.01998e-19)
(1.1542 0.331064 -7.03534e-19)
(-0.0368231 1.7006 4.63073e-19)
(-0.0125833 0.922652 0)
(1.59798 0.0228762 0)
(1.51784 0.0647798 0)
(0.850402 0.0264001 0)
(-0.00355958 1.38473 0)
(0.00507207 0.729576 2.50407e-18)
(0.0046499 0.731252 0)
(0.00207025 0.415098 -2.45091e-18)
(-0.010279 1.38627 5.97849e-19)
(-0.00947479 1.4225 0)
(0.34361 0.498359 2.58659e-19)
(0.367429 0.55763 -8.65251e-19)
(0.175389 0.263117 7.83088e-19)
(-0.0257051 0.767232 -1.66983e-18)
(-0.0259559 0.689744 0)
(-0.0153872 0.412781 0)
(0.0291196 1.524 -1.25664e-20)
(0.0297718 1.55144 -3.64529e-19)
(0.0167709 0.808987 -1.54414e-20)
(0.216729 1.06292 8.93513e-19)
(0.121466 0.518577 -5.94586e-19)
(0.0102485 1.49918 7.31087e-19)
(0.0546561 1.36851 -8.165e-19)
(0.0258943 0.769734 3.58335e-20)
(0.00746261 1.36613 -3.82259e-18)
(-0.000259536 1.39327 4.42678e-18)
(0.00376654 0.829769 1.7395e-18)
(-0.0138562 0.805063 -1.73231e-18)
(-0.00431572 0.481388 -1.74516e-18)
(-0.0106618 1.41685 -4.51667e-18)
(-0.0152339 1.40032 4.60624e-18)
(0.293386 0.690687 0)
(0.306819 0.649051 -2.29843e-18)
(0.15555 0.339275 9.9507e-19)
(0.28764 0.814026 1.19067e-18)
(0.141864 0.437237 -1.83713e-18)
(2.04084 0.317841 4.15601e-19)
(2.03075 0.539587 0)
(1.20773 0.218009 -4.01958e-19)
(-0.0740226 1.62228 -4.79435e-21)
(-0.0163783 1.68242 0)
(-0.0168174 0.916075 0)
(0.230464 0.963203 -3.24059e-19)
(0.253021 0.885565 -7.09892e-19)
(0.131057 0.473275 1.33054e-18)
(3.1644 -0.442906 0)
(3.34727 -0.414722 1.81057e-18)
(0.0575487 3.57082 0)
(0.0444568 2.91064 0)
(3.15926 0.249879 1.41866e-20)
(3.12356 0.50626 3.70753e-18)
(0.0210718 3.35194 -2.76847e-20)
(0.00858718 2.59427 0)
(-0.0408641 1.19644 1.56222e-18)
(0.196664 1.32968 0)
(3.43668 1.60363 -3.2572e-19)
(3.17442 0.272473 -2.96124e-20)
(3.14812 -0.118849 0)
(3.10047 -0.000449167 3.6879e-22)
(0.0379994 2.59679 0)
(0.14828 3.31737 0)
(-0.0614358 2.58005 0)
(-0.0309646 3.45845 3.15956e-19)
(-0.0315615 3.52432 1.99593e-19)
(2.63747 0.0478884 -1.36148e-20)
(3.04448 0.0300964 0)
(3.15225 0.0850294 0)
(-0.0615845 4.5999 0)
(-0.049276 3.01483 0)
(-0.0785362 3.01686 0)
(0.640471 3.08101 2.68854e-19)
(3.33881 -0.422521 0)
(3.01131 -0.345856 0)
(3.1699 -0.0530931 2.27434e-18)
(3.2927 -0.328744 -2.73862e-18)
(3.10381 -0.125807 0)
(-0.0694304 4.52557 0)
(0.00586333 4.00645 0)
(-0.00196877 4.30933 0)
(-0.0347873 3.18162 0)
(-0.0186459 2.94583 0)
(-0.0378622 2.52667 0)
(2.97326 -0.00352994 0)
(2.85144 0.0483067 -1.80439e-20)
(2.21192 3.0081 -3.27626e-19)
(3.15694 0.0444012 -2.2754e-18)
(3.19038 0.278136 2.76593e-18)
(3.0828 0.117305 0)
(3.39548 0.328798 2.08439e-18)
(3.357 0.484314 -2.70311e-18)
(3.07119 0.418388 0)
(-0.0563392 3.27331 0)
(0.00474921 3.19702 8.54634e-20)
(-0.0309942 2.50758 -6.05311e-20)
(3.69005 0.547235 2.26433e-18)
(3.46091 0.204424 0)
(-0.149997 1.27152 -2.17595e-18)
(-0.0599789 0.881786 -1.35688e-19)
(-0.080732 1.33879 2.99956e-18)
(-0.0327871 1.27195 -9.03726e-19)
(0.00175023 1.09071 0)
(-0.0266775 1.23936 6.97975e-19)
(-0.114218 1.38787 2.15644e-18)
(-0.058357 1.34063 -1.32002e-18)
(-0.0769574 1.32057 0)
(1.3147 0.606432 0)
(1.20497 0.696125 0)
(3.52381 2.00525 9.56717e-19)
(3.00942 1.90972 -1.19511e-18)
(3.81239 1.68599 0)
(3.35016 1.14181 0)
(3.3495 0.280339 -3.91124e-18)
(2.89911 0.173005 4.83276e-18)
(3.35118 -0.155692 0)
(2.85432 -0.0762849 0)
(3.43642 0.0428495 0)
(3.59382 0.144871 0)
(3.28683 0.119782 0)
(3.55037 0.298426 0)
(3.40844 0.292967 0)
(3.32756 0.217974 0)
(0.0877993 2.80523 0)
(0.0300203 2.09919 0)
(0.115633 3.05515 0)
(0.0897911 2.20919 0)
(0.202465 3.61258 0)
(0.136136 2.69788 -5.59108e-19)
(0.0419514 3.62248 0)
(0.00484088 3.02613 4.05107e-19)
(-0.0314386 3.19336 -5.16318e-19)
(-0.0656749 2.85405 0)
(-0.0285784 2.2586 0)
(-0.0805912 2.95355 0)
(-0.0576166 2.08949 0)
(-0.126312 4.72502 -2.46009e-19)
(-0.0887294 3.89711 2.7821e-19)
(-0.0823948 3.76767 3.09671e-19)
(-0.0553093 2.97937 0)
(-0.112543 3.75548 -4.59461e-19)
(-0.0420621 3.16047 -2.954e-19)
(-0.100025 4.75517 1.92656e-19)
(-0.108893 4.42422 -3.51642e-19)
(-0.0826351 4.30062 -3.79691e-19)
(3.03514 0.0870204 3.35268e-18)
(2.2925 0.0318065 -4.22242e-18)
(2.89604 0.131491 -3.32166e-18)
(2.2149 0.0728881 4.14902e-18)
(3.36634 0.0263538 0)
(2.64076 -0.00304063 0)
(3.44994 0.0890403 0)
(3.31711 0.0178701 0)
(2.70232 0.0084173 0)
(3.6734 0.234861 0)
(3.43335 0.0932045 0)
(2.85515 0.0548852 0)
(-0.028821 4.25084 -1.20723e-20)
(-0.0648258 4.61695 0)
(-0.0692101 4.48292 0)
(-0.0796435 3.43303 8.81271e-20)
(-0.0393733 2.71633 -3.4722e-21)
(-0.0950579 4.65105 1.15239e-19)
(-0.106499 4.47111 -1.16447e-19)
(-0.0893262 4.00668 0)
(-0.0667759 3.93821 0)
(-0.0355252 4.05188 0)
(-0.0792261 3.33694 0)
(-0.0460273 2.37765 0)
(0.929753 3.63133 -6.14267e-19)
(0.906434 2.82398 -1.78844e-19)
(0.436377 2.08894 -2.29072e-19)
(0.253398 2.33297 6.98803e-19)
(1.0117 4.21651 2.63872e-19)
(3.43293 -0.167613 0)
(3.32205 -0.256657 0)
(2.88308 -0.189578 0)
(3.47032 -0.0645137 0)
(3.34581 -0.147955 0)
(3.44892 -0.26112 0)
(3.51948 -0.283702 0)
(3.57945 -0.281276 0)
(3.22501 0.0929436 3.61316e-18)
(2.55597 0.064327 -4.56885e-18)
(3.09767 0.106067 -3.55658e-18)
(2.51064 0.0563574 4.42529e-18)
(2.20815 3.37736 0)
(1.71019 2.90812 -4.50858e-19)
(2.53658 3.31332 -4.07274e-19)
(2.32939 2.49123 5.41161e-19)
(0.792606 1.24028 2.73198e-18)
(1.45792 0.216436 1.34201e-18)
(3.71294 0.29886 0)
(3.8809 0.564527 -1.84514e-18)
(3.28482 0.240124 -8.22345e-20)
(3.72955 0.433884 0)
(0.252348 1.3198 1.8048e-18)
(-0.00854573 1.20538 -2.89013e-18)
(0.0676596 0.772326 1.62293e-18)
(0.287348 0.471091 -7.51568e-19)
(0.195036 1.39584 8.75056e-19)
(0.0555442 1.24261 0)
(0.0611376 1.09344 -1.13756e-18)
(0.203391 1.45186 -4.11194e-18)
(0.34362 1.57041 0)
(0.00855718 1.29012 1.20079e-19)
(-0.00982425 1.45728 -1.34565e-18)
(-0.0411494 1.30289 1.95629e-18)
(-0.0576456 1.41765 0)
(-0.0206274 1.38216 0)
(0.695812 1.0719 0)
(2.48752 2.47675 -1.06793e-18)
(2.60307 2.14023 3.97372e-19)
(2.7558 2.84758 0)
(3.18404 3.03547 -3.94955e-19)
(3.1297 2.38165 2.8081e-20)
(0.825365 0.605724 -1.82993e-18)
(1.58469 0.700221 -1.63925e-20)
(1.25423 0.457637 8.73283e-19)
(1.30604 0.860913 5.96935e-20)
(0.962957 0.648792 -2.37752e-18)
(1.49394 0.726112 0)
(2.02878 1.11406 1.4589e-18)
(2.0691 1.02844 0)
(1.44345 0.805162 0)
(1.08525 0.560404 0)
(3.38763 2.17265 1.00687e-18)
(3.93135 0.75016 -1.86163e-18)
(3.82607 1.20124 0)
(3.50777 0.747491 0)
(1.40976 0.36764 1.33327e-18)
(3.28116 1.8427 -8.52054e-19)
(2.86834 1.66107 1.54704e-18)
(3.76665 1.3678 -1.83355e-18)
(3.09848 0.114408 2.46007e-18)
(3.16886 0.180606 -2.57509e-18)
(2.66233 0.0915152 0)
(3.30652 -0.0399703 0)
(3.20091 -0.084531 -2.363e-18)
(2.63167 -0.0322567 2.34218e-18)
(3.95658 0.092281 0)
(3.76035 0.144969 0)
(3.69373 0.155129 0)
(3.58842 0.20451 0)
(3.83264 0.0586472 0)
(3.7261 0.0519616 0)
(-0.0463165 2.53669 0)
(-0.0420896 2.03922 0)
(0.336207 3.97637 -4.13087e-19)
(0.647245 3.31397 -1.61616e-19)
(0.250126 3.02217 -3.61487e-19)
(0.336097 2.53882 5.79078e-19)
(0.438789 3.99624 0)
(0.444888 4.65545 -5.10639e-19)
(0.359133 4.71263 0)
(0.896262 4.38417 -3.79574e-19)
(0.665694 3.84455 9.69721e-19)
(0.57337 4.63419 4.47574e-19)
(0.719016 4.17363 -1.89047e-19)
(0.57888 4.30291 1.52075e-19)
(0.8923 4.63087 -6.64921e-19)
(0.725553 4.64742 0)
(0.83675 4.57456 5.05602e-19)
(-0.0143912 4.55431 -1.81427e-19)
(-0.0291493 3.63825 0)
(0.0815987 4.28107 5.49034e-19)
(-0.0210389 4.3781 0)
(-0.0132965 3.46252 -4.5049e-19)
(-0.0208781 2.91229 0)
(-0.11762 4.32021 -2.9113e-19)
(-0.125151 4.66799 0)
(-0.0681141 3.8269 0)
(-0.0556212 3.76416 3.27402e-19)
(-0.0581382 3.85853 1.03692e-20)
(-0.0442064 3.69192 6.2513e-19)
(-0.0448371 2.92958 4.06278e-21)
(-0.13096 4.68774 1.80941e-19)
(-0.121296 4.72362 1.03593e-19)
(-0.0231668 2.687 0)
(-0.00304978 2.19679 0)
(-0.0637676 4.76863 4.87937e-19)
(-0.0697775 4.31456 4.2744e-19)
(-0.103498 4.57937 -5.58021e-19)
(-0.00734721 4.74146 0)
(-0.0914742 4.48121 -3.1145e-19)
(-0.126963 4.09932 1.28564e-19)
(-0.0947654 4.19581 -4.15532e-20)
(-0.0873394 4.70445 -2.19797e-19)
(-0.098346 4.22305 -6.87748e-20)
(-0.0945393 4.17312 3.0712e-19)
(2.87337 0.0604443 -2.35965e-18)
(2.86165 0.0488746 2.26909e-18)
(2.34069 0.0341886 0)
(3.5161 0.189136 3.04099e-18)
(2.71048 0.125296 -3.29917e-18)
(2.26106 0.0635958 3.60368e-18)
(3.68966 0.331036 -4.0091e-19)
(3.20883 -0.0490622 0)
(3.17056 -0.0143614 2.23366e-18)
(2.68939 -0.0127196 -2.21605e-18)
(3.8752 0.119269 -1.25041e-19)
(3.76925 0.0996935 1.07664e-18)
(4.15741 0.169428 0)
(4.22716 0.177025 -3.74501e-19)
(4.01554 0.14244 0)
(3.69791 0.153334 0)
(4.03259 0.0939241 0)
(3.71269 0.0863488 0)
(4.18469 0.111126 7.84137e-19)
(4.13768 0.0769838 -1.74506e-18)
(4.1393 0.111296 -8.46673e-19)
(4.18534 0.113775 -9.2295e-19)
(4.21342 0.224377 1.77121e-18)
(3.85107 0.185613 0)
(4.05632 0.295683 0)
(-0.0871371 4.52505 -1.36623e-19)
(-0.0420082 4.59909 -1.17215e-20)
(-0.0784367 4.62513 0)
(-0.0647066 4.12772 1.39081e-19)
(-0.0607677 4.15143 2.25827e-20)
(-0.0643147 4.01127 -2.1926e-20)
(-0.0854275 3.47029 2.61324e-19)
(-0.151906 3.94641 -1.45359e-20)
(-0.113659 4.08217 7.49479e-20)
(-0.0790274 3.34004 -1.32283e-19)
(-0.027571 2.8673 1.58444e-19)
(-0.0894468 4.45428 5.21217e-21)
(-0.10567 4.6333 1.71047e-19)
(1.21905 4.32548 3.49876e-19)
(1.13516 4.50255 7.25969e-19)
(1.7085 3.42589 4.35935e-19)
(1.28546 3.52176 1.71922e-19)
(1.26503 2.85336 0)
(0.55526 2.359 2.75832e-19)
(0.469869 1.77417 3.31983e-19)
(0.34585 2.60477 1.53663e-20)
(0.491841 3.21665 -1.16202e-18)
(0.634459 3.17554 8.78561e-19)
(0.436802 2.44308 0)
(0.296848 2.00437 -5.58932e-19)
(0.253042 3.10504 1.39623e-18)
(0.269925 2.7521 -3.21391e-20)
(0.155627 2.30444 -1.75069e-18)
(0.605376 1.44336 1.47004e-18)
(0.588368 1.65195 0)
(3.58362 -0.0753382 8.63165e-20)
(3.61857 -0.254265 -7.24985e-20)
(3.72126 -0.217956 -1.2648e-18)
(3.75922 -0.126299 1.28066e-18)
(3.67614 -0.0491317 0)
(2.42224 3.84324 0)
(2.60113 3.88984 0)
(2.87044 3.59633 0)
(2.72126 3.62374 0)
(0.873716 1.42555 -3.52756e-21)
(0.626089 1.06297 0)
(1.73297 3.42954 1.50433e-20)
(1.43106 3.50051 0)
(1.34836 3.00264 -1.28784e-18)
(1.42923 2.93859 8.26843e-19)
(1.80584 0.310689 0)
(1.44345 0.262851 3.51963e-19)
(2.42565 0.357601 2.18943e-18)
(1.79866 0.284105 -7.84928e-19)
(1.43528 0.111975 -2.49234e-18)
(4.26225 0.778574 -2.56119e-18)
(3.86584 0.985218 -3.62887e-20)
(3.31841 0.838474 2.06519e-18)
(3.88812 0.737172 1.81058e-18)
(3.13775 0.462145 -3.04076e-18)
(2.9259 0.449299 3.74527e-19)
(3.21252 0.67889 -8.1767e-19)
(2.99472 0.678326 0)
(3.77082 0.557381 1.53514e-18)
(4.10292 0.620929 0)
(4.09879 0.765788 0)
(4.03815 0.409324 8.22489e-19)
(4.29345 0.632978 -3.04664e-20)
(4.23914 0.704545 -4.52002e-19)
(4.16674 0.63227 0)
(3.61969 0.127999 1.71506e-18)
(4.19061 0.17941 2.14014e-18)
(4.09253 0.148506 -1.67637e-18)
(4.13927 0.236263 -1.44012e-18)
(3.75037 0.234597 -2.15245e-18)
(3.31491 0.372954 0)
(3.41136 0.298865 0)
(2.56709 0.189422 -1.26403e-18)
(2.11773 0.118461 4.76075e-19)
(4.04073 0.347707 1.93646e-18)
(4.28477 0.425229 -2.34321e-18)
(4.28677 0.481341 2.06572e-18)
(4.16081 0.485014 0)
(4.25468 0.330189 0)
(4.26375 0.318537 -9.77308e-19)
(4.21463 0.31084 -1.59331e-18)
(2.24382 3.5095 6.20078e-19)
(1.963 3.26864 -6.8416e-19)
(1.47608 2.40007 -1.03491e-18)
(1.21384 2.03579 2.67651e-19)
(0.904504 1.40891 -2.63819e-18)
(0.811384 1.24132 9.24708e-19)
(0.614153 0.923657 -1.88701e-21)
(1.14001 1.82145 -1.14142e-18)
(1.16815 1.92155 1.7039e-18)
(0.996534 1.73316 5.07543e-19)
(0.803111 1.31475 -5.14187e-19)
(0.648726 1.09558 0)
(2.47702 2.62987 -1.15424e-19)
(0.733067 1.16134 8.61218e-19)
(0.955315 0.912566 1.16079e-18)
(0.779951 0.8313 1.3442e-18)
(1.11087 0.764863 1.34574e-18)
(1.50311 1.06793 -2.27757e-18)
(1.41847 1.09651 1.84554e-18)
(1.02884 0.785768 -6.79469e-19)
(0.838137 0.582847 1.50018e-18)
(1.63787 0.495271 -7.78303e-19)
(1.58357 0.515079 0)
(1.25849 0.412327 4.83816e-21)
(2.54684 1.53019 7.76942e-19)
(2.12026 1.28797 -2.81393e-18)
(1.72535 1.20788 9.76009e-21)
(1.69811 1.11199 0)
(2.88451 2.60295 8.73627e-19)
(3.43843 2.73604 1.03567e-18)
(3.2504 2.92027 -1.19387e-18)
(3.53729 2.74328 -4.27784e-19)
(3.45778 2.57414 -1.34958e-19)
(3.4891 2.76791 1.3877e-19)
(3.67701 2.25035 -1.67711e-18)
(3.69111 2.47574 4.01269e-19)
(3.76328 2.41129 0)
(3.76287 2.1688 -5.79246e-19)
(4.05347 1.06244 5.79791e-19)
(4.26778 0.97996 1.00099e-18)
(4.2951 0.953236 1.01015e-18)
(4.05661 1.31567 -1.14812e-18)
(4.09105 1.33269 0)
(4.13915 1.21713 0)
(3.35272 1.23129 -1.4927e-20)
(2.44498 0.668607 0)
(2.74771 0.743343 9.30409e-19)
(3.26116 0.88029 -2.5917e-20)
(3.78421 1.52443 5.10116e-18)
(3.58419 1.75369 1.30981e-18)
(3.50003 1.5355 -1.34011e-18)
(3.06719 1.37101 1.43687e-18)
(2.79517 1.37513 8.24344e-19)
(2.34448 1.16626 -7.98379e-19)
(3.67184 -0.0859912 1.98177e-18)
(3.89463 -0.0294094 0)
(3.85887 -0.0669992 1.34013e-18)
(3.74276 -0.0598384 -2.98346e-18)
(3.98055 0.036726 1.45979e-18)
(3.9046 0.112802 -3.07834e-18)
(3.74012 0.127369 0)
(3.55666 0.173082 -6.27601e-19)
(3.81207 0.122589 1.60291e-18)
(3.6921 0.191032 -8.21349e-19)
(3.60051 0.170742 5.89824e-19)
(-0.0859859 2.63211 0)
(-0.0572549 3.42924 0)
(-0.0381895 2.49553 0)
(-0.0253203 2.00547 0)
(0.0283148 3.94235 6.75985e-19)
(0.123603 3.72371 -1.75107e-19)
(0.292884 4.62785 -2.30497e-19)
(0.229643 4.44565 2.43122e-19)
(-0.0444617 4.29475 -5.00808e-19)
(-0.0087764 4.32483 3.76044e-19)
(0.0772092 3.87485 2.21791e-20)
(-0.00400371 3.57003 -4.69767e-19)
(-0.022998 3.33224 -6.27288e-20)
(-0.052998 3.68933 -5.71577e-20)
(0.132327 4.46867 -5.86388e-19)
(0.159418 4.28885 0)
(0.252511 4.62782 2.96017e-19)
(0.243591 4.69475 2.53119e-19)
(0.575456 4.44487 -2.25988e-19)
(0.398328 3.80834 0)
(0.44814 3.65675 -1.11566e-18)
(0.551068 4.02488 7.90548e-19)
(0.458857 4.55874 -6.14635e-19)
(0.348952 4.4348 3.30764e-19)
(0.282895 4.17008 0)
(-0.0555805 4.74025 -5.54811e-19)
(-0.0915541 4.49705 -6.41758e-19)
(-0.0954174 4.71163 0)
(-0.0452585 4.33899 -6.14319e-21)
(-0.0393358 4.62134 2.74881e-19)
(-0.131607 3.91295 4.50944e-20)
(-0.0646497 3.5345 -6.59941e-19)
(-0.11028 3.96262 1.7591e-19)
(-0.156343 4.52619 2.3447e-19)
(-0.0941218 4.34104 0)
(-0.0764475 3.93255 0)
(-0.089384 2.97633 2.03556e-19)
(-0.0594464 3.69927 -6.35132e-20)
(-0.0847314 3.6812 0)
(-0.0921057 2.75763 1.6043e-19)
(-0.0490456 2.26065 -3.1069e-19)
(3.76004 0.0312225 0)
(3.73079 0.00658746 -2.02969e-19)
(4.17916 0.0659816 -1.4377e-18)
(4.08809 0.0443563 0)
(3.87459 0.0160284 0)
(4.14963 0.0355947 -1.24415e-20)
(4.10021 0.0336805 2.37524e-18)
(4.00066 0.0787028 2.84103e-18)
(3.75701 0.117422 0)
(3.55952 0.108917 0)
(4.01423 0.0919053 1.41518e-18)
(3.70499 0.114534 0)
(3.47425 0.127672 0)
(-0.0975996 4.66087 0)
(-0.11981 4.64266 1.08031e-20)
(-0.095308 4.68726 6.42033e-20)
(-0.0733689 3.88839 0)
(-0.125644 4.53615 1.11555e-19)
(-0.0833611 4.27744 -6.40052e-20)
(-0.0691329 3.99654 0)
(1.40513 4.20326 0)
(1.18749 4.55993 -1.29833e-18)
(1.20629 4.481 0)
(1.55282 4.46277 1.48663e-18)
(1.56786 4.0814 0)
(1.47643 4.3393 -6.07986e-19)
(1.03207 2.28852 -3.40942e-20)
(0.726139 1.68219 -1.75267e-18)
(0.60486 1.25529 2.13824e-18)
(0.722628 1.87474 3.98595e-19)
(0.991678 2.47241 0)
(1.05596 2.42682 0)
(0.733176 1.7251 0)
(0.543779 1.36069 -1.40162e-18)
(1.21414 3.8088 -9.84924e-19)
(1.14178 3.03753 -2.3605e-19)
(1.33893 3.44706 1.93055e-19)
(0.606915 2.0798 0)
(0.630926 1.98224 0)
(0.470431 1.60427 -3.94456e-19)
(0.969573 2.76756 0)
(2.68293 3.56353 0)
(2.40437 3.03159 -1.45517e-18)
(2.56441 3.04175 -8.58453e-20)
(2.43428 3.41932 0)
(2.31114 3.1772 2.22212e-18)
(3.27098 3.07221 -3.89758e-19)
(3.11236 3.29757 0)
(3.09667 3.12362 6.30724e-19)
(2.86063 3.40169 0)
(2.88039 3.19835 0)
(1.23592 2.05004 -9.33633e-19)
(1.44359 2.45119 -7.01245e-19)
(1.78011 3.02576 1.2081e-18)
(1.72221 3.00618 -3.63226e-19)
(1.08594 1.86252 0)
(1.23001 2.25355 4.72373e-19)
(0.735124 1.31795 -7.18143e-19)
(0.594974 1.06776 -6.16584e-22)
(1.94936 3.72372 0)
(2.20629 3.75655 -5.42269e-19)
(2.33271 3.97811 0)
(2.30385 0.527679 0)
(1.63352 0.342855 0)
(1.2234 0.278283 0)
(2.23168 0.554216 -1.46483e-18)
(1.65524 0.404272 8.17444e-19)
(2.15545 0.12839 -9.83716e-19)
(2.63871 0.295837 0)
(2.47809 0.300313 4.1299e-19)
(1.78006 0.135239 1.63106e-18)
(1.53831 0.0811227 -1.03572e-18)
(0.761985 1.58334 8.60769e-19)
(0.982268 1.85295 0)
(0.549966 1.46364 1.56689e-18)
(0.539057 1.63571 -1.43044e-18)
(0.779034 1.83996 -9.92932e-19)
(2.10989 2.49495 1.34058e-18)
(2.13218 2.74598 0)
(1.6246 1.71208 -2.77292e-19)
(2.05125 2.02146 1.74791e-18)
(1.39794 1.32271 -4.24996e-19)
(1.62863 1.34211 4.52247e-19)
(2.1516 1.53574 1.02564e-18)
(2.48416 1.68918 0)
(2.31655 1.88095 0)
(2.05219 1.63313 0)
(3.94605 2.05961 3.84656e-19)
(3.76631 1.87722 -1.26228e-18)
(3.81886 2.01303 1.04523e-18)
(3.90326 1.75621 -1.00711e-18)
(4.14563 1.65628 0)
(4.10083 1.82065 -2.97647e-19)
(2.87317 1.16579 -1.89799e-18)
(3.00007 1.16287 -2.41188e-18)
(2.36726 1.0505 1.4571e-18)
(2.17196 0.941761 -1.4216e-18)
(2.49413 0.848613 -1.17856e-18)
(2.20939 0.782557 1.44929e-18)
(4.00838 0.0327587 -1.52657e-18)
(4.05269 0.0398151 3.12539e-18)
(3.76757 -0.0665161 1.89809e-18)
(3.79074 -0.0744478 -2.28338e-18)
(3.959 0.00947175 0)
(4.05575 0.0217354 -3.72401e-18)
(0.072126 4.74295 1.06833e-19)
(0.0432589 4.71441 0)
(0.164268 4.71559 9.54325e-19)
(0.185476 4.73264 -8.68269e-19)
(0.205332 4.70025 4.29778e-19)
(0.0975755 4.64358 0)
(-0.118805 4.74686 0)
(-0.123682 4.41089 -6.23112e-20)
(-0.123231 4.35375 5.58632e-20)
(-0.131784 4.48623 7.56145e-21)
(-0.122463 4.68915 -1.01762e-19)
(-0.0999165 4.67802 5.52656e-20)
(1.87581 4.01774 -1.6431e-18)
(1.81334 4.0276 1.74082e-18)
(1.6651 4.38668 -8.54782e-19)
(1.68826 4.28257 7.61816e-20)
(2.2351 4.04975 0)
(1.83076 4.18233 -6.39188e-19)
(1.95804 3.92102 6.19881e-19)
(1.80058 4.34962 8.34952e-19)
(2.05629 4.20089 0)
(2.21164 4.08094 0)
(1.14367 3.66792 1.4973e-18)
(0.835797 2.85755 2.02985e-18)
(0.963496 3.03631 -1.39394e-18)
(0.754418 3.01843 -2.32719e-19)
(0.904214 3.77065 4.67338e-19)
(0.72521 3.40781 -1.13663e-18)
(0.763203 1.49834 -1.22014e-18)
(0.762253 1.34693 0)
(0.615857 1.13965 -1.34096e-18)
(1.13313 2.10737 0)
(1.1109 2.19451 0)
(1.39284 2.22504 -1.09427e-18)
(1.09006 2.04839 -1.03938e-18)
(1.0427 2.06691 1.10268e-18)
(1.06653 1.54637 0)
(1.45106 1.79544 -6.032e-19)
(1.66553 2.1561 -8.56591e-19)
(1.44671 2.11613 0)
(0.89477 1.84314 7.15666e-19)
(0.806998 1.70042 0)
(2.93397 2.29969 -1.84575e-18)
(3.32879 2.46695 2.60603e-18)
(3.29521 2.19147 -2.59022e-18)
(2.64623 2.03846 -2.31251e-19)
(2.75921 1.95325 -9.74232e-19)
(1.29146 2.22767 7.98793e-19)
(1.346 2.28548 -1.36371e-18)
(1.48806 2.36771 1.79751e-18)
(1.82488 2.59723 -1.16816e-18)
(1.91935 2.97307 -1.56926e-18)
(1.59529 2.5309 -1.18826e-19)
(1.66483 2.67292 1.37472e-18)
(1.84426 2.73384 9.68516e-20)
(2.04747 3.03508 6.51272e-19)
)
;

boundaryField
{
    wall-4
    {
        type            noSlip;
    }
    velocity-inlet-5
    {
        type            fixedValue;
        value           uniform (3 0 0);
    }
    velocity-inlet-6
    {
        type            fixedValue;
        value           uniform (0 1 0);
    }
    pressure-outlet-7
    {
        type            zeroGradient;
    }
    wall-8
    {
        type            noSlip;
    }
    frontAndBackPlanes
    {
        type            empty;
    }
}


// ************************************************************************* //
