/*--------------------------------*- C++ -*----------------------------------*\
  =========                 |
  \\      /  F ield         | OpenFOAM: The Open Source CFD Toolbox
   \\    /   O peration     | Website:  https://openfoam.org
    \\  /    A nd           | Version:  9
     \\/     M anipulation  |
\*---------------------------------------------------------------------------*/
FoamFile
{
    format      ascii;
    class       volScalarField;
    location    "140";
    object      k;
}
// * * * * * * * * * * * * * * * * * * * * * * * * * * * * * * * * * * * * * //

dimensions      [0 2 -2 0 0 0 0];

internalField   nonuniform List<scalar> 
12225
(
0.362822
0.343992
0.327736
0.309833
0.295369
0.283524
0.275446
0.270302
0.270341
0.271894
0.276054
0.280718
0.289904
0.295944
0.306719
0.313583
0.324432
0.33456
0.440199
0.468689
0.461606
0.448364
0.450354
0.458316
0.474384
0.498841
0.524214
0.552502
0.580664
0.606626
0.63398
0.65446
0.680358
0.694102
0.71919
0.731166
0.390551
0.417863
0.420231
0.416819
0.411635
0.407799
0.408005
0.41004
0.414463
0.42156
0.430658
0.439924
0.451162
0.461488
0.472927
0.484245
0.493807
0.507893
0.377546
0.386979
0.391409
0.391342
0.390222
0.387895
0.385659
0.384085
0.382868
0.382896
0.383381
0.384356
0.386285
0.388567
0.390964
0.394432
0.396762
0.401601
0.374562
0.376087
0.378414
0.378665
0.378263
0.377204
0.375488
0.373738
0.372006
0.370454
0.369251
0.368116
0.367368
0.366831
0.366453
0.3664
0.366434
0.366887
0.373815
0.372708
0.372645
0.372383
0.371761
0.370816
0.369552
0.368082
0.366569
0.364976
0.363521
0.362065
0.360746
0.359533
0.358393
0.357442
0.356456
0.355836
0.373783
0.371742
0.370386
0.369286
0.368234
0.367113
0.365914
0.364586
0.363235
0.361807
0.360417
0.359022
0.357671
0.356379
0.355114
0.353964
0.352791
0.351811
0.37382
0.37156
0.369634
0.367976
0.3665
0.365107
0.363774
0.362428
0.361105
0.359765
0.358446
0.35714
0.355857
0.354617
0.353393
0.352242
0.351091
0.350048
0.373832
0.371553
0.369449
0.367525
0.365776
0.364153
0.362644
0.361198
0.359815
0.358471
0.357166
0.355899
0.354662
0.353469
0.3523
0.351188
0.350089
0.349066
0.373831
0.37156
0.369418
0.367405
0.365529
0.363772
0.362132
0.360584
0.35912
0.357726
0.356392
0.355114
0.353884
0.352705
0.351563
0.350475
0.349413
0.348415
0.373829
0.37156
0.369413
0.367378
0.365458
0.363645
0.361937
0.360323
0.358797
0.357351
0.355977
0.354669
0.353421
0.352231
0.35109
0.350004
0.348955
0.347965
0.373828
0.371558
0.369409
0.367371
0.365439
0.363608
0.361875
0.360233
0.358676
0.3572
0.355798
0.354466
0.353198
0.351991
0.350839
0.349744
0.348692
0.347699
0.373827
0.371556
0.369405
0.367365
0.36543
0.363593
0.361851
0.360196
0.358625
0.357133
0.355714
0.354366
0.353082
0.351862
0.350698
0.349592
0.348534
0.347531
0.373827
0.371555
0.369401
0.36736
0.365422
0.363583
0.361837
0.360177
0.3586
0.3571
0.355673
0.354316
0.353023
0.351793
0.350621
0.349505
0.34844
0.347428
0.373826
0.371553
0.369398
0.367355
0.365416
0.363575
0.361826
0.360164
0.358584
0.357081
0.35565
0.354289
0.352992
0.351757
0.35058
0.349459
0.348389
0.34737
0.373826
0.371552
0.369396
0.367351
0.36541
0.363567
0.361817
0.360153
0.358572
0.357066
0.355634
0.354271
0.352972
0.351734
0.350555
0.349431
0.348359
0.347336
0.373825
0.371551
0.369394
0.367348
0.365406
0.363562
0.36181
0.360145
0.358562
0.357055
0.355622
0.354257
0.352956
0.351717
0.350536
0.34941
0.348336
0.347312
0.373825
0.371551
0.369393
0.367346
0.365403
0.363558
0.361806
0.36014
0.358555
0.357048
0.355613
0.354247
0.352945
0.351705
0.350522
0.349395
0.348319
0.347294
0.373825
0.37155
0.369393
0.367346
0.365402
0.363557
0.361804
0.360137
0.358552
0.357044
0.355609
0.354242
0.352939
0.351699
0.350515
0.349387
0.348311
0.347284
0.373825
0.371551
0.369393
0.367347
0.365404
0.36356
0.361806
0.360141
0.358555
0.357048
0.355612
0.354246
0.352943
0.351702
0.350519
0.349391
0.348314
0.347288
0.373826
0.371551
0.369395
0.367349
0.365407
0.363563
0.361812
0.360146
0.358563
0.357056
0.355623
0.354257
0.352957
0.351717
0.350536
0.349409
0.348335
0.347309
0.373826
0.371552
0.369397
0.367352
0.365412
0.363571
0.361823
0.360162
0.358584
0.357084
0.355657
0.3543
0.353008
0.351777
0.350604
0.349485
0.348419
0.3474
0.373826
0.371554
0.369399
0.36736
0.365429
0.363603
0.361875
0.360241
0.358691
0.357221
0.355824
0.354495
0.353228
0.35202
0.350867
0.349765
0.348712
0.347702
0.373828
0.371551
0.369412
0.367417
0.365556
0.36382
0.36219
0.360651
0.359189
0.357794
0.356457
0.355172
0.353937
0.352746
0.351602
0.350497
0.349437
0.348411
0.373823
0.371554
0.369604
0.367893
0.366339
0.364892
0.363495
0.362122
0.360762
0.359414
0.358081
0.35677
0.355489
0.354238
0.35303
0.351856
0.350735
0.349646
0.373788
0.371991
0.371113
0.370266
0.36936
0.368312
0.367048
0.36563
0.364121
0.362575
0.36103
0.359523
0.358073
0.356682
0.355382
0.354141
0.35301
0.351924
0.374355
0.375572
0.377775
0.377858
0.377288
0.375886
0.373835
0.371641
0.369505
0.367482
0.365664
0.364083
0.36271
0.361534
0.360608
0.359817
0.359287
0.3588
0.379125
0.394296
0.398249
0.396573
0.392539
0.387603
0.383645
0.380447
0.378266
0.376851
0.376494
0.376737
0.377411
0.378685
0.380435
0.382415
0.384819
0.387131
0.408394
0.42754
0.422415
0.411054
0.402225
0.39792
0.398621
0.400956
0.40606
0.413042
0.420984
0.42981
0.438815
0.448167
0.457282
0.466526
0.475297
0.484157
0.36605
0.353416
0.341988
0.33021
0.318982
0.308381
0.299411
0.29167
0.285403
0.280332
0.27668
0.273863
0.272308
0.27117
0.271204
0.271465
0.272181
0.273382
0.00608393
0.0212842
0.0342395
0.0463237
0.0583016
0.0701656
0.0818464
0.0932039
0.104035
0.114148
0.123373
0.13162
0.138851
0.14517
0.15049
0.154877
0.159569
0.162976
0.166918
0.168715
0.168772
0.164722
0.158687
0.151865
0.155707
0.14759
0.160041
0.168661
0.178272
0.187909
0.197681
0.207602
0.217598
0.227729
0.237933
0.248279
0.258696
0.269261
0.279906
0.290713
0.301615
0.312692
0.323873
0.335223
0.346662
0.358278
0.369997
0.381903
0.393924
0.406142
0.418483
0.431031
0.443709
0.456599
0.469628
0.482877
0.496267
0.509879
0.523637
0.537619
0.551746
0.566095
0.58059
0.595308
0.610166
0.625241
0.640451
0.655868
0.671413
0.687153
0.703011
0.719048
0.73519
0.751489
0.767874
0.784389
0.800965
0.817634
0.834332
0.851077
0.867805
0.884517
0.901152
0.917693
0.934085
0.950306
0.966331
0.982183
0.997951
1.01368
1.02912
1.04432
1.05922
1.0738
1.08799
1.10175
1.11502
1.12776
1.13989
1.15137
1.16212
1.17211
1.18125
1.1895
1.1968
1.20309
1.20839
1.21277
1.21491
1.2162
1.21577
1.21452
1.21215
1.20855
1.20339
1.19693
1.1892
1.18023
1.17006
1.15848
1.14565
1.13188
1.11726
1.10191
1.08596
1.06948
1.05259
1.03537
1.01794
1.00035
0.982736
0.965135
0.947661
0.930354
0.913315
0.896637
0.880641
0.866445
0.854894
0.843673
0.832097
0.820628
0.809489
0.798727
0.788452
0.778631
0.769192
0.760069
0.751221
0.742573
0.734149
0.725978
0.718081
0.710441
0.703018
0.695793
0.688793
0.682058
0.675667
0.669604
0.663829
0.658276
0.652892
0.647672
0.642626
0.637755
0.633057
0.628523
0.624154
0.619942
0.615889
0.611985
0.60823
0.604607
0.601089
0.597609
0.594039
0.590082
0.584633
0.562598
0.0175237
0.04533
0.0632598
0.0774296
0.0902788
0.102726
0.115031
0.127192
0.139083
0.150553
0.161476
0.171808
0.181611
0.191065
0.200385
0.209804
0.219587
0.229666
0.239259
0.247931
0.25647
0.266465
0.280648
0.293857
0.305862
0.317903
0.333526
0.349685
0.366246
0.383079
0.400164
0.41749
0.43503
0.452789
0.470752
0.488935
0.507326
0.525945
0.544787
0.563879
0.583226
0.602863
0.622807
0.643045
0.663524
0.684273
0.705287
0.726591
0.74818
0.770079
0.792283
0.814813
0.837665
0.860861
0.884394
0.908287
0.932529
0.957142
0.982116
1.00747
1.03319
1.0593
1.08578
1.11266
1.13992
1.16757
1.19559
1.22402
1.25282
1.282
1.31157
1.34152
1.37183
1.40251
1.43355
1.46494
1.49667
1.52873
1.56109
1.59376
1.62668
1.65986
1.69323
1.72677
1.76043
1.79413
1.8278
1.86134
1.89461
1.92759
1.96048
1.99324
2.02578
2.05806
2.08998
2.12145
2.15236
2.18261
2.21208
2.24064
2.26815
2.29448
2.31949
2.34304
2.365
2.38512
2.40319
2.41908
2.43258
2.4437
2.45156
2.45734
2.4597
2.46081
2.45845
2.45322
2.4452
2.43449
2.42116
2.40533
2.38711
2.36674
2.34441
2.32033
2.29471
2.26776
2.23966
2.21062
2.18082
2.15046
2.1197
2.0887
2.05763
2.02661
1.99577
1.96525
1.93522
1.90592
1.87746
1.84958
1.82229
1.79572
1.76996
1.74499
1.72082
1.69743
1.67485
1.65304
1.63199
1.61164
1.592
1.57302
1.55472
1.53707
1.52004
1.50362
1.48775
1.47241
1.45759
1.44324
1.4293
1.41574
1.40252
1.38962
1.37702
1.36472
1.35269
1.34093
1.32944
1.3182
1.30722
1.2965
1.28605
1.27586
1.26593
1.25624
1.24667
1.23745
1.22646
1.1962
0.0320067
0.0698238
0.091656
0.108467
0.123418
0.137629
0.15157
0.165413
0.179183
0.192848
0.206381
0.219816
0.233259
0.246872
0.2608
0.27514
0.289889
0.304897
0.320078
0.335531
0.351667
0.368969
0.387517
0.406251
0.425157
0.44463
0.464998
0.485932
0.50729
0.529003
0.551033
0.573364
0.595978
0.61887
0.642028
0.665455
0.689147
0.713111
0.737348
0.761872
0.786686
0.811804
0.837227
0.862963
0.889011
0.915386
0.942095
0.969153
0.996566
1.02435
1.05251
1.08105
1.10999
1.13933
1.16908
1.19924
1.22982
1.26082
1.29224
1.3241
1.35638
1.38908
1.42221
1.45577
1.48975
1.52415
1.55897
1.59419
1.62982
1.66585
1.70227
1.73907
1.77624
1.81378
1.85167
1.8899
1.92846
1.96733
2.0065
2.04595
2.08566
2.12561
2.16577
2.20612
2.24662
2.28726
2.32798
2.36875
2.40954
2.45026
2.49092
2.53144
2.57176
2.61178
2.65141
2.69054
2.72904
2.76677
2.8036
2.83935
2.87387
2.90696
2.93844
2.96811
2.99578
3.02121
3.04419
3.06453
3.08203
3.09656
3.10788
3.11587
3.11989
3.12176
3.11989
3.11443
3.1055
3.09322
3.07769
3.05905
3.03748
3.0132
2.98646
2.95751
2.92659
2.89397
2.85988
2.82458
2.7883
2.75128
2.71372
2.67584
2.6378
2.5998
2.56197
2.52448
2.48746
2.45108
2.41542
2.38055
2.3465
2.31331
2.28102
2.24962
2.2191
2.18949
2.16079
2.13301
2.10613
2.08012
2.05495
2.03061
2.00705
1.98425
1.96218
1.94081
1.92009
1.89996
1.88038
1.86132
1.84272
1.82455
1.80678
1.78937
1.77232
1.75561
1.73921
1.72312
1.70735
1.69188
1.67673
1.66191
1.64744
1.63334
1.61963
1.60636
1.59351
1.58136
1.56856
1.54406
0.047098
0.0930143
0.118911
0.138447
0.155489
0.171461
0.187023
0.202494
0.21802
0.233661
0.249451
0.265436
0.281681
0.298272
0.315287
0.332777
0.350746
0.369183
0.388107
0.407595
0.4278
0.448856
0.470732
0.493195
0.516144
0.539598
0.563571
0.588009
0.612862
0.638096
0.663684
0.68961
0.71586
0.742427
0.769301
0.796482
0.823969
0.851765
0.879874
0.908302
0.937055
0.966142
0.995568
1.02534
1.05548
1.08598
1.11686
1.14813
1.1798
1.21188
1.24439
1.27732
1.31069
1.34451
1.37877
1.4135
1.44868
1.48432
1.52043
1.55699
1.59402
1.63151
1.66946
1.70786
1.74671
1.786
1.82572
1.86587
1.90643
1.9474
1.98878
2.03053
2.07267
2.11516
2.158
2.20119
2.24469
2.2885
2.33261
2.377
2.42165
2.46655
2.51167
2.557
2.60252
2.64819
2.69399
2.73989
2.78584
2.83178
2.87765
2.9234
2.96895
3.01421
3.05907
3.10342
3.14713
3.19005
3.23202
3.27287
3.31241
3.35044
3.38674
3.42109
3.45326
3.483
3.51009
3.53428
3.55537
3.57316
3.5875
3.59819
3.60455
3.6076
3.60707
3.60242
3.59382
3.58137
3.56519
3.54545
3.52233
3.49607
3.46694
3.4352
3.40114
3.36504
3.32719
3.28788
3.24736
3.20592
3.16379
3.12121
3.0784
3.03554
2.99282
2.9504
2.90843
2.86706
2.82639
2.78652
2.74752
2.70943
2.67226
2.63605
2.60078
2.56649
2.53317
2.50083
2.46945
2.43901
2.40948
2.38083
2.35302
2.32602
2.29979
2.27429
2.24946
2.22526
2.20163
2.17854
2.15593
2.13378
2.11205
2.09071
2.06974
2.04913
2.02887
2.00894
1.98936
1.97013
1.95126
1.93278
1.91473
1.89714
1.88008
1.86365
1.84795
1.8333
1.81868
1.79721
0.0617754
0.114771
0.144566
0.166809
0.185937
0.203629
0.220711
0.237623
0.254605
0.271793
0.289268
0.307091
0.325317
0.344009
0.36322
0.382992
0.403349
0.424309
0.445888
0.46813
0.491087
0.514795
0.539228
0.56431
0.589967
0.616154
0.642834
0.669978
0.697555
0.725542
0.753919
0.78267
0.811784
0.841253
0.871071
0.901237
0.93175
0.962613
0.993828
1.0254
1.05734
1.08965
1.12233
1.15541
1.18888
1.22276
1.25706
1.29179
1.32696
1.36258
1.39866
1.43521
1.47225
1.50976
1.54777
1.58627
1.62527
1.66477
1.70478
1.74528
1.78627
1.82777
1.86974
1.9122
1.95514
1.99854
2.04239
2.08669
2.13143
2.17658
2.22214
2.2681
2.31443
2.36113
2.40818
2.45557
2.50328
2.55129
2.5996
2.64818
2.69703
2.74612
2.79544
2.84498
2.89471
2.9446
2.99463
3.04477
3.09497
3.14518
3.19535
3.2454
3.29528
3.34489
3.39413
3.44289
3.49104
3.53842
3.58489
3.63025
3.67431
3.71685
3.75764
3.79645
3.83302
3.86708
3.89837
3.92664
3.95163
3.97312
3.99091
4.0048
4.01441
4.01969
4.02119
4.0183
4.01106
3.99953
3.98386
3.96418
3.9407
3.91366
3.88334
3.85003
3.81402
3.77564
3.7352
3.69301
3.64937
3.60459
3.55893
3.51265
3.46601
3.41922
3.37248
3.32597
3.27984
3.23425
3.18932
3.14515
3.10183
3.05941
3.01792
2.9774
2.93786
2.89931
2.86177
2.82522
2.78967
2.75508
2.72143
2.68867
2.65678
2.62572
2.59543
2.56588
2.53702
2.50878
2.48114
2.45403
2.42742
2.40128
2.37556
2.35025
2.32532
2.30076
2.27656
2.25273
2.22927
2.2062
2.18355
2.16134
2.13963
2.11849
2.09802
2.07838
2.05974
2.04244
2.02569
2.00488
0.0754741
0.134445
0.167774
0.192545
0.213641
0.232947
0.251416
0.269584
0.287769
0.30617
0.324915
0.344093
0.363771
0.384009
0.404851
0.426336
0.448486
0.47132
0.49485
0.519092
0.544058
0.569746
0.596135
0.623185
0.650847
0.679077
0.707837
0.737095
0.766826
0.797009
0.827626
0.858665
0.890113
0.921964
0.954211
0.986854
1.01989
1.05332
1.08714
1.12137
1.156
1.19105
1.22652
1.26242
1.29876
1.33555
1.3728
1.41052
1.44873
1.48743
1.52664
1.56636
1.60661
1.64738
1.68869
1.73053
1.77292
1.81585
1.85933
1.90334
1.94789
1.99298
2.03859
2.08471
2.13135
2.17847
2.22608
2.27416
2.32269
2.37167
2.42106
2.47086
2.52105
2.5716
2.62251
2.67376
2.72532
2.77718
2.82933
2.88175
2.93442
2.98733
3.04046
3.09379
3.1473
3.20097
3.25478
3.3087
3.36268
3.41668
3.47065
3.52454
3.57829
3.6318
3.68499
3.73776
3.78997
3.8415
3.89216
3.9418
3.9902
4.03714
4.08239
4.12569
4.16677
4.20535
4.24113
4.27383
4.30316
4.32887
4.35069
4.36842
4.38182
4.39049
4.39472
4.3945
4.38953
4.37989
4.36568
4.34704
4.32417
4.29732
4.26675
4.23278
4.19573
4.15592
4.11371
4.06944
4.02343
3.97601
3.92749
3.87815
3.82826
3.77807
3.7278
3.67763
3.62775
3.57832
3.52946
3.4813
3.43393
3.38741
3.3418
3.29714
3.25344
3.21073
3.16903
3.12831
3.08859
3.04983
3.012
2.97507
2.939
2.90375
2.86928
2.83553
2.80246
2.77002
2.73816
2.70684
2.67602
2.64566
2.61573
2.58621
2.55708
2.52833
2.49996
2.47198
2.4444
2.41725
2.39057
2.36441
2.33882
2.31392
2.28983
2.26675
2.24492
2.22467
2.20535
2.18363
0.0877348
0.151561
0.187946
0.214957
0.23783
0.258608
0.278337
0.297623
0.316844
0.336248
0.356005
0.376232
0.397015
0.418417
0.440485
0.463253
0.486743
0.510968
0.535933
0.561641
0.588086
0.615258
0.643135
0.671689
0.700884
0.730687
0.761063
0.791987
0.823432
0.85538
0.887814
0.920721
0.95409
0.987914
1.02219
1.05691
1.09207
1.12768
1.16373
1.20023
1.23719
1.27462
1.31251
1.35088
1.38974
1.4291
1.46897
1.50936
1.55029
1.59175
1.63378
1.67637
1.71952
1.76327
1.80759
1.85251
1.89802
1.94413
1.99082
2.03811
2.08598
2.13444
2.18346
2.23304
2.28316
2.33382
2.38499
2.43667
2.48882
2.54144
2.59449
2.64797
2.70184
2.75609
2.81069
2.86563
2.92087
2.97641
3.03222
3.08828
3.14457
3.20108
3.25778
3.31467
3.37171
3.4289
3.4862
3.54359
3.60104
3.65852
3.71599
3.77339
3.83067
3.88777
3.94461
4.00108
4.05709
4.11249
4.16714
4.22086
4.27347
4.32473
4.3744
4.42223
4.46792
4.51118
4.55169
4.58915
4.62322
4.6536
4.68001
4.70217
4.71983
4.73275
4.74061
4.7438
4.74194
4.73504
4.72316
4.70643
4.68504
4.65921
4.62922
4.59539
4.55805
4.51757
4.47429
4.42859
4.38082
4.33135
4.28049
4.22857
4.17587
4.12266
4.06919
4.01568
3.96231
3.90926
3.85668
3.80469
3.7534
3.70289
3.65322
3.60445
3.5566
3.50971
3.46378
3.41882
3.37481
3.33175
3.28959
3.24831
3.20787
3.16823
3.12934
3.09116
3.05364
3.01674
2.9804
2.94459
2.90927
2.8744
2.83996
2.80594
2.7723
2.73907
2.70623
2.6738
2.64181
2.6103
2.57931
2.54891
2.51918
2.49026
2.46228
2.4355
2.41016
2.38661
2.36426
2.34059
0.0982747
0.165892
0.204807
0.23372
0.25814
0.280229
0.301093
0.321385
0.341524
0.361794
0.382393
0.403465
0.425109
0.447398
0.470385
0.494103
0.518573
0.543808
0.56981
0.596575
0.624095
0.652355
0.681338
0.711019
0.741373
0.772374
0.803993
0.83621
0.869
0.902349
0.936238
0.970656
1.00559
1.04104
1.077
1.11346
1.15042
1.18788
1.22584
1.26432
1.3033
1.3428
1.38283
1.4234
1.46451
1.50618
1.54841
1.59123
1.63463
1.67864
1.72326
1.7685
1.81438
1.8609
1.90807
1.95588
2.00435
2.05348
2.10325
2.15368
2.20475
2.25645
2.30877
2.3617
2.41522
2.46932
2.52397
2.57916
2.63486
2.69105
2.7477
2.80479
2.86228
2.92015
2.97838
3.03693
3.09578
3.1549
3.21427
3.27386
3.33366
3.39363
3.45376
3.51403
3.57442
3.63491
3.69549
3.75612
3.8168
3.87749
3.93815
3.99876
4.05928
4.11964
4.1798
4.23966
4.29914
4.35811
4.41646
4.47401
4.53058
4.58597
4.63993
4.69219
4.74247
4.79045
4.83581
4.87819
4.91725
4.95265
4.98405
5.01112
5.03358
5.05116
5.0636
5.07083
5.07283
5.06944
5.0607
5.04668
5.02756
5.00354
4.97491
4.94198
4.9051
4.86463
4.82095
4.77445
4.72551
4.67451
4.6218
4.56773
4.51261
4.45674
4.40039
4.34379
4.28716
4.23069
4.17455
4.11886
4.06375
4.00932
3.95563
3.90276
3.85074
3.7996
3.74937
3.70005
3.65164
3.60411
3.55746
3.51164
3.46662
3.42236
3.37882
3.33596
3.29373
3.25209
3.21099
3.1704
3.13028
3.09061
3.05137
3.01253
2.97409
2.93606
2.89845
2.86129
2.82459
2.78843
2.75285
2.71795
2.68382
2.6506
2.61849
2.58773
2.55859
2.53141
2.50563
2.47924
0.106966
0.177417
0.218343
0.248813
0.274536
0.297758
0.31962
0.340806
0.361758
0.38278
0.404092
0.42585
0.448169
0.471131
0.494792
0.519192
0.544355
0.570294
0.597012
0.624507
0.652771
0.681792
0.711554
0.742041
0.773233
0.805109
0.83765
0.870836
0.904651
0.939078
0.974104
1.00972
1.04591
1.08268
1.12002
1.15792
1.19638
1.23542
1.27502
1.31519
1.35594
1.39728
1.43921
1.48173
1.52488
1.56864
1.61304
1.65809
1.7038
1.75018
1.79724
1.845
1.89346
1.94264
1.99253
2.04314
2.09447
2.14653
2.19931
2.25281
2.30701
2.36191
2.41749
2.47373
2.53063
2.58814
2.64626
2.70496
2.76419
2.82395
2.88419
2.94488
3.00598
3.06747
3.12931
3.19145
3.25388
3.31655
3.37943
3.44249
3.50571
3.56905
3.63249
3.69601
3.7596
3.82322
3.88686
3.95052
4.01416
4.07777
4.14134
4.20483
4.26822
4.33148
4.39455
4.45739
4.51992
4.58205
4.64367
4.70464
4.7648
4.82395
4.88187
4.9383
4.99294
5.04549
5.09559
5.14289
5.18701
5.22756
5.26418
5.29647
5.32412
5.3468
5.36424
5.37626
5.38274
5.38355
5.37867
5.36812
5.35203
5.3306
5.3041
5.27282
5.23712
5.19737
5.15396
5.10729
5.05777
5.00578
4.95173
4.89597
4.83886
4.7807
4.72179
4.66241
4.60277
4.5431
4.48357
4.42434
4.36553
4.30727
4.24962
4.19268
4.13648
4.08108
4.02649
3.97273
3.91981
3.8677
3.8164
3.76587
3.71609
3.66702
3.61862
3.57085
3.52367
3.47704
3.43093
3.3853
3.34013
3.29539
3.25106
3.20714
3.16363
3.12054
3.07789
3.03572
2.99406
2.95299
2.91258
2.87293
2.83416
2.79643
2.75995
2.72497
2.69177
2.66067
2.63114
2.60161
0.113795
0.186258
0.228717
0.260413
0.287192
0.311356
0.334066
0.356019
0.377668
0.399329
0.421229
0.443535
0.466371
0.489825
0.513961
0.538823
0.564439
0.590829
0.618
0.645953
0.674683
0.704184
0.734446
0.765456
0.797202
0.82967
0.862846
0.896717
0.931269
0.96649
1.00237
1.0389
1.07607
1.11388
1.15233
1.19141
1.23113
1.27148
1.31248
1.35412
1.39642
1.43937
1.483
1.5273
1.5723
1.61799
1.66441
1.71155
1.75943
1.80807
1.85747
1.90764
1.95861
2.01036
2.06292
2.11627
2.17043
2.2254
2.28116
2.33771
2.39505
2.45315
2.51199
2.57157
2.63185
2.69281
2.75443
2.81665
2.87946
2.94282
3.00668
3.071
3.13575
3.20087
3.26633
3.33208
3.39808
3.46428
3.53064
3.59713
3.66371
3.73033
3.79698
3.86363
3.93025
3.99682
4.06332
4.12974
4.19607
4.2623
4.32841
4.39439
4.46022
4.52591
4.59141
4.6567
4.72173
4.78644
4.85075
4.91455
4.97771
5.04007
5.10141
5.1615
5.22005
5.27676
5.33128
5.38324
5.43224
5.47787
5.51971
5.55734
5.59037
5.61844
5.64122
5.65846
5.66997
5.6756
5.67527
5.66891
5.6566
5.63851
5.61489
5.58603
5.55226
5.51395
5.47151
5.42533
5.37586
5.32349
5.26864
5.2117
5.15305
5.09303
5.03196
4.97014
4.90781
4.84521
4.78254
4.71996
4.65764
4.59568
4.5342
4.47327
4.41295
4.35331
4.29436
4.23614
4.17866
4.1219
4.06586
4.01052
3.95585
3.90182
3.8484
3.79555
3.74324
3.69144
3.64012
3.58924
3.5388
3.48877
3.43914
3.38992
3.34111
3.29274
3.24484
3.19744
3.15062
3.10444
3.059
3.01441
2.97082
2.92839
2.88734
2.84794
2.81048
2.77523
2.74173
2.70873
0.118838
0.192624
0.236191
0.268807
0.296403
0.32131
0.344702
0.367277
0.389492
0.411665
0.434025
0.456744
0.47995
0.503738
0.528174
0.553311
0.579181
0.60581
0.633211
0.661392
0.690353
0.720094
0.75061
0.781896
0.813947
0.846755
0.880314
0.914616
0.949651
0.985414
1.0219
1.05909
1.097
1.13561
1.17493
1.21496
1.25571
1.29717
1.33936
1.38228
1.42593
1.47034
1.5155
1.56143
1.60814
1.65565
1.70397
1.75311
1.80308
1.85391
1.90559
1.95814
2.01157
2.06589
2.1211
2.1772
2.23419
2.29208
2.35085
2.41049
2.471
2.53234
2.59451
2.65747
2.7212
2.78566
2.85082
2.91664
2.98307
3.05008
3.11761
3.18562
3.25404
3.32283
3.39194
3.4613
3.53086
3.60058
3.67039
3.74025
3.81011
3.87993
3.94966
4.01928
4.08875
4.15805
4.22716
4.29607
4.36475
4.43321
4.50145
4.56945
4.63722
4.70476
4.77208
4.83916
4.906
4.97256
5.0388
5.10465
5.17003
5.23479
5.29878
5.36177
5.42352
5.48372
5.54206
5.59815
5.65159
5.70195
5.74878
5.79162
5.83002
5.86357
5.89189
5.91465
5.93161
5.94256
5.94738
5.94592
5.9381
5.9241
5.90412
5.87845
5.84738
5.81128
5.77054
5.72558
5.67684
5.62473
5.56971
5.51217
5.45253
5.39115
5.32838
5.26454
5.1999
5.13473
5.06923
5.00361
4.93801
4.87259
4.80745
4.74269
4.67839
4.6146
4.55138
4.48875
4.42673
4.36532
4.30453
4.24433
4.18471
4.12566
4.06713
4.00911
3.95156
3.89447
3.8378
3.78155
3.72569
3.67022
3.61514
3.56047
3.50621
3.4524
3.39909
3.34633
3.29419
3.24277
3.19216
3.1425
3.09394
3.04668
3.00094
2.95699
2.91511
2.87557
2.83793
2.80126
0.122189
0.19675
0.241061
0.274323
0.302507
0.327962
0.351861
0.374901
0.397536
0.420081
0.442765
0.465759
0.489193
0.513165
0.537748
0.562995
0.588949
0.615638
0.643084
0.671299
0.700293
0.730073
0.760636
0.791988
0.824128
0.857061
0.890784
0.9253
0.960606
0.9967
1.03358
1.07123
1.10967
1.14888
1.18888
1.22968
1.27127
1.31368
1.35689
1.40093
1.44581
1.49154
1.53812
1.58558
1.63393
1.68318
1.73335
1.78445
1.83649
1.88949
1.94345
1.99839
2.05432
2.11123
2.16914
2.22803
2.28792
2.3488
2.41065
2.47345
2.5372
2.60187
2.66743
2.73386
2.80111
2.86914
2.93793
3.0074
3.07752
3.14824
3.21948
3.2912
3.36332
3.43579
3.50854
3.58149
3.65459
3.72777
3.80095
3.87409
3.94712
4.01998
4.09263
4.16502
4.23712
4.30888
4.38028
4.4513
4.52194
4.59219
4.66204
4.7315
4.80058
4.86931
4.93771
5.0058
5.07359
5.1411
5.20834
5.27527
5.34185
5.408
5.4736
5.53849
5.60245
5.66522
5.72649
5.78591
5.84308
5.89756
5.94888
5.99655
6.04008
6.07901
6.1129
6.14135
6.16403
6.18069
6.1912
6.19513
6.19261
6.1834
6.16784
6.14614
6.11858
6.08549
6.04726
6.0043
5.95704
5.90594
5.85143
5.79396
5.73395
5.6718
5.60788
5.54253
5.47606
5.40875
5.34084
5.27253
5.20401
5.13542
5.0669
4.99856
4.93048
4.86275
4.79541
4.7285
4.66206
4.59609
4.53061
4.46561
4.40108
4.33701
4.27338
4.21016
4.14735
4.08492
4.02286
3.96117
3.89983
3.83886
3.77825
3.71804
3.65826
3.59894
3.54014
3.48194
3.42441
3.36766
3.31181
3.25701
3.20343
3.15126
3.10075
3.05217
3.00579
2.96188
2.92003
2.87961
0.12412
0.198918
0.243633
0.27729
0.305849
0.331661
0.355893
0.379236
0.402137
0.424908
0.447776
0.470909
0.494437
0.518456
0.543041
0.568253
0.594138
0.620731
0.648061
0.676153
0.705027
0.734699
0.765151
0.7964
0.828461
0.861347
0.895069
0.929634
0.965046
1.00131
1.03843
1.0764
1.11522
1.1549
1.19542
1.23684
1.27917
1.32241
1.36655
1.41163
1.45765
1.50464
1.55261
1.60157
1.65154
1.70254
1.75458
1.80767
1.86182
1.91705
1.97337
2.03078
2.08929
2.1489
2.20961
2.27141
2.33431
2.39828
2.46332
2.5294
2.59651
2.6646
2.73366
2.80364
2.87449
2.94617
3.01864
3.09182
3.16566
3.2401
3.31506
3.39048
3.46627
3.54237
3.61869
3.69515
3.77168
3.84819
3.9246
4.00083
4.07683
4.1525
4.2278
4.30266
4.37704
4.45089
4.52417
4.59687
4.66895
4.74042
4.81127
4.88152
4.95119
5.02031
5.08893
5.15709
5.22485
5.29226
5.35937
5.42621
5.49279
5.5591
5.62507
5.69061
5.75554
5.81968
5.88274
5.94442
6.00434
6.06208
6.11715
6.16904
6.21725
6.26124
6.30052
6.33462
6.36314
6.38572
6.40213
6.41218
6.41545
6.412
6.40161
6.3847
6.36149
6.33227
6.29741
6.2573
6.21237
6.16308
6.10988
6.05322
5.99356
5.93132
5.8669
5.80066
5.73293
5.66402
5.59419
5.52367
5.45265
5.3813
5.30977
5.23818
5.16665
5.09524
5.02403
4.95308
4.88242
4.81208
4.74207
4.6724
4.60308
4.53409
4.46544
4.3971
4.32908
4.26136
4.19395
4.12684
4.06005
3.99358
3.92746
3.86173
3.79641
3.73158
3.6673
3.60364
3.54072
3.47865
3.41756
3.35761
3.299
3.24193
3.18664
3.13342
3.08251
3.03422
2.98815
2.94397
0.124292
0.199109
0.244056
0.277948
0.306723
0.332728
0.357134
0.380627
0.403647
0.426502
0.449412
0.472544
0.496026
0.519958
0.544417
0.569466
0.595156
0.621529
0.648621
0.676465
0.705094
0.734543
0.764777
0.795827
0.827717
0.860466
0.894093
0.928609
0.964028
1.00036
1.03762
1.07581
1.11494
1.15503
1.19606
1.23812
1.28119
1.32525
1.37031
1.41641
1.4636
1.51189
1.56129
1.61183
1.66351
1.71636
1.77039
1.82561
1.88203
1.93965
1.99849
2.05854
2.11981
2.18229
2.24597
2.31086
2.37693
2.44416
2.51254
2.58204
2.65262
2.72426
2.7969
2.87051
2.94502
3.02038
3.09653
3.17341
3.25093
3.32903
3.40763
3.48664
3.56597
3.64553
3.72524
3.805
3.88471
3.96428
4.04362
4.12263
4.20123
4.27933
4.35686
4.43375
4.50993
4.58535
4.65995
4.73371
4.80659
4.87858
4.94969
5.01992
5.0893
5.15788
5.22571
5.29288
5.35946
5.42557
5.49129
5.55672
5.62193
5.68697
5.75187
5.81661
5.88109
5.94518
6.00868
6.07132
6.13278
6.19265
6.25048
6.30575
6.35791
6.40641
6.45071
6.49027
6.52459
6.55322
6.57581
6.59211
6.60197
6.60486
6.60074
6.58945
6.57147
6.54703
6.51648
6.48016
6.43849
6.39191
6.34089
6.28591
6.22742
6.16587
6.10168
6.03526
5.96695
5.89707
5.82592
5.75374
5.68076
5.60714
5.53307
5.45868
5.38408
5.30938
5.23466
5.15998
5.0854
5.01095
4.93667
4.86257
4.78866
4.71496
4.64145
4.56816
4.49508
4.42221
4.34957
4.27716
4.20501
4.13315
4.06161
3.99043
3.91967
3.8494
3.7797
3.71068
3.64243
3.5751
3.50884
3.44383
3.38025
3.31833
3.25832
3.20051
3.14514
3.09252
3.0423
2.99442
0.123832
0.19834
0.243171
0.277018
0.305772
0.331766
0.356157
0.379621
0.402596
0.425384
0.448205
0.471222
0.494561
0.518323
0.542585
0.567412
0.592856
0.618964
0.645775
0.673325
0.701641
0.73074
0.760653
0.791415
0.823058
0.855611
0.8891
0.923548
0.958978
0.99541
1.03286
1.07136
1.1109
1.15152
1.19319
1.23596
1.27984
1.32484
1.37094
1.41823
1.46676
1.51654
1.56759
1.61992
1.67356
1.72852
1.78481
1.84244
1.90141
1.96172
2.02336
2.08634
2.15065
2.21626
2.28318
2.35137
2.42083
2.49152
2.5634
2.63645
2.71062
2.78587
2.86214
2.93937
3.01751
3.09649
3.17622
3.25664
3.33767
3.41921
3.50118
3.58348
3.66602
3.74869
3.83138
3.91399
3.99642
4.07856
4.16029
4.24152
4.32214
4.40206
4.48117
4.55941
4.63668
4.71292
4.78806
4.86207
4.93489
5.00652
5.07693
5.14615
5.21421
5.28116
5.34707
5.41203
5.47616
5.53963
5.60258
5.66516
5.72749
5.78971
5.85199
5.91435
5.97679
6.03926
6.10165
6.16377
6.22536
6.28607
6.34545
6.40303
6.45824
6.51052
6.55928
6.60392
6.64385
6.67855
6.70753
6.73043
6.74701
6.75712
6.76001
6.7556
6.74375
6.72507
6.69982
6.66832
6.63092
6.58806
6.54021
6.48785
6.43145
6.37148
6.30838
6.24258
6.17445
6.10435
6.03258
5.95941
5.88508
5.8098
5.73375
5.65707
5.57992
5.50239
5.4246
5.34661
5.2685
5.19032
5.11211
5.03389
4.9557
4.87756
4.79948
4.72148
4.64358
4.56578
4.48812
4.41062
4.33331
4.25623
4.17943
4.10298
4.02694
3.95139
3.87643
3.80218
3.72876
3.65632
3.58503
3.51508
3.44667
3.38003
3.31543
3.25315
3.19345
3.13662
3.08237
3.03093
0.122437
0.196238
0.240671
0.274298
0.302874
0.328697
0.352915
0.3762
0.398983
0.421564
0.444157
0.466924
0.489992
0.513461
0.53741
0.561906
0.587006
0.612763
0.639222
0.666429
0.694425
0.723254
0.752951
0.783553
0.815096
0.84762
0.88116
0.915746
0.951407
0.988174
1.02608
1.06515
1.10541
1.14692
1.18963
1.23356
1.27875
1.3252
1.37286
1.42185
1.47222
1.524
1.57722
1.63188
1.68801
1.74562
1.80475
1.86536
1.92744
1.99098
2.05596
2.12237
2.19018
2.25937
2.32991
2.40177
2.47491
2.5493
2.62489
2.70163
2.77947
2.85836
2.93821
3.01898
3.10058
3.18295
3.26598
3.34961
3.43373
3.51826
3.60309
3.68812
3.77324
3.85834
3.94331
4.02803
4.11239
4.19626
4.27953
4.36207
4.44378
4.52454
4.60424
4.6828
4.76011
4.83608
4.91066
4.98377
5.05537
5.12542
5.1939
5.26084
5.32626
5.39023
5.45282
5.51412
5.57431
5.63361
5.69222
5.75034
5.80815
5.86568
5.92316
5.98093
6.03913
6.09783
6.15704
6.21669
6.27662
6.33656
6.39614
6.45488
6.51227
6.56771
6.6206
6.67025
6.71599
6.75721
6.79332
6.82375
6.84793
6.86552
6.87651
6.87999
6.8758
6.8639
6.84514
6.81961
6.78764
6.74963
6.70605
6.65737
6.60408
6.54666
6.48558
6.42129
6.35419
6.28465
6.21301
6.13957
6.06457
5.98825
5.9108
5.83241
5.75322
5.67336
5.59296
5.51209
5.43086
5.34931
5.26752
5.18553
5.10337
5.02109
4.9387
4.85625
4.77377
4.69128
4.60882
4.52643
4.44416
4.36207
4.28021
4.19866
4.11752
4.03687
3.95683
3.87753
3.79911
3.72173
3.64558
3.57086
3.4978
3.42661
3.35759
3.291
3.22708
3.16615
3.10797
3.05311
0.119774
0.192575
0.236473
0.269707
0.297942
0.323453
0.34738
0.370386
0.392899
0.415216
0.437547
0.460057
0.482873
0.506098
0.529816
0.554101
0.579015
0.604617
0.630963
0.658107
0.6861
0.714992
0.744827
0.775656
0.807528
0.8405
0.87463
0.909927
0.946424
0.984165
1.02319
1.06353
1.10521
1.14822
1.19253
1.23823
1.28536
1.33396
1.38407
1.43572
1.48893
1.54372
1.6001
1.65809
1.71768
1.77886
1.84164
1.90597
1.97184
2.03922
2.10806
2.17833
2.25
2.32302
2.39735
2.47294
2.54974
2.62769
2.70675
2.78685
2.86792
2.94991
3.03273
3.11631
3.20057
3.28543
3.3708
3.45658
3.54269
3.62903
3.71548
3.80195
3.88833
3.9745
4.06034
4.14572
4.23054
4.31466
4.39796
4.4803
4.56157
4.64164
4.7204
4.79775
4.87356
4.94775
5.02023
5.09095
5.15982
5.22681
5.29186
5.35502
5.41634
5.47586
5.53368
5.58988
5.64442
5.69764
5.7499
5.80149
5.85269
5.90381
5.95545
6.00771
6.06076
6.11473
6.16974
6.22583
6.28296
6.34093
6.39946
6.45811
6.51643
6.57382
6.62966
6.68323
6.73383
6.78076
6.82336
6.86096
6.89314
6.91923
6.93882
6.95174
6.95659
6.95374
6.94262
6.92424
6.89886
6.86689
6.82875
6.78492
6.73589
6.68214
6.62417
6.56243
6.49738
6.4294