/*--------------------------------*- C++ -*----------------------------------*\
  =========                 |
  \\      /  F ield         | OpenFOAM: The Open Source CFD Toolbox
   \\    /   O peration     | Website:  https://openfoam.org
    \\  /    A nd           | Version:  9
     \\/     M anipulation  |
\*---------------------------------------------------------------------------*/
FoamFile
{
    format      ascii;
    class       volScalarField;
    location    "3.75";
    object      p_rgh;
}
// * * * * * * * * * * * * * * * * * * * * * * * * * * * * * * * * * * * * * //

dimensions      [1 -1 -2 0 0 0 0];

internalField   nonuniform List<scalar> 
2268
(
728.928
729.351
730.267
731.665
733.493
735.723
738.319
741.245
744.457
747.905
751.541
755.297
759.103
762.873
766.51
769.891
772.915
775.49
777.216
779.738
781.97
783.513
784.115
728.847
729.266
730.138
731.535
733.365
735.603
738.213
741.156
744.39
747.868
751.527
755.306
759.128
762.909
766.552
769.946
773.023
775.692
776.82
779.426
782.287
783.751
784.224
728.66
729.099
729.969
731.349
733.179
735.428
738.055
741.022
744.285
747.795
751.491
755.307
759.165
762.98
766.663
770.121
773.342
774.537
776.82
778.742
781.488
783.885
784.601
728.358
728.822
729.699
731.08
732.917
735.181
737.832
740.83
744.13
747.684
751.428
755.296
759.209
763.086
766.845
770.413
773.826
775.984
776.735
778.678
781.016
784.179
784.9
727.938
728.434
729.323
730.718
732.571
734.858
737.54
740.577
743.925
747.531
751.334
755.269
759.257
763.218
767.078
770.773
774.336
778.115
777.9
778.57
783.012
784.648
785.409
727.396
727.939
728.841
730.255
732.132
734.449
737.171
740.258
743.663
747.334
751.21
755.225
759.304
763.369
767.345
771.172
774.851
778.613
782.123
783.507
785.301
785.334
786.089
726.739
727.321
728.243
729.684
731.593
733.95
736.723
739.872
743.347
747.094
751.054
755.163
759.349
763.534
767.642
771.601
775.385
779.114
782.661
785.076
786.112
786.311
786.953
725.96
726.597
727.547
729.02
730.959
733.37
736.208
739.43
742.984
746.816
750.87
755.084
759.391
763.714
767.965
772.057
775.942
779.671
783.123
785.676
787.118
787.776
788.154
785.91
785.421
784.139
782.088
779.543
776.639
773.537
770.423
767.153
763.329
759.245
754.918
751.259
749.776
749.93
746.979
742.178
739.26
739.801
786.022
785.79
784.507
782.533
780.089
777.236
774.137
770.84
767.319
763.348
758.962
753.883
751.162
749.297
750.165
747.187
743.43
739.004
739.904
787.111
786.375
784.85
782.796
780.256
777.485
774.47
770.914
767.12
763.648
757.548
753.2
750.682
751.313
749.782
746.779
740.503
740.263
740.992
787.915
786.808
785.172
783.044
780.48
777.702
774.574
770.569
767.175
764.014
757.297
752.531
750.283
753.64
749.848
746.942
740.112
739.183
740.353
788.41
787.33
785.602
783.39
780.758
777.916
774.78
770.799
767.317
764.911
760.754
753.999
752.197
753.64
750.104
747.4
745.07
731.304
739.372
789.069
788.031
786.098
783.804
781.026
778.103
774.983
771.751
768.448
765.414
763.265
761.229
758.256
753.629
750.387
747.913
746.536
728.24
738.014
789.986
788.684
786.639
784.263
781.276
778.207
775.056
771.818
768.651
765.302
762.349
760.51
757.686
753.554
750.621
748.436
746.123
726.418
737.684
791.03
789.341
787.282
784.806
781.745
778.566
775.04
771.659
767.854
761.55
759.237
759.669
757.277
753.432
750.769
748.926
747.544
735.223
736.917
724.703
725.406
726.386
727.894
729.882
732.357
735.293
738.634
742.321
746.298
750.514
754.916
759.443
764.019
768.535
772.848
776.882
780.654
784.077
786.947
789.076
790.7
791.912
640.519
642.94
646.03
650.113
656.764
665.544
675.276
686.302
698.264
710.132
721.268
732.297
743.714
755.523
766.777
774.429
778.678
782.528
785.943
789.329
791.942
794.005
795.541
112.354
113.859
117.723
124.472
131.177
140.047
151.154
164.641
180.049
199.11
221.723
246.881
273.497
300.961
329.777
363.703
396.967
427.516
452.905
470.972
485.87
498.432
510.026
1.9746
1.96294
1.91358
1.76007
1.97723
2.13335
2.24295
2.37154
2.64035
2.83751
2.96099
3.05629
3.13805
3.21415
3.22874
3.31045
4.76842
7.32254
11.2531
14.8246
16.5714
18.8355
21.3568
2.09904
2.93216
2.61174
1.72506
4.11498
4.17904
3.67853
3.77938
7.30835
8.51982
8.56944
8.59997
8.62261
8.64448
8.39357
3.92011
3.79507
3.75903
4.40322
8.61147
7.09119
2.72336
0.866369
3.2833
3.26379
3.27671
1.99969
2.00901
3.81588
4.92402
4.92055
4.56934
4.53034
5.14161
5.75358
6.00779
6.45998
6.97489
7.32096
7.32557
7.32031
6.06506
2.74263
2.7166
0.822671
0.635711
2.19549
1.85267
2.1018
2.44055
2.42758
1.25684
0.735763
1.0578
0.561493
0.0745126
0.0304797
0.0144119
0.00771473
0.00360155
0.0013112
0.482636
0.61392
0.495403
0.96397
0.67674
0.516008
0.545229
0.572638
0.0424593
0.0436307
0.0448813
0.463398
0.454292
0.658029
0.338864
0.0410796
0.0278881
0.0255513
0.0196043
0.0132738
0.00891639
0.00857939
0.00287388
0.0189097
0.109119
0.295173
0.859623
0.880752
0.508483
0.516622
1.04518
0.0376121
0.0390027
0.0375661
0.0326964
0.0286327
0.0252787
0.0257505
0.0256282
0.0237286
0.0213814
0.0174195
0.012577
0.0190457
0.0154859
0.00230561
-0.0019462
0.0102137
0.083127
0.568423
0.90287
0.909944
0.496466
0.914719
0.0332936
0.0340861
0.0326437
0.0293017
0.0260718
0.0236168
0.0226486
0.0216153
0.0201859
0.0199144
0.0194155
0.0144607
0.00727225
0.00436484
-0.000178516
-0.00409804
-0.008061
-0.0131808
0.00920427
0.235179
0.346084
0.247564
0.0214234
0.0295036
0.0296905
0.028336
0.0256983
0.0232442
0.0211953
0.0198692
0.0187542
0.0208932
0.0200289
0.0172247
0.00976192
0.00564324
0.00231661
-0.00101343
-0.00457432
-0.00856447
-0.0135481
-0.0202279
-0.0262272
-0.0262984
-0.0213168
-0.0260648
0.0262646
0.0255842
0.02433
0.0225375
0.0206099
0.0188577
0.0174294
0.0166715
0.0172664
0.0148917
0.0104009
0.0074225
0.00463614
0.0016651
-0.00141375
-0.00465744
-0.00821763
-0.0122925
-0.0169057
-0.0168846
-0.0141656
-0.0139003
-0.0164172
0.0235807
0.0226017
0.0213253
0.0197978
0.0182072
0.0166914
0.015296
0.0138648
0.012262
0.0104533
0.00841966
0.00614576
0.00368604
0.00107816
-0.00164796
-0.00452253
-0.00759096
-0.0108976
-0.0118546
-0.00345262
-0.00507383
-0.00548621
-0.00545355
0.0214165
0.0204725
0.0189341
0.017444
0.0160642
0.0147079
0.0133813
0.0120142
0.010535
0.00889885
0.00707915
0.00507766
0.00291737
0.000629867
-0.00176668
-0.00427377
-0.00689016
-0.00960026
-0.0121369
-0.00954519
-0.00151179
-0.00213209
-0.00268863
0.0196337
0.01881
0.0169307
0.0154139
0.0141761
0.0129475
0.0117149
0.0104385
0.00907254
0.0075857
0.00595857
0.00418967
0.00229278
0.000289169
-0.00180258
-0.00396837
-0.00618675
-0.0084187
-0.0105824
-0.0123344
-0.0111032
-0.00901329
-0.0129654
0.0180425
0.0170569
0.0152619
0.0136667
0.0125179
0.0113914
0.0102537
0.00907407
0.0078223
0.00647559
0.00501978
0.00345356
0.00178664
3.55537e-05
-0.00178088
-0.00364161
-0.00551698
-0.00736156
-0.00910181
-0.0106138
-0.0117544
-0.0124215
-0.0126264
0.0165088
0.0154694
0.0137524
0.0121113
0.011049
0.0100149
0.00897056
0.00788955
0.00674931
0.0055332
0.00423189
0.00284499
0.00138043
-0.000147665
-0.00172081
-0.00331586
-0.00490161
-0.00643461
-0.0078544
-0.00907809
-0.0100142
-0.0105959
-0.0108531
0.0150408
0.0140153
0.012402
0.0107252
0.009744
0.00879655
0.00784254
0.00685803
0.00582498
0.00473106
0.00357024
0.00234325
0.00105728
-0.00027491
-0.00163581
-0.00300285
-0.0043467
-0.00562951
-0.00680334
-0.00781116
-0.00859714
-0.009127
-0.00937478
0.0135534
0.012665
0.0110288
0.00948315
0.0085825
0.00771874
0.00685192
0.00596046
0.00502924
0.00404902
0.00301602
0.00193191
0.000803616
-0.000357179
-0.00153433
-0.00270712
-0.00384961
-0.00493009
-0.00591127
-0.00675256
-0.00741639
-0.00787632
-0.00812422
0.0119559
0.0111754
0.00947847
0.00836933
0.00755091
0.00676861
0.00598557
0.00518279
0.00434732
0.00347212
0.00255505
0.00159851
0.000609206
-0.000402139
-0.00142096
-0.00242891
-0.00340377
-0.00431955
-0.00514733
-0.00585752
-0.00642374
-0.00682692
-0.00706272
0.0104239
0.00926891
0.00821682
0.00737551
0.00663941
0.00593646
0.00523364
0.00451449
0.00376806
0.00298908
0.00217664
0.00133364
0.000466514
-0.000414937
-0.00129779
-0.00216616
-0.00300134
-0.00378225
-0.00448641
-0.00509177
-0.00557927
-0.00593487
-0.00615496
0.00915517
0.00812115
0.00723326
0.00649326
0.00584064
0.00521497
0.00458852
0.00394734
0.00328277
0.00259113
0.00187245
0.00112997
0.000369818
-0.000399155
-0.00116561
-0.00191597
-0.00263466
-0.00330466
-0.00390834
-0.00442901
-0.00485249
-0.0051681
-0.00537264
0.00797151
0.00709638
0.00635187
0.00571894
0.00515004
0.00459863
0.00404383
0.0034744
0.00288418
0.00227095
0.00163557
0.000981467
0.000314438
-0.00035759
-0.00102476
-0.00167556
-0.00229712
-0.00287567
-0.00339731
-0.00384916
-0.00422045
-0.00450282
-0.00469345
0.00687897
0.00617022
0.00557701
0.00505259
0.00456428
0.00408264
0.00359349
0.00308903
0.0025654
0.00202177
0.00145965
0.000882618
0.000296093
-0.000292855
-0.000875719
-0.00144279
-0.00198345
-0.00248657
-0.00294111
-0.00333697
-0.00366579
-0.00392091
-0.00409987
0.00589729
0.00535103
0.00491688
0.00449621
0.00407961
0.00366055
0.00323036
0.00278388
0.00231917
0.00183658
0.00133825
0.000827825
0.000310372
-0.000207827
-0.000719462
-0.00121638
-0.00168984
-0.00213083
-0.0025305
-0.00288086
-0.00317526
-0.00340838
-0.00357807
0.00502905
0.00514892
0.00646041
0.00488591
0.00368558
0.00332229
0.00294504
0.00255012
0.00213714
0.00170763
0.00126432
0.000810998
0.000352389
-0.000105919
-0.000557659
-0.000996011
-0.00141379
-0.00180368
-0.00215856
-0.00247201
-0.00273869
-0.00295427
-0.00311689
0.00428026
0.00508949
0.007095
0.00685935
0.00376298
0.00305479
0.00272637
0.00237752
0.00200984
0.00162621
0.00123007
0.000825385
0.000416653
8.84594e-06
-0.000392677
-0.000782228
-0.00115392
-0.00150181
-0.00182015
-0.00210369
-0.0023481
-0.00254987
-0.00270729
0.00365251
0.00435169
0.006811
0.006644
0.00406841
0.00284638
0.00256323
0.00225527
0.00192703
0.00158286
0.00122699
0.000863644
0.000497144
0.000131928
-0.000227439
-0.000576246
-0.000909697
-0.00122298
-0.00151142
-0.00177072
-0.00199721
-0.00218818
-0.0023418
0.00313569
0.00332879
0.0066015
0.00644153
0.00358927
0.00268909
0.00244511
0.00217241
0.00187801
0.00156761
0.00124615
0.000918068
0.000587543
0.000258512
-6.51685e-05
-0.000379657
-0.000681101
-0.000965641
-0.00122946
-0.00146898
-0.0016811
-0.00186334
-0.00201427
0.00270043
0.00286744
0.00394524
0.00341865
0.00283337
0.00257332
0.00236052
0.00211724
0.00185164
0.00157026
0.00127848
0.000980933
0.00068156
0.000383828
9.09229e-05
-0.000194121
-0.000468308
-0.000728601
-0.000971895
-0.00119513
-0.00139554
-0.00157086
-0.00171975
0.00233091
0.00260335
0.00273325
0.00271978
0.00262807
0.00248262
0.00229533
0.0020771
0.00183656
0.00158071
0.00131527
0.0010449
0.000773315
0.000503499
0.000237962
-2.10598e-05
-0.000271397
-0.000510766
-0.000736655
-0.000946344
-0.00113718
-0.00130696
-0.00145424
0.00201055
0.00235923
0.00254934
0.00258264
0.00251997
0.00239845
0.00223458
0.00203941
0.00182196
0.00158966
0.00134858
0.00110343
0.000857688
0.000613853
0.0003737
0.000138621
-9.00739e-05
-0.000310857
-0.000521739
-0.000720135
-0.000903219
-0.00106861
-0.00121462
0.00172233
0.00212577
0.00236592
0.0024389
0.00240456
0.00230729
0.0021665
0.00199383
0.00179873
0.00158919
0.00137167
0.00115103
0.000930523
0.000712087
0.000496676
0.000284714
7.65321e-05
-0.000127197
-0.000325004
-0.000514177
-0.000691283
-0.000853413
-0.000998469
0.00146378
0.00190463
0.00218181
0.0022856
0.0022757
0.00220131
0.00208311
0.00193267
0.00175971
0.00157284
0.00137903
0.00118329
0.000988618
0.000796279
0.000606249
0.000417788
0.000230018
4.24972e-05
-0.000143988
-0.000326212
-0.000499377
-0.00065955
-0.00080406
0.0012358
0.00170701
0.00200268
0.00212307
0.00213053
0.0020758
0.00197877
0.00184993
0.00169905
0.00153527
0.0013661
0.00119666
0.00102956
0.00086525
0.00070253
0.000539226
0.000372881
0.000201405
2.43263e-05
-0.000153986
-0.000325921
-0.000485803
-0.000630277
0.00102988
0.00153383
0.00183328
0.00195301
0.0019671
0.00192661
0.00184816
0.00173996
0.00161127
0.00147165
0.00132896
0.00118826
0.00105161
0.000918502
0.000786383
0.000651392
0.000508968
0.000354331
0.000184092
4.85501e-06
-0.000169884
-0.000331684
-0.000476676
0.000836037
0.00137886
0.00167304
0.00177476
0.00178171
0.00174767
0.00168443
0.00159615
0.00149063
0.00137731
0.00126409
0.00115567
0.00105344
0.000955907
0.000859211
0.000757658
0.000644001
0.000508873
0.000341515
0.000152825
-3.10243e-05
-0.000197646
-0.000343555
0.000641413
0.00123048
0.00151917
0.00158404
0.00156645
0.00152954
0.00147857
0.00141074
0.00133077
0.00124723
0.00116744
0.0010955
0.00103213
0.000975177
0.000919989
0.000859508
0.000783424
0.000674497
0.000503726
0.000290851
8.88644e-05
-8.56832e-05
-0.000232107
0.000433093
0.00106548
0.00135579
0.00136346
0.00130507
0.00125921
0.00122077
0.00117638
0.00112609
0.00107675
0.00103463
0.00100295
0.000982039
0.000969848
0.000961956
0.000951357
0.000927236
0.000860172
0.000675387
0.000411921
0.00018088
-2.00777e-06
-0.000145324
0.000229169
0.000852569
0.00111664
0.0010516
0.0009553
0.000910941
0.000897587
0.000889306
0.000880648
0.000876192
0.000880801
0.000896785
0.00092449
0.000962804
0.00100797
0.00105375
0.00110143
0.00112184
0.000900312
0.000505691
0.000222691
3.8425e-05
-9.02209e-05
0.000166044
0.000444214
0.000570432
0.000482381
0.000412571
0.000422184
0.000480614
0.000551915
0.000624118
0.000698808
0.000779898
0.000869572
0.000969285
0.00107985
0.00119861
0.00132049
0.00146896
0.00174407
0.00144298
0.000613559
0.000202966
2.6687e-05
-7.13531e-05
5.74589e-05
-0.00111982
-0.000623079
-0.00042219
-0.000302133
-0.000153374
1.59567e-05
0.000180738
0.000335746
0.000485817
0.000635419
0.000788891
0.000952044
0.00113307
0.00134628
0.00164235
0.00217413
0.00297355
0.00256605
0.000811368
0.000223705
4.11558e-05
-3.41013e-05
794.925
795.435
795.441
795
796.918
797.244
797.123
796.681
518.951
520.169
518.436
514.457
22.6678
22.7833
23.0463
23.7257
2.42429
5.88893
6.30266
3.0993
1.59946
4.4658
3.5085
2.72881
1.64309
3.43906
0.967905
1.28561
2.13483
2.10996
0.42352
0.0371215
0.740585
0.225468
0.0176708
-0.00947573
-0.0296295
-0.0275161
-0.0189552
-0.0167728
-0.0251801
-0.0241466
-0.0226402
-0.020083
-0.0206665
-0.0209583
-0.0202532
-0.0196192
-0.00501939
-0.0135421
-0.017942
-0.017476
-0.0102984
-0.0115028
-0.0158132
-0.0154762
-0.0144637
-0.0137993
-0.0134909
-0.013522
-0.0125297
-0.0123979
-0.0121901
-0.0119693
-0.0108408
-0.0107787
-0.0106737
-0.010522
-0.00940459
-0.00937959
-0.00931599
-0.00920965
-0.00817947
-0.00817815
-0.00814279
-0.00806948
-0.00713153
-0.00714525
-0.00712947
-0.00708065
-0.00623064
-0.00625414
-0.00625247
-0.00622243
-0.00545166
-0.00548178
-0.00549076
-0.00547575
-0.00477416
-0.00480906
-0.00482645
-0.00482381
-0.0041817
-0.00422031
-0.00424454
-0.00425225
-0.00366098
-0.00370263
-0.00373254
-0.00374894
-0.00320108
-0.00324533
-0.00327994
-0.00330359
-0.00279294
-0.00283944
-0.00287792
-0.00290755
-0.00242897
-0.00247741
-0.00251906
-0.00255357
-0.00210289
-0.00215298
-0.00219717
-0.00223561
-0.00180961
-0.00186105
-0.00190726
-0.0019488
-0.00154506
-0.00159757
-0.00164533
-0.00168927
-0.00130608
-0.00135937
-0.00140828
-0.00145399
-0.00109028
-0.00114407
-0.00119375
-0.00124063
-0.00089595
-0.000949981
-0.00100004
-0.0010475
-0.000721999
-0.000775967
-0.000825957
-0.000873348
-0.00056793
-0.000621428
-0.000670788
-0.000717328
-0.000433846
-0.000486233
-0.000534149
-0.000578833
-0.000320411
-0.00037062
-0.000415853
-0.000457316
-0.000228805
-0.000274899
-0.000315556
-0.000351974
-0.000161315
-0.000199271
-0.000232319
-0.000261512
-0.00012446
-0.000149766
-0.000170207
-0.00018747
-6.64076e-05
-8.04291e-05
-9.09149e-05
-9.88833e-05
792.798
790.676
788.431
784.561
773.992
766.395
756.806
752.091
755.526
759.468
762.271
759.825
756.807
753.061
750.792
749.5
748.636
737.566
727.824
795.3
780.428
766.851
758.576
754.301
750.134
738.261
725.839
718.078
719.732
718.589
716.535
710.377
699.047
690.703
696.412
705.057
717.669
718.248
506.608
502.642
498.048
491.233
482.844
472.717
464.89
451.504
421.393
381.689
345.834
316.387
291.452
271.42
254.463
239.511
237.905
246.918
251.18
24.9889
26.947
27.8127
26.0792
21.3181
15.4199
9.21483
2.0795
1.3286
1.33872
1.34442
1.33355
1.31859
1.28917
1.27147
1.31641
1.28911
1.20326
1.16551
2.59107
1.29449
1.27236
1.27794
1.86678
2.55407
2.06534
2.06267
1.75823
1.71068
1.62785
1.48703
1.29471
1.24422
1.2186
1.21187
1.24956
1.20827
1.19525
1.46399
1.26814
1.26884
1.27251
1.80197
2.72863
2.72387
2.71509
2.71311
2.70937
2.70572
2.70408
2.70403
2.24021
1.59726
1.92944
1.92258
1.90839
1.35354
1.9394
2.25295
2.25231
2.24689
2.21874
1.76335
1.69913
1.4219
1.41908
1.25853
1.13943
0.986971
1.0203
1.23786
1.14541
1.1458
1.04938
0.874035
1.04518
1.14474
1.36614
1.21521
1.24863
0.806016
0.0605174
0.00450788
0.00867342
0.012197
0.0183891
0.0249103
0.0311434
0.0345407
0.0379952
0.0554836
0.0437639
0.0440424
0.350645
0.261523
0.0277841
-0.0238918
-0.027269
-0.0247034
-0.0166284
-0.00441963
0.0026724
0.00696477
0.0136864
0.0197475
0.0260325
0.0490665
0.083732
0.0955311
0.0418826
0.0375805
0.0386358
0.035138
0.0367304
-0.0225466
-0.0237928
-0.0221505
-0.0189537
-0.0130471
-0.00519183
0.000694966
0.0053036
0.0110489
0.0174873
0.0751108
0.14372
0.145487
0.135752
0.0347437
0.034792
0.0354854
0.0337086
0.0341451
-0.0206815
-0.0205809
-0.0186579
-0.0156309
-0.0106504
0.00606471
0.0328268
0.0140668
0.0097817
0.0821523
0.144217
0.145556
0.0985272
0.0363904
0.0412713
0.0589435
0.0604271
0.0401888
0.0372317
-0.0185682
-0.0177523
-0.0160029
-0.0134105
0.00929282
0.0376533
0.0411315
0.0360764
0.0278237
0.132291
0.146368
0.0815787
0.0213706
0.0401798
0.106209
0.111113
0.11184
0.111881
0.091989
-0.016539
-0.0155897
-0.014048
-0.0118951
0.018006
0.0392267
0.0419113
0.0268144
0.0190956
0.0627341
0.051297
0.00782258
0.0242903
0.106839
0.108737
0.109437
0.0753402
0.0680751
0.089669
-0.0147088
-0.0137899
-0.0124841
-0.0107461
0.00338534
0.0235889
0.0179748
-0.00121001
-0.000769989
0.000110007
0.00185862
0.00467464
0.0156103
0.0918782
0.107215
0.0296913
0.0121089
0.0122646
0.0445842
-0.0130325
-0.0121628
-0.0108492
-0.00960099
-0.00846785
-0.00695418
-0.00528562
-0.00318815
-0.00145515
-0.000138169
0.00145128
0.00331795
0.0101012
0.0218972
0.0146356
0.00819238
0.00942223
0.0119001
0.0116625
-0.0115328
-0.0107584
-0.00978715
-0.00871578
-0.00750995
-0.00610847
-0.00483203
-0.00317261
-0.00168743
-0.000418512
0.000920301
0.00238245
0.00371011
0.00394623
0.00500018
0.00631709
0.0071587
0.0103483
0.0124312
-0.0101776
-0.00956465
-0.00880092
-0.00776016
-0.00611283
-0.00495808
-0.00388528
-0.00306803
-0.00184089
-0.000708847
0.000408896
0.00148852
0.0023653
0.00301934
0.00382881
0.00471229
0.00533855
0.00583416
0.0310202
-0.00895215
-0.00845763
-0.00781421
-0.00700406
-0.00560287
-0.00438738
-0.00331015
-0.00224753
-0.00189232
-0.000982166
-5.35893e-05
0.000802207
0.00151745
0.00210831
0.00271395
0.00331085
0.00375909
0.00469238
0.0496146
-0.00787743
-0.00747831
-0.00694554
-0.00630121
-0.0055256
-0.0043613
-0.00324803
-0.00241771
-0.00186733
-0.0011749
-0.000303578
0.000345324
0.000825618
0.00127966
0.00171331
0.00209547
0.00237619
0.00267911
0.0501271
-0.0069394
-0.0066207
-0.00618351
-0.00564726
-0.00503109
-0.00434708
-0.0036006
-0.00285147
-0.00208809
-0.00125438
-0.000546606
4.09164e-06
0.0003549
0.000560004
0.000852811
0.00107633
0.00121233
0.00121146
0.0508704
-0.00612152
-0.00587104
-0.00551665
-0.00507524
-0.00456394
-0.00399786
-0.00339493
-0.0027802
-0.00218243
-0.00157822
-0.000963041
-0.000473339
-0.000241091
-4.6813e-05
0.000141908
0.000249394
0.000275972
0.000311455
0.051066
-0.00540782
-0.00521567
-0.00493321
-0.00457512
-0.0041567
-0.00369303
-0.0032011
-0.00270157
-0.0022166
-0.00176569
-0.00136122
-0.00101662
-0.000739329
-0.000537916
-0.000417707
-0.000390951
-0.000449213
-0.000413025
0.0523478
-0.00478331
-0.00464152
-0.00442167
-0.00413635
-0.00379928
-0.00342441
-0.003027
-0.0026241
-0.00223318
-0.00186985
-0.00154598
-0.00127128
-0.00105426
-0.000901812
-0.0008218
-0.000831177
-0.000924705
-0.000890265
0.0438686
-0.00423494
-0.00413668
-0.00397109
-0.0037491
-0.00348268
-0.00318424
-0.00286705
-0.00254515
-0.00223242
-0.00194109
-0.00168072
-0.00145863
-0.00128015
-0.00114867
-0.0010682
-0.00104889
-0.00107389
-0.000932654
0.00113116
-0.00375125
-0.00369059
-0.0035719
-0.00340461
-0.00319908
-0.00296606
-0.00271685
-0.00246289
-0.00221503
-0.00198249
-0.00177199
-0.00158751
-0.00142985
-0.0012961
-0.00118042
-0.00107436
-0.000938146
-0.000604965
-3.68773e-05
-0.00332242
-0.00329408
-0.00321571
-0.00309536
-0.002942
-0.00276477
-0.00257313
-0.00237627
-0.0021825
-0.00199831
-0.00182749
-0.00167033
-0.00152259
-0.00137413
-0.00120703
-0.000990086
-0.000663042
-0.000164385
0.000502771
-0.00294019
-0.00293935
-0.00289537
-0.00281507
-0.00270617
-0.0025764
-0.00243355
-0.00228499
-0.00213688
-0.00199341
-0.00185574
-0.00172084
-0.00157993
-0.00141627
-0.00120067
-0.000880374
-0.00037975
0.000258173
0.00105429
-0.00259761
-0.00261994
-0.00260501
-0.00255862
-0.00248741
-0.00239789
-0.00229651
-0.00218912
-0.00208028
-0.00197238
-0.00186465
-0.00175169
-0.00162167
-0.00145366
-0.00121144
-0.000829942
-0.00023002
0.000478501
0.0206597
-0.00228897
-0.00233056
-0.00233989
-0.00232194
-0.00228244
-0.00222694
-0.00216083
-0.00208883
-0.00201439
-0.00193876
-0.00186009
-0.00177194
-0.00166154
-0.00150743
-0.00127389
-0.000899779
-0.000318929
0.000345217
0.0580577
-0.00200966
-0.00206696
-0.00209623
-0.00210179
-0.00208869
-0.00206172
-0.00202551
-0.00198406
-0.00194011
-0.00189444
-0.00184491
-0.00178525
-0.00170356
-0.00158065
-0.00138651
-0.00107385
-0.000594458
-3.81832e-05
0.0592263
-0.00175599
-0.00182576
-0.00187103
-0.00189563
-0.00190411
-0.00190075
-0.00188965
-0.0018744
-0.00185748
-0.00183964
-0.00181911
-0.00179056
-0.00174387
-0.00166292
-0.00152371
-0.0012909
-0.000922761
-0.000440068
0.0599811
-0.00152508
-0.00160432
-0.00166195
-0.00170146
-0.00172709
-0.00174276
-0.0017523
-0.00175913
-0.00176577
-0.00177333
-0.0017808
-0.00178423
-0.00177559
-0.00174175
-0.00166352
-0.00151343
-0.00124695
-0.000812328
0.0595608
-0.0013147
-0.00140057
-0.00146713
-0.00151769
-0.00155628
-0.00158666
-0.00161254
-0.00163735
-0.00166386
-0.00169377
-0.00172712
-0.00176153
-0.00179115
-0.00180554
-0.00178942
-0.00172119
-0.00155261
-0.00116704
0.0608899
-0.00112311
-0.00121287
-0.00128507
-0.00134298
-0.00139057
-0.00143151
-0.00146949
-0.00150807
-0.00155042
-0.00159895
-0.00165488
-0.00171749
-0.00178298
-0.00184309
-0.00188487
-0.00188878
-0.00179947
-0.00145903
0.0555194
-0.000948955
-0.00103988
-0.00111452
-0.00117625
-0.00122902
-0.0012765
-0.0013224
-0.00137046
-0.00142426
-0.00148702
-0.00156119
-0.00164773
-0.00174475
-0.00184536
-0.00193596
-0.00199032
-0.00193047
-0.00156273
0.0218955
-0.000791157
-0.000880437
-0.000954361
-0.00101649
-0.00107082
-0.00112099
-0.00117074
-0.00122394
-0.00128456
-0.00135661
-0.00144385
-0.0015492
-0.00167302
-0.0018101
-0.00194535
-0.00204065
-0.0019829
-0.00153531
0.0206747
-0.000648753
-0.000733409
-0.000803475
-0.000862751
-0.000915247
-0.000964523
-0.00101422
-0.00106826
-0.0011309
-0.00120687
-0.00130132
-0.00141969
-0.00156582
-0.00173884
-0.00192707
-0.00208671
-0.00207915
-0.0016241
0.0305498
-0.000520735
-0.000597535
-0.000660644
-0.000714038
-0.000761625
-0.000806743
-0.0008528
-0.000903562
-0.000963377
-0.00103746
-0.0011323
-0.00125636
-0.00141854
-0.00162632
-0.00187996
-0.00214348
-0.00227713
-0.00189698
0.0311886
-0.000405962
-0.000471411
-0.000524549
-0.000569332
-0.000609342
-0.000647487
-0.000686723
-0.000730411
-0.000782629
-0.000848653
-0.000935917
-0.00105546
-0.00122193
-0.00145492
-0.00177383
-0.00220386
-0.00260199
-0.00238258
0.0310807
-0.000303404
-0.000353733
-0.000394011
-0.00042782
-0.000458056
-0.000486939
-0.000516725
-0.000550042
-0.000590227
-0.00064188
-0.000712201
-0.000813015
-0.000962604
-0.00119155
-0.00155676
-0.00218249
-0.00304378
-0.003111
0.0307797
-0.000210814
-0.000241729
-0.000266788
-0.000287898
-0.000306816
-0.000324832
-0.000343268
-0.000363719
-0.000388277
-0.000419988
-0.000463949
-0.000529243
-0.000632209
-0.00080566
-0.00111653
-0.00168783
-0.00326431
-0.00417781
0.0295544
-0.000108163
-0.000121318
-0.000131996
-0.000140958
-0.000148711
-0.00015559
-0.00016198
-0.000168372
-0.000175451
-0.000184282
-0.00019683
-0.000217332
-0.000255625
-0.000334859
-0.000433247
-0.000864741
-0.00255969
-0.00544033
0.00355598
)
;

boundaryField
{
    leftWall
    {
        type            fixedFluxPressure;
        gradient        uniform 0;
        value           nonuniform List<scalar> 
50
(
728.928
728.847
728.66
728.358
727.938
727.396
726.739
725.96
724.703
640.519
112.354
1.9746
2.09904
3.2833
2.19549
0.0424593
0.0376121
0.0332936
0.0295036
0.0262646
0.0235807
0.0214165
0.0196337
0.0180425
0.0165088
0.0150408
0.0135534
0.0119559
0.0104239
0.00915517
0.00797151
0.00687897
0.00589729
0.00502905
0.00428026
0.00365251
0.00313569
0.00270043
0.00233091
0.00201055
0.00172233
0.00146378
0.0012358
0.00102988
0.000836037
0.000641413
0.000433093
0.000229169
0.000166044
5.74589e-05
)
;
    }
    rightWall
    {
        type            fixedFluxPressure;
        gradient        uniform 0;
        value           nonuniform List<scalar> 
50
(
739.801
739.904
740.992
740.353
739.372
738.014
737.684
736.917
727.824
718.248
251.18
1.16551
1.19525
1.35354
1.04518
0.261523
0.0367304
0.0341451
0.0372317
0.091989
0.089669
0.0445842
0.0116625
0.0124312
0.0310202
0.0496146
0.0501271
0.0508704
0.051066
0.0523478
0.0438686
0.00113116
-3.68773e-05
0.000502771
0.00105429
0.0206597
0.0580577
0.0592263
0.0599811
0.0595608
0.0608899
0.0555194
0.0218955
0.0206747
0.0305498
0.0311886
0.0310807
0.0307797
0.0295544
0.00355598
)
;
    }
    lowerWall
    {
        type            fixedFluxPressure;
        gradient        uniform 0;
        value           nonuniform List<scalar> 
62
(
728.928
729.351
730.267
731.665
733.493
735.723
738.319
741.245
744.457
747.905
751.541
755.297
759.103
762.873
766.51
769.891
772.915
775.49
777.216
779.738
781.97
783.513
784.115
784.115
784.224
784.601
784.9
785.409
786.089
786.953
788.154
794.925
795.435
795.441
795
785.91
786.022
787.111
787.915
788.41
789.069
789.986
791.03
785.91
785.421
784.139
782.088
779.543
776.639
773.537
770.423
767.153
763.329
759.245
754.918
751.259
749.776
749.93
746.979
742.178
739.26
739.801
)
;
    }
    atmosphere
    {
        type            totalPressure;
        rho             rho;
        psi             none;
        gamma           1;
        p0              uniform 0;
        value           nonuniform List<scalar> 
46
(
-3.61889e-05
0
0
0
0
0
0
0
0
0
0
0
0
0
0
0
0
0
-6.4992e-07
-3.006e-06
-7.77961e-06
-1.42775e-05
-2.16309e-05
-2.70965e-05
-3.06416e-05
-3.4123e-05
-3.75147e-05
-4.30766e-05
-4.9916e-05
-5.56805e-05
-6.02501e-05
-6.35691e-05
-6.56289e-05
-6.64579e-05
-6.61142e-05
-6.46818e-05
-6.227e-05
-5.90131e-05
-5.50665e-05
-5.05833e-05
-4.56327e-05
-3.99667e-05
-3.23366e-05
-1.93229e-05
-5.42933e-08
0
)
;
    }
    defaultFaces
    {
        type            empty;
    }
}


// ************************************************************************* //
