/*--------------------------------*- C++ -*----------------------------------*\
  =========                 |
  \\      /  F ield         | OpenFOAM: The Open Source CFD Toolbox
   \\    /   O peration     | Website:  https://openfoam.org
    \\  /    A nd           | Version:  9
     \\/     M anipulation  |
\*---------------------------------------------------------------------------*/
FoamFile
{
    format      ascii;
    class       surfaceScalarField;
    location    "0.6";
    object      phi;
}
// * * * * * * * * * * * * * * * * * * * * * * * * * * * * * * * * * * * * * //

dimensions      [0 3 -1 0 0 0 0];

internalField   nonuniform List<scalar> 
1300
(
11.2529
1.87548
-9.73169
11.2529
-8.73253
1.87548
-8.80215
8.80215
-3.17848
3.17848
5.76581
5.48705
-7.42561
7.42561
-7.31905
7.31905
-6.50206
6.50206
-1.11187
1.11187
-1.09762
1.09762
1.13168
-1.13168
-6.70934
6.70934
-4.4299
4.4299
-8.13721
8.13721
7.06088
-7.06088
-7.29504
7.29504
-1.70228
1.70228
-3.67763
14.9305
7.57523
7.57523
-5.86563
5.86563
-1.34483
1.34483
1.52997
-1.52997
15.7308
-15.7308
-5.99907
-6.52957
2.44154
-15.7182
-6.29099
-6.29099
-2.72046
2.72046
-0.84498
1.0305
6.75125
-6.75125
-1.64122
1.64122
-8.90014
0.0979835
-8.90014
8.71855
0.0836033
8.71855
-3.57451
0.396031
-3.57451
8.48969
-8.48969
2.77374
0.40474
2.77374
6.7516
-6.7516
-5.67893
11.4447
5.57393
-5.16338
20.0939
-6.08948
11.5765
-6.21074
6.21074
-7.5785
0.152885
-7.5785
7.50012
-0.0745053
7.50012
-7.12824
7.12824
-7.3095
-0.00955198
-7.3095
7.25016
0.0688891
7.25016
6.89019
-6.89019
-6.56954
0.0674847
-6.56954
6.48106
0.0209943
6.48106
0.721323
1.15415
-2.5968
3.6273
-1.15415
0.0422806
1.08595
0.0259194
1.08595
-1.08154
-0.0160793
-1.08154
1.12384
-0.0262268
1.12384
1.26527
-0.133598
1.26527
-1.06399
-0.0676854
-1.06399
-6.54603
-6.70331
-6.85253
0.143181
-6.85253
-4.46502
0.035112
-4.46502
4.35056
0.0793436
4.35056
-4.59308
4.59308
-8.40563
0.268418
-8.40563
6.69311
0.367775
6.69311
5.07971
6.17315
16.3326
-16.3326
9.27168
-7.3045
0.00945791
-7.3045
-7.29773
-8.43302
7.29773
-0.00269204
-1.99252
0.290245
-1.99252
6.98327
0.591959
6.98327
6.23576
0.2453
-6.23576
0.370131
7.68312
-7.68312
4.12339
1.74224
4.12339
-1.25222
1.25222
1.1939
-0.0700579
-1.1939
-0.150926
1.50646
0.0235162
1.50646
-1.51741
-0.0125582
-1.51741
6.67901
-13.2086
-6.66826
6.48915
0.220198
-6.48915
0.198156
6.80639
-0.0551366
6.80639
-6.68015
6.68015
-6.73354
-0.0177167
-6.73354
-1.46375
-0.177473
-1.46375
1.88179
-0.240574
1.88179
-8.81013
-0.0900082
-8.81013
-8.61003
0.204403
8.61003
0.108519
2.78448
-2.78448
-3.86312
0.288605
-3.86312
-8.62137
-0.18876
8.62137
-0.131677
-8.40964
-0.080051
-8.40964
-6.7783
0.0447655
6.7783
-0.026705
6.70595
0.277323
-6.70595
-0.0456464
-5.35773
11.5309
-5.89513
11.4691
-5.81517
-0.395571
-5.81517
6.58867
-0.377932
6.58867
8.0429
0.0943084
-8.0429
0.464406
7.37766
0.122451
7.37766
-7.00889
-0.119352
-7.00889
7.19574
-0.0675013
7.19574
7.31404
0.0636221
-7.31404
0.00454517
7.39509
-0.144926
7.39509
6.9776
-0.0874067
6.9776
-6.76813
-0.122064
-6.76813
6.69846
-6.69846
6.53837
0.160089
-6.53837
-0.0311723
-4.90368
4.89112
-0.00514029
-4.89854
1.08081
1.08081
1.39451
-0.129237
1.39451
-1.01336
-0.0506336
-1.01336
6.65144
-13.3197
6.60981
-13.1558
6.68838
-22.4066
6.70904
-13.4123
7.14187
-7.14187
6.9719
0.169963
-6.9719
0.119379
-4.34627
-0.118742
-4.34627
-4.17003
-0.423049
-4.17003
5.1253
-0.532217
5.1253
-6.80034
6.80034
-6.71451
-0.0858272
6.71451
-0.0214035
7.30027
0.0948134
-7.30027
-0.00422724
2.38677
0.386973
-2.38677
0.394249
7.83555
-0.152427
7.83555
-7.30734
-0.375778
-7.30734
-4.21425
-0.132027
4.21425
-0.0908574
-1.35443
0.10221
-1.35443
-4.92551
0.0269677
-4.89959
-1.49045
-1.49045
1.23001
4.85731
-6.78676
0.0186313
6.78676
0.0196284
6.66308
0.137257
-6.66308
-0.0170651
-6.70464
0.00617649
6.70464
-0.0244892
-1.33803
-0.125717
-1.33803
-2.31356
2.31356
-2.10687
-0.206697
2.10687
-0.225072
3.0763
-0.291814
3.0763
4.18606
0.164497
-4.18606
0.322945
-8.14981
-0.259834
-8.14981
6.69402
-0.105348
6.69402
-7.09372
-0.213623
7.09372
-0.11612
-0.00312389
4.89424
-1.07769
-0.00384643
1.07769
-4.91776
4.91391
-1.25329
-0.0847387
1.25329
0.141218
1.0971
0.155125
-1.0971
0.083738
7.11824
0.0775068
-7.11824
-0.0236317
-3.84908
-0.320953
-3.84908
-5.50816
-0.307002
5.50816
-0.382865
-4.93039
-0.0932474
5.02363
-4.95661
1.44768
0.0587787
-1.44768
4.97269
-2.5138
-0.270681
2.5138
-0.200239
3.34965
-0.273348
3.34965
8.1804
-0.344855
-8.1804
0.0305953
-6.91998
-0.0889119
6.91998
-0.225961
-3.64337
-0.205708
3.64337
-0.293724
-13.0945
13.6864
6.99941
-6.60157
-6.60701
-15.0346
4.85256
6.67832
14.1242
-13.7774
-8.62917
-13.5793
2.9034
-2.81966
-5.64946
5.51586
23.0784
-23.1585
-18.7203
18.6989
20.4897
-20.5164
5.56624
5.8785
21.3142
-21.1613
-20.2109
19.8154
20.1502
-20.1597
20.8815
-21.0009
-24.1586
24.2361
-18.1252
18.1927
-21.0698
20.9477
-21.2956
21.1795
-6.60446
-6.55138
17.6068
-17.4637
23.0973
-23.0879
-22.9065
23.1749
10.5533
3.13311
10.8306
-6.24441
11.8107
-5.33212
12.3315
6.64069
-13.2452
6.67901
-13.286
11.7357
11.3616
-11.7331
-3.30153
-18.8232
18.768
-18.5633
18.5388
25.0416
-24.9437
-5.95183
11.8303
-5.51723
12.1956
-11.0227
-7.6976
10.6549
3.4693
10.724
6.88279
-10.9442
-2.63501
-24.024
23.6791
-24.7078
24.332
-0.179144
2.41946
-2.24032
1.16568
-0.42692
2.84639
2.47648
2.42585
2.41084
-2.25571
0.408829
-2.64915
-2.80008
-8.45682
8.74542
8.45429
-8.04955
17.5212
5.55721
17.3895
-16.7318
-6.42666
-16.9916
12.2739
6.42499
12.1881
12.8915
7.59817
12.9363
9.70224
-9.8243
0.122054
-9.97329
19.6755
2.00603
-17.6709
-14.2016
13.7266
7.58757
13.6521
-14.5236
-6.63764
-14.0592
-11.9026
-8.30837
-12.2096
12.8886
6.92675
12.5107
-15.3983
15.1723
13.1473
7.00286
13.2162
-13.2294
-6.93031
-13.2249
20.6462
-5.52765
-15.1186
-13.4952
-10.6634
13.5627
7.31882
14.6774
9.55863
14.6538
7.15288
13.4933
-14.4717
3.80835
-12.0056
-6.11963
-12.0368
11.5957
6.59702
11.6167
-13.3048
-7.76494
-13.2862
-13.2806
-8.015
13.368
7.57971
-13.4874
-11.2204
13.701
7.47849
6.20563
-14.8348
7.20671
-13.7581
-12.2367
-5.22692
-12.1174
8.13121
5.29628
-13.4275
-5.11395
21.7015
-10.3399
18.4
-14.3415
-8.74642
-14.3457
-18.0381
-4.86844
-17.8337
-9.909
9.58805
-10.7089
10.1767
20.9143
-11.9512
-8.96311
-12.5808
-7.93563
12.6264
-1.79577
-11.8479
11.97
-0.0372917
12.2942
15.4273
13.6316
-12.1691
-6.39418
-12.1862
12.11
6.42886
12.1161
18.1874
6.85426
18.271
-18.6099
-6.33374
-18.6999
7.87656
-8.05403
9.38373
-9.51576
15.991
8.34104
-15.8385
-8.18546
19.1552
-9.53631
-9.61888
-5.74742
7.49447
-1.74705
-2.90104
-1.73535
-0.0330759
-2.6382
-3.01125
2.70589
-0.280041
7.21443
4.20317
-2.33419
2.4364
2.68944
2.61938
-0.180694
4.2444
-4.32914
16.0944
-8.93882
-7.15561
15.4012
-15.59
-3.2987
-16.2159
12.9172
1.79953
5.75155
-5.4613
-6.67551
-1.78131
-6.35256
5.26192
3.19237
5.64889
3.03936
5.70606
-9.53344
1.94746
7.58598
-6.49408
-6.10209
-11.0332
-4.27066
15.3038
17.05
6.62911
-17.0806
0.0889733
8.66237
-8.58303
-1.89432
-9.13885
7.24438
-9.1387
-11.3434
-5.6507
16.9941
-10.5909
-1.59531
10.4536
1.73448
-11.9875
-6.83568
12.0052
0.931073
-9.82899
19.6995
-9.87053
-16.2232
8.24625
11.4293
14.6712
-15.3245
7.73454
7.58992
-3.89518
11.6113
2.04075
11.7338
-18.3729
11.7352
15.6323
7.5426
-15.7267
1.66743
-16.7054
18.9879
-16.7633
-2.22464
9.84897
9.13897
10.5772
10.3371
-7.03066
17.6079
-2.36862
-14.3947
19.0741
-11.5315
11.4343
-22.9657
-21.7713
7.37665
-13.7311
16.8855
-3.15439
-4.81088
-10.5874
18.542
-1.81791
-16.7241
10.6928
-10.5243
-10.8753
21.3996
-16.052
17.8056
-5.17752
-12.6281
-12.9539
-8.04699
13.0428
2.12954
-19.7289
23.5372
-6.23554
11.4156
1.80059
11.2707
7.74293
-11.8934
4.15047
8.30903
-13.4865
5.03347
-16.9269
-9.72065
19.0488
-9.32818
-14.9476
-13.46
-1.48753
4.13705
19.4002
-13.6957
10.7536
2.94204
10.3428
1.7733
-10.5029
-1.53385
1.22934
14.3588
-15.5882
12.846
13.0913
11.3464
3.01245
12.1464
6.62162
-12.166
-1.12018
-12.7366
4.72161
-5.1569
-11.1439
15.8655
-12.582
1.43811
-8.57536
-11.1759
19.7513
-14.695
9.71305
9.98648
16.1419
-15.5325
4.35659
-7.7594
-7.77309
8.22544
-13.3823
5.96191
9.90362
13.4404
2.21999
9.53762
9.51122
-14.8339
1.07581
16.394
-13.759
3.25372
11.4001
-14.0074
0.547319
-11.57
2.25652
-12.5964
-11.171
13.2932
-18.1616
-9.67256
16.5095
1.76148
-16.618
-1.21566
-6.79041
-3.11859
-6.99612
-3.67317
-7.03574
-10.7038
-2.12926
-8.57456
7.45878
-8.08168
-4.12788
8.46454
1.71214
-7.79332
7.52264
-8.05714
7.78379
0.413991
11.556
14.0456
6.10993
-7.66083
13.7708
-12.8671
19.7214
-23.4381
10.571
12.4113
-18.7451
-11.0268
4.85181
3.02475
4.61124
11.5927
-12.7277
1.13504
-11.9118
14.7678
-2.85596
-18.6717
6.75985
-7.07896
8.69397
0.689757
8.57523
2.37286
7.40718
-9.78004
-7.1429
-7.23375
-6.99149
-10.7456
17.7371
3.65769
-10.3882
6.73047
-10.8135
14.4711
-0.204347
-10.1838
16.5125
-9.10527
17.2022
-11.0178
6.18441
10.0499
17.1753
-7.12539
13.5934
-5.25241
5.3376
-12.463
-5.40798
-9.55626
16.1533
-10.195
11.6331
-0.565081
12.1982
-12.9479
3.41155
-1.60146
11.4899
11.86
13.0081
-9.99565
9.07377
-14.3262
-3.38922
-12.1062
-2.20256
0.688522
-10.8175
10.129
10.6084
-9.91988
-3.85563
9.98765
-6.13202
7.79098
-4.02071
-3.77027
-3.23768
-4.81635
3.3634
0.881001
8.67198
0.906621
-4.92733
-3.42252
-3.2813
8.72336
7.37107
-6.6399
4.89285
6.67297
-0.921426
1.62942
4.01947
6.43367
-4.80425
1.04758
5.38609
-4.41372
6.46917
2.1932
-6.63367
0.281102
-3.93988
11.1843
3.6461
-6.83847
2.03422
2.14377
-11.0826
15.0417
-8.23335
-6.80834
17.1855
2.83574
-11.0691
13.3802
-11.5806
6.53804
-10.8087
-4.53105
-16.1117
-10.5545
-7.8732
14.6037
-9.86387
16.493
3.26024
-16.582
19.8422
-11.0044
5.35372
-9.67845
11.8717
-3.46673
-6.21172
8.73891
8.25521
-8.8313
-0.307558
-0.0923828
7.45094
-7.54332
-1.68776
-8.18184
-14.5161
15.4472
-6.85281
14.5873
6.91795
-6.17715
20.7645
5.88601
-12.0632
-10.3372
-11.9325
-4.47325
10.198
-1.71537
-11.5095
-14.3434
11.4459
0.287893
-18.2228
20.4679
-2.24512
-10.6352
-1.10005
10.949
-14.8834
1.39682
-9.8499
10.618
12.6587
12.9466
-16.527
-0.197144
-9.60021
2.43555
-12.0358
11.5745
-5.52344
12.9001
-13.7966
9.66868
-12.0844
10.6754
-1.36031
10.9033
-6.7528
4.21527
-12.2623
-10.1327
14.0875
-7.08465
15.8881
-8.0794
23.9675
-14.3149
14.0081
9.95938
-2.74726
-11.5984
-13.7752
11.0279
0.232925
11.5036
15.6122
-8.9906
14.492
6.65524
-14.4146
-6.72711
-20.5014
6.08672
-10.5149
-5.89962
11.9863
10.2423
12.0156
4.21325
-10.4817
13.2973
-14.7848
-3.9691
-7.20187
13.5567
-2.52872
7.78619
-14.9881
-4.81024
10.0573
-0.538992
-9.51832
1.89384
-11.5664
4.73431
-16.3007
13.4273
-14.6429
2.57282
-9.65178
-5.22051
-5.42075
-2.61931
-5.43783
-8.55285
5.93354
-1.793
5.72965
-10.4491
9.9101
-4.31868
10.2522
-5.95951
-1.03661
6.25323
1.53056
11.7828
1.87559
-12.9024
-7.17859
12.0797
-4.90109
1.54477
-8.94196
3.13773
6.6049
10.5806
-19.5221
0.777042
-12.1253
-5.03697
8.06171
4.95068
15.5591
2.83134
8.52468
-0.462971
11.356
4.14827
3.9232
-8.45937
9.59442
1.66965
12.2407
-2.67308
8.85748
5.90215
5.93726
2.64577
7.20774
4.65225
10.6193
0.839259
-6.39449
3.07216
-6.35346
-1.85518
-6.48269
-0.966835
4.85984
-5.82668
9.48091
-2.10984
4.57982
-1.78867
-6.15177
7.94044
-8.94428
-7.07319
-1.6871
-5.59258
7.62679
5.59169
-5.93969
-3.00459
1.41736
-11.9718
9.39134
-9.6989
-1.44369
18.3985
-8.54587
1.00255
-3.19215
-7.17929
-8.9606
8.6795
19.6745
1.09003
9.80395
16.5372
9.70154
0.710939
8.76535
-11.9197
-8.16153
-12.1169
-0.542371
10.4066
3.78017
15.62
13.7395
11.2108
-3.77723
-18.562
15.458
-5.86358
12.602
-3.08371
-13.217
12.9932
6.7281
-14.7547
0.111789
-13.1052
-18.9688
-0.52758
10.4377
-11.2552
10.2186
7.1
1.47457
-4.1986
-1.22214
4.4053
-0.482102
10.8739
-0.176671
-9.09995
9.27662
-4.68317
2.828
-1.05284
5.94569
6.8876
4.77776
-4.32219
-10.1489
-6.63609
-4.4465
-13.4444
1.85941
-7.45109
6.87354
-4.04554
3.10327
5.23108
9.8109
-1.52436
-8.39552
7.65638
-4.5531
5.25779
)
;

boundaryField
{
    wall-4
    {
        type            calculated;
        value           uniform 0;
    }
    velocity-inlet-5
    {
        type            calculated;
        value           uniform -11.2529;
    }
    velocity-inlet-6
    {
        type            calculated;
        value           uniform -1.87548;
    }
    pressure-outlet-7
    {
        type            calculated;
        value           nonuniform List<scalar> 8(9.73169 8.73253 12.5286 13.2767 13.2493 13.3473 13.2613 13.3974);
    }
    wall-8
    {
        type            calculated;
        value           uniform 0;
    }
    frontAndBackPlanes
    {
        type            empty;
        value           nonuniform List<scalar> 0();
    }
}


// ************************************************************************* //
