/*--------------------------------*- C++ -*----------------------------------*\
  =========                 |
  \\      /  F ield         | OpenFOAM: The Open Source CFD Toolbox
   \\    /   O peration     | Website:  https://openfoam.org
    \\  /    A nd           | Version:  9
     \\/     M anipulation  |
\*---------------------------------------------------------------------------*/
FoamFile
{
    format      ascii;
    class       volScalarField;
    location    "6";
    object      p;
}
// * * * * * * * * * * * * * * * * * * * * * * * * * * * * * * * * * * * * * //

dimensions      [0 2 -2 0 0 0 0];

internalField   nonuniform List<scalar> 
918
(
23.9578
24.1537
1.05188
23.3696
1.02405
23.6701
3.85123
14.4015
19.7288
3.34104
2.96022
14.9411
21.2131
17.4543
13.5766
1.03878
14.6885
2.61623
18.9414
1.38961
13.6078
20.9363
22.0254
19.7734
14.6881
14.9188
19.1754
1.27272
0.115503
0.339703
0.965623
0.450078
0.240212
22.207
22.8837
22.822
16.0006
10.7682
4.23157
4.46976
3.55375
3.32577
14.441
14.546
6.56361
14.3774
14.3696
17.1361
19.5964
19.7395
20.0355
19.8231
20.21
6.11246
3.21683
3.04012
3.34969
3.41557
3.17465
3.07384
3.08474
2.82874
2.67491
14.449
15.0249
15.0803
14.8215
14.7747
23.0297
22.2728
22.6075
21.7139
21.8593
20.7892
20.4036
17.83
18.1826
17.0559
16.6748
13.3543
13.2988
13.8138
14.054
0.154921
1.21204
1.3627
14.6937
14.7245
14.7307
14.7402
8.56656
2.60904
2.62292
18.382
17.9581
20.9652
21.232
20.6789
20.4933
1.57922
1.64929
1.18255
1.19863
0.975989
13.9249
14.0833
19.7247
18.8922
14.7181
14.6182
14.6838
12.0898
14.4838
14.567
15.9016
16.3534
15.5354
15.9782
18.7454
18.3274
19.612
20.0492
0.441104
0.16752
0.814203
0.434452
0.642448
15.8717
15.673
16.0973
16.163
16.3915
10.7691
10.6863
10.7504
10.6693
4.84133
5.16306
2.71457
3.07194
2.89044
10.2129
14.5662
14.6092
5.51639
6.21513
5.8764
7.04673
7.43243
16.5051
16.939
16.6795
18.2214
17.4274
17.7752
20.2972
19.7876
20.0875
6.51512
6.79628
5.75843
5.41392
2.64614
2.90931
2.83242
3.43996
3.41924
3.4126
3.56557
2.90394
2.75823
3.34622
3.19503
3.27057
2.48673
2.32869
14.1902
13.9866
14.7073
14.8849
15.6057
15.4699
15.1942
15.3526
19.5987
20.0022
20.0356
19.6515
12.0062
10.4756
14.3147
14.5845
0.314585
0.269256
0.149139
0.421557
0.400509
0.171023
2.15349
1.96396
1.54564
1.80997
14.6885
14.6511
8.80679
9.03093
8.39648
8.13046
16.794
16.945
17.5797
17.1788
2.18975
1.8305
2.00611
14.257
14.115
14.2361
11.5446
10.9897
12.5693
12.8591
14.6281
14.6371
14.645
16.2596
16.5778
20.4001
20.6707
20.4976
20.8834
21.9462
21.5975
21.2127
15.0857
15.4719
15.3218
16.6079
16.2448
16.462
15.6917
15.9839
15.8447
10.713
10.7593
10.4747
10.5532
10.6096
10.5546
10.1405
10.012
14.6998
14.6471
14.678
7.943
8.42072
5.04508
4.73055
13.1476
13.7974
13.4745
19.2284
18.5508
19.2837
18.9129
18.4629
18.7864
10.7677
10.7187
10.7585
15.4986
14.8433
15.191
2.62087
2.23761
2.40764
9.23116
9.32737
7.17652
7.83171
7.49304
16.879
17.2194
17.8995
17.0114
17.4789
17.9861
17.7642
10.2926
10.4294
10.3433
9.99117
9.87905
10.3533
8.97981
9.57384
3.82107
4.45224
4.15754
9.49682
9.74735
9.58981
19.1191
19.6535
0.804867
1.26573
20.0787
19.8016
0.198635
0.352424
14.8323
13.0673
7.94718
17.677
17.1241
19.4558
3.54584
6.29005
3.1178
3.5738
2.83301
15.1272
14.7962
13.9045
0.499794
1.34728
1.75397
3.28276
18.8995
18.2254
19.338
19.6593
19.7128
0.707305
0.946057
0.591449
1.35221
1.09394
1.31368
16.0595
16.1293
4.91921
19.3439
19.6471
19.6655
18.1383
19.0925
18.1499
1.03778
0.735228
0.82051
10.7083
12.7058
14.7969
14.344
14.5464
14.5683
14.3193
15.45
15.1305
15.0847
15.5651
14.5644
14.4163
8.38948
7.06963
8.76306
8.42741
17.579
17.1666
16.9871
16.7347
18.5707
18.096
18.9469
18.3332
18.795
19.0827
3.43229
3.56627
3.4141
2.97173
6.37192
6.85457
5.71518
5.80126
4.45833
2.83857
2.87415
3.08376
3.01318
3.23385
2.86681
3.15666
2.80779
2.47453
2.46416
3.19999
2.93746
2.86737
15.0982
15.066
14.8525
14.8914
14.8919
15.0164
14.0952
14.4941
14.151
12.9849
13.5609
13.12
0.819584
0.682528
0.567067
1.43099
1.48171
1.18002
0.906026
1.23653
1.1951
0.918536
1.61932
1.62016
3.61549
3.10421
9.13469
8.25265
7.23045
17.2935
18.0929
17.2635
18.4994
18.9163
19.023
18.6442
18.1363
16.2047
16.2036
15.8675
15.8257
5.35645
4.28818
5.59383
5.22136
10.8609
14.6826
12.4376
11.4102
11.7113
13.9316
14.5122
14.151
14.3656
13.884
13.3601
14.1097
13.6094
13.7231
13.4489
16.296
16.7706
16.3771
15.7973
15.8178
10.9599
12.3579
6.17021
6.3046
7.83947
7.22165
14.1004
14.5153
14.5129
14.1483
14.3494
14.3441
14.1473
14.2959
14.4368
14.3551
12.2159
10.7743
9.70763
9.67848
14.6928
12.7672
13.3745
12.8656
16.5969
17.1166
16.7296
16.1464
16.6261
16.1038
16.1176
16.3173
17.6864
17.4333
17.2077
17.5946
3.52264
3.45767
4.09349
3.59963
3.49206
3.21891
3.90962
5.13318
4.79496
7.01167
7.55222
4.98098
3.9524
4.24358
5.24152
5.89237
5.90026
4.26667
4.70547
5.1455
4.68111
5.40738
4.93732
3.05058
3.33498
3.23326
3.22048
3.60638
4.09096
3.62367
2.72547
2.89248
2.61113
2.45656
3.82714
3.43436
3.45079
3.9932
1.2838
1.47029
1.5865
2.60053
2.0926
2.17093
15.6807
15.3379
15.4697
14.7466
14.8374
14.7929
14.3919
15.7511
15.4779
15.5806
14.2603
14.3608
14.1664
14.4459
14.852
15.132
15.9444
15.663
14.9432
15.0992
14.7549
14.6788
14.0168
13.5016
13.4117
1.19193
0.881434
1.05941
1.01499
0.692217
0.873792
2.30979
1.72438
2.11861
1.84367
2.07797
1.53223
1.41524
4.74043
5.54136
4.51605
3.88617
3.57597
9.1872
9.30944
8.42936
8.14507
8.47122
8.71277
8.65866
7.36102
7.81693
7.63273
10.2684
9.91473
18.0747
18.0198
17.6927
17.5334
17.7577
6.35265
8.06862
7.37139
8.39492
10.5671
10.8858
9.60654
9.00625
9.76252
9.80591
14.6436
14.7336
14.1978
14.6284
14.6598
12.4093
13.3552
13.9568
13.7495
14.3294
14.4181
13.5934
14.1074
13.9679
13.2904
13.3122
12.7263
12.997
12.5503
12.3744
14.6008
14.4854
14.7564
14.3108
14.6591
14.2442
14.5287
14.6004
14.8495
13.9536
13.3697
13.3821
13.7874
13.5342
13.8647
14.0221
9.61698
10.2416
10.7278
11.2892
11.0006
10.7626
10.6135
10.9439
10.9356
11.1977
11.1143
10.9417
11.894
14.0011
14.2779
14.4368
14.1894
14.1994
13.9052
14.2016
14.1248
14.5238
14.6073
14.6677
13.5935
13.8343
14.0282
13.9199
12.0344
10.556
10.3696
10.0148
8.21441
8.62263
11.4673
10.4097
9.47665
9.56688
12.7371
11.3812
12.1782
12.5264
11.2362
10.8904
13.45
14.287
14.4839
14.1509
12.5217
12.6228
13.0703
13.522
13.7172
14.2168
16.361
16.9251
17.0056
16.7328
16.5926
16.6856
16.4292
16.5355
17.0118
17.1343
16.9641
3.29173
3.39092
3.37597
3.29216
3.56267
3.40133
4.39894
4.39821
3.567
3.73725
3.76195
3.81803
3.38778
3.39207
5.09528
5.34644
5.61788
5.1626
6.50405
7.06105
7.61269
7.34775
6.10291
6.13809
6.43115
3.81757
3.76619
3.54367
3.95991
4.048
2.90457
2.56538
2.35533
2.87191
2.98424
2.31483
1.97382
2.05929
2.50685
2.34302
2.07692
15.4878
15.2636
15.2716
15.0588
15.1153
15.4972
15.7092
15.5131
15.6423
15.6971
15.3156
15.2002
15.3748
1.93105
1.61683
1.74613
1.79786
1.75215
1.68049
1.83126
7.89464
6.74299
7.1375
6.36985
4.65416
5.13343
9.90119
10.302
10.3472
10.0345
9.8295
10.1638
10.054
10.0471
8.55307
9.60932
9.15356
9.55942
9.60388
9.66993
9.36293
9.43236
10.9278
10.9808
9.8131
10.46
9.76664
8.46497
8.63279
9.51948
10.4368
10.7484
10.6028
10.2825
10.0674
10.4781
10.4957
10.6012
10.5882
9.06809
9.02611
8.63033
14.5227
14.5061
14.6399
14.5865
14.7462
14.5463
14.3594
14.6395
14.7175
14.4914
11.4614
11.5344
11.8036
12.6119
12.6889
12.412
11.6911
13.5591
13.1662
13.9238
13.8599
13.8673
13.4578
13.2481
13.5844
10.5958
11.9364
11.4699
11.757
10.6242
9.90649
13.7181
13.7607
13.8762
14.1792
14.0966
14.6704
16.3279
16.1945
16.2471
16.2919
15.8985
15.9317
4.47325
4.16715
4.88114
4.85371
4.429
4.13807
2.44468
2.18217
1.99641
1.86677
2.04264
2.14068
8.50472
8.48771
6.71523
7.68182
6.37173
5.42707
5.31763
6.39158
7.51628
7.60651
8.77317
9.46514
9.04146
8.87888
8.21155
8.53008
10.4679
10.5645
10.4634
10.7799
10.332
12.1368
11.7047
12.0757
13.758
13.4381
12.7936
12.6716
12.7013
13.3292
12.348
11.588
12.2732
12.9652
12.9333
11.5083
11.2486
11.6958
11.63
10.5342
11.0743
10.827
11.1789
10.8608
)
;

boundaryField
{
    wall-4
    {
        type            zeroGradient;
    }
    velocity-inlet-5
    {
        type            zeroGradient;
    }
    velocity-inlet-6
    {
        type            zeroGradient;
    }
    pressure-outlet-7
    {
        type            fixedValue;
        value           uniform 0;
    }
    wall-8
    {
        type            zeroGradient;
    }
    frontAndBackPlanes
    {
        type            empty;
    }
}


// ************************************************************************* //
