/*--------------------------------*- C++ -*----------------------------------*\
  =========                 |
  \\      /  F ield         | OpenFOAM: The Open Source CFD Toolbox
   \\    /   O peration     | Website:  https://openfoam.org
    \\  /    A nd           | Version:  9
     \\/     M anipulation  |
\*---------------------------------------------------------------------------*/
FoamFile
{
    format      ascii;
    class       volScalarField;
    location    "6.19";
    object      k;
}
// * * * * * * * * * * * * * * * * * * * * * * * * * * * * * * * * * * * * * //

dimensions      [0 2 -2 0 0 0 0];

internalField   nonuniform List<scalar> 
2268
(
0.000192578
0.000470812
0.000687465
0.000855286
0.000992134
0.00110694
0.00120506
0.00128967
0.00136274
0.00142589
0.00148373
0.00153608
0.00158329
0.00162208
0.00164233
0.00162353
0.00152554
0.00135781
0.00120038
0.00107802
0.000948933
0.000757705
0.000341697
0.000411465
0.00108602
0.0015335
0.00188493
0.00217295
0.00241477
0.00262136
0.0027998
0.0029547
0.00308941
0.00320731
0.00331205
0.00340332
0.00347458
0.00350867
0.00347333
0.00332058
0.00303088
0.00272446
0.00244949
0.0021616
0.00168758
0.000771979
0.000581231
0.00144902
0.00200147
0.0024364
0.00279444
0.00309541
0.00335202
0.00357296
0.00376429
0.00393051
0.00407561
0.00420323
0.00431202
0.00439374
0.00442965
0.0043886
0.00423171
0.00394771
0.00362574
0.0033004
0.00292102
0.00231709
0.00107837
0.000725579
0.00173894
0.00236193
0.00285058
0.00325371
0.00359289
0.00388183
0.00413022
0.00434507
0.0045317
0.00469439
0.00483664
0.00495631
0.00504421
0.005082
0.00504265
0.00489747
0.00463813
0.00432878
0.00399185
0.0035752
0.00290269
0.00137528
0.00085149
0.00199398
0.0026752
0.00320542
0.0036426
0.00401032
0.00432325
0.00459194
0.00482418
0.00502593
0.00520171
0.0053549
0.00548284
0.005576
0.00561728
0.00558453
0.00545829
0.00523267
0.00494923
0.00462291
0.00420261
0.00349121
0.00169257
0.000964912
0.00222744
0.00296176
0.00352775
0.00399298
0.00438358
0.00471545
0.00499999
0.00524576
0.00545931
0.00564539
0.00580737
0.00594239
0.00604101
0.00608788
0.00606556
0.00596241
0.00577709
0.00552895
0.00522793
0.00482754
0.00410032
0.00208776
0.00106998
0.00244625
0.00323132
0.00383006
0.00431963
0.00472929
0.00507647
0.00537362
0.00563011
0.00585302
0.00604745
0.00621683
0.00635845
0.00646332
0.0065181
0.00650961
0.00643231
0.00628999
0.00608352
0.00581733
0.00544775
0.00475585
0.00266638
0.00116939
0.00265508
0.00348978
0.00411948
0.00463069
0.00505643
0.00541601
0.00572315
0.00598807
0.00621846
0.00641976
0.0065956
0.00674381
0.00685606
0.00692113
0.00692946
0.00687963
0.00677775
0.00661594
0.00638905
0.00605837
0.00547208
0.00374589
0.000309477
0.000886629
0.00119294
0.00134201
0.00142331
0.00146558
0.00149944
0.00153342
0.00154077
0.00144373
0.00126183
0.00105614
0.000857544
0.000860861
0.00106855
0.00102549
0.000765637
0.000527275
0.000327549
0.000623011
0.00187242
0.00248315
0.00281214
0.00299015
0.00308451
0.00314002
0.00316896
0.00312972
0.00294309
0.00261215
0.00226102
0.0019302
0.00188707
0.00214438
0.00201465
0.00157779
0.00110744
0.000516958
0.000885662
0.00239402
0.00316615
0.00357588
0.00379268
0.00390436
0.0039621
0.00397782
0.00390909
0.00369007
0.00334575
0.0029719
0.00262549
0.00253524
0.00267082
0.00247996
0.00197935
0.00138057
0.000603033
0.00117605
0.00286934
0.00371576
0.00415408
0.00438085
0.00449279
0.00454276
0.00454204
0.00445101
0.00421657
0.0038723
0.00350394
0.0031668
0.00303896
0.00306447
0.00282021
0.00227594
0.001562
0.000655323
0.00149368
0.00337471
0.00423286
0.004663
0.00488029
0.00498142
0.00501733
0.00499865
0.00489012
0.00464895
0.00430925
0.00395522
0.00363262
0.00347583
0.00340889
0.00311567
0.00252648
0.00171223
0.000713293
0.00190908
0.00393094
0.00474568
0.00513953
0.00533332
0.00541589
0.00543346
0.00539604
0.0052734
0.00503097
0.00470149
0.00436439
0.00405851
0.00387543
0.00372875
0.00338633
0.00274991
0.00186672
0.000771227
0.00256965
0.00454874
0.00526119
0.00559767
0.00575847
0.00581737
0.00581376
0.00575721
0.00562314
0.0053834
0.00507148
0.00475292
0.00446135
0.00424448
0.00403103
0.00363585
0.00295233
0.00203974
0.000833826
0.00370983
0.0052228
0.00577572
0.00604235
0.00616491
0.00619722
0.00617079
0.006095
0.00595163
0.00571815
0.00542821
0.00512992
0.00484305
0.00458409
0.00431404
0.00386647
0.00314217
0.00223035
0.000907688
0.00131833
0.00297159
0.00388309
0.00455928
0.00510055
0.00554715
0.00592201
0.00624111
0.00651621
0.00675582
0.0069658
0.00714928
0.00730615
0.00742978
0.00751255
0.0075498
0.00754422
0.00750167
0.00740828
0.00723647
0.00695966
0.00653667
0.00580219
0.00150297
0.00337046
0.00439054
0.0051287
0.00570018
0.00616428
0.00655046
0.00687847
0.00716242
0.00741152
0.00763198
0.00782747
0.00799952
0.00814448
0.00825837
0.00833935
0.00838838
0.00840245
0.0083641
0.00825361
0.00806094
0.00779962
0.00747751
0.00170149
0.00377116
0.00493605
0.00573377
0.00630021
0.00676045
0.00714396
0.0074709
0.00775719
0.00801225
0.00824229
0.00845192
0.00864242
0.00881216
0.00895963
0.00908451
0.00918427
0.00924195
0.00923441
0.00917476
0.0090505
0.00888735
0.00871615
0.00187535
0.00415339
0.00562486
0.00645693
0.00690654
0.00734878
0.00771541
0.00802872
0.00830933
0.00856667
0.00880566
0.00903117
0.00924219
0.00943719
0.00961616
0.00978156
0.00993268
0.0100284
0.0100222
0.0100125
0.00993996
0.00983262
0.00971745
0.00206108
0.00451358
0.00622156
0.00691925
0.00737661
0.00788019
0.00822348
0.00851876
0.00879451
0.00906183
0.00931906
0.00956555
0.00979687
0.00999143
0.0101703
0.0103468
0.0105032
0.010581
0.0106117
0.0106528
0.010608
0.0105611
0.010484
0.00233578
0.00480194
0.00624868
0.00711917
0.00771042
0.00842684
0.00870574
0.00895046
0.00921079
0.00947477
0.00974151
0.00999688
0.0102372
0.0104456
0.0106497
0.0108503
0.0110048
0.0110601
0.0110995
0.0111775
0.0111554
0.0111012
0.0110481
0.00224068
0.00477019
0.0062419
0.0071024
0.00774254
0.00838045
0.00879568
0.00915801
0.00947565
0.00977563
0.0100667
0.0103442
0.0106033
0.0108229
0.0110069
0.0111732
0.0113027
0.0113812
0.0114387
0.0114826
0.011491
0.0114978
0.011444
0.00240982
0.0046411
0.0060337
0.0069665
0.0077025
0.00832946
0.00883181
0.00926195
0.00964372
0.00999749
0.0103278
0.0106336
0.0109059
0.011121
0.011288
0.0114425
0.0115716
0.0116654
0.0117275
0.0117685
0.011789
0.0117963
0.0117401
0.00241312
0.00462138
0.00598775
0.00695965
0.00772975
0.00837432
0.00891484
0.00938158
0.00979815
0.0101789
0.010526
0.0108386
0.0111092
0.0113302
0.0115155
0.0116853
0.0118239
0.0119185
0.0119815
0.0120249
0.012051
0.0120451
0.0120181
0.00240941
0.00466468
0.00602997
0.0070091
0.00779117
0.00844886
0.00901212
0.00950331
0.00994044
0.0103344
0.010688
0.0110013
0.0112736
0.0115077
0.0117167
0.0119052
0.0120512
0.0121494
0.0122196
0.0122691
0.0122944
0.0122889
0.0122712
0.00240971
0.00473633
0.00610174
0.00708063
0.00786677
0.00853225
0.00910934
0.00961666
0.0100675
0.0104706
0.0108301
0.0111477
0.0114272
0.0116756
0.0119001
0.012098
0.0122526
0.0123636
0.0124459
0.0125034
0.0125323
0.0125327
0.0125173
0.00241311
0.00481439
0.00618332
0.00716164
0.00794977
0.00862001
0.00920536
0.00972294
0.0101835
0.0105947
0.0109613
0.0112867
0.0115761
0.0118359
0.0120698
0.0122742
0.0124402
0.0125673
0.0126636
0.0127315
0.0127695
0.0127794
0.0127687
0.00241499
0.00489265
0.00626799
0.00724746
0.00803765
0.00871147
0.00930215
0.00982653
0.0102946
0.0107134
0.011088
0.0114227
0.0117226
0.0119926
0.0122347
0.0124468
0.0126252
0.012769
0.0128805
0.0129612
0.0130114
0.013033
0.0130309
0.00241108
0.00496998
0.00635321
0.0073357
0.00812878
0.00880611
0.00940115
0.009931
0.0104057
0.0108321
0.0112156
0.0115605
0.0118712
0.0121516
0.0124032
0.0126254
0.0128168
0.0129765
0.013104
0.0131997
0.0132642
0.0132997
0.0133094
0.00241341
0.00504408
0.00643758
0.00742465
0.00822178
0.00890328
0.00950296
0.0100384
0.0105199
0.0109546
0.0113477
0.0117037
0.0120263
0.0123184
0.0125817
0.0128162
0.0130213
0.0131966
0.0133406
0.0134529
0.0135338
0.0135855
0.0136099
0.00241434
0.00511811
0.0065204
0.00751331
0.0083156
0.00900239
0.00960775
0.0101497
0.0106391
0.0110832
0.0114873
0.0118555
0.0121912
0.0124969
0.012774
0.013023
0.0132435
0.0134349
0.0135963
0.0137267
0.0138263
0.0138963
0.0139377
0.00243413
0.00518787
0.0065999
0.00760087
0.00840999
0.0091033
0.00971568
0.0102657
0.0107646
0.0112196
0.0116362
0.0120183
0.0123688
0.0126901
0.0129835
0.0132492
0.0134872
0.0136966
0.0138769
0.0140273
0.0141473
0.0142374
0.0142979
0.00246794
0.00525031
0.00667625
0.00768693
0.00850443
0.00920597
0.00982711
0.010387
0.0108971
0.011365
0.011796
0.0121939
0.0125615
0.0129007
0.0132127
0.0134978
0.0137558
0.0139859
0.0141876
0.01436
0.0145025
0.0146148
0.0146966
0.00249984
0.00530906
0.0067497
0.00777135
0.00859879
0.00931034
0.00994221
0.010514
0.0110375
0.0115205
0.0119682
0.0123842
0.0127713
0.0131311
0.0134646
0.013772
0.0140531
0.014307
0.0145329
0.0147301
0.0148976
0.0150346
0.0151401
0.00252946
0.0053644
0.00682034
0.00785415
0.00869311
0.00941655
0.0100613
0.0106473
0.0111866
0.0116871
0.012154
0.012591
0.0130004
0.0133838
0.0137421
0.0140753
0.0143829
0.0146642
0.0149179
0.0151432
0.0153389
0.0155035
0.0156357
0.00255664
0.00541656
0.00688829
0.00793542
0.00878752
0.00952483
0.0101846
0.0107873
0.0113451
0.0118659
0.0123549
0.0128159
0.013251
0.0136616
0.0140484
0.0144113
0.0147496
0.0150624
0.0153481
0.0156056
0.0158332
0.0160293
0.016192
0.00258148
0.00546567
0.0069537
0.00801536
0.00888227
0.00963549
0.0103127
0.0109347
0.0115137
0.0120579
0.0125725
0.013061
0.0135256
0.0139675
0.0143872
0.0147844
0.0151582
0.0155073
0.0158301
0.0161245
0.016389
0.0166211
0.0168187
0.00260442
0.00551168
0.00701668
0.00809417
0.00897766
0.00974893
0.0104461
0.0110901
0.0116936
0.0122645
0.0128083
0.0133284
0.013827
0.014305
0.0147628
0.0151997
0.0156146
0.0160058
0.0163713
0.0167087
0.0170156
0.0172893
0.017527
0.0026246
0.00555445
0.00707738
0.00817214
0.00907406
0.00986563
0.0105854
0.0112545
0.0118857
0.0124872
0.0130645
0.0136208
0.0141584
0.014678
0.0151798
0.0156627
0.0161254
0.0165656
0.0169808
0.017368
0.0177243
0.0180462
0.0183303
0.00264129
0.00559419
0.00713611
0.00824964
0.0091719
0.00998612
0.0107312
0.0114286
0.0120913
0.0127276
0.013343
0.0139409
0.0145233
0.015091
0.0156436
0.0161801
0.0166984
0.0171958
0.0176691
0.0181144
0.0185281
0.018906
0.0192439
0.00265539
0.00563152
0.00719332
0.00832705
0.00927161
0.0101109
0.0108843
0.0116135
0.0123117
0.0129874
0.0136462
0.0142916
0.0149256
0.0155487
0.0161605
0.0167593
0.0173426
0.0179069
0.018448
0.0189614
0.0194422
0.0198853
0.0202856
0.00266781
0.00566702
0.00724937
0.0084047
0.00937352
0.0102405
0.0110453
0.01181
0.0125481
0.0132683
0.0139764
0.0146761
0.0153693
0.0160565
0.016737
0.0174085
0.0180679
0.0187107
0.0193316
0.0199249
0.0204843
0.0210034
0.021476
0.00267891
0.0057009
0.0073044
0.00848267
0.00947779
0.0103751
0.0112146
0.0120188
0.0128015
0.0135718
0.0143357
0.0150973
0.0158585
0.0166199
0.0173802
0.0181369
0.0188856
0.0196209
0.0203359
0.0210232
0.0216749
0.0222827
0.0228392
0.00268867
0.00573292
0.00735814
0.00856077
0.0095843
0.0105147
0.0113924
0.0122402
0.0130726
0.013899
0.014726
0.015558
0.0163972
0.0172443
0.0180977
0.0189541
0.0198082
0.0206528
0.0214792
0.0222776
0.0230378
0.0237495
0.024403
0.00269639
0.00576216
0.00740993
0.00863846
0.0096925
0.0106588
0.0115783
0.0124742
0.0133616
0.0142506
0.0151486
0.0160604
0.016989
0.017935
0.0188969
0.0198705
0.020849
0.0218234
0.0227821
0.0237124
0.0246009
0.025434
0.0261999
0.00269967
0.0057869
0.00745761
0.00871368
0.00980094
0.0108064
0.0117715
0.0127202
0.0136681
0.0146266
0.0156039
0.016606
0.0176365
0.0186967
0.019785
0.0208963
0.0220225
0.0231515
0.0242683
0.0253559
0.0263963
0.0273719
0.0282677
0.00269941
0.00580128
0.00749767
0.00878443
0.00990811
0.0109562
0.0119708
0.0129768
0.013991
0.0150259
0.0160913
0.0171947
0.018341
0.0195324
0.0207678
0.0220414
0.023343
0.0246573
0.0259641
0.0272405
0.028462
0.0296054
0.0306511
0.00269228
0.00580288
0.00752763
0.00884842
0.010012
0.0111063
0.0121744
0.0132421
0.0143278
0.0154459
0.0166081
0.0178242
0.0191011
0.0204428
0.021849
0.0233137
0.0248247
0.026362
0.0278991
0.029404
0.030843
0.0321845
0.0334033
0.00267636
0.00579017
0.00754483
0.00890301
0.0101102
0.0112545
0.0123796
0.013513
0.0146749
0.0158823
0.0171495
0.0184894
0.0199122
0.0214245
0.0230282
0.024718
0.0264793
0.0282872
0.0301056
0.0318903
0.0335932
0.0351702
0.0365883
0.00264964
0.00576007
0.00754575
0.00894522
0.0102003
0.0113982
0.0125836
0.0137857
0.0150273
0.0163285
0.0177076
0.0191814
0.0207647
0.0224688
0.0242992
0.0262528
0.0283141
0.0304522
0.0326189
0.034751
0.0367788
0.038638
0.0402849
0.00260707
0.00570492
0.00752496
0.00897186
0.0102802
0.0115355
0.0127834
0.0140555
0.0153782
0.0167756
0.0182708
0.0198863
0.0216429
0.0235588
0.0256461
0.0279069
0.0303273
0.0328712
0.0354747
0.0380472
0.0404826
0.0426838
0.0445915
0.00253829
0.00561148
0.00747534
0.00898053
0.0103494
0.0116653
0.0129759
0.0143168
0.0157189
0.0172115
0.0188235
0.0205842
0.0225229
0.0246672
0.02704
0.0296536
0.0325013
0.0355457
0.0387059
0.0418509
0.0448128
0.0474333
0.0496335
0.0024301
0.00546469
0.00739151
0.00897218
0.01041
0.0117878
0.0131583
0.0145631
0.016039
0.0176213
0.0193456
0.0212493
0.0233718
0.0257536
0.0284334
0.0314421
0.0347905
0.0384513
0.0423316
0.0462463
0.0499177
0.053059
0.0555729
0.00242144
0.0052656
0.00727683
0.00895395
0.0104674
0.011904
0.0133266
0.0147859
0.0163257
0.0179873
0.0198133
0.0218495
0.0241471
0.0267624
0.0297562
0.0331879
0.0371037
0.0415111
0.0463316
0.0513253
0.0560201
0.0598094
0.0626207
0.00394888
0.00519428
0.00715323
0.00893759
0.0105277
0.012013
0.0134746
0.0149747
0.016564
0.0182895
0.0201997
0.0223486
0.0247989
0.0276248
0.0309129
0.0347627
0.0392789
0.0445493
0.0505823
0.0571548
0.0635052
0.0680629
0.0710446
0.0180967
0.00648283
0.00703874
0.00892057
0.010588
0.0121067
0.0135906
0.0151155
0.0167376
0.0185075
0.0204781
0.0227096
0.0252748
0.0282634
0.0317883
0.0359931
0.0410603
0.0472158
0.054703
0.0636225
0.0731926
0.0784109
0.0811495
0.0840439
0.0142174
0.00712336
0.00890086
0.0106315
0.0121657
0.0136572
0.0151925
0.0168304
0.0186229
0.020625
0.0229006
0.025528
0.0286065
0.0322663
0.0366832
0.0421066
0.0489126
0.0577239
0.0696984
0.0872771
0.0916863
0.0931543
0.00408552
0.00353753
0.00348964
0.00387913
0.00718598
0.00704357
0.00698833
0.007022
0.00859635
0.00852533
0.00846941
0.00843122
0.00961739
0.00955216
0.00949221
0.00943775
0.0104004
0.0103446
0.0102854
0.0102161
0.0109675
0.0109241
0.0108786
0.0108144
0.0114021
0.0113777
0.0113202
0.0112406
0.011705
0.011665
0.0116159
0.0115572
0.0120038
0.011976
0.0119273
0.0118671
0.0122554
0.0122336
0.012195
0.012144
0.0124964
0.0124754
0.0124442
0.0124031
0.012747
0.012727
0.0126999
0.0126653
0.0130127
0.0129955
0.0129721
0.0129425
0.0132983
0.0132855
0.0132667
0.0132421
0.0136084
0.0136014
0.0135883
0.0135691
0.0139475
0.0139475
0.013941
0.0139282
0.0143208
0.0143288
0.01433
0.0143242
0.0147341
0.0147511
0.0147609
0.0147634
0.0151941
0.0152214
0.015241
0.0152528
0.0157085
0.0157474
0.0157782
0.0158008
0.0162861
0.0163383
0.016382
0.016417
0.0169372
0.0170046
0.0170631
0.0171124
0.0176737
0.0177587
0.0178342
0.0179
0.0185095
0.0186147
0.0187098
0.0187945
0.0194605
0.019589
0.0197067
0.019813
0.0205454
0.0207007
0.0208443
0.0209755
0.0217856
0.0219718
0.0221449
0.0223045
0.023206
0.0234275
0.0236345
0.0238263
0.0248353
0.0250972
0.0253424
0.0255705
0.0267071
0.0270145
0.0273028
0.0275713
0.0288599
0.0292186
0.0295548
0.029868
0.0313391
0.0317549
0.0321439
0.0325055
0.0341984
0.0346771
0.0351231
0.0355363
0.0375018
0.0380485
0.0385547
0.039021
0.0413269
0.041945
0.0425126
0.0430311
0.0457685
0.0464584
0.0470843
0.0476498
0.0509439
0.0516992
0.0523738
0.0529742
0.0569975
0.0578003
0.0585023
0.0591149
0.0641051
0.0649161
0.0656058
0.0661927
0.0724674
0.0732128
0.0738241
0.0743282
0.0822778
0.0828362
0.0832736
0.0836214
0.0936276
0.0938426
0.0940014
0.0941228
0.00545504
0.00619426
0.00653102
0.00670018
0.00676692
0.00676019
0.00669975
0.00659495
0.00643913
0.00622185
0.00596386
0.0056928
0.00539657
0.00507059
0.00471793
0.00419774
0.00343851
0.0025315
0.00107331
0.00718621
0.00737834
0.00749766
0.00755059
0.00754412
0.00748515
0.00738165
0.00724099
0.00706593
0.00685126
0.00659881
0.0063196
0.00599151
0.00560841
0.00517345
0.0046033
0.00384799
0.00291865
0.00132815
0.00839187
0.00838639
0.00838358
0.00835247
0.00828622
0.00818232
0.00804203
0.00787148
0.00767091
0.00744165
0.00717782
0.00687956
0.00652083
0.00609715
0.00560686
0.00501126
0.00426608
0.0032988
0.00154133
0.00935059
0.00926251
0.00919748
0.00910352
0.00899141
0.00885146
0.00867681
0.0084812
0.00826086
0.00801316
0.00773171
0.00741143
0.00701685
0.0065521
0.00602127
0.00540141
0.00464512
0.00361699
0.00178707
0.0100931
0.00995809
0.00985335
0.00973919
0.00963286
0.00947959
0.0092683
0.00905376
0.00882195
0.00854298
0.00820846
0.00784312
0.00745219
0.0069667
0.00637596
0.00572846
0.00495309
0.0038701
0.00188758
0.0106982
0.0105881
0.0104767
0.0103169
0.0101521
0.00997813
0.00977846
0.00957136
0.00933074
0.00902647
0.0086291
0.008203
0.00776363
0.00723958
0.00665009
0.00599989
0.00520438
0.00407066
0.00193459
0.0111198
0.0110109
0.0109337
0.0108108
0.0106333
0.0104533
0.0102296
0.00999227
0.00971116
0.00937753
0.00896964
0.0085084
0.00800053
0.00744841
0.00685331
0.00620622
0.0054071
0.00426043
0.00202055
0.0114589
0.0113376
0.0112344
0.0111067
0.0109312
0.0107279
0.0104991
0.0102341
0.00991609
0.00956543
0.00917648
0.00873455
0.00820966
0.00763011
0.00698703
0.00629749
0.00550107
0.00441391
0.00213511
0.0117663
0.0116275
0.0114899
0.0113339
0.0111414
0.0109194
0.0106807
0.0103901
0.0100425
0.00966761
0.0092661
0.00882707
0.00833223
0.00775709
0.00707057
0.00631811
0.00547395
0.00438357
0.00217808
0.0120503
0.0119073
0.0117592
0.0115934
0.0113894
0.011144
0.0108752
0.0105535
0.0101837
0.00977725
0.00933266
0.00885166
0.00834677
0.00777467
0.00708231
0.00628046
0.00536627
0.00421379
0.00209676
0.0123232
0.0121882
0.0120408
0.0118708
0.0116564
0.0113908
0.0110933
0.0107536
0.0103649
0.00992649
0.00943856
0.00890044
0.00832481
0.00769729
0.00698817
0.00617335
0.00521166
0.00398434
0.0019528
0.0125973
0.0124745
0.0123291
0.0121533
0.0119295
0.0116534
0.0113427
0.0109917
0.0105844
0.0101213
0.0096016
0.00901766
0.00836777
0.00765544
0.00687837
0.00602743
0.0050388
0.0037631
0.00195142
0.012884
0.0127725
0.01263
0.0124492
0.0122191
0.0119397
0.0116226
0.0112613
0.0108423
0.0103642
0.00982304
0.00920855
0.00851345
0.00773942
0.00688934
0.0059677
0.00493442
0.00363457
0.00194809
0.0131918
0.0130902
0.0129526
0.0127714
0.0125399
0.01226
0.0119379
0.0115687
0.0111424
0.0106549
0.0101002
0.00946827
0.00875188
0.00794944
0.00706006
0.00608311
0.00498804
0.00364178
0.00189774
0.0135274
0.0134352
0.0133042
0.013127
0.0128984
0.0126201
0.0122955
0.011921
0.0114893
0.0109952
0.0104321
0.00979143
0.00906669
0.00825484
0.00735227
0.0063498
0.00521157
0.00380692
0.0019345
0.013896
0.0138143
0.0136913
0.0135208
0.0132983
0.0130242
0.0126999
0.0123229
0.0118876
0.0113889
0.0108205
0.0101753
0.00944711
0.008632
0.00772422
0.00670851
0.00553942
0.00407596
0.00195415
0.0143031
0.0142339
0.014121
0.0139593
0.013745
0.0134774
0.0131561
0.0127791
0.0123422
0.0118406
0.0112688
0.0106206
0.00988994
0.00907145
0.00815669
0.00712576
0.00592565
0.00440234
0.00204636
0.0147551
0.0147009
0.0146006
0.0144502
0.014246
0.0139865
0.0136704
0.0132956
0.0128587
0.0123556
0.0117814
0.0111304
0.0103965
0.00957257
0.0086467
0.00759326
0.00634916
0.00473845
0.00223854
0.0152593
0.0152231
0.0151385
0.0150017
0.0148095
0.0145597
0.0142504
0.0138795
0.013444
0.0129402
0.0123637
0.0117093
0.0109707
0.0101391
0.00919966
0.00812125
0.00683181
0.00513481
0.00246499
0.0158245
0.0158097
0.0157437
0.0156231
0.0154449
0.0152065
0.0149056
0.0145398
0.0141064
0.013602
0.0130226
0.0123633
0.0116177
0.0107763
0.00982231
0.00872205
0.00739997
0.00564725
0.0027421
0.0164605
0.0164707
0.0164267
0.0163253
0.0161632
0.0159379
0.0156466
0.0152868
0.0148558
0.0143503
0.0137665
0.0130998
0.0123439
0.011489
0.0105181
0.00939695
0.00805027
0.00625772
0.00305778
0.017179
0.0172182
0.0171998
0.0171205
0.0169771
0.0167666
0.0164862
0.016133
0.0157042
0.0151964
0.014606
0.0139283
0.0131571
0.0122828
0.011288
0.0101387
0.00875849
0.00691478
0.00339639
0.017993
0.0180657
0.018077
0.0180232
0.017901
0.0177073
0.017439
0.0170929
0.0166658
0.0161542
0.0155541
0.0148608
0.0140677
0.0131649
0.0121349
0.0109404
0.00950287
0.00756474
0.00377714
0.018918
0.0190292
0.0190743
0.0190496
0.0189516
0.0187768
0.0185218
0.0181831
0.0177571
0.0172397
0.0166264
0.0159119
0.015089
0.0141463
0.0130663
0.0118111
0.0102905
0.00821238
0.00412729
0.0199716
0.0201268
0.0202104
0.0202187
0.0201478
0.0199941
0.0197538
0.019423
0.0189973
0.0184721
0.0178417
0.0170997
0.0162384
0.0152452
0.0141
0.0127606
0.0111247
0.00886117
0.00440671
0.021174
0.0213791
0.0215063
0.0215515
0.021511
0.0213808
0.0211567
0.0208343
0.0204084
0.0198732
0.0192222
0.0184474
0.017539
0.0164826
0.0152543
0.0138062
0.0120222
0.00953227
0.00464147
0.0225485
0.0228098
0.0229856
0.023072
0.0230651
0.0229608
0.0227546
0.0224414
0.0220152
0.0214688
0.0207939
0.0199806
0.0190163
0.0178837
0.0165546
0.0149742
0.0130131
0.0102656
0.00490117
0.0241215
0.0244455
0.0246752
0.0248068
0.0248366
0.0247608
0.0245744
0.0242717
0.0238455
0.023287
0.0225857
0.0217289
0.0207006
0.0194796
0.0180326
0.0162979
0.0141334
0.011101
0.00522874
0.0259231
0.0263164
0.0266049
0.0267854
0.0268549
0.0268098
0.0266452
0.0263547
0.0259295
0.0253591
0.0246301
0.0237262
0.0226273
0.021307
0.0197261
0.0178155
0.0154211
0.0120715
0.00563809
0.0279875
0.0284562
0.0288077
0.0290402
0.0291517
0.0291395
0.0289987
0.0287223
0.0283003
0.0277196
0.0269634
0.0260112
0.0248372
0.0234087
0.0216793
0.019571
0.0169163
0.0132059
0.00612387
0.0303536
0.0309027
0.0313202
0.0316065
0.0317615
0.0317836
0.0316686
0.031409
0.0309933
0.0304059
0.0296258
0.0286272
0.0273773
0.025835
0.0239443
0.0216158
0.0186649
0.014536
0.00668308
0.0330655
0.0336984
0.0341829
0.0345229
0.0347213
0.0347784
0.034691
0.0344513
0.0340467
0.0334584
0.0326612
0.0316224
0.0303009
0.0286444
0.0265836
0.0240133
0.0207258
0.0161077
0.00733266
0.0361739
0.0368909
0.0374405
0.0378317
0.0380714
0.0381628
0.0381042
0.0378882
0.0375008
0.0369204
0.0361168
0.0350501
0.0336682
0.0319049
0.0296725
0.026843
0.0231771
0.0179901
0.00812719
0.0397368
0.0405338
0.0411423
0.0415786
0.0418551
0.0419784
0.0419492
0.0417607
0.0413981
0.0408372
0.0400429
0.0389672
0.0375458
0.0356945
0.0333011
0.0302047
0.026121
0.0202747
0.00912314
0.0438208
0.0446871
0.045343
0.0458141
0.0461194
0.0462702
0.0462696
0.0461123
0.0457831
0.045256
0.0444915
0.0434338
0.0420054
0.0401008
0.0375756
0.0342222
0.0296893
0.0230774
0.0103619
0.048502
0.0494181
0.0501027
0.050593
0.0509157
0.0510869
0.0511127
0.0509894
0.0507026
0.0502252
0.0495153
0.0485103
0.0471206
0.0452177
0.0426178
0.0390486
0.0340566
0.0265588
0.0119036
0.0538665
0.0548011
0.0554874
0.0559758
0.0563005
0.0564823
0.0565302
0.0564424
0.0562058
0.0557945
0.0551659
0.0542546
0.0529621
0.0511395
0.0485603
0.044869
0.0394597
0.030961
0.0138621
0.0600092
0.0609165
0.0615689
0.0620289
0.062337
0.0625171
0.0625804
0.062527
0.0623462
0.0620148
0.0614933
0.0607185
0.0595905
0.0579494
0.055533
0.0518948
0.0462186
0.0366656
0.0164282
0.0670305
0.0678493
0.0684245
0.0688261
0.0690966
0.0692608
0.0693305
0.0693074
0.0691836
0.0689408
0.0685461
0.067945
0.0670478
0.0657013
0.0636338
0.060332
0.0547422
0.0443014
0.0199914
0.0750289
0.0756865
0.0761378
0.0764501
0.0766622
0.0767954
0.0768605
0.0768599
0.0767889
0.0766349
0.0763748
0.0759694
0.0753513
0.0743993
0.0728796
0.0702962
0.0654574
0.0548951
0.0253447
0.0840906
0.0845144
0.0847999
0.0849967
0.0851318
0.0852198
0.085268
0.0852785
0.0852493
0.085174
0.0850403
0.0848274
0.0844987
0.0839862
0.0831497
0.0816528
0.078511
0.0698619
0.0337869
0.0942819
0.0944216
0.0945149
0.0945795
0.0946245
0.0946551
0.0946735
0.0946808
0.0946766
0.0946595
0.0946267
0.0945735
0.0944922
0.0943696
0.0941786
0.0938452
0.0930644
0.0897253
0.0471047
)
;

boundaryField
{
    leftWall
    {
        type            kqRWallFunction;
        value           nonuniform List<scalar> 
50
(
0.000192578
0.000411465
0.000581231
0.000725579
0.00085149
0.000964912
0.00106998
0.00116939
0.00131833
0.00150297
0.00170149
0.00187535
0.00206108
0.00233578
0.00224068
0.00240982
0.00241312
0.00240941
0.00240971
0.00241311
0.00241499
0.00241108
0.00241341
0.00241434
0.00243413
0.00246794
0.00249984
0.00252946
0.00255664
0.00258148
0.00260442
0.0026246
0.00264129
0.00265539
0.00266781
0.00267891
0.00268867
0.00269639
0.00269967
0.00269941
0.00269228
0.00267636
0.00264964
0.00260707
0.00253829
0.0024301
0.00242144
0.00394888
0.0180967
0.0840439
)
;
    }
    rightWall
    {
        type            kqRWallFunction;
        value           nonuniform List<scalar> 
50
(
0.000327549
0.000516958
0.000603033
0.000655323
0.000713293
0.000771227
0.000833826
0.000907688
0.00107331
0.00132815
0.00154133
0.00178707
0.00188758
0.00193459
0.00202055
0.00213511
0.00217808
0.00209676
0.0019528
0.00195142
0.00194809
0.00189774
0.0019345
0.00195415
0.00204636
0.00223854
0.00246499
0.0027421
0.00305778
0.00339639
0.00377714
0.00412729
0.00440671
0.00464147
0.00490117
0.00522874
0.00563809
0.00612387
0.00668308
0.00733266
0.00812719
0.00912314
0.0103619
0.0119036
0.0138621
0.0164282
0.0199914
0.0253447
0.0337869
0.0471047
)
;
    }
    lowerWall
    {
        type            kqRWallFunction;
        value           nonuniform List<scalar> 
62
(
0.000192578
0.000470812
0.000687465
0.000855286
0.000992134
0.00110694
0.00120506
0.00128967
0.00136274
0.00142589
0.00148373
0.00153608
0.00158329
0.00162208
0.00164233
0.00162353
0.00152554
0.00135781
0.00120038
0.00107802
0.000948933
0.000757705
0.000341697
0.000341697
0.000771979
0.00107837
0.00137528
0.00169257
0.00208776
0.00266638
0.00374589
0.00408552
0.00353753
0.00348964
0.00387913
0.000309477
0.000623011
0.000885662
0.00117605
0.00149368
0.00190908
0.00256965
0.00370983
0.000309477
0.000886629
0.00119294
0.00134201
0.00142331
0.00146558
0.00149944
0.00153342
0.00154077
0.00144373
0.00126183
0.00105614
0.000857544
0.000860861
0.00106855
0.00102549
0.000765637
0.000527275
0.000327549
)
;
    }
    atmosphere
    {
        type            inletOutlet;
        inletValue      uniform 0.1;
        value           nonuniform List<scalar> 
46
(
0.1
0.0142174
0.00712336
0.00890086
0.0106315
0.0121657
0.0136572
0.0151925
0.0168304
0.0186229
0.020625
0.0229006
0.025528
0.0286065
0.0322663
0.0366832
0.0421066
0.0489126
0.0577239
0.0696984
0.1
0.1
0.1
0.1
0.1
0.1
0.1
0.1
0.1
0.1
0.1
0.1
0.1
0.1
0.1
0.1
0.1
0.1
0.1
0.1
0.1
0.1
0.1
0.1
0.1
0.0471047
)
;
    }
    defaultFaces
    {
        type            empty;
    }
}


// ************************************************************************* //
