# vtk DataFile Version 2.0
track0
ASCII
DATASET POLYDATA
POINTS 12065 float
-0.0205 0.001 1e-05
-0.02052 0.000999985 1e-05
-0.02054 0.000999974 1e-05
-0.02056 0.000999965 1e-05
-0.02058 0.000999959 1e-05
-0.0206 0.000999956 1e-05
-0.0205 0.00367778 1e-05
-0.02052 0.00367778 1e-05
-0.02054 0.00367777 1e-05
-0.02056 0.00367777 1e-05
-0.02058 0.00367777 1e-05
-0.0206 0.00367777 1e-05
-0.0205 0.00635556 1e-05
-0.02052 0.00635555 1e-05
-0.02054 0.00635555 1e-05
-0.02056 0.00635555 1e-05
-0.02058 0.00635555 1e-05
-0.0206 0.00635555 1e-05
-0.0205 0.00903333 1e-05
-0.02052 0.00903333 1e-05
-0.02054 0.00903333 1e-05
-0.02056 0.00903333 1e-05
-0.02058 0.00903333 1e-05
-0.0206 0.00903333 1e-05
-0.0205 0.0117111 1e-05
-0.02052 0.0117111 1e-05
-0.02054 0.0117111 1e-05
-0.02056 0.0117111 1e-05
-0.02058 0.0117111 1e-05
-0.0206 0.0117111 1e-05
-0.0205 0.0143889 1e-05
-0.02052 0.0143889 1e-05
-0.02054 0.0143889 1e-05
-0.02056 0.0143889 1e-05
-0.02058 0.0143889 1e-05
-0.0206 0.0143889 1e-05
-0.0205 0.0170667 1e-05
-0.02052 0.0170667 1e-05
-0.02054 0.0170667 1e-05
-0.02056 0.0170667 1e-05
-0.02058 0.0170667 1e-05
-0.0206 0.0170667 1e-05
-0.0205 0.0197444 1e-05
-0.02052 0.0197444 1e-05
-0.02054 0.0197444 1e-05
-0.02056 0.0197444 1e-05
-0.02058 0.0197444 1e-05
-0.0206 0.0197444 1e-05
-0.0205 0.0224222 1e-05
-0.02052 0.0224222 1e-05
-0.02054 0.0224222 1e-05
-0.02056 0.0224222 1e-05
-0.02058 0.0224222 1e-05
-0.0206 0.0224222 1e-05
-0.0205 0.0251 1e-05
-0.02052 0.0250998 1e-05
-0.02054 0.0250997 1e-05
-0.02056 0.0250995 1e-05
-0.02058 0.0250995 1e-05
-0.0206 0.0250994 1e-05
-0.0205 0.001 1e-05
-0.0202034 0.00100022 1e-05
-0.0199069 0.00100067 1e-05
-0.0196103 0.00100132 1e-05
-0.0193137 0.00100219 1e-05
-0.0190172 0.00100326 1e-05
-0.0187132 0.00100466 1e-05
-0.0184093 0.00100588 1e-05
-0.0181054 0.0010071 1e-05
-0.0178015 0.00100832 1e-05
-0.0174976 0.00100953 1e-05
-0.0172058 0.00101083 1e-05
-0.016914 0.00101193 1e-05
-0.0166222 0.00101303 1e-05
-0.0163305 0.00101413 1e-05
-0.0160387 0.00101523 1e-05
-0.0157586 0.00101636 1e-05
-0.0154784 0.00101745 1e-05
-0.0151983 0.00101856 1e-05
-0.0149182 0.00101972 1e-05
-0.0146381 0.00102091 1e-05
-0.0143748 0.00102209 1e-05
-0.0141115 0.00102327 1e-05
-0.0138482 0.00102449 1e-05
-0.0135849 0.00102574 1e-05
-0.0133625 0.00102682 1e-05
-0.0133487 0.00102689 1e-05
-0.0133349 0.00102695 1e-05
-0.0133211 0.00102702 1e-05
-0.0133073 0.00102709 1e-05
-0.0132934 0.00102716 1e-05
-0.0130353 0.00102845 1e-05
-0.0127771 0.00102975 1e-05
-0.0125189 0.00103107 1e-05
-0.0122607 0.00103241 1e-05
-0.0120025 0.00103376 1e-05
-0.0117547 0.00103507 1e-05
-0.0115068 0.00103638 1e-05
-0.0112589 0.00103771 1e-05
-0.0110111 0.00103903 1e-05
-0.0107632 0.00104036 1e-05
-0.0105252 0.00104164 1e-05
-0.0102873 0.00104292 1e-05
-0.0100493 0.0010442 1e-05
-0.00981133 0.00104548 1e-05
-0.00957337 0.00104676 1e-05
-0.00934491 0.00104798 1e-05
-0.00911645 0.0010492 1e-05
-0.00888799 0.00105042 1e-05
-0.00865954 0.00105164 1e-05
-0.00843108 0.00105286 1e-05
-0.00821175 0.00105402 1e-05
-0.00799242 0.00105517 1e-05
-0.00777309 0.00105633 1e-05
-0.00755376 0.00105748 1e-05
-0.00733443 0.00105863 1e-05
-0.00712387 0.00105972 1e-05
-0.0069133 0.00106082 1e-05
-0.00670273 0.00106191 1e-05
-0.00649216 0.00106299 1e-05
-0.0062816 0.00106407 1e-05
-0.00607944 0.0010651 1e-05
-0.00587729 0.00106613 1e-05
-0.00567514 0.00106716 1e-05
-0.00547298 0.00106818 1e-05
-0.00527083 0.00106919 1e-05
-0.00507675 0.00107016 1e-05
-0.00488267 0.00107113 1e-05
-0.0046886 0.0010721 1e-05
-0.00449452 0.00107306 1e-05
-0.00430044 0.00107402 1e-05
-0.00411412 0.00107493 1e-05
-0.0039278 0.00107585 1e-05
-0.00374147 0.00107676 1e-05
-0.00355515 0.00107767 1e-05
-0.00336883 0.00107858 1e-05
-0.00318995 0.00107944 1e-05
-0.00301107 0.0010803 1e-05
-0.00283219 0.00108117 1e-05
-0.00265331 0.00108203 1e-05
-0.00247443 0.0010829 1e-05
-0.0023027 0.00108372 1e-05
-0.00213097 0.00108455 1e-05
-0.00195924 0.00108537 1e-05
-0.0017875 0.0010862 1e-05
-0.00161577 0.00108703 1e-05
-0.0014509 0.00108782 1e-05
-0.00128603 0.00108861 1e-05
-0.00112116 0.00108941 1e-05
-0.000956289 0.00109021 1e-05
-0.000791418 0.00109102 1e-05
-0.000633135 0.00109179 1e-05
-0.000474851 0.00109257 1e-05
-0.000316567 0.00109336 1e-05
-0.000158284 0.00109415 1e-05
0 0.00109494 1e-05
0.000105677 0.00109547 1e-05
0.000211355 0.001096 1e-05
0.000317032 0.00109653 1e-05
0.00042271 0.00109706 1e-05
0.000528387 0.00109759 1e-05
0.000634886 0.00109811 1e-05
0.000741385 0.00109864 1e-05
0.000847885 0.00109916 1e-05
0.000954384 0.00109967 1e-05
0.00106088 0.00110018 1e-05
0.00116821 0.00110069 1e-05
0.00127554 0.0011012 1e-05
0.00138286 0.00110169 1e-05
0.00149019 0.00110218 1e-05
0.00159752 0.00110266 1e-05
0.00170568 0.00110314 1e-05
0.00181384 0.00110361 1e-05
0.001922 0.00110407 1e-05
0.00203016 0.00110452 1e-05
0.00213833 0.00110496 1e-05
0.00224733 0.0011054 1e-05
0.00235633 0.00110583 1e-05
0.00246533 0.00110625 1e-05
0.00257434 0.00110666 1e-05
0.00268334 0.00110706 1e-05
0.00279319 0.00110745 1e-05
0.00290304 0.00110783 1e-05
0.00301289 0.00110821 1e-05
0.00312274 0.00110858 1e-05
0.00323259 0.00110894 1e-05
0.00334329 0.00110929 1e-05
0.003454 0.00110964 1e-05
0.0035647 0.00110998 1e-05
0.0036754 0.00111032 1e-05
0.00378611 0.00111064 1e-05
0.00389767 0.00111095 1e-05
0.00400924 0.00111126 1e-05
0.0041208 0.00111156 1e-05
0.00423237 0.00111186 1e-05
0.00434393 0.00111214 1e-05
0.00445636 0.00111241 1e-05
0.00456879 0.00111268 1e-05
0.00468123 0.00111295 1e-05
0.00479366 0.0011132 1e-05
0.00490609 0.00111345 1e-05
0.0050194 0.00111368 1e-05
0.0051327 0.00111391 1e-05
0.00524601 0.00111414 1e-05
0.00535932 0.00111435 1e-05
0.00547262 0.00111456 1e-05
0.00558681 0.00111475 1e-05
0.005701 0.00111495 1e-05
0.00581518 0.00111513 1e-05
0.00592937 0.00111531 1e-05
0.00604356 0.00111548 1e-05
0.00615863 0.00111563 1e-05
0.00627371 0.00111579 1e-05
0.00638878 0.00111593 1e-05
0.00650386 0.00111607 1e-05
0.00661893 0.0011162 1e-05
0.0067349 0.00111632 1e-05
0.00685087 0.00111643 1e-05
0.00696684 0.00111654 1e-05
0.00708281 0.00111664 1e-05
0.00719878 0.00111673 1e-05
0.00731565 0.00111681 1e-05
0.00743252 0.00111688 1e-05
0.00754939 0.00111695 1e-05
0.00766626 0.00111701 1e-05
0.00778313 0.00111706 1e-05
0.00780261 0.00111707 1e-05
0.00782209 0.00111707 1e-05
0.00784157 0.00111708 1e-05
0.00786105 0.00111709 1e-05
0.00788034 0.00111709 1e-05
0.00797868 0.00111712 1e-05
0.00807702 0.00111714 1e-05
0.00817536 0.00111716 1e-05
0.00827369 0.00111717 1e-05
0.00837203 0.00111718 1e-05
0.00849073 0.00111718 1e-05
0.00860942 0.00111717 1e-05
0.00872812 0.00111715 1e-05
0.00884682 0.00111713 1e-05
0.00896551 0.0011171 1e-05
0.00908513 0.00111705 1e-05
0.00920475 0.001117 1e-05
0.00932437 0.00111694 1e-05
0.00944398 0.00111687 1e-05
0.0095636 0.00111679 1e-05
0.00968415 0.0011167 1e-05
0.0098047 0.0011166 1e-05
0.00992525 0.0011165 1e-05
0.0100458 0.00111638 1e-05
0.0101663 0.00111626 1e-05
0.0102878 0.00111612 1e-05
0.0104093 0.00111598 1e-05
0.0105308 0.00111583 1e-05
0.0106523 0.00111567 1e-05
0.0107738 0.0011155 1e-05
0.0108962 0.00111531 1e-05
0.0110186 0.00111512 1e-05
0.0111411 0.00111492 1e-05
0.0112635 0.00111471 1e-05
0.0113859 0.0011145 1e-05
0.0115093 0.00111425 1e-05
0.0116327 0.00111402 1e-05
0.0117561 0.00111377 1e-05
0.0118795 0.00111351 1e-05
0.0120028 0.00111325 1e-05
0.0121272 0.00111296 1e-05
0.0122515 0.00111267 1e-05
0.0123759 0.00111237 1e-05
0.0125002 0.00111206 1e-05
0.0126245 0.00111175 1e-05
0.0127498 0.0011114 1e-05
0.0128752 0.00111106 1e-05
0.0130005 0.00111071 1e-05
0.0131258 0.00111035 1e-05
0.0132511 0.00110998 1e-05
0.0133774 0.00110959 1e-05
0.0135036 0.0011092 1e-05
0.0136299 0.00110879 1e-05
0.0137562 0.00110838 1e-05
0.0138825 0.00110796 1e-05
0.0140098 0.00110751 1e-05
0.014137 0.00110706 1e-05
0.0142643 0.0011066 1e-05
0.0143915 0.00110613 1e-05
0.0145188 0.00110566 1e-05
0.0146471 0.00110516 1e-05
0.0147753 0.00110465 1e-05
0.0149036 0.00110414 1e-05
0.0150318 0.00110361 1e-05
0.0151601 0.00110307 1e-05
0.0152893 0.00110252 1e-05
0.0154186 0.00110196 1e-05
0.0155478 0.00110139 1e-05
0.0156771 0.0011008 1e-05
0.0158063 0.00110021 1e-05
0.0159366 0.0010996 1e-05
0.0160668 0.00109898 1e-05
0.0161971 0.00109835 1e-05
0.0163274 0.00109771 1e-05
0.0164576 0.00109706 1e-05
0.0165889 0.0010964 1e-05
0.0167201 0.00109572 1e-05
0.0168514 0.00109503 1e-05
0.0169827 0.00109433 1e-05
0.0171139 0.00109362 1e-05
0.0172462 0.0010929 1e-05
0.0173785 0.00109217 1e-05
0.0175108 0.00109142 1e-05
0.0176431 0.00109066 1e-05
0.0177754 0.00108989 1e-05
0.0179087 0.00108911 1e-05
0.018042 0.00108832 1e-05
0.0181753 0.00108751 1e-05
0.0183087 0.00108669 1e-05
0.018442 0.00108586 1e-05
0.0185763 0.00108503 1e-05
0.0187107 0.00108418 1e-05
0.018845 0.0010833 1e-05
0.0189794 0.00108242 1e-05
0.0191137 0.00108153 1e-05
0.0192491 0.00108064 1e-05
0.0193845 0.00107973 1e-05
0.0195199 0.0010788 1e-05
0.0196553 0.00107785 1e-05
0.0197907 0.0010769 1e-05
0.0199272 0.00107596 1e-05
0.0200636 0.00107498 1e-05
0.0202001 0.00107398 1e-05
0.0203365 0.00107297 1e-05
0.020473 0.00107197 1e-05
0.0206105 0.00107096 1e-05
0.020748 0.00106993 1e-05
0.0208855 0.00106887 1e-05
0.021023 0.00106779 1e-05
0.0211606 0.00106673 1e-05
0.0212991 0.00106566 1e-05
0.0214377 0.00106457 1e-05
0.0215763 0.00106344 1e-05
0.0217149 0.00106231 1e-05
0.0218535 0.00106118 1e-05
0.0219931 0.00106005 1e-05
0.0221328 0.00105889 1e-05
0.0222724 0.00105771 1e-05
0.0224121 0.00105651 1e-05
0.0225517 0.00105532 1e-05
0.0226925 0.00105413 1e-05
0.0228332 0.00105291 1e-05
0.022974 0.00105166 1e-05
0.0231147 0.00105039 1e-05
0.0232555 0.00104914 1e-05
0.0233973 0.00104789 1e-05
0.0235391 0.0010466 1e-05
0.023681 0.00104528 1e-05
0.0238228 0.00104396 1e-05
0.0239647 0.00104264 1e-05
0.0241076 0.00104132 1e-05
0.0242505 0.00103997 1e-05
0.0243935 0.00103859 1e-05
0.0245364 0.0010372 1e-05
0.0246794 0.00103581 1e-05
0.0248234 0.00103443 1e-05
0.0249675 0.00103301 1e-05
0.0251115 0.00103156 1e-05
0.0252556 0.00103011 1e-05
[...]
POINT_DATA 12065
 FIELD attributes 3
age 1 12065 float
0 -2e-05 -4e-05 -6e-05 -8e-05 -0.0001
0 -2e-05 -4e-05 -6e-05 -8e-05 -0.0001
0 -2e-05 -4e-05 -6e-05 -8e-05 -0.0001
0 -2e-05 -4e-05 -6e-05 -8e-05 -0.0001
0 -2e-05 -4e-05 -6e-05 -8e-05 -0.0001
0 -2e-05 -4e-05 -6e-05 -8e-05 -0.0001
0 -2e-05 -4e-05 -6e-05 -8e-05 -0.0001
0 -2e-05 -4e-05 -6e-05 -8e-05 -0.0001
0 -2e-05 -4e-05 -6e-05 -8e-05 -0.0001
0 -2.00009e-05 -4.00018e-05 -6.00027e-05 -8.00036e-05 -0.000100002
0 0.000296567 0.000593135 0.000889702 0.00118627 0.00148284 0.00178676 0.00209069 0.00239461 0.00269853 0.00300245 0.00329423 0.00358601 0.00387779 0.00416957 0.00446135 0.00474147 0.00502159 0.00530171 0.00558183 0.00586196 0.00612526 0.00638857 0.00665188 0.00691519 0.00713756 0.00715137 0.00716518 0.00717899 0.0071928 0.00720661 0.0074648 0.00772298 0.00798117 0.00823935 0.00849754 0.00874541 0.00899328 0.00924116 0.00948903 0.0097369 0.00997487 0.0102128 0.0104508 0.0106888 0.0109267 0.0111552 0.0113837 0.0116121 0.0118406 0.012069 0.0122884 0.0125077 0.012727 0.0129464 0.0131657 0.0133763 0.0135868 0.0137974 0.014008 0.0142186 0.0144207 0.0146229 0.014825 0.0150272 0.0152293 0.0154234 0.0156175 0.0158116 0.0160057 0.0161997 0.0163861 0.0165724 0.0167587 0.016945 0.0171314 0.0173102 0.0174891 0.017668 0.0178469 0.0180258 0.0181975 0.0183692 0.018541 0.0187127 0.0188844 0.0190493 0.0192142 0.0193791 0.0195439 0.0197088 0.0198671 0.0200254 0.0201837 0.0203419 0.0205002 0.0206059 0.0207116 0.0208173 0.0209229 0.0210286 0.0211351 0.0212416 0.0213481 0.0214546 0.0215611 0.0216685 0.0217758 0.0218831 0.0219904 0.0220978 0.0222059 0.0223141 0.0224223 0.0225304 0.0226386 0.0227476 0.0228566 0.0229656 0.0230746 0.0231836 0.0232934 0.0234033 0.0235131 0.023623 0.0237328 0.0238436 0.0239543 0.024065 0.0241757 0.0242864 0.0243979 0.0245095 0.0246211 0.0247326 0.0248442 0.0249566 0.0250691 0.0251815 0.0252939 0.0254064 0.0255197 0.025633 0.0257463 0.0258596 0.0259729 0.0260871 0.0262013 0.0263154 0.0264296 0.0265438 0.0266589 0.026774 0.026889 0.0270041 0.0271192 0.0272352 0.0273511 0.0274671 0.0275831 0.027699 0.0278159 0.0279328 0.0280497 0.0281665 0.0282834 0.0283029 0.0283224 0.0283418 0.0283613 0.0283806 0.0284789 0.0285773 0.0286756 0.028774 0.0288723 0.028991 0.0291097 0.0292284 0.0293471 0.0294658 0.0295854 0.029705 0.0298246 0.0299443 0.0300639 0.0301844 0.030305 0.0304255 0.0305461 0.0306666 0.0307881 0.0309096 0.0310311 0.0311526 0.031274 0.0313965 0.0315189 0.0316413 0.0317638 0.0318862 0.0320096 0.032133 0.0322563 0.0323797 0.0325031 0.0326274 0.0327518 0.0328761 0.0330005 0.0331248 0.0332501 0.0333754 0.0335007 0.033626 0.0337514 0.0338776 0.0340039 0.0341302 0.0342565 0.0343828 0.03451 0.0346373 0.0347646 0.0348918 0.0350191 0.0351473 0.0352756 0.0354039 0.0355321 0.0356604 0.0357896 0.0359189 0.0360481 0.0361774 0.0363066 0.0364369 0.0365671 0.0366974 0.0368276 0.0369579 0.0370892 0.0372204 0.0373517 0.037483 0.0376143 0.0377465 0.0378788 0.0380111 0.0381434 0.0382757 0.038409 0.0385423 0.0386757 0.038809 0.0389423 0.0390767 0.039211 0.0393454 0.0394797 0.0396141 0.0397495 0.0398849 0.0400203 0.0401557 0.0402911 0.0404276 0.040564 0.0407005 0.0408369 0.0409734 0.0411109 0.0412484 0.0413859 0.0415234 0.041661 0.0417995 0.0419381 0.0420767 0.0422153 0.0423539 0.0424935 0.0426332 0.0427729 0.0429125 0.0430522 0.0431929 0.0433337 0.0434744 0.0436152 0.0437559 0.0438978 0.0440396 0.0441815 0.0443233 0.0444652 0.0446081 0.0447511 0.044894 0.045037 0.0451799 0.045324 0.045468 0.0456121 0.0457561 0.0459002 0.0460454 0.0461906 0.0463357 0.0464809 0.0466261 0.0467724 0.0469187 0.047065 0.0472113 0.0473577 0.0475051 0.0476525 0.0478 0.0479474 0.0480949 0.0482435 0.0483921 0.0485407 0.0486893 0.0488379 0.0489876 0.0491374 0.0492871 0.0494369 0.0495866 0.0497375 0.0498884 0.0500394 0.0501903 0.0503412 0.0504933 0.0506454 0.0507975 0.0509496 0.0511016 0.0512549 0.0514082 0.0515615 0.0517147 0.051868 0.0520225 0.0521769 0.0523314 0.0524859 0.0526403 0.052796 0.0529517 0.0531073 0.053263 0.0534187 0.0535756 0.0537324 0.0538893 0.0540462 0.0542031 0.0542327 0.0542624 0.054292 0.0543217 0.0543511 0.0544796 0.0546081 0.0547366 0.0548651 0.0549936 0.0551529 0.0553122 0.0554716 0.0556309 0.0557902 0.0559508 0.0561114 0.0562719 0.0564325 0.0565931 0.0567549 0.0569167 0.0570786 0.0572404 0.0574022 0.0575653 0.0577284 0.0578914 0.0580545 0.0582176 0.0583819 0.0585463 0.0587106 0.058875 0.0590393 0.059205 0.0593706 0.0595362 0.0597019 0.0598675 0.0600344 0.0602013 0.0603683 0.0605352 0.0607021 0.0608703 0.0610385 0.0612068 0.061375 0.0615432 0.0617127 0.0618823 0.0620518 0.0622213 0.0623908 0.0625617 0.0627325 0.0629034 0.0630742 0.0632451 0.0634173 0.0635895 0.0637616 0.0639338 0.064106 0.0642795 0.0644531 0.0646266 0.0648001 0.0649736 0.0651485 0.0653234 0.0654983 0.0656731 0.065848 0.0660243 0.0662005 0.0663767 0.066553 0.0667292 0.0669068 0.0670844 0.0672621 0.0674397 0.0676173 0.0677963 0.0679753 0.0681543 0.0683333 0.0685123 0.0686927 0.0688731 0.0690535 0.0692339 0.0694143 0.0695961 0.0697779 0.0699597 0.0701415 0.0703233 0.0705065 0.0706897 0.0708729 0.0710562 0.0712394 0.071424 0.0716087 0.0717933 0.071978 0.0721627 0.0721838 0.0722049 0.072226 0.0722472 0.0722681 0.0724331 0.0725981 0.0727631 0.0729281 0.0730931 0.0732807 0.0734682 0.0736558 0.0738433 0.0740309 0.0742199 0.0744089 0.0745979 0.0747869 0.074976 0.0751665 0.0753569 0.0755474 0.0757379 0.0759284 0.0761204 0.0763124 0.0765044 0.0766963 0.0768883 0.0770818 0.0772753 0.0774688 0.0776623 0.0778558 0.0780508 0.0782458 0.0784408 0.0786358 0.0788308 0.0790273 0.0792238 0.0794203 0.0796169 0.0798134 0.0800115 0.0802095 0.0804076 0.0806057 0.0808037 0.0810034 0.081203 0.0814026 0.0816022 0.0818018 0.082003 0.0822042 0.0824054 0.0826066 0.0828078 0.0830105 0.0832133 0.083416 0.0836188 0.0838216 0.0840259 0.0842303 0.0844346 0.084639 0.0848434 0.0849232 0.0850031 0.0850829 0.0851627 0.0852405 0.085367 0.0854936 0.0856201 0.0857466 0.0858732 0.0860808 0.0862883 0.0864959 0.0867035 0.0869111 0.0871203 0.0873295 0.0875387 0.0877479 0.0879571 0.088168 0.0883788 0.0885897 0.0888005 0.0890114 0.0892239 0.0894364 0.089649 0.0898615 0.090074 0.0902882 0.0905024 0.0907166 0.0909307 0.091145 0.0913608 0.0915767 0.0917926 0.0920085 0.0922244 0.0924419 0.0926595 0.0928771 0.0930947 0.0933123 0.0935316 0.0937509 0.0939702 0.0941894 0.0944088 0.0945476 0.0946865 0.0948253 0.0949641 0.0950978 0.095181 0.0952642 0.0953475 0.0954307 0.0955139 0.0957367 0.0959595 0.0961822 0.096405 0.0966278 0.0968523 0.0970769 0.0973014 0.0975259 0.0977505 0.0979768 0.0982031 0.0984294 0.0986557 0.098882 0.0991101 0.0993382 0.0995663 0.0997944 0.100023 0.100252 0.100482 0.100712 0.100942 0.101172 0.101404 0.101635 0.101867 0.102099 0.102331 0.102564 0.102798 0.103031 0.103265 0.103498 0.103588 0.103677 0.103766 0.103855 0.103943 0.104089 0.104236 0.104382 0.104529 0.104675 0.104913 0.10515 0.105387 0.105624 0.105862 0.106101 0.10634 0.106579 0.106818 0.107057 0.107298 0.107539 0.10778 0.108021 0.108263 0.108505 0.108748 0.108991 0.109234 0.109477 0.109722 0.109967 0.110212 0.110457 0.110702 0.110948 0.111195 0.111442 0.111689 0.111935 0.112011 0.112087 0.112163 0.112238 0.112313 0.112486 0.11266 0.112833 0.113006 0.113179 0.11343 0.113681 0.113931 0.114182 0.114433 0.114685 0.114938 0.115191 0.115444 0.115696 0.115951 0.116206 0.11646 0.116715 0.11697 0.117227 0.117483 0.11774 0.117997 0.118253 0.118512 0.118771 0.11903 0.119288 0.119547 0.119734 0.11992 0.120107 0.120293 0.120475 0.12055 0.120626 0.120701 0.120776 0.120851 0.121114 0.121377 0.12164 0.121903 0.122165 0.12243 0.122695 0.12296 0.123225 0.12349 0.123757 0.124024 0.124291 0.124558 0.124825 0.125095 0.125364 0.125633 0.125902 0.126171 0.126443 0.126714 0.126985 0.127256 0.127528 0.127724 0.127921 0.128117 0.128314 0.128505 0.128583 0.128661 0.128739 0.128817 0.128895 0.129171 0.129446 0.129722 0.129998 0.130273 0.130551 0.130829 0.131107 0.131385 0.131663 0.131943 0.132223 0.132503 0.132783 0.133063 0.133345 0.133628 0.13391 0.134192 0.134475 0.134759 0.135044 0.135328 0.135613 0.135898 0.135979 0.13606 0.136142 0.136223 0.136303 0.136509 0.136715 0.13692 0.137126 0.137332 0.137621 0.13791 0.1382 0.138489 0.138778 0.13907 0.139361 0.139653 0.139944 0.140236 0.14053 0.140824 0.141118 0.141412 0.141706 0.142002 0.142299 0.142595 0.142891 0.143188 0.143274 0.143359 0.143445 0.14353 0.143614 0.143828 0.144042 0.144255 0.144469 0.144683 0.144984 0.145285 0.145586 0.145888 0.146189 0.146493 0.146797 0.147101 0.147405 0.147709 0.148016 0.148322 0.148629 0.148935 0.149242 0.149441 0.149641 0.14984 0.150039 0.150228 0.15034 0.150452 0.150564 0.150676 0.150788 0.1511 0.151412 0.151724 0.152035 0.152348 0.152662 0.152977 0.153292 0.153606 0.153921 0.154239 0.154556 0.154874 0.155191 0.155509 0.155625 0.155741 0.155856 0.155972 0.156084 0.156289 0.156495 0.156701 0.156906 0.157112 0.157436 0.157759 0.158082 0.158406 0.15873 0.159057 0.159383 0.159709 0.160036 0.160364 0.160543 0.160723 0.160902 0.161082 0.161251 0.161404 0.161556 0.161708 0.161861 0.162013 0.162346 0.162679 0.163012 0.163345 0.16368 0.164016 0.164352 0.164689 0.165025 0.165363 0.165464 0.165565 0.165666 0.165767 0.165865 0.166104 0.166344 0.166584 0.166824 0.167065 0.167408 0.167751 0.168095 0.168438 0.168784 0.169045 0.169306 0.169568 0.169829 0.170073 0.170163 0.170253 0.170342 0.170432 0.170521 0.170872 0.171223 0.171574 0.171925 0.172277 0.172589 0.172901 0.173212 0.173524 0.173817 0.173864 0.173911 0.173958 0.174005 0.174052 0.17441 0.174768 0.175126 0.175484 0.175844 0.176144 0.176443 0.176743 0.177043 0.177332 0.177396 0.177461 0.177525 0.177589 0.177654 0.178019 0.178384 0.178749 0.179114 0.179479 0.179731 0.179982 0.180234 0.180486 0.180736 0.180853 0.180969 0.181086 0.181203 0.18132 0.181691 0.182061 0.182432 0.182803 0.183173 0.183366 0.183558 0.18375 0.183943 0.184138 0.184318 0.184498 0.184679 0.184859 0.185039 0.185414 0.18579 0.186165 0.186541 0.186914 0.187062 0.18721 0.187357 0.187505 0.187657 0.187886 0.188114 0.188342 0.188571 0.188798 0.189177 0.189556 0.189935 0.190314 0.19069 0.19084 0.190989 0.191138 0.191288 0.191444 0.191673 0.191902 0.192132 0.192361 0.192589 0.192971 0.193353 0.193735 0.194117 0.194496 0.194736 0.194976 0.195216 0.195456 0.195719 0.195857 0.195995 0.196134 0.196272 0.19641 0.196795 0.197179 0.197564 0.197949 0.198331 0.198718 0.199104 0.199491 0.199878 0.200262 0.200381 0.200501 0.200621 0.20074 0.200867 0.201134 0.201401 0.201668 0.201935 0.202201 0.202591 0.202981 0.203372 0.203762 0.204151 0.204543 0.204935 0.205328 0.20572 0.206111 0.206414 0.206717 0.20702 0.207324 0.207678 0.207759 0.20784 0.207921 0.208002 0.208083 0.20848 0.208877 0.209274 0.209671 0.210067 0.210467 0.210867 0.211266 0.211666 0.212065 0.212467 0.212869 0.213271 0.213674 0.214075 0.21448 0.214885 0.21529 0.215695 0.2161 0.216508 0.216916 0.217323 0.217731 0.218139 0.218203 0.218267 0.218331 0.218395 0.218462 0.218808 0.219154 0.2195 0.219846 0.220192 0.220606 0.221019 0.221433 0.221847 0.22226 0.222677 0.223094 0.22351 0.223927 0.224343 0.224763 0.225183 0.225603 0.226022 0.226442 0.226865 0.227287 0.22771 0.228133 0.228556 0.228965 0.229374 0.229784 0.230193 0.230602 0.231027 0.231453 0.231878 0.232303 0.232729 0.233171 0.233613 0.234055 0.234497 0.234939 0.235292 0.235646 0.235999 0.236352 0.236796 0.236884 0.236972 0.23706 0.237147 0.237235 0.237713 0.23819 0.238667 0.239144 0.239622 0.240118 0.240614 0.24111 0.241606 0.242102 0.242618 0.243133 0.243649 0.244164 0.24468 0.245216 0.245751 0.246287 0.246823 0.247359 0.247915 0.248472 0.249029 0.249585 0.250142 0.250721 0.251299 0.251878 0.252456 0.253035 0.253636 0.254237 0.254838 0.255439 0.256041 0.256665 0.25729 0.257914 0.258539 0.259164 0.259813 0.260462 0.261111 0.26176 0.262409 0.263084 0.263758 0.264432 0.265107 0.265781 0.266482 0.267183 0.267883 0.268584 0.269285 0.270013 0.270741 0.271469 0.272197 0.272926 0.273361 0.273795 0.27423 0.274665 0.275164 0.275473 0.275782 0.276091 0.276399 0.276708 0.277495 0.278281 0.279067 0.279853 0.280639 0.281455 0.282272 0.283089 0.283906 0.284722 0.285571 0.28642 0.287268 0.288117 0.288965 0.289847 0.290729 0.29161 0.292492 0.293374 0.29429 0.295206 0.296122 0.297038 0.297954 0.298906 0.299857 0.300809 0.301761 0.302712 0.303701 0.30469 0.305679 0.306668 0.307657 0.308684 0.309711 0.310738 0.311765 0.31279