/*--------------------------------*- C++ -*----------------------------------*\
  =========                 |
  \\      /  F ield         | OpenFOAM: The Open Source CFD Toolbox
   \\    /   O peration     | Website:  https://openfoam.org
    \\  /    A nd           | Version:  9
     \\/     M anipulation  |
\*---------------------------------------------------------------------------*/
FoamFile
{
    format      ascii;
    class       volScalarField;
    location    "5.37";
    object      p_rgh;
}
// * * * * * * * * * * * * * * * * * * * * * * * * * * * * * * * * * * * * * //

dimensions      [1 -1 -2 0 0 0 0];

internalField   nonuniform List<scalar> 
2268
(
749.754
749.825
750.076
750.527
751.167
751.985
752.963
754.081
755.316
756.641
758.026
759.439
760.842
762.189
763.424
764.476
765.331
766.018
766.775
767.389
768.087
768.815
769.016
749.744
749.825
750.08
750.538
751.184
752.004
752.983
754.097
755.326
756.642
758.016
759.414
760.798
762.121
763.332
764.374
765.281
766.132
767.028
767.744
768.283
768.832
769.073
749.695
749.788
750.05
750.518
751.172
751.999
752.981
754.098
755.325
756.638
758.007
759.397
760.772
762.086
763.296
764.362
765.313
766.131
766.912
767.838
768.325
768.764
769.032
749.604
749.7
749.969
750.447
751.112
751.95
752.942
754.067
755.303
756.622
757.996
759.391
760.771
762.098
763.335
764.462
765.455
763.417
763.58
765.355
767.226
768.79
769.062
749.468
749.561
749.835
750.324
751.003
751.855
752.863
754.004
755.256
756.591
757.98
759.392
760.792
762.149
763.437
764.649
765.734
762.988
763.284
763.73
764.736
768.916
769.172
749.284
749.371
749.65
750.15
750.845
751.716
752.744
753.909
755.185
756.545
757.959
759.397
760.829
762.228
763.579
764.883
766.263
766.534
762.994
763.492
766.507
769.201
769.375
749.05
749.131
749.416
749.929
750.643
751.536
752.591
753.784
755.093
756.486
757.932
759.403
760.874
762.323
763.74
765.13
766.582
768.244
765.471
764.894
769.654
769.642
769.628
748.763
748.849
749.143
749.671
750.405
751.324
752.408
753.637
754.985
756.418
757.903
759.41
760.927
762.43
763.91
765.367
766.857
768.634
770.291
770.825
770.763
770.286
770.022
769.776
770.27
770.286
769.744
768.811
767.667
766.39
764.981
763.393
761.676
759.798
758.503
757.038
755.224
756.867
756.997
756.472
756.534
756.958
769.741
770.56
770.39
769.887
769.098
768.059
766.726
765.286
763.682
761.741
759.785
758.692
757.564
755.087
756.538
756.569
756.243
756.541
757.012
770.178
770.587
770.351
769.807
769.024
768.023
766.836
765.414
763.693
761.714
759.841
758.901
754.488
754.935
756.54
756.409
756.145
756.544
756.846
771.12
770.848
770.405
769.81
769.018
768.019
766.819
765.204
763.558
761.499
756.707
754.462
751.749
753.022
756.765
756.481
756.045
756.554
756.693
771.146
770.971
770.527
769.885
769.064
768.054
766.637
765.223
763.825
761.329
751.648
750.884
750.969
754.018
757.257
756.691
753.99
756.295
756.783
771.234
771.081
770.666
770.004
769.149
768.121
766.853
765.495
764.478
763.122
753.738
750.364
750.084
758.597
757.845
756.923
749.222
755.945
757.839
771.335
771.214
770.825
770.153
769.241
768.174
767.085
765.944
764.789
763.707
760.788
751.332
754.255
760.244
758.27
757.08
748.703
756.648
757.919
771.5
771.451
771.033
770.355
769.449
768.298
767.146
766.037
764.176
763.164
764.104
763.778
763.441
760.622
758.629
757.715
748.179
752.955
758.062
748.282
748.356
748.651
749.195
749.961
750.921
752.06
753.357
754.782
756.293
757.851
759.433
761.02
762.614
764.193
765.735
767.245
768.826
770.243
771.063
771.325
771.481
771.543
715.488
715.035
715.448
716.588
719.458
722.954
726.674
730.686
735.137
739.41
743.224
746.717
750.095
753.986
758.377
762.719
764.639
766.221
767.606
768.259
768.076
767.549
767.429
215.557
214.915
215.986
218.859
221.083
224.294
229.601
236.208
243.918
252.843
262.909
273.717
284.827
295.67
305.948
316.846
330.012
343.804
355.549
361.216
362.563
362.437
363.802
2.04899
1.99346
1.8381
1.5119
2.25895
2.96042
3.00287
2.6505
2.30294
2.00347
1.79022
1.68556
1.56912
1.30823
1.29157
1.2638
1.21046
1.06875
0.854001
0.868211
0.901449
0.893736
0.844346
2.00279
1.98267
1.82818
1.44809
2.35064
4.08277
4.76032
5.55594
5.63064
5.64154
5.65119
5.66995
5.67626
5.67371
5.65613
5.61786
5.59483
4.26805
1.35398
2.03525
2.46439
2.31471
1.01524
1.36116
1.48298
1.48055
1.41327
1.59887
0.968695
0.472245
0.547637
0.720591
0.852478
1.00149
1.14104
1.22881
1.18658
1.07186
0.829485
0.711273
1.20967
1.33032
1.51284
1.31894
0.742853
1.16062
0.219172
0.126951
0.128642
0.320792
0.0787554
0.0970642
0.0384435
0.0164575
0.010564
0.00741516
0.00473137
0.0023945
0.000618501
0.000491492
0.00219679
0.00671503
0.0132251
0.153544
0.416641
0.150347
0.126455
0.445327
1.08651
0.0155707
0.0163075
0.0164697
0.0145843
0.0142898
0.0139693
0.0255043
0.0185176
0.00960952
0.00725138
0.0051535
0.00509252
0.00516501
0.00253353
0.00211724
0.00557619
0.144109
0.19555
0.152568
0.0971141
0.116696
0.516957
0.457257
0.0138592
0.0141787
0.0140798
0.0131658
0.0125538
0.0121863
0.0145901
0.0123312
0.00881596
0.0069501
0.00625257
0.0093749
0.00809987
0.00361723
0.00115433
0.00145589
0.0539104
0.101423
0.0858394
0.101657
0.212002
0.154789
0.00706337
0.0124856
0.0127087
0.0124631
0.0117049
0.0111529
0.0107166
0.010191
0.00921578
0.00793601
0.00647472
0.00718882
0.00968667
0.00744608
0.00134096
0.000503831
-0.000427715
-0.00320471
-0.00533596
0.000834446
0.0246614
0.0240016
-0.010677
-0.0100428
0.0111809
0.0112623
0.0110422
0.0103607
0.00989761
0.00943981
0.00889181
0.00809578
0.00889369
0.00944879
0.00810609
0.00387181
0.00226109
0.00113487
0.000197066
-0.000928474
-0.00279049
-0.00420954
-0.00454863
-0.00438598
-0.00768946
-0.00850328
-0.00841127
0.0100506
0.00986887
0.00963298
0.00919611
0.00878306
0.00833059
0.00780891
0.0093376
0.0101838
0.00911574
0.00584455
0.00293576
0.00193374
0.000993094
3.06467e-05
-0.00105141
-0.00242158
-0.00107389
0.00707295
0.00695288
0.0021004
-0.00554483
-0.0071018
0.00905234
0.00883397
0.00854235
0.00819333
0.00781049
0.00736897
0.00686586
0.00850572
0.00930151
0.00608658
0.00357247
0.00266374
0.00175998
0.000862442
-5.97254e-05
-0.00105965
-0.00217869
0.00281736
0.00905049
0.00825506
0.00758368
-0.000489791
-0.00615779
0.00830141
0.00817822
0.00764559
0.00731773
0.00695253
0.00653976
0.00615073
0.00577805
0.00495533
0.00395364
0.00318838
0.00239142
0.00157547
0.000745032
-0.000108884
-0.00101246
-0.00198429
-0.00224405
0.00184848
0.00760237
0.00249631
-0.00538157
-0.00541961
0.00770431
0.00756969
0.00686428
0.00653509
0.00619483
0.00580998
0.00536257
0.00478481
0.00417772
0.00353157
0.00285091
0.00214077
0.00140758
0.000657177
-0.000114325
-0.000916783
-0.00175359
-0.00260605
-0.00337962
-0.00389331
-0.00441038
-0.00465741
-0.00469077
0.00711898
0.00685933
0.0061346
0.00582963
0.00551378
0.00515365
0.00473202
0.00425294
0.00372207
0.00315194
0.00254919
0.00191878
0.00126643
0.000596993
-8.89783e-05
-0.000792238
-0.00150719
-0.00221469
-0.00287573
-0.00342547
-0.00381112
-0.00402992
-0.00412124
0.0065662
0.0061634
0.00546172
0.00519197
0.00490066
0.00457185
0.00419782
0.0037752
0.00330834
0.00280582
0.00227388
0.00171728
0.00114064
0.000548613
-5.52993e-05
-0.000667569
-0.0012793
-0.00187312
-0.0024211
-0.0028855
-0.00323773
-0.00348101
-0.00364176
0.00609547
0.00558461
0.00486833
0.0046174
0.0043514
0.00405529
0.00372149
0.00334738
0.00293579
0.00249274
0.00202382
0.00153342
0.00102548
0.000504574
-2.4558e-05
-0.000556563
-0.0010821
-0.00158649
-0.0020499
-0.00244923
-0.00276728
-0.00300374
-0.0031713
0.00558233
0.00514246
0.00433407
0.00410217
0.00386094
0.00359526
0.00329816
0.00296758
0.00260523
0.0022153
0.00180247
0.00137072
0.000923705
0.000465924
2.59628e-06
-0.00046033
-0.000914254
-0.00134728
-0.00174505
-0.00209265
-0.00237918
-0.00260265
-0.00276875
0.00511897
0.00486091
0.00385373
0.00364083
0.00342289
0.00318514
0.00292159
0.00263048
0.00231254
0.00197041
0.00160767
0.00122785
0.000834478
0.000431981
2.56539e-05
-0.000378512
-0.000772921
-0.00114812
-0.00149356
-0.001799
-0.00205699
-0.00226488
-0.00242475
0.00469941
0.0044694
0.00342244
0.00322825
0.00303181
0.00281933
0.00258591
0.00232991
0.00205132
0.00175155
0.00143317
0.00109921
0.0007531
0.000399091
4.23019e-05
-0.000311557
-0.000655869
-0.000983086
-0.00128527
-0.00155499
-0.00178676
-0.00197778
-0.00212833
0.00422001
0.00383324
0.00303829
0.00286179
0.00268502
0.00249521
0.00228847
0.00206307
0.00181852
0.00155548
0.00127577
0.000982058
0.000677571
0.000366315
5.30164e-05
-0.000257117
-0.000558393
-0.000844727
-0.00110999
-0.0013486
-0.00155629
-0.0017304
-0.00187044
0.00315664
0.00293227
0.00270118
0.00254008
0.00238083
0.0022116
0.00202859
0.0018298
0.00161452
0.00138305
0.00113687
0.000878347
0.000610515
0.000337026
6.20834e-05
-0.000209758
-0.000473704
-0.000724844
-0.000958378
-0.00117
-0.00135633
-0.00151502
-0.0016453
0.00275775
0.00257057
0.00240606
0.002259
0.0021162
0.00196606
0.00180445
0.00162911
0.00143929
0.00123524
0.0010183
0.000790665
0.000555124
0.000314916
7.3655e-05
-0.000164818
-0.000396558
-0.000617633
-0.000824259
-0.00101306
-0.00118133
-0.00132703
-0.00144932
0.00245943
0.00229186
0.00214439
0.0020133
0.00188683
0.00175446
0.00161211
0.00145754
0.00129009
0.00111013
0.000918949
0.000718559
0.000511451
0.000300423
8.84991e-05
-0.000121164
-0.000325382
-0.000521018
-0.000705064
-0.000874828
-0.00102808
-0.00116301
-0.00127873
0.00218369
0.00203903
0.00191245
0.00179932
0.00168868
0.00157235
0.00144683
0.00131035
0.00116249
0.00100372
0.000835247
0.000658872
0.000476733
0.000291177
0.000104688
-8.01771e-05
-0.000260862
-0.00043485
-0.000599707
-0.000753223
-0.000893495
-0.00101888
-0.00112838
0.00192983
0.00181074
0.0017083
0.00161446
0.00151867
0.00141594
0.0013045
0.00118341
0.00105247
0.000912192
0.000763655
0.000608369
0.000448108
0.000284784
0.000120412
-4.29387e-05
-0.000203206
-0.00035834
-0.000506326
-0.000645301
-0.000773598
-0.000889701
-0.000992549
0.00169657
0.00160503
0.00153138
0.00145797
0.0013744
0.00128205
0.00118202
0.00107391
0.000957566
0.000833417
0.000702353
0.000565584
0.000424527
0.000280708
0.00013575
-8.67021e-06
-0.000150874
-0.000289172
-0.000421873
-0.000547383
-0.000664234
-0.000771052
-0.000866813
0.00148289
0.00141949
0.00138435
0.00133121
0.00125216
0.00116683
0.00107654
0.000979901
0.000876495
0.000766635
0.000651029
0.000530626
0.000406541
0.000279973
0.000152218
2.46324e-05
-0.000101423
-0.000224559
-0.00034336
-0.000456463
-0.000562595
-0.000660549
-0.000749416
0.0012875
0.00161864
0.00381889
0.00354074
0.00130501
0.00106444
0.000984549
0.000899306
0.00080808
0.000711272
0.000609566
0.000503775
0.000394802
0.000283584
0.000171141
5.85416e-05
-5.31395e-05
-0.000162786
-0.000269236
-0.000371345
-0.000468014
-0.000558201
-0.000641127
0.00110342
0.00223081
0.00466763
0.00464875
0.00214137
0.000969933
0.000903336
0.000830172
0.000750786
0.000666084
0.000576966
0.000484281
0.000388807
0.00029127
0.000192439
9.31044e-05
-5.94321e-06
-0.00010386
-0.000199727
-0.000292589
-0.00038148
-0.000465468
-0.000543846
0.000935145
0.00197476
0.00464059
0.00462941
0.00219979
0.000884992
0.000832916
0.000771412
0.000702902
0.000629079
0.000551182
0.000470164
0.000386713
0.00030136
0.000214618
0.000126983
3.8939e-05
-4.89528e-05
-0.000136015
-0.000221453
-0.000304351
-0.000383779
-0.000458993
0.000790041
0.00117898
0.00440417
0.00394809
0.00140503
0.000816678
0.000774937
0.00072239
0.000662631
0.000597891
0.000529641
0.000458853
0.000386074
0.000311612
0.000235687
0.000158458
8.00722e-05
7.70678e-07
-7.90248e-05
-0.000158655
-0.000237151
-0.000313417
-0.000386535
0.000678008
0.000774417
0.00124714
0.0010188
0.0008049
0.000768092
0.000729705
0.000681818
0.000627895
0.000570121
0.000509896
0.000448014
0.000384777
0.000320212
0.000254189
0.000186482
0.000116844
4.514e-05
-2.85225e-05
-0.000103636
-0.000179034
-0.000253216
-0.000324926
0.000602341
0.000717871
0.000778513
0.000783349
0.000765232
0.000734471
0.000693791
0.000646779
0.000596105
0.000543505
0.000490009
0.000436048
0.000381597
0.000326336
0.000269745
0.000211169
0.000149903
8.53396e-05
1.71289e-05
-5.45028e-05
-0.000127979
-0.000200987
-0.000271724
0.000568654
0.000713105
0.00078289
0.000779498
0.000747843
0.000706944
0.000661281
0.000613154
0.000564357
0.000516008
0.000468598
0.000422118
0.000376178
0.000330091
0.000282947
0.000233651
0.000180985
0.00012373
6.07672e-05
-8.38767e-06
-8.13797e-05
-0.000154253
-0.000224395
0.000581895
0.00074384
0.000803005
0.00077768
0.000728677
0.000677012
0.000625946
0.00057654
0.000529672
0.000485714
0.000444554
0.000405735
0.000368517
0.000331908
0.000294682
0.000255364
0.000212228
0.000163288
0.000106065
3.81029e-05
-3.67141e-05
-0.000110981
-0.000180978
0.00065849
0.000811044
0.000820354
0.000761366
0.00069554
0.000635225
0.000580649
0.000531735
0.000488352
0.000450032
0.000416064
0.000385599
0.000357649
0.00033107
0.000304512
0.000276321
0.000244419
0.000206027
0.000156467
8.79048e-05
7.42898e-06
-7.03486e-05
-0.00014054
0.000816999
0.000906416
0.00080303
0.000706897
0.000632507
0.000569967
0.000516868
0.000472535
0.000435825
0.000405449
0.000380218
0.000359064
0.000340972
0.000324903
0.000309704
0.000293924
0.000275603
0.000251714
0.000214234
0.000142227
4.93652e-05
-3.41975e-05
-0.000103781
0.000932405
0.000910035
0.000699
0.000592726
0.000527415
0.000474811
0.000433162
0.000401175
0.000376716
0.000358053
0.000343964
0.000333568
0.000326186
0.000321261
0.000318251
0.000316411
0.000315022
0.000313498
0.000299233
0.000211842
8.5417e-05
-8.41336e-06
-7.38655e-05
0.00116499
0.000802805
0.000532068
0.000440212
0.000397675
0.000371573
0.00035736
0.000349918
0.000346179
0.000344958
0.000345888
0.000348963
0.000354393
0.000362593
0.000374104
0.000389471
0.000411579
0.000450995
0.000495595
0.000360809
0.000123951
3.99893e-06
-5.27698e-05
0.000824389
7.34701e-05
0.000156942
0.000194708
0.000221718
0.000244295
0.000265296
0.000283442
0.000298802
0.000312343
0.000325152
0.000338301
0.000352942
0.00037046
0.000392569
0.000421726
0.000466908
0.000561799
0.000736881
0.000641763
0.00018271
3.16347e-05
-1.6546e-05
773.483
773.603
773.652
773.66
769.159
769.608
769.645
769.29
368.755
370.371
370.545
369.357
0.855817
0.849915
0.83034
0.809786
1.48931
1.89889
1.69082
1.38372
1.9247
1.92121
0.867497
0.821134
0.493114
0.151792
0.665413
1.23079
0.223155
0.107099
0.107192
0.290352
0.00955134
-0.00142699
-0.00704445
-0.00866631
-0.00853461
-0.0077872
-0.00719259
-0.00763947
-0.0075016
-0.00711884
-0.0070786
-0.00705923
-0.00680323
-0.00656929
-0.00640765
-0.00631597
-0.00603977
-0.00594235
-0.00583215
-0.00570836
-0.00538373
-0.00533634
-0.00528309
-0.00522366
-0.00471694
-0.00480701
-0.00479411
-0.00476816
-0.00420939
-0.0042529
-0.00426554
-0.0042432
-0.00371078
-0.00374382
-0.00376972
-0.0037882
-0.00325248
-0.00329577
-0.00333307
-0.00336299
-0.00285443
-0.0029013
-0.00294234
-0.00297573
-0.00251041
-0.00255751
-0.00259913
-0.00263373
-0.00221106
-0.00225696
-0.00229794
-0.00233275
-0.00194919
-0.00199367
-0.00203392
-0.00206887
-0.0017206
-0.00176402
-0.00180374
-0.00183887
-0.00152217
-0.00156474
-0.00160393
-0.00163898
-0.00134956
-0.00139112
-0.00142947
-0.001464
-0.00119676
-0.00123693
-0.00127413
-0.00130788
-0.00105765
-0.00109619
-0.00113218
-0.00116528
-0.000928117
-0.0009651
-0.00100014
-0.001033
-0.000807084
-0.000842818
-0.000877294
-0.000910329
-0.000695869
-0.000730713
-0.000764909
-0.000798292
-0.00059657
-0.000630745
-0.000664693
-0.000698261
-0.00051044
-0.000543971
-0.000577468
-0.000610803
-0.000437105
-0.000469867
-0.000502583
-0.000535166
-0.000374703
-0.00040651
-0.000438106
-0.000469459
-0.000320598
-0.000351275
-0.000381478
-0.00041123
-0.00027219
-0.000301596
-0.000330196
-0.000358066
-0.000227496
-0.000255479
-0.000282264
-0.000307977
-0.00018544
-0.000211721
-0.000236355
-0.000259523
-0.000145946
-0.000169847
-0.000191692
-0.0002117
-0.000110086
-0.000129917
-0.000147723
-0.000163655
-8.04412e-05
-9.40392e-05
-0.000105521
-0.000115376
-3.47322e-05
-4.31655e-05
-4.98901e-05
-5.52244e-05
772.25
772.014
771.46
770.755
768.565
764.44
762.551
762.627
763.309
763.938
764.209
763.891
762.725
760.586
759.065
756.063
748.367
744.36
756.94
767.844
767.568
766.515
763.273
760.791
757.217
750.33
742.396
737.413
740.792
748.354
750.834
745.259
731.169
720.793
723.495
737.709
742.705
746.071
365.029
362.636
360.277
358.721
356.386
354.783
353.988
350.792
343.87
331.515
319.503
310.839
305.557
302.934
300.654
296.911
294.497
290.282
278.813
0.780907
0.799637
0.798166
0.790285
0.898026
0.970002
0.922678
0.908507
0.909546
1.1818
1.22093
1.40749
1.47396
1.59804
1.7463
1.78848
1.73885
1.23019
1.11434
0.799961
0.80678
0.806958
0.80774
1.78158
2.57595
1.7137
1.67343
1.68009
1.48549
1.36003
1.38613
1.44033
1.54032
1.63788
1.74727
1.73575
1.23615
1.09642
0.781963
1.24492
1.224
0.777498
1.32146
1.70934
1.99697
1.99419
2.0014
2.04542
2.05651
2.05454
1.73909
1.47941
1.59487
1.63146
1.44951
1.31384
1.036
1.24375
1.23498
1.17772
1.18764
0.998848
0.301684
0.223572
0.229978
0.15489
0.136784
0.129038
0.0781749
0.285883
0.386911
0.335001
0.289871
0.291317
0.482739
0.499242
0.391239
0.121929
0.120673
0.332363
0.031908
0.00565669
0.00853688
0.0110136
0.0147649
0.0174953
0.0191021
0.0207149
0.0185244
0.017188
0.0161592
0.0171288
0.0177053
0.0168431
0.0190984
-0.0108089
-0.0078996
-0.00651433
-0.0062651
-0.00132794
0.00354007
0.00707719
0.0119001
0.053363
0.0893688
0.0927256
0.0872907
0.0352529
0.0173513
0.0155523
0.0152554
0.0155894
0.0148808
0.0165974
-0.00834431
-0.00682581
-0.00527666
-0.00369108
-0.000755648
0.00252011
0.00528202
0.0526468
0.116606
0.116797
0.117586
0.101584
0.0222408
0.0209924
0.0154201
0.0145823
0.0143099
0.013884
0.0147761
-0.00696432
-0.00571759
-0.000576262
0.00851956
0.00404243
0.00183808
0.0120333
0.104773
0.119158
0.0679485
0.0345215
0.0397343
0.0861037
0.0859838
0.0554417
0.0391763
0.0194659
0.0130592
0.0134685
-0.00606292
-0.00439484
0.0229001
0.0387174
0.0343186
0.00524854
0.0295347
0.098908
0.0569281
0.0038402
0.0439154
0.0861293
0.0869475
0.0878055
0.0892843
0.0906278
0.0568715
0.0124328
0.0124264
-0.00548268
-0.000688125
0.0388231
0.0402895
0.0413107
0.0421151
0.0240663
0.000996118
-0.00186437
0.00258509
0.0636143
0.0876469
0.0500148
0.0118809
0.0129392
0.0217319
0.0249618
0.0439569
0.0404044
-0.00509891
-0.00487672
0.0122904
0.0418305
0.0366006
0.000930589
-0.00282677
-0.00247413
-0.00178078
0.00016201
0.000845994
0.000327725
0.00104368
0.00271876
0.00404365
0.0052989
0.0273569
0.0433268
0.0430035
-0.00465984
-0.00443915
-0.00457256
-0.00362825
-0.00339037
-0.00333892
-0.00276846
-0.0023046
-0.00156689
-0.000879248
-0.000704736
-4.81065e-05
0.00102592
0.0021935
0.00313673
0.00385064
0.0249401
0.042368
0.041181
-0.00413187
-0.00408316
-0.0042476
-0.00422093
-0.00382471
-0.00317698
-0.00261412
-0.00214055
-0.00161264
-0.00108024
-0.000595335
1.82957e-05
0.000834847
0.00166217
0.00228192
0.00260243
0.00367056
0.00423899
0.00355851
-0.00380454
-0.00380492
-0.0032921
-0.00292823
-0.0029096
-0.00287075
-0.00242294
-0.00199362
-0.00153574
-0.001058
-0.000583687
-4.07033e-05
0.000585573
0.00118395
0.00161109
0.00175821
0.0015625
0.00119808
0.00111439
-0.00339418
-0.00339887
-0.00290258
-0.00245157
-0.0021839
-0.00182579
-0.00205637
-0.00186509
-0.00146541
-0.00103663
-0.000597996
-0.000159436
0.000329732
0.000779275
0.00110006
0.00122299
0.00112313
0.000906291
0.000812935
-0.00301353
-0.0030281
-0.00298623
-0.00262764
-0.00192659
-0.00157213
-0.00155491
-0.00175944
-0.00138152
-0.000882052
-0.000472702
-0.000202362
9.87056e-05
0.00044281
0.000709137
0.000848608
0.000850434
0.000759071
0.000671773
-0.00267523
-0.00269238
-0.00266113
-0.00257117
-0.00239466
-0.00213362
-0.00190058
-0.00163527
-0.00120176
-0.000858272
-0.000547659
-0.000227586
-0.000110678
0.000159264
0.000400741
0.000579131
0.0006953
0.000728267
0.000680129
-0.00237685
-0.00239875
-0.00237675
-0.00230629
-0.00218521
-0.00201917
-0.00182004
-0.00159953
-0.0013593
-0.00104453
-0.000747849
-0.000556906
-0.000336502
-9.31849e-05
0.000133093
0.000351847
0.000580608
0.000775645
0.00094686
-0.00211534
-0.00214349
-0.00213306
-0.00208238
-0.00199155
-0.00186503
-0.00171084
-0.00153731
-0.00135082
-0.00115508
-0.000952458
-0.00074536
-0.000539043
-0.00033879
-0.000140488
8.11213e-05
0.00035166
0.00282424
0.0252026
-0.00188727
-0.00192207
-0.00192343
-0.0018912
-0.00182661
-0.00173345
-0.00161767
-0.00148563
-0.00134283
-0.00119324
-0.00104006
-0.00088634
-0.000735783
-0.000591175
-0.000448103
-0.00028607
-9.00056e-05
0.00655778
0.0445172
-0.00168846
-0.0017293
-0.00174154
-0.00172584
-0.00168401
-0.00161948
-0.00153704
-0.00144189
-0.0013389
-0.00123223
-0.00112566
-0.00102294
-0.00092825
-0.000845649
-0.000776265
-0.000712945
-0.000648475
0.00583075
0.0454103
-0.00151377
-0.00155966
-0.00158151
-0.00158046
-0.00155852
-0.00151889
-0.00146563
-0.00140322
-0.00133611
-0.00126854
-0.00120473
-0.0011492
-0.0011072
-0.00108489
-0.00108867
-0.00112277
-0.00118934
0.000586076
0.0464705
-0.00135767
-0.00140783
-0.00143824
-0.00145023
-0.00144585
-0.00142804
-0.00140038
-0.0013668
-0.00133149
-0.00129862
-0.00127268
-0.00125871
-0.00126276
-0.00129239
-0.00135763
-0.00147275
-0.00164687
-0.00181296
0.0476626
-0.00121545
-0.00126958
-0.00130784
-0.00133155
-0.00134273
-0.00134402
-0.00133866
-0.00133019
-0.00132246
-0.00131951
-0.00132575
-0.00134627
-0.00138713
-0.00145593
-0.00156383
-0.00172959
-0.00196151
-0.00214682
0.0463614
-0.00108421
-0.00114233
-0.00118787
-0.00122213
-0.00124696
-0.00126483
-0.00127863
-0.0012916
-0.00130724
-0.0013293
-0.00136177
-0.00140909
-0.0014762
-0.00156873
-0.00169451
-0.00186594
-0.00207579
-0.00218038
0.00958668
-0.000963084
-0.00102514
-0.0010773
-0.00112078
-0.00115734
-0.00118924
-0.00121916
-0.00125004
-0.00128503
-0.00132742
-0.00138051
-0.00144755
-0.00153142
-0.00163407
-0.00175647
-0.0018969
-0.00202246
-0.00197115
0.00318016
-0.000852549
-0.000918137
-0.000975914
-0.00102706
-0.00107326
-0.00111665
-0.00115971
-0.00120515
-0.00125578
-0.00131435
-0.00138335
-0.00146465
-0.00155884
-0.00166417
-0.00177532
-0.00187964
-0.00193018
-0.00178135
0.0140689
-0.000753412
-0.000821641
-0.000883656
-0.000940653
-0.000994276
-0.00104659
-0.00109995
-0.00115683
-0.00121976
-0.00129099
-0.00137222
-0.00146402
-0.00156493
-0.00167016
-0.00177027
-0.00184766
-0.00185483
-0.00167269
0.0150414
-0.00066587
-0.000735451
-0.000800053
-0.000860923
-0.000919708
-0.000978432
-0.00103934
-0.00110481
-0.00117708
-0.00125806
-0.00134877
-0.00144866
-0.00155446
-0.00165864
-0.00174789
-0.00179969
-0.00176485
-0.00154853
0.00830466
-0.000589087
-0.000658535
-0.000723967
-0.000786702
-0.000848416
-0.000911121
-0.000977028
-0.00104842
-0.00112746
-0.0012158
-0.00131406
-0.00142089
-0.00153151
-0.00163567
-0.00171526
-0.00173885
-0.00164624
-0.00135825
-0.000871576
-0.000521298
-0.000589133
-0.000653674
-0.000716336
-0.000778849
-0.00084324
-0.000911729
-0.000986617
-0.00107008
-0.00116382
-0.00126843
-0.00138233
-0.00149999
-0.00160927
-0.0016878
-0.00169503
-0.00155704
-0.00120191
0.00626961
-0.000460239
-0.000525096
-0.000587142
-0.000647919
-0.000709232
-0.000773146
-0.000841927
-0.000917971
-0.00100364
-0.00110098
-0.00121108
-0.00133298
-0.00146174
-0.00158521
-0.00167943
-0.00169909
-0.00156055
-0.00118418
0.0156408
-0.000403626
-0.000464262
-0.000522332
-0.000579544
-0.000637793
-0.00069918
-0.000766032
-0.000840891
-0.000926448
-0.00102535
-0.00113972
-0.00127027
-0.00141436
-0.00156215
-0.00169151
-0.00175629
-0.00166302
-0.00129451
0.0159666
-0.000349459
-0.000404686
-0.000457397
-0.000509492
-0.000562943
-0.000619855
-0.00068258
-0.000753798
-0.000836572
-0.000934335
-0.0010507
-0.00118904
-0.00135073
-0.00153129
-0.00171426
-0.00185568
-0.00184683
-0.00149441
0.0161355
-0.000296135
-0.000344719
-0.000390759
-0.000436321
-0.000483394
-0.000533999
-0.000590417
-0.000655364
-0.000732185
-0.000825081
-0.000939365
-0.00108168
-0.00125917
-0.00147638
-0.00172911
-0.00198274
-0.00211408
-0.0017931
0.0132124
-0.000242396
-0.000282977
-0.0003211
-0.000358878
-0.000398178
-0.000440795
-0.000488768
-0.000544633
-0.000611741
-0.000694718
-0.000800244
-0.000938161
-0.00112198
-0.00136943
-0.00169824
-0.00208619
-0.00247007
-0.00222838
0.0116551
-0.00018722
-0.000218267
-0.000247304
-0.000276233
-0.000306567
-0.000339675
-0.000377122
-0.000420944
-0.000473999
-0.000540584
-0.000627568
-0.000746233
-0.000914632
-0.00116297
-0.00153758
-0.00209829
-0.00290109
-0.00287321
0.0111621
-0.000129304
-0.000149263
-0.000168421
-0.000187846
-0.000208423
-0.000230892
-0.000256115
-0.000285262
-0.000320082
-0.000363408
-0.000420214
-0.000499691
-0.000618714
-0.000810407
-0.00114733
-0.00185384
-0.00328823
-0.00382311
0.00986891
-6.21721e-05
-7.26663e-05
-8.32513e-05
-9.43601e-05
-0.000106191
-0.000118846
-0.000132442
-0.000147172
-0.000163396
-0.000181868
-0.000204302
-0.000234877
-0.000283723
-0.000375121
-0.00057698
-0.00113395
-0.00279584
-0.00492542
0.00342798
)
;

boundaryField
{
    leftWall
    {
        type            fixedFluxPressure;
        gradient        uniform 0;
        value           nonuniform List<scalar> 
50
(
749.754
749.744
749.695
749.604
749.468
749.284
749.05
748.763
748.282
715.488
215.557
2.04899
2.00279
1.36116
0.219172
0.0155707
0.0138592
0.0124856
0.0111809
0.0100506
0.00905234
0.00830141
0.00770431
0.00711898
0.0065662
0.00609547
0.00558233
0.00511897
0.00469941
0.00422001
0.00315664
0.00275775
0.00245943
0.00218369
0.00192983
0.00169657
0.00148289
0.0012875
0.00110342
0.000935145
0.000790041
0.000678008
0.000602341
0.000568654
0.000581895
0.00065849
0.000816999
0.000932405
0.00116499
0.000824389
)
;
    }
    rightWall
    {
        type            fixedFluxPressure;
        gradient        uniform 0;
        value           nonuniform List<scalar> 
50
(
756.958
757.012
756.846
756.693
756.783
757.839
757.919
758.062
756.94
746.071
278.813
1.11434
1.09642
1.036
0.499242
0.0190984
0.0165974
0.0147761
0.0134685
0.0124264
0.0404044
0.0430035
0.041181
0.00355851
0.00111439
0.000812935
0.000671773
0.000680129
0.00094686
0.0252026
0.0445172
0.0454103
0.0464705
0.0476626
0.0463614
0.00958668
0.00318016
0.0140689
0.0150414
0.00830466
-0.000871576
0.00626961
0.0156408
0.0159666
0.0161355
0.0132124
0.0116551
0.0111621
0.00986891
0.00342798
)
;
    }
    lowerWall
    {
        type            fixedFluxPressure;
        gradient        uniform 0;
        value           nonuniform List<scalar> 
62
(
749.754
749.825
750.076
750.527
751.167
751.985
752.963
754.081
755.316
756.641
758.026
759.439
760.842
762.189
763.424
764.476
765.331
766.018
766.775
767.389
768.087
768.815
769.016
769.016
769.073
769.032
769.062
769.172
769.375
769.628
770.022
773.483
773.603
773.652
773.66
769.776
769.741
770.178
771.12
771.146
771.234
771.335
771.5
769.776
770.27
770.286
769.744
768.811
767.667
766.39
764.981
763.393
761.676
759.798
758.503
757.038
755.224
756.867
756.997
756.472
756.534
756.958
)
;
    }
    atmosphere
    {
        type            totalPressure;
        rho             rho;
        psi             none;
        gamma           1;
        p0              uniform 0;
        value           nonuniform List<scalar> 
46
(
-9.93188e-05
0
0
0
0
0
0
0
0
0
0
0
0
0
0
0
0
0
0
-1.11904e-08
-8.60768e-07
-3.09721e-06
-6.56073e-06
-9.74778e-06
-1.20652e-05
-1.45688e-05
-1.72469e-05
-2.21283e-05
-2.95915e-05
-3.77216e-05
-4.6407e-05
-5.55329e-05
-6.49704e-05
-7.45637e-05
-8.41151e-05
-9.33689e-05
-0.000101994
-0.000109561
-0.000115519
-0.00011913
-0.000119323
-0.000114282
-0.000100262
-6.92052e-05
-9.2681e-06
0
)
;
    }
    defaultFaces
    {
        type            empty;
    }
}


// ************************************************************************* //
