/*--------------------------------*- C++ -*----------------------------------*\
  =========                 |
  \\      /  F ield         | OpenFOAM: The Open Source CFD Toolbox
   \\    /   O peration     | Website:  https://openfoam.org
    \\  /    A nd           | Version:  9
     \\/     M anipulation  |
\*---------------------------------------------------------------------------*/
FoamFile
{
    format      ascii;
    class       surfaceScalarField;
    location    "5.37";
    object      phi;
}
// * * * * * * * * * * * * * * * * * * * * * * * * * * * * * * * * * * * * * //

dimensions      [0 3 -1 0 0 0 0];

internalField   nonuniform List<scalar> 
4432
(
-2.89991e-07
2.89991e-07
-5.1019e-07
2.20197e-07
-7.02072e-07
1.91885e-07
-8.7883e-07
1.76758e-07
-1.04451e-06
1.65681e-07
-1.19814e-06
1.53627e-07
-1.33297e-06
1.34835e-07
-1.44149e-06
1.08519e-07
-1.51632e-06
7.48341e-08
-1.55205e-06
3.57325e-08
-1.54375e-06
-8.30376e-09
-1.48312e-06
-6.06281e-08
-1.35655e-06
-1.26563e-07
-1.14552e-06
-2.1103e-07
-8.38553e-07
-3.06965e-07
-4.59522e-07
-3.7903e-07
-2.08487e-07
-2.51035e-07
-5.6749e-07
3.59002e-07
-1.44156e-06
8.74067e-07
-2.21608e-06
7.74523e-07
-2.2547e-06
3.86271e-08
-1.29997e-06
-9.54728e-07
-1.29997e-06
-2.60117e-07
5.5011e-07
-4.80528e-07
4.40608e-07
-6.82117e-07
3.93475e-07
-8.68713e-07
3.63356e-07
-1.04123e-06
3.38199e-07
-1.1972e-06
3.09601e-07
-1.33222e-06
2.69854e-07
-1.44043e-06
2.16731e-07
-1.51692e-06
1.51328e-07
-1.55822e-06
7.70378e-08
-1.56103e-06
-5.49469e-09
-1.51974e-06
-1.01914e-07
-1.42577e-06
-2.2053e-07
-1.26995e-06
-3.6685e-07
-1.04986e-06
-5.27048e-07
-7.95712e-07
-6.33181e-07
-6.28366e-07
-4.1838e-07
-8.16305e-07
5.46944e-07
-1.29318e-06
1.35095e-06
-1.67617e-06
1.15752e-06
-1.69595e-06
5.84152e-08
-1.17327e-06
-1.47741e-06
-2.47323e-06
-2.40624e-07
7.90736e-07
-4.62025e-07
6.62008e-07
-6.68439e-07
5.99889e-07
-8.61027e-07
5.55946e-07
-1.03874e-06
5.15912e-07
-1.19883e-06
4.69695e-07
-1.33737e-06
4.08389e-07
-1.44987e-06
3.29237e-07
-1.53254e-06
2.33995e-07
-1.58268e-06
1.27176e-07
-1.5979e-06
9.73101e-09
-1.57484e-06
-1.24966e-07
-1.50896e-06
-2.86407e-07
-1.39706e-06
-4.78754e-07
-1.24255e-06
-6.81553e-07
-1.06809e-06
-8.07645e-07
-9.18647e-07
-5.67818e-07
-9.61e-07
5.893e-07
-1.12247e-06
1.51242e-06
-1.26893e-06
1.30399e-06
-1.24419e-06
3.36746e-08
-8.90764e-07
-1.83084e-06
-3.364e-06
-2.29738e-07
1.02048e-06
-4.53133e-07
8.85403e-07
-6.64715e-07
8.11471e-07
-8.63524e-07
7.54756e-07
-1.0474e-06
6.9979e-07
-1.21329e-06
6.35585e-07
-1.35755e-06
5.52639e-07
-1.47639e-06
4.48075e-07
-1.56669e-06
3.24299e-07
-1.62654e-06
1.8703e-07
-1.65463e-06
3.78161e-08
-1.64959e-06
-1.30004e-07
-1.60977e-06
-3.26222e-07
-1.53606e-06
-5.52462e-07
-1.4356e-06
-7.82015e-07
-1.32482e-06
-9.18422e-07
-1.20567e-06
-6.8697e-07
-1.09891e-06
4.82549e-07
-1.01256e-06
1.42607e-06
-9.44925e-07
1.23636e-06
-8.23325e-07
-8.7925e-08
-5.40454e-07
-2.11371e-06
-3.90445e-06
-2.23992e-07
1.24447e-06
-4.5075e-07
1.11216e-06
-6.68636e-07
1.02936e-06
-8.74539e-07
9.6066e-07
-1.06565e-06
8.90898e-07
-1.23877e-06
8.08707e-07
-1.3904e-06
7.04263e-07
-1.51715e-06
5.74823e-07
-1.61631e-06
4.23459e-07
-1.68662e-06
2.5734e-07
-1.72786e-06
7.90572e-08
-1.74018e-06
-1.17685e-07
-1.72401e-06
-3.42397e-07
-1.68266e-06
-5.93804e-07
-1.62528e-06
-8.39396e-07
-1.5648e-06
-9.78905e-07
-1.48705e-06
-7.64717e-07
-1.24729e-06
2.42791e-07
-9.76696e-07
1.15548e-06
-7.14411e-07
9.74074e-07
-4.34763e-07
-3.67572e-07
-1.97233e-07
-2.35125e-06
-4.10168e-06
-2.21901e-07
1.46637e-06
-4.54451e-07
1.34471e-06
-6.79788e-07
1.25469e-06
-8.93579e-07
1.17445e-06
-1.09271e-06
1.09003e-06
-1.27405e-06
9.90046e-07
-1.43417e-06
8.64376e-07
-1.56987e-06
7.10519e-07
-1.67862e-06
5.3221e-07
-1.75966e-06
3.38376e-07
-1.81368e-06
1.33077e-07
-1.84194e-06
-8.94266e-08
-1.84596e-06
-3.38376e-07
-1.8298e-06
-6.09967e-07
-1.80208e-06
-8.67115e-07
-1.7711e-06
-1.00988e-06
-1.70828e-06
-8.27537e-07
-1.42046e-06
-4.50278e-08
-1.00421e-06
7.39227e-07
-5.80446e-07
5.50312e-07
-1.78595e-07
-7.69424e-07
5.50411e-08
-2.58488e-06
-4.04663e-06
-2.22956e-07
1.68933e-06
-4.64092e-07
1.58585e-06
-6.97859e-07
1.48846e-06
-9.19872e-07
1.39646e-06
-1.12734e-06
1.2975e-06
-1.31735e-06
1.18005e-06
-1.48647e-06
1.0335e-06
-1.63157e-06
8.5562e-07
-1.75011e-06
6.5075e-07
-1.84161e-06
4.29881e-07
-1.90738e-06
1.9885e-07
-1.9495e-06
-4.73048e-08
-1.9695e-06
-3.18375e-07
-1.97075e-06
-6.08716e-07
-1.95885e-06
-8.79007e-07
-1.93519e-06
-1.03354e-06
-1.85928e-06
-9.0345e-07
-1.57178e-06
-3.32533e-07
-1.07281e-06
2.40258e-07
-5.39344e-07
1.68404e-08
-1.17667e-07
-1.1911e-06
1.14599e-07
-2.81715e-06
-3.93204e-06
-2.32147e-07
1.92147e-06
-4.80403e-07
1.83411e-06
-7.21587e-07
1.72964e-06
-9.51595e-07
1.62648e-06
-1.16722e-06
1.51313e-06
-1.36575e-06
1.37858e-06
-1.54376e-06
1.21152e-06
-1.69809e-06
1.00995e-06
-1.82607e-06
7.78741e-07
-1.92731e-06
5.31127e-07
-2.00322e-06
2.74766e-07
-2.05664e-06
6.12458e-09
-2.08804e-06
-2.86973e-07
-2.0995e-06
-5.97259e-07
-2.09205e-06
-8.86457e-07
-2.06003e-06
-1.06556e-06
-1.96174e-06
-1.00174e-06
-1.67341e-06
-6.20868e-07
-1.16483e-06
-2.68325e-07
-6.14366e-07
-5.33637e-07
-2.32383e-07
-1.57309e-06
-8.63377e-08
-2.9632e-06
-4.01838e-06
-4.70992e-07
4.70992e-07
4.89892e-07
-9.60878e-07
1.37923e-06
-8.89335e-07
2.00306e-06
-6.23838e-07
2.41011e-06
-4.07043e-07
2.67528e-06
-2.65171e-07
2.88322e-06
-2.07933e-07
3.19306e-06
-3.09841e-07
3.74373e-06
-5.5067e-07
4.30325e-06
-5.59516e-07
3.97325e-06
3.3e-07
2.72889e-06
1.24435e-06
2.35671e-07
2.49322e-06
-9.17457e-07
1.15313e-06
7.56089e-07
-1.67355e-06
2.48067e-06
-1.72458e-06
2.9031e-06
-4.22431e-07
2.05455e-06
8.48549e-07
2.05456e-06
1.77923e-07
2.93067e-07
7.86936e-07
-1.56988e-06
1.32471e-06
-1.42711e-06
1.7524e-06
-1.05152e-06
2.07707e-06
-7.3171e-07
2.32016e-06
-5.08252e-07
2.54131e-06
-4.29086e-07
2.82439e-06
-5.92913e-07
3.22839e-06
-9.54672e-07
3.51185e-06
-8.42975e-07
3.16335e-06
6.7849e-07
2.22423e-06
2.18348e-06
8.01214e-07
3.91623e-06
4.8421e-07
1.47015e-06
1.33117e-06
-2.52052e-06
2.22104e-06
-2.61445e-06
2.32704e-06
-5.28424e-07
1.83069e-06
1.34489e-06
3.88525e-06
6.27125e-07
-3.34059e-07
9.42548e-07
-1.8853e-06
1.28157e-06
-1.76613e-06
1.60189e-06
-1.37185e-06
1.86667e-06
-9.96481e-07
2.07139e-06
-7.12972e-07
2.2574e-06
-6.15104e-07
2.46655e-06
-8.02058e-07
2.70211e-06
-1.19023e-06
2.83199e-06
-9.72853e-07
2.43786e-06
1.07261e-06
1.70534e-06
2.91601e-06
1.13096e-06
4.49061e-06
1.26094e-06
1.34017e-06
1.63319e-06
-2.89277e-06
2.02088e-06
-3.00214e-06
1.81634e-06
-3.23891e-07
1.36616e-06
1.79507e-06
5.25141e-06
7.44957e-07
-1.07902e-06
9.82611e-07
-2.12296e-06
1.22497e-06
-2.00848e-06
1.47896e-06
-1.62585e-06
1.69935e-06
-1.21687e-06
1.86773e-06
-8.81346e-07
2.00014e-06
-7.47514e-07
2.11567e-06
-9.17588e-07
2.20649e-06
-1.28104e-06
2.22179e-06
-9.8815e-07
1.89018e-06
1.40421e-06
1.42859e-06
3.37761e-06
1.44776e-06
4.47143e-06
1.73772e-06
1.05021e-06
1.79902e-06
-2.95407e-06
1.84027e-06
-3.04338e-06
1.37236e-06
1.4401e-07
8.99114e-07
2.26832e-06
6.15052e-06
6.96782e-07
-1.7758e-06
9.42973e-07
-2.36915e-06
1.151e-06
-2.2165e-06
1.36645e-06
-1.8413e-06
1.55375e-06
-1.40416e-06
1.68594e-06
-1.01353e-06
1.76588e-06
-8.27455e-07
1.79159e-06
-9.43299e-07
1.73774e-06
-1.22719e-06
1.63443e-06
-8.84842e-07
1.49385e-06
1.5448e-06
1.36376e-06
3.5077e-06
1.70093e-06
4.13426e-06
2.02974e-06
7.21405e-07
1.82419e-06
-2.74853e-06
1.60691e-06
-2.8261e-06
9.78556e-07
7.72359e-07
4.80058e-07
2.76681e-06
6.63058e-06
6.12245e-07
-2.38804e-06
8.70272e-07
-2.62718e-06
1.06757e-06
-2.41379e-06
1.25986e-06
-2.03358e-06
1.42311e-06
-1.56742e-06
1.52487e-06
-1.11529e-06
1.56232e-06
-8.64899e-07
1.51668e-06
-8.97655e-07
1.34856e-06
-1.05907e-06
1.13253e-06
-6.68802e-07
1.20258e-06
1.47474e-06
1.3761e-06
3.33419e-06
1.91569e-06
3.59466e-06
2.11302e-06
5.24078e-07
1.69641e-06
-2.33192e-06
1.27269e-06
-2.40238e-06
6.76465e-07
1.36858e-06
1.51268e-07
3.292e-06
6.78185e-06
5.2571e-07
-2.91374e-06
7.94385e-07
-2.89585e-06
9.83057e-07
-2.60246e-06
1.15734e-06
-2.20787e-06
1.30358e-06
-1.71367e-06
1.38634e-06
-1.19804e-06
1.39612e-06
-8.74686e-07
1.30728e-06
-8.08814e-07
1.08085e-06
-8.32632e-07
8.30416e-07
-4.1837e-07
9.78221e-07
1.32693e-06
1.39117e-06
2.92124e-06
1.99812e-06
2.98771e-06
2.00892e-06
5.13283e-07
1.43198e-06
-1.75497e-06
8.46927e-07
-1.81733e-06
3.61762e-07
1.85374e-06
-1.64239e-07
3.818e-06
6.61761e-06
5.06594e-07
-3.42034e-06
7.36077e-07
-3.12534e-06
9.01446e-07
-2.76784e-06
1.05542e-06
-2.36185e-06
1.18963e-06
-1.84788e-06
1.26496e-06
-1.27338e-06
1.26787e-06
-8.77607e-07
1.16539e-06
-7.06334e-07
9.35871e-07
-6.03118e-07
7.12006e-07
-1.94507e-07
8.71843e-07
1.16709e-06
1.37957e-06
2.41352e-06
1.92016e-06
2.44712e-06
1.78636e-06
6.47088e-07
1.08673e-06
-1.05534e-06
3.56186e-07
-1.08678e-06
-1.66139e-08
2.22655e-06
-4.55146e-07
4.25654e-06
6.16247e-06
-4.91948e-07
2.41342e-06
-1.06465e-06
2.40681e-06
-1.61726e-06
2.28226e-06
-2.13604e-06
2.14526e-06
-2.61991e-06
1.997e-06
-3.06815e-06
1.82682e-06
-3.47341e-06
1.61678e-06
-3.82987e-06
1.36641e-06
-4.13058e-06
1.07944e-06
-4.37429e-06
7.74841e-07
-4.56443e-06
4.64909e-07
-4.7028e-06
1.44491e-07
-4.79438e-06
-1.95393e-07
-4.83298e-06
-5.58659e-07
-4.80769e-06
-9.11741e-07
-4.68534e-06
-1.18792e-06
-4.40084e-06
-1.28624e-06
-3.77154e-06
-1.25017e-06
-2.78227e-06
-1.2576e-06
-1.7753e-06
-1.54061e-06
-1.18933e-06
-2.15906e-06
-1.3166e-06
-2.83592e-06
-3.13628e-06
-2.1987e-06
-5.84739e-07
2.99816e-06
-1.20189e-06
3.02396e-06
-1.76648e-06
2.84685e-06
-2.27613e-06
2.65492e-06
-2.7687e-06
2.48958e-06
-3.23128e-06
2.2894e-06
-3.64608e-06
2.03159e-06
-4.0148e-06
1.73514e-06
-4.34017e-06
1.40482e-06
-4.6128e-06
1.04747e-06
-4.82383e-06
6.75945e-07
-4.96829e-06
2.8895e-07
-5.04971e-06
-1.13964e-07
-5.06844e-06
-5.3994e-07
-5.02016e-06
-9.60021e-07
-4.86636e-06
-1.34172e-06
-4.5181e-06
-1.63451e-06
-3.88001e-06
-1.88826e-06
-3.00019e-06
-2.13743e-06
-2.13739e-06
-2.40341e-06
-1.56396e-06
-2.73248e-06
-1.32883e-06
-3.07105e-06
-3.25612e-06
-1.20898e-06
-8.70337e-07
3.86849e-06
-1.46188e-06
3.6155e-06
-2.09894e-06
3.4839e-06
-2.76995e-06
3.32592e-06
-3.30051e-06
3.02012e-06
-3.68078e-06
2.66966e-06
-4.00933e-06
2.36013e-06
-4.31109e-06
2.03688e-06
-4.60995e-06
1.70367e-06
-4.88004e-06
1.31756e-06
-5.07816e-06
8.74062e-07
-5.18273e-06
3.93523e-07
-5.19908e-06
-9.76079e-08
-5.16604e-06
-5.72974e-07
-5.08459e-06
-1.04146e-06
-4.90162e-06
-1.52468e-06
-4.45316e-06
-2.08296e-06
-3.759e-06
-2.58241e-06
-2.96065e-06
-2.93576e-06
-2.14786e-06
-3.21618e-06
-1.54136e-06
-3.33896e-06
-1.244e-06
-3.3684e-06
-3.50383e-06
-9.96285e-07
-9.3734e-07
4.80582e-06
-7.49954e-07
3.4281e-06
-1.55584e-06
4.28966e-06
-3.95917e-06
5.72928e-06
-4.62022e-06
3.68115e-06
-4.11554e-06
2.16495e-06
-4.12953e-06
2.37415e-06
-4.06423e-06
1.97163e-06
-4.20307e-06
1.84255e-06
-4.43815e-06
1.55265e-06
-4.62606e-06
1.06198e-06
-4.68174e-06
4.49205e-07
-4.63125e-06
-1.48112e-07
-4.6184e-06
-5.85821e-07
-4.51494e-06
-1.14493e-06
-4.21719e-06
-1.82245e-06
-3.35412e-06
-2.94608e-06
-2.40371e-06
-3.53291e-06
-2.72157e-06
-2.61801e-06
-2.06462e-06
-3.87321e-06
-1.27044e-06
-4.13315e-06
-8.78177e-07
-3.7607e-06
-3.26314e-06
-1.11889e-06
2.76426e-08
4.77826e-06
1.12223e-07
3.34374e-06
-1.35314e-06
5.75506e-06
-4.17832e-06
8.55452e-06
-4.25383e-06
3.7567e-06
-3.79141e-06
1.70252e-06
-4.59156e-06
3.17429e-06
-4.61464e-06
1.99469e-06
-4.46679e-06
1.69469e-06
-4.31883e-06
1.40466e-06
-3.9767e-06
7.19834e-07
-3.3884e-06
-1.39106e-07
-2.5392e-06
-9.97312e-07
-1.67249e-06
-1.45252e-06
-8.6014e-07
-1.95727e-06
1.7065e-07
-2.85321e-06
1.59748e-06
-4.37283e-06
3.00857e-06
-4.94388e-06
7.07706e-07
-3.17048e-07
-4.99549e-07
-2.66603e-06
-4.83404e-07
-4.14928e-06
-1.07022e-06
-3.17386e-06
-2.69497e-06
-1.63869e-06
7.81482e-07
3.99666e-06
4.03685e-07
3.7213e-06
1.01948e-06
5.13923e-06
4.0504e-06
5.52352e-06
4.83393e-06
2.97316e-06
2.83325e-06
3.7032e-06
-8.73956e-08
6.09494e-06
-2.30222e-06
4.20951e-06
-3.13177e-06
2.52422e-06
-3.17193e-06
1.44483e-06
-2.79345e-06
3.41353e-07
-2.15698e-06
-7.75548e-07
-1.47837e-06
-1.67589e-06
-8.83418e-07
-2.04744e-06
-5.73583e-07
-2.2671e-06
-1.12139e-06
-2.30542e-06
-2.57456e-06
-2.91967e-06
-3.19026e-06
-4.32808e-06
-2.03609e-06
-1.47108e-06
-2.74015e-06
-1.96188e-06
-4.53369e-06
-2.35567e-06
-5.46227e-06
-2.24509e-06
-5.485e-06
-2.67248e-06
2.4299e-06
1.56702e-06
1.90187e-06
4.24936e-06
2.5866e-06
4.45462e-06
5.07947e-06
3.03065e-06
4.26901e-06
3.78361e-06
3.22828e-06
4.74395e-06
2.9214e-06
6.40183e-06
1.89077e-06
5.24014e-06
9.29663e-07
3.4853e-06
4.23886e-07
1.95056e-06
1.5656e-07
6.08621e-07
-9.86492e-08
-5.20412e-07
-5.28913e-07
-1.24571e-06
-1.14791e-06
-1.42853e-06
-2.11487e-06
-1.30023e-06
-3.23733e-06
-1.18305e-06
-3.86814e-06
-2.28905e-06
-4.73312e-06
-3.46334e-06
-3.8187e-06
-2.38574e-06
-4.92566e-06
-8.55131e-07
-6.20721e-06
-1.07421e-06
-4.22604e-06
-4.22591e-06
-6.89179e-06
-2.81921e-06
4.37797e-07
1.12906e-06
1.60343e-06
3.08378e-06
2.78216e-06
3.27579e-06
2.89487e-06
2.91786e-06
2.89791e-06
3.78053e-06
2.63731e-06
5.00456e-06
3.1554e-06
5.88376e-06
3.18913e-06
5.20644e-06
2.83136e-06
3.84312e-06
2.37519e-06
2.40679e-06
1.84805e-06
1.13581e-06
1.19668e-06
1.31014e-07
3.647e-07
-4.13682e-07
-6.06214e-07
-4.57567e-07
-1.62786e-06
-2.78484e-07
-2.50459e-06
-3.06133e-07
-3.03045e-06
-1.76298e-06
-3.65989e-06
-2.83376e-06
-4.1079e-06
-1.93778e-06
-3.96981e-06
-9.93482e-07
-2.99847e-06
-2.04588e-06
-2.02455e-06
-5.19981e-06
-5.95237e-06
-2.96402e-06
6.69159e-08
1.06211e-06
9.09259e-07
2.24152e-06
1.53547e-06
2.64954e-06
1.56321e-06
2.89012e-06
1.59861e-06
3.74517e-06
1.91673e-06
4.68649e-06
2.58884e-06
5.21171e-06
3.00428e-06
4.79104e-06
3.04096e-06
3.80647e-06
2.78071e-06
2.66706e-06
2.3035e-06
1.61302e-06
1.64533e-06
7.8917e-07
8.66404e-07
3.65213e-07
9.3978e-08
3.14836e-07
-5.37738e-07
3.53255e-07
-9.24665e-07
8.08744e-08
-1.63591e-06
-1.05163e-06
-2.52522e-06
-1.94424e-06
-2.76437e-06
-1.69827e-06
-2.11862e-06
-1.63891e-06
-1.16073e-06
-3.00369e-06
-1.74688e-06
-4.61357e-06
-4.69368e-06
-3.0056e-06
6.18143e-08
1.00044e-06
3.71268e-07
1.93208e-06
5.95721e-07
2.42511e-06
6.02822e-07
2.88307e-06
7.53071e-07
3.59498e-06
1.17767e-06
4.26193e-06
1.80905e-06
4.58034e-06
2.29911e-06
4.30097e-06
2.50411e-06
3.60142e-06
2.41727e-06
2.75384e-06
2.08068e-06
1.94953e-06
1.54722e-06
1.32251e-06
9.51077e-07
9.61206e-07
4.36326e-07
8.29399e-07
9.39524e-08
6.9544e-07
-1.42571e-07
3.17209e-07
-6.7295e-07
-5.21513e-07
-1.34938e-06
-1.26814e-06
-1.48242e-06
-1.56546e-06
-1.10349e-06
-2.01798e-06
-1.16241e-06
-2.94493e-06
-2.00832e-06
-3.76776e-06
-3.83433e-06
-2.86776e-06
-9.21095e-08
1.0926e-06
-3.68133e-08
1.87671e-06
-2.46644e-09
2.39077e-06
1.07368e-08
2.86989e-06
1.83101e-07
3.42264e-06
5.61493e-07
3.88355e-06
1.07e-06
4.07183e-06
1.5094e-06
3.86157e-06
1.75034e-06
3.36046e-06
1.75463e-06
2.74955e-06
1.53733e-06
2.16682e-06
1.16309e-06
1.69674e-06
7.57131e-07
1.36715e-06
4.33743e-07
1.15277e-06
2.15294e-07
9.13889e-07
3.0236e-08
5.02271e-07
-3.14758e-07
-1.76591e-07
-7.18133e-07
-8.64937e-07
-8.65966e-07
-1.41776e-06
-9.13196e-07
-1.97088e-06
-1.25017e-06
-2.60812e-06
-1.95333e-06
-3.06472e-06
-3.10493e-06
-2.68275e-06
-1.66074e-07
1.25858e-06
-2.60845e-07
1.9714e-06
-3.21296e-07
2.45121e-06
-3.277e-07
2.87629e-06
-1.91247e-07
3.28616e-06
9.84017e-08
3.59386e-06
4.73189e-07
3.69702e-06
8.14039e-07
3.52071e-06
1.01935e-06
3.15517e-06
1.04544e-06
2.72351e-06
9.14726e-07
2.29761e-06
6.91151e-07
1.9204e-06
4.476e-07
1.61078e-06
2.53125e-07
1.34735e-06
1.18211e-07
1.04897e-06
-1.07299e-08
6.31448e-07
-2.40344e-07
5.32491e-08
-5.09444e-07
-5.9568e-07
-7.06451e-07
-1.22058e-06
-9.15314e-07
-1.76186e-06
-1.29982e-06
-2.22351e-06
-1.8921e-06
-2.47236e-06
-2.50201e-06
-2.49497e-06
-2.19669e-07
1.47816e-06
-3.79074e-07
2.13082e-06
-4.87499e-07
2.55965e-06
-5.18605e-07
2.90737e-06
-4.33821e-07
3.20132e-06
-2.36868e-07
3.39685e-06
2.25798e-08
3.43752e-06
2.54716e-07
3.28855e-06
3.96206e-07
3.01369e-06
4.26777e-07
2.69297e-06
3.65671e-07
2.35876e-06
2.49416e-07
2.03669e-06
1.20837e-07
1.73937e-06
1.79619e-08
1.45022e-06
-5.61478e-08
1.12312e-06
-1.36048e-07
7.1145e-07
-2.78724e-07
1.96055e-07
-4.79198e-07
-3.95098e-07
-7.1288e-07
-9.8677e-07
-9.86995e-07
-1.48763e-06
-1.37243e-06
-1.838e-06
-1.84973e-06
-1.99504e-06
-2.0277e-06
-2.32408e-06
-2.51625e-07
1.72978e-06
-4.42922e-07
2.32221e-06
-5.77245e-07
2.69401e-06
-6.35e-07
2.96512e-06
-6.00288e-07
3.16657e-06
-4.82418e-07
3.27892e-06
-3.19028e-07
3.27408e-06
-1.73599e-07
3.14309e-06
-8.31898e-08
2.92327e-06
-4.95191e-08
2.6593e-06
-6.54391e-08
2.37469e-06
-1.1323e-07
2.08448e-06
-1.67759e-07
1.79386e-06
-2.09865e-07
1.49223e-06
-2.40891e-07
1.15402e-06
-2.84052e-07
7.54508e-07
-3.72965e-07
2.84877e-07
-5.34378e-07
-2.33782e-07
-7.68797e-07
-7.52436e-07
-1.06263e-06
-1.19388e-06
-1.42062e-06
-1.4801e-06
-1.80003e-06
-1.61573e-06
-1.66759e-06
-2.16027e-06
-2.74837e-07
2.0047e-06
-4.86536e-07
2.53401e-06
-6.36964e-07
2.84447e-06
-7.17648e-07
3.0458e-06
-7.24314e-07
3.17321e-06
-6.67959e-07
3.22253e-06
-5.76984e-07
3.18308e-06
-4.89043e-07
3.05513e-06
-4.26259e-07
2.86047e-06
-3.92355e-07
2.62539e-06
-3.83554e-07
2.36589e-06
-3.90387e-07
2.09131e-06
-4.0078e-07
1.80422e-06
-4.06847e-07
1.49822e-06
-4.12849e-07
1.1599e-06
-4.36069e-07
7.77596e-07
-5.01858e-07
3.50527e-07
-6.32205e-07
-1.03583e-07
-8.39411e-07
-5.45369e-07
-1.11558e-06
-9.17834e-07
-1.4212e-06
-1.17459e-06
-1.71872e-06
-1.31831e-06
-1.38881e-06
-1.99758e-06
-2.9645e-07
2.30124e-06
-5.23065e-07
2.76065e-06
-6.85332e-07
3.00672e-06
-7.83782e-07
3.14422e-06
-8.20805e-07
3.2102e-06
-8.0721e-07
3.20891e-06
-7.62822e-07
3.13866e-06
-7.10716e-07
3.003e-06
-6.6574e-07
2.81547e-06
-6.32236e-07
2.59187e-06
-6.09364e-07
2.34301e-06
-5.93264e-07
2.07522e-06
-5.79315e-07
1.79028e-06
-5.66187e-07
1.48509e-06
-5.59908e-07
1.1536e-06
-5.74324e-07
7.91976e-07
-6.28004e-07
4.04168e-07
-7.37871e-07
6.2464e-09
-9.11078e-07
-3.72188e-07
-1.13574e-06
-6.93182e-07
-1.38184e-06
-9.28469e-07
-1.62116e-06
-1.07894e-06
-1.16847e-06
-1.84142e-06
-3.17185e-07
2.61845e-06
-5.55253e-07
2.99865e-06
-7.26751e-07
3.17815e-06
-8.38076e-07
3.25548e-06
-8.95352e-07
3.26744e-06
-9.08722e-07
3.22225e-06
-8.92538e-07
3.12246e-06
-8.62096e-07
2.97253e-06
-8.28015e-07
2.78137e-06
-7.9504e-07
2.55888e-06
-7.64557e-07
2.31251e-06
-7.36239e-07
2.04691e-06
-7.09792e-07
1.76387e-06
-6.87345e-07
1.46269e-06
-6.75458e-07
1.14176e-06
-6.85121e-07
8.01702e-07
-7.29472e-07
4.48593e-07
-8.19438e-07
9.62996e-08
-9.57878e-07
-2.33643e-07
-1.13443e-06
-5.16509e-07
-1.32786e-06
-7.34897e-07
-1.51789e-06
-8.8874e-07
-9.92235e-07
-1.69393e-06
-3.36566e-07
2.95499e-06
-5.82493e-07
3.24445e-06
-7.6056e-07
3.35613e-06
-8.80215e-07
3.37507e-06
-9.49739e-07
3.33692e-06
-9.78837e-07
3.25132e-06
-9.78784e-07
3.12238e-06
-9.60691e-07
2.95442e-06
-9.32907e-07
2.75356e-06
-9.00409e-07
2.52636e-06
-8.6602e-07
2.27811e-06
-8.31573e-07
2.01247e-06
-7.99144e-07
1.73148e-06
-7.72427e-07
1.43603e-06
-7.57656e-07
1.12708e-06
-7.63315e-07
8.07461e-07
-7.98407e-07
4.83802e-07
-8.69463e-07
1.67489e-07
-9.7694e-07
-1.26018e-07
-1.11279e-06
-3.80502e-07
-1.26242e-06
-5.85098e-07
-1.41169e-06
-7.39296e-07
-8.51657e-07
-1.55208e-06
-3.52284e-07
3.30719e-06
-6.02982e-07
3.49501e-06
-7.84572e-07
3.53763e-06
-9.08288e-07
3.49873e-06
-9.84013e-07
3.4126e-06
-1.02128e-06
3.28856e-06
-1.02968e-06
3.13076e-06
-1.01814e-06
2.94285e-06
-9.93765e-07
2.72917e-06
-9.61628e-07
2.4942e-06
-9.25395e-07
2.24187e-06
-8.88105e-07
1.97519e-06
-8.5299e-07
1.69639e-06
-8.24224e-07
1.40731e-06
-8.07297e-07
1.11021e-06
-8.08616e-07
8.08856e-07
-8.34229e-07
5.09505e-07
-8.87881e-07
2.2124e-07
-9.68927e-07
-4.48682e-08
-1.07133e-06
-2.77988e-07
-1.18517e-06
-4.71158e-07
-1.30062e-06
-6.23747e-07
-7.41044e-07
-1.41114e-06
-3.60939e-07
3.66803e-06
-6.14888e-07
3.74886e-06
-7.96221e-07
3.71891e-06
-9.19959e-07
3.62244e-06
-9.97321e-07
3.48994e-06
-1.03776e-06
3.32897e-06
-1.0499e-06
3.14288e-06
-1.04145e-06
2.93438e-06
-1.01879e-06
2.70649e-06
-9.86965e-07
2.46236e-06
-9.50041e-07
2.20493e-06
-9.11627e-07
1.93676e-06
-8.75373e-07
1.66013e-06
-8.45367e-07
1.37732e-06
-8.26238e-07
1.0911e-06
-8.22765e-07
8.05405e-07
-8.38987e-07
5.25753e-07
-8.7698e-07
2.59259e-07
-9.35737e-07
1.39129e-08
-1.01077e-06
-2.02937e-07
-1.09527e-06
-3.86648e-07
-1.18237e-06
-5.36642e-07
-6.56293e-07
-1.26713e-06
-3.62393e-07
4.03035e-06
-6.16333e-07
4.00275e-06
-7.92812e-07
3.89536e-06
-9.12844e-07
3.74245e-06
-9.88433e-07
3.56552e-06
-1.0288e-06
3.36933e-06
-1.04188e-06
3.15593e-06
-1.03458e-06
2.92706e-06
-1.01276e-06
2.68465e-06
-9.81328e-07
2.4309e-06
-9.44429e-07
2.168e-06
-9.05821e-07
1.89812e-06
-8.69156e-07
1.62343e-06
-8.38171e-07
1.3463e-06
-8.16676e-07
1.06957e-06
-8.08228e-07
7.96924e-07
-8.15534e-07
5.33023e-07
-8.39712e-07
2.83398e-07
-8.79707e-07
5.38622e-08
-9.32209e-07
-1.50488e-07
-9.92446e-07
-3.26472e-07
-1.05554e-06
-4.73615e-07
-5.94166e-07
-1.11775e-06
-3.56511e-07
4.38683e-06
-6.03494e-07
4.24974e-06
-7.71088e-07
4.06296e-06
-8.84663e-07
3.85603e-06
-9.56201e-07
3.63705e-06
-9.94528e-07
3.40764e-06
-1.00698e-06
3.16837e-06
-9.99858e-07
2.91991e-06
-9.78571e-07
2.66334e-06
-9.47746e-07
2.40004e-06
-9.11415e-07
2.13163e-06
-8.73221e-07
1.85989e-06
-8.36587e-07
1.58675e-06
-8.04803e-07
1.31446e-06
-7.80964e-07
1.04568e-06
-7.67729e-07
7.83626e-07
-7.66934e-07
5.32159e-07
-7.79158e-07
2.95546e-07
-8.03434e-07
7.80562e-08
-8.373e-07
-1.16709e-07
-8.77332e-07
-2.86532e-07
-9.19983e-07
-4.3106e-07
-5.51884e-07
-9.62366e-07
-3.38671e-07
4.7255e-06
-5.71202e-07
4.4823e-06
-7.28407e-07
4.22019e-06
-8.34074e-07
3.96171e-06
-9.00218e-07
3.7032e-06
-9.35376e-07
3.4428e-06
-9.46403e-07
3.17939e-06
-9.39074e-07
2.91257e-06
-9.18336e-07
2.64259e-06
-8.88466e-07
2.37015e-06
-8.5322e-07
2.09636e-06
-8.1597e-07
1.8226e-06
-7.79796e-07
1.55054e-06
-7.47522e-07
1.28214e-06
-7.21646e-07
1.01974e-06
-7.04172e-07
7.66085e-07
-6.96362e-07
5.24276e-07
-6.98495e-07
2.97601e-07
-7.09735e-07
8.92136e-08
-7.28223e-07
-9.83083e-08
-7.51434e-07
-2.6341e-07
-7.76716e-07
-4.05869e-07
-5.26901e-07
-8.01793e-07
-3.0927e-07
5.0348e-06
-5.21545e-07
4.69462e-06
-6.66011e-07
4.36468e-06
-7.62044e-07
4.05776e-06
-8.21506e-07
3.76268e-06
-8.5263e-07
3.47393e-06
-8.61768e-07
3.18853e-06
-8.54135e-07
2.90494e-06
-8.34159e-07
2.6226e-06
-8.05677e-07
2.34166e-06
-7.72062e-07
2.06273e-06
-7.36318e-07
1.78683e-06
-7.0113e-07
1.51532e-06
-6.68872e-07
1.24984e-06
-6.41549e-07
9.92371e-07
-6.20677e-07
7.45163e-07
-6.07138e-07
5.10681e-07
-6.01045e-07
2.91447e-07
-6.0169e-07
8.97946e-08
-6.07641e-07
-9.24254e-08
-6.16984e-07
-2.54137e-07
-6.27675e-07
-3.95248e-07
-5.16772e-07
-6.37877e-07
-2.7398e-07
5.3088e-06
-4.61147e-07
4.88182e-06
-5.87965e-07
4.49152e-06
-6.7132e-07
4.14113e-06
-7.2229e-07
3.81366e-06
-7.48427e-07
3.50008e-06
-7.55305e-07
3.19541e-06
-7.47397e-07
2.89703e-06
-7.28492e-07
2.6037e-06
-7.01888e-07
2.31505e-06
-6.70494e-07
2.03133e-06
-6.36887e-07
1.75322e-06
-6.03334e-07
1.48175e-06
-5.71787e-07
1.21827e-06
-5.43835e-07
9.64394e-07
-5.20627e-07
7.21925e-07
-5.02781e-07
4.92803e-07
-4.90317e-07
2.78946e-07
-4.82639e-07
8.20763e-08
-4.78619e-07
-9.64878e-08
-4.76769e-07
-2.56032e-07
-4.75465e-07
-3.96598e-07
-5.19098e-07
-4.73189e-07
-2.3565e-07
5.54448e-06
-3.93323e-07
5.03951e-06
-4.97631e-07
4.59584e-06
-5.64734e-07
4.20825e-06
-6.05201e-07
3.85413e-06
-6.25429e-07
3.52031e-06
-6.29778e-07
3.19977e-06
-6.21719e-07
2.88898e-06
-6.04259e-07
2.58625e-06
-5.80067e-07
2.29087e-06
-5.5153e-07
2.0028e-06
-5.20759e-07
1.72245e-06
-4.89598e-07
1.45059e-06
-4.59603e-07
1.18827e-06
-4.32007e-07
9.36789e-07
-4.07668e-07
6.97574e-07
-3.87014e-07
4.72134e-07
-3.70008e-07
2.61923e-07
-3.56149e-07
6.8198e-08
-3.44532e-07
-1.08126e-07
-3.33969e-07
-2.66618e-07
-3.23141e-07
-4.07451e-07
-5.31503e-07
-3.10763e-07
-1.95865e-07
5.74036e-06
-3.20304e-07
5.16396e-06
-3.97364e-07
4.67291e-06
-4.44667e-07
4.25556e-06
-4.72885e-07
3.88236e-06
-4.86604e-07
3.53404e-06
-4.88379e-07
3.20155e-06
-4.8042e-07
2.88103e-06
-4.64839e-07
2.57067e-06
-4.43632e-07
2.26966e-06
-4.18623e-07
1.97779e-06
-3.91445e-07
1.69527e-06
-3.63516e-07
1.42266e-06
-3.36018e-07
1.16078e-06
-3.09866e-07
9.10638e-07
-2.85679e-07
6.73387e-07
-2.63739e-07
4.50194e-07
-2.43974e-07
2.42157e-07
-2.25961e-07
5.01818e-08
-2.08965e-07
-1.25126e-07
-1.92019e-07
-2.83569e-07
-1.74027e-07
-4.25447e-07
-5.51649e-07
-1.53887e-07
-1.55863e-07
5.89623e-06
-2.43806e-07
5.2519e-06
-2.88727e-07
4.71783e-06
-3.12992e-07
4.27982e-06
-3.28006e-07
3.89737e-06
-3.35224e-07
3.54126e-06
-3.34676e-07
3.201e-06
-3.27185e-07
2.87354e-06
-3.13971e-07
2.55746e-06
-2.96346e-07
2.25204e-06
-2.7557e-07
1.95702e-06
-2.52786e-07
1.6725e-06
-2.28986e-07
1.39887e-06
-2.0499e-07
1.13679e-06
-1.81425e-07
8.8708e-07
-1.58699e-07
6.50669e-07
-1.36977e-07
4.28481e-07
-1.16165e-07
2.21354e-07
-9.59081e-08
2.99345e-08
-7.56066e-08
-1.45416e-07
-5.44679e-08
-3.04696e-07
-3.15692e-08
-4.48333e-07
-5.77256e-07
-5.94974e-09
-1.14526e-07
6.01075e-06
-1.63522e-07
5.30088e-06
-1.71774e-07
4.72607e-06
-1.70991e-07
4.27903e-06
-1.73824e-07
3.9002e-06
-1.75071e-07
3.5425e-06
-1.7258e-07
3.19851e-06
-1.65947e-07
2.8669e-06
-1.55591e-07
2.5471e-06
-1.42169e-07
2.23862e-06
-1.26365e-07
1.94122e-06
-1.08817e-07
1.65495e-06
-9.00831e-08
1.38014e-06
-7.06297e-08
1.11734e-06
-5.08083e-08
8.67271e-07
-3.08379e-08
6.30713e-07
-1.07847e-08
4.08446e-07
9.45633e-09
2.01133e-07
3.01773e-08
9.23452e-09
5.18547e-08
-1.6707e-07
7.51371e-08
-3.27953e-07
1.00806e-07
-4.73975e-07
-6.06128e-07
1.29708e-07
-5.75836e-08
6.06833e-06
-6.4044e-08
5.30732e-06
-4.42127e-08
4.70623e-06
-2.43733e-08
4.25918e-06
-1.49287e-08
3.89074e-06
-1.04778e-08
3.53804e-06
-6.10959e-09
3.19413e-06
-5.98969e-10
2.86139e-06
6.40182e-09
2.5401e-06
1.49446e-08
2.23008e-06
2.49723e-08
1.9312e-06
3.63866e-08
1.64354e-06
4.90751e-08
1.36746e-06
6.29293e-08
1.1035e-06
7.78627e-08
8.52355e-07
9.38304e-08
6.14766e-07
1.1085e-07
3.91451e-07
1.29026e-07
1.82985e-07
1.48574e-07
-1.02839e-08
1.69857e-07
-1.88319e-07
1.93388e-07
-3.51449e-07
2.1983e-07
-5.00378e-07
-6.36192e-07
2.49937e-07
2.90879e-08
6.03923e-06
6.04454e-08
5.27593e-06
9.69799e-08
4.66967e-06
1.26561e-07
4.22957e-06
1.45514e-07
3.87177e-06
1.55577e-07
3.52795e-06
1.61673e-07
3.18802e-06
1.6558e-07
2.85747e-06
1.6849e-07
2.53718e-06
1.71271e-07
2.22729e-06
1.74565e-07
1.9279e-06
1.78848e-07
1.63927e-06
1.84465e-07
1.36186e-06
1.91658e-07
1.09633e-06
2.00593e-07
8.4344e-07
2.11386e-07
6.04e-07
2.2412e-07
3.78748e-07
2.3888e-07
1.6826e-07
2.55794e-07
-2.71606e-08
2.75092e-07
-2.07576e-07
2.97153e-07
-3.73467e-07
3.22533e-07
-5.25712e-07
-6.65526e-07
3.51916e-07
1.3335e-07
5.90586e-06
2.01051e-07
5.20819e-06
2.5189e-07
4.61879e-06
2.85874e-07
4.19556e-06
3.08879e-07
3.84874e-06
3.23082e-07
3.51373e-06
3.29421e-07
3.18166e-06
3.30258e-07
2.85661e-06
3.27682e-07
2.53974e-06
3.23404e-07
2.23157e-06
3.18766e-07
1.93254e-06
3.14799e-07
1.64324e-06
3.12273e-07
1.3644e-06
3.11756e-07
1.09686e-06
3.13643e-07
8.41577e-07
3.1819e-07
5.99482e-07
3.25529e-07
3.71443e-07
3.35701e-07
1.58125e-07
3.48716e-07
-4.01345e-08
3.64641e-07
-2.23457e-07
3.83711e-07
-3.9249e-07
4.06381e-07
-5.48335e-07
-6.9239e-07
4.33297e-07
2.38238e-07
5.6676e-06
3.54184e-07
5.0922e-06
4.1713e-07
4.55581e-06
4.53923e-07
4.15873e-06
4.79269e-07
3.82336e-06
4.93484e-07
3.49948e-06
4.96583e-07
3.17854e-06
4.9154e-07
2.86164e-06
4.81259e-07
2.55001e-06
4.68162e-07
2.24466e-06
4.54166e-07
1.94654e-06
4.4074e-07
1.65667e-06
4.29001e-07
1.37615e-06
4.19778e-07
1.10611e-06
4.13661e-07
8.47718e-07
4.11021e-07
6.02151e-07
4.12022e-07
3.70475e-07
4.16637e-07
1.53547e-07
4.24712e-07
-4.81697e-08
4.36105e-07
-2.34807e-07
4.50876e-07
-4.07217e-07
4.69401e-07
-5.66815e-07
-7.1526e-07
4.92318e-07
3.35584e-07
5.33199e-06
5.06732e-07
4.921e-06
5.90531e-07
4.47196e-06
6.34012e-07
4.11521e-06
6.58487e-07
3.79885e-06
6.6675e-07
3.49119e-06
6.61635e-07
3.18362e-06
6.46965e-07
2.87629e-06
6.26252e-07
2.57071e-06
6.02361e-07
2.26854e-06
5.77535e-07
1.97136e-06
5.53498e-07
1.68072e-06
5.31575e-07
1.39808e-06
5.12771e-07
1.12493e-06
4.97825e-07
8.62685e-07
4.87209e-07
6.12792e-07
4.81111e-07
3.76603e-07
4.79416e-07
1.55275e-07
4.81757e-07
-5.04753e-08
4.87701e-07
-2.40714e-07
4.97093e-07
-4.16571e-07
5.10256e-07
-5.7994e-07
-7.32847e-07
5.27882e-07
4.36936e-07
4.89502e-06
6.63584e-07
4.69429e-06
7.75462e-07
4.36004e-06
8.2562e-07
4.06501e-06
8.42852e-07
3.78158e-06
8.39084e-07
3.49493e-06
8.20746e-07
3.20194e-06
7.92789e-07
2.90422e-06
7.59111e-07
2.60437e-06
7.22706e-07
2.30493e-06
6.8586e-07
2.00821e-06
6.50329e-07
1.71625e-06
6.1749e-07
1.43093e-06
5.88432e-07
1.154e-06
5.63999e-07
8.87135e-07
5.44767e-07
6.32045e-07
5.30973e-07
3.90421e-07
5.22425e-07
1.6385e-07
5.18487e-07
-4.65093e-08
5.18311e-07
-2.40509e-07
5.21464e-07
-4.19696e-07
5.28277e-07
-5.86724e-07
-7.44127e-07
5.39586e-07
5.65806e-07
4.32918e-06
8.48592e-07
4.41145e-06
9.76592e-07
4.232e-06
1.0222e-06
4.01937e-06
1.02492e-06
3.77882e-06
1.00364e-06
3.51618e-06
9.68076e-07
3.23747e-06
9.24158e-07
2.94812e-06
8.75855e-07
2.65266e-06
8.25961e-07
2.35482e-06
7.76527e-07
2.05763e-06
7.29124e-07
1.76365e-06
6.85026e-07
1.47503e-06
6.45313e-07
1.19371e-06
6.10908e-07
9.2155e-07
5.82525e-07
6.60441e-07
5.60532e-07
4.12431e-07
5.44735e-07
1.79665e-07
5.34202e-07
-3.5957e-08
5.27466e-07
-2.33752e-07
5.23714e-07
-4.15924e-07
5.23417e-07
-5.86408e-07
-7.48386e-07
5.27693e-07
7.40029e-07
3.58912e-06
1.07248e-06
4.07895e-06
1.19391e-06
4.11054e-06
1.2178e-06
3.99544e-06
1.19629e-06
3.80031e-06
1.15234e-06
3.5601e-06
1.0969e-06
3.29289e-06
1.03583e-06
3.00916e-06
9.7259e-07
2.71589e-06
9.09358e-07
2.41804e-06
8.47668e-07
2.11932e-06
7.88705e-07
1.82261e-06
7.33503e-07
1.53023e-06
6.83052e-07
1.24417e-06
6.38336e-07
9.66271e-07
6.00272e-07
6.98512e-07
5.69515e-07
4.43198e-07
5.46074e-07
2.03117e-07
5.28793e-07
-1.86649e-08
5.15239e-07
-2.20187e-07
5.04065e-07
-4.0474e-07
4.96145e-07
-5.78479e-07
-7.45299e-07
4.93066e-07
9.70195e-07
2.6189e-06
1.33446e-06
3.71465e-06
1.41736e-06
4.02761e-06
1.4003e-06
4.01247e-06
1.34569e-06
3.85489e-06
1.27589e-06
3.62988e-06