/*--------------------------------*- C++ -*----------------------------------*\
  =========                 |
  \\      /  F ield         | OpenFOAM: The Open Source CFD Toolbox
   \\    /   O peration     | Website:  https://openfoam.org
    \\  /    A nd           | Version:  9
     \\/     M anipulation  |
\*---------------------------------------------------------------------------*/
FoamFile
{
    format      ascii;
    class       volScalarField;
    location    "33.1";
    object      p;
}
// * * * * * * * * * * * * * * * * * * * * * * * * * * * * * * * * * * * * * //

dimensions      [0 2 -2 0 0 0 0];

internalField   nonuniform List<scalar> 
918
(
23.4688
23.5756
0.953066
22.8862
1.01746
23.092
3.27205
13.7846
19.242
2.93404
2.62535
14.4081
20.635
16.8764
12.9926
0.924834
14.0516
2.24608
18.4597
1.39833
12.9918
20.4475
21.5362
19.2838
14.1209
14.3715
18.5973
1.14524
0.107782
0.25499
0.979338
0.41103
0.147497
21.6289
22.3056
22.2439
15.4946
10.4021
3.59726
3.80182
2.98253
2.80551
13.8272
13.9272
5.86679
13.7635
13.7592
16.6435
19.11
19.2537
19.5469
19.3359
19.7222
5.97367
2.78521
2.60519
2.87609
2.95049
2.98291
2.6977
2.67924
2.483
2.33707
13.8874
14.4811
14.5363
14.2675
14.2152
22.4516
21.6946
22.0294
21.1357
21.2812
20.2111
19.8255
17.252
17.6045
16.4783
16.0974
12.7829
12.7441
13.2125
13.4623
0.145507
1.07586
1.22299
14.0586
14.0951
14.0951
14.1096
8.28241
2.18793
2.19068
17.9
17.4765
20.4814
20.7486
20.1956
20.0101
1.53019
1.52617
1.15084
1.18153
0.950732
13.3331
13.4872
19.2352
18.4021
14.1544
14.0544
14.1294
11.4996
13.9098
13.9831
15.3211
15.7766
14.9659
15.4023
18.1673
17.7493
19.0338
19.4711
0.393151
0.15455
0.687472
0.318212
0.516544
15.3629
15.1575
15.6105
15.6613
15.8925
10.407
10.3376
10.381
10.3009
4.14913
4.46374
2.25488
2.56945
2.42033
9.86554
13.9435
13.9903
4.81069
5.51505
5.17837
6.34953
6.72392
16.0092
16.4458
16.1845
17.7309
16.9358
17.2839
19.8131
19.3023
19.6027
6.3682
6.60259
5.60784
5.24913
2.23814
2.48771
2.42975
2.98187
2.95991
3.2176
3.346
2.69835
2.55496
2.89332
2.77673
2.82883
2.16632
2.03649
13.6115
13.3976
14.1505
14.329
15.0962
14.9479
14.6545
14.8233
19.0206
19.424
19.4575
19.0734
11.5447
10.1552
13.7168
13.9923
0.302156
0.264633
0.138292
0.380807
0.400797
0.142761
2.01551
1.82698
1.40537
1.68069
14.0562
14.016
8.52301
8.74263
8.11888
7.86272
16.3142
16.4644
17.0985
16.6983
1.96285
1.6766
1.80645
13.6503
13.5227
13.6296
10.9346
10.3681
11.9773
12.2471
13.9912
14.035
14.0309
15.6808
15.9992
19.8219
20.0926
19.9195
20.3053
21.3681
21.0193
20.6346
14.5388
14.9472
14.7856
16.1278
15.7615
15.981
15.1888
15.4935
15.3514
10.3693
10.4156
10.1191
10.197
10.2456
10.1926
9.80276
9.67578
14.0769
14.0319
14.056
7.25201
7.75006
4.86892
4.54012
12.5434
13.2166
12.8921
18.6503
17.9727
18.7056
18.3348
17.8848
18.2083
10.4264
10.388
10.4214
14.9167
14.2545
14.6064
2.44105
2.07685
2.23996
8.9386
9.03201
6.97065
7.58724
7.25036
16.3008
16.6412
17.3213
16.4331
16.9007
17.408
17.1861
9.93879
10.0716
9.98849
9.65921
9.55276
9.7348
8.33532
8.94864
3.61258
4.26899
3.96498
9.2
9.42995
9.27721
18.6298
19.1646
0.765821
1.15319
19.5946
19.3183
0.138969
0.241825
14.253
12.5507
7.26225
17.197
16.6296
18.9694
3.1923
6.10238
2.81012
3.38062
2.68634
14.6152
14.2491
13.3403
0.452913
1.25635
1.70965
2.89585
18.4102
17.735
18.8511
19.1713
19.2256
0.68753
0.912814
0.584153
1.24272
1.03132
1.27632
15.5506
15.6488
4.32324
18.8581
19.1624
19.1802
17.6569
18.6096
17.6671
0.93538
0.642315
0.707281
10.0803
12.1212
14.2133
13.7658
13.9628
13.985
13.7359
14.8691
14.5387
14.5036
14.9884
13.966
13.8206
7.73406
6.38295
8.06851
7.70887
17.0983
16.6862
16.4931
16.2388
18.0846
17.6106
18.461
17.8494
18.3113
18.5981
2.94335
3.13305
3.01181
2.52043
6.14317
6.60579
5.48796
5.63341
4.2592
2.42914
2.52762
2.75366
2.58438
2.93132
2.67893
2.94289
2.57923
2.32357
2.32175
2.93108
2.73896
2.60451
14.5936
14.532
14.3329
14.371
14.3534
14.4691
13.5347
13.9395
13.5672
12.3983
12.9795
12.5067
0.825477
0.663063
0.524874
1.32383
1.35089
1.11109
0.834727
1.17387
1.20203
0.814483
1.54566
1.4455
3.15528
2.64377
8.83987
7.9676
6.90093
16.8002
17.602
16.7717
18.0124
18.4294
18.5348
18.1552
17.647
15.7295
15.7246
15.3847
15.3381
4.77064
3.73129
4.9667
4.53578
10.4775
14.065
11.8423
10.8035
11.0998
13.4239
13.9284
13.5808
13.7177
13.2928
12.821
13.5129
13.0466
13.148
12.927
15.7174
16.1926
15.7991
15.2196
15.2395
10.5985
12.0152
5.46522
5.63921
7.24379
6.53761
13.5094
13.9324
13.9172
13.5556
13.7433
13.7445
13.6053
13.7795
13.8593
13.7539
11.8242
10.1436
9.04486
9.03844
14.0764
12.3458
12.93
12.4134
16.1201
16.6366
16.2513
15.6457
16.1308
15.6026
15.6298
15.843
17.2012
16.9508
16.7205
17.1074
3.05479
3.00354
3.64711
3.13313
3.03631
2.81933
3.48363
4.75813
4.41587
6.71817
7.26889
4.57988
3.37253
3.79275
4.8078
5.54117
5.51097
3.96923
4.50101
4.93001
4.4405
5.22411
4.72864
2.71793
3.02533
2.86345
2.8372
3.38185
3.88017
3.37573
2.48074
2.59282
2.25707
2.11933
3.53625
2.99624
3.03309
3.67881
1.10641
1.32868
1.441
2.41406
1.91322
1.97902
15.1822
14.8263
14.9599
14.2391
14.3066
14.2477
13.8722
15.2396
14.9616
15.0611
13.7095
13.7963
13.6096
13.9049
14.3209
14.6201
15.452
15.1731
14.4122
14.5632
14.2141
14.1423
13.4643
12.9014
12.8408
1.11242
0.824564
0.984119
0.910995
0.606213
0.798575
2.18322
1.57279
1.97059
1.72639
1.9597
1.40375
1.30243
4.25293
5.06383
3.9635
3.36497
3.06191
8.8983
9.00982
8.15849
7.85651
8.19806
8.42672
8.37645
7.13431
7.56133
7.37437
9.9152
9.5795
17.5864
17.5305
17.2017
17.0428
17.2692
5.76217
7.665
6.79886
7.91501
10.2063
10.502
9.31063
8.70479
9.4561
9.53404
14.0467
14.1228
13.5637
14.0496
14.0781
11.8347
12.882
13.4969
13.3113
13.8312
13.9121
12.9731
13.5618
13.4771
12.7598
12.8127
12.1275
12.4661
11.9942
11.7932
14.0558
13.9505
14.2202
13.7711
14.1504
13.7146
14.0299
14.0279
14.3085
13.4105
12.8318
12.8502
13.2765
12.9766
13.3225
13.4866
9.30823
9.94831
10.387
10.9227
10.63
10.412
10.2793
10.581
10.5578
10.8291
10.7485
10.5994
11.5603
13.4156
13.7006
13.802
13.5991
13.6452
13.3379
13.6107
13.54
13.9193
14.0072
14.0569
13.1375
13.2936
13.4883
13.3721
11.6749
10.0967
9.94893
9.50894
7.57655
8.04625
11.0251
9.90199
8.9172
8.98914
12.1683
10.8056
11.619
12.0422
10.6938
10.3057
12.9709
13.759
13.9788
13.7031
12.0599
12.1857
12.6354
13.0786
13.2679
13.7236
15.8599
16.4356
16.5135
16.2376
16.0996
16.1994
15.9495
16.0526
16.5267
16.6532
16.4845
2.88023
2.9939
2.92389
2.84925
3.0857
2.86127
3.95638
3.9473
3.15669
3.33695
3.35687
3.46231
2.93134
2.97443
4.82635
5.06199
5.33366
4.83214
6.17533
6.81623
7.39754
7.08311
5.78971
5.86901
6.18428
3.50751
3.5334
3.25173
3.70928
3.76196
2.61175
2.23922
2.04434
2.56547
2.66664
2.0515
1.76859
1.8178
2.33219
2.05102
1.805
14.9747
14.733
14.7544
14.5342
14.5888
14.9836
15.2045
15.0146
15.153
15.204
14.8031
14.692
14.8631
1.81871
1.49351
1.62278
1.58102
1.6435
1.5499
1.73809
7.60551
6.41561
6.80307
5.97848
4.12046
4.64137
9.53858
9.96001
9.99849
9.70964
9.49958
9.86535
9.71613
9.70887
8.26313
9.33181
8.86774
9.26053
9.28193
9.34965
9.0643
9.08048
10.5842
10.6177
9.48272
10.1223
9.33108
7.93188
8.09888
9.11255
10.0862
10.4043
10.2494
9.97952
9.75092
10.114
10.1687
10.2287
10.218
8.75151
8.71141
8.31086
13.9684
13.8749
14.0214
14.0266
14.1535
13.9784
13.8155
14.0927
14.147
13.9312
11.0772
11.1361
11.382
12.1286
12.1807
12.0916
11.3363
13.1004
12.756
13.3939
13.3407
13.4131
13.0034
12.8266
13.0969
10.0805
11.4535
10.9863
11.2495
10.063
9.30653
13.2231
13.2773
13.3426
13.6156
13.5736
14.157
15.8299
15.6998
15.7471
15.7901
15.4018
15.4391
4.17547
3.82936
4.55098
4.50649
4.06464
3.76472
2.28666
1.96877
1.78092
1.65615
1.88946
1.95057
8.16233
8.18938
6.33379
7.3553
5.87608
4.93431
4.78971
5.95542
7.13668
7.19554
8.51314
9.18921
8.74837
8.57361
7.91795
8.24752
10.1158
10.2101
10.1107
10.4296
9.96233
11.712
11.2941
11.6431
13.257
12.9667
12.3686
12.2552
12.22
12.813
11.9473
11.179
11.8914
12.5469
12.5051
11.1177
10.8727
11.2994
11.2834
10.1975
10.7177
10.4796
10.8322
10.5475
)
;

boundaryField
{
    wall-4
    {
        type            zeroGradient;
    }
    velocity-inlet-5
    {
        type            zeroGradient;
    }
    velocity-inlet-6
    {
        type            zeroGradient;
    }
    pressure-outlet-7
    {
        type            fixedValue;
        value           uniform 0;
    }
    wall-8
    {
        type            zeroGradient;
    }
    frontAndBackPlanes
    {
        type            empty;
    }
}


// ************************************************************************* //
