/*--------------------------------*- C++ -*----------------------------------*\
  =========                 |
  \\      /  F ield         | OpenFOAM: The Open Source CFD Toolbox
   \\    /   O peration     | Website:  https://openfoam.org
    \\  /    A nd           | Version:  9
     \\/     M anipulation  |
\*---------------------------------------------------------------------------*/
FoamFile
{
    format      ascii;
    class       surfaceScalarField;
    location    "1.61";
    object      alphaPhi0.water;
}
// * * * * * * * * * * * * * * * * * * * * * * * * * * * * * * * * * * * * * //

dimensions      [0 3 -1 0 0 0 0];

internalField   nonuniform List<scalar> 
4432
(
-1.27038e-06
1.27038e-06
-9.09192e-07
-3.61191e-07
1.12878e-07
-1.02207e-06
1.20775e-06
-1.09488e-06
2.24345e-06
-1.0357e-06
3.18464e-06
-9.41187e-07
4.04225e-06
-8.57611e-07
4.8307e-06
-7.88453e-07
5.54013e-06
-7.09431e-07
6.1478e-06
-6.07665e-07
6.6539e-06
-5.06097e-07
7.08206e-06
-4.28165e-07
7.45221e-06
-3.7015e-07
7.75114e-06
-2.98935e-07
7.90803e-06
-1.5689e-07
7.78332e-06
1.24707e-07
7.19928e-06
5.84046e-07
5.48958e-06
1.57924e-06
2.98479e-06
2.50374e-06
-6.10651e-08
3.04522e-06
-2.93119e-06
2.89189e-06
-3.86861e-06
9.53774e-07
-3.86872e-06
-4.44934e-07
1.71531e-06
8.15226e-08
-8.87652e-07
8.33366e-07
-1.77392e-06
1.63573e-06
-1.89724e-06
2.40498e-06
-1.80495e-06
3.12697e-06
-1.66317e-06
3.80727e-06
-1.53791e-06
4.45327e-06
-1.43446e-06
5.05978e-06
-1.31594e-06
5.6153e-06
-1.16318e-06
6.12109e-06
-1.01189e-06
6.58929e-06
-8.9637e-07
7.02309e-06
-8.03951e-07
7.397e-06
-6.72851e-07
7.64837e-06
-4.08264e-07
7.67732e-06
9.57561e-08
7.30536e-06
9.56011e-07
6.29403e-06
2.4679e-06
4.6724e-06
4.12483e-06
2.4434e-06
5.27328e-06
6.58648e-08
5.32183e-06
-1.39348e-06
2.43537e-06
-5.26231e-06
1.89122e-07
1.52619e-06
6.75803e-07
-1.37433e-06
1.25436e-06
-2.35247e-06
1.86306e-06
-2.50594e-06
2.4618e-06
-2.40368e-06
3.04197e-06
-2.24334e-06
3.60707e-06
-2.10301e-06
4.16327e-06
-1.99065e-06
4.70691e-06
-1.85958e-06
5.22883e-06
-1.6851e-06
5.72982e-06
-1.51288e-06
6.21656e-06
-1.38311e-06
6.68408e-06
-1.27147e-06
7.10143e-06
-1.09021e-06
7.40689e-06
-7.1373e-07
7.51024e-06
-7.59529e-09
7.29455e-06
1.1717e-06
6.65626e-06
3.02751e-06
5.64393e-06
5.16391e-06
4.22798e-06
6.8638e-06
2.38095e-06
7.20841e-06
6.13296e-07
4.20304e-06
-4.66676e-06
5.97509e-07
9.28678e-07
1.07176e-06
-1.84859e-06
1.53501e-06
-2.81571e-06
2.00934e-06
-2.98027e-06
2.4843e-06
-2.87864e-06
2.95804e-06
-2.71709e-06
3.43558e-06
-2.58054e-06
3.92492e-06
-2.48e-06
4.42335e-06
-2.358e-06
4.92081e-06
-2.18256e-06
5.4172e-06
-2.00927e-06
5.91693e-06
-1.88284e-06
6.41141e-06
-1.76596e-06
6.86819e-06
-1.54698e-06
7.23014e-06
-1.07568e-06
7.4224e-06
-1.99864e-07
7.37433e-06
1.21967e-06
7.09566e-06
3.30601e-06
6.535e-06
5.74977e-06
5.58935e-06
7.83278e-06
4.14883e-06
8.65166e-06
2.23175e-06
6.12013e-06
-2.48355e-06
8.31736e-07
9.69424e-08
1.3246e-06
-2.34144e-06
1.72139e-06
-3.2125e-06
2.10481e-06
-3.36369e-06
2.4886e-06
-3.26243e-06
2.87941e-06
-3.10791e-06
3.28662e-06
-2.98775e-06
3.72288e-06
-2.91626e-06
4.18639e-06
-2.82152e-06
4.66436e-06
-2.66053e-06
5.15602e-06
-2.50093e-06
5.66611e-06
-2.39293e-06
6.18549e-06
-2.28534e-06
6.68258e-06
-2.04407e-06
7.10651e-06
-1.49961e-06
7.39866e-06
-4.92011e-07
7.51807e-06
1.10027e-06
7.48441e-06
3.33967e-06
7.27266e-06
5.96152e-06
6.74697e-06
8.35838e-06
5.69997e-06
9.69862e-06
3.72487e-06
8.09525e-06
1.23774e-06
9.50756e-07
-8.53812e-07
1.47485e-06
-2.86554e-06
1.84164e-06
-3.57929e-06
2.1677e-06
-3.68974e-06
2.48597e-06
-3.58071e-06
2.81224e-06
-3.43418e-06
3.16195e-06
-3.33746e-06
3.55495e-06
-3.30926e-06
3.99067e-06
-3.25723e-06
4.45197e-06
-3.12183e-06
4.93804e-06
-2.98699e-06
5.45613e-06
-2.91102e-06
5.99866e-06
-2.82787e-06
6.53631e-06
-2.58172e-06
7.02495e-06
-1.98825e-06
7.42032e-06
-8.87381e-07
7.70207e-06
8.18509e-07
7.89604e-06
3.14571e-06
7.98786e-06
5.8697e-06
7.8536e-06
8.49265e-06
7.21372e-06
1.03366e-05
5.27354e-06
1.00343e-05
6.51088e-06
1.00322e-06
-1.85703e-06
1.55951e-06
-3.42182e-06
1.92031e-06
-3.94008e-06
2.21395e-06
-3.98339e-06
2.4871e-06
-3.85387e-06
2.76371e-06
-3.71079e-06
3.06605e-06
-3.6398e-06
3.42319e-06
-3.6664e-06
3.83618e-06
-3.67022e-06
4.28218e-06
-3.56783e-06
4.76086e-06
-3.46567e-06
5.28389e-06
-3.43405e-06
5.84666e-06
-3.39064e-06
6.4228e-06
-3.15786e-06
6.9748e-06
-2.54025e-06
7.47079e-06
-1.38337e-06
7.90724e-06
3.82059e-07
8.31838e-06
2.73457e-06
8.70314e-06
5.48493e-06
8.96806e-06
8.22774e-06
8.84029e-06
1.04637e-05
7.06061e-06
1.18129e-05
1.35713e-05
1.01987e-06
-2.8769e-06
1.61037e-06
-4.01232e-06
1.9786e-06
-4.30831e-06
2.25702e-06
-4.2618e-06
2.50101e-06
-4.09786e-06
2.74017e-06
-3.94996e-06
3.00314e-06
-3.90277e-06
3.3301e-06
-3.99335e-06
3.72411e-06
-4.06424e-06
4.15517e-06
-3.99889e-06
4.62391e-06
-3.93441e-06
5.14806e-06
-3.9582e-06
5.72675e-06
-3.96933e-06
6.33678e-06
-3.7679e-06
6.94704e-06
-3.15051e-06
7.53655e-06
-1.97288e-06
8.11654e-06
-1.97935e-07
8.73753e-06
2.11359e-06
9.41188e-06
4.81059e-06
1.01039e-05
7.5357e-06
1.06333e-05
9.93438e-06
9.75506e-06
1.26912e-05
2.33264e-05
-7.54232e-06
7.54283e-06
-3.66878e-06
-3.87303e-06
5.96175e-06
-9.69752e-06
1.60147e-05
-1.03725e-05
2.4149e-05
-8.27022e-06
2.85433e-05
-4.30947e-06
2.8905e-05
-6.52689e-08
2.73812e-05
1.67147e-06
2.56578e-05
1.72125e-06
2.22142e-05
3.4436e-06
1.57582e-05
6.45597e-06
8.19445e-06
7.56345e-06
1.82806e-06
6.20689e-06
-3.16471e-06
4.96396e-06
-7.35238e-06
4.10657e-06
-1.06969e-05
3.37751e-06
-1.15481e-05
8.84266e-07
-6.98825e-06
-4.45278e-06
-6.90133e-06
-3.86756e-06
1.14146e-05
1.53311e-06
-9.21455e-06
1.00269e-05
-1.82568e-05
1.82272e-05
-1.87636e-05
2.40461e-05
-1.49561e-05
2.75042e-05
-7.70445e-06
2.79013e-05
7.06955e-08
2.68436e-05
3.30468e-06
2.50855e-05
3.47984e-06
2.24785e-05
6.05055e-06
1.74388e-05
1.14954e-05
1.04913e-05
1.45103e-05
4.18502e-06
1.24669e-05
-5.183e-07
9.63848e-06
-4.02674e-06
7.58459e-06
-6.93614e-06
6.30208e-06
-8.67009e-06
2.55447e-06
-6.50894e-06
-6.66925e-06
-1.34239e-05
-5.00223e-07
1.19305e-05
5.16835e-06
-1.49808e-05
1.24253e-05
-2.43438e-05
1.93462e-05
-2.35773e-05
2.49512e-05
-2.01221e-05
2.69868e-05
-1.01059e-05
2.67825e-05
6.64997e-07
2.55893e-05
5.36612e-06
2.34966e-05
5.57289e-06
2.08444e-05
8.70248e-06
1.65338e-05
1.58054e-05
1.09778e-05
2.00663e-05
5.88502e-06
1.74357e-05
1.96842e-06
1.35247e-05
-7.09785e-07
1.0614e-05
-3.24057e-06
8.82255e-06
-5.29522e-06
4.4929e-06
-4.60792e-06
-7.49155e-06
-1.80306e-05
2.39708e-06
9.34931e-06
8.87631e-06
-2.19967e-05
1.50263e-05
-3.23847e-05
2.0458e-05
-3.08998e-05
2.42032e-05
-2.17749e-05
2.60106e-05
-9.68889e-06
2.61256e-05
1.69475e-06
2.4489e-05
7.90913e-06
2.20504e-05
7.88613e-06
1.94389e-05
1.04764e-05
1.53969e-05
1.53748e-05
1.13705e-05
2.40926e-05
7.27042e-06
2.12433e-05
4.13037e-06
1.69962e-05
2.02173e-06
1.27665e-05
-1.67682e-08
1.08719e-05
-1.62319e-06
5.54311e-06
-1.69711e-06
-7.41632e-06
-1.97263e-05
5.44154e-06
4.00545e-06
1.33432e-05
-2.98974e-05
1.95864e-05
-4.03578e-05
2.14458e-05
-3.72003e-05
2.32324e-05
-2.44261e-05
2.3702e-05
-1.0911e-05
2.4928e-05
2.94957e-06
2.28674e-05
1.08746e-05
2.0133e-05
1.05042e-05
1.28134e-05
8.55703e-06
1.03555e-05
1.35481e-05
1.20073e-05
1.89335e-05
8.92263e-06
2.41718e-05
6.08561e-06
1.96688e-05
4.12973e-06
1.45734e-05
2.491e-06
9.90377e-06
1.63307e-06
6.22047e-06
1.27617e-06
-6.69137e-06
-1.84489e-05
9.49026e-06
-5.48573e-06
1.79255e-05
-3.83316e-05
2.28945e-05
-4.53258e-05
2.60253e-05
-4.03301e-05
2.65228e-05
-2.93446e-05
2.23128e-05
-1.30255e-05
2.19083e-05
4.29453e-06
2.10165e-05
1.13488e-05
1.82072e-05
1.32046e-05
1.15649e-05
1.05486e-05
9.38148e-06
1.36369e-05
1.1986e-05
1.41223e-05
1.03841e-05
2.57909e-05
7.89826e-06
2.19739e-05
5.91187e-06
1.63885e-05
4.41646e-06
1.2113e-05
4.16766e-06
6.28575e-06
3.70369e-06
-5.66917e-06
-1.47466e-05
1.53308e-05
-2.08154e-05
2.25954e-05
-4.55952e-05
2.53951e-05
-4.81245e-05
2.68943e-05
-4.18284e-05
2.7778e-05
-3.02266e-05
2.77202e-05
-1.2966e-05
1.46033e-05
5.11886e-06
1.11987e-05
9.25014e-06
1.31356e-05
9.12723e-06
9.97437e-06
1.51125e-05
9.571e-06
1.73927e-05
8.2989e-06
1.51428e-05
1.14779e-05
2.04736e-05
9.62668e-06
2.3654e-05
7.71336e-06
1.81332e-05
6.82065e-06
1.3326e-05
6.34967e-06
7.0167e-06
4.69012e-06
-3.59188e-06
-7.17378e-06
2.23655e-05
-4.31796e-05
2.64936e-05
-4.97221e-05
2.70716e-05
-4.87023e-05
2.71364e-05
-4.18919e-05
2.69278e-05
-3.00163e-05
2.38202e-05
-1.20691e-05
1.2067e-05
4.70069e-06
9.08549e-06
1.10211e-05
9.0819e-06
7.75705e-06
1.08408e-05
1.43178e-05
1.10168e-05
1.73661e-05
6.88488e-06
1.46056e-05
7.57214e-06
1.4726e-05
1.02332e-05
1.45198e-05
9.29511e-06
1.72999e-05
8.26641e-06
1.37957e-05
6.9884e-06
6.50525e-06
2.37504e-06
-2.46556e-07
-2.98369e-06
2.17146e-06
-5.04836e-06
3.5493e-06
-5.39015e-06
4.38665e-06
-5.14567e-06
4.96506e-06
-4.84022e-06
5.43018e-06
-4.56298e-06
5.85072e-06
-4.3705e-06
6.29547e-06
-4.34753e-06
6.90466e-06
-4.60254e-06
7.69586e-06
-4.85545e-06
8.56122e-06
-4.86425e-06
9.51372e-06
-4.88691e-06
1.06193e-05
-5.06378e-06
1.18861e-05
-5.23611e-06
1.32739e-05
-5.15571e-06
1.47395e-05
-4.61617e-06
1.62714e-05
-3.50474e-06
1.79248e-05
-1.85137e-06
1.99247e-05
1.13748e-07
2.22781e-05
2.4572e-06
2.51914e-05
4.62241e-06
2.8827e-05
6.29872e-06
3.43232e-05
6.90338e-06
6.90617e-06
5.0566e-05
2.24347e-06
-7.29156e-06
3.69877e-06
-6.8452e-06
4.61315e-06
-6.05985e-06
5.24942e-06
-5.47636e-06
5.74121e-06
-5.05471e-06
6.14397e-06
-4.77326e-06
6.4512e-06
-4.61692e-06
6.96506e-06
-5.0625e-06
7.73953e-06
-5.59057e-06
8.5223e-06
-5.5694e-06
9.40364e-06
-5.6958e-06
1.04826e-05
-6.13174e-06
1.17373e-05
-6.49111e-06
1.31423e-05
-6.56092e-06
1.47213e-05
-6.19462e-06
1.6527e-05
-5.309e-06
1.86868e-05
-4.00888e-06
2.12945e-05
-2.49091e-06
2.46468e-05
-8.93129e-07
2.88354e-05
4.33845e-07
3.39927e-05
1.14139e-06
4.01843e-05
3.59999e-07
-2.66806e-06
4.95572e-05
1.39547e-06
-2.21931e-06
2.33354e-06
-2.2074e-06
3.0141e-06
-1.93387e-06
3.44545e-06
-1.64053e-06
3.71981e-06
-1.3937e-06
3.86179e-06
-1.19717e-06
3.90847e-06
-1.09055e-06
4.17215e-06
-1.20806e-06
4.60588e-06
-1.36167e-06
4.93353e-06
-1.33172e-06
5.5856e-06
-1.39335e-06
6.60444e-06
-7.5676e-07
7.663e-06
-1.67362e-06
8.82508e-06
-1.81185e-06
1.03695e-05
-1.99868e-06
1.25123e-05
-2.14734e-06
1.54655e-05
-2.24256e-06
1.9396e-05
-2.32998e-06
2.4348e-05
-2.44254e-06
3.01565e-05
-2.68207e-06
3.66017e-05
-3.37084e-06
4.38267e-05
-5.14462e-06
-8.40735e-06
5.16928e-05
-1.43735e-08
-1.52905e-12
3.73087e-08
-5.02206e-11
7.98576e-08
-2.95536e-09
8.01965e-08
-3.76177e-08
5.81702e-08
-4.35102e-08
4.20956e-08
-1.96193e-08
4.5792e-08
-1.76565e-08
3.58492e-08
-9.61929e-12
2.11585e-08
-7.78234e-10
1.41395e-08
-8.45173e-09
1.75272e-08
-1.74602e-08
1.62044e-08
-2.25777e-08
3.64236e-08
-1.75393e-08
1.20524e-07
-4.04632e-09
3.01437e-07
-5.35943e-09
6.22426e-07
-5.94822e-08
1.22409e-06
-1.00623e-07
2.34698e-06
-6.9255e-08
4.29357e-06
-4.2421e-08
7.24607e-06
-6.32562e-08
1.11411e-05
-2.27949e-07
1.47119e-05
-2.48745e-07
-3.49449e-07
1.64317e-05
-2.87989e-13
-2.17601e-12
-1.59647e-11
-3.55006e-11
-1.34549e-10
-2.83942e-09
-8.73123e-11
-3.77446e-08
1.07012e-10
-4.89625e-08
5.17611e-10
-4.01293e-08
5.74792e-11
-1.78367e-08
-1.25476e-11
6.30383e-12
-8.44823e-10
0
-9.62071e-09
-1.81405e-08
-1.21855e-08
-8.26865e-08
-3.03986e-09
-1.05743e-07
1.42805e-09
-5.04446e-08
-1.15804e-11
-6.67968e-09
5.60611e-11
-9.26664e-09
1.82889e-09
-6.5328e-08
4.6879e-09
-1.08526e-07
7.4421e-09
-7.7993e-08
1.01836e-08
-5.13006e-08
1.45314e-08
-7.38263e-08
2.34855e-08
-2.43349e-07
3.58547e-08
-2.67839e-07
-3.74033e-07
5.31589e-08
-4.91883e-12
1.80788e-12
0
-1.35569e-10
-6.87906e-09
-1.18231e-08
-1.659e-08
-3.74488e-08
-1.66083e-08
-1.41137e-08
-1.74246e-08
-4.45836e-09
-7.27448e-10
-2.69155e-11
-7.97231e-10
2.19831e-11
-5.37979e-09
3.74754e-10
-9.39606e-08
-2.20166e-09
-1.09992e-07
-1.29952e-08
-9.44967e-08
-6.75774e-08
-6.89814e-08
-8.66832e-08
-3.12518e-08
2.20195e-09
-4.79676e-08
-1.0731e-08
-9.96476e-08
-1.10414e-07
-1.34726e-07
-1.26846e-07
-8.87728e-08
-1.17869e-07
-4.88979e-08
-9.2467e-08
-5.01285e-08
-6.94837e-08
-2.41196e-08
-2.42668e-07
8.16524e-08
-3.84372e-07
-4.59964e-07
2.96065e-07
-1.25845e-11
1.03106e-11
-1.07589e-08
1.76238e-12
-8.54532e-09
-1.76335e-09
-3.1906e-09
-1.88735e-12
-1.73815e-09
-4.52049e-14
-2.66832e-12
-4.13589e-12
-2.94889e-11
-2.82426e-13
-3.4743e-11
6.15579e-12
-1.51052e-11
0
-2.20956e-09
-4.11197e-12
-5.14133e-08
-1.50746e-11
-8.27681e-08
-5.28135e-10
-5.29022e-08
-1.39369e-08
-1.09822e-08
2.99497e-10
-1.94112e-07
-1.00893e-08
-2.08391e-07
-3.44803e-08
-2.11554e-07
-6.14626e-08
-2.08457e-07
-5.87474e-08
-1.95387e-07
-4.33174e-08
-8.081e-08
-1.12056e-08
-1.37959e-07
-7.20192e-08
-7.21952e-08
-1.34798e-07
-1.94761e-07
-2.20605e-08
-8.42102e-12
3.99077e-12
-5.03145e-10
2.85561e-11
-4.88747e-14
-3.30874e-11
-3.00283e-14
-1.99735e-12
-8.44349e-14
-8.20384e-14
-2.63406e-12
-1.67743e-12
-3.0782e-12
-6.83758e-14
-1.96413e-12
0
-1.12271e-12
0
-3.8557e-13
-1.9189e-12
-8.03967e-12
-7.34444e-12
-5.36461e-10
-2.41623e-14
-1.44335e-08
-4.99396e-11
-1.36245e-08
8.45968e-10
-2.97485e-08
-1.06255e-13
-8.52321e-08
-5.19136e-12
-1.35494e-07
-1.78472e-10
-9.53078e-08
-3.76699e-09
-1.89599e-08
-5.80712e-09
-3.83388e-08
-5.44078e-08
-1.16234e-10
-2.59618e-07
-7.81344e-08
-2.7384e-07
-6.72709e-08
-4.9198e-09
1.68152e-13
2.35157e-12
-4.56059e-13
0
-1.47968e-12
-3.87449e-11
-1.3484e-13
-1.00612e-11
-3.31346e-13
-6.22576e-15
-2.13374e-12
-6.25323e-13
-8.6513e-13
-1.92977e-13
-5.30808e-14
5.7259e-13
-1.66183e-11
1.56905e-12
-1.63344e-11
-1.10438e-12
-5.9322e-14
-3.85632e-12
-1.10671e-12
-6.17795e-13
-5.79013e-11
-1.71663e-15
-3.45255e-15
6.77016e-14
-1.19815e-13
1.21407e-18
-5.31681e-12
-2.17233e-14
-1.83636e-10
-7.05839e-13
-3.96338e-09
-4.16453e-12
-9.28714e-09
-8.8399e-10
-2.57142e-07
-1.18965e-07
-4.75141e-07
-7.19444e-07
-1.47375e-07
-7.71589e-07
-1.99421e-07
-2.11041e-08
2.39099e-13
4.55567e-13
-1.0039e-11
0
-1.08805e-11
5.80777e-13
-1.38653e-12
-1.04994e-14
-1.38553e-12
-1.63815e-15
-2.76859e-12
-1.23284e-16
-6.5539e-13
-9.49597e-15
-7.13525e-13
3.12191e-14
-1.96278e-11
3.66723e-13
-1.92876e-11
-3.46161e-13
-1.46895e-11
-2.84694e-12
-6.51656e-14
-4.75792e-19
-6.72107e-14
9.07256e-23
-2.1161e-15
0
-3.17448e-15
1.63218e-16
-5.42688e-14
1.21139e-14
-2.09474e-12
5.91977e-13
-4.75393e-11
1.52905e-11
-1.43261e-09
-1.10358e-10
-5.19808e-07
-4.03963e-08
-5.21194e-07
-5.29197e-07
-2.83525e-07
-8.07937e-07
-4.879e-07
-8.37859e-09
4.57833e-14
5.61447e-14
-1.04822e-12
6.8769e-13
-4.03415e-15
0
-4.00867e-15
1.39215e-17
-8.78111e-17
-6.65019e-18
-2.5857e-16
-3.55322e-18
-9.69229e-15
7.29163e-24
0
0
-4.90575e-12
-1.84816e-17
-6.22057e-12
-1.67143e-17
-3.4234e-18
-6.58007e-18
-9.20769e-18
-3.42599e-19
-9.07968e-17
7.14958e-19
-9.00593e-17
1.38892e-18
-9.47881e-18
1.09787e-17
0
1.98849e-16
0
8.45951e-15
0
1.01857e-13
-1.3845e-10
-9.57045e-12
-7.53757e-08
-3.18657e-09
-5.12887e-07
-3.32226e-07
-4.65433e-07
-6.56241e-07
-6.54986e-07
-4.05856e-10
3.49698e-16
2.73689e-14
-4.36799e-14
1.19038e-12
-1.08765e-14
2.81159e-14
-1.01231e-15
7.04619e-16
-9.84979e-17
1.18724e-16
-9.61396e-17
1.1137e-17
-1.26681e-17
4.68597e-18
-8.45252e-18
1.42278e-19
-8.18326e-18
-1.20117e-17
-8.08436e-18
-1.35474e-17
-8.37057e-18
-3.87356e-18
-6.46377e-18
1.67996e-19
-6.64439e-18
1.0272e-18
-1.45314e-17
2.42051e-18
-2.24694e-17
1.15885e-17
0
1.48058e-17
-4.53429e-14
1.37811e-16
-5.31392e-14
0
-2.99961e-13
-2.46384e-13
-3.18382e-09
-1.9574e-12
-2.71823e-07
-1.77195e-10
-4.35683e-07
-7.35979e-09
-1.34817e-07
-2.68012e-10
-2.90839e-14
2.79508e-14
-2.8681e-14
2.8785e-13
-1.30189e-15
6.73434e-16
-9.58069e-16
8.2502e-16
-1.08955e-15
5.16724e-16
-8.0012e-16
2.74541e-16
-7.26966e-16
1.00242e-16
-5.79831e-16
3.19077e-17
-2.75347e-16
-9.82895e-18
-8.54391e-17
-1.24917e-17
-7.68767e-18
-2.13965e-18
8.20484e-18
1.735e-20
8.45635e-18
-1.49073e-18
2.35463e-18
-3.18974e-18
-2.2156e-18
-1.4135e-18
-1.16702e-17
1.7965e-18
-3.97796e-16
8.43836e-18
-3.77905e-14
2.42576e-17
-4.86728e-14
-1.83462e-14
-1.38367e-12
-3.88604e-13
-1.72618e-10
-4.86321e-12
-7.531e-09
-1.63417e-12
-2.06247e-10
-3.1974e-10
-3.65426e-15
1.50773e-14
-3.16023e-16
8.1135e-16
-3.11976e-16
6.28665e-16
-4.49066e-16
5.21219e-16
-5.91272e-16
3.75262e-16
-6.80443e-16
2.39335e-16
-7.22924e-16
1.5723e-16
-5.9879e-16
6.03124e-17
-3.22329e-16
-1.12262e-18
-9.19373e-17
-9.86264e-18
5.85467e-18
-1.53587e-18
1.87057e-17
-1.57579e-19
1.94564e-17
-3.066e-18
1.1699e-17
-7.10222e-18
2.3459e-18
-7.3107e-18
-6.82623e-19
-2.18218e-18
-1.72175e-18
8.91451e-21
0
4.04039e-19
-2.79534e-14
-3.18122e-19
-1.4822e-13
-1.47837e-12
-3.34453e-13
-1.0033e-11
-2.28945e-12
-1.61158e-12
-1.67137e-12
-2.06833e-10
-1.22396e-16
4.35316e-15
-1.38634e-16
7.74402e-16
-2.53263e-16
7.02766e-16
-3.55734e-16
6.09723e-16
-4.25333e-16
4.52114e-16
-4.55769e-16
2.85659e-16
-4.64726e-16
1.55818e-16
-4.16495e-16
6.33997e-17
-2.41526e-16
8.22038e-18
-5.32825e-17
-6.65229e-18
1.23178e-17
-1.01926e-18
2.4888e-17
1.13149e-19
2.57727e-17
-2.75982e-18
1.75484e-17
-7.65733e-18
6.42457e-18
-9.87353e-18
-3.90513e-21
-6.02002e-18
-3.52027e-20
5.94902e-21
2.52438e-19
1.91243e-19
1.94978e-17
-1.85447e-17
-1.46988e-13
-2.31156e-13
-2.64868e-13
-9.07974e-13
-1.39816e-13
-2.21783e-12
-1.81113e-12
-1.61425e-16
-5.84575e-17
9.49549e-16
-1.22924e-16
8.21726e-16
-2.14369e-16
7.73965e-16
-2.95974e-16
6.77493e-16
-3.55854e-16
5.16845e-16
-3.77145e-16
3.43011e-16
-3.67718e-16
1.89175e-16
-3.10017e-16
7.91755e-17
-1.66485e-16
1.53805e-17
-3.03772e-17
-3.03159e-18
1.55796e-17
3.87142e-20
2.72201e-17
1.11493e-18
2.84303e-17
-7.26164e-19
2.08513e-17
-5.04211e-18
9.83579e-18
-8.4925e-18
1.67619e-18
-7.58192e-18
-1.11171e-18
-2.77585e-18
-8.35101e-22
-5.75537e-23
3.94674e-16
-9.44073e-18
9.38267e-15
-1.10328e-18
-2.26969e-13
-4.3612e-17
-4.02303e-13
-5.52234e-16
-2.05957e-15
-2.14374e-15
-4.33318e-17
7.20679e-16
-9.66842e-17
8.58594e-16
-1.60558e-16
8.12646e-16
-2.18471e-16
6.98414e-16
-2.6507e-16
5.42069e-16
-2.79198e-16
3.78692e-16
-2.43196e-16
1.99841e-16
-1.71982e-16
7.49656e-17
-7.98587e-17
1.46062e-17
3.81151e-19
-1.06459e-18
1.51477e-17
2.47283e-19
2.46041e-17
2.01363e-18
2.61066e-17
2.28828e-18
1.98058e-17
-3.59336e-20
9.70502e-18
-2.96256e-18
1.07809e-18
-3.53587e-18
-4.6942e-18
-9.61747e-19
-4.21971e-18
4.01637e-18
2.84682e-18
7.32231e-18
2.43988e-21
1.7411e-18
-2.69621e-17
-1.6601e-17
-1.18809e-17
-1.6672e-16
-1.25796e-18
-2.0702e-15
-2.50556e-17
6.99037e-16
-5.72243e-17
8.56203e-16
-9.0195e-17
7.88e-16
-1.2154e-16
6.45635e-16
-1.50855e-16
4.95079e-16
-1.65024e-16
3.44878e-16
-1.39633e-16
1.95602e-16
-8.66574e-17
7.1504e-17
-3.49963e-17
1.38433e-17
1.50517e-18
-9.506e-20
1.06063e-17
3.35949e-19
1.71944e-17
2.29542e-18
1.85354e-17
4.23088e-18
1.39172e-17
4.70423e-18
5.82849e-18
3.96847e-18
-2.26511e-18
3.78615e-18
-8.40922e-18
5.59158e-18
-9.48945e-18
9.10205e-18
-5.77723e-18
1.22474e-17
-5.01736e-19
1.1983e-17
9.59555e-20
6.57029e-18
-2.42761e-21
1.43148e-18
1.2738e-19
-1.38777e-18
-3.16502e-19
6.5407e-16
-6.55921e-18
7.67712e-16
-1.58605e-17
6.80589e-16
-2.78122e-17
5.26347e-16
-4.03351e-17
3.79985e-16
-4.88433e-17
2.45094e-16
-4.6231e-17
1.32967e-16
-2.89565e-17
5.29115e-17
-1.03253e-17
1.04263e-17
1.03235e-18
2.28639e-19
4.82125e-18
2.59955e-19
7.90948e-18
1.93251e-18
8.24204e-18
4.45292e-18
5.01528e-18
6.54027e-18
-4.76721e-19
7.62927e-18
-6.66607e-18
8.32333e-18
-1.10938e-17
9.45678e-18
-1.19152e-17
1.1163e-17
-9.12146e-18
1.268e-17
-4.38112e-18
1.27678e-17
-6.4877e-19
1.03099e-17
1.26385e-20
5.6495e-18
8.27101e-19
-1.95282e-20
2.12404e-17
5.50101e-16
3.71922e-17
5.89186e-16
4.17744e-17
5.02933e-16
3.69865e-17
3.68076e-16
2.78995e-17
2.41919e-16
1.68257e-17
1.36758e-16
7.23387e-18
6.18117e-17
1.70892e-18
2.11964e-17
-4.40831e-20
4.53745e-18
6.45829e-20
1.87145e-19
3.51422e-19
1.47615e-19
3.60015e-19
1.30148e-18
-5.04411e-19
3.49482e-18
-2.74207e-18
5.81681e-18
-6.31858e-18
7.50052e-18
-9.99157e-18
8.48039e-18
-1.22491e-17
9.09439e-18
-1.21623e-17
9.54228e-18
-9.7869e-18
9.69241e-18
-6.04437e-18
9.25994e-18
-2.32516e-18
8.05382e-18
-1.01543e-19
5.89985e-18
3.33673e-18
3.12726e-20
3.26926e-17
3.81951e-16
5.60524e-17
3.70229e-16
6.6615e-17
2.98864e-16
5.83508e-17
2.05729e-16
4.3988e-17
1.18669e-16
2.74333e-17
5.56891e-17
1.33162e-17
1.95476e-17
5.00947e-18
4.85955e-18
1.32282e-18
8.0154e-19
5.43368e-19
2.97102e-20
-4.03446e-19
8.50376e-20
-1.77686e-18
7.62487e-19
-3.88481e-18
2.20277e-18
-6.43704e-18
3.94083e-18
-8.94619e-18
5.3364e-18
-1.07606e-17
6.10469e-18
-1.13322e-17
6.33004e-18
-1.04663e-17
6.18312e-18
-8.41485e-18
5.75495e-18
-5.77252e-18
5.09379e-18
-3.20449e-18
4.36206e-18
-1.1751e-18
3.43157e-18
2.38574e-18
-6.7681e-20
2.87979e-17
1.75853e-16
4.73558e-17
1.65393e-16
5.19264e-17
1.24712e-16
4.2206e-17
7.76765e-17
2.68374e-17
3.70116e-17
1.33407e-17
1.3175e-17
4.91998e-18
3.29692e-18
1.35982e-18
5.64228e-19
1.96585e-19
5.01203e-20
1.32553e-20
1.91074e-21
-5.54539e-19
5.69568e-20
-2.09206e-18
4.14043e-19
-4.29323e-18
1.15767e-18
-6.54148e-18
2.13352e-18
-8.20158e-18
2.95674e-18
-8.90758e-18
3.37964e-18
-8.61197e-18
3.40157e-18
-7.49634e-18
3.14095e-18
-5.88164e-18
2.71656e-18
-4.1529e-18
2.21564e-18
-2.68476e-18
1.75053e-18
-1.48851e-18
1.38025e-18
1.00605e-18
-6.4549e-19
1.21099e-17
3.25303e-17
2.15562e-17
3.65068e-17
2.16512e-17
2.63124e-17
1.5301e-17
1.42912e-17
7.43402e-18
5.20282e-18
2.59644e-18
1.25593e-18
6.57676e-19
2.0558e-19
1.04317e-19
2.12667e-20
3.24271e-20
1.04281e-20
-1.25093e-19
-1.40223e-20
-6.5078e-19
2.92293e-20
-1.7066e-18
2.0458e-19
-3.1637e-18
5.40221e-19
-4.64611e-18
9.54471e-19
-5.5888e-18
1.30013e-18
-5.76125e-18
1.4658e-18
-5.26896e-18
1.43489e-18
-4.36428e-18
1.26326e-18
-3.30753e-18
1.02495e-18
-2.30421e-18
7.77269e-19
-1.52033e-18
5.55066e-19
-9.83003e-19
4.09713e-19
3.01928e-19
-5.78228e-19
1.56284e-18
1.21127e-18
3.78213e-18
2.26675e-18
3.67887e-18
1.66261e-18
2.15912e-18
7.9353e-19
7.3663e-19
2.13794e-19
1.66411e-19
3.37885e-20
2.50887e-20
3.48004e-21
1.05958e-20
4.56564e-21
-1.81447e-20
-4.54671e-21
-1.51375e-19
-1.36454e-20
-5.05225e-19
1.28927e-20
-1.11792e-18
8.564e-20
-1.87572e-18
2.12323e-19
-2.54947e-18
3.56599e-19
-2.91885e-18
4.65306e-19
-2.89433e-18
5.04105e-19
-2.54368e-18
4.73575e-19
-2.02027e-18
3.98278e-19
-1.47296e-18
3.06931e-19
-9.97268e-19
2.20192e-19
-6.33218e-19
1.48427e-19
-4.16299e-19
9.73164e-20
6.63072e-20
-2.75793e-19
4.29284e-20
7.49902e-21
1.76743e-19
2.72061e-20
1.80854e-19
2.148e-20
8.82125e-20
9.55849e-21
2.13063e-20
2.09014e-21
3.05255e-21
2.5169e-22
1.57789e-21
1.17018e-23
-8.2171e-22
-2.85693e-22
-2.2642e-20
-4.53215e-21
-1.04929e-19
-7.28168e-21
-2.87811e-19
5.34228e-21
-5.67314e-19
3.03662e-20
-8.75491e-19
6.9238e-20
-1.11163e-18
1.08786e-19
-1.20013e-18
1.33924e-19
-1.13018e-18
1.37461e-19
-9.48886e-19
1.22451e-19
-7.23924e-19
9.74834e-20
-5.10051e-19
7.08975e-20
-3.36316e-19
4.78616e-20
-2.09793e-19
3.03157e-20
-1.28751e-19
1.81338e-20
1.08464e-20
-8.35987e-20
3.71065e-22
2.70539e-23
2.25888e-21
1.09882e-22
2.4722e-21
8.77407e-23
1.07775e-21
3.8324e-23
2.11928e-22
8.10956e-24
1.95792e-23
7.80054e-25
1.01592e-23
4.32041e-24
-1.79405e-21
-5.05344e-22
-1.42998e-20
-2.24356e-21
-5.2284e-20
-2.42482e-21
-1.25327e-19
2.05698e-21
-2.24142e-19
8.97003e-21
-3.19372e-19
1.8304e-20
-3.78143e-19
2.64284e-20
-3.83317e-19
3.02328e-20
-3.40784e-19
2.90018e-20
-2.71339e-19
2.42087e-20
-1.97092e-19
1.8067e-20
-1.32714e-19
1.23062e-20
-8.39891e-20
7.76986e-21
-5.05406e-20
4.5983e-21
-2.92051e-20
2.56989e-21
1.36367e-21
-1.7246e-20
2.33845e-24
1.57661e-23
1.50054e-23
5.41962e-23
1.51284e-23
4.14514e-23
6.49605e-24
1.7888e-23
1.10077e-24
3.85123e-24
7.8296e-25
3.85059e-25
-3.75422e-23
-1.29606e-23
-1.07644e-21
-2.3871e-22
-6.24308e-21
-7.14105e-22
-1.93817e-20
-3.69789e-22
-4.15488e-20
6.67189e-22
-6.78071e-20
2.1342e-21
-8.90806e-20
3.79954e-21
-9.78903e-20
4.95221e-21
-9.25705e-20
5.18586e-21
-7.71111e-20
4.58817e-21
-5.77411e-20
3.54712e-21
-3.95683e-20
2.45679e-21
-2.52068e-20
1.55405e-21
-1.51327e-20
9.11143e-22
-8.6625e-21
5.00644e-22
-4.77603e-21
2.59811e-22
1.27975e-22
-2.56011e-21
-4.47078e-24
-1.31885e-23
-4.53887e-24
-7.34894e-24
-4.36647e-24
-4.64356e-24
-5.08235e-24
-3.83794e-24
-5.68111e-24
-3.11543e-24
-5.71225e-24
-2.24575e-24
-2.99632e-23
-8.02584e-24
-4.12158e-22
-6.66628e-23
-1.94014e-21
-1.33711e-22
-5.28558e-21
1.47606e-23
-1.02548e-20
1.6404e-22
-1.52781e-20
3.90146e-22
-1.84312e-20
5.95131e-22
-1.86789e-20
6.89025e-22
-1.63539e-20
6.51137e-22
-1.26586e-20
5.24529e-22
-8.83654e-21
3.7126e-22
-5.66062e-21
2.36215e-22
-3.37878e-21
1.37525e-22
-1.90441e-21
7.42907e-23
-1.0254e-21
3.76335e-23
-5.32693e-22
1.80153e-23
8.19078e-24
-2.69248e-22
-2.02765e-24
-4.71148e-24
-4.71094e-24
-6.00627e-24
-5.75425e-24
-4.80815e-24
-5.74428e-24
-3.38058e-24
-5.13987e-24
-2.16116e-24
-4.28198e-24
-1.25233e-24
-1.1848e-23
-2.22338e-24
-1.05752e-22
-1.03284e-23
-4.24429e-22
-7.61491e-24
-1.04075e-21
8.13371e-24
-1.83082e-21
2.84209e-23
-2.48169e-21
5.19867e-23
-2.73201e-21
6.7234e-23
-2.53378e-21
6.82013e-23
-2.03647e-21
5.73967e-23
-1.45172e-21
4.15835e-23
-9.36136e-22
2.66439e-23
-5.55429e-22
1.54142e-23
-3.07737e-22
8.18452e-24
-1.61289e-22
4.04042e-24
-8.08721e-23
1.87313e-24
-3.91735e-23
8.21512e-25
3.42507e-25
-1.84827e-23
-4.38217e-25
-7.0577e-25
-1.43204e-24
-1.28536e-24
-1.95258e-24
-1.15266e-24
-1.95496e-24
-8.0352e-25
-1.66095e-24
-4.72632e-25
-1.28737e-24
-2.38032e-25
-2.72466e-24
-2.74588e-25
-1.82791e-23
-4.86198e-25
-6.48224e-23
3.01716e-25
-1.4462e-22
1.50804e-24
-2.29446e-22
3.31116e-24
-2.80857e-22
4.79649e-24
-2.7961e-22
5.22716e-24
-2.35066e-22
4.59272e-24
-1.71779e-22
3.40114e-24
-1.11702e-22
2.19099e-24
-6.59097e-23
1.2574e-24
-3.58809e-23
6.54982e-25
-1.82828e-23
3.14327e-25
-8.82895e-24
1.40638e-25
-4.085e-24
5.92184e-26
-1.82805e-24
2.36301e-26
8.97295e-27
-7.97589e-25
-6.328e-26
-5.10368e-26
-2.39011e-25
-1.1492e-25
-3.33563e-25
-1.07383e-25
-3.32373e-25
-7.22893e-26
-2.76942e-25
-3.7693e-26
-2.09024e-25
-1.39149e-26
-3.90898e-25
-1.55867e-27
-2.1639e-24
1.07531e-26
-6.94778e-24
6.04641e-26
-1.38419e-23
1.55329e-25
-1.95887e-23
2.50871e-25
-2.13933e-23
2.92886e-25
-1.90345e-23
2.6773e-25
-1.43443e-23
2.01853e-25
-9.43098e-24
1.30201e-25
-5.53845e-24
7.38331e-26
-2.96167e-24
3.75911e-26
-1.46564e-24
1.74735e-26
-6.80578e-25
7.51625e-27
-3.00131e-25
3.02466e-27
-1.27024e-25
1.14856e-27
-5.20685e-26
4.14209e-28
1.40974e-28
-2.08248e-26
-6.99926e-27
6.99756e-29
-2.71761e-26
-5.15483e-28
-3.68528e-26
-9.17095e-28
-3.58263e-26
-1.03495e-28
-2.92594e-26
7.65154e-29
-2.17536e-26
1.24367e-28
-3.80998e-26
3.1644e-28
-1.81633e-25
1.72684e-27
-5.1013e-25
5.28831e-27
-8.91073e-25
9.63528e-27
-1.10595e-24
1.20802e-26
-1.06104e-24
1.146e-26
-8.32358e-25
8.75517e-27
-5.55654e-25
5.6237e-27
-3.25203e-25
3.13354e-27
-1.7078e-25
1.5509e-27
-8.19956e-26
6.94572e-28
-3.65582e-26
2.85696e-28
-1.53388e-26
1.0925e-28
-6.12645e-27
3.92266e-29
-2.35292e-27
1.33304e-29
-8.76535e-28
4.30561e-30
7.86643e-31
-3.1579e-28
-6.55102e-28
6.51034e-29
-2.46689e-27
1.07016e-28
-3.14102e-27
7.85317e-29
-2.9145e-27
5.23712e-29
-2.30531e-27
3.47821e-29
-1.66493e-27
2.33166e-29
-2.66608e-27
3.48892e-29
-1.05333e-26
1.2193e-28
-2.52227e-26
2.67376e-28
-3.77554e-26
3.70607e-28
-4.0282e-26
3.68073e-28
-3.34088e-26
2.84839e-28
-2.28085e-26
1.8141e-28
-1.33389e-26
9.87311e-29
-6.88037e-27
4.71885e-29
-3.2011e-27
2.02224e-29
-1.36762e-27
7.89904e-30
-5.4457e-28
2.85002e-30
-2.04667e-28
9.60352e-31
-7.34037e-29
3.04987e-31
-2.53663e-29
9.19504e-32
-8.50256e-30
2.4881e-32
-3.75516e-31
-1.65071e-30
-5.15675e-29
8.64135e-30
-1.86575e-28
1.42466e-29
-2.20302e-28
9.79621e-30
-1.89754e-28
5.76964e-30
-1.39227e-28
3.22517e-30
-9.31405e-29
1.7753e-30
-1.31211e-28
2.05885e-30
-4.19379e-28
5.1731e-30
-8.31661e-28
8.51637e-30
-1.0413e-27
9.16918e-30
-9.38397e-28
7.27459e-30
-6.63941e-28
4.59814e-30
-3.9019e-28
2.43373e-30
-1.97953e-28
1.11566e-30
-8.91464e-29
4.53866e-31
-3.6403e-29
1.66911e-31
-1.37099e-29
5.63073e-32
-4.82955e-30
1.76352e-32
-1.61056e-30
5.17944e-33
-5.13823e-31
1.43859e-33
-1.58269e-31
3.79677e-34
-4.46116e-32
-3.14002e-34
-2.16331e-31
1.29e-30
-3.27893e-30
7.42134e-31
-1.11264e-29
1.1515e-30
-1.20048e-29
7.20449e-31
-9.43665e-30
3.77497e-31
-6.30424e-30
1.83699e-31
-3.82572e-30
8.64431e-32
-4.61144e-30
8.01103e-32
-1.15544e-29
1.47189e-31
-1.84586e-29
1.83549e-31
-1.89737e-29
1.54511e-31
-1.42549e-29
9.81023e-32
-8.51213e-30
5.05121e-32
-4.26325e-30
2.20781e-32
-1.85755e-30
8.44671e-33
-7.22899e-31
2.89143e-33
-2.56361e-31
9.00501e-34
-8.41803e-32
2.58572e-34
-2.59378e-32
6.92122e-35
-7.58567e-33
1.74319e-35
-2.12713e-33
4.16438e-36
-5.75832e-34
8.30995e-37
1.56911e-33
-1.64422e-34
-5.77287e-32
4.24141e-31
-1.69033e-31
4.8805e-32
-5.28934e-31
6.93576e-32
-5.1565e-31
3.88099e-32
-3.64782e-31
1.79189e-32
-2.18133e-31
7.56141e-33
-1.17684e-31
3.03794e-33
-1.18508e-31
2.26438e-33
-2.26986e-31
3.05387e-33
-2.86114e-31
2.88724e-33
-2.38242e-31
1.89679e-33
-1.47563e-31
9.5743e-34
-7.35484e-32
3.97135e-34
-3.10253e-32
1.41254e-34
-1.14623e-32
4.43267e-35
-3.80165e-33
1.25246e-35
-1.15347e-33
3.23602e-36
-3.25052e-34
7.7408e-37
-8.61661e-35
1.73213e-37
-2.17252e-35
3.65815e-38
-5.26192e-36
7.34873e-39
-1.08051e-36
-7.14749e-38
2.80937e-34
-3.14605e-35
-9.17878e-33
8.89495e-32
-7.00388e-33
2.6448e-33
-2.00991e-32
3.38546e-33
-1.76353e-32
1.66802e-33
-1.11315e-32
6.7058e-34
-5.8792e-33
2.42846e-34
-2.77185e-33
8.24672e-35
-2.30493e-33
4.98715e-35
-3.33053e-33
4.9975e-35
-3.26841e-33
3.55448e-35
-2.17641e-33
1.79558e-35
-1.09502e-33
7.07124e-36
-4.47876e-34
2.31161e-36
-1.5615e-34
6.52858e-37
-4.7932e-35
1.63619e-37
-1.32613e-35
3.70902e-38
-3.36691e-36
7.71642e-39
-7.95942e-37
1.4907e-39
-1.77373e-37
2.70075e-40
-3.76677e-38
4.62871e-41
-7.69834e-39
7.53489e-42
1.61552e-37
-2.16783e-38
4.02841e-35
-3.31701e-36
-7.6139e-34
1.09989e-32
-2.18658e-34
1.23523e-34
-5.97831e-34
1.40814e-34
-4.79928e-34
6.01713e-35
-2.70971e-34
2.08585e-35
-1.25532e-34
6.41589e-36
-5.1047e-35
1.81781e-36
-3.51347e-35
9.13027e-37
-3.8477e-35
6.86807e-37
-2.89566e-35
3.62788e-37
-1.50954e-35
1.373e-37
-6.02267e-36
4.07954e-38
-1.96937e-36
1.01165e-38
-5.51947e-37