/*--------------------------------*- C++ -*----------------------------------*\
  =========                 |
  \\      /  F ield         | OpenFOAM: The Open Source CFD Toolbox
   \\    /   O peration     | Website:  https://openfoam.org
    \\  /    A nd           | Version:  9
     \\/     M anipulation  |
\*---------------------------------------------------------------------------*/
FoamFile
{
    format      ascii;
    class       volScalarField;
    location    "1.61";
    object      nut;
}
// * * * * * * * * * * * * * * * * * * * * * * * * * * * * * * * * * * * * * //

dimensions      [0 2 -1 0 0 0 0];

internalField   nonuniform List<scalar> 
2268
(
4.23794e-05
5.09404e-05
6.33976e-05
7.16131e-05
7.75605e-05
8.21899e-05
8.58897e-05
8.88492e-05
9.11537e-05
9.28965e-05
9.42286e-05
9.52807e-05
9.60887e-05
9.65785e-05
9.65789e-05
9.59131e-05
9.45607e-05
9.20744e-05
8.86541e-05
8.42632e-05
7.77624e-05
6.66672e-05
4.59442e-05
9.32942e-05
0.000427038
0.000582838
0.000679454
0.000748567
0.00080074
0.000841657
0.000874423
0.000900751
0.00092193
0.000939227
0.000953391
0.000964262
0.000970884
0.00097162
0.000961561
0.000935098
0.000885489
0.000825494
0.000759683
0.000681989
0.000546507
0.000148823
0.000110823
0.000718819
0.00106658
0.0012907
0.00145014
0.00156994
0.00166354
0.00173851
0.00179899
0.0018479
0.00188793
0.00192072
0.00194603
0.00196183
0.00196445
0.00194634
0.0018966
0.00180729
0.0016843
0.0015285
0.00131801
0.000957641
0.000180596
0.000125855
0.000906151
0.00142527
0.00177041
0.00201834
0.00220543
0.00235179
0.00246902
0.00256369
0.00264029
0.00270283
0.00275384
0.00279339
0.00281904
0.00282593
0.00280551
0.00274383
0.00263267
0.0024672
0.00223467
0.00188738
0.00128251
0.000208912
0.000138399
0.00103737
0.00169551
0.00214547
0.00247269
0.0027213
0.00291641
0.00307296
0.0031996
0.00330221
0.00338594
0.00345425
0.00350777
0.00354422
0.0035584
0.00354127
0.00347826
0.00335904
0.00316897
0.00287784
0.00240652
0.00156664
0.000235093
0.000149599
0.00113848
0.00190731
0.00244517
0.00284093
0.00314376
0.00338246
0.00357451
0.00373028
0.00385686
0.00396039
0.00404524
0.00411284
0.00416146
0.00418608
0.00417765
0.0041216
0.00400496
0.00380484
0.00347375
0.00289938
0.00184261
0.000261808
0.000159597
0.00122241
0.00208024
0.00269131
0.00314555
0.00349548
0.00377256
0.00399628
0.00417839
0.00432693
0.00444899
0.00454988
0.00463196
0.0046943
0.00473235
0.00473727
0.00469466
0.00458908
0.00439161
0.00404078
0.00339419
0.00214696
0.000293084
0.000168939
0.0012952
0.00222637
0.002899
0.00340325
0.00379399
0.00410478
0.00435674
0.00456268
0.00473143
0.00487095
0.00498755
0.00508464
0.00516224
0.00521634
0.0052384
0.00521427
0.0051266
0.00494349
0.00459594
0.00392496
0.00254797
0.000349464
6.49703e-05
0.000105288
0.000131041
0.00014054
0.000140973
0.0001356
0.000127291
0.000121018
0.000115597
0.000108689
9.93128e-05
8.91588e-05
8.20444e-05
7.8552e-05
7.62151e-05
7.28501e-05
6.89356e-05
6.6327e-05
8.22188e-05
0.00020838
0.000794708
0.00108345
0.00121172
0.00123193
0.00118084
0.00110028
0.00102734
0.000973682
0.000871811
0.000731979
0.000633227
0.000608354
0.000614805
0.000616046
0.000594102
0.000549299
0.000425329
0.000176829
0.000227895
0.00122134
0.00179181
0.00211247
0.00222768
0.00219447
0.00208682
0.00198017
0.00188673
0.00171357
0.00145981
0.00125152
0.0011779
0.00117977
0.00118041
0.00112572
0.000996891
0.000702489
0.000200371
0.000251217
0.00140952
0.00220466
0.00270431
0.00293103
0.00295216
0.00286182
0.00275597
0.00264716
0.00244039
0.00212773
0.00184643
0.00172171
0.00169772
0.00167816
0.00158526
0.00138208
0.000958209
0.000220249
0.000281909
0.00150071
0.0024821
0.00313902
0.00346421
0.00353845
0.003475
0.00338285
0.00327466
0.0030596
0.00272745
0.00240733
0.00223848
0.00217689
0.00212402
0.0019884
0.00172209
0.00119338
0.000239488
0.00033579
0.00158051
0.0027388
0.0035271
0.00392
0.00402658
0.00398026
0.0039009
0.00380028
0.00359295
0.00326723
0.00293086
0.0027262
0.00262211
0.00252892
0.00234822
0.0020172
0.00138093
0.000257835
0.000417761
0.00172045
0.00306445
0.00393924
0.00435384
0.0044623
0.00441618
0.00434165
0.00424977
0.00405963
0.00375577
0.00341625
0.00318226
0.00303494
0.00289843
0.00267149
0.00227596
0.00153553
0.000272374
0.000506939
0.00204443
0.00354317
0.00441385
0.00479166
0.00486954
0.00480679
0.0047273
0.00464257
0.00447402
0.00419751
0.00386483
0.00360492
0.00341559
0.0032351
0.00296094
0.002502
0.00166421
0.00028317
0.000181169
0.00139572
0.00242218
0.00317577
0.00374684
0.00419292
0.00455008
0.00484152
0.00508139
0.00527949
0.00544498
0.00558569
0.00570699
0.00581081
0.00589433
0.00594951
0.00596274
0.00591204
0.00576769
0.00546369
0.00486871
0.00373915
0.00184116
0.000196232
0.00150423
0.00263291
0.00347265
0.00411422
0.00461893
0.00502645
0.00536271
0.00564274
0.00587641
0.00607414
0.00624626
0.00640155
0.00654496
0.00667446
0.00678121
0.00685205
0.00686892
0.0068056
0.00662889
0.00628184
0.0056844
0.0047985
0.000210576
0.00160998
0.00282439
0.00373152
0.00442729
0.00497788
0.0054274
0.00580466
0.006124
0.0063924
0.00662012
0.00682068
0.007008
0.00719157
0.00736867
0.00752627
0.0076506
0.00772951
0.0077521
0.00770918
0.00759174
0.00739578
0.0071358
0.000227571
0.00175578
0.0030362
0.00398719
0.00471781
0.00529974
0.00578337
0.0062021
0.00656597
0.006871
0.00712502
0.0073469
0.00755857
0.00777932
0.00800388
0.00820725
0.00837313
0.00849727
0.00858343
0.00863714
0.00865945
0.00864657
0.00860121
0.000250147
0.00190603
0.00327237
0.00425506
0.00500485
0.00560248
0.00610613
0.00656849
0.00696674
0.00727895
0.00756101
0.00780958
0.00804507
0.00830245
0.00857941
0.00882413
0.00901944
0.00917525
0.00931794
0.00945611
0.00956541
0.00962174
0.00961207
0.000286708
0.00202889
0.00346243
0.00447451
0.00524415
0.00586075
0.00637575
0.00682892
0.00721721
0.00754936
0.00785491
0.00813495
0.00840303
0.00868723
0.00898262
0.00923563
0.00943604
0.00961391
0.00980639
0.0100062
0.0101511
0.0101979
0.0101535
0.00028176
0.00201672
0.00351682
0.00460451
0.00542182
0.00606299
0.00658141
0.00701299
0.00740057
0.00776428
0.00809496
0.00839631
0.00867975
0.00895066
0.00922899
0.00947439
0.00967142
0.0098517
0.0100543
0.0102703
0.0104211
0.0104419
0.0103913
0.000268319
0.00198813
0.00354191
0.00468781
0.00554012
0.00619906
0.00672404
0.00715921
0.00754894
0.00791763
0.00826786
0.00859427
0.00888632
0.009147
0.00940733
0.00964082
0.00982962
0.010003
0.0102079
0.0104388
0.0105757
0.0105802
0.0105433
0.000255572
0.00197355
0.00354761
0.00471831
0.00559492
0.00627065
0.00680775
0.00725351
0.00764947
0.00802138
0.00837738
0.00871521
0.00901642
0.00927854
0.00952269
0.00974904
0.00993766
0.0100912
0.0102673
0.0104757
0.0105568
0.0105915
0.0106594
0.000247054
0.00193177
0.00352516
0.0047083
0.00560101
0.00629232
0.00684452
0.00730482
0.00771134
0.00808892
0.00844778
0.00878649
0.00909237
0.00935771
0.00958986
0.0097972
0.00997168
0.0101067
0.0102634
0.0104403
0.0105179
0.0105758
0.0107057
0.000241517
0.00192824
0.00350282
0.00467962
0.00557719
0.00627943
0.00684582
0.00732125
0.00774006
0.00812516
0.00848735
0.00882636
0.00913295
0.00939758
0.00961975
0.00980473
0.00995519
0.0100842
0.010244
0.0104204
0.0105039
0.0105675
0.010693
0.000238597
0.00194537
0.00348236
0.00464115
0.00553456
0.00624195
0.00681916
0.00730767
0.00773829
0.00813155
0.00849762
0.00883694
0.00914238
0.00940497
0.0096207
0.00979241
0.00992903
0.0100529
0.0102062
0.0103938
0.0105075
0.0105759
0.0106681
0.000237718
0.00194824
0.00345301
0.00459118
0.00547585
0.00618369
0.00676768
0.00726624
0.00770698
0.00810797
0.00847822
0.00881834
0.00912274
0.00938384
0.00959718
0.00976491
0.009898
0.0100191
0.0101586
0.0103256
0.0104832
0.0105717
0.0106151
0.000237101
0.00192532
0.00340537
0.00452463
0.00539881
0.00610407
0.00669153
0.00719718
0.00764606
0.00805396
0.00842854
0.00877032
0.00907474
0.00933574
0.00954973
0.00971901
0.00985424
0.00997472
0.0101009
0.0102375
0.010373
0.0104653
0.0104721
0.000235313
0.00188549
0.00333778
0.00443773
0.00530027
0.00600095
0.00658948
0.00709994
0.00755526
0.00796932
0.00834845
0.00869292
0.00899883
0.00926128
0.00947772
0.00965067
0.00978951
0.00990908
0.0100239
0.0101357
0.0102338
0.0102962
0.010293
0.000231858
0.00183311
0.00325032
0.00432826
0.00517772
0.00587242
0.00646048
0.00697423
0.00743484
0.00785462
0.0082387
0.008587
0.00889603
0.00916159
0.00938174
0.009559
0.0097011
0.00981936
0.00992487
0.0100181
0.0100916
0.0101327
0.0101254
0.000226593
0.00176975
0.00314339
0.00419542
0.00503013
0.00571788
0.0063046
0.00682083
0.00728617
0.00771161
0.00810129
0.00845469
0.00876855
0.00903907
0.00926441
0.00944676
0.00959236
0.00971041
0.00980894
0.00988998
0.00994907
0.00997888
0.00997329
0.00021946
0.00169589
0.00301758
0.00403978
0.00485829
0.0055386
0.00612374
0.00664227
0.00711228
0.00754366
0.00793977
0.00829965
0.00862004
0.00889743
0.00913
0.00931913
0.00946959
0.00958883
0.00968408
0.00975857
0.00981077
0.0098366
0.00983534
0.000210493
0.00161008
0.00287313
0.0038631
0.00466496
0.00533809
0.00592206
0.00644324
0.00691826
0.00735604
0.0077594
0.00812708
0.00845573
0.00874183
0.00898344
0.00918113
0.00933847
0.0094619
0.00955799
0.00963088
0.00968133
0.0097081
0.00971209
0.000200887
0.00150207
0.00270843
0.00366823
0.00445506
0.00512235
0.00570619
0.00623079
0.00671142
0.00715614
0.0075674
0.00794385
0.00828216
0.00857861
0.00883081
0.00903888
0.00920572
0.00933656
0.00943736
0.00951278
0.00956529
0.00959584
0.00960568
0.000190478
0.00139144
0.00253853
0.00346871
0.00424153
0.00490382
0.00548803
0.00601618
0.00650223
0.00695367
0.00737287
0.00775836
0.00810675
0.00841434
0.00867855
0.00889891
0.00907753
0.00921862
0.00932743
0.00940879
0.00946626
0.00950221
0.00951881
0.000179558
0.00128992
0.00237896
0.00327989
0.00403908
0.00469669
0.00528141
0.00581297
0.00630405
0.00676155
0.00718776
0.00758141
0.00793932
0.00825789
0.0085344
0.00876791
0.00895969
0.00911299
0.00923228
0.00932224
0.00938691
0.00942959
0.00945319
0.000168754
0.00120792
0.00224476
0.00311767
0.00386341
0.00451625
0.00510116
0.00563557
0.0061308
0.00659312
0.00702479
0.00742493
0.00779074
0.00811892
0.00840673
0.00865288
0.0088579
0.00902416
0.00915528
0.0092555
0.00932893
0.00937933
0.00941009
0.000158884
0.00115123
0.00214675
0.0029951
0.00372839
0.00437648
0.00496112
0.0054975
0.00599558
0.00646104
0.00689611
0.00730035
0.00767156
0.00800688
0.00830375
0.00856067
0.00877763
0.00895617
0.00909912
0.00921008
0.00929294
0.00935149
0.00938934
0.000150678
0.00111968
0.00208892
0.0029195
0.00364328
0.00428764
0.00487189
0.00540937
0.00590886
0.00637548
0.0068115
0.00721698
0.00759043
0.0079296
0.00823227
0.00849694
0.00872323
0.00891205
0.00906546
0.0091864
0.00927828
0.00934467
0.00938907
0.000144472
0.00110868
0.00206876
0.00289164
0.00361136
0.00425456
0.00483918
0.00537727
0.00587676
0.00634248
0.00677683
0.00718041
0.00755256
0.00789174
0.00819628
0.00846484
0.0086969
0.0088929
0.00905428
0.00918328
0.00928274
0.00935581
0.00940568
0.00014015
0.00111265
0.00208032
0.00290751
0.00363057
0.00427664
0.00486325
0.00540191
0.00590021
0.006363
0.00679299
0.00719145
0.00755864
0.00789384
0.00819601
0.0084642
0.00869788
0.00889726
0.00906327
0.00919757
0.00930238
0.00938031
0.00943409
0.00013737
0.0011276
0.00211759
0.00296108
0.00369553
0.0043491
0.00493972
0.00547912
0.00597511
0.006433
0.00685591
0.00724614
0.00760483
0.00793216
0.0082278
0.00849129
0.00872232
0.008921
0.00908794
0.00922431
0.00933177
0.00941235
0.00946825
0.000135841
0.00115154
0.00217617
0.00304644
0.00379944
0.00446455
0.00506084
0.0056009
0.00609335
0.00654424
0.00695752
0.00733663
0.00768361
0.00799952
0.00828481
0.0085396
0.00876394
0.00895798
0.00912219
0.00925738
0.00936472
0.00944569
0.00950197
0.000135463
0.00118369
0.00225309
0.00315816
0.00393481
0.00461408
0.00521674
0.00575685
0.00624431
0.00668589
0.00708727
0.00745272
0.00778521
0.00808669
0.0083584
0.00860109
0.00881523
0.0090012
0.00915941
0.00929046
0.00939515
0.00947451
0.00952971
0.000136257
0.001224
0.00234578
0.00329053
0.00409343
0.00478775
0.00539648
0.00593551
0.00641592
0.00684641
0.00723389
0.00758355
0.00789928
0.00818393
0.00843954
0.00866748
0.00886869
0.00904383
0.00919341
0.00931793
0.00941794
0.00949411
0.00954718
0.00013835
0.0012722
0.00245063
0.0034368
0.00426648
0.00497561
0.0055894
0.00612557
0.00659746
0.0070153
0.00738711
0.00771917
0.00801636
0.00828241
0.00852009
0.00873139
0.00891774
0.0090801
0.00921915
0.0093354
0.00942927
0.00950116
0.00955145
0.0001419
0.00132703
0.00256281
0.00358995
0.0044459
0.00516908
0.00578692
0.00631928
0.00678125
0.0071847
0.00753908
0.00785191
0.00812908
0.00837518
0.00859366
0.0087871
0.00895734
0.00910569
0.00923301
0.00933988
0.00942667
0.00949362
0.00954086
0.000146946
0.00138663
0.00267802
0.00374562
0.00462827
0.00536571
0.00598697
0.00651392
0.00696384
0.00735063
0.00768547
0.00797724
0.00823291
0.00845788
0.00865622
0.00883098
0.00898439
0.00911801
0.0092329
0.00932975
0.00940894
0.00947061
0.00951473
0.000153659
0.00145167
0.00279815
0.00390792
0.00481909
0.00557096
0.00619391
0.00671244
0.00714678
0.00751347
0.00782576
0.00809409
0.00832646
0.00852901
0.0087063
0.00886174
0.00899781
0.00911628
0.00921837
0.00930483
0.00937609
0.00943226
0.00947321
0.00016228
0.0015256
0.00293189
0.00408982
0.00503271
0.00579805
0.00641855
0.00692298
0.00733588
0.00767723
0.00796274
0.00820439
0.00841116
0.00858969
0.00874489
0.00888034
0.00899863
0.00910163
0.0091906
0.00926638
0.00932942
0.00937984
0.00941746
0.000173172
0.00161526
0.00309599
0.00431402
0.00529216
0.00606669
0.00667612
0.00715671
0.00753923
0.00784794
0.0081011
0.00831207
0.00849046
0.00864315
0.00877508
0.00888979
0.00898981
0.00907696
0.0091525
0.00921725
0.00927168
0.00931592
0.0093498
0.000186964
0.00173082
0.00331619
0.00461339
0.00562761
0.00639994
0.0069826
0.00742433
0.00776426
0.00803124
0.00824566
0.00842162
0.0085688
0.00869383
0.00880136
0.00889461
0.00897589
0.00904683
0.00910857
0.00916187
0.00920718
0.00924462
0.00927406
0.000205004
0.00188736
0.00363354
0.00503499
0.00607566
0.00682056
0.0073503
0.00773227
0.00801481
0.00823029
0.00839978
0.00853693
0.0086506
0.00874665
0.008829
0.00890036
0.0089626
0.00901707
0.00906469
0.00910611
0.00914172
0.00917164
0.00919577
0.000231315
0.00211473
0.00412775
0.00565266
0.00667914
0.00734565
0.00778272
0.00807909
0.00828896
0.0084444
0.00856443
0.00866048
0.00873961
0.00880629
0.00886342
0.00891295
0.00895625
0.00899426
0.00902767
0.00905694
0.00908237
0.00910407
0.00912198
0.000280197
0.00252695
0.00499473
0.00659124
0.00748012
0.00797567
0.00826779
0.0084527
0.00857825
0.00866904
0.00873827
0.00879336
0.00883869
0.0088769
0.0089097
0.00893822
0.00896321
0.00898524
0.0090047
0.00902186
0.00903691
0.00904993
0.00906089
0.000417749
0.00371288
0.00684046
0.00803889
0.00847946
0.00867128
0.00877076
0.00883002
0.00886923
0.00889734
0.00891876
0.00893588
0.00895004
0.00896205
0.00897241
0.00898146
0.00898943
0.00899648
0.00900273
0.00900828
0.00901317
0.00901745
0.00902109
0.000445337
0.000434945
0.000438832
0.000458452
0.00410129
0.0039735
0.00399262
0.00412817
0.00696853
0.00690207
0.00689229
0.00693439
0.00856093
0.00852974
0.00850602
0.00848948
0.00956607
0.00952249
0.0094781
0.00943173
0.0100818
0.0100308
0.00997799
0.00992057
0.0103344
0.0103022
0.0102632
0.0102071
0.0105284
0.0105241
0.010482
0.0103896
0.0106881
0.0106731
0.0106009
0.0104873
0.010795
0.0107789
0.0106793
0.0105658
0.0108012
0.0108044
0.0107129
0.0106066
0.0107269
0.0107305
0.0106679
0.0105645
0.0105955
0.0105681
0.0105061
0.0104133
0.0104052
0.0103515
0.010284
0.0102066
0.0102269
0.010173
0.0101111
0.010045
0.0100743
0.0100322
0.0099833
0.00993023
0.00993729
0.0099073
0.00987148
0.00983143
0.00981155
0.0097912
0.00976606
0.00973697
0.00969773
0.00968463
0.00966756
0.00964699
0.00959878
0.00959116
0.00958014
0.00956598
0.00951804
0.00951468
0.00950825
0.00949893
0.00945813
0.00945829
0.00945547
0.00944983
0.00942015
0.00942334
0.00942344
0.00942063
0.00940396
0.00940971
0.00941215
0.00941143
0.00940755
0.00941537
0.00941955
0.00942024
0.00942714
0.00943644
0.00944172
0.00944314
0.00945747
0.00946762
0.00947336
0.00947486
0.00949249
0.00950286
0.00950852
0.0095096
0.00952613
0.00953625
0.00954143
0.00954181
0.00955314
0.00956271
0.00956726
0.00956686
0.00956951
0.00957847
0.00958242
0.00958143
0.00957262
0.00958105
0.00958463
0.00958338
0.00956099
0.0095691
0.00957262
0.00957154
0.009534
0.00954203
0.00954583
0.00954535
0.0094918
0.00949992
0.00950426
0.00950473
0.00943534
0.0094436
0.00944858
0.00945018
0.00936672
0.00937496
0.00938048
0.00938317
0.0092895
0.00929739
0.00930311
0.00930657
0.00920899
0.009216
0.00922141
0.00922513
0.00913217
0.00913773
0.00914222
0.00914556
0.00906732
0.00907091
0.00907389
0.00907623
0.00902327
0.00902451
0.00902556
0.0090264
0.00156019
0.00322602
0.0044978
0.00518098
0.00544339
0.00545821
0.00536798
0.00527376
0.0051949
0.00505756
0.00482203
0.00451183
0.00421799
0.00396241
0.00371109
0.00336131
0.00280551
0.00183004
0.000296391
0.00479641
0.00559905
0.00612436
0.00634553
0.0063336
0.00619599
0.0060213
0.00588695
0.00579385
0.00567179
0.00546578
0.00517329
0.00484744
0.00451149
0.00415725
0.0037215
0.00306327
0.00195579
0.000317138
0.0070941
0.00732115
0.00741267
0.00732519
0.00708894
0.00684691
0.00662455
0.00645724
0.00632933
0.00618968
0.00598974
0.00570089
0.00533892
0.00492326
0.00446124
0.0039334
0.00319682
0.0020177
0.000325182
0.00847897
0.00849364
0.00837213
0.00801365
0.00768402
0.00741315
0.00717882
0.00698822
0.00681921
0.00664093
0.00642343
0.00612154
0.00571187
0.00520275
0.00462868
0.00399404
0.00317198
0.00197072
0.00032296
0.00936207
0.00921548
0.00888572
0.00849796
0.00816389
0.00788869
0.00765587
0.00745278
0.00725217
0.00703445
0.00677846
0.00645205
0.00599216
0.00537295
0.0046582
0.00388339
0.00293891
0.00174334
0.000309626
0.00981472
0.00955736
0.00926206
0.00890458
0.00854694
0.00826826
0.00803091
0.00781821
0.00759795
0.00735095
0.00705418
0.00668438
0.00618836
0.00544127
0.00458301
0.00364949
0.00253143
0.00132106
0.000278497
0.0100691
0.00981245
0.00956982
0.00921966
0.00885363
0.00855713
0.00831167
0.00808827
0.00785152
0.00757682
0.00723574
0.00679669
0.00623455
0.00547638
0.00458807
0.0035457
0.00228556
0.00103077
0.000250523
0.0101946
0.00999753
0.00971685
0.00939597
0.00908263
0.00878238
0.00852092
0.00828317
0.00803021
0.00772903
0.00734866
0.00686885
0.00628198
0.00557702
0.00478045
0.00380418
0.00251841
0.001109
0.000234607
0.0103047
0.0100726
0.00979729
0.00952286
0.00924318
0.00895313
0.00868539
0.00842841
0.00815101
0.00782019
0.00741074
0.0069167
0.00633364
0.00567268
0.00492639
0.0040908
0.003034
0.00161736
0.000256237
0.0103857
0.0101154
0.00985552
0.00960902
0.0093487
0.00906857
0.00879864
0.00852305
0.0082167
0.00785595
0.00742565
0.00692109
0.00633453
0.00567941
0.00496396
0.00416577
0.00324115
0.00199886
0.000295741
0.0104136
0.0101281
0.00988121
0.00965104
0.00940132
0.00912962
0.00885844
0.00856679
0.00823354
0.00784554
0.00739603
0.00687732
0.00628501
0.00562361
0.00492054
0.00417674
0.00332299
0.00210198
0.000301783
0.0103647
0.0100945
0.00986866
0.00965273
0.00940642
0.00914346
0.00887272
0.00856904
0.00821431
0.00780004
0.00732331
0.00678228
0.00617661
0.00551676
0.00483774
0.00413228
0.00328626
0.00206206
0.00028544
0.0102399
0.0100124
0.00981456
0.0096053
0.00937245
0.00912675
0.00886034
0.00855114
0.00818394
0.00775126
0.00725231
0.00669064
0.006073
0.00541417
0.00473685
0.00402198
0.00315952
0.00191696
0.000258682
0.0100707
0.00989292
0.0097229
0.00953628
0.00932997
0.00910223
0.00884286
0.00853454
0.00816459
0.00772621
0.00721944
0.00664914
0.00602337
0.005355
0.004654
0.00389365
0.00297372
0.00171687
0.000236817
0.0099337
0.00978766
0.00964225
0.00948087
0.00929643
0.00908359
0.00883257
0.00853005
0.00816505
0.00773128
0.00722849
0.00666076
0.00603433
0.00535548
0.00462285
0.0038067
0.00282684
0.00157084
0.000221866
0.00983945
0.00971445
0.00958628
0.00944223
0.0092736
0.00907342
0.00883229
0.00853923
0.00818452
0.00776229
0.00727166
0.00671503
0.00609495
0.00541048
0.00465188
0.00378895
0.00276093
0.00150327
0.000215898
0.00976072
0.00965545
0.00954216
0.00941202
0.00925684
0.00906906
0.00883956
0.00855865
0.00821765
0.00781101
0.00733703
0.00679598
0.00618659
0.00550262
0.00472896
0.0038353
0.00277333
0.00150141
0.000216835
0.00968399
0.00959811
0.00949993
0.00938345
0.00924163
0.00906692
0.0088505
0.00858351
0.00825811
0.00786894
0.0074134
0.00688973
0.00629374
0.0056156
0.0048366
0.00392544
0.00283792
0.00153739
0.00022096
0.00960829
0.00953999
0.00945676
0.0093541
0.00922582
0.0090646
0.00886197
0.0086097
0.00830062
0.00792939
0.00749264
0.00698697
0.006406
0.00573728
0.00495911
0.00403736
0.00292531
0.00158348
0.000225419
0.00953815
0.00948453
0.00941488
0.00932521
0.00920981
0.00906159
0.00887246
0.00863469
0.00834158
0.00798785
0.00756943
0.00708163
0.00651638
0.00585904
0.005085
0.00415602
0.00301888
0.00162677
0.000229481
0.0094792
0.00943707
0.00937864
0.00930006
0.0091958
0.00905901
0.00888199
0.00865743
0.00837908
0.00804163
0.00764045
0.00716979
0.00662015
0.00597503
0.00520731
0.00427507
0.00311893
0.00168276
0.000233474
0.00943606
0.00940241
0.0093524
0.00928218
0.00918645
0.0090586
0.00889137
0.00867792
0.00841235
0.00808937
0.00770383
0.00724903
0.00671417
0.00608124
0.00532134
0.00439043
0.00322599
0.00176189
0.000237547
0.00941142
0.00938364
0.00933902
0.00927406
0.00918371
0.00906176
0.00890143
0.00869644
0.00844126
0.00813055
0.00775866
0.00731797
0.00679645
0.00617474
0.00542262
0.00449494
0.00332751
0.00184577
0.000241323
0.00940539
0.00938113
0.00933918
0.00927638
0.00918815
0.0090689
0.00891243
0.00871315
0.00846583
0.00816505
0.00780463
0.00737598
0.00686584
0.00625349
0.00550738
0.00458092
0.00340764
0.00190687
0.000244661
0.00941606
0.00939314
0.00935129
0.00928785
0.00919886
0.00907946
0.00892413
0.00872807
0.00848625
0.00819313
0.00784195
0.00742313
0.00692217
0.00631702
0.00557471
0.00464683
0.00346396
0.00194048
0.000247105
0.0094396
0.00941608
0.00937224
0.00930596
0.00921398
0.00909226
0.00893606
0.00874124
0.00850295
0.00821549
0.00787147
0.00746037
0.00696657
0.00636677
0.00562672
0.00469654
0.00350473
0.00196304
0.000247955
0.00947091
0.0094453
0.00939797
0.00932738
0.009231
0.00910554
0.00894718
0.0087522
0.0085159
0.00823236
0.00789363
0.00748833
0.00699983
0.00640382
0.00566508
0.00473265
0.00353379
0.00197848
0.000248046
0.00950446
0.00947585
0.00942428
0.00934874
0.00924739
0.0091176
0.00895639
0.00876034
0.00852484
0.00824378
0.00790868
0.00750742
0.00702258
0.00642909
0.00569105
0.00475687
0.00355298
0.00198799
0.000247808
0.00953509
0.00950325
0.00944745
0.00936713
0.00926098
0.00912696
0.00896274
0.00876511
0.00852955
0.00824974
0.00791678
0.00751801
0.00703542
0.00644345
0.0057058
0.00477061
0.00356385
0.00199281
0.000247104
0.00955862
0.009524
0.0094647
0.00938042
0.00927028
0.00913264
0.00896562
0.00876621
0.00852992
0.00825031
0.00791822
0.00752061
0.0070391
0.00644788
0.00571056
0.00477531
0.00356797
0.00199452
0.000245919
0.00957211
0.00953568
0.00947417
0.00938732
0.00927441
0.00913412
0.0089648
0.00876359
0.00852607
0.00824581
0.0079135
0.00751592
0.00703457
0.00644359
0.0057067
0.00477234
0.00356653
0.0019942
0.00024433
0.0095737
0.00953685
0.00947479
0.00938712
0.00927303
0.00913132
0.0089604
0.00875753
0.00851846
0.00823684
0.00790342
0.00750502
0.00702316
0.0064321
0.00569582
0.00476314
0.00356041
0.00199181
0.000242554
0.00956238
0.00952669
0.00946599
0.00937948
0.00926607
0.00912439
0.00895279
0.00874862
0.00850784
0.00822436
0.00788919
0.00748936
0.00700657
0.00641533
0.00567988
0.00474939
0.00355042
0.00198654
0.000240828
0.00953759
0.00950468
0.00944732
0.00936415
0.00925354
0.00911366
0.00894261
0.00873775
0.00849533
0.00820971
0.00787237
0.00747075
0.0069869
0.00639558
0.00566128
0.00473335
0.00353837
0.00197952
0.000238831
0.0094991
0.00947046
0.00941837
0.00934081
0.00923541
0.00909951
0.00893067
0.00872609
0.00848237
0.00819452
0.0078548
0.00745129
0.00696648
0.00637542
0.00564278
0.00471785
0.00352684
0.00197254
0.000236775
0.00944714
0.0094239
0.00937878
0.00930907
0.00921149
0.00908225
0.00891782
0.00871498
0.00847058
0.00818062
0.00783843
0.00743304
0.00694754
0.0063573
0.00562703
0.00470572
0.00351841
0.00196576
0.00023645
0.00938276
0.00936549
0.00932854
0.00926864
0.00918152
0.00906198
0.00890477
0.00870566
0.00846159
0.00816974
0.00782505
0.0074178
0.00693185
0.00634289
0.00561564
0.00469864
0.00351512
0.0019615
0.000238339
0.00930838
0.00929693
0.00926862
0.00921979
0.00914533
0.00903855
0.00889175
0.0086989
0.00845653
0.0081632
0.00781591
0.00740667
0.00692021
0.00633249
0.00560818
0.00469548
0.00351605
0.00196103
0.000242708
0.00922832
0.00922183
0.00920173
0.00916423
0.00910368
0.00901201
0.00887859
0.00869461
0.00845555
0.00816133
0.00781142
0.00739985
0.00691233
0.00632484
0.0056017
0.00469109
0.003515
0.00196233
0.000250834
0.00914906
0.00914615
0.00913315
0.00910642
0.00906003
0.00898456
0.00886643
0.00869229
0.00845759
0.00816319
0.00781082
0.00739661
0.00690712
0.00631783
0.00559196
0.00467756
0.00350111
0.00196178
0.00026383
0.00907895
0.00907813
0.009071
0.00905454
0.00902315
0.00896607
0.00886412
0.00869261
0.0084607
0.00816653
0.00781224
0.00739553
0.00690345
0.00631036
0.00557706
0.00465007
0.00346557
0.00195784
0.000282936
0.00902744
0.00902738
0.00902513
0.00901936
0.00900695
0.0089792
0.00890702
0.00869632
0.0084622
0.00816836
0.00781315
0.00739489
0.00690078
0.00630397
0.00556208
0.00461661
0.00340642
0.00195142
0.000307932
)
;

boundaryField
{
    leftWall
    {
        type            nutkWallFunction;
        Cmu             0.09;
        kappa           0.41;
        E               9.8;
        value           nonuniform List<scalar> 
50
(
7.96829e-06
1.11092e-05
1.30733e-05
1.47325e-05
1.61021e-05
1.73147e-05
1.83928e-05
1.93942e-05
2.06994e-05
2.22946e-05
2.38053e-05
2.73922e-05
2.70182e-05
3.21555e-05
3.14974e-05
2.96163e-05
2.77861e-05
2.65674e-05
2.57814e-05
2.53768e-05
2.52552e-05
2.51816e-05
2.49379e-05
2.44521e-05
2.37041e-05
2.26843e-05
2.13963e-05
2.001e-05
1.84989e-05
1.69042e-05
1.53176e-05
1.38609e-05
1.26449e-05
1.17223e-05
1.10771e-05
1.06596e-05
1.04279e-05
1.03688e-05
1.04865e-05
1.08001e-05
1.13286e-05
1.20791e-05
1.3076e-05
1.43508e-05
1.59506e-05
1.79579e-05
2.05549e-05
2.42909e-05
3.10797e-05
4.93322e-05
)
;
    }
    rightWall
    {
        type            nutkWallFunction;
        Cmu             0.09;
        kappa           0.41;
        E               9.8;
        value           nonuniform List<scalar> 
50
(
1.6082e-05
2.02847e-05
2.27755e-05
2.4852e-05
2.68273e-05
2.8721e-05
3.02395e-05
3.14165e-05
3.28188e-05
3.49142e-05
3.56799e-05
3.53884e-05
3.41683e-05
3.17259e-05
2.88128e-05
2.79682e-05
2.84627e-05
3.3839e-05
3.46396e-05
3.1793e-05
2.78908e-05
2.48882e-05
2.2905e-05
2.21879e-05
2.24028e-05
2.3016e-05
2.36465e-05
2.4225e-05
2.50777e-05
2.57219e-05
2.62366e-05
2.66981e-05
2.69529e-05
2.70124e-05
2.71107e-05
2.70702e-05
2.69655e-05
2.67966e-05
2.65704e-05
2.63182e-05
2.60734e-05
2.56841e-05
2.53665e-05
2.54431e-05
2.57051e-05
2.63145e-05
2.74255e-05
2.92427e-05
3.18973e-05
3.51809e-05
)
;
    }
    lowerWall
    {
        type            nutkWallFunction;
        Cmu             0.09;
        kappa           0.41;
        E               9.8;
        value           nonuniform List<scalar> 
62
(
3.71859e-06
6.17846e-06
7.67279e-06
8.64121e-06
9.33491e-06
9.87066e-06
1.02958e-05
1.06333e-05
1.08937e-05
1.10887e-05
1.12364e-05
1.13523e-05
1.14409e-05
1.1494e-05
1.14921e-05
1.14146e-05
1.126e-05
1.09793e-05
1.05954e-05
1.0102e-05
9.3621e-06
8.07765e-06
5.55871e-06
5.55871e-06
1.72362e-05
2.065e-05
2.36188e-05
2.63359e-05
2.90359e-05
3.21547e-05
3.76551e-05
4.69326e-05
4.58989e-05
4.62507e-05
4.81315e-05
7.78734e-06
2.33855e-05
2.54555e-05
2.79285e-05
3.1065e-05
3.64296e-05
4.4358e-05
5.28476e-05
7.78734e-06
1.24429e-05
1.52689e-05
1.62834e-05
1.63221e-05
1.57288e-05
1.48444e-05
1.41883e-05
1.36072e-05
1.28364e-05
1.17787e-05
1.064e-05
9.86577e-06
9.48744e-06
9.20824e-06
8.80453e-06
8.34563e-06
8.04709e-06
7.12258e-06
)
;
    }
    atmosphere
    {
        type            calculated;
        value           nonuniform List<scalar> 
46
(
0.009
0.009
0.009
0.009
0.009
0.009
0.009
0.009
0.009
0.009
0.009
0.009
0.009
0.009
0.009
0.009
0.009
0.009
0.009
0.009
0.009
0.009
0.009
0.009
0.009
0.009
0.009
0.009
0.009
0.009
0.009
0.009
0.009
0.009
0.00869632
0.0084622
0.00816836
0.00781315
0.00739489
0.00690078
0.00630397
0.00556208
0.00461661
0.00340642
0.00195142
0.000307932
)
;
    }
    defaultFaces
    {
        type            empty;
    }
}


// ************************************************************************* //
