/*--------------------------------*- C++ -*----------------------------------*\
  =========                 |
  \\      /  F ield         | OpenFOAM: The Open Source CFD Toolbox
   \\    /   O peration     | Website:  https://openfoam.org
    \\  /    A nd           | Version:  9
     \\/     M anipulation  |
\*---------------------------------------------------------------------------*/
FoamFile
{
    format      ascii;
    class       volScalarField;
    location    "3.15";
    object      epsilon;
}
// * * * * * * * * * * * * * * * * * * * * * * * * * * * * * * * * * * * * * //

dimensions      [0 2 -3 0 0 0 0];

internalField   nonuniform List<scalar> 
2268
(
0.00317826
0.0165872
0.0290287
0.0400165
0.0495183
0.0575488
0.0641886
0.0695778
0.0738723
0.0773084
0.0800125
0.0820522
0.0834725
0.084246
0.0842439
0.083206
0.0800564
0.071649
0.0623021
0.0537776
0.0435481
0.0277346
0.00512459
0.00633793
0.0112535
0.0166025
0.0213935
0.0255315
0.02902
0.031895
0.0342186
0.0360671
0.0375322
0.0386718
0.039528
0.0401259
0.0404573
0.040468
0.0400326
0.038837
0.036309
0.03337
0.0295583
0.0245634
0.0180646
0.0107475
0.0105249
0.0116708
0.0152675
0.0186915
0.0217003
0.0242556
0.0263737
0.0280982
0.0294846
0.0305933
0.0314693
0.0321437
0.0326321
0.0329254
0.0329812
0.0327112
0.0319586
0.0305419
0.0287038
0.0262195
0.0230432
0.0193393
0.0187189
0.0145575
0.0129234
0.015575
0.0183459
0.0208404
0.0229775
0.0247582
0.0262172
0.0274022
0.0283625
0.0291371
0.0297499
0.0302106
0.0305089
0.030609
0.0304465
0.0299347
0.0290066
0.0277213
0.0260026
0.023992
0.0222438
0.0273401
0.018392
0.0144605
0.0164591
0.0188198
0.0209994
0.0228781
0.0244464
0.0257358
0.0267916
0.0276591
0.0283737
0.0289546
0.029408
0.0297233
0.0298707
0.0298038
0.0294756
0.028866
0.0279929
0.0268776
0.0258656
0.0260174
0.0370933
0.0220964
0.0161389
0.0176465
0.0197212
0.0216791
0.0233671
0.0247712
0.0259254
0.0268765
0.0276687
0.0283358
0.028894
0.0293472
0.0296856
0.0298851
0.0299132
0.0297471
0.0293918
0.0288755
0.0283096
0.0282681
0.0306342
0.0493188
0.025753
0.0179184
0.0190441
0.0209121
0.0227001
0.0242275
0.0254843
0.0265128
0.0273644
0.0280845
0.0287065
0.0292438
0.0296998
0.0300658
0.030323
0.0304491
0.0304358
0.0303043
0.0301087
0.0300509
0.0309706
0.0361653
0.069921
0.0294344
0.019805
0.0206276
0.0223453
0.0239925
0.0253668
0.0264744
0.0273725
0.0281198
0.0287636
0.0293377
0.0298531
0.0303129
0.0307104
0.0310312
0.0312594
0.0313941
0.0314663
0.031558
0.0319423
0.0336675
0.0419708
0.124822
0.00690256
0.0281963
0.0436026
0.0522049
0.0555258
0.0546217
0.0511527
0.0463647
0.0424008
0.0419062
0.0418989
0.0384286
0.0362737
0.0376313
0.0411991
0.0359961
0.0245474
0.0136876
0.00318255
0.0111344
0.0173354
0.0219862
0.0248151
0.026186
0.0262539
0.0255607
0.0243257
0.0229019
0.0218598
0.0211684
0.0204741
0.0195954
0.0190355
0.0189282
0.0170135
0.0135439
0.0095074
0.00511505
0.0186338
0.0194439
0.0207223
0.0215155
0.021897
0.0217552
0.0212347
0.0204166
0.0194082
0.0185186
0.0178149
0.0171969
0.0165197
0.0159154
0.0153656
0.0139543
0.0116733
0.00904939
0.00797452
0.0274036
0.0236936
0.0222636
0.0214888
0.0210588
0.0205898
0.0199848
0.0192276
0.0183569
0.0175686
0.016884
0.0162533
0.0156376
0.0150771
0.0144556
0.0131916
0.011324
0.00930821
0.0108615
0.0388736
0.0292449
0.0247833
0.0224766
0.0212882
0.0204743
0.0197257
0.0189417
0.0181221
0.0173887
0.0167287
0.0161018
0.0155131
0.0150022
0.0144002
0.0132135
0.0115334
0.00987849
0.0136628
0.0559345
0.0360981
0.0277626
0.0238766
0.0219701
0.0208235
0.0199214
0.019086
0.0182815
0.0175733
0.0169359
0.0163272
0.0157555
0.0152815
0.0147267
0.0136249
0.0120325
0.0106511
0.01591
0.0838196
0.044075
0.0308153
0.0254026
0.0228571
0.0214103
0.0203665
0.0194792
0.0186743
0.017974
0.0173533
0.0167651
0.0162073
0.0157537
0.0152504
0.0142588
0.012735
0.0114716
0.0167047
0.129983
0.0512079
0.0333707
0.02685
0.0238192
0.0221242
0.0209622
0.020034
0.0192227
0.01852
0.0179075
0.0173347
0.0167878
0.0163381
0.0158736
0.0150176
0.0136234
0.0123427
0.0162649
0.0354612
0.0229864
0.0234159
0.0249623
0.0264074
0.0275244
0.028372
0.0290427
0.0296083
0.0301182
0.030604
0.0310751
0.0315358
0.0319828
0.0324064
0.0327956
0.0331507
0.0335082
0.0339834
0.0348876
0.0371357
0.0437105
0.0669427
0.0439329
0.0280797
0.0282003
0.0296912
0.0308392
0.0314373
0.0317718
0.0320191
0.0322583
0.032532
0.0328556
0.0332377
0.0336898
0.0342118
0.0347969
0.035424
0.0360571
0.0366926
0.0374526
0.0385763
0.0405013
0.0441825
0.0514828
0.0569246
0.0356459
0.0349934
0.0365633
0.0370983
0.0365896
0.0360298
0.0356327
0.0354001
0.0353525
0.0354518
0.0357003
0.0361314
0.0367439
0.0375405
0.0384843
0.039432
0.0402322
0.041042
0.0421388
0.0436104
0.0455338
0.0481211
0.0935877
0.0496943
0.0450648
0.0473612
0.0463299
0.0432249
0.0411976
0.0398714
0.0389409
0.0384997
0.0382926
0.0383346
0.0387348
0.0394681
0.0405778
0.0420598
0.0435445
0.0444295
0.0449759
0.0459392
0.0472085
0.0482479
0.0494723
0.106634
0.0611072
0.0572207
0.0613069
0.0562931
0.0490134
0.0460651
0.0442002
0.0426048
0.0416922
0.0411022
0.040778
0.0409446
0.0415999
0.0427179
0.0442444
0.0457063
0.0463154
0.0467832
0.0475337
0.049062
0.0513273
0.0518102
0.0869375
0.0597355
0.0588339
0.0607811
0.0568792
0.0518366
0.0502258
0.0487119
0.0459069
0.0438673
0.0427163
0.0421436
0.0421204
0.0426333
0.043596
0.0448462
0.046056
0.047099
0.0480468
0.0491892
0.0509158
0.0528617
0.0533248
0.0814639
0.0636095
0.0592336
0.0622277
0.0594377
0.0539636
0.0514171
0.0492406
0.0466862
0.0448278
0.0435926
0.0429312
0.0428563
0.0433063
0.044208
0.0454296
0.0465563
0.0478046
0.0496393
0.0498585
0.0504743
0.0516683
0.0534461
0.0845761
0.0610482
0.0574142
0.0637793
0.0624981
0.0550209
0.0507646
0.0486124
0.0465552
0.0449863
0.0439648
0.0434059
0.0432888
0.0435996
0.0442773
0.0451873
0.0461026
0.0471252
0.0487278
0.0494998
0.0497891
0.0506186
0.0523218
0.0793742
0.0526314
0.0515641
0.0561571
0.0557296
0.0513422
0.0484768
0.0469367
0.0456205
0.0445526
0.0438838
0.0435011
0.0433498
0.0434703
0.0438472
0.0444289
0.0451364
0.0458991
0.046749
0.0474529
0.0480134
0.0487697
0.0497456
0.0753739
0.0500044
0.0468981
0.0478665
0.0477834
0.0465601
0.0454533
0.0447302
0.0441555
0.043659
0.0432984
0.0430478
0.0429058
0.0429186
0.0431146
0.0434962
0.0440139
0.0445905
0.0450945
0.0454037
0.0457679
0.0462896
0.0467717
0.0760755
0.0490734
0.0445413
0.0438074
0.0436624
0.043247
0.0428015
0.0425933
0.0424784
0.0423558
0.0422273
0.0420935
0.0419883
0.041965
0.0420676
0.0423144
0.0426715
0.0430769
0.0434202
0.0435278
0.0435192
0.043593
0.0436288
0.080724
0.0486504
0.0431059
0.0415828
0.0410603
0.0407115
0.0405135
0.0405236
0.0406154
0.0406798
0.0406877
0.040641
0.0405775
0.0405464
0.0405877
0.0407185
0.0409167
0.0411294
0.0412706
0.0412317
0.0410129
0.0407859
0.0404849
0.0867572
0.0486271
0.041949
0.039831
0.0389854
0.0385695
0.0384138
0.0384604
0.0385915
0.038707
0.0387651
0.0387609
0.038721
0.038681
0.0386708
0.0387034
0.0387653
0.0388184
0.0388031
0.0386575
0.0383748
0.0380156
0.0375286
0.0930176
0.0488671
0.0409568
0.0382805
0.0371425
0.0366061
0.0363946
0.0363858
0.0364684
0.036556
0.0366046
0.0366027
0.0365636
0.0365095
0.0364608
0.0364278
0.0364041
0.0363661
0.036277
0.0360991
0.0358145
0.0354199
0.0348708
0.0961821
0.048548
0.0398839
0.0368014
0.0354209
0.034747
0.0344384
0.0343376
0.0343371
0.0343616
0.0343698
0.0343466
0.0342957
0.0342296
0.034162
0.0341011
0.0340445
0.033978
0.0338767
0.0337109
0.0334528
0.0330753
0.0325424
0.0966465
0.0475945
0.0386136
0.0353078
0.0337623
0.0329699
0.0325628
0.0323681
0.032282
0.0322379
0.0321985
0.0321478
0.0320843
0.0320144
0.031947
0.0318877
0.0318349
0.0317775
0.0316949
0.0315595
0.0313397
0.0310043
0.0305269
0.0948544
0.0460729
0.0371207
0.0337556
0.0321316
0.0312631
0.0307813
0.0305119
0.0303565
0.0302557
0.0301767
0.0301044
0.0300346
0.0299703
0.0299163
0.0298753
0.0298439
0.0298111
0.0297573
0.0296559
0.0294773
0.0291935
0.0287862
0.0912509
0.0440787
0.0354204
0.0321288
0.0305072
0.0296132
0.0290923
0.0287775
0.0285777
0.0284404
0.028337
0.0282545
0.0281873
0.028136
0.0281023
0.0280857
0.0280807
0.0280752
0.0280501
0.0279813
0.0278427
0.0276121
0.0272766
0.086284
0.0417182
0.0335489
0.0304308
0.0288782
0.0280064
0.0274832
0.0271539
0.0269361
0.026784
0.0266732
0.0265929
0.0265367
0.0265037
0.026493
0.0265018
0.0265225
0.0265423
0.0265435
0.0265047
0.0264045
0.0262254
0.0259581
0.0803501
0.0390954
0.0315523
0.0286781
0.0272439
0.0264322
0.0259383
0.0256215
0.0254093
0.0252621
0.0251595
0.0250924
0.0250545
0.0250437
0.0250575
0.0250912
0.0251361
0.0251798
0.0252058
0.025196
0.025133
0.0250031
0.024799
0.0737767
0.0363033
0.0294781
0.026894
0.0256114
0.0248869
0.0244454
0.0241622
0.0239739
0.0238473
0.0237656
0.023721
0.0237078
0.023723
0.0237632
0.0238224
0.0238919
0.0239597
0.0240114
0.0240315
0.0240059
0.0239236
0.0237784
0.0668237
0.0334185
0.027371
0.0251051
0.0239937
0.0233731
0.0229994
0.0227639
0.0226128
0.0225185
0.0224674
0.0224532
0.0224705
0.022516
0.0225855
0.0226729
0.0227695
0.0228642
0.0229444
0.0229971
0.0230104
0.0229751
0.0228856
0.0596658
0.0305022
0.0252714
0.0233383
0.0224075
0.021899
0.0216018
0.021423
0.021318
0.0212644
0.0212514
0.0212741
0.0213275
0.0214081
0.0215114
0.0216313
0.0217594
0.0218857
0.021999
0.0220881
0.0221429
0.0221551
0.0221196
0.0524244
0.0276272
0.0232228
0.0216219
0.0208715
0.0204771
0.02026
0.020143
0.0200899
0.020083
0.0201141
0.0201795
0.0202744
0.0203955
0.0205382
0.0206962
0.0208618
0.0210257
0.0211778
0.0213082
0.0214078
0.0214691
0.021487
0.0457689
0.0249767
0.0212848
0.0199856
0.0194049
0.0191215
0.0189852
0.0189328
0.0189355
0.01898
0.0190603
0.0191735
0.0193156
0.0194832
0.0196714
0.0198744
0.0200844
0.0202928
0.0204902
0.0206675
0.0208161
0.020929
0.0210008
0.0398066
0.0225106
0.0194695
0.0184469
0.0180244
0.017847
0.0177905
0.0178041
0.0178658
0.0179656
0.0180996
0.0182658
0.0184609
0.0186813
0.0189222
0.0191776
0.0194399
0.0197006
0.0199507
0.0201812
0.0203838
0.0205515
0.0206788
0.0345217
0.0202149
0.0177783
0.0170141
0.0167408
0.0166655
0.0166881
0.0167693
0.0168928
0.017052
0.0172443
0.0174689
0.0177232
0.0180034
0.0183048
0.018621
0.0189444
0.0192663
0.0195774
0.0198684
0.020131
0.0203578
0.020543
0.0300385
0.018137
0.0162319
0.0157024
0.0155674
0.0155896
0.0156903
0.0158402
0.0160283
0.0162507
0.0165063
0.0167949
0.0171154
0.0174636
0.0178346
0.0182218
0.0186168
0.0190103
0.0193922
0.0197526
0.0200823
0.0203736
0.0206203
0.026442
0.0163331
0.0148588
0.0145297
0.0145181
0.0146313
0.0148081
0.0150275
0.0152826
0.0155719
0.015896
0.0162555
0.01665
0.0170758
0.0175277
0.0179981
0.0184779
0.018956
0.019421
0.0198616
0.0202675
0.0206302
0.0209431
0.0237164
0.0148399
0.0136817
0.0135109
0.0136045
0.0138004
0.0140503
0.0143391
0.0146631
0.0150232
0.0154215
0.0158596
0.016338
0.0168537
0.0174007
0.0179704
0.0185516
0.0191311
0.019695
0.0202296
0.0207232
0.021166
0.0215511
0.0217577
0.0136622
0.0127113
0.0126557
0.0128347
0.0131041
0.0134229
0.0137799
0.0141744
0.0146092
0.0150882
0.0156145
0.0161896
0.0168111
0.0174723
0.0181627
0.0188678
0.0195708
0.0202538
0.0209002
0.0214956
0.0220292
0.0224938
0.0204227
0.0127806
0.0119478
0.0119692
0.0122146
0.0125474
0.0129298
0.0133532
0.0138189
0.0143323
0.0148996
0.0155261
0.0162146
0.0169636
0.0177652
0.0186054
0.019465
0.020321
0.02115
0.0219304
0.022645
0.0232818
0.0238337
0.0195713
0.012165
0.0113869
0.0114558
0.0117512
0.0121368
0.0125758
0.0130612
0.0135975
0.0141931
0.0148577
0.0155997
0.0164241
0.0173304
0.0183086
0.0193396
0.0203959
0.0214451
0.0224548
0.023397
0.0242511
0.0250043
0.025651
0.019087
0.0117871
0.0110298
0.0111287
0.0114602
0.0118857
0.0123696
0.0129086
0.0135114
0.0141915
0.0149636
0.0158406
0.0168313
0.017936
0.0191424
0.0204224
0.0217349
0.0230317
0.024267
0.0254042
0.0264195
0.0273013
0.0280479
0.0188884
0.011641
0.0109082
0.011032
0.0113827
0.0118248
0.0123307
0.0129049
0.0135636
0.0143272
0.0152172
0.0162539
0.0174516
0.0188131
0.0203218
0.0219354
0.0235888
0.0252073
0.0267245
0.0280936
0.0292903
0.0303082
0.0311537
0.0189685
0.011809
0.0111528
0.0112925
0.0116166
0.0120194
0.0124965
0.0130676
0.0137588
0.0145982
0.0156162
0.0168429
0.0183026
0.0200029
0.0219224
0.0239944
0.0261119
0.0281527
0.0300194
0.0316565
0.0330465
0.0341972
0.0351301
0.0195449
0.0126926
0.0121836
0.0122335
0.0123723
0.0125902
0.0129279
0.0134212
0.0141007
0.0149982
0.0161518
0.017605
0.0193987
0.0215527
0.0240415
0.0267607
0.0295261
0.0321257
0.034417
0.0363464
0.037922
0.0391821
0.0401741
0.0217167
0.0158432
0.0152236
0.0146083
0.0140515
0.0137282
0.0137032
0.0139876
0.0145842
0.0155093
0.0168018
0.018522
0.0207391
0.0235021
0.026791
0.0304497
0.0341508
0.0374921
0.0402758
0.0424888
0.0442053
0.0455203
0.0465204
0.0310948
0.0267752
0.0235205
0.0199707
0.0172988
0.0156637
0.0148828
0.0147624
0.0151807
0.0160924
0.0175205
0.0195449
0.0222831
0.0258479
0.0302624
0.0353259
0.0404523
0.044771
0.0480676
0.0504834
0.0522354
0.0535093
0.0544408
0.0788113
0.0606995
0.0434315
0.0306001
0.0227666
0.0185001
0.0164204
0.0156736
0.0158203
0.0166781
0.0182292
0.0205751
0.023909
0.0284697
0.0344298
0.0416501
0.0491648
0.0547107
0.0583886
0.0607896
0.0623867
0.0634788
0.0642443
0.294823
0.136301
0.0786413
0.0467893
0.0300324
0.0218162
0.0180295
0.0165417
0.016383
0.0171668
0.0188151
0.0214518
0.0253692
0.0310117
0.0389148
0.0494395
0.0616716
0.0684087
0.0719326
0.0738796
0.0750411
0.0757834
0.0762826
1.57055
0.208132
0.112662
0.0613553
0.0360018
0.0242912
0.0191314
0.0170951
0.016721
0.017449
0.0191518
0.0219697
0.02628
0.0327455
0.0424637
0.0573686
0.0813585
0.0873683
0.0893214
0.0901368
0.0905569
0.0908069
0.0909694
0.201333
0.163823
0.149808
0.154006
0.0614123
0.0625396
0.0616819
0.0598551
0.0498655
0.0502755
0.0499233
0.0489497
0.0501474
0.0501955
0.0495905
0.0484568
0.0523986
0.0523908
0.0515703
0.050163
0.0539041
0.0536794
0.0526409
0.0508722
0.0560544
0.0575467
0.0562108
0.052689
0.0538587
0.0541931
0.0529776
0.0506914
0.0498607
0.0495653
0.0488441
0.0476466
0.0466049
0.0462889
0.0457073
0.0448004
0.0432961
0.0429188
0.0423437
0.041549
0.039987
0.0395506
0.0389785
0.0382664
0.036942
0.036483
0.035935
0.0352994
0.0342745
0.0338331
0.033332
0.0327749
0.0319893
0.031591
0.0311508
0.030673
0.0300424
0.0296983
0.029323
0.0289206
0.0283773
0.0280884
0.0277751
0.0274409
0.0269405
0.0267031
0.0264458
0.0261711
0.0256883
0.025497
0.0252887
0.0250654
0.0245886
0.024438
0.0242724
0.0240934
0.0236212
0.0235066
0.0233787
0.0232384
0.0227768
0.0226947
0.0226004
0.0224946
0.0220558
0.0220035
0.0219399
0.0218652
0.0214659
0.0214417
0.0214066
0.0213608
0.0210211
0.0210238
0.0210158
0.0209972
0.0207401
0.0207692
0.0207875
0.020795
0.020646
0.0207015
0.0207457
0.0207787
0.0207661
0.0208485
0.020919
0.0209774
0.0211336
0.021244
0.0213413
0.0214253
0.021789
0.0219287
0.0220535
0.0221636
0.0227822
0.0229524
0.0231058
0.0232423
0.0241757
0.0243779
0.0245604
0.0247235
0.0260488
0.0262835
0.0264951
0.0266843
0.0285015
0.0287679
0.0290072
0.0292204
0.0316591
0.0319537
0.0322168
0.0324501
0.0356764
0.0359919
0.0362714
0.0365176
0.0407411
0.041065
0.0413493
0.0415976
0.0470767
0.0473904
0.0476631
0.0478992
0.054944
0.0552242
0.0554651
0.0556718
0.0646461
0.0648669
0.065055
0.0652149
0.0765382
0.076677
0.0767943
0.0768934
0.091051
0.091095
0.091132
0.091163
0.0787355
0.0492256
0.0353213
0.0286978
0.025294
0.0233332
0.022039
0.0210716
0.0202512
0.0195349
0.0189181
0.0183573
0.0178201
0.0173497
0.0169046
0.0162664
0.0151983
0.0141871
0.017686
0.0522224
0.043109
0.0355349
0.030385
0.0271377
0.0250582
0.0236591
0.0226662
0.0218564
0.0211259
0.0204826
0.0199064
0.0193364
0.0187693
0.0182298
0.0176941
0.0170235
0.0166524
0.0228422
0.0463814
0.0414084
0.0361101
0.0318958
0.0288626
0.0267519
0.0252936
0.0242925
0.0235182
0.0227922
0.0221377
0.0215493
0.0209214
0.0202189
0.0195073
0.0188808
0.0184157
0.0188081
0.0312391
0.046451
0.0423564
0.0373751
0.0334442
0.0304725
0.0283538
0.0268645
0.0258821
0.02517
0.0244145
0.0237585
0.0232089
0.0225338
0.0216882
0.02083
0.0201456
0.0199559
0.0205957
0.0384164
0.046929
0.0430974
0.0387039
0.0347854
0.0318815
0.0297893
0.0282178
0.0271835
0.0264128
0.0256665
0.0251155
0.0246002
0.0238437
0.0228649
0.0218313
0.0207317
0.0201345
0.0211024
0.0402442
0.0475565
0.0434586
0.0392575
0.0357167
0.0329526
0.0308613
0.0293254
0.0283926
0.0276504
0.0266979
0.0259289
0.0252011
0.0242589
0.0232387
0.0223697
0.0211893
0.0200134
0.0199011
0.0330774
0.0479604
0.0436298
0.0396995
0.0363196
0.033634
0.0316105
0.0300556
0.029031
0.028125
0.0268518
0.0257279
0.0247646
0.0235284
0.022183
0.0209114
0.0196071
0.0188722
0.0184526
0.0254656
0.046597
0.0424938
0.0390717
0.0361203
0.0337861
0.031871
0.0301688
0.0289008
0.0277745
0.0263259
0.0249056
0.023729
0.0222516
0.0206931
0.0192887
0.0181629
0.0177184
0.0175998
0.0221022
0.0448494
0.040985
0.0378782
0.0351709
0.0329064
0.0309834
0.0292574
0.0278056
0.0264873
0.025058
0.0236033
0.0222833
0.0207879
0.0193043
0.0180486
0.017187
0.0169151
0.0172286
0.0221574
0.0427195
0.0393041
0.0363332
0.0336932
0.0313935
0.0294747
0.0278062
0.0263417
0.0249957
0.0236441
0.0222797
0.0209489
0.0195412
0.0181805
0.017041
0.0162875
0.0160563
0.0164951
0.0218765
0.0398995
0.0370764
0.0343885
0.0319491
0.0298172
0.0280122
0.0264542
0.0250746
0.0237923
0.0225235
0.0212432
0.0199529
0.0186232
0.0173407
0.0162247
0.0154391
0.0151547
0.0155209
0.0200747
0.0369071
0.0346134
0.0323301
0.0302243
0.0283659
0.0267535
0.0253443
0.0240799
0.0228866
0.0216957
0.0204765
0.0192298
0.0179761
0.0167651
0.0156741
0.014846
0.0144349
0.0148479
0.0193118
0.0341565
0.0322938
0.0304169
0.0286659
0.027089
0.0256851
0.0244302
0.023282
0.0221791
0.0210616
0.0198986
0.01871
0.0175377
0.0164142
0.0154015
0.0146168
0.01426
0.0150664
0.0209578
0.0318105
0.0302925
0.0287628
0.0273149
0.0259831
0.0247671
0.0236524
0.0226093
0.0215895
0.0205436
0.0194504
0.0183396
0.0172583
0.0162397
0.0153435
0.0146952
0.014598
0.0160746
0.0243037
0.0298632
0.0286199
0.0273645
0.0261588
0.0250261
0.0239667
0.0229711
0.0220181
0.021072
0.0200981
0.0190866
0.0180669
0.0170837
0.0161772
0.015415
0.0149579
0.0152026
0.0174354
0.0284464
0.0282447
0.0272204
0.02618
0.0251644
0.02419
0.0232576
0.0223607
0.0214841
0.0206046
0.0197014
0.0187738
0.0178484
0.0169665
0.0161757
0.0155573
0.0152999
0.01586
0.0187693
0.0327318
0.0268799
0.0260317
0.0251615
0.0242968
0.0234493
0.0226204
0.021806
0.0209965
0.0201787
0.0193432
0.0184956
0.0176614
0.0168803
0.0162068
0.0157346
0.0156637
0.016481
0.019868
0.0368951
0.0257077
0.0250025
0.0242703
0.0235281
0.0227849
0.0220429
0.0213001
0.0205518
0.0197925
0.0190212
0.0182484
0.0174998
0.0168158
0.0162567
0.015926
0.0160321
0.0170938
0.0209269
0.0409899
0.0246849
0.0240986
0.0234801
0.0228402
0.0221858
0.0215195
0.0208416
0.0201512
0.0194484
0.0187382
0.0180349
0.0173652
0.0167711
0.0163172
0.0161143
0.0163798
0.0176462
0.0218054
0.0436602
0.0237842
0.0232989
0.0227759
0.0222243
0.0216481
0.0210504
0.0204333
0.0197989
0.0191514
0.0184997
0.0178608
0.0172628
0.0167486
0.0163855
0.0162875
0.0166717
0.0180684
0.0223625
0.0444556
0.0229916
0.0225938
0.0221543
0.0216801
0.0211746
0.0206407
0.0200818
0.0195022
0.0189088
0.0183131
0.0177339
0.0172
0.0167549
0.0164671
0.0164469
0.0169082
0.0183726
0.0227008
0.0445702
0.0223034
0.0219836
0.0216187
0.021214
0.0207735
0.0202997
0.0197968
0.0192706
0.0187297
0.0181872
0.0176631
0.0171861
0.0168011
0.0165725
0.0166077
0.017117
0.0186193
0.0230014
0.0452982
0.0217249
0.0214759
0.0211791
0.0208386
0.0204579
0.0200408
0.0195915
0.0191166
0.0186258
0.0181333
0.0176592
0.0172338
0.0168985
0.0167154
0.01679
0.0173317
0.0188676
0.0233654
0.0467363
0.0212677
0.0210841
0.0208503
0.0205696
0.0202451
0.019881
0.0194821
0.0190557
0.0186116
0.0181652
0.0177369
0.017355
0.0170591
0.0169105
0.0170134
0.017579
0.01915
0.0237934
0.0484204
0.0209488
0.0208264
0.0206514
0.0204264
0.0201546
0.0198401
0.0194879
0.0191064
0.0187057
0.0183006
0.0179108
0.0175635
0.0172978
0.0171738
0.0172961
0.0178789
0.0194813
0.0242618
0.0501578
0.0207896
0.020725
0.0206051
0.0204319
0.0202089
0.0199403
0.0196316
0.0192908
0.018928
0.0185576
0.0181985
0.0178773
0.0176324
0.0175239
0.017657
0.0182497
0.0198754
0.0247672
0.0518711
0.0208151
0.0208057
0.0207375
0.0206127
0.0204348
0.020208
0.0199381
0.0196327
0.0193018
0.0189589
0.0186226
0.0183187
0.0180853
0.0179826
0.0181173
0.0187113
0.0203486
0.0253107
0.0533112
0.021055
0.0210986
0.0210791
0.0209992
0.0208622
0.0206729
0.0204367
0.020161
0.0198555
0.019533
0.0192113
0.0189157
0.0186839
0.0185766
0.0187023
0.0192862
0.0209173
0.0258818
0.0540511
0.021544
0.0216387
0.0216652
0.0216264
0.0215264
0.0213697
0.021162
0.0209104
0.0206238
0.0203144
0.0199991
0.0197024
0.019462
0.0193388
0.0194429
0.0200023
0.0216072
0.0265197
0.0543195
0.0223234
0.0224676
0.0225372
0.022536
0.0224687
0.0223401
0.0221558
0.0219226
0.0216487
0.0213453
0.0210284
0.0207216
0.0204619
0.0203108
0.0203797
0.0209001
0.0224683
0.0273541
0.0551352
0.0234433
0.0236352
0.0237449
0.0237777
0.0237389
0.0236339
0.0234683
0.0232483
0.0229814
0.0226777
0.0223518
0.022026
0.0217367
0.0215455
0.0215663
0.0220364
0.0235721
0.0285344
0.0573668
0.0249651
0.0252024
0.0253489
0.0254116
0.0253971
0.0253115
0.0251603
0.0249493
0.0246849
0.0243756
0.0240343
0.0236818
0.0233531
0.0231107
0.0230718
0.0234849
0.0250021
0.0301581
0.0610381
0.0269649
0.0272437
0.0274226
0.0275109
0.0275166
0.0274465
0.0273063
0.0271011
0.0268359
0.0265175
0.0261563
0.0257708
0.0253946
0.025091
0.024983
0.0253352
0.0268486
0.0322718
0.0656557
0.0295363
0.0298507
0.0300563
0.0301648
0.0301864
0.0301284
0.0299968
0.0297958
0.0295288
0.0292001
0.0288171
0.0283946
0.0279642
0.0275901
0.027405
0.0276943
0.0292177
0.0349622
0.0712819
0.0327941
0.0331352
0.0333595
0.0334822
0.033515
0.0334665
0.0333423
0.0331457
0.0328785
0.0325416
0.0321381
0.031678
0.0311883
0.0307332
0.0304559
0.0306675
0.0322122
0.0383659
0.0781011
0.0368785
0.0372333
0.0374663
0.0375957
0.0376351
0.0375937
0.0374771
0.0372877
0.0370248
0.0366859
0.0362681
0.0357737
0.0352212
0.0346712
0.0342718
0.0343787
0.0359417
0.0425755
0.0862152
0.041959
0.0423103
0.0425395
0.0426673
0.0427084
0.0426727
0.0425655
0.042388
0.0421375
0.0418072
0.0413872
0.0408676
0.0402504
0.0395803
0.039011
0.0389595
0.0405303
0.0477828
0.0963997
0.04824
0.048567
0.0487781
0.0488954
0.0489338
0.048903
0.048808
0.0486493
0.0484223
0.0481164
0.0477131
0.0471851
0.0465032
0.0456703
0.044831
0.0445097
0.0460502
0.0541322
0.109473
0.0559678
0.0562479
0.0564267
0.0565249
0.0565566
0.0565307
0.0564516
0.0563196
0.0561293
0.0558674
0.0555068
0.0549964
0.0542499
0.0531674
0.0518246
0.0510113
0.0524287
0.0615877
0.125607
0.0654422
0.0656546
0.0657882
0.0658605
0.0658827
0.0658624
0.0658031
0.0657054
0.0655645
0.0653672
0.0650806
0.0646253
0.0638186
0.0623127
0.0598614
0.0581395
0.0592807
0.0697959
0.144471
0.0770332
0.0771625
0.0772426
0.0772849
0.077297
0.0772835
0.0772475
0.0771897
0.0771077
0.0769917
0.0768115
0.0764704
0.0756654
0.0735236
0.0682754
0.0649503
0.065651
0.0777917
0.164679
0.0912067
0.0912467
0.0912712
0.091284
0.0912876
0.0912838
0.0912739
0.0912587
0.0912381
0.0912096
0.0911603
0.091031
0.0905388
0.0882328
0.0752319
0.0695919
0.0698305
0.0837008
0.182207
)
;

boundaryField
{
    leftWall
    {
        type            epsilonWallFunction;
        value           nonuniform List<scalar> 
50
(
0.00317826
0.00633793
0.0105249
0.0145575
0.018392
0.0220964
0.025753
0.0294344
0.0354612
0.0439329
0.0569246
0.0935877
0.106634
0.0869375
0.0814639
0.0845761
0.0793742
0.0753739
0.0760755
0.080724
0.0867572
0.0930176
0.0961821
0.0966465
0.0948544
0.0912509
0.086284
0.0803501
0.0737767
0.0668237
0.0596658
0.0524244
0.0457689
0.0398066
0.0345217
0.0300385
0.026442
0.0237164
0.0217577
0.0204227
0.0195713
0.019087
0.0188884
0.0189685
0.0195449
0.0217167
0.0310948
0.0788113
0.294823
1.57055
)
;
    }
    rightWall
    {
        type            epsilonWallFunction;
        value           nonuniform List<scalar> 
50
(
0.00318255
0.00511505
0.00797452
0.0108615
0.0136628
0.01591
0.0167047
0.0162649
0.017686
0.0228422
0.0312391
0.0384164
0.0402442
0.0330774
0.0254656
0.0221022
0.0221574
0.0218765
0.0200747
0.0193118
0.0209578
0.0243037
0.0284464
0.0327318
0.0368951
0.0409899
0.0436602
0.0444556
0.0445702
0.0452982
0.0467363
0.0484204
0.0501578
0.0518711
0.0533112
0.0540511
0.0543195
0.0551352
0.0573668
0.0610381
0.0656557
0.0712819
0.0781011
0.0862152
0.0963997
0.109473
0.125607
0.144471
0.164679
0.182207
)
;
    }
    lowerWall
    {
        type            epsilonWallFunction;
        value           nonuniform List<scalar> 
62
(
0.00317826
0.0165872
0.0290287
0.0400165
0.0495183
0.0575488
0.0641886
0.0695778
0.0738723
0.0773084
0.0800125
0.0820522
0.0834725
0.084246
0.0842439
0.083206
0.0800564
0.071649
0.0623021
0.0537776
0.0435481
0.0277346
0.00512459
0.00512459
0.0107475
0.0187189
0.0273401
0.0370933
0.0493188
0.069921
0.124822
0.201333
0.163823
0.149808
0.154006
0.00690256
0.0111344
0.0186338
0.0274036
0.0388736
0.0559345
0.0838196
0.129983
0.00690256
0.0281963
0.0436026
0.0522049
0.0555258
0.0546217
0.0511527
0.0463647
0.0424008
0.0419062
0.0418989
0.0384286
0.0362737
0.0376313
0.0411991
0.0359961
0.0245474
0.0136876
0.00318255
)
;
    }
    atmosphere
    {
        type            inletOutlet;
        inletValue      uniform 0.1;
        value           nonuniform List<scalar> 
46
(
0.1
0.1
0.112662
0.0613553
0.0360018
0.0242912
0.0191314
0.0170951
0.016721
0.017449
0.0191518
0.0219697
0.02628
0.0327455
0.0424637
0.0573686
0.1
0.1
0.1
0.1
0.1
0.1
0.1
0.1
0.1
0.1
0.1
0.1
0.1
0.1
0.1
0.1
0.1
0.1
0.1
0.1
0.1
0.1
0.1
0.1
0.1
0.0752319
0.0695919
0.0698305
0.0837008
0.182207
)
;
    }
    defaultFaces
    {
        type            empty;
    }
}


// ************************************************************************* //
