/*--------------------------------*- C++ -*----------------------------------*\
  =========                 |
  \\      /  F ield         | OpenFOAM: The Open Source CFD Toolbox
   \\    /   O peration     | Website:  https://openfoam.org
    \\  /    A nd           | Version:  9
     \\/     M anipulation  |
\*---------------------------------------------------------------------------*/
FoamFile
{
    format      ascii;
    class       volScalarField;
    location    "2.49";
    object      alpha.water;
}
// * * * * * * * * * * * * * * * * * * * * * * * * * * * * * * * * * * * * * //

dimensions      [0 0 0 0 0 0 0];

internalField   nonuniform List<scalar> 
2268
(
1
1
1
1
1
1
1
1
1
1
1
1
1
1
1
0.999999
0.997758
0.981841
0.978933
0.996846
0.997278
0.992483
0.99233
1
0.999999
1
1
1
0.999999
0.999999
0.999999
0.999999
0.999999
1
1
1
1
1
0.999999
0.994331
0.978917
0.978909
0.991221
0.999988
0.999639
0.999536
1
0.999999
1
1
1
1
1
0.999999
1
1
1
1
1
1
1
0.999999
0.994054
0.97891
0.97891
0.979496
0.999988
0.999988
0.999984
1
0.999999
1
1
1
1
1
1
1
1
1
1
1
1
1
1
0.998356
0.985675
0.97942
0.992264
0.999803
0.999988
0.999903
1
0.999999
1
1
1
1
1
1
1
1
1
1
1
1
1
0.999996
0.999772
0.999468
0.999704
1
0.999975
0.999983
0.999896
1
0.999999
0.999999
1
1
1
1
1
1
1
1
1
1
1
1
1
1
1
1
1
1
0.999993
0.999956
1
0.999999
0.999999
1
1
1
1
1
1
1
1
1
1
1
1
1
1
1
1
1
1
1
1
1
1
1
1
1
1
1
1
1
1
1
1
1
1
1
1
1
1
1
0.999999
0.999999
1
1
0.989582
0.989582
0.990996
0.992242
0.992242
0.995241
0.999911
0.991036
0.985834
0.991741
0.998001
0.995936
0.964006
0.960165
0.960165
0.960165
0.960165
0.960165
0.96136
0.989582
0.992415
0.99981
0.999911
0.999911
0.999911
0.999911
0.990848
0.985835
0.996144
0.998004
0.991311
0.960165
0.960165
0.960165
0.960165
0.974693
0.978253
0.984319
0.989582
0.993818
0.999328
0.999911
0.999911
0.999911
0.999909
0.990618
0.995244
0.998004
0.998004
0.993612
0.960167
0.960165
0.963137
0.975039
0.984317
0.984319
0.984319
0.99368
0.994803
0.998094
0.999911
0.999911
0.999911
0.999911
0.990915
0.998004
0.998004
0.998004
0.997855
0.965562
0.960167
0.998024
0.986355
0.937851
0.96992
0.984319
0.999101
0.99991
0.999571
0.999857
0.999911
0.999911
0.999911
0.970042
0.922796
0.987966
0.998004
0.997967
0.993483
0.994719
0.998172
0.986331
0.880963
0.880975
0.91311
0.998264
0.999911
0.999911
0.999911
0.999911
0.999911
0.984623
0.882624
0.880431
0.883179
0.946327
0.996821
0.998167
0.998172
0.998172
0.998172
0.993322
0.880959
0.880989
0.997725
0.99991
0.999911
0.999911
0.999911
0.999911
0.983419
0.880431
0.880431
0.880431
0.909303
0.995895
0.998172
0.998172
0.998172
0.998172
0.998172
0.953439
0.881043
0.99896
0.99991
0.999911
0.999903
0.997453
0.99082
0.990757
0.948525
0.880431
0.905427
0.986976
0.998172
0.998172
0.998172
0.997626
0.99792
0.998164
0.995695
0.941302
1
1
1
1
1
1
1
1
1
1
1
1
1
1
1
0.999999
0.999998
0.999993
0.999981
0.999957
0.999931
0.999882
0.999585
1
1
1
1
1
1
1
1
1
1
1
0.999996
0.99987
0.999455
0.998512
0.996291
0.991809
0.983985
0.97075
0.949789
0.921605
0.899422
0.893575
0.587284
0.554597
0.5375
0.536186
0.540781
0.548084
0.558139
0.567972
0.57457
0.579633
0.583487
0.582557
0.573986
0.558312
0.534142
0.494985
0.448596
0.399377
0.347101
0.295303
0.247345
0.210784
0.190976
0.0193431
0.0130435
0.0110931
0.00922382
0.00790607
0.008571
0.00957635
0.0123495
0.0156436
0.0176539
0.0177252
0.0141879
0.00958764
0.0051201
0.00044459
0.000394465
0.000317455
0.000248387
0.000220993
0.000218329
0.000218358
0.000218334
0.000218358
0.00270436
0.00425926
0.00301707
0.000952051
0.000654589
0.000738046
0.000785851
0.000832038
0.00442688
0.00908479
0.00697101
0.0054471
0.00545856
0.00545503
0.005292
0.0123369
0.0161795
0.016188
0.0103546
0.00322267
0.000234126
0.000218358
0.00215981
0.00189808
0.0044171
0.00346043
0.00065299
0.000652735
0.00101599
0.00749874
0.00780181
0.00702534
0.00706853
0.0090896
0.0144278
0.0144292
0.0144261
0.0143857
0.00858238
0.00724037
0.00522217
0.00193662
0.00048114
0.000218921
0.000251825
0.00548108
0.00187094
0.0044153
0.00441712
0.00201618
0.000654589
0.00497604
0.00780181
0.00780181
0.00780181
0.00758762
0.00395437
0.00538484
0.0103613
0.00814301
0.000984464
0.00107167
0.0010802
0.000584107
0.000220002
0.000218921
0.000218892
0.00024171
0.00515524
0.0017899
0.00430075
0.00438574
0.00485292
0.00491521
0.00496119
0.00448238
0.00199708
0.00277142
0.00311534
0.00102032
8.38272e-08
8.85556e-08
3.61427e-07
0.000973628
0.00306879
0.00306746
0.00306915
0.00111074
0.00022133
0.00021892
0.000218895
0.000967747
0.00238163
0.00238806
0.00176626
0.00217566
0.00338794
0.0025258
4.42709e-05
1.63239e-07
3.63346e-06
3.12503e-06
1.15898e-08
8.11569e-08
3.48423e-07
4.40822e-07
0.000271462
0.00127274
0.00189959
0.00235583
0.00302439
0.00302439
0.00302122
0.000393522
8.80773e-09
0.00165389
0.00138383
0.000415025
4.18634e-06
0.000234105
1.09435e-05
1.58723e-08
1.80758e-09
1.41401e-09
7.65602e-10
6.56287e-10
1.08167e-08
3.89499e-06
7.12693e-06
3.53821e-07
3.21899e-07
1.74768e-07
1.58439e-08
0.000214512
0.000409703
5.02082e-05
1.37597e-05
8.80773e-09
0.00034962
0.000250302
8.52374e-06
1.55636e-07
4.09355e-07
3.31127e-07
4.06299e-10
2.51005e-10
7.66395e-10
7.41918e-10
5.73486e-10
1.22576e-09
1.99181e-07
2.74765e-06
4.55101e-06
4.45206e-06
4.89813e-07
8.32579e-09
2.39773e-11
1.81482e-11
2.49983e-11
3.22412e-10
1.54811e-06
9.04688e-07
1.27215e-07
2.60162e-08
9.70814e-08
1.4865e-07
1.63482e-07
2.33639e-10
2.30585e-10
7.6163e-10
9.32343e-10
5.71604e-10
2.96896e-10
7.27699e-10
4.50744e-08
3.27262e-07
3.39983e-07
7.15095e-07
9.43968e-07
6.71586e-07
1.82136e-11
1.81482e-11
2.32546e-11
2.4151e-11
1.69914e-08
3.30796e-09
3.89708e-09
9.32212e-08
3.66646e-07
2.46456e-07
2.30585e-10
2.29059e-10
9.25059e-10
1.08433e-09
7.52004e-10
2.78924e-10
1.80882e-09
2.79618e-08
3.12322e-08
2.95279e-11
2.93057e-11
1.61232e-09
6.86787e-12
2.51028e-11
6.8633e-11
2.70447e-11
2.52503e-11
9.25889e-10
3.85912e-10
1.9803e-09
1.93641e-07
5.0875e-07
5.06736e-07
2.06142e-09
1.55404e-10
7.90988e-10
1.03565e-09
6.36745e-10
2.50402e-10
1.32009e-09
1.12302e-08
1.24937e-08
1.16617e-10
2.58974e-09
2.83709e-09
8.40003e-12
5.51149e-11
9.02497e-11
5.20414e-11
2.56521e-11
8.5207e-10
3.01108e-10
6.59124e-10
1.82196e-07
5.08364e-07
5.0873e-07
5.76722e-08
1.54921e-10
3.80405e-10
5.64881e-10
2.83404e-10
1.20825e-10
6.63712e-10
2.15716e-09
2.06489e-12
1.04637e-11
1.25032e-10
2.6125e-10
2.74347e-14
9.55065e-12
4.10375e-11
4.97132e-11
2.93205e-11
1.28359e-09
2.87065e-10
3.65459e-10
5.13837e-08
1.91103e-07
1.70516e-07
7.64819e-08
1.55091e-10
1.59881e-10
1.67443e-10
3.80648e-11
2.12126e-11
1.80811e-10
2.32577e-10
2.05886e-12
2.73016e-13
3.71285e-12
-2.61094e-13
-2.00763e-13
8.05529e-13
1.2826e-11
1.9423e-11
4.80105e-12
5.00473e-09
2.01749e-10
1.99971e-10
2.03271e-10
1.91847e-10
4.19903e-10
1.71367e-08
4.00041e-10
1.54023e-10
9.61189e-11
2.49045e-12
5.38611e-13
1.71313e-11
4.13339e-12
-1.75399e-13
-1.78953e-12
-1.15453e-12
-1.32809e-12
-1.75248e-12
-1.96702e-12
-1.67178e-12
-1.19438e-12
-7.24016e-13
6.4748e-09
8.37425e-08
4.7718e-08
1.7803e-10
1.13774e-10
5.78096e-11
5.59711e-11
3.93359e-10
1.43266e-10
6.93844e-11
3.9474e-12
2.2495e-13
2.16673e-13
-2.83345e-13
-2.15747e-12
-3.18467e-12
-3.52806e-12
-3.50111e-12
-3.25973e-12
-2.77034e-12
-2.12706e-12
-1.48955e-12
-9.67729e-13
4.90736e-09
1.41866e-07
9.02666e-07
2.23992e-07
6.62626e-09
5.66343e-11
5.08307e-11
1.59071e-10
8.67413e-11
4.20179e-11
7.81656e-12
4.63098e-13
-3.25162e-13
-1.43857e-12
-2.6191e-12
-3.39232e-12
-3.73861e-12
-3.69904e-12
-3.34277e-12
-2.77416e-12
-2.12275e-12
-1.50356e-12
-9.8983e-13
3.58331e-09
1.10451e-07
9.48087e-07
9.44256e-07
8.12192e-08
5.10205e-11
5.05833e-11
5.21587e-11
4.66749e-11
3.3309e-11
1.45463e-11
3.0043e-12
5.65005e-15
-1.00469e-12
-2.02028e-12
-2.72495e-12
-3.05195e-12
-3.02824e-12
-2.72833e-12
-2.2617e-12
-1.74073e-12
-1.25081e-12
-8.40826e-13
3.58249e-09
3.83432e-08
9.48744e-07
9.48744e-07
1.19187e-07
6.46013e-11
4.90906e-11
4.90536e-11
4.51111e-11
3.49678e-11
2.1905e-11
8.59226e-12
1.05363e-12
-2.626e-13
-1.17956e-12
-1.77877e-12
-2.0655e-12
-2.07242e-12
-1.87165e-12
-1.55447e-12
-1.20237e-12
-8.7206e-13
-5.95043e-13
3.58248e-09
4.40752e-09
9.48087e-07
6.01404e-07
4.62592e-08
1.69234e-10
5.32027e-11
5.35992e-11
4.7889e-11
3.8684e-11
2.68674e-11
1.34473e-11
3.11293e-12
8.8774e-14
-5.03928e-13
-9.63702e-13
-1.19195e-12
-1.21672e-12
-1.10212e-12
-9.15088e-13
-7.08387e-13
-5.15648e-13
-3.54365e-13
3.58249e-09
4.6967e-09
2.96691e-07
2.96064e-08
2.24645e-09
1.38089e-10
6.91568e-11
5.85287e-11
4.99617e-11
4.00065e-11
2.77262e-11
1.44679e-11
4.16309e-12
3.03708e-13
-1.6231e-13
-4.5982e-13
-6.05872e-13
-6.26467e-13
-5.6555e-13
-4.65846e-13
-3.57984e-13
-2.59445e-13
-1.78149e-13
3.62562e-09
7.15477e-09
1.42852e-09
2.25567e-10
5.35333e-11
7.42361e-11
6.63272e-11
5.82427e-11
4.95245e-11
3.89198e-11
2.60948e-11
1.31002e-11
3.70132e-12
2.82558e-13
-3.52161e-14
-2.06499e-13
-2.82606e-13
-2.90325e-13
-2.57259e-13
-2.07284e-13
-1.56007e-13
-1.11186e-13
-7.54667e-14
3.27342e-09
6.57573e-09
6.63991e-10
5.35333e-11
5.27057e-11
5.59376e-11
5.70034e-11
5.34156e-11
4.5356e-11
3.36155e-11
2.01118e-11
8.49532e-12
1.89354e-12
1.07701e-13
-2.48451e-14
-9.69835e-14
-1.25334e-13
-1.23379e-13
-1.04938e-13
-8.11876e-14
-5.88004e-14
-4.05273e-14
-2.67858e-14
1.92869e-09
2.40076e-09
2.56917e-10
5.33584e-11
5.17923e-11
5.10193e-11
4.93846e-11
4.48175e-11
3.57331e-11
2.31353e-11
1.09031e-11
3.12367e-12
3.76606e-13
8.56736e-15
-2.34822e-14
-4.57714e-14
-5.23438e-14
-4.78786e-14
-3.82449e-14
-2.78618e-14
-1.90446e-14
-1.24491e-14
-7.86398e-15
5.13784e-10
2.42726e-10
7.63131e-11
5.11173e-11
4.89466e-11
4.62377e-11
4.15289e-11
3.35612e-11
2.24116e-11
1.09706e-11
3.32199e-12
4.81583e-13
1.76194e-14
-1.15233e-15
-1.41494e-14
-1.98797e-14
-1.99664e-14
-1.66796e-14
-1.22866e-14
-8.26829e-15
-5.22497e-15
-3.16918e-15
-1.87207e-15
6.64604e-11
4.88652e-11
4.87726e-11
4.61583e-11
4.29423e-11
3.79341e-11
3.0034e-11
1.96164e-11
9.39303e-12
2.78951e-12
4.12452e-13
2.15571e-14
1.70255e-16
-3.44532e-15
-6.7996e-15
-7.67512e-15
-6.80087e-15
-5.12639e-15
-3.42673e-15
-2.09156e-15
-1.19654e-15
-6.57435e-16
-3.53902e-16
2.23502e-11
2.95157e-11
3.65643e-11
3.61509e-11
3.19648e-11
2.46592e-11
1.54424e-11
6.97873e-12
1.9354e-12
2.70796e-13
1.55333e-14
1.80537e-16
-6.21328e-16
-1.99125e-15
-2.74314e-15
-2.60928e-15
-2.0354e-15
-1.3684e-15
-8.18234e-16
-4.45685e-16
-2.26364e-16
-1.09938e-16
-5.23536e-17
1.428e-11
1.98035e-11
2.35696e-11
2.19685e-11
1.69154e-11
1.00474e-11
4.18337e-12
1.05767e-12
1.36891e-13
7.95271e-15
1.23914e-16
-5.13251e-17
-4.87506e-16
-8.59848e-16
-9.49386e-16
-7.72522e-16
-5.2748e-16
-3.12887e-16
-1.65361e-16
-7.93653e-17
-3.52555e-17
-1.48262e-17
-6.06395e-18
7.22788e-12
1.04889e-11
1.04585e-11
8.21119e-12
4.70404e-12
1.79415e-12
4.06912e-13
4.86158e-14
2.88984e-15
7.27997e-17
2.43365e-19
-9.72635e-17
-2.31531e-16
-3.05824e-16
-2.82206e-16
-1.96902e-16
-1.16807e-16
-6.05342e-17
-2.80038e-17
-1.17414e-17
-4.52463e-18
-1.62976e-18
-5.61352e-19
1.69473e-12
2.89365e-12
2.29437e-12
1.28912e-12
4.62e-13
9.62902e-14
1.09491e-14
7.03596e-16
2.71334e-17
2.0201e-19
-1.52224e-17
-5.25685e-17
-8.54657e-17
-9.15978e-17
-7.16274e-17
-4.27153e-17
-2.18339e-17
-9.79594e-18
-3.93404e-18
-1.43243e-18
-4.77647e-19
-1.47437e-19
-4.27432e-20
1.0912e-13
2.54342e-13
1.60155e-13
5.83521e-14
1.20959e-14
1.45492e-15
1.13809e-16
6.50678e-18
8.04327e-20
-1.77456e-18
-9.75991e-18
-2.03033e-17
-2.59107e-17
-2.31864e-17
-1.54063e-17
-7.80338e-18
-3.40599e-18
-1.31085e-18
-4.53071e-19
-1.42281e-19
-4.09211e-20
-1.08527e-20
-2.67506e-21
1.4557e-15
4.98593e-15
2.73784e-15
7.39855e-16
1.16333e-16
1.28099e-17
1.07118e-18
2.29961e-20
-1.1274e-19
-1.40766e-18
-3.97333e-18
-6.25177e-18
-6.56134e-18
-4.95317e-18
-2.7885e-18
-1.1892e-18
-4.38813e-19
-1.43448e-19
-4.22532e-20
-1.13384e-20
-2.79157e-21
-6.33843e-22
-1.33347e-22
7.65892e-18
3.1308e-17
1.91842e-17
5.8376e-18
1.03967e-18
1.2178e-19
4.14918e-21
2.32123e-23
-1.46733e-19
-6.11079e-19
-1.24631e-18
-1.58767e-18
-1.39667e-18
-8.91339e-19
-4.22561e-19
-1.50086e-19
-4.62861e-20
-1.27081e-20
-3.15378e-21
-7.14683e-22
-1.4885e-22
-2.86196e-23
-5.09837e-24
5.01619e-20
2.10961e-19
1.4919e-19
5.1518e-20
8.25048e-21
3.00974e-22
3.58611e-24
-1.20715e-20
-7.03853e-20
-1.96401e-19
-3.18087e-19
-3.37672e-19
-2.50992e-19
-1.35161e-19
-5.35268e-20
-1.56335e-20
-3.97521e-21
-9.0423e-22
-1.86506e-22
-3.51873e-23
-6.10438e-24
-9.77352e-25
-1.44892e-25
1.00073e-22
1.23973e-21
7.23752e-22
1.53278e-22
1.05924e-23
-9.45386e-22
-2.42666e-21
-7.06708e-21
-2.36428e-20
-5.05721e-20
-6.77212e-20
-6.07957e-20
-3.83108e-20
-1.73489e-20
-5.69081e-21
-1.34903e-21
-2.78083e-22
-5.14964e-23
-8.67602e-24
-1.33917e-24
-1.8992e-25
-2.47979e-26
-2.9891e-27
5.3513e-26
7.63381e-25
4.88446e-25
-3.10113e-22
-7.42541e-22
-1.14677e-21
-1.43612e-21
-2.5897e-21
-6.22401e-21
-1.08017e-20
-1.22299e-20
-9.37091e-21
-5.01732e-21
-1.90562e-21
-5.14266e-22
-9.78885e-23
-1.60181e-23
-2.35865e-24
-3.16761e-25
-3.90146e-26
-4.40508e-27
-4.55936e-28
-4.33276e-29
-1.35799e-22
-1.87723e-22
-2.68736e-22
-3.86088e-22
-4.83896e-22
-5.24029e-22
-5.15598e-22
-7.12393e-22
-1.344e-21
-1.95624e-21
-1.90228e-21
-1.25415e-21
-5.7272e-22
-1.82612e-22
-4.04872e-23
-6.16561e-24
-7.81493e-25
-8.86517e-26
-9.15665e-27
-8.65165e-28
-7.43712e-29
-5.80549e-30
-4.11236e-31
-5.08316e-23
-9.79588e-23
-1.32081e-22
-1.59033e-22
-1.70487e-22
-1.59213e-22
-1.36283e-22
-1.56835e-22
-2.44653e-22
-3.05883e-22
-2.58994e-22
-1.48343e-22
-5.8243e-23
-1.57133e-23
-2.88732e-24
-3.55424e-25
-3.40741e-26
-2.8554e-27
-2.15004e-28
-1.46171e-29
-8.85502e-31
-4.7781e-32
-2.23952e-33
-1.01302e-23
-2.59228e-23
-3.64803e-23
-4.2451e-23
-4.25452e-23
-3.66016e-23
-2.85472e-23
-2.86787e-23
-3.83361e-23
-4.1994e-23
-3.14018e-23
-1.58306e-23
-5.42174e-24
-1.26023e-24
-1.96544e-25
-2.01799e-26
-1.44592e-27
-8.50438e-29
-4.26716e-30
-1.83829e-31
-6.63579e-33
-2.04841e-34
-5.51619e-36
-1.09061e-24
-4.48252e-24
-7.10185e-24
-8.44269e-24
-8.25551e-24
-6.76823e-24
-4.94512e-24
-4.47297e-24
-5.26162e-24
-5.14091e-24
-3.4495e-24
-1.5583e-24
-4.76628e-25
-9.90745e-26
-1.42307e-26
-1.30919e-27
-7.70767e-29
-3.17261e-30
-8.63391e-32
-1.48013e-33
-1.75313e-35
-1.60178e-37
-1.23081e-39
0.999142
0.998824
0.998481
0.998126
0.90081
0.895793
0.881842
0.866857
0.18481
0.17419
0.161487
0.153103
0.000221388
0.000249977
0.000291637
0.000320001
0.00749592
0.00749654
0.00663575
0.00271155
0.00749674
0.00749592
0.00659672
0.00470823
0.00749592
0.00486897
8.51452e-07
9.84286e-07
0.00250672
0.000146985
8.04122e-07
6.48421e-06
8.80773e-09
1.6662e-08
8.02026e-07
7.10399e-07
1.52061e-06
5.74525e-06
7.1141e-06
5.36543e-06
7.11348e-06
7.1141e-06
7.11422e-06
7.1141e-06
2.70255e-06
7.01353e-06
7.11427e-06
7.1139e-06
1.90116e-11
1.93992e-11
1.29182e-08
1.74331e-06
1.90116e-11
1.90113e-11
1.93986e-11
2.21631e-11
3.18993e-11
9.3566e-11
1.31426e-10
1.12177e-10
8.59435e-12
9.83119e-11
3.04006e-10
4.3599e-10
0
2.69638e-12
7.42048e-11
2.95203e-10
-6.82449e-13
-1.82864e-13
2.35602e-12
5.83594e-11
-7.56543e-13
-5.69174e-13
-3.85803e-13
7.94851e-14
-6.58503e-13
-5.08457e-13
-3.83113e-13
-2.77721e-13
-4.72785e-13
-3.70477e-13
-2.85729e-13
-2.16224e-13
-2.83709e-13
-2.23992e-13
-1.74339e-13
-1.33733e-13
-1.4294e-13
-1.13114e-13
-8.82842e-14
-6.79687e-14
-6.03134e-14
-4.75885e-14
-3.7063e-14
-2.84872e-14
-2.11465e-14
-1.65161e-14
-1.27563e-14
-9.73647e-15
-6.06672e-15
-4.64403e-15
-3.52556e-15
-2.65144e-15
-1.39275e-15
-1.03226e-15
-7.61884e-16
-5.59186e-16
-2.49623e-16
-1.76303e-16
-1.24707e-16
-8.82117e-17
-3.42366e-17
-2.25425e-17
-1.49762e-17
-1.00311e-17
-3.57663e-18
-2.13094e-18
-1.29091e-18
-7.97025e-19
-2.90803e-19
-1.51475e-19
-8.03836e-20
-4.3896e-20
-1.92107e-20
-8.54793e-21
-3.82605e-21
-1.75479e-21
-1.04764e-21
-3.99107e-22
-1.49516e-22
-5.59994e-23
-4.57067e-23
-1.50813e-23
-4.81316e-24
-1.49732e-24
-1.51884e-24
-4.33711e-25
-1.18903e-25
-3.12899e-26
-3.68288e-26
-8.94669e-27
-2.06425e-27
-4.32673e-28
-6.30874e-28
-1.25528e-28
-2.07495e-29
8.34247e-32
-7.26833e-30
-9.92397e-31
2.47035e-31
1.05435e-30
-4.83122e-32
1.84307e-33
3.45197e-32
1.85032e-31
3.34267e-35
6.10367e-34
6.0592e-33
4.52834e-32
-1.93497e-37
9.34791e-38
6.04672e-37
5.01557e-36
-1.7792e-41
-2.47234e-43
-3.33406e-45
-4.36871e-47
0.998848
0.999896
0.996642
0.943035
0.861354
0.837778
0.899958
0.945299
0.941653
0.942344
0.943154
0.93148
0.915622
0.895023
0.933112
0.99796
0.998157
0.998154
0.998149
0.837512
0.797607
0.741112
0.712443
0.720259
0.778056
0.812962
0.825584
0.786442
0.743514
0.707356
0.662409
0.646858
0.716217
0.810768
0.887074
0.94936
0.990593
0.992856
0.148616
0.185066
0.268946
0.356049
0.407502
0.419583
0.422902
0.459605
0.526755
0.577667
0.611029
0.624563
0.624489
0.62435
0.59495
0.554244
0.578506
0.615976
0.635027
0.000330576
0.000331546
0.000333575
0.000336751
0.000341457
0.000346947
0.000351787
0.00035585
0.00583835
0.0163127
0.0273751
0.0448749
0.0590838
0.0524725
0.047761
0.0420949
0.0371328
0.0363625
0.0430366
0.00103878
0.000970629
0.000863824
0.000950676
0.00107071
0.000965474
0.00101346
0.0011003
0.00110097
0.00110227
0.00110386
0.00110486
0.00119523
0.00132233
0.0014066
0.00116788
0.000935331
0.000933537
0.000933757
0.00244794
0.00109484
0.00195198
0.00247079
0.0024708
0.00243778
0.00206183
0.00229986
0.00227518
0.0022789
0.0022374
0.00264096
0.00326187
0.00326186
0.00324573
0.00252941
0.000933537
0.000933537
0.000933537
0.00135774
0.00245428
0.00245469
0.00243997
0.00239132
0.00101893
0.000234215
0.000188589
5.69161e-05
0.000800485
0.000566706
0.000614766
0.00109159
0.00185133
0.00239286
0.00274473
0.00274616
0.00270975
0.00268405
0.00031331
0.00108009
0.000853699
0.000321325
8.14037e-05
7.15381e-06
0.000179745
5.81646e-05
3.41293e-05
1.07267e-06
1.06901e-06
1.06908e-06
1.06908e-06
4.85034e-06
0.000163347
0.00123114
0.00204437
0.00190573
0.00192282
1.32189e-08
1.16105e-08
1.15815e-08
1.15817e-08
1.15816e-08
1.15817e-08
1.1593e-08
1.21411e-08
1.01877e-06
7.60212e-06
5.24503e-06
1.6851e-06
1.08181e-06
3.13604e-06
2.75637e-05
0.000103734
0.000378565
0.000668529
0.00074074
1.37994e-06
3.56829e-07
1.15818e-08
1.15815e-08
1.15817e-08
1.1593e-08
7.29672e-08
1.03228e-05
3.21081e-05
3.21081e-05
3.19636e-05
8.96559e-06
2.11658e-05
4.6138e-05
7.58095e-05
4.50779e-05
2.4156e-05
1.66051e-05
1.92167e-05
7.11385e-06
5.47246e-06
4.72042e-07
1.15818e-08
1.15931e-08
1.18864e-08
9.6363e-07
2.24667e-05
3.20591e-05
2.68244e-05
6.68656e-06
4.01297e-05
9.38604e-05
9.38665e-05
9.38665e-05
9.38665e-05
2.83696e-05
1.19842e-06
1.82659e-06
7.10358e-06
7.08847e-06
5.22807e-06
1.16028e-08
1.17023e-08
1.19855e-07
6.71024e-07
2.85595e-06
6.03541e-06
1.52132e-06
4.73825e-10
4.8266e-10
2.51071e-05
8.54997e-05
9.38665e-05
9.38627e-05
6.71985e-05
1.19787e-06
1.19721e-06
4.94598e-06
7.07351e-06
6.41527e-06
3.37287e-07
1.25318e-08
2.90046e-07
5.16268e-07
4.78552e-10
4.73708e-10
4.73825e-10
4.73708e-10
4.73825e-10
4.82228e-10
6.93041e-10
3.44844e-06
1.52349e-05
1.95602e-05
4.39375e-06
1.19721e-06
6.34931e-11
3.24259e-07
1.03953e-06
6.02783e-07
1.47328e-08
8.33184e-08
3.33468e-07
1.51826e-07
7.03562e-10
4.73825e-10
5.36968e-10
4.47364e-09
1.30705e-08
1.82953e-08
1.83439e-08
1.90602e-08
2.50133e-07
2.60906e-06
1.19721e-06
1.00015e-10
1.00397e-10
9.99982e-11
1.17158e-10
8.20714e-08
1.53068e-09
1.5815e-09
1.42241e-07
2.97502e-07
9.62925e-09
2.28403e-10
2.28326e-10
2.51349e-10
3.26807e-08
1.10396e-07
9.0044e-06
2.52081e-05
2.82817e-05
2.02435e-05
4.35478e-10
1.62436e-10
1.40227e-10
4.37503e-09
1.09397e-08
1.39665e-09
2.38846e-08
2.90633e-07
3.39127e-07
2.15729e-07
2.28326e-10
2.27842e-10
2.25463e-10
2.50559e-10
1.26488e-07
3.12231e-05
5.70369e-05
5.70474e-05
5.70369e-05
4.49891e-10
3.18173e-10
3.92661e-11
2.58396e-12
2.52897e-12
5.40952e-10
3.73027e-08
3.22555e-07
3.39119e-07
2.99529e-07
2.27919e-10
2.2535e-10
2.2323e-10
2.18347e-10
2.18381e-10
1.08993e-05
4.12751e-05
5.44566e-05
5.70474e-05
2.04617e-10
1.29238e-10
4.61964e-11
3.70601e-12
2.52483e-12
2.4707e-12
3.18792e-14
5.88485e-08
2.85273e-07
1.89991e-07
4.46582e-10
1.37651e-09
2.18347e-10
2.18347e-10
2.18347e-10
2.18387e-10
2.23055e-10
4.03373e-07
2.70726e-05
4.75332e-12
7.73951e-12
7.07746e-12
1.99142e-12
2.52661e-12
7.45139e-12
2.97753e-14
3.18792e-14
4.90742e-13
4.35589e-08
1.18323e-07
6.81687e-08
1.36424e-09
2.18347e-10
2.26071e-10
2.26203e-10
2.16216e-10
2.37564e-08
3.24039e-07
-1.15868e-13
-2.40666e-14
-3.54508e-16
9.10787e-15
5.46996e-15
1.66314e-14
2.96638e-14
2.97752e-14
7.67719e-14
1.19048e-08
1.18329e-07
1.18321e-07
2.9483e-08
2.1836e-10
3.14491e-10
4.25574e-10
1.44158e-10
8.85786e-07
3.19778e-05
-1.07936e-13
-3.73758e-14
-5.00696e-15
-4.79736e-16
-3.92828e-16
1.81831e-15
1.91771e-14
6.67761e-14
1.10379e-13
1.32415e-09
6.15564e-08
1.1287e-07
2.97661e-08
2.1846e-10
2.86952e-10
3.04466e-10
1.16932e-10
6.52329e-07
3.44552e-05
-7.53022e-14
-3.91661e-14
-1.86649e-14
-8.04351e-15
-3.0815e-15
-8.93295e-16
1.15505e-15
1.72515e-14
1.64115e-12
1.63967e-12
1.65484e-12
1.68536e-12
4.94085e-09
1.38329e-09
3.80291e-10
3.66947e-10
1.18603e-10
2.61388e-11
3.44575e-05
-3.88547e-14
-2.11448e-14
-1.09756e-14
-5.4094e-15
-2.50482e-15
-1.0605e-15
-3.04598e-16
1.40809e-15
6.58946e-13
6.4915e-12
9.77546e-12
1.01279e-11
1.01336e-11
3.8108e-10
3.03516e-10
2.6161e-10
1.15721e-10
2.58059e-11
3.44454e-05
-1.62331e-14
-8.89312e-15
-4.74333e-15
-2.48117e-15
-1.26735e-15
-6.19419e-16
-2.61646e-16
9.04654e-18
9.40628e-14
1.69097e-12
8.9701e-12
1.28386e-11
1.64806e-11
2.94926e-11
5.66426e-11
1.03369e-10
5.74238e-11
2.42469e-11
3.04401e-05
-5.47458e-15
-2.95953e-15
-1.56332e-15
-8.22777e-16
-4.36693e-16
-2.31518e-16
-1.13097e-16
-2.34365e-17
4.08614e-15
1.35304e-13
1.25937e-12
5.3346e-12
1.16705e-11
1.40731e-11
2.18679e-11
5.71199e-11
2.24161e-11
1.77154e-11
1.66024e-05
-1.45603e-15
-7.68069e-16
-3.939e-16
-2.00791e-16
-1.04427e-16
-5.57872e-17
-2.7465e-17
-1.01366e-18
3.22031e-16
8.09469e-15
6.27147e-14
3.04632e-13
1.3379e-12
4.17252e-12
1.05092e-11
3.81754e-11
1.26582e-11
1.27251e-11
2.45578e-05
-2.96399e-16
-1.51347e-16
-7.48065e-17
-3.63561e-17
-1.78316e-17
-8.87008e-18
-3.22186e-18
8.12787e-18
9.48439e-17
8.38879e-16
6.53731e-15
4.46424e-14
2.67157e-13
1.23261e-12
5.55232e-12
1.99594e-11
1.25884e-11
8.12247e-07
2.67438e-05
-4.44361e-17
-2.1733e-17
-1.03007e-17
-4.76045e-18
-2.15785e-18
-8.85639e-19
1.51601e-19
8.3051e-18
7.37494e-17
5.56498e-16
3.77985e-15
2.40075e-14
1.44229e-13
7.0584e-13
4.45211e-12
1.3215e-11
1.25527e-11
1.71626e-06
2.67443e-05
-4.70187e-18
-2.16813e-18
-9.7249e-19
-4.17837e-19
-1.3639e-19
0
8.2003e-19
7.76696e-18
6.56572e-17
4.90528e-16
3.29736e-15
2.03729e-14
1.19115e-13
5.7624e-13
4.28209e-12
1.24704e-11
1.2503e-11
1.25043e-06
2.6743e-05
-3.37012e-19
-1.42756e-19
-5.31883e-20
0
9.65167e-20
6.30378e-19
2.27252e-18
9.68342e-18
6.52791e-17
4.73999e-16
3.16311e-15
1.94465e-14
1.13196e-13
5.43564e-13
5.20984e-12
2.20713e-11
1.48058e-11
1.44448e-11
2.54597e-05
-1.59295e-20
-5.10774e-21
9.48748e-21
2.50139e-19
2.21045e-18
1.13267e-17
3.78423e-17
8.8833e-17
2.07484e-16
7.60599e-16
3.98505e-15
2.24479e-14
1.21015e-13
5.98591e-13
7.779e-12
4.04344e-11
3.21158e-11
1.44281e-11
4.12318e-06
-5.05316e-22
9.02968e-22
8.81908e-20
1.68578e-18
1.60589e-17
9.33426e-17
3.64711e-16
1.00956e-15
2.13866e-15
4.41564e-15
1.20452e-14
4.86059e-14
2.19308e-13
1.03872e-12
1.47345e-11
4.72992e-11
4.42903e-11
1.44448e-11
2.66464e-06
-1.13953e-23
2.97708e-21
2.42759e-19
6.28618e-18
7.48022e-17
4.96206e-16
2.17988e-15
7.11289e-15
1.77481e-14
3.75743e-14
7.83981e-14
1.94977e-13
5.82089e-13
1.92402e-12
1.77312e-11
4.72992e-11
4.50984e-11
1.45959e-11
2.22494e-05
-2.59159e-26
3.9951e-21
4.38051e-19
1.60316e-17
2.49898e-16
1.9939e-15
1.00064e-14
3.71655e-14
1.08112e-13
2.58313e-13
5.4324e-13
1.0235e-12
1.97874e-12
3.90688e-12
1.08288e-11
3.99703e-11
3.58924e-11
1.46569e-11
2.22506e-05
3.82053e-25
4.11591e-21
5.48358e-19
2.83482e-17
5.88068e-16
6.06615e-15
3.69826e-14
1.5844e-13
5.46267e-13
1.42328e-12
2.79322e-12
4.21082e-12
6.71212e-12
9.21403e-12
1.31886e-11
2.1669e-11
2.67097e-11
1.46756e-11
2.224e-05
1.75394e-25
1.85622e-21
5.41495e-19
3.55038e-17
9.63971e-16
1.33521e-14
1.0472e-13
5.40377e-13
2.28332e-12
6.35225e-12
9.90651e-12
1.19527e-11
1.77455e-11
2.8523e-11
3.07756e-11
5.76341e-11
2.17642e-10
1.46892e-11
2.18659e-05
8.17215e-26
6.18721e-22
2.25082e-19
3.52268e-17
1.15911e-15
2.0974e-14
2.16944e-13
1.40516e-12
7.13725e-12
2.13319e-11
2.56034e-11
2.46029e-11
3.68914e-11
1.11229e-10
3.24192e-10
1.4571e-09
1.36163e-09
1.50032e-11
1.57797e-05
1.95782e-26
2.01052e-22
8.24513e-20
1.47107e-17
1.10635e-15
2.46192e-14
3.30532e-13
2.82028e-12
1.62682e-11
5.26992e-11
5.71541e-11
4.2893e-11
8.42081e-11
6.47383e-10
2.38894e-09
5.95838e-09
4.47662e-09
1.75105e-11
1.31049e-05
2.3361e-27
4.0053e-23
2.03051e-20
5.01792e-18
4.73432e-16
1.95362e-14
3.87964e-13
4.5915e-12
2.9327e-11
1.00654e-10
1.20697e-10
8.93694e-11
2.05052e-10
1.57247e-09
5.22062e-09
6.05893e-09
4.69311e-09
2.74014e-11
9.0542e-06
1.59903e-28
4.81822e-24
2.34009e-21
1.00619e-18
1.71235e-16
8.05534e-15
3.48777e-13
5.8339e-12
4.16853e-11
1.37877e-10
1.84043e-10
1.8601e-10
3.78518e-10
1.60966e-09
3.74184e-09
3.82835e-09
1.23891e-09
4.24293e-11
8.74753e-06
2.93179e-35
1.54485e-28
2.62733e-23
7.24409e-20
2.34339e-17
1.72155e-15
1.08156e-13
5.65949e-12
4.32629e-11
1.39332e-10
1.92982e-10
2.1737e-10
3.22202e-10
1.49693e-14
1.53498e-08
5.33162e-08
2.45643e-08
5.17419e-11
8.74026e-06
1.88599e-46
1.53248e-38
9.90022e-30
4.77588e-24
2.67797e-20
1.73904e-17
6.3175e-15
8.65264e-13
7.63886e-12
3.29233e-11
6.32383e-11
7.68446e-11
5.11098e-11
0
3.81942e-08
6.73602e-08
6.09716e-08
1.05584e-10
6.08898e-06
)
;

boundaryField
{
    leftWall
    {
        type            zeroGradient;
    }
    rightWall
    {
        type            zeroGradient;
    }
    lowerWall
    {
        type            zeroGradient;
    }
    atmosphere
    {
        type            inletOutlet;
        inletValue      uniform 0;
        value           nonuniform List<scalar> 
46
(
-1.09061e-24
-4.48252e-24
-7.10185e-24
-8.44269e-24
-8.25551e-24
-6.76823e-24
-4.94512e-24
-4.47297e-24
-5.26162e-24
-5.14091e-24
-3.4495e-24
-1.5583e-24
-4.76628e-25
-9.90745e-26
-1.42307e-26
-1.30919e-27
-7.70767e-29
-3.17261e-30
0
0
0
0
0
0
0
0
0
0
0
0
0
0
0
0
0
0
0
0
0
0
0
0
0
0
1.05584e-10
6.08898e-06
)
;
    }
    defaultFaces
    {
        type            empty;
    }
}


// ************************************************************************* //
