/*--------------------------------*- C++ -*----------------------------------*\
  =========                 |
  \\      /  F ield         | OpenFOAM: The Open Source CFD Toolbox
   \\    /   O peration     | Website:  https://openfoam.org
    \\  /    A nd           | Version:  9
     \\/     M anipulation  |
\*---------------------------------------------------------------------------*/
FoamFile
{
    format      ascii;
    class       volScalarField;
    location    "2.49";
    object      epsilon;
}
// * * * * * * * * * * * * * * * * * * * * * * * * * * * * * * * * * * * * * //

dimensions      [0 2 -3 0 0 0 0];

internalField   nonuniform List<scalar> 
2268
(
0.00510592
0.0339188
0.0617849
0.0874685
0.110846
0.131803
0.150279
0.16635
0.180221
0.192131
0.202222
0.210464
0.216729
0.221429
0.223991
0.223172
0.216554
0.201873
0.18704
0.168889
0.136383
0.079736
0.0161228
0.0117661
0.0219464
0.0341205
0.0457424
0.0564029
0.0660112
0.0745602
0.0820885
0.0886623
0.0943455
0.0991633
0.103079
0.10601
0.108012
0.108923
0.108385
0.105901
0.101179
0.0953171
0.0875312
0.075027
0.0538725
0.0291317
0.0211303
0.0226534
0.030908
0.0394317
0.0474708
0.0548403
0.0614974
0.0674522
0.0727363
0.0773771
0.0813741
0.0846855
0.0872423
0.0890183
0.0899326
0.0898484
0.0886369
0.0863186
0.0831641
0.0786967
0.0713729
0.0587308
0.0469063
0.0307724
0.025353
0.0314714
0.0385407
0.0454398
0.0518812
0.0577799
0.0631247
0.0679321
0.0722165
0.0759669
0.0791384
0.0816672
0.083514
0.0846336
0.0849922
0.0846164
0.0836482
0.0822339
0.0801098
0.0763232
0.0690087
0.0644838
0.0404448
0.0288614
0.0334322
0.0395852
0.0458214
0.0517497
0.0572423
0.0622709
0.0668466
0.0709802
0.0746566
0.0778276
0.0804318
0.0824303
0.083804
0.0845825
0.08488
0.0849151
0.0848956
0.084855
0.0845157
0.082783
0.0843114
0.0502345
0.0328767
0.0361805
0.0416698
0.0474638
0.0530653
0.0583034
0.0631377
0.0675816
0.0716495
0.0753251
0.078556
0.0812795
0.0834588
0.0850948
0.0862602
0.087125
0.0879655
0.0891106
0.0909836
0.0943394
0.100414
0.114871
0.0602978
0.0373099
0.0394994
0.0444685
0.0499461
0.0553209
0.0603778
0.0650714
0.0694262
0.0734667
0.0771776
0.0804996
0.083365
0.0857345
0.0876229
0.0891334
0.0904716
0.0919565
0.0940385
0.0975428
0.104618
0.122213
0.177751
0.0708124
0.0421595
0.0433068
0.047846
0.0530909
0.0582982
0.063206
0.0677745
0.0720516
0.0760793
0.0798442
0.0832758
0.0862963
0.088856
0.0909771
0.0927845
0.0945056
0.0964848
0.0992522
0.103892
0.113656
0.143637
0.312954
0.012529
0.0701365
0.108797
0.127383
0.133517
0.13263
0.122121
0.100516
0.0793515
0.0708487
0.0740758
0.0752371
0.0694092
0.0685904
0.0705916
0.064028
0.044266
0.0236285
0.00622816
0.0233595
0.0422521
0.0552201
0.0624738
0.0656367
0.0655986
0.0618596
0.0559443
0.0486149
0.0430586
0.0409238
0.0396223
0.0377216
0.0359705
0.0345953
0.0312208
0.0240623
0.0161554
0.0098645
0.0409544
0.0457318
0.0512614
0.054574
0.0559542
0.0553683
0.0523419
0.0481012
0.0431353
0.0388243
0.036326
0.0346828
0.0329458
0.0311592
0.0295048
0.0268181
0.0219878
0.0164152
0.0148939
0.0626199
0.0544522
0.0541258
0.0544146
0.0542568
0.0529797
0.0499547
0.0460972
0.0419304
0.0382637
0.0358072
0.0340815
0.0323219
0.0305214
0.0288318
0.0264184
0.0224739
0.0178251
0.0191612
0.0916031
0.0654278
0.058964
0.0565053
0.0549637
0.053022
0.0498743
0.0461926
0.0424217
0.0390868
0.0366645
0.034896
0.0331009
0.0313071
0.029656
0.027404
0.0238973
0.0197246
0.0228955
0.133625
0.0773718
0.0642372
0.0593514
0.0566272
0.0541091
0.0508661
0.0473848
0.0439064
0.040705
0.0382236
0.0363746
0.0345409
0.0327658
0.0312007
0.0291166
0.0258548
0.0220087
0.0257156
0.202239
0.0892076
0.0691721
0.0623623
0.0587135
0.0557322
0.0524557
0.0492382
0.0460229
0.0428527
0.0402194
0.0382181
0.0363303
0.0345772
0.033129
0.0312799
0.0282675
0.0247444
0.029107
0.33268
0.0984278
0.0732326
0.065284
0.0610103
0.0576915
0.0544299
0.0514667
0.048478
0.0453232
0.0424973
0.0402816
0.0383111
0.036566
0.0352338
0.0337064
0.0310693
0.0280303
0.0339638
0.0888805
0.0504732
0.0499862
0.0539496
0.0589333
0.0639334
0.0686125
0.0729657
0.0771039
0.08111
0.0849736
0.0885948
0.0918595
0.0946805
0.0970931
0.0992509
0.101397
0.103886
0.107268
0.112575
0.122244
0.143366
0.198111
0.112654
0.0628429
0.0605509
0.0641523
0.0691655
0.073997
0.078244
0.0821106
0.0859164
0.0898481
0.0938937
0.097856
0.101477
0.104579
0.10723
0.109657
0.112112
0.114916
0.118529
0.123401
0.129628
0.13744
0.147949
0.142762
0.0785883
0.0737012
0.0772959
0.082846
0.0872971
0.090464
0.0932003
0.0962524
0.0999318
0.104188
0.108608
0.112604
0.115849
0.118523
0.121088
0.123787
0.126904
0.131029
0.13647
0.141382
0.1426
0.140521
0.201454
0.101621
0.0903674
0.0947496
0.102024
0.105063
0.105473
0.105766
0.107385
0.110578
0.115185
0.120382
0.124861
0.127969
0.130291
0.13294
0.135979
0.13951
0.144845
0.153682
0.161892
0.158836
0.149978
0.273309
0.131612
0.109063
0.11497
0.125039
0.120349
0.115835
0.114713
0.115587
0.118482
0.123794
0.130372
0.136172
0.139365
0.141224
0.143872
0.146595
0.149468
0.1555
0.169725
0.188402
0.174576
0.164335
0.323072
0.151342
0.123552
0.121652
0.124021
0.119318
0.116424
0.116631
0.11828
0.121545
0.126704
0.133388
0.139701
0.143982
0.147643
0.15216
0.154128
0.154671
0.159404
0.171095
0.177309
0.168956
0.160184
0.337383
0.160841
0.137474
0.12753
0.121676
0.117735
0.11693
0.11814
0.11975
0.122828
0.127465
0.134025
0.13998
0.14454
0.149795
0.155225
0.156103
0.155525
0.160825
0.171125
0.175806
0.169127
0.159104
0.290325
0.164078
0.153094
0.134403
0.123228
0.117727
0.118105
0.120112
0.120609
0.122449
0.126562
0.133845
0.140604
0.14305
0.14431
0.146834
0.147687
0.150325
0.159033
0.172846
0.179589
0.17289
0.162001
0.230463
0.160028
0.160384
0.137235
0.123005
0.117407
0.118336
0.120175
0.120452
0.120981
0.123308
0.12834
0.133198
0.134261
0.134289
0.135334
0.136665
0.140281
0.147648
0.15715
0.163779
0.165055
0.153535
0.174315
0.140514
0.146281
0.133338
0.121905
0.116105
0.115104
0.115342
0.11617
0.116727
0.117739
0.120173
0.122629
0.123675
0.12433
0.125319
0.126423
0.128628
0.132673
0.137674
0.141191
0.140455
0.12989
0.173989
0.13073
0.130125
0.125353
0.118188
0.112033
0.108991
0.108481
0.109083
0.109791
0.110652
0.112002
0.113357
0.114259
0.115008
0.115863
0.116472
0.117156
0.118316
0.119617
0.119646
0.116359
0.108479
0.241401
0.131278
0.119491
0.115264
0.109868
0.104763
0.101918
0.101184
0.101534
0.102214
0.103021
0.103952
0.104812
0.105472
0.106002
0.106445
0.106558
0.106358
0.105923
0.105006
0.102955
0.099082
0.0933301
0.26961
0.130661
0.111082
0.105081
0.100494
0.0967127
0.0945482
0.0938766
0.0940867
0.0946766
0.0953946
0.0961049
0.0966794
0.0970789
0.09731
0.0973534
0.097058
0.0963468
0.0951775
0.0933949
0.0907522
0.0871233
0.0827332
0.267173
0.124875
0.10265
0.0956519
0.0916582
0.088878
0.0873153
0.086795
0.0869447
0.0874309
0.0880225
0.0885528
0.0889069
0.0890593
0.0890274
0.0887672
0.0882006
0.0872509
0.0858539
0.083925
0.081394
0.0783079
0.0748799
0.250712
0.115969
0.0941166
0.0870606
0.0835891
0.0815036
0.0803902
0.0800243
0.0801513
0.0805373
0.08099
0.0813538
0.0815255
0.0814776
0.0812471
0.0807893
0.0800774
0.0790633
0.0776976
0.075937
0.0737739
0.0712814
0.0686103
0.228423
0.106026
0.0858351
0.0792243
0.0762211
0.0746161
0.0738214
0.0735815
0.0736975
0.0739941
0.0743169
0.074536
0.0745655
0.0743818
0.0740199
0.0734599
0.0727018
0.0717255
0.0705034
0.0690154
0.0672703
0.0653253
0.0632769
0.203854
0.0960581
0.0780229
0.0720631
0.0694732
0.0682048
0.0676276
0.0674757
0.0675789
0.067798
0.0680111
0.0681161
0.0680461
0.0677836
0.0673599
0.0667759
0.066044
0.0651632
0.0641244
0.0629207
0.0615622
0.0600854
0.058548
0.17837
0.0863921
0.0707479
0.0655177
0.0632922
0.0622634
0.0618282
0.0617277
0.0618107
0.0619628
0.0620888
0.0621118
0.0619827
0.0616906
0.0612625
0.0607127
0.0600562
0.0593026
0.0584547
0.0575133
0.056486
0.0553939
0.0542687
0.152797
0.0772264
0.0640463
0.0595551
0.0576497
0.0567937
0.0564462
0.0563665
0.0564207
0.0565154
0.0565766
0.0565477
0.0563941
0.0561095
0.0557171
0.0552386
0.0546881
0.054078
0.053416
0.0527064
0.0519543
0.051172
0.0503747
0.130099
0.0691742
0.0580175
0.0541705
0.0525331
0.0518008
0.0515002
0.0514188
0.0514403
0.0514878
0.0515045
0.051449
0.0512974
0.0510469
0.0507157
0.0503307
0.0498994
0.0494348
0.048946
0.0484382
0.0479153
0.0473819
0.0468439
0.110741
0.0619
0.0525883
0.0493194
0.0479105
0.0472706
0.0469957
0.0469029
0.0468937
0.0469058
0.0468957
0.0468335
0.0467033
0.0465042
0.0462505
0.0459673
0.0456585
0.0453348
0.0450038
0.0446699
0.0443353
0.0440009
0.043667
0.0942591
0.0551312
0.0476154
0.0449225
0.0437361
0.0431804
0.0429262
0.0428232
0.042791
0.0427809
0.0427601
0.0427074
0.0426123
0.0424751
0.0423066
0.0421265
0.0419371
0.0417452
0.0415558
0.0413714
0.0411925
0.0410176
0.0408441
0.0806438
0.0489674
0.0430604
0.0409282
0.0399663
0.039499
0.0392715
0.0391675
0.0391253
0.0391081
0.0390926
0.0390638
0.0390147
0.0389456
0.0388645
0.0387853
0.0387086
0.0386375
0.0385737
0.0385178
0.0384683
0.0384222
0.0383753
0.0696606
0.043501
0.0389171
0.0372956
0.036556
0.0361863
0.035999
0.0359098
0.035875
0.0358689
0.0358755
0.0358845
0.035891
0.035895
0.0359014
0.0359194
0.0359477
0.0359859
0.0360331
0.0360877
0.0361466
0.0362057
0.0362598
0.0608306
0.0387268
0.0351686
0.033986
0.0334601
0.0331992
0.0330702
0.0330168
0.0330108
0.0330364
0.0330831
0.0331444
0.0332163
0.0332981
0.0333921
0.0335034
0.0336292
0.0337665
0.0339121
0.0340624
0.0342132
0.0343594
0.0344953
0.0536268
0.0345699
0.0317857
0.0309669
0.0306418
0.0305007
0.0304503
0.0304562
0.0305031
0.0305824
0.0306884
0.0308166
0.0309638
0.0311284
0.0313104
0.0315122
0.0317296
0.0319577
0.0321916
0.0324262
0.0326563
0.0328761
0.0330797
0.047642
0.0309464
0.0287435
0.0282208
0.0280814
0.0280691
0.0281171
0.0282059
0.0283293
0.028484
0.0286674
0.0288764
0.0291082
0.0293605
0.0296319
0.0299224
0.0302274
0.0305405
0.0308556
0.0311666
0.0314672
0.0317513
0.0320126
0.0426491
0.0278024
0.0260357
0.025751
0.0257813
0.0259034
0.0260659
0.0262578
0.0264779
0.0267263
0.0270021
0.0273033
0.0276275
0.027972
0.0283346
0.0287136
0.0291043
0.0294996
0.0298922
0.0302751
0.0306413
0.0309842
0.0312971
0.0385802
0.0251287
0.0236798
0.023583
0.0237654
0.0240224
0.0243088
0.0246169
0.0249473
0.0253016
0.0256799
0.0260811
0.0265033
0.0269438
0.0273998
0.027869
0.0283465
0.0288244
0.0292945
0.0297488
0.0301795
0.0305793
0.0309412
0.0354649
0.0229544
0.0217149
0.0217586
0.0220721
0.022457
0.0228678
0.0232957
0.0237413
0.0242061
0.0246911
0.025196
0.0257195
0.0262592
0.0268125
0.027376
0.0279449
0.02851
0.0290621
0.0295918
0.03009
0.0305484
0.03096
0.0333538
0.021326
0.0201889
0.0203246
0.0207423
0.0212392
0.0217644
0.0223057
0.0228619
0.0234345
0.0240249
0.0246338
0.0252607
0.0259039
0.0265606
0.0272267
0.0278963
0.0285589
0.029203
0.0298172
0.0303904
0.0309132
0.031378
0.0322542
0.0202788
0.0191401
0.0193169
0.0198055
0.0203896
0.0210096
0.0216488
0.0223037
0.0229755
0.0236663
0.0243779
0.0251108
0.0258642
0.026635
0.0274178
0.0282048
0.0289824
0.0297357
0.0304497
0.0311108
0.0317078
0.0322326
0.0321006
0.0198133
0.0185805
0.0187473
0.0192686
0.0199087
0.0205975
0.0213131
0.02205
0.0228092
0.0235939
0.0244073
0.0252516
0.0261268
0.0270294
0.0279518
0.0288825
0.0298029
0.030692
0.0315295
0.0322974
0.0329825
0.0335766
0.0327633
0.019887
0.0184866
0.0185965
0.0191119
0.0197742
0.020503
0.0212711
0.0220716
0.0229058
0.0237786
0.0246957
0.0256616
0.0266775
0.0277394
0.0288367
0.0299514
0.0310566
0.0321215
0.0331165
0.0340176
0.034809
0.0354835
0.0340729
0.0204198
0.0188017
0.0188164
0.0192904
0.019943
0.0206836
0.021481
0.0223275
0.0232258
0.0241836
0.0252104
0.0263144
0.0274995
0.0287613
0.0300849
0.0314433
0.0327959
0.0340952
0.0352963
0.0363657
0.0372856
0.0380523
0.0358367
0.0213063
0.0194438
0.0193354
0.0197395
0.0203548
0.0210826
0.0218891
0.0227666
0.0237207
0.0247636
0.0259107
0.0271765
0.0285695
0.0300872
0.03171
0.0333987
0.0350914
0.0367121
0.0381883
0.0394719
0.0405451
0.0414137
0.0378431
0.0224268
0.0203144
0.0200668
0.0203804
0.0209374
0.0216333
0.0224327
0.0233296
0.024334
0.0254647
0.0267461
0.0282023
0.0298515
0.0316966
0.0337171
0.0358598
0.0380323
0.0401078
0.0419587
0.0435143
0.0447646
0.0457378
0.0398607
0.0236551
0.0213064
0.0209146
0.0211264
0.0216119
0.0222628
0.0230438
0.0239518
0.0250026
0.0262243
0.0276534
0.029329
0.0312855
0.0335413
0.036085
0.0388569
0.0417261
0.0444727
0.0468446
0.0487389
0.0501788
0.0512427
0.0416421
0.0248644
0.02231
0.0217797
0.0218879
0.022297
0.0228967
0.0236526
0.0245658
0.0256591
0.0269715
0.0285552
0.0304697
0.0327755
0.0355229
0.0387356
0.0423784
0.0462949
0.0500987
0.0532031
0.0554911
0.0570966
0.0582039
0.0429343
0.0259368
0.023219
0.022565
0.022577
0.0229132
0.0234622
0.0241911
0.0251051
0.0262345
0.0276298
0.0293603
0.0315105
0.0341772
0.0374659
0.0414839
0.0463064
0.0518534
0.057506
0.0616114
0.0642604
0.0659167
0.066961
0.0436007
0.0267836
0.023931
0.0231754
0.0231092
0.0233854
0.0238917
0.0245965
0.0255085
0.0266639
0.0281234
0.0299716
0.0323174
0.0352988
0.0390965
0.0439647
0.050261
0.0583601
0.0678235
0.0730415
0.0757118
0.0771215
0.0779144
0.043504
0.0272112
0.024321
0.0235122
0.0234021
0.023644
0.0241254
0.0248157
0.0257254
0.0268943
0.0283888
0.0303026
0.0327607
0.0359305
0.0400577
0.0455573
0.0532324
0.0647805
0.0840547
0.0890114
0.0905886
0.0912107
0.0915087
0.379821
0.346578
0.3653
0.44242
0.158362
0.156754
0.152761
0.144883
0.13659
0.132407
0.126752
0.119764
0.143042
0.1376
0.130758
0.123028
0.154394
0.147482
0.140094
0.131621
0.149428
0.142868
0.136026
0.127826
0.147465
0.141597
0.136753
0.12815
0.146649
0.138652
0.130262
0.120432
0.136774
0.126505
0.117558
0.110256
0.117857
0.110591
0.104386
0.0991752
0.100971
0.0963945
0.0922317
0.0884761
0.0883712
0.0852826
0.0823446
0.079569
0.0791601
0.0769096
0.0747236
0.0726137
0.0721764
0.0704676
0.0687947
0.0671662
0.0665431
0.0652344
0.0639484
0.0626906
0.0617125
0.0607203
0.0597418
0.05878
0.057387
0.0566488
0.0559177
0.055195
0.053428
0.052892
0.0523585
0.0518275
0.0497847
0.0494073
0.0490294
0.0486503
0.046448
0.0461934
0.0459364
0.045676
0.0434215
0.0432616
0.0430982
0.0429298
0.0407146
0.0406283
0.0405375
0.0404405
0.0383361
0.0383073
0.038273
0.0382317
0.0362913
0.0363077
0.0363176
0.0363198
0.0345829
0.0346352
0.03468
0.0347162
0.0332127
0.0332939
0.0333666
0.0334299
0.0321836
0.0322886
0.0323841
0.0324691
0.031501
0.0316265
0.0317412
0.0318444
0.0311755
0.0313195
0.0314512
0.03157
0.0312241
0.0313859
0.0315336
0.0316669
0.0316734
0.0318534
0.0320172
0.0321646
0.032562
0.0327615
0.0329422
0.0331041
0.0339442
0.034165
0.0343637
0.0345407
0.0358936
0.0361375
0.0363553
0.0365479
0.0385084
0.0387763
0.0390134
0.0392212
0.0419163
0.0422073
0.0424618
0.0426826
0.0462817
0.0465909
0.0468578
0.0470864
0.0518119
0.0521287
0.0523975
0.0526246
0.0587655
0.0590701
0.0593239
0.0595349
0.0674581
0.0677204
0.0679344
0.0681095
0.0782665
0.0784471
0.0785917
0.0787082
0.0916312
0.0916923
0.0917404
0.0917789
0.151396
0.0952706
0.0772659
0.0693827
0.0647248
0.0611152
0.0578765
0.0551671
0.0524492
0.049378
0.0463117
0.0437434
0.0415893
0.039803
0.0386143
0.0375954
0.0356435
0.0337094
0.0448032
0.114661
0.0922106
0.0806035
0.0742365
0.0699372
0.0661394
0.0626282
0.0597602
0.0571988
0.0543756
0.0513714
0.0485809
0.0461236
0.0440844
0.0428429
0.0423289
0.0415829
0.0421621
0.067301
0.107152
0.0929996
0.0840507
0.078948
0.0750748
0.0709178
0.0668367
0.0635518
0.0609571
0.0583832
0.0556167
0.0529023
0.0503165
0.0479316
0.0463396
0.0458968
0.0463719
0.0503541
0.0921908
0.111204
0.0974773
0.088206
0.0839657
0.0807546
0.0759184
0.0706979
0.0666254
0.063711
0.0611409
0.0584558
0.0559837
0.05355
0.0509401
0.0491021
0.0486909
0.0504469
0.0577359
0.110737
0.114995
0.0995813
0.0899563
0.0850885
0.081907
0.0775606
0.0724604
0.0678803
0.0644658
0.0617767
0.0591974
0.0569429
0.0548852
0.0526794
0.0511328
0.0508154
0.0530294
0.0632662
0.134875
0.113531
0.100538
0.0908099
0.0836949
0.078797
0.0748306
0.0710981
0.067507
0.0642398
0.0610816
0.0584064
0.0560926
0.0540674
0.0525242
0.0519119
0.0523451
0.0545378
0.0641405
0.133126
0.111685
0.0992958
0.0896051
0.0817806
0.0760255
0.0718977
0.0686662
0.0657954
0.0628591
0.0596742
0.0569443
0.0547007
0.0527861
0.051373
0.0509142
0.0515447
0.0544536
0.0624851
0.112366
0.107022
0.0953566
0.0862239
0.0788303
0.0730122
0.068885
0.0660979
0.0635785
0.0607859
0.0575697
0.054672
0.0523804
0.0506889
0.0496879
0.0492904
0.0497637
0.052685
0.060628
0.0934364
0.100526
0.0903423
0.0818053
0.0748986
0.0694264
0.0655232
0.0629
0.0605793
0.0579299
0.0548196
0.0519698
0.0497473
0.0481723
0.047383
0.0472164
0.047804
0.0503924
0.0561075
0.0787656
0.0919986
0.0835913
0.0762515
0.0702373
0.0654958
0.0619866
0.0593701
0.0570017
0.0544141
0.0515682
0.0489502
0.0469054
0.0455699
0.0450764
0.0451264
0.0451979
0.046392
0.0496815
0.0712036
0.0830745
0.0764194
0.0705867
0.0657271
0.0617916
0.0586505
0.0560271
0.0535567
0.050991
0.0483447
0.0458965
0.0439111
0.0425736
0.0420423
0.0421326
0.0422675
0.0426448
0.0445506
0.0653984
0.075454
0.0702672
0.065723
0.0618631
0.0585945
0.0557648
0.0531835
0.0506697
0.0481239
0.0455715
0.0431551
0.041041
0.039391
0.0383636
0.0379708
0.037975
0.0384213
0.0398818
0.0532968
0.0694292
0.0653756
0.0618088
0.0587027
0.0559416
0.0533856
0.0509115
0.0484394
0.045939
0.0434261
0.0409619
0.0386419
0.0365867
0.034924
0.033756
0.0331337
0.0333569
0.0349749
0.0415078
0.0646759
0.0614829
0.058639
0.0560902
0.053724
0.0514261
0.0491161
0.0467594
0.0443497
0.0418914
0.0394039
0.0369386
0.0345805
0.0324248
0.0305678
0.0291601
0.0285865
0.0290129
0.0303402
0.060741
0.0582164
0.0559248
0.0538086
0.0517723
0.0497277
0.04762
0.0454318
0.0431633
0.0408147
0.0383913
0.0359231
0.0334698
0.0311015
0.0288992
0.027038
0.0258921
0.0256031
0.0262585
0.0572661
0.0552775
0.0534297
0.0516716
0.0499281
0.0481326
0.0462458
0.0442566
0.0421669
0.039979
0.0376992
0.0353537
0.0329924
0.03068
0.0285074
0.0266973
0.0257269
0.0263999
0.0323069
0.0540373
0.0524887
0.0510112
0.0495627
0.0480858
0.0465304
0.0448669
0.0430868
0.0411929
0.0391913
0.0370947
0.0349326
0.0327563
0.0306391
0.0286953
0.0271815
0.0266829
0.0286588
0.0409437
0.0509609
0.0497763
0.0486128
0.0474357
0.0462013
0.0448713
0.0434226
0.0418478
0.0401502
0.0383394
0.0364334
0.0344669
0.0324968
0.0306095
0.0289497
0.0278105
0.0278617
0.0310401
0.0493685
0.0480193
0.0471347
0.0462367
0.0452966
0.0442799
0.0431567
0.0419083
0.0405279
0.0390191
0.0373935
0.0356735
0.0338985
0.0321318
0.0304739
0.029096
0.0283303
0.0289252
0.0332106
0.0564426
0.0452335
0.0445936
0.043918
0.0431819
0.0423572
0.0414202
0.0403549
0.0391553
0.037825
0.0363772
0.0348374
0.0332492
0.0316821
0.0302477
0.0291346
0.0286998
0.0297536
0.0349613
0.0620828
0.0426374
0.0421955
0.0417036
0.04114
0.0404817
0.0397094
0.0388092
0.0377759
0.0366132
0.0353356
0.0339707
0.0325655
0.0311944
0.0299756
0.0291065
0.0289546
0.0303623
0.0361958
0.0669827
0.0402657
0.0399806
0.0396378
0.0392181
0.0387023
0.0380736
0.0373204
0.0364382
0.0354313
0.034315
0.0331184
0.0318907
0.0307091
0.0296954
0.0290509
0.0291486
0.0308629
0.037274
0.0717521
0.0381486
0.0379865
0.0377624
0.03746
0.0370628
0.0365565
0.0359315
0.0351845
0.0343203
0.0333548
0.0323178
0.0312592
0.0302565
0.0294316
0.0289856
0.029296
0.0312692
0.0381913
0.0756325
0.0363084
0.0362418
0.0361113
0.0359027
0.0356023
0.0351982
0.0346826
0.0340535
0.0333165
0.0324877
0.0315968
0.030693
0.0298525
0.0291949
0.0289192
0.0294051
0.0315809
0.0388659
0.0783433
0.034761
0.0347683
0.0347104
0.0345756
0.0343524
0.0340315
0.0336068
0.0330777
0.0324504
0.0317409
0.0309786
0.0302108
0.0295114
0.0289966
0.0288619
0.0294869
0.0318124
0.0393338
0.0800736
0.0335188
0.033583
0.0335809
0.0335028
0.0333396
0.0330843
0.0327327
0.0322852
0.0317488
0.0311394
0.0304853
0.0298318
0.0292496
0.0288512
0.0288278
0.029557
0.0319859
0.0396601
0.0813526
0.0325932
0.0327014
0.0327415
0.0327058
0.0325878
0.0323822
0.0320867
0.031703
0.0312385
0.0307089
0.0301411
0.0295784
0.0290884
0.0287791
0.0288378
0.0296389
0.0321342
0.0399287
0.0827532
0.0319971
0.0321395
0.0322111
0.0322064
0.0321207
0.0319509
0.0316962
0.0313594
0.0309483
0.0304782
0.0299749
0.0294794
0.0290561
0.0288094
0.0289222
0.0297666
0.0323006
0.0401989
0.0842613
0.0317471
0.0319167
0.0320118
0.0320288
0.0319649
0.031819
0.0315916
0.0312865
0.0309118
0.0304823
0.0300227
0.0295717
0.029191
0.0289816
0.0291233
0.0299867
0.0325362
0.0405129
0.0857941
0.0318657
0.032058
0.0321707
0.0322022
0.032152
0.0320202
0.0318088
0.0315224
0.0311693
0.0307638
0.0303292
0.0299024
0.0295424
0.0293476
0.0294961
0.0303585
0.0329059
0.0409323
0.0872577
0.0323841
0.0325962
0.0327225
0.0327635
0.0327205
0.0325955
0.0323914
0.0321135
0.0317702
0.0313751
0.0309502
0.0305305
0.0301727
0.0299732
0.0301093
0.0309538
0.0334853
0.0415212
0.0882287
0.0333441
0.0335746
0.0337119
0.0337591
0.0337192
0.0335959
0.0333932
0.0331168
0.032775
0.0323809
0.0319548
0.0315297
0.0311603
0.0309409
0.0310486
0.0318592
0.0343617
0.0423819
0.0890072
0.0348017
0.0350498
0.0351967
0.0352479
0.0352088
0.0350846
0.0348803
0.0346021
0.034258
0.0338603
0.0334277
0.0329913
0.0326032
0.0323557
0.0324251
0.0331918
0.0356653
0.04377
0.0916461
0.03683
0.0370949
0.03725
0.0373043
0.0372654
0.0371401
0.0369344
0.0366549
0.0363094
0.0359094
0.0354724
0.0350271
0.0346235
0.0343514
0.0343869
0.0351183
0.0375956
0.0459807
0.0970027
0.0395231
0.0398026
0.0399645
0.0400214
0.0399835
0.039859
0.0396551
0.0393788
0.039038
0.0386436
0.0382121
0.0377712
0.0373688
0.0370939
0.0371243
0.0378616
0.0404186
0.0492919
0.104789
0.0430003
0.0432902
0.0434563
0.0435154
0.04348
0.0433602
0.0431641
0.0428991
0.0425735
0.0421986
0.041791
0.0413786
0.0410104
0.0407775
0.0408651
0.0416991
0.044488
0.0541444
0.115589
0.0474117
0.0477038
0.0478698
0.04793
0.0478995
0.0477894
0.0476086
0.0473655
0.0470693
0.0467321
0.0463727
0.0460221
0.0457347
0.0456119
0.0458583
0.0469453
0.0502273
0.0611863
0.130809
0.0529436
0.0532255
0.0533846
0.0534442
0.0534204
0.0533252
0.0531682
0.0529584
0.0527063
0.0524261
0.0521401
0.0518859
0.0517301
0.0517968
0.0523336
0.0538992
0.058067
0.0712593
0.154139
0.0598272
0.0600817
0.0602247
0.0602803
0.0602645
0.0601889
0.0600631
0.0598966
0.0597008
0.0594924
0.0592977
0.0591631
0.0591726
0.0594869
0.0604307
0.0627287
0.0683557
0.0852521
0.187749
0.0683489
0.0685549
0.0686708
0.0687179
0.0687099
0.0686569
0.0685673
0.0684503
0.0683174
0.0681858
0.0680843
0.0680645
0.0682251
0.0687638
0.0701042
0.0732378
0.0808909
0.103845
0.2367
0.0788661
0.0790014
0.0790781
0.0791107
0.0791087
0.0790788
0.0790274
0.0789613
0.0788901
0.078828
0.0788
0.0788517
0.0790747
0.0796657
0.0810859
0.0845505
0.0938753
0.125799
0.304462
0.0918307
0.091875
0.0919002
0.0919113
0.0919112
0.0919026
0.0918879
0.09187
0.091853
0.0918433
0.0918522
0.0919009
0.0920329
0.0923482
0.093111
0.0951728
0.102254
0.145294
0.382464
)
;

boundaryField
{
    leftWall
    {
        type            epsilonWallFunction;
        value           nonuniform List<scalar> 
50
(
0.00510592
0.0117661
0.0211303
0.0307724
0.0404448
0.0502345
0.0602978
0.0708124
0.0888805
0.112654
0.142762
0.201454
0.273309
0.323072
0.337383
0.290325
0.230463
0.174315
0.173989
0.241401
0.26961
0.267173
0.250712
0.228423
0.203854
0.17837
0.152797
0.130099
0.110741
0.0942591
0.0806438
0.0696606
0.0608306
0.0536268
0.047642
0.0426491
0.0385802
0.0354649
0.0333538
0.0322542
0.0321006
0.0327633
0.0340729
0.0358367
0.0378431
0.0398607
0.0416421
0.0429343
0.0436007
0.043504
)
;
    }
    rightWall
    {
        type            epsilonWallFunction;
        value           nonuniform List<scalar> 
50
(
0.00622816
0.0098645
0.0148939
0.0191612
0.0228955
0.0257156
0.029107
0.0339638
0.0448032
0.067301
0.0921908
0.110737
0.134875
0.133126
0.112366
0.0934364
0.0787656
0.0712036
0.0653984
0.0532968
0.0415078
0.0303402
0.0262585
0.0323069
0.0409437
0.0493685
0.0564426
0.0620828
0.0669827
0.0717521
0.0756325
0.0783433
0.0800736
0.0813526
0.0827532
0.0842613
0.0857941
0.0872577
0.0882287
0.0890072
0.0916461
0.0970027
0.104789
0.115589
0.130809
0.154139
0.187749
0.2367
0.304462
0.382464
)
;
    }
    lowerWall
    {
        type            epsilonWallFunction;
        value           nonuniform List<scalar> 
62
(
0.00510592
0.0339188
0.0617849
0.0874685
0.110846
0.131803
0.150279
0.16635
0.180221
0.192131
0.202222
0.210464
0.216729
0.221429
0.223991
0.223172
0.216554
0.201873
0.18704
0.168889
0.136383
0.079736
0.0161228
0.0161228
0.0291317
0.0469063
0.0644838
0.0843114
0.114871
0.177751
0.312954
0.379821
0.346578
0.3653
0.44242
0.012529
0.0233595
0.0409544
0.0626199
0.0916031
0.133625
0.202239
0.33268
0.012529
0.0701365
0.108797
0.127383
0.133517
0.13263
0.122121
0.100516
0.0793515
0.0708487
0.0740758
0.0752371
0.0694092
0.0685904
0.0705916
0.064028
0.044266
0.0236285
0.00622816
)
;
    }
    atmosphere
    {
        type            inletOutlet;
        inletValue      uniform 0.1;
        value           nonuniform List<scalar> 
46
(
0.043504
0.0272112
0.024321
0.0235122
0.0234021
0.023644
0.0241254
0.0248157
0.0257254
0.0268943
0.0283888
0.0303026
0.0327607
0.0359305
0.0400577
0.0455573
0.0532324
0.0647805
0.1
0.1
0.1
0.1
0.1
0.1
0.1
0.1
0.1
0.1
0.1
0.1
0.1
0.1
0.1
0.1
0.1
0.1
0.1
0.1
0.1
0.1
0.1
0.1
0.1
0.1
0.145294
0.382464
)
;
    }
    defaultFaces
    {
        type            empty;
    }
}


// ************************************************************************* //
