/*--------------------------------*- C++ -*----------------------------------*\
  =========                 |
  \\      /  F ield         | OpenFOAM: The Open Source CFD Toolbox
   \\    /   O peration     | Website:  https://openfoam.org
    \\  /    A nd           | Version:  9
     \\/     M anipulation  |
\*---------------------------------------------------------------------------*/
FoamFile
{
    format      ascii;
    class       volVectorField;
    location    "8.35";
    object      U;
}
// * * * * * * * * * * * * * * * * * * * * * * * * * * * * * * * * * * * * * //

dimensions      [0 1 -1 0 0 0 0];

internalField   nonuniform List<vector> 
2268
(
(-0.000906437 0.000397558 0)
(-0.00231543 0.000308896 0)
(-0.00341891 0.000258808 0)
(-0.0044193 0.000220126 0)
(-0.00524449 0.000175658 0)
(-0.00589448 0.000123767 0)
(-0.00634115 6.81874e-05 0)
(-0.0065642 8.64696e-06 0)
(-0.00657481 -4.66254e-05 0)
(-0.00639725 -9.47323e-05 0)
(-0.00603576 -0.000156985 0)
(-0.00542323 -0.000258836 0)
(-0.00439216 -0.000415985 0)
(-0.00277666 -0.000609059 0)
(-0.000598878 -0.000756552 0)
(0.00179336 -0.000662792 0)
(0.00329596 -6.7343e-05 0)
(0.00239531 0.000683778 0)
(-0.000873859 0.00174801 0)
(-0.00779937 0.00236279 0)
(-0.0131209 0.000639967 0)
(-0.012324 -0.00140381 0)
(-0.00562361 -0.00256296 0)
(-0.00080552 0.00113183 0)
(-0.00215379 0.000915198 0)
(-0.00326325 0.000779364 0)
(-0.00426765 0.000661802 0)
(-0.00510828 0.000539852 0)
(-0.0057853 0.000402636 0)
(-0.00627523 0.000252873 0)
(-0.00656406 9.75603e-05 0)
(-0.00665737 -4.58649e-05 0)
(-0.00656974 -0.000177666 0)
(-0.00630792 -0.000337588 0)
(-0.00583022 -0.000572415 0)
(-0.00503437 -0.000909401 0)
(-0.00382723 -0.00130054 0)
(-0.00224396 -0.00156294 0)
(-0.000547602 -0.00132239 0)
(0.000528759 -0.000164625 0)
(-0.000137905 0.0014504 0)
(-0.00229299 0.00321644 0)
(-0.00562367 0.00402343 0)
(-0.00802816 0.00140344 0)
(-0.00884266 -0.0021392 0)
(-0.00543261 -0.00628587 0)
(-0.000720683 0.00178063 0)
(-0.00204183 0.00147213 0)
(-0.00315293 0.00127174 0)
(-0.00417096 0.00108716 0)
(-0.00504143 0.000895241 0)
(-0.00576182 0.000680685 0)
(-0.00630898 0.000444135 0)
(-0.00666803 0.000198946 0)
(-0.00684163 -2.78999e-05 0)
(-0.00684586 -0.000236872 0)
(-0.00669133 -0.000480295 0)
(-0.00635489 -0.000822966 0)
(-0.00577154 -0.00130236 0)
(-0.00487614 -0.00184965 0)
(-0.00368317 -0.00221118 0)
(-0.00235007 -0.00187524 0)
(-0.0014088 -0.000261736 0)
(-0.00183976 0.00199626 0)
(-0.00318437 0.00401199 0)
(-0.0042719 0.00469589 0)
(-0.00500422 0.00195758 0)
(-0.00627949 -0.00224299 0)
(-0.00421371 -0.00924912 0)
(-0.000672346 0.00241468 0)
(-0.00196866 0.00204438 0)
(-0.00308774 0.00178331 0)
(-0.00412655 0.00153718 0)
(-0.00503579 0.00128022 0)
(-0.00580974 0.000992687 0)
(-0.00642346 0.000674135 0)
(-0.00685987 0.000344379 0)
(-0.00711922 3.6374e-05 0)
(-0.00721991 -0.0002464 0)
(-0.00717927 -0.000563909 0)
(-0.00698977 -0.00099609 0)
(-0.00660968 -0.00159082 0)
(-0.0059846 -0.00226897 0)
(-0.00509622 -0.00273598 0)
(-0.00398393 -0.00238176 0)
(-0.003 -0.00042098 0)
(-0.00306336 0.00232382 0)
(-0.00377677 0.00433492 0)
(-0.00363978 0.00472948 0)
(-0.00329651 0.00225737 0)
(-0.00431105 -0.00219652 0)
(-0.00280347 -0.0113928 0)
(-0.000647609 0.00302439 0)
(-0.00192498 0.0026167 0)
(-0.00305751 0.00230449 0)
(-0.0041242 0.00200525 0)
(-0.00508173 0.00169093 0)
(-0.0059206 0.00133646 0)
(-0.00661225 0.000940687 0)
(-0.00713597 0.000529514 0)
(-0.00748913 0.000144322 0)
(-0.00769275 -0.000206168 0)
(-0.00777161 -0.000586954 0)
(-0.00773166 -0.00109008 0)
(-0.00754788 -0.00177595 0)
(-0.00717042 -0.0025666 0)
(-0.0065503 -0.0031539 0)
(-0.00561596 -0.0028793 0)
(-0.00448118 -0.000718946 0)
(-0.00408218 0.00243266 0)
(-0.00423419 0.00433504 0)
(-0.0033919 0.00434845 0)
(-0.00243815 0.00228443 0)
(-0.00280067 -0.00223597 0)
(-0.00117202 -0.0127203 0)
(-0.00063449 0.00362289 0)
(-0.00190625 0.0031896 0)
(-0.00305917 0.00283262 0)
(-0.0041613 0.00248995 0)
(-0.00517661 0.00212807 0)
(-0.00609133 0.00171433 0)
(-0.00687209 0.00124688 0)
(-0.00749339 0.000757915 0)
(-0.00794878 0.000299024 0)
(-0.00826108 -0.000113198 0)
(-0.00846131 -0.000547006 0)
(-0.00856702 -0.00110406 0)
(-0.00856749 -0.00185948 0)
(-0.00841835 -0.00274588 0)
(-0.0080539 -0.00346409 0)
(-0.00733235 -0.00335878 0)
(-0.00604366 -0.00122526 0)
(-0.00510078 0.00231854 0)
(-0.0046482 0.00408105 0)
(-0.00337262 0.00373183 0)
(-0.00207293 0.00204557 0)
(-0.00142482 -0.00267148 0)
(0.000892589 -0.0133894 0)
(-0.000623326 0.00425876 0)
(-0.00190453 0.0037584 0)
(-0.00309058 0.00336763 0)
(-0.0042352 0.00299509 0)
(-0.00531642 0.00259743 0)
(-0.00631597 0.00213282 0)
(-0.00719528 0.00159905 0)
(-0.00792357 0.00103491 0)
(-0.00848914 0.000503772 0)
(-0.00891428 3.34613e-05 0)
(-0.00923331 -0.000445604 0)
(-0.00947296 -0.00104294 0)
(-0.0096367 -0.00184956 0)
(-0.00969033 -0.00281405 0)
(-0.00956969 -0.00365978 0)
(-0.00912171 -0.00377147 0)
(-0.00789063 -0.00190721 0)
(-0.00634672 0.001875 0)
(-0.00499021 0.00356544 0)
(-0.00347526 0.00304704 0)
(-0.00190683 0.00143411 0)
(9.57513e-05 -0.00373807 0)
(0.00312356 -0.01317 0)
(-0.000646903 0.00464595 0)
(-0.00194357 0.00433629 0)
(-0.00314697 0.00393877 0)
(-0.0043379 0.00354838 0)
(-0.00549082 0.00312363 0)
(-0.00658071 0.00261338 0)
(-0.00756501 0.00201621 0)
(-0.0084081 0.00137678 0)
(-0.00909121 0.000770413 0)
(-0.00963158 0.000239616 0)
(-0.0100621 -0.000282675 0)
(-0.0104154 -0.000912155 0)
(-0.0107097 -0.0017562 0)
(-0.0109263 -0.00278 0)
(-0.0110145 -0.0037362 0)
(-0.0108389 -0.00406778 0)
(-0.00988887 -0.00261907 0)
(-0.00793131 0.000972753 0)
(-0.00555584 0.00267417 0)
(-0.00360762 0.0022829 0)
(-0.00150676 0.000322983 0)
(0.00158595 -0.00508056 0)
(0.00416375 -0.0115333 0)
(-0.0133119 0.00307878 0)
(-0.00907335 -0.00187601 0)
(0.000955026 -0.00296911 0)
(0.00952109 -0.00203901 0)
(0.0149944 -0.0014521 0)
(0.0191099 -0.00102224 0)
(0.0216096 -0.000452933 0)
(0.0232666 -0.000516536 0)
(0.0248463 -0.000389604 0)
(0.0247343 0.000175326 0)
(0.0220875 0.00121345 0)
(0.0154656 0.00294406 0)
(0.00355032 0.0030248 0)
(-0.00339514 0.000865493 0)
(-0.00491751 -7.47407e-07 0)
(-0.00455026 -0.000552255 0)
(-0.00412112 -0.000422416 0)
(-0.00389733 -0.00115422 0)
(0.00186511 0.00015618 0)
(-0.0112086 0.00672465 0)
(-0.00288503 -0.00465959 0)
(0.00344487 -0.00579703 0)
(0.00938024 -0.00420441 0)
(0.0131196 -0.00291596 0)
(0.0157431 -0.00200442 0)
(0.0176483 -0.00125267 0)
(0.0191975 -0.00103933 0)
(0.0199047 -0.000294418 0)
(0.0185887 0.00108775 0)
(0.0157928 0.00271937 0)
(0.0122582 0.00534086 0)
(0.0066175 0.00558713 0)
(0.00201055 0.00263907 0)
(-0.00127844 0.000914346 0)
(-0.00266434 -0.000151295 0)
(-0.00465804 0.000181555 0)
(-0.00689021 -0.00137518 0)
(-0.00323217 -0.00113579 0)
(-0.00450041 0.00845617 0)
(0.00215827 -0.00724376 0)
(0.00574004 -0.00785745 0)
(0.00944816 -0.00574252 0)
(0.0119535 -0.00397901 0)
(0.0137664 -0.00273816 0)
(0.0151412 -0.00190546 0)
(0.0162813 -0.00140771 0)
(0.0165791 -2.87215e-05 0)
(0.0148313 0.00211449 0)
(0.0118104 0.00386413 0)
(0.00958594 0.00643014 0)
(0.00770872 0.0068627 0)
(0.00488574 0.00416535 0)
(0.0011695 0.00217072 0)
(-0.000942564 0.000805501 0)
(-0.00416486 0.0015319 0)
(-0.00798463 -0.00126695 0)
(-0.0059618 -0.00413105 0)
(0.00229933 0.00782069 0)
(0.00637834 -0.00863606 0)
(0.00761744 -0.0090121 0)
(0.00951509 -0.00669579 0)
(0.0110246 -0.00471173 0)
(0.0121986 -0.00326919 0)
(0.0131016 -0.00235644 0)
(0.013881 -0.00164725 0)
(0.014015 0.000302375 0)
(0.012347 0.00314423 0)
(0.00960301 0.00489907 0)
(0.00813092 0.00695019 0)
(0.00784416 0.00740276 0)
(0.00612674 0.00540802 0)
(0.00288346 0.00342627 0)
(0.000881604 0.00200098 0)
(-0.00267398 0.00330496 0)
(-0.00697831 -0.00081669 0)
(-0.0055061 -0.00724252 0)
(0.00769323 0.00470835 0)
(0.00945111 -0.00910743 0)
(0.00884928 -0.00934337 0)
(0.00943546 -0.0071569 0)
(0.0101758 -0.00514602 0)
(0.0108235 -0.00359711 0)
(0.0113042 -0.00264197 0)
(0.0117715 -0.0018085 0)
(0.0118884 0.000600613 0)
(0.0105372 0.00403993 0)
(0.00832646 0.00570589 0)
(0.00741746 0.00716774 0)
(0.00767614 0.00760852 0)
(0.00644918 0.0063751 0)
(0.00402503 0.00441562 0)
(0.00285002 0.00300682 0)
(-5.7932e-05 0.00503963 0)
(-0.00409482 -0.000292507 0)
(-0.00337304 -0.0094693 0)
(0.00977871 0.000253246 0)
(0.0106956 -0.00905567 0)
(0.00929657 -0.00913786 0)
(0.0091373 -0.00726609 0)
(0.00935002 -0.00534179 0)
(0.00958326 -0.00374035 0)
(0.009688 -0.00277316 0)
(0.00985986 -0.00192043 0)
(0.0100442 0.000792146 0)
(0.00916175 0.00475315 0)
(0.0075451 0.00626718 0)
(0.00708353 0.00721711 0)
(0.00756269 0.00768188 0)
(0.00657091 0.0071455 0)
(0.00487871 0.00499898 0)
(0.00473097 0.00350354 0)
(0.00327874 0.00640607 0)
(3.25487e-05 0.000470084 0)
(-0.000655649 -0.0103984 0)
(0.00870661 -0.00411568 0)
(0.0104112 -0.00900479 0)
(0.00910713 -0.00875866 0)
(0.00863901 -0.00718182 0)
(0.00852872 -0.00537457 0)
(0.00845812 -0.00373041 0)
(0.00823991 -0.00275587 0)
(0.0080729 -0.0019719 0)
(0.00830044 0.000819753 0)
(0.00807467 0.0052164 0)
(0.00715119 0.00661852 0)
(0.00702082 0.00716197 0)
(0.00755956 0.00769466 0)
(0.00683812 0.00773659 0)
(0.00601289 0.00517886 0)
(0.00642217 0.00352316 0)
(0.00615266 0.00714714 0)
(0.00421895 0.00138965 0)
(0.00237794 -0.00982453 0)
(0.00714692 -0.00881231 0)
(0.00949225 -0.00914459 0)
(0.00858419 -0.00840425 0)
(0.00800655 -0.00700412 0)
(0.00769989 -0.00530052 0)
(0.00743342 -0.00360737 0)
(0.00698131 -0.00259692 0)
(0.00642163 -0.00188422 0)
(0.00653872 0.000669821 0)
(0.0070582 0.00529269 0)
(0.00704541 0.00672556 0)
(0.00723696 0.00702791 0)
(0.00772165 0.00765149 0)
(0.00752181 0.00799817 0)
(0.00773852 0.00501543 0)
(0.0080069 0.00353394 0)
(0.00825855 0.00716779 0)
(0.00786942 0.00237826 0)
(0.00521916 -0.00778477 0)
(-0.000592271 0.00656618 0)
(-0.00191717 0.00570038 0)
(-0.00320595 0.00507969 0)
(-0.00450532 0.00460476 0)
(-0.00578205 0.00411759 0)
(-0.00701489 0.00352516 0)
(-0.00816644 0.00282343 0)
(-0.00919811 0.00205995 0)
(-0.0100779 0.00132405 0)
(-0.0108016 0.000686493 0)
(-0.0113881 8.20851e-05 0)
(-0.0118726 -0.00060339 0)
(-0.0122965 -0.00149608 0)
(-0.0126749 -0.00258314 0)
(-0.0129834 -0.00367581 0)
(-0.013073 -0.00434273 0)
(-0.0124349 -0.00365157 0)
(-0.0103721 -0.00107295 0)
(-0.00715154 0.000472301 0)
(-0.00379321 0.00034556 0)
(-0.000519982 -0.0020435 0)
(0.00240158 -0.006494 0)
(0.000518421 -0.00945783 0)
(-0.000324038 0.00546501 0)
(-0.0018416 0.00569553 0)
(-0.00330686 0.0054922 0)
(-0.00476572 0.00520593 0)
(-0.00614118 0.00482493 0)
(-0.00747978 0.00429253 0)
(-0.00880174 0.00360971 0)
(-0.0100872 0.00282875 0)
(-0.0112792 0.00203323 0)
(-0.0122854 0.00130662 0)
(-0.0130286 0.000597366 0)
(-0.0134888 -0.000164993 0)
(-0.0137612 -0.00109383 0)
(-0.0139801 -0.00216392 0)
(-0.0142119 -0.00329387 0)
(-0.0143844 -0.00424743 0)
(-0.014017 -0.00449188 0)
(-0.0121782 -0.0037094 0)
(-0.00865478 -0.00317983 0)
(-0.00430441 -0.00345237 0)
(-0.000300272 -0.00500248 0)
(0.00217616 -0.00699399 0)
(0.00199286 -0.00824755 0)
(-0.00173688 0.00805621 0)
(-0.00351217 0.00800292 0)
(-0.00479453 0.00740235 0)
(-0.00642031 0.00672587 0)
(-0.00805714 0.0061641 0)
(-0.00940571 0.00562009 0)
(-0.0105849 0.00493324 0)
(-0.0118392 0.00406767 0)
(-0.0131799 0.00310029 0)
(-0.0143499 0.00211443 0)
(-0.0150904 0.001103 0)
(-0.0153304 7.53519e-05 0)
(-0.0151947 -0.000988416 0)
(-0.0149572 -0.00207491 0)
(-0.0149158 -0.00320935 0)
(-0.0151588 -0.00429927 0)
(-0.015108 -0.00516155 0)
(-0.0133722 -0.00573964 0)
(-0.00957786 -0.00627752 0)
(-0.004714 -0.00677599 0)
(-0.000244497 -0.00735501 0)
(0.00227623 -0.00800654 0)
(0.00251435 -0.00868942 0)
(-0.0238476 0.0136198 0)
(-0.00816358 0.00755155 0)
(-0.00528808 0.00785966 0)
(-0.00699981 0.00766239 0)
(-0.0109184 0.00711145 0)
(-0.0122369 0.00611783 0)
(-0.011625 0.00567238 0)
(-0.0114638 0.00495427 0)
(-0.0121421 0.00397837 0)
(-0.0130401 0.00276378 0)
(-0.0136556 0.00145229 0)
(-0.0138574 6.03824e-05 0)
(-0.0137029 -0.00105165 0)
(-0.0131362 -0.00221083 0)
(-0.0127961 -0.00326141 0)
(-0.0128865 -0.00434885 0)
(-0.0123938 -0.00544064 0)
(-0.0105136 -0.00695581 0)
(-0.00777801 -0.00801799 0)
(-0.00421889 -0.00875202 0)
(-0.000136055 -0.00885726 0)
(0.0028893 -0.00876025 0)
(0.00391124 -0.0091899 0)
(-0.00770021 0.0414387 0)
(-0.00144579 -0.00897532 0)
(-0.00624341 0.00664466 0)
(-0.015836 0.0189284 0)
(-0.0254029 0.0163726 0)
(-0.0280149 0.00763472 0)
(-0.0260628 0.004811 0)
(-0.0212397 0.00534406 0)
(-0.0166751 0.00614216 0)
(-0.0130713 0.00430858 0)
(-0.0101989 0.00218608 0)
(-0.00751472 -0.000393917 0)
(-0.00395246 -0.00249301 0)
(0.00129127 -0.00471613 0)
(0.00645848 -0.00364452 0)
(0.00979134 -0.00543778 0)
(0.0117499 -0.0101299 0)
(0.0122676 -0.0166073 0)
(0.00958205 -0.018371 0)
(0.00373637 -0.0228159 0)
(0.00128001 -0.0217997 0)
(0.00238515 -0.0163033 0)
(0.00499649 -0.0130362 0)
(0.0229068 0.0194577 0)
(0.0255045 0.00568945 0)
(0.00501294 0.0186854 0)
(-0.000878009 0.0265323 0)
(0.00117905 0.0175427 0)
(-0.00116895 0.00862554 0)
(-0.00826838 -0.000933556 0)
(-0.00997844 -0.00316243 0)
(-0.00906967 -0.00194447 0)
(-0.00766991 -0.00266614 0)
(-0.00689666 -0.00271651 0)
(-0.00656861 -0.00408215 0)
(-0.00471852 -0.00769796 0)
(-0.00114548 -0.0112728 0)
(0.00340727 -0.00917102 0)
(0.00635096 -0.0079941 0)
(0.00432279 -0.00702887 0)
(0.000462261 -0.00706863 0)
(-0.00204794 -0.00167465 0)
(-0.00534326 -0.00446908 0)
(-0.009533 -0.0103108 0)
(-0.0116177 -0.0122683 0)
(-0.0106748 -0.00987769 0)
(0.00371584 -0.0055479 0)
(0.00134212 0.0136185 0)
(-0.00168846 0.0259584 0)
(0.00139508 0.0258457 0)
(0.00212224 0.0171798 0)
(0.00171662 0.0141873 0)
(0.000402456 0.00772068 0)
(-0.0023074 0.00318898 0)
(-0.00399028 0.00108399 0)
(-0.00479218 -0.000231534 0)
(-0.00548761 -0.00120099 0)
(-0.00593963 -0.00381996 0)
(-0.00487367 -0.0110388 0)
(-0.00212339 -0.0153502 0)
(0.000713371 -0.0133887 0)
(0.00234369 -0.00840638 0)
(0.00211161 -0.00409542 0)
(-0.000889727 -0.00496815 0)
(-0.00448032 -0.00427677 0)
(-0.00769446 -0.00469456 0)
(-0.0119903 -0.00833914 0)
(-0.0157368 -0.011362 0)
(-0.0193206 -0.0116109 0)
(-0.00560944 0.010141 0)
(-0.00729407 0.0153684 0)
(-0.00532567 0.022289 0)
(-0.00119257 0.0218755 0)
(0.000535432 0.0164502 0)
(0.00124382 0.0129594 0)
(0.00121892 0.00769233 0)
(-0.000396497 0.00373268 0)
(-0.00179887 0.00146553 0)
(-0.0025786 0.000171023 0)
(-0.00283652 -0.000822737 0)
(-0.00250633 -0.0036681 0)
(-0.0024538 -0.0113079 0)
(-0.00338925 -0.0155813 0)
(-0.00458411 -0.0135151 0)
(-0.00507392 -0.0084205 0)
(-0.00481738 -0.00365587 0)
(-0.00559887 -0.00169361 0)
(-0.00752424 -1.84233e-05 0)
(-0.00948437 -0.000520818 0)
(-0.0121262 -0.0040605 0)
(-0.0157627 -0.00766516 0)
(-0.0198016 -0.00871303 0)
(-0.00312067 0.00962171 0)
(-0.00522401 0.0149323 0)
(-0.00461424 0.0190492 0)
(-0.00202943 0.0188741 0)
(-0.0005561 0.0154439 0)
(0.000190184 0.0121481 0)
(0.000340245 0.00824473 0)
(-0.000526561 0.00508067 0)
(-0.00140361 0.00247429 0)
(-0.00186582 0.000594803 0)
(-0.00182706 -0.00104543 0)
(-0.00147328 -0.00400857 0)
(-0.00251385 -0.0097744 0)
(-0.00560954 -0.0130005 0)
(-0.0086936 -0.0115572 0)
(-0.010192 -0.00796055 0)
(-0.0103251 -0.00400831 0)
(-0.0104752 -0.000947882 0)
(-0.0111005 0.000844626 0)
(-0.011937 0.000633507 0)
(-0.0135688 -0.00152139 0)
(-0.0163013 -0.00417981 0)
(-0.0193362 -0.00594925 0)
(-0.00223988 0.0152912 0)
(-0.0036203 0.0165591 0)
(-0.00340054 0.0178986 0)
(-0.00197751 0.0172111 0)
(-0.000998933 0.0146769 0)
(-0.000551869 0.0117245 0)
(-0.000568422 0.00857631 0)
(-0.00109172 0.00579697 0)
(-0.00167386 0.00300771 0)
(-0.00211707 0.000847026 0)
(-0.00243938 -0.000987137 0)
(-0.00291847 -0.00355474 0)
(-0.00456522 -0.00729011 0)
(-0.0075913 -0.00949447 0)
(-0.0105254 -0.00901689 0)
(-0.0123162 -0.00689426 0)
(-0.0130303 -0.00381891 0)
(-0.0132121 -0.000723383 0)
(-0.0132906 0.00122231 0)
(-0.0135454 0.00148038 0)
(-0.0144344 0.00019673 0)
(-0.0161213 -0.00181228 0)
(-0.0181103 -0.00400658 0)
(-0.00130095 0.0167601 0)
(-0.00209874 0.0172449 0)
(-0.00220851 0.0173564 0)
(-0.00155099 0.0163346 0)
(-0.00104242 0.0142215 0)
(-0.000893417 0.0116108 0)
(-0.00106661 0.00887515 0)
(-0.0014583 0.00626022 0)
(-0.00197387 0.00352354 0)
(-0.00261896 0.00140047 0)
(-0.00338816 -0.000274835 0)
(-0.0044259 -0.00235891 0)
(-0.00623628 -0.00486996 0)
(-0.00887896 -0.00651614 0)
(-0.0114188 -0.00675741 0)
(-0.0130836 -0.0056255 0)
(-0.0138396 -0.00334184 0)
(-0.0140173 -0.000643981 0)
(-0.01396 0.00123987 0)
(-0.013939 0.0017806 0)
(-0.0142395 0.00106306 0)
(-0.0149623 -0.000511361 0)
(-0.0158698 -0.00282142 0)
(-0.000725302 0.0179295 0)
(-0.00114713 0.0177488 0)
(-0.00133619 0.0171852 0)
(-0.001086 0.0159639 0)
(-0.000905724 0.0140487 0)
(-0.000947401 0.0117109 0)
(-0.00118314 0.00918453 0)
(-0.00153422 0.00666169 0)
(-0.00209872 0.00418173 0)
(-0.00297749 0.0022965 0)
(-0.00403601 0.000819376 0)
(-0.00528563 -0.000900285 0)
(-0.00700663 -0.00272097 0)
(-0.00920216 -0.00406121 0)
(-0.011339 -0.004787 0)
(-0.0128936 -0.00443587 0)
(-0.0136953 -0.00287863 0)
(-0.0138497 -0.000647261 0)
(-0.0137033 0.0011287 0)
(-0.0135045 0.00172044 0)
(-0.0133652 0.00123211 0)
(-0.0133658 -0.000137205 0)
(-0.0134328 -0.00238649 0)
(-0.000377508 0.0186083 0)
(-0.000548462 0.0180903 0)
(-0.000714688 0.017182 0)
(-0.000647315 0.0158657 0)
(-0.000641902 0.0140682 0)
(-0.000789018 0.0119118 0)
(-0.00105779 0.0094997 0)
(-0.00144401 0.00710489 0)
(-0.00211051 0.00498462 0)
(-0.0031096 0.00339454 0)
(-0.00424497 0.00201533 0)
(-0.00548269 0.000537824 0)
(-0.00697901 -0.000912353 0)
(-0.00871498 -0.00208807 0)
(-0.0104976 -0.00302215 0)
(-0.0120209 -0.00321544 0)
(-0.0129628 -0.00235213 0)
(-0.0132267 -0.000701172 0)
(-0.0130646 0.000923542 0)
(-0.0127301 0.00140974 0)
(-0.01233 0.000947521 0)
(-0.0119644 -0.000343157 0)
(-0.0116885 -0.00243741 0)
(-0.000100231 0.018838 0)
(-0.000133684 0.0182559 0)
(-0.000241967 0.0172178 0)
(-0.000238924 0.0158807 0)
(-0.000303427 0.0141792 0)
(-0.000493193 0.0121634 0)
(-0.000806165 0.00985078 0)
(-0.00129362 0.00766042 0)
(-0.00206338 0.00587841 0)
(-0.00305631 0.00449405 0)
(-0.00412163 0.003162 0)
(-0.00525123 0.00182514 0)
(-0.00651043 0.000555805 0)
(-0.00788079 -0.000536362 0)
(-0.00932442 -0.00145792 0)
(-0.0107126 -0.00194452 0)
(-0.0117635 -0.00164499 0)
(-0.0122701 -0.000592118 0)
(-0.01222 0.000663598 0)
(-0.0118258 0.000970034 0)
(-0.011336 0.000478118 0)
(-0.010887 -0.000728508 0)
(-0.0106003 -0.00258615 0)
(6.15585e-05 0.0188123 0)
(0.000154099 0.0182897 0)
(0.000119805 0.0172431 0)
(0.000113346 0.0159263 0)
(3.20073e-05 0.0143182 0)
(-0.000167378 0.01244 0)
(-0.000545303 0.010291 0)
(-0.00114393 0.00833267 0)
(-0.00195486 0.00679105 0)
(-0.0028742 0.0054869 0)
(-0.00381966 0.00419691 0)
(-0.00481477 0.00293855 0)
(-0.00588245 0.0017563 0)
(-0.0070087 0.000710293 0)
(-0.00817398 -0.000162485 0)
(-0.00934434 -0.000745609 0)
(-0.0103714 -0.000790634 0)
(-0.0110084 -0.000256279 0)
(-0.0110915 0.000448168 0)
(-0.0107786 0.000542148 0)
(-0.0103531 2.0108e-05 0)
(-0.00997726 -0.00106908 0)
(-0.00979036 -0.0026409 0)
(0.000136695 0.0186185 0)
(0.000345679 0.0182194 0)
(0.00037398 0.0172367 0)
(0.000368924 0.0159739 0)
(0.000280417 0.0144642 0)
(7.25514e-05 0.0127338 0)
(-0.00034475 0.0108177 0)
(-0.000995125 0.00906599 0)
(-0.0017766 0.00764801 0)
(-0.00259237 0.00636089 0)
(-0.00342336 0.005108 0)
(-0.0042938 0.00390066 0)
(-0.0052116 0.0027691 0)
(-0.00616731 0.00175412 0)
(-0.0071486 0.000898569 0)
(-0.00812927 0.000285297 0)
(-0.00900776 3.65783e-05 0)
(-0.00960374 0.000154336 0)
(-0.00977985 0.000365871 0)
(-0.00962329 0.000241169 0)
(-0.00934552 -0.000316126 0)
(-0.00910441 -0.00128921 0)
(-0.00903268 -0.00259704 0)
(0.000199588 0.0183141 0)
(0.000459929 0.0180776 0)
(0.000520317 0.0172075 0)
(0.000508219 0.0160272 0)
(0.000406283 0.0146222 0)
(0.000182985 0.0130425 0)
(-0.000230621 0.0113583 0)
(-0.00083862 0.00977726 0)
(-0.00153564 0.00840712 0)
(-0.00225068 0.00713181 0)
(-0.00298348 0.00590819 0)
(-0.00374591 0.00473746 0)
(-0.00454081 0.00364037 0)
(-0.00536106 0.00264725 0)
(-0.00619383 0.00179476 0)
(-0.00701063 0.00113744 0)
(-0.00773634 0.000730121 0)
(-0.00825246 0.000545879 0)
(-0.00847499 0.000415295 0)
(-0.00845333 9.84226e-05 0)
(-0.00832479 -0.000500344 0)
(-0.00821756 -0.00138212 0)
(-0.00824166 -0.00248163 0)
(0.000225233 0.0179536 0)
(0.000492498 0.0179056 0)
(0.000558523 0.0171765 0)
(0.000541438 0.0160899 0)
(0.00043297 0.014791 0)
(0.00021019 0.0133514 0)
(-0.000165027 0.0118471 0)
(-0.000684155 0.0103975 0)
(-0.00127768 0.00906446 0)
(-0.0018984 0.00780962 0)
(-0.00253915 0.00660992 0)
(-0.00320333 0.00546589 0)
(-0.00389029 0.00439218 0)
(-0.00459284 0.0034113 0)
(-0.00529681 0.00255044 0)
(-0.00597441 0.00184147 0)
(-0.00657137 0.00130492 0)
(-0.00701421 0.000909152 0)
(-0.00725591 0.00054753 0)
(-0.00732645 8.30783e-05 0)
(-0.00731327 -0.000555028 0)
(-0.00731055 -0.00137251 0)
(-0.00740143 -0.0023212 0)
(0.00019711 0.0175983 0)
(0.000447766 0.0177461 0)
(0.00050401 0.0171442 0)
(0.000499029 0.01615 0)
(0.000402508 0.0149522 0)
(0.000202885 0.0136335 0)
(-0.000115787 0.0122605 0)
(-0.00054225 0.0109105 0)
(-0.00103489 0.00962386 0)
(-0.00156188 0.00839563 0)
(-0.00211247 0.0072184 0)
(-0.00268385 0.00609501 0)
(-0.00327213 0.00503673 0)
(-0.00386912 0.00405992 0)
(-0.00446047 0.00318306 0)
(-0.00502196 0.00242321 0)
(-0.00551543 0.00178489 0)
(-0.00589642 0.00124054 0)
(-0.00613985 0.000723185 0)
(-0.0062653 0.000152635 0)
(-0.00632867 -0.000517967 0)
(-0.00639561 -0.00129321 0)
(-0.00652524 -0.00213859 0)
(0.000160015 0.0172927 0)
(0.000360774 0.0176234 0)
(0.000410345 0.0171036 0)
(0.000423206 0.0161938 0)
(0.000349504 0.0150876 0)
(0.000186899 0.0138692 0)
(-6.98905e-05 0.0125975 0)
(-0.000410866 0.0113267 0)
(-0.000810849 0.0100886 0)
(-0.00124832 0.0088912 0)
(-0.00171198 0.0077369 0)
(-0.0021956 0.00663116 0)
(-0.00269294 0.00558344 0)
(-0.00319501 0.00460573 0)
(-0.00368833 0.00371007 0)
(-0.00415313 0.00290504 0)
(-0.00456301 0.00218876 0)
(-0.00489114 0.00153993 0)
(-0.00512455 0.000916602 0)
(-0.00527665 0.000271346 0)
(-0.00538351 -0.000424918 0)
(-0.00548942 -0.00117432 0)
(-0.00563472 -0.00195232 0)
(0.000114708 0.0170568 0)
(0.000270041 0.0175252 0)
(0.000325396 0.017057 0)
(0.000347561 0.016218 0)
(0.000298316 0.01519 0)
(0.000176638 0.0140538 0)
(-2.00333e-05 0.0128622 0)
(-0.000284649 0.0116572 0)
(-0.000601749 0.0104658 0)
(-0.000956612 0.00930097 0)
(-0.00133888 0.00817026 0)
(-0.00174094 0.00708091 0)
(-0.00215528 0.00604139 0)
(-0.00257272 0.00506078 0)
(-0.00298113 0.00414708 0)
(-0.00336488 0.0033045 0)
(-0.00370571 0.00252951 0)
(-0.00398719 0.00180685 0)
(-0.00420264 0.00111048 0)
(-0.00436138 0.00041247 0)
(-0.00448677 -0.000304273 0)
(-0.00460801 -0.00103973 0)
(-0.00475174 -0.00177643 0)
(5.71011e-06 0.0169079 0)
(0.000190813 0.0174185 0)
(0.000253761 0.0170067 0)
(0.00028327 0.0162246 0)
(0.000259408 0.0152589 0)
(0.00017885 0.0141885 0)
(3.82018e-05 0.0130613 0)
(-0.000158788 0.0119121 0)
(-0.000402684 0.0107642 0)
(-0.000683186 0.00963204 0)
(-0.000991344 0.00852521 0)
(-0.00131931 0.00745186 0)
(-0.00165919 0.00641981 0)
(-0.00200205 0.00543638 0)
(-0.00233727 0.00450729 0)
(-0.00265255 0.00363492 0)
(-0.00293502 0.00281615 0)
(-0.00317427 0.00204085 0)
(-0.00336672 0.00129323 0)
(-0.0035187 0.000557198 0)
(-0.00364524 -0.000176598 0)
(-0.0037652 -0.000906704 0)
(-0.0038956 -0.00162059 0)
(-6.07701e-05 0.0168385 0)
(0.00012431 0.0173023 0)
(0.000183512 0.0169499 0)
(0.000229766 0.0162116 0)
(0.000235219 0.0152934 0)
(0.00019619 0.0142753 0)
(0.000107595 0.0132013 0)
(-2.95269e-05 0.0121004 0)
(-0.00020934 0.010993 0)
(-0.000424264 0.00989269 0)
(-0.00066665 0.00880975 0)
(-0.000928925 0.00775244 0)
(-0.00120331 0.00672808 0)
(-0.00148137 0.00574302 0)
(-0.00175389 0.00480188 0)
(-0.00201105 0.00390662 0)
(-0.00224347 0.00305537 0)
(-0.00244415 0.00224204 0)
(-0.0026109 0.00145754 0)
(-0.00274778 0.000693124 0)
(-0.00286429 -5.56956e-05 0)
(-0.00297228 -0.00078664 0)
(-0.00308222 -0.00149068 0)
(-5.05182e-05 0.016817 0)
(6.54875e-05 0.0172084 0)
(0.000112313 0.0168832 0)
(0.000189188 0.0161724 0)
(0.000228649 0.0152904 0)
(0.000231415 0.0143159 0)
(0.000190829 0.0132878 0)
(0.000106392 0.0122304 0)
(-1.80528e-05 0.0111609 0)
(-0.000176482 0.0100918 0)
(-0.000362056 0.00903264 0)
(-0.000567607 0.00799159 0)
(-0.000785661 0.00697559 0)
(-0.0010084 0.00599048 0)
(-0.00122774 0.00504058 0)
(-0.00143566 0.00412812 0)
(-0.00162499 0.00325269 0)
(-0.00179064 0.00241132 0)
(-0.00193091 0.00159941 0)
(-0.00204819 0.000812784 0)
(-0.00214823 5.00155e-05 0)
(-0.00223819 -0.000686223 0)
(-0.00232417 -0.00138938 0)
(-5.14506e-05 0.0168206 0)
(1.3343e-05 0.0171532 0)
(5.43632e-05 0.0168019 0)
(0.000170913 0.0161005 0)
(0.000246533 0.0152479 0)
(0.000289381 0.0143125 0)
(0.000291618 0.0133267 0)
(0.000252187 0.0123102 0)
(0.000174212 0.0112772 0)
(6.29868e-05 0.0102385 0)
(-7.51234e-05 0.00920308 0)
(-0.000233225 0.00817854 0)
(-0.00040418 0.00717161 0)
(-0.000580732 0.00618799 0)
(-0.000755699 0.00523212 0)
(-0.000922317 0.00430683 0)
(-0.00107481 0.00341317 0)
(-0.00120916 0.00255053 0)
(-0.00132377 0.00171735 0)
(-0.00141976 0.000912431 0)
(-0.00150039 0.000136205 0)
(-0.00156973 -0.000608507 0)
(-0.00163103 -0.0013169 0)
(-8.66698e-05 0.0168534 0)
(-2.95821e-05 0.0171137 0)
(3.44903e-05 0.0166968 0)
(0.00018805 0.0159932 0)
(0.000298076 0.0151674 0)
(0.000375978 0.0142699 0)
(0.000413908 0.0133251 0)
(0.000410887 0.0123484 0)
(0.000369972 0.0113511 0)
(0.0002963 0.0103425 0)
(0.000196091 0.00933053 0)
(7.60578e-05 0.0083226 0)
(-5.69512e-05 0.00732526 0)
(-0.000196132 0.0063443 0)
(-0.00033499 0.00538454 0)
(-0.000467653 0.00444958 0)
(-0.00058924 0.00354178 0)
(-0.000696326 0.00266233 0)
(-0.000787297 0.00181184 0)
(-0.000862379 0.000991038 0)
(-0.000923186 0.00020152 0)
(-0.000971795 -0.000553881 0)
(-0.00100967 -0.00127157 0)
(-0.000122381 0.0169152 0)
(-2.86927e-05 0.0170534 0)
(7.57466e-05 0.0165612 0)
(0.000251707 0.0158545 0)
(0.000390388 0.0150552 0)
(0.000495694 0.0141955 0)
(0.000560622 0.0132916 0)
(0.000584574 0.0123544 0)
(0.000570887 0.0113924 0)
(0.0005249 0.0104134 0)
(0.000452912 0.0094246 0)
(0.000361586 0.00843308 0)
(0.000257579 0.00744545 0)
(0.000147314 0.0064678 0)
(3.67377e-05 0.00550546 0)
(-6.89043e-05 0.00456287 0)
(-0.000165333 0.00364355 0)
(-0.000249505 0.00275014 0)
(-0.000319764 0.00188478 0)
(-0.000375761 0.00104952 0)
(-0.000418077 0.000246717 0)
(-0.000447558 -0.000520855 0)
(-0.000464601 -0.00125043 0)
(-9.04049e-05 0.0169658 0)
(3.94839e-05 0.0169539 0)
(0.000174159 0.0163975 0)
(0.000363823 0.0156919 0)
(0.000524517 0.0149196 0)
(0.000649545 0.0140983 0)
(0.000732573 0.0132358 0)
(0.000773839 0.0123382 0)
(0.000777433 0.0114112 0)
(0.000749262 0.0104611 0)
(0.000695937 0.00949479 0)
(0.000624191 0.00851907 0)
(0.00054055 0.00754079 0)
(0.000451125 0.00656648 0)
(0.000361436 0.00560211 0)
(0.000276239 0.00465297 0)
(0.000199361 0.0037236 0)
(0.000133559 0.00281786 0)
(8.04777e-05 0.00193904 0)
(4.07809e-05 0.00109013 0)
(1.44756e-05 0.000273979 0)
(1.40971e-06 -0.000506692 0)
(1.764e-06 -0.00124969 0)
(-4.78609e-05 0.0169536 0)
(0.000142967 0.0168156 0)
(0.000307532 0.0162097 0)
(0.000516064 0.015509 0)
(0.000696457 0.0147663 0)
(0.000835603 0.0139859 0)
(0.000928587 0.0131668 0)
(0.000977739 0.0123095 0)
(0.000988826 0.0114172 0)
(0.000968839 0.0104954 0)
(0.000924953 0.00955038 0)
(0.000864076 0.00858933 0)
(0.000792641 0.00761948 0)
(0.000716487 0.00664792 0)
(0.000640755 0.00568134 0)
(0.000569792 0.00472589 0)
(0.000507047 0.00378707 0)
(0.000455008 0.00286974 0)
(0.00041523 0.00197813 0)
(0.000388476 0.00111594 0)
(0.000375013 0.000286378 0)
(0.000375004 -0.0005079 0)
(0.000388871 -0.0012651 0)
(1.1453e-05 0.0168567 0)
(0.000250607 0.0166347 0)
(0.000461449 0.0159922 0)
(0.000699646 0.0153025 0)
(0.000901924 0.0145971 0)
(0.00105125 0.0138647 0)
(0.00114639 0.0130931 0)
(0.00119408 0.0122778 0)
(0.00120308 0.0114202 0)
(0.00118206 0.0105254 0)
(0.00113895 0.00960015 0)
(0.00108087 0.00865209 0)
(0.00101413 0.00768916 0)
(0.000944304 0.00671915 0)
(0.000876156 0.00574955 0)
(0.000813653 0.00478735 0)
(0.000759893 0.00383895 0)
(0.000717093 0.00291011 0)
(0.00068663 0.00200586 0)
(0.0006692 0.00113048 0)
(0.000665079 0.000287459 0)
(0.000674474 -0.000520618 0)
(0.000697814 -0.00129228 0)
(6.35797e-05 0.0166768 0)
(0.000358026 0.0164006 0)
(0.000630577 0.0157311 0)
(0.000911731 0.0150637 0)
(0.0011398 0.0144119 0)
(0.00129469 0.0137406 0)
(0.00138307 0.0130237 0)
(0.00141944 0.0122528 0)
(0.00141697 0.0114295 0)
(0.00138632 0.0105599 0)
(0.00133615 0.00965214 0)
(0.00127368 0.0087148 0)
(0.00120501 0.00775673 0)
(0.00113534 0.00678656 0)
(0.00106906 0.0058126 0)
(0.00100976 0.00484266 0)
(0.000960215 0.00388402 0)
(0.000922338 0.00294325 0)
(0.000897277 0.00202612 0)
(0.000885529 0.00113743 0)
(0.000887194 0.000280922 0)
(0.000902311 -0.000540912 0)
(0.000931155 -0.00132691 0)
(8.57119e-05 0.0164259 0)
(0.000474095 0.0160955 0)
(0.000819254 0.015409 0)
(0.00115685 0.0147811 0)
(0.00141233 0.0142121 0)
(0.00156421 0.0136221 0)
(0.00163419 0.0129688 0)
(0.00164867 0.0122443 0)
(0.00162582 0.0114538 0)
(0.00157799 0.0106068 0)
(0.00151416 0.0097134 0)
(0.00144131 0.0087839 0)
(0.00136513 0.00782817 0)
(0.00129038 0.00685573 0)
(0.00122103 0.00587568 0)
(0.0011603 0.00489664 0)
(0.00111063 0.00392669 0)
(0.00107368 0.0029732 0)
(0.00105032 0.00204266 0)
(0.00104077 0.0011404 0)
(0.0010448 0.000270386 0)
(0.00106213 -0.000564977 0)
(0.00109274 -0.0013649 0)
(0.000158684 0.0160988 0)
(0.000619852 0.0157072 0)
(0.00105117 0.0150121 0)
(0.00144774 0.0144463 0)
(0.00172155 0.014005 0)
(0.00185456 0.0135227 0)
(0.0018916 0.0129407 0)
(0.00187385 0.0122619 0)
(0.0018233 0.0115008 0)
(0.00175258 0.0106723 0)
(0.0016702 0.00978954 0)
(0.00158249 0.00886457 0)
(0.00149452 0.00790838 0)
(0.00141051 0.00693133 0)
(0.00133399 0.00594326 0)
(0.00126783 0.00495351 0)
(0.00121422 0.00397094 0)
(0.00117458 0.0030037 0)
(0.00114952 0.00205899 0)
(0.00113894 0.00114275 0)
(0.00114221 0.000259225 0)
(0.00115854 -0.000589292 0)