/*--------------------------------*- C++ -*----------------------------------*\
  =========                 |
  \\      /  F ield         | OpenFOAM: The Open Source CFD Toolbox
   \\    /   O peration     | Website:  https://openfoam.org
    \\  /    A nd           | Version:  9
     \\/     M anipulation  |
\*---------------------------------------------------------------------------*/
FoamFile
{
    format      ascii;
    class       volScalarField;
    location    "9";
    object      p;
}
// * * * * * * * * * * * * * * * * * * * * * * * * * * * * * * * * * * * * * //

dimensions      [0 2 -2 0 0 0 0];

internalField   nonuniform List<scalar> 
918
(
23.5157
23.7904
1.0173
22.9314
1.00638
23.3068
3.49469
13.9712
19.2882
3.0433
2.74603
14.4596
20.8498
17.0911
13.2142
0.945983
14.2023
2.37034
18.5044
1.42032
13.213
20.4944
21.5832
19.3309
14.2057
14.5719
18.8121
1.24145
0.115097
0.306801
0.963995
0.425711
0.178207
21.8437
22.5204
22.4587
15.5443
10.5225
3.83093
4.04199
3.20313
3.00536
14.0089
14.1075
6.09192
13.9547
13.9529
16.6914
19.1561
19.2996
19.5937
19.3822
19.7687
5.98225
2.90591
2.72613
3.01138
3.07972
3.01356
2.82934
2.81118
2.61411
2.46869
13.9456
14.5317
14.584
14.3254
14.2771
22.6664
21.9095
22.2442
21.3506
21.496
20.4259
20.0403
17.4668
17.8193
16.6929
16.3119
12.9995
12.9537
13.4408
13.6854
0.150217
1.0967
1.24285
14.205
14.2342
14.2515
14.2685
8.33636
2.3389
2.34745
17.9448
17.5211
20.5267
20.7938
20.2408
20.0552
1.57807
1.59884
1.19461
1.21968
0.988506
13.5378
13.6898
19.2823
18.4494
14.2232
14.1338
14.2001
11.589
13.9995
14.0799
15.5372
15.9908
15.1766
15.6161
18.3821
17.9641
19.2487
19.6859
0.426673
0.166126
0.716483
0.349594
0.545528
15.4129
15.2086
15.6537
15.7106
15.9416
10.5249
10.4469
10.503
10.4215
4.3925
4.70612
2.42957
2.76354
2.59716
9.97115
14.1214
14.162
5.05168
5.74522
5.41443
6.55977
6.93091
16.0578
16.4938
16.2329
17.7783
16.9834
17.3315
19.8584
19.348
19.6483
6.37604
6.62585
5.6215
5.27051
2.37116
2.60853
2.54976
3.11226
3.09364
3.24397
3.38673
2.73168
2.58587
3.02956
2.90949
2.9634
2.29483
2.15639
13.6718
13.4604
14.2059
14.3841
15.139
14.9917
14.7004
14.8676
19.2354
19.6389
19.6724
19.2882
11.7095
10.2461
13.9424
14.2147
0.312911
0.266477
0.13987
0.384237
0.398932
0.155114
2.03282
1.84198
1.42396
1.69405
14.1925
14.1462
8.57829
8.80346
8.16882
7.90958
16.3579
16.5085
17.143
16.7425
2.06438
1.7614
1.90038
13.8457
13.7199
13.8285
11.0341
10.482
12.058
12.3247
14.1172
14.1426
14.1462
15.896
16.2143
20.0368
20.3074
20.1343
20.5201
21.5829
21.2342
20.8494
14.5926
14.9987
14.8386
16.1714
15.8049
16.0242
15.2316
15.5367
15.3939
10.4758
10.5214
10.2333
10.3118
10.3637
10.3098
9.90155
9.77197
14.2374
14.1993
14.2199
7.44371
7.92907
4.89517
4.57159
12.6156
13.2802
12.9604
18.8652
18.1875
18.9205
18.5496
18.0996
18.4231
10.5306
10.4855
10.5223
15.1335
14.4749
14.8247
2.46359
2.09895
2.26781
9.00194
9.09738
6.99621
7.62389
7.28731
16.5157
16.8561
17.5362
16.6481
17.1156
17.6229
17.401
10.0485
10.1864
10.1007
9.75207
9.64124
9.85914
8.49535
9.09295
3.65058
4.29682
3.99824
9.26759
9.51052
9.35394
18.6768
19.2115
0.803237
1.23602
19.64
19.3635
0.153395
0.26248
14.4687
12.7383
7.45626
17.2412
16.678
19.0155
3.27721
6.13265
2.90928
3.42458
2.71679
14.6579
14.3089
13.4085
0.474859
1.26277
1.74622
3.01114
18.4572
17.7823
18.8974
19.2178
19.2719
0.69922
0.948094
0.590901
1.31415
1.08321
1.3171
15.6018
15.6909
4.53074
18.904
19.208
19.2259
17.7015
18.6546
17.712
0.944992
0.651033
0.72917
10.2
12.2133
14.4304
13.9811
14.1803
14.2026
13.9539
15.0854
14.7599
14.72
15.2025
14.1335
14.0031
7.89495
6.58358
8.24312
7.89228
17.1427
16.7303
16.5412
16.2875
18.1305
17.6563
18.5069
17.8947
18.3565
18.6436
3.07325
3.24264
3.11446
2.64308
6.18149
6.64685
5.52918
5.65689
4.29903
2.57781
2.64906
2.84997
2.71304
3.00679
2.72803
2.99218
2.62842
2.35312
2.34965
2.98836
2.79591
2.67045
14.6329
14.5749
14.3779
14.4195
14.4115
14.5243
13.5993
13.9979
13.6272
12.4813
13.0464
12.579
0.815437
0.661244
0.538845
1.34158
1.37491
1.14217
0.872517
1.22182
1.20827
0.879652
1.57723
1.53202
3.29278
2.80315
8.90601
8.02362
6.9538
16.8484
17.6495
16.8193
18.0586
18.4756
18.5814
18.202
17.6938
15.7709
15.7668
15.4269
15.3789
4.94461
3.92224
5.15196
4.75226
10.605
14.1841
11.9303
10.908
11.1971
13.4866
14.1469
13.7903
13.9621
13.5101
13.019
13.7374
13.2559
13.3606
13.1168
15.9325
16.4074
16.0138
15.4342
15.4545
10.7114
12.0938
5.68327
5.82981
7.3848
6.71172
13.7119
14.0896
14.0737
13.7367
13.9368
13.9132
13.7577
13.9185
14.0308
13.9276
11.885
10.2563
9.18256
9.18044
14.2239
12.4277
13.0281
12.4801
16.1627
16.6806
16.2945
15.6961
16.1797
15.6522
15.6747
15.8837
17.2468
16.9957
16.7664
17.1535
3.18259
3.12678
3.75915
3.26634
3.16111
2.93649
3.59643
4.84033
4.50366
6.77376
7.30893
4.67309
3.54653
3.91114
4.91274
5.60622
5.60003
4.04263
4.54381
4.97245
4.49397
5.25463
4.76904
2.81546
3.11268
2.9653
2.94308
3.43985
3.92545
3.43495
2.55567
2.68955
2.38797
2.2492
3.61163
3.12566
3.16216
3.75825
1.15307
1.35836
1.47449
2.46994
1.95314
2.01358
15.2245
14.8677
15.0017
14.2889
14.3606
14.3078
13.9283
15.2906
15.0147
15.113
13.7674
13.854
13.6695
13.9619
14.3627
14.6615
15.4972
15.2159
14.4644
14.6143
14.2673
14.1912
13.5263
12.9641
12.9065
1.12293
0.830789
1.00183
0.942437
0.625731
0.817985
2.20172
1.59996
2.0065
1.73727
1.97163
1.47464
1.34748
4.37908
5.17107
4.12315
3.52602
3.23214
8.96313
9.07857
8.20951
7.90961
8.2482
8.48317
8.43218
7.16744
7.60359
7.41612
10.0284
9.67715
17.6329
17.5773
17.249
17.0898
17.3157
5.92162
7.7406
6.95015
8.04621
10.3199
10.6316
9.376
8.77341
9.54114
9.59757
14.1652
14.2492
13.6775
14.1517
14.1768
11.9234
12.9544
13.5695
13.3632
13.9081
13.9987
13.0977
13.662
13.5397
12.8224
12.8826
12.2078
12.5334
12.0628
11.8753
14.103
14.0006
14.2678
13.8226
14.1957
13.7877
14.0866
14.1001
14.3804
13.4713
12.8958
12.9225
13.3402
13.0349
13.3789
13.5364
9.35906
10.0144
10.4911
11.041
10.7519
10.5198
10.3792
10.6951
10.6799
10.9449
10.8638
10.7009
11.6299
13.6279
13.9048
14.0365
13.7892
13.8228
13.5212
13.811
13.7319
14.0659
14.1634
14.2109
13.2495
13.446
13.654
13.533
11.745
10.1615
10.0222
9.60378
7.72406
8.18306
11.0889
10.0046
9.04446
9.11321
12.2702
10.9068
11.7151
12.1154
10.7845
10.4121
13.0588
13.8757
14.085
13.7815
12.1366
12.2592
12.7117
13.1686
13.3671
13.8488
15.9089
16.482
16.5605
16.2855
16.1464
16.2444
15.9931
16.0976
16.5718
16.6977
16.5287
3.00084
3.10809
3.04975
2.97566
3.20661
3.00922
4.07052
4.06325
3.26656
3.44135
3.45843
3.55311
3.05979
3.08793
4.88332
5.1167
5.38968
4.90511
6.2359
6.85835
7.42543
7.12826
5.84824
5.91401
6.22445
3.59336
3.58873
3.32538
3.77168
3.83589
2.70823
2.34722
2.14066
2.67475
2.7689
2.15131
1.85816
1.92022
2.40245
2.17161
1.91448
15.0245
14.7849
14.8052
14.586
14.6406
15.0318
15.2514
15.0585
15.1949
15.2451
14.8493
14.7335
14.9056
1.84588
1.52073
1.6709
1.66244
1.6672
1.6037
1.77815
7.65386
6.47557
6.85061
6.06899
4.27448
4.76767
9.64813
10.0686
10.1103
9.80366
9.59258
9.95319
9.8183
9.80797
8.32226
9.39561
8.93037
9.33188
9.3669
9.43198
9.13842
9.1443
10.6531
10.6822
9.54356
10.198
9.42404
8.06296
8.22245
9.19395
10.1424
10.5154
10.3579
10.0554
9.83298
10.2319
10.2699
10.3506
10.3383
8.81847
8.75718
8.34644
14.0827
14.0127
14.1594
14.1472
14.2895
14.0579
13.8941
14.1785
14.2389
14.0143
11.1994
11.2686
11.5214
12.3036
12.3655
12.1738
11.4308
13.2498
12.8761
13.573
13.5068
13.5422
13.1198
12.9388
13.2433
10.1733
11.5351
11.0641
11.3381
10.1697
9.43421
13.3325
13.3756
13.4716
13.759
13.6892
14.2818
15.8776
15.7464
15.7958
15.8394
15.4505
15.4861
4.24574
3.91329
4.62703
4.58854
4.15409
3.85822
2.33535
2.03643
1.85595
1.72873
1.93098
1.99737
8.22994
8.24551
6.40882
7.41832
6.00742
5.07305
4.93778
6.05694
7.21869
7.29383
8.55899
9.25461
8.81679
8.64341
7.97188
8.30008
10.2301
10.3237
10.2232
10.5473
10.0835
11.8548
11.4321
11.7911
13.4394
13.1272
12.5095
12.3957
12.3883
13.001
12.0219
11.2419
11.9534
12.6432
12.6006
11.2442
10.9925
11.4258
11.3836
10.2865
10.8268
10.5836
10.9314
10.6221
)
;

boundaryField
{
    wall-4
    {
        type            zeroGradient;
    }
    velocity-inlet-5
    {
        type            zeroGradient;
    }
    velocity-inlet-6
    {
        type            zeroGradient;
    }
    pressure-outlet-7
    {
        type            fixedValue;
        value           uniform 0;
    }
    wall-8
    {
        type            zeroGradient;
    }
    frontAndBackPlanes
    {
        type            empty;
    }
}


// ************************************************************************* //
