/*--------------------------------*- C++ -*----------------------------------*\
  =========                 |
  \\      /  F ield         | OpenFOAM: The Open Source CFD Toolbox
   \\    /   O peration     | Website:  https://openfoam.org
    \\  /    A nd           | Version:  9
     \\/     M anipulation  |
\*---------------------------------------------------------------------------*/
FoamFile
{
    format      ascii;
    class       surfaceScalarField;
    location    "9";
    object      phi;
}
// * * * * * * * * * * * * * * * * * * * * * * * * * * * * * * * * * * * * * //

dimensions      [0 3 -1 0 0 0 0];

internalField   nonuniform List<scalar> 
1300
(
11.2529
1.87548
-4.57331
11.2529
-4.93836
1.87548
-4.22178
4.22178
-1.27672
1.27672
5.71244
5.54042
-2.50313
2.50313
-3.06035
3.06035
-2.89556
2.89556
-1.06194
1.06194
-1.02835
1.02835
0.710769
-0.710769
-3.31321
3.31321
-1.55644
1.55644
-3.00078
3.00078
6.12872
-6.12872
-3.54185
3.54185
-0.791479
0.791479
-4.26344
15.5163
6.98942
6.98942
-2.44177
2.44177
-1.25663
1.25663
1.41034
-1.41034
9.81228
-9.81228
-5.23898
-6.13797
1.9102
-13.7169
-3.02815
-3.02815
-2.7054
2.7054
-0.829928
1.04555
3.47047
-3.47047
-0.796711
0.796711
-4.28003
0.0582493
-4.28003
4.04331
0.178474
4.04331
-1.42668
0.149955
-1.42668
4.57304
-4.57304
1.1591
0.117621
1.1591
3.92603
-3.92603
-5.70991
11.4224
5.54295
-5.32046
20.8368
-5.9324
11.4728
-3.88315
3.88315
-2.41335
-0.0897793
-2.41335
2.54478
-0.0416435
2.54477
-3.8867
3.8867
-2.83149
-0.228859
-2.83149
3.19627
-0.135923
3.19627
3.64459
-3.64459
-2.94076
0.0452003
-2.94076
2.7552
0.140357
2.7552
0.771042
1.10443
-2.64652
3.69207
-1.10443
0.0424987
1.02614
0.0357985
1.02614
-1.01456
-0.0137982
-1.01456
1.05015
-0.0217962
1.05015
0.758197
-0.0474285
0.758197
-0.763457
0.0526878
-0.763457
-8.52207
-8.63075
-3.42049
0.107281
-3.42049
-1.56442
0.00798243
-1.56442
1.60054
-0.0440998
1.60054
-2.5716
2.5716
-3.32474
0.323959
-3.32474
4.80763
1.32109
4.80763
5.04623
6.20663
16.2991
-16.2991
10.1704
-3.27492
-0.266934
-3.27492
-3.72671
-6.08557
3.72671
-0.184859
-0.864341
0.0728619
-0.864341
5.62589
1.36353
5.62589
2.64724
0.107963
-2.64724
0.205464
4.56859
-4.56859
1.47294
0.968831
1.47294
-1.19068
1.19068
1.12438
-0.0742332
-1.12438
-0.132249
1.386
0.0243437
1.386
-1.40974
-0.000594062
-1.40974
7.65259
-13.7906
-7.83419
3.14804
0.165164
-3.14804
0.119888
3.55432
-0.0838435
3.55432
-3.31681
3.31681
-3.60615
0.135673
-3.60615
-0.717124
-0.0795867
-0.717124
0.886273
-0.0895619
0.886273
-4.49791
0.217878
-4.49791
-3.73708
0.41234
3.73708
0.306229
1.30642
-1.30642
-1.53675
0.110073
-1.53675
-4.56072
0.0628142
4.56072
0.012317
-4.66711
0.0940681
-4.66711
-3.70923
0.103086
3.70923
0.216793
4.58804
1.03785
-4.58804
0.662013
-5.36965
11.5763
-5.88321
11.4262
-3.53363
-0.349524
-3.53363
4.04982
-0.166672
4.04982
2.68614
0.314641
-2.68614
0.272785
2.69605
-0.151277
2.69605
-3.85747
-0.029225
-3.85747
3.68815
0.198545
3.68815
2.75962
-0.0635661
-2.75962
-0.0718717
3.20028
-0.00401198
3.20028
3.64651
-0.00191487
3.64651
-3.5237
-0.120894
-3.5237
3.19255
-3.19255
3.09936
0.0931835
-3.09936
0.158603
-5.07402
5.07343
-0.00799881
-5.06602
1.01814
1.01814
0.8093
-0.0511026
0.8093
-0.863368
0.099911
-0.863368
8.45718
-16.2914
8.5739
-17.096
7.22172
-20.9387
7.93706
-16.5678
3.68927
-3.68927
3.62401
0.0652622
-3.62401
0.203526
-1.53335
-0.0310762
-1.53335
-2.33699
-0.234616
-2.33699
2.90406
-0.332455
2.90406
-3.74573
3.74573
-4.12696
0.381234
4.12696
0.680668
3.26461
-0.064324
-3.26461
-0.0103107
0.997181
0.161921
-0.997181
0.13284
4.79319
-0.224596
4.79319
-4.04253
-0.526065
-4.04253
-1.53564
0.0022943
1.53564
-0.0626957
-1.25865
0.0679648
-1.25865
-5.0745
0.00847729
-5.0387
-1.40127
-1.40127
1.30414
4.9962
-3.57283
0.0491358
3.57283
-0.0185164
3.53223
0.213501
-3.53223
0.215417
-3.27339
0.0808423
3.27339
0.0434247
-0.694145
-0.022979
-0.694145
-1.08221
1.08221
-0.963763
-0.118443
0.963763
-0.0774903
1.46225
-0.15583
1.46225
1.57651
0.0240328
-1.57651
0.0397551
-4.90461
0.237509
-4.90461
4.0443
0.00552089
4.0443
-3.91321
-0.129311
3.91321
-0.266708
-0.00371952
5.07715
-1.01442
-0.000136511
1.01442
-5.10149
5.10136
-0.700158
0.0060128
0.700158
0.109142
1.02883
0.161855
-1.02883
0.165458
3.71654
-0.0283832
-3.71654
0.0272636
-2.05702
-0.279969
-2.05702
-3.22039
-0.31324
3.22039
-0.316328
-5.11495
-0.0781662
5.19311
-5.13674
1.33681
0.0491841
-1.33681
5.15054
-1.19574
-0.110683
1.19574
-0.113533
1.6629
-0.200644
1.6629
5.02692
-0.233733
-5.02692
0.122305
-4.03672
0.179245
4.03672
0.00758289
-1.83126
-0.225755
1.83126
-0.168368
-13.1274
14.491
7.70932
-6.68145
-7.10911
-12.767
4.44785
7.12843
14.6182
-11.4256
-9.51308
-11.3057
2.8619
-2.69644
-3.843
3.79558
23.0905
-22.9965
-18.4028
19.0834
20.7717
-20.5549
5.70763
5.71473
16.2885
-16.3782
-20.7882
20.4387
16.2727
-16.5016
21.4991
-21.5283
-24.9749
24.9465
-16.2121
16.2573
-20.2225
20.1016
-20.9264
20.6597
-8.36523
-8.73074
15.8857
-15.7784
21.2469
-21.5138
-19.503
19.827
10.0462
4.44476
11.0841
-6.24733
11.955
-5.22549
12.9348
8.26056
-16.6258
8.0308
-15.1399
9.78477
11.4621
-9.59991
-3.16711
-17.947
17.8632
-17.2841
17.3275
23.6438
-23.5855
-6.17224
11.887
-5.25392
12.3824
-11.4096
-6.9932
10.0885
4.52974
8.6858
7.19985
-8.85097
-2.45472
-24.4554
24.2217
-25.4199
24.8938
0.0868325
2.43318
-2.52001
1.34346
-0.846432
3.27961
2.01546
2.11538
2.45163
-2.28978
0.244806
-2.76482
-2.89707
-5.69168
5.80175
5.52222
-5.4046
16.176
6.91455
16.1883
-16.4271
-6.56935
-16.1896
11.3684
7.71498
11.7497
12.0538
8.71788
12.1569
10.3615
-10.33
-0.031432
-11.4758
21.8373
1.55694
-18.469
-13.9393
9.25361
7.03486
9.21197
-10.1533
-6.22497
-9.88049
-11.0479
-9.74032
-11.3611
12.2318
8.20684
12.0652
-15.0606
15.0682
9.9804
6.2923
9.84447
-9.49953
-7.00202
-9.57141
26.8591
-6.38582
-20.4732
-12.7892
-12.1857
12.5907
8.90839
13.8017
11.1448
13.8289
8.59895
18.2601
-17.5073
5.32168
-9.99834
-6.21376
-9.83973
9.37428
6.88301
9.51464
-11.7368
-8.48573
-11.6877
-11.9307
-8.99566
11.9326
8.169
-12.4366
-12.9833
12.5659
8.09377
7.49418
-17.0073
9.07363
-17.8044
-10.5294
-5.24896
-10.3259
10.644
6.60569
-17.2497
-5.98177
24.2888
-12.8267
21.1217
-11.7112
-9.80261
-11.7215
-14.785
-4.71803
-14.3726
-8.14963
7.86966
-8.94195
8.60949
26.7406
-15.9204
-10.8202
-12.3761
-8.17878
11.7141
-0.630065
-12.8373
12.8059
-0.882371
12.0524
16.4972
15.8671
-10.8914
-6.3927
-10.676
10.2983
7.02919
10.3792
15.8912
7.75262
16.0696
-16.4485
-7.137
-16.2307
5.09075
-5.17034
5.9396
-5.93731
15.4007
9.49307
-15.1761
-9.27928
23.0636
-10.797
-12.2666
-5.17188
5.38911
-0.217234
-1.89227
-0.548802
0.242678
-1.96384
-1.87916
1.91116
0.204219
5.59333
3.71417
-2.41365
2.48162
2.77946
2.70523
-0.191837
2.62898
-2.62297
19.2432
-11.5482
-7.69495
13.64
-13.5772
-2.59066
-18.9052
16.3146
2.61109
3.24976
-3.1769
-4.19582
-1.49585
-4.15607
3.18265
2.33958
3.34457
2.22266
3.57909
-8.53187
1.67556
6.85632
-6.30922
-3.72905
-13.3183
-6.28064
19.5989
16.403
7.81866
-16.5253
0.335721
5.5859
-5.63
-1.54149
-11.7768
8.62769
-10.1692
-15.1916
-6.38115
21.5727
-9.5865
-1.08946
9.373
2.37668
-10.8675
-7.07958
10.7318
1.42513
-12.058
23.9772
-11.9192
-18.4507
8.52051
13.3168
16.2355
-17.8634
9.31245
8.55093
-4.5466
7.82222
1.38975
7.67094
-19.9798
13.7548
11.5433
8.28364
-11.858
1.97749
-18.0023
24.9657
-21.9672
-2.99847
12.8644
12.1013
13.4083
13.3323
-7.90127
21.3096
-3.39149
-18.5758
21.3938
-13.1102
15.4314
-28.5416
-28.7637
10.188
-17.8286
21.685
-3.85643
-5.04935
-10.0113
22.878
-2.05943
-20.8185
10.0057
-13.9988
-11.9481
25.9469
-20.3846
18.9502
-6.51185
-12.4383
-12.402
-9.12624
12.2228
2.84539
-25.2763
30.598
-7.01619
8.44289
1.40158
8.43888
10.6091
-15.6782
5.06906
9.77548
-16.2873
6.94528
-22.6235
-11.7362
23.4608
-11.7246
-16.9851
-15.2718
-1.71336
4.69384
25.9041
-15.8387
11.7035
4.1352
8.49803
1.88114
-8.59121
-1.24852
1.04241
16.1935
-17.2359
10.5571
10.665
11.9183
4.27518
10.7491
7.11411
-10.7306
-0.957084
-14.735
5.73932
-6.56597
-14.4637
20.203
-16.2376
1.7739
-10.2826
-14.0376
24.3202
-16.4963
11.4496
12.5276
18.4788
-19.608
5.57034
-9.77394
-9.83405
10.6673
-17.2332
7.42338
12.7796
15.5171
2.53387
12.3793
11.0815
-18.985
1.18062
18.2814
-15.8266
3.76864
10.0603
-15.4721
0.200335
-10.1256
2.66174
-15.4884
-14.588
16.1799
-20.898
-12.3617
13.4782
2.59144
-13.7844
-0.588205
-5.08029
-3.06934
-5.30605
-3.29521
-5.64673
-11.1965
-1.98831
-9.20817
5.88135
-6.75812
-4.603
7.07445
1.53504
-5.14034
5.02966
-5.76684
5.5662
-0.212965
13.0189
15.6542
7.47539
-8.47226
15.9476
-15.4136
23.1662
-29.2178
13.8042
15.5726
-22.7096
-13.6452
2.83975
2.251
2.75019
13.7177
-14.8068
1.08905
-13.6246
17.7935
-4.16887
-20.1009
6.47629
-6.38321
5.4332
0.506405
5.40212
1.51175
6.96058
-8.47233
-4.42556
-4.48825
-9.02537
-13.7173
22.7427
4.85432
-13.0692
8.21486
-12.2448
17.0991
0.197154
-13.2663
17.2923
-10.3317
17.7987
-12.0477
5.75104
12.7319
22.2917
-9.55981
16.0819
-6.58882
6.91473
-16.4745
-6.80261
-11.3621
18.2451
-12.9581
14.732
-1.00924
15.7412
-13.9287
3.13164
-2.01037
8.65464
8.86011
16.7578
-12.4826
11.9833
-18.5721
-4.49121
-16.0383
-3.25863
0.965386
-13.8808
12.9154
12.2829
-11.3175
-3.39856
9.35567
-5.95711
5.9629
-2.98584
-2.97706
-1.94374
-3.2266
1.96672
0.662261
6.62516
0.516591
-3.50243
-2.10638
-1.99723
10.4967
8.74643
-4.11804
3.9008
3.87536
-0.625598
1.0308
2.31377
4.90481
-3.87401
0.730292
4.17451
-2.44661
4.05955
1.52635
-4.08358
-0.072488
-3.53004
12.1577
3.32628
-5.66585
1.79185
2.37119
-13.9194
19.4417
-11.2155
-8.22625
21.8129
3.00086
-14.2163
15.9044
-13.2933
7.9448
-14.2254
-6.27151
-19.5648
-12.6502
-10.6882
18.903
-12.0545
19.8732
3.71147
-20.2089
23.9204
-12.8601
6.47893
-9.77021
11.2966
-4.23906
-5.53115
11.2932
10.2795
-11.022
-0.754842
0.271254
8.63011
-8.35886
-1.53907
-7.84829
-16.3994
17.8245
-8.26617
17.5786
7.68147
-7.62294
25.2016
6.57604
-14.199
-11.8747
-12.9641
-5.64805
10.5874
-1.92699
-7.64441
-14.3653
7.70798
-0.0370359
-19.2337
22.3546
-3.12093
-12.1989
-1.55596
14.4204
-18.26
1.97271
-11.3148
11.0399
12.4296
12.3926
-20.6438
-0.174749
-12.4369
3.25388
-15.6908
15.3552
-6.86989
17.0579
-15.9747
11.3717
-14.4397
14.0594
-1.63141
14.4009
-9.3318
6.07238
-15.1986
-12.3532
14.8908
-8.59848
16.2924
-10.3323
26.6246
-17.3484
15.0366
11.588
-2.88923
-8.83228
-14.5789
11.6897
0.457723
8.8966
17.8065
-10.6924
16.8494
8.86953
-18.6435
-8.3637
-25.8625
7.21901
-13.3349
-7.34202
14.561
11.1368
13.0179
4.72698
-11.7694
17.3727
-19.0861
-5.64806
-8.9399
15.1064
-3.41676
10.1846
-19.1245
-5.30382
13.1244
-0.370814
-12.7536
2.79597
-15.1576
5.22583
-20.3835
15.6721
-16.2603
1.83568
-8.21889
-3.30466
-3.41819
-2.22251
-3.54433
-7.80579
5.58328
-1.3295
3.70016
-12.6875
12.3167
-5.10596
10.6892
-4.18518
-1.12086
4.35355
1.21264
11.9019
2.95617
-16.6014
-9.31327
14.8034
-5.49011
1.18347
-10.9246
3.87879
7.97411
13.8388
-24.2887
1.57913
-15.0223
-4.24045
6.49145
5.11522
17.3981
2.59137
6.8554
-0.363946
9.44677
2.38624
2.30875
-11.184
12.273
1.73142
15.5356
-1.92968
7.68072
3.47244
3.48042
2.14958
5.84383
3.01627
8.97548
0.503146
-3.9851
2.15506
-4.1523
-1.34737
-4.2034
-0.407825
3.87255
-4.28037
10.7793
-2.03283
5.28914
-2.01606
-5.24076
7.25682
-9.71101
-5.86636
-1.69185
-5.86314
7.65499
6.2946
-5.96314
-3.74787
2.39781
-15.0481
11.8276
-12.5825
-2.30298
21.6174
-9.69982
1.34097
-3.22089
-6.50733
-8.00318
8.07567
24.1927
1.00888
12.2735
18.8334
11.7538
1.06137
12.0715
-15.928
-10.5519
-16.1027
-0.747501
13.6729
5.63396
20.2702
17.222
13.8052
-5.31932
-24.4054
20.5171
-8.24409
16.3482
-3.59462
-16.7888
14.4637
8.70249
-17.0552
0.794839
-15.994
-24.2381
-0.428334
12.7451
-11.4735
10.3527
7.28335
1.92483
-2.53742
-0.880766
2.65586
-0.347113
9.09966
-0.167948
-8.5586
8.72655
-3.7046
2.35723
-0.567041
4.46784
6.68978
4.65696
-3.90164
-8.18201
-8.85121
-5.0682
-17.0775
2.52147
-8.81607
5.94146
-3.58422
2.9644
5.14232
10.4315
-1.66691
-9.65063
7.62402
-4.65962
5.77184
)
;

boundaryField
{
    wall-4
    {
        type            calculated;
        value           uniform 0;
    }
    velocity-inlet-5
    {
        type            calculated;
        value           uniform -11.2529;
    }
    velocity-inlet-6
    {
        type            calculated;
        value           uniform -1.87548;
    }
    pressure-outlet-7
    {
        type            calculated;
        value           nonuniform List<scalar> 8(4.57331 4.93836 11.3769 11.8067 17.1528 15.4868 17.0311 15.1588);
    }
    wall-8
    {
        type            calculated;
        value           uniform 0;
    }
    frontAndBackPlanes
    {
        type            empty;
        value           nonuniform List<scalar> 0();
    }
}


// ************************************************************************* //
