/*--------------------------------*- C++ -*----------------------------------*\
  =========                 |
  \\      /  F ield         | OpenFOAM: The Open Source CFD Toolbox
   \\    /   O peration     | Website:  https://openfoam.org
    \\  /    A nd           | Version:  9
     \\/     M anipulation  |
\*---------------------------------------------------------------------------*/
FoamFile
{
    format      ascii;
    class       volVectorField;
    location    "9";
    object      U;
}
// * * * * * * * * * * * * * * * * * * * * * * * * * * * * * * * * * * * * * //

dimensions      [0 1 -1 0 0 0 0];

internalField   nonuniform List<vector> 
918
(
(2.47628 -0.138939 0)
(0.108704 0.722546 0)
(0.179133 1.15832 0)
(2.31834 0.153729 0)
(-0.0546847 1.25302 -1.22341e-19)
(-0.0924034 0.643931 -5.36397e-18)
(0.525289 0.847922 -3.15426e-19)
(0.294777 0.164387 -3.02827e-20)
(3.00616 -0.0195885 0)
(-0.0117626 0.503087 0)
(-0.0199451 0.640604 0)
(0.612225 0.00539718 0)
(0.0107054 0.439105 0)
(-0.00290812 0.421737 0)
(0.0156097 0.349524 -1.32751e-18)
(-0.00294816 0.745125 -9.39871e-20)
(0.334411 0.0789259 2.17532e-18)
(0.0789386 0.665342 -2.35651e-19)
(1.52901 0.12857 0)
(-0.0285648 0.748233 0)
(0.208494 0.168043 -1.28644e-18)
(3.08302 -0.397413 0)
(2.92442 -0.506027 0)
(1.8611 -0.18113 0)
(0.526479 0.0395839 0)
(-0.0251353 0.521437 0)
(-0.00135396 0.494037 1.88315e-18)
(-0.0192575 1.52203 0)
(0.0954582 3.04847 0)
(0.179609 1.88103 0)
(-0.0254581 3.07638 0)
(0.0302407 1.60812 9.40643e-20)
(0.0240222 0.674467 0)
(-0.147424 0.775093 -2.05101e-22)
(-0.193914 1.0291 4.46296e-18)
(-0.0415772 1.04471 0)
(0.743186 -0.00615291 0)
(0.169522 0.258931 6.73109e-19)
(0.981659 1.5017 6.91083e-19)
(0.641407 0.777847 -5.48154e-19)
(0.793111 1.57521 6.64923e-20)
(0.415677 0.857796 -3.42957e-19)
(0.593894 0.329434 2.97826e-20)
(0.319039 0.164416 0)
(0.940948 0.554517 0)
(0.573005 0.327441 1.33858e-19)
(0.278014 0.174997 -1.37359e-19)
(0.87113 -0.0555579 0)
(3.02784 -0.00176283 0)
(3.00685 0.0178361 0)
(3.20084 -0.417796 0)
(3.04288 -0.0742748 0)
(3.03116 -0.0388821 0)
(0.0157795 0.900469 -1.14808e-18)
(-0.0526627 1.02221 0)
(0.00314958 0.481053 0)
(-0.0349124 1.04077 0)
(-0.0149672 0.516702 0)
(-0.00291705 0.845877 0)
(-0.0523258 1.202 0)
(-0.0122453 0.590013 0)
(-0.0314354 1.26784 0)
(-0.00926511 0.680632 0)
(0.785731 0.0112294 0)
(1.18169 -0.00309732 0)
(0.623332 0.0117014 0)
(1.14295 0.0162462 0)
(0.579255 0.00761076 0)
(0.225406 0.921982 1.9791e-18)
(0.0985378 1.2081 0)
(0.176302 1.06604 0)
(0.0331901 0.755774 2.22179e-23)
(0.0372233 0.498055 -2.95991e-18)
(0.0194616 0.747943 0)
(0.00595415 0.422033 0)
(-0.000721304 0.734579 4.5736e-24)
(0.000695891 0.414835 0)
(-0.0170189 0.743296 0)
(-0.0130216 0.428126 0)
(0.0546265 0.67086 0)
(0.052547 0.475911 0)
(0.0114701 0.633697 1.25514e-18)
(0.00255877 0.348538 0)
(-0.0345078 4.57657 0)
(0.0105853 1.4097 9.331e-20)
(-0.00878306 0.758725 -1.19374e-19)
(0.678039 0.160353 -7.58858e-19)
(0.341893 0.0683251 -7.35877e-19)
(0.689834 0.18112 -2.27912e-18)
(0.341256 0.102371 -1.46797e-18)
(0.0793246 0.629993 0)
(0.182178 1.34613 1.97856e-19)
(0.181928 0.749276 -3.15802e-19)
(2.06068 0.260783 0)
(1.10733 0.118367 0)
(3.03313 0.103861 0)
(3.10395 0.44603 0)
(2.83929 0.377374 -1.01505e-17)
(2.57813 0.361289 7.78855e-18)
(-0.0660169 1.37927 0)
(-0.00798008 0.691928 0)
(-0.0108408 2.06684 0)
(-0.0555455 1.47264 0)
(-0.0502453 0.741166 0)
(0.468185 0.318742 4.07156e-19)
(0.240415 0.175606 0)
(2.29592 -0.266499 0)
(1.32357 -0.119336 0)
(1.09835 0.0106328 0)
(1.03931 0.0173549 0)
(0.553343 0.00931842 0)
(1.00738 0.0552651 0)
(0.848018 0.0711614 0)
(0.355413 0.0288623 3.38749e-18)
(-0.00551589 0.451243 1.79884e-18)
(-0.0273142 0.785022 0)
(-0.0483178 0.848792 0)
(-0.0154652 0.461067 0)
(0.000128696 0.839722 1.83714e-18)
(6.83961e-05 0.487524 0)
(-0.00547954 0.845554 -5.65349e-18)
(-0.00488647 0.496761 1.90732e-18)
(0.0748867 3.73377 0)
(0.0705113 4.1335 0)
(-0.0125306 1.37057 -2.12668e-21)
(-0.0105671 1.33187 0)
(-0.00776221 0.723256 0)
(1.40714 0.0344502 0)
(0.75853 0.0151256 0)
(0.711054 0.0140978 0)
(1.41396 -0.0331006 0)
(0.772449 -0.0089287 0)
(0.339257 0.505005 -8.45142e-19)
(0.164713 0.244482 0)
(0.342306 0.535966 9.47358e-20)
(0.171849 0.282508 0)
(1.22047 1.36893 1.76577e-19)
(0.763603 0.730059 -4.13726e-19)
(0.413759 1.44633 0)
(0.607935 1.54637 0)
(0.304675 0.827315 0)
(0.151683 0.369691 -4.47428e-19)
(0.650836 0.300644 0)
(0.335411 0.144126 4.0364e-19)
(1.39762 1.2838 0)
(1.5514 1.14348 0)
(0.855504 0.651021 4.82759e-19)
(1.69503 0.932047 0)
(1.04488 0.429621 2.255e-20)
(1.47137 0.00782568 0)
(1.49996 -0.0294338 0)
(0.801174 -0.00454783 0)
(1.95003 -0.199907 0)
(1.65015 -0.148328 0)
(1.05186 -0.0890473 0)
(3.06127 0.164801 0)
(3.03105 0.0687236 0)
(3.01022 0.0531187 0)
(0.0293777 1.60427 6.08996e-19)
(0.0149801 0.83329 0)
(0.0141319 1.68376 1.08249e-18)
(0.000954203 0.929884 -9.74534e-19)
(0.062704 1.19397 1.98538e-19)
(0.0464077 1.0361 0)
(0.0382514 0.555119 0)
(-0.0332402 1.07805 0)
(-0.00948279 0.558005 0)
(0.0147067 1.57324 -4.4769e-21)
(-0.0185688 0.847578 0)
(-0.0519984 1.53583 -2.28547e-19)
(-0.0154986 0.796599 4.42311e-19)
(-0.00553021 1.1116 0)
(0.00942087 1.13179 0)
(-0.00156063 0.577864 0)
(0.00445202 1.28824 0)
(-0.000898526 0.679631 0)
(1.45888 -0.00448848 0)
(0.783696 0.00755502 0)
(1.43313 0.0324458 0)
(0.758384 -0.000807719 0)
(0.67821 0.00486833 0)
(1.26853 0.0158204 0)
(1.21129 0.0464889 0)
(0.663542 0.0149194 0)
(-0.00580172 1.42077 -1.72124e-20)
(0.000183928 1.37708 0)
(0.00481989 0.732923 0)
(0.00172861 0.417221 0)
(0.301053 0.866108 0)
(0.267529 0.420082 -2.89756e-19)
(0.000418705 0.639336 0)
(-0.00805716 0.368217 0)
(0.0354177 4.38698 0)
(-0.0165777 4.58106 0)
(0.0117905 4.54143 0)
(-0.0550118 3.26359 2.12429e-20)
(-0.0311168 4.46365 0)
(-0.0272335 4.04696 0)
(0.00461663 0.790787 1.11174e-20)
(0.0136624 1.50461 1.6678e-19)
(-0.032801 1.4486 1.22649e-19)
(-0.00694659 0.796561 0)
(0.702313 0.110545 1.16427e-18)
(0.343278 0.0450782 -1.14102e-18)
(0.151247 1.15579 0)
(0.10245 0.585909 -2.71099e-19)
(0.11974 1.2544 -8.79532e-19)
(0.0519631 0.698928 8.75033e-19)
(0.81 0.0238783 0)
(1.55791 0.0473772 0)
(1.71037 0.127496 0)
(0.920328 0.0444135 0)
(0.00643364 1.30446 0)
(0.0265452 1.31324 0)
(0.00403256 0.695578 0)
(0.520247 0.340177 1.22067e-18)
(0.469625 0.334773 -1.40658e-18)
(0.252887 0.177271 0)
(1.90968 0.149199 1.16267e-19)
(1.12025 0.0908726 0)
(1.70435 0.116186 0)
(0.874692 0.022016 0)
(0.710677 0.0863661 0)
(0.726611 0.0468577 -5.44795e-18)
(0.360448 0.0325762 2.01493e-18)
(0.00893088 0.806931 1.71661e-18)
(0.00215639 0.462377 4.0802e-20)
(-0.0108779 1.40842 -3.61862e-20)
(0.00613609 1.38675 1.38024e-18)
(-0.0149833 0.848955 6.36219e-20)
(-0.0119261 0.524486 -2.55575e-22)
(-0.107514 1.00068 -1.17664e-18)
(-0.0529602 1.3532 8.42411e-19)
(-0.0175323 1.35275 -1.37205e-18)
(1.41704 -0.0174506 0)
(1.43799 0.0196485 0)
(0.767042 -0.000554105 0)
(1.45394 0.0250917 0)
(1.36565 0.0459996 0)
(0.762652 0.0201153 0)
(1.30542 -0.00269315 0)
(1.32205 -0.00637359 0)
(0.697195 -0.00138171 0)
(0.320298 0.498201 -9.24326e-19)
(0.169649 0.255348 0)
(0.164063 0.322799 1.38484e-19)
(0.323159 0.614442 1.13465e-18)
(0.322884 0.577124 -6.71844e-19)
(0.164289 0.296479 1.31306e-18)
(0.28892 0.74869 2.20357e-18)
(0.15356 0.396769 3.97402e-19)
(0.681568 0.22918 1.55513e-18)
(0.669637 0.272559 4.03718e-19)
(0.339682 0.123741 7.58085e-19)
(1.87963 0.698994 -6.16797e-19)
(1.14286 0.327959 -7.18084e-19)
(-0.0364411 1.68268 4.66288e-19)
(-0.0129067 0.912843 0)
(1.58818 0.0227428 0)
(1.50957 0.0637437 0)
(0.845274 0.0260179 0)
(-0.00356113 1.38473 0)
(0.00506787 0.72958 2.52457e-18)
(0.00464899 0.731253 0)
(0.00206919 0.415099 -2.47098e-18)
(-0.0102864 1.38627 6.02878e-19)
(-0.0094789 1.4225 0)
(0.354033 0.51383 2.60483e-19)
(0.378841 0.575548 -8.71284e-19)
(0.180806 0.271526 7.88471e-19)
(-0.0257442 0.766834 -1.68632e-18)
(-0.0255246 0.689896 0)
(-0.0152773 0.412538 0)
(0.0282399 1.49708 -1.28295e-20)
(0.0303612 1.52321 -3.68759e-19)
(0.0162668 0.796001 -1.56099e-20)
(0.216687 1.0679 8.96346e-19)
(0.121471 0.522169 -5.96453e-19)
(0.00887421 1.4955 7.33741e-19)
(0.0537838 1.36903 -8.19388e-19)
(0.0249482 0.770033 3.58896e-20)
(0.00737104 1.36612 -3.85705e-18)
(-0.000341992 1.39327 4.46668e-18)
(0.00375386 0.829757 1.75461e-18)
(-0.0139044 0.805006 -1.7482e-18)
(-0.0043276 0.481366 -1.76032e-18)
(-0.0106818 1.41684 -4.55539e-18)
(-0.0152639 1.40031 4.64582e-18)
(0.299476 0.705252 0)
(0.313345 0.663505 -2.31343e-18)
(0.158897 0.346894 1.0015e-18)
(0.291078 0.826522 1.196e-18)
(0.143399 0.443792 -1.84543e-18)
(2.02339 0.31345 4.21009e-19)
(2.01168 0.533905 0)
(1.19673 0.215633 -4.08253e-19)
(-0.0720659 1.59999 -4.86678e-21)
(-0.0176098 1.66157 0)
(-0.0172477 0.90433 0)
(0.230459 0.97098 -3.25171e-19)
(0.254703 0.896399 -7.12497e-19)
(0.131602 0.478876 1.33578e-18)
(3.16431 -0.443014 0)
(3.34723 -0.414839 1.81721e-18)
(0.0803227 3.6374 0)
(0.0548136 3.01621 0)
(3.15928 0.24976 1.41689e-20)
(3.12361 0.506141 3.7207e-18)
(0.0373573 3.32231 -2.85144e-20)
(0.0165323 2.58307 0)
(-0.0392656 1.1973 1.57873e-18)
(0.207463 1.35399 0)
(3.39707 1.587 -3.32515e-19)
(3.17491 0.272139 -2.96206e-20)
(3.14729 -0.11932 0)
(3.10046 -0.000594989 3.54854e-22)
(0.0357169 2.66382 0)
(0.139285 3.28866 0)
(-0.0698775 2.6845 0)
(-0.0365553 3.39783 3.20618e-19)
(-0.032939 3.45195 2.01641e-19)
(2.65329 0.0429675 -1.33547e-20)
(3.03606 0.0276268 0)
(3.13708 0.0816065 0)
(-0.0270195 4.54091 0)
(-0.0379468 2.96625 0)
(-0.0717149 3.12564 0)
(0.641027 3.12477 2.76743e-19)
(3.33871 -0.422721 0)
(3.01102 -0.346005 0)
(3.1699 -0.0532752 2.28275e-18)
(3.29268 -0.328884 -2.74867e-18)
(3.10381 -0.125907 0)
(-0.0360707 4.49169 0)
(0.0288138 4.05183 0)
(0.0279263 4.31538 0)
(-0.026031 3.29096 0)
(-0.00994264 3.05028 0)
(-0.0360944 2.654 0)
(2.97038 -0.00449363 0)
(2.85491 0.0472026 -1.80152e-20)
(2.19321 2.99767 -3.40401e-19)
(3.15693 0.044227 -2.28379e-18)
(3.19039 0.277996 2.77583e-18)
(3.0828 0.1172 0)
(3.39573 0.328373 2.09256e-18)
(3.35714 0.484141 -2.713e-18)
(3.07144 0.418254 0)
(-0.040942 3.22308 0)
(0.0190457 3.16279 8.70345e-20)
(-0.0221212 2.48858 -6.17313e-20)
(3.65721 0.538834 2.2909e-18)
(3.43692 0.199413 0)
(-0.146097 1.27194 -2.1989e-18)
(-0.0550971 0.880858 -1.37178e-19)
(-0.0727174 1.34276 3.0318e-18)
(-0.0279555 1.27491 -9.13128e-19)
(0.00611977 1.09529 0)
(-0.0266528 1.23905 7.05114e-19)
(-0.112518 1.38783 2.1791e-18)
(-0.0569214 1.34081 -1.33349e-18)
(-0.0773482 1.32041 0)
(1.37768 0.633559 0)
(1.26432 0.729224 0)
(3.48109 1.98415 9.77781e-19)
(2.97806 1.89438 -1.22307e-18)
(3.76671 1.6651 0)
(3.31651 1.13143 0)
(3.35002 0.279811 -3.92698e-18)
(2.90001 0.172614 4.85246e-18)
(3.35032 -0.156323 0)
(2.8529 -0.0767216 0)
(3.43643 0.0422711 0)
(3.59387 0.144257 0)
(3.28683 0.119479 0)
(3.55052 0.297911 0)
(3.40852 0.292663 0)
(3.32761 0.217644 0)
(0.0770318 2.88331 0)
(0.0216796 2.18187 0)
(0.110644 3.1232 0)
(0.0925268 2.27926 0)
(0.191972 3.58038 0)
(0.130742 2.68539 -5.61526e-19)
(0.036019 3.58772 0)
(0.00166537 2.99985 4.07606e-19)
(-0.0354393 3.15383 -5.22415e-19)
(-0.0713431 2.9735 0)
(-0.036109 2.3816 0)
(-0.0911554 3.06021 0)
(-0.0590339 2.18904 0)
(-0.143841 4.65877 -2.50945e-19)
(-0.0905513 3.81991 2.82765e-19)
(-0.0860522 3.69992 3.15663e-19)
(-0.0558359 2.92185 0)
(-0.11161 3.67938 -4.64965e-19)
(-0.040995 3.08847 -2.98145e-19)
(-0.115444 4.68445 1.96227e-19)
(-0.116252 4.33927 -3.57388e-19)
(-0.0929368 4.2252 -3.87102e-19)
(3.04904 0.0802418 3.36799e-18)
(2.30385 0.0299189 -4.24177e-18)
(2.91416 0.123014 -3.33784e-18)
(2.23921 0.0680801 4.17012e-18)
(3.35941 0.0230476 0)
(2.63474 -0.00382888 0)
(3.43664 0.0844414 0)
(3.30751 0.0150278 0)
(2.69227 0.00730285 0)
(3.65124 0.228478 0)
(3.41651 0.0894925 0)
(2.83834 0.0538541 0)
(0.000895243 4.18164 -1.21023e-20)
(-0.0316705 4.54575 0)
(-0.0346206 4.4079 0)
(-0.064485 3.37055 8.93044e-20)
(-0.0344285 2.66706 -3.51915e-21)
(-0.0686627 4.59586 1.17374e-19)
(-0.0792572 4.45037 -1.18606e-19)
(-0.0738039 4.05133 0)
(-0.0480589 3.99027 0)
(-0.0200387 4.09211 0)
(-0.0710211 3.44542 0)
(-0.0421767 2.50252 0)
(0.922649 3.6703 -6.31868e-19)
(0.910548 2.86398 -1.85711e-19)
(0.435065 2.09818 -2.29812e-19)
(0.252333 2.33515 7.01222e-19)
(0.981147 4.19093 2.65888e-19)
(3.43242 -0.16821 0)
(3.32177 -0.257007 0)
(2.88248 -0.189774 0)
(3.4703 -0.065062 0)
(3.34581 -0.148246 0)
(3.44889 -0.261433 0)
(3.51942 -0.284029 0)
(3.5793 -0.28174 0)
(3.22802 0.0913848 3.62848e-18)
(2.55865 0.0636648 -4.58812e-18)
(3.10171 0.104184 -3.57189e-18)
(2.51617 0.0551507 4.44442e-18)
(2.18103 3.36565 0)
(1.70364 2.91704 -4.65843e-19)
(2.50321 3.29086 -4.20553e-19)
(2.31236 2.48448 5.58901e-19)
(0.814728 1.27659 2.75378e-18)
(1.51118 0.216269 1.35358e-18)
(3.68579 0.293302 0)
(3.8473 0.555329 -1.86659e-18)
(3.26161 0.237554 -8.30828e-20)
(3.74053 0.417547 0)
(0.281541 1.33418 1.8248e-18)
(0.00719005 1.21218 -2.92206e-18)
(0.0855233 0.777392 1.64228e-18)
(0.310072 0.484553 -7.60108e-19)
(0.208413 1.41821 8.84449e-19)
(0.064813 1.25308 0)
(0.0673756 1.10725 -1.14976e-18)
(0.224872 1.46863 -4.15762e-18)
(0.368547 1.59532 0)
(0.0083539 1.28998 1.21217e-19)
(-0.0100132 1.45727 -1.35818e-18)
(-0.0413963 1.303 1.9745e-18)
(-0.0579922 1.4176 0)
(-0.0208734 1.38195 0)
(0.716404 1.10489 0)
(2.50206 2.49976 -1.07506e-18)
(2.58023 2.13001 4.08335e-19)
(2.72032 2.8251 0)
(3.13102 3.00489 -4.01376e-19)
(3.09186 2.3602 2.78832e-20)
(0.868604 0.639899 -1.84935e-18)
(1.65471 0.728001 -1.69224e-20)
(1.31303 0.481251 8.81631e-19)
(1.36997 0.900173 6.03249e-20)
(1.01474 0.682606 -2.40286e-18)
(1.56211 0.759807 0)
(2.10177 1.15056 1.47277e-18)
(2.14028 1.06239 0)
(1.51042 0.841537 0)
(1.14111 0.589564 0)
(3.3672 2.15718 1.01356e-18)
(3.89401 0.740296 -1.88363e-18)
(3.78637 1.1866 0)
(3.47509 0.740169 0)
(1.47381 0.382475 1.34694e-18)
(3.28356 1.843 -8.58285e-19)
(2.90395 1.67565 1.55768e-18)
(3.75135 1.35605 -1.84686e-18)
(3.10033 0.113177 2.47041e-18)
(3.16987 0.179882 -2.58564e-18)
(2.66401 0.0910772 0)
(3.30407 -0.0412485 0)
(3.19933 -0.0852925 -2.37378e-18)
(2.6294 -0.0326438 2.3529e-18)
(3.95736 0.0891883 0)
(3.76263 0.14252 0)
(3.69383 0.154314 0)
(3.58883 0.203719 0)
(3.83271 0.0573486 0)
(3.72607 0.0510042 0)
(-0.0523297 2.62249 0)
(-0.0475293 2.12562 0)
(0.323128 4.00902 -4.23665e-19)
(0.644279 3.37133 -1.66691e-19)
(0.251469 3.09045 -3.72708e-19)
(0.336773 2.60274 5.97123e-19)
(0.428506 4.01976 0)
(0.423445 4.62514 -5.19373e-19)
(0.336955 4.68191 0)
(0.867039 4.35221 -3.82486e-19)
(0.643865 3.8189 9.74766e-19)
(0.549351 4.61181 4.55485e-19)
(0.701429 4.18024 -1.95366e-19)
(0.561631 4.31119 1.57176e-19)
(0.863669 4.60445 -6.76829e-19)
(0.704149 4.61286 0)
(0.80698 4.54622 5.13986e-19)
(-0.0287635 4.49465 -1.84358e-19)
(-0.0347765 3.59321 0)
(0.0698723 4.23174 5.55237e-19)
(-0.0316656 4.32129 0)
(-0.0175568 3.42744 -4.53278e-19)
(-0.0228755 2.8827 0)
(-0.135655 4.33527 -2.99513e-19)
(-0.142866 4.62682 0)
(-0.0871262 3.876 0)
(-0.077242 3.84053 3.36781e-19)
(-0.0651557 3.79355 1.09553e-20)
(-0.049466 3.63981 6.32941e-19)
(-0.0460266 2.88815 4.12436e-21)
(-0.139582 4.62517 1.85007e-19)
(-0.133502 4.66775 1.05898e-19)
(-0.0282859 2.81439 0)
(-0.00722934 2.32019 0)
(-0.0836202 4.71474 4.99061e-19)
(-0.0950974 4.32581 4.41886e-19)
(-0.123928 4.5585 -5.75322e-19)
(-0.0274706 4.70109 0)
(-0.071149 4.39648 -3.19796e-19)
(-0.107341 4.01682 1.32454e-19)
(-0.0828005 4.11419 -4.22501e-20)
(-0.0934286 4.63916 -2.24721e-19)
(-0.0927935 4.14432 -7.0088e-20)
(-0.0941467 4.09808 3.11375e-19)
(2.88027 0.0580802 -2.36994e-18)
(2.87166 0.045201 2.27948e-18)
(2.34847 0.0325751 0)
(3.53331 0.17488 3.05681e-18)
(2.73873 0.116891 -3.31718e-18)
(2.29114 0.0577913 3.62499e-18)
(3.70598 0.311985 -4.03315e-19)
(3.20555 -0.0503573 0)
(3.16592 -0.0162738 2.24485e-18)
(2.68534 -0.0135158 -2.22712e-18)
(3.86149 0.112224 -1.25762e-19)
(3.75962 0.0937851 1.08269e-18)
(4.14556 0.158688 0)
(4.21788 0.165581 -3.76567e-19)
(4.01938 0.131744 0)
(3.70784 0.143639 0)
(4.03325 0.0897971 0)
(3.71563 0.0828173 0)
(4.18179 0.102403 7.85725e-19)
(4.13694 0.0691959 -1.75364e-18)
(4.13253 0.103545 -8.51408e-19)
(4.1801 0.105348 -9.24493e-19)
(4.19913 0.213682 1.78198e-18)
(3.83502 0.178811 0)
(4.03355 0.285439 0)
(-0.0645183 4.44068 -1.38626e-19)
(-0.0126764 4.52416 -1.19316e-20)
(-0.053072 4.55516 0)
(-0.0424427 4.04865 1.41121e-19)
(-0.0350797 4.08029 2.2802e-20)
(-0.0415088 3.93987 -2.22524e-20)
(-0.0805063 3.39486 2.63627e-19)
(-0.139336 3.86774 -1.46764e-20)
(-0.106141 4.00008 7.57269e-20)
(-0.0701366 3.27211 -1.33017e-19)
(-0.0245736 2.80724 1.59403e-19)
(-0.0728985 4.45115 5.38571e-21)
(-0.0849813 4.58686 1.76072e-19)
(1.18762 4.32181 3.59819e-19)
(1.10114 4.48105 7.37797e-19)
(1.69255 3.43025 4.50401e-19)
(1.27771 3.54624 1.78524e-19)
(1.26766 2.87934 0)
(0.552396 2.36953 2.76959e-19)
(0.468731 1.78629 3.33121e-19)
(0.343399 2.60523 1.51797e-20)
(0.485136 3.21203 -1.16829e-18)
(0.623812 3.17421 8.81782e-19)
(0.433597 2.44857 0)
(0.29558 2.00968 -5.60778e-19)
(0.244183 3.08754 1.40189e-18)
(0.264612 2.74639 -3.2109e-20)
(0.152634 2.30322 -1.7571e-18)
(0.615648 1.47181 1.47951e-18)
(0.592957 1.6748 0)
(3.58355 -0.0759479 8.66621e-20)
(3.61841 -0.254786 -7.27888e-20)
(3.72098 -0.21872 -1.27003e-18)
(3.75903 -0.127205 1.28595e-18)
(3.67605 -0.0500354 0)
(2.37822 3.81583 0)
(2.55009 3.85601 0)
(2.82527 3.55965 0)
(2.66907 3.59306 0)
(0.89553 1.46582 -4.12565e-21)
(0.643697 1.09379 0)
(1.73093 3.46169 1.51378e-20)
(1.4136 3.51433 0)
(1.35003 3.03997 -1.2955e-18)
(1.43026 2.97188 8.31589e-19)
(1.86552 0.314766 0)
(1.49955 0.268588 3.5536e-19)
(2.48142 0.352389 2.20805e-18)
(1.85537 0.280246 -7.92604e-19)
(1.47961 0.110887 -2.51223e-18)
(4.22561 0.759561 -2.58486e-18)
(3.86017 0.969508 -3.51139e-20)
(3.348 0.831005 2.07911e-18)
(3.88654 0.721666 1.82387e-18)
(3.17621 0.452834 -3.06275e-18)
(2.96994 0.444573 3.77173e-19)
(3.25446 0.673744 -8.24077e-19)
(3.0425 0.666759 0)
(3.78634 0.538785 1.54546e-18)
(4.0908 0.603877 0)
(4.08627 0.744275 0)
(4.0074 0.398134 8.28756e-19)
(4.26128 0.615049 -3.03197e-20)
(4.19471 0.68775 -4.54892e-19)
(4.12791 0.617254 0)
(3.63214 0.11633 1.72374e-18)
(4.18591 0.165693 2.15134e-18)
(4.09467 0.135884 -1.68487e-18)
(4.13863 0.219732 -1.44774e-18)
(3.76047 0.21845 -2.16361e-18)
(3.35092 0.359162 0)
(3.4336 0.28306 0)
(2.60539 0.182088 -1.27185e-18)
(2.15944 0.114588 4.79401e-19)
(4.0413 0.329359 1.94807e-18)
(4.25973 0.409567 -2.36007e-18)
(4.26612 0.463619 2.07989e-18)
(4.15067 0.464285 0)
(4.23392 0.315418 0)
(4.24587 0.303463 -9.83331e-19)
(4.20441 0.29353 -1.60282e-18)
(2.22946 3.52 6.23782e-19)
(1.9642 3.30091 -6.88191e-19)
(1.50243 2.45567 -1.04271e-18)
(1.24628 2.09287 2.69732e-19)
(0.929327 1.45069 -2.65924e-18)
(0.83475 1.27875 9.31334e-19)
(0.63197 0.951568 -2.02887e-21)
(1.17033 1.87353 -1.15035e-18)
(1.19736 1.97552 1.71712e-18)
(1.02543 1.7835 5.11415e-19)
(0.826823 1.35469 -5.18125e-19)
(0.668473 1.12922 0)
(2.48994 2.65188 -1.16101e-19)
(0.782724 1.19477 8.70523e-19)
(1.00577 0.956995 1.17298e-18)
(0.825796 0.865992 1.35943e-18)
(1.16665 0.805013 1.35998e-18)
(1.56831 1.11629 -2.29986e-18)
(1.48179 1.14653 1.8638e-18)
(1.08144 0.827269 -6.8675e-19)
(0.881822 0.615278 1.51607e-18)
(1.70598 0.515904 -7.86093e-19)
(1.6498 0.541517 0)
(1.31898 0.433081 5.01354e-21)
(2.59454 1.55985 7.83671e-19)
(2.18867 1.32785 -2.83909e-18)
(1.79269 1.25602 1.09439e-20)
(1.76683 1.15481 0)
(2.87828 2.60216 8.79117e-19)
(3.39158 2.70467 1.04476e-18)
(3.20948 2.89684 -1.20411e-18)
(3.48595 2.70922 -4.32492e-19)
(3.40756 2.54576 -1.37327e-19)
(3.43618 2.73656 1.41244e-19)
(3.63695 2.22444 -1.68867e-18)
(3.64153 2.44708 4.05748e-19)
(3.71011 2.37963 0)
(3.71096 2.14351 -5.85979e-19)
(4.02682 1.04504 5.85387e-19)
(4.22384 0.962659 1.01244e-18)
(4.25378 0.932261 1.01999e-18)
(4.01946 1.29374 -1.15795e-18)
(4.04396 1.31255 0)
(4.09174 1.19859 0)
(3.37882 1.22827 -1.43218e-20)
(2.50692 0.685294 0)
(2.80199 0.75187 9.38285e-19)
(3.2938 0.876065 -2.56127e-20)
(3.7661 1.5092 5.13953e-18)
(3.56895 1.73997 1.31967e-18)
(3.49609 1.52973 -1.34946e-18)
(3.09897 1.37975 1.44672e-18)
(2.84152 1.39258 8.30521e-19)
(2.41341 1.19558 -8.04391e-19)
(3.67058 -0.0873137 1.99079e-18)
(3.89434 -0.0308742 0)
(3.85856 -0.0684177 1.34595e-18)
(3.74221 -0.0611475 -2.99683e-18)
(3.98038 0.0345579 1.46607e-18)
(3.90504 0.110641 -3.09155e-18)
(3.74088 0.125063 0)
(3.55806 0.171751 -6.30247e-19)
(3.81236 0.121289 1.60961e-18)
(3.69258 0.189836 -8.24754e-19)
(3.60121 0.169593 5.92301e-19)
(-0.0927567 2.73311 0)
(-0.0686759 3.50741 0)
(-0.048485 2.58963 0)
(-0.0313123 2.09793 0)
(0.0154999 3.9745 6.97387e-19)
(0.109149 3.76915 -1.8229e-19)
(0.273382 4.60698 -2.35513e-19)
(0.213918 4.45131 2.48066e-19)
(-0.0628109 4.30346 -5.14237e-19)
(-0.0280657 4.33128 3.86033e-19)
(0.0594621 3.91526 2.04691e-20)
(-0.0168308 3.62576 -4.79771e-19)
(-0.0351513 3.40313 -6.44067e-20)
(-0.0674183 3.74189 -5.88056e-20)
(0.119118 4.41681 -5.9308e-19)
(0.146791 4.2397 0)
(0.237004 4.58063 2.98459e-19)
(0.229909 4.65508 2.56047e-19)
(0.553477 4.4049 -2.28324e-19)
(0.383441 3.77757 0)
(0.432961 3.63121 -1.12004e-18)
(0.531733 3.99298 7.93749e-19)
(0.438913 4.51644 -6.20257e-19)
(0.331064 4.3869 3.33673e-19)
(0.267649 4.12581 0)
(-0.0729488 4.68104 -5.66808e-19)
(-0.104507 4.41942 -6.51957e-19)
(-0.112801 4.63699 0)
(-0.0577325 4.27414 -6.0884e-21)
(-0.054683 4.55744 2.80369e-19)
(-0.143233 3.96862 4.65904e-20)
(-0.0704571 3.62292 -6.84862e-19)
(-0.119077 4.02077 1.83161e-19)
(-0.174786 4.52315 2.42747e-19)
(-0.114879 4.35695 0)
(-0.0866398 4.00463 0)
(-0.0864041 3.09565 2.11933e-19)
(-0.0598589 3.79958 -6.60144e-20)
(-0.0861127 3.77658 0)
(-0.0878857 2.88281 1.67615e-19)
(-0.0463131 2.38082 -3.24209e-19)
(3.75639 0.0280362 0)
(3.72681 0.0034105 -2.03996e-19)
(4.17625 0.0597932 -1.44475e-18)
(4.08308 0.0386754 0)
(3.86823 0.0112996 0)
(4.1485 0.0307599 -1.2154e-20)
(4.09927 0.0296502 2.38619e-18)
(4.00217 0.0734492 2.85397e-18)
(3.7607 0.112752 0)
(3.56438 0.104556 0)
(4.01662 0.0840194 1.42229e-18)
(3.71054 0.107988 0)
(3.48155 0.12257 0)
(-0.0894226 4.58002 0)
(-0.101307 4.58761 1.05661e-20)
(-0.0794261 4.61764 6.62617e-20)
(-0.0673283 3.96371 0)
(-0.111018 4.50788 1.14399e-19)
(-0.0705313 4.30173 -6.60082e-20)
(-0.0628074 4.0747 0)
(1.36628 4.1839 0)
(1.15125 4.52722 -1.31532e-18)
(1.16963 4.44932 0)
(1.50996 4.43463 1.50814e-18)
(1.53816 4.07798 0)
(1.44396 4.32156 -6.18505e-19)
(1.04316 2.32974 -3.43192e-20)
(0.738118 1.71506 -1.76393e-18)
(0.616699 1.28205 2.15242e-18)
(0.726997 1.90166 4.00723e-19)
(0.99334 2.50368 0)
(1.06123 2.46038 0)
(0.740809 1.75562 0)
(0.550298 1.38477 -1.40919e-18)
(1.19088 3.80865 -9.89385e-19)
(1.13374 3.06054 -2.37116e-19)
(1.32417 3.46283 1.93928e-19)
(0.604614 2.09565 0)
(0.632567 2.00419 0)
(0.472092 1.62234 -3.96099e-19)
(0.964238 2.78883 0)
(2.64285 3.5387 0)
(2.40289 3.04852 -1.46486e-18)
(2.5538 3.04701 -8.64403e-20)
(2.41782 3.42261 0)
(2.31168 3.19809 2.23674e-18)
(3.22831 3.04261 -3.94185e-19)
(3.06028 3.26325 0)
(3.04802 3.09182 6.39735e-19)
(2.81682 3.37628 0)
(2.84205 3.18109 0)
(1.2602 2.10219 -9.40577e-19)
(1.46826 2.50786 -7.06138e-19)
(1.78831 3.06764 1.21641e-18)
(1.72925 3.04941 -3.65794e-19)
(1.10733 1.90955 0)
(1.24529 2.30098 4.75473e-19)
(0.753104 1.35342 -7.2365e-19)
(0.609357 1.09696 -4.29579e-22)
(1.92624 3.73224 0)
(2.17736 3.75424 -5.45503e-19)
(2.28684 3.95261 0)
(2.36702 0.530015 0)
(1.69671 0.350955 0)
(1.28149 0.288311 0)
(2.29991 0.562631 -1.47717e-18)
(1.72334 0.417566 8.2536e-19)
(2.20043 0.124145 -9.90511e-19)
(2.68523 0.287505 0)
(2.52763 0.293516 4.16101e-19)
(1.82797 0.132737 1.64361e-18)
(1.57905 0.0795543 -1.0434e-18)
(0.78571 1.62779 8.67952e-19)
(1.01246 1.90419 0)
(0.56903 1.50289 1.5815e-18)
(0.562312 1.67189 -1.44334e-18)
(0.811632 1.88355 -1.00357e-18)
(2.13549 2.53415 1.34971e-18)
(2.15364 2.78249 0)
(1.68189 1.76816 -2.79814e-19)
(2.09991 2.06966 1.75949e-18)
(1.46052 1.378 -4.29109e-19)
(1.69323 1.39517 4.56318e-19)
(2.21251 1.57782 1.03433e-18)
(2.53745 1.72224 0)
(2.36392 1.91959 0)
(2.11228 1.68059 0)
(3.89244 2.03267 3.91425e-19)
(3.7366 1.85659 -1.27181e-18)
(3.77964 1.99031 1.05508e-18)
(3.86849 1.73495 -1.01539e-18)
(4.09436 1.63412 0)
(4.04689 1.79609 -3.01124e-19)
(2.92293 1.17973 -1.91384e-18)
(3.04151 1.16912 -2.4302e-18)
(2.43537 1.07532 1.46946e-18)
(2.24431 0.967496 -1.43525e-18)
(2.55915 0.865377 -1.18835e-18)
(2.2789 0.805146 1.46135e-18)
(4.00799 0.0304189 -1.53342e-18)
(4.0522 0.0369722 3.13926e-18)
(3.76615 -0.0683716 1.90678e-18)
(3.78915 -0.0763815 -2.29382e-18)
(3.95684 0.00616723 0)
(4.05437 0.0182363 -3.74112e-18)
(0.0548652 4.69643 1.08534e-19)
(0.0246515 4.6762 0)
(0.148328 4.67266 9.701e-19)
(0.169179 4.6932 -8.82717e-19)
(0.185572 4.67227 4.38864e-19)
(0.0787234 4.62154 0)
(-0.12053 4.68019 0)
(-0.123142 4.40367 -6.39906e-20)
(-0.119285 4.36468 5.73933e-20)
(-0.123878 4.4683 7.81475e-21)
(-0.116355 4.6146 -1.04438e-19)
(-0.0997149 4.6046 5.63299e-20)
(1.83871 4.00312 -1.65497e-18)
(1.77382 4.01364 1.75328e-18)
(1.62136 4.35791 -8.66464e-19)
(1.64831 4.26132 7.6733e-20)
(2.18958 4.01915 0)
(1.79476 4.16122 -6.543e-19)
(1.92288 3.90725 6.34469e-19)
(1.7554 4.32055 8.46355e-19)
(2.00707 4.16955 0)
(2.16509 4.05087 0)
(1.12206 3.6679 1.50414e-18)
(0.827545 2.8717 2.03819e-18)
(0.952974 3.05133 -1.39977e-18)
(0.746547 3.02864 -2.3365e-19)
(0.886036 3.76433 4.69352e-19)
(0.712554 3.40765 -1.14118e-18)
(0.777435 1.53083 -1.22829e-18)
(0.776414 1.38025 0)
(0.627825 1.16678 -1.35003e-18)
(1.14823 2.15152 0)
(1.12633 2.23729 0)
(1.43407 2.2776 -1.10377e-18)
(1.12359 2.10211 -1.04815e-18)
(1.07711 2.11834 1.11264e-18)
(1.12186 1.59461 0)
(1.50967 1.85139 -6.08328e-19)
(1.70995 2.21157 -8.6138e-19)
(1.49042 2.16837 0)
(0.934921 1.88594 7.23217e-19)
(0.849569 1.73756 0)
(2.93673 2.30669 -1.85729e-18)
(3.30104 2.45242 2.62299e-18)
(3.27991 2.18418 -2.60622e-18)
(2.67678 2.06206 -2.32795e-19)
(2.78676 1.97275 -9.80694e-19)
(1.32657 2.28444 8.05567e-19)
(1.37956 2.34407 -1.3742e-18)
(1.52517 2.42337 1.81143e-18)
(1.85245 2.64521 -1.17702e-18)
(1.93374 3.0162 -1.57939e-18)
(1.62377 2.58648 -1.19358e-19)
(1.68947 2.72727 1.3848e-18)
(1.86916 2.78353 9.75626e-20)
(2.05845 3.07058 6.55623e-19)
)
;

boundaryField
{
    wall-4
    {
        type            noSlip;
    }
    velocity-inlet-5
    {
        type            fixedValue;
        value           uniform (3 0 0);
    }
    velocity-inlet-6
    {
        type            fixedValue;
        value           uniform (0 1 0);
    }
    pressure-outlet-7
    {
        type            zeroGradient;
    }
    wall-8
    {
        type            noSlip;
    }
    frontAndBackPlanes
    {
        type            empty;
    }
}


// ************************************************************************* //
