/*--------------------------------*- C++ -*----------------------------------*\
  =========                 |
  \\      /  F ield         | OpenFOAM: The Open Source CFD Toolbox
   \\    /   O peration     | Website:  https://openfoam.org
    \\  /    A nd           | Version:  9
     \\/     M anipulation  |
\*---------------------------------------------------------------------------*/
FoamFile
{
    format      ascii;
    class       volScalarField;
    location    "2.89";
    object      nut;
}
// * * * * * * * * * * * * * * * * * * * * * * * * * * * * * * * * * * * * * //

dimensions      [0 2 -1 0 0 0 0];

internalField   nonuniform List<scalar> 
2268
(
3.20182e-05
3.77199e-05
4.55742e-05
5.06564e-05
5.43003e-05
5.70298e-05
5.91126e-05
6.07113e-05
6.19342e-05
6.28594e-05
6.35466e-05
6.40467e-05
6.44315e-05
6.46618e-05
6.47091e-05
6.44922e-05
6.37586e-05
6.20557e-05
5.97923e-05
5.70355e-05
5.28407e-05
4.47049e-05
2.71721e-05
7.44144e-05
0.000305032
0.000415065
0.000479937
0.000523017
0.000553186
0.000574776
0.000590279
0.000601294
0.000608968
0.000614186
0.000617478
0.000618693
0.000618766
0.000617574
0.000613644
0.000601654
0.000570481
0.000540055
0.000512842
0.000469012
0.000359808
8.96444e-05
8.88684e-05
0.00050277
0.00075407
0.000909173
0.00101279
0.00108488
0.00113576
0.00117156
0.00119625
0.00121272
0.00122317
0.00122909
0.0012309
0.00122942
0.00122401
0.00121167
0.00118465
0.00113124
0.00106923
0.000995324
0.000874083
0.000622502
0.000106309
9.93758e-05
0.00063257
0.00100425
0.00124688
0.00141335
0.00153077
0.00161429
0.00167328
0.00171407
0.00174126
0.00175842
0.00176806
0.00177116
0.00176831
0.00175834
0.00173729
0.00169698
0.00162728
0.00153626
0.00141273
0.00120799
0.000817745
0.00011926
0.000107589
0.0007255
0.00119329
0.00151326
0.00173896
0.00190105
0.00201782
0.00210114
0.00215931
0.00219852
0.00222356
0.00223792
0.00224303
0.0022394
0.00222546
0.00219678
0.00214541
0.00206195
0.00194515
0.00177522
0.00149194
0.000974537
0.000130612
0.000114397
0.000796483
0.0013413
0.00172785
0.00200742
0.00221175
0.00236088
0.00246849
0.00254445
0.0025963
0.00262992
0.00264963
0.00265739
0.00265366
0.00263665
0.00260182
0.00254148
0.00244613
0.00230736
0.00209748
0.00174569
0.00111312
0.000142129
0.000120321
0.000853282
0.00146113
0.00190489
0.00223275
0.00247615
0.00265597
0.00278708
0.00288061
0.0029452
0.00298767
0.0030131
0.00302401
0.00302084
0.00300178
0.0029623
0.00289499
0.00278989
0.00263368
0.00239283
0.00198741
0.00125295
0.000157191
0.000125738
0.000900894
0.00156143
0.00205458
0.00242555
0.00270469
0.00291307
0.00306641
0.00317683
0.00325391
0.00330519
0.00333646
0.00335093
0.00334896
0.00332882
0.00328617
0.00321383
0.0031015
0.00293314
0.00267254
0.00223608
0.00142886
0.000186334
2.60864e-05
4.32538e-05
5.03119e-05
5.34249e-05
5.45876e-05
5.43635e-05
5.27079e-05
4.99972e-05
4.8295e-05
4.89785e-05
4.92661e-05
4.83783e-05
4.83129e-05
4.93819e-05
4.99281e-05
4.76354e-05
4.19071e-05
3.38441e-05
3.10284e-05
9.86646e-05
0.000341101
0.000452649
0.000497771
0.000509735
0.000501039
0.000473823
0.000443142
0.000439103
0.000464042
0.000477974
0.000456219
0.000455379
0.000463477
0.000456319
0.00042614
0.00036239
0.00025548
7.33187e-05
0.000117779
0.000576838
0.000839423
0.000951919
0.00098706
0.000978527
0.000936242
0.000892379
0.000890242
0.000926087
0.000945849
0.000922248
0.000912732
0.000907679
0.000875941
0.000799644
0.000661445
0.00044669
8.5446e-05
0.000133535
0.000759033
0.00115369
0.00133546
0.00140066
0.00140122
0.00135727
0.00131174
0.00130869
0.00134158
0.00135944
0.00133636
0.00131212
0.00128135
0.00121446
0.00108804
0.00088252
0.0005747
9.50525e-05
0.000148559
0.000918949
0.00142388
0.00166734
0.00176361
0.0017779
0.00173993
0.00169766
0.0016911
0.00171416
0.00172441
0.00169723
0.00165509
0.00159375
0.00148796
0.00131064
0.00104316
0.000657837
0.00010281
0.000165399
0.00106696
0.00166916
0.00196446
0.00208873
0.00211822
0.00208969
0.00205227
0.00204068
0.0020508
0.00204937
0.00201295
0.0019512
0.00185911
0.0017153
0.00148985
0.00116063
0.000711503
0.000106819
0.000187137
0.00121537
0.00190479
0.00223939
0.00238578
0.00242924
0.00241085
0.00237827
0.00236078
0.00235675
0.00234095
0.00229132
0.00220903
0.00208859
0.00191045
0.00164276
0.0012556
0.000736329
0.000109597
0.000220891
0.0014058
0.00214874
0.00250155
0.00266143
0.00271575
0.00270666
0.00267808
0.00265425
0.00263579
0.00260393
0.00253845
0.00243579
0.00228999
0.00208256
0.00178038
0.00134516
0.000753366
0.000114236
0.000132114
0.000965033
0.00169349
0.00225242
0.00268296
0.00301279
0.00326273
0.00344945
0.00358632
0.00368389
0.00375038
0.0037921
0.00381284
0.00381364
0.00379321
0.00374761
0.00367011
0.00355042
0.00337143
0.00309903
0.00266673
0.00196462
0.000945383
0.000140482
0.00103862
0.00183723
0.00246779
0.00296521
0.00335084
0.00364543
0.00386794
0.00403392
0.00415488
0.00423896
0.0042927
0.00432099
0.00432616
0.00430785
0.00426297
0.00418583
0.00406811
0.00389708
0.00365021
0.0032907
0.00277269
0.00209476
0.000149216
0.00110704
0.00195784
0.002653
0.00321238
0.00364393
0.00397119
0.00421905
0.00440738
0.00454804
0.00464719
0.00471166
0.00474789
0.00475918
0.00474626
0.00470694
0.00463652
0.00452933
0.00437912
0.00417507
0.00390206
0.00354796
0.0031395
0.000160724
0.00119053
0.00205614
0.00281822
0.00344635
0.00391436
0.00426084
0.00452092
0.00472433
0.00488216
0.00499397
0.00506791
0.00511235
0.00513133
0.00512667
0.00509687
0.00503726
0.0049442
0.00481866
0.00465767
0.00445718
0.00421613
0.00396273
0.000174443
0.0012608
0.00214525
0.00298248
0.00367656
0.00413542
0.00450473
0.0047769
0.00498954
0.00516204
0.00528693
0.00536969
0.0054222
0.00544983
0.00545502
0.00543642
0.00539013
0.00531296
0.00521129
0.00508589
0.00493873
0.00476672
0.00459567
0.000168851
0.00124253
0.00227035
0.00305854
0.00370801
0.00422305
0.00464383
0.00495842
0.00518796
0.00537076
0.00551237
0.005611
0.0056763
0.00571472
0.00572935
0.00571793
0.00567992
0.00562051
0.00553816
0.00543494
0.0053097
0.00517728
0.00507845
0.000164842
0.00120997
0.00234991
0.00316394
0.00375912
0.00426763
0.00471723
0.00506931
0.00533208
0.00553882
0.00569698
0.00580902
0.00588601
0.00593504
0.00595811
0.00595308
0.0059278
0.0058786
0.00580185
0.00570996
0.00559319
0.00549623
0.00544678
0.000160778
0.00114564
0.0023672
0.00325835
0.00387795
0.00436957
0.00481808
0.00518341
0.00546876
0.00569269
0.00585888
0.00597736
0.00605958
0.00611213
0.00613828
0.00613859
0.00612065
0.00607886
0.00600592
0.00591601
0.00582444
0.00576074
0.00573013
0.000166034
0.00115775
0.00239733
0.00334303
0.00401299
0.00452823
0.0049678
0.00532551
0.00561104
0.0058333
0.00599764
0.00611501
0.00619704
0.00625126
0.00627833
0.00628105
0.00626449
0.00622554
0.00616179
0.006084
0.00601133
0.00595993
0.00592111
0.000177305
0.00134894
0.00253925
0.00346307
0.0041557
0.00469165
0.00512404
0.00546805
0.00574008
0.0059507
0.00610759
0.00622121
0.00630364
0.00635975
0.00638958
0.00639518
0.00637888
0.00634085
0.0062829
0.00621468
0.00615311
0.00610791
0.00606866
0.000187903
0.00147572
0.0027048
0.00362512
0.00431031
0.00483592
0.00525162
0.00557923
0.00583698
0.00603683
0.00618765
0.00630028
0.00638416
0.00644305
0.00647708
0.00648714
0.00647467
0.0064412
0.00639044
0.00633095
0.00627765
0.00623847
0.00620783
0.000194371
0.00155403
0.00282393
0.0037502
0.00442967
0.00494374
0.00534363
0.00565704
0.00590313
0.0060946
0.00624217
0.0063555
0.00644204
0.00650509
0.00654511
0.00656237
0.0065581
0.00653434
0.00649535
0.00644855
0.00640549
0.00637293
0.00634925
0.000197054
0.00159851
0.00289217
0.00382445
0.0045016
0.00500843
0.00539805
0.0057019
0.00594048
0.00612793
0.00627542
0.00639167
0.00648292
0.0065523
0.00660061
0.00662813
0.00663597
0.00662622
0.00660281
0.00657175
0.00654107
0.00651614
0.00649756
0.000196611
0.00161573
0.00291576
0.00384984
0.00452624
0.00502998
0.00541505
0.00571491
0.00595111
0.00613911
0.00628997
0.00641185
0.00651033
0.0065885
0.00664747
0.00668782
0.00671059
0.0067176
0.00671184
0.0066978
0.00668077
0.00666472
0.00665109
0.000193786
0.00160959
0.00290115
0.00383169
0.00450742
0.00501119
0.00539645
0.00569718
0.00593611
0.0061289
0.00628652
0.00641679
0.00652499
0.00661424
0.00668593
0.00674094
0.00678019
0.00680505
0.00681749
0.00682054
0.00681759
0.00681143
0.00680345
0.000189175
0.00158305
0.00285374
0.00377566
0.00445007
0.00495582
0.00534476
0.00565075
0.00589651
0.0060976
0.00626491
0.00640605
0.00652614
0.00662835
0.00671429
0.00678499
0.00684123
0.00688391
0.00691418
0.00693359
0.00694454
0.00694877
0.00694724
0.000184151
0.00153679
0.00277793
0.00368735
0.00435954
0.00486857
0.00526384
0.00557817
0.00583375
0.00604588
0.00622524
0.00637928
0.00651302
0.0066296
0.00673077
0.00681758
0.00689065
0.0069505
0.00699764
0.00703265
0.00705695
0.00707168
0.00707732
0.000178981
0.0014775
0.00268095
0.00357386
0.00424232
0.00475491
0.00515791
0.00548249
0.00574997
0.00597515
0.0061684
0.00633695
0.00648568
0.00661766
0.00673466
0.00683766
0.00692714
0.0070033
0.0070663
0.00711627
0.00715344
0.0071786
0.00719205
0.000173374
0.00141113
0.00256982
0.00344195
0.00410457
0.00462014
0.00503134
0.00536725
0.00564799
0.00588767
0.0060962
0.00628052
0.00644529
0.00659344
0.00672667
0.00684585
0.00695132
0.00704308
0.00712102
0.00718503
0.00723501
0.00727093
0.00729277
0.000167377
0.00134117
0.00244989
0.00329736
0.00395183
0.00446935
0.00488864
0.00523639
0.00553126
0.00578647
0.00601135
0.00621243
0.00639408
0.00655902
0.00670881
0.0068442
0.00696537
0.00707221
0.00716447
0.00724186
0.0073041
0.00735096
0.00738215
0.000161008
0.00126983
0.00232505
0.00314473
0.00378896
0.00430734
0.00473439
0.00509419
0.00540376
0.00567525
0.0059173
0.00613594
0.00633515
0.00651739
0.00668403
0.00683567
0.00697238
0.00709397
0.00720011
0.00729041
0.00736452
0.0074221
0.00746277
0.000154202
0.00119821
0.00219783
0.00298769
0.00362026
0.00413869
0.00457323
0.00494522
0.00526991
0.00555828
0.00581815
0.00605495
0.00627224
0.00647215
0.00665582
0.00682371
0.00697579
0.00711183
0.00723144
0.00733423
0.00741983
0.00748786
0.00753798
0.000146855
0.00112526
0.00206908
0.00282897
0.00344963
0.00396792
0.00440995
0.00479435
0.00513455
0.00544028
0.00571845
0.00597382
0.00620948
0.00642718
0.00662786
0.0068118
0.00697893
0.00712895
0.00726151
0.00737623
0.00747278
0.00755083
0.00761009
0.000139442
0.00104183
0.00193769
0.0026709
0.00328096
0.0037997
0.00424962
0.00464679
0.00500286
0.00532628
0.005623
0.00589708
0.00615107
0.00638638
0.00660368
0.00680315
0.00698465
0.00714791
0.0072926
0.00741843
0.00752514
0.0076125
0.00768031
0.000132501
0.00096062
0.00180735
0.00251704
0.00311868
0.00363911
0.00409761
0.00450799
0.00488022
0.00522148
0.00553667
0.00582917
0.00610101
0.00635324
0.00658633
0.00680034
0.00699513
0.00717046
0.00732611
0.00746188
0.00757763
0.00767327
0.00774874
0.000125972
0.000892858
0.00169318
0.00237925
0.00297229
0.00349423
0.00396114
0.00438449
0.0047725
0.005131
0.00546398
0.00577402
0.00606265
0.00633057
0.00657807
0.00680513
0.00701164
0.00719745
0.00736247
0.00750664
0.00762999
0.00773259
0.00781451
0.000120048
0.000842268
0.00160159
0.00226502
0.00284935
0.00337242
0.00384715
0.0042827
0.00468554
0.00506013
0.00540948
0.00573546
0.00603908
0.00632076
0.00658063
0.00681865
0.00703479
0.00722902
0.00740142
0.00755213
0.00768138
0.0077894
0.00787645
0.000114923
0.000808373
0.00153505
0.00217889
0.0027554
0.00327941
0.00376117
0.00420768
0.00462373
0.00501253
0.00537613
0.00571573
0.0060319
0.00632482
0.00659451
0.00684097
0.00706424
0.0072645
0.00744202
0.00759718
0.00773041
0.00784218
0.0079329
0.000110683
0.000788481
0.00149298
0.00212247
0.00269331
0.00321856
0.00370649
0.00416233
0.00458944
0.00498993
0.00536503
0.00571536
0.00604115
0.00634237
0.00661898
0.00687104
0.00709874
0.00730245
0.0074827
0.00764013
0.00777541
0.00788922
0.00798216
0.000107319
0.000779641
0.00147311
0.00209486
0.00266311
0.00319032
0.00368354
0.00414682
0.00458247
0.00499174
0.00537523
0.00573313
0.00606536
0.00637175
0.00665227
0.00690703
0.00713641
0.00734102
0.00752166
0.00767925
0.00781475
0.00792903
0.00802286
0.000104781
0.000779319
0.00147212
0.00209292
0.00266194
0.00319197
0.00368966
0.00415845
0.00460003
0.00501513
0.0054039
0.0057662
0.00610178
0.00641037
0.00669193
0.00694668
0.0071752
0.00737837
0.00755729
0.0077132
0.00784733
0.00796077
0.00805441
0.000103014
0.000785246
0.00148577
0.00211149
0.00268431
0.00321797
0.0037194
0.00419197
0.00463717
0.00505546
0.00544676
0.00581073
0.00614698
0.00645519
0.00673534
0.00698777
0.00721329
0.00741307
0.00758859
0.0077414
0.00787301
0.00798468
0.0080774
0.000101956
0.000795098
0.00150888
0.00214373
0.00272269
0.00326069
0.00376541
0.00424053
0.00468764
0.00510716
0.00549891
0.00586246
0.00619737
0.00650328
0.0067802
0.00702861
0.00724956
0.0074446
0.00761559
0.00776446
0.00789292
0.00800238
0.00809385
0.000101507
0.000806476
0.00153575
0.002182
0.00276858
0.00331161
0.00381962
0.00429678
0.00474491
0.00516454
0.00555552
0.00591743
0.00624979
0.00655228
0.0068249
0.00706829
0.00728382
0.00747349
0.00763961
0.00778443
0.0079098
0.00801712
0.00810738
0.00010153
0.000817105
0.00156088
0.00221872
0.00281363
0.00336246
0.00387434
0.00435385
0.00480304
0.00522259
0.00561248
0.00597239
0.00630187
0.00660061
0.00686864
0.00710681
0.00731691
0.00750152
0.00766344
0.00780505
0.00792812
0.00803391
0.00812326
0.000101847
0.000825073
0.00157936
0.00224685
0.00285005
0.00340573
0.00392289
0.00440602
0.00485722
0.00527737
0.00566667
0.00602499
0.00635199
0.00664737
0.00691127
0.00714482
0.00735052
0.00753168
0.00769145
0.0078319
0.00795425
0.00805943
0.0081482
0.000102293
0.000829667
0.0015862
0.00225838
0.00286952
0.00343426
0.00395954
0.00444877
0.00490391
0.00532608
0.00571592
0.00607363
0.00639904
0.00669195
0.00695275
0.00718328
0.00738714
0.00756846
0.00773015
0.00787282
0.00799658
0.00810197
0.00819002
0.000103049
0.000834249
0.00157171
0.0022387
0.00285955
0.00343948
0.00397885
0.00447866
0.00494072
0.00536693
0.00575878
0.00611707
0.00644194
0.00673344
0.00699276
0.00722331
0.0074305
0.00761895
0.00778937
0.00793877
0.00806567
0.00817103
0.00825701
0.000107381
0.000854191
0.00151849
0.0021614
0.00279985
0.00340997
0.00397549
0.00449326
0.00496633
0.00539888
0.00579417
0.00615405
0.00647918
0.00677028
0.00703042
0.00726643
0.00748698
0.00769554
0.00788489
0.00804491
0.0081742
0.00827656
0.00835692
0.000140697
0.00100992
0.00150148
0.00203603
0.00267885
0.00333759
0.00394675
0.00449224
0.0049808
0.00542161
0.00582124
0.00618318
0.00650888
0.00680032
0.00706418
0.00731443
0.00756687
0.00782154
0.00804226
0.00821122
0.00833564
0.00842727
0.00849553
0.000236325
0.00161307
0.00178673
0.00200542
0.00254552
0.00323901
0.00390089
0.00448012
0.00498617
0.00543557
0.00583939
0.00620313
0.0065292
0.00682126
0.00709134
0.00736591
0.00768104
0.00804528
0.00830157
0.00846004
0.00856052
0.0086277
0.00867478
0.00041618
0.00331153
0.00244062
0.00215763
0.00248942
0.00316761
0.0038638
0.00446809
0.00498672
0.00544193
0.00584836
0.00621309
0.00653914
0.00683144
0.00710668
0.00740647
0.00781427
0.00849213
0.00871803
0.00880551
0.00884874
0.00887433
0.00889123
0.000211069
0.00019258
0.000189838
0.000204225
0.0016092
0.00153948
0.00155272
0.00164285
0.00290482
0.00283179
0.00282742
0.00288682
0.003828
0.00377239
0.00375084
0.00376296
0.00450666
0.00445939
0.00442323
0.00439939
0.00501181
0.00496788
0.00492305
0.0048799
0.00539389
0.00535446
0.00530761
0.00525867
0.00568096
0.00563896
0.00559187
0.00554949
0.00587153
0.00583732
0.00580512
0.00577744
0.00603331
0.00601192
0.00599224
0.00597442
0.0061859
0.00617287
0.00616036
0.00614818
0.00633502
0.00632651
0.00631786
0.00630878
0.00648706
0.00648062
0.00647364
0.00646574
0.0066426
0.00663694
0.00663027
0.00662215
0.00679663
0.00679133
0.00678439
0.00677543
0.00694246
0.0069377
0.00693065
0.00692097
0.00707533
0.00707166
0.00706508
0.00705537
0.00719373
0.00719184
0.00718657
0.00717775
0.00729896
0.00729954
0.00729637
0.00728934
0.00739379
0.00739746
0.00739707
0.00739256
0.00748041
0.00748769
0.0074907
0.0074894
0.00756174
0.00757277
0.00757937
0.0075815
0.00763988
0.00765462
0.00766481
0.00767042
0.00771578
0.00773406
0.00774769
0.00775664
0.00778936
0.00781088
0.00782768
0.00783973
0.00785962
0.00788402
0.00790362
0.00791844
0.00792522
0.00795199
0.00797396
0.00799114
0.00798443
0.00801303
0.00803686
0.00805594
0.00803554
0.00806543
0.00809063
0.00811117
0.00807728
0.00810797
0.00813411
0.00815573
0.00810923
0.00814034
0.00816708
0.00818947
0.00813219
0.00816346
0.00819057
0.00821352
0.00814838
0.00817969
0.00820705
0.00823046
0.00816164
0.00819295
0.0082205
0.00824431
0.00817728
0.00820857
0.00823626
0.00826037
0.00820189
0.00823303
0.00826067
0.00828485
0.00824287
0.00827343
0.00830055
0.0083243
0.00830768
0.00833679
0.00836249
0.00838496
0.00840296
0.00842911
0.00845202
0.00847193
0.00853325
0.00855439
0.00857272
0.00858851
0.00869984
0.00871368
0.00872555
0.0087357
0.00889995
0.00890472
0.00890877
0.00891222
0.00105625
0.0019664
0.00256896
0.00290193
0.00306795
0.00313304
0.00313569
0.00311104
0.00307677
0.00303581
0.00297672
0.00288378
0.00274942
0.00256732
0.00232037
0.00197508
0.00148745
0.000821505
0.000123541
0.00215185
0.00273244
0.00314884
0.00340928
0.00355322
0.00361507
0.00362122
0.00359515
0.00354779
0.00348053
0.00338618
0.00325421
0.00307983
0.00285732
0.00257406
0.00220287
0.00169671
0.000992053
0.000135532
0.0030971
0.00342018
0.00368695
0.00387403
0.00398453
0.00403169
0.00403222
0.00400028
0.00393837
0.00384273
0.00371074
0.00353981
0.00332508
0.00306204
0.00274219
0.00234383
0.00181914
0.00108434
0.000146724
0.0038348
0.00399675
0.00415801
0.00428563
0.00436285
0.00439015
0.00437789
0.00433343
0.00425248
0.0041262
0.00395707
0.00374818
0.00349131
0.00318135
0.00281392
0.00237753
0.00183393
0.00109108
0.0001505
0.00439209
0.0044612
0.00455678
0.00464169
0.00469193
0.0046975
0.00466718
0.00460323
0.00449519
0.00433416
0.00412407
0.00386598
0.00355441
0.00318939
0.00277027
0.00228917
0.00172357
0.00100705
0.000145253
0.00482306
0.00483379
0.00488841
0.00494434
0.00497222
0.00495896
0.00491179
0.00482917
0.00469441
0.00449712
0.00424291
0.00393504
0.00356665
0.00314005
0.0026554
0.00211378
0.0015221
0.00083918
0.000135354
0.00519333
0.00517122
0.00518969
0.00521224
0.00521423
0.00518226
0.00511475
0.00500831
0.00484593
0.00461819
0.00432986
0.00399518
0.00360097
0.00314456
0.00262588
0.00205018
0.00143702
0.000741065
0.000129142
0.0054955
0.00546356
0.00545973
0.00545473
0.00543069
0.00537329
0.00527956
0.00514489
0.004959
0.00471553
0.00441552
0.00407361
0.00368228
0.00323087
0.0027247
0.00216764
0.00155571
0.000832278
0.000132492
0.00574124
0.00570925
0.00569138
0.00566404
0.0056127
0.00552979
0.0054125
0.00525545
0.00505308
0.00480302
0.0045055
0.00416825
0.00378768
0.00335438
0.00286828
0.00233003
0.00171489
0.000964607
0.000136279
0.00594977
0.00591762
0.00588636
0.00583981
0.00576717
0.00566483
0.00552985
0.00535798
0.00514598
0.00489253
0.00459816
0.00426606
0.00389166
0.00346383
0.00297524
0.00242187
0.00177798
0.000985806
0.000133129
0.00612946
0.00609666
0.00605525
0.00599464
0.00590757
0.00579101
0.00564276
0.00546013
0.00524096
0.0049842
0.00468979
0.0043574
0.0039798
0.00354361
0.00303733
0.00245167
0.00176566
0.000952331
0.000124292
0.00629258
0.0062586
0.00621007
0.00613943
0.00604154
0.00591399
0.00575535
0.00556395
0.00533825
0.0050771
0.00477919
0.00444095
0.0040532
0.00360172
0.00307319
0.00245424
0.0017257
0.000885508
0.000118132
0.0064496
0.00641295
0.00635817
0.00627933
0.00617263
0.00603625
0.00586923
0.00567048
0.00543873
0.00517239
0.00486877
0.00452231
0.00412297
0.00365661
0.00310964
0.00246588
0.00170351
0.000835657
0.000117153
0.00660433
0.00656343
0.00650235
0.00641625
0.0063022
0.0061588
0.00598529
0.00578078
0.00554396
0.00527273
0.00496349
0.0046099
0.00420197
0.00372623
0.00316841
0.00250893
0.00172172
0.000825563
0.000121312
0.00675526
0.00670957
0.00664255
0.00655034
0.00643058
0.00628207
0.00610408
0.00589565
0.0056553
0.00538057
0.00506745
0.0047095
0.00429725
0.00381793
0.00325587
0.00258704
0.00178376
0.00086265
0.0001281
0.00689895
0.00684933
0.00677777
0.00668121
0.00655773
0.00640621
0.0062258
0.00601541
0.00577333
0.0054969
0.00518193
0.0048221
0.00440837
0.00392829
0.00336473
0.0026914
0.0018786
0.000934895
0.000135285
0.00703282
0.00698126
0.00690733
0.00680868
0.0066837
0.00653128
0.00635044
0.00613991
0.00589781
0.00562127
0.00530598
0.00494557
0.00453099
0.00405
0.00348506
0.00280986
0.00199
0.00102129
0.00014189
0.00715632
0.00710527
0.00703145
0.00693306
0.00680873
0.00665735
0.00647782
0.00626869
0.00602792
0.00575241
0.00543765
0.00507694
0.00466189
0.00417907
0.00360983
0.0029276
0.00209983
0.00111301
0.000147799
0.00727061
0.00722241
0.00715101
0.007055
0.00693319
0.00678447
0.00660763
0.00640108
0.00616254
0.0058887
0.00557471
0.00521434
0.00479799
0.00431141
0.00373481
0.0030404
0.00219374
0.00117312
0.000153238
0.00737778
0.00733433
0.00726719
0.00717523
0.00705738
0.00691254
0.00673938
0.00653616
0.00630037
0.00602836
0.0057156
0.00535516
0.0049361
0.00444371
0.00385689
0.00314636
0.0022754
0.00121745
0.000156961
0.00747976
0.00744255
0.00738099
0.00729422
0.00718135
0.0070412
0.00687232
0.00667284
0.00643991
0.00617026
0.00585857
0.00549671
0.00507363
0.00457356
0.00397416
0.0032449
0.00234753
0.00125322
0.00015903
0.00757746
0.00754746
0.00749256
0.00741197
0.0073047
0.00716969
0.00700535
0.00680984
0.0065803
0.0063127
0.00600105
0.00563701
0.00520873
0.00469948
0.00408587
0.00333638
0.002412
0.00128356
0.000159693
0.00767206
0.00764946
0.00760147
0.00752734
0.00742608
0.00729658
0.00713727
0.00694594
0.00671946
0.00645339
0.00614139
0.00577452
0.00534019
0.00482082
0.00419219
0.00342206
0.002471
0.00131052
0.000159945
0.0077638
0.00774843
0.00770723
0.00763952
0.00754438
0.00742053
0.00726624
0.00707905
0.00685553
0.00659084
0.00627819
0.00590808
0.00546727
0.00493748
0.00429384
0.0035035
0.00252662
0.00133512
0.000160789
0.00785198
0.00784342
0.00780878
0.00774739
0.00765825
0.00753999
0.00739066
0.00720757
0.00698695
0.00672358
0.0064102
0.00603678
0.00558953
0.00504957
0.0043915
0.00358192
0.0025803
0.0013586
0.000162106
0.00793527
0.00793296
0.00790449
0.00784914
0.00776585
0.00765308
0.0075087
0.00732974
0.00711211
0.0068502
0.0065363
0.0061599
0.00570667
0.00515724
0.0044857
0.00365809
0.00263303
0.00138208
0.000163511
0.00801191
0.00801518
0.00799238
0.00794275
0.00786511
0.00775778
0.00761842
0.00744378
0.00722946
0.00696943
0.00665557
0.00627687
0.00581852
0.00526066
0.00457686
0.00373255
0.00268538
0.00140602
0.000164919
0.00807998
0.00808812
0.00807048
0.00802625
0.00795412
0.00785227
0.00771813
0.00754819
0.0073377
0.00708028
0.00676734
0.0063874
0.00592515
0.00536018
0.00466548
0.00380579
0.00273777
0.00143081
0.000166176
0.00813782
0.00815014
0.0081372
0.0080981
0.00803142
0.00793518
0.0078066
0.00764191
0.00743603
0.0071822
0.00687137
0.00649158
0.00602695
0.00545646
0.0047524
0.00387867
0.00279093
0.0014573
0.000166908
0.00818441
0.00820034
0.00819171
0.00815754
0.00809633
0.00800594
0.00788339
0.00772466
0.00752437
0.00727535
0.00696811
0.00659013
0.00612491
0.00555072
0.004839
0.00395265
0.00284623
0.00148666
0.000167197
0.00821974
0.00823883
0.00823422
0.00820489
0.00814924
0.00806501
0.00794907
0.00779716
0.0076036
0.00736082
0.00705885
0.00668457
0.00622078
0.00564489
0.00492737
0.00402981
0.0029052
0.00151864
0.000168116
0.00824509
0.00826703
0.00826626
0.00824172
0.00819178
0.00811409
0.00800541
0.00786128
0.00767574
0.00744082
0.00714602
0.00677752
0.0063173
0.00574179
0.00502022
0.0041126
0.00296952
0.00155303
0.000170487
0.00826316
0.00828773
0.00829066
0.0082709
0.00822683
0.0081561
0.00805539
0.00792011
0.00774403
0.00751878
0.00723326
0.00687286
0.00641849
0.00584535
0.00512117
0.00420407
0.00304167
0.0015919
0.00017414
0.008278
0.008305
0.00831146
0.00829642
0.00825837
0.00819501
0.00810304
0.00797778
0.00781279
0.0075993
0.00732553
0.00697588
0.00652992
0.00596112
0.00523526
0.00430826
0.00312478
0.00163825
0.000178666
0.00829486
0.00832394
0.00833362
0.00832315
0.00829118
0.00823557
0.00815312
0.00803918
0.00788714
0.00768787
0.00742887
0.00709331
0.00665893
0.00609675
0.00536969
0.00443085
0.00322224
0.00169374
0.000184218
0.00831969
0.0083502
0.00836256
0.00835629
0.00833034
0.0082828
0.00821068
0.00810943
0.00797248
0.00779039
0.00754996
0.00723295
0.00681467
0.00626255
0.00553499
0.00458067
0.00333889
0.00175907
0.000190924
0.00835864
0.0083895
0.00840364
0.00840099
0.0083808
0.00834153
0.00828047
0.00819337
0.00807384
0.00791241
0.00769536
0.007403
0.0070077
0.00647175
0.00574608
0.00477127
0.00348269
0.00183498
0.000199384
0.00841741
0.00844699
0.00846168
0.00846179
0.00844694
0.00841594
0.00836654
0.00829494
0.00819522
0.00805829
0.00787041
0.00761088
0.00724897
0.00674014
0.00602324
0.00502313
0.00366689
0.00192538
0.00020974
0.00850058
0.00852683
0.00854056
0.00854238
0.00853223
0.00850931
0.00847186
0.00841677
0.00833896
0.00823034
0.00807802
0.00786149
0.00754783
0.00708463
0.00639185
0.00536349
0.00390983
0.00203595
0.000221987
0.00861111
0.00863181
0.008643
0.0086454
0.00863918
0.00862387
0.00859827
0.00856011
0.00850554
0.00842819
0.00831742
0.00815498
0.00790861
0.00751905
0.00687783
0.00581441
0.00422539
0.00216966
0.000235768
0.00875013
0.00876331
0.00877059
0.00877256
0.00876942
0.00876099
0.00874659
0.0087249
0.00869361
0.00864875
0.00858334
0.00848446
0.00832589
0.00804791
0.00750206
0.00634951
0.00458924
0.00231496
0.000250209
0.00891711
0.00892156
0.00892406
0.00892482
0.00892396
0.00892143
0.00891703
0.00891038
0.00890074
0.00888687
0.00886645
0.00883482
0.00878038
0.00866484
0.00832236
0.00681595
0.00487839
0.00242354
0.000262694
)
;

boundaryField
{
    leftWall
    {
        type            nutkWallFunction;
        Cmu             0.09;
        kappa           0.41;
        E               9.8;
        value           nonuniform List<scalar> 
50
(
6.05842e-06
8.96754e-06
1.063e-05
1.18203e-05
1.27414e-05
1.34994e-05
1.4155e-05
1.47519e-05
1.54484e-05
1.63557e-05
1.73309e-05
1.78085e-05
1.97092e-05
2.03225e-05
2.00658e-05
1.92126e-05
1.48894e-05
1.65611e-05
1.8143e-05
1.90861e-05
1.94732e-05
1.94046e-05
1.89902e-05
1.83169e-05
1.75835e-05
1.68288e-05
1.60081e-05
1.51269e-05
1.41862e-05
1.31741e-05
1.20735e-05
1.09598e-05
9.90948e-06
8.91552e-06
8.00864e-06
7.21953e-06
6.56309e-06
6.03937e-06
5.64244e-06
5.36555e-06
5.19982e-06
5.13069e-06
5.13633e-06
5.18864e-06
5.26018e-06
5.37264e-06
6.00604e-06
1.09867e-05
2.48863e-05
4.91238e-05
)
;
    }
    rightWall
    {
        type            nutkWallFunction;
        Cmu             0.09;
        kappa           0.41;
        E               9.8;
        value           nonuniform List<scalar> 
50
(
6.30098e-06
8.82674e-06
1.02235e-05
1.13135e-05
1.21847e-05
1.26318e-05
1.29581e-05
1.34838e-05
1.45169e-05
1.58252e-05
1.71185e-05
1.58335e-05
1.56077e-05
1.51342e-05
1.44542e-05
1.16364e-05
1.05431e-05
1.0086e-05
8.71117e-06
7.7271e-06
7.81379e-06
8.6196e-06
9.6548e-06
1.04651e-05
1.14338e-05
1.24899e-05
1.33035e-05
1.38633e-05
1.40154e-05
1.40011e-05
1.41469e-05
1.43384e-05
1.45298e-05
1.47351e-05
1.4941e-05
1.51069e-05
1.50688e-05
1.51011e-05
1.53051e-05
1.57264e-05
1.62568e-05
1.69134e-05
1.77137e-05
1.86495e-05
1.98422e-05
2.13256e-05
2.30568e-05
2.49778e-05
2.69944e-05
2.87193e-05
)
;
    }
    lowerWall
    {
        type            nutkWallFunction;
        Cmu             0.09;
        kappa           0.41;
        E               9.8;
        value           nonuniform List<scalar> 
62
(
2.73031e-06
4.55522e-06
5.52937e-06
6.14927e-06
6.58952e-06
6.91744e-06
7.16683e-06
7.35797e-06
7.50417e-06
7.61492e-06
7.69732e-06
7.75753e-06
7.80386e-06
7.83147e-06
7.83723e-06
7.81155e-06
7.72423e-06
7.52302e-06
7.25508e-06
6.92598e-06
6.41958e-06
5.42521e-06
3.21225e-06
3.21225e-06
1.07153e-05
1.25827e-05
1.40114e-05
1.52513e-05
1.65005e-05
1.81236e-05
2.12263e-05
2.38073e-05
2.18832e-05
2.16128e-05
2.31412e-05
3.05525e-06
1.17257e-05
1.38561e-05
1.55831e-05
1.72087e-05
1.90125e-05
2.12974e-05
2.48058e-05
3.05525e-06
5.246e-06
6.1108e-06
6.48702e-06
6.62804e-06
6.60125e-06
6.40109e-06
6.06904e-06
5.86101e-06
5.9438e-06
5.98009e-06
5.87346e-06
5.86347e-06
5.99327e-06
6.05992e-06
5.78227e-06
5.07775e-06
4.06125e-06
2.52865e-06
)
;
    }
    atmosphere
    {
        type            calculated;
        value           nonuniform List<scalar> 
46
(
0.009
0.009
0.00244062
0.00215763
0.00248942
0.00316761
0.0038638
0.00446809
0.00498672
0.00544193
0.00584836
0.00621309
0.00653914
0.00683144
0.00710668
0.00740647
0.00781427
0.009
0.009
0.009
0.009
0.009
0.009
0.009
0.009
0.009
0.009
0.009
0.009
0.009
0.009
0.009
0.009
0.009
0.009
0.009
0.009
0.009
0.009
0.009
0.009
0.009
0.00681595
0.00487839
0.00242354
0.000262694
)
;
    }
    defaultFaces
    {
        type            empty;
    }
}


// ************************************************************************* //
