/*--------------------------------*- C++ -*----------------------------------*\
  =========                 |
  \\      /  F ield         | OpenFOAM: The Open Source CFD Toolbox
   \\    /   O peration     | Website:  https://openfoam.org
    \\  /    A nd           | Version:  9
     \\/     M anipulation  |
\*---------------------------------------------------------------------------*/
FoamFile
{
    format      ascii;
    class       surfaceScalarField;
    location    "19.4";
    object      phi;
}
// * * * * * * * * * * * * * * * * * * * * * * * * * * * * * * * * * * * * * //

dimensions      [0 3 -1 0 0 0 0];

internalField   nonuniform List<scalar> 
1300
(
11.2529
1.87548
-4.21761
11.2529
-4.96117
1.87548
-4.22454
4.22454
-1.18857
1.18857
5.71231
5.54055
-2.3698
2.3698
-2.82036
2.82036
-2.86063
2.86063
-1.06194
1.06194
-1.02826
1.02826
0.693477
-0.693477
-3.4
3.4
-1.45704
1.45704
-2.89555
2.89555
6.12811
-6.12811
-3.26733
3.26733
-0.744484
0.744484
-4.26321
15.5161
6.98965
6.98965
-2.37185
2.37185
-1.25402
1.25402
1.41034
-1.41034
9.13616
-9.13616
-4.91855
-5.93643
1.89519
-13.9546
-3.06598
-3.06598
-2.7054
2.7054
-0.829928
1.04555
3.47669
-3.47669
-0.759168
0.759168
-4.31128
0.0867386
-4.31128
4.00748
0.217068
4.00748
-1.32989
0.141318
-1.32989
4.66906
-4.66906
1.0769
0.111674
1.0769
3.92807
-3.92807
-5.71006
11.4224
5.5428
-5.32064
20.8367
-5.93222
11.4728
-3.91965
3.91965
-2.2855
-0.084305
-2.2855
2.37164
-0.0018396
2.37164
-4.00689
4.00689
-2.60771
-0.212648
-2.60771
2.92372
-0.103357
2.92372
3.66593
-3.66593
-2.91657
0.0559418
-2.91657
2.70899
0.151631
2.70899
0.771042
1.10443
-2.64652
3.69207
-1.10443
0.0424987
1.02614
0.0357986
1.02614
-1.01454
-0.013727
-1.01454
1.04985
-0.021585
1.04985
0.730894
-0.0374173
0.730894
-0.754985
0.061508
-0.754985
-8.57412
-8.98138
-3.5287
0.128695
-3.5287
-1.47496
0.017924
-1.47496
1.49331
-0.0362678
1.49331
-2.54038
2.54038
-3.23487
0.339325
-3.23487
4.80637
1.32174
4.80637
5.04612
6.20674
16.299
-16.299
10.1709
-2.98218
-0.285156
-2.98218
-3.43876
-5.6974
3.43876
-0.171425
-0.806367
0.0618828
-0.806367
5.62658
1.36307
5.62658
2.5869
0.122097
-2.5869
0.215047
4.62428
-4.62428
1.42374
0.948108
1.42374
-1.19152
1.19152
1.12339
-0.0735426
-1.12339
-0.130629
1.38601
0.0243321
1.38601
-1.40975
-0.000595738
-1.40975
7.3329
-13.2693
-7.8165
3.20827
0.191737
-3.20827
0.142287
3.56338
-0.08669
3.56338
-3.30981
3.30981
-3.6109
0.134211
-3.6109
-0.683848
-0.0753202
-0.683848
0.844492
-0.0853238
0.844492
-4.56152
0.250237
-4.56152
-3.67325
0.438376
3.67325
0.334229
1.25551
-1.25551
-1.43763
0.107741
-1.43763
-4.6477
0.0861759
4.6477
0.0213618
-4.76496
0.0958995
-4.76496
-3.71247
0.101563
3.71247
0.215598
4.58933
1.03725
-4.58933
0.661261
-5.36949
11.5762
-5.88337
11.4262
-3.53629
-0.383365
-3.53629
4.11037
-0.190717
4.11037
2.55938
0.336164
-2.55938
0.273887
2.4995
-0.127864
2.4995
-3.95514
-0.0517527
-3.95514
3.80693
0.19996
3.80693
2.54118
-0.041676
-2.54118
-0.0665339
2.90245
0.0212686
2.90245
3.67175
-0.00582049
3.67175
-3.53909
-0.126841
-3.53909
3.17918
-3.17918
3.08087
0.0983024
-3.08087
0.164307
-5.07402
5.07343
-0.00799944
-5.06602
1.01814
1.01814
0.770367
-0.0394723
0.770367
-0.861775
0.10679
-0.861775
8.33691
-16.1534
8.80871
-17.3828
7.51666
-21.4712
8.06447
-17.0459
3.81904
-3.81904
3.74928
0.069761
-3.74928
0.220582
-1.4567
-0.0182674
-1.4567
-2.3014
-0.238975
-2.3014
2.87529
-0.334909
2.87529
-3.74215
3.74215
-4.12481
0.382662
4.12481
0.681555
2.96725
-0.064802
-2.96725
-0.0149246
0.925096
0.151805
-0.925096
0.118729
4.86073
-0.236452
4.86073
-4.08389
-0.540391
-4.08389
-1.47548
0.0187855
1.47548
-0.0517409
-1.25894
0.0674219
-1.25894
-5.0745
0.00847757
-5.0387
-1.40127
-1.40127
1.30414
4.9962
-3.58541
0.0463146
3.58541
-0.0220249
3.52713
0.215017
-3.52713
0.217329
-3.26344
0.0842597
3.26344
0.0463691
-0.661213
-0.022635
-0.661213
-1.03833
1.03833
-0.920507
-0.117821
0.920507
-0.0760142
1.41199
-0.156481
1.41199
1.47151
0.0217992
-1.47151
0.0338753
-5.00568
0.240727
-5.00568
4.11887
-0.00850558
4.11887
-3.94815
-0.13574
3.94815
-0.276394
-0.00372288
5.07715
-1.01441
-0.000120489
1.01441
-5.10148
5.10136
-0.666498
0.00528441
0.666498
0.103869
1.02963
0.161888
-1.02963
0.167853
3.84453
-0.0376023
-3.84453
0.0254916
-2.0181
-0.2833
-2.0181
-3.20421
-0.332078
3.20421
-0.328922
-5.11518
-0.0779437
5.19312
-5.13676
1.33688
0.0491271
-1.33688
5.15049
-1.1481
-0.107409
1.1481
-0.109775
1.61195
-0.199953
1.61195
5.11674
-0.256009
-5.11674
0.111057
-4.1326
0.177466
4.1326
-0.0137301
-1.78445
-0.233654
1.78445
-0.172503
-13.128
14.4911
7.70866
-6.29996
-6.96937
-11.9974
4.44711
7.12911
14.618
-11.7491
-9.72215
-11.6068
2.86007
-2.69221
-3.73034
3.69292
23.5715
-23.4756
-18.3993
19.0808
20.7769
-20.5613
5.70883
5.71353
15.7849
-15.8692
-20.9913
20.6079
15.3745
-15.5872
22.0942
-22.146
-25.8182
25.7806
-16.0946
16.1505
-20.293
20.1662
-21.0552
20.7788
-8.3121
-9.07072
16.461
-16.3323
20.0697
-20.3548
-19.2948
19.6341
10.0475
4.44361
11.0848
-6.24674
11.9556
-5.22604
12.9347
8.33443
-16.6465
7.81898
-14.7884
9.10066
10.969
-8.92924
-3.06813
-17.9695
17.8828
-17.2574
17.3038
24.0668
-23.9801
-6.17282
11.8864
-5.25336
12.3825
-11.409
-6.99025
10.0873
4.53072
8.94408
7.51691
-9.13582
-2.47096
-24.79
24.534
-25.655
25.1146
0.0999496
2.4261
-2.52605
1.35397
-0.862383
3.28848
1.99768
2.10447
2.45269
-2.2908
0.239526
-2.76557
-2.8962
-5.34648
5.45422
5.16423
-5.05255
16.5236
7.04788
16.5449
-16.7378
-6.73778
-16.4971
11.3638
7.71703
11.7464
12.0616
8.71539
12.1631
10.359
-10.3317
-0.0273783
-11.4776
21.8367
1.55468
-18.4679
-13.9371
8.81098
6.97394
8.80914
-9.84377
-6.02545
-9.56989
-11.0716
-9.91965
-11.4037
12.3775
8.23044
12.1868
-15.3659
15.3522
9.27954
6.09499
9.17619
-8.94903
-6.63815
-9.01556
27.4752
-6.64652
-20.8287
-13.2015
-12.6167
13.0016
9.09267
14.3316
11.4491
14.357
8.89802
18.5772
-17.9907
5.37398
-9.94784
-6.14676
-9.78354
9.25958
6.89097
9.41121
-11.7662
-8.52682
-11.7199
-11.9858
-9.06931
11.9917
8.17453
-12.5324
-13.1226
12.6681
8.11065
7.84676
-17.5689
9.19909
-18.2698
-10.9375
-5.39482
-10.7169
10.8148
6.63564
-17.4504
-5.83175
23.6882
-12.7192
20.6201
-10.9334
-9.4214
-10.9484
-14.7362
-4.55857
-14.2979
-8.03275
7.74945
-8.87119
8.53628
26.9229
-16.2404
-10.6825
-12.3783
-8.18302
11.7171
-0.632303
-12.8358
12.8084
-0.88022
12.0545
16.4981
15.8658
-10.8804
-6.377
-10.6631
10.2706
7.03316
10.3549
16.049
8.01784
16.2661
-16.7814
-7.1987
-16.5312
4.85512
-4.93044
5.71621
-5.69742
15.5747
9.53984
-15.3383
-9.45173
22.9352
-10.7762
-12.159
-5.1207
5.21851
-0.0978101
-1.83222
-0.478247
0.266236
-1.93165
-1.79868
1.87015
0.234327
5.45283
3.65415
-2.41435
2.48177
2.77877
2.70523
-0.190972
2.50453
-2.49925
18.9317
-11.4556
-7.47611
13.9455
-13.8594
-2.58562
-19.3127
16.7271
2.68558
3.0087
-2.94681
-3.95213
-1.39435
-3.91826
2.95651
2.20772
3.10831
2.109
3.34522
-8.11374
1.56601
6.54773
-6.00475
-3.48654
-13.3486
-6.27999
19.6286
16.6694
7.86461
-16.7804
0.283384
5.2969
-5.33317
-1.59234
-11.7563
8.36217
-9.95451
-15.2244
-6.45823
21.6826
-9.58087
-1.0822
9.36586
2.38059
-10.8771
-7.09241
10.7429
1.42021
-12.0644
23.9709
-11.9065
-18.4414
8.51585
13.3208
16.2329
-17.8628
9.31877
8.544
-4.54196
7.40779
1.40135
7.27992
-19.8635
13.838
11.266
8.36814
-11.6022
2.03227
-17.8312
25.154
-22.2648
-2.88924
12.8153
12.3387
13.5904
13.3325
-7.82206
21.4125
-3.60719
-18.6576
21.4384
-13.0703
15.7683
-28.8386
-29.1008
10.4432
-18.0057
22.104
-4.09829
-5.21029
-10.1556
23.216
-2.02261
-21.1934
10.1642
-13.9337
-11.8198
25.7535
-20.5803
18.4579
-6.27486
-12.1831
-12.7015
-9.44452
12.524
2.82821
-25.8322
31.2062
-7.25495
7.81843
1.35775
7.8397
10.6203
-15.9614
5.34108
9.95994
-16.2348
6.77783
-22.7392
-12.1603
24.1571
-11.9968
-17.5552
-15.7949
-1.76031
4.85019
26.356
-16.2993
12.0849
4.21434
8.4623
1.89258
-8.5606
-1.22293
0.968924
16.0886
-17.0576
10.3801
10.5022
11.7079
4.38076
10.7698
7.113
-10.7478
-0.972099
-14.7919
5.72258
-6.61736
-14.5724
20.2949
-16.2676
1.69522
-10.3031
-13.9916
24.2946
-16.4498
11.4259
12.545
18.459
-19.615
5.62349
-9.74688
-9.86817
10.6441
-17.2614
7.49695
12.798
15.6076
2.48502
12.7548
11.4023
-19.3905
1.12067
18.9192
-16.4482
3.90261
10.4544
-15.9876
0.1927
-10.5242
2.63712
-15.3563
-14.8133
16.5028
-21.0614
-12.3358
13.5113
2.75473
-13.8456
-0.452297
-4.97996
-3.05279
-5.21361
-3.29531
-5.57588
-11.1174
-1.93459
-9.18278
5.81485
-6.7241
-4.67961
7.05303
1.48325
-4.95685
4.84945
-5.60755
5.4076
-0.210214
13.0186
15.6556
7.47255
-8.47667
15.9492
-15.5828
23.6006
-29.7144
14.1316
15.9516
-23.1503
-13.7628
2.70958
2.14554
2.62426
13.498
-14.4506
0.952615
-13.318
17.659
-4.34104
-19.6482
6.33019
-6.15018
5.18954
0.526671
5.17127
1.41738
6.84791
-8.26529
-4.28004
-4.33178
-9.16111
-13.8588
23.0199
4.74013
-13.1069
8.36674
-12.0678
16.8079
0.0816021
-13.1885
16.9908
-10.1429
17.5175
-11.9862
5.53137
12.7923
22.3496
-9.5573
16.2461
-6.70622
7.06447
-16.6218
-6.79434
-11.2895
18.1805
-13.0051
14.7003
-1.12294
15.8232
-13.7801
3.00391
-2.07223
8.43001
8.64505
16.8091
-12.4283
11.9717
-18.678
-4.65002
-16.1929
-3.39496
1.0349
-13.8482
12.8133
12.0816
-11.0467
-3.24854
9.00985
-5.76131
5.69708
-2.85359
-2.84349
-1.85119
-3.07925
1.87383
0.630703
6.32778
0.491082
-3.34468
-2.00816
-1.9043
10.3835
8.54822
-3.83909
3.74128
3.57285
-0.564155
0.959917
2.14839
4.59547
-3.63555
0.679692
3.91577
-2.26712
3.83091
1.46599
-3.85271
-0.0655458
-3.40968
11.7719
3.13805
-5.34577
1.71022
2.37513
-13.8307
19.7449
-11.4234
-8.32148
22.12
3.05391
-14.4773
16.2588
-13.5733
8.09619
-14.3762
-6.38112
-19.9544
-12.9065
-10.7131
19.0799
-12.3068
20.1714
3.85553
-20.4548
24.3103
-12.7447
6.2865
-9.45055
10.9165
-4.06315
-5.38739
11.2725
10.4101
-11.0564
-0.699911
0.216114
8.42809
-8.21197
-1.52643
-7.53117
-16.4087
17.8289
-8.25588
17.5747
7.69334
-7.63385
25.2085
6.56514
-14.199
-11.8763
-12.9585
-5.65498
10.5779
-1.8014
-7.21417
-13.9845
7.25584
0.0240816
-19.0165
22.016
-2.99953
-12.0425
-1.79549
14.6108
-18.0809
1.84607
-11.3031
10.7129
12.1143
12.1384
-20.8936
-0.299739
-12.6632
3.18728
-15.8505
15.526
-6.8212
17.2644
-16.0745
11.3949
-14.5913
14.3752
-1.47528
14.7453
-9.4042
6.08345
-15.528
-12.6998
14.4632
-8.36816
15.8209
-10.1304
25.9513
-17.3854
14.4296
11.5217
-2.73097
-8.2174
-13.9871
11.2562
0.442498
8.2822
17.8368
-10.7238
16.8647
8.92356
-18.6704
-8.33789
-25.8598
7.18933
-13.3148
-7.35636
14.5457
11.1027
12.9953
4.67752
-11.7723
17.7921
-19.5524
-5.79526
-9.01805
14.6034
-3.34725
10.1743
-19.1923
-5.18201
13.1207
-0.178074
-12.9426
3.11974
-15.4555
5.11602
-20.5715
15.9454
-16.3977
1.77852
-7.9287
-3.17833
-3.28811
-2.18363
-3.42392
-7.59924
5.41561
-1.26905
3.5804
-12.5578
12.3798
-5.10121
10.5168
-4.07812
-1.13549
4.25063
1.15697
11.6738
3.04008
-16.8029
-9.27746
14.6488
-5.37132
1.106
-10.8081
3.84069
8.0894
14.0306
-24.8165
1.66625
-15.1366
-4.08469
6.23022
4.92516
17.0068
2.55616
6.57297
-0.342745
9.12913
2.28152
2.2055
-11.2449
12.1975
1.56838
15.7
-1.88353
7.4149
3.28774
3.30566
2.02751
5.72414
2.92092
8.72805
0.462759
-3.86903
2.07043
-3.97473
-1.27424
-4.0142
-0.321278
3.73001
-4.05129
10.5151
-1.9669
5.1438
-1.89144
-4.94259
6.83403
-9.36756
-5.50674
-1.59097
-5.61672
7.32694
6.15514
-5.73597
-3.63159
2.39809
-15.3046
11.9781
-12.678
-2.26792
22.0424
-9.4695
1.25753
-3.183
-6.27364
-7.66799
7.73353
24.19
1.01851
12.2835
18.8474
11.755
1.03123
12.0083
-16.1066
-10.7309
-16.4063
-0.880319
13.7305
5.6423
20.7137
17.164
13.8167
-5.37563
-24.928
20.7557
-8.55815
16.4146
-3.47204
-17.0995
14.6169
8.98374
-17.3716
0.973922
-16.1256
-24.6837
-0.339274
12.719
-11.3345
10.199
7.14624
2.03654
-2.43417
-0.853942
2.55199
-0.346487
8.78264
-0.186333
-8.21127
8.39761
-3.54368
2.26943
-0.436372
4.17765
6.39766
4.43076
-3.78051
-7.8318
-8.83015
-5.00055
-17.1516
2.477
-8.63214
5.69416
-3.42473
2.85067
4.97288
10.1167
-1.6003
-9.44643
7.36161
-4.51094
5.60574
)
;

boundaryField
{
    wall-4
    {
        type            calculated;
        value           uniform 0;
    }
    velocity-inlet-5
    {
        type            calculated;
        value           uniform -11.2529;
    }
    velocity-inlet-6
    {
        type            calculated;
        value           uniform -1.87548;
    }
    pressure-outlet-7
    {
        type            calculated;
        value           nonuniform List<scalar> 8(4.21761 4.96117 10.855 12.0594 17.5555 15.1494 17.1456 15.5811);
    }
    wall-8
    {
        type            calculated;
        value           uniform 0;
    }
    frontAndBackPlanes
    {
        type            empty;
        value           nonuniform List<scalar> 0();
    }
}


// ************************************************************************* //
