/*--------------------------------*- C++ -*----------------------------------*\
  =========                 |
  \\      /  F ield         | OpenFOAM: The Open Source CFD Toolbox
   \\    /   O peration     | Website:  https://openfoam.org
    \\  /    A nd           | Version:  9
     \\/     M anipulation  |
\*---------------------------------------------------------------------------*/
FoamFile
{
    format      ascii;
    class       volScalarField;
    location    "2.52";
    object      k;
}
// * * * * * * * * * * * * * * * * * * * * * * * * * * * * * * * * * * * * * //

dimensions      [0 2 -2 0 0 0 0];

internalField   nonuniform List<scalar> 
2268
(
0.00136853
0.00394763
0.00586949
0.00738776
0.00864074
0.00968586
0.0105568
0.0112808
0.011883
0.0123835
0.0127946
0.0131213
0.013382
0.0135717
0.0136634
0.0136124
0.013307
0.0126736
0.0120308
0.011213
0.00965337
0.00671788
0.0023953
0.00324463
0.0092763
0.0132512
0.0164459
0.0190928
0.0213022
0.0231449
0.0246791
0.0259573
0.0270216
0.027898
0.0285967
0.0291197
0.0294469
0.02955
0.0293675
0.0287869
0.027734
0.0263067
0.0242269
0.0208287
0.015084
0.00568816
0.00480944
0.0125098
0.0174383
0.0214053
0.0247053
0.0274641
0.0297662
0.0316836
0.0332807
0.034608
0.0356969
0.0365595
0.0371939
0.0375774
0.037675
0.0374249
0.0367354
0.0355275
0.0337512
0.0310637
0.0267782
0.0198237
0.00773874
0.00618717
0.0151639
0.0207362
0.0252053
0.0289333
0.0320548
0.0346608
0.0368322
0.0386416
0.0401461
0.0413806
0.0423587
0.0430755
0.0435062
0.0436141
0.0433422
0.0426132
0.0413396
0.0393814
0.0363469
0.0315053
0.0237107
0.00946957
0.00742656
0.0175684
0.0236735
0.0285332
0.032589
0.0359859
0.0388203
0.041181
0.0431492
0.0447888
0.0461381
0.047212
0.0480026
0.0484838
0.0486193
0.0483581
0.047632
0.0463446
0.0443076
0.0410963
0.0359183
0.0273717
0.0112918
0.00857988
0.0198385
0.0264326
0.0316308
0.0359611
0.0395819
0.0425961
0.0451026
0.0471934
0.04894
0.050385
0.0515443
0.0524065
0.0529442
0.0531227
0.0528975
0.0522071
0.0509501
0.0489198
0.0456846
0.0404014
0.0313437
0.01375
0.00968496
0.0220333
0.0291003
0.0346136
0.0391884
0.0429982
0.0461555
0.0487728
0.0509566
0.0527883
0.0543149
0.0555537
0.0564883
0.0570888
0.0573233
0.0571543
0.056527
0.0553425
0.053399
0.0502888
0.0451871
0.036204
0.0182684
0.0107701
0.0241916
0.031728
0.0375491
0.0423521
0.0463248
0.0495929
0.052289
0.0545388
0.0564361
0.0580331
0.0593486
0.0603578
0.0610267
0.0613271
0.0612298
0.0606889
0.0596158
0.0578305
0.054978
0.0503542
0.0424028
0.0270738
0.001999
0.00627512
0.00843479
0.00937871
0.00968554
0.00965821
0.00917422
0.00811136
0.00694589
0.0064246
0.006622
0.0066919
0.00634695
0.00630208
0.00643048
0.00605181
0.00470474
0.00304333
0.00154785
0.00539315
0.0134135
0.0177533
0.0198316
0.0206263
0.0206139
0.0196974
0.0175908
0.0155672
0.0148525
0.0151059
0.0150916
0.0143366
0.0139954
0.0137528
0.0127532
0.0103154
0.00697771
0.00298247
0.00787661
0.0179335
0.0231658
0.0256096
0.0265179
0.0264435
0.0253303
0.0231505
0.0210245
0.0200578
0.0199646
0.0197275
0.0188999
0.0182561
0.0176102
0.0162012
0.0133572
0.00931917
0.00394559
0.01047
0.0223043
0.0278093
0.0302128
0.0310309
0.0308388
0.0296031
0.0274484
0.0253475
0.0242005
0.0237916
0.0233404
0.0224206
0.0215365
0.020569
0.0188329
0.0157325
0.0112027
0.00469713
0.0134568
0.0269579
0.0322646
0.0343667
0.0349689
0.0346264
0.0333136
0.0312258
0.0291798
0.0278801
0.027185
0.0265245
0.0254913
0.0244085
0.023186
0.0211714
0.0178315
0.0128977
0.00532677
0.0172122
0.0319169
0.0366171
0.0382589
0.0385765
0.0380687
0.0367159
0.034736
0.0327674
0.031319
0.0303483
0.0294692
0.0283061
0.0270536
0.025629
0.0233914
0.0197892
0.014465
0.00578091
0.0225637
0.0370797
0.0408318
0.0419419
0.0419519
0.0412751
0.0399094
0.0380741
0.0361948
0.0346066
0.0333635
0.0322474
0.0309374
0.0295354
0.0279523
0.0255614
0.0217202
0.0159233
0.00632128
0.0312829
0.0423642
0.0448664
0.0454357
0.0451509
0.0443135
0.0429436
0.041249
0.0394591
0.0377569
0.0362559
0.034888
0.033418
0.0318726
0.0301663
0.0276941
0.0237063
0.0174832
0.00702376
0.0125064
0.027555
0.0358279
0.0421361
0.047285
0.0514778
0.0548695
0.0576377
0.0599485
0.0619198
0.0636107
0.0650341
0.0661441
0.0669055
0.0672994
0.0673137
0.0669196
0.066052
0.0645763
0.0622309
0.0585352
0.052723
0.0435815
0.0145458
0.0318535
0.0412596
0.0483641
0.0540372
0.0584641
0.0618887
0.0646137
0.0669029
0.0689198
0.0707279
0.0723053
0.0735634
0.0744563
0.074993
0.0752059
0.0750986
0.0746514
0.073812
0.0724255
0.07016
0.0667993
0.0627946
0.0168062
0.0363675
0.0470179
0.0551267
0.0613947
0.0658816
0.0690658
0.0714986
0.0736026
0.0755841
0.0774963
0.0792451
0.0806606
0.0816576
0.0823122
0.0827472
0.082992
0.0830593
0.0830041
0.0827565
0.0817341
0.0793313
0.0763687
0.020228
0.0415345
0.0533063
0.0627919
0.0697769
0.0739094
0.0763728
0.0781481
0.07989
0.0817773
0.0838232
0.0858366
0.0874442
0.0884664
0.0891587
0.0898211
0.0904678
0.0910819
0.0919502
0.0934263
0.0942582
0.0917999
0.0886612
0.0252816
0.0480674
0.0597015
0.071127
0.0787293
0.0809563
0.0821834
0.0834139
0.0848338
0.086638
0.0889098
0.0914075
0.0934568
0.0945485
0.0952129
0.0960057
0.0967827
0.0974665
0.0989683
0.102536
0.106645
0.101863
0.0991119
0.0287249
0.0535697
0.0649088
0.07472
0.0808109
0.082893
0.0844789
0.086117
0.0876748
0.0895039
0.0918093
0.0944583
0.0967343
0.0982425
0.0996312
0.101096
0.101646
0.101617
0.102831
0.105853
0.10683
0.10422
0.10167
0.0297563
0.0557444
0.0682243
0.0756499
0.0800799
0.0830104
0.0856223
0.087876
0.0895567
0.0913644
0.0936434
0.0963836
0.0986181
0.100301
0.102148
0.103912
0.104185
0.103864
0.105358
0.108425
0.109468
0.107401
0.104503
0.0271078
0.0537039
0.0693862
0.0759825
0.0798972
0.0831228
0.0866116
0.0893558
0.0908265
0.092343
0.0945593
0.0978419
0.100121
0.100823
0.101402
0.102229
0.102584
0.103416
0.106247
0.110655
0.112668
0.110768
0.107904
0.0233064
0.044986
0.0661434
0.0741167
0.0789304
0.0830201
0.0872605
0.0902544
0.0917057
0.0926653
0.0940976
0.0964511
0.0980384
0.0982244
0.0984673
0.0989074
0.0994232
0.100655
0.103162
0.106323
0.10846
0.10886
0.105076
0.0192477
0.0394989
0.0608748
0.0715556
0.0779909
0.0827437
0.0865214
0.0889242
0.0905501
0.091402
0.0921678
0.0933823
0.0943259
0.094754
0.0951747
0.0956163
0.0960734
0.096899
0.0983484
0.100084
0.101267
0.101019
0.0971059
0.0183067
0.0410693
0.0589214
0.070208
0.0772005
0.0814382
0.0840795
0.0861615
0.087713
0.0886664
0.0893824
0.0901757
0.0908575
0.0913602
0.0918288
0.0922568
0.0925817
0.0929401
0.0934424
0.0939476
0.0939402
0.092674
0.0895063
0.0223041
0.045117
0.0586821
0.0684397
0.0747659
0.0785093
0.0809671
0.0829156
0.0844053
0.0854396
0.0862086
0.0868865
0.0874652
0.0879482
0.0883724
0.0887162
0.0889152
0.0889864
0.0889332
0.0886367
0.0878332
0.0862262
0.083722
0.0247083
0.0470183
0.0580809
0.0660855
0.0715686
0.0751137
0.0775848
0.0794904
0.0809534
0.0820362
0.0828549
0.083511
0.084042
0.0844786
0.0848313
0.0850824
0.0851771
0.0850818
0.0847575
0.084117
0.0830396
0.0814501
0.079421
0.0249921
0.0467424
0.0565967
0.0634295
0.0682888
0.0716754
0.0741385
0.0760229
0.0774741
0.0785796
0.0794237
0.0800738
0.0805731
0.0809612
0.081248
0.0814251
0.0814531
0.0812878
0.0808814
0.0801752
0.0791205
0.0777242
0.0760759
0.024234
0.0450792
0.0543546
0.0605352
0.0649997
0.0682526
0.0706848
0.0725524
0.0739971
0.0751108
0.0759631
0.0766062
0.0770812
0.0774285
0.077671
0.0778028
0.0778023
0.0776333
0.0772544
0.0766265
0.0757311
0.0745937
0.073284
0.0229774
0.0426992
0.0516187
0.057438
0.061664
0.064818
0.0672194
0.0690766
0.0705207
0.0716398
0.0724963
0.0731365
0.0735996
0.0739249
0.0741475
0.0742642
0.0742685
0.0741375
0.0738407
0.0733519
0.0726628
0.0717946
0.0707939
0.0214656
0.039992
0.0486023
0.0541923
0.0582687
0.0613546
0.0637347
0.0655904
0.067042
0.0681721
0.0690394
0.0696884
0.0701581
0.0704878
0.0707149
0.0708455
0.070883
0.0708159
0.0706249
0.0702921
0.0698115
0.0691955
0.0684716
0.0197943
0.037136
0.045442
0.0508603
0.0548336
0.0578725
0.060241
0.0621034
0.0635707
0.0647211
0.0656113
0.0662854
0.0667826
0.067142
0.0674008
0.0675726
0.067667
0.0676811
0.0676043
0.0674245
0.0671361
0.0667437
0.0662607
0.0179965
0.0342015
0.0422226
0.0475027
0.0513986
0.0544033
0.056767
0.0586427
0.0601319
0.0613119
0.0622381
0.0629545
0.0635003
0.0639128
0.0642283
0.0644651
0.0646359
0.0647435
0.0647829
0.0647465
0.0646286
0.0644285
0.0641502
0.0161898
0.0312053
0.039007
0.0441808
0.0480157
0.0509912
0.0533505
0.0552401
0.0567591
0.0579798
0.058956
0.0597313
0.0603439
0.0608297
0.0612224
0.0615431
0.061805
0.0620139
0.0621687
0.0622646
0.0622962
0.0622596
0.0621528
0.0145715
0.0282598
0.0358603
0.0409416
0.0447247
0.0476781
0.0500383
0.0519478
0.0535026
0.0547721
0.055809
0.0566558
0.0573495
0.0579234
0.0584087
0.0588269
0.0591903
0.0595055
0.0597735
0.0599911
0.0601534
0.0602551
0.0602911
0.0130928
0.0255763
0.0329036
0.0378752
0.0416016
0.0445304
0.0468906
0.0488208
0.050414
0.0517374
0.0528422
0.0537694
0.0545537
0.055226
0.0558135
0.0563381
0.056809
0.0572325
0.0576103
0.0579403
0.0582178
0.058437
0.0585914
0.0117789
0.0232485
0.0302329
0.0350586
0.0387101
0.0416042
0.0439591
0.0459078
0.0475401
0.0489205
0.0500978
0.051111
0.0519922
0.0527688
0.0534644
0.0540987
0.0546788
0.0552097
0.055693
0.0561266
0.0565063
0.0568261
0.0570792
0.0106496
0.0212847
0.0278852
0.0325316
0.0360888
0.0389375
0.0412816
0.0432472
0.0449192
0.046359
0.0476124
0.0487152
0.0496965
0.0505798
0.0513852
0.0521291
0.0528167
0.0534517
0.0540347
0.0545635
0.0550342
0.055441
0.0557771
0.00969734
0.0196312
0.0258458
0.0302973
0.0337504
0.036549
0.0388814
0.0408651
0.0425797
0.0440822
0.0454148
0.0466096
0.047692
0.0486819
0.0495957
0.0504462
0.0512374
0.0519711
0.0526472
0.0532631
0.053815
0.0542973
0.0547039
0.00889351
0.0182195
0.0240758
0.0283382
0.031691
0.0344442
0.0367705
0.0387783
0.0405411
0.042111
0.0435259
0.0448142
0.0459973
0.0470916
0.04811
0.0490625
0.0499515
0.0507777
0.0515398
0.0522351
0.0528595
0.0534081
0.0538751
0.00820707
0.0169999
0.0225415
0.0266359
0.0299034
0.0326243
0.0349559
0.0369976
0.0388162
0.0404588
0.0419589
0.043341
0.0446229
0.045818
0.0469361
0.0479848
0.0489655
0.0498776
0.0507191
0.0514868
0.0521767
0.0527841
0.0533035
0.00761833
0.0159523
0.0212289
0.0251842
0.0283877
0.0310935
0.0334444
0.0355308
0.0374128
0.0391324
0.0407191
0.0421937
0.0435713
0.0448626
0.0460752
0.0472144
0.0482811
0.0492735
0.0501889
0.0510238
0.0517738
0.0524344
0.0530005
0.00712325
0.0150816
0.0201446
0.0239917
0.0271532
0.0298606
0.0322433
0.0343827
0.036333
0.0381313
0.0398036
0.041368
0.0428373
0.0442201
0.0455224
0.0467477
0.0478963
0.0489655
0.0499517
0.0508506
0.0516577
0.0523681
0.0529772
0.00673017
0.0144077
0.0193073
0.0230753
0.0262133
0.0289345
0.0313565
0.0335527
0.0355718
0.037447
0.0392015
0.0408516
0.0424083
0.043879
0.045268
0.0465775
0.047807
0.0489526
0.0500095
0.0509726
0.0518364
0.0525958
0.0532464
0.0064518
0.0139512
0.0187355
0.0224489
0.0255763
0.0283172
0.0307798
0.0330309
0.0351148
0.037062
0.0388939
0.0406252
0.0422662
0.043823
0.045299
0.0466947
0.0480083
0.0492344
0.0503664
0.0513975
0.0523211
0.0531315
0.0538241
0.00629587
0.0137215
0.0184345
0.0221129
0.0252366
0.0279972
0.0304963
0.032796
0.0349379
0.0369505
0.0388542
0.0406635
0.0423878
0.0440328
0.0456005
0.0470898
0.0484966
0.0498132
0.0510301
0.052138
0.0531284
0.0539946
0.054732
0.00625889
0.0137097
0.0183907
0.022049
0.0251718
0.0279482
0.0304764
0.0328162
0.0350077
0.0370789
0.0390503
0.0409363
0.0427467
0.0444866
0.0461568
0.0477538
0.0492707
0.0506954
0.0520144
0.053214
0.0542828
0.0552128
0.0559996
0.00632588
0.0138901
0.0185718
0.0222216
0.0253439
0.0281304
0.0306795
0.0330505
0.0352838
0.0374081
0.0394448
0.0414097
0.0433132
0.0451605
0.0469512
0.0486792
0.0503327
0.0518937
0.0533413
0.0546553
0.0558196
0.0568244
0.0576666
0.00647411
0.0142241
0.0189324
0.0225825
0.0257038
0.0284951
0.0310573
0.0334518
0.0357205
0.0378942
0.0399966
0.0420458
0.044054
0.0460276
0.0479654
0.0498583
0.0516884
0.0534279
0.0550441
0.0565054
0.0577885
0.0588819
0.0597853
0.00667699
0.0146648
0.0194186
0.0230761
0.0261961
0.0289879
0.0315573
0.0339692
0.0362687
0.0384899
0.0406604
0.0428018
0.0449304
0.0470552
0.0491762
0.0512817
0.0533461
0.0553271
0.0571714
0.058827
0.060259
0.0614557
0.0624239
0.00690632
0.0151599
0.0199722
0.0236429
0.0267625
0.0295523
0.032125
0.0345501
0.0368772
0.0391452
0.0413868
0.0436297
0.0458963
0.0482018
0.0505511
0.0529332
0.0553146
0.0576319
0.0597949
0.0617111
0.0633281
0.0646395
0.0656689
0.00713325
0.0156542
0.0205334
0.0242231
0.0273447
0.0301325
0.0327064
0.035142
0.0374942
0.0398079
0.0421227
0.0444744
0.046895
0.0494113
0.0520405
0.054781
0.0575968
0.0603972
0.0630235
0.0652935
0.0671319
0.0685562
0.0696275
0.00732896
0.0160923
0.0210445
0.0247603
0.0278884
0.0306756
0.0332503
0.0356943
0.0380687
0.0404253
0.0428116
0.0452736
0.047857
0.0506074
0.0535666
0.0567613
0.0601745
0.0636931
0.0670351
0.0697854
0.0718618
0.0733631
0.0744275
0.00746587
0.0164232
0.0214553
0.0252055
0.0283455
0.0311348
0.0337103
0.0361605
0.038553
0.0409463
0.0433961
0.0459598
0.0487
0.0516884
0.0550084
0.0587481
0.0629662
0.0675895
0.0721559
0.0755284
0.077781
0.0792489
0.0802104
0.00779673
0.0166135
0.0217297
0.0255213
0.0286769
0.0314701
0.0340461
0.0365
0.0389047
0.0413245
0.0438222
0.0464655
0.0493337
0.052528
0.0561867
0.0605016
0.065719
0.0720484
0.0790929
0.0830833
0.0852197
0.0864101
0.0871138
0.036944
0.0171909
0.0218796
0.0256857
0.0288514
0.0316474
0.0342239
0.0366794
0.0390902
0.0415238
0.0440471
0.046734
0.0496745
0.0529915
0.0568695
0.0616112
0.0677568
0.0763632
0.0897343
0.0932794
0.0944733
0.0949809
0.0952419
0.0317211
0.0296437
0.030713
0.0350806
0.059914
0.0586209
0.0580096
0.0580031
0.0740781
0.0725909
0.0711389
0.0697823
0.0862685
0.0844187
0.0822215
0.0798998
0.0960888
0.0938511
0.0912886
0.0881847
0.0983847
0.0961998
0.0936552
0.0904864
0.100666
0.098567
0.0964111
0.0927515
0.102496
0.0991267
0.0953628
0.0914933
0.0989936
0.0950447
0.0915589
0.0886393
0.0924766
0.0896208
0.0870826
0.0848592
0.0863823
0.0844224
0.082578
0.0808537
0.0814888
0.0800588
0.0786582
0.0772937
0.0777063
0.0765973
0.0754907
0.0743915
0.0747171
0.0738344
0.0729464
0.0720564
0.0722127
0.0715138
0.0708062
0.0700919
0.0699724
0.0694326
0.0688814
0.0683194
0.0678683
0.067467
0.0670519
0.0666226
0.0658441
0.0655615
0.0652632
0.0649481
0.0638901
0.0637072
0.0635072
0.0632886
0.0620218
0.0619212
0.0618027
0.0616646
0.060266
0.0602328
0.0601811
0.060109
0.0586526
0.0586746
0.0586774
0.0586592
0.0572111
0.0572784
0.0573258
0.0573517
0.0559671
0.0560718
0.0561559
0.0562178
0.0549423
0.0550779
0.0551921
0.0552836
0.054154
0.0543155
0.0544547
0.0545706
0.053617
0.0538003
0.0539604
0.0540964
0.0533441
0.0535461
0.053724
0.0538769
0.0533479
0.0535665
0.0537598
0.0539273
0.0536424
0.0538762
0.0540835
0.0542639
0.054245
0.0544935
0.0547139
0.0549062
0.0551786
0.0554416
0.0556748
0.0558784
0.0564732
0.0567511
0.0569971
0.0572114
0.0581686
0.0584617
0.05872
0.0589446
0.0603163
0.060624
0.0608937
0.061127
0.0629818
0.0633017
0.0635799
0.0638189
0.0662461
0.0665725
0.0668534
0.0670926
0.070207
0.0705289
0.0708023
0.0710323
0.0749774
0.0752765
0.0755263
0.0757336
0.0806802
0.0809296
0.0811341
0.0813013
0.0874369
0.0876041
0.0877388
0.0878474
0.0953541
0.0954108
0.0954558
0.0954917
0.046684
0.0498638
0.0506569
0.0505493
0.0499139
0.0488668
0.0474665
0.0459127
0.0442381
0.042415
0.0405732
0.038826
0.0370925
0.0353197
0.0334343
0.0308825
0.0267696
0.0201562
0.00847358
0.0584191
0.0581557
0.0575433
0.0568481
0.0559031
0.0545435
0.0528965
0.0512362
0.0495331
0.047646
0.0455913
0.0435199
0.0414597
0.0393763
0.0372466
0.0346883
0.0307179
0.0242008
0.0108921
0.0677925
0.0654031
0.0636724
0.0626064
0.0614383
0.0596832
0.0575993
0.0556022
0.0537328
0.0517906
0.049665
0.0474948
0.0452635
0.0428659
0.0403639
0.0375755
0.0337086
0.0273492
0.013322
0.0765286
0.0722952
0.0692006
0.067904
0.0667389
0.0645351
0.0617775
0.0592219
0.0569735
0.0548192
0.0526124
0.0504786
0.0482621
0.045611
0.0427461
0.0396529
0.0358371
0.0297009
0.0149146
0.0821387
0.0765821
0.0727846
0.0708458
0.0694851
0.0673307
0.0644421
0.0615229
0.058924
0.0565063
0.054191
0.052061
0.0499391
0.0473248
0.0443587
0.0410038
0.0370085
0.0309597
0.0167433
0.0849347
0.0797616
0.0754555
0.0721156
0.0696054
0.0673132
0.0649532
0.0625393
0.0600457
0.057368
0.0548524
0.0524412
0.0499657
0.0473374
0.0445379
0.0412138
0.0368826
0.0303377
0.0162755
0.086482
0.0814396
0.0768181
0.0728459
0.0696574
0.0670308
0.0647225
0.0624808
0.060048
0.0573471
0.0547287
0.0521815
0.0494733
0.0465029
0.0433138
0.039695
0.035408
0.0284396
0.0145781
0.0862326
0.0812392
0.0767666
0.0728121
0.0693734
0.0665097
0.0642251
0.0620025
0.0595397
0.0567347
0.0539003
0.051129
0.048347
0.0453917
0.0419186
0.0377917
0.0328773
0.0255511
0.0128464
0.0845611
0.0799495
0.0756546
0.0718094
0.0684151
0.0655875
0.0632942
0.0610672
0.0585605
0.0556591
0.0526908
0.0497741
0.0468582
0.0438938
0.0405617
0.0365073
0.031455
0.0239291
0.0114692
0.0816321
0.0775663
0.0736798
0.0701596
0.0670615
0.0644057
0.0620715
0.0597397
0.0571435
0.0542222
0.0512048
0.0482232
0.0452648
0.0423023
0.0390285
0.0349351
0.0301005
0.0233757
0.0109779
0.0782454
0.0747887
0.0714861
0.0684465
0.0656937
0.0631913
0.0608091
0.0583456
0.0556451
0.0526885
0.0496072
0.0464991
0.0433832
0.0402473
0.036869
0.0327844
0.027896
0.0217026
0.010511
0.0751733
0.072294
0.0695377
0.0669443
0.0644918
0.0621143
0.0597045
0.0571436
0.0543555
0.0513353
0.0481426
0.0448229
0.0413901
0.0378329
0.0340373
0.0297395
0.0248608
0.0190348
0.00899384
0.0726567
0.070269
0.0679612
0.0657273
0.0635163
0.0612538
0.0588583
0.0562618
0.0534255
0.0503412
0.0470226
0.0434807
0.0397109
0.0356846
0.0313364
0.0265487
0.0213861
0.0157791
0.00756453
0.0706346
0.0686521
0.066701
0.0647517
0.0627426
0.0606034
0.0582718
0.0557049
0.0528775
0.0497739
0.0463839
0.0426986
0.038703
0.0343616
0.0296199
0.0244509
0.0190295
0.0134322
0.00616215
0.0689348
0.0672915
0.0656326
0.0639205
0.0620953
0.0600954
0.0578715
0.0553922
0.0526371
0.0495877
0.0462264
0.0425385
0.0385078
0.0341048
0.029294
0.0240996
0.0186744
0.0130071
0.00586721
0.0673926
0.0660416
0.0646341
0.063133
0.0614853
0.0596394
0.0575549
0.0552065
0.0525765
0.0496489
0.0464092
0.0428468
0.0389531
0.0347129
0.0301099
0.0251656
0.0199058
0.014121
0.00679377
0.0658983
0.0648042
0.0636209
0.0623148
0.0608414
0.0591577
0.0572304
0.0550379
0.0525655
0.0498017
0.0467379
0.0433713
0.0397029
0.0357313
0.0314518
0.0268558
0.0218534
0.0159835
0.00793834
0.0644006
0.0635333
0.0625524
0.0614281
0.0601236
0.0586032
0.0568391
0.0548123
0.0525108
0.0499267
0.0470572
0.043905
0.0404776
0.0367822
0.0328184
0.0285569
0.0238373
0.0180092
0.00896612
0.0628936
0.0622248
0.0614253
0.060469
0.0593247
0.0579628
0.0563593
0.0544976
0.0523674
0.0499634
0.0472861
0.0443416
0.0411401
0.0376915
0.0339937
0.0300008
0.0255081
0.0197371
0.00978702
0.0613988
0.0609015
0.0602625
0.0594583
0.0584626
0.05725
0.0557996
0.0540965
0.0521314
0.0499006
0.0474061
0.0446554
0.0416589
0.0384249
0.0349454
0.0311587
0.0268319
0.0211259
0.0104368
0.0599515
0.0596002
0.0591006
0.0584317
0.0575708
0.0564957
0.0551879
0.0536336
0.0518243
0.049757
0.0474339
0.0448621
0.0420507
0.0390028
0.0357027
0.032078
0.0278819
0.0222845
0.0110026
0.0585908
0.0583613
0.057981
0.0574304
0.0566895
0.0557386
0.0545611
0.0531442
0.0514797
0.0495644
0.0474001
0.0449924
0.0423477
0.0394653
0.0363199
0.0328229
0.0287133
0.0231435
0.0115401
0.0573564
0.0572272
0.0569464
0.0564968
0.0558602
0.0550192
0.0539586
0.0526666
0.0511351
0.0493604
0.047343
0.0450861
0.0425919
0.0398534
0.0368363
0.0334382
0.0293814
0.0237874
0.0119396
0.0562824
0.0562349
0.0560365
0.0556716
0.055124
0.0543784
0.0534209
0.0522403
0.0508285
0.049181
0.0472963
0.0451745
0.042813
0.0401978
0.0372854
0.0339617
0.0299321
0.0242825
0.0122058
0.0553971
0.0554161
0.0552849
0.05499
0.0545172
0.0538528
0.0529842
0.0519008
0.0505943
0.049059
0.0472911
0.045287
0.0430391
0.0405265
0.0376968
0.0344251
0.0304016
0.0246764
0.0123684
0.0547241
0.0547967
0.0547199
0.0544821
0.0540709
0.0534743
0.0526809
0.0516804
0.0504641
0.0490249
0.0473566
0.0454518
0.0432976
0.0408665
0.0380979
0.0348573
0.0308212
0.0250104
0.0124998
0.0542828
0.0543987
0.0543656
0.0541737
0.0538124
0.0532713
0.0525399
0.0516082
0.0504671
0.0491079
0.0475217
0.0456972
0.0436165
0.0412457
0.0385171
0.0352877
0.0312229
0.025324
0.0126535
0.0540906
0.0542416
0.0542433
0.0540878
0.0537663
0.0532697
0.0525884
0.0517126
0.0506324
0.0493376
0.0478164
0.0460538
0.0440268
0.0416958
0.0389864
0.0357486
0.0316394
0.0256453
0.0128168
0.0541641
0.0543437
0.0543732
0.0542464
0.0539563
0.0534949
0.0528534
0.0520221
0.0509903
0.0497457
0.0482739
0.046556
0.0445641
0.0422532
0.039543
0.0362769
0.0321042
0.025994
0.0129825
0.0545207
0.0547242
0.0547761
0.0546721
0.0544067
0.0539731
0.0533633
0.0525673
0.0515734
0.0503674
0.0489318
0.0472437
0.0452705
0.0429615
0.0402309
0.0369158
0.0326557
0.0263955
0.0131352
0.0551811
0.055405
0.0554753
0.0553896
0.0551441
0.0547332
0.0541492
0.053382
0.0524186
0.0512428
0.0498336
0.0481638
0.0461955
0.0438724
0.0411022
0.0377152
0.033339
0.026881
0.0132291
0.05617
0.0564119
0.0564978
0.0564274
0.0561988
0.0558075
0.0552463
0.0545047
0.0535682
0.0524182
0.0510301
0.0493716
0.0473987
0.045048
0.0422199
0.0387352
0.0342074
0.0274989
0.0133199
0.0575186
0.0577766
0.0578759
0.0578191
0.0576061
0.0572338
0.0566952
0.0559794
0.0550706
0.0539472
0.0525805
0.0509325
0.0489517
0.0465654
0.0436634
0.0400546
0.0353357
0.0283321
0.0136175
0.0592659
0.0595376
0.0596485
0.0596044
0.0594073
0.0590554
0.0585423
0.0578566
0.056981
0.0558912
0.0545538
0.052924
0.0509409
0.0485199
0.0455359
0.0417811
0.0368321
0.02948
0.0141715
0.0614596
0.0617417
0.0618621
0.0618303
0.0616506
0.0613227
0.0608408
0.0601934
0.0593619
0.0583192
0.0570275
0.0554344
0.0534679
0.0510277
0.0479679
0.0440555
0.0388381
0.0310523
0.0149359
0.0641577
0.0644447
0.0645716
0.0645515
0.0643915
0.0640928
0.0636504
0.0630529
0.0622812
0.0613061
0.0600859
0.058561
0.0566471
0.0542241
0.0511172
0.0470548
0.0415389
0.0332067
0.0159587
0.0674289
0.0677123
0.0678408
0.0678316
0.0676939
0.0674305
0.0670374
0.0665041
0.0658116
0.0649303
0.0638163
0.0624044
0.0605987
0.0582571
0.0551665
0.0509945
0.0451603
0.0361411
0.0173441
0.0713525
0.07162
0.0717437
0.0717435
0.0716305
0.0714086
0.0710751
0.0706209
0.0700286
0.0692704
0.068303
0.0670597
0.0654375
0.0632745
0.0603125
0.0561303
0.0499871
0.0401083
0.0193545
0.0760189
0.0762546
0.0763649
0.076371
0.0762842
0.0761091
0.0758444
0.0754828
0.0750102
0.0744029
0.0736225
0.0726076
0.0712571
0.0694008
0.0667415
0.0627436
0.0564071
0.0454602
0.0220754
0.0815287
0.0817143
0.081802
0.0818108
0.0817506
0.0816259
0.0814363
0.0811772
0.0808386
0.0804032
0.0798422
0.079107
0.0781134
0.0767063
0.0745831
0.0711139
0.0648995
0.0525533
0.0257552
0.0879935
0.0881118
0.0881682
0.0881756
0.0881411
0.0880678
0.0879561
0.0878037
0.0876052
0.087351
0.0870248
0.0865979
0.0860174
0.0851773
0.0838385
0.0813903
0.076028
0.0613702
0.0304472
0.0955397
0.0955782
0.0955965
0.0955988
0.0955878
0.0955644
0.0955291
0.0954813
0.0954197
0.095342
0.0952439
0.095118
0.0949503
0.0947096
0.0943096
0.0934304
0.0904622
0.0703478
0.0354376
)
;

boundaryField
{
    leftWall
    {
        type            kqRWallFunction;
        value           nonuniform List<scalar> 
50
(
0.00136853
0.00324463
0.00480944
0.00618717
0.00742656
0.00857988
0.00968496
0.0107701
0.0125064
0.0145458
0.0168062
0.020228
0.0252816
0.0287249
0.0297563
0.0271078
0.0233064
0.0192477
0.0183067
0.0223041
0.0247083
0.0249921
0.024234
0.0229774
0.0214656
0.0197943
0.0179965
0.0161898
0.0145715
0.0130928
0.0117789
0.0106496
0.00969734
0.00889351
0.00820707
0.00761833
0.00712325
0.00673017
0.0064518
0.00629587
0.00625889
0.00632588
0.00647411
0.00667699
0.00690632
0.00713325
0.00732896
0.00746587
0.00779673
0.036944
)
;
    }
    rightWall
    {
        type            kqRWallFunction;
        value           nonuniform List<scalar> 
50
(
0.00154785
0.00298247
0.00394559
0.00469713
0.00532677
0.00578091
0.00632128
0.00702376
0.00847358
0.0108921
0.013322
0.0149146
0.0167433
0.0162755
0.0145781
0.0128464
0.0114692
0.0109779
0.010511
0.00899384
0.00756453
0.00616215
0.00586721
0.00679377
0.00793834
0.00896612
0.00978702
0.0104368
0.0110026
0.0115401
0.0119396
0.0122058
0.0123684
0.0124998
0.0126535
0.0128168
0.0129825
0.0131352
0.0132291
0.0133199
0.0136175
0.0141715
0.0149359
0.0159587
0.0173441
0.0193545
0.0220754
0.0257552
0.0304472
0.0354376
)
;
    }
    lowerWall
    {
        type            kqRWallFunction;
        value           nonuniform List<scalar> 
62
(
0.00136853
0.00394763
0.00586949
0.00738776
0.00864074
0.00968586
0.0105568
0.0112808
0.011883
0.0123835
0.0127946
0.0131213
0.013382
0.0135717
0.0136634
0.0136124
0.013307
0.0126736
0.0120308
0.011213
0.00965337
0.00671788
0.0023953
0.0023953
0.00568816
0.00773874
0.00946957
0.0112918
0.01375
0.0182684
0.0270738
0.0317211
0.0296437
0.030713
0.0350806
0.001999
0.00539315
0.00787661
0.01047
0.0134568
0.0172122
0.0225637
0.0312829
0.001999
0.00627512
0.00843479
0.00937871
0.00968554
0.00965821
0.00917422
0.00811136
0.00694589
0.0064246
0.006622
0.0066919
0.00634695
0.00630208
0.00643048
0.00605181
0.00470474
0.00304333
0.00154785
)
;
    }
    atmosphere
    {
        type            inletOutlet;
        inletValue      uniform 0.1;
        value           nonuniform List<scalar> 
46
(
0.1
0.0171909
0.0218796
0.0256857
0.0288514
0.0316474
0.0342239
0.0366794
0.0390902
0.0415238
0.0440471
0.046734
0.0496745
0.0529915
0.0568695
0.0616112
0.0677568
0.0763632
0.1
0.1
0.1
0.1
0.1
0.1
0.1
0.1
0.1
0.1
0.1
0.1
0.1
0.1
0.1
0.1
0.1
0.1
0.1
0.1
0.1
0.1
0.1
0.1
0.1
0.1
0.0703478
0.0354376
)
;
    }
    defaultFaces
    {
        type            empty;
    }
}


// ************************************************************************* //
