/*--------------------------------*- C++ -*----------------------------------*\
  =========                 |
  \\      /  F ield         | OpenFOAM: The Open Source CFD Toolbox
   \\    /   O peration     | Website:  https://openfoam.org
    \\  /    A nd           | Version:  9
     \\/     M anipulation  |
\*---------------------------------------------------------------------------*/
FoamFile
{
    format      ascii;
    class       surfaceScalarField;
    location    "2.52";
    object      phi;
}
// * * * * * * * * * * * * * * * * * * * * * * * * * * * * * * * * * * * * * //

dimensions      [0 3 -1 0 0 0 0];

internalField   nonuniform List<scalar> 
4432
(
-1.733e-07
1.733e-07
-6.49932e-07
4.76625e-07
-1.30323e-06
6.5331e-07
-1.96428e-06
6.61047e-07
-2.57876e-06
6.14477e-07
-3.12456e-06
5.45805e-07
-3.59411e-06
4.69546e-07
-3.98471e-06
3.90597e-07
-4.29279e-06
3.08085e-07
-4.51197e-06
2.19185e-07
-4.63426e-06
1.22286e-07
-4.6494e-06
1.51467e-08
-4.53939e-06
-1.1001e-07
-4.27494e-06
-2.64451e-07
-3.81544e-06
-4.59504e-07
-3.14481e-06
-6.70629e-07
-2.45354e-06
-6.91265e-07
-2.05227e-06
-4.01271e-07
-1.46835e-06
-5.83912e-07
-2.60519e-07
-1.20784e-06
1.19763e-06
-1.45815e-06
1.61611e-06
-4.18488e-07
1.61611e-06
-3.54174e-07
5.27483e-07
-9.2087e-07
1.04331e-06
-1.59913e-06
1.33158e-06
-2.28523e-06
1.34715e-06
-2.92241e-06
1.25166e-06
-3.48706e-06
1.11045e-06
-3.96897e-06
9.51454e-07
-4.36237e-06
7.84005e-07
-4.66181e-06
6.07534e-07
-4.86137e-06
4.18744e-07
-4.9558e-06
2.16715e-07
-4.94083e-06
1.75621e-10
-4.81127e-06
-2.39574e-07
-4.55657e-06
-5.19155e-07
-4.16799e-06
-8.48081e-07
-3.65599e-06
-1.18263e-06
-3.07482e-06
-1.27243e-06
-2.41321e-06
-1.06289e-06
-1.59664e-06
-1.40048e-06
-6.42025e-07
-2.16246e-06
4.07771e-07
-2.50795e-06
9.44881e-07
-9.55611e-07
2.561e-06
-5.00265e-07
1.02776e-06
-1.12624e-06
1.66927e-06
-1.80941e-06
2.01476e-06
-2.49076e-06
2.0285e-06
-3.12302e-06
1.88393e-06
-3.68342e-06
1.67085e-06
-4.1602e-06
1.42823e-06
-4.54568e-06
1.16948e-06
-4.83343e-06
8.95285e-07
-5.01796e-06
6.03273e-07
-5.09567e-06
2.94424e-07
-5.06485e-06
-3.06506e-08
-4.92578e-06
-3.78656e-07
-4.68038e-06
-7.64558e-07
-4.33684e-06
-1.19163e-06
-3.91204e-06
-1.60743e-06
-3.37383e-06
-1.81065e-06
-2.66308e-06
-1.77364e-06
-1.85935e-06
-2.20423e-06
-1.00499e-06
-3.01682e-06
-1.7165e-07
-3.34128e-06
4.43107e-07
-1.57037e-06
3.00412e-06
-6.21934e-07
1.6497e-06
-1.30892e-06
2.35625e-06
-2.00771e-06
2.71355e-06
-2.68666e-06
2.70745e-06
-3.31168e-06
2.50895e-06
-3.86349e-06
2.22266e-06
-4.33032e-06
1.89507e-06
-4.70355e-06
1.5427e-06
-4.97616e-06
1.1679e-06
-5.14302e-06
7.70136e-07
-5.20202e-06
3.53415e-07
-5.15409e-06
-7.85843e-08
-5.0039e-06
-5.28842e-07
-4.76053e-06
-1.00793e-06
-4.43982e-06
-1.51235e-06
-4.05658e-06
-1.99067e-06
-3.56374e-06
-2.3035e-06
-2.88379e-06
-2.45359e-06
-2.13702e-06
-2.951e-06
-1.40976e-06
-3.74409e-06
-7.20896e-07
-4.03014e-06
2.87503e-09
-2.29413e-06
3.007e-06
-7.26552e-07
2.37626e-06
-1.47702e-06
3.10671e-06
-2.19997e-06
3.43651e-06
-2.88127e-06
3.38875e-06
-3.49998e-06
3.12766e-06
-4.04208e-06
2.76476e-06
-4.49692e-06
2.34991e-06
-4.8555e-06
1.90129e-06
-5.11056e-06
1.42295e-06
-5.25728e-06
9.16868e-07
-5.29495e-06
3.91079e-07
-5.22682e-06
-1.46705e-07
-5.06105e-06
-6.94616e-07
-4.81065e-06
-1.25832e-06
-4.4945e-06
-1.8285e-06
-4.12494e-06
-2.36023e-06
-3.6669e-06
-2.76154e-06
-3.05993e-06
-3.06056e-06
-2.41569e-06
-3.59523e-06
-1.85673e-06
-4.30305e-06
-1.3092e-06
-4.57766e-06
-5.08116e-07
-3.09521e-06
2.49887e-06
-8.22628e-07
3.19889e-06
-1.63552e-06
3.9196e-06
-2.38629e-06
4.18728e-06
-3.07322e-06
4.07568e-06
-3.68687e-06
3.74131e-06
-4.21903e-06
3.29692e-06
-4.66067e-06
2.79156e-06
-5.0028e-06
2.24342e-06
-5.23805e-06
1.6582e-06
-5.36202e-06
1.04084e-06
-5.37529e-06
4.04358e-07
-5.28313e-06
-2.38872e-07
-5.09635e-06
-8.81388e-07
-4.83033e-06
-1.52434e-06
-4.50542e-06
-2.1534e-06
-4.13542e-06
-2.73023e-06
-3.69979e-06
-3.19717e-06
-3.17534e-06
-3.585e-06
-2.66761e-06
-4.10295e-06
-2.28971e-06
-4.68095e-06
-1.96008e-06
-4.90728e-06
-1.23916e-06
-3.81614e-06
1.25971e-06
-9.16747e-07
4.11564e-06
-1.78657e-06
4.78941e-06
-2.5641e-06
4.96481e-06
-3.25776e-06
4.76934e-06
-3.86708e-06
4.35063e-06
-4.38922e-06
3.81905e-06
-4.81676e-06
3.21909e-06
-5.14077e-06
2.56743e-06
-5.35395e-06
1.87138e-06
-5.45247e-06
1.13936e-06
-5.43822e-06
3.90107e-07
-5.31814e-06
-3.58956e-07
-5.10533e-06
-1.0942e-06
-4.81679e-06
-1.81288e-06
-4.47458e-06
-2.49562e-06
-4.0968e-06
-3.10801e-06
-3.68103e-06
-3.61294e-06
-3.2324e-06
-4.03363e-06
-2.85245e-06
-4.4829e-06
-2.65745e-06
-4.87595e-06
-2.62126e-06
-4.94346e-06
-2.22647e-06
-4.21092e-06
-9.6675e-07
-1.00887e-06
5.12451e-06
-1.92751e-06
5.70805e-06
-2.72795e-06
5.76525e-06
-3.42759e-06
5.46897e-06
-4.03281e-06
4.95585e-06
-4.54501e-06
4.33125e-06
-4.95779e-06
3.63188e-06
-5.26219e-06
2.87183e-06
-5.45118e-06
2.06037e-06
-5.52178e-06
1.20996e-06
-5.47737e-06
3.45691e-07
-5.32628e-06
-5.10042e-07
-5.08377e-06
-1.33671e-06
-4.7682e-06
-2.12844e-06
-4.40403e-06
-2.85979e-06
-4.01544e-06
-3.49661e-06
-3.61642e-06
-4.01196e-06
-3.23151e-06
-4.41854e-06
-2.95863e-06
-4.75579e-06
-2.91726e-06
-4.91732e-06
-3.15438e-06
-4.70635e-06
-3.17397e-06
-4.19134e-06
-4.14073e-06
7.10077e-07
-7.10077e-07
3.2309e-06
-2.52082e-06
5.46585e-06
-2.23495e-06
6.8062e-06
-1.34035e-06
7.46389e-06
-6.57687e-07
7.85446e-06
-3.90568e-07
7.84743e-06
7.02211e-09
5.9308e-06
1.91663e-06
2.6714e-06
3.25941e-06
1.49836e-07
2.52157e-06
-8.64322e-07
1.01415e-06
-1.23312e-06
3.68797e-07
-2.57296e-06
1.33983e-06
-3.18112e-06
6.08166e-07
-2.11026e-06
-1.07086e-06
-2.53379e-07
-1.85688e-06
7.57982e-07
-1.01136e-06
5.21054e-07
2.36928e-07
5.21054e-07
2.01014e-06
-2.72021e-06
3.73263e-06
-4.24331e-06
4.93189e-06
-3.43422e-06
5.62018e-06
-2.02863e-06
5.94175e-06
-9.79249e-07
6.10484e-06
-5.53664e-07
5.9815e-06
1.30365e-07
4.86586e-06
3.03228e-06
2.77726e-06
5.34801e-06
8.18286e-07
4.48055e-06
-4.03512e-07
2.23595e-06
-1.12757e-06
1.09286e-06
-1.92843e-06
2.14068e-06
-2.32893e-06
1.00867e-06
-1.72284e-06
-1.67695e-06
-4.2757e-07
-3.15215e-06
4.40734e-07
-1.87967e-06
6.22651e-07
5.50113e-08
1.1437e-06
2.48426e-06
-5.20447e-06
3.58621e-06
-5.34525e-06
4.17557e-06
-4.02358e-06
4.48854e-06
-2.3416e-06
4.58611e-06
-1.07682e-06
4.5968e-06
-5.6435e-07
4.43116e-06
2.96007e-07
3.66515e-06
3.7983e-06
2.38515e-06
6.62802e-06
1.03578e-06
5.82993e-06
-5.05982e-08
3.32232e-06
-8.27001e-07
1.86927e-06
-1.39125e-06
2.70493e-06
-1.76904e-06
1.38647e-06
-1.4775e-06
-1.9685e-06
-5.88418e-07
-4.04123e-06
1.61154e-07
-2.62924e-06
5.57589e-07
-3.41429e-07
1.70128e-06
2.28064e-06
-7.48511e-06
2.95062e-06
-6.01523e-06
3.22179e-06
-4.29474e-06
3.31786e-06
-2.43767e-06
3.26999e-06
-1.02893e-06
3.21103e-06
-5.05394e-07
3.12554e-06
3.81498e-07
2.71888e-06
4.20497e-06
1.98927e-06
7.35763e-06
1.14928e-06
6.66993e-06
2.84039e-07
4.18756e-06
-4.28245e-07
2.58156e-06
-9.00565e-07
3.17724e-06
-1.29264e-06
1.77855e-06
-1.38202e-06
-1.87912e-06
-8.91522e-07
-4.53173e-06
-1.05931e-07
-3.41483e-06
4.14885e-07
-8.62249e-07
2.11617e-06
1.57194e-06
-9.05705e-06
1.94928e-06
-6.39256e-06
2.08963e-06
-4.43508e-06
2.08722e-06
-2.43526e-06
1.95611e-06
-8.97818e-07
1.86737e-06
-4.16653e-07
1.91455e-06
3.3431e-07
1.84057e-06
4.27895e-06
1.70404e-06
7.49415e-06
1.26685e-06
7.10711e-06
6.69913e-07
4.78449e-06
6.5349e-08
3.18612e-06
-4.0836e-07
3.65095e-06
-9.03618e-07
2.27381e-06
-1.36891e-06
-1.41383e-06
-1.35252e-06
-4.54812e-06
-4.64003e-07
-4.30335e-06
3.54311e-07
-1.68056e-06
2.47048e-06
5.31672e-07
-9.58871e-06
7.18761e-07
-6.57965e-06
8.3692e-07
-4.55323e-06
8.20039e-07
-2.41837e-06
6.58474e-07
-7.36251e-07
5.48307e-07
-3.06482e-07
6.89625e-07
1.9299e-07
1.02352e-06
3.94505e-06
1.44144e-06
7.07622e-06
1.44185e-06
7.10671e-06
1.11849e-06
5.10785e-06
6.21145e-07
3.68346e-06
8.86139e-08
4.18348e-06
-5.67797e-07
2.93022e-06
-1.28105e-06
-7.00587e-07
-1.67585e-06
-4.15332e-06
-1.14667e-06
-4.83253e-06
-1.17999e-07
-2.70923e-06
2.35249e-06
-6.76805e-07
-8.91191e-06
-6.12428e-07
-6.64403e-06
-4.73257e-07
-4.6924e-06
-4.47909e-07
-2.44372e-06
-5.7867e-07
-6.05486e-07
-6.75973e-07
-2.09172e-07
-4.61194e-07
-2.17855e-08
3.17983e-07
3.16588e-06
1.14496e-06
6.24925e-06
1.59837e-06
6.65329e-06
1.63169e-06
5.07453e-06
1.16957e-06
4.14559e-06
5.72043e-07
4.781e-06
-1.96934e-07
3.6992e-06
-1.05652e-06
1.58995e-07
-1.70414e-06
-3.5057e-06
-1.80827e-06
-4.7284e-06
-9.95397e-07
-3.5221e-06
1.35709e-06
-1.88144e-06
-7.03047e-06
-1.9614e-06
-6.56406e-06
-1.79203e-06
-4.86177e-06
-1.68301e-06
-2.55274e-06
-1.70531e-06
-5.83195e-07
-1.69422e-06
-2.20264e-07
-1.35823e-06
-3.57777e-07
-3.21825e-07
2.12947e-06
8.53848e-07
5.07357e-06
1.71328e-06
5.79387e-06
1.99241e-06
4.7954e-06
1.6037e-06
4.5343e-06
1.02387e-06
5.36084e-06
2.4103e-07
4.48204e-06
-6.57495e-07
1.05752e-06
-1.44599e-06
-2.7172e-06
-1.95563e-06
-4.21877e-06
-1.74805e-06
-3.72969e-06
-3.90968e-07
-2.37879e-06
7.5033e-06
-4.48471e-06
7.81396e-06
-6.2696e-06
7.55013e-06
-7.77516e-06
6.97453e-06
-9.04881e-06
6.22951e-06
-1.0108e-05
5.39043e-06
-1.09372e-05
4.4611e-06
-1.15161e-05
3.45069e-06
-1.18324e-05
2.37665e-06
-1.18831e-05
1.2607e-06
-1.16848e-05
1.4735e-07
-1.12546e-05
-9.40252e-07
-1.06349e-05
-1.95638e-06
-9.86844e-06
-2.89492e-06
-9.01636e-06
-3.71187e-06
-8.15255e-06
-4.36041e-06
-7.35297e-06
-4.81154e-06
-6.70761e-06
-5.0639e-06
-6.41097e-06
-5.05242e-06
-6.7065e-06
-4.62179e-06
-7.74394e-06
-3.66892e-06
-9.30753e-06
-2.62774e-06
-2.40496e-06
-1.10433e-05
-2.39695e-06
9.90025e-06
-4.61795e-06
1.0035e-05
-6.47624e-06
9.40842e-06
-8.02109e-06
8.51938e-06
-9.31286e-06
7.52127e-06
-1.03656e-05
6.44313e-06
-1.11443e-05
5.23981e-06
-1.16281e-05
3.93453e-06
-1.18191e-05
2.56764e-06
-1.17235e-05
1.16511e-06
-1.14109e-05
-1.65295e-07
-1.08441e-05
-1.50701e-06
-1.0104e-05
-2.69649e-06
-9.2379e-06
-3.76098e-06
-8.32027e-06
-4.6295e-06
-7.43103e-06
-5.24965e-06
-6.68099e-06
-5.56158e-06
-6.19094e-06
-5.55396e-06
-6.15251e-06
-5.09086e-06
-6.69784e-06
-4.07648e-06
-7.76239e-06
-2.60438e-06
-9.01852e-06
-1.37161e-06
-1.33312e-06
-1.00904e-05
-2.32778e-06
1.2228e-05
-4.23277e-06
1.19399e-05
-6.01863e-06
1.11943e-05
-7.67536e-06
1.01761e-05
-9.11352e-06
8.95943e-06
-1.02355e-05
7.56516e-06
-1.09887e-05
5.99299e-06
-1.13825e-05
4.32831e-06
-1.14282e-05
2.61334e-06
-1.1188e-05
9.24884e-07
-1.07289e-05
-6.24414e-07
-1.00763e-05
-2.15966e-06
-9.25442e-06
-3.51839e-06
-8.34965e-06
-4.66577e-06
-7.44788e-06
-5.53128e-06
-6.52607e-06
-6.17147e-06
-5.66893e-06
-6.41873e-06
-5.09887e-06
-6.12403e-06
-5.22071e-06
-4.96901e-06
-6.24886e-06
-3.04832e-06
-7.76414e-06
-1.08908e-06
-9.11575e-06
-1.99705e-08
-1.01868e-06
-9.43018e-06
-2.65117e-06
1.48792e-05
-2.84467e-06
1.21334e-05
-4.2515e-06
1.26011e-05
-6.56108e-06
1.24857e-05
-8.58246e-06
1.09808e-05
-9.87159e-06
8.85435e-06
-1.04773e-05
6.59872e-06
-1.0849e-05
4.70002e-06
-1.06692e-05
2.43359e-06
-1.00579e-05
3.13708e-07
-9.51605e-06
-1.16624e-06
-8.77041e-06
-2.90531e-06
-7.80226e-06
-4.48655e-06
-6.9922e-06
-5.47585e-06
-6.71507e-06
-5.80844e-06
-5.88303e-06
-7.00354e-06
-4.46825e-06
-7.83352e-06
-3.01137e-06
-7.58089e-06
-2.94188e-06
-5.03852e-06
-5.58271e-06
-4.07535e-07
-1.01413e-05
3.46951e-06
-1.38916e-05
3.73021e-06
-3.61699e-06
-1.12934e-05
-9.11849e-06
2.39977e-05
-2.32294e-06
5.33788e-06
-1.45236e-06
1.17306e-05
-9.08408e-06
2.01174e-05
-1.75159e-05
1.94127e-05
-2.17773e-05
1.31157e-05
-1.90221e-05
3.84349e-06
-1.70746e-05
2.75245e-06
-1.69169e-05
2.27582e-06
-1.68922e-05
2.88926e-07
-1.69723e-05
-1.08617e-06
-1.4416e-05
-5.46167e-06
-9.67798e-06
-9.2245e-06
-5.53942e-06
-9.6144e-06
-2.9054e-06
-8.44248e-06
-1.08875e-06
-8.82021e-06
2.38688e-06
-1.13092e-05
6.05694e-06
-1.12509e-05
7.52602e-06
-6.50754e-06
1.57923e-06
5.53929e-06
-1.52991e-05
2.03478e-05
-2.37168e-05
1.21481e-05
-1.36275e-05
-1.37059e-05
-1.18438e-05
3.58413e-05
-9.63263e-06
3.12665e-06
-8.91603e-06
1.10139e-05
-1.69538e-05
2.81553e-05
-2.47526e-05
2.72114e-05
-2.35023e-05
1.18654e-05
-2.12527e-05
1.59387e-06
-1.87246e-05
2.24346e-07
-1.70769e-05
6.28153e-07
-1.70921e-05
3.04082e-07
-1.78408e-05
-3.37647e-07
-1.62781e-05
-7.02438e-06
-1.2655e-05
-1.28476e-05
-9.7833e-06
-1.24861e-05
-6.78926e-06
-1.14365e-05
-4.43809e-06
-1.11714e-05
-1.21986e-06
-1.45274e-05
3.04133e-07
-1.27749e-05
-1.94587e-06
-4.25753e-06
-6.8347e-06
1.04281e-05
-1.00668e-05
2.35798e-05
-1.0981e-05
1.3062e-05
-1.66487e-05
-7.95975e-06
-9.81777e-06
4.56592e-05
-1.38295e-05
7.13836e-06
-1.52628e-05
1.24471e-05
-1.3873e-05
2.67654e-05
-1.21971e-05
2.55355e-05
-1.24794e-05
1.21476e-05
-1.37557e-05
2.87013e-06
-1.46062e-05
1.07483e-06
-1.37344e-05
-2.43548e-07
-1.25851e-05
-8.45225e-07
-1.50036e-05
2.08088e-06
-1.65969e-05
-5.43109e-06
-1.56699e-05
-1.37747e-05
-1.64194e-05
-1.17366e-05
-1.8267e-05
-9.58892e-06
-1.50008e-05
-1.44376e-05
-1.25741e-05
-1.6954e-05
-1.01323e-05
-1.52168e-05
-8.78433e-06
-5.60556e-06
-5.90162e-06
7.54547e-06
4.02658e-07
1.72759e-05
1.21361e-06
1.22509e-05
-1.45578e-05
-8.77335e-07
-6.93733e-07
4.63529e-05
-6.30505e-06
1.27497e-05
-9.91899e-06
1.6061e-05
-6.94696e-06
2.37934e-05
-2.75999e-06
2.13486e-05
-2.56067e-06
1.19483e-05
-5.82775e-06
6.13724e-06
-1.03439e-05
5.59106e-06
-1.19342e-05
1.34682e-06
-1.1947e-05
-8.32511e-07
-1.20163e-05
2.15019e-06
-1.55048e-05
-1.94248e-06
-2.27864e-05
-6.49309e-06
-2.87216e-05
-5.80159e-06
-2.84751e-05
-9.8355e-06
-2.63311e-05
-1.65816e-05
-2.41814e-05
-1.91037e-05
-2.17489e-05
-1.76493e-05
-1.66539e-05
-1.07007e-05
-7.34523e-06
-1.76343e-06
5.08802e-06
4.84276e-06
8.44938e-06
8.88954e-06
-7.86203e-06
1.75357e-06
1.56793e-05
3.06735e-05
9.24916e-06
1.91798e-05
1.32172e-06
2.39885e-05
3.53845e-07
2.47612e-05
2.55503e-06
1.91474e-05
2.78121e-06
1.17222e-05
-3.31272e-06
1.22313e-05
-8.1346e-06
1.04129e-05
-1.28723e-05
6.08443e-06
-1.71072e-05
3.40236e-06
-1.86403e-05
3.68336e-06
-2.18151e-05
1.23236e-06
-2.63183e-05
-1.98986e-06
-2.80023e-05
-4.11753e-06
-2.81072e-05
-9.73064e-06
-2.82254e-05
-1.64634e-05
-2.77885e-05
-1.95406e-05
-2.65524e-05
-1.88854e-05
-2.26244e-05
-1.46289e-05
-1.62663e-05
-8.1217e-06
-9.88687e-06
-1.53659e-06
-4.31436e-06
3.31709e-06
-5.26787e-06
-6.90851e-06
1.95695e-05
1.11039e-05
1.79562e-05
2.0793e-05
1.08403e-05
3.11043e-05
5.71555e-06
2.98858e-05
3.2638e-06
2.15991e-05
-2.16121e-06
1.71471e-05
-6.60949e-06
1.66795e-05
-1.06583e-05
1.44615e-05
-1.48713e-05
1.02974e-05
-1.86268e-05
7.15773e-06
-2.0593e-05
5.64938e-06
-2.25038e-05
3.14322e-06
-2.43817e-05
-1.11926e-07
-2.47606e-05
-3.73843e-06
-2.52745e-05
-9.2167e-06
-2.69026e-05
-1.48353e-05
-2.84995e-05
-1.79436e-05
-2.92554e-05
-1.81295e-05
-2.81321e-05
-1.57521e-05
-2.49883e-05
-1.12655e-05
-2.13674e-05
-5.15757e-06
-1.53561e-05
-2.69424e-06
-5.38679e-06
-1.52371e-05
8.67469e-06
2.42915e-06
7.51184e-06
2.19557e-05
5.14264e-06
3.34733e-05
2.75078e-06
3.22776e-05
-1.52932e-06
2.58791e-05
-6.10363e-06
2.17213e-05
-9.31939e-06
1.9895e-05
-1.19359e-05
1.70779e-05
-1.49039e-05
1.32654e-05
-1.76713e-05
9.9251e-06
-1.93975e-05
7.37575e-06
-2.06992e-05
4.44498e-06
-2.17453e-05
9.3428e-07
-2.23399e-05
-3.14372e-06
-2.34527e-05
-8.10377e-06
-2.54573e-05
-1.28306e-05
-2.7631e-05
-1.577e-05
-2.91729e-05
-1.65876e-05
-2.95898e-05
-1.53352e-05
-2.85695e-05
-1.22858e-05
-2.51854e-05
-8.5417e-06
-2.14682e-05
-6.41161e-06
-6.91586e-06
-1.99391e-05
-2.43123e-06
4.86039e-06
-3.36262e-06
2.28869e-05
-2.58048e-06
3.26911e-05
-2.85256e-06
3.25496e-05
-5.20515e-06
2.82316e-05
-8.08627e-06
2.46024e-05
-1.0118e-05
2.19267e-05
-1.18338e-05
1.87936e-05
-1.37624e-05
1.51938e-05
-1.56155e-05
1.17781e-05
-1.69368e-05
8.69709e-06
-1.79249e-05
5.43312e-06
-1.87624e-05
1.77176e-06
-1.95969e-05
-2.30918e-06
-2.09549e-05
-6.74578e-06
-2.29788e-05
-1.08067e-05
-2.51622e-05
-1.35866e-05
-2.69771e-05
-1.47728e-05
-2.79371e-05
-1.43753e-05
-2.75765e-05
-1.26465e-05
-2.57313e-05
-1.03868e-05
-2.33e-05
-8.84294e-06
-8.58603e-06
-2.16298e-05
-6.55701e-06
1.14173e-05
-8.45988e-06
2.47897e-05
-7.30074e-06
3.1532e-05
-6.60857e-06
3.18575e-05
-7.44201e-06
2.9065e-05
-8.78913e-06
2.59495e-05
-9.86755e-06
2.30051e-05
-1.08674e-05
1.97934e-05
-1.20062e-05
1.63324e-05
-1.3143e-05
1.29148e-05
-1.40575e-05
9.61144e-06
-1.4818e-05
6.19356e-06
-1.55746e-05
2.52825e-06
-1.65077e-05
-1.37605e-06
-1.78923e-05
-5.36116e-06
-1.97541e-05
-8.94485e-06
-2.17603e-05
-1.15804e-05
-2.35146e-05
-1.30185e-05
-2.46345e-05
-1.32554e-05
-2.47792e-05
-1.25017e-05
-2.38883e-05
-1.12777e-05
-2.24273e-05
-1.03039e-05
-9.91843e-06
-2.10949e-05
-7.40869e-06
1.88258e-05
-9.67516e-06
2.70562e-05
-9.10338e-06
3.09602e-05
-8.32769e-06
3.10818e-05
-8.28996e-06
2.90273e-05
-8.63487e-06
2.62943e-05
-8.99909e-06
2.33693e-05
-9.41496e-06
2.02091e-05
-9.9574e-06
1.68747e-05
-1.05571e-05
1.35144e-05
-1.11154e-05
1.01697e-05
-1.16676e-05
6.74579e-06
-1.23227e-05
3.18334e-06
-1.32179e-05
-4.80894e-07
-1.44896e-05
-4.08937e-06
-1.61142e-05
-7.32025e-06
-1.7864e-05
-9.83044e-06
-1.94459e-05
-1.14365e-05
-2.05736e-05
-1.21277e-05
-2.10169e-05
-1.20584e-05
-2.07315e-05
-1.15631e-05
-1.99715e-05
-1.1064e-05
-1.07881e-05
-1.91018e-05
-6.68897e-06
2.55148e-05
-9.05456e-06
2.94218e-05
-9.06344e-06
3.09691e-05
-8.4673e-06
3.04856e-05
-8.04908e-06
2.86089e-05
-7.83274e-06
2.60779e-05
-7.70634e-06
2.32427e-05
-7.68079e-06
2.01835e-05
-7.7843e-06
1.69782e-05
-7.98724e-06
1.37173e-05
-8.25171e-06
1.04341e-05
-8.60515e-06
7.09928e-06
-9.12236e-06
3.70061e-06
-9.89206e-06
2.88808e-07
-1.0978e-05
-3.00349e-06
-1.23396e-05
-5.95857e-06
-1.38164e-05
-8.3536e-06
-1.51952e-05
-1.00577e-05
-1.62661e-05
-1.10568e-05
-1.68705e-05
-1.1454e-05
-1.69725e-05
-1.14612e-05
-1.67037e-05
-1.13327e-05
-1.12302e-05
-1.62616e-05
-5.45602e-06
3.09709e-05
-7.63915e-06
3.1605e-05
-7.96184e-06
3.12918e-05
-7.55082e-06
3.00745e-05
-7.01229e-06
2.80702e-05
-6.51786e-06
2.55833e-05
-6.09092e-06
2.28157e-05
-5.76433e-06
1.98568e-05
-5.56241e-06
1.67762e-05
-5.4814e-06
1.36362e-05
-5.5149e-06
1.04676e-05
-5.68804e-06
7.27243e-06
-6.0515e-06
4.06409e-06
-6.65883e-06
8.96116e-07
-7.53618e-06
-2.1262e-06
-8.64197e-06
-4.85285e-06
-9.86061e-06
-7.135e-06
-1.10388e-05
-8.8795e-06
-1.20249e-05
-1.00708e-05
-1.27058e-05
-1.07731e-05
-1.30481e-05
-1.11188e-05
-1.31148e-05
-1.12661e-05
-1.13305e-05
-1.30145e-05
-4.11857e-06
3.50895e-05
-5.90815e-06
3.33946e-05
-6.29375e-06
3.16774e-05
-5.98869e-06
2.97694e-05
-5.43143e-06
2.75129e-05
-4.81814e-06
2.49699e-05
-4.2309e-06
2.22283e-05
-3.72218e-06
1.9348e-05
-3.32474e-06
1.63787e-05
-3.05232e-06
1.33637e-05
-2.91544e-06
1.03307e-05
-2.93822e-06
7.29518e-06
-3.15591e-06
4.28177e-06
-3.60024e-06
1.34045e-06
-4.27928e-06
-1.44719e-06
-5.15633e-06
-3.97582e-06
-6.14778e-06
-6.14357e-06
-7.14382e-06
-7.88347e-06
-8.03493e-06
-9.17966e-06
-8.73816e-06
-1.00699e-05
-9.221e-06
-1.0636e-05
-9.50864e-06
-1.09784e-05
-1.11797e-05
-9.65936e-06
-2.7719e-06
3.78614e-05
-4.06279e-06
3.46856e-05
-4.34328e-06
3.19579e-05
-4.062e-06
2.9488e-05
-3.51156e-06
2.69624e-05
-2.86093e-06
2.43192e-05
-2.20452e-06
2.15719e-05
-1.60264e-06
1.87461e-05
-1.09481e-06
1.58708e-05
-7.05283e-07
1.29742e-05
-4.53467e-07
1.00788e-05
-3.62671e-07
7.20436e-06
-4.58771e-07
4.37788e-06
-7.61145e-07
1.64285e-06
-1.2701e-06
-9.38182e-07
-1.95574e-06
-3.29014e-06
-2.75747e-06
-5.34179e-06
-3.59653e-06
-7.04438e-06
-4.39338e-06
-8.38278e-06
-5.08548e-06
-9.37773e-06
-5.64189e-06
-1.00796e-05
-6.0673e-06
-1.0553e-05
-1.08568e-05
-6.39021e-06
-1.37002e-06
3.92315e-05
-2.1684e-06
3.54841e-05
-2.2715e-06
3.2061e-05
-1.96039e-06
2.91769e-05
-1.41669e-06
2.64186e-05
-7.66382e-07
2.36688e-05
-9.42889e-08
2.08998e-05
5.40756e-07
1.81111e-05
1.09779e-06
1.53138e-05
1.54774e-06
1.25242e-05
1.86731e-06
9.75924e-06
2.03431e-06
7.03737e-06
2.02854e-06
4.38368e-06
1.83731e-06
1.83413e-06
1.46294e-06
-5.63755e-07
9.28722e-07
-2.75586e-06
2.78583e-07
-4.69159e-06
-4.3061e-07
-6.33514e-06
-1.14048e-06
-7.67288e-06
-1.80288e-06
-8.71529e-06
-2.38924e-06
-9.49317e-06
-2.89343e-06
-1.00488e-05
-1.0424e-05
-3.32612e-06
8.41033e-08
3.91475e-05
-2.3776e-07
3.5806e-05
-2.0231e-07
3.20256e-05
1.67881e-07
2.88068e-05
7.15218e-07
2.58713e-05
1.35265e-06
2.30314e-05
2.01348e-06
2.02389e-05
2.64654e-06
1.7478e-05
3.21303e-06
1.47474e-05
3.68349e-06
1.20538e-05
4.03409e-06
9.40869e-06
4.24436e-06
6.82715e-06
4.29786e-06
4.33021e-06
4.18558e-06
1.94644e-06
3.91033e-06
-2.88473e-07
3.48984e-06
-2.33534e-06
2.95617e-06
-4.15788e-06
2.35078e-06
-5.72973e-06
1.71717e-06
-7.03926e-06
1.09301e-06
-8.09111e-06
5.03992e-07
-8.90413e-06
-3.83722e-08
-9.50638e-06
-9.92806e-06
-5.34334e-07
1.47723e-06
3.76703e-05
1.49784e-06
3.57855e-05
1.75557e-06
3.17679e-05
2.19484e-06
2.83675e-05
2.75981e-06
2.53063e-05
3.3891e-06
2.24021e-05
4.03229e-06
1.95957e-05
4.64794e-06
1.68624e-05
5.20249e-06
1.41929e-05
5.66895e-06
1.15874e-05
6.02527e-06
9.05244e-06
6.25338e-06
6.59909e-06
6.33992e-06
4.24371e-06
6.27825e-06
2.00813e-06
6.07104e-06
-8.12462e-08
5.73188e-06
-1.99617e-06
5.28455e-06
-3.71054e-06
4.75985e-06
-5.20503e-06
4.19074e-06
-6.47015e-06
3.60714e-06
-7.5075e-06
3.03176e-06
-8.32876e-06
2.4783e-06
-8.95294e-06
-9.40211e-06
1.95233e-06
2.31616e-06
3.53542e-05
2.93673e-06
3.51649e-05
3.43609e-06
3.12685e-05
3.98922e-06
2.78144e-05
4.60289e-06
2.46926e-05
5.24409e-06
2.17609e-05
5.87932e-06
1.89605e-05
6.47833e-06
1.62634e-05
7.01469e-06
1.36566e-05
7.46599e-06
1.11362e-05
7.81363e-06
8.70488e-06
8.0428e-06
6.36998e-06
8.14315e-06
4.14341e-06
8.11014e-06
2.04116e-06
7.94653e-06
8.2376e-08
7.66309e-06
-1.71272e-06
7.27806e-06
-3.32551e-06
6.81494e-06
-4.74191e-06
6.29927e-06
-5.95449e-06
5.75519e-06
-6.96342e-06
5.20255e-06
-7.77614e-06
4.65548e-06
-8.4059e-06
-8.86914e-06
4.12247e-06
2.68584e-06
3.26684e-05
3.90297e-06
3.39477e-05
4.71899e-06
3.04524e-05
5.44589e-06
2.70874e-05
6.15195e-06
2.39866e-05
6.83615e-06
2.10767e-05
7.48438e-06
1.83124e-05
8.07891e-06
1.5669e-05
8.60192e-06
1.31337e-05
9.03719e-06
1.0701e-05
9.37096e-06
8.37121e-06
9.59247e-06
6.14853e-06
9.69478e-06
4.04115e-06
9.67562e-06
2.06035e-06
9.53833e-06
2.19679e-07
9.29214e-06
-1.46654e-06
8.95173e-06
-2.9851e-06
8.53564e-06
-4.32584e-06
8.06424e-06
-5.4831e-06
7.55734e-06
-6.45652e-06
7.03221e-06
-7.25103e-06
6.50244e-06
-7.87618e-06
-8.34451e-06
5.97775e-06
2.70191e-06
2.99664e-05
4.4014e-06
3.22481e-05
5.56523e-06
2.92886e-05
6.51396e-06
2.61387e-05
7.35278e-06
2.31477e-05
8.11265e-06
2.03169e-05
8.79864e-06
1.76264e-05
9.4061e-06
1.50616e-05
9.92674e-06
1.26131e-05
1.03516e-05
1.02763e-05
1.06728e-05
8.05008e-06
1.08844e-05
5.93699e-06
1.09832e-05
3.94235e-06
1.09697e-05
2.07393e-06
1.08481e-05
3.41197e-07
1.06273e-05
-1.24575e-06
1.03198e-05
-2.67753e-06
9.94068e-06
-3.94679e-06
9.50684e-06
-5.04928e-06
9.0348e-06
-5.98449e-06
8.5396e-06
-6.75585e-06
8.03386e-06
-7.37049e-06
-7.83821e-06
7.52753e-06
2.54061e-06
2.74258e-05
4.55193e-06
3.02367e-05
6.02687e-06
2.78135e-05
7.20419e-06
2.49613e-05
8.1976e-06
2.21543e-05
9.05609e-06
1.94584e-05
9.79995e-06
1.68827e-05
1.04364e-05
1.44253e-05
1.09665e-05
1.20831e-05
1.13891e-05
9.85375e-06
1.17026e-05
7.73665e-06
1.19062e-05
5.7334e-06
1.20009e-05
3.84766e-06
1.19898e-05
2.08492e-06
1.18791e-05
4.51935e-07
1.16773e-05
-1.044e-06
1.13958e-05
-2.39605e-06
1.10477e-05
-3.59875e-06
1.06472e-05
-4.64881e-06
1.02084e-05
-5.54571e-06
9.74449e-06
-6.29193e-06
9.26694e-06
-6.89296e-06
-7.35666e-06
8.78538e-06
2.33777e-06
2.50879e-05
4.50009e-06
2.80742e-05
6.20107e-06
2.61125e-05
7.57628e-06
2.35861e-05
8.71914e-06
2.10115e-05
9.68161e-06
1.8496e-05
1.04922e-05
1.60721e-05
1.11668e-05
1.37507e-05
1.17149e-05
1.15352e-05
1.21423e-05
9.4264e-06
1.24536e-05
7.42534e-06
1.26532e-05
5.53377e-06
1.2746e-05
3.75478e-06
1.27382e-05
2.09272e-06
1.26372e-05
5.52873e-07
1.24522e-05
-8.59085e-07
1.21939e-05
-2.13778e-06
1.1874e-05
-3.27886e-06
1.15047e-05
-4.27961e-06
1.10984e-05
-5.13944e-06
1.06667e-05
-5.86017e-06
1.02199e-05
-6.44617e-06
-6.90387e-06
9.76708e-06
2.15325e-06
2.29346e-05
4.35301e-06
2.58743e-05
6.18884e-06
2.42766e-05
7.70832e-06
2.20666e-05
8.97277e-06
1.97471e-05
1.00263e-05
1.74425e-05
1.08989e-05
1.51995e-05
1.16118e-05
1.30379e-05
1.21804e-05
1.09667e-05
1.26165e-05
8.99032e-06
1.293e-05
7.11177e-06
1.31299e-05
5.33388e-06
1.32245e-05
3.66013e-06
1.32224e-05
2.09472e-06
1.31327e-05
6.42517e-07
1.2965e-05
-6.91441e-07
1.27295e-05
-1.9024e-06
1.24371e-05
-2.98645e-06
1.20985e-05
-3.94108e-06
1.17246e-05
-4.76557e-06
1.13257e-05
-5.46124e-06
1.09112e-05
-6.03164e-06
-6.48214e-06
1.04895e-05
1.99885e-06
2.09356e-05
4.17198e-06
2.37011e-05
6.06732e-06
2.23812e-05
7.67212e-06
2.04617e-05
9.01746e-06
1.84017e-05
1.01357e-05
1.63244e-05
1.10546e-05
1.42806e-05
1.17973e-05
1.22952e-05
1.2383e-05
1.03809e-05
1.28279e-05
8.54538e-06
1.31459e-05
6.79373e-06
1.33493e-05
5.13048e-06
1.34491e-05
3.56017e-06
1.34561e-05
2.08772e-06
1.33802e-05
7.18318e-07
1.32316e-05
-5.42833e-07
1.30201e-05
-1.69092e-06
1.27556e-05
-2.722e-06
1.24479e-05
-3.63344e-06
1.21066e-05
-4.42429e-06
1.17409e-05
-5.0955e-06
1.13594e-05
-5.65004e-06
-6.09253e-06
1.09698e-05
1.86995e-06
1.90656e-05
3.98536e-06
2.15856e-05
5.88521e-06
2.04813e-05
7.52137e-06
1.88256e-05
8.90352e-06
1.70196e-05
1.00538e-05
1.51741e-05
1.09965e-05
1.33378e-05
1.1755e-05
1.15367e-05
1.23503e-05
9.78564e-06
1.28009e-05
8.09473e-06
1.31232e-05
6.47134e-06
1.33318e-05
4.92187e-06
1.34395e-05
3.45239e-06
1.34582e-05
2.06901e-06
1.33986e-05
7.7784e-07
1.3271e-05
-4.15188e-07
1.30847e-05
-1.5047e-06
1.2849e-05
-2.48632e-06
1.25726e-05
-3.35705e-06
1.2264e-05
-4.11567e-06
1.19314e-05
-4.76288e-06
1.15827e-05
-5.30129e-06
-5.73499e-06
1.12252e-05
1.76185e-06
1.73037e-05
3.80401e-06
1.95434e-05
5.66844e-06
1.86169e-05
7.29045e-06
1.72036e-05
8.66843e-06
1.56416e-05
9.81814e-06
1.40243e-05
1.07609e-05
1.2395e-05
1.15191e-05
1.07784e-05
1.2114e-05
9.19074e-06
1.25649e-05
7.64372e-06
1.28895e-05
6.14678e-06
1.31031e-05
4.70822e-06
1.32196e-05
3.33581e-06
1.32515e-05
2.03714e-06
1.32097e-05
8.19609e-07
1.31042e-05
-3.0975e-07
1.29442e-05
-1.34461e-06
1.27377e-05
-2.27982e-06
1.24925e-05
-3.11187e-06
1.22162e-05
-3.83926e-06
1.1916e-05
-4.46262e-06
1.15992e-05
-4.98443e-06
-5.40853e-06
1.12728e-05
1.67336e-06
1.56303e-05
3.63059e-06
1.75862e-05
5.42827e-06
1.68192e-05
6.99928e-06
1.56326e-05
8.3388e-06
1.43021e-05
9.45964e-06
1.29035e-05
1.03809e-05
1.14737e-05
1.11234e-05
1.00359e-05
1.17075e-05
8.60661e-06
1.21523e-05
7.1989e-06
1.24752e-05
5.82386e-06
1.26918e-05
4.49152e-06
1.28163e-05
3.21132e-06
1.2861e-05
1.9924e-06
1.2837e-05
8.43641e-07
1.27539e-05
-2.26537e-07
1.26198e-05
-1.21053e-06
1.24422e-05
-2.10212e-06
1.22275e-05
-2.89713e-06
1.19821e-05
-3.59386e-06
1.17127e-05
-4.19312e-06
1.1426e-05
-4.69761e-06
-5.1112e-06
1.11287e-05
1.60311e-06
1.40272e-05
3.46261e-06
1.57268e-05
5.16777e-06
1.51141e-05
6.65948e-06
1.41409e-05
7.93446e-06
1.30271e-05
9.00453e-06
1.18334e-05
9.8869e-06
1.05913e-05
1.06005e-05
9.32232e-06
1.11641e-05
8.04299e-06
1.15957e-05
6.7673e-06
1.19119e-05
5.50765e-06
1.21279e-05
4.27547e-06
1.22575e-05
3.0817e-06
1.2313e-05
1.93696e-06
1.2305e-05
8.517e-07
1.22426e-05
-1.64046e-07
1.21332e-05
-1.10107e-06
1.19829e-05
-1.95176e-06
1.17969e-05
-2.71107e-06
1.15804e-05
-3.37728e-06
1.13391e-05
-3.95178e-06
1.10796e-05
-4.43799e-06
-4.84012e-06
1.08086e-05
1.54399e-06
1.24833e-05
3.29258e-06
1.39782e-05
4.88601e-06
1.35207e-05
6.27926e-06
1.27477e-05
7.47238e-06
1.1834e-05
8.47665e-06
1.08291e-05
9.30748e-06
9.76051e-06
9.98166e-06
8.64813e-06
1.05162e-05
7.50849e-06
1.09274e-05
6.35608e-06
1.12309e-05
5.20416e-06
1.14412e-05
4.06527e-06
1.15714e-05
2.95152e-06
1.16335e-05
1.87491e-06
1.16378e-05
8.47409e-07
1.15929e-05
-1.19109e-07
1.15054e-05
-1.01344e-06
1.13798e-05
-1.8261e-06
1.12197e-05
-2.55085e-06
1.10287e-05
-3.18619e-06
1.08118e-05
-3.73487e-06
1.05756e-05
-4.20167e-06
-4.59153e-06
1.03271e-05
1.48319e-06
1.10001e-05
3.11074e-06
1.23508e-05
4.58211e-06
1.20494e-05
5.86733e-06
1.14625e-05
6.96942e-06
1.07319e-05
7.89909e-06
9.89948e-06
8.66997e-06
8.98964e-06
9.29687e-06
8.02125e-06
9.79487e-06
7.01052e-06
1.01788e-05
5.97219e-06
1.04629e-05
4.92005e-06
1.06609e-05
3.86733e-06
1.07855e-05
2.82702e-06
1.08482e-05
1.8122e-06
1.08594e-05
8.36328e-07
1.08271e-05
-8.67498e-08
1.0757e-05
-9.43321e-07
1.06523e-05
-1.72124e-06
1.05139e-05
-2.41243e-06
1.03438e-05
-3.01602e-06
1.01464e-05
-3.53738e-06
9.92847e-06
-3.98364e-06
-4.36081e-06
9.69782e-06
1.41012e-06
9.59003e-06
2.91232e-06
1.08486e-05
4.26051e-06
1.07012e-05
5.43635e-06
1.02867e-05
6.44471e-06
9.72363e-06
7.2957e-06
9.04854e-06
8.00153e-06
8.28385e-06
8.57533e-06
7.44749e-06
9.03053e-06
6.55537e-06
9.38048e-06
5.62229e-06
9.63826e-06
4.66232e-06
9.81659e-06
3.68904e-06
9.92776e-06
2.7159e-06
9.98331e-06
1.75671e-06
9.99356e-06
8.26138e-07
9.9668e-06
-5.99193e-08
9.90818e-06
-8.84639e-07
9.81897e-06
-1.63197e-06
9.69712e-06
-2.29052e-06
9.54187e-06
-2.8607e-06
9.35739e-06
-3.35284e-06
9.15155e-06
-3.77776e-06
-4.1427e-06
8.93349e-06
1.32505e-06
8.26501e-06
2.70466e-06
9.46904e-06
3.9354e-06
9.47051e-06
5.00566e-06
9.21648e-06
5.92131e-06
8.80803e-06
6.69229e-06
8.2776e-06
7.33001e-06
7.64617e-06
7.84643e-06
6.93112e-06
8.25357e-06
6.14828e-06
8.56339e-06
5.31253e-06
8.78773e-06
4.43804e-06
8.93838e-06
3.53843e-06
9.02714e-06
2.62719e-06
9.06564e-06
1.71826e-06
9.06484e-06
8.26995e-07
9.0339e-06
-2.89237e-08
8.97836e-06
-8.29053e-07
8.89795e-06
-1.55151e-06
8.78581e-06
-2.17833e-06
8.63746e-06
-2.7123e-06
8.45768e-06
-3.17302e-06
8.25676e-06
-3.57682e-06
-3.9317e-06
8.04578e-06
1.24207e-06
7.02297e-06
2.50958e-06
8.20157e-06
3.63197e-06
8.34817e-06
4.6017e-06
8.2468e-06
5.42635e-06
7.98343e-06
6.11676e-06
7.58725e-06
6.6843e-06
7.07868e-06
7.14014e-06
6.47533e-06
7.49503e-06
5.79344e-06
7.75945e-06
5.04817e-06
7.94376e-06
4.25378e-06
8.05855e-06
3.42369e-06
8.1149e-06
2.57088e-06
8.12452e-06
1.70868e-06
8.09947e-06
8.52092e-07
8.05097e-06
1.96179e-08
7.9868e-06
-7.64844e-07
7.90631e-06
-1.47099e-06
7.7952e-06
-2.0672e-06
7.6432e-06
-2.56027e-06
7.45791e-06
-2.98772e-06
7.25406e-06
-3.37297e-06
-3.72286e-06
7.04521e-06
1.1869e-06
5.83609e-06
2.3606e-06
7.0279e-06
3.3834e-06
7.32541e-06
4.25539e-06
7.37486e-06
4.98903e-06
7.24983e-06
5.59773e-06