/*--------------------------------*- C++ -*----------------------------------*\
  =========                 |
  \\      /  F ield         | OpenFOAM: The Open Source CFD Toolbox
   \\    /   O peration     | Website:  https://openfoam.org
    \\  /    A nd           | Version:  9
     \\/     M anipulation  |
\*---------------------------------------------------------------------------*/
FoamFile
{
    format      ascii;
    class       volScalarField;
    location    "4.77";
    object      p;
}
// * * * * * * * * * * * * * * * * * * * * * * * * * * * * * * * * * * * * * //

dimensions      [1 -1 -2 0 0 0 0];

internalField   nonuniform List<scalar> 
2268
(
748.063
747.689
747.101
746.294
745.29
744.115
742.794
741.351
739.811
738.199
736.538
734.848
733.144
731.432
729.701
727.921
726.117
724.371
723.139
722.357
722.034
721.973
721.728
689.29
688.927
688.347
687.543
686.539
685.359
684.027
682.568
681.005
679.365
677.67
675.942
674.195
672.437
670.663
668.864
667.12
665.561
664.497
663.656
663.196
663.026
662.869
630.569
630.211
629.633
628.833
627.825
626.636
625.289
623.809
622.219
620.544
618.81
617.04
615.252
613.456
611.662
609.888
608.265
607.031
606.149
604.999
604.269
604.014
603.891
571.908
571.543
570.96
570.156
569.141
567.938
566.571
565.065
563.444
561.733
559.961
558.152
556.327
554.507
552.717
551.007
549.605
548.905
548.001
546.728
545.653
545.01
544.864
513.305
512.925
512.329
511.514
510.484
509.261
507.869
506.334
504.68
502.933
501.122
499.276
497.419
495.58
493.802
492.157
490.921
490.544
489.687
488.479
486.978
485.986
485.811
454.758
454.357
453.741
452.909
451.859
450.61
449.188
447.619
445.928
444.142
442.291
440.407
438.518
436.658
434.884
433.278
432.073
431.724
431.1
429.865
427.989
426.936
426.729
396.267
395.841
395.202
394.346
393.269
391.987
390.528
388.922
387.191
385.362
383.469
381.544
379.618
377.729
375.941
374.341
373.097
372.52
371.923
370.654
368.846
367.826
367.617
337.831
337.383
336.717
335.835
334.724
333.401
331.898
330.248
328.471
326.595
324.654
322.685
320.714
318.781
316.957
315.326
314.011
313.184
312.366
311.111
309.541
308.557
308.468
719.09
720.4
721.66
722.844
724.024
725.278
726.63
728.066
729.469
730.672
731.38
732.498
733.068
734.526
737.69
739.38
739.712
739.915
741.858
660.638
661.515
662.614
663.866
665.178
666.55
667.999
669.448
670.738
671.812
672.631
674.017
675.692
677.368
678.863
680.075
680.465
680.952
683.684
601.804
602.509
603.466
604.725
606.108
607.576
609.124
610.635
611.979
613.199
614.149
616.103
618.803
619.879
620.282
621.15
621.519
621.908
624.617
542.568
543.397
544.354
545.623
547.048
548.578
550.189
551.793
553.321
554.833
556.76
559.095
561.737
562.108
562.035
562.609
562.802
562.855
565.093
483.181
484.159
485.219
486.535
487.994
489.571
491.265
493.044
494.774
496.608
499.747
502.223
504.557
504.434
504.017
504.367
504.306
503.951
505.682
423.696
424.884
426.056
427.436
428.932
430.548
432.326
434.243
436.19
438.317
441.898
445.023
447.079
446.5
446.114
446.399
446.535
445.42
447.689
364.01
365.692
366.904
368.329
369.86
371.498
373.336
375.374
377.519
379.873
383.373
386.859
388.703
388.252
388.264
388.7
389.689
387.597
390.998
304.067
306.652
307.811
309.236
310.776
312.399
314.272
316.401
318.752
321.409
324.763
327.993
329.816
330.005
330.477
331.256
332.951
331.369
334.662
246.576
246.089
245.384
244.452
243.28
241.876
240.286
238.557
236.7
234.74
232.714
230.665
228.61
226.578
224.657
222.926
221.465
220.31
219.207
217.934
216.547
215.445
214.71
122.734
122.176
121.419
120.399
119.097
117.533
115.782
113.951
112.091
110.168
108.202
106.237
104.299
102.437
100.693
99.107
97.7017
96.4526
95.2547
94.0384
92.816
91.7315
90.8465
30.8086
30.3848
29.9164
29.323
28.6445
27.898
27.0683
26.113
25.1809
24.2484
23.2927
22.3306
21.4293
20.6259
19.886
19.1965
18.5497
17.9638
17.4138
16.8603
16.3043
15.7889
15.3457
-0.103199
-0.146695
-0.173889
-0.19249
-0.122975
0.0275521
0.241692
0.262722
0.246773
0.229818
0.205451
0.15171
0.112659
0.0689802
0.0159951
-0.0631993
-0.214662
-0.331393
-0.391012
-0.42853
-0.440308
-0.456711
-0.509789
-0.643455
-0.640349
-0.64415
-0.638185
-0.604989
-0.544267
-0.45962
-0.422939
-0.410533
-0.404207
-0.405198
-0.415256
-0.440457
-0.470314
-0.503025
-0.544527
-0.580249
-0.612754
-0.63881
-0.668045
-0.686807
-0.703603
-0.721552
-0.985907
-0.97918
-0.977766
-0.975687
-0.975598
-0.984195
-1.01066
-1.02262
-1.02698
-1.02752
-1.0286
-1.03366
-1.04581
-1.06015
-1.07209
-1.07159
-1.0347
-1.01568
-1.0121
-1.02133
-1.02844
-1.02218
-0.999413
-1.2505
-1.24939
-1.24733
-1.24798
-1.25565
-1.26668
-1.27743
-1.28153
-1.28706
-1.28923
-1.28912
-1.28676
-1.28213
-1.27601
-1.26869
-1.26335
-1.26339
-1.25487
-1.24447
-1.22976
-1.21881
-1.20754
-1.18927
-1.42002
-1.42126
-1.42007
-1.41999
-1.42031
-1.41916
-1.41728
-1.41525
-1.41399
-1.41297
-1.4116
-1.40918
-1.40579
-1.40167
-1.39711
-1.39308
-1.39096
-1.38696
-1.38068
-1.37455
-1.36865
-1.36499
-1.36358
-1.54451
-1.54488
-1.54395
-1.54349
-1.54334
-1.54279
-1.54168
-1.53992
-1.53848
-1.53722
-1.53575
-1.53372
-1.53107
-1.52803
-1.52482
-1.52219
-1.52128
-1.52184
-1.52123
-1.51864
-1.51546
-1.51682
-1.52133
-1.66881
-1.66871
-1.66811
-1.66764
-1.66723
-1.66655
-1.6655
-1.66417
-1.66288
-1.66162
-1.66025
-1.65862
-1.65664
-1.65435
-1.65199
-1.6502
-1.6495
-1.64973
-1.65034
-1.65024
-1.65007
-1.65117
-1.65242
-1.79302
-1.79278
-1.79235
-1.79189
-1.79139
-1.79069
-1.78976
-1.78864
-1.78747
-1.78631
-1.78509
-1.78374
-1.78216
-1.78038
-1.77863
-1.7773
-1.7766
-1.77646
-1.77647
-1.77632
-1.77626
-1.77678
-1.77741
-1.91724
-1.91703
-1.91669
-1.91627
-1.91575
-1.91509
-1.91427
-1.91332
-1.91231
-1.91129
-1.9102
-1.90897
-1.90762
-1.90623
-1.90493
-1.90388
-1.90323
-1.90294
-1.90278
-1.90264
-1.90258
-1.90279
-1.90309
-2.04152
-2.04138
-2.04112
-2.04075
-2.04027
-2.03966
-2.03894
-2.03813
-2.03729
-2.03637
-2.03536
-2.03426
-2.03314
-2.03202
-2.031
-2.03017
-2.02961
-2.02932
-2.02924
-2.02915
-2.02907
-2.02909
-2.02908
-2.16588
-2.16582
-2.16564
-2.16533
-2.1649
-2.16436
-2.16372
-2.16301
-2.16226
-2.16143
-2.16053
-2.1596
-2.15866
-2.15775
-2.15692
-2.15625
-2.15577
-2.15551
-2.15548
-2.15546
-2.15539
-2.1553
-2.15511
-2.29031
-2.29035
-2.29024
-2.28998
-2.28961
-2.28913
-2.28857
-2.28794
-2.28725
-2.28652
-2.28574
-2.28495
-2.28416
-2.2834
-2.28272
-2.28216
-2.28174
-2.28148
-2.28138
-2.28138
-2.28133
-2.28116
-2.28101
-2.41483
-2.41494
-2.4149
-2.4147
-2.41438
-2.41397
-2.41347
-2.41291
-2.41231
-2.41166
-2.41099
-2.41031
-2.40963
-2.409
-2.40843
-2.40794
-2.40757
-2.40731
-2.40717
-2.40708
-2.407
-2.4069
-2.40681
-2.53943
-2.5396
-2.53962
-2.53948
-2.53921
-2.53886
-2.53842
-2.53793
-2.5374
-2.53683
-2.53625
-2.53566
-2.53508
-2.53454
-2.53405
-2.53363
-2.53329
-2.53305
-2.53288
-2.53276
-2.53267
-2.53259
-2.53254
-2.66412
-2.66434
-2.6644
-2.66431
-2.66409
-2.66379
-2.66341
-2.66298
-2.66251
-2.66201
-2.6615
-2.66099
-2.6605
-2.66003
-2.6596
-2.65924
-2.65893
-2.6587
-2.65852
-2.6584
-2.65831
-2.65824
-2.65821
-2.78889
-2.78914
-2.78924
-2.78918
-2.78901
-2.78875
-2.78842
-2.78805
-2.78764
-2.7872
-2.78676
-2.78631
-2.78588
-2.78548
-2.78511
-2.78478
-2.78451
-2.78429
-2.78412
-2.78399
-2.7839
-2.78385
-2.78383
-2.91373
-2.914
-2.91413
-2.9141
-2.91396
-2.91374
-2.91346
-2.91313
-2.91278
-2.9124
-2.91201
-2.91162
-2.91124
-2.91089
-2.91056
-2.91027
-2.91003
-2.90983
-2.90967
-2.90955
-2.90946
-2.90941
-2.9094
-3.03864
-3.03892
-3.03906
-3.03905
-3.03894
-3.03875
-3.03851
-3.03823
-3.03792
-3.03759
-3.03725
-3.03691
-3.03658
-3.03627
-3.03598
-3.03573
-3.03551
-3.03532
-3.03517
-3.03506
-3.03498
-3.03494
-3.03493
-3.16361
-3.16388
-3.16402
-3.16403
-3.16394
-3.16379
-3.16358
-3.16333
-3.16306
-3.16277
-3.16248
-3.16218
-3.16189
-3.16162
-3.16137
-3.16114
-3.16094
-3.16078
-3.16064
-3.16054
-3.16047
-3.16044
-3.16043
-3.28861
-3.28886
-3.28901
-3.28903
-3.28896
-3.28883
-3.28865
-3.28844
-3.2882
-3.28795
-3.28769
-3.28744
-3.28718
-3.28694
-3.28672
-3.28652
-3.28635
-3.2862
-3.28608
-3.28599
-3.28593
-3.2859
-3.2859
-3.41365
-3.41388
-3.41402
-3.41405
-3.41399
-3.41388
-3.41373
-3.41355
-3.41334
-3.41313
-3.4129
-3.41268
-3.41246
-3.41225
-3.41205
-3.41188
-3.41172
-3.41159
-3.41149
-3.41141
-3.41135
-3.41133
-3.41133
-3.53873
-3.53894
-3.53906
-3.53908
-3.53904
-3.53895
-3.53882
-3.53866
-3.53848
-3.53829
-3.5381
-3.5379
-3.53771
-3.53753
-3.53736
-3.5372
-3.53707
-3.53696
-3.53686
-3.53679
-3.53675
-3.53673
-3.53674
-3.66385
-3.66402
-3.66411
-3.66413
-3.66409
-3.66401
-3.6639
-3.66377
-3.66362
-3.66345
-3.66328
-3.66311
-3.66295
-3.66279
-3.66264
-3.66251
-3.66239
-3.66229
-3.66221
-3.66216
-3.66212
-3.66211
-3.66212
-3.78899
-3.78912
-3.78918
-3.78918
-3.78915
-3.78908
-3.78899
-3.78888
-3.78875
-3.78861
-3.78846
-3.78832
-3.78817
-3.78804
-3.78791
-3.78779
-3.78769
-3.78761
-3.78754
-3.78749
-3.78747
-3.78746
-3.78747
-3.91414
-3.91423
-3.91425
-3.91424
-3.91421
-3.91416
-3.91408
-3.91398
-3.91387
-3.91375
-3.91363
-3.91351
-3.91338
-3.91327
-3.91316
-3.91306
-3.91297
-3.9129
-3.91285
-3.91281
-3.91279
-3.91279
-3.91281
-4.03932
-4.03936
-4.03934
-4.03931
-4.03929
-4.03924
-4.03918
-4.03909
-4.039
-4.0389
-4.03879
-4.03869
-4.03858
-4.03848
-4.03839
-4.03831
-4.03824
-4.03818
-4.03814
-4.03811
-4.0381
-4.0381
-4.03812
-4.1645
-4.16451
-4.16446
-4.16443
-4.16439
-4.16434
-4.16428
-4.1642
-4.16412
-4.16404
-4.16395
-4.16386
-4.16377
-4.16369
-4.16361
-4.16355
-4.16349
-4.16344
-4.16341
-4.16339
-4.16338
-4.16339
-4.16342
-4.28968
-4.28965
-4.28959
-4.28955
-4.2895
-4.28944
-4.28938
-4.28932
-4.28925
-4.28918
-4.2891
-4.28903
-4.28896
-4.28889
-4.28883
-4.28877
-4.28872
-4.28869
-4.28867
-4.28865
-4.28866
-4.28867
-4.2887
-4.41486
-4.41478
-4.41471
-4.41466
-4.4146
-4.41454
-4.41449
-4.41443
-4.41437
-4.41432
-4.41426
-4.41419
-4.41414
-4.41408
-4.41403
-4.41398
-4.41395
-4.41392
-4.41391
-4.41391
-4.41391
-4.41393
-4.41397
-4.54003
-4.5399
-4.53981
-4.53975
-4.53969
-4.53964
-4.53959
-4.53955
-4.5395
-4.53945
-4.53941
-4.53936
-4.53931
-4.53927
-4.53922
-4.53919
-4.53916
-4.53915
-4.53914
-4.53915
-4.53916
-4.53919
-4.53922
-4.66518
-4.665
-4.66488
-4.66481
-4.66477
-4.66473
-4.6647
-4.66467
-4.66463
-4.6646
-4.66456
-4.66452
-4.66448
-4.66445
-4.66442
-4.66439
-4.66437
-4.66436
-4.66436
-4.66438
-4.6644
-4.66443
-4.66447
-4.7903
-4.7901
-4.78996
-4.78989
-4.78986
-4.78983
-4.78981
-4.78979
-4.78977
-4.78974
-4.78972
-4.78969
-4.78966
-4.78963
-4.7896
-4.78958
-4.78957
-4.78957
-4.78958
-4.7896
-4.78963
-4.78966
-4.78971
-4.9154
-4.91517
-4.91503
-4.91498
-4.91496
-4.91495
-4.91494
-4.91493
-4.91492
-4.9149
-4.91488
-4.91486
-4.91483
-4.91481
-4.91479
-4.91477
-4.91476
-4.91477
-4.91478
-4.91481
-4.91485
-4.91489
-4.91494
-5.04046
-5.04022
-5.04011
-5.04008
-5.04008
-5.04008
-5.04008
-5.04008
-5.04008
-5.04007
-5.04005
-5.04003
-5.04001
-5.03999
-5.03997
-5.03996
-5.03995
-5.03996
-5.03998
-5.04002
-5.04007
-5.04012
-5.04017
-5.16546
-5.16525
-5.1652
-5.16521
-5.16523
-5.16524
-5.16525
-5.16526
-5.16526
-5.16525
-5.16523
-5.16522
-5.1652
-5.16517
-5.16515
-5.16514
-5.16513
-5.16514
-5.16517
-5.16522
-5.16528
-5.16534
-5.1654
-5.2904
-5.29027
-5.29033
-5.29039
-5.29042
-5.29044
-5.29045
-5.29046
-5.29046
-5.29045
-5.29043
-5.29042
-5.29039
-5.29037
-5.29035
-5.29033
-5.29032
-5.29032
-5.29034
-5.29041
-5.2905
-5.29057
-5.29064
-5.41538
-5.41539
-5.41557
-5.41563
-5.41566
-5.41567
-5.41568
-5.41568
-5.41567
-5.41566
-5.41564
-5.41562
-5.41559
-5.41556
-5.41553
-5.41551
-5.41549
-5.41548
-5.41549
-5.41558
-5.41572
-5.41581
-5.41588
-5.54029
-5.54061
-5.54085
-5.54092
-5.54093
-5.54092
-5.54091
-5.54089
-5.54086
-5.54083
-5.54079
-5.54075
-5.54071
-5.54067
-5.54063
-5.5406
-5.54058
-5.54056
-5.5405
-5.54065
-5.54093
-5.54107
-5.54114
-5.66569
-5.6666
-5.66642
-5.66634
-5.66627
-5.66622
-5.66617
-5.66612
-5.66607
-5.66602
-5.66597
-5.66593
-5.66588
-5.66583
-5.66578
-5.66572
-5.66566
-5.66556
-5.66541
-5.6656
-5.66615
-5.66633
-5.66639
214.378
214.17
214.135
214.225
90.3035
90.1924
90.2667
90.3064
15.1339
15.0774
15.0824
15.114
-0.467425
-0.434254
-0.425023
-0.435791
-0.700858
-0.686948
-0.688307
-0.700813
-0.990872
-0.980731
-0.981984
-0.976768
-1.19635
-1.2062
-1.2069
-1.20265
-1.37074
-1.37466
-1.37658
-1.37742
-1.52191
-1.52128
-1.51998
-1.51952
-1.65147
-1.65013
-1.64916
-1.64886
-1.77692
-1.7765
-1.7761
-1.77592
-1.90285
-1.90267
-1.90251
-1.90242
-2.02892
-2.02883
-2.02877
-2.02873
-2.15499
-2.15494
-2.15492
-2.15491
-2.28094
-2.28092
-2.28092
-2.28094
-2.40678
-2.40678
-2.4068
-2.40684
-2.53254
-2.53255
-2.53258
-2.53262
-2.65822
-2.65824
-2.65827
-2.65832
-2.78384
-2.78386
-2.7839
-2.78395
-2.90942
-2.90944
-2.90948
-2.90952
-3.03495
-3.03497
-3.03501
-3.03506
-3.16045
-3.16047
-3.16051
-3.16055
-3.28592
-3.28594
-3.28597
-3.28601
-3.41135
-3.41137
-3.4114
-3.41144
-3.53676
-3.53678
-3.53681
-3.53684
-3.66214
-3.66216
-3.66219
-3.66222
-3.7875
-3.78752
-3.78755
-3.78758
-3.91283
-3.91285
-3.91288
-3.91291
-4.03815
-4.03817
-4.0382
-4.03823
-4.16345
-4.16347
-4.16349
-4.16352
-4.28873
-4.28875
-4.28878
-4.28881
-4.414
-4.41402
-4.41405
-4.41407
-4.53926
-4.53928
-4.5393
-4.53933
-4.6645
-4.66453
-4.66455
-4.66458
-4.78974
-4.78977
-4.78979
-4.78982
-4.91498
-4.915
-4.91503
-4.91506
-5.04021
-5.04024
-5.04026
-5.04029
-5.16544
-5.16547
-5.16549
-5.16552
-5.29068
-5.2907
-5.29073
-5.29075
-5.41592
-5.41594
-5.41596
-5.41598
-5.54117
-5.54118
-5.5412
-5.54121
-5.66642
-5.66643
-5.66644
-5.66644
213.077
214.437
215.433
216.862
218.685
220.73
222.861
225.04
227.358
230.038
233.164
236.078
238.06
239.053
240.181
241.786
244.147
244.573
245.709
90.2267
91.5834
92.9793
94.6826
96.809
99.2905
101.872
104.35
106.648
108.766
110.984
113.231
115.241
116.92
118.613
120.412
122.908
123.991
124.028
15.2253
15.7934
16.5046
17.4043
18.5415
19.8678
21.3247
22.8034
23.9535
24.7399
25.426
26.2163
27.1868
28.2827
29.3583
30.0879
31.2421
31.6202
31.6558
-0.486142
-0.48157
-0.488045
-0.523775
-0.447425
-0.380753
-0.401822
-0.436538
-0.444615
-0.438107
-0.420376
-0.399768
-0.368444
-0.292306
-0.154273
-0.185998
-0.269287
-0.332246
-0.307314
-0.712793
-0.708176
-0.707311
-0.716675
-0.681897
-0.651719
-0.648438
-0.653444
-0.660341
-0.667728
-0.677081
-0.689012
-0.697822
-0.701266
-0.701102
-0.717586
-0.738033
-0.754336
-0.753042
-0.947221
-0.935791
-0.93708
-0.939141
-0.955781
-0.974592
-0.981465
-0.979418
-0.979631
-0.979697
-0.981962
-0.987199
-0.989955
-0.990741
-0.99128
-0.987407
-0.996375
-1.00562
-1.00154
-1.1925
-1.19185
-1.19447
-1.18764
-1.22114
-1.23954
-1.24571
-1.24729
-1.24741
-1.24674
-1.24649
-1.24445
-1.244
-1.24549
-1.24743
-1.24326
-1.24151
-1.23701
-1.23351
-1.38616
-1.39107
-1.39329
-1.39179
-1.39495
-1.39327
-1.39302
-1.39419
-1.39404
-1.3938
-1.39437
-1.39598
-1.39884
-1.40157
-1.40481
-1.40662
-1.41004
-1.40892
-1.40888
-1.52214
-1.52502
-1.52571
-1.5261
-1.52309
-1.52134
-1.52052
-1.52026
-1.51935
-1.51968
-1.52101
-1.52267
-1.5253
-1.52775
-1.53055
-1.53426
-1.53541
-1.53669
-1.53814
-1.64924
-1.65049
-1.65088
-1.65051
-1.6491
-1.64808
-1.64763
-1.64717
-1.64709
-1.64876
-1.6509
-1.65193
-1.65253
-1.65326
-1.65528
-1.65778
-1.65951
-1.66086
-1.66172
-1.77592
-1.77643
-1.77646
-1.7759
-1.77515
-1.7749
-1.77514
-1.77549
-1.77707
-1.77973
-1.78102
-1.78055
-1.77935
-1.77957
-1.78083
-1.78231
-1.7835
-1.78488
-1.7857
-1.90235
-1.90259
-1.90256
-1.90229
-1.90215
-1.90232
-1.90315
-1.90516
-1.90768
-1.90911
-1.90843
-1.90743
-1.9071
-1.90778
-1.90868
-1.90915
-1.90937
-1.90977
-1.91001
-2.0287
-2.02896
-2.02931
-2.02965
-2.0299
-2.03038
-2.03145
-2.03377
-2.0357
-2.03574
-2.03551
-2.03549
-2.03594
-2.03651
-2.03678
-2.03668
-2.03627
-2.03553
-2.03541
-2.15495
-2.1553
-2.156
-2.15688
-2.15743
-2.15793
-2.15863
-2.15978
-2.16087
-2.1613
-2.16201
-2.16304
-2.16345
-2.16329
-2.16262
-2.1622
-2.16184
-2.16151
-2.16179
-2.28102
-2.28138
-2.28206
-2.28307
-2.28376
-2.284
-2.28437
-2.28516
-2.286
-2.28659
-2.28737
-2.28836
-2.28868
-2.28826
-2.28785
-2.2877
-2.28781
-2.28817
-2.28853
-2.40693
-2.40727
-2.4078
-2.40848
-2.40905
-2.40943
-2.40987
-2.4105
-2.41118
-2.41177
-2.41242
-2.41306
-2.41336
-2.41331
-2.41327
-2.41347
-2.41406
-2.41523
-2.41523
-2.53272
-2.53301
-2.53344
-2.53395
-2.53443
-2.53483
-2.53528
-2.53582
-2.5364
-2.53694
-2.53748
-2.538
-2.53832
-2.53848
-2.5387
-2.53916
-2.53998
-2.54141
-2.54161
-2.65842
-2.65868
-2.65903
-2.65945
-2.65986
-2.66025
-2.66066
-2.66114
-2.66164
-2.66213
-2.6626
-2.66305
-2.6634
-2.66368
-2.66403
-2.66458
-2.66538
-2.66648
-2.66695
-2.78405
-2.78427
-2.78457
-2.78493
-2.7853
-2.78566
-2.78605
-2.78647
-2.7869
-2.78734
-2.78776
-2.78817
-2.78852
-2.78886
-2.78924
-2.78976
-2.79042
-2.79114
-2.79135
-2.90962
-2.90982
-2.91008
-2.91038
-2.91071
-2.91106
-2.91141
-2.91179
-2.91218
-2.91257
-2.91296
-2.91332
-2.91367
-2.914
-2.91436
-2.91479
-2.91527
-2.91571
-2.91581
-3.03515
-3.03532
-3.03555
-3.03582
-3.03611
-3.03643
-3.03675
-3.0371
-3.03745
-3.03781
-3.03816
-3.0385
-3.03881
-3.03911
-3.03942
-3.03974
-3.04005
-3.0403
-3.04035
-3.16063
-3.16079
-3.161
-3.16124
-3.1615
-3.16178
-3.16209
-3.1624
-3.16272
-3.16305
-3.16337
-3.16368
-3.16396
-3.16422
-3.16446
-3.16466
-3.16481
-3.16489
-3.16491
-3.28609
-3.28623
-3.28642
-3.28663
-3.28687
-3.28713
-3.28741
-3.2877
-3.288
-3.28829
-3.28859
-3.28886
-3.28911
-3.28933
-3.2895
-3.2896
-3.28958
-3.28951
-3.28942
-3.41151
-3.41165
-3.41181
-3.41201
-3.41223
-3.41247
-3.41272
-3.41299
-3.41327
-3.41354
-3.41381
-3.41406
-3.41429
-3.41447
-3.4146
-3.41462
-3.41448
-3.41431
-3.414
-3.53691
-3.53704
-3.53719
-3.53737
-3.53757
-3.53779
-3.53803
-3.53828
-3.53853
-3.53879
-3.53904
-3.53927
-3.53949
-3.53966
-3.53976
-3.53977
-3.53963
-3.53952
-3.53915
-3.66229
-3.6624
-3.66254
-3.66271
-3.6629
-3.6631
-3.66332
-3.66355
-3.66379
-3.66404
-3.66427
-3.6645
-3.66471
-3.66488
-3.665
-3.66505
-3.66499
-3.66503
-3.66479
-3.78764
-3.78775
-3.78788
-3.78803
-3.78821
-3.7884
-3.78861
-3.78882
-3.78905
-3.78928
-3.78951
-3.78974
-3.78994
-3.79013
-3.79028
-3.79038
-3.79044
-3.79052
-3.79031
-3.91297
-3.91307
-3.9132
-3.91334
-3.9135
-3.91368
-3.91388
-3.91409
-3.9143
-3.91453
-3.91475
-3.91497
-3.91519
-3.91538
-3.91556
-3.91572
-3.91584
-3.91592
-3.91576
-4.03828
-4.03838
-4.0385
-4.03863
-4.03879
-4.03896
-4.03914
-4.03934
-4.03955
-4.03976
-4.03998
-4.04021
-4.04042
-4.04064
-4.04083
-4.04102
-4.04118
-4.04124
-4.0411
-4.16358
-4.16367
-4.16378
-4.16391
-4.16406
-4.16422
-4.16439
-4.16458
-4.16478
-4.16499
-4.16521
-4.16543
-4.16565
-4.16587
-4.16608
-4.16628
-4.16644
-4.16643
-4.16618
-4.28886
-4.28895
-4.28905
-4.28918
-4.28931
-4.28946
-4.28963
-4.28981
-4.29001
-4.29021
-4.29042
-4.29065
-4.29087
-4.29109
-4.29131
-4.2915
-4.29165
-4.29158
-4.29117
-4.41413
-4.41421
-4.41431
-4.41443
-4.41456
-4.4147
-4.41486
-4.41503
-4.41522
-4.41542
-4.41563
-4.41585
-4.41607
-4.41629
-4.41651
-4.4167
-4.41682
-4.41673
-4.41636
-4.53938
-4.53947
-4.53956
-4.53967
-4.53979
-4.53993
-4.54008
-4.54024
-4.54042
-4.54061
-4.54082
-4.54104
-4.54126
-4.54148
-4.54168
-4.54184
-4.54191
-4.54173
-4.54132
-4.66463
-4.66471
-4.6648
-4.6649
-4.66501
-4.66514
-4.66528
-4.66544
-4.66561
-4.66579
-4.666
-4.66621
-4.66643
-4.66665
-4.66684
-4.66696
-4.66693
-4.66661
-4.66596
-4.78987
-4.78994
-4.79003
-4.79012
-4.79023
-4.79034
-4.79048
-4.79062
-4.79078
-4.79096
-4.79116
-4.79137
-4.7916
-4.79182
-4.79201
-4.79212
-4.79203
-4.79161
-4.79085
-4.9151
-4.91517
-4.91525
-4.91534
-4.91543
-4.91554
-4.91566
-4.91579
-4.91595
-4.91612
-4.91631
-4.91652
-4.91675
-4.91699
-4.91721
-4.91735
-4.91727
-4.91683
-4.91603
-5.04033
-5.0404
-5.04047
-5.04054
-5.04063
-5.04072
-5.04083
-5.04095
-5.04109
-5.04125
-5.04144
-5.04165
-5.04189
-5.04216
-5.04243
-5.04265
-5.04266
-5.04223
-5.04139
-5.16556
-5.16562
-5.16568
-5.16574
-5.16582
-5.1659
-5.16599
-5.1661
-5.16622
-5.16637
-5.16654
-5.16675
-5.167
-5.16731
-5.16765
-5.16801
-5.16819
-5.1678
-5.16691
-5.29078
-5.29083
-5.29088
-5.29094
-5.291
-5.29106
-5.29114
-5.29123
-5.29133
-5.29146
-5.29161
-5.29181
-5.29206
-5.29239
-5.29283
-5.29339
-5.29387
-5.29356
-5.29266
-5.41601
-5.41604
-5.41608
-5.41612
-5.41617
-5.41622
-5.41628
-5.41634
-5.41642
-5.41652
-5.41664
-5.41681
-5.41703
-5.41736
-5.41786
-5.41868
-5.41971
-5.41961
-5.41893
-5.54123
-5.54125
-5.54128
-5.5413
-5.54133
-5.54136
-5.5414
-5.54144
-5.54149
-5.54156
-5.54164
-5.54174
-5.5419
-5.54215
-5.5426
-5.5436
-5.54543
-5.54602
-5.54623
-5.66645
-5.66646
-5.66647
-5.66649
-5.6665
-5.66652
-5.66653
-5.66655
-5.66657
-5.66659
-5.66662
-5.66666
-5.66673
-5.66684
-5.66711
-5.66784
-5.67
-5.67293
-5.67512
)
;

boundaryField
{
    leftWall
    {
        type            calculated;
        value           nonuniform List<scalar> 
50
(
748.063
689.29
630.569
571.908
513.305
454.758
396.267
337.831
246.576
122.734
30.8086
-0.103199
-0.643455
-0.985907
-1.2505
-1.42002
-1.54451
-1.66881
-1.79302
-1.91724
-2.04152
-2.16588
-2.29031
-2.41483
-2.53943
-2.66412
-2.78889
-2.91373
-3.03864
-3.16361
-3.28861
-3.41365
-3.53873
-3.66385
-3.78899
-3.91414
-4.03932
-4.1645
-4.28968
-4.41486
-4.54003
-4.66518
-4.7903
-4.9154
-5.04046
-5.16546
-5.2904
-5.41538
-5.54029
-5.66569
)
;
    }
    rightWall
    {
        type            calculated;
        value           nonuniform List<scalar> 
50
(
741.858
683.684
624.617
565.093
505.682
447.689
390.998
334.662
245.709
124.028
31.6558
-0.307314
-0.753042
-1.00154
-1.23351
-1.40888
-1.53814
-1.66172
-1.7857
-1.91001
-2.03541
-2.16179
-2.28853
-2.41523
-2.54161
-2.66695
-2.79135
-2.91581
-3.04035
-3.16491
-3.28942
-3.414
-3.53915
-3.66479
-3.79031
-3.91576
-4.0411
-4.16618
-4.29117
-4.41636
-4.54132
-4.66596
-4.79085
-4.91603
-5.04139
-5.16691
-5.29266
-5.41893
-5.54623
-5.67512
)
;
    }
    lowerWall
    {
        type            calculated;
        value           nonuniform List<scalar> 
62
(
777.492
777.118
776.531
775.723
774.72
773.545
772.223
770.78
769.241
767.629
765.967
764.277
762.574
760.861
759.131
757.351
755.547
753.793
752.561
751.705
751.346
751.288
751.043
721.728
662.869
603.891
544.864
485.811
426.729
367.617
308.468
276.969
276.756
276.715
276.806
719.09
660.638
601.804
542.568
483.181
423.696
364.01
304.067
748.219
749.571
750.885
752.049
753.187
754.433
755.785
757.221
758.709
760.063
760.772
761.89
762.078
763.032
766.75
768.76
769.097
769.23
770.943
)
;
    }
    atmosphere
    {
        type            calculated;
        value           nonuniform List<scalar> 
46
(
-5.72918
-5.72904
-5.72904
-5.72904
-5.72904
-5.72904
-5.72904
-5.72904
-5.72904
-5.72904
-5.72904
-5.72904
-5.72904
-5.72904
-5.72904
-5.72904
-5.72904
-5.72904
-5.72904
-5.72904
-5.72904
-5.72905
-5.72905
-5.72905
-5.72906
-5.72906
-5.72906
-5.72907
-5.72907
-5.72908
-5.72909
-5.72909
-5.7291
-5.72911
-5.72912
-5.72912
-5.72913
-5.72914
-5.72914
-5.72914
-5.72914
-5.72914
-5.72913
-5.72909
-5.72904
-5.74221
)
;
    }
    defaultFaces
    {
        type            empty;
    }
}


// ************************************************************************* //
