/*--------------------------------*- C++ -*----------------------------------*\
  =========                 |
  \\      /  F ield         | OpenFOAM: The Open Source CFD Toolbox
   \\    /   O peration     | Website:  https://openfoam.org
    \\  /    A nd           | Version:  9
     \\/     M anipulation  |
\*---------------------------------------------------------------------------*/
FoamFile
{
    format      ascii;
    class       volScalarField;
    location    "4.77";
    object      p_rgh;
}
// * * * * * * * * * * * * * * * * * * * * * * * * * * * * * * * * * * * * * //

dimensions      [1 -1 -2 0 0 0 0];

internalField   nonuniform List<scalar> 
2268
(
777.492
777.118
776.531
775.723
774.72
773.545
772.223
770.78
769.241
767.629
765.967
764.277
762.574
760.861
759.131
757.351
755.547
753.793
752.561
751.705
751.346
751.288
751.043
777.578
777.215
776.634
775.831
774.827
773.647
772.315
770.856
769.293
767.653
765.958
764.23
762.483
760.725
758.951
757.152
755.403
753.82
752.551
751.941
751.484
751.314
751.091
777.716
777.358
776.78
775.98
774.972
773.783
772.436
770.956
769.365
767.691
765.957
764.187
762.399
760.603
758.809
757.035
755.19
752.072
750.342
750.532
751.072
751.16
751.037
777.914
777.549
776.966
776.162
775.146
773.943
772.576
771.07
769.449
767.739
765.967
764.158
762.333
760.512
758.722
757.012
754.862
750.757
749.853
748.58
749.506
751.015
750.863
778.169
777.789
777.193
776.378
775.348
774.125
772.734
771.199
769.544
767.797
765.986
764.14
762.284
760.445
758.666
757.022
755.572
751.695
749.212
748.003
750.305
750.849
750.664
778.481
778.08
777.464
776.632
775.582
774.333
772.911
771.343
769.651
767.865
766.014
764.13
762.241
760.381
758.607
757.001
755.796
754.665
749.961
749.631
751.529
750.657
750.439
778.849
778.423
777.784
776.928
775.851
774.569
773.11
771.504
769.773
767.944
766.05
764.126
762.2
760.31
758.523
756.923
755.678
755.098
754.405
753.213
751.427
750.407
750.198
779.272
778.823
778.158
777.275
776.165
774.842
773.338
771.688
769.911
768.035
766.095
764.125
762.155
760.222
758.398
756.766
755.451
754.624
753.806
752.551
750.982
749.997
749.908
748.219
749.571
750.885
752.049
753.187
754.433
755.785
757.221
758.709
760.063
760.772
761.89
762.078
763.032
766.75
768.76
769.097
769.23
770.943
748.026
749.741
750.899
752.151
753.462
754.79
756.129
757.583
758.914
759.987
760.807
762.192
761.034
762.882
766.915
768.231
768.621
769.108
771.131
748.677
749.559
750.607
751.867
753.243
754.71
756.257
757.762
759.051
760.095
760.55
759.439
760.109
764.179
767.207
768.076
768.444
768.833
771.538
748.544
749.368
750.331
751.622
753.047
754.576
756.187
757.47
758.923
760.682
755.599
756.924
759.565
764.46
767.73
768.305
768.497
768.551
770.789
748.006
749.006
750.067
751.388
752.849
754.426
755.922
757.312
759.135
761.283
756.581
756.574
758.907
764.811
768.483
768.832
768.702
768.416
769.099
747.415
748.604
749.776
751.15
752.635
754.259
755.955
757.581
759.664
761.809
763.681
757.264
761.3
768.999
769.349
769.634
763.921
768.356
759.328
746.588
748.27
749.482
750.906
752.374
754.009
755.875
757.947
760.092
762.217
765.33
767.714
770.476
770.257
770.269
770.585
762.663
766.294
759.027
745.503
748.089
749.248
750.672
752.212
753.827
755.704
757.832
759.899
761.074
764.431
768.768
770.591
770.78
771.251
772.031
764.408
757.581
759.313
780.043
779.556
778.851
777.92
776.747
775.343
773.753
772.024
770.167
768.207
766.181
764.132
762.077
760.044
758.123
756.392
754.932
753.776
752.674
751.401
750.014
748.911
748.176
781.395
780.837
780.081
779.061
777.758
776.195
774.444
772.612
769.318
765.49
761.451
757.089
752.473
746.671
741.384
736.921
733.635
731.324
729.026
725.837
721.825
717.983
714.941
413.417
408.639
402.096
394.045
384.078
372.743
359.86
347.145
335.038
322.784
310.314
298.623
286.98
277.065
268.272
260.566
254.299
248.827
242.989
236.088
228.153
220.644
214.494
5.17488
4.50553
4.24162
3.97957
4.07266
4.24333
4.15563
3.52792
3.11876
2.84876
2.58369
1.54286
1.50101
1.45331
1.39385
1.30792
1.1525
1.03265
0.969722
0.92851
0.911942
0.891604
0.837477
2.52459
2.35324
2.25246
2.14133
2.54463
3.63608
6.60171
6.74073
6.75314
6.75947
6.75848
6.74826
6.72232
6.69098
6.65595
6.32018
3.89683
2.73701
2.40392
2.49662
2.76173
2.74462
1.62154
1.94169
2.14164
1.9915
1.93506
2.31751
2.66667
2.77862
2.42497
2.66881
2.75898
2.78282
2.66288
2.28313
1.81725
1.2828
0.93493
2.11592
2.2551
2.26193
1.49962
0.989411
0.954206
0.563483
0.944433
1.09215
1.05733
1.04944
0.958112
0.659596
0.230211
0.151203
0.0226275
-0.00458259
-0.0044771
-0.00211561
0.00251527
0.00863586
0.0159537
0.021302
0.0212572
0.0297791
0.0405127
0.191495
0.224814
0.239657
0.558672
-0.0101781
-0.0113903
-0.00989812
-0.0087562
-0.010282
-0.000431473
0.0169977
0.006057
-0.00355171
-0.00313448
-0.00175722
0.000827265
0.00610755
0.0114118
0.0131473
0.0168611
0.0210308
0.194114
0.308661
0.314815
0.220786
0.36948
0.696745
-0.00948611
-0.00983902
-0.00889191
-0.00845091
-0.00831654
-0.00776153
-0.00665415
-0.00489011
-0.00341973
-0.00218424
-0.00071765
0.00389306
0.0107439
0.0137874
0.010577
0.0129924
0.0142998
0.0244279
0.0956055
0.15374
0.199905
0.229567
0.217962
-0.00859338
-0.00831647
-0.00762352
-0.00732294
-0.00701515
-0.00633552
-0.00527904
-0.00394905
-0.00265984
-0.00139763
0.000657963
0.00551652
0.00995853
0.00909058
0.00840501
0.010172
0.0109315
0.0105
0.00988466
0.00999068
0.0101572
0.00906643
0.00781
-0.00760254
-0.00713876
-0.00663435
-0.00637113
-0.0059747
-0.0052758
-0.00434514
-0.00323043
-0.00122839
0.00265887
0.00410456
0.00423511
0.00332768
0.00504087
0.00679652
0.00811503
0.00881282
0.00896404
0.00945438
0.0111649
0.0105295
0.00887308
0.00804925
-0.00663192
-0.00639525
-0.00599801
-0.00563154
-0.0051406
-0.00447994
-0.00366053
-0.00207447
0.00256372
0.00357901
0.00396205
0.00181327
0.00298933
0.00437912
0.00568155
0.00672343
0.00737426
0.00779731
0.0151238
0.0205774
0.020635
0.0157835
0.00800716
-0.00572133
-0.00558188
-0.00532197
-0.00495037
-0.00446488
-0.00385759
-0.00313806
-0.00138457
0.000946231
0.00145525
0.000781983
0.00153896
0.00267508
0.00378338
0.00480076
0.00563107
0.0061944
0.00691341
0.0162328
0.0200874
0.0201671
0.0201119
0.00814412
-0.00476397
-0.00457124
-0.00462893
-0.00433421
-0.00389959
-0.00334629
-0.00268861
-0.00184305
-0.00125674
-0.000434984
0.000465247
0.0014025
0.00234575
0.00325006
0.00407265
0.00474873
0.00522832
0.00548378
0.00561899
0.0132507
0.017664
0.00873126
0.00593852
-0.00380884
-0.00359841
-0.00399184
-0.00379394
-0.00341505
-0.00293004
-0.00236094
-0.00174471
-0.00106353
-0.000330415
0.000445645
0.00124302
0.00203321
0.00278662
0.00346591
0.00403046
0.00444928
0.00470721
0.00481071
0.00481164
0.00485863
0.00502698
0.00528307
-0.00301081
-0.00296826
-0.00343871
-0.00331863
-0.00299748
-0.00257978
-0.0020847
-0.00152791
-0.000922374
-0.000276952
0.00039655
0.0010799
0.00175104
0.00238605
0.00295799
0.00344013
0.00381358
0.00407061
0.00421925
0.00430191
0.00438277
0.00448734
0.00459697
-0.00236884
-0.00240789
-0.00300334
-0.00290047
-0.00263465
-0.00227536
-0.00184226
-0.00135162
-0.000817543
-0.000251257
0.000334509
0.000923935
0.00149916
0.00204126
0.0025306
0.00294929
0.00328521
0.00353449
0.0037042
0.00381842
0.0039093
0.00398953
0.00404009
-0.00160904
-0.00191747
-0.00257629
-0.00253405
-0.0023177
-0.00201083
-0.00163446
-0.00120486
-0.000736026
-0.000240203
0.000270087
0.000781026
0.00127786
0.00174554
0.00216944
0.00253697
0.00283992
0.00307605
0.00325024
0.00337554
0.0034684
0.00353509
0.0035662
-0.00114951
-0.0014109
-0.00217402
-0.00221485
-0.00204063
-0.00178013
-0.00145451
-0.00107972
-0.000669428
-0.000235782
0.000209395
0.000653967
0.0010856
0.00149218
0.00186249
0.00218727
0.0024605
0.00268038
0.00284968
0.00297541
0.00306564
0.00312321
0.0031435
-0.000764228
-0.00103038
-0.00185671
-0.00193716
-0.00179771
-0.00157732
-0.00129642
-0.000970262
-0.000611907
-0.000232918
0.000155815
0.000543627
0.000920097
0.00127535
0.0016005
0.00188838
0.00213431
0.00233641
0.00249586
0.0026161
0.00270092
0.00275137
0.00276505
-0.000519438
-0.000719939
-0.00169311
-0.00169381
-0.00158265
-0.00139679
-0.001155
-0.000871751
-0.000559279
-0.000228322
0.00011123
0.000450009
0.000779136
0.00109041
0.00137663
0.00163201
0.0018525
0.00203623
0.00218323
0.00229487
0.00237266
0.00241676
0.00242573
-0.000940472
-0.000990746
-0.00146484
-0.00147695
-0.00138941
-0.00123336
-0.00102581
-0.000780394
-0.000508438
-0.000219771
7.67106e-05
0.000372766
0.000660764
0.000933787
0.00118583
0.00141202
0.00160884
0.00177429
0.00190765
0.00200912
0.00207899
0.00211696
0.00212203
-0.000858259
-0.0011164
-0.00125861
-0.00128156
-0.00121363
-0.00108292
-0.000905248
-0.000693179
-0.000457034
-0.000205704
5.28607e-05
0.000311407
0.000563319
0.000802673
0.00102434
0.00122414
0.00139888
0.0015465
0.00166586
0.00175646
0.00181798
0.00184985
0.00185131
-0.000708128
-0.000943449
-0.00107753
-0.00110539
-0.00105202
-0.000942386
-0.000790571
-0.000607832
-0.000403361
-0.000185085
3.99393e-05
0.00026533
0.000485315
0.000694756
0.0008892
0.00106495
0.00121911
0.0013496
0.00145505
0.00153459
0.00158758
0.00161334
0.00161123
-0.000596355
-0.000802472
-0.000919492
-0.000945282
-0.000901785
-0.000809274
-0.000679741
-0.000522776
-0.000346341
-0.000157399
3.78322e-05
0.000233747
0.000425286
0.000607946
0.000777806
0.000931562
0.00106654
0.00118071
0.00127261
0.0013412
0.00138566
0.00140528
0.00139953
-0.000515768
-0.000686912
-0.000779735
-0.000797674
-0.00076004
-0.000681594
-0.000571401
-0.00043712
-0.000285534
-0.000122675
4.60066e-05
0.000215594
0.000381646
0.000540191
0.000687739
0.000821307
0.000938431
0.00103716
0.00111602
0.0011739
0.00120995
0.00122347
0.00121398
-0.00045962
-0.000591467
-0.000652068
-0.000657307
-0.000623956
-0.000558168
-0.000465023
-0.000350721
-0.000221129
-8.147e-05
6.35135e-05
0.000209519
0.000352652
0.000489395
0.000616626
0.000731642
0.000832165
0.000916353
0.000982773
0.00103033
0.00105818
0.00106566
0.00105237
-0.000420365
-0.000506479
-0.000526884
-0.000517338
-0.000493042
-0.000439684
-0.000361264
-0.000264241
-0.000153915
-3.47889e-05
8.90708e-05
0.000213942
0.000336434
0.000453438
0.000562154
0.000660128
0.000745262
0.00081583
0.000870476
0.000908162
0.000928105
0.000929689
0.000912578
-0.00039357
0.000100586
0.00256857
0.00207362
-0.000205538
-0.000329609
-0.000262075
-0.000179011
-8.5088e-05
1.60846e-05
0.000121203
0.000227167
0.000331085
0.000430234
0.000522108
0.000604478
0.000675407
0.000733291
0.000776867
0.000805187
0.000817557
0.000813434
0.000792547
-0.000379622
0.000755397
0.00312852
0.0031663
0.00077651
-0.000230629
-0.000168438
-9.59065e-05
-1.56837e-05
6.98836e-05
0.000158407
0.000247485
0.000334734
0.000417791
0.000494421
0.000562585
0.000620487
0.000666633
0.000699859
0.000719329
0.000724471
0.000714841
0.000690247
-0.000368891
0.000555608
0.00330144
0.00334568
0.000986993
-0.000138117
-7.85536e-05
-1.45568e-05
5.37793e-05
0.000125522
0.000199241
0.000273231
0.000345573
0.000414225
0.000477175
0.000532531
0.000578593
0.000613951
0.000637535
0.000648642
0.000646859
0.000631883
0.000603646
-0.000352339
-6.71489e-05
0.00300575
0.00257175
0.000377062
-4.40954e-05
1.0751e-05
6.59242e-05
0.00012293
0.00018192
0.000242239
0.00030273
0.000361831
0.000417741
0.000468597
0.000512576
0.000548017
0.000573543
0.000588159
0.000591311
0.00058281
0.000562567
0.000530682
-0.000321979
-0.000191667
0.000179776
6.34512e-05
1.00594e-05
5.48448e-05
0.000100629
0.000145273
0.000190712
0.000237588
0.000285695
0.00033419
0.000381713
0.000426597
0.000467021
0.000501139
0.000527241
0.00054391
0.000550173
0.000545651
0.000530481
0.000504905
0.00046928
-0.000275119
-0.000105714
9.8069e-06
7.27075e-05
0.00011685
0.000154387
0.000188187
0.000221069
0.000254866
0.000290368
0.000327535
0.000365622
0.000403348
0.00043906
0.000470864
0.000496783
0.000514944
0.000523777
0.000522233
0.000510125
0.00048809
0.000456918
0.000417343
-0.000207766
-2.98482e-06
0.000130794
0.000191813
0.000223477
0.00024713
0.000268288
0.000289422
0.000312244
0.00033757
0.000365365
0.000394877
0.000424805
0.00045341
0.000478626
0.000498222
0.000510026
0.000512153
0.000503285
0.000483385
0.000453913
0.0004166
0.000372741
-0.000117025
0.000112904
0.000251387
0.000300527
0.000317018
0.000326881
0.000335885
0.000346204
0.000359434
0.000376313
0.000396713
0.00041981
0.000444217
0.000468045
0.000488975
0.00050441
0.000511732
0.000508514
0.000492783
0.000464414
0.000426284
0.000381874
0.00033327
1.45748e-05
0.000248889
0.000367436
0.000392442
0.000391226
0.000387778
0.000385912
0.00038719
0.000392958
0.000403728
0.000419187
0.000438378
0.000459803
0.000481424
0.000500644
0.000514431
0.000519611
0.000512944
0.000491027
0.000452787
0.000403612
0.00035051
0.000296601
0.000206228
0.000414229
0.000467967
0.000455275
0.000436886
0.000422577
0.000412393
0.000407453
0.000408739
0.000416359
0.000429709
0.000447675
0.000468695
0.000490671
0.000510814
0.000525741
0.000531878
0.000524959
0.000498565
0.000448322
0.000383983
0.000319859
0.000260156
0.000463614
0.000592289
0.000524897
0.000471094
0.000442449
0.000422375
0.000408181
0.000401254
0.000402033
0.000410021
0.00042426
0.000443528
0.000466337
0.000490707
0.000513857
0.000532363
0.000543014
0.000541247
0.00051563
0.000450368
0.000363472
0.000285672
0.00022067
0.000670529
0.000659463
0.000486894
0.000420469
0.000398654
0.000383078
0.000373717
0.000372872
0.000380089
0.000394158
0.000413875
0.000438097
0.000465603
0.000494691
0.000522633
0.000545992
0.000562428
0.00057078
0.000563751
0.000473249
0.000337379
0.000240304
0.000173238
0.000957385
0.000633742
0.00039363
0.000324647
0.000320284
0.000325581
0.000339426
0.000361486
0.000389435
0.000421582
0.000456967
0.000494972
0.00053496
0.000575551
0.000613724
0.000645529
0.000668807
0.000691227
0.000749255
0.000600255
0.000314382
0.000177204
0.000113048
0.000753194
-0.000162219
2.7465e-05
0.000103941
0.000170545
0.000225485
0.000275848
0.000324774
0.000372793
0.000420271
0.000467765
0.000515957
0.00056549
0.000616315
0.000667219
0.000719218
0.000782505
0.000878671
0.00103736
0.000840617
0.000293159
0.000108993
4.83911e-05
747.796
747.536
747.449
747.552
713.246
712.759
712.351
711.102
210.603
209.297
208.798
208.472
0.878003
0.907752
0.913587
0.900991
1.47595
2.31786
2.31956
2.19313
0.849625
2.20495
1.81204
1.16581
0.734489
0.515824
0.533936
0.478466
0.689394
0.493233
0.292683
0.0767665
0.206198
0.0137635
0.0150658
0.0155228
0.00876626
0.0101457
0.0113209
0.0126305
0.00857786
0.00917257
0.00957079
0.00960325
0.00780546
0.00798698
0.00816296
0.00827702
0.00692897
0.00701755
0.00708145
0.00715814
0.00605907
0.00611137
0.00613265
0.00614814
0.00542735
0.00539084
0.00527231
0.00525207
0.00468194
0.00463027
0.00458885
0.00455738
0.00404435
0.00403119
0.00400885
0.00396769
0.00355862
0.00353839
0.00350436
0.00345748
0.0031298
0.00310645
0.0030698
0.00302157
0.00274809
0.00272372
0.00268675
0.00263928
0.00240696
0.00238268
0.0023468
0.00230142
0.00210215
0.00207846
0.00204432
0.00200165
0.00183061
0.00180762
0.00177536
0.00173548
0.00158978
0.0015674
0.00153685
0.00149953
0.00137724
0.00135529
0.00132617
0.00129102
0.00119068
0.00116895
0.00114094
0.00110759
0.00102791
0.00100621
0.000979029
0.000947112
0.000886855
0.000865049
0.000838461
0.000807674
0.000765513
0.000743504
0.000717331
0.000687419
0.000661901
0.000639625
0.000613723
0.000584478
0.000573989
0.000551394
0.000525652
0.000496913
0.000499696
0.000476735
0.000451063
0.000422722
0.00043691
0.00041353
0.000387863
0.000359863
0.000383494
0.000359644
0.000333945
0.000306287
0.00033729
0.000312939
0.000287221
0.000259987
0.000296109
0.000271284
0.000245647
0.000219028
0.000257703
0.000232555
0.000207245
0.000181588
0.000219739
0.000194641
0.000170138
0.000146005
0.000179707
0.000155465
0.000132611
0.000110867
0.000134644
0.000112986
9.32808e-05
7.52788e-05
8.13097e-05
6.52419e-05
5.14167e-05
3.92506e-05
2.61222e-05
1.58127e-05
7.58302e-06
9.60048e-07
746.513
747.897
748.895
750.323
749.505
747.157
747.369
750.343
755.427
761.392
765.827
768.74
770.723
771.716
772.844
774.269
766.569
759.636
766.917
704.323
706.065
708.331
711.236
716.08
720.605
721.652
719.276
721.162
730.503
744.06
755.283
758.313
754.281
751.418
759.544
767.912
768.996
769.017
208.275
215.064
225.217
238.603
254.515
273.281
294.589
316.032
331.613
340.018
347.616
356.794
367.875
379.616
390.135
399.541
420.705
429.565
428.062
0.850644
0.855206
0.84874
0.813062
0.889378
0.956333
0.936395
0.90282
0.895285
1.02592
1.35018
1.85362
2.31693
3.27631
4.7778
5.01348
4.69268
4.51869
4.53336
0.871706
0.938991
0.999989
0.863413
1.3762
2.11585
1.9612
1.68208
1.61791
1.52327
1.50981
1.49777
1.49021
1.49638
1.90358
1.29887
1.27382
1.25839
1.25881
1.16263
1.46948
1.46819
0.880006
1.94188
2.29462
2.28963
2.29296
2.2933
2.29324
2.29097
2.12632
1.98545
2.00197
2.04394
2.04869
1.73437
1.34241
1.34911
1.34728
1.47314
1.46309
1.46842
1.05665
0.529069
0.371735
0.473117
0.484905
0.510714
0.518506
0.591551
0.645897
0.643525
0.687612
0.802608
1.00601
0.9684
1.02032
0.246928
0.266038
0.196865
0.35209
0.0404301
0.0166083
0.0168664
0.0156896
0.0158448
0.0163917
0.0169106
0.0156959
0.0140266
0.0134033
0.00863136
0.114259
0.0200272
0.0750228
0.151481
0.0129039
0.0100247
0.00933523
0.00893921
0.0119522
0.0137405
0.0147731
0.0153341
0.0218119
0.059813
0.086458
0.0777097
0.0445544
0.012965
0.00578247
0.00207693
0.000929316
-0.000354392
-0.00180113
0.0109991
0.00975246
0.00935988
0.00972906
0.0111393
0.0121603
0.0126076
0.0169781
0.0930415
0.125086
0.122957
0.121485
0.0315849
0.00837244
0.00635677
0.00385328
0.00213139
0.000781071
-8.44083e-05
0.0095177
0.00901076
0.00915087
0.0153908
0.0230551
0.0169642
0.0112167
0.0534192
0.130472
0.12789
0.0614828
0.0309456
0.0370652
0.0578317
0.0434851
0.0266557
0.00899977
0.00206212
0.00123989
0.00830871
0.008042
0.0125408
0.0446727
0.0498309
0.032671
0.0150228
0.0946487
0.133599
0.042524
0.0193864
0.0501555
0.0871943
0.0865181
0.0856178
0.085121
0.0848483
0.0357545
0.00417596
0.00718367
0.00688655
0.0224685
0.0502452
0.0499906
0.0495115
0.0427258
0.0228896
0.0139678
7.70219e-05
0.030214
0.0894575
0.0890342
0.0833271
0.0267296
0.0226744
0.0240774
0.0272552
0.0335337
0.0061088
0.0057695
0.00738929
0.0377364
0.050367
0.02313
0.00297048
0.00123041
0.000122118
-0.000299176
0.00522158
0.0368527
0.0394161
-0.000697778
-0.00162074
-0.00119178
-0.000791552
0.009606
0.0354206
0.00523205
0.00499812
0.00454589
0.00411736
0.00465639
0.00316361
0.00182552
0.00103064
0.000192947
-2.95475e-06
-0.000322639
-0.00216649
-0.00248489
-0.00207212
-0.00166056
-0.00150711
0.00180312
0.0329509
0.0363658
0.00453758
0.00429433
0.00375856
0.00301441
0.00241158
0.00196203
0.00151976
0.000884529
0.000214566
-0.000341291
-0.000987315
-0.00167566
-0.00197144
-0.00192503
-0.00188111
-0.00208395
-0.000819815
0.0241486
0.0369823
0.00386148
0.00356733
0.00339678
0.00338347
0.00288756
0.00187724
0.0013033
0.00075682
0.00018383
-0.000353704
-0.000898465
-0.00141015
-0.0017371
-0.00190366
-0.00212174
-0.00257588
-0.00339676
-0.00365074
0.0353902
0.00335397
0.00309844
0.00288111
0.00309726
0.00271529
0.00232932
0.00164399
0.000634507
0.000133539
-0.000350403
-0.000826328
-0.00127364
-0.00162329
-0.0019072
-0.00225844
-0.00280276
-0.00360754
-0.00470922
-0.00272263
0.00292077
0.00269536
0.00239496
0.00212387
0.00221935
0.00214431
0.00164978
0.000619875
7.42746e-05
-0.000269407
-0.000609455
-0.00110252
-0.00153487
-0.00188599
-0.00227233
-0.00278808
-0.00344774
-0.00417238
-0.00438448
0.00254324
0.00234339
0.00208423
0.0017784
0.00145925
0.00117036
0.000830489
0.000414512
0.000123017
-0.000151062
-0.000537482
-0.000905636
-0.00142226
-0.00183276
-0.00219451
-0.00262261
-0.00310546
-0.00354835
-0.00364732
0.00221134
0.00203296
0.00180551
0.00153786
0.00124378
0.000931993
0.000604394
0.000261444
-8.72836e-05
-0.000379443
-0.000656897
-0.00101934
-0.00143419
-0.00175417
-0.00206149
-0.00238085
-0.00269177
-0.00293754
-0.00299034
0.00191787
0.0017574
0.00155494
0.00131683
0.00105215
0.000767604
0.000466615
0.000151893
-0.000172393
-0.000498765
-0.000818556
-0.00112297
-0.00140579
-0.00166666
-0.00190491
-0.00210956
-0.00225415
-0.00233577
-0.00235642
0.00165771
0.00151213
0.00132974
0.00111525
0.000875073
0.000614578
0.000337715
4.82157e-05
-0.000249191
-0.000547694
-0.000839294
-0.00111524
-0.00136678
-0.00158537
-0.00175714
-0.00185274
-0.00183323
-0.00175709
-0.00167508
0.00142713
0.00129387
0.00112787
0.000932705
0.000713187
0.000473728
0.000218244
-4.92233e-05
-0.000323804
-0.000599148
-0.000867584
-0.00112007
-0.00134593
-0.00153163
-0.00165523
-0.00167554
-0.0015398
-0.00065566
0.0100437
0.00122323
0.00110015
0.000947662
0.000768552
0.000566561
0.000345335
0.000108488
-0.000140054
-0.000395614
-0.000652348
-0.000903095
-0.00113913
-0.00134961
-0.00152005
-0.00162828
-0.00163824
-0.00149594
0.00118791
0.0467144
0.00104363
0.000928943
0.000787705
0.000622078
0.000435012
0.000229501
8.71384e-06
-0.000223788
-0.000463782
-0.000706097
-0.000944421
-0.00117106
-0.00137658
-0.00154917
-0.00167249
-0.00172087
-0.00166346
0.000870637
0.0479533
0.000886302
0.00077856
0.000646752
0.000492545
0.000318245
0.000126261
-8.07535e-05
-0.000299743
-0.000527097
-0.000758449
-0.000988549
-0.00121112
-0.00141878
-0.00160297
-0.0017534
-0.00185758
-0.00191021
-0.00172011
0.0493127
0.00074941
0.000647444
0.000523623
0.000379188
0.000215893
3.56133e-05
-0.000159534
-0.000367077
-0.000584081
-0.000807028
-0.00103174
-0.00125336
-0.00146637
-0.00166478
-0.00184291
-0.00199736
-0.00212491
-0.00220286
0.0507457
0.000631191
0.000534087
0.000417131
0.000281184
0.000127519
-4.24951e-05
-0.00022727
-0.000424925
-0.000633205
-0.000849397
-0.00107028
-0.0012921
-0.0015106
-0.00172122
-0.00192019
-0.00210646
-0.00226823
-0.00232187
0.043222
0.000529874
0.000436946
0.000326024
0.000197621
5.25701e-05
-0.000108225
-0.000283689
-0.000472515
-0.000673089
-0.00088341
-0.001101
-0.00132285
-0.00154524
-0.00176362
-0.00197349
-0.00217085
-0.00232982
-0.00231831
0.0276653
0.000443632
0.00035441
0.00024896
0.000127475
-9.62005e-06
-0.000161859
-0.000328655
-0.000509248
-0.000702619
-0.000907382
-0.00112164
-0.00134275
-0.00156698
-0.00178901
-0.00200244
-0.00219989
-0.00234593
-0.0022749
0.0316074
0.000370582
0.0002848
0.000184523
6.96376e-05
-5.98162e-05
-0.000203788
-0.000362164
-0.000534703
-0.00072095
-0.000920073
-0.00113061
-0.00135009
-0.00157431
-0.00179654
-0.00200793
-0.00219756
-0.00232543
-0.00222837
0.0321815
0.00030881
0.000226409
0.000131267
2.29639e-05
-9.88315e-05
-0.000234471
-0.000384297
-0.000548585
-0.000727438
-0.00092057
-0.00112693
-0.00134402
-0.00156677
-0.00178596
-0.00198739
-0.0021494
-0.00221605
-0.00203552
-0.000107126
0.000256418
0.000177564
8.77814e-05
-1.36624e-05
-0.000127464
-0.000254366
-0.000395158
-0.000550642
-0.000721518
-0.000908136
-0.00110999
-0.00132474
-0.00154647
-0.001763
-0.0019525
-0.00207571
-0.00204756
-0.00172053
-0.00103282
0.000211576
0.000136683
5.27573e-05
-4.12638e-05
-0.000146435
-0.00026387
-0.000394796
-0.000540553
-0.000702519
-0.000881872
-0.00107904
-0.00129254
-0.00151675
-0.00173808
-0.0019293
-0.00203673
-0.00195045
-0.00153061
0.0123053
0.000172579
0.000102342
2.50455e-05
-6.07188e-05
-0.000156345
-0.00026328
-0.000383152
-0.000517835
-0.000669456
-0.000840256
-0.00103213
-0.00124561
-0.00147742
-0.00171575
-0.00193316
-0.00206972
-0.00199783
-0.00155345
0.0191246
0.000137881
7.33125e-05
3.6883e-06
-7.27478e-05
-0.000157681
-0.000252814
-0.000360093
-0.000481858
-0.000620982
-0.000780921
-0.000965548
-0.00117869
-0.00142185
-0.00168926
-0.00195979
-0.0021746
-0.00218911
-0.00175878
0.0194618
0.000106147
4.86027e-05
-1.20716e-05
-7.79359e-05
-0.000150867
-0.000232695
-0.000325525
-0.000432004
-0.000555596
-0.000700903
-0.00087404
-0.00108302
-0.00133641
-0.0016398
-0.00198742
-0.0023352
-0.00251881
-0.00213117
0.0184287
7.63634e-05
2.75851e-05
-2.26768e-05
-7.66398e-05
-0.000136197
-0.000203108
-0.000279411
-0.000367755
-0.000471825
-0.000596933
-0.000751025
-0.00094619
-0.00119928
-0.00153208
-0.00196887
-0.00250977
-0.00300149
-0.00270186
0.0160713
4.81731e-05
1.0347e-05
-2.79017e-05
-6.86279e-05
-0.000113466
-0.000163848
-0.000221431
-0.000288444
-0.000368143
-0.000465579
-0.000589082
-0.000752632
-0.000978831
-0.00130613
-0.00179848
-0.00253603
-0.00359105
-0.00355333
0.0154005
2.16173e-05
-3.10772e-06
-2.79284e-05
-5.43406e-05
-8.33896e-05
-0.000115911
-0.000152866
-0.000195583
-0.000246105
-0.000307825
-0.000386831
-0.000494513
-0.000651974
-0.000901117
-0.00132537
-0.00222788
-0.00406144
-0.0047702
0.0137095
-7.83935e-06
-1.96775e-05
-3.14765e-05
-4.40065e-05
-5.75866e-05
-7.24059e-05
-8.8669e-05
-0.000106672
-0.000126925
-0.000150426
-0.000179381
-0.000219096
-0.000282444
-0.000400357
-0.000646254
-0.00133282
-0.00350488
-0.00648772
0.00434624
)
;

boundaryField
{
    leftWall
    {
        type            fixedFluxPressure;
        gradient        uniform 0;
        value           nonuniform List<scalar> 
50
(
777.492
777.578
777.716
777.914
778.169
778.481
778.849
779.272
780.043
781.395
413.417
5.17488
2.52459
1.94169
0.944433
-0.0101781
-0.00948611
-0.00859338
-0.00760254
-0.00663192
-0.00572133
-0.00476397
-0.00380884
-0.00301081
-0.00236884
-0.00160904
-0.00114951
-0.000764228
-0.000519438
-0.000940472
-0.000858259
-0.000708128
-0.000596355
-0.000515768
-0.00045962
-0.000420365
-0.00039357
-0.000379622
-0.000368891
-0.000352339
-0.000321979
-0.000275119
-0.000207766
-0.000117025
1.45748e-05
0.000206228
0.000463614
0.000670529
0.000957385
0.000753194
)
;
    }
    rightWall
    {
        type            fixedFluxPressure;
        gradient        uniform 0;
        value           nonuniform List<scalar> 
50
(
770.943
771.131
771.538
770.789
769.099
759.328
759.027
759.313
766.917
769.017
428.062
4.53336
1.25881
1.34911
1.02032
0.151481
-0.00180113
-8.44083e-05
0.00123989
0.00417596
0.0335337
0.0354206
0.0363658
0.0369823
0.0353902
-0.00272263
-0.00438448
-0.00364732
-0.00299034
-0.00235642
-0.00167508
0.0100437
0.0467144
0.0479533
0.0493127
0.0507457
0.043222
0.0276653
0.0316074
0.0321815
-0.000107126
-0.00103282
0.0123053
0.0191246
0.0194618
0.0184287
0.0160713
0.0154005
0.0137095
0.00434624
)
;
    }
    lowerWall
    {
        type            fixedFluxPressure;
        gradient        uniform 0;
        value           nonuniform List<scalar> 
62
(
777.492
777.118
776.531
775.723
774.72
773.545
772.223
770.78
769.241
767.629
765.967
764.277
762.574
760.861
759.131
757.351
755.547
753.793
752.561
751.705
751.346
751.288
751.043
751.043
751.091
751.037
750.863
750.664
750.439
750.198
749.908
747.796
747.536
747.449
747.552
748.219
748.026
748.677
748.544
748.006
747.415
746.588
745.503
748.219
749.571
750.885
752.049
753.187
754.433
755.785
757.221
758.709
760.063
760.772
761.89
762.078
763.032
766.75
768.76
769.097
769.23
770.943
)
;
    }
    atmosphere
    {
        type            totalPressure;
        rho             rho;
        psi             none;
        gamma           1;
        p0              uniform 0;
        value           nonuniform List<scalar> 
46
(
-0.000137322
0
0
0
0
0
0
0
0
0
0
0
0
0
0
0
0
0
0
-8.25346e-07
-2.87662e-06
-6.25455e-06
-1.05622e-05
-1.41156e-05
-1.65516e-05
-1.90605e-05
-2.16281e-05
-2.61042e-05
-3.25742e-05
-3.92811e-05
-4.61792e-05
-5.32378e-05
-6.04279e-05
-6.77075e-05
-7.50042e-05
-8.21937e-05
-8.90745e-05
-9.53352e-05
-0.000100507
-0.000103877
-0.000104287
-9.96372e-05
-8.5514e-05
-5.30757e-05
-7.60881e-07
0
)
;
    }
    defaultFaces
    {
        type            empty;
    }
}


// ************************************************************************* //
